/*--------------------------------*- C++ -*----------------------------------*\
| =========                 |                                                 |
| \\      /  F ield         | OpenFOAM: The Open Source CFD Toolbox           |
|  \\    /   O peration     | Version:  v2012                                 |
|   \\  /    A nd           | Website:  www.openfoam.com                      |
|    \\/     M anipulation  |                                                 |
\*---------------------------------------------------------------------------*/
FoamFile
{
    version     2.0;
    format      ascii;
    class       volScalarField;
    location    "100";
    object      ddt0(omega);
}
// * * * * * * * * * * * * * * * * * * * * * * * * * * * * * * * * * * * * * //

dimensions      [0 0 -2 0 0 0 0];


internalField   nonuniform List<scalar> 
27802
(
0.0009346
1.0414e-06
2.89851e-05
-6.91174e-08
-0.00721442
-9.80259e-07
6.11847e-05
1.69616e-06
-0.000540542
5.22397e-06
4.43673e-08
-0.123052
-0.097348
0.00117191
3.24432e-07
6.09606e-05
-1.03198e-06
-0.0872359
-3.50262
-0.00192636
9.98993e-07
1.02863e-06
0.000814491
-0.00170147
-1.33867e-07
-4.08914e-06
3.61339e-07
5.81749e-06
2.73705e-08
-0.400291
1.22986e-06
-0.000157267
0.227738
-0.020081
0.127311
-9.08051e-07
0.0131898
-0.239134
7.49266e-07
2.9175e-06
5.8537e-08
3.23733e-06
0.174768
0.127169
5.62454e-06
8.6151e-07
-0.00266939
-1.37044e-06
1.68661e-07
-0.00243884
-1.65151e-06
7.77694e-06
-0.00922142
-1.51836e-06
-3.42717e-06
-1.99683e-06
0.0960262
0.000836757
1.48026e-05
0.0606251
-8.38862e-07
1.63793e-05
0.0141758
-1.6494e-06
-0.0738308
-0.00171043
0.0375077
-1.05195e-05
-0.0463761
-4.23121e-05
-2.61256e-07
-0.00067256
-0.378447
-0.00100668
-0.0450035
4.77213e-06
-0.24849
0.0425151
-0.00204081
4.94823e-05
0.160049
0.0583842
8.94726e-07
0.000731046
2.51874e-06
3.93253e-06
3.01608e-07
-3.55702e-06
-0.000863495
-0.0148451
0.0264831
1.22981e-05
-0.0243301
4.52163e-05
-1.1367e-06
5.79062e-07
-3.80651e-05
-0.0211056
-1.74694e-07
-0.00459962
0.0347166
1.48378e-06
7.4991e-06
2.35355e-06
-0.0109851
1.16296e-05
0.104968
-0.000455908
-1.5479e-06
5.29561e-06
3.28963e-05
5.03777e-07
1.86846e-06
0.11013
1.63876e-06
0.00624316
-1.39013e-05
1.06964e-07
-2.18834e-05
-0.00165431
-0.140624
0.00630336
-0.000178848
2.02948e-07
-3.2673e-06
-0.000940741
-0.019014
0.0266656
-0.123768
-0.130418
7.35934e-06
-0.000168936
-2.88066e-05
7.02986e-06
1.55759e-07
-5.16151e-06
8.67517e-06
2.60383e-06
-0.000374419
0.00166048
-7.56237e-06
-2.15207e-07
-0.000572253
8.33867e-07
1.48113e-06
-1.31208e-06
9.10662e-06
1.418e-07
7.3301e-06
-5.47633e-05
9.30367e-09
-1.99806e-06
-2.69609e-06
-1.12947e-05
-0.00162623
2.91302e-06
-0.00631609
0.00165509
2.22691e-06
-0.00185686
-0.0151455
-0.0010569
3.29749e-06
-1.81634e-05
-1.06885e-06
1.70576e-06
3.78052e-08
-2.01062e-06
1.89684e-06
-0.0020144
2.45898e-06
-1.05534e-05
-2.55005e-06
0.608984
2.95845e-07
-0.032504
1.35542e-06
4.69857e-06
5.92411e-06
0.0097023
-0.00157749
-0.00037496
-3.06761e-05
-1.60175e-06
-2.62841e-06
0.000522372
1.94452e-06
-1.47555e-06
-0.00420575
-0.647879
-1.55031e-07
3.45414e-05
0.000818752
6.81496e-06
3.54534e-06
2.82549e-06
3.71024e-06
3.84482e-06
9.7033e-07
-9.25914e-07
-0.118894
-0.265346
0.0330751
-1.53392e-05
-1.69493e-06
-0.000158235
-1.37561e-06
-0.0122541
6.25249e-07
0.0442752
-6.19322e-07
-1.35289
-0.00239802
8.36179e-06
-0.00498276
-2.21161e-07
0.0318311
4.42355e-05
-4.53801e-08
-2.64153e-06
-0.132189
-1.0039e-06
0.00055609
0.00256722
-2.62897e-06
1.06409e-06
2.53239e-06
3.07811e-05
8.63533e-07
6.76669e-07
7.45278e-08
0.0883717
6.10124e-07
5.63117e-05
-3.75287
0.00172064
1.31478e-06
-0.0174112
0.180823
0.000210762
2.74909e-06
1.61656
1.62753
-1.05894e-06
4.25541e-06
0.302227
3.07109e-06
0.0564673
2.63662e-05
2.45769e-05
-0.246446
3.49084e-05
0.000929701
2.6997e-06
3.35448e-06
4.01858e-06
2.72923e-06
0.0759022
-1.44394e-05
3.96199e-06
4.20158e-05
2.96321e-06
-0.0492856
-1.55194e-06
-0.134672
3.29969e-07
-0.147169
1.06232e-06
-1.18645e-06
7.02653e-07
0.0017966
1.50199e-08
0.0016492
0.0546109
7.24607e-06
0.00937223
-1.49473e-06
4.27037e-05
4.39909e-06
2.1688e-06
-1.38205
5.12291e-05
-2.06556e-05
-0.00355906
-0.0180592
-0.0836037
0.0431193
-2.51729e-06
-1.03496e-05
-8.33765e-06
-1.16028e-06
-0.00319753
5.38583e-06
-0.08163
5.20002e-06
-0.00167276
0.00714915
3.78251e-06
0.0181309
0.178289
-0.00179876
-2.02015e-06
2.89598e-05
-0.00166575
-2.87848
-0.000901292
3.35559e-06
-0.110858
0.000423404
-6.38589e-07
-0.000146504
0.000578898
-0.000713108
6.44859e-06
-4.50508e-05
-6.88984e-07
-0.000151252
0.000891612
-2.38727e-05
0.00130628
-1.21699e-06
-1.68742e-06
-3.58461e-07
-9.84495e-06
0.271314
-5.7773e-05
-0.0625453
-5.7111e-05
-1.82675e-06
3.56241e-05
1.33282e-05
-0.476501
-0.010132
0.00576818
0.00145254
0.651901
-0.000699587
-3.00892e-06
-0.00130799
-3.08055e-07
-8.35971e-07
-0.083957
-0.5301
-0.00426418
-0.00239278
-1.1365
-0.00328694
-0.13363
2.21701e-05
-0.0229131
3.49975e-06
-0.0286427
-3.40961e-06
-5.541e-06
-6.7349e-07
1.35689e-05
0.114227
-0.0254391
-5.7708e-07
-5.00831e-06
-0.0543663
-0.0785204
-4.26596e-06
-7.64045e-05
2.95386e-06
1.26196e-06
0.0363624
-2.4382e-06
5.20164e-05
-3.29657e-06
-3.17126e-06
-0.00578299
-0.00071958
-0.00213364
-0.214408
-0.1474
-0.000740501
4.62358e-05
-8.63944e-05
2.9643e-07
-1.65948e-06
2.67314e-06
-1.48403e-06
6.65279e-06
-3.85249e-06
-1.06564e-06
-0.000831619
-0.00017988
-0.0207967
0.000250415
-1.08546e-06
9.33819e-07
0.000378899
-2.09591e-05
1.78982e-06
-0.30866
-0.74326
-0.00126939
-1.04496e-05
0.00074053
-0.0845665
2.03665e-05
-6.53469e-07
-0.00218133
1.69646e-06
-0.329062
-0.000300013
-0.008693
-0.0782863
-0.000324749
0.053151
1.42361e-06
-0.129322
-0.0986819
0.0440139
-3.56726e-07
-7.18289e-06
4.6421e-05
5.75231e-07
-0.335755
0.188203
1.78514e-05
-9.72314e-05
-3.43398e-06
0.0365804
-9.78054e-06
8.15986e-05
-0.139741
-0.00143661
7.34878e-08
-3.95026e-07
-0.000282272
0.0409497
1.05587e-06
-5.99813e-06
1.7589e-06
-0.0012638
-0.422806
-0.373764
-2.44515e-05
0.000346917
-0.000280187
5.02582e-07
1.78093e-07
0.000877356
-7.22509e-07
-9.01119e-07
7.70272e-05
-0.000792922
-0.000782424
-0.582595
0.120697
0.0823995
0.150545
5.09832e-06
0.000202665
4.59491e-05
0.23757
-0.192061
-2.84826e-06
0.00270146
-0.0229358
-0.0015468
-0.00213633
-8.17966e-07
8.77318e-07
0.0161058
-6.85372e-07
0.177049
-7.49476e-07
-6.57704e-05
1.28435e-07
-2.15516e-06
-0.00379967
0.202752
-0.103091
2.3514e-05
0.0493778
-5.9519e-07
-1.13719e-05
-0.00203662
-1.02752e-05
3.34053e-05
0.000943493
-0.000820962
-0.10891
-2.69025e-05
6.35909e-06
-0.00219136
-4.36556e-07
-1.88895e-06
-0.0373869
8.93909e-07
-0.151318
1.55657e-05
-0.100474
-0.0652625
-0.060043
1.11769e-06
-0.0192943
-0.113184
-4.99581e-05
-0.271868
-0.00236061
-0.0953601
0.00797821
-2.72915e-07
-0.000295414
-0.000728439
-5.46841e-06
-1.10956e-06
-0.0528084
-0.000837703
1.31847e-06
-5.27496e-07
-0.00769828
-0.0382614
-0.000235071
-1.01957e-05
-0.000769763
2.2983e-06
-0.0204524
1.54409e-06
0.000642778
0.0087925
1.37891e-07
4.70094e-06
-5.39483e-06
-0.400386
-0.0922223
-0.00102538
-0.294138
-9.95628e-06
-2.70552e-06
-0.0807886
3.3044e-07
7.37449e-07
1.36265e-06
4.81467e-06
0.0127211
-0.00644833
-4.5939e-06
1.64802e-05
-1.0242e-05
-0.000414631
-1.33597e-06
7.56121e-06
-0.395466
0.000445939
-0.000149617
0.00398424
-0.00168696
-0.716404
-1.70291
8.73689e-07
-0.0983035
6.23242e-06
6.59024e-05
0.000197219
9.06982e-07
1.53459e-06
-0.098692
2.13126e-06
1.48817e-06
3.46337e-07
-0.202308
1.79124e-07
-1.52914e-06
-0.00809901
-0.00162503
0.0117081
-0.18066
-0.0694071
-4.83524e-05
-0.00162134
-1.65078e-06
-0.137679
-1.02275e-06
0.000588308
0.0721107
-0.00357657
0.139554
0.000152412
8.26606e-06
0.115338
-0.000420591
4.39036e-06
0.103494
-0.00180826
-0.0253665
0.0898437
-0.00128583
5.63327e-06
-1.07324e-05
-0.000399448
-1.4545e-06
-0.00637806
-0.00270609
5.56934e-06
-4.11471e-06
-2.21008e-06
-0.00474225
-0.0264896
8.04586e-06
0.766019
-0.140522
4.57178e-06
-2.73502e-06
-3.43727e-06
-0.0304571
-0.0525291
0.266957
-0.0129866
-0.00097097
-0.0348168
1.14525e-06
-0.00283603
-4.23279e-06
-0.172149
-0.123634
-2.18678e-06
0.00133657
-0.424727
-0.00959997
-1.87251e-06
-0.607554
-4.34957e-05
-0.0459394
2.37975e-05
-1.14425e-05
-0.57108
-0.367252
-0.00176749
1.07596e-06
0.000278329
-1.97395e-05
0.000413306
-2.15175e-07
0.448944
6.38138e-07
1.63193e-06
-1.21564e-05
0.000557009
-0.0374398
-0.00267178
4.14358e-06
-0.455465
-8.59738e-05
0.0500086
1.11073e-06
-0.00396292
-0.00029329
-0.000824463
-0.129487
1.82232e-05
0.0520785
4.04182e-06
1.42533e-06
-0.00025614
-1.86866e-06
8.55016e-07
-0.00254408
0.00947711
0.0304165
-9.98187e-06
-0.000986897
1.43322e-05
5.11483e-06
0.0133873
1.17753e-06
-5.85453e-06
0.194973
0.0413691
-1.06253e-05
-1.3461e-07
2.20104e-06
-1.30918e-06
0.000246447
-0.00017262
0.0292641
0.678133
3.63994e-05
0.000589231
-0.000469615
-0.01616
0.0657756
0.00153376
-4.99458e-07
0.0200979
-5.00842e-06
-0.01446
1.28491e-05
-0.0334783
0.000264479
-0.149254
4.66049e-06
4.68728e-06
-0.00430804
-6.38707e-07
1.60579e-07
-1.06881e-05
-0.000330616
1.7928e-06
-0.00424072
9.35841e-07
-0.0252956
2.55585e-05
-3.51572e-06
-0.00152468
-4.44638e-05
-0.000227498
1.06337
-0.00228887
-0.000167995
0.00157446
-0.000128935
-0.0710451
-0.015201
-0.00324507
-0.000202318
-0.6714
1.59322e-07
2.5239e-05
4.9019e-06
0.560097
-0.00297667
-5.85462e-06
-5.40279e-05
0.0133498
0.0239762
0.439445
0.020607
2.01492e-05
0.00146768
-0.564362
4.30053e-06
0.129736
-0.307175
0.000969121
-2.31837e-06
-0.00166415
-1.0413e-06
0.00847027
-8.06795e-07
-0.00296469
-0.118349
2.90005e-07
2.85873e-07
-0.146056
-0.170753
-0.000131553
0.000117208
-1.72654e-06
-3.48974e-06
3.50141e-05
0.000670863
0.00013519
-0.0706687
-0.000766211
2.53927e-05
1.21935e-05
0.000297233
-0.104662
1.82745
-2.11117e-05
1.35514
0.0662086
-9.3058e-05
-2.99371e-06
2.58035e-07
-3.39347e-06
-0.102363
3.47676e-07
-0.000228686
4.31303e-06
-0.498329
0.0493105
8.48818e-07
-6.61835e-07
-3.88484e-05
0.775204
-1.26639e-06
-3.54812e-05
0.000215399
0.000656704
-3.62386e-07
-0.174467
1.01725e-06
0.19793
9.84868e-07
1.93071e-07
1.69322e-05
0.000145203
-0.498591
-6.37492e-05
0.100228
-0.00855485
-0.000163729
-0.00819755
0.697125
0.00111301
0.000132014
0.000147604
1.22624e-06
1.26394e-05
-0.00102421
1.15371e-05
0.000536518
-0.0116793
-0.0926275
4.69741e-06
1.15354
-0.111372
0.0132822
-0.211091
0.00306289
-2.30389e-05
-0.0585326
0.100691
2.10994e-06
-9.94662e-06
7.1901e-07
-3.6938e-06
0.311058
1.21033e-06
-2.34543e-06
-0.0603141
0.1972
-0.125226
2.90186e-06
-5.81335e-05
4.90333e-06
-8.14484e-06
-0.000905096
1.74719e-06
-0.0086353
6.51463e-07
3.93752e-07
-1.16617e-05
-1.26416e-05
-0.00600154
-2.91175e-07
0.325527
2.79223e-05
-1.6414e-07
0.400555
4.63211e-08
1.15061e-06
-0.178951
-0.000340455
4.80315e-05
0.000374623
-1.3729e-06
-8.52681e-06
-0.000130912
5.15577e-06
0.159726
-0.00175982
-0.0159907
5.69027e-05
0.000379651
-0.00606778
-2.5126e-06
9.3239e-05
-0.140587
-0.00014237
5.08097e-07
4.97577e-05
-1.03357e-05
2.24569e-06
0.330539
0.000665762
-2.58948e-06
-3.79816e-07
-0.000417623
-0.00131456
-8.03533e-06
0.0838488
2.37935e-06
5.56984e-06
0.792974
1.02944e-06
-3.20661e-06
4.20738e-06
0.000217012
-0.000611
-5.21497e-06
-0.00519437
7.2907e-05
0.360087
-7.87307e-06
1.03519e-06
0.926659
-2.93801e-06
-1.84053e-06
-3.07746e-06
-4.86407e-06
2.15449e-06
-0.126005
5.21472e-06
0.301954
-2.07031e-07
-4.97397e-05
-1.27805e-05
-4.41405e-05
-3.81603e-05
-1.80776e-06
-6.03322e-05
0.809833
-0.00153132
0.0291003
2.53253e-08
-0.965663
-7.27448e-05
-0.000132413
7.52312e-06
-1.01442e-07
7.62477e-07
0.000107702
-7.55242e-07
-0.0103996
-4.0444e-06
-5.59133e-05
9.14956e-05
0.0404613
1.52569e-06
-0.000328692
-1.06761e-06
8.4866e-07
-0.00248733
0.0570541
-0.232868
-2.68684e-06
8.37653e-07
-0.00122717
-3.90067e-07
-0.358424
-0.0163853
-0.00021792
-0.171419
-6.28427e-07
0.084967
7.14876e-06
4.60018e-05
-0.000251753
-0.107679
3.30218e-06
-0.000145478
-0.636615
-7.89051e-07
6.78124e-05
4.21754e-07
-0.00250914
-0.00209306
-0.000234729
2.28074e-07
2.77271e-05
0.0287375
-0.00746057
1.46008
5.73495e-05
-0.0111647
1.44571e-06
1.30785e-05
2.91944e-05
-0.319763
-3.96172e-06
-6.33982e-07
-2.09133e-06
3.48091e-05
0.000274782
-1.22499e-06
1.90837e-05
-3.5855e-06
2.19359e-05
-0.00568447
-2.95366e-05
-7.46022e-05
1.41962e-06
0.00221157
-0.00047595
3.76771e-05
0.0734592
1.46604e-05
0.0215569
3.4372e-07
-0.163989
0.00552854
-3.31677e-05
-9.19325e-07
-5.30993e-05
3.72972e-07
-0.0258702
0.00270928
-9.37971e-06
2.55878e-06
0.113314
1.218
5.09575e-07
-0.0130612
0.0500545
-0.00685738
-3.01959e-06
0.006688
0.0768932
-0.162997
-1.67204e-06
0.00144595
-1.50321e-06
7.2233e-05
9.44e-05
4.94106e-07
-6.73516e-06
6.18304e-07
1.24999e-05
-0.000890721
-0.111055
-0.0819848
-0.0223104
1.44184e-06
-0.0014291
-0.000515604
-4.82477e-06
4.52435e-06
0.0569903
0.0135131
-1.57511e-06
-0.450818
-5.38402e-06
0.285414
-1.6855
5.70154e-07
-0.0187735
-2.91298e-06
6.611e-07
-0.224802
-0.000952624
-5.31425e-07
6.55568e-06
-2.50896e-06
5.82509e-06
4.17265e-06
4.1582e-07
-1.07544
-0.227021
1.504e-05
0.00227325
-4.34894e-06
-7.62246e-07
-0.0647496
-0.0413474
-2.88577e-05
0.00230971
-0.0012374
0.177895
0.180261
1.02819e-05
1.26041e-06
0.0320389
-0.00160314
-4.66065e-07
0.000262699
-0.589971
0.045278
0.754701
-0.000137761
6.24531e-07
0.00434961
5.66379e-07
-6.272e-05
0.000360878
0.00021818
-0.0106861
8.34297e-06
0.000103945
-1.41528e-07
-1.5572e-06
0.00192794
1.65165e-06
-1.8631e-06
-0.0923513
0.0677792
-0.000196991
-4.49657e-05
-0.000910011
-0.000589695
0.418063
0.016073
-2.55991e-06
3.16486e-05
-1.33023e-05
-0.17065
-0.00174268
-0.000419359
4.91921e-05
6.59595e-05
-2.58805e-05
1.71411e-06
1.58147e-06
5.80218e-05
-1.00649e-07
0.00102239
1.20135e-05
-7.58042e-05
0.0337687
0.000927838
-0.000464954
-0.0599542
-1.94575e-06
0.495029
-0.000686913
0.72308
-2.47027e-06
0.277407
-0.0925589
-4.05683e-06
0.00145928
3.59934e-05
-5.73e-07
0.000657653
-6.55515e-06
-0.140333
5.5344e-06
-0.000153216
-2.96995e-06
-0.000222601
4.72597e-08
1.50616e-06
4.57993e-08
-1.77717e-06
-7.37786e-07
-0.000124872
0.134907
8.01819e-07
0.0380254
-0.00247767
-0.158622
8.9334e-06
-5.09737e-05
0.818235
1.17047e-08
-5.51877e-06
-0.0892547
-4.08145e-07
-0.00041854
-3.38135e-06
-0.0274725
0.00431342
-0.0650913
0.117354
-7.81857e-07
-6.98686e-06
-0.445752
3.81375e-07
0.00144543
-1.46723e-05
4.7979e-06
-0.00171924
-1.09737
-0.311892
-0.0126454
-0.00114867
9.39052e-05
1.12096
-0.119672
-5.96404e-05
5.98278e-05
0.05506
-0.0966571
-0.00398262
0.105453
-0.180208
-8.25248e-07
0.0209222
0.001812
4.5539e-06
-3.61752e-06
0.000311819
0.0479495
4.45038e-06
-0.0363087
-0.282496
2.18283e-05
-1.31975e-06
0.0393061
-0.190164
-7.39247e-05
-0.000156208
9.58374e-06
-0.0260858
-0.0391447
0.0310697
-8.40232e-07
-7.2928e-05
1.29372e-06
0.000347566
-0.000809439
-5.51181e-06
3.68837e-05
-0.88416
1.85771e-06
-8.35025e-05
0.0714107
3.96843e-05
2.28664e-06
-9.30345e-05
2.66324e-07
-0.0017524
0.0479786
0.000534845
0.0663903
0.0610498
-0.000902641
-1.35438e-06
-4.87489e-05
-0.000461227
-1.26855e-06
0.0622366
-0.156352
0.00036856
8.20055e-06
1.18753
-0.0753034
-0.000771009
0.00188808
-7.44919e-07
0.0670461
-4.02061e-06
-0.0249834
0.00339188
-1.15952e-06
2.46038e-05
-1.19654e-06
2.84752e-06
4.63605e-06
2.29553e-06
-4.55438e-06
3.22771e-06
0.011402
3.37181e-06
-0.000150405
0.0024155
-0.000307869
0.046043
-5.09222e-06
0.00282506
1.03163e-06
7.2534e-06
-0.00336509
-1.52463e-07
9.07543e-06
8.12424e-07
-4.46974e-07
-4.66813e-07
0.0208393
0.0104787
1.31362e-06
1.02893e-06
-0.19524
0.00339521
0.339854
9.04269e-06
4.93844e-07
-1.36839e-05
0.0131859
-0.0884256
1.96026e-06
-0.230217
-3.39838e-06
4.10409e-06
-7.17121e-07
-0.0949515
-3.16456e-06
1.33313e-05
-5.42201e-06
-2.29684e-05
-0.00143443
-0.00689187
-7.37609e-05
8.98156e-07
0.000889793
4.49825e-06
-0.072302
0.0105424
1.51276e-06
2.41976e-06
-1.58257
0.067132
-0.102435
-0.00194841
0.121463
-0.0016969
0.000236946
3.16282e-07
1.49621e-06
0.0854826
-5.14099e-05
2.73356e-05
0.0185094
0.000281659
-1.66811e-06
0.000678053
-2.07303e-06
-0.00243796
-4.48427e-07
-5.42144e-08
-2.43908e-07
-0.000802241
4.12477e-05
-4.31642e-06
-0.00236295
-0.000981373
2.59496e-05
0.130748
2.17233e-06
1.95317
-0.000640537
-7.22632e-07
0.000353131
-0.141886
0.00373125
8.16921e-06
-1.01776e-06
-0.000503901
-1.73123e-05
-2.5496e-06
0.0215384
-0.00238821
3.11515e-06
-2.29695e-06
0.0195942
-0.236168
-1.58385e-05
6.63359e-06
-0.000620841
1.94699e-06
8.56532e-08
0.00942696
1.5742
2.56915e-06
0.00191326
0.015615
-0.00240412
5.87271e-08
-0.00391017
3.60754e-05
-4.94749e-07
0.000741795
0.13002
-1.07683e-05
-0.0449649
-8.80884e-07
-6.79499e-06
-1.13035
1.49067e-06
-4.49417e-06
0.000763488
-0.00245575
-0.00427491
-7.32644e-07
3.15138e-06
-1.07715e-06
4.61274e-06
-0.000445505
-0.13466
-0.00124318
4.413e-05
-0.000152033
-8.47785e-07
-0.000735273
0.11752
-0.000725328
-5.47441e-07
-0.00266064
0.506469
-0.00143016
-1.8914e-05
0.00123303
-0.157582
1.3879e-05
-3.02539e-06
1.11278
9.06068e-07
0.121559
2.99117e-06
0.0393753
-1.8772e-05
-0.000195461
-2.36831e-05
-0.0018081
2.37655e-06
4.88523e-06
0.00031927
-3.41387e-06
0.042368
4.1914e-06
4.12887e-06
-3.05332e-06
0.494072
0.5023
0.122014
1.31662e-05
0.0137429
6.45327e-07
0.00447082
-0.00203363
-0.00472719
0.0528535
-0.0243282
-1.99959e-06
-7.0363e-05
0.049466
7.12683e-06
0.000309971
-2.54313e-05
3.13706e-06
-3.87301e-06
-0.195634
0.605835
-0.00125662
-6.10876e-07
1.7798e-06
-0.000790406
0.00835223
2.92493e-06
2.46107e-06
4.14274e-06
5.04145e-06
-4.60291e-06
0.000392491
0.0525298
-3.38474e-06
1.65138e-06
-9.39483e-05
9.68109e-07
9.54793e-07
-0.0625661
-0.104263
-4.34245e-06
6.2908e-07
-0.108891
-0.000412633
-2.73962e-05
-1.83352e-06
0.191774
-8.52036e-05
-0.0322085
2.1021e-06
-0.0488997
0.0604725
-0.0105648
-0.000182166
0.0431191
0.00298471
-3.20771e-06
-2.30845e-06
-0.000894549
-3.40361e-06
0.000776844
-0.346291
1.83104e-05
-0.0208233
3.7749e-05
0.0325573
-0.187925
0.234383
-0.28173
-9.38753e-07
4.21313e-06
-1.49589e-08
-0.000678019
-1.99847e-06
-4.0967e-06
-0.0300059
0.0998108
0.086334
0.00123329
0.00139023
4.77137e-06
2.04679e-06
-0.13819
-2.76055e-06
-0.158859
1.95441e-06
-2.21547e-06
-0.774756
3.17098e-05
1.57075e-05
1.40104
-2.95863e-07
-1.31226e-05
5.00536e-05
-0.0436065
0.285412
-1.81228e-06
-9.68977e-05
-0.158815
1.64329e-06
0.0876129
-7.50166e-09
-6.65199e-07
0.00532193
0.000467048
4.51558e-05
3.98817e-06
2.64844e-06
-7.98691e-07
0.0013537
0.00880357
-0.00170972
-1.40021e-06
-0.104959
-1.32912e-06
2.30314e-06
-0.792324
0.000118745
-0.0248984
-0.000447098
-2.72455e-06
-1.72802e-06
0.00113827
2.12193e-06
-0.167866
-0.0492044
-5.97698e-07
-2.11239e-06
-1.29534e-05
-0.000596217
-0.00126585
-0.000667034
2.82321e-06
4.06888e-07
2.58411e-06
0.000278878
-0.000887071
-0.000402289
-0.883788
-0.0307224
6.14276e-06
0.000178846
-1.90529e-06
7.87165e-06
3.29901e-07
4.40642e-06
-1.91817e-06
-2.13421e-06
-8.66438e-07
-3.45471e-07
-0.1452
5.64355e-06
0.000828755
1.84794e-07
-1.24842e-06
-0.00116166
0.000178151
-0.00265363
-0.334181
-0.000180441
1.48311e-06
8.0529e-07
5.14554e-06
1.04851e-05
-0.0719894
0.228819
0.265476
-0.000447505
-2.4216e-06
8.41621e-06
4.50117e-06
-0.191722
0.0482985
0.003944
-1.23949
-0.0862016
3.57723e-08
0.294994
3.1989e-06
-5.06619e-05
0.0020644
3.01533e-07
0.000319376
4.20073e-06
-0.00246175
-0.106555
2.39716e-06
4.6593e-06
-0.000201226
-0.00274057
-2.47574e-05
6.09681e-07
3.06324e-05
1.02147e-06
-2.03402e-05
1.19164e-07
-0.00108482
-3.83602e-06
-0.00237909
1.88562e-06
-0.000986936
-0.0295004
-0.0963149
-0.0131344
1.51937
-1.40895e-05
-0.195435
-0.0138692
0.000756059
-5.45875e-06
0.0183339
-1.1946e-05
0.386338
-0.04721
-1.75706e-05
-0.441715
0.00044688
-4.52701e-06
-0.00140354
-6.69513e-06
6.85139e-05
-0.000787898
-0.000356932
4.21708e-07
0.0623303
0.000667852
-6.34498e-06
-0.00710749
-0.188693
0.00523881
6.29492e-06
-1.09152e-05
-2.18018e-07
3.91417e-06
-0.0129909
-0.0621542
1.01258e-06
5.15713e-06
0.511392
0.0184246
5.35412e-07
2.32448e-06
-0.00154118
-0.188981
-1.53234e-05
6.30501e-06
-8.63991e-06
-0.00104831
2.13793e-06
-1.47617e-07
-2.81608e-06
-0.00171813
-0.0721315
0.123553
-0.00171685
-2.64888e-08
9.95798e-07
6.44684e-07
-3.58132e-06
-0.00106673
-0.000234401
-3.3157e-06
0.0036361
-0.0014281
9.9178e-07
-1.1253e-05
3.94088e-06
3.85339e-06
0.000108999
-0.0563706
-0.10126
0.0769073
-0.0228774
0.00141189
1.76095e-05
-1.84769e-06
2.65988e-07
-0.000108456
0.00328316
-0.00205993
2.90887e-08
2.03654e-06
-1.77365e-06
6.10895e-07
9.25487e-07
-5.92181e-06
-3.7555e-07
0.0360353
-0.000693897
1.43951e-06
0.000364481
4.84454e-06
-6.32281e-07
4.03792e-06
-0.00219352
-0.000284634
-3.38907e-06
-0.346291
-0.00107756
-0.147252
-4.2252e-06
2.07232e-06
0.00101108
0.76466
-4.48475e-07
0.00111612
4.28669e-06
-0.0100181
0.0258117
0.00100257
-0.244928
-0.0683691
1.77613e-06
-3.48471e-07
3.75452e-06
-0.00047748
4.08714e-07
-0.368488
-2.05602e-05
-3.03863e-07
-8.84939e-06
-0.00807691
0.000425597
0.306529
4.03721e-05
0.00015344
-0.00035398
0.0725078
-0.0409578
0.610136
-6.78718e-05
1.22791e-06
1.01718e-06
0.000764126
0.000321492
-0.0643427
0.680907
1.61952e-07
0.0270565
8.25557e-05
-0.000259092
9.54919e-06
3.47899e-06
-0.000500108
7.63645e-07
-8.19688e-06
0.000207543
6.92008e-06
-3.83532e-06
-0.076691
-0.00500867
-0.00712553
-1.5832e-05
-5.12841e-07
4.07522e-05
2.82412e-07
-9.5352e-05
-3.73228e-06
-0.0636374
0.074851
-1.39349e-08
0.797848
0.193697
-0.0843986
-0.0514211
6.25254e-06
-0.275338
0.0024399
0.0347796
-2.23298e-06
-0.00366118
-0.00126356
-4.27647e-06
-3.1117e-05
0.0396162
0.00139412
2.85679e-07
0.00344271
5.28834e-05
3.07852e-06
2.2568
-0.166797
-0.218477
0.608349
0.088412
-0.000247384
1.67427e-06
-8.67922e-07
1.79769e-06
0.00165479
4.06033e-05
2.24605e-05
-0.00170636
-0.0036348
0.0123048
0.0104431
0.038333
-0.132112
-0.000816883
4.41247e-05
0.000727013
-0.0139962
0.000364156
-3.19694e-05
0.000693423
-0.00015433
9.68797e-06
0.00135024
2.7126e-05
-0.0658834
0.000906936
-1.73419
-2.06191e-06
-0.0250026
-0.0380343
0.302891
2.29477e-05
-0.000805232
-0.163191
0.387219
0.262251
1.15956
-2.07869e-06
0.0137242
-0.0629555
-1.97288e-05
2.40565e-07
-0.0891676
8.89162e-05
-0.000136689
0.000418044
0.0199168
0.000250891
-3.03139e-07
-3.14981e-07
-0.00179175
-0.000198715
0.000200147
0.154159
-0.000720626
-0.00130431
9.67318e-05
6.4239e-07
7.98443e-07
0.200096
6.82204e-08
3.93192e-07
0.0523187
-0.00139897
0.970689
1.16799e-06
-0.0137521
0.228742
0.00328039
0.00822335
8.71353e-06
1.64743e-06
0.0791179
2.78187e-06
3.2716e-06
-0.00103992
-0.0750785
-0.0389973
0.00039814
7.3263e-07
-0.245001
6.51514e-07
9.68022e-06
7.00766e-07
1.39854e-06
-3.68517e-07
5.31133e-07
1.96343e-06
0.000494152
5.51804e-06
0.000129121
-2.04538e-06
4.68037e-07
0.000303858
5.14472e-06
0.000638729
4.69583e-05
1.7272e-06
-3.66779e-07
-2.12038e-06
-0.143701
-2.80133e-06
-2.46441e-06
1.23894e-06
-0.259255
2.06201e-06
-0.140343
-0.000480207
-8.66756e-07
-0.0107614
-2.60717e-06
8.32783e-06
-3.53884e-06
-4.44107e-06
-3.83642e-06
1.84025e-05
8.92344e-05
5.37909e-07
0.00540455
-9.15288e-05
-0.000625882
-0.000937253
-5.05387e-06
-0.00337706
-6.18318e-05
-0.000341145
3.12064e-06
-0.0925283
2.78075e-05
-9.15283e-05
-1.53592e-06
-3.09708e-06
0.0327672
0.00189581
0.0251997
-0.296806
-5.87937e-05
-9.0911e-05
-3.1396e-06
-5.51223e-06
0.000452818
1.72642e-06
6.56275e-07
3.61883e-07
-4.0403e-05
3.35131e-07
4.98192e-05
-0.000399639
-0.000168246
-3.11375e-06
0.000722982
0.000165431
3.13925e-07
-2.87608e-06
0.000213975
3.48959e-06
0.00404156
2.3865e-06
1.93356e-06
1.26266e-06
0.0053917
-1.9706e-05
2.79742e-06
2.926e-07
-0.000694866
4.31766e-06
4.14992e-05
-0.00451659
-0.451641
1.83838e-06
0.814304
-1.03768e-05
3.38873e-05
2.00062e-06
8.82323e-07
0.000182717
-9.12544e-05
1.64864e-05
2.71061e-06
-0.000103977
0.126927
0.0310562
-2.36795e-06
-0.000548549
-0.000981344
1.88688e-05
1.69685e-06
5.97936e-08
0.123089
0.0386513
2.60914e-06
1.37976e-06
2.1603e-06
0.109239
-0.00164261
-1.55028e-06
1.5797e-06
-0.014466
0.000107821
-1.56869e-05
-0.00411695
-0.00173925
-0.0110436
4.54639e-06
0.111029
5.96106e-06
-6.52951e-06
1.57988e-06
-0.00180071
0.0259592
-7.55944e-07
-6.13981e-06
9.06858e-05
0.00121506
-2.08229e-06
-0.117167
-0.0645656
-0.00049967
1.71294e-06
0.000799069
-1.00197e-07
-2.24002
-0.00317401
-0.14145
-4.23834e-05
-4.27895e-06
-1.98899e-05
0.766105
0.000689195
5.00532e-07
-0.0448658
-5.6916e-06
-2.79723e-07
0.0946235
1.90879e-07
-0.000662882
-0.0023459
-0.124528
-0.0891904
0.0319362
0.00024185
-0.0267307
-0.00177016
0.455128
0.000202586
-0.000897855
-3.3443e-06
-0.0891569
-0.00207051
0.050214
-2.11614e-06
0.000413196
-0.000407236
-1.85143e-05
0.00140138
0.0379322
-4.3251e-05
0.00183261
0.0405239
2.62904e-05
5.72652e-06
1.78682e-06
0.00186999
-2.66008e-06
0.102346
4.59307e-06
-1.03078e-05
0.0518103
0.0117257
-0.100911
4.43585e-05
1.58995e-06
-7.41856e-05
2.35645e-06
-0.0412746
-1.34395e-06
0.000387531
-0.0167569
0.00116039
1.74414e-08
0.0135533
-3.94218e-05
0.00143252
-0.000375439
-3.34302e-06
-0.278157
-0.0017291
-8.57577e-07
0.000247235
-0.000405295
-1.8272e-06
-0.00245558
-2.24904e-06
0.206535
0.0016251
0.00138641
0.475978
-7.81503e-07
-0.000108672
0.0659055
0.000113588
-0.353949
-0.000956711
-2.06554
3.38613e-06
2.11014e-07
1.33426e-06
1.61146e-07
-1.70653e-06
1.86705e-06
-5.87775e-07
0.00145206
0.00169913
1.33378e-05
-0.00152084
-6.21693e-06
1.45686e-06
-0.00293441
0.00537281
0.000254131
-0.271042
-6.08632e-07
4.51948e-07
8.85956e-06
-0.00394115
-0.179908
-8.15692e-07
-1.15896e-05
-1.5066e-06
0.0705397
-1.73909e-05
-0.000389867
-0.00237772
-0.00166928
3.47987e-06
-1.94462e-05
1.90028e-06
-0.172425
-0.000756059
-0.00115408
0.0366333
0.132192
1.72251e-06
-0.415725
5.97487e-07
0.0192806
8.40771e-07
-0.232895
0.0307646
-0.126564
1.47609e-06
-2.62792e-06
0.0872771
-3.2694e-05
-0.00132029
4.33824e-06
1.5035
0.0998434
-1.42752e-06
1.83881e-05
2.04096e-06
0.638495
-0.202001
8.45596e-06
-0.0760722
-2.13123e-05
0.0879317
-6.78066e-05
-0.00426208
-0.00492533
-0.0038834
0.00111145
5.4475e-06
0.00036153
1.06733e-06
-2.29889e-06
-2.96847e-06
5.6105e-05
0.000471888
-0.00446432
4.81528e-06
-0.00145407
-2.73094e-06
8.06991e-06
1.60576e-05
2.85834e-05
1.02992e-06
6.1553e-06
3.56894e-06
-0.377197
0.00103149
0.158707
4.44426e-07
0.0317165
3.01676e-05
-1.17275e-06
3.79919e-05
0.000341497
0.00118727
0.120147
3.1976e-05
-1.16857e-06
3.97713e-06
2.56525e-06
1.25966e-05
-2.20996e-07
0.00126369
-0.292591
0.000285698
-0.000146424
0.0201258
-0.00346071
0.00190481
-0.0292668
-0.000164403
3.27087e-05
1.88372e-07
0.0172597
8.08967e-07
-0.297512
-7.22035e-05
0.482461
-2.21528e-06
0.208875
0.0459005
1.73927e-05
2.43943e-05
-0.267011
6.06011e-06
0.120914
0.00078007
-1.0993e-06
0.137811
4.6598e-07
6.6591e-07
-4.17466e-07
-0.0936817
-0.00010642
4.82593e-06
-4.31282e-06
-0.285809
0.150025
3.33956e-06
-0.00190403
-1.03249
0.0477688
-0.210105
5.73239e-07
-6.70691e-05
-0.000954768
1.40364e-06
-0.232547
-0.00127251
7.64246e-05
0.0788587
-0.0017107
-1.03138
-4.61064e-06
0.0221602
-1.57476e-07
0.13768
-1.73964e-06
-7.90817e-07
0.00131237
-0.000122991
-0.000130399
1.93653e-05
0.042525
0.00046105
0.647231
8.83832e-06
6.98669e-06
-0.00411098
-0.00319149
-0.161232
-0.0244046
-0.138814
0.0722349
5.03517e-05
1.0846e-05
-8.03199e-07
-0.000785411
-0.00894236
8.56893e-06
-0.230391
2.98556e-06
1.25608e-05
1.17234
4.26695e-07
-7.56373e-05
3.56884e-07
1.0054e-05
-0.000808469
-0.313384
0.000153745
-0.0186215
-0.053509
0.176609
6.78398e-06
7.72689e-06
-0.000117327
8.79904e-07
-5.18921e-08
1.07919e-05
-3.60555e-07
5.93347e-07
0.000438782
5.46004e-07
-9.20669e-07
-3.92218e-05
1.16136e-06
-0.00332859
-0.117184
4.28579e-06
5.19104e-05
0.0107388
-9.3343e-07
-5.637e-06
0.00566496
-0.00117503
5.49922e-05
-2.29281e-07
3.62706e-06
0.000418625
1.23849e-06
-0.000431056
1.09482e-06
0.0131
0.00129357
-0.132887
0.00378777
1.43512e-06
-0.00395503
7.14386e-07
-4.08607e-05
-0.0467964
1.43754e-06
-7.92148e-07
0.0117254
-0.802091
-3.65401e-05
2.98641e-05
-5.18844e-06
-1.09237
-0.123181
0.00048419
0.177261
-2.38783e-06
-0.0044612
-0.000963754
-0.000141199
0.011505
8.79794e-06
9.76486e-06
-9.04438e-05
6.45123e-06
-2.04645e-06
1.15687e-05
8.90926e-05
-0.498485
0.00394332
-7.90344e-07
1.1031e-05
6.36809e-06
4.59677e-05
-4.13252e-05
-0.0846682
-5.89422e-07
-0.000934142
-2.72116e-06
0.000156937
2.26319e-06
-2.38465e-06
-3.85806e-06
-1.69822e-06
-3.88428e-06
2.09322e-07
0.0525335
-1.34009
1.85187e-07
-0.000507123
-5.89086e-06
-3.96367e-06
3.36721e-06
2.71769e-07
0.0265066
-0.000269389
4.21137e-06
-1.41817e-06
1.39348e-05
0.00691193
-0.00135763
9.07131e-05
-1.26827e-07
-7.20738e-06
0.00018049
-8.03222e-05
0.000233894
-0.000166298
-0.0100314
-0.00181039
2.28826e-06
0.000781925
-0.756765
4.124e-05
-3.22768e-06
-9.05061e-07
0.0188127
0.912912
-5.66161e-07
8.31801e-05
1.64794e-05
-1.16201e-05
-5.46535e-06
0.0378461
-0.00994854
0.00132398
3.38145e-07
0.0105791
0.00127069
5.30047e-05
5.60993e-07
0.00222435
0.0277713
6.83621e-05
-2.93234e-06
5.67897e-07
6.66297e-05
-0.268242
4.14456e-06
1.26548e-05
-0.101115
2.48856e-06
3.48911e-05
-0.00174774
0.0356967
0.000787783
0.019006
5.83798e-05
-1.40188e-06
-2.50066e-06
-0.00152203
-2.35862e-07
-2.4e-06
-0.00176148
-6.6536e-07
0.000219673
1.18434e-05
-0.00609333
-0.000434525
-0.0068352
0.750097
0.0337361
0.000276414
-9.60892e-07
-3.20099e-07
2.17324e-06
0.0126028
1.84763e-06
0.19076
-3.46356e-06
2.85188e-05
-0.00901601
-5.71488e-05
-0.00124197
3.6161e-05
1.6972e-05
7.66426e-05
2.53637e-06
1.50617e-06
0.000525838
0.00444503
3.65182e-06
8.42216e-05
-0.133335
-0.00580272
3.52943e-06
-0.0129218
-0.0722705
-0.0612458
0.0965889
-0.0024143
0.00335825
-1.12521e-05
-0.0141582
0.00722293
0.00837546
-0.107707
0.00103672
3.16624e-06
-0.0058629
2.28357e-06
3.74664e-07
0.00113293
0.00363285
-0.000142405
1.12062e-05
-0.000131352
-8.62034e-05
0.000486195
-0.00325652
7.68216e-06
-0.278209
0.0477558
-0.00978878
0.0066067
-0.0212055
0.0209602
1.77211e-06
-0.00169266
-5.75997e-06
-0.158229
2.35622e-05
0.000683885
3.92667e-06
5.07814e-06
0.00357123
0.00739819
-0.00330058
0.0161894
0.000493508
-1.21485e-06
-0.000878289
1.91606e-06
-0.0845235
-0.322922
1.72376e-06
4.56487e-06
-0.00322719
0.474258
-0.00122342