/*--------------------------------*- C++ -*----------------------------------*\
| =========                 |                                                 |
| \\      /  F ield         | OpenFOAM: The Open Source CFD Toolbox           |
|  \\    /   O peration     | Version:  v2012                                 |
|   \\  /    A nd           | Website:  www.openfoam.com                      |
|    \\/     M anipulation  |                                                 |
\*---------------------------------------------------------------------------*/
FoamFile
{
    version     2.0;
    format      ascii;
    class       volVectorField;
    location    "100";
    object      ddtCorrDdt0(U);
}
// * * * * * * * * * * * * * * * * * * * * * * * * * * * * * * * * * * * * * //

dimensions      [0 1 -2 0 0 0 0];


internalField   nonuniform List<vector> 
27802
(
(-0.0163838 0.0055705 -2.21276e-22)
(-6.54421e-05 -5.06757e-06 0)
(-0.0007361 0.000502876 1.42216e-21)
(-0.00012789 3.23998e-06 2.99207e-21)
(0.0109805 0.0271549 1.47727e-22)
(-0.000110563 7.66815e-05 0)
(-0.00185402 0.000118757 0)
(-0.000121122 -0.000100635 1.22644e-21)
(0.00554749 -0.0223007 8.67238e-22)
(-0.000218789 0.000131341 -2.35679e-21)
(-0.000114283 -2.07122e-05 4.05811e-21)
(-0.0110873 -0.00918879 -6.40342e-23)
(0.0176257 -0.0105454 0)
(-0.0171916 -0.0164073 -2.23854e-21)
(-0.000148169 -2.15891e-05 -3.8157e-21)
(-0.00200775 -9.28476e-05 0)
(-0.000128377 2.17918e-05 -4.54303e-23)
(-0.0122743 -0.00439758 7.49643e-24)
(0.155358 0.0579381 7.23875e-21)
(0.0203408 -0.00940956 -1.69466e-22)
(-6.54017e-05 -3.2802e-06 0)
(-0.000123364 -6.99669e-06 2.48863e-21)
(-0.0174448 0.00642543 2.22845e-21)
(0.00691542 -0.00259559 -1.09195e-21)
(-9.03083e-05 -3.65755e-05 3.04256e-21)
(-0.000251982 0.00028486 -6.17776e-22)
(-0.000143663 7.87715e-05 2.10279e-21)
(-0.000212445 0.000134456 4.77127e-21)
(-8.80614e-05 -3.63864e-05 -3.03514e-21)
(-0.146038 -0.0138928 -1.36601e-20)
(-0.000146892 0.000224997 0)
(0.00417386 0.000780113 -1.13179e-21)
(-0.0142824 -0.0261714 -2.47263e-21)
(0.00213362 0.0395525 0)
(-0.015199 -0.0260937 2.99144e-21)
(-0.000114188 8.04663e-05 0)
(0.00473111 -0.0719982 0)
(-0.081978 0.0231441 8.91357e-21)
(-0.000152842 0.000231426 -2.57493e-21)
(-0.000161538 3.5833e-05 -2.0293e-21)
(-0.000105171 0.00012383 3.5314e-21)
(-0.000164194 2.24665e-05 -2.64056e-21)
(0.0765182 -0.0392056 -2.50794e-21)
(-0.0321462 -0.0437927 -1.74566e-21)
(3.78621e-05 -0.000127651 0)
(-0.00014286 -3.23628e-05 -5.12452e-21)
(0.0187438 0.0350101 0)
(-0.000198998 0.000272455 -4.29169e-21)
(-2.71512e-05 0.000159381 1.46924e-21)
(0.0195316 0.011999 3.11422e-21)
(-0.000447257 -0.000247705 0)
(7.80174e-05 -7.73384e-05 -8.06879e-22)
(-0.0134976 0.0594871 0)
(-0.000102464 1.10013e-06 7.30084e-22)
(-0.00017679 -8.72985e-05 2.96481e-21)
(-0.000111147 8.88004e-05 9.50601e-22)
(-0.00867894 -0.00260196 -6.8383e-23)
(-0.0139912 -0.0162846 -4.91557e-22)
(-0.00037225 -0.00096648 7.46719e-22)
(0.0166653 -0.00406943 -9.44625e-22)
(-0.000110145 7.72115e-05 0)
(-0.000481219 -0.000831655 -3.36788e-21)
(0.0405658 -0.0151444 5.32786e-22)
(-0.00359856 0.00102267 -9.877e-24)
(-0.0129663 -0.00389499 4.636e-23)
(0.00573137 0.00729706 -1.06892e-21)
(-0.0166479 -0.00261003 0)
(0.000367891 -3.30007e-05 1.71797e-21)
(0.0436799 0.033577 0)
(0.00216114 -0.00274467 -1.61696e-21)
(-0.000150342 9.84372e-07 0)
(0.0125402 -0.0029575 1.40617e-21)
(-0.125961 -0.451032 1.48046e-21)
(0.0133462 -0.00112856 0)
(-0.00901624 0.0701201 3.20262e-22)
(-0.00083789 -1.23223e-05 -6.78308e-22)
(-0.0739262 -0.00566929 0)
(-0.0181015 -0.00221643 0)
(0.019023 0.00980793 0)
(-0.00179988 -0.000392269 5.65973e-21)
(0.0227999 -0.0464093 7.92975e-22)
(0.0412621 -0.0215632 -4.81105e-22)
(-1.374e-05 0.000128004 0)
(-0.0125767 -0.0169818 8.85145e-22)
(-0.000133949 -0.000364647 0)
(-9.00506e-05 0.000267491 -1.91812e-21)
(-8.03291e-05 -3.46341e-05 1.94875e-21)
(-0.000174522 -7.63377e-05 0)
(0.013262 -0.00262141 0)
(0.00214533 0.0693379 -7.35578e-22)
(-0.0218289 -0.00982574 -2.8974e-24)
(-0.000182286 -0.000869674 4.29303e-21)
(0.022569 0.0627233 8.46935e-21)
(-0.00187463 -0.000624946 -5.65599e-21)
(-0.000103347 2.537e-06 4.99713e-22)
(-0.000181307 0.000272786 3.96996e-21)
(-0.000554707 0.00107899 2.37265e-21)
(0.013195 0.0270431 -1.09117e-21)
(-0.000100657 0.000138594 0)
(0.0170624 0.0341949 0)
(0.041368 -0.0162106 0)
(-0.000124431 0.000100886 -5.87556e-21)
(-0.000253238 0.000163668 0)
(-6.16467e-05 4.99732e-06 0)
(-0.000568941 0.0667551 0)
(-5.96764e-05 -0.000935222 -6.45786e-21)
(0.00841772 -0.0303349 0)
(0.00465644 -0.0239508 -9.55391e-22)
(-0.000148104 9.88721e-05 0)
(-0.00186537 0.00220585 -6.99871e-22)
(5.15164e-05 0.00171197 5.55103e-21)
(-0.000146108 -2.52666e-05 5.55799e-21)
(-0.00012708 9.86038e-05 4.4193e-21)
(0.0271586 0.0663745 -3.09734e-21)
(-5.56747e-05 9.68371e-06 1.83863e-21)
(-0.00139292 -0.0680519 2.17377e-21)
(0.00128689 0.000692757 8.15286e-23)
(-0.000111513 7.03571e-06 -2.64336e-21)
(-0.000519934 0.000750264 0)
(0.0182367 -0.0102636 0)
(0.0109244 -0.0128823 -2.93392e-23)
(-0.0219136 -0.0108575 1.30748e-23)
(-0.000330118 0.00171769 4.63808e-21)
(-8.37666e-05 -3.18688e-05 -2.73169e-21)
(-0.000212263 4.54396e-05 -2.34621e-21)
(-0.00355234 0.00518456 2.00807e-21)
(-0.0733532 0.051434 9.67653e-21)
(-0.0124393 -0.0370726 1.76553e-21)
(0.00339865 -0.0123391 6.70786e-22)
(0.0106912 -0.0123027 1.24379e-22)
(-0.000234726 0.000172703 1.64195e-21)
(-0.000381167 0.00171398 -3.91978e-21)
(0.00150333 -0.000144506 3.19627e-23)
(-0.000199315 0.000136786 0)
(-1.61403e-05 0.000152456 1.51419e-21)
(0.000218452 8.24706e-05 -2.37561e-21)
(-0.000259383 0.000290125 2.8251e-21)
(2.09214e-05 9.82512e-05 -2.22789e-21)
(-0.00911183 0.0249836 0)
(-0.0270003 -0.00438487 0)
(0.000229631 -9.34803e-05 -1.80673e-21)
(-0.000136797 8.10011e-05 -3.36544e-21)
(-0.00414549 0.00425604 3.2118e-23)
(-5.97198e-05 3.82451e-05 0)
(-5.58378e-05 2.25172e-05 0)
(-0.00023176 0.000402199 1.21564e-21)
(-0.000322833 0.000254832 -4.91794e-21)
(-0.000596942 -7.05077e-05 -5.8718e-22)
(2.71706e-05 -0.000184823 1.6103e-21)
(0.00135248 3.88918e-06 0)
(-0.000116376 -1.71344e-05 -4.51773e-21)
(-0.000201189 0.000266372 1.5708e-21)
(-0.000460276 0.000266173 -8.59192e-22)
(0.000440767 -5.6475e-05 -1.92264e-21)
(0.0168065 -0.00851507 -2.41498e-21)
(-8.81937e-05 -4.86509e-05 -2.36306e-21)
(0.0192772 0.0396156 3.77791e-21)
(0.00975841 -0.0110425 0)
(-0.00178907 0.00213671 0)
(-0.0145104 0.0335744 1.54108e-22)
(-0.0770031 0.0452676 -1.67807e-21)
(0.0136123 -0.0019117 0)
(-8.57674e-05 0.000291393 1.37267e-21)
(-0.000539489 0.000716924 -9.64558e-22)
(-0.000125573 2.85574e-05 1.17971e-23)
(-5.47461e-05 8.09481e-05 -2.3531e-21)
(-0.000113234 8.04121e-06 1.36988e-21)
(-9.9171e-05 0.000103973 -1.01429e-21)
(-6.71429e-05 4.43848e-05 2.76193e-21)
(0.0219452 -0.0107786 3.27747e-21)
(-5.86442e-05 5.56187e-06 8.14987e-22)
(0.00121135 0.000807005 -3.99692e-23)
(-4.34143e-05 9.8064e-05 -8.89215e-22)
(-0.0577767 -0.215515 -2.50153e-24)
(-0.000161842 0.000243906 7.06515e-22)
(-0.0135912 0.000124775 6.08341e-23)
(-5.82066e-05 9.17609e-05 1.57516e-21)
(-0.00134957 0.000578182 1.15206e-21)
(7.53201e-05 -2.34403e-05 0)
(-0.0022382 -0.0785029 0)
(0.00643509 -0.0028608 -1.36484e-21)
(0.00512454 -0.00155949 7.01504e-22)
(-0.00170967 -0.00178152 -1.92838e-22)
(-0.000242356 0.000391598 3.2099e-22)
(-4.45463e-05 0.000107966 0)
(-0.00891888 0.00588419 0)
(-8.29117e-05 -2.27003e-05 0)
(-8.12734e-05 -2.29368e-06 0)
(-0.0546425 0.037821 0)
(-0.0643038 0.103983 4.79835e-21)
(-9.40172e-05 7.9063e-06 -2.03304e-21)
(-0.00180886 -1.54852e-05 -2.65081e-22)
(-0.0137121 0.00740804 0)
(-0.000310393 0.000137286 1.23367e-21)
(-8.84936e-05 -5.45914e-05 0)
(-0.000156233 4.39246e-05 3.1179e-21)
(-8.77637e-05 -4.45904e-05 -1.31449e-24)
(4.2967e-05 -2.06124e-05 0)
(-0.000173208 -5.78732e-05 1.95728e-21)
(-0.00013368 8.31308e-05 5.45171e-21)
(-0.00563352 -0.0204039 -6.25642e-22)
(0.01463 0.176776 8.05272e-22)
(-0.0334176 -0.0563861 -1.52475e-21)
(0.000390101 -8.10523e-05 -5.16019e-22)
(-0.000156434 8.66736e-05 -1.99274e-21)
(-0.0004507 0.00175566 -2.12352e-21)
(-0.000437691 0.000258434 7.18695e-22)
(0.0182089 0.0638991 -1.77548e-22)
(-3.38562e-06 0.000166732 0)
(0.0160111 -0.00478161 2.74453e-21)
(-8.19504e-05 5.00588e-05 -4.76461e-21)
(-0.101547 0.0646084 -4.24582e-21)
(-0.0160755 0.000745405 -2.94543e-24)
(-0.00135757 0.000515983 -9.56578e-22)
(-0.0542979 0.0414449 2.75115e-21)
(-0.000157813 7.73773e-05 1.66198e-21)
(0.0152977 -0.0423816 1.03322e-21)
(-0.00170655 -0.000900245 1.61478e-21)
(-0.000182705 0.000282084 -1.41457e-21)
(-5.75499e-05 8.0194e-05 3.6172e-21)
(0.00231376 -0.0126785 -5.8904e-22)
(-0.000100079 8.27498e-05 0)
(-0.00911172 0.00521649 2.35502e-23)
(-0.0700517 -0.0166155 2.81425e-21)
(-4.2657e-05 9.35095e-05 -3.66514e-21)
(1.00225e-05 0.000122574 3.67025e-21)
(-5.02524e-06 0.000110446 -7.68839e-22)
(-0.00182794 -0.000165357 2.4194e-22)
(-0.000144071 -3.61305e-05 0)
(-0.000120808 0.000114489 3.74051e-21)
(-9.78038e-05 6.61114e-05 -1.89131e-22)
(0.0159249 -0.00318978 1.34493e-21)
(-0.000176352 0.000267188 2.55934e-23)
(-0.00248313 0.000525656 2.37661e-21)
(0.158716 0.0656613 0)
(-0.0290965 -0.00374927 -1.04096e-21)
(-0.000115524 -1.06892e-05 0)
(0.0169553 0.0616863 1.01041e-21)
(-0.0158245 -0.0257298 6.74626e-22)
(0.00054031 0.0014897 0)
(-0.00027207 -0.000232913 -4.31556e-21)
(0.0698849 -0.121911 3.02313e-21)
(0.0390006 -0.144128 0)
(-0.000111815 2.18196e-05 -9.22236e-22)
(-0.000129182 -7.32151e-07 1.50861e-21)
(-0.013583 -0.0253305 0)
(3.97633e-05 2.24972e-05 0)
(0.0190001 -0.0319503 -1.02397e-21)
(-0.0014505 -0.000911426 3.16698e-22)
(-0.000735958 0.000351095 -4.11084e-21)
(-0.130613 -0.0602935 0)
(-0.00284389 -0.00114167 -7.29151e-22)
(-0.0178259 0.00265591 -1.78432e-21)
(-0.000296126 -0.000248717 0)
(-0.000136012 2.30826e-06 -2.86848e-21)
(-8.58087e-05 -3.60006e-05 -1.37349e-21)
(-0.000136517 -0.00030835 9.68174e-22)
(0.0529813 -0.0131013 -6.69174e-22)
(0.000451649 -3.2803e-05 3.98722e-22)
(-8.51771e-05 -3.29017e-05 -4.29001e-21)
(-0.00284095 -0.00129908 6.93545e-22)
(-0.000117744 8.59654e-05 0)
(-0.00971627 -0.0067172 5.74539e-23)
(-1.37363e-05 0.000179674 1.95909e-23)
(-0.0104787 -0.0186043 6.82648e-22)
(-0.0012577 0.000649075 -4.24681e-21)
(-0.00237315 -0.0199584 0)
(-0.000126001 0.000109185 -1.03623e-21)
(-0.000103864 8.89425e-05 0)
(-0.000156115 0.000241719 -8.30057e-22)
(0.00929032 -0.0119458 -4.34891e-22)
(-0.000139031 4.36215e-05 0)
(-0.0263189 -0.00650107 0)
(0.0611907 0.00606864 1.87865e-21)
(-0.000298559 0.000143289 -3.60923e-21)
(0.0283958 0.00275185 1.12819e-21)
(-0.000514355 -0.000101498 0)
(-0.00219948 0.00212197 -2.84431e-21)
(-0.00126993 0.000597434 3.05903e-21)
(-9.81566e-05 -0.000270317 0)
(-0.114641 0.0720123 0)
(-0.0023293 0.000833908 1.08369e-21)
(-0.000272625 -0.000961696 0)
(-0.0252262 -0.0212109 0)
(-0.0407061 0.0693705 1.5573e-21)
(-0.118712 0.0969616 1.99234e-21)
(0.0523138 -0.00663877 5.05818e-22)
(-0.000223809 0.000294144 6.02928e-24)
(-0.000332192 -0.000398585 -1.12745e-21)
(-9.247e-05 -2.60737e-06 2.65142e-22)
(-8.85102e-05 0.000114934 0)
(0.00206809 0.0338189 7.56192e-21)
(-7.72598e-05 -3.25402e-06 2.19402e-21)
(-0.161004 0.0274998 6.5452e-22)
(-7.52614e-05 1.73118e-05 0)
(0.00293927 0.0215166 -3.11092e-21)
(-0.00705297 -0.0690975 -4.62281e-21)
(-0.000188645 -0.000408112 8.03489e-22)
(0.0167675 -0.00590959 0)
(0.0438929 0.0271908 -9.02875e-22)
(0.00612727 0.00687572 0)
(-0.000239076 0.000379785 0)
(-0.000619499 0.00525305 -4.89634e-22)
(-0.0157731 0.0319861 -1.2053e-22)
(0.165967 0.050642 -6.84826e-21)
(-0.00714687 0.0272724 -7.7576e-22)
(-0.000114174 8.55968e-05 -8.92872e-22)
(-0.012472 -0.017534 1.05016e-22)
(-0.00744036 0.0015593 0)
(-0.000541966 -0.000106104 0)
(0.00221112 -0.00114129 0)
(-0.010062 0.00443801 -3.24733e-21)
(0.000246142 0.00938916 7.28804e-23)
(-0.000205267 0.000133269 0)
(-0.00484458 0.00965045 4.1507e-21)
(-8.82335e-05 5.10338e-05 1.91563e-21)
(0.00220039 -0.00138879 -9.88636e-23)
(-0.0165598 0.00437208 0)
(-0.00153311 0.00212549 3.6398e-22)
(-0.0190267 -0.0171664 -1.01902e-21)
(-0.000106302 1.68098e-05 -8.59678e-22)
(-0.000152132 0.000100338 2.21647e-21)
(-0.000109942 2.4691e-05 -8.29529e-23)
(-0.000119642 0.000348311 -2.84342e-21)
(-0.0119874 -0.0596305 0)
(0.00131121 0.000300204 0)
(-0.00915886 -0.0070082 3.99562e-23)
(0.00133503 0.000541053 -1.425e-21)
(-0.000159727 8.78795e-05 -2.18911e-21)
(-0.00233123 2.89571e-05 -9.11835e-22)
(-0.000673434 -2.16531e-05 2.38308e-21)
(0.0514162 0.0894258 -1.05724e-21)
(-0.0268669 0.0518878 0)
(0.0679318 -0.0426305 2.30792e-20)
(-0.0690281 -0.0218145 2.28762e-21)
(-0.0667325 -0.214704 0)
(0.000171154 0.00982765 -5.54816e-22)
(-8.48119e-05 5.4677e-05 0)
(0.00232462 0.000777217 4.26991e-21)
(-0.000140432 4.22454e-05 0)
(-0.000111621 3.81599e-05 -3.22387e-22)
(-0.0133013 -0.00589362 2.88848e-24)
(-0.153144 0.0531887 0)
(0.0229059 0.0124372 -3.44504e-21)
(0.015742 0.0118115 0)
(0.0777109 0.0776066 0)
(0.0166601 0.0384803 4.09095e-22)
(0.0405733 0.0446344 -3.42246e-21)
(-0.0013159 -0.00115444 -3.28828e-22)
(-0.00814483 0.0809969 5.96134e-22)
(-4.51242e-05 0.000100602 1.93066e-21)
(0.00326329 0.0151613 3.05823e-22)
(-0.000216798 4.47669e-05 0)
(-0.000366781 0.000165772 -4.4586e-21)
(-3.32867e-05 0.000163192 -2.20831e-21)
(-0.000444413 0.000273562 2.85826e-21)
(0.03306 0.0117604 1.13883e-22)
(-0.00479594 0.0782475 0)
(-9.8929e-05 -4.83048e-07 -2.94289e-21)
(-2.08586e-05 0.000409424 1.55534e-21)
(-0.0261794 0.00185245 1.11187e-21)
(-0.00653362 0.168737 4.94944e-21)
(3.36766e-05 0.000455008 0)
(-0.00223101 -0.00522868 -4.48191e-22)
(-9.1034e-05 -5.45964e-05 0)
(-0.000124633 -1.15489e-05 0)
(0.0352599 0.041101 2.81506e-22)
(-0.000222987 0.000285097 0)
(-0.0023362 0.000714302 0)
(-0.000172928 -7.96416e-05 3.47478e-21)
(-9.35248e-05 4.02545e-05 -8.78371e-22)
(0.0162321 0.0406831 -3.41956e-22)
(0.00925466 -0.000181296 2.88384e-22)
(0.0104435 0.00126442 2.0025e-21)
(-0.0778678 -0.0374623 -1.6222e-20)
(-0.0045422 -0.0199145 1.42381e-22)
(0.00993874 0.000451918 0)
(-0.000188241 0.00154399 -5.27542e-21)
(0.00295343 0.00131108 -1.43276e-22)
(-0.00014362 -1.2463e-05 1.77416e-21)
(-8.10525e-05 -1.21715e-06 0)
(-9.42964e-05 -6.22657e-05 0)
(-5.96876e-05 0.000148271 -2.60721e-21)
(-0.000424823 0.00016743 2.95287e-21)
(-0.000110156 2.58778e-06 8.77338e-23)
(-0.000148476 1.85999e-06 -1.25362e-21)
(0.0228887 0.0372704 -6.02966e-23)
(0.00324049 -0.00117739 0)
(-0.0237162 -0.00223416 -3.71352e-22)
(-0.0017565 0.00523617 1.20617e-22)
(-0.00015925 3.29872e-05 6.90334e-21)
(-0.000253337 -0.000144499 -1.02841e-21)
(-0.00705489 0.000898535 0)
(-0.00163205 0.00221153 0)
(-0.000161736 -5.3873e-05 0)
(0.0551552 0.0851427 1.09597e-21)
(0.0701901 0.096311 -1.68957e-20)
(0.00208825 0.000735169 -3.22182e-21)
(-7.66358e-05 7.61019e-07 6.69291e-22)
(-0.0131155 0.00835371 7.48078e-22)
(-0.0128605 -0.00568713 3.62931e-24)
(-0.00207783 0.00224105 2.74059e-21)
(-0.000163841 -1.45178e-05 -4.00507e-21)
(0.0220198 0.00226346 -1.24584e-21)
(-6.62587e-05 4.76154e-05 -4.53776e-21)
(0.0430426 0.0511052 0)
(0.00479543 -0.00123986 -7.59931e-22)
(-0.000118787 0.0539056 2.48876e-21)
(-0.134008 0.0789502 -1.48351e-21)
(0.00243056 -0.00433931 0)
(0.00899252 -0.00480749 2.9792e-23)
(-0.000124109 -6.55817e-06 1.74747e-21)
(0.0124013 -0.012289 0)
(-0.00143188 -0.0108253 -4.13143e-22)
(-0.0211602 0.0647712 0)
(-0.000190182 0.000281354 -1.49565e-21)
(-8.59385e-05 0.000410793 1.46504e-21)
(-0.00247664 7.96331e-05 0)
(-6.18635e-05 4.71943e-05 1.81418e-21)
(0.0352428 0.0547859 -2.97857e-21)
(0.0645518 -0.0423602 -9.79308e-22)
(-0.00109818 -0.00114383 0)
(0.00390253 -0.00140172 -1.72078e-21)
(-0.000243983 0.000296149 7.71902e-22)
(0.00541774 -0.0446441 6.94123e-22)
(0.000298279 -0.000116809 -2.22708e-21)
(-0.00287413 0.000950784 2.55383e-21)
(-0.00125282 -0.0127802 2.26227e-22)
(-0.0248721 -0.0337459 1.81555e-21)
(-0.000408667 -0.000202903 1.78081e-21)
(-0.000140591 4.3097e-05 0)
(0.00405654 -0.00159348 0)
(-0.016771 0.0601086 0)
(-0.000152664 6.21278e-05 0)
(-3.37769e-05 1.37406e-07 9.11932e-22)
(-0.000175191 -6.60541e-05 0)
(0.00266318 0.0129506 1.08862e-21)
(0.0210697 0.0519636 3.50802e-21)
(0.0125658 0.0493138 -3.33788e-21)
(-0.00170896 -0.00195674 0)
(-0.00671026 0.00364105 3.59986e-22)
(0.00473817 0.00094032 -7.96933e-22)
(-8.57542e-05 -2.96222e-06 1.6048e-23)
(-0.000109418 4.04945e-06 -3.27038e-21)
(-0.0170299 0.00768386 0)
(-0.000102041 3.59027e-05 -2.18753e-21)
(-8.98119e-05 -4.9875e-05 0)
(-0.00266564 0.000373518 -2.70669e-21)
(0.0010235 0.00867167 -4.56326e-22)
(0.00700128 -0.00894968 0)
(0.00721821 -0.0009302 1.54644e-20)
(0.0214196 0.0451494 1.04288e-21)
(0.0256791 -0.0256274 0)
(0.0149696 -0.0400512 4.66631e-22)
(-7.00346e-05 4.42814e-05 -1.24625e-23)
(-0.00458126 0.00137598 -5.61814e-22)
(-0.00234642 0.000440661 -4.35101e-21)
(0.00038891 -0.0502239 5.87462e-22)
(-0.0698443 -0.0775656 2.03616e-20)
(-0.000176743 -9.22508e-05 -3.86967e-21)
(-0.0100684 -0.0241118 4.14106e-21)
(-0.0129566 -0.0115835 -3.64647e-21)
(0.0164489 0.00623968 -2.30434e-22)
(0.0141074 0.0192819 0)
(-0.000128864 1.74262e-05 2.25286e-23)
(-0.000508326 0.000208451 -7.15974e-22)
(-0.0198137 -0.031205 -9.97445e-22)
(-0.000109423 3.51814e-05 0)
(0.00197123 -0.0378659 5.80701e-22)
(-8.98104e-05 -5.43376e-05 0)
(0.000773535 -0.000945184 0)
(-0.000110723 5.45375e-06 3.00851e-21)
(-5.14966e-05 0.000112934 0)
(-0.0145512 0.0408172 6.56558e-22)
(0.0315945 -0.0280065 0)
(0.00920083 0.177898 5.11682e-21)
(0.00148427 -0.000612936 -2.8216e-21)
(-0.0175137 -0.00172704 5.40537e-22)
(-0.000111444 3.41622e-05 -8.37969e-23)
(0.000255999 -7.79612e-05 5.23421e-22)
(0.00918675 0.00278207 -1.71289e-21)
(0.000306165 -2.69029e-05 1.02705e-21)
(-0.00211332 -0.000390133 0)
(-0.0178438 0.00385239 0)
(0.000920997 0.00913522 -8.4115e-23)
(0.0193405 0.045055 9.8046e-23)
(-0.000246417 -0.00108592 3.23109e-21)
(-0.000205861 0.000275139 0)
(0.0094302 0.00205191 2.50827e-21)
(-0.000156767 7.94317e-05 0)
(-0.0001663 7.16938e-05 -2.921e-21)
(-0.0249282 0.0203678 0)
(-0.00014592 7.20489e-05 -2.17893e-21)
(-0.00863111 -0.018407 -1.31737e-21)
(0.00125598 -0.00073465 2.17187e-22)
(-0.0134011 -0.00918755 1.177e-22)
(-0.0171313 0.0306604 3.80663e-22)
(-0.0190535 0.0243812 0)
(-0.000153944 6.42996e-05 -5.20057e-24)
(0.0078297 0.0426732 3.41905e-21)
(-0.00125414 -0.0114053 -4.38393e-24)
(-0.0013054 0.00209993 0)
(0.0527956 0.151049 -1.72233e-20)
(-0.01483 0.035359 -3.77373e-22)
(-0.00904924 0.0310634 3.2068e-22)
(0.0297713 0.00228286 -1.3053e-21)
(-0.000111779 1.2068e-06 5.61333e-21)
(0.00425184 -0.00129342 -5.89551e-22)
(-0.000445715 0.0104257 2.18327e-21)
(-0.000365174 0.000139291 2.52255e-21)
(-0.000105274 8.92237e-05 0)
(-0.145378 0.0611747 -9.93341e-23)
(0.00945528 -0.00322901 1.86489e-22)
(-0.000111621 -3.53611e-05 -5.01873e-21)
(-9.43471e-05 6.3856e-06 0)
(-0.00336673 0.053492 -1.02761e-21)
(-0.0130575 0.0627176 0)
(-0.0127253 0.0251739 0)
(-8.48048e-05 6.79333e-07 3.25819e-22)
(0.00639534 -0.00847117 0)
(-0.000519645 0.00019463 0)
(-0.0148026 -0.277396 6.93768e-21)
(-0.000109006 -7.32491e-05 0)
(0.000699172 -0.0127606 -1.02702e-21)
(0.0619112 -0.0460301 -1.70378e-20)
(-0.000135483 3.83559e-05 5.20891e-24)
(-7.95129e-05 -6.98833e-06 1.23276e-22)
(-0.000351436 0.000188562 0)
(-0.146993 -0.0285776 -8.12013e-21)
(-0.0135565 -0.00768695 0)
(0.00967116 -0.0108488 0)
(-0.118004 -0.490235 6.51726e-21)
(-0.000236934 0.000135321 0)
(8.57466e-05 2.42993e-05 -1.63291e-23)
(-0.015111 -0.00914163 0)
(-0.000149505 -2.32899e-05 0)
(-0.00329436 -0.00700948 0)
(-0.000149996 5.05316e-05 0)
(-8.2424e-05 -2.60771e-05 3.76796e-21)
(-0.00011352 0.00514436 0)
(-0.011593 0.0897693 0)
(-0.000104537 2.14641e-06 -8.8174e-23)
(-0.000703026 7.53768e-05 0)
(-0.000273391 6.82804e-05 -6.30374e-22)
(-0.00104453 0.010265 -2.83474e-21)
(-9.12788e-05 -3.67385e-06 2.171e-21)
(-0.00161593 -0.000272816 1.50104e-21)
(-0.0790417 0.0994558 -8.24971e-21)
(-0.00690045 0.00317524 0)
(-0.0032669 0.0113918 9.05368e-22)
(0.0825312 0.0546644 0)
(0.00484369 0.0127808 5.0952e-23)
(-0.133477 -0.00338956 2.48392e-20)
(0.0183141 0.106578 -4.49645e-23)
(-5.51751e-05 3.60788e-05 -7.20985e-21)
(-0.0127822 -0.00696753 -6.81157e-24)
(-0.000207714 0.000283567 1.07978e-21)
(-0.00435314 0.019116 0)
(0.000338024 0.0013552 1.41425e-23)
(-0.00012833 -1.25185e-05 -2.94788e-21)
(-6.43137e-05 3.50244e-05 3.39971e-21)
(-0.176065 -0.0139086 0)
(-0.000147935 4.70111e-05 1.07674e-23)
(-0.00015224 5.25874e-05 0)
(-7.87526e-05 -3.88984e-05 2.11034e-21)
(0.0411608 0.0503008 1.33476e-21)
(-0.000142314 4.6928e-06 1.33793e-21)
(-0.000229486 0.000389919 0)
(0.0189736 0.0458908 0)
(0.0211768 0.03846 -3.75913e-23)
(0.0309225 0.0130255 -2.11185e-22)
(0.0113536 -0.0146529 0)
(0.0464426 0.0397621 1.84695e-21)
(-0.00138646 0.00218803 0)
(0.00808561 -0.00295299 0)
(-0.0011861 0.000679188 3.26715e-21)
(-0.00611844 -0.0206628 0)
(-0.000201279 0.000287351 0)
(-0.00986525 0.00513715 1.76773e-21)
(0.0455286 0.0427402 0)
(-0.048494 0.0360632 -2.40278e-21)
(-0.0129323 -0.0274821 -2.8952e-23)
(-0.0100824 0.00727902 -2.27523e-21)
(-0.000295911 0.000136323 -2.20746e-21)
(0.0501585 -0.0338526 0)
(0.000204265 0.00199176 2.66591e-21)
(-5.49016e-05 6.50053e-05 -9.9372e-22)
(0.0586509 -0.0303228 0)
(0.00591045 0.00350938 -4.17643e-21)
(-0.0397972 0.0736731 0)
(0.0642213 -0.000451144 -1.15632e-21)
(0.00252535 0.0137495 -8.82022e-22)
(-5.77933e-05 3.70248e-05 3.06078e-21)
(-0.000569906 -0.000809584 0)
(0.000150054 0.00205997 -5.62564e-21)
(-8.80192e-05 5.05876e-06 0)
(0.00283584 0.0251251 3.36594e-21)
(-0.0224819 0.0375999 -1.07191e-21)
(-7.18905e-05 2.23308e-05 -1.13973e-21)
(-0.000969498 -0.000738697 0)
(-8.82238e-05 -8.21975e-05 2.10231e-21)
(0.00520913 0.0398227 0)
(-0.0112113 -0.00854092 0)
(-0.000292482 0.000143046 3.73877e-21)
(0.0636861 -0.136984 1.81807e-20)
(0.0126098 -0.0127833 -3.39231e-22)
(-0.000644923 -0.000134822 -1.87768e-21)
(-0.00114554 0.000676444 -2.2796e-21)
(-0.000200758 0.000109399 1.27169e-21)
(0.00507822 0.0171185 0)
(0.00398595 0.234377 1.68354e-20)
(-0.0814589 0.127731 1.04005e-20)
(0.0135427 0.0386536 -3.48436e-21)
(0.0112608 -0.0210664 -4.95316e-21)
(-0.0247624 0.0143469 0)
(-0.000159768 -5.04816e-05 2.08468e-21)
(-0.0474791 0.0329031 0)
(-0.000893723 -0.000676201 -1.28908e-21)
(-0.006706 -0.017328 0)
(-0.0115549 -0.00976165 7.41458e-23)
(-8.8141e-05 -7.47355e-05 4.11903e-21)
(-0.0166074 0.00203591 0)
(0.03297 0.157343 6.36e-21)
(0.00814167 0.0595531 1.22331e-21)
(-4.99557e-05 -2.67246e-07 -2.54224e-21)
(-0.217906 0.0350383 -1.34883e-20)
(-0.00148383 -0.00205578 1.51131e-22)
(-0.0389215 0.154585 1.10107e-21)
(-0.0101233 0.00950738 0)
(-0.000476094 -0.00076328 -1.27224e-21)
(-0.135694 0.0116407 5.76529e-21)
(-0.133317 0.16508 1.15603e-20)
(0.00554084 0.00325798 3.02499e-21)
(-0.000182135 -7.36503e-05 9.43043e-22)
(-0.00535103 0.00178913 -1.26465e-21)
(0.00143934 0.000670041 0)
(-0.00817356 0.000455093 1.25995e-21)
(-0.000126652 4.58832e-06 -4.35095e-21)
(-0.0114817 -0.0223637 0)
(-0.000181916 -6.39744e-05 2.07689e-21)
(-6.32216e-05 3.52668e-05 -3.20811e-21)
(-0.000659585 0.000567588 0)
(0.00160978 0.0144962 1.15284e-21)
(-0.0119666 -0.0221341 -2.34127e-21)
(0.0166993 0.0111171 5.35288e-22)
(-0.000479841 -0.0001067 0)
(-0.25425 0.0267476 2.52867e-20)
(-0.00189832 -0.00488307 3.5778e-22)
(-0.0104352 -0.000995737 0)
(-0.000178125 -6.07438e-05 -3.39533e-21)
(0.00208114 0.0113633 -3.68547e-21)
(-0.00201617 0.0108271 0)
(-0.00622658 0.0216154 -3.65283e-22)
(0.0741887 0.0690369 0)
(-0.00208026 0.0043776 2.065e-21)
(0.0394616 -0.00366415 -6.17125e-22)
(-0.000119799 -4.32706e-06 1.56231e-21)
(-5.22664e-05 0.000109652 -3.19453e-21)
(0.000155401 0.00217334 -1.20993e-21)
(-0.000204521 0.000278631 0)
(-0.000109887 2.57336e-05 2.0942e-21)
(-0.00504858 0.0181972 -1.04718e-22)
(0.0301573 0.01417 5.47761e-24)
(0.111192 -0.0400756 -1.95158e-20)
(-5.56436e-05 2.83486e-07 8.85227e-22)
(0.0085972 -0.010347 0)
(-0.00019857 0.000739815 -1.07265e-21)
(-0.000887311 -2.86361e-05 -3.54896e-23)
(0.0810056 -0.0437505 -2.18496e-20)
(-5.47834e-05 0.000103075 3.08798e-21)
(0.000250105 3.66964e-05 2.01894e-21)
(-0.0229369 -0.0537469 1.7896e-21)
(0.0960595 -0.0619314 2.00972e-20)
(-0.000279698 -0.000375374 5.78446e-22)
(-0.000149429 -1.04356e-06 0)
(-8.24326e-05 -5.7532e-06 0)
(-7.03471e-05 8.94112e-07 -1.58214e-21)
(-0.00116377 0.00511731 1.44674e-22)
(-0.000107595 0.00192251 0)
(0.0523013 -0.0192388 5.22786e-23)
(0.142783 -0.0564505 0)
(-0.00207285 -0.000190126 0)
(-0.0131479 0.0137423 0)
(0.00387635 -0.0188858 6.97331e-22)
(0.0826461 0.0579141 -3.41443e-21)
(-0.0103764 -0.00155815 0)
(-0.0242711 -0.00675813 -1.67809e-21)
(-0.0001229 1.762e-06 1.42731e-21)
(0.00741073 0.0207726 -2.42256e-21)
(-8.12756e-05 -2.46314e-06 0)
(-0.0218753 -0.0168977 1.17844e-21)
(-0.000371945 0.000321619 6.27263e-21)
(0.0640836 0.0979165 6.75503e-21)
(-0.00657164 0.00278905 -1.3373e-21)
(-0.00106074 -0.0133725 -4.42018e-22)
(-4.43156e-05 7.33115e-05 1.06617e-21)
(-0.00028607 -0.00052345 0)
(0.00436392 0.0379501 3.61207e-22)
(-0.000141673 3.91042e-06 0)
(-8.51923e-05 -3.25704e-05 0)
(-0.00230776 0.00368993 -2.3407e-21)
(-0.0146905 0.0233243 3.70794e-22)
(-0.00014932 3.85142e-05 8.58076e-24)
(0.0177495 0.0299129 -2.08624e-21)
(-5.61694e-05 3.68829e-05 0)
(-0.0058813 0.0524133 -1.18004e-22)
(-0.000312352 -0.000583967 2.29748e-21)
(0.00102587 0.00076786 4.16191e-23)
(0.00415211 0.0131597 -3.58266e-24)
(-0.00143851 -0.00220487 1.62498e-22)
(0.00287031 -0.00462778 -3.60388e-21)
(0.031406 -0.0116862 7.42929e-23)
(0.0223688 0.000401849 2.88492e-21)
(-0.000394746 0.00176279 0)
(-0.0215583 -0.0201724 -1.73087e-21)
(0.00167909 -0.00234364 1.80181e-21)
(-0.0101169 -0.0214466 0)
(0.0880994 0.0725352 0)
(-0.0222885 0.0406317 -8.26614e-22)
(-0.000662748 -0.00602831 -3.50817e-23)
(0.0268499 0.206704 1.22887e-21)
(-0.000110177 -1.92196e-05 -2.42207e-21)
(-0.000972144 0.000523324 -1.00064e-21)
(-0.000796273 -2.87555e-05 0)
(-0.00961635 -0.0205758 0)
(0.0271297 0.000197694 3.17643e-21)
(7.08134e-05 -2.95938e-05 -7.17754e-22)
(0.00275097 -0.00234336 0)
(0.0743859 -0.0482357 1.14238e-20)
(-0.0219182 -0.0174463 0)
(-0.0525242 0.0422514 -7.79463e-21)
(-0.0110255 0.00798756 0)
(-0.00194038 -7.26654e-05 -3.21486e-21)
(-0.0194879 -0.0198293 1.86654e-21)
(-0.183063 0.0609085 1.33339e-20)
(-0.00023402 0.000142005 -7.18374e-22)
(0.0305114 -0.0196623 1.99636e-21)
(-0.105789 -0.50658 0)
(0.0098775 0.0132694 -3.66983e-21)
(-0.000111272 -5.82679e-05 1.48522e-21)
(0.0171004 0.00782093 1.07526e-21)
(-8.24636e-05 -2.98517e-06 -9.55306e-22)
(0.028749 0.0280645 6.20421e-24)
(-0.000123224 2.60487e-05 7.05458e-23)
(0.0277969 0.00214616 3.32431e-21)
(-0.0117304 -0.00873923 5.682e-23)
(-0.000128942 1.60854e-06 0)
(-0.000261227 -0.000123313 1.12983e-21)
(0.0652757 0.106184 -7.97296e-21)
(0.000594155 -0.0148116 5.2659e-22)
(-0.000648194 0.00187287 -4.72417e-22)
(-0.00359933 0.00698914 -6.38792e-21)
(-0.000109054 -5.55517e-05 -2.76424e-21)
(4.25399e-05 9.59143e-06 0)
(0.00168962 0.00262256 0)
(-0.0126737 0.00367043 -2.0809e-22)
(-0.00630999 -0.00459282 5.04999e-22)
(0.0177556 0.109179 0)
(0.0064732 -0.0142196 -3.95688e-22)
(-0.000868662 0.000254082 6.20683e-21)
(-0.000203632 0.000690838 6.04363e-22)
(-0.00694119 -0.0203221 0)
(-0.00513249 0.0362765 -4.13582e-22)
(0.0900451 -0.0885145 1.70926e-20)
(-0.000219822 0.000373738 0)
(0.0332846 0.0148783 2.56475e-22)
(-0.00884329 -0.00114223 0)
(0.00410738 -0.000102076 6.2449e-22)
(-0.000377855 0.000263713 2.61082e-21)
(-0.000139745 -3.78645e-05 0)
(-4.0305e-05 -1.49228e-07 0)
(0.016647 -0.0110427 0)
(-0.000136505 -4.15312e-05 0)
(0.00338059 -0.00421848 -3.55635e-21)
(-0.00012594 2.65644e-06 1.35129e-21)
(-0.031149 -0.0129195 1.35233e-20)
(-0.0196508 -0.00188358 0)
(-0.000119774 -4.77797e-06 -2.74406e-21)
(-0.000120644 8.43031e-05 -2.04592e-21)
(0.000422025 -0.000610931 2.79729e-23)
(0.0495866 -0.129722 1.77739e-20)
(-0.000124579 3.53659e-05 2.28195e-23)
(0.000343875 -0.000583786 1.24218e-22)
(-0.0140438 0.0223358 0)
(0.000356277 0.00413879 -8.2721e-24)
(-0.000122835 3.39805e-06 1.634e-21)
(0.0437813 0.187305 -7.91505e-21)
(0.000929272 0.000854983 2.0481e-22)
(0.0506932 0.0219162 1.95621e-21)
(-8.25708e-05 -1.84993e-06 3.08723e-21)
(-0.000119758 0.000126262 -4.77185e-21)
(-0.00160276 0.000196628 0)
(-0.00322666 0.00337976 0)
(-0.227997 0.0513435 -1.41201e-20)
(0.00211244 0.000352304 -1.8274e-22)
(0.0420706 0.00518695 0)
(-0.0589985 0.0448686 -2.81445e-21)
(-0.00051277 0.0019384 0)
(-0.0639387 0.0443256 3.25503e-21)
(0.0764078 0.0577168 0)
(-0.014812 0.00197683 -3.85621e-22)
(-0.00264837 0.00297152 0)
(-0.00428237 0.0062044 8.7609e-24)
(-9.88696e-05 -0.000119228 1.92598e-21)
(-0.00102261 0.00454294 1.49255e-22)
(0.0026493 0.00487814 0)
(-0.0015126 0.000159276 1.8006e-21)
(-0.0118853 0.0134185 0)
(0.0135489 0.0602067 -1.58834e-21)
(0.0438527 0.0376731 7.01736e-22)
(-5.94451e-05 -0.000133892 -4.38836e-22)
(-0.106828 -0.28305 0)
(-0.136458 -0.0762176 -9.39406e-21)
(0.0361457 -0.0469577 2.17289e-22)
(0.00578917 0.0320714 -2.10334e-21)
(-0.0598098 -0.0270164 4.59202e-21)
(-1.78198e-05 -0.000548505 3.74258e-22)
(0.0149264 0.117968 3.20253e-23)
(0.0169159 -0.0273692 3.49818e-21)
(-5.8613e-05 4.26213e-05 -8.34534e-22)
(-9.30506e-05 3.31889e-06 2.69814e-23)
(-8.24958e-05 9.76641e-07 0)
(-0.000205436 0.000108602 1.26757e-21)
(-0.0583007 0.382359 -2.47778e-20)
(-9.58009e-05 -0.000120952 3.6284e-21)
(-0.000232712 0.000317333 -2.92976e-21)
(-0.0145366 -0.0208822 0)
(0.0293054 -0.016601 -6.34862e-22)
(-0.0117289 -0.0171516 0)
(-0.000162069 3.84374e-05 2.05465e-21)
(-0.000802445 0.00136428 0)
(-0.000236297 0.00013787 1.78358e-22)
(-0.000373646 -0.000627269 -6.34997e-22)
(0.00866467 -0.0181972 2.01884e-21)
(-0.000149003 5.85004e-05 -6.63548e-22)
(0.00806112 0.0573587 0)
(-0.000770251 0.000246642 -1.68765e-21)
(-0.00224577 0.0184411 0)
(-0.000115738 0.000394319 -1.58425e-21)
(-0.000164116 0.000374822 0)
(-0.0223789 0.049798 -5.23566e-22)
(-0.000812332 0.00025856 0)
(0.0310349 -0.0161298 1.29807e-21)
(-0.000590048 0.000576618 1.62234e-23)
(-0.000107066 2.45156e-05 0)
(0.17958 0.0224445 0)