/*--------------------------------*- C++ -*----------------------------------*\
| =========                 |                                                 |
| \\      /  F ield         | OpenFOAM: The Open Source CFD Toolbox           |
|  \\    /   O peration     | Version:  v2012                                 |
|   \\  /    A nd           | Website:  www.openfoam.com                      |
|    \\/     M anipulation  |                                                 |
\*---------------------------------------------------------------------------*/
FoamFile
{
    version     2.0;
    format      ascii;
    class       surfaceScalarField;
    location    "100";
    object      ddtCorrDdt0(phi);
}
// * * * * * * * * * * * * * * * * * * * * * * * * * * * * * * * * * * * * * //

dimensions      [0 3 -2 0 0 0 0];
oriented        oriented;


internalField   nonuniform List<scalar> 
41383
(
0.00077231
-0.00198274
0.00121045
-3.22324e-05
8.42762e-06
2.38036e-05
-0.000264155
0.000176389
8.77587e-05
-4.2066e-05
5.76296e-05
-1.55615e-05
0.00146262
-0.000134991
-0.00132767
-2.65477e-05
-1.12664e-05
3.78098e-05
-0.000735363
8.60294e-05
0.000649329
-8.51578e-07
4.27829e-05
-4.19319e-05
-0.00379178
0.00181199
0.00197984
-5.357e-05
-1.73046e-07
5.3742e-05
5.40791e-05
-3.32376e-05
-2.08437e-05
0.000650595
-0.000231087
-0.000419515
0.000905045
-0.000396611
-0.00149004
-0.00111552
0.0026056
-3.25998e-05
-1.93522e-05
5.19514e-05
-0.000538652
-0.000196717
1.53049e-05
3.84045e-05
-0.000291743
0.000573086
-0.000281339
0.00850582
-0.0251273
-0.00151129
-0.00194649
0.0034578
-6.8445e-06
-2.53885e-05
5.82615e-05
-4.72785e-05
-1.09832e-05
0.00202289
-0.00125057
-0.000497065
-4.70942e-05
0.000544206
-1.09212e-05
-2.76525e-05
3.85731e-05
5.87355e-05
4.2797e-05
-0.000101536
1.03901e-05
4.06592e-05
-5.10521e-05
-1.88329e-06
-5.16874e-05
-3.77274e-05
2.68062e-05
-0.0160784
0.0171999
-0.00112132
-5.83701e-05
6.56389e-05
-7.26878e-06
0.00104675
-0.00161281
0.000566089
-0.000411068
-0.00119152
0.00160261
-0.0108551
0.00835999
0.00249515
0.000938267
-0.00134935
-1.38879e-05
4.97058e-05
-3.58104e-05
-0.0123506
0.0161832
-0.00383262
-0.0263368
-0.00235621
0.0286932
2.71394e-05
-8.55078e-05
5.19744e-05
-2.39935e-05
-2.79816e-05
2.62131e-05
1.40327e-05
-4.02363e-05
1.90785e-05
3.28946e-05
-0.00277213
0.00462063
0.0151295
-0.0126996
-0.00242984
1.38124e-05
-6.0232e-05
4.64156e-05
-2.59587e-05
5.28959e-05
-2.69381e-05
-0.00246813
0.00265641
-0.00018824
-9.47625e-05
5.87646e-05
3.59936e-05
5.428e-05
4.81539e-07
-5.47623e-05
-0.00584078
0.00167879
0.004162
3.29445e-05
-8.85345e-05
5.55912e-05
4.15337e-05
-2.77226e-05
-0.0240811
0.00363871
0.0204424
3.83989e-05
2.51039e-06
-4.09106e-05
6.72496e-05
-6.60404e-05
-1.21181e-06
2.43556e-05
2.48834e-05
-4.92497e-05
0.000134983
-0.00110641
-0.00150142
0.00260786
0.000381692
4.01103e-05
-0.000421802
0.000669396
-0.000131202
-5.23175e-05
3.84332e-05
0.000119624
0.000262071
0.0155312
-0.0143102
-0.00122108
-7.63516e-05
0.00137336
-0.00129703
0.000282735
-0.000574468
-0.000225823
0.000842779
-0.000616939
-0.000143318
0.000636031
-0.00049272
-2.68978e-05
-5.95822e-05
8.64727e-05
0.00088795
-0.00286496
0.00197692
0.000669932
0.000538003
-0.00120794
2.29453e-05
-6.37153e-05
4.07706e-05
0.000598107
-0.000894239
0.000296029
-0.0620423
0.118601
-0.0565591
-0.000756685
-0.000164603
0.000921269
-0.023478
-0.0038785
0.0273565
-3.29188e-05
-9.26879e-05
0.000125609
-0.0191047
-0.00723229
0.000646421
-0.000789764
-0.000643627
-0.00519713
-0.000717515
0.000178861
9.50829e-05
0.0021581
-0.00225331
0.0127308
-0.0135133
0.000782581
6.56176e-06
4.01225e-05
-4.66849e-05
0.00155253
-0.00265888
0.000134354
-6.63709e-05
-6.79868e-05
-5.4856e-05
4.43657e-06
5.04161e-05
3.51535e-05
-2.3227e-05
-1.1927e-05
8.1743e-06
5.90734e-05
0.000829236
-0.000231159
-0.005798
0.00262378
0.00317406
0.000767964
-0.00128746
0.000519509
-0.000260526
0.000300636
0.018808
-0.00444006
-0.0143678
-0.000443875
-0.000273642
4.87825e-05
-1.03843e-05
4.12362e-05
4.88832e-05
-9.01237e-05
-0.000154554
0.000129604
6.80385e-05
0.00139455
-2.38478e-05
-0.00259047
0.000122338
0.00325073
0.00948017
-2.61248e-05
4.11808e-05
-1.50507e-05
-2.8608e-05
-2.00629e-05
4.8669e-05
-2.26304e-05
1.98552e-06
2.06449e-05
-0.00203252
-0.00376553
-0.000360085
9.95583e-05
-0.010984
0.0026177
0.00836628
-0.00279958
-0.000992182
2.16839e-05
3.62024e-05
-5.7886e-05
-7.3786e-05
-0.000232266
0.000306052
-0.00042234
0.000621152
-0.000198817
2.1266e-05
-5.38664e-05
-3.89994e-05
1.28711e-05
0.0188324
-2.44115e-05
-2.02307e-05
1.30674e-06
1.8924e-05
-0.00209099
0.0078683
-0.00577742
0.000115304
7.53261e-05
-0.000190634
-5.07785e-05
4.02318e-05
1.05469e-05
-0.000165574
7.06172e-05
9.49527e-05
0.00190111
-0.00341239
7.95189e-05
-0.000634342
0.000554789
0.00133425
-0.000566278
-0.000193097
0.000163001
3.1011e-05
4.14226e-06
4.26921e-06
-5.5985e-05
5.17156e-05
-0.00248795
0.00262947
-0.000141533
-0.00920487
0.0042299
0.00497478
0.0113627
0.00647488
-0.0178376
0.000419477
-0.000475008
5.55508e-05
-0.000433588
0.000513108
-4.76339e-05
1.9026e-05
2.3916e-05
-0.000217011
0.000355516
-0.000576061
0.000220544
5.28316e-05
-4.27864e-05
-1.00458e-05
6.08416e-05
-3.99084e-05
-3.35599e-05
7.34604e-05
-0.000103166
-7.84131e-06
0.000111002
-3.06407e-05
-1.45186e-05
4.51576e-05
0.00597101
-0.00157853
-0.00439247
5.79891e-05
-0.00247481
0.00241684
-2.32273e-05
6.16943e-05
-3.84715e-05
-3.47139e-05
4.51053e-05
-0.000755179
-0.00173277
-2.04896e-05
2.98025e-05
-9.31463e-06
6.79057e-06
-2.7021e-05
-9.53141e-05
2.46483e-05
7.06673e-05
2.29059e-05
-0.000126075
8.30779e-05
6.69127e-05
-0.000149995
-7.35254e-05
1.32913e-05
0.000490242
-0.000134728
2.72185e-05
2.68594e-05
-6.36525e-05
-3.11095e-05
-2.96861e-05
-5.77789e-05
8.74668e-05
9.03437e-05
-0.000117243
-0.000947933
0.00284905
-2.30303e-05
-6.50864e-06
2.95399e-05
-0.00429911
0.0128007
-0.0085016
-0.000995811
0.000401469
0.000594024
0.000188857
-0.000262641
-0.00301616
0.0028896
0.000126575
-0.00390511
-0.00529981
7.25295e-05
8.29758e-07
-5.5689e-05
-8.42108e-05
-8.13631e-05
-3.61106e-05
5.14154e-05
-4.18068e-05
3.27547e-05
9.0515e-06
-5.54978e-06
-4.52272e-05
3.90214e-05
-1.46716e-05
2.66933e-05
-2.15979e-05
-5.10022e-06
-0.00397756
0.00203105
-2.26216e-05
-8.25552e-09
-0.000166111
0.000281413
1.39155e-05
-2.71539e-05
1.32331e-05
0.021977
-0.0296558
0.00767892
4.0064e-05
3.87294e-05
-7.87894e-05
8.38712e-05
0.000442196
-0.000526049
-3.50697e-05
-6.7375e-06
-0.00024692
0.000149402
9.75214e-05
4.76017e-06
3.6772e-05
-0.0195048
0.00715423
-7.26482e-05
-0.000424422
0.000477714
0.000405573
-0.000883302
-0.000398755
0.000180043
0.000218711
5.72379e-06
-0.000101039
-2.20801e-05
3.59915e-05
-0.00132029
0.000618195
0.0007021
-4.45465e-06
-1.8573e-05
4.04238e-05
-1.12056e-05
-2.92193e-05
0.00701267
-0.000530498
-0.00648212
-0.0112836
0.00298648
0.00829707
-3.24727e-05
3.79149e-05
-5.44275e-06
-0.000548223
0.000298068
0.000250159
0.00198454
-0.00112213
-0.000862392
-5.87547e-05
6.80576e-05
-9.30537e-06
-4.781e-05
3.82304e-05
9.57891e-06
-3.54128e-05
1.14183e-05
-3.68315e-05
-1.0979e-05
1.39854e-05
-9.22726e-06
-3.77336e-05
-2.22102e-05
5.99431e-05
1.34058e-05
-4.81214e-05
-0.000354988
-0.000634234
0.000989169
-0.0170912
0.0380144
-0.0209231
0.00748698
0.0164926
-0.0239795
8.46999e-05
-2.63062e-05
-5.84016e-05
3.63393e-05
2.00109e-05
-5.63515e-05
0.000155691
-0.000196638
4.09531e-05
6.6325e-05
-9.60125e-05
-0.00569976
0.00281782
0.00288213
-5.97482e-05
-9.22478e-06
6.89733e-05
0.000166681
0.000502705
-4.77306e-05
2.53047e-05
2.24254e-05
0.00439938
0.0076203
-0.012021
-0.000747228
0.000831087
-0.000137751
-0.000109168
0.00196443
0.00504824
1.11343e-05
4.60953e-05
-5.72334e-05
0.0157349
0.000699351
-0.0164343
8.38384e-06
-0.000452256
-4.64981e-05
8.77328e-05
4.87123e-05
-1.92537e-05
-2.94668e-05
-0.000152572
0.000572061
-3.66863e-05
-2.33044e-05
5.99911e-05
-0.00074644
-0.000573846
-0.00819899
0.00348413
0.00471484
2.66291e-05
-4.65022e-05
1.58611e-05
-6.37995e-06
-0.000293675
-0.000254537
-5.54205e-05
2.94615e-05
-2.05626e-05
3.7716e-05
-1.71378e-05
4.69852e-05
-2.9543e-05
-1.7442e-05
8.39483e-05
-3.50646e-05
-0.000109393
0.000367389
-0.000257997
0.0361037
-0.027598
-0.00269858
0.00275657
5.37173e-05
-3.67287e-05
-1.69922e-05
-0.00322408
-0.00247581
0.000178482
-0.00137002
-0.000307983
0.00075508
-0.00044709
-0.000103011
2.12229e-06
0.000100888
-0.0213606
0.0147954
0.00656619
-0.0220733
0.00071254
1.86901e-05
-4.20479e-05
2.3356e-05
-4.96396e-05
5.11333e-05
-1.49513e-06
-0.00121486
0.00139336
-1.02335e-05
2.42169e-05
0.00679871
0.0089362
-0.000425289
0.000433669
-0.00023844
-2.57158e-05
-0.018847
0.0146765
0.00417044
-0.000467176
0.00028673
0.000180444
0.00197241
-0.00167986
-0.000292544
9.00339e-06
-0.000112019
-5.17226e-05
9.65772e-06
1.55919e-05
-3.44921e-05
1.88994e-05
5.22354e-05
8.21177e-05
0.0202391
-0.0169884
2.5113e-05
5.95839e-05
-2.12397e-05
-0.000184717
-0.000282461
-3.78572e-05
3.57701e-05
2.08307e-06
0.0005472
-0.0002368
-0.000310398
-6.0668e-05
9.19856e-07
-0.000120813
-0.000789872
0.000910658
-0.000252307
0.000170302
8.20066e-05
-0.000855763
2.06193e-05
2.01062e-05
-5.67927e-05
6.72041e-05
-0.000546034
6.34307e-05
-4.07218e-05
-2.27089e-05
0.000413124
-0.00288792
-0.0219944
0.0118901
0.0101044
-6.2311e-05
3.55464e-06
9.50764e-05
0.00137498
-0.00147003
-9.73231e-05
-2.74993e-05
0.000124821
0.000478947
-0.000199589
-0.000279363
-0.000102905
0.000105198
-5.29635e-05
0.0121815
-0.007783
-0.000389862
0.000131897
0.000257964
-0.000317146
0.000178726
0.000138416
0.00075676
-0.0100493
0.00929261
0.00801584
-0.00579428
-0.00222147
-0.0271908
0.0301444
-0.00295347
0.00723945
0.0129997
-6.9396e-05
8.70554e-05
-1.76594e-05
-2.50031e-05
8.34748e-05
-5.84767e-05
-2.88238e-05
4.0026e-05
-1.12022e-05
2.11137e-05
3.83137e-05
-5.94275e-05
-0.00369513
-0.00715997
-3.77298e-05
1.96225e-05
1.81062e-05
0.0304963
0.00310002
-0.0335964
-7.33378e-06
-3.03968e-05
0.00708055
-0.0044509
-0.00262965
-0.00741214
0.0053212
-0.000203348
0.000136974
-0.000498455
0.000665135
-0.0077845
0.0204376
-0.0126531
-0.000615048
0.000389232
7.62003e-05
1.5863e-05
-9.20647e-05
-0.00163288
-0.000113781
0.00174666
-0.00123941
-0.00177672
0.0308558
0.005248
0.00552076
0.000450252
-4.94222e-06
-3.29155e-05
-0.000935586
4.11527e-05
0.000894417
-0.00131791
-4.02748e-05
0.00135818
5.78733e-05
-0.000155198
-0.000453848
0.000382247
7.15912e-05
0.00126481
-0.00080784
-0.000456956
0.00093564
-6.71459e-05
-0.000868571
4.81964e-05
4.63465e-06
-0.00157861
0.00336905
-0.00179044
-2.38847e-05
-2.38479e-05
-0.000306121
-0.000147734
-0.00138062
-0.000602116
8.41759e-05
0.000194463
-0.000278637
-0.00282463
0.0013346
-2.25986e-05
4.12919e-05
5.80233e-05
4.12798e-05
-4.2377e-05
1.09689e-06
0.000145017
-3.59875e-05
-0.00010903
0.0142365
0.00947155
-0.0237081
0.000656516
-0.000166276
0.000242965
0.000304233
0.000320071
0.000336442
-3.5866e-05
5.58764e-05
5.79976e-05
-0.000293893
0.000235899
0.000185371
-0.000243608
5.82296e-05
0.00015754
-0.00588461
0.00572708
0.0261511
-0.0197296
-0.00642152
-0.00584056
-0.00690986
0.0127505
-9.5114e-05
-0.00810385
0.0265209
-0.00454373
0.000107082
0.000828601
-3.86973e-05
1.84521e-05
2.02426e-05
-0.000192327
3.67858e-05
0.000155524
-5.62825e-05
5.91442e-05
-2.86273e-06
-1.0286e-05
4.09231e-05
-3.06372e-05
-0.000824684
0.000523204
0.000301476
0.00172975
0.00587935
-0.00420055
-0.000364316
0.00139718
-0.00103285
0.0254587
-0.00100271
-0.0244559
0.00317245
-0.000138674
-0.00303377
-0.0206068
0.0236188
-0.00301208
0.000108207
-0.000533491
-0.00096497
0.00555298
-0.00458806
1.07193e-05
-4.38367e-05
3.31157e-05
1.27784e-05
-0.000609884
0.000597087
-4.73933e-05
5.16606e-05
-8.77484e-05
9.94752e-05
-1.17297e-05
-5.7053e-05
3.27984e-05
2.42491e-05
0.000114649
-0.000138429
2.37732e-05
-0.0145038
0.00907419
0.00542963
-0.00452773
0.0035627
-4.04599e-05
4.26199e-05
-2.16159e-06
0.000124222
1.72635e-05
-0.000141486
-0.00687131
1.17941e-05
0.00685946
0.0386222
-0.0412555
0.00263346
-6.69988e-05
0.000191221
0.000757347
-0.000781037
2.36741e-05
4.25825e-05
-4.35303e-06
-2.20768e-05
4.47025e-05
-2.26246e-05
-0.0022137
-0.018393
4.75278e-06
-7.41493e-05
-0.000273012
-0.000116851
-5.47247e-05
6.28969e-05
-7.8672e-06
-3.08328e-05
0.00282202
0.00035043
0.00150698
-0.000115975
-0.00139103
-0.000687215
0.000537214
0.00015
-0.0363665
0.0172618
0.000165629
-0.000799862
0.00170255
-0.000195584
1.6383e-05
-0.000438724
0.000165379
-0.000524122
0.000358745
-3.34208e-05
-1.73348e-05
5.07543e-05
6.4823e-06
3.3941e-05
4.19965e-05
5.85324e-07
-1.98073e-05
-3.72495e-05
0.000188122
-2.65544e-05
-0.000161567
-3.31269e-05
-1.23872e-05
4.55141e-05
6.91311e-05
-5.52551e-05
-1.38773e-05
0.000589142
-0.00254375
0.00195466
-0.000231761
-0.00071793
0.0009497
0.00227285
-0.00914421
-8.7048e-05
0.00107074
-0.000983695
-4.83468e-05
5.5299e-06
4.2821e-05
2.57686e-05
-9.09996e-05
6.52247e-05
-0.00153704
0.00021913
0.000273033
2.26521e-05
3.33398e-05
-5.59917e-05
-0.00520462
0.00536214
0.0336767
-0.00821793
-4.48211e-05
-3.57918e-05
3.22524e-05
3.53936e-06
0.00143295
0.000551593
-0.000251601
0.000246681
1.88605e-05
-6.72059e-05
-0.00385053
0.000312097
0.00353845
2.37329e-05
2.95719e-06
0.0183121
0.00530677
-0.000303066
0.000780776
-0.00216778
0.00432557
-0.00215771
0.00871464
-0.0359055
0.000678951
-0.000823501
0.000144547
0.000400699
-0.000173052
-0.000227666
-3.99393e-05
1.78634e-05
-0.00019872
-0.000435639
0.000501922
-0.000367279
-0.000134646
0.0270184
-0.0285169
0.00149854
-8.30644e-05
3.65635e-05
0.00016228
0.000315197
-0.000257202
-3.15031e-05
1.10136e-05
0.0234904
-0.0051783
0.000767771
-0.00353955
-0.000346572
0.000454776
0.00114373
-0.00137548
8.78205e-05
-2.90845e-05
0.0144398
-0.0137405
-8.28098e-05
-0.000827293
0.000750938
0.000384129
9.01963e-05
-0.000474324
0.0124418
0.00268771
-3.80035e-05
7.09485e-05
-5.53497e-05
-9.34386e-07
0.000846105
-0.000222103
-0.000624013
0.0250494
0.00196904
1.20565e-05
3.98367e-05
-5.18941e-05
-1.80033e-05
1.80033e-05
1.08031e-05
4.81907e-05
-5.89936e-05
0.000926799
-0.00106713
0.000140326
-0.00918537
0.0232856
-0.0141002
-0.0177491
0.00856375
-0.000188362
-0.000210382
-0.00104248
0.00054295
0.000499549
0.00145083
-0.000404066
4.10246e-05
-3.07642e-05
-1.0261e-05
-4.24002e-05
3.68522e-05
0.00108753
0.000935372
-4.64276e-05
2.68705e-05
1.9553e-05
-2.51123e-05
-1.44337e-05
3.95447e-05
0.000121502
-0.000948811
0.000808551
8.48089e-05
-0.000893416
0.00118547
-0.00166085
0.000475386
0.000982404
0.00265436
-0.000199199
-0.00245522
-0.00632117
0.0131199
-0.00114316
0.00123817
2.95112e-05
-3.57214e-05
6.20947e-06
0.00027705
-0.000600232
0.00032318
-0.000317367
0.000207975
0.0150587
-0.000822169
-0.0272716
-0.0090949
-6.75061e-05
1.27804e-05
0.00812715
-0.00403385
-0.00409312
0.00609224
-0.000350315
-0.00574193
0.00331335
-0.00105006
-0.0022633
-0.00418959
0.000936037
0.00325355
1.77965e-05
-5.80909e-05
-2.61517e-05
8.42412e-05
0.0126947
-0.00133202
-2.35081e-05
-2.29208e-05
0.00407474
-3.59104e-05
1.07985e-05
1.34357e-06
0.000187172
-0.000188528
-4.29407e-05
5.43491e-07
-3.07446e-05
-3.54657e-06
3.42826e-05
-0.0029071
0.00377667
-0.000869549
0.0147624
-0.00826114
-0.00650124
0.0531703
-0.014548
-0.000292588
-0.000283466
-0.000454462
0.000551087
-4.98981e-05
3.96119e-05
6.12617e-05
-2.05463e-05
-4.0723e-05
-0.000517133
-0.0001969
0.000714046
3.49544e-05
0.000615393
-0.000326209
-0.000289167
0.000591787
0.000741398
0.00711034
0.00999631
-0.0171067
-0.000212061
-0.000105093
-1.93669e-05
-4.50035e-05
6.43675e-05
0.000255743
-0.000772867
-4.36281e-05
5.47611e-05
-2.05836e-05
5.86671e-05
-3.80827e-05
0.00630305
-0.012989
0.00668595
4.52197e-05
-4.56168e-06
0.000706157
-0.000826956
-0.000496191
0.000203614
0.000490128
-0.000775232
0.000285113
-0.0141609
0.00191862
0.0122423
-0.00785789
4.93356e-05
-3.72798e-05
-0.00744503
0.0158051
0.000141104
0.000360822
6.90207e-05
0.000184925
-0.000253943
-0.0259581
0.0476618
-0.0217038
0.000172917
0.00271671
0.0124788
-0.0105602
0.00149248
-0.00139735
-4.104e-05
5.00459e-05
-9.00738e-06
0.000543038
-0.000828498
0.000935632
-8.75264e-05
-2.23331e-07
-4.76803e-05
2.11276e-05
0.0262188
0.00427745
0.000971446
0.000566547
-0.00153801
-2.35321e-05
4.57688e-05
-2.22386e-05
-3.59695e-05
3.49635e-06
-0.00386276
0.00169496
-0.00191828
-0.0215598
-0.00573844
0.0041599
-3.09046e-05
-4.88712e-06
-0.000226063
0.00141154
-8.80021e-05
2.99127e-05
0.0476993
-0.109326
0.0616273
-2.66389e-05
2.57876e-05
0.00376448
-0.00328201
-0.000482479
0.00536551
-0.0112061
2.53645e-05
3.80668e-05
4.28959e-05
-2.32743e-05
3.8785e-05
6.06883e-05
-0.00177518
-0.0143032
-0.000778999
0.000321595
0.000457412
0.000530733
-0.00189968
0.00136895
-0.119643
0.0576009
-8.88849e-05
0.000129591
-4.07092e-05
4.75382e-06
1.41947e-05
-1.89523e-05
-0.000390638
0.000880776
3.37511e-05
-5.31034e-05
0.000926333
-3.18908e-05
-0.000894433
6.48144e-06
4.22244e-05
-4.87063e-05
8.40364e-06
-0.0021146
-0.000153123
0.00226773
-0.00206793
-0.00447081
0.00653871
-4.28214e-05
9.69441e-06
-1.75153e-05
0.000202884
-0.000100243
1.13564e-05
8.79667e-05
-0.00091647
-3.7635e-05
3.65284e-05
1.10534e-06
-4.24021e-06
-0.000195955
0.000200194
-0.00240735
-0.00887587
-0.000477604
-0.000564859
0.000926651
0.000226698
-0.00115342
-0.00095683
0.00466147
-0.00370462
4.62806e-05
0.000845774
-0.000892053
0.0106512
0.00654879
-0.00373369
-0.00441189
0.00814544
9.81166e-06
1.29647e-05
-2.27778e-05
-0.0002558
-5.93117e-05
3.99433e-05
-0.000724359
0.00395627
-0.00323192
0.00016656
-0.000474542
3.48185e-05
2.34426e-05
-2.03215e-05
3.2488e-06
1.707e-05
0.0113269
0.0299349
-0.0412618
-4.1822e-05
1.18762e-06
4.06325e-05
4.63175e-05
-2.88974e-05
5.6701e-06
-0.021693
0.0245883
-0.00289522
-4.93294e-05
-4.21751e-06
5.35499e-05
8.19243e-05
-0.00873229
0.00809295
0.000639341
-0.00251773
0.00310688
0.000916338
-0.00183908
0.000922786
0.000416513
0.00020893
-0.000625447
-0.00295057
0.00383847
0.000263484
-0.000506816
0.000680287
-0.000173427
3.51175e-05
0.000135185
0.000585145
-0.000419543
-9.57158e-05
4.00598e-05
5.56542e-05
0.000518366
-0.018559
-0.00313393
-0.00530579
0.00477529
-0.00076124
0.00421994
-0.00295066
-0.00126928
3.60625e-05
-5.59173e-05
1.98538e-05
0.0024967
9.3429e-05
-0.00259007
-0.000119207
-8.78043e-05
0.000207017
2.20834e-05
1.63693e-05
-3.84538e-05
0.00326443
-0.000655707
0.000148994
0.000506674
0.00258826
0.00542758
-0.014755
-0.000130267
0.00105707
2.35163e-05
-1.4328e-06
3.49178e-05
-0.000242803
0.000207874
-0.00024254
0.000123338
3.27998e-05
-2.60276e-05
-6.77298e-06
0.00501027
0.00207029
0.003781
-0.000774609
-0.00300639
2.21773e-05
0.00021924
-0.000282723
6.34693e-05
4.06161e-05
-1.22405e-06
-3.93935e-05
-0.00345127
0.00190668
0.00154455
0.00160394
0.0044883
-2.62491e-05
0.0110255
0.0388504
-0.0498759
0.000352865
-0.000551601
9.61274e-05
-4.03409e-06
-9.20903e-05
0.000147569
-0.000112449
1.99435e-05
-6.32185e-05
4.32742e-05
0.000724192
-0.000711402
-0.0202988
-0.048648
0.0689469
0.0490171
-0.0193682
-0.0296491
-0.0117441
-0.00268643
0.00306282
-0.000376317
-0.0033986
-0.00959039
-3.30389e-05
5.74711e-05
-2.44327e-05
0.000630327
-0.00593609
0.000256217
-3.69906e-05
0.000130137
0.000625969
-0.000756118
0.000179044
0.000471558
3.96492e-05
9.66048e-07
0.000765401
-0.00331611
0.00255071
0.014121
-0.0312121
-0.00466235
0.00327622
0.00138589
-2.7613e-05
2.76122e-05
0.0170657
0.00736647
-0.0244322
-0.000451405
0.000263043
-0.00606607
-0.00832615
0.0143924
0.00250908
0.00171086
0.000216328
-0.000181414
-0.0147181
0.00555538
0.00916232
0.0221704
-0.00214666
-0.0200237
-0.000408629
-0.00024706
6.44719e-05
-4.98066e-05
-1.46655e-05
-0.000392214
0.000625598
-0.000233409
-0.000182081
0.000257406
0.000844912
-2.55727e-05
-0.000819338
-5.54213e-05
1.94769e-05
3.59453e-05
-0.00113911
-4.61628e-05
0.00118522
4.06335e-05
2.38384e-05
-1.85478e-05
-1.77529e-06
4.85751e-05
-0.000127124
7.85508e-05
-0.00503348
0.00386485
0.00116864
-0.00107656
2.96821e-05
0.00104693
-0.00142509
0.00106078
-6.83098e-05
7.88609e-05
-1.05476e-05
0.0144398
0.0146829
-0.029123
0.000151323
0.000606016
-0.000443184
0.000437543
5.61985e-06
-7.14718e-05
3.3738e-05
-0.00277484
-0.00225865
0.000901324
0.0001332
-0.00103456
-0.000131062
-0.00155664
0.00168775
0.00361972
-0.00593852
0.00231878
-0.00185233
0.000416347
0.00143597
0.0178609
-0.00232972
-4.48128e-05
-4.82745e-06
-4.12981e-05
-3.77382e-06
4.50718e-05
-0.000882881
4.36252e-05
0.000839251
-3.69512e-05
-4.41872e-06
3.62022e-05
-3.17903e-05
-0.00446569
0.00515262
-0.000686927
0.00182938
-0.000913037
-0.00887084
-0.00827172
0.0171424
-1.46691e-06
-1.65362e-05
-0.00109657
0.0016273
-0.000131385
0.000143603
-1.22175e-05
-0.000136294
0.000103379
-0.0054048
-0.0079034
0.0133083
6.75219e-06
-4.80505e-05
-6.28317e-05
2.29172e-05
0.0169585
0.00567186
0.0102758
-0.0159478
2.88218e-05
-5.38317e-05
-1.99403e-05
5.59332e-05
-3.59931e-05
-4.04332e-06
3.18155e-05
-2.77725e-05
-2.75581e-05
-5.68798e-07
2.81243e-05
0.000794721
-0.000881767
-0.000573009
-0.000309876
-0.0183618
0.000185616
0.0181762
-0.0224133
0.0137975
0.00861618
0.000321719
0.00037445
-0.00183194
0.00145749
-0.00311772
0.00192187
0.00119594
0.00387467
-0.00483145
-0.000312506
0.000426521
-0.000114076
0.00252828
-0.00211515
1.5944e-05
-4.78928e-05
3.19453e-05
0.010403
-0.00651741
-0.00388557
-2.97888e-05
3.50575e-05
-5.26846e-06
0.00937504
-0.0106578
0.00128275
0.000137553
0.0197188
-0.0153431
-0.00437567
-0.000859324
0.000381721
0.00067258
-0.000288448
2.70885e-05
0.000132682
9.8621e-05
-0.000231309
-0.001763
-0.00168829
4.76177e-06
-5.4092e-05
3.53859e-05
-4.37516e-06
-0.000947738
-0.00090459
0.000897534
-0.00239766
0.00150013
1.27655e-06
4.09475e-05
-0.0052156
0.00711029
-0.00189471
2.12593e-05
-1.14453e-05
-0.0190531
-0.00502803
7.97647e-05
0.000207903
-0.00028767
3.68429e-05
-0.000202957
0.00100469
-0.000958416
-0.000244219
-0.000207189
0.00100579
0.000316762
-0.00132255
-0.000736132
0.00164464
-0.000908617
-0.00150341
-0.00234712
0.000179607
0.00130508
-0.00313319
0.00182814
0.000912861
-0.000242905
-0.000956574
-0.000119992
0.00726224
-0.00213828
-0.00512395
0.000383174
0.00339782
-0.000650487
-0.000122387
0.000772804
0.00357386
0.0105242
-0.014098
1.15141e-05
-4.47526e-05
-0.000186015
-5.00936e-05
0.000236106
3.47393e-05
-0.000127425
-3.65713e-05
-0.00105849
0.00109491
0.00564023
-0.00196686
-0.00367333
9.12493e-07
1.18565e-05
-1.27755e-05
0.00116827
-0.000630255
-0.0123146
-0.000821206
-0.000603842
0.00142504
-0.0075813
0.0180355
-0.0104545
-0.000467161
0.000711932
-0.000244818
3.21829e-05
-0.000241902
0.000209719
-0.00151953
0.0187953
-6.30352e-05
2.68948e-05
3.61399e-05
0.00353788
0.0112245
-0.0555278
-0.0641155
0.0070631
-0.00169628
-0.0053668
2.88964e-05
1.94019e-05
-4.82981e-05
0.000916532
0.00239682
4.02951e-05
-1.45577e-05
-2.5738e-05
-0.0021611
0.00268872
-0.000527651
-5.07149e-05
1.2323e-05
3.83919e-05
0.00222237
0.00341786
0.000453637
-0.000684728
2.45651e-05
3.30655e-05
8.50569e-05
-5.9292e-05
0.00149448
0.0182244
-0.00063418
0.000273219
0.00036099
0.000172382
-0.000234825
6.24443e-05
-0.00231534
0.00244128
-0.000125937
-1.63897e-05
4.52861e-05
-1.16917e-06
2.08001e-06
0.000511943
5.91155e-05
-0.000571069
-0.000409596
0.00144678
-0.00103718
-0.000478813
-0.000427029
0.000905854
-0.026461
-0.0204446
0.0469056
0.00174794
-0.00231251
0.000564527
-0.000281391
4.29498e-05
-0.000128688
-2.69555e-06
0.00227408
0.000381638
-0.00265568
0.0168705
-0.00439174
-0.0205418
0.0217466
-0.00120461
-7.00024e-05
-0.000106838
0.00017684
-0.00208112
0.00188586
0.00019516
-0.000360406
4.78755e-05
-0.00134647
-0.000266334
0.000136797
-7.51293e-05
-6.16711e-05
-5.50162e-05
2.5947e-05
2.90686e-05
2.31835e-05
-2.31839e-05
0.000649495
0.000255542
-2.76098e-05
-2.74075e-05
0.0013616
-0.000355815
4.83096e-05
-4.72078e-05
-1.10201e-06
0.00305511
-0.00553659
0.00248132
1.7797e-05
-0.000625666
0.000607816
3.99331e-07
-4.7678e-05
-4.12389e-05
2.99703e-05
2.80056e-05
7.17587e-05
-9.97683e-05
-0.009381
-0.0111607
5.26176e-05
-1.42132e-05
-5.71285e-05
8.51309e-05
-0.00233851
-0.00339994
-0.000780286
-0.00133429
-2.77857e-05
4.37289e-05
9.29816e-05
0.00931972
-0.00941269
-0.000173975
0.000210816
-0.0215176
0.0137331
-3.71401e-05
3.71389e-05
4.18671e-06
3.35334e-05
-6.24719e-05
0.000238332
-0.000175861
-0.000365029
0.00134952
-0.000984495
0.0218062
0.000374083
-0.000193022
-0.000181062
0.0022892
-0.000442261
-0.00184678
-0.00421426
0.00617863
-0.000225096
0.00015723
6.78682e-05
0.00283215
-0.00704647
-0.0347373
0.0108599
0.0238775
-0.00181796
0.00258336
-0.000902928
0.000537896
-0.00186043
-0.000454911
-5.6777e-05
5.62828e-05
4.92886e-07
-0.00121654
0.000415083
-0.000392285
-2.27928e-05
-0.000207648
0.000145174
0.00144755
-0.00107312
0.000249767
-0.00347419
0.0220085
-0.0182157
-0.00379274
3.39266e-05
2.49379e-05
-5.88664e-05
0.0313435
0.00479767
-0.0361409
-0.00865786
-0.0101892
0.0127947
0.0130471
-0.0258417
-0.0132257
0.00609587
0.00712979
0.0056946
-0.00687554
0.00118098
2.68905e-05
5.81651e-05
-8.50444e-05
0.0179
-0.044361
-0.00858898
0.0112067
1.43679e-05
-3.0791e-05
1.64228e-05
3.56995e-05
-3.85992e-05
2.89967e-06
-3.26e-05
2.0411e-06
3.05582e-05
6.78793e-05
-4.79355e-05
0.0712605
-0.0731179
0.00185722
-3.51394e-06
-5.32618e-05
-5.47725e-05
-3.6651e-05
9.1424e-05
-0.00107218
2.46173e-05
0.00104773
0.000988142
-0.00183195
0.000843781
-0.000781176
-0.000154407
-6.91448e-05
2.88404e-05
4.03026e-05
4.60904e-05
0.000148072
-0.000194154
-3.66264e-05
-2.64091e-05
-4.83665e-05
0.000181414
-0.000133052
0.0029188
-0.000573983
-0.00234475
3.46299e-05
1.34368e-05
-4.80698e-05
-0.00313364
-0.0015287
4.2473e-05
8.31845e-05
-0.000125657
-0.00312929
0.00240494
-4.31752e-05
-9.76256e-05
0.000140795
9.87852e-05
-0.000141959
-0.00468273
0.00155091
0.00313184
0.000130662
-8.81896e-05
0.00188172
-0.000893623
0.000275575
-9.91893e-05
3.97879e-07
4.08818e-05
0.0269966
-0.0305073
0.00351063
-7.98693e-06
5.54707e-05
-4.74843e-05
2.54453e-05
2.28068e-05
-4.82527e-05
0.000785467
-0.000368991
0.00177179
-0.000874254
0.000162153
0.00095231
-0.00111443
0.00627087
-0.00848947
0.00221851
-2.48443e-05
-2.71395e-06
3.05692e-06
3.2643e-05
-0.000859037
0.000902659
3.64344e-06
-6.29574e-05
-0.0194341
0.00929086
0.0101434
-0.000699376
8.4334e-05
0.00348501
-0.000511438
0.000632935
-0.000580824
-0.000278488
0.0095631
-0.00455283
-2.23431e-05
2.70953e-05
-0.000284243
0.000580666
-0.000296427
-0.000820151
0.000861292
2.12614e-05
0.00025924
-0.000280513
-4.9248e-05
-1.2886e-06
5.05373e-05
-0.000112126
0.000624063
-0.000168634
9.86314e-05
-1.38858e-05
2.82536e-05
-0.0011757
-0.00135399
0.000944411
-3.52142e-05
3.80116e-05
-2.79749e-06
1.30646e-05
-6.0917e-05
4.78449e-05
-0.00102251
0.00023959
0.000782903
6.8924e-05
-0.000336223
0.000267304
-1.8146e-05
0.000150511
-0.00013236
0.00311984
-0.000830679
-5.88441e-05
4.55858e-05
1.32562e-05
-8.10731e-05
-1.24439e-05
9.35253e-05
-0.00204003
0.00185505
0.000184948
-1.91758e-05
-1.31478e-05
3.2325e-05
7.48971e-05
6.18998e-05
6.36041e-05
2.17631e-06
-6.57813e-05
-0.000952258
0.000473458
0.000989328
8.03845e-05
6.99932e-06
-8.7386e-05
-0.00393302
-0.000749718
-0.000450649
-8.30435e-05
0.000533693
-0.0232623
0.0278049
-0.00454264
0.000167956
-2.69752e-05
5.24202e-05
-0.00170714
0.000970962
1.9291e-05
1.83565e-05
-3.76494e-05
-2.27998e-05
9.79705e-06
-3.6659e-05
2.68609e-05
-3.03448e-05
5.56013e-07
-3.0116e-05
-3.90299e-05
-0.00033964
0.000566932
-0.000227286
5.74689e-05
-5.38279e-05
-0.00764998
-0.0117837
-2.91169e-05
5.20625e-05
-0.00177583
0.000828077
5.58427e-05
7.37481e-05
0.000162539
4.35903e-05
-0.000206127
-7.84475e-05
0.000240987
-5.64501e-05
0.000153726
0.000220356
-0.021695
-0.0130422
-0.00668803
0.00744488
-0.00165139
-0.00890158
0.0105528
-4.42605e-05
3.62722e-05
0.00408553
-0.00781929
7.24946e-05
0.000189815
-0.000262306
-2.16837e-05
0.000785971
-0.000764297
5.50636e-05
-3.92772e-05
-1.5788e-05
-4.75243e-05
-1.61914e-05
3.74572e-05
-3.79224e-05
4.64806e-07
-0.000189623
-0.000385871
0.000575492
5.76739e-05
-4.46135e-05
0.00352578
5.14774e-05
-6.69673e-05
1.549e-05
-0.0003144
-0.000544639
-0.000513809
0.000324185
0.000228504
0.000172195
-0.000112212
0.000183263
-7.10547e-05
0.000696942
-1.79965e-05
2.89852e-05
-4.34198e-05
3.12503e-05
1.57349e-05
-0.00727455
0.000865574
0.00640898
-0.0258238
0.020336
0.00548785
0.00743668
-0.00216656
-0.0052701
-3.41026e-05
3.66123e-05
1.80714e-05
-3.17992e-05
1.3727e-05
-0.000292974
0.000361904
-3.43619e-05
-6.09898e-06
0.00714241
0.0150279
0.0135616
0.00115911
-0.0147209
0.000414087
-6.57788e-05
-0.000348303
0.0117114
-0.0116185
-5.28475e-05
-0.00335782
-0.011146
1.22771e-05
-0.000543691
4.2589e-05
0.000501115
0.000348328
6.57616e-05
-0.0226826
0.0340095
7.60918e-06
-2.21292e-05
-5.27132e-05
0.0152853
8.65318e-05
-0.000198746
-0.000457939
7.28645e-06
3.51413e-06
-4.45571e-05
-0.0153979
0.0190366
-0.00175378
0.000377024
-0.000223404
-0.000153616
-4.84933e-05
8.51696e-05
-3.66769e-05
2.08828e-05
-0.000136131
0.000115248
-0.00458178
0.0110567
-0.00267404
-0.00605824
-0.00200614
-7.49837e-05
9.43772e-05
0.0087216
0.00130262
-0.0100242
-4.3098e-05
1.95664e-05
0.000554618
0.000136661
-0.000691275
-0.000121265
7.38218e-05
4.74446e-05
0.0141149
0.000561511
-3.44664e-06
-3.28103e-05
3.62566e-05
-5.55265e-05
-5.14137e-06
1.1478e-05
-4.22302e-05
-4.29436e-05
-0.000250949
0.00203858
0.000235524
-4.51442e-06
3.34988e-05
0.000239496
1.19905e-05
-0.000251485
-3.27125e-05
2.9265e-05
-0.000124336
0.000204098
0.00245633
0.0013121
-0.00376847
-0.00121184
-0.000563997
-0.000775688
0.000753996
2.71272e-05
2.65879e-05
-0.00368701
0.00023618
0.00345084
0.00620204
6.87946e-05
-0.000100382
0.000347277
0.0023071
0.0003092
-0.000149314
-0.000159894
0.00946238
-0.0111139
1.25684e-06
3.62002e-05
-0.000690017
0.00490084
0.00322631
0.000326777
-0.000232255
-9.45456e-05
-3.29184e-05
-0.000137684
0.000183781
-6.27456e-05
1.7879e-05
4.48669e-05
0.00902118
-0.00643289
0.0060437
-0.0244055
4.89498e-06
-3.37189e-05
-5.90134e-06
-5.29435e-05
0.00138054
-0.000143066
-0.00123746
-0.000817414
0.00240212
-0.00158487
3.48309e-05
-8.33253e-05
0.00186136
0.00540085
0.000216905
-0.000735538
0.000518581
0.0151571
-0.00159551
3.77441e-05
0.00230628
-0.000359588
-0.00194669
0.000142161
-0.000315223