/*--------------------------------*- C++ -*----------------------------------*\
| =========                 |                                                 |
| \\      /  F ield         | OpenFOAM: The Open Source CFD Toolbox           |
|  \\    /   O peration     | Version:  v2012                                 |
|   \\  /    A nd           | Website:  www.openfoam.com                      |
|    \\/     M anipulation  |                                                 |
\*---------------------------------------------------------------------------*/
FoamFile
{
    version     2.0;
    format      ascii;
    class       volScalarField;
    location    "100";
    object      k;
}
// * * * * * * * * * * * * * * * * * * * * * * * * * * * * * * * * * * * * * //

dimensions      [0 2 -2 0 0 0 0];


internalField   nonuniform List<scalar> 
27802
(
0.000185343
0.000141095
0.000150411
0.000152135
0.0160916
0.000145854
0.000151881
0.000147822
0.000182725
0.00014948
0.000138542
0.0362788
0.0375744
0.000182187
0.000141342
0.000151831
0.000127711
0.0325967
0.000881545
0.00018389
0.000140056
0.000145602
0.000186429
0.000195085
0.00013553
0.000148114
0.000144538
0.000149391
0.000135495
0.00837144
0.000144549
0.000157311
0.0118559
0.000246273
0.0149929
0.000141933
0.000233526
0.00271339
0.000144499
0.00014411
0.000146916
0.000144143
0.0214832
0.000247751
0.000139724
0.000141199
0.000217666
0.000145748
0.000136806
0.0001906
0.00015618
0.000139763
0.00766516
0.000139623
0.000143064
0.000145656
0.0169188
0.000181002
0.000145353
0.02283
0.000141921
0.000145269
0.00339139
0.00015676
0.0314996
0.000191454
0.0267674
0.000150444
0.0210927
0.000154306
0.000139659
0.000201095
0.0215692
0.000200992
0.00656383
0.000156166
0.00339976
0.0249426
0.000188262
0.000151419
0.0215729
0.000275266
0.000137066
0.00018088
0.000144507
0.000153066
0.000135354
0.000142942
0.00020136
0.000240166
0.0258939
0.000145047
0.000322343
0.000151329
0.000138407
0.000145661
0.000159422
0.0171192
0.000146879
0.000216168
0.000253578
0.000147236
0.000152552
0.00015473
0.000235511
0.000145021
0.000413019
0.000183248
0.000142201
0.000168536
0.000153901
0.000141255
0.000147284
0.000347559
0.00013543
0.000203239
0.000159191
0.000139157
0.000156464
0.000182699
0.0404154
0.0278244
0.000167476
0.000135476
0.000143525
0.000184971
0.000232039
0.00294203
0.0384703
0.0395557
0.000152584
0.000167152
0.000146971
0.000149017
0.000137087
0.000149509
0.000148793
0.000138076
0.000189378
0.000187136
0.00014994
0.000144864
0.000186778
0.000135091
0.000135395
0.000151242
0.000148701
0.000150258
0.000140014
0.000146523
0.000138905
0.000145621
0.000153077
0.000150721
0.000181198
0.000143166
0.000240756
0.000205273
0.000168377
0.000205367
0.000230953
0.000201626
0.000153003
0.000156379
0.000127879
0.000134586
0.000139343
0.000145979
0.000143872
0.000185305
0.000154014
0.000158998
0.000143663
0.0117536
0.000144686
0.0273218
0.000134419
0.000160055
0.000139489
0.00023614
0.000194857
0.000167791
0.000163416
0.000151023
0.000143624
0.000181236
0.00014312
0.000148009
0.000217312
0.000185946
0.000140013
0.000154445
0.000185298
0.000150901
0.000133395
0.000144242
0.000133384
0.000138999
0.000142086
0.000144882
0.0442131
0.0211095
0.00353998
0.000157058
0.000142231
0.000167245
0.00015277
0.000238077
0.000132438
0.0245516
0.000142129
0.00106153
0.0250258
0.000159883
0.000218921
0.000141623
0.00300737
0.000151269
0.000145956
0.000143321
0.038971
0.000128376
0.000180713
0.000210977
0.000143572
0.000137788
0.000137342
0.000154352
0.000141248
0.000147315
0.000128289
0.0196367
0.000145678
0.000164241
0.000548736
0.000188307
0.00014583
0.000242274
0.0131391
0.000148152
0.000145713
0.00240265
0.00315806
0.000145295
0.000157975
0.00989533
0.000138733
0.00228815
0.000150673
0.000149927
0.000297965
0.000164794
0.000184423
0.000146004
0.000158242
0.000133604
0.000144087
0.000314366
0.000157055
0.000133384
0.000164884
0.000146439
0.0337069
0.000132231
0.0408564
0.000159955
0.0454419
0.000147395
0.000128361
0.000144715
0.000205822
0.000140393
0.000186189
0.000317477
0.00015079
0.000217324
0.000149572
0.000168425
0.000159737
0.000143827
0.000227674
0.000164353
0.000151942
0.000234214
0.000232241
0.024292
0.000281477
0.000147183
0.000157011
0.000144248
0.000129144
0.000225345
0.000134069
0.023676
0.000134012
0.000197701
0.000204396
0.000144721
0.0274335
0.00151306
0.000191549
0.000150713
0.000162223
0.000204371
0.00168255
0.000189865
0.000146224
0.0389531
0.000163583
0.000149767
0.000163074
0.000180572
0.000187379
0.00014916
0.000174072
0.000142103
0.000163419
0.000184733
0.000168221
0.000182988
0.000146524
0.000142268
0.000129007
0.000139683
0.00228736
0.000146369
0.034391
0.00014636
0.000142292
0.000163123
0.00014872
0.00397245
0.00735896
0.000222408
0.000209774
0.0115612
0.000187609
0.000141914
0.000185033
0.000140237
0.000127943
0.0326385
0.0348221
0.000195076
0.000203617
0.0019325
0.000218372
0.000700104
0.00015064
0.000247962
0.000135707
0.0226027
0.000143675
0.000149353
0.000147748
0.000149068
0.00186653
0.000245561
0.000141869
0.000139966
0.00010566
0.00904053
0.000140333
0.000168941
0.000133208
0.000147128
0.000669827
0.000146976
0.00016417
0.000142532
0.000141679
0.000219481
0.000172315
0.000197023
0.00431827
0.0446228
0.000172859
0.000153477
0.00016315
0.000141233
0.000147908
0.000133287
0.000147436
0.000140514
0.000141075
0.000145594
0.000221969
0.000154881
0.000140369
0.00016397
0.000142265
0.000145607
0.000162687
0.000168477
0.000141818
0.00587941
0.00459071
0.000184717
0.000146365
0.000185688
0.032797
0.00016873
0.000141973
0.000184538
0.000143954
0.000836542
0.000167121
0.000221637
0.0247774
0.000167773
0.0237352
0.000151573
0.0396876
0.0365327
0.00937733
0.000145952
0.000139993
0.000163644
0.000135052
0.00092395
0.0214015
0.000150206
0.000156462
0.000148093
0.00314023
0.000150278
0.000154496
0.0391188
0.000144558
0.000155884
0.000140162
0.000166244
0.00846594
0.00014166
0.000149526
0.000142253
0.000192743
0.000794608
0.000938055
0.000163609
0.000176564
0.000159359
0.000141086
0.000140714
0.000187085
0.000142429
0.000136174
0.000153093
0.000187132
0.000174457
0.00626013
0.0061104
0.00209472
0.0219101
0.000134305
0.000170443
0.000163653
0.00146143
0.00511189
0.000142516
0.00021872
0.000532874
0.000180548
0.000187305
0.000128038
0.000153302
0.00295681
0.000142398
0.000589029
0.000136122
0.000160381
0.000141782
0.000146981
0.000210532
0.000700103
0.00892805
0.000147268
0.0173871
0.000128114
0.000156571
0.000195086
0.000156545
0.00015478
0.000185071
0.000187414
0.00197018
0.000152301
0.000149478
0.000195488
0.000141751
0.000142336
0.00414729
0.000144529
0.0418458
0.000146968
0.0345367
0.00338058
0.00314331
0.000141775
0.000248965
0.0375218
0.000168097
0.0085983
0.000206574
0.00217564
0.000220203
0.000155569
0.000166291
0.000187923
0.000149128
0.00014589
0.0222843
0.000173185
0.000139058
0.000142191
0.000221294
0.00651633
0.000189346
0.000146058
0.000174114
0.000153362
0.0100318
0.000147653
0.000174148
0.000219988
0.000140437
0.000133759
0.000149379
0.0074926
0.0334484
0.000177288
0.0217047
0.000139099
0.000148722
0.033197
0.000141388
0.000171517
0.000141567
0.000133842
0.000250815
0.000239785
0.000142326
0.000149056
0.000139168
0.00018758
0.00014302
0.000160412
0.000177597
0.000176178
0.000187939
0.0229391
0.000194156
0.00603883
0.000579429
0.000143558
0.0337996
0.000149496
0.000180402
0.00014675
0.000146936
0.000143525
0.0244344
0.000144836
0.000141682
0.000135322
0.00143619
0.000158406
0.000150938
0.000218969
0.000222138
0.00022046
0.044007
0.0195044
0.000168383
0.000196393
0.000159757
0.0439846
0.000146223
0.000181061
0.00155128
0.000213829
0.0152298
0.000178413
0.000150779
0.022223
0.00017367
0.000135308
0.0222053
0.000190155
0.000235221
0.000358626
0.000193115
0.000135325
0.00015154
0.000173454
0.000143147
0.000206658
0.000208606
0.00013434
0.000152128
0.000137776
0.000213454
0.000251511
0.000150752
0.00662157
0.0405584
0.000155773
0.000159633
0.00014351
0.0218982
0.00883607
0.00674952
0.000239125
0.000183613
0.00374693
0.000141691
0.000212036
0.000151823
0.0416321
0.0363283
0.000137582
0.000172803
0.0181225
0.000231586
0.000149363
0.0412185
0.000163627
0.0256001
0.000180354
0.000151315
0.000382452
0.0454519
0.000189804
0.000142444
0.00017242
0.000159669
0.000174865
0.000155977
0.00768063
0.000142454
0.000143442
0.000156177
0.000267739
0.0389445
0.00020434
0.000155146
0.046919
0.00016841
0.0294154
0.000142203
0.000221805
0.000187745
0.000196838
0.0182929
0.000161371
0.00283341
0.000157411
0.000135032
0.000148909
0.000146076
0.000146501
0.000193376
0.000220291
0.000269646
0.000149251
0.000176581
0.000154009
0.000156486
0.000235468
0.000134787
0.000149743
0.0024539
0.000262234
0.000156952
0.000140093
0.000153562
0.000149371
0.000163914
0.000148068
0.00322734
0.0004328
0.000154852
0.00019034
0.000180487
0.02245
0.0285499
0.000184957
0.000142002
0.000329458
0.000145686
0.00180549
0.000149119
0.000339094
0.00017509
0.0398102
0.000135713
0.000145438
0.000212031
0.000157496
0.000135503
0.000160011
0.000198085
0.0001416
0.00019936
0.000143587
0.00583709
0.000141232
0.000158355
0.000194169
0.000163728
0.00015965
0.000330712
0.000184742
0.000167528
0.000184613
0.000153143
0.0411811
0.0232426
0.000210192
0.000169368
0.0320968
0.000139218
0.000153835
0.00015601
0.00671803
0.000188679
0.000155766
0.000154658
0.000230675
0.0281158
0.0020308
0.0211326
0.000161695
0.000184032
0.038767
0.000149776
0.000492618
0.0209989
0.000273139
0.000134597
0.000181821
0.000144789
0.000223887
0.00012855
0.000189296
0.035538
0.000153885
0.000145891
0.000361826
0.0416702
0.000167462
0.000167036
0.000134335
0.000155484
0.000161936
0.000181811
0.000172051
0.00904306
0.000178033
0.000149924
0.000153789
0.000181092
0.00228836
0.00251972
0.000140242
0.0007042
0.0287925
0.000156942
0.000150493
0.000139206
0.000148833
0.0380941
0.000139148
0.000159794
0.000158234
0.00146834
0.0221427
0.000148067
0.000145527
0.000158852
0.00462694
0.000127722
0.000158697
0.000188178
0.000195688
0.000140264
0.0290968
0.000158106
0.00184051
0.000152596
0.000147465
0.000160361
0.000160017
0.0452797
0.000161444
0.0244676
0.000222644
0.000168452
0.000224563
0.00267568
0.000171047
0.000158602
0.000167157
0.000138416
0.000161286
0.00018526
0.000159959
0.000189822
0.000238283
0.00438123
0.000138496
0.0226766
0.000757046
0.00354336
0.000296052
0.000204944
0.000157937
0.00956929
0.000368174
0.000134024
0.000142326
0.000142466
0.000143648
0.0094986
0.000138554
0.000148311
0.0379962
5.8042e-05
0.0392279
0.000143128
0.000163134
0.000149742
0.000150724
0.000181405
0.000144228
0.000226001
0.000155642
0.000180422
0.000138321
0.000138297
0.000216525
0.000155989
4.85845e-05
0.000150432
0.000128605
0.000368982
0.000139466
0.000141086
0.0437101
0.000197682
0.000188087
0.00020083
0.000149353
0.000141053
0.000149468
0.000149406
0.000314957
0.00019099
0.000234533
0.000151519
0.000174909
0.000209277
0.000148451
0.000159817
0.0400677
0.000163034
0.000148264
0.000162005
0.000140274
0.000134152
0.00926368
0.000180784
0.000142352
0.000145654
0.00016959
0.000185646
0.000159432
0.0241533
0.000150274
0.000154407
0.000176636
0.000145601
0.00015056
0.000147421
0.000172635
0.000188058
0.000148519
0.000214766
0.000153052
0.0159155
0.000150954
0.000141058
9.61667e-05
0.00014234
0.000145601
0.000137982
0.000145894
0.000143104
0.0384594
0.000149421
0.000618911
0.000139729
0.000159929
0.000139378
0.000139292
0.000139377
0.000142263
0.000161476
0.00347744
0.00022683
0.000197382
0.000139388
0.000450477
0.000167945
0.000170369
0.00014891
0.00013957
0.000134548
0.000157632
0.000145421
0.00023906
0.000129751
0.000148711
0.000157136
0.0250741
0.000142805
0.000167634
0.000136309
0.000128404
0.00019771
0.00329854
0.0136924
0.000142829
0.00013929
0.000185341
0.000140214
0.0480523
0.000290138
0.000174585
0.0295425
0.000128265
0.00203469
0.000149054
0.00017621
0.000174814
0.0208553
0.000137994
0.00016776
0.0317295
0.00014283
0.000152685
0.000155723
0.00819348
0.00019727
0.000173684
0.000145789
0.00013994
0.00223759
0.000214238
0.000261398
0.000164426
0.000224859
0.000139121
0.000150639
0.000139573
0.000361213
0.000134265
0.000131773
0.000146654
0.000162954
0.000180719
0.000136377
0.000161679
0.000134066
0.000140762
0.000217941
0.000158454
0.0001705
0.000147626
0.000190238
0.000203842
0.000139967
0.0068866
0.000149155
0.000196887
0.000134598
0.0409901
0.000207033
0.000149391
0.000128369
0.000163325
0.00013117
0.0002447
0.00345446
0.000145999
0.00015022
0.0177593
0.000222356
0.000146097
0.0236542
0.0220761
0.000293069
0.000142245
0.000233516
0.0208406
0.0402146
0.000146867
0.0108104
0.000129211
0.000142929
0.000142716
0.000141217
0.000156
0.000138318
0.00016007
0.000202761
0.00212207
0.00381328
0.000260675
0.000149559
0.000179851
0.000180823
0.000138128
0.000139616
0.0288963
0.000252722
0.000144814
0.00393401
0.00014873
0.0156819
0.000366744
0.000138446
0.00748031
0.000131594
0.000156301
0.0148536
0.000183774
0.000140092
0.000148105
0.000137625
0.000154221
0.000147439
0.000141157
0.0358769
0.0203906
0.000160214
0.000190635
0.000148757
0.000147407
0.0209466
0.0282153
0.00014949
0.000188498
0.000179213
0.00241887
0.0004393
0.000140822
0.000141971
0.0268749
0.000184414
0.000145473
0.000172302
0.00426991
0.0240546
0.000185517
0.000156954
0.000146783
0.00366719
0.000141027
0.000160125
0.000167187
0.000171108
0.0252744
0.000140872
0.000142668
0.000139863
0.000146611
0.000187869
0.00014151
0.000140663
0.0395823
0.0185469
0.000195187
0.000188523
0.000149566
0.000150239
0.00797124
0.0275823
0.000154307
0.000165013
0.000151118
0.0411714
0.000189423
0.00018067
0.00016878
0.000168535
0.000140639
0.000145878
0.000141929
0.000144855
0.000142243
0.000181998
0.000160375
0.000158257
0.0276104
0.000223419
0.000169338
0.0341678
0.000145296
0.00442944
0.000192355
0.000148783
0.00015267
0.00638499
0.000219845
0.000134484
0.000184875
0.00014431
0.00014003
0.000182375
0.000140252
0.00247683
0.000150678
0.000152223
0.00014856
0.000169846
0.000150474
0.000142405
0.000138233
0.0001407
0.000150787
0.000185535
0.00142641
0.000138997
0.0298588
0.000174338
0.0176097
0.000151974
0.000160366
0.00511674
0.000138347
0.000138893
0.0362172
0.000138162
0.000169801
0.00014912
0.00441175
0.000212076
0.0342673
0.0219938
0.00015055
0.000156172
0.0074413
0.000142336
0.000179115
0.000151152
0.000144883
0.000189097
0.035549
0.00748852
0.000229687
0.000185912
0.00014348
0.022882
0.0380842
0.000187997
0.000175417
0.0228257
0.0248657
0.000210578
0.000292609
0.00344694
0.000153121
0.000258542
0.000188383
0.000155866
0.000148641
0.000166368
0.000486733
0.000150247
0.00566471
0.000335265
0.00014956
0.000136788
0.0025094
0.00336155
0.000140119
0.000157401
0.000151126
0.000253139
0.0272476
0.000352008
0.00015006
0.000140223
0.000149504
0.000167184
0.000196793
0.00015965
0.000154846
0.00246816
0.000145593
0.000156028
0.00882858
0.000141455
0.000152538
0.00016778
0.000137146
0.000191868
0.0240931
0.000168949
0.0140849
0.0014267
0.000180268
0.000147212
0.000163328
0.000181295
0.000145176
0.0213316
0.0409589
0.00018853
0.000140516
0.000205438
0.000853315
0.000179309
0.000188621
0.000128984
0.00269066
0.000148357
0.0327988
0.0234783
0.000148613
0.00014737
0.000138293
0.000164122
0.000152268
0.000152489
0.000142314
0.000136954
0.000230723
0.000136782
0.000163249
0.000206482
0.000199795
0.0293249
0.00014896
0.000277524
0.000163903
0.000154005
0.000209567
0.000141496
0.000160245
0.000150407
0.000138258
0.000142299
0.0290623
0.000330363
0.000141774
0.000149844
0.000737249
0.000132848
0.00164185
0.000157309
0.000135206
0.000159248
0.000216041
0.0232229
0.000138354
0.00281884
0.000154484
0.000139964
0.000138104
0.00753626
0.000138172
0.000148712
0.000152939
0.00015788
0.0002154
0.0222805
0.000168301
0.00014116
0.000185611
0.000146613
0.034679
0.000216585
0.000141734
0.000138339
0.00306907
0.0207197
0.0369489
0.00019651
6.03625e-05
0.000190621
0.000161987
0.000141269
0.000138373
0.00342476
0.000162813
0.000162125
0.00022017
0.000188332
0.000145517
0.000166076
0.000145262
0.000199076
0.000138266
0.000134644
0.000137477
0.000177698
0.000146986
0.000146909
0.00020548
0.000182411
0.00015385
0.0194633
0.000147845
0.00111788
0.000171232
0.00014175
0.000162655
0.0433183
0.000212013
0.00014991
0.000151355
0.000188206
0.000150518
0.000148752
0.00368439
0.000198744
0.000137633
0.000138559
0.00341988
0.0494088
0.00013784
0.000154116
0.000182726
0.000150274
0.000134654
0.000221264
0.000820191
0.000146349
0.000205282
0.0265439
0.000199428
0.00012918
0.000195745
0.000155275
0.000139671
0.000164984
0.00428767
0.000159484
0.0271392
0.000141998
0.000137901
0.0318388
0.00014216
0.000144481
0.000164051
0.000199418
0.000215797
0.000155442
0.000145167
0.000136036
0.000138306
0.000204594
0.0433675
0.000178261
0.000163487
0.000169519
0.00014462
0.000180596
0.00213849
0.000180574
0.000128687
0.000225436
0.000397023
0.00385181
0.000151853
0.000188175
0.0402496
0.000138748
0.000129628
0.000562188
0.0001411
0.0249681
0.000145424
0.00575766
0.000159102
0.000188459
0.000158239
0.00018984
0.000139901
0.000139615
0.000172874
0.000138376
0.00341954
0.000152121
0.000130809
0.000142702
0.0261856
0.000108158
0.0257021
0.000138814
0.00988241
0.000137073
0.000212605
0.000196549
0.000198097
0.0176565
0.000254549
0.000148123
0.000162783
0.0186167
0.000138994
0.000161878
0.000150249
0.000145448
0.000141876
0.00342135
0.000441974
0.000177862
0.000139903
0.000146947
0.000179528
0.000307304
0.000143608
0.00015171
0.000138509
0.000160394
0.000144497
0.000175345
0.0225574
0.000129789
0.000153566
0.000211104
0.000138244
0.000150173
0.00974724
0.0365991
0.000152777
0.000136996
0.00529649
0.000163452
0.000158161
0.000146625
0.0177894
0.000161187
0.0260795
0.000171117
0.0290076
0.00455758
0.000235271
0.000158093
0.000296669
0.000213526
0.000141322
0.000141197
0.000203122
0.000138183
0.000182336
0.00591469
0.000154671
0.0142456
0.000141235
0.00218282
0.00028301
0.0114803
0.0131177
0.000151054
0.000147394
0.000151091
0.000192985
0.000142465
0.000149053
0.0104384
0.00144547
0.0239291
0.000176429
0.000184724
0.000157585
0.000133969
0.00921244
0.00014642
0.000189484
0.000146074
0.000137175
0.0313926
0.000141404
0.000160838
0.00140461
0.000141918
0.000152693
0.000152827
0.000794625
0.0102487
0.000146293
0.000165064
0.04085
0.000145597
0.0193211
0.000155208
0.000139838
0.000218236
0.000151428
0.000173754
0.000144944
0.000146299
0.000141859
0.00018347
0.00021593
0.000185257
0.000141555
0.00587056
0.000137199
0.000134077
0.000779017
0.000149022
0.000262967
0.000144805
0.000140999
0.000143914
0.00022056
0.000138344
0.00291369
0.0284231
0.000139783
0.000145147
0.000152985
0.000170794
0.000202913
0.000179048
0.000151686
0.000151367
0.000139984
0.00014744
0.00017416
0.000145332
0.000615615
0.00566045
0.000149147
0.000173762
0.000147268
0.000149969
0.00015074
0.000150004
0.000149191
0.000149249
0.000145711
0.000133166
0.00319854
0.000145196
0.000216817
0.000141653
0.000151052
0.000210597
0.00017494
0.00172358
0.00807874
0.000168758
0.000144844
0.00014557
0.000158374
0.000153374
0.0233674
0.00476182
0.000358209
0.000164134
0.000146035
0.000151811
0.000146709
0.00851082
0.0240566
0.000212052
0.0334778
0.0421369
0.000150482
6.44665e-05
0.00014346
0.000171345
0.000208393
0.000142567
0.000165015
0.000145999
0.000199151
0.00378177
0.000144582
0.000146575
0.000158577
0.000206097
0.000163571
0.000143549
0.000177516
0.000146467
0.000155534
0.000147441
0.000179303
0.000148311
0.000199054
0.000146762
0.000178482
0.0295752
0.0361231
0.00027379
0.000680101
0.000151895
0.0150568
0.016967
0.0287473
0.000149146
0.000224844
0.000139678
0.000353432
0.00935077
0.000157681
0.00167356
0.000177817
0.000149633
0.00019607
0.000149683
0.000159052
0.00373033
0.000168568
0.000137448
0.0235801
0.000180276
0.00015284
0.000218165
0.0448294
0.000219761
0.00015429
0.000145663
0.000154547
0.000147068
0.000229313
0.0086139
0.000147743
0.000145433
0.0239952
0.0230645
0.000137036
0.000143283
0.000196167
0.00226219
0.000158716
0.000137599
0.000143017
0.000178608
0.000139596
0.000154811
0.000129524
0.000191857
0.0194845
0.0237955
0.000194969
0.000141826
0.00014083
0.000143589
0.000134283
0.000217637
0.000160519
0.000146356
0.000212356
0.00018021
0.000153095
0.000156421
0.000155112
0.000149879
0.000168709
0.0337963
0.0239793
0.0283946
0.0309503
0.00018492
0.000161845
0.000154056
0.000151212
0.000164906
0.000219521
0.000185797
0.000141051
0.000153952
0.000141345
0.000150222
0.000140801
0.000147993
0.000142648
0.00859321
0.000171941
0.000155912
0.000173562
0.000150345
0.000139962
0.000145076
0.000206908
0.000174415
0.000143379
0.000299523
0.000171762
0.00532092
0.000149749
0.00014781
0.000180612
0.00251176
0.000141004
0.000197618
0.000145156
0.0313597
0.000231966
0.000180776
0.00803717
0.00726878
0.000142026
0.000136025
0.000160565
0.000169284
0.000150039
0.0221441
0.000163858
0.000136059
0.000144706
0.00264676
0.000168701
0.0196501
0.000149717
0.000199276
0.000173016
0.022542
0.0283944
0.000144856
0.000164823
0.000154176
0.000153255
0.000186867
0.000172636
0.00531242
0.000397298
0.000137442
0.000252804
0.000159505
0.000160673
0.000151271
0.000143118
0.000176791
0.00013639
0.000146696
0.000170085
0.000154188
0.000147163
0.0088236
0.000209214
0.000249937
0.000164138
0.000150265
0.000150466
0.000137411
0.000168206
0.000156764
0.0344104
0.000265569
0.000137247
0.000130331
0.014657
0.00675345
0.00328881
0.00016429
0.000717723
0.00018884
0.00744667
0.000144945
0.000192826
0.000194867
0.000147169
0.000163536
0.000267913
0.000198113
0.000145289
0.000213507
0.000158282
0.000140302
0.00123467
0.0411447
0.0196951
0.000601742
0.00185688
0.000172353
0.000134125
0.000147067
0.000134267
0.000203373
0.000140355
0.000161515
0.000205862
0.000289971
0.00377057
0.000216153
0.0248324
0.0493898
0.000185881
0.000163934
0.000166474
0.0237898
0.000173803
0.000158574
0.000173672
0.000183892
0.000161203
0.000190656
0.000152468
0.00891067
0.000180203
0.000444122
0.000150024
0.0240712
0.0224393
0.000123019
0.000151871
0.000175299
0.0406136
0.0225425
5.93157e-05
0.0105712
0.000137762
0.0202913
0.000387763
0.000170366
0.000147002
0.017328
0.000168636
0.000167277
0.000168704
0.00750571
0.000171704
0.000133034
0.000132777
0.000189553
0.000170646
0.000190327
0.000289393
0.000172322
0.000207917
0.000154466
0.000135662
0.000137036
0.000849588
0.000145582
0.000145441
0.023794
0.000214982
0.000107028
0.000146475
0.000248755
0.0221063
0.000212428
0.00700392
0.000149915
0.000142412
0.0091133
0.000142044
0.000144685
0.000189709
0.00034123
0.0363464
0.000175163
0.000137106
0.0372295
0.00015532
0.000148389
0.000145167
0.000159088
0.000132269
0.000141096
0.000156266
0.00018022
0.00014854
0.000197403
0.000137628
0.000134732
0.000172827
0.000164934
0.00018567
0.000160876
0.000149637
0.000150492
0.000138556
0.0395942
0.000156329
0.000137967
0.000141346
0.0230649
0.000151211
0.0391246
0.000169964
0.000147793
0.0104407
0.000146727
0.000152227
0.000147111
0.000144968
0.000148372
0.000163014
0.000160308
0.000142541
0.000190902
0.000154239
0.000170911
0.000169353
0.000143398
0.00021065
0.000189694
0.000161114
0.000138791
0.0359794
0.000160008
0.000164785
0.000145216
0.000138159
0.000256583
0.00437542
0.000249088
0.000801738
0.000179388
0.000156453
0.000143249
0.000147782
0.000186765
0.000138514
0.00013867
0.00013556
0.000163648
0.000138722
0.000163797
0.00672906
0.000166905
0.000138268
0.000276723
0.000163922
0.000138688
0.000141301
0.00017017
0.00014063
0.0286487
0.000146643
0.000139543
0.000154238
0.000191498
0.000157631
0.000152729
0.000155429
0.000206098
0.000150221
0.000155307
0.000197017
0.00588418
0.00015884
0.00013816
0.000155934
0.000148483
0.000144589
0.000150393
0.000174542
0.000163554
0.000149164
0.000141921
0.000165961
0.0243028
0.0228543
0.000140928
0.000200573
0.000219936
0.00014122
0.000135445
0.00014492
0.000202208
0.000340715
0.000143926
0.000141332
0.000153649
0.0236564
0.000194646
0.000157494
0.000150904
0.0106133
0.000173561
0.000157089
0.000212658
0.00018423
0.0108822
0.000146862
0.0313873
0.000147409
0.000138391
0.000135383
0.000195189
0.000299423
0.000148837
0.00015259
0.000158447
0.000183945
0.000149805
0.00777665
0.00279878
0.000170208
0.000139432
0.000168268
0.000141018
0.00146602
0.000189344
0.0408975
0.000153502
0.000156598
0.00015585
0.00741597
0.000165513
0.000138603
0.00193182
0.000138126
0.000142003
0.00427578
0.000136445
0.00014318
0.00016426
0.00232778
0.003828
0.000327021
0.000174924
0.000251759
0.000184344
0.00620398
0.000196239
0.000143393
0.000133447
0.0420324
0.000204946
0.0189039
0.000146975
0.000174046
0.000168248
0.000140437
0.000197642
0.00402594
0.000163586
0.000186213
0.00405218
0.00014799
0.000150909
0.00014786
0.000191092
0.000141553
0.0264968
0.000160332
0.000147143
0.00354827
0.0298217
0.000210636
0.000164203
0.000149137
0.000160826
0.000151214
0.00432165
0.000142369
0.000174845
0.000287561
0.000217286
0.00013966
0.000216457
0.000163662
0.000205503
0.000188393
0.000152856
0.0010416
0.000189642
0.000137387
0.000172498
0.00017333
0.000127753
0.000176372
0.000148078
0.00196929
0.000227376
0.000183193
0.0105351
0.000162278
0.000157395
0.0102173
0.000139042
0.00726337
0.000186647
0.000752036
0.000141506
0.00013646
0.000137487
0.000145762
0.000148091
0.000144013
0.000139721
0.000187643
0.000191145
0.000148816
0.000191215
0.000146041
0.00013724
0.000205916
0.000233833
0.000174957
0.00117412
0.000131161
0.000138859
0.000150102
0.000213535
0.0426615
0.000141801
0.000155517
0.000140612
0.0235994
0.000140457
0.000168973
0.000188165
0.000191592
0.000140338
0.000157685
0.000137618
0.000408039
0.000200149
0.000204925
0.000264173
0.00137885
0.000147482
0.00508549
0.000145046
0.000278187
0.00015458
0.00876922
0.00231904
0.000248161
0.000142389
0.000137943
0.00328216
0.00015297
0.000203176
0.000130512
0.00306055
0.00349427
0.000138865
0.000178487
0.000145743
0.00039998
0.00132341
0.000153222
0.000190325
0.000156138
0.0279257
0.000160341
0.000211862
0.000208948
0.000193284
0.000188211
0.0001498
0.000168051
0.000149855
0.000140821
0.000148357
0.000158785
0.00017516
0.000215165
0.000150557
0.000193947
0.00013812
0.000151735
0.000149058
0.000162492
0.000140968
0.000149656
0.000144844
0.0289354
0.000184609
0.000305465
0.000137053
0.00151818
0.000138296
0.000132404
0.000141467
0.000172928
0.000188798
0.00165969
0.000138314
0.000141869
0.000158153
0.000143959
0.000159791
0.000139749
0.000188821
0.000493049
0.000172558
0.000150548
0.00328189
0.000208679
0.000211406
0.00933893
0.000195002
0.000139556
0.000128491
0.000219339
0.000140711
0.00106139
0.000163089
0.00397139
0.000149474
0.00275098
0.00933959
0.000147576
0.000170529
0.0142638
0.000148125
0.00399075
0.000193063
0.000155006
0.000345951
0.00013884
0.0001426
0.00013406
0.000296558
0.000185017
0.000145503
0.000147506
0.000311583
0.0161163
0.000147749
0.000209641
0.0423286
0.0174922
0.000630211
0.00014101
0.000168131
0.00402802
0.000158426
0.00031455
0.000184683
0.00015682
0.000297706
0.000188938
0.0336679
0.000144719
0.000219301
0.000139042
0.00281847
0.00014813
0.000138201
0.000203394
0.000166537
0.000168103
0.000138264
0.00354712
0.00017481
0.0272118
0.000140068
0.000149075
0.000198598
0.000204344
0.041207
0.0371528
0.0010285
0.0207657
0.000153452
0.000162031
0.000137861
0.000179592
0.000304907
0.000149687
0.0084642
0.000140045
0.0001472
0.00195781
0.000135036
0.000185455
0.00013593
0.000137995
0.000179978
0.00718728
0.000162133
0.000202348
0.000398958
0.014868
0.000149263
0.000154289
0.000166918
0.000137312
0.000141752
0.000162402
0.00013282
0.000135665
0.000170156
0.000135159
0.000137885
0.000161987
0.000139272
0.000206602
0.0405586
0.000146272
0.000140899
0.000249478
0.000141728
0.000148285
0.000262383
0.00348078
0.000150601
0.000139592
0.000141718
0.000193418
0.000156578
0.000163484
0.00014937
0.000247658
0.000187265
0.0230079
0.0313499
0.000137898
0.000210966
0.000135309
0.000141966
0.0232633
0.000139381
0.000154878
0.0125084
0.00158357
0.000198532
0.000140976
0.000140658
0.000515846
0.00515384
0.000202456
0.00334184
0.000148346
0.000177113
0.000143646
0.000167626
0.000216479
0.000160241
0.000152247
0.00014361
0.0001525
0.000142444
0.000169938
0.000144205
0.00261682
0.0287492
0.000137842
0.000151324
0.00014886
0.000141011
0.000168364
0.0354822
0.000147741
0.000190143
0.000137596
0.000146194
0.000149021
0.00014086
0.000149297
0.000151448
0.000140201
0.000147422
0.0211626
0.00661394
0.000150278
0.00020602
0.000142112
0.00015024
0.000157242
0.000134727
0.00189351
0.000175533
0.000138364
0.000140654
0.000150105
0.000280952
0.000181595
0.000158492
0.00014998
0.000146132
0.000169423
0.000143804
0.000171514
0.000158975
0.00270197
0.000154347
0.000144474
0.000179268
0.00748029
0.000152126
0.000134058
0.000155335
0.0305569
0.00514405
0.000128578
0.000146432
0.000162356
0.000154806
0.000133904
0.0274722
0.0092013
0.000184626
0.000147619
0.0040022
0.000183181
0.000137906
0.000134822
0.000200226
0.00024654
0.00015043
0.000149612
0.000136976
0.000143187
0.0233826
0.000140341
0.000159947
0.0404359
0.000137939
0.000162786
0.000220917
0.0244194
0.000180071
0.000236204
0.00013869
0.000148961
0.000148226
0.000154821
0.000135597
0.000144974
0.0310659
0.000140728
0.00017072
0.000136146
0.000207972
0.00308361
0.000219052
0.016768
0.0460602
0.000171861
0.000135894
0.000135677
0.000153721
0.0108501
0.000145472
0.000139052
0.000132817
0.000162305
0.0338984
0.00018241
0.00017895
0.000140792
0.000154385
0.000168908
0.000138032
0.00014208
0.000170445
0.000200893
0.000162574
0.000180394
0.0150107
0.000245835
0.000145126
0.000195551
0.0341527
0.00430894
0.00757307
0.0001989
0.000197912
0.000155612
0.000202259
0.023094
0.00028301
0.0155736
0.000204258
0.000141727
0.000204612
0.000157
0.000143598
0.000208093
0.00021248
0.000166384
0.000160086
0.000167933
0.000163035
0.000187006
0.000208164
0.000148959
0.00973373
0.021353
0.000231647
0.000267813
0.0311059
0.000244587
0.00014406
0.00292635
0.000148894
0.00334959
0.000137057
0.000174651
0.000147328
0.000139006
0.000204526
0.000223572
0.000387963
0.00295839
0.00325731
0.000142308
0.000186879
0.00013797
0.00896388
0.00553283
0.000144264
0.000146322
0.000209258
0.000134615
0.000188782
0.000145054
0.00317655
0.000140693