/*--------------------------------*- C++ -*----------------------------------*\
| =========                 |                                                 |
| \\      /  F ield         | OpenFOAM: The Open Source CFD Toolbox           |
|  \\    /   O peration     | Version:  v2012                                 |
|   \\  /    A nd           | Website:  www.openfoam.com                      |
|    \\/     M anipulation  |                                                 |
\*---------------------------------------------------------------------------*/
FoamFile
{
    version     2.0;
    format      ascii;
    class       volScalarField;
    location    "100";
    object      k_0;
}
// * * * * * * * * * * * * * * * * * * * * * * * * * * * * * * * * * * * * * //

dimensions      [0 2 -2 0 0 0 0];


internalField   nonuniform List<scalar> 
27802
(
0.000185314
0.000141095
0.000150407
0.000152135
0.0160571
0.000145854
0.000151875
0.000147822
0.00018275
0.00014948
0.000138542
0.0362409
0.03757
0.000182197
0.000141342
0.000151825
0.000127711
0.0325523
0.000949323
0.000183914
0.000140056
0.000145602
0.000186399
0.000195107
0.00013553
0.000148114
0.000144538
0.000149391
0.000135495
0.00843314
0.000144549
0.000157325
0.0118081
0.000246669
0.014944
0.000141933
0.000233366
0.00273608
0.000144499
0.000144109
0.000146916
0.000144143
0.0214875
0.000247518
0.000139724
0.000141199
0.000217693
0.000145749
0.000136806
0.000190651
0.000156181
0.000139762
0.0076867
0.000139623
0.000143064
0.000145656
0.0169168
0.00018102
0.000145352
0.0228309
0.000141921
0.000145268
0.00337655
0.000156752
0.0314527
0.000191465
0.026754
0.000150445
0.021086
0.000154315
0.00013966
0.000201124
0.0216155
0.000201021
0.00659805
0.000156166
0.00343506
0.0249309
0.000188313
0.000151414
0.0215655
0.000274134
0.000137066
0.000180901
0.000144508
0.000153067
0.000135354
0.000142942
0.00020139
0.000240206
0.0258282
0.000145047
0.00032254
0.000151324
0.000138408
0.000145661
0.000159422
0.0170876
0.000146879
0.000216194
0.000252949
0.000147236
0.000152552
0.00015473
0.000235552
0.00014502
0.000411212
0.000183273
0.000142201
0.000168536
0.000153896
0.000141255
0.000147284
0.000347785
0.00013543
0.000203226
0.000159191
0.000139157
0.000156464
0.000182721
0.0404058
0.0277601
0.000167477
0.000135476
0.000143525
0.000185185
0.000232037
0.00293428
0.0384563
0.0395468
0.000152584
0.000167152
0.000146972
0.000149017
0.000137087
0.000149509
0.000148791
0.000138076
0.000189374
0.000187093
0.000149941
0.000144864
0.000186974
0.000135091
0.000135395
0.000151242
0.000148699
0.000150258
0.000140014
0.000146525
0.000138905
0.000145621
0.000153077
0.000150723
0.000181219
0.000143166
0.000240964
0.000205328
0.000168377
0.000205355
0.000230964
0.000201656
0.000153003
0.000156379
0.00012788
0.000134586
0.000139343
0.000145979
0.000143872
0.00018533
0.000154014
0.000158997
0.000143663
0.0116219
0.000144686
0.0272689
0.000134418
0.000160055
0.000139489
0.000236057
0.000194879
0.000167797
0.000163419
0.000151023
0.000143624
0.000181225
0.000143119
0.000148009
0.000217285
0.000184453
0.000140013
0.000154441
0.00018528
0.000150901
0.000133394
0.000144242
0.000133384
0.000138999
0.000142086
0.000144882
0.0441839
0.0212455
0.0035234
0.000157058
0.000142231
0.000167246
0.00015277
0.000238164
0.000132438
0.0245519
0.000142129
0.00109224
0.0249679
0.000159883
0.000218895
0.000141623
0.00299448
0.000151266
0.000145956
0.000143321
0.0389555
0.000128376
0.000180702
0.000210924
0.000143572
0.000137788
0.000137342
0.000154349
0.000141248
0.000147315
0.000128289
0.0196384
0.000145678
0.000164241
0.000570116
0.00018826
0.00014583
0.00024241
0.0130867
0.000148128
0.000145712
0.00233028
0.0030722
0.000145295
0.000157975
0.00984617
0.000138733
0.00227825
0.000150671
0.000149924
0.000300436
0.000164796
0.000184388
0.000146004
0.000158242
0.000133604
0.000144087
0.000312222
0.000157055
0.000133384
0.000164885
0.000146438
0.0336873
0.000132231
0.0408173
0.000159955
0.0454169
0.000147395
0.000128361
0.000144715
0.000205878
0.000140393
0.000186151
0.000315789
0.000150791
0.000217383
0.000149572
0.000168425
0.000159737
0.000143828
0.000230379
0.000164353
0.000151945
0.000233798
0.000232263
0.024343
0.000280375
0.000147183
0.000157012
0.000144249
0.000129144
0.000225374
0.000134068
0.0237223
0.000134011
0.000197727
0.000204375
0.000144721
0.0274328
0.00150712
0.000191561
0.000150713
0.000162229
0.000204358
0.00194822
0.000189867
0.000146224
0.0389101
0.000163568
0.000149767
0.000163077
0.000180561
0.000187381
0.000149159
0.000174067
0.000142103
0.000163422
0.000184702
0.000168221
0.000182994
0.000146524
0.000142269
0.000129007
0.000139683
0.0022696
0.000146371
0.0343698
0.000146363
0.000142292
0.000163123
0.000148719
0.00399104
0.00737457
0.000222417
0.000209721
0.0114391
0.00018761
0.000141915
0.000185043
0.000140237
0.000127943
0.0325918
0.0348023
0.000195119
0.000203642
0.00205084
0.000218399
0.000692392
0.000150639
0.000247978
0.000135707
0.0225649
0.000143675
0.000149352
0.000147747
0.000149065
0.00185854
0.000245581
0.000141869
0.000139966
0.000104942
0.00904907
0.000140333
0.000168946
0.000133208
0.000147128
0.000664963
0.000146976
0.00016417
0.000142532
0.000141679
0.000219512
0.000172324
0.000197047
0.00435708
0.0445949
0.000172867
0.000153471
0.000163151
0.000141233
0.000147908
0.000133286
0.000147435
0.000140514
0.000141075
0.000145594
0.000222002
0.000154895
0.000139735
0.000163962
0.000142265
0.000145607
0.00016267
0.000168477
0.000141818
0.00590309
0.00470698
0.000184727
0.000146367
0.000185671
0.0327512
0.00016873
0.000141973
0.00018456
0.000143954
0.000837321
0.000167126
0.000221658
0.0248184
0.00016778
0.0237342
0.000151573
0.0396793
0.0365168
0.00935721
0.000145952
0.000139993
0.000163645
0.000135052
0.000943656
0.0214029
0.000150205
0.000156477
0.000148093
0.0031293
0.000150279
0.000154489
0.0390989
0.000145386
0.000155885
0.000140162
0.000166248
0.00844857
0.00014166
0.000149527
0.000142253
0.000192748
0.000820912
0.000964783
0.000163611
0.000176558
0.000159377
0.000141086
0.000140714
0.000187057
0.000142429
0.000136174
0.000153086
0.000187134
0.000174471
0.00639915
0.00608499
0.00208493
0.0219003
0.000134305
0.000170441
0.000163654
0.00145033
0.00515432
0.000142516
0.000218522
0.000533632
0.000180563
0.000187322
0.000128038
0.000153303
0.00294968
0.000142398
0.00058552
0.000136122
0.000160383
0.000141782
0.000146981
0.000210527
0.000694607
0.00893397
0.000147269
0.0173824
0.000128114
0.000156571
0.000195106
0.000156546
0.000154777
0.000185036
0.000187416
0.00199306
0.000152304
0.000149478
0.000195508
0.000141751
0.000142336
0.00416583
0.000144528
0.0418111
0.000146967
0.034491
0.00340744
0.00316688
0.000141775
0.000249354
0.0375046
0.000168097
0.0086425
0.000206562
0.0022051
0.000220247
0.000155569
0.000166295
0.000187924
0.000149128
0.00014589
0.0223353
0.000173196
0.000139058
0.000142191
0.000221312
0.0065461
0.00018934
0.000146059
0.000174128
0.000153362
0.0100553
0.000147653
0.000174126
0.000219984
0.000140437
0.000133759
0.000149379
0.00754323
0.0334013
0.000177306
0.0217156
0.000139099
0.000148722
0.0331468
0.000141388
0.000171525
0.000141566
0.000133841
0.000251063
0.000239633
0.000142327
0.000149054
0.000139168
0.000187579
0.000143021
0.000160413
0.000176835
0.000176172
0.000187935
0.0229596
0.000194163
0.00610442
0.000586052
0.000143558
0.0337553
0.000149495
0.000180396
0.000146729
0.000146936
0.000143525
0.0244508
0.000144836
0.000141682
0.000135322
0.00143028
0.000158406
0.000150937
0.00021907
0.000222171
0.000220511
0.0439958
0.0195011
0.000168383
0.000196417
0.000159757
0.0439547
0.000146223
0.00018105
0.00154154
0.000213801
0.015192
0.0001784
0.000150779
0.0222188
0.000173672
0.000135308
0.0222035
0.000190168
0.000235262
0.00035568
0.000193118
0.000135325
0.000151542
0.000173457
0.000143147
0.00020679
0.000208593
0.00013434
0.000152129
0.000137776
0.000213468
0.000252219
0.000150752
0.00652099
0.0405498
0.000155774
0.000159633
0.000143511
0.0218619
0.0088123
0.00669626
0.000239352
0.000183639
0.00376252
0.00014169
0.000212006
0.000151825
0.0416001
0.0362895
0.000137582
0.000172774
0.0183107
0.000231635
0.000149363
0.0411834
0.00016363
0.0257213
0.000180347
0.000151317
0.000386577
0.045472
0.000189818
0.000142444
0.000172416
0.000159669
0.000174859
0.000155977
0.00763198
0.000142454
0.000143442
0.000156177
0.000267831
0.038905
0.000204367
0.000155147
0.0468512
0.000168416
0.029394
0.000142202
0.00022213
0.000187742
0.00019683
0.0183182
0.00016137
0.00282108
0.000157411
0.000135032
0.000148912
0.000146076
0.000146501
0.000193395
0.000220338
0.000269462
0.000149252
0.000176598
0.000154008
0.000156486
0.000235435
0.000134787
0.000149743
0.00243749
0.000261986
0.000156953
0.000140094
0.000153561
0.000149371
0.000163907
0.000148072
0.00321479
0.000426191
0.000154848
0.000190322
0.000180508
0.0224725
0.0285297
0.000184924
0.000142002
0.00032906
0.000145687
0.00180391
0.000149117
0.00033927
0.000175085
0.0397897
0.000135713
0.000145438
0.000212044
0.000157496
0.000135503
0.000160007
0.000198068
0.0001416
0.000199398
0.000143587
0.00586537
0.000141232
0.000158355
0.000194176
0.000163731
0.000159669
0.000326014
0.000184765
0.000167529
0.000184615
0.000153154
0.0411446
0.023272
0.00021018
0.000169376
0.0321929
0.000139218
0.000153832
0.000156011
0.00666862
0.000188708
0.000155766
0.000154668
0.000230638
0.0280515
0.00199842
0.0210774
0.000161696
0.000184037
0.0387431
0.000149776
0.000489592
0.0210274
0.000273475
0.000134597
0.000181837
0.000144789
0.000223907
0.00012855
0.000189325
0.0354969
0.000153885
0.000145891
0.000362478
0.0416496
0.000167463
0.000167029
0.000134335
0.000155485
0.000161934
0.000181792
0.000172057
0.00908712
0.000178051
0.000149921
0.000153788
0.000181115
0.00232235
0.00244802
0.000140243
0.000691813
0.0287714
0.000156955
0.000150492
0.000139206
0.000148833
0.038089
0.000139148
0.000159814
0.000158233
0.00148606
0.0221333
0.000148067
0.000145527
0.000158853
0.00452763
0.000127722
0.000158698
0.000188166
0.000195692
0.000140264
0.0291762
0.000158105
0.00183263
0.000152596
0.000147465
0.000160362
0.000160004
0.0452321
0.000161445
0.0244572
0.000222633
0.000168453
0.000224548
0.00262551
0.000171021
0.00015859
0.000167149
0.000138416
0.000161288
0.000185267
0.000159959
0.000189806
0.000238361
0.00440621
0.000138496
0.0225101
0.000758072
0.00352793
0.000294521
0.000204897
0.000157938
0.00960766
0.000366783
0.000134024
0.000142327
0.000142466
0.000143649
0.00937752
0.000138554
0.000148311
0.0379497
5.85797e-05
0.0391867
0.000143128
0.000163134
0.000149742
0.000150726
0.000181428
0.000144227
0.000226025
0.000155643
0.000180417
0.000138322
0.000138298
0.000216521
0.00015599
4.97937e-05
0.000150428
0.000128605
0.000366802
0.000139466
0.000141086
0.0436985
0.000197667
0.000188079
0.000200786
0.000149353
0.000141054
0.000149472
0.000149406
0.000314177
0.000191002
0.00023439
0.000151512
0.000174904
0.000209388
0.000148451
0.000159813
0.0400282
0.000163037
0.000148264
0.000162003
0.000140275
0.000134152
0.00920487
0.000180767
0.000142352
0.000145654
0.000169599
0.000185655
0.000159432
0.0241456
0.000150274
0.000154407
0.000175529
0.000145601
0.000150559
0.000147421
0.00017264
0.000188057
0.000148519
0.000214761
0.000153044
0.0158523
0.000150956
0.000141058
9.5411e-05
0.000142341
0.000145601
0.000137982
0.000145894
0.000143104
0.0384431
0.000149421
0.000612864
0.000139729
0.000159924
0.000139378
0.000139294
0.000139378
0.000142263
0.000161476
0.00341214
0.000226548
0.000197762
0.000139388
0.000450039
0.000167945
0.000170377
0.00014891
0.00013957
0.000134548
0.000157624
0.000145421
0.000239138
0.000129751
0.000148711
0.000157129
0.0250723
0.000142805
0.000167641
0.000136309
0.000128404
0.000197727
0.00328992
0.0137251
0.000142829
0.00013929
0.00018535
0.000140214
0.0480599
0.000290091
0.000174586
0.0296236
0.000128265
0.00202493
0.000149054
0.000176208
0.000174816
0.0208673
0.000137993
0.000167761
0.0318208
0.000142829
0.000152677
0.000155723
0.00820919
0.000197285
0.000173686
0.000145789
0.000139939
0.00223032
0.000214317
0.000255941
0.000164426
0.000224927
0.000139121
0.000150645
0.000139572
0.000364052
0.000134265
0.000131773
0.000146654
0.000162955
0.000180742
0.000136377
0.00016168
0.000134067
0.000140761
0.000217949
0.000158447
0.000170508
0.000147625
0.000190203
0.000203865
0.000139965
0.00686349
0.000149153
0.000197324
0.000134598
0.0409556
0.000206941
0.000149395
0.000128369
0.000163326
0.00013117
0.000244776
0.00344021
0.000146
0.00015022
0.0177005
0.000218416
0.000146097
0.0236866
0.0220662
0.000292913
0.000142245
0.000233321
0.0208405
0.0401789
0.000146867
0.0108166
0.000129211
0.000142931
0.000142717
0.000141216
0.000156001
0.000138318
0.00016007
0.000202791
0.00212957
0.00385583
0.00025989
0.000149559
0.00017987
0.000180826
0.000138128
0.000139615
0.0288758
0.000252532
0.000144814
0.00399675
0.00014873
0.0156191
0.000374608
0.000138446
0.00750034
0.000131594
0.000156301
0.0148925
0.0001838
0.000140092
0.000148105
0.000137625
0.000154221
0.000147439
0.000141157
0.035828
0.0203324
0.000160215
0.0001906
0.000148757
0.000147407
0.0209365
0.0281808
0.000149493
0.000188497
0.000179225
0.00240991
0.000435607
0.000140822
0.000141971
0.0268099
0.000184428
0.000145473
0.000172299
0.00434983
0.0240439
0.000184124
0.000156967
0.000146783
0.00365184
0.000141027
0.000160127
0.000167178
0.000171106
0.025334
0.000140872
0.000142674
0.000139863
0.000146611
0.000187866
0.00014151
0.000140663
0.0395392
0.0185368
0.000195176
0.000188514
0.000149606
0.000150277
0.00790919
0.0275795
0.000154307
0.000165015
0.000151119
0.0411475
0.000189437
0.000180672
0.000168779
0.000168535
0.000140638
0.000145878
0.000141928
0.000144853
0.000142243
0.000182013
0.000160376
0.00015825
0.0275964
0.000223464
0.000169345
0.034143
0.000145296
0.00436716
0.000192351
0.000147681
0.00015267
0.00632221
0.000219609
0.000134484
0.000184847
0.000144308
0.00014003
0.000182358
0.000140251
0.00250575
0.000150678
0.000152229
0.00014856
0.000169854
0.000150474
0.000142405
0.000138233
0.0001407
0.000150787
0.000185553
0.00140986
0.000138997
0.0298375
0.000174285
0.0176396
0.000151974
0.000160366
0.00503232
0.000138347
0.000138894
0.0362062
0.000138162
0.00016981
0.00014912
0.00441596
0.000212141
0.0342411
0.0219981
0.00015055
0.000156172
0.00752412
0.000142336
0.000179087
0.000151154
0.000144883
0.000189111
0.035517
0.00756388
0.000229784
0.000185919
0.000143484
0.0227056
0.0380693
0.000187991
0.000175415
0.0228307
0.024894
0.000210903
0.000291955
0.00349395
0.000153121
0.000258558
0.000188341
0.000155866
0.000148641
0.000166352
0.000486809
0.000150247
0.00568938
0.000332821
0.000149558
0.000136788
0.00250013
0.00340484
0.000140122
0.000157415
0.000151126
0.000253218
0.0272122
0.000350254
0.00015006
0.000140225
0.000149504
0.000167175
0.000196786
0.000159651
0.000154841
0.00259035
0.000145593
0.000156037
0.00876892
0.000141453
0.000152538
0.00016778
0.000137146
0.000191879
0.0240819
0.000168922
0.0138484
0.00142105
0.000180289
0.000147212
0.000163329
0.000181318
0.000145176
0.0213262
0.0409435
0.000188516
0.000140516
0.000202286
0.000851916
0.000179314
0.000188584
0.000128984
0.00267861
0.000148357
0.0327406
0.0235016
0.000148613
0.000147368
0.000138293
0.000164122
0.000152268
0.000152489
0.000142315
0.000136954
0.000230259
0.000136781
0.000163253
0.000206431
0.000199774
0.0293047
0.00014896
0.000277662
0.000163903
0.000154005
0.000209559
0.000141496
0.000160246
0.000150406
0.000138258
0.000142299
0.0290464
0.000330231
0.000141773
0.000149845
0.000751698
0.000133668
0.00161233
0.000157308
0.000135206
0.000159248
0.000216105
0.0231958
0.000138354
0.00285993
0.000154484
0.000139964
0.000138105
0.00759118
0.000138172
0.00014871
0.000152939
0.000157881
0.000215618
0.0224077
0.000168301
0.00014116
0.000185589
0.000146613
0.0346533
0.000216646
0.000141734
0.000138338
0.00314802
0.0207082
0.0369366
0.000196533
6.17137e-05
0.000190633
0.00016198
0.000141269
0.000138373
0.00341538
0.000162813
0.000162126
0.00022022
0.00018832
0.000145517
0.00016605
0.000145262
0.000199092
0.000138266
0.000134644
0.000137476
0.000177716
0.000146984
0.000146909
0.000205506
0.000182435
0.000153847
0.0193714
0.000147845
0.00108581
0.000171241
0.00014175
0.000162638
0.0432862
0.000212074
0.00014991
0.000151355
0.000188203
0.000150521
0.000148752
0.00367078
0.000198763
0.000137633
0.000138559
0.0034051
0.0493914
0.00013784
0.000154116
0.000182751
0.000150274
0.000134654
0.000221312
0.00080029
0.000146349
0.000205197
0.0264792
0.000199444
0.00012918
0.000195784
0.000155271
0.000139671
0.000165049
0.00427084
0.000159484
0.0270991
0.000141998
0.000137902
0.031782
0.00014216
0.000144481
0.000164096
0.000199433
0.000216
0.000155442
0.000145167
0.000136037
0.000138306
0.000204561
0.0433355
0.000178275
0.000163488
0.000169526
0.00014462
0.000180601
0.00212734
0.000180578
0.000128687
0.000225169
0.000392423
0.00384739
0.000151856
0.000188166
0.0402134
0.000138749
0.000129628
0.000549998
0.0001411
0.024951
0.000145423
0.00577826
0.000159102
0.000188452
0.00015824
0.000189854
0.000139901
0.000139615
0.000172871
0.000138376
0.00340954
0.000152121
0.000130809
0.000142702
0.0261201
0.000107786
0.0256839
0.000138815
0.00992193
0.000137073
0.000212675
0.000196572
0.00019814
0.0176481
0.000254587
0.000148123
0.000162783
0.0185596
0.000138994
0.00016186
0.000150253
0.000145448
0.000141877
0.00346302
0.000435496
0.000177873
0.000139903
0.000146947
0.000179533
0.000305631
0.000143608
0.000151709
0.000138509
0.000160395
0.000144498
0.000175339
0.0225511
0.000129789
0.000153566
0.000211121
0.000138244
0.000150173
0.0097786
0.0365761
0.000152777
0.000136996
0.00533604
0.000163469
0.000158162
0.000146625
0.0176258
0.00016119
0.0261379
0.000171124
0.0289574
0.0045447
0.000235226
0.000158109
0.000294562
0.000213579
0.000141323
0.000141197
0.000203154
0.000138183
0.000182317
0.00598419
0.000154669
0.0143774
0.000141238
0.00217498
0.000284492
0.0114255
0.0131604
0.000151053
0.000147394
0.000151091
0.000192981
0.000142465
0.000149054
0.0104592
0.00143106
0.0239235
0.000176406
0.000184665
0.000157584
0.000133969
0.00922286
0.00014642
0.000186718
0.000146074
0.000137175
0.0312964
0.000141407
0.000160839
0.00138067
0.000141918
0.000152695
0.000152821
0.000796661
0.0101918
0.000146293
0.000165068
0.0408318
0.000145597
0.0193212
0.000155208
0.000139838
0.000218244
0.000151418
0.000173747
0.000144944
0.000146299
0.00014186
0.00018344
0.000215984
0.00018528
0.000141555
0.00592014
0.000137199
0.000134077
0.000789286
0.000149027
0.00026346
0.000144805
0.000140999
0.000143915
0.000220595
0.000138344
0.00294355
0.0283859
0.000139783
0.000145147
0.000152987
0.000170883
0.000202944
0.000179068
0.000151685
0.000151368
0.000139984
0.000147435
0.000174172
0.000145336
0.000620917
0.00569531
0.000149147
0.000173773
0.000147267
0.000149969
0.000150739
0.000150004
0.000149191
0.000149249
0.000145711
0.000133166
0.00322762
0.000145196
0.000216873
0.000141653
0.000151051
0.000210588
0.000174953
0.00172144
0.00815989
0.000168759
0.000144844
0.00014557
0.000158373
0.000153373
0.0233826
0.00471729
0.00035678
0.000164151
0.000146035
0.000151811
0.000146708
0.00854292
0.0239886
0.000212109
0.0334399
0.0421022
0.000150482
6.58971e-05
0.000143459
0.000171353
0.000208432
0.000142567
0.000165006
0.000145999
0.000199171
0.00379972
0.000144582
0.000146574
0.000158594
0.000206124
0.000163571
0.000143549
0.000177462
0.000146466
0.000155534
0.000147441
0.000179474
0.000148311
0.000199067
0.000146762
0.000178501
0.0295163
0.0360994
0.000272387
0.000662135
0.000151897
0.0150858
0.0169425
0.0287437
0.000149146
0.000224761
0.000139678
0.000350562
0.00938411
0.000157681
0.00170305
0.000177764
0.000149633
0.000196094
0.000149683
0.000159049
0.00373837
0.000168575
0.000137448
0.0235784
0.000180258
0.00015284
0.000218178
0.0448174
0.000219799
0.000154291
0.000145664
0.000154547
0.000147068
0.000229321
0.00855572
0.000147743
0.000145433
0.0239272
0.0230053
0.000137036
0.000143283
0.000196191
0.00224583
0.000158716
0.000137599
0.000143016
0.000178627
0.000139596
0.000154811
0.000129524
0.000191875
0.0196163
0.0237841
0.000194991
0.000141826
0.00014083
0.000143589
0.000134284
0.000217671
0.000160534
0.000146356
0.000212421
0.00018023
0.000153095
0.000156422
0.000155113
0.000149879
0.000168708
0.0337698
0.0239631
0.0283734
0.0309455
0.000184892
0.000161846
0.000154057
0.000151212
0.00016491
0.000219557
0.000185824
0.000141051
0.000153952
0.000141345
0.000150222
0.000140801
0.000147993
0.000142647
0.00857733
0.00017195
0.000155911
0.000173561
0.000150345
0.000139962
0.000145076
0.000206894
0.000174416
0.00014338
0.000302699
0.000171884
0.00536959
0.000149748
0.00014781
0.000180623
0.00247039
0.000141004
0.000197608
0.000145157
0.0312992
0.000231846
0.00018073
0.0080718
0.0073016
0.000142026
0.000136025
0.000160566
0.000169291
0.000150039
0.022193
0.000163858
0.000136059
0.000144707
0.00264816
0.000168691
0.0196453
0.000149712
0.000199337
0.000173018
0.0225448
0.0284777
0.000144679
0.000164826
0.000154176
0.000153255
0.00018685
0.000172633
0.00535272
0.000393192
0.000137442
0.00025259
0.000159502
0.000160689
0.000151271
0.000143118
0.000176796
0.00013639
0.000146697
0.000170084
0.000154189
0.000147164
0.00886216
0.00020933
0.000250216
0.00016414
0.000150265
0.000150461
0.000137411
0.000168207
0.000156765
0.0343865
0.000265062
0.000137247
0.000128877
0.0146602
0.00674792
0.00330162
0.000164292
0.000719745
0.000188794
0.00744003
0.000144946
0.000192862
0.000194889
0.00014717
0.000163536
0.000267691
0.000198036
0.000145289
0.000213559
0.000158279
0.000140302
0.00119477
0.0411233
0.0196105
0.000595181
0.00183686
0.000172354
0.000134125
0.000147067
0.000134267
0.000203338
0.000140354
0.000161516
0.000205892
0.000290469
0.00375515
0.00021621
0.0248248
0.049366
0.000185885
0.000163935
0.000166448
0.0238695
0.000173798
0.000158575
0.000173726
0.000183887
0.000161204
0.000190584
0.000152465
0.00890206
0.000180219
0.000447959
0.000150026
0.0241426
0.022566
0.000123928
0.000151867
0.000175314
0.0405904
0.022515
5.91195e-05
0.0103616
0.000137762
0.0204165
0.000388817
0.000170372
0.000147002
0.0173236
0.000168635
0.000167282
0.000168694
0.00750113
0.000171702
0.000133034
0.000132777
0.000189568
0.000170655
0.000190316
0.000288147
0.000172331
0.000207884
0.000154457
0.000135662
0.000137036
0.000842913
0.000145582
0.000145441
0.0237259
0.00021502
0.000106629
0.000146475
0.000248899
0.0221264
0.000212488
0.00700263
0.000149915
0.000142412
0.00907857
0.000142044
0.000144685
0.000189645
0.000341851
0.0362966
0.000175157
0.000137105
0.0372723
0.00015532
0.000148389
0.000145167
0.000159088
0.000132269
0.000141096
0.000156265
0.000180244
0.00014854
0.000197382
0.000137628
0.000134732
0.000172828
0.000164936
0.000185655
0.000160881
0.000149636
0.000150491
0.000138556
0.0395757
0.00015633
0.000137967
0.000141346
0.0230834
0.000151211
0.0391043
0.000169973
0.000147794
0.0104483
0.000146727
0.000152227
0.000147111
0.000144968
0.000148372
0.000163014
0.000160304
0.000142541
0.000190809
0.00015425
0.000170927
0.000169379
0.000143398
0.000210673
0.000189685
0.000161135
0.000138791
0.0359573
0.000160016
0.000164789
0.000145216
0.000138159
0.000256337
0.0043611
0.000248967
0.000806005
0.000179536
0.000156462
0.00014325
0.000147783
0.000186753
0.000138514
0.00013867
0.00013556
0.000163648
0.000138722
0.000163798
0.00673309
0.00016691
0.000138268
0.000276631
0.000163912
0.000138688
0.000141302
0.000170168
0.000140629
0.0286478
0.000146643
0.000139543
0.000154238
0.00019143
0.000157632
0.000152728
0.000155428
0.000206065
0.000150221
0.000155303
0.000197053
0.00594965
0.00015884
0.000137568
0.000155934
0.00014848
0.000144588
0.000150393
0.000174555
0.000163554
0.000149162
0.000141921
0.000165962
0.0242897
0.022861
0.000140928
0.000200553
0.000220041
0.000141219
0.000135445
0.00014492
0.00020244
0.000340264
0.000143926
0.000141331
0.000153649
0.0236412
0.000194668
0.000157494
0.000150904
0.0106298
0.000173572
0.00015709
0.000212645
0.000184178
0.0108863
0.000146862
0.0311985
0.000147408
0.000138391
0.000135383
0.000195212
0.00029929
0.000148837
0.00015259
0.000158443
0.000183925
0.000149806
0.00782256
0.00280128
0.000170218
0.000139432
0.000168242
0.000141018
0.0016325
0.000189333
0.0408603
0.000153506
0.000156599
0.00015585
0.00730768
0.000165592
0.000138603
0.00192099
0.000138126
0.000142003
0.00427397
0.000136445
0.000143189
0.000164438
0.00235256
0.00387175
0.000326499
0.00017492
0.000251657
0.000184384
0.00613179
0.000196219
0.000143407
0.000133447
0.0419971
0.000204976
0.018895
0.000146974
0.000174041
0.000168254
0.000140438
0.000197818
0.00401287
0.000163586
0.000186215
0.00404034
0.000147988
0.000150909
0.00014786
0.000191054
0.000141554
0.0264775
0.000160332
0.000147144
0.00353993
0.0298052
0.000210159
0.000164204
0.000149137
0.000160827
0.000151214
0.00432666
0.000142369
0.00017484
0.000287752
0.000217325
0.00013966
0.000216522
0.000163661
0.000205597
0.000188387
0.000152856
0.00104918
0.000189657
0.000137387
0.000172495
0.000173333
0.000127753
0.000176323
0.000148078
0.00196179
0.000227328
0.000183172
0.010417
0.000162277
0.000157411
0.0101858
0.000139036
0.00731481
0.000186652
0.000777195
0.000141506
0.00013646
0.000137487
0.000145762
0.000148091
0.000144013
0.000139721
0.000187598
0.00019111
0.000148815
0.000191232
0.000146042
0.00013724
0.000205933
0.00023355
0.000174953
0.00118754
0.000131161
0.000138858
0.000150102
0.000213596
0.0426418
0.000141801
0.000155517
0.000140612
0.0235858
0.000140457
0.000168981
0.000188184
0.000191602
0.000140337
0.000157686
0.000137618
0.000404724
0.000200132
0.000205072
0.000263986
0.00137045
0.000147482
0.00515355
0.000145045
0.000278158
0.00015458
0.0088023
0.00231058
0.000249048
0.000142389
0.000137943
0.0032724
0.000152973
0.000203207
0.000130512
0.00297908
0.00348393
0.000138865
0.000178466
0.000145743
0.0003945
0.00135328
0.000153221
0.000190123
0.000156138
0.0279047
0.000160342
0.000211871
0.000210009
0.000193321
0.000188183
0.0001498
0.000168123
0.000149855
0.000140821
0.000148357
0.000158783
0.000175153
0.000215153
0.000150557
0.000193967
0.00013812
0.000151735
0.000149055
0.000162493
0.000140968
0.000149656
0.000144844
0.0289949
0.000184571
0.000304523
0.000137053
0.00151306
0.000138295
0.000132404
0.000141465
0.000172925
0.000188771
0.00165152
0.000138313
0.000141869
0.000158153
0.000143959
0.000159792
0.000139749
0.000188843
0.000498797
0.000172555
0.000150524
0.00326691
0.0002087
0.000211452
0.00935651
0.000194997
0.000139554
0.00012849
0.000219065
0.000140711
0.00105377
0.00016309
0.00391477
0.000149474
0.00273959
0.00932033
0.000147575
0.000170522
0.0143134
0.000148125
0.00397883
0.000193044
0.000155006
0.000345163
0.00013884
0.0001426
0.00013406
0.00029813
0.000185013
0.000145502
0.000147506
0.000313627
0.0160596
0.000147749
0.000209609
0.0424305
0.0174858
0.000647151
0.000141009
0.00016813
0.00401858
0.000158426
0.000315031
0.000184692
0.000156814
0.000297374
0.000188953
0.0336036
0.000144719
0.000219357
0.000139042
0.0028067
0.00014813
0.000138201
0.000203341
0.000166538
0.000168108
0.000138265
0.00355501
0.000174804
0.0271044
0.000140066
0.000149075
0.000198839
0.000204437
0.0411901
0.0371104
0.00104253
0.0207623
0.000153446
0.000162031
0.000137861
0.000179598
0.000304996
0.000149686
0.00850236
0.000140043
0.0001472
0.00192598
0.000135036
0.000185451
0.00013593
0.000137995
0.000179984
0.00723126
0.000162121
0.000202789
0.000400055
0.0148089
0.000149263
0.000154288
0.000166918
0.000137312
0.000141752
0.0001624
0.00013282
0.000135665
0.000170151
0.000135159
0.000137883
0.000161988
0.000139272
0.000206621
0.0405181
0.000146272
0.000140899
0.000249461
0.000141728
0.000148285
0.000262661
0.00348736
0.000150595
0.000139592
0.000141718
0.000193397
0.000156579
0.0001635
0.00014937
0.000247559
0.000187222
0.0230573
0.0313271
0.000137898
0.000210972
0.000135309
0.000141966
0.0233237
0.000139381
0.000154878
0.0124774
0.0016182
0.000198511
0.000140974
0.000140658
0.000523734
0.00519482
0.000202435
0.00332886
0.000148346
0.000177275
0.000143652
0.000167632
0.000216538
0.000160242
0.000152246
0.000143612
0.0001525
0.000142444
0.000169943
0.000144203
0.00268007
0.0287478
0.000137842
0.000151324
0.00014886
0.000141011
0.000168362
0.0354598
0.000147741
0.000190139
0.000137596
0.000146199
0.00014902
0.000140861
0.000149297
0.000151449
0.0001402
0.000147422
0.0211523
0.00685137
0.000150278
0.000206065
0.000142113
0.000150239
0.000157242
0.000134727
0.00188924
0.000175533
0.000138363
0.000140654
0.000150102
0.000281211
0.000181616
0.000158488
0.00014998
0.000146133
0.000169422
0.000143805
0.000171512
0.00015898
0.00270113
0.000154378
0.000144474
0.00017929
0.0076236
0.000152121
0.000134058
0.000155335
0.0305361
0.00505585
0.000128578
0.000146435
0.000162356
0.000154806
0.000133904
0.0274577
0.00921974
0.000184592
0.000147619
0.00399478
0.000183149
0.000137902
0.000134822
0.000200181
0.000246213
0.00015043
0.000149612
0.000136976
0.000143188
0.0233949
0.000140341
0.000159948
0.0403951
0.000137939
0.000162786
0.000220907
0.0243532
0.00018005
0.000235922
0.00013869
0.000148961
0.000148226
0.000154843
0.000135597
0.000144975
0.0310474
0.000140728
0.000170719
0.000136144
0.000208127
0.00308629
0.000219051
0.0166287
0.046016
0.000171859
0.000135894
0.000135677
0.000153721
0.0108437
0.000145471
0.000140011
0.000132817
0.000162306
0.0338455
0.000182418
0.000178969
0.00014079
0.000154383
0.000168907
0.000138032
0.00014208
0.000170432
0.000200827
0.000162574
0.000180389
0.015146
0.000245745
0.000145125
0.000195135
0.0341235
0.00434187
0.00757243
0.000198918
0.000197851
0.000155612
0.000201491
0.0231034
0.000283313
0.0155728
0.000204292
0.000141728
0.000204669
0.000157
0.000143598
0.00020804
0.000212535
0.000166389
0.000160087
0.000167934
0.000163036
0.000186991
0.00020818
0.000148959
0.00981491
0.0213453
0.000231689
0.000268088
0.0311041
0.000244495
0.00014406
0.0029268
0.000148894
0.00338909
0.000137056
0.000174664
0.000147328
0.000139006
0.000204472
0.000223593
0.000388103
0.00294834
0.00325925
0.000142308
0.000186883
0.00013797
0.0090048
0.00559852
0.000144264
0.000146322
0.000209312
0.000134478
0.000188845
0.000145054