/*--------------------------------*- C++ -*----------------------------------*\
| =========                 |                                                 |
| \\      /  F ield         | OpenFOAM: The Open Source CFD Toolbox           |
|  \\    /   O peration     | Version:  v2012                                 |
|   \\  /    A nd           | Website:  www.openfoam.com                      |
|    \\/     M anipulation  |                                                 |
\*---------------------------------------------------------------------------*/
FoamFile
{
    version     2.0;
    format      ascii;
    class       volScalarField;
    location    "100";
    object      nut;
}
// * * * * * * * * * * * * * * * * * * * * * * * * * * * * * * * * * * * * * //

dimensions      [0 2 -1 0 0 0 0];


internalField   nonuniform List<scalar> 
27802
(
0.00212667
0.00592035
0.00589487
0.00598933
0.00525734
0.00594615
0.00581613
0.00596274
0.00124031
0.00509386
0.00583276
0.0102008
0.0111951
0.00215485
0.00582569
0.00581616
0.00578439
0.00917769
0.00132832
0.00100256
0.00590187
0.00590155
0.00191401
0.00106486
0.00580661
0.00595353
0.00592012
0.00510964
0.00580656
0.00362326
0.00587628
0.00572429
0.0036101
0.00392715
0.00439846
0.00582341
0.00219789
0.00582224
0.00587629
0.00590606
0.00590913
0.00590604
0.00607335
0.00169172
0.0059299
0.00582632
0.00050474
0.00590758
0.00589798
0.002837
0.00409603
0.00593137
0.020733
0.00593012
0.00590133
0.00594535
0.00269177
0.00238123
0.00588995
0.0049526
0.00582268
0.00589211
0.0101489
0.00574798
0.00865843
0.00106321
0.00843074
0.00593534
0.00685382
0.00570863
0.00581832
0.000954831
0.0159286
0.00084701
0.0173606
0.0033573
0.00660773
0.00756671
0.00323587
0.00581753
0.00716147
0.00415874
0.0059016
0.00233216
0.00594132
0.00489535
0.00580627
0.00589763
0.000889214
0.000334606
0.00753957
0.00589293
0.00367932
0.00581775
0.00591674
0.00590309
0.00226921
0.00555729
0.00590769
0.000511968
0.00439408
0.00591829
0.00465167
0.00600507
0.00033179
0.00589233
0.00316026
0.00119273
0.0058338
0.00189986
0.00583427
0.00582473
0.00592018
0.00403283
0.00582003
0.000616009
0.0033871
0.00582854
0.00243609
0.00104487
0.0118747
0.00780119
0.00167855
0.00580751
0.00586904
0.00595378
0.000377475
0.00805065
0.0114267
0.0117005
0.00454627
0.00182118
0.00585646
0.00593775
0.00590294
0.005949
0.00593965
0.00591823
0.00127901
0.00163658
0.00594445
0.00592722
0.00598548
0.00581492
0.00582048
0.00592524
0.00593896
0.00593552
0.00593171
0.00586096
0.00583875
0.00590552
0.00371401
0.00592989
0.00108152
0.00592302
0.00350761
0.000927245
0.0026266
0.000631797
0.000378996
0.000822569
0.00486495
0.00256149
0.00578666
0.00584146
0.00583254
0.00595007
0.00584732
0.00096417
0.00598398
0.0032376
0.00594031
0.00548132
0.00588143
0.00725945
0.00583821
0.00290269
0.00593002
0.0020785
0.00115991
0.0023336
0.00328895
0.00593095
0.00593991
0.00222825
0.00592239
0.00598749
0.000467454
0.000267988
0.00588024
0.00576589
0.00192918
0.00463566
0.00583978
0.00590939
0.00584017
0.00592848
0.00584551
0.00592882
0.0108438
0.0136032
0.00654468
0.00375868
0.00583586
0.00186935
0.00335939
0.000308751
0.00589255
0.00579378
0.0058223
0.000962414
0.00730198
0.00271432
0.000384453
0.00585441
0.00832322
0.00581536
0.00591012
0.00593653
0.0114846
0.00579615
0.0024232
0.000511835
0.00594018
0.00591383
0.00590593
0.00576749
0.00582778
0.00591857
0.00579242
0.0034224
0.00590281
0.00270553
0.0008856
0.00146283
0.00593712
0.000342622
0.00393384
0.00584154
0.00595272
0.00189749
0.00210039
0.00588352
0.00606099
0.00310181
0.00592472
0.00694998
0.00583398
0.00590088
0.000606472
0.00300986
0.00261907
0.00595219
0.00605606
0.00584725
0.00594475
0.00426229
0.00373022
0.00584256
0.00325592
0.0059038
0.0103677
0.00589029
0.0108981
0.0023083
0.0111202
0.00592124
0.00579679
0.00588119
0.000959918
0.00582329
0.00172623
0.00452748
0.00432943
0.000583155
0.00594794
0.00224887
0.00271741
0.00594317
0.000409169
0.00249787
0.00588065
0.00350222
0.000358832
0.0157706
0.00439309
0.00593921
0.00341692
0.00601244
0.00581607
0.00360464
0.00586042
0.016218
0.0058603
0.00357827
0.000669878
0.00594034
0.00721487
0.00734459
0.000900294
0.00593746
0.00572278
0.00060849
0.00171934
0.00119773
0.00589937
0.0104939
0.00342853
0.0059444
0.00269579
0.00252965
0.00151589
0.00536173
0.00502654
0.00582206
0.00273912
0.00233622
0.00235334
0.00178413
0.00590499
0.00583544
0.00580689
0.00592796
0.00495556
0.0058633
0.0104747
0.00586499
0.00583737
0.00292907
0.00592097
0.00166291
0.0195535
0.000747181
0.000545138
0.00541404
0.00112608
0.00590741
0.00135575
0.00582168
0.00578462
0.0092303
0.0140218
0.0026157
0.000778415
0.00328424
0.000483247
0.00533878
0.00583442
0.000282803
0.00590256
0.00696715
0.00587275
0.00595504
0.00595945
0.00592931
0.00680009
0.000263083
0.00591685
0.00592743
0.00223461
0.00961591
0.00592735
0.00345176
0.00583462
0.00595122
0.00589795
0.00593525
0.00279575
0.00588881
0.00590351
0.000423216
0.00157447
0.000952624
0.00780085
0.0115712
0.0014768
0.00583369
0.00257977
0.00582235
0.00598382
0.00583548
0.00596073
0.00591674
0.00596299
0.00591605
0.000430724
0.00573266
0.00290853
0.00276809
0.00594068
0.00595037
0.00390402
0.00195677
0.00584253
0.00227908
0.00620858
0.00138141
0.00601862
0.00201003
0.00928877
0.0019304
0.00593774
0.000996532
0.00584859
0.00379258
0.00225048
0.000379744
0.0161854
0.00230389
0.0055511
0.0060179
0.0117351
0.0110035
0.0256939
0.0059106
0.00592807
0.00293829
0.00581526
0.00339461
0.00680397
0.00584525
0.00569709
0.0059522
0.00872406
0.0059372
0.00578119
0.011389
0.00300701
0.00351345
0.00582075
0.00197536
0.0243091
0.00585203
0.00592139
0.00585131
0.00105785
0.00302314
0.00318662
0.00328226
0.00237886
0.00570464
0.00595898
0.00585738
0.00181735
0.00583124
0.00582079
0.00578838
0.00132902
0.00159448
0.00676347
0.00234553
0.00642019
0.00733376
0.00586929
0.00278914
0.00266928
0.00437562
0.00870424
0.00588941
0.00503619
0.00287186
0.00109368
0.00107212
0.00579154
0.0039127
0.00832556
0.00583148
0.00295311
0.00582009
0.00299715
0.0058777
0.00596053
0.000514526
0.00374617
0.00952469
0.00585036
0.00322212
0.00578765
0.00331559
0.00101042
0.00379684
0.00573695
0.00227535
0.00118972
0.00676592
0.00586288
0.00594584
0.000948725
0.00585773
0.00583957
0.0128989
0.00591883
0.0111535
0.00585395
0.00964463
0.010885
0.0103658
0.00585474
0.00389171
0.0111839
0.00224283
0.00943
0.000552591
0.00764093
0.000682842
0.00606398
0.00217867
0.00116724
0.00595554
0.00594785
0.0155466
0.00152936
0.00582458
0.00591864
0.000382183
0.0174399
0.00123976
0.00600632
0.00192621
0.00363808
0.014863
0.00596257
0.00539805
0.000792563
0.00582342
0.00585258
0.0059539
0.00323855
0.00907129
0.00146224
0.0157201
0.00592701
0.00595931
0.00928877
0.005827
0.00340368
0.00584862
0.00585349
0.00391179
0.000275683
0.00597053
0.00591865
0.00592803
0.00127046
0.00596224
0.0030926
0.000289549
0.00290955
0.00120849
0.00793533
0.000903061
0.00271083
0.000420905
0.00583658
0.00951814
0.00594666
0.00129964
0.00584865
0.0059208
0.00583937
0.0160922
0.00592365
0.00585116
0.00580587
0.00626378
0.00608169
0.00593273
0.00120443
0.000448524
0.00059753
0.0124239
0.00640891
0.00196968
0.00102963
0.00247914
0.0114163
0.00591773
0.00250866
0.00743514
0.000441411
0.00440612
0.00497623
0.0048896
0.00782455
0.00172274
0.00589375
0.00790971
0.0011341
0.000335273
0.00443577
0.000974499
0.00589248
0.00589252
0.00167256
0.00596774
0.00376628
0.000538663
0.00586862
0.0058661
0.00585946
0.000519691
0.00203587
0.00549878
0.00898047
0.0119051
0.00377422
0.00301716
0.00586558
0.00679931
0.00921057
0.00765372
0.00374582
0.00108094
0.0120436
0.00583787
0.000507142
0.00588054
0.011256
0.0101625
0.00585449
0.00195487
0.0119067
0.000359353
0.0058968
0.0143287
0.00359058
0.00859024
0.00447933
0.00589845
0.000756424
0.0129137
0.00124278
0.00585376
0.00326732
0.00342013
0.0037686
0.0060298
0.00253661
0.00585331
0.0058383
0.00307676
0.00667573
0.00992173
0.000709778
0.0037847
0.0144274
0.00324277
0.00948003
0.00584858
0.00616266
0.00117606
0.000843987
0.00617631
0.005741
0.0088194
0.0060508
0.00585432
0.00584339
0.00591534
0.00595421
0.00400315
0.000583272
0.00106457
0.00598293
0.00146569
0.00565889
0.00348141
0.000854555
0.005848
0.0059473
0.0053005
0.00107527
0.00349304
0.00582677
0.00604785
0.00598124
0.00280192
0.00584619
0.00867236
0.00112751
0.00573483
0.00125999
0.00139819
0.00704563
0.00932435
0.0020433
0.00588829
0.00714433
0.00599869
0.00602994
0.00593023
0.00194849
0.00289231
0.0114825
0.0059013
0.00593118
0.000532663
0.00607166
0.0058075
0.00574532
0.000838845
0.00584797
0.00105544
0.0058379
0.0165879
0.00590384
0.00336325
0.000969708
0.00308734
0.00547262
0.00038296
0.0010319
0.00198054
0.00150317
0.00574373
0.00914414
0.00695912
0.000500945
0.0028654
0.00831591
0.00584635
0.0058217
0.00325756
0.00229751
0.000836746
0.00400444
0.00571494
0.000817757
0.00798607
0.00270105
0.00648959
0.00292374
0.00167283
0.014306
0.00464335
0.00383964
0.0152265
0.00633191
0.0058617
0.00107305
0.00598532
0.000498108
0.00580002
0.000872245
0.00997903
0.00600617
0.00595384
0.00183913
0.0117468
0.00193894
0.00547206
0.0058552
0.00415096
0.00289642
0.00284594
0.0040783
0.0197015
0.00149415
0.00589875
0.00580327
0.00180169
0.00794882
0.00193018
0.00592028
0.000571277
0.00935338
0.00571993
0.00593902
0.00581704
0.00590698
0.0113493
0.00581673
0.00548694
0.00606392
0.00204199
0.00606713
0.00593922
0.0059409
0.00319929
0.00315086
0.00578329
0.00386678
0.0013069
0.00365165
0.00585637
0.0078007
0.00361945
0.00706432
0.00593055
0.00592134
0.00285381
0.00564128
0.0145799
0.00286104
0.00841432
0.000399124
0.00190205
0.000397683
0.0069209
0.00206938
0.0056739
0.00546757
0.0058418
0.00573407
0.00132739
0.00283202
0.00118899
0.000316675
0.0112646
0.00591937
0.00946974
0.000866362
0.00963904
0.00443564
0.000586506
0.00345566
0.020565
0.00320905
0.00582562
0.0060102
0.00591771
0.00586898
0.00710832
0.00584528
0.00595322
0.00929422
0.000176024
0.0105939
0.00588359
0.00226509
0.00498602
0.00591818
0.00122032
0.00591086
0.000389573
0.00302809
0.00135993
0.00591627
0.00591756
0.000418793
0.00338459
0.000146274
0.0058965
0.00579714
0.00120662
0.00581799
0.00582664
0.0123752
0.000783364
0.00131853
0.00523812
0.00600355
0.00599742
0.0058499
0.00594765
0.000988442
0.00107865
0.00025506
0.00581555
0.00304541
0.00349888
0.00595992
0.00391435
0.0107699
0.00311268
0.00596655
0.00280337
0.00591965
0.00582877
0.00294807
0.00303872
0.00596971
0.00595183
0.00214511
0.00128763
0.00271449
0.00826015
0.00463878
0.00350289
0.000289388
0.00588221
0.00593809
0.00595985
0.00400838
0.00141561
0.00595742
0.000458309
0.00581145
0.00848185
0.00591309
0.00582541
0.000159448
0.00591814
0.0059431
0.00586213
0.00598381
0.00588411
0.0113792
0.00594839
0.00117673
0.00581938
0.00574868
0.00592876
0.00590126
0.00589929
0.00583811
0.00285802
0.00735733
0.00470376
0.00331023
0.00581744
0.000515998
0.00212489
0.00298595
0.00594002
0.00581816
0.00582585
0.00560423
0.00594899
0.000338206
0.00583617
0.0058519
0.00563713
0.00626548
0.00591636
0.00229532
0.00582399
0.00579431
0.00114145
0.00948846
0.00441497
0.00597093
0.00591317
0.00130935
0.00589159
0.0133862
0.00199373
0.00167335
0.00756552
0.00579302
0.00706068
0.00593942
0.00191574
0.00173316
0.013776
0.00591543
0.00196252
0.00791271
0.00591365
0.00581968
0.00603095
0.0220403
0.00125473
0.001737
0.00592781
0.00591131
0.00682372
0.00115026
0.000270642
0.0029115
0.00132285
0.00582626
0.00583258
0.00591351
0.000581527
0.00584821
0.00588111
0.00595865
0.00299084
0.00195066
0.00582518
0.0031092
0.00584329
0.00590644
0.000430615
0.00574694
0.0031309
0.00596465
0.0011127
0.00526827
0.00591147
0.00256022
0.0059046
0.00362788
0.00582572
0.0110091
0.00483616
0.0059027
0.00579654
0.0021548
0.00586916
0.00037396
0.00926755
0.00602202
0.00429012
0.00520243
0.000240915
0.00593485
0.00680127
0.00605815
0.00192836
0.00591502
0.00719708
0.00410473
0.0109471
0.00593202
0.0157837
0.00581917
0.00587345
0.00587844
0.00582361
0.00400853
0.0058381
0.00274324
0.000809013
0.00721276
0.0109121
0.0072348
0.00599088
0.00117333
0.00158599
0.00592542
0.00593175
0.00938077
0.00749563
0.00596875
0.00655133
0.00595797
0.00849084
0.000528938
0.00584118
0.0195652
0.00587865
0.00604973
0.00443889
0.00110154
0.00582066
0.00592602
0.00591615
0.00351039
0.00595888
0.00582164
0.0125781
0.0146054
0.0028264
0.000998167
0.00595657
0.00597303
0.00678016
0.00841374
0.00590529
0.000969887
0.00119981
0.00694371
0.00318145
0.00592873
0.0058439
0.00769484
0.00111221
0.00591993
0.00277151
0.0073003
0.0070889
0.000313817
0.00560903
0.00595735
0.0109694
0.00582091
0.00340007
0.00221451
0.00270923
0.00645466
0.00591506
0.00586655
0.00582311
0.00592705
0.00104729
0.00584595
0.00583974
0.00796414
0.00441628
0.00132619
0.00131472
0.00573376
0.00580788
0.00261004
0.00753005
0.00317297
0.00287287
0.0059218
0.0115381
0.00121547
0.00142404
0.00249999
0.00222202
0.00588437
0.00593163
0.005844
0.00588007
0.00597751
0.0020889
0.00287822
0.00574367
0.00873009
0.00369836
0.00193049
0.0103018
0.00589856
0.00566499
0.00102135
0.000254967
0.00343868
0.00717645
0.00477302
0.00585532
0.00141327
0.00588421
0.00582002
0.00260591
0.00588849
0.00720821
0.00592957
0.0058176
0.00600547
0.00269829
0.00593224
0.00585376
0.0058346
0.00583947
0.00593493
0.00406013
0.00210557
0.00591339
0.00956293
0.00629228
0.00544831
0.00474369
0.00220181
0.00820334
0.00583719
0.00592674
0.0109563
0.00583137
0.00224229
0.00595515
0.0072841
0.000759721
0.0102488
0.00692826
0.00593999
0.00377621
0.0086023
0.00591662
0.00156799
0.00591938
0.00593916
0.00121968
0.0130114
0.00998534
0.00126861
0.00128927
0.00586831
0.00939741
0.0113352
0.00126379
0.00195146
0.00832826
0.0163532
0.00596571
0.00130146
0.00907974
0.00341119
0.0026169
0.00137263
0.00358215
0.00595611
0.00548208
0.00303949
0.00584648
0.0160276
0.00442235
0.00590062
0.00589865
0.00828146
0.00901672
0.00587602
0.00556778
0.00480161
0.000310789
0.00814778
0.0085627
0.00594002
0.00587644
0.00499832
0.00226566
0.000788235
0.00255436
0.00581035
0.00309884
0.00592546
0.00563368
0.00661938
0.0059
0.00570712
0.00202596
0.00588456
0.00112709
0.00721091
0.00545676
0.00989679
0.00521205
0.00127019
0.00594091
0.00232953
0.00129764
0.00593474
0.00506742
0.0118335
0.00138687
0.00592966
0.000246969
0.00400633
0.00150543
0.00133854
0.00580893
0.00873326
0.00595477
0.00862581
0.00771537
0.00596492
0.00586863
0.00591047
0.00260178
0.00507271
0.00588698
0.00597193
0.00585049
0.00700184
0.00584711
0.00259003
0.000596661
0.000774735
0.00946605
0.00595631
0.00672185
0.0028455
0.00370759
0.000524529
0.0059539
0.00278002
0.0041837
0.00591083
0.00596268
0.00926122
0.00657194
0.00584003
0.00585712
0.00351124
0.00250825
0.00609999
0.00386219
0.00580543
0.00265358
0.000681888
0.0154162
0.00584321
0.00722663
0.00313423
0.00592277
0.00582849
0.0171042
0.00586654
0.00592099
0.00328609
0.0033785
0.00614168
0.00757273
0.00198264
0.00583993
0.0020551
0.0059487
0.0103578
0.000652767
0.00584014
0.00584355
0.00130259
0.00571682
0.0111338
0.000995913
0.000223137
0.00122173
0.00551643
0.00582348
0.00591446
0.00957198
0.00264079
0.00295552
0.000585539
0.00141033
0.00597603
0.00307897
0.00589806
0.000890013
0.00583379
0.00580764
0.00592169
0.00150969
0.00587572
0.00593677
0.000692605
0.00115445
0.00582062
0.0127773
0.00596216
0.00126414
0.00167401
0.00582182
0.00393422
0.0113125
0.000777757
0.00593142
0.00592313
0.00134714
0.00583412
0.00596276
0.0112164
0.000846992
0.00592187
0.00592704
0.0104062
0.0138897
0.00592293
0.00353986
0.00118706
0.00421454
0.00580706
0.000669307
0.00117645
0.00595017
0.00522199
0.00755387
0.000825372
0.0058162
0.000779292
0.00569621
0.0058182
0.00613493
0.00176208
0.00265533
0.00805502
0.00582407
0.00592155
0.0114513
0.00584864
0.00588891
0.00607248
0.000863486
0.00529653
0.00305811
0.00594919
0.00584356
0.00592039
0.000627661
0.0112953
0.0012242
0.00283656
0.00293435
0.00597562
0.00136018
0.00774426
0.00146648
0.00580104
0.00432861
0.00111926
0.0101306
0.00587894
0.00453016
0.010907
0.00591413
0.00583137
0.00108856
0.00583814
0.0085345
0.00595035
0.0071479
0.0025328
0.00131207
0.00346935
0.00117235
0.00584297
0.00593043
0.00337528
0.00586932
0.00916891
0.00520093
0.00585927
0.00592599
0.0094274
0.000256691
0.00878848
0.00591062
0.00406523
0.00581194
0.000691583
0.000941593
0.000804768
0.00373586
0.00365149
0.00595757
0.00218638
0.00582541
0.00592768
0.00446593
0.00584224
0.00595157
0.00596806
0.00822267
0.00112433
0.00122874
0.00581929
0.00594978
0.00148052
0.00757374
0.00589467
0.00590938
0.00591835
0.00318898
0.00588839
0.00371856
0.00577324
0.00583703
0.00598434
0.00504748
0.00590026
0.00593335
0.0191466
0.0108336
0.00337986
0.0058111
0.0124515
0.00541064
0.00351947
0.00595767
0.0117713
0.00332724
0.00640977
0.00350359
0.00838029
0.00180059
0.000414771
0.00555446
0.00706406
0.000636713
0.00589472
0.00593104
0.00081585
0.00586482
0.00136973
0.00853115
0.00509071
0.00513102
0.00586639
0.0064306
0.00215933
0.00351411
0.0042529
0.00592816
0.0059574
0.005909
0.0010593
0.00584046
0.00595512
0.0220187
0.00567404
0.00828769
0.00163707
0.00475865
0.00377644
0.00581713
0.00964008
0.00596895
0.0052618
0.00594617
0.00590717
0.0109347
0.00586604
0.00308562
0.000849845
0.00583777
0.00583942
0.00584018
0.00320379
0.00320259
0.00595444
0.00323896
0.0117172
0.00588262
0.00343827
0.00309921
0.00581912
0.00480605
0.00579132
0.00499087
0.00587701
0.0059538
0.00582211
0.00271212
0.000667768
0.00546938
0.00593429
0.0141185
0.00590687
0.00581992
0.000939674
0.00574839
0.00163183
0.00586283
0.0058859
0.00597002
0.000499294
0.0059146
0.00732054
0.00840829
0.00581863
0.00598648
0.00582318
0.00575072
0.000805012
0.00143058
0.00590996
0.00589782
0.0058463
0.00591386
0.00146082
0.00586944
0.000608903
0.00719218
0.00570098
0.00390674
0.00596117
0.0059376
0.00592842
0.00594344
0.00592362
0.00592448
0.00592504
0.00581346
0.00773809
0.00593509
0.00633158
0.00585397
0.00592765
0.00529365
0.00377226
0.00540663
0.0104165
0.00182222
0.00592519
0.00586976
0.00606549
0.00585697
0.00561092
0.00584804
0.00124567
0.00537789
0.00595208
0.00486695
0.00591291
0.00938779
0.00706815
0.000780293
0.0122076
0.0109609
0.00593237
0.000182951
0.00589064
0.00320793
0.00623624
0.00585431
0.00262655
0.00593781
0.000838644
0.00764477
0.00591811
0.00590999
0.00552214
0.000693808
0.00270325
0.00583505
0.00675566
0.00588524
0.0025252
0.00596298
0.00580174
0.00593537
0.000773462
0.00594717
0.0013151
0.00797198
0.0107253
0.00670232
0.00106389
0.0058756
0.00462979
0.0115094
0.00811251
0.00595605
0.000716045
0.00592839
0.00118073
0.0139331
0.00358224
0.0021181
0.00670497
0.00595231
0.0010453
0.00594703
0.0039191
0.00788984
0.00235747
0.00592282
0.00809667
0.00322306
0.00329838
0.00040567
0.0119169
0.000549378
0.0036322
0.00603673
0.00600423
0.00595382
0.000402706
0.00896739
0.00595921
0.00592978
0.00893258
0.00694253
0.00587221
0.00594247
0.00102856
0.0025527
0.00255621
0.00592326
0.00591386
0.00130436
0.00583862
0.00319468
0.00582846
0.00119217
0.00663195
0.00849098
0.00105157
0.00583657
0.0058234
0.00583618
0.00585015
0.000542702
0.00569675
0.00598384
0.000702252
0.00121305
0.00595302
0.00280336
0.00370263
0.00594497
0.00245856
0.0101361
0.0159766
0.00927181
0.00908921
0.00144272
0.00309221
0.0060092
0.00600591
0.00308082
0.000529411
0.000942031
0.00584026
0.00510822
0.00593846
0.00593308
0.00582233
0.00595607
0.00594039
0.0243666
0.00157768
0.00602838
0.0038844
0.00593712
0.00581984
0.00587953
0.000573917
0.00192197
0.0058635
0.000753991
0.00569506
0.0123633
0.00595162
0.00594394
0.0030013
0.00309383
0.00593786
0.0060373
0.00593213
0.00840496
0.000763567
0.00508098
0.0101923
0.00893333
0.00592318
0.005808
0.00313945
0.00175854
0.00593815
0.0162648
0.00242264
0.00580853
0.00601028
0.00609309
0.00204479
0.00511684
0.00585145
0.00532594
0.00173262
0.00817138
0.00954479
0.000300958
0.00313058
0.00503142
0.00595318
0.00175381
0.00400628
0.0146109
0.00110472
0.00581557
0.00465012
0.00348916
0.00569061
0.00470385
0.00594263
0.0044832
0.00586429
0.00603475
0.00287117
0.00372134
0.00594026
0.0131584
0.00530278
0.00595389
0.00338086
0.00594429
0.00584728
0.00581575
0.0020349
0.00281376
0.010389
0.00094575
0.0058593
0.000224761
0.00583385
0.00256013
0.00883718
0.00330612
0.00339092
0.00150719
0.016921
0.00593208
0.000905487
0.00378229
0.00594138
0.00210925
0.00103683
0.00608634
0.00587371
0.000700287
0.00403121
0.00592606
0.00118668
0.0116232
0.0140827
0.00106316
0.0031215
0.00179516
0.00582973
0.00597986
0.00583313
0.00144174
0.00590977
0.00299971
0.000692997
0.00594602
0.0113799
0.000679473
0.00698503
0.014003
0.00129587
0.00310376
0.00271841
0.0059749
0.00342674
0.00360719
0.00614946
0.00127899
0.00308482
0.0060295
0.00587022
0.0032079
0.00296408
0.000354109
0.00593724
0.0062308
0.00757156
0.000271927
0.00588638
0.00140446
0.0114984
0.00836419
0.000149222
0.00806926
0.0058488
0.00707173
0.00172017
0.00337774
0.00591162
0.00575445
0.00232926
0.00311377
0.00209664
0.0167299
0.00281768
0.00580882
0.00580218
0.00118264
0.00276248
0.00122093
0.00106254
0.0015902
0.000557588
0.00577201
0.00584795
0.00587872
0.00384609
0.00587971
0.00587731
0.00698731
0.000585352
0.000169728
0.00595289
0.00115855
0.00802835
0.000721337
0.0158409
0.00563913
0.00586856
0.0205127
0.00585198
0.00593951
0.00599368
0.00363754
0.00976549
0.0032653
0.00581325
0.0115068
0.00605203
0.0059241
0.00587171
0.00604015
0.00579881
0.0058215
0.00604399
0.00244925
0.0059132
0.000822451
0.00591526
0.00580374
0.00397513
0.00322945
0.00173774
0.00554893
0.00602112
0.00594001
0.00592799
0.0115102
0.00356039
0.00586383
0.00583115
0.01648
0.00581686
0.0113665
0.00244013
0.00596382
0.0157267
0.00595982
0.00471352
0.00593929
0.00590195
0.00593571
0.00243356
0.00331875
0.00582337
0.00178617
0.0057354
0.00357476
0.00397977
0.00590905
0.000634654
0.00125614
0.00565802
0.00592751
0.0107555
0.0055757
0.00318899
0.00593656
0.0058614
0.000335795
0.0116051
0.000923928
0.00231091
0.0059014
0.00559157
0.00586034
0.00595387
0.00151435
0.00592316
0.00581991
0.00585279
0.0020918
0.00581649
0.002861
0.0152559
0.0029215
0.00586527
0.00391011
0.00554793
0.00581643
0.00589321
0.00313051
0.00590385
0.00774838
0.00595389
0.00583884
0.00603338
0.00171763
0.0036157
0.00568811
0.00422103
0.000570313
0.00593944
0.00569694
0.00103907
0.00873852
0.00607462
0.000234978
0.0028895
0.00586137
0.00587566
0.00593016
0.00380557
0.00202333
0.00590452
0.00584967
0.00197969
0.00860238
0.00765384
0.00585011
0.000729129
0.00570879
0.00590304
0.0058166
0.00588183
0.00153927
0.00449551
0.00585238
0.00583163
0.00442784
0.00783742
0.00109173
0.00608599
0.00414539
0.0154499
0.0039155
0.00358812
0.000468537
0.00593837
0.0227529
0.00595226
0.0105498
0.00593033
0.00592719
0.00581537
0.00105692
0.00477799
0.00595659
0.00338365
0.00415702
0.00499007
0.00594041
0.0119099
0.00858659
0.00192346
0.005837
0.00596949
0.00583998
0.00153603
0.00573661
0.0109438
0.00585003
0.00327226
0.00268354
0.00931267
0.00616951
0.00581911
0.00243382
0.00592625
0.00583989
0.00543405
0.00580918
0.00587992
0.00559768
0.00699083
0.0109764
0.00720982
0.00193639
0.000289786
0.003231
0.00686031
0.000900602
0.00581561
0.00586999
0.0108206
0.000673903
0.00439723
0.00596046
0.00385141
0.00185378
0.00591074
0.00592943
0.0105175
0.00214365
0.00117542
0.0105422
0.00586849
0.00483369
0.00594582
0.00141194
0.00596071
0.00881264
0.00608251
0.00604215
0.00684643
0.0094801
0.00491252
0.00312764
0.0053429
0.00308368
0.00524337
0.00714455
0.00583432
0.00377206
0.0018621
0.000572832
0.00582724
0.000705164
0.00276466
0.00565077
0.00134548
0.00347094
0.00220698
0.00120109
0.00585212
0.00257852
0.00164268
0.00578456
0.00623256
0.00595176
0.00674287
0.00616661
0.00250076
0.005515
0.00276183
0.00569718
0.0219558
0.00584169
0.0097034
0.00126388
0.00167907
0.00588391
0.00580893
0.00582318
0.00588407
0.00596207
0.00590573
0.00581859
0.001705
0.00145172
0.00590799
0.0012563
0.00597484
0.00582046
0.000642645
0.00766226
0.00244462
0.00184458
0.00586924
0.0058162
0.00550748
0.00526537
0.0119184
0.00582225
0.00291876
0.00583684
0.00737228
0.00591085
0.00211615
0.00100544
0.00107581
0.00589761
0.00364617
0.00582812
0.0047265
0.000736734
0.00595209
0.00109428
0.00751225
0.00595573
0.00770504
0.0058689
0.00267939
0.00420564
0.00953542
0.0085613
0.000626469
0.00586867
0.00585461
0.0090536
0.00586998
0.000802536
0.00585011
0.00457879
0.00956842
0.00591836
0.00479369
0.00594078
0.00110656
0.00454011
0.00586337
0.000324043
0.00296668
0.00918136
0.00301649
0.000513465
0.000407942
0.000879606
0.00157688
0.00526638
0.00595068
0.00593599
0.00584621
0.00595456
0.00380124
0.00372832
0.000443262
0.00593166
0.00123107
0.00585907
0.00424466
0.00592004
0.0029803
0.00582433
0.00542311
0.00591132
0.00686955
0.00247989
0.00125597
0.00581092
0.00569065
0.00589502
0.00584526
0.00589884
0.00397309
0.00146651
0.00379437
0.00589329
0.00586194
0.00606436
0.00585212
0.00297397
0.00582834
0.000861154
0.00226013
0.0037601
0.00585546
0.00897963
0.000574283
0.000717445
0.0106325
0.00135506
0.00591463
0.00579803
0.0019488
0.00582131
0.00467463
0.0020778
0.00519382
0.00597244
0.00790118
0.0256589
0.00587431
0.00498759
0.00439422
0.00592707
0.0099629
0.00139959
0.00407186
0.00132006
0.00581598
0.00582374
0.00580275
0.00252251
0.00144065
0.0059298
0.00596641
0.00179999
0.00476705
0.00594248
0.000512253
0.0108751
0.0034116
0.00264021
0.00582046
0.00197986
0.0106539
0.00607347
0.00171028
0.0014527
0.00558268
0.00129361
0.00123109
0.0117396
0.00589529
0.000672879
0.00583855
0.00879864
0.00596277
0.00583081
0.000635167
0.00195354
0.0030734
0.00588051
0.00197793
0.00376542
0.00983731
0.00590385
0.00594825
0.00261943
0.00314961
0.011823
0.00983312
0.00378099
0.00453947
0.00583304
0.00258023
0.0058185
0.00162201
0.00365444
0.005744
0.00937183
0.00590396
0.00588065
0.000893863
0.00585598
0.00150558
0.00581891
0.00589121
0.00154972
0.00966139
0.00559913
0.00223668
0.00167059
0.00446339
0.00594685
0.00507621
0.00193432
0.00588124
0.00583459
0.0026589
0.0058051
0.00581464
0.00589616
0.00580522
0.00590687
0.00218778
0.00583546
0.00065618
0.0107602
0.00594255
0.00587784
0.00691308
0.00585877
0.0059577
0.00567987
0.00743386
0.00582342
0.00582373
0.00588943
0.00108291
0.00311349
0.00544435
0.00507925
0.00750069
0.00180347
0.0146577
0.0098141
0.00583139
0.000507423
0.00586284
0.00586205
0.00598906
0.00583718
0.00417025
0.00424147
0.00462588
0.000815209
0.00590063
0.00588654
0.000705856
0.012243
0.00146476
0.00909434
0.00599181
0.00572499
0.00584837
0.00304185
0.000662298
0.0031358
0.00587791
0.00582443
0.00528929
0.00584113
0.00349625
0.00586654
0.00502391
0.00787133
0.00581884
0.00583607
0.00593967
0.00587591
0.00185108
0.0106449
0.00596264
0.00550019
0.00585329
0.00584275
0.00548941
0.00584596
0.00595544
0.00589585
0.00588805
0.00598934
0.00571782
0.00537985
0.00593512
0.000746035
0.00586108
0.00594441
0.00606704
0.00580497
0.00452115
0.00140231
0.00588864
0.00583692
0.00593853
0.00603465
0.00108486
0.00423214
0.00594779
0.00600403
0.00310719
0.00583115
0.00274739
0.00574837
0.00764356
0.00577758
0.0058722
0.00203706
0.00294149
0.00586407
0.00583914
0.00422819
0.00971029
0.00814468
0.00580016
0.00584552
0.00256906
0.00288948
0.00587779
0.00873479
0.0104468
0.00227504
0.00593288
0.0102373
0.00279061
0.00585558
0.00580407
0.00149717
0.00190682
0.00592977
0.00596526
0.00581071
0.00585793
0.0166633
0.00589393
0.00302395
0.0107119
0.00583824
0.00293777
0.00368553
0.00713527
0.00321566
0.00640913
0.00588782
0.00529995
0.00595801
0.00582682
0.00580653
0.00593351
0.00981646
0.00583548
0.0037757
0.00587265
0.00302593
0.00672995
0.000438725
0.00758492
0.0143361
0.0040721
0.00584004
0.00580683
0.0060254
0.0227585
0.00588122
0.000256981
0.00585246
0.00296937
0.00897317
0.00437347
0.00121738
0.00590691
0.00541667
0.0024399
0.00584048
0.00586137
0.00188989
0.00546248
0.00608738
0.0046234
0.00537757
0.000411194
0.00591775
0.00581349
0.0100741
0.0128148
0.00627614
0.000851058
0.00150121
0.00275769
0.00622648
0.00770927
0.00634922
0.00525301
0.0060544
0.00593741
0.000864877
0.00607323
0.00585584
0.000535909
0.000729364
0.00283308
0.00307316
0.00196491
0.00258073
0.00173591
0.000611728
0.00594196
0.0118026
0.00542895
0.000368824
0.00648986
0.00886638
0.000929169
0.00593932
0.00647254
0.00595771
0.00902331
0.00591853
0.00219404
0.00595581
0.0059267
0.00481714
0.000491269
0.00304852
0.0102987
0.00698629
0.00583266
0.00126512
0.0058346
0.0180801
0.0081465
0.00594269
0.00594454
0.000754792
0.000344797
0.0054935
0.00591326
0.00143193
0.0058355
0.00591573
0.00584903
0.00026889
0.00444533
0.00579442
0.00396546
0.00294217
0.00410026
0.00584416
0.000681539
0.00579562
0.00192592
0.00321312
0.00590684
0.00130586
0.00593769
0.0138327
0.00293327
0.00581245
0.00474341
0.00582896
0.00581748
0.00165986
0.00587849
0.000898762
0.00585571
0.00593291
0.00159937
0.00748038
0.0126347
0.00584296
0.00378038
0.00585811
0.00599336
0.0107996
0.00925376
0.0058575
0.00644461
0.00593656
0.00582175
0.00574536
0.000568775
0.00884166
0.00601161
0.00273972
0.00591109
0.00583354
0.00585529
0.000880992
0.00190965
0.00126559
0.00592147
0.00138296
0.00415242
0.00100396
0.00592933
0.00585045
0.00827166
0.00100345
0.00595593
0.00705144
0.00390535
0.00079849
0.00581856
0.00730678
0.00666219
0.00689836
0.00379439
0.00585635
0.00583256
0.0024741
0.00063111
0.0117938
0.0016372
0.00585559
0.00592089
0.000644552
0.00722471
0.00287394
0.00254052
0.00382143
0.00219202
0.00321961
0.00594529
0.00592885
0.00523072
0.00593992
0.00141373
0.00543528
0.00561369
0.0059329
0.0186668
0.000877496
0.00591274
0.00581496
0.00749203
0.00580056
0.000511108
0.000399613
0.00579568
0.00583583
0.00587968
0.00852194
0.00591374
0.00582806
0.00594304
0.00278371
0.00666658
0.00596733
0.00594408
0.00638769
0.00576026
0.00558676
0.00525761
0.00592671
0.00398721
0.00584606
0.0102045
0.0058297
0.00911074
0.00587902
0.00205615
0.000784514
0.00522303
0.0058813
0.00625355
0.0021246
0.00591724
0.00945791
0.00582928
0.00582982
0.00625625
0.00580057
0.00933478
0.00304893
0.00654553
0.00383819
0.00297877
0.00583262
0.00125279
0.0019335
0.00588907
0.00607832
0.00581883
0.00682963
0.00841823
0.00145913
0.00576623
0.00129577
0.00535019
0.00599921