/*--------------------------------*- C++ -*----------------------------------*\
| =========                 |                                                 |
| \\      /  F ield         | OpenFOAM: The Open Source CFD Toolbox           |
|  \\    /   O peration     | Version:  v2012                                 |
|   \\  /    A nd           | Website:  www.openfoam.com                      |
|    \\/     M anipulation  |                                                 |
\*---------------------------------------------------------------------------*/
FoamFile
{
    version     2.0;
    format      ascii;
    class       volScalarField;
    location    "100";
    object      omega_0;
}
// * * * * * * * * * * * * * * * * * * * * * * * * * * * * * * * * * * * * * //

dimensions      [0 0 -1 0 0 0 0];


internalField   nonuniform List<scalar> 
27802
(
0.0668872
0.0238323
0.0255154
0.025401
3.06083
0.0245291
0.0261133
0.0247909
0.0572041
0.0252132
0.0237524
3.55746
3.3571
0.0642543
0.0242618
0.0261045
0.0220785
3.52243
0.691515
0.0538767
0.0237308
0.0246718
0.0693707
0.106389
0.0233405
0.0248783
0.0244147
0.0251846
0.0233349
2.31376
0.0245987
0.0274825
3.28226
0.0628715
3.40766
0.0243728
0.0774901
0.467944
0.0245902
0.0244003
0.0248625
0.0244061
2.9799
0.145426
0.0235625
0.0242347
0.183657
0.0246714
0.0231954
0.0416156
0.0275358
0.0235632
0.369785
0.0235448
0.0242427
0.0244992
6.28463
0.0603694
0.024678
4.60921
0.0243738
0.0246548
0.334053
0.0272722
3.509
0.084379
3.17468
0.0253472
3.07789
0.0270306
0.0240034
0.134031
1.35718
0.131413
0.378451
0.0276865
0.516506
3.29602
0.0408246
0.0260276
3.01106
0.0657161
0.0232252
0.0597144
0.0243223
0.0261251
0.0233116
0.0242373
0.13472
0.251383
3.43419
0.0246137
0.0878007
0.0260112
0.0233925
0.0246754
0.0301394
3.08065
0.0248624
0.175243
0.0574269
0.0248781
0.0260057
0.0257665
0.235965
0.0246117
0.129848
0.0586009
0.0243753
0.0383516
0.0263785
0.0242509
0.0248783
0.085299
0.0232696
0.111681
0.0288336
0.0238751
0.0281529
0.0526517
3.40463
3.47814
0.0377998
0.0233277
0.0244546
0.0310756
0.207832
0.365228
3.3677
3.38174
0.0260062
0.037389
0.0250958
0.0250965
0.0232236
0.0251318
0.0250507
0.0233307
0.0523304
0.0761165
0.0252235
0.0244404
0.03121
0.0232318
0.0232618
0.0255251
0.0250381
0.0253151
0.0236043
0.0250003
0.0237901
0.0246585
0.0263964
0.0254173
0.0502969
0.0241711
0.061318
0.172443
0.0381859
0.123419
0.201941
0.135055
0.0261037
0.028086
0.022099
0.0230398
0.0238905
0.024534
0.0246047
0.0558411
0.0257377
0.0287365
0.0241844
2.13944
0.0246004
3.4256
0.0230239
0.0302896
0.0235224
0.0812701
0.106404
0.035071
0.0323631
0.0254636
0.0241796
0.0570921
0.0241658
0.0247197
0.161109
0.312111
0.0238107
0.0267857
0.0660038
0.0255797
0.0228424
0.0244089
0.0228391
0.0234459
0.0243068
0.024437
3.86951
1.55396
0.540635
0.0278066
0.0243718
0.0374326
0.0262676
0.254769
0.0224755
4.23723
0.0244112
1.11375
3.37383
0.0301266
0.166436
0.0241908
0.361068
0.0260116
0.024696
0.0241422
3.39439
0.0221485
0.0561549
0.140536
0.0241696
0.0232993
0.023255
0.0267621
0.024237
0.0248902
0.0221477
5.737
0.0246794
0.0335636
0.649716
0.078897
0.0245624
0.2551
3.33858
0.0253602
0.0244783
1.25332
1.4906
0.0246953
0.0260643
3.18778
0.023416
0.328782
0.0258266
0.0254074
0.493303
0.0337755
0.065864
0.0245294
0.0261295
0.0228491
0.0242377
0.0731375
0.0277889
0.0228297
0.0338343
0.0248041
3.25156
0.022449
3.75005
0.0302534
3.87591
0.0248926
0.0221435
0.0246065
0.176499
0.0241089
0.0741496
0.0696774
0.025541
0.216956
0.0251468
0.0381239
0.0300561
0.0242004
0.56747
0.0337298
0.0258378
0.0431987
0.215822
1.54101
0.0637214
0.0247815
0.0279229
0.0239917
0.0222047
0.0528327
0.0228769
1.4605
0.0228677
0.042365
0.115039
0.0243623
3.80222
0.204575
0.0849164
0.0253835
0.0283466
0.120001
1.00198
0.0531475
0.0247863
3.71286
0.031598
0.0251946
0.0314638
0.0560225
0.0708114
0.025128
0.0329705
0.0244077
0.0317111
0.0657794
0.0380831
0.0663889
0.0248136
0.0243801
0.0222163
0.0235634
0.45941
0.0249641
3.28375
0.0249554
0.024376
0.0324913
0.0251174
2.39266
0.376433
0.125357
0.13777
2.13019
0.0713577
0.0240231
0.0695127
0.0240888
0.0221177
3.53669
2.48761
0.0437145
0.131264
0.597621
0.184415
0.132177
0.025819
0.266278
0.0229912
3.24441
0.0244647
0.0250801
0.0247922
0.0251407
0.273573
0.262933
0.0239771
0.0236133
0.0477234
0.940802
0.0236755
0.0376426
0.0228307
0.0247223
0.113263
0.0247633
0.033548
0.0242039
0.0239991
0.186941
0.038972
0.109888
0.555286
3.85756
0.0394251
0.0263083
0.0312611
0.0242571
0.024718
0.0228407
0.0247346
0.0237485
0.0236584
0.0246101
0.202249
0.0270187
0.0484323
0.0316178
0.0239477
0.0244702
0.0311884
0.0383178
0.0242734
2.58219
0.745438
0.0687736
0.0243189
0.0668097
3.5315
0.0385283
0.0239103
0.0526393
0.0246135
0.223203
0.0343772
0.1866
1.53147
0.0355754
4.27535
0.025187
3.383
3.3209
0.36461
0.0246932
0.0236154
0.0329325
0.0232237
0.27488
3.01982
0.0256969
0.0274643
0.0248803
0.359658
0.0253112
0.0267233
3.43592
0.0480856
0.0273884
0.0240797
0.0337972
0.347934
0.024207
0.0252519
0.0243113
0.0858441
0.266241
0.297393
0.0324741
0.0489058
0.0279373
0.0236762
0.0240234
0.0707272
0.0244252
0.0233945
0.0264477
0.0704611
0.0426824
0.930294
2.60414
0.325611
2.98636
0.0228826
0.0402592
0.0330296
0.332086
0.588833
0.0241987
0.0434084
0.185738
0.0470743
0.0530137
0.0221078
0.0264626
0.355021
0.0244189
0.198038
0.0233882
0.0297187
0.0241221
0.0246591
0.141689
0.185252
0.938203
0.0251723
5.39576
0.0221357
0.0275859
0.10102
0.0275594
0.0269791
0.0669943
0.0710046
0.292063
0.0259774
0.0251399
0.102733
0.0241989
0.0243743
0.321823
0.0244184
3.75301
0.0251056
3.58174
0.311099
0.303723
0.0242154
0.0641277
3.35589
0.0380123
0.914013
0.127467
0.285504
0.24402
0.0256547
0.0338417
0.0720217
0.0250403
0.0245282
1.4338
0.0402879
0.0238743
0.0240243
0.185206
0.373955
0.0521928
0.0243174
0.0422308
0.0264734
0.675117
0.0247633
0.0322561
0.124521
0.0241159
0.0228547
0.0250893
2.31686
3.5587
0.046178
1.38308
0.0234687
0.0249562
3.57453
0.0242642
0.0408209
0.0242051
0.0228652
0.0640163
0.250638
0.0238382
0.0251841
0.0234763
0.0709394
0.0239877
0.0302896
0.294467
0.0483102
0.0715866
2.89073
0.090664
2.2335
1.39022
0.0245962
3.55187
0.0251393
0.0445862
0.0250898
0.0248169
0.0245788
1.51919
0.0244504
0.0242143
0.0233079
0.230849
0.0260463
0.0254415
0.0836294
0.202345
0.221762
3.54356
3.04388
0.0382628
0.11218
0.0301275
3.85389
0.0247092
0.0569097
0.20806
0.14985
3.4554
0.0341198
0.0255281
2.83923
0.045886
0.0229579
2.80651
0.0825072
0.227051
0.0801178
0.0867626
0.0229657
0.0257174
0.0455344
0.0239868
0.0467132
0.133974
0.0228913
0.0259334
0.0235135
0.158396
0.123755
0.0255288
0.731218
3.40793
0.0274096
0.0300465
0.0244665
3.2209
0.959777
0.879727
0.0598771
0.0572614
0.311395
0.0242709
0.143994
0.025818
3.70003
3.57572
0.0235003
0.0381243
1.52549
0.227157
0.0253295
2.88145
0.0324655
2.98051
0.0348315
0.0256535
0.510229
3.52262
0.0817509
0.0243338
0.0428078
0.0291066
0.0463972
0.0258677
3.02434
0.0243373
0.0245691
0.0279205
0.0401018
3.81374
0.134731
0.027076
3.25571
0.0369847
3.10248
0.024314
0.0360237
0.0712089
0.0962085
2.96283
0.0281084
0.320859
0.0260149
0.0230653
0.0254854
0.0246945
0.0246046
0.0400966
0.217512
0.189804
0.0249462
0.045308
0.0264153
0.0278556
0.144609
0.0230484
0.0251783
0.461411
0.190055
0.0278808
0.0240431
0.0253911
0.0249732
0.0316152
0.0253287
0.371914
0.378334
0.0270016
0.0780053
0.0531447
2.92198
3.06134
0.0710826
0.024116
0.0459544
0.0242864
0.299539
0.0251454
0.174295
0.0465846
3.46825
0.0229971
0.0245208
0.152547
0.0259395
0.0233324
0.0278507
0.0996698
0.0242135
0.0654379
0.0245956
0.352093
0.0239219
0.0283746
0.0906675
0.0325413
0.0291743
0.855074
0.053162
0.0377867
0.0708588
0.0266637
3.8469
2.8828
0.139539
0.0378585
3.14299
0.0238128
0.0264241
0.0276003
2.91958
0.058264
0.0272314
0.0270625
0.141227
3.52042
0.748243
3.25621
0.0313076
0.069229
2.71431
0.025294
0.127253
1.38158
0.043129
0.0229621
0.0482188
0.0241906
0.219518
0.0221638
0.0589317
3.56222
0.0256212
0.0245037
0.197879
3.54875
0.0375458
0.0305244
0.0229428
0.0271001
0.0303983
0.0587378
0.0421859
0.459575
0.0480493
0.0254161
0.0263306
0.057712
0.288731
1.29093
0.0236886
1.2219
3.07777
0.0274385
0.0253397
0.0239308
0.0251961
3.35733
0.0239221
0.0291244
0.0260942
0.722831
3.64921
0.0249303
0.0244957
0.0288068
1.46227
0.0220846
0.0287441
0.0508861
0.0535838
0.0239507
3.02458
0.0282551
0.258947
0.0257304
0.024904
0.0303613
0.0283642
3.1096
0.0302072
2.90705
0.178564
0.0387182
0.183938
0.381008
0.0367357
0.0279519
0.0305712
0.0236941
0.0281276
0.0671895
0.0300866
0.0765595
0.249218
0.389673
0.0233971
2.38533
0.87477
0.367499
0.0684072
0.124848
0.0283607
0.465792
0.11392
0.023006
0.0236808
0.0240745
0.0244759
1.33379
0.0237035
0.0249128
3.7586
0.328234
3.70389
0.0243267
0.0330909
0.0252845
0.025468
0.0536461
0.0244004
0.210176
0.0275213
0.0446809
0.0233799
0.0233708
0.162399
0.0277122
0.329513
0.0255119
0.0221841
0.302495
0.0239714
0.024214
3.53349
0.0985386
0.0718437
0.0383367
0.0248774
0.0235189
0.0255516
0.0251202
0.317361
0.0834933
0.258073
0.0260537
0.0463785
0.0476839
0.0249082
0.0291141
3.72147
0.0314871
0.0248493
0.0304065
0.0236964
0.0230155
3.13966
0.0567883
0.0238457
0.0244722
0.0373668
0.0690705
0.0299397
2.9234
0.0254341
0.0268771
0.603933
0.0247528
0.0253549
0.0247356
0.0430667
0.0721829
0.0249301
0.15598
0.0263357
1.8735
0.0255289
0.0242143
0.595681
0.0240516
0.0244992
0.0235378
0.0243814
0.0243204
3.38081
0.0251196
0.523561
0.024011
0.0278204
0.0235088
0.0236041
0.0236264
0.0243681
0.0301942
0.466142
0.0439962
0.0593937
0.0239604
0.880778
0.0379087
0.0391485
0.0250689
0.0239887
0.023095
0.0281264
0.0244447
0.250901
0.0222322
0.0254128
0.0278744
4.00162
0.0241373
0.0353654
0.0234047
0.0221604
0.06038
0.347173
2.87952
0.0239207
0.0235559
0.0680633
0.023799
3.59257
0.129841
0.0464666
3.0287
0.0221413
0.287496
0.0250957
0.0484413
0.0468389
1.51475
0.0233277
0.0379077
3.13533
0.0241525
0.0262354
0.0258206
0.37177
0.0595739
0.0452901
0.0245941
0.0236731
0.327684
0.0786057
0.954045
0.0337562
0.0872221
0.0238783
0.025827
0.0236022
0.62372
0.0229583
0.0224061
0.0246119
0.0322973
0.0574211
0.0234117
0.0312112
0.0229436
0.0238317
0.17136
0.027572
0.0393883
0.0247501
0.0858595
0.0386962
0.0236768
2.68925
0.0252607
0.0540961
0.0231041
3.70734
0.0427657
0.0253092
0.0221458
0.0332415
0.0223491
0.252043
0.372729
0.0242443
0.0254199
3.41276
0.913109
0.0246168
2.87604
3.64363
0.131752
0.0240481
0.0323914
5.07661
3.67486
0.0247583
0.684897
0.0222044
0.0243341
0.0242771
0.0242489
0.0273232
0.0236922
0.0302249
0.137635
0.295092
0.350111
0.0361962
0.0249644
0.0486249
0.0569932
0.0233112
0.023537
3.07992
0.0336062
0.024262
0.604112
0.0249632
1.84461
0.706764
0.0237018
0.38248
0.022385
0.025836
2.90732
0.0581942
0.024068
0.0249923
0.0232625
0.0267965
0.0247427
0.024247
2.86095
1.39794
0.0302941
0.0869586
0.0249736
0.0246787
3.08992
3.35381
0.0253149
0.0810975
0.0453985
0.346934
0.136656
0.0237525
0.0242938
3.49233
0.0497965
0.0245734
0.0426873
0.589667
3.39292
0.58502
0.0279835
0.024639
0.334276
0.0242276
0.0295862
0.0337934
0.0410615
2.94784
0.0238158
0.0243181
0.0240187
0.024736
0.0793982
0.0242065
0.0240872
3.78086
4.19912
0.0564206
0.072917
0.0260925
0.0258729
3.05073
3.66283
0.0269357
0.0338896
0.025519
3.56967
0.0810793
0.0565599
0.0385289
0.038192
0.0239006
0.0245932
0.0242862
0.0246344
0.0237964
0.0632847
0.0304481
0.0275538
3.16241
0.052459
0.0364404
3.31715
0.0246324
0.777934
0.0834629
0.577703
0.0262447
0.887525
0.0467979
0.0229679
0.0475862
0.0245246
0.0240601
0.0598555
0.023818
0.344745
0.0254113
0.0261672
0.0247374
0.0382727
0.0253655
0.0243271
0.0236919
0.0240947
0.0254067
0.0374436
0.676242
0.0235054
3.12205
0.0277266
2.95237
0.0258206
0.0308724
0.61719
0.023701
0.0234351
3.30632
0.023693
0.0376235
0.0250406
0.605891
0.20938
3.34406
2.8747
0.0253452
0.0273952
0.868653
0.024057
0.0429241
0.0255352
0.0243945
0.0805834
2.74088
0.752459
0.0904142
0.0688465
0.0244492
2.4259
3.36079
0.0716546
0.047229
2.7403
1.52131
0.0353303
0.223973
0.381082
0.0264038
0.0986297
0.0799815
0.0274695
0.0249562
0.0303451
0.159777
0.0256986
0.353729
0.0780575
0.0253463
0.0231897
0.302693
0.374344
0.0238465
0.0282712
0.0256077
0.275427
3.34449
0.0408577
0.0252626
0.0238624
0.0252463
0.0338137
0.0963157
0.0300782
0.0266497
0.803643
0.0245707
0.0276963
1.33318
0.0239751
0.0259101
0.037779
0.0233062
0.0853359
3.34082
0.0309571
1.42283
0.273244
0.0515457
0.0247793
0.0332127
0.0548833
0.0244621
4.20906
3.46253
0.0730944
0.023697
0.822171
0.213583
0.0555572
0.0811806
0.0222045
0.30755
0.024914
3.61604
2.84971
0.0249145
0.0251112
0.023398
0.0337446
0.0258639
0.0259028
0.0238305
0.023409
0.0328592
0.023393
0.031641
0.128719
0.104856
3.09754
0.0250089
0.0412647
0.0335543
0.0266653
0.137781
0.0237653
0.0303903
0.0254832
0.0233907
0.0238649
3.1379
0.0501852
0.0242762
0.0255832
0.211541
0.0529375
0.266336
0.0278502
0.0232896
0.0298413
0.227085
1.50711
0.0236777
0.391918
0.0270158
0.0236314
0.0236947
0.441373
0.0235525
0.0251159
0.026362
0.0283179
0.0350835
2.94227
0.0382262
0.0241715
0.0669573
0.0246462
3.34869
0.220716
0.0242689
0.0236737
2.36907
3.62381
3.31946
0.108643
0.269517
0.0823903
0.0293625
0.0242585
0.0233957
0.357106
0.0310087
0.0316336
0.231112
0.0724948
0.0243502
0.0337987
0.0246288
0.109135
0.0237009
0.023184
0.0232158
0.0474826
0.0250155
0.0247456
0.137413
0.0545763
0.0264316
1.52226
0.0247972
0.868546
0.0380945
0.0243481
0.0311856
3.83039
0.212537
0.0252505
0.0255533
0.0723812
0.0257998
0.0249468
0.328309
0.110148
0.0232414
0.0233774
0.328481
3.55912
0.0232724
0.0267318
0.0566853
0.0254395
0.0231879
0.245824
0.684436
0.0245958
0.0392955
3.44188
0.110467
0.0222103
0.068116
0.027259
0.0240058
0.0268867
2.43223
0.0299942
3.36959
0.0243813
0.0232881
2.78949
0.0243066
0.0245345
0.0270093
0.109564
0.0407778
0.0274445
0.0244011
0.0232797
0.0233609
0.120334
3.84051
0.0446678
0.0328435
0.0380663
0.0242017
0.0571822
0.275192
0.0570934
0.0221834
0.0445369
0.350614
0.38023
0.0258301
0.0369325
3.69152
0.0234604
0.0222295
0.507392
0.0241686
2.92458
0.0244395
0.805174
0.029772
0.0727838
0.0283793
0.0820914
0.0239435
0.0235421
0.0434297
0.0235762
0.372619
0.0258138
0.0223252
0.0240807
2.77367
0.417292
2.92354
0.0234855
2.43089
0.0235847
0.209757
0.107617
0.0704433
4.72579
0.0672161
0.024863
0.0328721
3.19538
0.0234483
0.0308357
0.0257179
0.0244387
0.0237726
0.417666
0.388192
0.0443021
0.0240412
0.0246978
0.0561255
0.0405034
0.0243624
0.0256727
0.0234033
0.0302014
0.0245394
0.0471509
3.90682
0.0222355
0.0256613
0.0418244
0.0234302
0.02531
0.509592
3.37913
0.0263
0.0235749
0.426246
0.0302126
0.0283662
0.0246112
1.50974
0.0302154
2.93584
0.0403956
3.46181
2.53065
0.215567
0.0284638
0.0365637
0.195635
0.0239744
0.0238065
0.140163
0.0235614
0.0457395
0.696085
0.0266723
2.77656
0.024075
0.339183
0.132589
3.26505
2.86389
0.0254807
0.0247412
0.0255696
0.0852241
0.0243927
0.0250295
0.474312
0.253882
2.88662
0.0407893
0.0356729
0.0279763
0.0230301
0.95677
0.0245303
0.0372151
0.0245661
0.0232217
2.87725
0.0241053
0.0305903
1.64155
0.0243103
0.0261487
0.0261678
0.24838
3.19787
0.0245688
0.0335898
3.4876
0.0247504
5.61874
0.027319
0.0240308
0.0453654
0.0261437
0.0328416
0.0246629
0.0245723
0.0243656
0.0669133
0.218564
0.0338853
0.0238538
0.416646
0.0232271
0.0230376
0.835434
0.0259233
0.11866
0.0247023
0.0239554
0.0241062
0.204723
0.0233903
0.39937
3.38076
0.0240234
0.0242458
0.0262718
0.0297044
0.136431
0.0499115
0.0256661
0.025665
0.023944
0.0249291
0.0411658
0.024764
1.01799
0.787261
0.0251292
0.0444762
0.0247045
0.0252574
0.0254266
0.0252386
0.0251858
0.0251919
0.0245925
0.0229065
0.414522
0.0244639
0.0342374
0.0241977
0.0254826
0.0397916
0.0463741
0.318813
0.778258
0.0391178
0.0244455
0.0248
0.0261106
0.0261865
2.79083
0.812413
0.285371
0.0303064
0.0245351
0.0257669
0.0248116
0.908142
3.40313
0.216821
2.7523
3.84497
0.0253663
0.349993
0.0243538
0.0405215
0.0334001
0.0243525
0.0323241
0.024588
0.111274
0.49555
0.0244305
0.0248012
0.0287182
0.140569
0.0333414
0.0246012
0.0262763
0.0248871
0.0276407
0.0247261
0.0309139
0.0249877
0.108089
0.0246777
0.0480888
3.50637
3.36879
0.040949
0.62696
0.0258519
2.91369
1.4743
3.54357
0.0250411
0.144831
0.023561
0.296179
0.671507
0.0280996
0.793607
0.0265165
0.0251387
0.111754
0.0251693
0.0287003
0.472808
0.0363687
0.0232066
2.91182
0.055928
0.0263379
0.172369
3.58694
0.207759
0.0268076
0.0241296
0.0257397
0.0247014
0.198453
0.961078
0.0247924
0.0245259
2.68216
3.32205
0.0233363
0.0241117
0.110942
0.887634
0.0295058
0.0232303
0.0241834
0.0481593
0.023909
0.0271385
0.0222226
0.0934333
2.93858
2.80146
0.104631
0.0242996
0.0241835
0.0246033
0.0229539
0.190302
0.0281791
0.0244585
0.212294
0.0495667
0.0257172
0.0280612
0.0270543
0.025211
0.0382816
3.3347
1.50171
3.06185
3.40535
0.0476559
0.0313781
0.0256368
0.0251772
0.0333916
0.20137
0.0576098
0.0241515
0.0264291
0.0238016
0.0253194
0.024183
0.0248474
0.0240132
0.352375
0.0388048
0.0258629
0.0446788
0.0253228
0.0240491
0.0246748
0.128279
0.0463551
0.0244529
0.400012
0.0301686
0.431567
0.025161
0.0248674
0.0601697
0.80566
0.0237466
0.032724
0.0244695
3.58505
0.159755
0.0342615
0.790539
0.814208
0.023978
0.0234203
0.0303582
0.0364332
0.025267
1.36445
0.033596
0.0234241
0.0240765
0.434454
0.0348824
3.83782
0.0255859
0.0374151
0.0447691
2.75806
2.9752
0.476381
0.0334337
0.0265212
0.0257434
0.0694041
0.0430888
0.364112
0.354065
0.0236334
0.054147
0.0289556
0.0282369
0.0256524
0.0240832
0.034082
0.0232577
0.0243086
0.0397686
0.0267448
0.0247739
0.671186
0.0394937
0.0420352
0.0330342
0.0252788
0.0257324
0.0236274
0.0381882
0.0281923
3.3127
0.204944
0.0234238
0.573428
2.51087
2.63859
0.372572
0.0331932
0.21391
0.0503971
0.439808
0.0244342
0.0633536
0.040928
0.0247703
0.0333357
0.193822
0.0325391
0.0247355
0.195008
0.0283003
0.0236754
1.02231
3.5412
1.4003
0.561124
0.594126
0.0435732
0.0230071
0.0245937
0.023018
0.06174
0.0237494
0.0311295
0.144519
0.0487968
0.331239
0.223635
3.55479
3.52815
0.0678277
0.0330878
0.0339325
2.98991
0.0447906
0.0287012
0.0282362
0.0476896
0.0308572
0.0316095
0.025973
2.77824
0.0587732
1.26809
0.0252684
2.97718
2.96396
0.305707
0.0258002
0.0439886
3.53342
2.69203
0.395406
1.30098
0.0235539
2.86927
0.225922
0.0393939
0.0248666
3.01194
0.0382512
0.0356009
0.0349097
0.448483
0.0418439
0.022902
0.022884
0.0817368
0.0392949
0.0777519
0.235681
0.039311
0.1308
0.0267605
0.0231982
0.0233105
0.219291
0.0247601
0.0247462
3.4049
0.181263
0.622754
0.0246057
0.131155
2.75172
0.21728
0.442077
0.0252694
0.024267
0.443644
0.0242728
0.0243597
0.0316595
0.0943687
3.72224
0.046826
0.023585
3.23742
0.0256641
0.0250484
0.0247231
0.0263384
0.0228096
0.0242371
0.0258547
0.0576382
0.0251201
0.097721
0.0232666
0.0232146
0.0434747
0.033805
0.0665246
0.0289919
0.0248519
0.0253352
0.0233732
3.44108
0.0276072
0.0235285
0.0242398
1.40167
0.0255271
3.44322
0.037613
0.0247817
0.663968
0.0246194
0.0259046
0.0247692
0.0245628
0.0249965
0.0326619
0.0293843
0.0244775
0.0505927
0.0268932
0.0334748
0.0326885
0.0242675
0.153771
0.0759886
0.0284781
0.0234148
3.34597
0.0286971
0.0333594
0.0244613
0.0235709
0.272125
0.377009
0.168912
0.349195
0.0303982
0.0279809
0.0244439
0.0248213
0.0687055
0.0233851
0.0238269
0.0231615
0.0334554
0.0238498
0.0331077
0.441085
0.035237
0.023574
0.070765
0.0295452
0.0238442
0.023977
0.039837
0.02382
3.69734
0.0246297
0.0238991
0.0255641
0.0505237
0.028101
0.0259718
0.0270117
0.125033
0.0252921
0.0272611
0.0633783
0.677009
0.0261482
0.581363
0.0277853
0.0253322
0.024608
0.0253606
0.0458634
0.0336256
0.0252625
0.0242614
0.0358909
2.8241
2.73726
0.0240897
0.107306
0.0385336
0.023923
0.023286
0.0246386
0.130375
0.0754782
0.0245928
0.0242354
0.0263274
3.01752
0.104325
0.0258781
0.0256214
0.68707
0.0443259
0.027911
0.147108
0.0310373
0.478365
0.0246733
2.97441
0.0248567
0.0233486
0.0232803
0.105615
0.0624577
0.0249869
0.0262325
0.0284088
0.035819
0.025218
0.6539
0.326458
0.0378416
0.0238876
0.0281816
0.0241471
0.972526
0.0330313
3.7382
0.0262398
0.0280968
0.0278176
0.790238
0.0268223
0.0238187
0.794009
0.0233075
0.024316
0.786077
0.0234879
0.024356
0.0293632
0.333981
0.349464
0.0450979
0.0463919
0.271095
0.0388355
0.900717
0.0945035
0.0246638
0.0227338
3.83864
0.139788
4.29865
0.0246583
0.0451868
0.035472
0.0237598
0.0333211
0.382479
0.0334414
0.0752236
0.384055
0.0252176
0.0255939
0.0248679
0.0523404
0.0237478
3.00586
0.0263595
0.0243529
0.517852
3.14563
0.0436758
0.0333278
0.0251564
0.0299529
0.0255333
0.605222
0.024402
0.0463497
0.128386
0.194017
0.0239668
0.228889
0.0315226
0.036356
0.0727093
0.0263156
0.474228
0.0835212
0.0234764
0.0429019
0.0454711
0.0220852
0.0283182
0.0248796
0.290402
0.0368589
0.0669595
1.90645
0.0306374
0.0276278
0.464836
0.0238008
0.751398
0.0697855
0.464262
0.0240497
0.0234915
0.0236104
0.0247723
0.0248388
0.0243853
0.0240128
0.0751563
0.052433
0.0251889
0.0915563
0.0244428
0.0235789
0.133316
0.030473
0.0464325
0.638752
0.0223472
0.0238744
0.0253175
0.0405859
3.58091
0.0243551
0.0275812
0.0240904
3.20053
0.0237626
0.0367444
0.0541242
0.0841909
0.0237957
0.0282342
0.0236128
0.0876629
0.10601
0.0344385
0.187137
0.182477
0.024763
0.663361
0.0247143
0.103671
0.0267315
0.921543
0.270629
0.2638
0.0242626
0.0235614
0.361837
0.0260599
0.138465
0.0223092
0.656299
0.364378
0.0234634
0.0340675
0.0245326
0.356261
0.293122
0.026132
0.587922
0.0279831
3.04086
0.0296849
0.150448
0.251909
0.0648747
0.0734714
0.0252916
0.0282378
0.0252452
0.0240876
0.024915
0.0285667
0.0469771
0.156247
0.0253778
0.10257
0.0235737
0.0258333
0.0251784
0.0319221
0.0242033
0.0252548
0.0245029
3.0114
0.0667858
0.241908
0.0235854
0.266534
0.0234596
0.0226515
0.0239819
0.0435222
0.0748109
0.436457
0.0234695
0.0242018
0.0260791
0.0245994
0.0299353
0.0239775
0.0768479
0.220501
0.0429533
0.0257117
0.365321
0.14487
0.180929
0.878571
0.0564519
0.0235948
0.0221611
0.0692093
0.0241717
0.229259
0.0331169
0.760764
0.0250273
0.346504
0.363622
0.0251221
0.0317529
2.89538
0.0249913
0.399595
0.054385
0.0269012
0.260942
0.0238722
0.024486
0.0231028
0.118318
0.0646816
0.0245376
0.0247228
0.175398
3.37959
0.0248632
0.136282
3.73257
5.12688
0.24039
0.0242265
0.0347016
0.378092
0.026085
0.185716
0.0675095
0.0280899
0.223116
0.0808961
2.87622
0.0245482
0.229081
0.0238145
0.319215
0.0248425
0.0237019
0.119258
0.0365171
0.0365854
0.0235121
1.79305
0.0464214
2.76102
0.0237248
0.0250619
0.0758516
0.0473915
3.48662
3.77853
0.273138
4.5739
0.026307
0.0318053
0.0236935
0.0560478
0.0835085
0.0252197
0.905026
0.0237205
0.0250311
2.18094
0.0230595
0.0657948
0.02336
0.0234239
0.0567697
0.746454
0.0289555
0.0906203
0.239243
3.32968
0.0250994
0.0265218
0.0369221
0.0233475
0.0242951
0.0306761
0.0228798
0.0233316
0.0288553
0.0232823
0.0233431
0.03205
0.0238665
0.136439
3.77024
0.0246143
0.0239707
0.0360033
0.0241907
0.0248897
0.0461499
0.468243
0.0258608
0.0239695
0.0240632
0.0865456
0.0280196
0.0300316
0.0252148
0.0329116
0.0735726
1.57075
3.19435
0.0236475
0.146214
0.0230791
0.0242181
2.96596
0.0238781
0.0268638
2.94898
0.348737
0.101103
0.0238915
0.023895
0.739613
0.421958
0.0615446
0.366041
0.0247581
0.0309726
0.0245695
0.036048
0.224471
0.0301331
0.0259015
0.0246572
0.0259765
0.0243864
0.038924
0.0245803
0.524879
3.65237
0.0236888
0.025929
0.025062
0.0239977
0.0348171
3.33393
0.0247778
0.0345774
0.0235074
0.0250202
0.0251286
0.0240954
0.0250691
0.0256873
0.0238111
0.024614
3.70074
1.24026
0.0253201
0.0943958
0.0242468
0.0252742
0.0259174
0.0232089
0.418612
0.040695
0.0234968
0.0240972
0.0252763
0.0465011
0.0520838
0.0284205
0.0252161
0.0243391
0.038952
0.0246619
0.0416442
0.027657
0.353578
0.0267292
0.024603
0.0409148
2.54924
0.0259418
0.0229585
0.0269862
3.14671
0.62428
0.0221681
0.0250496
0.0320676
0.0272218
0.0227814
3.14485
0.88085
0.069529
0.0248815
0.39086
0.0656317
0.0235507
0.0232289
0.0591693
0.129079
0.0253681
0.0250806
0.023573
0.0244427
1.40541
0.0238111
0.030005
3.77567
0.0236268
0.0322051
0.0506641
3.39267
0.0559919
0.0367012
0.023555
0.025138
0.0248785
0.0265826
0.0233525
0.0244332
3.1647
0.024116
0.0404886
0.0231829
0.050079
0.458196
0.171212
2.20465
3.21258
0.0420147
0.0232694
0.0233651
0.0255121
0.476654
0.0247349
0.277955
0.0226942
0.0318214
3.68011
0.0362856
0.0477809
0.0238348
0.0265581
0.0386184
0.0236337
0.0242401
0.0361707
0.036741
0.0267067
0.0349622
2.79247
0.248646
0.0245238
0.0337403
3.39072
0.336742
1.20591
0.109607
0.0567412
0.0276106
0.0325954
2.73493
0.0445077
2.96556
0.0337289
0.0238702
0.0791695
0.0258511
0.0245222
0.132494
0.221589
0.0346398
0.0300632
0.0380252
0.0312036
0.0694422
0.140882
0.0250689
0.826953
3.93278
0.226534
0.0412138
3.50847
0.161214
0.0242552
0.452133
0.0249919
0.372491
0.0231571
0.038465
0.0247368
0.0234542
0.0424296
0.216017
0.127289
0.287129
0.466239
0.0243984
0.0700893
0.0236468
0.496468
0.68176
0.0242759
0.0246145
0.0963467
0.386584
0.0343745
0.0245303
2.21791
0.0241098
0.0232363
0.0234603
0.270388
3.45333
0.022694
0.0323187
0.0305274
0.0279702
0.0229715
0.204244
0.0227416
0.0361974
0.0302745
0.0245106
0.0742234
0.0238137
3.41971
0.0331966
0.022938
0.0259118
0.023461
0.0230764
0.142123
0.0246797
0.107114
0.0237637
0.0245061
0.0683629
2.9322
3.31102
0.0240869
0.0266086
0.0244317
2.83507
3.28386
3.20391
0.024233
3.40464
0.0238538
0.0240991
0.0269952
0.188598
0.36879
0.0251598
0.032129
0.0243941
0.0243841
0.0245927
0.0879518
0.0567961
0.209163
0.0238
0.0494656
0.0347467
0.0681895
0.0244083
0.0240215
1.87882
0.0616948
0.0250466
3.33462
0.0721572
0.0802709
0.0229717
3.28916
0.626137
3.30143
0.0270234
0.0243597
0.0259987
0.0375723
0.1158
3.57856
0.146742
0.0234563
0.0245481
0.105654
0.0330405
0.0274069
0.038661
0.103772
0.0697954
0.0290779
0.0241321
0.0253682
0.0395627
0.0241813
0.065649
0.0374259
0.169572
0.0245632
0.414955
0.0668678
0.0239573
0.0233361
3.0611
0.0230207
0.146873
0.899709
0.0227564
0.0231292
0.0239115
2.82004
0.0231576
0.0263483
0.0241605
0.0656893
2.99011
0.0249857
0.0252697
0.0413152
2.99596
0.0280741
0.0344958
0.0247526
0.0694552
0.0239515
3.67754
0.0234583
0.386874
0.0239897
0.0443272
0.0724293
0.234192
0.0246936
0.0271905
0.0330165
0.0239499
3.16799
0.0239969
0.024107
0.441063
0.023021
3.15037
0.130329
0.190335
0.0263573
0.0284099
0.0242997
0.0710027
0.044133
0.0247139
0.0290342
0.17907
3.01859
2.74998
0.0502298
0.0374912
0.0656586
0.0330997
0.0248876
0.043942
0.0250964
0.0228078
3.19478
3.63914
0.0243906
0.0367325
0.0251399
3.71929
3.53568
0.0244527
0.0239101
0.315609
0.0241289
2.83864
0.655096
0.027401
0.0431629
0.0263065
0.434686
0.0285252
3.80408
0.331883
0.0248921
0.0251981
0.0352618
3.39428
0.413543
0.0245817
0.995965
0.026343
0.0226182
0.4694
0.029083
0.923801
0.0241278
0.024532
0.0247955
0.106558
0.022662
0.026252
0.0568236
0.0252714
2.97799
0.046911
0.024901
0.0884213
0.0253046
0.169554
0.607829
0.0260583
0.23168
0.0253158
0.423252
0.0247414
0.0256153
0.0388706
0.893011
0.0243638
0.024729
0.0260638
0.0970562
3.01724
0.0220891
0.0342561
0.0457452
0.0243827
0.0229313
0.0245656
0.0402998
3.04835
0.0356061
3.15263
3.72285
0.181294
0.0496112
0.0236332
0.0272765
0.0242076
0.0358008
3.68769
0.0834079
0.0298731
0.041687
0.0935729
0.0370802
0.0247121
2.88092
0.0238679
0.107142
0.665187
0.240663
0.0229824
0.0295337
0.0254498
0.0230109
0.0332737
0.0692018
0.111546
0.0292858
0.0273154
0.0245663
0.0230824
0.0243412
0.0887545
0.0253709
0.0596083
0.0239198
0.0226341
0.0235858
0.346619
0.0238333
0.0237432
2.89759
0.0230549
0.0261175
0.0293763
2.16757
0.0227564
0.0255767
3.09954
0.0257887
3.39337
4.03605
0.0248378
0.139952
0.316767
0.0247938
0.0328142
0.0244897
0.0236254
2.93248
0.0233147
0.18314
0.0244254
0.123231
0.0230522
0.128546
0.0325478
0.881037
2.92231
0.219676
0.0239848
0.0312027
0.14406
0.0242381
0.0238241
2.88202
1.02286
0.074078
0.147873
0.0263308
3.18206
0.0242445
0.0242167
0.0227564
2.7973
0.0244621
0.0243812
0.157832
0.0322555
0.0298591
3.27263
0.108585
0.0288412
0.131408
0.0244486
0.024786
0.0431258
0.0280266
0.0415065
0.0278117
3.18002
0.41467
0.0241975
0.098408
0.0228448
0.0246955
3.55764
0.0243266
3.19519
0.0251201
0.310905
0.0259813
0.170104
0.0315141
0.0234931
3.49797
0.123478
0.0676236
0.414679
0.0380294
0.0256924
0.0246729
3.0326
0.0483191
0.0245667
0.0687722
0.0243041
0.0233808
0.0259188
3.42391
0.0255917
0.0227102
0.0356077
0.0227095
0.0250987
1.31201
0.078616
0.0888264
0.022882
0.0242955
3.9709
0.0279848
2.97617
0.0227114
0.0246133
0.16425
0.057574
0.023071
0.0676481
0.0234051
0.0248858
0.0256433
0.0259763
0.122473
0.0241949
0.0654346
0.0337912
0.0264699
0.02267
0.0362139
0.0959562
0.0388295
0.0490111
0.0234747
0.0374239
0.236741
0.0237352
0.0694823
0.0241176
0.0464897
0.0227802
0.036765
0.0220933
3.50854
0.191311
0.0245335
0.0426808
0.0444304
3.40315
0.0985753
0.391983
0.222888
0.0239864
0.0277605
0.0236184
0.0231522
0.0334426
0.269599
0.0393047
0.0229216
0.027896
0.406606
0.285824
0.377575
3.36202
0.356688
0.0232984
0.0247812
0.0282016
0.0244913
0.0245639
0.40409
2.98886
0.0247128
0.0293481
1.10863
0.290741
0.0245301
2.85181
0.0425737
0.024538
0.0574494
3.21524
0.260544
0.192924
0.0255822
0.377376
0.0239721
0.638415
0.0731434
0.0245618
0.0453214
0.103761
0.131315
0.0248809
0.0251308
0.0270432
0.845301
0.0682536
0.032571
0.0400117
0.0424751
3.53959
0.0376789
0.0268585
0.109292
0.163653
0.120189
0.292701
0.023939
0.0233637
0.0273856
0.057047
0.182773
0.950162
0.123263
0.0262283
0.265188
0.170678
2.81672
0.0794909
0.0252962
0.0694078
0.0256581
0.0290343
0.0247123
2.90643
2.26535
1.89583
0.0247544
3.29328
0.169623
0.0239631
0.112479
0.0245523
0.166344
0.0331295
0.0239066
0.0285466
0.0235675
3.53838
4.92379
2.53081
0.0243591
2.86784
0.0271728
0.0289927
0.0252658
0.0238573
0.0318614
0.0892142
0.0272133
0.0465074
0.0267399
0.032515
0.0364475
3.13044
2.79535
0.273751
0.0244383
0.0229882
0.13271
0.023754
0.022756
3.46579
0.025642
3.3313
0.0655251
0.208651
0.0230368
0.0254167
3.30933
0.0248937
0.0268228
0.0268036
0.025274
0.028908
0.0568464
0.129722
0.023616
0.0231193
0.0227904
0.050769
0.0298023
0.405892
0.408487
0.271048
0.0242971
3.42031
0.0247086
0.0238881
0.0233033
0.0360872
0.0245852
0.0292404
0.0381189
0.296322
0.221972
0.673463
0.0384964
0.141891
0.0250542
0.0274836
0.339369
0.0247168
0.397475
3.13313
3.08948
0.407457
0.0240991
0.0325883
0.173258
0.0255909