/*--------------------------------*- C++ -*----------------------------------*\
| =========                 |                                                 |
| \\      /  F ield         | OpenFOAM: The Open Source CFD Toolbox           |
|  \\    /   O peration     | Version:  v2012                                 |
|   \\  /    A nd           | Website:  www.openfoam.com                      |
|    \\/     M anipulation  |                                                 |
\*---------------------------------------------------------------------------*/
FoamFile
{
    version     2.0;
    format      ascii;
    class       volScalarField;
    location    "100";
    object      omega;
}
// * * * * * * * * * * * * * * * * * * * * * * * * * * * * * * * * * * * * * //

dimensions      [0 0 -1 0 0 0 0];


internalField   nonuniform List<scalar> 
27802
(
0.0668948
0.0238323
0.0255156
0.025401
3.06078
0.0245291
0.0261138
0.0247909
0.0571998
0.0252132
0.0237524
3.55647
3.35632
0.0642637
0.0242618
0.026105
0.0220785
3.52173
0.663653
0.0538613
0.0237308
0.0246718
0.0693773
0.106375
0.0233405
0.0248783
0.0244147
0.0251846
0.0233349
2.31047
0.0245987
0.0274812
3.28408
0.0627104
3.40868
0.0243728
0.0775956
0.466039
0.0245902
0.0244003
0.0248625
0.0244061
2.98132
0.146449
0.0235626
0.0242347
0.183636
0.0246714
0.0231954
0.041596
0.0275358
0.0235633
0.369709
0.0235447
0.0242427
0.0244991
6.28541
0.0603762
0.0246781
4.60969
0.0243738
0.0246549
0.334164
0.0272722
3.50841
0.0843653
3.17498
0.0253471
3.07751
0.0270302
0.0240034
0.134025
1.35412
0.131405
0.378088
0.0276865
0.514512
3.29636
0.0408081
0.026028
3.01235
0.0661898
0.0232252
0.0597204
0.0243224
0.0261251
0.0233117
0.0242372
0.134714
0.251265
3.4344
0.0246138
0.0876094
0.0260116
0.0233925
0.0246754
0.0301391
3.08049
0.0248624
0.175206
0.057709
0.0248781
0.0260058
0.0257665
0.235876
0.0246118
0.130691
0.0585973
0.0243753
0.0383516
0.0263787
0.0242509
0.0248783
0.0861824
0.0232696
0.111731
0.0288335
0.0238751
0.0281528
0.0526384
3.4035
3.47819
0.0377984
0.0233278
0.0244546
0.0310678
0.207681
0.36544
3.3667
3.3807
0.0260063
0.0373877
0.0250956
0.0250965
0.0232236
0.0251317
0.0250507
0.0233307
0.0523273
0.0761298
0.0252234
0.0244404
0.0312052
0.0232318
0.0232618
0.0255251
0.0250382
0.0253151
0.0236043
0.0249999
0.0237901
0.0246585
0.0263963
0.0254172
0.0502839
0.0241712
0.0612682
0.172456
0.0381859
0.123404
0.201816
0.135047
0.0261037
0.0280858
0.022099
0.0230398
0.0238905
0.0245339
0.0246048
0.055825
0.0257377
0.0287364
0.0241844
2.1443
0.0246004
3.42534
0.0230239
0.0302896
0.0235224
0.0813475
0.106391
0.035068
0.0323629
0.0254636
0.0241795
0.0570963
0.0241659
0.0247197
0.161075
0.307023
0.0238107
0.0267859
0.0660103
0.0255797
0.0228424
0.024409
0.0228391
0.023446
0.0243068
0.0244369
3.86856
1.5518
0.540894
0.0278064
0.0243718
0.0374313
0.0262676
0.254672
0.0224755
4.23759
0.0244112
1.10299
3.37381
0.0301266
0.166396
0.0241908
0.361323
0.0260119
0.024696
0.0241422
3.39333
0.0221484
0.0561593
0.140556
0.0241696
0.0232993
0.023255
0.0267624
0.024237
0.0248902
0.0221477
5.73771
0.0246794
0.0335641
0.61962
0.0789108
0.0245624
0.25496
3.34002
0.0253619
0.0244783
1.26622
1.50356
0.0246953
0.0260643
3.19018
0.023416
0.329231
0.0258268
0.0254076
0.491309
0.0337757
0.0658714
0.0245294
0.0261295
0.0228491
0.0242377
0.0737553
0.0277887
0.0228297
0.0338347
0.0248041
3.25116
0.022449
3.74897
0.0302534
3.87474
0.0248926
0.0221435
0.0246065
0.176514
0.0241089
0.0741628
0.0701223
0.025541
0.217031
0.0251468
0.0381242
0.0300561
0.0242005
0.556429
0.0337302
0.0258376
0.0431705
0.215678
1.54033
0.0640727
0.0247815
0.0279229
0.0239916
0.0222047
0.0528079
0.022877
1.45985
0.0228677
0.0423516
0.115097
0.0243624
3.80236
0.206011
0.084902
0.0253835
0.0283469
0.119988
0.978599
0.0531402
0.0247864
3.71196
0.0316014
0.0251946
0.0314626
0.0560272
0.0708057
0.0251281
0.0329701
0.0244077
0.0317099
0.0657866
0.0380829
0.0663994
0.0248136
0.0243801
0.0222163
0.0235634
0.461573
0.0249636
3.28325
0.0249549
0.024376
0.0324916
0.0251175
2.38886
0.376349
0.125404
0.137781
2.1354
0.071352
0.0240231
0.0695022
0.0240887
0.0221177
3.53601
2.48342
0.0436805
0.131245
0.588416
0.184389
0.131136
0.0258192
0.266094
0.0229912
3.24418
0.0244647
0.02508
0.0247922
0.0251408
0.274486
0.262727
0.0239771
0.0236132
0.0472837
0.940163
0.0236754
0.037642
0.0228307
0.0247223
0.113569
0.0247633
0.0335484
0.0242039
0.0239991
0.186894
0.0389662
0.109871
0.553563
3.85638
0.0394191
0.0263087
0.0312604
0.0242571
0.024718
0.0228407
0.0247345
0.0237486
0.0236584
0.02461
0.202242
0.0270173
0.0482611
0.0316198
0.0239476
0.0244702
0.0311914
0.0383177
0.0242734
2.57973
0.739414
0.0687634
0.0243188
0.0668156
3.53082
0.0385285
0.0239103
0.0526218
0.0246135
0.220573
0.0343747
0.18653
1.53084
0.0355728
4.27577
0.025187
3.38196
3.3201
0.364963
0.0246932
0.0236153
0.0329329
0.0232237
0.272182
3.02134
0.025697
0.0274635
0.0248803
0.359951
0.0253112
0.026724
3.43479
0.0480737
0.0273884
0.0240797
0.0337949
0.348262
0.024207
0.0252519
0.0243113
0.0858339
0.262842
0.294373
0.0324739
0.0489085
0.0279351
0.0236762
0.0240234
0.0707343
0.0244252
0.0233945
0.0264483
0.0704547
0.0426761
0.925579
2.60512
0.32627
2.98757
0.0228826
0.0402608
0.03303
0.333994
0.587288
0.0241986
0.0434297
0.18555
0.0470619
0.0529965
0.0221078
0.0264626
0.355149
0.0244189
0.199461
0.0233882
0.0297182
0.0241221
0.0246591
0.141659
0.186885
0.937359
0.0251725
5.39616
0.0221357
0.0275858
0.101003
0.0275594
0.0269794
0.0670019
0.070998
0.291191
0.0259771
0.0251399
0.102715
0.0241989
0.0243743
0.321521
0.0244185
3.75179
0.0251057
3.58093
0.310572
0.303239
0.0242154
0.0639731
3.35498
0.0380119
0.911803
0.127448
0.284735
0.244082
0.0256547
0.0338394
0.0720158
0.0250403
0.0245282
1.43339
0.0402811
0.0238743
0.0240243
0.185144
0.373645
0.0521908
0.0243173
0.0422246
0.0264735
0.67495
0.0247633
0.0322612
0.124592
0.0241159
0.0228547
0.0250893
2.31356
3.55796
0.0461698
1.3807
0.0234686
0.0249562
3.57389
0.0242642
0.0408209
0.0242051
0.0228653
0.0641177
0.250591
0.0238381
0.0251842
0.0234762
0.0709361
0.0239877
0.0302897
0.291376
0.0483137
0.0715854
2.89076
0.0906505
2.22767
1.37663
0.0245962
3.55107
0.0251394
0.0445867
0.0250914
0.0248169
0.0245788
1.51839
0.0244504
0.0242143
0.0233079
0.229286
0.0260463
0.0254415
0.0835643
0.202333
0.221857
3.54211
3.04332
0.0382624
0.112167
0.0301275
3.85279
0.0247092
0.0569145
0.208642
0.149821
3.45651
0.0341211
0.0255282
2.84016
0.0458827
0.0229579
2.80735
0.0824927
0.226849
0.0808485
0.0867523
0.0229658
0.0257173
0.0455312
0.0239868
0.0466619
0.133952
0.0228913
0.0259334
0.0235134
0.158359
0.12354
0.0255289
0.73733
3.4068
0.0274097
0.0300465
0.0244665
3.22066
0.95934
0.881861
0.0597745
0.0572537
0.311114
0.0242709
0.143972
0.025818
3.69865
3.57472
0.0235003
0.038135
1.52204
0.227081
0.0253295
2.87663
0.0324651
2.98013
0.0348317
0.0256534
0.505605
3.51966
0.0817367
0.0243338
0.0428101
0.0291065
0.0464005
0.0258677
3.02791
0.0243373
0.0245691
0.0279204
0.0401063
3.81344
0.134709
0.027076
3.25208
0.036984
3.10287
0.024314
0.0359918
0.0712065
0.0962019
2.96178
0.0281085
0.32127
0.0260149
0.0230653
0.0254833
0.0246944
0.0246046
0.0400764
0.217588
0.190049
0.0249461
0.0453001
0.0264154
0.0278557
0.144717
0.0230484
0.0251782
0.462955
0.19039
0.0278807
0.0240431
0.0253911
0.0249732
0.0316172
0.0253273
0.372141
0.383855
0.0270019
0.0780099
0.053141
2.92184
3.06186
0.0710949
0.024116
0.0461146
0.0242863
0.299422
0.0251455
0.174029
0.0465867
3.46705
0.0229972
0.0245208
0.152512
0.0259395
0.0233324
0.0278506
0.0996671
0.0242136
0.0654035
0.0245956
0.351888
0.0239221
0.0283746
0.0906552
0.0325409
0.0291725
0.863569
0.0531437
0.0377854
0.0708715
0.0266626
3.84633
2.88267
0.139513
0.0378568
3.13768
0.0238128
0.0264243
0.0276003
2.92404
0.0582401
0.0272313
0.0270621
0.141335
3.52061
0.751853
3.25638
0.0313078
0.0692408
2.70984
0.025294
0.128298
1.3791
0.0431368
0.0229621
0.0482054
0.0241906
0.219586
0.0221638
0.0589079
3.56127
0.0256212
0.0245037
0.196737
3.54737
0.0375447
0.0305253
0.0229428
0.0271
0.0303986
0.0587432
0.042187
0.459004
0.0480432
0.0254163
0.0263307
0.0577144
0.287887
1.30543
0.0236884
1.23268
3.0783
0.0274378
0.0253397
0.0239308
0.0251961
3.3565
0.0239221
0.0291226
0.0260943
0.719073
3.64961
0.0249304
0.0244957
0.0288065
1.46847
0.0220846
0.0287438
0.0508878
0.0535891
0.0239507
3.02322
0.0282551
0.260537
0.0257304
0.024904
0.0303614
0.0283653
3.10563
0.0302066
2.90785
0.178496
0.0387169
0.183871
0.386609
0.0367446
0.027953
0.0305724
0.0236941
0.0281277
0.0671812
0.0300867
0.0765637
0.249125
0.388938
0.0233972
2.39464
0.873822
0.367605
0.0667438
0.124872
0.0283605
0.465318
0.11473
0.023006
0.0236808
0.0240745
0.0244758
1.33627
0.0237035
0.0249127
3.75812
0.329739
3.70288
0.0243267
0.0330904
0.0252845
0.0254679
0.0536389
0.0244004
0.210108
0.0275213
0.0446809
0.0233798
0.0233707
0.162351
0.0277122
0.332148
0.0255121
0.0221841
0.305798
0.0239714
0.024214
3.53206
0.0985358
0.0718441
0.03834
0.0248774
0.0235189
0.0255506
0.0251202
0.31864
0.0834792
0.257946
0.0260541
0.0463816
0.0476352
0.0249082
0.0291149
3.72034
0.0314859
0.0248493
0.0304069
0.0236964
0.0230155
3.14229
0.0567936
0.0238457
0.0244722
0.0373634
0.0690599
0.0299396
2.92407
0.0254341
0.0268771
0.610379
0.0247528
0.0253549
0.0247356
0.0430685
0.0721779
0.0249301
0.155938
0.0263363
1.87642
0.0255288
0.0242143
0.603123
0.0240515
0.0244992
0.0235378
0.0243814
0.0243205
3.3798
0.0251196
0.525959
0.024011
0.02782
0.0235087
0.0236038
0.0236261
0.024368
0.0301937
0.472649
0.043984
0.0596279
0.0239604
0.873021
0.0379081
0.0391475
0.025069
0.0239887
0.023095
0.0281273
0.0244446
0.250818
0.0222321
0.0254123
0.0278752
4.00194
0.0241373
0.0353628
0.0234047
0.0221604
0.0603599
0.347638
2.87765
0.0239207
0.0235559
0.0680534
0.023799
3.58968
0.129708
0.0464648
3.02736
0.0221413
0.288171
0.0250958
0.0484417
0.0468369
1.51388
0.0233277
0.0379065
3.13029
0.0241525
0.0262359
0.0258206
0.371749
0.059557
0.0452882
0.0245941
0.0236733
0.327913
0.0785458
0.965845
0.0337567
0.0871328
0.0238783
0.0258271
0.0236025
0.621146
0.0229583
0.0224061
0.0246119
0.0322975
0.0574233
0.0234117
0.0312113
0.0229436
0.0238319
0.171314
0.0275718
0.0393877
0.0247501
0.0858772
0.0386923
0.0236771
2.68985
0.0252608
0.0542706
0.0231041
3.70603
0.0428094
0.0253089
0.0221458
0.033241
0.0223491
0.251832
0.372748
0.0242442
0.0254199
3.41366
0.922965
0.0246168
2.87593
3.64403
0.131694
0.0240481
0.032446
5.07723
3.67355
0.0247583
0.684906
0.0222044
0.0243347
0.0242778
0.0242489
0.0273231
0.0236922
0.030225
0.137628
0.29421
0.349455
0.0360307
0.0249644
0.0486134
0.0569891
0.0233111
0.023537
3.08037
0.0337159
0.024262
0.60049
0.0249631
1.84692
0.693359
0.0237018
0.382327
0.022385
0.025836
2.90552
0.0581866
0.024068
0.0249924
0.0232625
0.0267965
0.0247427
0.024247
2.85233
1.3961
0.0302942
0.0869769
0.0249735
0.0246787
3.0894
3.35348
0.0253146
0.0811161
0.0453885
0.348354
0.138082
0.0237525
0.0242938
3.49258
0.0497836
0.0245734
0.0426894
0.584895
3.39328
0.591162
0.0279824
0.024639
0.33431
0.0242276
0.0295857
0.0337963
0.0410633
2.94774
0.0238159
0.024319
0.0240187
0.0247359
0.0794137
0.0242065
0.0240872
3.78012
4.19967
0.0564189
0.0729166
0.0260852
0.0258682
3.05406
3.66296
0.0269357
0.0338898
0.0255189
3.5683
0.0810653
0.0565565
0.0385293
0.0381925
0.0239004
0.0245932
0.0242862
0.0246349
0.0237964
0.0632929
0.0304482
0.0275532
3.16267
0.0524662
0.0364366
3.31667
0.0246324
0.781898
0.0834574
0.58354
0.0262446
0.889715
0.0460599
0.0229678
0.0475979
0.0245249
0.0240601
0.0598608
0.0238179
0.343612
0.0254113
0.0261659
0.0247374
0.038271
0.0253655
0.0243272
0.0236919
0.0240947
0.0254067
0.0374425
0.677448
0.0235054
3.12234
0.0277066
2.9511
0.0258207
0.030872
0.623739
0.023701
0.023435
3.3056
0.023693
0.0376202
0.0250405
0.605669
0.209414
3.34353
2.87565
0.0253452
0.0273952
0.865036
0.024057
0.0429357
0.0255351
0.0243946
0.0805696
2.73213
0.749952
0.0903129
0.0688373
0.02445
2.43493
3.35983
0.0716541
0.0472295
2.74075
1.52053
0.0352981
0.22483
0.37963
0.0264038
0.0987968
0.079996
0.0274695
0.0249561
0.0303476
0.160137
0.0256986
0.353435
0.0758114
0.0253465
0.0231897
0.303014
0.372813
0.0238459
0.02827
0.0256078
0.275214
3.34418
0.0411095
0.0252626
0.0238618
0.0252463
0.0338164
0.0963091
0.0300782
0.02665
0.79648
0.0245708
0.0276956
1.33375
0.0239755
0.0259101
0.0377783
0.0233062
0.0853218
3.3412
0.0309614
1.42318
0.273731
0.0515385
0.0247793
0.0332123
0.0548796
0.0244621
4.20956
3.46128
0.0730973
0.0236971
0.831836
0.212992
0.0555511
0.0811958
0.0222045
0.308093
0.024914
3.61584
2.84973
0.0249145
0.0251114
0.023398
0.0337446
0.0258639
0.0259028
0.0238305
0.023409
0.0329518
0.0233931
0.0316398
0.128738
0.104854
3.0979
0.0250088
0.0412868
0.0335543
0.0266654
0.137754
0.0237653
0.0303904
0.0254832
0.0233906
0.0238649
3.13806
0.0502688
0.0242762
0.0255832
0.209968
0.0529643
0.269155
0.0278503
0.0232896
0.0298412
0.227192
1.50639
0.0236777
0.390062
0.0270158
0.0236315
0.0236947
0.440609
0.0235525
0.025116
0.0263619
0.0283177
0.0350717
2.9422
0.0382257
0.0241715
0.0669644
0.0246462
3.34811
0.2208
0.0242689
0.0236737
2.35614
3.62435
3.31863
0.108628
0.270518
0.0823766
0.0293644
0.0242585
0.0233957
0.35779
0.0310083
0.0316338
0.231259
0.072497
0.0243501
0.0338042
0.0246287
0.109115
0.0237009
0.023184
0.0232158
0.0474762
0.0250159
0.0247456
0.137394
0.0545684
0.0264318
1.52328
0.0247972
0.8843
0.0380893
0.0243481
0.0311885
3.82925
0.212567
0.0252506
0.0255533
0.0723771
0.0257996
0.0249468
0.328482
0.110129
0.0232414
0.0233774
0.328637
3.55722
0.0232723
0.0267318
0.0566804
0.0254395
0.0231879
0.245895
0.697175
0.0245958
0.0393111
3.44201
0.110448
0.0222103
0.0680847
0.0272593
0.0240058
0.0268926
2.4333
0.0299941
3.36923
0.0243813
0.0232881
2.78036
0.0243066
0.0245344
0.0270154
0.109544
0.0407431
0.0274445
0.0244011
0.0232797
0.023361
0.120331
3.83943
0.0446578
0.0328438
0.0380651
0.0242017
0.0571763
0.276138
0.0570876
0.0221834
0.0445151
0.354718
0.380217
0.02583
0.0369424
3.69025
0.0234605
0.0222295
0.516453
0.0241686
2.92556
0.0244395
0.805504
0.0297719
0.0727822
0.0283791
0.0820769
0.0239435
0.0235421
0.0434322
0.0235761
0.37295
0.0258139
0.0223252
0.0240807
2.77761
0.421355
2.92452
0.0234856
2.43096
0.0235848
0.209793
0.107601
0.0704054
4.72622
0.0670234
0.024863
0.0328715
3.19578
0.0234484
0.0308382
0.0257177
0.0244387
0.0237726
0.416088
0.3931
0.044292
0.0240412
0.0246978
0.0561192
0.040575
0.0243624
0.0256728
0.0234034
0.0302014
0.0245394
0.047154
3.90724
0.0222355
0.0256613
0.0418237
0.0234302
0.02531
0.509085
3.37829
0.0263
0.0235749
0.425369
0.0302093
0.028366
0.0246112
1.51125
0.0302148
2.93558
0.0403956
3.46141
2.53116
0.215482
0.0284624
0.0369109
0.195659
0.0239744
0.0238065
0.140156
0.0235613
0.0457456
0.693305
0.0266725
2.77637
0.0240753
0.339443
0.131064
3.26692
2.86163
0.0254807
0.0247413
0.0255696
0.0852186
0.0243927
0.0250294
0.474068
0.254752
2.88731
0.0407992
0.0356841
0.0279764
0.0230301
0.955639
0.0245302
0.0360112
0.0245661
0.0232217
2.87093
0.0241056
0.0305904
1.65278
0.0243103
0.0261486
0.0261682
0.248026
3.20014
0.0245688
0.033589
3.48632
0.0247504
5.61944
0.027319
0.0240308
0.0454085
0.0261474
0.0328419
0.0246629
0.0245724
0.0243656
0.0669241
0.218635
0.0338717
0.0238538
0.415805
0.023227
0.0230376
0.829028
0.0259242
0.118461
0.0246988
0.0239554
0.0241062
0.204734
0.0233903
0.398016
3.38037
0.0240234
0.0242458
0.0262717
0.0296995
0.136421
0.0499062
0.0256661
0.025665
0.023944
0.0249313
0.0411587
0.0247608
1.01102
0.787028
0.0251293
0.0444776
0.0247045
0.0252575
0.0254266
0.0252386
0.0251858
0.0251919
0.0245925
0.0229065
0.41335
0.024464
0.0342437
0.0241977
0.0254826
0.0397829
0.0463755
0.31879
0.775571
0.0391164
0.0244455
0.0248
0.0261106
0.0261866
2.79025
0.814259
0.287563
0.0303028
0.0245351
0.025767
0.0248116
0.906584
3.40352
0.216853
2.74237
3.84428
0.0253663
0.35237
0.0243538
0.0405211
0.0334164
0.0243525
0.0323266
0.024588
0.111254
0.494687
0.0244305
0.0248012
0.0287166
0.140547
0.0333412
0.0246012
0.0262767
0.0248871
0.0276405
0.0247261
0.0309051
0.0249876
0.10807
0.0246777
0.0480809
3.50613
3.36801
0.0408501
0.639259
0.0258518
2.91213
1.47418
3.54358
0.0250411
0.144979
0.0235609
0.299334
0.67112
0.0280994
0.790122
0.0265202
0.0251387
0.111743
0.0251693
0.0287009
0.472802
0.0363659
0.0232066
2.91232
0.0559333
0.0263379
0.172312
3.58543
0.207802
0.0268076
0.0241295
0.0257397
0.0247014
0.198348
0.960581
0.0247924
0.0245259
2.68625
3.3222
0.0233363
0.0241117
0.11093
0.886194
0.0295057
0.0232303
0.0241833
0.048151
0.023909
0.0271385
0.0222226
0.0934196
2.93798
2.80245
0.104618
0.0242996
0.0241835
0.0246033
0.0229538
0.190293
0.0281773
0.0244585
0.212323
0.0495552
0.0257173
0.0280611
0.0270544
0.0252111
0.0382825
3.33424
1.5009
3.06246
3.40516
0.0476672
0.0313783
0.0256368
0.0251772
0.0333907
0.201397
0.0575933
0.0241515
0.0264292
0.0238016
0.0253194
0.024183
0.0248473
0.0240132
0.352664
0.0387992
0.0258629
0.0446817
0.0253229
0.0240491
0.0246748
0.128261
0.0463528
0.0244528
0.39725
0.0301598
0.430381
0.025161
0.0248674
0.0601778
0.81186
0.0237466
0.0327329
0.0244695
3.58497
0.159962
0.0342695
0.788555
0.81367
0.023978
0.0234202
0.0303582
0.0364294
0.0252671
1.36147
0.0335958
0.0234241
0.0240764
0.434387
0.0348858
3.84029
0.0255863
0.0374161
0.0447662
2.75865
2.97486
0.481316
0.0334332
0.0265212
0.0257434
0.0694103
0.0430914
0.363594
0.359636
0.0236334
0.054365
0.0289562
0.0282348
0.0256524
0.0240832
0.0340779
0.0232577
0.0243086
0.0397703
0.0267448
0.0247739
0.670569
0.0394537
0.0419788
0.0330341
0.0252788
0.0257327
0.0236274
0.0381875
0.0281923
3.31218
0.205551
0.0234238
0.579863
2.5124
2.63794
0.372156
0.0331932
0.21166
0.0504166
0.440084
0.0244342
0.0633243
0.040918
0.0247702
0.0333355
0.194143
0.0325504
0.0247355
0.195036
0.0283007
0.0236754
1.04045
3.53986
1.39853
0.565993
0.59487
0.0435712
0.0230071
0.0245937
0.023018
0.061753
0.0237497
0.0311297
0.144505
0.0487672
0.331337
0.223719
3.5551
3.5271
0.0678211
0.0330882
0.0339384
2.98978
0.0447935
0.028701
0.0282418
0.0476883
0.0308573
0.0316206
0.0259732
2.77773
0.0587805
1.2542
0.0252684
2.97696
2.96363
0.308156
0.0258004
0.0439821
3.53211
2.69513
0.397499
1.31005
0.0235539
2.86936
0.225422
0.0393938
0.0248666
3.01123
0.0382519
0.0355999
0.0349131
0.448641
0.0418459
0.022902
0.022884
0.0817224
0.0392933
0.0777535
0.236936
0.0393052
0.130789
0.0267613
0.0231982
0.0233105
0.220896
0.0247601
0.0247462
3.40532
0.181251
0.630585
0.0246057
0.131046
2.75353
0.217306
0.442142
0.0252695
0.024267
0.444276
0.0242728
0.0243597
0.0316516
0.0938079
3.72192
0.0468292
0.023585
3.23544
0.0256641
0.0250484
0.0247231
0.0263384
0.0228096
0.0242372
0.0258547
0.0576422
0.0251201
0.097722
0.0232666
0.0232146
0.0434771
0.033805
0.0665297
0.0289923
0.0248519
0.0253352
0.0233732
3.43992
0.0276072
0.0235285
0.0242398
1.39957
0.0255271
3.44209
0.0376091
0.0247817
0.663882
0.0246194
0.0259046
0.0247692
0.0245627
0.0249965
0.032662
0.029385
0.0244775
0.0506361
0.0268925
0.0334698
0.032681
0.0242675
0.153744
0.075988
0.0284754
0.0234148
3.34522
0.0286974
0.0333587
0.0244613
0.0235709
0.272382
0.377025
0.169115
0.346936
0.0303976
0.0279802
0.0244438
0.0248212
0.0687091
0.0233851
0.0238269
0.0231615
0.0334551
0.0238498
0.0331081
0.44108
0.0352357
0.023574
0.0707712
0.0295465
0.0238442
0.023977
0.0398387
0.02382
3.69737
0.0246297
0.0238991
0.0255641
0.050567
0.0281009
0.0259718
0.0270117
0.125028
0.0252922
0.0272615
0.0633421
0.673361
0.0261482
0.58797
0.0277852
0.0253325
0.024608
0.0253606
0.0458649
0.0336249
0.0252626
0.0242615
0.0358901
2.82512
2.73751
0.0240897
0.107301
0.0385258
0.0239232
0.023286
0.0246386
0.131366
0.0757901
0.0245928
0.0242354
0.0263274
3.0184
0.104312
0.0258781
0.0256214
0.686953
0.0443267
0.0279109
0.147075
0.0310237
0.478275
0.0246733
2.97517
0.0248567
0.0233485
0.0232803
0.1056
0.0626672
0.0249869
0.0262324
0.0284095
0.0358287
0.025218
0.652955
0.325948
0.0378376
0.0238876
0.028188
0.0241471
0.954419
0.0330063
3.73707
0.0262395
0.0280968
0.0278174
0.796331
0.0268276
0.0238187
0.793741
0.0233074
0.024316
0.78685
0.0234879
0.0243507
0.0293442
0.332977
0.348747
0.0453577
0.0463938
0.270857
0.0388212
0.904329
0.0945051
0.0246566
0.0227337
3.83793
0.139772
4.29906
0.0246583
0.0451901
0.0354688
0.0237596
0.0333323
0.382784
0.0334411
0.0752383
0.384378
0.0252178
0.025594
0.0248679
0.0523552
0.0237477
3.00668
0.0263595
0.0243528
0.518266
3.14572
0.0428773
0.0333281
0.0251565
0.0299523
0.0255333
0.604887
0.024402
0.0463528
0.128251
0.194027
0.0239668
0.229
0.0315223
0.0363673
0.0727063
0.0263156
0.471958
0.0835074
0.0234764
0.0429039
0.0454679
0.0220852
0.0282984
0.0248796
0.292055
0.0368721
0.0669706
1.91026
0.0306374
0.0276269
0.465358
0.0238017
0.748539
0.0697778
0.447888
0.0240497
0.0234915
0.0236104
0.0247723
0.0248388
0.0243853
0.0240128
0.075168
0.0524465
0.025189
0.0915442
0.0244428
0.0235789
0.133292
0.0305175
0.0464345
0.636523
0.0223472
0.0238744
0.0253176
0.0405546
3.57947
0.0243551
0.0275811
0.0240904
3.20109
0.0237625
0.0367413
0.0541051
0.0841775
0.0237957
0.028234
0.0236128
0.0863301
0.106004
0.034429
0.187433
0.183547
0.0247631
0.660022
0.0247143
0.103825
0.0267315
0.919647
0.270874
0.262772
0.0242626
0.0235614
0.362526
0.0260597
0.138455
0.0223093
0.668418
0.365188
0.0234634
0.0340676
0.0245326
0.361463
0.291492
0.0261321
0.587346
0.0279829
3.04156
0.0296844
0.150414
0.25187
0.0648436
0.0734803
0.0252917
0.0282407
0.0252452
0.0240876
0.0249149
0.0285671
0.0469809
0.156211
0.0253778
0.102558
0.0235736
0.0258333
0.0251785
0.0319224
0.0242033
0.0252548
0.0245029
3.00843
0.066794
0.24321
0.0235854
0.266786
0.0234599
0.0226515
0.0239822
0.0435249
0.0748204
0.437407
0.0234697
0.0242018
0.0260792
0.0245995
0.0299354
0.0239775
0.0768581
0.218151
0.0429556
0.0257106
0.365482
0.144842
0.180944
0.878341
0.0564505
0.023595
0.0221611
0.0693483
0.0241717
0.227054
0.0331163
0.764638
0.0250273
0.348173
0.363989
0.0251222
0.0317531
2.89323
0.0249913
0.400561
0.0543911
0.0269012
0.262072
0.0238722
0.024486
0.0231028
0.117565
0.0646807
0.0245376
0.0247227
0.173102
3.38078
0.0248632
0.136267
3.72427
5.12727
0.238697
0.0242265
0.034701
0.378081
0.026085
0.183917
0.0674993
0.0280905
0.223766
0.0808824
2.86789
0.0245482
0.229259
0.0238145
0.32033
0.0248425
0.0237019
0.119269
0.0365161
0.0365844
0.0235123
1.79335
0.0464251
2.76619
0.0237248
0.025062
0.0758174
0.0473656
3.48532
3.77833
0.272018
4.57448
0.0263074
0.0318054
0.0236935
0.0560415
0.0834347
0.0252198
0.903154
0.0237205
0.0250312
2.19028
0.0230595
0.0657942
0.02336
0.023424
0.0567632
0.743918
0.0289567
0.0904683
0.238813
3.33109
0.0250994
0.0265219
0.0369212
0.0233475
0.0242951
0.0306761
0.0228798
0.0233316
0.0288589
0.0232823
0.0233431
0.0320497
0.0238665
0.136412
3.7693
0.0246144
0.0239712
0.0360878
0.0241907
0.0248896
0.0461953
0.468234
0.0258613
0.0239695
0.0240632
0.086549
0.0280197
0.0300282
0.0252148
0.033018
0.073583
1.56968
3.19438
0.0236475
0.146182
0.0230791
0.0242178
2.96557
0.0238781
0.0268638
2.94908
0.342329
0.101102
0.0238917
0.0238949
0.730809
0.420963
0.0615482
0.367464
0.0247581
0.0309368
0.0245618
0.0360468
0.224564
0.0301331
0.0259016
0.0246565
0.0259765
0.0243864
0.0389241
0.024581
0.520874
3.6524
0.0236888
0.0259291
0.0250621
0.0239981
0.0348168
3.33325
0.0247778
0.0345702
0.0235074
0.0250215
0.0251286
0.0240954
0.025069
0.0256873
0.023811
0.024614
3.70117
1.22939
0.0253201
0.0943919
0.0242468
0.0252742
0.0259174
0.023209
0.418812
0.0406928
0.0234968
0.0240972
0.0252765
0.0465564
0.052073
0.0284213
0.0252161
0.024339
0.0389535
0.0246613
0.041646
0.0276557
0.353496
0.0267148
0.024603
0.0409212
2.54303
0.0259421
0.0229585
0.0269862
3.14685
0.631585
0.0221681
0.0250503
0.0320677
0.0272217
0.0227814
3.14515
0.880779
0.0695396
0.0248815
0.390944
0.0656419
0.0235511
0.0232289
0.059187
0.129294
0.0253687
0.0250806
0.023573
0.0244432
1.40324
0.0238112
0.0300051
3.77486
0.0236269
0.0322054
0.0506507
3.39296
0.0559982
0.0368542
0.0235554
0.025138
0.0248785
0.0265704
0.0233525
0.0244332
3.16468
0.024116
0.0404904
0.023183
0.0500294
0.458193
0.171157
2.2107
3.21287
0.042017
0.0232694
0.023365
0.0255121
0.47675
0.024735
0.279501
0.0226942
0.0318216
3.68003
0.0362851
0.047771
0.0238351
0.0265583
0.038619
0.0236337
0.0242401
0.0361749
0.0367768
0.0267067
0.0349629
2.79136
0.248609
0.0245238
0.0336374
3.39013
0.336248
1.20665
0.109588
0.0567679
0.0276105
0.0324837
2.73499
0.044574
2.96471
0.0337371
0.0238703
0.0791226
0.0258511
0.0245222
0.132503
0.22162
0.0346386
0.0300633
0.0380242
0.0312029
0.0694461
0.140856
0.025069
0.824713
3.93317
0.226456
0.0412664
3.5083
0.161383
0.0242552
0.452118
0.0249918
0.371215
0.0231573
0.0384706
0.0247368
0.0234542
0.042458
0.216075
0.127263
0.287259
0.466243
0.0243984
0.0700822
0.0236468
0.495786
0.679167
0.0242759
0.0246145
0.0963211
0.390418
0.0343645
0.0245303
2.21836
0.0241098
0.0232365
0.0234603
0.270739
3.45439
0.022694
0.0323222
0.0305276
0.0279705
0.0229714
0.20428
0.0227416
0.0362015
0.0302745
0.0245106
0.0742369
0.0238137
3.41812
0.033197
0.022938
0.0259119
0.023461
0.0230765
0.141917
0.0246797
0.107094
0.0237632
0.0245061
0.0683679
2.93336
3.31151
0.0240869
0.0266087
0.0244317
2.83378
3.2832
3.20412
0.024233
3.40517
0.0238538
0.0240991
0.0269961
0.188613
0.368882
0.0251598
0.0321277
0.0243941
0.0243841
0.0245928
0.087893
0.0567948
0.204259
0.0238
0.0494727
0.0347415
0.0681461
0.0244083
0.0240208
1.88126
0.0616903
0.0250466
3.33466
0.072232
0.0802842
0.0229717
3.28959
0.623352
3.30148
0.0270234
0.0243597
0.0259988
0.0375732
0.115813
3.57714
0.142832
0.0234563
0.0245481
0.105696
0.0331064
0.0274068
0.0386618
0.104304
0.0698071
0.0290776
0.0241322
0.0253682
0.0396138
0.0241813
0.0656473
0.0374342
0.171452
0.0245633
0.415293
0.0668641
0.0239573
0.0233361
3.062
0.0230207
0.14689
0.909354
0.0227564
0.0231292
0.0239115
2.82094
0.0231579
0.0263484
0.0241605
0.0656999
2.98872
0.0249856
0.0252697
0.0413175
2.9953
0.0280748
0.0345056
0.0247526
0.0698477
0.0239515
3.6767
0.0234583
0.385343
0.0239897
0.0443275
0.0724267
0.233331
0.0246936
0.0272017
0.033016
0.0239499
3.16827
0.0239969
0.0241069
0.439511
0.023021
3.15074
0.130261
0.192263
0.0263573
0.02841
0.0242997
0.0709951
0.0441326
0.024714
0.0290394
0.180665
3.0156
2.75067
0.0502508
0.0375001
0.0656493
0.0331062
0.0248876
0.0439409
0.0250964
0.0228078
3.19491
3.63765
0.0243907
0.0367313
0.0251399
3.71797
3.53591
0.0244476
0.0239101
0.314145
0.0241288
2.83572
0.657312
0.0274019
0.0431651
0.0263067
0.433573
0.0285249
3.80391
0.331969
0.0248921
0.0251981
0.0352667
3.39111
0.413617
0.0245817
0.996669
0.0263432
0.0226182
0.462622
0.029081
0.922924
0.0241278
0.024532
0.0247955
0.106497
0.022662
0.0262514
0.0568284
0.0252714
2.97763
0.0468986
0.024901
0.0884256
0.0253046
0.169535
0.617047
0.0260583
0.231807
0.0253158
0.42336
0.0247414
0.0256153
0.0389222
0.903124
0.0243638
0.024729
0.0260642
0.0970435
3.018
0.0220891
0.0342541
0.0457421
0.0243826
0.0229313
0.0245656
0.0403016
3.04895
0.0356053
3.15292
3.71377
0.18131
0.0497762
0.0236332
0.0272764
0.0242076
0.0357999
3.68672
0.0837944
0.0298658
0.0416847
0.0935645
0.0370878
0.0247121
2.88142
0.0238679
0.107191
0.665086
0.24079
0.0229824
0.0295214
0.0254499
0.0230109
0.0332752
0.0691997
0.111527
0.0292914
0.0273155
0.0245663
0.0230824
0.0243412
0.0885571
0.0253709
0.0596797
0.0239198
0.0226341
0.0235858
0.345974
0.0238334
0.0237432
2.9069
0.0230549
0.0261176
0.0293737
2.17579
0.0227563
0.0255766
3.09947
0.0257887
3.39344
4.03645
0.0248378
0.139958
0.315964
0.0247938
0.0327407
0.0244897
0.0236254
2.93116
0.0233147
0.181152
0.0244254
0.123126
0.0230522
0.129951
0.0325506
0.879642
2.92219
0.219654
0.0239848
0.0312019
0.144031
0.0242381
0.0238231
2.88219
1.02014
0.0740022
0.147842
0.0263309
3.18236
0.0242446
0.0242167
0.0227564
2.79816
0.0244621
0.0243812
0.157807
0.0322555
0.0298294
3.27266
0.107437
0.0288378
0.131387
0.0244486
0.024786
0.0431231
0.0280265
0.0415085
0.0278121
3.18064
0.414893
0.0241976
0.09844
0.0228448
0.0246955
3.54903
0.0243266
3.19544
0.0251201
0.310519
0.0259814
0.170349
0.0315091
0.023493
3.49781
0.123463
0.0676135
0.414665
0.0380287
0.0256925
0.0246729
3.03328
0.0483221
0.0245666
0.0687615
0.0243041
0.0233809
0.0259188
3.42442
0.025592
0.0227102
0.0356055
0.0227095
0.0250988
1.30641
0.0784918
0.08885
0.022882
0.0242955
3.97126
0.0279849
2.97702
0.0227114
0.0246133
0.164208
0.0575713
0.0230711
0.0676455
0.0234051
0.0248858
0.0256434
0.0259763
0.122456
0.0241949
0.0654446
0.0337893
0.02647
0.02267
0.0362055
0.0959531
0.038796
0.0490104
0.0234747
0.0374242
0.2368
0.0237352
0.0694852
0.0241176
0.0464882
0.0227802
0.0367842
0.0220933
3.50885
0.190645
0.0245336
0.0428921
0.0444315
3.4008
0.0985642
0.394731
0.222956
0.0239864
0.0277638
0.0236184
0.0231524
0.0334343
0.269739
0.0393036
0.0229216
0.0278959
0.406623
0.284647
0.377652
3.36172
0.353587
0.0232984
0.0247813
0.0281703
0.0244913
0.0245639
0.407774
2.98661
0.0247128
0.0293518
1.12179
0.290838
0.0245301
2.84921
0.0425711
0.024538
0.057448
3.21524
0.260001
0.193257
0.0255822
0.377342
0.0239721
0.638298
0.0731338
0.0245618
0.045314
0.103756
0.131291
0.0248809
0.0251308
0.0270431
0.845541
0.0682549
0.0325711
0.0400136
0.0424713
3.54001
0.0376844
0.0268587
0.109296
0.166565
0.120173
0.292771
0.023939
0.0233637
0.0273855
0.0570443
0.182972
0.947326
0.124802
0.0262283
0.264325
0.170629
2.81607
0.0794781
0.025296
0.0695429
0.0256581
0.0290055
0.0247145
2.90616
2.27293
1.90023
0.0247544
3.2934
0.169631
0.0239631
0.11248
0.0245523
0.166307
0.0331407
0.0239066
0.0285466
0.0235675
3.5385
4.92443
2.54138
0.0243591
2.86678
0.0271727
0.0289936
0.0252659
0.0238573
0.0318602
0.0892677
0.0272143
0.046507
0.02674
0.0324967
0.0364464
3.13104
2.78894
0.274044
0.0244383
0.0229883
0.132687
0.023754
0.022756
3.46595
0.025642
3.33182
0.0645797
0.208532
0.0230368
0.0254164
3.3089
0.0248937
0.0268225
0.0268035
0.025274
0.0289078
0.0568531
0.129711
0.0236161
0.0231193
0.0227903
0.0507716
0.0298003
0.406062
0.408493
0.270225
0.0242971
3.41916
0.0247086
0.0238881
0.0233033
0.0361023
0.0245853
0.0292215
0.0381179
0.294756
0.222065
0.67344
0.0386463
0.141865
0.0250542
0.0274837
0.339782
0.0247168
0.388678
3.13336
3.08823
0.407567
0.0240985
0.0325921
0.17321
0.0255909