/*--------------------------------*- C++ -*----------------------------------*\
| =========                 |                                                 |
| \\      /  F ield         | OpenFOAM: The Open Source CFD Toolbox           |
|  \\    /   O peration     | Version:  v2012                                 |
|   \\  /    A nd           | Website:  www.openfoam.com                      |
|    \\/     M anipulation  |                                                 |
\*---------------------------------------------------------------------------*/
FoamFile
{
    version     2.0;
    format      ascii;
    class       volScalarField;
    location    "100";
    object      p;
}
// * * * * * * * * * * * * * * * * * * * * * * * * * * * * * * * * * * * * * //

dimensions      [0 2 -2 0 0 0 0];


internalField   nonuniform List<scalar> 
27802
(
-0.0287429
0.00252788
0.00421272
-0.00808577
-0.111004
-0.00106919
0.00514755
-0.00123354
-0.0124022
-0.0264095
0.000936471
-0.118725
-0.112932
-0.0165228
-0.00846617
0.00531361
2.39952e-05
-0.124147
-0.000703383
-0.00588048
0.00251549
-0.00605798
-0.0281525
-0.0879697
0.00247203
-0.0132826
-0.00193348
-0.0259494
0.00246918
0.0238756
-0.01514
0.00569328
-0.111735
0.0120937
-0.113276
-0.0109807
0.00749616
-0.0247935
-0.0148856
-0.00317241
-0.0234579
-0.00339317
-0.179761
0.00663875
0.00302443
-0.00776161
-0.0680126
-0.0143564
0.00276141
0.00917642
-0.024269
0.0029983
0.00383925
0.00229509
-0.000114745
-0.000566967
-0.114114
-0.0168184
0.00380562
-0.110308
-0.011005
0.00378284
-0.00160183
0.00533022
-0.12304
-0.0692133
-0.125151
0.00181883
-0.106984
0.00562756
-0.00341989
-0.0901938
-0.0705559
-0.0886552
0.00509124
-0.0316785
-0.0293008
-0.125153
0.0092201
0.00512362
-0.183591
0.00484919
0.0028053
-0.0165403
0.00391311
-0.0177175
0.00248503
-0.00028955
-0.0903902
-0.0338899
-0.115596
0.00377411
0.0120618
0.00523987
0.00230463
-0.0152065
-0.0532876
-0.111262
-0.0235262
-0.0665892
0.00449521
-0.023315
-0.0219056
-0.0119208
-0.0329849
0.00377004
0.00335924
-0.0126197
-0.0108623
-0.0500158
0.00497617
-0.00825861
-0.0232678
0.0113158
0.00281886
-0.0170813
-0.010294
-0.000493619
-0.0474019
-0.0064766
-0.11439
-0.115404
-0.0644668
0.00246446
-0.0101613
0.0030551
0.0124594
-0.000844921
-0.115643
-0.112786
-0.0214407
-0.0635745
0.00380541
-0.0242793
0.0027903
0.00147405
0.00297481
0.00287285
0.0144534
-0.0176424
0.00126
-0.00173201
0.00295973
0.00279118
0.00284114
-0.0121383
0.00305891
-0.00537249
0.00304725
0.00379179
0.000831551
-0.0140418
-0.0359305
0.00203304
-0.00650398
0.00222418
0.011229
-0.0982027
-0.050147
-0.0321797
0.0116051
-0.0896127
-0.0172804
-0.0465704
3.89505e-05
0.00269403
-0.000411774
-0.000355004
-0.0162437
-0.00577861
-0.0117916
-0.00974383
0.00307333
-0.0650499
-0.0147818
-0.118929
0.00266822
-0.0414128
0.00297032
0.00857231
-0.0884344
-0.0093531
-0.0255358
-0.0121624
0.00313376
-0.0372541
0.00226798
0.00252209
-0.00164728
0.0249085
0.00206747
-0.000510476
-0.0322642
-0.0280544
0.00223745
-0.00301458
0.00221365
0.00295368
-0.00786416
-0.00149047
-0.113803
0.0272099
0.000895271
-0.0163393
-0.0106536
-0.0622835
-0.0354831
-0.0546671
0.000161401
-0.110834
-0.0114336
0.0383562
-0.116256
-0.040726
-0.000390298
-0.00351668
-0.00231967
0.00518694
-0.0153018
0.00304944
-0.115384
0.00017136
-0.0365359
-0.00149937
0.00311562
0.00284411
0.00283242
-0.000231176
-0.00774033
-0.0238305
0.00021732
-0.109675
-0.015519
-0.0386362
0.00550091
-0.0168038
-0.00153006
-0.0547124
-0.110858
0.000100025
0.00233207
-0.055805
-0.0589882
-0.0102172
-0.00701107
-0.111827
0.0029361
-6.47421e-05
0.00501869
0.00406113
0.0044701
-0.0299047
-0.0259613
0.00253275
-0.00817856
0.00222459
0.00383127
0.00450713
-0.0158334
0.00221247
-0.0292188
-0.0213479
-0.119628
0.000135647
-0.114868
-0.0425538
-0.11522
-0.0238091
0.000133681
-0.0150291
-0.0987989
-0.0050111
-0.0172813
0.00398815
-0.0276624
-0.0956801
-0.00583152
-0.0477545
-0.041769
0.00378247
0.0359263
-0.0406654
0.00111851
0.00792274
-0.000797661
0.0221997
0.00438839
-0.0142217
-0.0226027
0.000725366
0.000141162
0.0116854
0.0021732
0.0115039
0.00215437
0.0104066
-0.0156787
0.00396145
-0.111096
0.00388202
-0.0706154
-0.0127355
0.00597314
-0.0311074
0.00494326
0.0148499
-0.0209945
-0.115132
0.00636364
-0.00553613
-0.0128989
-0.0346327
-0.0568125
-0.0247084
0.00861217
-0.0112883
-0.0132371
-0.0279594
-0.0517216
-0.0160424
-0.0102694
-0.010883
0.000187063
0.00277525
0.000582331
0.0037873
-0.11816
0.00375967
-0.0106713
-0.0355717
0.00368519
-0.0414445
0.00249216
-0.0159207
-0.00222778
-0.0588993
-0.0565972
0.00261083
-0.0800669
-0.00477661
0.000160713
-0.117792
-0.00308807
0.00927566
-0.0777812
0.00873711
-0.0642411
0.00514543
0.00501051
-0.0178816
0.00213369
-0.121709
-0.0101569
-0.00951047
0.00128219
0.00343238
0.00213608
-0.022095
0.00224498
0.00282893
0.00604635
0.00662826
0.00286732
-0.0207298
0.00223493
-0.00196455
0.00542564
-0.0141671
-0.0399655
-0.00039227
0.00257886
-0.0628375
-0.00516237
-0.083689
-0.0294082
-0.116314
-0.00432004
0.00486923
-0.00728419
-0.00858919
0.0024999
0.0022532
0.00111045
0.00269657
0.00170152
-0.00356858
-0.0717251
0.00557117
0.00553995
0.00239321
0.00367031
0.00177213
0.00599842
-0.0514802
-0.00724118
-0.0472904
0.00784632
-0.0801718
0.000824288
-0.0334075
-0.115462
-0.0487233
0.003626
-0.000295768
-0.0164806
0.00871599
-0.00942865
-0.038954
0.0170928
-0.0143985
-0.111531
-0.00195001
-0.112332
-0.11287
0.00258219
-0.015016
0.00281808
-0.0358762
0.00279445
0.00886566
-0.179502
0.00488977
0.00575976
-0.0136605
-0.00155711
0.00152817
0.0052891
-0.114912
0.0067952
-0.0240383
-0.00469462
-0.0102907
0.00246237
-0.00424168
0.00109508
-0.00737715
-0.0592436
0.00766493
0.00802875
-0.0250199
-0.0386187
0.0057295
0.00204283
-0.000468613
-0.0290697
-0.0107029
0.00267794
0.00507927
-0.0589892
-0.0111111
-0.0306294
-0.094835
-0.000584611
-0.180935
0.00214209
-0.0383018
-0.0383971
0.00156185
-0.033496
-0.000315451
0.0067564
0.00170687
0.000984163
0.00788209
2.36156e-05
-0.0344136
-0.000443875
-0.0105612
0.00238262
0.00267847
-0.0165915
-0.000391686
0.00032784
-0.0300426
0.00191381
0.00585431
0.00373069
-0.116282
0.000169059
-0.0170771
-0.0805226
-0.0165191
0.000629837
-0.0266294
-0.0583968
0.00468076
0.00146267
-0.0198168
-0.0815487
-0.00338829
-0.0104217
0.00183464
-0.00215067
-0.115427
0.00373082
-0.117576
0.00292924
0.00186479
-0.00414829
0.0128018
-0.113673
-0.0532939
0.0044321
-0.0309524
0.00276203
-0.0971118
-0.000182493
-0.00970033
-0.0550454
-0.00944309
-0.000825504
0.0126102
-0.00719942
-0.000561593
0.00204796
-0.0358118
0.00357443
0.0158395
0.000814331
-0.0114276
-0.0342624
-0.0543494
-0.00127296
0.00638178
-0.0161984
-0.00520414
0.00217227
-0.00985452
0.0173769
-0.117194
-0.0100356
-0.0768067
0.00267278
0.000661441
-0.117311
-0.0084386
-0.0198923
-0.00460112
0.00219697
0.000185656
-0.0127624
0.00168704
0.00380935
0.00265134
-0.0538429
0.00213183
-0.0325533
0.0249295
-0.0377597
-0.049431
-0.0813285
-0.0628912
0.0288678
-0.00771407
-0.0151672
-0.11943
-0.0194591
0.0116153
8.30548e-05
-0.00635018
-0.0152734
0.0105178
-0.00246443
-0.00449831
0.00250117
0.00552826
-0.00441342
-0.0126583
0.0180008
-0.0688652
-0.0920713
-0.112547
-0.100088
-0.0530467
-0.0887014
-0.0435743
-0.118757
-0.0146932
-0.0354509
0.00473338
-0.00467279
-0.113327
0.00861349
-0.0268628
-0.168863
-0.0691977
0.00215494
-0.167795
-0.0761142
0.000404938
0.00383154
-0.0585894
0.00217548
8.93308e-05
-0.0682232
0.00263379
0.0107531
-0.0238491
0.00216269
-0.000379824
0.00306977
-0.050795
0.00210221
-0.0270604
-0.0436728
-0.110353
-0.0275177
-0.0436383
-0.011053
-0.120843
-8.16249e-06
0.00678635
0.0121448
-0.0110494
0.000736483
-0.00763805
-0.00632807
-0.000708519
-0.115951
-0.118237
0.00302912
0.0113527
0.0281364
-0.0450308
0.00257309
-0.00267448
-0.024226
0.0622255
0.00904174
5.9092e-05
0.0237926
0.055774
-0.0761095
-0.00775967
-0.037947
-0.0102602
-0.0319906
-0.00936802
-0.110949
-0.00796794
-0.01505
-0.043449
0.0048256
-0.11633
-0.0791097
-0.0253175
0.00906026
-0.0207737
-0.135605
-0.00775259
0.00478882
-0.0518708
-0.0433479
-0.0640502
0.0058766
0.000657039
-0.00694941
0.00269963
0.00375947
-0.0143922
-0.0013295
0.00997023
-0.0907192
-0.0245775
0.00104148
-0.0105328
-0.0083942
-0.0318111
-0.0181995
0.00268875
0.00152637
0.00191071
-0.02797
-0.0221034
-0.00339844
0.00157263
0.0025673
0.00164476
0.00372059
-0.0023934
-0.0373864
0.000275363
-0.0348765
-0.0129288
-0.0761482
-0.140599
-0.0180736
0.000294913
0.00529342
0.0012543
0.00112485
0.00333432
0.023368
-0.0377292
-0.114825
0.00216327
0.00409952
-0.0505326
-0.00445344
0.002451
0.00564665
-0.0333115
-0.00487415
0.0126242
-0.0153743
0.00380904
0.00249487
-0.0102098
-0.0613471
-0.0238258
0.00617457
-0.107607
-0.00131371
-0.0631807
-0.0147787
0.00546518
-0.113649
-0.0605843
-0.0231968
-0.0182609
0.0464548
0.000972232
-0.00402594
-0.03097
-0.110255
-7.82076e-05
-0.0183796
0.00565071
-0.0185647
-0.115937
-0.0187037
-0.116581
-0.0347584
-0.0152951
0.000152873
-0.0277613
0.00337198
-0.0768337
0.00477268
0.00240963
0.00209493
0.00208134
-0.082749
6.87421e-05
0.000846398
-0.118055
-0.0084295
0.00185057
0.0233871
-0.115204
-0.059342
0.00759785
0.0024009
-0.0184633
-0.00445607
-0.0312292
-0.0244927
-0.00311188
-0.0119811
0.00419742
-0.00871594
-0.0152407
0.00382579
-0.0432583
0.00276741
-0.104207
-0.139289
0.00578181
-0.00944064
-0.00233672
0.00206782
-0.114342
-0.00217894
0.00619422
-0.00596725
-0.0189386
-0.122888
-0.00596806
-0.00129564
-0.0176794
-0.0509512
3.12389e-05
-0.0180368
0.0150584
0.000351721
0.00030697
0.0313693
-0.00989237
0.0028106
0.0014554
-0.0241965
-0.0368624
0.00687036
0.00983369
-0.0101453
-0.134736
0.00411645
-0.061069
0.00655798
-0.0276057
0.0106966
0.00669884
0.00752296
0.00216937
0.00578072
-0.0675232
-0.0365618
-0.0363046
-0.0503927
-0.00380168
0.00299456
-0.0861852
0.00220579
-0.00334759
0.00646299
-0.00462583
-0.0201171
-0.000894347
0.00271988
0.00266781
5.40025e-05
0.00180231
-0.0110338
-0.00871453
0.00223253
-0.0144029
-0.11685
-0.106047
-0.115829
-0.00372583
-0.0547082
-0.0272824
-0.000304086
-0.0114499
-0.00258523
-0.0457607
-0.0365926
0.0105548
0.00202871
0.0020097
-0.0202645
-0.0369565
-0.106323
0.00407741
0.000214111
-0.0193395
-0.00293365
-0.00723761
-0.11508
-0.0347969
-0.0445378
0.00660898
0.00253751
0.000102854
0.00387039
-0.0189539
-0.0223598
-0.0717531
-0.0167707
0.005038
-0.0369336
0.0110204
0.000647266
-0.00312837
-0.116962
-0.0144063
-0.00231573
-0.00382424
0.00275508
0.00267639
-0.111059
-0.0315346
0.00184369
0.00145154
-0.0133096
-0.0724454
-0.0447971
-0.127288
-0.0299522
-0.0323894
-0.105761
-0.0206466
-0.00969209
-0.00261321
-0.0244206
-0.0529155
-0.00877854
-0.0211613
0.00537308
-0.085135
-0.000297739
-0.00732112
-0.106341
0.00281711
-0.000807334
0.0030774
0.00127001
-0.00357426
-0.116375
-0.0187451
-0.0246225
-0.00348568
0.00566783
0.00270393
0.0019591
0.00197497
-0.0103967
-0.00957877
-0.0306241
0.00741167
0.00537108
-0.00292461
-0.00358752
-0.054895
-0.0188541
-0.02346
-0.00321542
0.00278973
0.000476745
0.00133196
-0.046534
1.95777e-05
0.00391651
-6.44373e-06
-0.111765
0.00341451
-0.0137182
0.00271787
0.000244231
0.0166812
0.000450938
-0.044059
0.00228148
0.00255177
-0.0713846
0.002258
0.0562852
0.0279056
-0.0581555
0.0390494
0.000181783
0.0014801
-0.0239528
-0.0488467
-0.0590224
0.0147938
0.00289057
-0.0604012
0.0411477
0.00340587
0.00518979
-0.000182227
0.00343975
0.016151
-0.0597895
-0.00706729
0.00237571
0.000220785
0.0171224
-0.1023
-0.0394379
0.0199949
-0.000479471
0.00455325
0.00232704
0.0106716
0.00248527
0.000150762
9.58361e-05
-0.0346641
-0.0158496
0.00272031
-0.0324784
0.00247655
0.00247738
-0.0337175
0.00549071
-0.0194158
-0.00175547
-0.0125552
0.00574471
0.00234788
-0.0940821
0.00417036
0.00461862
0.00279617
-0.117012
0.00672949
0.0046637
3.41549e-05
-0.0543962
0.000151074
0.00502635
-0.00338688
0.000616162
-0.0294771
-0.112635
-0.0942632
-0.00693971
-0.0535581
-0.125199
0.0286469
0.00272598
0.00104097
-0.111067
-0.115542
-0.0145145
-0.058614
0.000123253
0.00185257
0.00182753
-0.00829778
-0.0177035
0.00202808
-0.0393492
-0.0878531
0.004794
0.00533454
0.00113772
-0.00148973
-0.00718765
-0.0608781
0.00257335
0.00304203
-0.135376
0.00131588
0.00206141
-0.0392083
-0.00901146
-0.082418
0.0346818
0.00209045
0.00409503
0.000133282
-0.00606401
-0.0381523
-0.0116886
-0.00447268
0.00369485
0.0027346
-0.0318078
-0.00280468
-0.00841463
-0.0445469
-0.0787327
-0.0381411
-0.0116638
-0.0134317
0.00247033
-0.107639
-0.127417
0.00469741
-0.0128683
0.000457929
4.6276e-05
-0.0169469
0.00308656
-0.0076793
-0.11606
0.00736726
-0.0075589
-0.0397712
-0.0125097
-0.124165
-0.0923085
0.00496663
-0.00111572
-0.0023929
-0.00803346
-0.0171934
0.0045959
-0.0384857
-0.0029269
0.00274434
0.00111252
-0.00333648
-0.014482
-0.0132904
-0.00497623
-0.00280946
-0.113633
-0.144106
0.017822
-0.0434567
0.00166609
0.00170961
-0.110735
-0.112225
-0.0379473
-0.0280313
0.00257381
-0.115561
-0.0774397
-0.0600704
-0.0471389
-0.0463116
0.00228334
-0.00626293
-0.0074073
0.00326237
0.00212088
-0.0163565
-0.0388643
0.00548771
-0.124141
0.0112145
-0.00911821
-0.122051
-0.0139444
0.00250404
-0.0496704
-0.103251
-0.0358852
0.00731208
0.00395084
0.00247286
0.0153746
0.00324895
-0.00438729
-0.0320953
0.0022622
0.00524436
-0.0190076
0.00463184
0.00263198
-0.0176354
-0.00548388
-0.00751832
0.00188492
-0.00299075
-0.0140696
0.0097312
-0.0212967
0.00248842
-0.132537
0.00132719
-0.0552546
-0.0223521
-0.0548052
-0.0408829
0.00194464
0.00260338
-0.114962
0.00173911
-0.0136245
0.00119767
0.00528151
-0.0996016
-0.122201
-0.16547
-0.014165
-0.0177628
0.00508005
0.00184589
0.0133093
0.00243729
0.00398997
-0.0786325
-0.0356528
-0.0407988
0.0211986
-0.0681603
0.00119583
-0.0801846
-0.115615
-0.0470038
-0.0485595
-0.142572
0.014319
0.00456578
-0.0282016
0.00590308
-0.0356219
0.000899466
-0.0152681
-0.0281016
-0.0135283
0.00631876
-0.0151514
0.00492234
0.00378726
0.00512264
0.00405558
0.00273978
0.00371803
0.00633224
0.00192427
0.00528845
-0.0250794
0.00629154
-0.126352
0.00546912
-0.00570571
0.00194697
-0.028795
0.00395672
-0.044768
-0.0446899
0.00533063
-0.0234326
-0.00645452
0.00433872
0.0160785
0.00241572
-0.0133866
-0.0563914
0.0024607
-0.0689892
-0.125297
0.00633733
-0.0767023
1.70825e-05
-0.0113889
-0.00380596
-0.0532854
-0.013052
-0.001287
-0.115063
-0.116267
-0.0386475
0.00306273
-0.106147
0.0013576
-0.0735046
-0.0143323
8.73153e-05
0.00211858
-0.0132307
-0.115748
-0.0693584
-0.00352425
0.00411777
0.00309382
-0.0478084
-0.0180989
-0.013773
0.001551
0.00304335
0.00604952
0.00302152
-0.0139228
-0.00379659
-0.0265495
-0.134512
-0.00877955
0.00498149
-0.04794
-0.0295632
-0.0278213
0.00205186
-0.0401443
-0.0309016
0.00307285
0.00203119
-0.124066
0.00520477
-0.00757198
0.00479695
0.00399393
0.00723676
-0.021397
-0.00985631
0.00253316
-0.0460379
-0.0993562
0.00473669
0.0022894
0.00589119
-0.038718
0.00269119
0.00158946
-0.00386514
0.00309989
0.00382308
-0.0378224
-0.0195806
0.00435677
0.059166
-0.0545348
-0.00475876
-0.0308895
-0.00416324
-0.120958
-0.0976916
-0.00732391
0.00234816
0.0437913
-0.145254
-0.114936
-0.0840362
-0.105475
-0.0714999
0.00618133
-0.00853262
0.00304844
-0.00165275
-0.00701869
-0.0350426
-0.0952211
-0.0397699
0.00204698
0.00873365
-0.0136659
-0.0701621
0.00180232
0.00272734
0.00220555
-0.0113656
0.00409711
-0.0126055
-0.0758533
-0.0109292
-0.00354227
0.0132968
-0.00146065
-0.0388015
-0.00687357
-0.0105153
0.0064345
-0.113788
-0.100406
-0.0213634
-0.0117285
-0.0505933
0.00503721
0.00261049
-0.00181275
-0.0743662
0.00212715
0.00255552
-0.00184253
0.0489322
0.00201242
-0.0307003
-0.0120843
-0.0304365
0.00271491
-0.096352
-0.0326293
-0.00221476
0.00622007
-0.113549
-0.0697001
0.000181705
0.00125533
0.0015124
-0.0034767
0.00157091
-0.0838459
-0.0457779
-0.122774
-0.0111532
0.0020427
-0.0704617
-0.00746762
-0.0107017
0.00163642
-0.0683505
0.00691715
-0.037223
0.00232482
0.00299689
0.00292133
-0.0143989
-0.114176
-0.00108631
-0.0373893
-0.018876
0.00254881
-0.0674272
0.00248986
-0.0666576
0.000152316
0.00693234
-0.0430772
-0.000305243
0.000787348
0.00896656
-0.115947
0.00197995
9.52444e-05
-0.040877
-0.00483959
-0.15905
0.00225789
0.00369291
-0.0472299
-0.045865
-0.0140954
-0.0773526
-1.83522e-05
0.00306236
-0.0331839
0.00311159
-0.00296778
-0.0176714
0.000162067
0.00291539
0.00249437
-0.102112
-0.155233
0.00200081
0.0133506
0.00155686
-0.0998471
-0.0825342
0.00258208
-0.13159
0.0113901
-0.00686531
-0.0572987
-0.11479
0.00251438
0.00608012
0.00493866
0.00239202
0.0015155
0.00839104
-0.0425477
-0.000416792
-0.00406726
-0.00598172
-0.0746514
0.0057389
-0.0035298
-0.00760884
0.00300886
-0.0304888
-0.0110031
-0.032712
-0.115687
5.71068e-05
-0.0123643
0.00498477
0.00251406
-0.0035448
-0.0117896
-0.117837
-0.037016
0.00157919
0.00501343
0.00687907
-0.0146802
-0.000145924
0.00877927
-0.0155654
-0.00552257
-0.020602
-0.120925
-0.0827573
0.0155399
0.00550922
0.00703055
-0.0950758
0.00246691
0.00352819
-0.0889971
0.00308176
0.0140755
-0.0351387
-0.00836265
0.0503712
0.00187853
-0.000581284
0.00202973
-0.112107
-0.0311713
-0.00861211
-0.00419597
-0.00219574
-0.0488496
-0.0109188
0.000930028
-0.000433198
-0.0195276
-0.126644
0.0124625
0.00727448
-0.0102324
0.00270183
0.000411903
0.00205132
0.00754306
-0.00214891
0.00273851
-0.0807741
0.00190508
-0.0328103
-0.10378
-0.00877221
0.000693976
0.00492353
0.00167527
-0.111111
-0.00036687
-0.0211332
-0.115026
-0.0205103
-0.110923
-0.0369399
-0.00384946
0.00536797
0.0030793
0.00860038
-0.0177056
0.00260843
-0.0108541
-0.0198745
-0.0974991
0.00636892
0.00357061
-0.00229223
0.00275354
0.00271184
0.0163414
0.00303513
0.0261507
0.00175574
0.00226448
0.00260094
-0.0811981
0.00302828
0.00577161
-0.123728
-0.00376812
0.00261203
0.00100425
0.00357967
-0.0864144
-0.0119914
-0.00720471
-0.00187218
0.000228105
0.00129049
-0.00639982
0.00179822
-0.0139152
0.0014239
-0.025153
-0.0204493
0.000915469
-0.0209688
-0.005955
-0.0181909
0.00250076
0.00262512
-0.00745785
0.00236073
0.00648897
0.00406177
0.00423725
-0.0037393
-0.00899116
0.00666928
-0.0196949
0.000694987
-0.047064
-0.062151
-0.00219371
-0.0124616
-0.00596582
-0.0085044
-0.122694
0.00641309
-0.0200685
0.00696312
-0.000101302
-0.021818
-0.0211053
0.0101145
-0.114378
-0.101076
-0.0524271
-0.114974
-0.00593937
-0.105976
-0.0037327
-0.0193415
0.00390931
-0.00823482
0.00295787
-0.00492292
-0.0738169
0.00671014
-0.00266274
-0.0208254
0.00578846
-0.0775063
-0.0507096
-0.0149863
0.00146821
-0.0124525
-0.046594
-0.000619615
0.00399041
0.00214969
-0.0672561
-0.00617213
-0.0105459
-0.11664
-0.118068
0.00153547
-0.047948
0.000442328
-0.0531273
0.0114081
-0.112412
-0.00901237
-0.0232288
0.00275837
-0.0310499
-0.0526931
-0.0149503
-0.0146321
0.00153339
-0.0119623
-0.0889401
0.00123739
-0.0042329
-0.00564147
-0.0142621
0.00217622
-0.117994
-0.0307407
-0.038186
-0.0362887
-0.11387
-0.0867857
-0.0312525
0.000277314
-0.00905673
-0.00474609
0.00977136
0.00183837
-0.00222669
0.00409829
-0.0062518
-0.116051
0.00257811
0.00354465
-0.087726
-0.00369691
-0.0465482
0.00210252
0.00346688
-0.00989686
0.000114289
-0.0372157
0.000106419
-0.0864139
0.0557984
-0.155269
-0.0858964
-0.00857651
-0.00679387
-0.0151899
0.00246463
-0.0804402
0.00625097
0.00240965
-0.100523
-0.0079949
0.00148791
-0.0437193
-0.0248159
-0.0177877
-0.0429414
-0.12308
5.80495e-05
-0.141488
-0.112765
0.0150119
-0.03328
-0.00989661
0.00243345
-0.0206568
-0.0818681
-0.00617652
-0.00421584
-0.0164006
0.00346473
-0.00314548
-0.0068708
-0.00953033
0.00371366
0.00221075
-0.00666582
-0.00785755
-0.0264618
-0.0186087
-0.00414675
-0.0180374
-0.0265149
-0.0604696
-0.0107753
0.0208643
0.00373985
0.00407271
-0.0119998
-0.0170032
-0.0178724
-0.0228081
0.00343716
0.00539645
0.0040471
-0.116173
-0.0258995
0.00673875
-0.0256947
0.00104225
0.00324815
0.00221493
-0.0312459
-0.00857475
-0.0047931
-0.0642022
-0.0506028
0.00219015
0.000698666
0.00161731
0.00610166
-0.191962
0.00483285
0.00618747
-0.0660825
-0.155539
0.055206
-0.104831
-0.0222016
-0.0164628
0.00138731
-0.0334199
-0.0305689
0.00495758
-0.0260401
0.00138184
0.0041399
-0.00389256
0.00621158
-0.0255757
0.00361211
0.00908561
0.00253323
0.000399606
-0.0372735
-0.0301114
-0.0132012
-0.0537317
0.00685446
0.00582636
-0.0264969
-0.0147379
0.00496203
0.00144618
-0.0560327
-0.0405378
-0.122911
-0.0328304
0.0025943
-0.102699
0.00814036
-0.0790106
0.00330878
-0.0271836
0.00601642
0.0157393
-0.0037583
-0.00100569
0.000693765
0.0101571
-0.012859
-0.0514382
-0.0286041
0.00552754
-0.0201806
-0.0941051
-0.00532061
0.00288114
-0.0517959
-0.11666
-0.0796398
-0.026078
-0.000268098
-0.0613272
0.00266313
0.00244002
0.00267277
0.0190704
0.00239067
-0.0338749
-0.0827338
0.00621419
-0.00227422
-0.0984289
-0.116217
0.0493092
-0.0622312
-0.0329136
0.00905267
0.0157339
-0.0330399
-0.0192223
0.00265704
0.0124199
-0.0322542
0.00541805
0.00443714
-0.0844547
-0.0176391
0.00240466
-0.00127279
0.00729829
0.0585224
-0.100358
0.00416484
-0.0114397
-0.115975
0.00844952
-0.106521
-0.0724463
0.00288378
0.0563712
0.0122164
-0.0206851
-0.0237438
-0.0951665
-0.0445721
-0.0194604
0.00540137
-0.0023725
-0.0375575
0.00238965
0.00240777
-0.078539
-0.0176075
-0.0426406
-0.0380342
-0.00736815
-0.0106699
0.00587292
0.00255472
0.00251308
0.00267768
-0.0208868
-0.0204741
-0.11363
-0.0823337
-0.103468
-0.00161645
0.00691914
0.0253232
-0.101274
6.20385e-05
-0.0230919
-0.00388494
-0.00552705
-0.00616186
0.00393005
0.00554088
0.0143961
-0.114831
-0.033738
0.00160689
0.0577087
-0.000396114
0.0038114
-0.0197865
-0.00994207
0.00229263
-0.00819368
-0.00595853
-0.0167941
0.00411534
-0.0291219
0.00275422
0.00262811
-0.0265742
-0.0272559
-0.0359901
0.00604344
0.00158255
-0.0146656
0.00253548
-0.115488
-0.0238574
0.00309553
-0.00743207
-0.0630188
-0.0158818
-0.117489
-0.0126286
-0.000127436
-0.0532038
0.000512844
-0.0223884
-0.0134811
-0.00992936
0.00198503
-0.0442816
-0.00290294
-0.0125025
0.0108018
0.00557788
0.00799108
0.00771194
0.00349571
-0.0681233
-0.0437014
0.00610086
0.00291362
-0.117601
0.00604169
-0.0217534
-0.00103619
0.00303675
0.0162464
-0.00842183
-0.0241342
-0.0308061
0.00376019
0.00469815
-0.0108033
-0.00928448
-0.0406997
0.00288816
-0.000343317
0.00247773
-0.0522931
-0.00112489
-0.036777
0.000816688
-0.0195688
0.00306607
0.0126616
0.00754526
-0.0010105
0.00237867
-0.0355834
0.00322747
-0.111283
-0.00199262
0.000256719
0.00115757
0.0101707
-0.0155223
-0.0124223
-0.0137935
-0.0131742
-0.0182137
0.00117666
0.0114571
-0.0180252
-0.00343364
-0.105623
-0.0426365
0.00461192
-0.0158426
-0.00363767
-0.0203093
-0.0590405
0.00405667
-0.00612951
-0.0583667
-0.152677
-0.140157
-0.00181069
-0.0280362
0.00608827
0.00251878
0.00277769
-0.00847259
0.00590433
0.00334081
-0.0161912
-0.00729865
-0.016734
-0.162884
-0.0870517
-0.00360079
-0.0315044
-0.0553011
-0.0211564
-0.0200935
-0.0153384
0.0053738
-0.00309746
-0.00427431
-0.0913079
-0.0205573
0.00260131
0.00275595
-0.0868663
0.00358901
-0.00582401
-0.0377619
-0.00314434
0.00846138
-0.00124252
-0.053052
0.00421682
-0.0121863
0.00026824
0.00428696
-0.00405369
0.0297084
0.00648486
-0.114787
0.00368481
-0.0408173
-0.0469941
-0.0521798
0.00059201
-0.000349854
-0.00993276
0.00254561
-0.00872598
0.00391732
0.00197852
0.000705213
0.00123475
0.00415175
0.00478437
0.00190097
-0.0419896
0.0123426
0.00887146
0.0025486
-0.0296949
0.000652396
0.00164772
-0.117741
-0.081989
-0.130474
0.000532023
-0.0321652
-0.00868297
0.00252025
0.00116674
-0.00343312
-0.0533088
-0.013903
-0.00247708
0.00452256
-0.0289531
-0.0166544
0.0168568
0.00181547
-0.144083
-0.00765588
0.000200866
0.00117597
-0.123576
0.00458741
-0.0323613
-0.0275449
-0.0155583
-0.0163186
0.00555027
-0.011515
-0.0341352
0.026108
-0.0855362
-0.00181212
-0.0994624
-0.00595404
0.00532022
-0.0482458
-0.0366598
0.0214583
-0.0817671
0.00302243
-0.0390381
-0.0696843
7.35214e-05
0.00143047
-0.0144705
0.0022589
0.00541231
-0.0184887
-0.0750641
-0.00536434
0.00583902
-0.00531548
0.000100431
-0.0296326
-0.0629439
0.0312656
0.00140031
0.00193733
0.00191216
-0.0211944
0.00012331
-0.00284299
-0.00356263
-0.0211192
0.0163177
0.0040347
-0.0864111
0.00149497
0.00198178
-0.0651854
0.00415452
-0.0411123
0.0235794
0.000114606
-0.00152586
-0.0232251
0.0066262
-0.115319
-0.0106669
-0.0428179
-0.00311785
-0.142166
0.0025456
-0.0136172
0.00757321
-0.0677533
0.00316986
-0.0206027
0.00210068
0.00542861
-0.0312931
0.00504372
-0.0239413
0.00461932
-0.0059303
-0.0389721
-0.0195176
0.00115257
-0.019851
0.00630799
-0.000727682
0.0152876
-0.00374323
0.00296018
-0.00119603
0.00337569
-0.0875781
0.000203733
-0.046042
-0.00303518
0.00226908
0.00878501
-0.00236887
-0.0370524
0.00529466
-0.00886233
-0.0532954
-0.0477976
-0.14414
-0.016012
-0.04601
-0.0810046
0.000133701
-0.0285072
-0.0271894
0.00264471
-0.0124032
-0.00214062
-0.0140113
-0.00490193
-0.0309635
-0.0140371
-0.0186193
-0.0889296
0.00300301
-0.0285048
0.00365755
-0.0343906
-0.00717279
-0.0265681
-0.00600141
-0.000901615
-0.0247739
-0.0336336
0.00141996
0.000259206
0.000547441
0.00159097
0.00245076
-0.03142
-0.0292763
0.00247274
0.000598202
-0.00299813
-0.00669841
-0.016331
-0.0356788
-0.00187655
-0.0136122
0.00585243
-0.0323309
0.00129215
-0.00301755
-0.0671716
-0.0926243
0.00304077
0.0169925
0.00229305
0.000213121
0.00871332
-0.00671416
-0.0149896
-0.0571042
0.00322769
0.00259147
-0.000119317
0.00149889
0.00444008
0.00845212
-0.0251323
0.00381302
-0.00673851
0.0168776
-0.0191923
-0.0136818
-0.00155023
-0.0126374
0.0026432
0.00263947
-0.0484878
-0.00438564
0.00236933
0.00558101
-0.112946
-0.0176988
-0.00937809
0.0478601
-0.120765
0.00492047
-0.00809157
-0.000360444
-0.00721507
-0.00366092
0.0296308
-0.0761068
0.00307062
-0.0270817
-0.0808667
-0.0633642
-0.0103482
-0.0945092
0.000686749
0.00061096
0.000394354
0.00165717
-0.00546381
-0.0590652
-0.0200835
0.00117804
0.00381173
-0.0302872
-0.0115495
0.00231034
-0.0200616
0.000149594
0.00953873
-0.11492
-0.11539
0.00420734
-0.113814
0.00511127
-0.0432061
0.00105493
-0.0729848
0.0137945
-0.0233422
0.00998273
0.00229092
0.00438151
-0.10468
0.00268253
-0.0497507
0.00248564
0.0012757
-0.0733745
-0.0197755
0.00736923
0.000183145
0.0105891
-0.111983
-0.0201349
-0.0111123
-0.0586791
0.00253198
-0.00862542
-0.00472828
0.00237696
0.00267321
0.0049608
0.00255244
0.00136459
-0.0522759
0.000413141
-0.0671932
-0.117605
-0.0047204
0.0022385
0.00443714
-0.00315372
-0.00895266
0.00449893
-0.00359386
0.00489688
-0.00219728
0.00152362
-0.0303598
-0.0377364
0.00684873
-0.0284728
0.00447385
-0.0223236
0.0212703
-0.128285
0.00203851
-0.04389
0.0026945
0.00224723
-0.00791998
0.000398749
-0.0197703
-0.104982
-0.0146638
-0.0271323
0.0024009
0.002309
0.0289939
0.00604781
0.0184796
-0.00247085
0.00258993
0.0044114
0.000761788
-0.0201484
-0.0986497
-0.0317699
-0.00384417
0.0022602
-0.0208636
-0.0106814
-0.021363
0.00129673
-0.0346185
-0.111521
0.00113001
0.00447915
-0.0241268
0.00225578
0.000188292
-0.117722
-0.000391654
0.00593588
0.00301032
0.00227496
-0.0269635
-0.00231886
-0.0132233
-0.0014563
0.00223376
0.00256871
-0.130891
0.0300964
-0.00490509
-0.00795497
0.00226016
-0.0104717
-0.00137579
0.00261335
0.00262105
0.005442
0.00137587
-0.00330649
0.00227769
0.00419578
-0.00881372
-0.00249515
-0.0152795
0.00107681
-0.0354993
0.00226692
-0.039523
0.00571894
0.00135854
0.00227255
-0.015758
0.0085523
0.0459492
0.00466549
0.00253072
-0.0143814
-0.128706
-0.0305265
0.000204441
0.00227233
-0.0427571
-0.042548
0.00173985
-0.125973
0.0039569
-0.0192334
0.00369992
-0.000877612
-0.0209743
7.20844e-05
0.00261725
0.017851
0.0198383
0.00226897
0.00260054
0.00153621
0.00122407
-0.0603979
0.00307709
-0.0343889
-0.114653
0.00239616
-0.0361827
0.0114363
-0.114909
-0.0288282
0.00592944
0.000630019
-0.0285061
-0.00709569
0.00225833
0.00241573
-0.000766673
-0.123364
-0.00387692
-0.0314518
3.61156e-05
0.00938523
-0.000429266
-0.016911
-0.0733647
0.0454114
-0.0306289
0.00297834
0.0023888
0.00139658
-0.00309419
-0.0200995
-0.0982168
0.00167965
-0.035912
-0.11476
0.00931712
-0.00850813
0.00244465
-0.00868894
-0.0454786
0.00242219
-0.00412971
0.00767525
0.00319339
-0.00921265
0.00885058
0.0526818
0.0224405
-0.0058263
0.00170874
-0.122531
0.00350966
0.0179386
-0.0722918
0.0171034
-0.0423192
0.00196253
-0.126757
0.00350709
-0.0892658
0.00531455
0.00354371
0.00310082
-0.00154277
-0.0140318
-0.00205959
-0.101898
-0.0189258
-0.0330916
-0.058927
-0.00802237
-0.0372753
-0.0615096
-0.0231068
-0.0526859
-0.119704
-0.0416137
0.0032927
-0.111604
-0.0204471
0.00247609
0.000487466
-0.00965511
0.0062419
0.00142725
0.0087257
-0.00452898
0.00254026
0.00716111
-0.0794804
-0.00664092
-0.00153296
-0.00229136
-0.0114812
-0.0610563
0.00216793
-0.0140732
-0.0293308
0.00259764
-0.00438552
-0.00668845
-0.104073
0.0063857
-0.00681284
-0.0790402
-0.00373603
0.00143366
0.00300144
-0.0813518
-0.110518
0.00207343
0.00797767
-0.0376492
-0.00639432
0.00253916
-0.0982343
0.00217833
0.00696278
-0.0292174
-0.00696697
-0.0143273
0.00351567
0.0175568
-0.0352783
0.00242549
-0.0218825
0.00269522
0.00275147
0.0221496
-0.0182725
-0.0773631
0.00115486
-0.00286113
-0.0359517
-0.177127
0.0220868
-0.00246466
-0.0283807
-0.0105598
-0.0668825
-0.11646
-0.134907
-0.00427673
-0.142539
0.00358079
-0.0049925
0.00603235
-0.083566
-0.0024911
0.00245459
-0.0158348
-0.00235625
-0.0110783
-0.0162013
0.00432456
-0.0532635
0.0135976
0.00345218
0.0151183
0.00922847
0.0130813
-0.000759781
0.00115537
-0.0839223
-0.0121036
-0.013208
-0.116601
0.0128212
-0.0137579
0.00243352
-0.129924
-0.0250534
-0.11688
-0.0257742
-0.00825955
0.00448344
-0.0427103
-0.00563473
-0.115522
0.00784248
0.0030654
-0.00630926
-0.0168499
0.00409205
-0.0424335
-0.0438466
0.00274411
-0.0178292
-0.0122346
0.0037096
-0.00061535
0.00289916
0.00385283
-0.0520362
0.00637952
0.00307515
-0.00479727
-0.0278834
-0.0121388
0.00304343
0.00266399
-0.166556
0.00263228
0.00109804
-0.102277
0.00223468
0.00283471
0.00229352
-0.142997
0.000515814
-0.00341325
0.00362626
-0.0195058
0.0118094
0.0012403
-0.015218
0.00485638
0.0162328
0.00268295
0.00702036
-0.0154032
0.00310981
0.000119573
-0.115981
0.00272967
0.00386031
0.000941515
-0.0494542
-0.012313
0.00157493
-0.0186279
0.000653031
-0.0560519
0.00317245
-0.135514
-0.00213694
-0.00428273
0.00767617
0.00262482
-0.136736
-0.00615392
0.0037196
-0.0287969