/*--------------------------------*- C++ -*----------------------------------*\
| =========                 |                                                 |
| \\      /  F ield         | OpenFOAM: The Open Source CFD Toolbox           |
|  \\    /   O peration     | Version:  v2012                                 |
|   \\  /    A nd           | Website:  www.openfoam.com                      |
|    \\/     M anipulation  |                                                 |
\*---------------------------------------------------------------------------*/
FoamFile
{
    version     2.0;
    format      ascii;
    class       surfaceScalarField;
    location    "100";
    object      phi;
}
// * * * * * * * * * * * * * * * * * * * * * * * * * * * * * * * * * * * * * //

dimensions      [0 3 -1 0 0 0 0];
oriented        oriented;


internalField   nonuniform List<scalar> 
41383
(
-0.00464514
0.106507
-0.101862
0.48598
-0.0986252
-0.387355
0.225839
-0.320396
0.0945573
0.325519
-0.456046
0.130527
0.0465781
-0.0446114
-0.00196661
0.347495
-0.130266
-0.217229
0.383839
-0.0627858
-0.321053
0.187714
-0.285955
0.098241
-0.0745895
-0.0850758
0.159665
0.106715
0.107362
-0.214077
-0.460722
0.356148
0.104575
-0.0296252
0.0253373
0.00428792
0.0166342
0.000830006
-0.0363232
0.135097
-0.0987736
0.262491
0.0754668
-0.337958
0.30013
0.083709
-0.216422
-0.205233
0.0255919
-0.0353441
0.00975223
0.0477524
-0.127763
-0.150086
0.0098102
0.140276
0.0885161
0.397464
-0.503381
0.403054
0.100327
-0.0975836
0.0929385
-0.0935647
0.027779
0.0657857
0.291916
0.124181
-0.416097
-0.300092
0.106807
0.193285
0.106843
-0.340013
0.23317
-0.104604
0.211319
0.455397
-0.163481
0.12066
-0.120656
-4.54976e-06
0.380058
-0.163088
-0.21697
0.150199
-0.380304
0.230105
-0.0477169
0.0598686
-0.0121517
-0.073778
-0.194386
0.268164
-0.0551326
0.00741566
-0.122668
-0.236481
0.359149
-0.225203
-0.0372777
0.26248
0.286318
0.01893
-0.305248
0.161399
0.218659
-0.334324
0.221095
0.113229
-0.318448
0.157191
0.161257
-0.156448
-0.177876
-0.0389401
0.0228013
-0.0777163
0.301937
-0.224221
0.409818
-0.340769
-0.0690485
0.0806228
-0.336746
0.256124
0.00544494
0.0644553
-0.0699002
0.244443
0.0460502
-0.290493
-0.328426
0.438148
-0.109722
-0.157814
-0.0696806
0.227494
0.023495
0.124833
-0.148328
0.341687
0.0681303
-0.116549
0.397057
-0.280508
-0.369765
-0.0314558
0.401221
-0.216305
0.332014
-0.115709
0.0894102
-0.327517
0.238106
-0.0018669
0.153801
-0.0350785
-0.118723
-0.396627
0.366964
0.0296629
0.0102891
0.00114376
0.254292
-0.37696
-0.368221
-0.0284055
0.315467
-0.436843
0.121376
-0.108665
-0.249371
0.358035
-0.00998165
0.0355735
-0.0923163
0.0880855
0.00423081
0.00257187
-0.0192628
0.0166909
-0.0228879
-0.22902
0.251908
0.0356943
-0.0494148
0.0137205
-0.1494
0.378137
-0.228737
-0.158565
0.423316
-0.264751
0.064726
-0.0682085
0.00348252
0.250718
-0.0906867
-0.160031
-0.0491903
-0.0261526
0.0753429
0.318961
-0.415375
0.0964144
0.0398989
0.118667
-0.158566
0.316998
-0.0306806
-0.0182473
0.0208192
0.102989
-0.260803
0.327256
-0.0271263
-0.0319052
0.0247613
0.00714382
0.34438
-0.192314
-0.152066
0.422687
-0.336892
-0.0857955
0.0450167
0.108785
-0.0514249
-0.328882
0.380307
0.208755
-0.178315
-0.0304396
-0.348719
0.0906542
0.258065
0.111208
-0.327512
0.0669156
-0.00218967
0.00436381
-0.0622062
0.0578424
-0.0422004
0.0476578
-0.00545741
0.420626
-0.0536618
-0.0254529
0.202803
-0.17735
0.287189
0.0400671
-0.479893
0.110128
0.131661
-0.34954
0.217879
0.139702
0.040607
0.0424236
0.00415446
-0.0989046
-0.0565127
0.0619577
0.177309
0.167072
0.267794
-0.220471
-0.0473232
0.187724
-0.0658359
-0.121888
0.4159
-0.0486388
-0.367262
0.0607644
-0.0564006
0.0523308
0.368295
-0.28154
0.386889
-0.10535
0.0509504
-0.12554
0.0978002
-0.335971
0.238171
-0.117502
0.137675
-0.0201732
0.294954
-0.00140685
-0.293548
-0.0875041
0.349995
0.192801
0.0749933
0.162527
-0.18798
0.442164
-0.0954159
-0.346748
-0.146557
0.0293346
0.117222
0.160796
-0.0316489
-0.129148
0.443914
-0.369485
-0.0744287
0.116821
-0.140132
0.0233113
0.0137986
-0.163885
0.0218005
-0.0199265
-0.00187396
-0.0481973
0.00599688
0.104523
0.0120125
-0.433462
0.0847433
0.054606
0.230063
-0.284669
0.430638
-0.14452
-0.286118
0.0965523
-0.0954674
-0.00108489
-0.47223
0.363301
0.108929
0.0173894
0.00197611
-0.0193655
0.00243511
0.0193654
0.145932
0.0417924
0.112605
-0.00808159
0.229858
-0.369915
0.140057
-0.129089
0.233571
-0.104482
0.0942615
-0.231992
-0.0541877
0.286179
0.372749
-0.210266
-0.162482
0.35157
-0.395913
0.0443431
-0.162852
0.209589
-0.046737
-0.0163066
0.106084
-0.0897776
0.0434335
0.218242
-0.261676
0.318551
-0.211709
0.307951
0.122688
0.449651
-0.376201
-0.0734503
0.0557601
0.386404
-0.0278119
0.163588
-0.135776
0.148437
0.224312
-0.153989
-0.0904291
0.244418
0.101177
-0.441946
0.376649
-0.146791
-0.192337
-0.268385
-0.00969046
0.254134
-0.0466252
0.172803
-0.126178
0.203317
-0.226205
-0.12993
0.143728
0.346908
-0.134548
-0.212359
0.222827
0.0261577
-0.248985
-0.0551309
0.0678685
-0.0127375
-0.1217
0.00419738
0.0512107
0.0141868
-0.0653975
0.0794664
0.0170859
0.0177254
0.209854
-0.00109932
-0.04476
0.161581
0.213602
-0.430024
0.30556
0.0595871
-0.365147
0.0311607
0.412753
-0.222559
0.311969
-0.204052
0.314587
-0.110535
-0.127052
0.136862
0.355447
0.0604538
-0.0250786
0.185875
0.398466
-0.0517406
-0.346726
-0.142778
0.00939315
0.133385
-0.329514
0.146077
0.183436
-0.0114466
-0.0254583
0.0369048
-0.048975
0.354535
0.149915
-0.136996
-0.0129184
-0.0712702
0.412958
-0.0230354
-0.202167
-0.0459438
-0.0476209
0.0396823
0.117709
-0.157391
0.125102
-0.138214
0.0131117
-0.20176
0.173948
0.332253
0.0662129
0.103296
0.00257827
-0.105874
0.11999
0.226918
-0.49667
0.117213
0.379458
-0.0482079
-0.0473942
0.095602
0.0783724
-0.086483
0.00811068
0.323887
-0.4205
0.0966131
0.308617
-0.158498
-0.150118
-0.121892
0.114345
0.00754684
0.0853274
-0.188422
0.103094
0.54176
-0.244371
-0.29739
0.212614
0.00848146
0.28862
0.25314
0.356042
-0.427312
0.0936469
0.225455
-0.319102
0.106712
0.211839
-0.0285807
0.0356381
-0.00705742
-0.173588
0.0401454
0.133443
0.322871
-0.40309
0.0802197
0.212644
-0.102425
-0.110218
-0.325438
0.0941866
0.231252
-0.110302
-0.00305505
0.113357
-0.198321
0.151696
-0.0420539
0.0723167
-0.0302628
0.389808
-0.402247
0.0124393
-0.00164154
0.0119307
0.418988
-0.410206
-0.00878218
-0.081941
-0.009087
0.091028
0.0349451
-0.0463917
0.12736
0.0225548
0.0345551
-0.0827629
0.127561
-0.372485
0.244924
0.341213
-0.47614
0.134927
0.176306
0.110883
0.325002
-0.193341
-0.223998
-0.106511
0.330509
0.0199948
-0.00260549
0.489789
-0.0950752
-0.394714
0.107963
-0.00466691
0.128296
-0.0681648
-0.0601313
0.108256
-0.0765752
0.428145
-0.413467
0.138023
0.170594
0.331668
-0.251045
0.270892
-0.222903
-0.0479889
-0.317088
0.403693
-0.0866049
-0.185838
-0.163702
0.0123588
-0.13356
0.121201
0.173833
-0.126081
0.0833111
-0.0996177
-0.461433
0.358359
0.103074
0.0256757
-0.0677296
0.0445732
0.0152954
0.379333
0.029952
-0.409285
0.092917
0.242481
-0.335398
-0.142289
-0.00970058
0.151989
0.0228529
-0.165142
-0.24355
0.378156
-0.134606
0.404721
-0.418193
0.0134726
0.0560892
-0.0115159
-0.0415526
0.397594
0.480629
-0.139416
0.315835
-0.139529
0.329048
-0.103209
0.107112
-0.132742
0.0256302
0.154161
-0.0645435
-0.0896175
-0.103742
0.105241
-0.00149972
-0.229764
0.322681
0.39833
-0.0728103
0.0433505
0.29905
-0.342401
0.309179
-0.360603
0.405809
-0.2285
0.0738459
0.138798
0.331971
0.104236
0.0499254
0.132523
-0.247616
0.115093
-0.0200642
-9.24271e-05
0.0201566
-0.0794071
0.469215
-0.0264503
0.0345843
-0.00813399
0.147029
-0.156786
0.00975632
0.00350282
0.0504209
0.174955
0.314834
-0.168115
0.0122133
-0.449635
0.197389
0.252246
0.010485
0.0955992
-0.359243
0.162932
0.196311
0.185743
-0.100415
0.00382148
0.0544733
-0.0582948
0.133822
0.106508
-0.24033
-0.122481
0.121572
0.00090836
0.0100333
-0.0523113
0.36149
-0.0948462
0.0129051
0.140523
-0.0047789
-0.135744
0.106947
-0.29667
0.189722
0.224187
0.0720837
-0.296271
-0.0230407
0.0785384
-0.0554977
0.204398
-0.134624
-0.0697749
0.161815
0.243994
-0.0413612
-0.170323
0.211684
0.166373
-0.151339
-0.015034
0.343216
-0.44387
0.100654
0.272591
-0.46946
0.196869
-0.264752
0.190974
0.504624
-0.229363
-0.275261
-0.168391
-0.00610645
0.174498
0.194051
0.310573
0.076831
0.18764
-0.264471
-0.0572732
-0.0892836
0.0531633
-0.382045
-0.0120602
0.0104187
-0.300648
0.411322
-0.110674
-0.0774763
-0.01484
0.053453
-0.209722
0.156269
0.281949
-0.373635
0.0916862
-0.0384356
0.0896463
0.137472
0.0363612
0.0289784
-0.19183
-0.132701
0.265224
0.0358819
-0.0295833
-0.00629863
0.149447
0.0555036
-0.20495
-0.136592
0.270414
-0.11935
0.176671
-0.0573211
-0.102692
0.104273
-0.00158026
0.0824839
-0.0914982
0.00901431
-0.211834
0.0827449
0.351309
-0.182402
-0.168906
0.339088
0.0799003
-0.149689
0.0303392
0.0996762
0.00683047
0.117506
-0.123803
0.00629687
0.0707739
-0.107097
0.168932
-0.412481
-0.227638
-0.315077
0.408039
-0.092962
-0.334315
0.450486
-0.116171
0.292255
-0.379928
0.0876726
0.412076
-0.0354274
5.64998e-05
-0.0201207
0.0727201
0.339356
0.300086
-0.2059
-0.016854
0.131992
-0.115138
-0.262082
0.342704
-0.080622
-0.050739
-0.0114481
0.0621871
-0.327509
-0.0507589
0.378268
-0.181379
0.0253951
0.155984
0.0341478
0.0941484
-0.0390904
-0.103688
0.10195
-0.0194664
0.288702
0.0533062
-0.342008
-0.0754894
-0.00451196
0.0800014
0.284437
-0.422933
0.138496
-0.0616241
-0.284136
0.34576
0.0382679
-0.0334228
-0.00484508
0.00837858
0.168271
-0.237951
-0.0585064
0.0762148
-0.0177084
0.24835
-0.152572
-0.0957785
0.0700701
-0.0634121
-0.00665799
-0.0066027
0.259424
-0.252822
0.2084
0.107435
-0.087342
0.02709
0.060252
-0.446506
0.279207
0.167299
0.04826
-0.0398446
-0.0084154
0.248022
-0.193416
0.154393
-0.262937
0.108544
-0.00747592
-0.25907
0.266546
-0.331742
0.202027
0.129716
-0.419713
0.120979
0.298733
-0.0460585
-0.0412834
0.410212
-0.43677
0.0265587
-0.292925
0.421398
-0.128473
0.289902
0.0191443
-0.309047
-0.191527
-0.0347056
0.226232
-0.402578
0.109653
-0.0117305
0.128193
-0.116463
-0.483143
0.238772
0.213453
-0.36506
0.151607
0.294036
-0.300639
-0.209029
0.167668
0.133857
0.00666582
0.417329
-0.306121
-0.072416
0.361118
0.00619995
0.0638702
0.164739
-0.0224541
-0.142285
-0.0726943
0.0606997
0.0119946
0.27991
0.0370883
0.0348252
0.000812926
0.177341
-0.012602
0.321833
-0.0268783
0.128173
-0.174192
0.0460187
0.266768
0.084443
-0.351211
-0.0800598
-0.416611
-0.299566
-0.183577
-0.224573
0.217097
-0.293649
-0.0976863
0.391336
0.302178
0.121173
-0.423351
-0.481518
0.378236
0.103282
0.0700541
-0.0536932
-0.0163609
0.0578462
-0.310099
0.252253
-0.0696456
0.359548
-0.235252
0.0883951
0.146856
0.286574
0.0646265
-0.351201
-0.254623
0.327536
-0.0729129
0.21415
-0.0647037
-0.00419385
-0.235821
-0.0907305
0.326552
-0.060728
0.00998894
0.109299
0.139051
0.008676
0.447336
-0.389832
-0.0575048
-0.0286029
-0.0932889
0.00292379
0.0151947
-0.0714535
0.358028
-0.174514
0.0246829
0.149831
-0.327969
0.123916
0.434395
-0.174971
-0.108778
0.14846
0.0848779
-0.0177709
-0.067107
0.0152671
0.189131
0.150053
-0.0276799
-0.122373
0.0104966
0.000636733
-0.0111333
0.332894
-0.119441
-0.0219664
0.00203985
-0.0109161
-0.00725217
0.0181682
0.0579075
0.289756
-0.347663
0.188668
0.136334
0.0870829
-0.127271
0.110417
0.333668
0.115982
0.185426
0.248969
-0.0197947
-0.0191454
0.306429
-0.0980286
0.314821
-0.256975
-0.167362
-0.13273
-0.120636
-0.355504
-0.185586
0.233244
-0.341908
-0.0225576
0.0210964
0.0014612
-0.293682
0.215966
0.157165
-0.13367
0.395601
-0.111164
0.20933
-0.103664
-0.105665
-0.261918
0.319825
0.0835839
-0.326531
0.242947
0.41066
-0.41066
-0.183441
-0.135148
0.318589
0.0775242
0.00255585
-0.0800801
0.253197
0.0603626
-0.31356
-0.0702091
0.323406
0.137636
-0.0125337
0.121581
-0.115548
-0.00603323
0.264828
-0.114628
-0.478762
0.374355
0.104407
0.375909
-0.344749
-0.0118347
-0.085749
0.389685
-0.129717
-0.259967
0.428441
-0.0409705
-0.38747
-0.113268
0.346511
0.0880824
-0.0848156
-0.0032668
-0.0428778
-0.0878531
0.130731
0.0218482
0.0550734
-0.0509728
-0.00410059
0.186646
0.293984
-0.0172153
-0.0146899
-0.459725
0.302598
0.157126
-0.0110193
0.116409
-0.105389
0.128876
-0.116518
-0.0828045
0.37506
-0.0250659
0.304976
0.311845
0.105484
-0.0950491
-0.211716
0.306765
-0.197489
-0.22202
0.419509
0.155533
-0.002738
-0.152795
-0.062974
-0.113081
0.176055
-0.20798
0.164206
-0.014522
-0.149684
-0.159192
-0.313038
0.120885
0.2688
-0.364344
0.329446
0.0989954
-0.154925
0.176948
-0.0220227
0.394294
-0.0183846
-0.101235
0.314954
-0.213718
0.0736261
-0.0046354
-0.0689907
0.270702
-0.398235
0.127533
0.04256
-0.234087
-0.361016
-0.00889919
0.0114863
-0.0128367
0.341426
-0.40305
0.225432
-0.133435
-0.0919965
-0.0710954
-0.00104191
0.0721373
0.123006
-0.294619
0.109746
0.184873
-0.00406551
-0.00341583
-0.330573
0.443305
-0.112732
-0.153466
0.260413
0.246841
-0.0944675
-0.152374
0.0171378
-0.0882332
0.331617
-0.204056
-0.0567228
-0.251171
0.307893
-0.405362
0.334718
0.0706439
-0.220268
-0.119744
-0.0320688
0.00561842
-0.368625
0.00760903
-0.00736707
0.0333522
-0.0259851
0.334949
-0.415567
0.0806182
-0.070413
-0.230502
0.314085
-0.292882
0.0984969
-0.0193187
0.00840268
0.121536
-0.124567
0.00303039
-0.255282
0.0996315
0.155651
0.0846715
-0.0704847
-0.340455
-0.075112
0.0541176
-0.0502961
0.36587
-0.452789
0.0869188
0.100552
0.0936619
0.00828845
0.252228
-0.0978352
0.257977
0.0895176
-0.172545
0.00415407
0.1368
0.00109854
-0.137899
0.0815677
-0.355911
0.274343
0.387896
-0.0640089
0.00404067
0.0808373
0.390688
-0.071727
0.145591
0.0639975
0.391177
0.0561589
-0.125235
0.0823575
0.164694
-0.00048885
-0.332843
0.0561382
0.276705
0.283376
-0.0956617
-0.102343
-0.211937
0.31428
-0.039141
-0.142238
-0.250471
-0.199164
-0.528433
0.29907
-0.191575
-0.0713618
0.0439107
0.0767498
0.0344313
-0.026903
-0.00752834
-0.10776
-0.0408523
0.148612
0.0772029
0.173515
0.402381
-0.34955
-0.0528308
0.214624
0.0616698
-0.276294
0.0274693
-0.0348364
-0.264717
0.340184
-0.130797
0.139389
-0.00859238
0.0942256
-0.330021
0.235796
-0.229383
-0.279707
0.423947
-0.14424
-0.0745626
0.0536964
0.0208662
0.411341
-0.109163
0.0647669
-0.326849
0.339218
0.0631629
0.089835
0.00382682
0.399943
-0.400585
0.000641768
-0.0174251
0.139735
-0.12231
0.0690056
0.0093668
0.0102438
0.111337
-0.098186
0.0899444
0.00824168
0.00832272
0.024769
-0.0330918
0.0936799
-0.0257581
-0.0679219
-0.0799305
-0.0407255
0.0550833
-0.0705274
0.0154441
0.0714908
-0.337366
0.265875
0.00100855
0.192858
0.053983
-0.222766
0.0759325
0.146833
0.453947
-0.0746146
-0.25982
-0.243561
0.176262
0.112681
-0.288943
-0.00256054
-0.188262
0.190823
0.33498
-0.117366
-0.217614
-0.232305
0.312284
-0.22163
-0.382246
0.126444
0.255802
0.370652
0.0241023
-0.394754
-0.148307
-0.00817053
0.147195
-0.139025
-0.00104313
0.0710972
0.0486207
-0.0599413
0.0113205
0.023681
-0.0162891
-0.00739196
-0.0149866
0.0506809
-0.00226626
-0.086099
0.074226
0.011873
-0.121944
-0.0348413
0.00924249
0.0255827
0.232174
-0.285722
0.0535482
0.00527049
-0.123851
-0.258395
0.0297878
-0.0771819
0.0552556
-0.233025
0.307014
-0.0739885
-0.19357
0.180496
0.0130735
0.0396473
-0.022561
-0.0170863
0.0998082
-0.101756
0.00194769
-0.459614
0.154845
0.30477
0.0198525
-0.0764314
-0.00852307
0.0849544
0.0515663
-0.0746069
-0.197429
0.0805385
-0.0030143
-0.287231
-0.172383
0.207152
0.0446573
-0.251809
0.0105381
0.0892701
-0.386833
0.284985
0.101848
-0.19153
0.268361
-0.00729691
-0.0732499
0.0805468
-0.265674
-0.0447992
0.221749
-0.17695
-0.108599
-0.268247
0.376846
-0.0220062
-0.0504303
0.0724366
0.145566
-0.343055
-0.00782676
0.344502
-0.143078
-0.201424
-0.00570531
-0.0162611
-0.163824
0.0368803
0.126944
-0.137688
0.0157432
0.0735412
0.212497
-0.286038
0.0362306
0.0120295
-0.23884
0.182516
0.0563239
-0.221011
0.25179
-0.0307795
-0.070055
-0.13956
0.0130925
0.126468
-0.0807525
0.41547
0.0958233
-0.329108
0.233285
-0.0636814
0.0934692
-0.22722
0.18242
0.0283285
-0.0325477
0.00421926
-0.0242706
-0.00535456
-0.384278
0.275679
-0.0795278
0.199711
-0.120183
-0.138839
-0.0347488
-0.0511005
-0.024426
0.0755265
0.44305
-0.44305
-0.0565625
-0.0043455
0.060908
0.116488
0.0211484
-0.0545875
0.0569634
-0.00237588
-0.328853
0.0958276
-0.0572351
0.264387
0.109923
-0.0346408
-0.0752817
-0.0274465
-0.0341514
0.0615979
-0.0834634
0.007032
-0.278053
0.299693
-0.02164
0.0313687
-0.113473
0.0821048
-0.134499
0.10285
-0.0963591
-0.00901225
0.105371
0.444084
-0.175386
-0.268698
0.0550251
-0.0483145
-0.0067106
-0.269115
-0.00893804
0.307736
-0.131474
0.0696876
0.0961993
-0.165887
-0.066646
-0.312471
0.379117
-0.000905019
0.0384588
-0.0375538
-0.084446
0.0259395
0.167353
-0.153133
-0.0142205
-0.0495117
-0.0268038
0.0763155
0.104776
-0.116506
0.0258016
-0.0240746
-0.00172702
0.369538
-0.275891
0.302175
-0.368821
-0.0943464
0.0919974
0.00234901
-0.102743
0.0837302
0.0190131
0.0509152
-0.0467202
-0.00419495
0.260062
-0.340917
0.0808555
0.452153
-0.136685
0.374393
0.0303278
-0.0594134
0.364906
-0.305493
0.192149
-0.355025
0.162876
0.278224
0.122657
-0.337651
0.214994
-0.0871568
-0.190706
0.277862
0.055681
-0.00706021
0.0124838
-0.14734
0.134857
0.0261121
0.384548
-0.148871
0.0411113
-0.118906
-0.0866141
0.20552
0.157063
-0.117164
-0.144968
0.0122681
0.1327
-0.371649
0.312235
-0.27642
0.0444285
-0.0570572
0.143889
-0.0120137
-0.131876
0.0587433
0.10763
0.131114
-0.378853
0.247739
0.0151172
-0.355791
0.340674
0.400982
0.0073966
-0.408379
-0.18125
-0.0540014
-0.16862
0.360768
-0.447452
0.169728
0.277724
-0.117875
0.150221
-0.032346
-0.156596
-0.0929043
0.0985216
-0.00561728
-0.0357634
0.143483
-0.107719
0.035701
-0.0273783
0.0204346
-0.0251486
0.00471398
-0.0971113
0.107596
-0.117753
0.389689
-0.271936
0.0494481
-0.333672
0.284224
0.402621
-0.450748
0.0481272
-0.197113
0.47444
-0.277326
-0.183306
0.144915
-0.0106012
-0.134314
0.11042
-0.100176
-0.00232253
-0.0202351
-0.291661
-0.38099
0.291059
0.0899316
-0.0789867
0.0569804
-0.0156811
0.386333
-0.339721
-0.093741
0.343391
-0.0833293
-0.0975793
0.0775611
0.0200182
-0.108261
-0.221761
-0.188204
0.0731043
0.1151
-0.218902
0.290392
0.269552
-0.386101
0.311447
-0.433278
0.121831
0.15134
-0.176418
0.0816293
0.0120507
-0.0162868
0.132774
0.329784
-0.181468
-0.148316
-0.0483988
0.0579485
-0.00954974
-0.0541151
-0.120399
0.00230241
0.0557889
0.0491655
-0.104954
0.166676
-0.316076
0.0278206
-0.0287256
0.0398276
-0.0252827
-0.014545
0.0686558
-0.0759527
0.126098
-0.146101
0.0200031
-0.0309203
0.0341834
-0.00326308
-0.0338784
0.390026
0.233961
-0.0734104
-0.16055
-0.0497605
0.168427
-0.0478104
0.0577613
-0.00995086
0.208841
-0.0864368
-0.122404
-0.0247314
0.138087
-0.113356
0.289288
0.0888492
-0.119573
0.0454731
-0.00322739
-0.0422458
0.140896
-0.17926
0.0383633
-0.00488333
-0.0344471
0.0393305
-0.0164183
0.134231
-0.117813
0.126563
-0.0481839
0.201812
-0.169326
-0.0324861
-0.121102
0.391804
0.253269
-0.176066
0.0737705
0.289319
-0.363089
-0.050191
-0.286433
0.336624
-0.0102148
0.165748
-0.492126
0.15781
0.334317
-0.0104315
0.0585855
-0.048154
0.418915
-0.18769
-0.231225
0.0740939
0.134747
-0.00644916
0.0317864
-0.186238
-0.269808
-0.347968
0.0933454
0.134749
0.0101656
0.00385347
-0.0239242
0.0200708
-0.114655
0.00725333
0.107402
0.363722
-0.0988777
-0.264844
0.297462
-0.347653
-0.155955
0.131224
0.189667
-0.118118
-0.0715489
-0.000226285
-0.0999354
0.100162
-0.00951878
0.108591
-0.0990727
0.237855
-0.391415
0.153561
0.133977
-0.0136351
-0.120342
0.277109
0.0519393
0.0631526
-0.182058
-0.137507
0.129683
0.00782332
0.0578318
-0.398287
0.0044219
0.133885
-0.138307
0.409955
-0.109175
-0.300781
-0.0463974
0.0581724
-0.011775
0.0260069
-0.00557235
-0.296597
-0.083707
-0.235545
0.225683
0.00986192
0.357975
-0.248307
-0.109668
-0.451866
0.451866
0.00451079
0.0121234
0.277195
0.0807803
0.193893
0.135891
-0.392217
0.384938
0.00727928
-0.183475
0.153998
0.0294775
0.000696301
0.0142105
-0.0149068
-0.00393022
0.406984
0.197903
-0.328169
-0.136539
0.151236
-0.0146975
0.127456
-0.123034
-0.429782
0.224549
-0.136784
0.000244856
0.200591
-0.0549998
-0.471247
0.19154
0.232698
-0.350451
0.0395118
-0.0080838
-0.031428
-0.0248888
0.176228
-0.401169
0.100521
0.377207
-0.377207
-0.157529
-0.0653745
0.0190847
-0.141457
0.122373
-0.19035
-0.15768
0.34803
-0.0538572
0.177784
-0.0829642
-0.0948196
0.0344279
2.71974e-05
-0.0344551
0.102585
-0.0680299
0.000661237
-0.110707
0.110046
0.0189211
0.0836638
-0.387883
0.215074
0.172809
0.112618
-0.192146
0.0786224
-0.268972
0.0958884
0.267833
0.0713499
-0.33664
0.26529
-0.0589685
-0.00186367
-0.0758833
0.077747
0.137793
-0.118709
-0.0808502
-0.0120541
0.0872124
-0.0615367
0.382371
-0.1802
-0.202171
-0.431975
0.279787
0.152188
-0.107111
0.112457
-0.00534564
-0.00989144
0.117003
-0.179919
0.457909
-0.27799
-0.0823853
-0.255603
0.337988
-0.113542
0.0886154
0.0249265
0.173751
-0.145411
-0.0283396
0.370943
-0.133088
0.108439
0.278451
0.0710782
0.288801
-0.35988
-0.361719
0.407837
-0.0461178
0.404407
-0.0220189
-0.382388
-0.208349
0.281891
-0.106052
-0.020756
0.126808
-0.278977
0.350327
-0.092171
0.262635
-0.170464
0.000697115
0.0314067
-0.0321038
0.0597618
-0.0500493
-0.0097125
0.00438327
0.0314986
0.39515
-0.110489
-0.284661
0.1202
-0.121589
0.0013885
0.195541
0.00627081
-0.19803
-0.0581196
0.25615
0.0269807
0.117825
-0.144806
-0.159221
-0.185422
0.344643
0.0206412
-0.0717417
0.008711
-0.143515
0.134804
-0.0510085
-0.171757
0.499026
-0.209733
-0.289292
0.202963
0.296063
0.0125162
0.0564001
-0.0689163
-0.134432
0.143143
0.0531133
0.00664849
-0.223592
-0.0968045
0.1024
-0.417477
0.158109
-0.157261
-0.000848471
0.00863837
-0.362193
0.353555
-0.100178
-0.243242
0.34342
0.0152079
0.00847315
-0.0543109
-0.0432684
0.0874237
-0.0900412
0.00261754
0.36306
-0.303422
-0.0596381
0.344316
0.0566661
-0.00901376
-0.352705
-0.334036
-0.0209895
0.224233
-0.0313744
0.080487
-0.118332
0.0378445
-0.0369643
-0.040512
-0.0474726
0.223036
-0.336303
0.104996
0.00542372
0.0709931
-0.262523
-0.0719838
0.286608
-0.157166
-0.0212071
0.178373
0.00246674
-0.03205
0.118425
0.0275245
-0.145949
0.356308
0.0327802
-0.389088
0.133737
0.0559299
0.312763
0.0971929
0.359417
-0.288339
0.0072147
0.104054
-0.10428
0.394642
-0.415744
0.0211016
0.106226
0.171666
-0.277892
-0.097709
0.111411
-0.0137022
0.0748118
-0.0752114
0.000399526
0.118365
-0.143089
0.0247237
0.0435466
-0.00911866
0.0999451
-0.169867
0.0699218
0.109623
0.0485946
-0.158218
-0.0447797
0.0604355
-0.0156559
0.28727
-0.112669
-0.174601
-0.00666457
-0.228881
-0.314096
0.133161
0.180935
0.0929171
-0.102436
-0.00451134
-0.185349
-0.0609232
0.246272
0.075789
-0.0632728
0.0809775
0.16239
-0.243367
0.141274
-0.0694327
-0.0718409
-0.255265
0.257419
-0.357596
-0.0579411
0.00954234
-0.329417
0.0156902
0.313726
-0.0695394
-0.273282
0.371076
-0.0977934
0.404052
-0.0014311
0.0923705
0.302779
-0.0191016
-0.000696872
0.0197984
0.00915418
0.215078
0.125244
-0.0447567
0.195168
-0.353732
0.252953
0.0904378
0.10551
-0.45506
-0.497964
0.200689
0.297275
-0.208328
-0.289636
0.243364
0.111585
0.0661987
-0.207559
-0.180325
0.302533
-0.0783459
0.326783
-0.231629
-0.0951534
0.264329
-0.25569
0.0713078
-0.0162244
0.120169
-0.120036
-0.000133086
-0.152527
0.023083
0.129444
-0.151039
0.234361
-0.0833221
0.331269
0.0920467
-0.397355
0.136151
0.261203
-0.0312478
0.186787
-0.155539
-0.1846
0.290826
0.0627864
-0.478296
0.202346
0.27595
-0.349574
0.0155386
0.155721
-0.186969
-0.00114294
0.0116396
0.372198
-0.353481
-0.0187164
0.0338388
0.116214
-0.421028
0.380057
-0.398341
0.0812537
0.162762
-0.200368
0.0376062
-0.424947
0.17603
0.248917
0.0580144
-0.0495661
-0.00844827
0.351329
-0.382785
-0.288631
0.420648
-0.132017
0.00459639
0.0702154
0.365163
0.0450489
0.0188453
-0.0462918
0.126273
-0.136145
0.00987269
-0.073029
0.0977034
-0.0246744
0.0375168
0.00199503
0.308617
-0.115729
-0.303984
0.0825325
0.00173251
0.0858387
-0.0875713
0.0231968
-0.0962259
0.181872
-0.184432
-0.336319
-0.059594
-0.113994
0.00659647
0.00564017
0.366557
0.240519
-0.159541
-0.0221123
0.387983
0.349677
0.0473804
0.19174
-0.0140965
0.101095
-0.0869981
0.0210283
-0.256447
0.235418
0.411267
-0.32218
-0.0890871
0.460115
-0.0968139
0.129502
-0.137672
-0.055081
0.00868364
0.000297503
0.157991
-0.150331
-0.00766036
0.343194
-0.261626
0.0728928
0.242763
-0.315656
-0.331008
0.433982
-0.102974
-0.089227
-0.0435151
-0.057127
0.33466
-0.277533
0.329249
-0.408656
-0.298929
0.197694
0.0238939
0.108098
-0.0360486
-0.101458
-0.121989
-0.299038
-0.137328
0.0196251
0.117703
0.290142
-0.347269
0.41737
-0.105923
-0.0705015
0.0678119
0.00268965
0.345443
-0.0924896
-0.0310104
-0.121517
-0.191849
-0.269584
0.0636333
0.0359343
-0.0995676
0.241384
0.121677
0.0802586
0.0464653
0.00860809
-0.335621
0.250485
0.0851358
0.253175
0.0736075
-0.26136
-0.135994
0.0307952
-0.309479
0.21443
0.339012
-0.225463
-0.113549
0.210936
0.131272
-0.0110715
-0.0897339
0.399679
-0.309945
-0.0236786
0.0752449
-0.182955
-0.264497
-0.0696276
0.412843
-0.0788042
0.178749
-0.0527534
0.0451512
0.00760226
0.028131
0.0237267
-0.0518577
-0.200459
0.221488
0.0247499
0.0150777
-0.00475011
0.0171642
-0.0124141
-0.0222703
0.148543
-0.27611
-0.32246
-0.0790276
0.401487
0.00936622
-0.00872948
-0.0318603
0.026272
0.00558833
-0.0317751
-0.177254
-0.309569
0.205732
-0.0708098
0.3434
0.507054
-0.21604
-0.291014
0.197851
0.309203
-0.353895
0.26639
0.00159395
0.136493
0.0503132
-0.329795
0.279482
0.129625
-0.144199
0.0145748
-0.0578611
0.0708785
-0.0130174
0.0780911
-0.408664
-0.418546
0.302073
0.116473
-0.0685345
-0.347089
0.415624
-0.0461986
0.404558
-0.14284
0.0129105
0.0616356
0.0236991
-0.0853347
-0.34306
0.438343
-0.095283
-0.433137
0.163961
0.269176
0.000653011
-0.390994
-0.235029
-0.257097
0.28889
-0.287509
0.0675837
-0.252932
0.0988809
-0.059007
-0.0358392
-0.286326
0.0631783
-0.0367864
0.366036
-0.396147
0.0437802
0.0142342
-0.131481
-0.00807921
0.295141
0.10046
-0.262302
0.333628
-0.0713259
-0.443322
0.287141
0.15618
0.165897
-0.0562743
-0.209944
-0.104152
0.368835
-0.102067
-0.0719445
0.0364684
0.0354762
0.0970565
0.156212
-0.141547
0.125196
0.0163505
0.0981519
-0.0345185
-0.147254
0.211791
-0.0645368
0.379278
0.0117027
-0.390981
-0.0297161
-0.0196987
0.01571
0.0149047
-0.0306148
0.244166
0.0948464
-0.125717
0.002602
0.123115
-0.142673
0.139935
0.288575
0.100227
-0.388802
-0.213919
0.214014
-9.50229e-05
0.324142
-0.420654
0.0965119
0.323945
-0.0984897
0.00818254
0.0372906
0.12648
-0.189454
0.0680153
-0.273426
0.20541
0.106526
0.00143714
-0.107963
0.150682
-0.310078
0.159395
-0.017551
-0.0238739
0.0520049
0.0413759
0.180444
-0.22182
0.291484
-0.168827
-0.143631
-0.293212
-0.270527
-0.10085
0.371378
-0.151242
-0.00368289
-0.216884
0.0749101
0.141974
0.091501
-0.10252
0.0101192
0.0266184
-0.0367375
0.102127
-0.395776
-0.324179
-0.0760197
0.400199
0.326282
0.218681
-0.250456
-0.0214287
-0.104289
-0.28313
0.174869
-0.389221
0.114522
0.274699
0.0203803
-0.0196831
0.00129518
0.0172294
-0.0185246
-0.203896
0.144718
0.0591782
-0.00710609
0.0945298
-0.494438
0.195527
0.298911
-0.202819
-0.291619
0.0517584
0.00600285
0.0113039
-0.0124468
-0.117339
-0.0428007
0.16014
0.150677
-0.0978722
-0.0528043
-0.354504
0.19982
0.154684
-0.0225129
0.0264024
-0.00388945
0.0744767
-0.0790303
0.00455362
0.0823984
-0.0207628
0.125486
-0.0039137
0.116282
0.00920394
0.331106
-0.428209
0.0971033
-0.0926607
-0.187321
0.279982
0.0881237
0.251026
-0.353771
0.102745
0.330997
0.0689466
0.100018
-0.0119221
0.0960725
-0.00299027
-0.0162725
-0.193759
0.165279
-0.134064
-0.0312154
0.02088
-0.0245044
0.00362448
0.273041
-0.282731
-0.230861
0.208278
0.0225829
0.0743223
-0.0856634
0.011341
0.0608199
-0.0101478
-0.0506721
-0.135375
-0.0629459
0.0305264
-0.251537
-0.283518
-0.0966679
0.380185
-0.0678692
-0.270187
0.338056
-0.201586
0.06141
0.140176
-0.0930039
0.34403
0.388644
-0.0935031
-0.00144984
-0.0984856
0.441914
-0.110808
0.31922
-0.393095
0.0738747
0.162971
0.0385276
-0.201498
-0.225906
0.298798
0.318828
0.131717
-0.450545
-0.0100028
0.1361
-0.222796
0.068807
0.116252
0.0539107
-0.336296
0.282385
-0.146848
-0.242373
-0.0542971
-0.154713
0.20901
0.183986
-0.271143
-0.32809
0.437385
-0.109295
0.0268702
-0.0210767
-0.0057935
-0.435955
0.29486
0.141095
0.00121814
0.049697
0.123197
0.0604294
-0.183627
0.0820518
0.0880968
0.136944
-0.275885
-0.0807637
0.419982
0.0172916
-0.0192428
0.00195119
0.0682735
-0.352185
0.283911
0.0244798
-0.122189
-0.273126
0.218939
-0.331021
0.233916
0.0971046
0.0639831
-0.0579588
-0.00602429
0.0252342
-0.00435423
-0.0106818
0.0334832
-0.211569
0.157272
-0.131841
-0.145983
0.0263657
0.378041
-0.0898004
-0.123498
0.213298
-0.151186
-0.0562321
0.337051
-0.280819
0.0730969
0.00575846
-0.0788554
-0.0281183
-0.262015
0.00176966
0.260246
0.162679
-0.00468761
-0.0777322
0.0758686
-0.398444
0.0742645
-0.108182
0.00107064
0.000893283
0.0880005
-0.0875104
-0.000490093
-0.0839622
0.0856947
-0.0243933
0.0365082
-0.0121149
-0.194369
0.380802
-0.0786263
-0.134322
0.146805
-0.263239
0.355143
-0.0919044
0.156722
0.0160808
-0.428407
0.284958
0.143449
0.0810963
-0.100338
0.0192419
-0.153039
-0.0107855
0.129867
-0.277121
-0.19822
-0.0967599
0.29498
-0.0150424
-0.198877
0.20491
0.101519
-0.376259
0.3255
-0.304913
0.399201
-0.0942881
0.341876
0.16069
0.277458
-0.418151
0.155897
0.262254
0.120105
-0.383344
-0.505596
0.205399
0.300197
0.207786
-0.16641
-0.123747
-0.0651951
0.188943
0.0413236
-0.0650023
-0.0143552
0.0300653
0.318246
-0.268798
-0.227021
-0.304908
-0.0687114
0.197966
-0.129255
-0.136001
-0.0808833
-0.0375836
-0.0651598
-0.0193227
0.250742
-0.252149
0.184343
0.208973
-0.301634
0.0584192
0.169443
-0.227862
0.0211485
-0.204828
0.183679
-0.413525
0.319022
0.0945028
-0.227274
0.16448
0.0627934
0.110327
-0.11418
0.0038533
-0.315954
0.413346
-0.0973918
0.0780751
0.0100104
0.0160691
-0.300563
0.249528
-0.116926
-0.436255
0.287161
0.149093
-0.123244
0.150225
-0.273306
-0.208212
0.0949719
0.0362996
-0.120839
0.304615
0.0129342
0.000683192
-0.0136174
0.020047
-0.00156544
-0.0184816
-0.0925877
0.105118
-0.0125307
0.425319
0.0131689
0.312174
0.069006
-0.38118
-0.0881222
0.0946489
-0.00652667
0.100515
-0.0194187
0.244828
-0.432519
-0.136039
-0.282112
0.236674
0.0408393
-0.0408516
1.22939e-05
-0.0424293
0.0171467
-0.0292606
0.407497
-0.298984
-0.0878213
0.386805
0.426801
-0.298004
-0.128798
-0.0766676
-0.0355416
0.112209
0.1392