/*--------------------------------*- C++ -*----------------------------------*\
| =========                 |                                                 |
| \\      /  F ield         | OpenFOAM: The Open Source CFD Toolbox           |
|  \\    /   O peration     | Version:  v2012                                 |
|   \\  /    A nd           | Website:  www.openfoam.com                      |
|    \\/     M anipulation  |                                                 |
\*---------------------------------------------------------------------------*/
FoamFile
{
    version     2.0;
    format      ascii;
    class       surfaceScalarField;
    location    "100";
    object      phi_0;
}
// * * * * * * * * * * * * * * * * * * * * * * * * * * * * * * * * * * * * * //

dimensions      [0 3 -1 0 0 0 0];
oriented        oriented;


internalField   nonuniform List<scalar> 
41383
(
-0.00465139
0.106523
-0.101871
0.48598
-0.0986252
-0.387355
0.225841
-0.320397
0.0945566
0.32552
-0.456047
0.130527
0.0465664
-0.0446104
-0.00195605
0.347495
-0.130265
-0.21723
0.383845
-0.0627865
-0.321058
0.187714
-0.285956
0.0982413
-0.0745591
-0.0850904
0.159649
0.106715
0.107362
-0.214078
-0.460723
0.356148
0.104575
-0.0296304
0.0253391
0.00429131
0.0166269
0.000833183
-0.0363114
0.135106
-0.0987945
0.262491
0.0754669
-0.337958
0.300134
0.0837106
-0.216422
-0.205233
0.0255942
-0.0353487
0.00975453
0.0476853
-0.127562
-0.150074
0.00982592
0.140248
0.0885162
0.397464
-0.503382
0.403054
0.100327
-0.0975999
0.0929485
-0.0935608
0.0277794
0.0657814
0.291916
0.124181
-0.416097
-0.300092
0.106806
0.193286
0.106843
-0.340013
0.23317
-0.104604
0.21132
0.455398
-0.163481
0.120789
-0.120794
5.63216e-06
0.380059
-0.163088
-0.21697
0.150191
-0.380291
0.2301
-0.0477136
0.0598781
-0.0121645
-0.0736909
-0.194452
0.268143
-0.0551401
0.00742648
-0.122668
-0.236482
0.35915
-0.225104
-0.0374077
0.262512
0.286528
0.0189505
-0.305479
0.161399
0.21866
-0.334324
0.221095
0.113229
-0.318448
0.15719
0.161257
-0.156448
-0.177876
-0.0389182
0.0227643
-0.0778374
0.30204
-0.224202
0.409818
-0.340769
-0.0690489
0.080623
-0.336747
0.256124
0.00546467
0.0644339
-0.0698986
0.244444
0.0460498
-0.290494
-0.328426
0.438148
-0.109722
-0.157767
-0.0696939
0.227461
0.0234948
0.124834
-0.148329
0.341687
0.0681305
-0.116356
0.397028
-0.280672
-0.369766
-0.0314559
0.401222
-0.216305
0.332014
-0.115709
0.08941
-0.327517
0.238107
-0.00186798
0.15381
-0.0350666
-0.118744
-0.39663
0.366964
0.0296662
0.0102837
0.00114481
0.254293
-0.37696
-0.368222
-0.0284076
0.315342
-0.436729
0.121386
-0.108664
-0.249382
0.358046
-0.00998397
0.0355781
-0.0923145
0.0880787
0.00423574
0.00257304
-0.0192679
0.0166949
-0.0228877
-0.229019
0.251907
0.0356871
-0.0493919
0.0137048
-0.149405
0.378133
-0.228728
-0.158565
0.423317
-0.264752
0.0647212
-0.0682013
0.00348013
0.251215
-0.091635
-0.15958
-0.0491842
-0.0261513
0.0753355
0.319148
-0.415343
0.0961949
0.0398992
0.118668
-0.158567
0.317153
-0.0306243
-0.0182525
0.0208255
0.102994
-0.260761
0.327262
-0.0271277
-0.031906
0.024744
0.007162
0.344278
-0.192206
-0.152073
0.422687
-0.336892
-0.0857951
0.0450043
0.108806
-0.051426
-0.328882
0.380308
0.208755
-0.178315
-0.03044
-0.348719
0.0906544
0.258065
0.111208
-0.327513
0.066909
-0.0021878
0.00441027
-0.0622271
0.0578168
-0.0422065
0.0476681
-0.00546163
0.420628
-0.0536643
-0.0256034
0.202838
-0.177235
0.287193
0.0400693
-0.479893
0.110128
0.13166
-0.34954
0.21788
0.139704
0.0406059
0.0424231
0.00414338
-0.0989044
-0.056492
0.0619566
0.177283
0.166995
0.267794
-0.220471
-0.047323
0.187724
-0.0658357
-0.121889
0.415901
-0.0486388
-0.367262
0.0607806
-0.0563703
0.0523337
0.368294
-0.281452
0.386869
-0.105417
0.0509729
-0.125532
0.0978001
-0.335972
0.238171
-0.117502
0.137677
-0.0201757
0.294958
-0.00141184
-0.293546
-0.0875043
0.349996
0.192801
0.0749932
0.162376
-0.18798
0.442164
-0.0954159
-0.346748
-0.14654
0.0292715
0.117269
0.160796
-0.0316495
-0.129146
0.443914
-0.369486
-0.0744288
0.116822
-0.140133
0.0233105
0.0137833
-0.163858
0.0217998
-0.0199214
-0.00187841
-0.048208
0.00600146
0.104525
0.0120112
-0.433463
0.0847433
0.054606
0.230064
-0.28467
0.430658
-0.144541
-0.286117
0.096626
-0.095501
-0.00112497
-0.472322
0.36325
0.109072
0.017386
0.00197992
-0.0193659
0.00243858
0.0193612
0.145932
0.0417923
0.112605
-0.00807984
0.229855
-0.36991
0.140055
-0.12909
0.233572
-0.104482
0.094261
-0.231991
-0.0541874
0.286179
0.37275
-0.210266
-0.162483
0.35157
-0.395913
0.0443428
-0.162899
0.209601
-0.0467017
-0.0163072
0.106104
-0.0897969
0.0434337
0.218242
-0.261676
0.318552
-0.211709
0.307957
0.122702
0.449651
-0.376201
-0.0734502
0.0557601
0.386404
-0.0278111
0.163588
-0.135777
0.148437
0.224313
-0.15399
-0.0904296
0.244419
0.101177
-0.441946
0.376645
-0.14679
-0.192338
-0.268385
-0.00968995
0.254134
-0.046625
0.172803
-0.126178
0.203317
-0.226204
-0.129922
0.143705
0.346908
-0.134548
-0.21236
0.222862
0.0260552
-0.248917
-0.055123
0.0678653
-0.0127423
-0.121701
0.00419949
0.0512349
0.0141635
-0.0653984
0.0794974
0.0171286
0.0177248
0.209854
-0.00109887
-0.0447593
0.161581
0.213602
-0.430025
0.30556
0.0595868
-0.365147
0.0311607
0.412754
-0.222559
0.311969
-0.204052
0.314587
-0.110535
-0.12702
0.136846
0.355447
0.0604538
-0.0250773
0.185873
0.398466
-0.0517404
-0.346726
-0.142955
0.00963138
0.133324
-0.329514
0.146077
0.183437
-0.0114473
-0.0254618
0.0369091
-0.0489748
0.354535
0.149917
-0.136997
-0.0129192
-0.0712703
0.412957
-0.0228789
-0.202225
-0.0459432
-0.0476175
0.0396785
0.117706
-0.157384
0.125105
-0.138215
0.0131099
-0.20176
0.173949
0.332254
0.0662126
0.103307
0.00257329
-0.10588
0.11999
0.226918
-0.496671
0.117213
0.379458
-0.0482642
-0.0473898
0.095654
0.0784628
-0.0865067
0.00804388
0.323887
-0.4205
0.0966132
0.308621
-0.158501
-0.15012
-0.121908
0.114354
0.00755379
0.0853278
-0.188422
0.103094
0.541761
-0.244371
-0.29739
0.212614
0.00848136
0.28862
0.25314
0.356042
-0.427312
0.0936472
0.225455
-0.319102
0.106712
0.211839
-0.0285778
0.0356431
-0.00706534
-0.17345
0.0398406
0.133609
0.322811
-0.403223
0.0804116
0.212643
-0.102425
-0.110218
-0.325439
0.0941864
0.231252
-0.110304
-0.00305347
0.113357
-0.198322
0.151697
-0.0420082
0.072294
-0.0302858
0.389809
-0.402247
0.0124387
-0.00164287
0.0119266
0.418989
-0.410206
-0.00878236
-0.0819759
-0.00914859
0.0911245
0.0349511
-0.0463984
0.127361
0.0225556
0.0345391
-0.0828033
0.127561
-0.372486
0.244925
0.341087
-0.476146
0.135059
0.176306
0.110887
0.325002
-0.193342
-0.223998
-0.106511
0.330509
0.019996
-0.00261008
0.489789
-0.095075
-0.394714
0.107969
-0.00466228
0.128362
-0.068193
-0.0601691
0.108255
-0.0765749
0.428145
-0.413467
0.138025
0.170596
0.331669
-0.251046
0.270892
-0.222903
-0.0479888
-0.317088
0.403693
-0.0866048
-0.185839
-0.163702
0.0123597
-0.133563
0.121203
0.173545
-0.125859
0.0833326
-0.0996399
-0.461434
0.35836
0.103074
0.0257014
-0.0677096
0.0445717
0.0153064
0.379335
0.0299459
-0.409281
0.0929178
0.242481
-0.335398
-0.142118
-0.00981982
0.151938
0.0230304
-0.165148
-0.24355
0.378156
-0.134606
0.404721
-0.418194
0.0134726
0.0560989
-0.0115272
-0.0415525
0.397594
0.480576
-0.139488
0.315838
-0.139533
0.32905
-0.103209
0.107263
-0.13286
0.0255973
0.154165
-0.0645458
-0.089619
-0.103758
0.105255
-0.00149733
-0.229764
0.322681
0.39833
-0.0728104
0.0433504
0.29905
-0.342401
0.309178
-0.360604
0.405646
-0.228363
0.0738457
0.138797
0.331971
0.104237
0.0499277
0.132524
-0.247617
0.115093
-0.0200686
-9.05058e-05
0.0201591
-0.0794066
0.469215
-0.0264493
0.0345906
-0.0081413
0.147031
-0.156787
0.00975565
0.00350967
0.0504207
0.174954
0.314835
-0.168116
0.0122177
-0.449635
0.19739
0.252246
0.0104818
0.0956224
-0.359067
0.162837
0.19623
0.185743
-0.100415
0.00382078
0.0544622
-0.058283
0.133823
0.106509
-0.240331
-0.122485
0.121574
0.000910609
0.0100341
-0.0523121
0.36149
-0.0949438
0.0129679
0.140526
-0.00477997
-0.135746
0.10695
-0.296671
0.189721
0.224181
0.0721641
-0.296345
-0.023105
0.0785847
-0.0554798
0.204615
-0.134865
-0.0697498
0.161757
0.24389
-0.0413606
-0.170323
0.211684
0.166373
-0.15134
-0.0150335
0.343216
-0.44387
0.100654
0.27259
-0.46946
0.19687
-0.264723
0.191032
0.504624
-0.229363
-0.275261
-0.168637
-0.00612923
0.174766
0.194051
0.310573
0.0767741
0.187675
-0.26445
-0.0572139
-0.0893264
0.0531649
-0.382047
-0.0120562
0.0104133
-0.300585
0.411158
-0.110573
-0.0774714
-0.0148431
0.0534524
-0.209722
0.15627
0.281962
-0.373634
0.0916721
-0.0384256
0.0896605
0.137225
0.0363199
0.0289341
-0.191834
-0.132701
0.265224
0.0358894
-0.0295835
-0.00630582
0.149457
0.0555039
-0.204961
-0.136592
0.270415
-0.119346
0.176668
-0.0573217
-0.102703
0.104279
-0.00157656
0.0824764
-0.0914977
0.00902128
-0.211835
0.0827448
0.351321
-0.182429
-0.168892
0.339088
0.0799005
-0.149686
0.0303404
0.0996873
0.00683535
0.117505
-0.123804
0.00629911
0.0707966
-0.107108
0.168932
-0.412482
-0.227639
-0.315077
0.408039
-0.092962
-0.334316
0.450487
-0.11617
0.292141
-0.380004
0.0878629
0.412071
-0.035426
5.45307e-05
-0.0201231
0.0727175
0.339353
0.300087
-0.2059
-0.0168545
0.131994
-0.11514
-0.262084
0.342706
-0.0806224
-0.0507403
-0.0114009
0.0621412
-0.327719
-0.0506003
0.378319
-0.181332
0.0254509
0.155881
0.0341488
0.0942133
-0.0393036
-0.103652
0.101949
-0.019473
0.288702
0.053306
-0.342008
-0.0754879
-0.00451226
0.0800001
0.284438
-0.422934
0.138496
-0.061624
-0.284137
0.345761
0.0382745
-0.033427
-0.00484755
0.00836654
0.168224
-0.237918
-0.0585034
0.0762036
-0.0177001
0.248146
-0.152563
-0.0955828
0.0700446
-0.0634109
-0.00663371
-0.00643762
0.259235
-0.252797
0.208399
0.107439
-0.087334
0.0270454
0.0602886
-0.446506
0.279207
0.167299
0.04826
-0.0398398
-0.00842013
0.248023
-0.193417
0.154394
-0.262938
0.108544
-0.00747546
-0.259071
0.266546
-0.331743
0.202028
0.129715
-0.419596
0.120907
0.298689
-0.0460221
-0.0413119
0.410212
-0.436771
0.0265587
-0.292926
0.421398
-0.128472
0.289958
0.0191438
-0.309102
-0.191835
-0.034375
0.22621
-0.402578
0.109652
-0.0117366
0.128199
-0.116463
-0.483143
0.238772
0.213453
-0.36506
0.151607
0.294054
-0.300491
-0.209029
0.167669
0.133859
0.00666677
0.417329
-0.306121
-0.0724159
0.361118
0.00617736
0.0638673
0.164727
-0.0224532
-0.142274
-0.0726888
0.0606954
0.0119934
0.2802
0.0369523
0.0348238
0.00081934
0.177327
-0.0126004
0.321833
-0.0268748
0.128172
-0.174188
0.0460158
0.266768
0.0844432
-0.351211
-0.0800599
-0.416611
-0.299566
-0.183577
-0.224573
0.217097
-0.293651
-0.0976861
0.391337
0.302178
0.121173
-0.423351
-0.481519
0.378237
0.103282
0.0700492
-0.0536728
-0.0163764
0.0578481
-0.310094
0.252245
-0.0696636
0.359621
-0.235251
0.0883865
0.146864
0.286575
0.0646264
-0.351201
-0.254623
0.327536
-0.0729134
0.214163
-0.0647054
-0.00419604
-0.235821
-0.0907308
0.326552
-0.0606863
0.00994602
0.10903
0.139116
0.00867636
0.447337
-0.389832
-0.0575048
-0.0286144
-0.0932933
0.00292584
0.0151927
-0.0714537
0.358028
-0.174483
0.0246803
0.149803
-0.327969
0.123916
0.434248
-0.175013
-0.108776
0.148454
0.0848952
-0.0178056
-0.0670896
0.0151955
0.18942
0.150047
-0.0276733
-0.122374
0.0104934
0.00063812
-0.0111315
0.332895
-0.119441
-0.0219647
0.00204334
-0.0109201
-0.0072492
0.0181693
0.05769
0.289985
-0.347675
0.188668
0.136334
0.0870816
-0.127273
0.110419
0.333669
0.115982
0.185238
0.24901
-0.0198012
-0.019117
0.306431
-0.0980322
0.314812
-0.256964
-0.167363
-0.13273
-0.120752
-0.355394
-0.185586
0.23325
-0.341914
-0.0225607
0.0210957
0.00146501
-0.293782
0.215945
0.157165
-0.133671
0.395602
-0.111164
0.209323
-0.103663
-0.10566
-0.262119
0.319809
0.0835838
-0.326531
0.242947
0.41066
-0.41066
-0.183441
-0.135148
0.318589
0.0775168
0.0025644
-0.0800812
0.25327
0.0601761
-0.313446
-0.0700667
0.323337
0.137638
-0.012532
0.121589
-0.115552
-0.00603725
0.264816
-0.114625
-0.478762
0.374355
0.104407
0.37591
-0.344749
-0.0118434
-0.0857564
0.389685
-0.129717
-0.259968
0.428441
-0.0409704
-0.387471
-0.113269
0.346519
0.0880759
-0.0848163
-0.00325964
-0.0428873
-0.0878398
0.130727
0.0218409
0.0550522
-0.0509712
-0.004081
0.186697
0.293879
-0.0172061
-0.0146999
-0.459725
0.302599
0.157126
-0.0110216
0.116413
-0.105392
0.128879
-0.116519
-0.0829256
0.375067
-0.0248495
0.30505
0.311846
0.105484
-0.0951142
-0.211683
0.306798
-0.197538
-0.222017
0.419556
0.155507
-0.00272967
-0.152777
-0.0629404
-0.113089
0.176029
-0.20798
0.164206
-0.0145218
-0.149684
-0.159294
-0.313028
0.120885
0.2688
-0.364377
0.329446
0.0989954
-0.154925
0.176946
-0.0220212
0.394294
-0.0183846
-0.101235
0.314954
-0.213719
0.0736494
-0.0046657
-0.0689837
0.270583
-0.398169
0.127586
0.0421342
-0.233969
-0.361013
-0.0088969
0.0114899
-0.0128411
0.341427
-0.403051
0.225431
-0.133435
-0.0919962
-0.0710913
-0.00104035
0.0721316
0.123006
-0.294624
0.109748
0.184876
-0.00407031
-0.00342177
-0.330629
0.443224
-0.112595
-0.153464
0.260414
0.246841
-0.0944672
-0.152374
0.0171358
-0.0882271
0.331617
-0.204056
-0.0567226
-0.251171
0.307894
-0.405412
0.334822
0.0705899
-0.220269
-0.119744
-0.0320744
0.00562506
-0.368621
0.00760738
-0.00737103
0.0333584
-0.0259873
0.335062
-0.415582
0.0805197
-0.0703498
-0.230502
0.314086
-0.292822
0.0983702
-0.0193198
0.00839976
0.121536
-0.124568
0.00303243
-0.255073
0.0992503
0.155823
0.08467
-0.0705065
-0.340555
-0.0750273
0.0541056
-0.0502849
0.365871
-0.45279
0.0869189
0.100547
0.0936685
0.00828095
0.252229
-0.0978352
0.257978
0.0895175
-0.172754
0.00411784
0.136793
0.00109395
-0.137887
0.0815679
-0.355911
0.274343
0.387896
-0.064009
0.00407164
0.0808235
0.390702
-0.071554
0.145637
0.063964
0.391178
0.0561589
-0.125233
0.0823462
0.164695
-0.000489093
-0.333226
0.0570144
0.276212
0.283376
-0.0956619
-0.102373
-0.211911
0.314284
-0.0391843
-0.142148
-0.250471
-0.199165
-0.528433
0.29907
-0.191576
-0.0713623
0.0439252
0.0768634
0.0344376
-0.0269055
-0.00753206
-0.107764
-0.0408371
0.148601
0.0781606
0.173054
0.402382
-0.349551
-0.0528304
0.214624
0.0616696
-0.276294
0.0274724
-0.0348435
-0.264717
0.340184
-0.130804
0.13939
-0.00858522
0.0942256
-0.330022
0.235796
-0.229383
-0.27969
0.423948
-0.144258
-0.0745458
0.053732
0.0208138
0.411341
-0.109163
0.064767
-0.326851
0.339219
0.0631628
0.0898343
0.00383417
0.399944
-0.400585
0.000641759
-0.017425
0.139737
-0.122312
0.0690247
0.00943815
0.0102476
0.111341
-0.0981934
0.0899425
0.00825093
0.00833013
0.0247318
-0.0330619
0.0936795
-0.0257648
-0.0679147
-0.0800165
-0.0407778
0.0551132
-0.070492
0.0153787
0.0714907
-0.337366
0.265875
0.00101064
0.192859
0.0539827
-0.22276
0.0759008
0.146859
0.453946
-0.0746108
-0.259821
-0.243561
0.176262
0.112681
-0.288943
-0.00264927
-0.188503
0.191152
0.33498
-0.117366
-0.217614
-0.232305
0.312284
-0.22163
-0.382072
0.126247
0.255825
0.370652
0.0241024
-0.394754
-0.148308
-0.00810065
0.14713
-0.13903
-0.001023
0.0710722
0.0486133
-0.0599265
0.0113132
0.0236776
-0.0162907
-0.00738694
-0.0149631
0.0506503
-0.00226838
-0.086095
0.0742206
0.0118744
-0.121945
-0.0348424
0.00923778
0.025586
0.232174
-0.285722
0.0535477
0.0052663
-0.123702
-0.25837
0.0298304
-0.0772202
0.0552616
-0.233059
0.307037
-0.0739782
-0.19357
0.180497
0.0130734
0.0396274
-0.0225619
-0.0170655
0.0998092
-0.101755
0.00194602
-0.459615
0.154845
0.30477
0.0198262
-0.0764261
-0.00852425
0.0849504
0.0515453
-0.0746503
-0.19731
0.0805395
-0.00302276
-0.287232
-0.172383
0.207152
0.0446592
-0.251811
0.0105401
0.0892691
-0.386833
0.284985
0.101848
-0.19157
0.268344
-0.00732726
-0.0732436
0.0805708
-0.265674
-0.0448009
0.221752
-0.176951
-0.1086
-0.268247
0.376846
-0.0219786
-0.0504455
0.0724241
0.145553
-0.343091
-0.00782655
0.344416
-0.143395
-0.201021
-0.00570813
-0.0162566
-0.163825
0.0368803
0.126945
-0.137689
0.0157441
0.0735411
0.212497
-0.286038
0.0362248
0.0120351
-0.238675
0.182904
0.0557719
-0.221404
0.251945
-0.0305407
-0.0699609
-0.139539
0.0130679
0.126471
-0.0807249
0.415547
0.0958235
-0.329108
0.233285
-0.0636863
0.0935167
-0.227222
0.182421
0.0283274
-0.0325527
0.00422533
-0.024272
-0.00535838
-0.384278
0.275679
-0.0795338
0.199738
-0.120204
-0.138951
-0.0344988
-0.0510631
-0.0244522
0.0755153
0.44305
-0.44305
-0.0567009
-0.00440264
0.0611035
0.116491
0.0211463
-0.0545383
0.0570297
-0.00249136
-0.328873
0.0958137
-0.0572368
0.264389
0.110041
-0.034686
-0.0753549
-0.0276246
-0.0341332
0.0617578
-0.0834601
0.00703397
-0.278054
0.299693
-0.0216399
0.0313718
-0.113478
0.0821067
-0.134497
0.102848
-0.0963659
-0.00901202
0.105378
0.444085
-0.175386
-0.268698
0.0550343
-0.0483141
-0.00672013
-0.269115
-0.00893822
0.307736
-0.131474
0.0696872
0.0962003
-0.165888
-0.0666056
-0.312502
0.379108
-0.000896384
0.0384586
-0.0375622
-0.0844345
0.0259311
0.167354
-0.153133
-0.0142204
-0.0496291
-0.0269198
0.0765489
0.104775
-0.116511
0.0258052
-0.0240781
-0.00172711
0.369539
-0.275892
0.302198
-0.368803
-0.0943536
0.0919963
0.00235731
-0.102742
0.0837427
0.0189996
0.0508861
-0.0466727
-0.00421341
0.260077
-0.340921
0.0808439
0.45201
-0.136668
0.374393
0.0303278
-0.0594131
0.364906
-0.305493
0.192156
-0.355026
0.16287
0.278224
0.122657
-0.337652
0.214994
-0.0871209
-0.190747
0.277868
0.0556663
-0.00705295
0.0125554
-0.147274
0.134719
0.0261121
0.384548
-0.148862
0.0410982
-0.118904
-0.0866152
0.20552
0.157064
-0.117165
-0.144925
0.0123319
0.132593
-0.371649
0.312236
-0.27642
0.0444283
-0.057193
0.143844
-0.0120965
-0.131748
0.0587431
0.10763
0.131114
-0.378853
0.247739
0.0151172
-0.355792
0.340674
0.400982
0.00739661
-0.408379
-0.181256
-0.0539943
-0.168615
0.360771
-0.447305
0.169728
0.277578
-0.117695
0.150111
-0.0324156
-0.156599
-0.0929072
0.0985362
-0.005629
-0.0357384
0.143467
-0.107729
0.0356698
-0.0273396
0.0204371
-0.025152
0.00471494
-0.0971315
0.107613
-0.117753
0.389689
-0.271936
0.0493648
-0.333619
0.284255
0.402621
-0.450748
0.0481273
-0.197188
0.474525
-0.277337
-0.183307
0.144757
-0.0104785
-0.134278
0.110427
-0.100179
-0.00232793
-0.0202327
-0.291661
-0.380991
0.291058
0.0899334
-0.0789725
0.0569939
-0.0156811
0.386333
-0.339722
-0.0937409
0.343399
-0.083322
-0.0975865
0.0775803
0.0200062
-0.108261
-0.221761
-0.188162
0.0730474
0.115115
-0.218902
0.290392
0.269705
-0.386061
0.311447
-0.43328
0.121833
0.151339
-0.176417
0.0816212
0.0120583
-0.0162848
0.132776
0.329776
-0.18147
-0.148306
-0.048393
0.0579354
-0.00954243
-0.0541029
-0.12038
0.00230097
0.0557785
0.0491906
-0.104969
0.166669
-0.316074
0.0278282
-0.0287246
0.0397694
-0.0252653
-0.0145041
0.0686526
-0.0759799
0.126103
-0.1461
0.019997
-0.0309486
0.0340988
-0.00315021
-0.0338785
0.390027
0.233962
-0.07341
-0.160552
-0.0497608
0.168428
-0.0478101
0.0577698
-0.00995968
0.208796
-0.0864211
-0.122375
-0.0247314
0.138087
-0.113355
0.289278
0.0888543
-0.119474
0.0454797
-0.00322252
-0.0422572
0.140957
-0.179408
0.0384503
-0.00487967
-0.0344528
0.0393325
-0.0164186
0.134233
-0.117815
0.126575
-0.0483343
0.201813
-0.169326
-0.0324864
-0.121131
0.391714
0.253714
-0.175553
0.073714
0.289332
-0.363046
-0.0501913
-0.286433
0.336624
-0.010222
0.165729
-0.492127
0.15781
0.334317
-0.0104142
0.0585639
-0.0481497
0.418916
-0.18769
-0.231225
0.0740762
0.134719
-0.00645283
0.0317919
-0.186238
-0.269808
-0.347969
0.0933459
0.134737
0.0100198
0.00385855
-0.0239264
0.0200678
-0.114656
0.00725522
0.107401
0.36374
-0.0988973
-0.264843
0.297462
-0.347653
-0.155955
0.131224
0.189663
-0.118119
-0.0715443
-0.00022296
-0.099947
0.10017
-0.00951497
0.108595
-0.09908
0.238066
-0.391251
0.153186
0.133963
-0.0136165
-0.120347
0.277111
0.051939
0.0631537
-0.182058
-0.137525
0.12968
0.00784459
0.0576965
-0.398251
0.00458782
0.133711
-0.138299
0.409956
-0.109174
-0.300782
-0.0463808
0.0581573
-0.0117765
0.0260099
-0.00557279
-0.296586
-0.0837049
-0.235546
0.225684
0.00986242
0.357976
-0.248308
-0.109668
-0.451866
0.451866
0.00450557
0.0121213
0.277195
0.0807806
0.193882
0.135894
-0.392217
0.384938
0.00727929
-0.183501
0.154043
0.0294579
0.000696142
0.0142155
-0.0149116
-0.00393022
0.406985
0.197903
-0.328169
-0.136539
0.151236
-0.0146967
0.127533
-0.122945
-0.429783
0.224549
-0.136783
0.000244169
0.20061
-0.0549724
-0.471241
0.191551
0.232699
-0.350452
0.0395106
-0.00815821
-0.0313524
-0.0248874
0.176227
-0.400996
0.100411
0.377207
-0.377207
-0.157529
-0.0653748
0.0190852
-0.141459
0.122374
-0.190347
-0.157691
0.348038
-0.0540317
0.177781
-0.0829626
-0.0948182
0.0344095
3.08788e-05
-0.0344404
0.102619
-0.0680794
0.000663047
-0.110708
0.110045
0.0188982
0.0837203
-0.387606
0.214987
0.17262
0.112633
-0.192167
0.0786297
-0.268977
0.0959033
0.267837
0.0713504
-0.33664
0.26529
-0.0589587
-0.00186699
-0.0758802
0.0777472
0.137795
-0.11871
-0.0808618
-0.0120455
0.0872103
-0.0615088
0.382195
-0.180056
-0.202139
-0.431975
0.279787
0.152188
-0.107365
0.112419
-0.00505462
-0.00982272
0.117086
-0.180023
0.457805
-0.277782
-0.0822793
-0.255652
0.337931
-0.113588
0.0886705
0.0249172
0.17375
-0.145412
-0.0283389
0.370799
-0.132734
0.108508
0.278361
0.0710781
0.288802
-0.35988
-0.361719
0.407837
-0.0461178
0.404407
-0.0220189
-0.382388
-0.20835
0.281891
-0.106622
-0.0201701
0.126792
-0.278977
0.350328
-0.0921705
0.262635
-0.170464
0.000705726
0.0314064
-0.0321121
0.0597539
-0.0500346
-0.00971931
0.00438955
0.0314998
0.39515
-0.110489
-0.284662
0.1202
-0.12159
0.00139007
0.195542
0.00627103
-0.19803
-0.058121
0.256151
0.0269573
0.11783
-0.144787
-0.159221
-0.185423
0.344644
0.0206662
-0.0717293
0.00871066
-0.143516
0.134805
-0.0509834
-0.171776
0.499026
-0.209733
-0.289293
0.202962
0.296064
0.0125538
0.0563875
-0.0689414
-0.134433
0.143144
0.0530982
0.00665571
-0.223594
-0.0968037
0.1024
-0.417477
0.157893
-0.157016
-0.000877072
0.00863844
-0.362194
0.353555
-0.100178
-0.243243
0.343421
0.0152015
0.00847609
-0.0543251
-0.0432613
0.0874224
-0.0900488
0.00262649
0.36301
-0.303354
-0.0596561
0.344316
0.0566662
-0.00901378
-0.352705
-0.334029
-0.0209967
0.224232
-0.0313739
0.0806432
-0.118407
0.0377634
-0.0369587
-0.0405127
-0.0475004
0.22304
-0.336308
0.105001
0.00542597
0.0709164
-0.262487
-0.0719836
0.286608
-0.157164
-0.0212118
0.178376
0.00247333
-0.0320569
0.118424
0.0275224
-0.145947
0.356308
0.0327802
-0.389088
0.133738
0.0559249
0.312764
0.0971921
0.359417
-0.288339
0.00722415
0.104064
-0.104287
0.394642
-0.415744
0.0211016
0.106226
0.171667
-0.277892
-0.0977008
0.111409
-0.0137085
0.0748113
-0.0752087
0.000397388
0.118365
-0.14309
0.0247248
0.0435217
-0.00911214
0.0999456
-0.169867
0.0699217
0.109624
0.0485947
-0.158218
-0.0447633
0.0604207
-0.0156574
0.28727
-0.112669
-0.174601
-0.00666518
-0.228881
-0.314097
0.133161
0.180936
0.0929247
-0.10244
-0.00451928
-0.185349
-0.0609233
0.246273
0.0758205
-0.0632667
0.0809812
0.16239
-0.243371
0.141461
-0.0696562
-0.0718047
-0.255267
0.257419
-0.357597
-0.0579275
0.00953452
-0.329417
0.01569
0.313727
-0.0695392
-0.273282
0.371076
-0.0977936
0.404052
-0.0014311
0.0923707
0.30278
-0.0190988
-0.000701429
0.0198002
0.00915371
0.215079
0.125306
-0.0446626
0.195168
-0.353733
0.252968
0.0904311
0.105509
-0.455061
-0.497965
0.200688
0.297277
-0.208328
-0.289638
0.243364
0.111584
0.066197
-0.207382
-0.180224
0.302587
-0.0784054
0.326797
-0.231558
-0.0952382
0.264329
-0.25569
0.0712749
-0.0161617
0.120168
-0.120037
-0.000130976
-0.152527
0.0230767
0.129451
-0.151039
0.234361
-0.083322
0.33127
0.0920469
-0.397355
0.136152
0.261203
-0.0312462
0.18679
-0.155543
-0.184601
0.290826
0.0627581
-0.478296
0.202346
0.27595
-0.349572
0.0155429
0.155726
-0.186972
-0.00114477
0.0116381
0.372198
-0.353483
-0.0187158
0.0338332
0.116214
-0.421028
0.380057
-0.398342
0.0812536
0.16282
-0.200375
0.0375548
-0.42474
0.175868
0.248872
0.0579548
-0.0495487
-0.0084061
0.35133
-0.382785
-0.288631
0.420648
-0.132017
0.00459874
0.0702125
0.365163
0.045049
0.0187871
-0.0464117
0.126164
-0.136154
0.00999063
-0.0730323
0.097704
-0.0246716
0.0374226
0.00208793
0.308618
-0.115702
-0.303894
0.0825324
0.00173688
0.0858384
-0.0875753
0.023194
-0.0962264
0.182055
-0.184704
-0.336319
-0.0595939
-0.113993
0.00647405
0.00563947
0.366559
0.240523
-0.159541
-0.0221123
0.387983
0.3498
0.0472275
0.191754
-0.0140995
0.101096
-0.0869968
0.0210287
-0.256447
0.235419
0.411267
-0.322179
-0.089088
0.460152
-0.0969026
0.129523
-0.137624
-0.055065
0.00868419
0.000296738
0.157921
-0.150341
-0.00758008
0.343194
-0.261626
0.0728884
0.242762
-0.31565
-0.331007
0.433981
-0.102974
-0.08934
-0.0435201
-0.057127
0.33466
-0.277533
0.32925
-0.408656
-0.298929
0.197694
0.0238943
0.1081
-0.036065
-0.10146
-0.121989
-0.299039
-0.13733
0.019625
0.117705
0.290142
-0.347269
0.417371
-0.105925
-0.0705211
0.0678012
0.00271986
0.345453
-0.0924851
-0.0310042
-0.121523
-0.19185
-0.269584
0.0636628
0.0359326
-0.0995953
0.241334
0.121676
0.0802594
0.0464625
0.00858969
-0.335623
0.250486
0.0851371
0.2531
0.073697
-0.26136
-0.135995
0.0308007
-0.309519
0.214405
0.33901
-0.225461
-0.113548
0.210936
0.131273
-0.0110729
-0.0897334
0.399679
-0.309946
-0.023751
0.0752963
-0.183005
-0.264301
-0.0696276
0.412843
-0.0788042
0.17875
-0.0527645
0.0451523
0.0076122
0.0281375
0.0237075
-0.051845
-0.20046
0.221488
0.0247348
0.0150346
-0.00475187
0.0171701
-0.0124182
-0.0223917
0.148555
-0.276111
-0.322478
-0.0790246
0.401503
0.00936504
-0.00872692
-0.0318662
0.026272
0.00559424
-0.0317745
-0.177255
-0.309857
0.205094
-0.0708102
0.343401
0.507059
-0.216042
-0.291017
0.197854
0.309205
-0.353895
0.266391
0.00159402
0.136493
0.0503137
-0.329796
0.279482
0.129626
-0.144201
0.0145754
-0.0578541
0.0708702
-0.0130161
0.0779059
-0.408535
-0.418404
0.302161
0.116242
-0.0685271
-0.347122
0.415649
-0.0461987
0.404558
-0.142821
0.0128987
0.0616395
0.0236952
-0.0853347
-0.343061
0.438344
-0.0952832
-0.433137
0.163962
0.269175
0.00065318
-0.391005
-0.235029
-0.257097
0.288961
-0.287592
0.0675838
-0.252933
0.0988221
-0.0590197
-0.0359241
-0.286326
0.0629835
-0.036786
0.366036
-0.396148
0.0437688
0.014186
-0.13149
-0.00804903
0.295142
0.10046
-0.262303
0.33363
-0.071327
-0.443321
0.287142
0.15618
0.165898
-0.0562745
-0.209945
-0.104152
0.368835
-0.102068
-0.0721407
0.0368085
0.0353322
0.0980926
0.155621
-0.141548
0.125197
0.0163511
0.0981815
-0.0345188
-0.147253
0.211791
-0.0645375
0.379279
0.0117027
-0.390981
-0.0296958
-0.0196961
0.0157132
0.0149027
-0.030616
0.244165
0.0948451
-0.125755
0.00262878
0.123126
-0.142654
0.139924
0.288449
0.100197
-0.388647
-0.213704
0.213837
-0.000133033
0.324141
-0.420654
0.0965128
0.323945
-0.09849
0.00817931
0.0373004
0.126485
-0.189425
0.0680157
-0.273426
0.205411
0.106529
0.00143945
-0.107968
0.150359
-0.309754
0.159395
-0.0175563
-0.0238515
0.0519889
0.0413839
0.180438
-0.221822
0.291484
-0.168827
-0.143686
-0.293043
-0.270528
-0.10085
0.371378
-0.151241
-0.003684
-0.216885
0.0748996
0.141985
0.0915033
-0.102525
0.0100495
0.0266149
-0.0366644
0.102126
-0.395777
-0.324183
-0.0760171
0.4002
0.326282
0.218682
-0.250456
-0.0214544
-0.1043
-0.28313
0.17487
-0.389221
0.114522
0.274699
0.0203877
-0.0196819
0.00129515
0.0172364
-0.0185316
-0.203924
0.144773
0.0591513
-0.00711597
0.0945383
-0.494446
0.195534
0.298912
-0.202824
-0.291622
0.0517584
0.00601139
0.0113003
-0.0124451
-0.11734
-0.0428004
0.16014
0.150679
-0.0978751
-0.0528041
-0.354502
0.199819
0.154683
-0.0225106
0.0264055
-0.00389493
0.0744726
-0.0790275
0.0045549
0.0823986
-0.0207591
0.12549
-0.00391594
0.116284
0.00920628
0.331105
-0.428208
0.097102
-0.0926613
-0.187321
0.279983
0.088124
0.251024
-0.353773
0.102748
0.330997
0.0689467
0.100039
-0.0119227
0.0960711
-0.00299168
-0.0162762
-0.193806
0.16527
-0.13406
-0.0312102
0.0208817
-0.0245081
0.00362644
0.273042
-0.282732
-0.230954
0.208745
0.0222087
0.0743158
-0.0856674
0.0113516
0.0607996
-0.0101432
-0.0506564
-0.135376
-0.0629457
0.030224
-0.251628
-0.283566
-0.0966642
0.38023
-0.0678692
-0.270188
0.338057
-0.201619
0.0614029
0.140216
-0.0930066
0.344031
0.388645
-0.0935031
-0.00145475
-0.0984923
0.441912
-0.110807
0.319362
-0.393104
0.0737417
0.162971
0.0385272
-0.201499
-0.225904
0.298792
0.318828
0.131717
-0.450545
-0.00999508
0.136098
-0.222797
0.0688073
0.116252
0.0539111
-0.336296
0.282385
-0.146848
-0.242373
-0.0542965
-0.154714
0.20901
0.184019
-0.27114
-0.32809
0.437385
-0.109295
0.0268742
-0.02108
-0.00579422
-0.435959
0.294849
0.141109
0.00124658
0.0496395
0.123198
0.0604293
-0.183627
0.0820529
0.0880962
0.137034
-0.275885
-0.0807638
0.419983
0.0172879
-0.0192423
0.00195444
0.0682739
-0.352185
0.283911
0.0244858
-0.122187
-0.273126
0.218939
-0.33116
0.234063
0.097097
0.063977
-0.0579481
-0.00602898
0.025238
-0.00435634
-0.0106901
0.0334544
-0.211569
0.157272
-0.131841
-0.146043
0.0263658
0.378041
-0.0897968
-0.123532
0.213328
-0.151186
-0.056231
0.337051
-0.28082
0.0730935
0.00575921
-0.0788527
-0.0283637
-0.262251
0.00213257
0.260118
0.162676
-0.0047547
-0.0777319
0.0758649
-0.398444
0.0742603
-0.108168
0.000803167
0.000897238
0.0879985
-0.0875172
-0.000481311
-0.0839619
0.0856988
-0.0243617
0.0364762
-0.0121145
-0.194632
0.380797
-0.078599
-0.134156
0.146711
-0.263342
0.355033
-0.0916909
0.156723
0.0160806
-0.428408
0.284932
0.143477
0.0811213
-0.100362
0.0192404
-0.153039
-0.0107854
0.129868
-0.277121
-0.198199
-0.0967824
0.294981
-0.0149777
-0.198726
0.204908
0.101523
-0.376255
0.325655
-0.304971
0.399182
-0.0942105
0.341878
0.16069
0.277458
-0.418002
0.155746
0.262256
0.119829
-0.383171
-0.505599
0.205399
0.300199
0.207787
-0.166403
-0.123748
-0.0651951
0.188943
0.0412903
-0.0650413
-0.0143523
0.0300655
0.318195
-0.26883
-0.227022
-0.30491
-0.0687112
0.197967
-0.129255
-0.136011
-0.0808745
-0.037574
-0.0651683
-0.0193238
0.250739
-0.252151
0.184364
0.208973
-0.301635
0.0584264
0.169439
-0.227866
0.0213144
-0.205106
0.183792
-0.413525
0.31902
0.0945051
-0.227274
0.164481
0.0627928
0.110326
-0.114182
0.00385521
-0.315954
0.413346
-0.0973918
0.0780744
0.0100044
0.0160736
-0.300572
0.249838
-0.117884
-0.436247
0.287101
0.149147
-0.123249
0.150206
-0.273306
-0.208213
0.0949712
0.0363014
-0.120829
0.304616
0.0129368
0.000684147
-0.013621
0.0200428
-0.00156015
-0.0184826
-0.0925883
0.105129
-0.012541
0.425318
0.0131721
0.312223
0.0689148
-0.381137
-0.0881224
0.0946476
-0.00652518
0.10054
-0.0194189
0.244829
-0.432519
-0.135961
-0.282041
0.236674
0.040844
-0.040862
1.80305e-05
-0.0423777
0.0171124
-0.0292606
0.407497
-0.298986
-0.0878227
0.386809
0.426802
-0.298004
-0.128798
-0.0766669
-0.0355433