/*--------------------------------*- C++ -*----------------------------------*\
| =========                 |                                                 |
| \\      /  F ield         | OpenFOAM: The Open Source CFD Toolbox           |
|  \\    /   O peration     | Version:  v2012                                 |
|   \\  /    A nd           | Website:  www.openfoam.com                      |
|    \\/     M anipulation  |                                                 |
\*---------------------------------------------------------------------------*/
FoamFile
{
    version     2.0;
    format      ascii;
    class       volVectorField;
    location    "100";
    object      U;
}
// * * * * * * * * * * * * * * * * * * * * * * * * * * * * * * * * * * * * * //

dimensions      [0 1 -1 0 0 0 0];


internalField   nonuniform List<vector> 
27802
(
(1.0448 0.0494435 5.79021e-22)
(1.0053 -3.51449e-05 0)
(1.01214 0.00588835 3.39453e-22)
(1.01286 0.000684811 -1.48835e-21)
(0.920766 0.137465 2.08331e-21)
(1.01417 0.00828991 0)
(1.01253 0.00402189 0)
(1.01537 0.0103042 -1.007e-22)
(1.0478 0.0595899 1.0994e-21)
(1.03792 0.0108754 4.33437e-21)
(1.00701 0.000404925 2.28688e-22)
(0.694166 0.0738105 1.12027e-20)
(0.41161 0.0264335 0)
(1.05073 0.0448301 5.70072e-21)
(1.01529 0.00319602 2.0242e-21)
(1.01279 0.00370051 0)
(1.01197 -0.000715554 -8.88948e-24)
(0.763384 0.0860123 1.99704e-20)
(0.767385 0.250341 2.39619e-23)
(1.0278 0.0685986 -4.88947e-23)
(1.00554 -1.79946e-05 0)
(1.01201 0.000923948 -9.49726e-22)
(1.04388 0.049653 -5.51243e-21)
(1.0943 0.0655765 6.36374e-21)
(1.00667 3.74084e-05 4.09169e-22)
(1.02502 0.0129665 7.30949e-22)
(1.01415 0.00775005 -2.762e-22)
(1.03734 0.0107461 -8.68213e-21)
(1.0066 3.07316e-05 -4.08171e-22)
(0.982387 -0.0739201 -3.89581e-21)
(1.02433 0.00718723 0)
(1.01337 0.00698161 -6.21964e-22)
(1.05177 0.0836021 3.03404e-20)
(0.966647 0.00519937 0)
(1.03047 0.080808 -3.50896e-20)
(1.01713 0.00224486 0)
(1.0794 0.0121608 0)
(0.912648 -0.267492 4.80602e-21)
(1.0241 0.00730895 2.52343e-21)
(1.01479 0.00798885 4.47884e-22)
(1.03325 0.00375133 -4.67684e-21)
(1.01499 0.00812178 6.58243e-22)
(0.605328 0.244676 -1.81051e-20)
(1.05578 -0.0265015 -5.37536e-22)
(1.01349 -0.00128381 0)
(1.01478 0.00341957 2.54637e-21)
(1.0474 0.105878 0)
(1.02462 0.00967832 4.56126e-21)
(1.01204 -0.00137338 2.51477e-22)
(0.997732 0.0312846 1.03432e-21)
(1.03928 0.0272837 0)
(1.01361 -0.00128209 -1.35773e-22)
(0.943804 0.0102637 0)
(1.00589 -0.00016941 1.30354e-22)
(1.01215 0.00533575 -1.44945e-23)
(1.0137 0.00768894 -6.28103e-23)
(0.360999 0.00945499 8.66658e-21)
(1.05033 0.0462203 1.72712e-21)
(1.0152 -0.00101465 9.64651e-23)
(0.307195 0.00922127 9.28686e-21)
(1.01706 0.00208911 0)
(1.01489 -0.00107325 -4.40113e-22)
(1.02068 0.0590272 1.39528e-22)
(1.01307 -0.00280977 2.41542e-25)
(0.781627 0.091686 -1.85715e-20)
(1.07263 0.0676957 7.29825e-21)
(0.517734 0.0378668 0)
(1.01428 0.0106072 1.8625e-22)
(0.802473 0.164197 0)
(1.01666 0.00579558 -6.65465e-22)
(1.01048 0.00150174 0)
(1.09471 0.0751128 -1.1996e-20)
(0.955345 -0.0988712 -8.5548e-22)
(1.09213 0.076699 0)
(0.954922 -0.00253976 4.5718e-22)
(1.04592 0.0258502 2.16687e-21)
(0.921288 -0.275702 0)
(0.502482 0.0324565 0)
(1.0008 0.0303011 0)
(1.01309 0.00373614 1.62674e-21)
(0.642936 0.166842 -1.67833e-20)
(1.04333 0.0428456 -1.56791e-21)
(1.01209 -0.00129869 0)
(1.05051 0.0470811 -3.38826e-21)
(1.01252 0.000897244 0)
(1.03177 0.0221103 4.50427e-21)
(1.00642 8.7268e-06 2.63181e-22)
(1.01217 0.00533538 0)
(1.09452 0.0760634 0)
(0.998371 0.106204 5.09506e-21)
(0.887932 0.0952029 2.34696e-22)
(1.01498 -0.000803032 5.57186e-22)
(0.935092 0.0291017 2.10865e-21)
(1.01333 0.0035301 -1.63045e-21)
(1.00628 -0.000189322 8.74943e-23)
(1.0253 0.00922446 -4.29474e-21)
(1.06533 0.0229852 -8.56793e-21)
(0.905187 0.139039 -1.48142e-20)
(1.03333 0.00333834 0)
(1.0474 0.103332 0)
(1.03666 0.0458117 0)
(1.03337 0.00530596 8.23466e-21)
(1.03551 0.0207236 0)
(1.01489 0.000215365 0)
(0.99972 0.101737 0)
(1.01516 -0.000692068 -8.43895e-22)
(1.05003 0.00555184 0)
(1.04943 0.0598565 -1.35411e-21)
(1.01799 0.00400705 0)
(1.06199 0.0402756 2.88416e-21)
(1.01112 0.00779797 1.45626e-21)
(1.01506 0.0030859 -2.92592e-21)
(1.03335 0.00570467 -6.1855e-21)
(0.92891 0.033043 -6.98853e-22)
(1.00783 -0.0001684 2.69046e-22)
(1.08735 0.0590518 1.77977e-21)
(1.0257 0.0302856 -7.51208e-22)
(1.00809 0.000761947 9.55705e-23)
(1.05984 0.0191852 0)
(1.02968 0.0664744 0)
(0.472202 0.0349676 3.16999e-22)
(0.866927 0.0925106 -9.85085e-22)
(1.0751 0.0334332 -1.93442e-20)
(1.0064 1.83829e-05 -3.71351e-22)
(1.01942 0.00737414 1.71001e-21)
(1.01316 -0.00632887 3.5295e-22)
(0.98999 0.0221095 3.40425e-21)
(1.05667 -0.0166986 -2.05866e-22)
(0.497262 0.0398458 -1.22886e-20)
(0.463778 0.0338431 -1.31962e-21)
(1.0351 0.0209609 -3.99048e-21)
(1.07425 0.0333931 1.63538e-20)
(1.01552 0.00067221 -6.92834e-24)
(1.03552 0.0106213 0)
(1.01219 -0.0013587 2.59219e-22)
(1.01402 0.00984997 -2.44889e-22)
(1.0125 0.00681305 5.28499e-22)
(1.01266 -0.00131006 -3.77718e-22)
(0.982801 0.0159967 0)
(1.04481 0.0416423 0)
(1.01456 0.0106684 -1.54086e-22)
(1.01417 0.00789698 4.24143e-22)
(1.0139 -0.00696457 -1.22006e-23)
(1.00758 -0.000211867 0)
(1.0079 -0.000200664 0)
(1.02565 0.0181079 -1.72832e-21)
(1.01247 0.00658352 -9.31478e-22)
(1.01969 0.0149404 3.64014e-22)
(1.01368 -0.0013088 2.6986e-22)
(1.01514 0.000472212 0)
(1.00704 0.000406682 -2.29036e-22)
(1.02424 0.00954883 -1.67706e-21)
(1.04862 0.0166141 2.27756e-21)
(1.01424 0.0107473 -2.73054e-22)
(1.02828 0.0640369 -1.08209e-21)
(1.01123 0.00365037 -3.2858e-22)
(0.964433 0.0262966 1.06729e-21)
(1.10625 0.0721336 0)
(1.06227 0.0397938 0)
(1.02765 0.0690542 -3.55454e-21)
(0.99525 0.0177768 -6.98041e-22)
(1.09348 0.0769817 0)
(1.03131 0.021834 -3.22694e-21)
(1.05907 0.0191383 3.08461e-21)
(1.0118 -0.000656039 2.51359e-24)
(1.01011 -0.000995627 -3.95092e-22)
(1.00797 0.00070113 -3.05688e-23)
(1.01369 0.00782087 1.89876e-23)
(1.02377 0.0024414 -2.48079e-21)
(1.02891 0.0712368 9.32734e-22)
(1.01566 0.000257355 -5.07354e-22)
(1.0251 0.0297404 2.7341e-22)
(1.01114 0.00255257 -1.74328e-22)
(1.1329 0.0686704 -1.13689e-22)
(1.02414 0.00779232 -7.12997e-22)
(0.836772 0.100983 4.97441e-21)
(1.01002 -0.00100443 2.66307e-22)
(1.05505 0.0299369 -4.14903e-21)
(1.01342 -0.00128395 0)
(1.0828 0.00440742 0)
(1.09491 0.0647302 7.77129e-21)
(1.02686 0.0431266 1.25596e-21)
(1.0432 0.0374207 1.1747e-21)
(1.02558 0.0177984 -4.57991e-22)
(1.01114 0.00247761 0)
(1.05031 0.0510749 0)
(1.01118 0.00357172 0)
(1.00299 -9.10053e-05 0)
(1.00723 0.0353866 0)
(0.942464 0.0427241 3.19851e-21)
(1.00586 0.000113021 -2.37388e-22)
(1.01738 0.0167 1.27121e-23)
(1.046 0.0514696 0)
(1.04041 0.0147754 -2.61534e-21)
(1.01102 -0.00137284 0)
(1.01474 0.00801841 -7.01449e-22)
(1.01106 -0.00136884 1.37954e-24)
(1.01311 -0.00127235 0)
(1.01621 0.00556812 -1.04073e-21)
(1.014 0.0077546 -5.69903e-22)
(0.717735 0.0584139 4.46963e-21)
(0.76933 -0.0510946 -2.2643e-21)
(1.06328 -0.0259414 -3.87696e-22)
(1.03185 0.0286788 2.31599e-21)
(1.01797 0.00429569 1.32724e-21)
(1.07302 0.0342006 8.81866e-21)
(1.04811 0.0160639 -1.90525e-21)
(1.01199 0.124529 4.39893e-21)
(1.01703 -0.00228508 0)
(0.319143 0.0113112 -2.74989e-20)
(1.01717 0.00131341 3.00649e-21)
(0.957812 -0.0270243 -2.37501e-21)
(0.868188 0.104139 4.17273e-21)
(1.05441 0.029896 3.4859e-21)
(1.0033 0.0359725 2.05002e-22)
(1.01315 0.0054777 -3.96912e-22)
(1.06236 0.0121965 -2.1199e-22)
(1.01368 0.00352815 4.79286e-22)
(1.02556 0.00966815 1.56803e-21)
(1.01105 0.00222737 7.28291e-22)
(0.511813 0.0421349 1.071e-20)
(1.01309 -0.00134295 0)
(1.05014 0.050422 -8.28674e-23)
(1.04663 0.0117995 -1.53329e-22)
(1.01114 0.00230865 -7.37943e-22)
(1.01251 -0.0013256 6.23083e-22)
(1.01224 -0.00128623 -1.29646e-22)
(1.0173 0.0164301 -1.16023e-23)
(1.01487 0.00357086 0)
(1.03388 0.00480038 -5.25398e-21)
(1.01278 -0.00123629 -4.34677e-23)
(0.293543 0.00734277 -1.29551e-20)
(1.02556 0.00908588 3.74213e-23)
(1.05324 0.0367708 -9.61812e-21)
(0.770929 0.22838 0)
(1.04395 0.0409076 1.26277e-21)
(1.00796 0.000533332 0)
(1.01545 0.121927 -9.34249e-21)
(1.04068 0.0841237 -8.08854e-21)
(1.0207 -0.00206352 0)
(1.01215 0.00496161 -6.35911e-22)
(1.13693 0.201728 1.44977e-21)
(1.13817 0.194267 0)
(1.01579 0.000795138 5.35143e-22)
(1.00969 0.000442954 -6.6532e-22)
(1.0631 0.0860403 0)
(1.01295 -0.00127294 0)
(1.055 0.0154794 2.10087e-22)
(1.01368 0.00369501 9.17702e-23)
(1.01225 0.00573984 -9.7932e-22)
(1.07625 -0.0401336 0)
(1.04704 0.0384472 3.45007e-21)
(1.04482 0.0475076 4.13216e-21)
(1.01221 0.00493772 0)
(1.01111 0.000376479 1.41756e-21)
(1.01146 -0.00144481 -2.66919e-22)
(1.01224 0.000938737 2.06175e-22)
(1.03744 0.0564857 7.99554e-22)
(1.03133 0.0287285 -1.87666e-21)
(1.01125 -0.00141952 -8.2928e-22)
(1.04655 0.038612 -3.3732e-21)
(1.03111 0.00549538 0)
(0.555435 0.0511591 2.80603e-20)
(1.0169 -0.00228446 4.63412e-24)
(0.717295 0.0652204 -9.68341e-21)
(1.05605 0.029278 1.52353e-20)
(0.692312 0.0552626 0)
(1.0339 0.00521083 1.49747e-21)
(1.0132 -0.00137856 0)
(1.02437 0.00769923 8.37674e-22)
(1.10731 0.0718746 3.14993e-21)
(1.01237 0.00306129 0)
(1.04592 0.0416189 0)
(1.0171 0.0729537 -1.2827e-21)
(1.03987 0.0145786 7.76272e-21)
(1.09193 0.0983439 -2.24188e-20)
(1.01973 0.014164 0)
(1.06024 0.040515 1.1584e-20)
(1.05532 0.0291905 -1.09552e-20)
(1.01211 0.000939588 0)
(0.967131 -0.0171031 0)
(1.05489 0.0365382 -4.28343e-21)
(1.01635 0.0132844 0)
(1.03372 -0.0212658 0)
(0.981589 0.0589663 -3.30832e-22)
(0.869469 -0.15389 4.61923e-21)
(1.02874 0.059386 -1.00063e-21)
(1.0253 0.0116173 -5.15009e-23)
(1.03807 0.0288341 4.2919e-21)
(1.00644 -5.24566e-05 5.89421e-23)
(1.01427 -0.0017088 0)
(0.973175 0.00626209 2.21537e-21)
(1.01201 -0.00155006 4.31136e-22)
(0.896863 -0.201774 7.66143e-22)
(1.01206 -0.00156458 0)
(0.987778 0.00935368 -9.79369e-22)
(1.0876 0.0544577 -4.09321e-21)
(1.01266 0.000868546 1.81127e-22)
(0.33485 0.0142677 0)
(0.996795 0.0542555 -2.27476e-22)
(1.07402 0.0679465 0)
(1.02596 0.0173324 0)
(1.0089 0.000575983 -3.76062e-22)
(1.02798 0.0672077 4.73741e-21)
(0.759004 0.220272 7.22667e-22)
(0.979962 0.0183541 1.38494e-21)
(1.03059 0.00540353 1.13131e-21)
(0.738234 0.0704463 -2.24824e-21)
(1.01208 0.0134846 0)
(1.01961 0.0143584 0)
(1.03009 0.037211 0)
(1.04928 0.0496943 1.09996e-20)
(1.06222 0.0615075 -3.6867e-22)
(1.03607 0.0107552 0)
(1.0022 0.000983453 1.32408e-21)
(1.01703 0.00130014 -1.21081e-21)
(1.03068 0.0378252 -6.91326e-22)
(1.04499 0.0487527 0)
(1.0636 0.0392854 -1.48265e-21)
(1.05118 0.0440594 2.23509e-21)
(1.01555 0.00068701 5.0629e-22)
(1.01814 0.0041948 -1.53336e-21)
(1.01125 -0.000476569 -1.79695e-23)
(1.014 -0.0020472 -5.05678e-22)
(1.06961 -0.00328171 0)
(1.0148 0.000298973 0)
(0.5632 0.0527917 -2.72836e-20)
(1.01466 0.000326307 -2.07621e-22)
(1.01809 0.00448658 1.50702e-21)
(1.05081 0.0357711 3.66407e-21)
(1.0125 0.00536618 5.24408e-22)
(0.942259 0.148612 -8.99617e-21)
(0.976026 -0.0353039 0)
(1.06101 0.130357 6.524e-21)
(1.05035 0.012296 -2.3895e-22)
(1.13757 0.0539594 0)
(1.06156 0.0620665 2.85837e-21)
(1.01056 0.0022587 0)
(1.08737 0.0532684 -2.10867e-20)
(1.01206 0.00279049 0)
(1.01166 -0.00066093 -6.91457e-23)
(0.768491 0.0866961 1.27149e-20)
(0.387203 -0.274811 0)
(0.997107 0.0351457 -1.14419e-21)
(1.0738 0.0862973 0)
(0.869903 0.0720479 0)
(1.04224 0.105425 -1.02186e-20)
(0.968892 0.0462722 -6.26979e-22)
(1.014 0.00367367 -9.52854e-23)
(0.978611 0.0986032 -1.26032e-21)
(1.01354 -0.00187941 4.0838e-22)
(0.85812 0.123865 8.49127e-21)
(1.01957 0.00759388 0)
(1.02251 0.014717 4.23086e-21)
(1.01326 0.00791176 -2.08022e-22)
(1.01239 0.00626044 6.05687e-22)
(1.0169 0.0364278 -1.73793e-22)
(0.983419 0.101709 0)
(1.00533 3.02005e-05 -3.70778e-22)
(1.01402 -0.00188926 2.74848e-22)
(1.01466 -0.0260855 1.59046e-21)
(0.831705 -0.0211568 4.08389e-22)
(1.01417 -0.00183075 0)
(1.04234 0.0436387 6.52182e-21)
(1.01077 -0.00131906 0)
(1.00809 0.000528036 0)
(0.97636 0.0410201 6.4429e-23)
(1.02515 0.0112816 0)
(1.05427 0.0363388 0)
(1.01204 0.00519358 -8.18145e-23)
(1.01045 0.00215194 -1.40781e-22)
(1.03938 0.106422 8.94122e-21)
(1.02098 0.0484675 1.69723e-22)
(1.08727 0.0725286 -1.48246e-20)
(0.945195 -0.260797 -7.90834e-21)
(0.702485 0.0573522 -1.13059e-21)
(1.01953 0.0491467 0)
(1.01124 0.00735367 -1.38396e-21)
(1.02243 0.0348294 -4.74297e-22)
(1.01512 0.00265318 -9.62645e-22)
(1.00258 -6.83445e-05 0)
(1.01074 -0.00132605 0)
(1.01325 0.00775589 -1.97656e-22)
(1.01485 -0.00259918 5.45771e-22)
(1.00625 -0.000128885 1.73304e-23)
(1.00977 0.000725031 2.86512e-22)
(1.04773 0.112323 7.15771e-21)
(1.01519 0.00646986 0)
(1.01829 -0.0230422 -6.99812e-22)
(1.01095 0.0236532 -4.23886e-22)
(1.01191 -0.000399329 1.03325e-21)
(1.01225 0.00547313 -1.23478e-22)
(1.01295 0.0134998 0)
(1.06322 0.0398578 0)
(1.0155 0.0053101 0)
(0.930199 0.153789 9.22788e-21)
(0.855319 0.0600776 -1.95672e-21)
(1.08761 0.052346 1.59151e-20)
(1.00484 -6.82049e-05 1.38779e-22)
(1.04621 0.052344 -2.48277e-21)
(0.758822 0.0856622 -1.88016e-20)
(1.06101 0.0407719 -1.11533e-20)
(1.01182 -0.000414836 -5.99671e-22)
(1.01155 0.0659672 -3.08227e-23)
(1.02412 0.00242384 4.10051e-21)
(0.952594 0.0479687 0)
(1.0265 0.0423075 -1.36035e-21)
(1.01424 0.0957632 -2.71688e-21)
(0.878464 -0.17071 -2.51638e-21)
(1.0346 0.0438242 0)
(0.336201 0.0129127 -4.67479e-22)
(1.00713 0.000351247 -2.24302e-22)
(0.456258 0.0333669 0)
(0.506391 0.0422359 1.2397e-20)
(0.876786 -0.0411781 0)
(1.0253 0.00976881 1.67702e-21)
(1.01413 -0.00201762 2.62252e-22)
(1.05111 0.0363899 0)
(1.00765 -0.000241264 2.69495e-22)
(0.945638 0.0376301 -8.56098e-22)
(0.618449 0.226303 1.52222e-20)
(1.01396 0.00383153 0)
(1.01553 0.00718192 -8.64364e-22)
(1.02534 0.0129098 -8.71351e-22)
(1.06342 0.000986355 -9.60756e-23)
(1.01452 0.0107914 -2.66109e-22)
(1.01291 -0.00199684 1.14474e-21)
(0.54581 0.0480235 -6.03364e-21)
(1.0465 -0.0216832 5.59044e-22)
(1.03892 0.0267911 -5.92416e-21)
(1.01191 0.00264566 0)
(1.02803 0.0412801 0)
(0.8649 -0.0507405 0)
(1.01361 0.00559796 0)
(1.00177 -1.15853e-05 1.96607e-22)
(1.01612 0.00605283 0)
(1.06094 0.0691979 -7.59077e-21)
(0.950311 0.0167319 4.58e-22)
(0.954765 0.0065416 -4.72858e-22)
(1.04292 0.0378356 0)
(1.05245 0.0482144 -1.32536e-21)
(1.01287 0.0073313 -4.96557e-22)
(1.00586 -0.000144036 7.29804e-25)
(1.00782 0.000571495 8.87195e-23)
(1.04372 0.0504486 0)
(1.01649 0.00103923 1.32762e-21)
(1.00759 2.363e-05 0)
(1.01344 -0.00177362 -1.19709e-21)
(1.06435 0.0614868 2.23662e-21)
(1.03478 0.0530746 0)
(0.82498 -0.334462 4.1781e-21)
(1.00193 0.14692 1.25518e-20)
(1.05071 0.0232506 0)
(0.645688 0.15336 -1.32441e-22)
(1.01241 -0.00164347 -7.29022e-25)
(1.05314 0.0433124 2.30621e-21)
(1.05301 0.0359892 1.75152e-20)
(1.0654 0.00442764 7.84699e-23)
(0.951223 -0.257481 9.92512e-21)
(1.01192 0.00509641 9.11123e-23)
(1.03811 -0.00718493 1.57451e-21)
(1.03161 -0.0150771 -5.08721e-22)
(1.00788 0.0561423 1.07898e-23)
(0.988796 0.0492862 0)
(1.01179 -0.000606962 4.7792e-24)
(1.04734 0.0180863 1.96975e-21)
(1.05134 -0.0242113 6.14545e-23)
(1.01635 0.00103791 0)
(1.05664 0.00168821 1.69415e-22)
(1.00755 1.52676e-05 0)
(1.03337 0.0337998 0)
(1.00759 0.000506104 -8.16156e-23)
(1.01364 0.00815091 0)
(1.02024 0.0731873 5.0058e-21)
(1.05381 0.0273867 0)
(0.821955 -0.00228088 2.97131e-22)
(1.01596 0.000675489 -3.81393e-22)
(0.409675 0.0121109 2.91217e-20)
(1.01155 -0.000607391 -1.78973e-23)
(1.03251 0.0279799 -2.14999e-21)
(1.08406 0.0707574 1.19771e-20)
(1.03193 0.0279497 -3.94641e-21)
(1.01699 0.0160847 0)
(1.04451 0.0480714 0)
(1.06344 0.0620354 4.24518e-22)
(0.975733 0.0281287 8.00944e-22)
(1.01635 0.0133634 4.11598e-22)
(1.03172 0.014222 0)
(1.08537 0.0708945 -1.74523e-20)
(1.0132 0.0056083 0)
(1.01805 0.00478953 1.97874e-21)
(1.00709 -0.0320368 0)
(1.0143 0.00787111 3.53299e-22)
(0.695151 0.0623813 1.99433e-20)
(1.01599 0.000447499 2.90655e-23)
(0.751182 0.0811736 -2.13253e-20)
(0.995883 -0.0226078 2.48955e-22)
(1.00206 -0.024445 0)
(1.01368 0.005754 -2.65108e-23)
(0.961974 0.0116929 9.97369e-22)
(0.519114 0.0431437 2.74902e-22)
(1.06495 0.0387325 0)
(0.82114 0.047202 -1.06807e-21)
(1.02521 0.0698413 -2.97457e-21)
(0.993802 -0.0133869 3.28388e-22)
(1.09365 0.0998283 2.50604e-20)
(1.00444 0.000213797 -6.63185e-23)
(1.0272 0.0412201 -1.37696e-21)
(1.0601 0.0623587 -1.09473e-20)
(1.0223 0.0143339 -2.38688e-21)
(1.01401 0.00814021 0)
(0.862795 -0.211056 1.19251e-21)
(1.02573 0.0512721 1.42799e-22)
(1.00919 0.00222956 1.71125e-22)
(1.00546 5.74547e-05 0)
(1.0125 0.0922601 1.20754e-21)
(0.964056 -0.0112838 0)
(0.982377 0.0114479 0)
(1.00552 -9.44787e-05 7.17697e-23)
(1.03471 0.0523454 0)
(1.0472 0.0184379 0)
(0.987954 -0.06252 1.25832e-20)
(1.01524 0.010087 0)
(1.02731 0.00396396 -4.89231e-22)
(1.06487 0.122765 -4.99211e-21)
(1.01253 0.0030879 -6.458e-24)
(1.01174 -0.00148855 2.40374e-23)
(1.02282 0.0147955 0)
(1.00748 -0.0723383 -1.38649e-21)
(0.763371 0.0844666 0)
(1.03502 0.0573026 0)
(0.968704 -0.0359574 1.97915e-20)
(1.01405 -0.0022292 0)
(1.01434 0.00979406 1.50344e-24)
(0.780793 0.0846428 0)
(1.01537 0.00339546 0)
(1.04346 0.0456287 0)
(1.01372 0.00547071 0)
(1.01169 -0.00148867 7.32481e-22)
(1.01776 -0.00271496 0)
(0.966841 0.0995924 0)
(1.00566 -0.000160424 -1.73083e-23)
(1.01246 0.00547373 0)
(1.01424 -0.00230621 -1.17315e-22)
(1.05922 0.0616801 1.43307e-20)
(1.00494 -0.000120917 3.91175e-22)
(1.04785 0.0326354 -6.01415e-21)
(0.94766 0.0352761 -6.30185e-21)
(1.05202 0.0477604 0)
(1.05518 0.0610939 -4.56488e-21)
(0.647456 0.209117 0)
(1.06358 0.0720894 1.84735e-22)
(0.989321 -0.0661201 7.38916e-21)
(0.946912 0.113957 2.80879e-22)
(1.02193 0.00108917 5.56573e-21)
(0.750324 0.0840078 5.39515e-21)
(1.03143 0.0144159 -1.79117e-21)
(0.990409 0.0223497 0)
(1.0207 -0.00233167 8.22724e-24)
(1.01201 0.000881901 1.17941e-21)
(1.0223 0.00195413 -2.7649e-21)
(0.959797 -0.165838 0)
(1.0147 0.00827475 -1.19232e-23)
(1.01379 0.00564608 0)
(1.00647 3.89245e-06 2.88026e-22)
(0.962058 0.0503833 6.14194e-22)
(1.00725 0.000366128 -3.83976e-22)
(1.026 0.0177018 0)
(0.950719 0.0499166 0)
(1.04484 0.110864 1.46313e-21)
(1.08146 0.105824 5.83235e-21)
(0.514288 0.0389565 0)
(0.81918 0.166131 1.04664e-20)
(1.06458 0.0393571 0)
(1.09464 0.0678042 0)
(1.05679 0.0286524 -1.17582e-20)
(0.715517 0.0588921 0)
(1.02525 0.0102749 0)
(1.04945 0.0503112 -6.05781e-21)
(0.973838 0.0587007 0)
(1.00983 0.0402672 6.37797e-22)
(1.03513 0.0748034 1.03138e-21)
(1.00497 -0.00514188 -7.20609e-22)
(1.03915 0.0150009 4.75114e-21)
(0.632944 0.19911 0)
(1.07853 0.0412978 -1.18139e-20)
(1.0132 -0.00179638 -2.08366e-22)
(0.624845 0.213176 0)
(1.08093 0.0641758 2.43465e-20)
(0.97691 0.0616149 0)
(1.02764 0.0725444 4.77889e-22)
(1.05979 0.0698991 6.29416e-21)
(1.01311 -0.00176506 6.31752e-22)
(1.0168 0.0136301 0)
(1.07762 0.0413467 2.49243e-20)
(1.00479 -8.96959e-05 0)
(0.983462 0.00880018 1.025e-21)
(1.0192 0.0639947 6.07405e-21)
(1.01234 -0.00161994 -2.28281e-22)
(1.01731 0.0144793 0)
(1.00936 -9.90411e-05 3.09349e-22)
(1.03333 0.0934112 0)
(1.02773 -0.0132416 0)
(1.0393 0.0147219 -8.03307e-21)
(0.974111 0.268753 1.38887e-20)
(0.462696 0.0345425 3.09391e-21)
(1.04208 0.0260745 5.97629e-21)
(1.0569 0.0281815 8.17303e-21)
(1.02005 0.00707335 -9.38723e-22)
(0.865151 0.126732 0)
(0.796814 0.011501 1.57978e-22)
(0.877093 -0.106203 5.03323e-22)
(0.9657 0.0193011 -1.01637e-21)
(1.04448 0.0640977 -4.16369e-21)
(1.01324 -0.0309299 0)
(1.01555 0.00486517 -1.0592e-21)
(1.01334 0.0401982 0)
(1.01737 0.0143839 1.1831e-22)
(0.665231 0.0614358 0)
(0.703993 0.0742709 -1.11218e-20)
(1.00917 -7.56184e-05 6.03606e-22)
(1.00896 0.0040065 0)
(0.781199 -0.0309962 -8.89897e-21)
(1.0125 0.108275 -3.62828e-21)
(1.00058 -4.60765e-05 -3.9183e-22)
(0.484257 -0.247853 2.95467e-22)
(1.04224 0.0377657 -1.054e-21)
(0.697419 0.00142228 9.3393e-22)
(1.00257 -0.00530751 0)
(1.01668 0.0133722 -2.46748e-23)
(1.01664 -0.039832 1.5455e-21)
(0.597513 -0.0993715 5.17771e-21)
(1.08132 0.0633731 -1.76509e-20)
(1.01659 0.00622537 -5.02679e-22)
(1.05287 0.0448966 5.02841e-21)
(1.02569 0.0308111 0)
(1.04936 0.0461087 -4.47927e-21)
(1.01293 0.000602963 2.40376e-21)
(1.07432 0.0917629 0)
(1.01672 0.00615821 -1.1625e-21)
(1.022 0.00197807 2.60907e-21)
(1.05622 0.0207763 0)
(1.00217 0.000150266 2.43833e-22)
(0.808243 0.0637008 1.65155e-20)
(1.0753 0.0871665 -6.64043e-21)
(1.03987 0.0253342 0)
(0.586578 -0.213145 8.54705e-22)
(1.04198 0.0431947 -4.96789e-21)
(0.628498 0.0726547 0)
(1.01628 0.00581515 1.78671e-21)
(1.00536 0.000523026 -7.54192e-22)
(1.05731 0.0614939 0)
(1.04348 0.068577 2.39247e-21)
(0.771946 0.181268 0)
(1.00969 -0.0011458 1.34739e-21)
(1.01999 0.0533298 1.68899e-22)
(1.01078 0.000503126 -6.69703e-22)
(1.01065 -0.00112432 -5.4079e-22)
(1.01359 -0.00132665 -2.02941e-22)
(1.02485 0.0100768 0)
(1.0147 0.00908487 -2.26612e-22)
(0.992415 0.000116931 -2.2714e-23)
(1.07947 0.105379 -1.7395e-22)
(1.06261 0.186672 -5.66757e-21)
(1.00307 -3.01756e-05 1.80011e-22)
(1.03531 0.0561092 0)
(1.02301 0.0213121 1.56473e-21)
(1.04613 0.0264089 9.92545e-23)
(1.0626 0.147095 -6.02329e-21)
(1.01043 -0.00108294 5.23597e-22)
(1.01415 0.0101722 2.12851e-22)
(1.06356 -0.0151705 4.95297e-22)
(1.08829 0.162635 7.07073e-21)
(1.03754 0.0287474 -2.13848e-21)
(1.01042 0.00114723 0)
(1.00285 4.51556e-05 0)
(1.00203 -4.14295e-05 -2.37326e-22)
(1.01153 0.0247361 -1.50901e-22)
(1.0137 -0.00151873 0)
(1.02526 0.0767489 2.78936e-22)
(1.09547 0.216188 0)
(1.01705 0.0163891 0)
(1.04357 0.0566229 0)
(1.04569 0.0569071 1.21595e-21)
(0.664519 0.206993 -7.85256e-21)
(0.62888 0.0736648 0)
(1.04639 0.0424099 2.59827e-21)
(1.00696 0.000363225 2.6697e-23)
(0.995026 0.00746311 -5.45519e-22)
(1.00507 -5.3511e-05 0)
(1.03794 -0.0245282 1.36275e-22)
(1.01239 0.00650242 1.25377e-21)
(0.861081 0.0918807 -6.01801e-21)
(1.05222 0.0471166 5.06668e-21)
(0.554514 0.0493209 1.02113e-20)
(1.01347 -0.00184622 2.23558e-22)
(1.0131 0.000777029 0)
(1.03488 0.0912972 -3.20871e-22)
(1.00806 0.000396574 0)
(1.00642 2.00371e-05 0)
(1.01038 -0.00133407 -1.53044e-21)
(1.03573 0.0624968 -2.10647e-21)
(1.01392 0.0055187 2.6217e-24)
(0.973267 0.0518353 1.31818e-21)
(1.02224 0.00121545 0)
(0.958164 0.0151518 3.02572e-22)
(1.01635 -0.00258446 4.70809e-22)
(1.02545 0.0289489 -2.84713e-22)
(1.06221 0.0715148 1.26322e-22)
(1.04196 0.0380661 -1.26195e-21)
(1.01798 0.0162669 -1.50711e-21)
(1.11415 0.0991605 -2.07299e-21)
(1.0141 0.067294 2.06921e-22)
(1.07384 0.0342608 0)
(1.05277 0.0429402 3.34893e-21)
(1.01612 0.00541402 7.41539e-22)
(0.773499 0.0613283 0)
(0.605709 0.216436 0)
(1.01655 0.0658027 2.81881e-21)
(1.04042 0.0446892 -8.5179e-22)
(0.46449 0.0946847 9.5703e-22)
(1.00686 0.000353023 -1.39887e-22)
(1.01938 0.0185663 6.20817e-22)
(1.04523 0.0256425 0)
(1.07905 0.0946967 0)
(1.01268 0.0734027 1.28654e-22)
(1.03346 0.0267323 2.50554e-21)
(1.01632 0.0062908 0)
(1.06767 0.138411 3.30885e-21)
(0.887808 0.0870757 0)
(0.793164 -0.341152 -1.8331e-21)
(0.901248 0.11363 0)
(1.04989 0.0339815 1.2852e-20)
(1.05274 0.043793 -3.95895e-21)
(0.432088 -0.26054 6.76152e-22)
(1.03938 0.0109717 1.39916e-21)
(1.04422 0.025956 3.84132e-22)
(0.937436 -0.0389104 0)
(1.00276 0.00958242 -7.12637e-22)
(1.01151 -0.00156407 2.72151e-22)
(1.00509 0.0566688 -1.63833e-22)
(1.00451 -6.90145e-05 -1.7546e-22)
(1.06298 0.112276 -1.09602e-21)
(1.01154 -0.000533833 1.39017e-23)
(1.00973 0.0737709 -1.04147e-22)
(0.713497 0.0773877 -2.09649e-20)
(1.01272 0.000639569 0)
(1.0123 0.00561081 1.43857e-22)
(0.847901 0.0865581 5.95533e-21)
(0.569419 0.0491635 -8.16954e-21)
(1.07033 0.0359139 1.94076e-21)
(1.00541 0.00267047 -1.9529e-21)
(1.01131 -0.00152245 -5.10156e-22)
(1.03341 0.0262771 0)
(1.01872 0.0302983 0)
(1.04737 0.0490994 6.53024e-22)
(1.0462 0.0445645 -2.45612e-21)
(0.871209 0.116326 0)
(1.04031 0.0565784 -5.7093e-22)
(1.01234 0.00541925 1.48507e-21)
(1.02326 0.021042 -8.53812e-22)
(1.05077 0.050501 0)
(0.988492 -0.00874163 -2.47472e-22)
(1.00306 0.332387 6.51948e-21)
(1.01437 -0.00226413 0)
(1.08898 0.121611 1.25891e-20)
(0.641243 0.0795262 0)
(1.01415 0.0070061 3.30688e-22)
(1.02296 0.0163906 -2.79092e-21)
(1.00971 0.00158084 0)
(1.00127 -2.59546e-05 0)
(0.420411 0.0276775 0)
(1.0096 0.00158557 0)
(1.01756 0.016566 -1.38838e-21)
(1.0087 0.000416351 -4.99423e-22)
(0.8098 -0.336882 3.26697e-21)
(0.476978 0.0244456 0)
(1.01138 0.000767516 1.0472e-21)
(1.01417 0.00815076 2.10357e-22)
(1.03387 0.0315712 -1.89422e-22)
(0.979395 0.332757 8.66388e-21)
(1.01197 -0.000773046 4.1473e-24)
(1.03421 0.031283 -7.61972e-22)
(0.985926 0.00971063 0)
(1.01828 -0.00213686 5.92733e-23)
(1.00726 0.000440165 4.24504e-23)
(0.476313 0.133641 -5.45204e-21)
(1.02503 0.0282973 -1.0561e-21)
(1.00094 0.0659676 6.61327e-22)
(0.999847 -1.48974e-05 2.66785e-22)
(1.0343 0.00469034 6.75972e-21)
(1.05133 0.0317321 0)
(1.00903 0.00287034 0)
(0.525064 -0.227462 -1.44184e-21)
(1.02601 0.0337193 -1.98871e-21)
(0.693778 0.171874 0)
(0.998264 0.03363 -2.09726e-22)
(1.0717 0.0366909 0)
(0.997503 0.0288813 6.68278e-22)
(0.939437 0.278166 0)
(1.00936 0.00584453 -9.28924e-22)
(1.00942 0.00358421 0)
(1.00608 0.00179949 -5.96267e-23)
(1.0086 0.00114052 2.43167e-22)
(1.00949 0.000112851 1.00698e-22)
(1.07387 0.0582676 0)
(1.05099 0.0310349 -6.6563e-21)
(1.0448 0.0570689 0)
(1.01527 0.116712 1.25583e-20)
(0.90966 0.147041 3.42809e-22)
(1.01245 -0.00122224 -7.17965e-23)
(1.02789 0.0382856 0)
(1.0827 -0.0452125 -2.95902e-23)
(1.0565 0.0434657 -2.62442e-22)
(0.981568 0.00244039 -6.8469e-22)
(1.05458 0.0181284 -7.20326e-22)
(1.03602 0.030354 -1.55832e-21)
(0.877652 0.0930054 -1.04294e-23)
(1.04921 0.0125495 7.87021e-22)
(1.00925 -0.000815939 -1.38726e-22)
(1.0077 -7.87674e-05 3.14836e-24)
(1.00546 0.000125143 0)
(1.02019 0.00733316 -9.69732e-22)
(0.666384 -0.0760923 -2.28633e-21)
(1.00873 0.00116517 4.74566e-22)
(1.02611 0.0131983 3.72283e-21)
(0.794441 0.0690731 0)
(1.11404 0.0892714 1.41408e-20)
(0.725363 0.0694923 0)
(1.0146 0.00732781 -5.76263e-22)
(1.06654 0.0301214 0)
(1.03888 0.0110644 -3.3754e-22)
(1.01656 0.0129797 2.50425e-23)
(1.04295 0.0606542 1.98852e-21)
(1.01446 0.00783693 1.19328e-22)
(1.01539 0.106797 0)
(1.05005 0.0229462 5.16335e-21)
(0.991393 0.0253799 0)
(1.01556 -0.00262186 -3.91969e-22)
(1.01564 -0.00271105 0)
(1.00745 0.0698822 1.52081e-21)
(1.05047 0.0235026 0)
(1.11496 0.0910243 -2.9754e-20)
(1.01211 0.00622688 1.57861e-23)
(1.01132 -0.000514736 0)
(0.998087 0.271241 0)
(1.01009 0.0014445 3.02502e-22)
(1.01438 0.00350552 -8.26324e-22)
(0.515145 0.0389504 1.09943e-20)
(1.037 0.063302 -2.21159e-23)
(1.05135 0.0595067 9.33337e-21)
(1.02737 0.0232317 -8.46665e-22)
(1.00259 -5.84416e-05 2.28387e-22)
(1.00829 -0.00010933 0)
(1.01357 -0.000660095 -1.06879e-21)
(1.0309 0.0142483 1.47743e-21)
(1.13438 0.0132373 -7.26942e-21)
(1.07526 0.0668367 1.10887e-20)
(0.971909 0.102911 1.58259e-21)
(1.01331 -0.00119596 0)
(1.05184 0.0466532 -6.02794e-21)
(0.98104 0.0128657 -1.01259e-21)
(1.01418 0.00948766 4.68067e-23)
(1.01754 0.0256245 1.21716e-22)
(0.717642 0.0674002 0)
(1.03194 0.0372425 0)
(1.00794 0.000504866 -4.82826e-23)
(1.01792 0.02988 0)
(1.01452 -0.00238504 -5.39343e-22)
(1.00943 -0.000849836 6.95011e-22)
(1.06169 0.0924638 2.05334e-21)
(1.0479 0.0487383 -6.27551e-22)
(1.00539 -0.000106169 -3.52003e-22)
(1.0124 0.00577042 -8.68134e-24)
(1.0345 0.046416 -6.89021e-22)
(1.07891 0.0575949 0)
(1.05788 0.0273517 9.89265e-22)
(0.699827 0.176095 0)
(1.04175 0.011315 6.50355e-21)
(1.04592 0.0218984 0)
(1.11019 0.100139 0)
(1.02971 0.00331872 0)
(1.02326 0.0166424 2.51263e-21)
(1.01615 0.0106508 1.41985e-22)
(1.04638 0.0448684 -4.48069e-21)
(1.05809 0.0622594 -4.47899e-21)
(1.02143 0.0133812 -5.27386e-22)
(1.01039 0.068358 -1.41009e-21)
(1.01152 0.00471406 5.2556e-22)
(0.909539 0.19333 0)
(1.01671 0.0132395 0)
(1.01436 0.0033341 -8.13378e-22)
(1.11473 0.0975393 -2.09482e-21)
(1.01072 0.00214483 0)
(1.01385 0.0078473 1.03293e-22)
(1.00942 -5.78229e-05 0)
(1.00433 -2.19427e-05 0)
(1.01442 0.00720238 7.73523e-22)
(0.51638 0.043153 -2.25999e-20)
(1.03071 0.0144587 2.00184e-22)
(1.14262 0.0127176 5.88002e-21)
(1.01051 0.00138447 0)
(1.01095 -0.00241214 0)
(1.01415 -0.0022472 0)
(1.0164 -0.00321944 5.48432e-22)
(1.01627 -0.003119 -1.86204e-22)
(1.0179 0.00460183 -6.55143e-22)
(1.02527 0.0336117 -1.17346e-21)
(0.957348 0.279215 -2.06301e-21)
(1.03467 -0.0161739 6.03153e-22)
(1.05537 0.00392306 0)
(1.01013 0.00153972 0)
(0.950819 0.104792 -1.03971e-22)
(1.06634 0.038158 -7.35234e-21)
(1.0417 0.0452977 -4.33341e-21)
(1.03466 0.0108674 0)
(1.01032 0.00150343 0)
(1.00881 -0.000715102 -2.82003e-22)
(1.01587 0.018537 -1.06399e-23)
(1.01238 0.00572303 -2.11542e-22)
(1.01182 0.114306 -4.01111e-21)
(1.01523 -0.00200481 3.0056e-24)
(1.01377 -0.000429465 8.84731e-22)
(1.01631 0.018585 1.25248e-23)
(0.346585 0.0146625 -9.41794e-22)
(1.01386 -0.00189388 0)
(1.03361 0.0437099 -1.14092e-21)
(1.00776 1.99285e-05 5.68181e-22)
(1.01284 -0.00126395 4.63558e-23)
(0.971985 0.0185938 0)
(0.958054 0.108623 -1.95458e-23)
(0.827167 0.167151 0)
(1.00506 -0.000125453 5.22015e-23)
(1.00579 -0.000146869 -1.24806e-22)
(1.07787 0.0575716 0)
(1.00566 3.14962e-05 3.86363e-22)
(0.544474 -0.102634 0)
(0.907331 0.0114388 0)
(1.06798 0.0463084 -5.13175e-21)
(0.480143 0.118589 0)
(1.01289 -0.00126975 0)
(1.02602 0.0363518 1.67428e-22)
(1.03523 0.0109831 0)
(1.05965 0.0489802 0)
(1.06877 0.0465226 0)
(0.987748 -0.144947 0)
(1.01253 -0.00126149 0)
(1.07125 0.03588 0)
(0.447687 0.111301 0)
(1.01403 -0.00201249 -2.07495e-22)
(1.01182 0.00474935 -1.50932e-21)
(1.00308 9.50457e-05 6.34691e-23)
(0.943656 -0.00370662 2.53505e-22)
(0.975218 0.0158857 -7.07856e-22)
(1.06972 0.0447497 0)
(1.01866 0.0101914 5.83297e-23)
(1.01595 -0.00207897 -6.77024e-22)
(1.05312 -0.00945659 0)
(0.955649 0.0469348 2.20636e-21)
(1.09244 0.119789 1.29895e-20)
(1.0539 0.0369324 8.63772e-21)
(0.945458 0.037864 0)
(1.00924 0.00231216 -8.9749e-25)
(1.0138 0.00200411 0)
(1.01582 -0.00200019 -6.38398e-22)
(1.06319 -0.0454599 1.04286e-21)
(1.01085 -0.00142807 0)
(1.01658 -0.00222168 0)
(1.01366 0.00804004 -1.49098e-23)
(1.05009 0.0357219 6.81651e-21)
(1.05034 0.0497067 0)
(1.0078 3.10051e-05 -6.19785e-22)
(1.04811 0.0343815 0)
(1.01065 -0.00138842 -4.9496e-22)