/*--------------------------------*- C++ -*----------------------------------*\
| =========                 |                                                 |
| \\      /  F ield         | OpenFOAM: The Open Source CFD Toolbox           |
|  \\    /   O peration     | Version:  v2012                                 |
|   \\  /    A nd           | Website:  www.openfoam.com                      |
|    \\/     M anipulation  |                                                 |
\*---------------------------------------------------------------------------*/
FoamFile
{
    version     2.0;
    format      ascii;
    class       volVectorField;
    location    "100";
    object      U_0;
}
// * * * * * * * * * * * * * * * * * * * * * * * * * * * * * * * * * * * * * //

dimensions      [0 1 -1 0 0 0 0];


internalField   nonuniform List<vector> 
27802
(
(1.04493 0.0493984 5.76345e-22)
(1.0053 -3.51025e-05 0)
(1.01215 0.00588427 3.52044e-22)
(1.01286 0.000684785 -1.46365e-21)
(0.920679 0.137249 2.07448e-21)
(1.01418 0.00828929 0)
(1.01254 0.00402086 0)
(1.01537 0.010305 -8.66895e-23)
(1.04776 0.059769 1.09035e-21)
(1.03792 0.0108743 4.31038e-21)
(1.00701 0.000405089 2.55349e-22)
(0.694255 0.0738849 1.11675e-20)
(0.411468 0.026518 0)
(1.05087 0.0449613 5.67828e-21)
(1.01529 0.00319619 1.99114e-21)
(1.01281 0.00370117 0)
(1.01197 -0.00071573 -8.98958e-24)
(0.763483 0.0860485 1.99088e-20)
(0.766144 0.249872 -9.35911e-24)
(1.02763 0.0686746 -4.75503e-23)
(1.00554 -1.79665e-05 0)
(1.01201 0.000924003 -9.28665e-22)
(1.04402 0.049601 -5.48682e-21)
(1.09424 0.0655974 6.34729e-21)
(1.00667 3.76989e-05 4.2308e-22)
(1.02502 0.0129642 7.23031e-22)
(1.01415 0.0077494 -2.54372e-22)
(1.03734 0.010745 -8.63385e-21)
(1.0066 3.10202e-05 -4.22048e-22)
(0.983554 -0.0738291 -3.81721e-21)
(1.02433 0.00718543 0)
(1.01334 0.00697549 -6.35993e-22)
(1.05188 0.083812 3.02687e-20)
(0.966628 0.00488233 0)
(1.03059 0.0810171 -3.50082e-20)
(1.01713 0.00224421 0)
(1.07937 0.0127389 0)
(0.913306 -0.267682 4.81795e-21)
(1.0241 0.00730709 2.49929e-21)
(1.01479 0.00798856 4.26618e-22)
(1.03325 0.00375033 -4.64846e-21)
(1.01499 0.0081216 6.30304e-22)
(0.604709 0.244993 -1.80409e-20)
(1.05604 -0.0261514 -5.49165e-22)
(1.01349 -0.00128277 0)
(1.01478 0.00341983 2.50144e-21)
(1.04725 0.105598 0)
(1.02462 0.00967612 4.51556e-21)
(1.01204 -0.00137465 2.54624e-22)
(0.997575 0.0311889 1.05846e-21)
(1.03929 0.0272857 0)
(1.01361 -0.00128145 -1.37343e-22)
(0.943912 0.00978665 0)
(1.00589 -0.000169419 1.32384e-22)
(1.01216 0.00533644 1.31217e-23)
(1.0137 0.00768821 -5.29385e-23)
(0.361068 0.00947587 8.63849e-21)
(1.05045 0.0463506 1.71944e-21)
(1.0152 -0.00100692 9.85393e-23)
(0.30706 0.00925389 9.26333e-21)
(1.01706 0.00208849 0)
(1.01489 -0.0010666 -4.4979e-22)
(1.02036 0.0591509 1.33337e-22)
(1.01309 -0.00281806 1.05024e-25)
(0.781731 0.0917183 -1.85148e-20)
(1.07259 0.0676373 7.27393e-21)
(0.517868 0.0378881 0)
(1.01427 0.0106075 2.04861e-22)
(0.802124 0.16393 0)
(1.01664 0.00581766 -6.81933e-22)
(1.01048 0.00150173 0)
(1.09461 0.0751369 -1.1963e-20)
(0.956355 -0.0952662 -8.47579e-22)
(1.09202 0.0767084 0)
(0.954993 -0.00310202 4.56157e-22)
(1.04593 0.0258503 2.1567e-21)
(0.921881 -0.275662 0)
(0.502627 0.0324747 0)
(1.00065 0.0302229 0)
(1.0131 0.00373921 1.67469e-21)
(0.642755 0.167217 -1.67483e-20)
(1.043 0.0430196 -1.62325e-21)
(1.01209 -0.00129971 0)
(1.05061 0.0472171 -3.37283e-21)
(1.01252 0.000900168 0)
(1.03177 0.0221082 4.46624e-21)
(1.00643 9.00648e-06 2.71913e-22)
(1.01217 0.00533598 0)
(1.09441 0.0760849 0)
(0.998352 0.105648 5.03397e-21)
(0.888107 0.0952827 2.33946e-22)
(1.01498 -0.000796061 5.68943e-22)
(0.934909 0.0285996 2.15563e-21)
(1.01335 0.00353503 -1.67833e-21)
(1.00628 -0.000189343 8.89036e-23)
(1.0253 0.00922226 -4.25417e-21)
(1.06533 0.0229765 -8.54206e-21)
(0.905082 0.138824 -1.47503e-20)
(1.03333 0.00333722 0)
(1.04726 0.103059 0)
(1.03633 0.0459428 0)
(1.03337 0.00530514 8.18478e-21)
(1.03551 0.0207223 0)
(1.01489 0.000215324 0)
(0.999722 0.101202 0)
(1.01516 -0.00068457 -8.61744e-22)
(1.04997 0.00579564 0)
(1.04939 0.0600488 -1.34233e-21)
(1.01799 0.00400625 0)
(1.062 0.0402579 2.87454e-21)
(1.01111 0.00778421 1.50448e-21)
(1.01506 0.0030861 -2.87774e-21)
(1.03335 0.00570387 -6.14768e-21)
(0.92869 0.0325116 -7.15632e-22)
(1.00783 -0.000168474 2.76019e-22)
(1.08736 0.0595978 1.78108e-21)
(1.02569 0.0302801 -7.40476e-22)
(1.00809 0.000761889 7.56182e-23)
(1.05985 0.0191792 0)
(1.02953 0.0665572 0)
(0.472113 0.0350709 3.16221e-22)
(0.867103 0.0925986 -9.81988e-22)
(1.07511 0.0334194 -1.92926e-20)
(1.0064 1.86368e-05 -3.8347e-22)
(1.01942 0.00737376 1.68655e-21)
(1.01318 -0.00637055 3.5435e-22)
(0.990577 0.0216949 3.42273e-21)
(1.05677 -0.0164017 -2.05677e-22)
(0.497234 0.0399449 -1.22543e-20)
(0.463692 0.0339417 -1.3163e-21)
(1.03511 0.0209595 -3.96266e-21)
(1.07425 0.0333794 1.63102e-20)
(1.01551 0.000673423 -6.72117e-24)
(1.03552 0.0106202 0)
(1.01219 -0.00135991 2.62361e-22)
(1.01402 0.00984929 -2.70142e-22)
(1.01251 0.00681069 5.54873e-22)
(1.01266 -0.00131083 -3.82346e-22)
(0.982873 0.0157961 0)
(1.04502 0.0416766 0)
(1.01456 0.0106691 -1.73883e-22)
(1.01417 0.00789632 3.89235e-22)
(1.01393 -0.00699882 -1.19668e-23)
(1.00758 -0.000212172 0)
(1.0079 -0.00020084 0)
(1.02565 0.0181047 -1.70641e-21)
(1.01247 0.00658144 -9.76967e-22)
(1.0197 0.0149409 3.54759e-22)
(1.01368 -0.0013073 2.73053e-22)
(1.01512 0.000472227 0)
(1.00704 0.000406818 -2.59077e-22)
(1.02424 0.00954669 -1.66046e-21)
(1.04862 0.016612 2.26803e-21)
(1.01424 0.0107478 -2.93759e-22)
(1.02815 0.0641057 -1.05788e-21)
(1.01123 0.00365075 -3.48437e-22)
(0.964277 0.0259794 1.09079e-21)
(1.10617 0.0722221 0)
(1.06229 0.0397766 0)
(1.02777 0.0687845 -3.53017e-21)
(0.995866 0.0174115 -7.00782e-22)
(1.09337 0.0769975 0)
(1.03131 0.0218317 -3.19944e-21)
(1.05907 0.0191325 3.07436e-21)
(1.01181 -0.000656268 2.53968e-24)
(1.01011 -0.000996268 -4.00937e-22)
(1.00797 0.000701065 -2.03737e-23)
(1.01369 0.00782002 8.33395e-24)
(1.02377 0.00244104 -2.45999e-21)
(1.02874 0.0713239 9.08063e-22)
(1.01566 0.000257309 -5.0157e-22)
(1.02509 0.029734 2.69202e-22)
(1.01114 0.00255179 -1.81469e-22)
(1.13337 0.0704013 -1.13761e-22)
(1.02414 0.00779035 -7.06228e-22)
(0.836881 0.100984 4.95831e-21)
(1.01002 -0.00100516 2.70182e-22)
(1.05506 0.0299322 -4.13351e-21)
(1.01342 -0.00128375 0)
(1.08282 0.00503734 0)
(1.09486 0.0647533 7.7517e-21)
(1.02682 0.0431393 1.23566e-21)
(1.04321 0.037435 1.16807e-21)
(1.02558 0.0177953 -4.52345e-22)
(1.01114 0.00247674 0)
(1.05038 0.0510275 0)
(1.01118 0.0035719 0)
(1.00299 -9.09855e-05 0)
(1.00767 0.0350816 0)
(0.942974 0.0418893 3.21933e-21)
(1.00586 0.000112956 -2.47999e-22)
(1.01739 0.0167 7.39956e-24)
(1.04611 0.0514098 0)
(1.04041 0.0147742 -2.60133e-21)
(1.01102 -0.00137239 0)
(1.01474 0.00801805 -6.68752e-22)
(1.01106 -0.00136847 1.3153e-24)
(1.01311 -0.00127217 0)
(1.01621 0.00556858 -1.02216e-21)
(1.01401 0.00775392 -5.13747e-22)
(0.71778 0.0585774 4.46005e-21)
(0.769208 -0.0525102 -2.28166e-21)
(1.06355 -0.0254906 -4.10932e-22)
(1.03185 0.0286794 2.29506e-21)
(1.01797 0.00429499 1.30981e-21)
(1.07303 0.0341865 8.79434e-21)
(1.04811 0.0160618 -1.89728e-21)
(1.01184 0.124018 4.36284e-21)
(1.01703 -0.00228641 0)
(0.319013 0.0113495 -2.74288e-20)
(1.01717 0.001313 2.97079e-21)
(0.958625 -0.0275475 -2.36637e-21)
(0.868317 0.104134 4.15933e-21)
(1.05442 0.0298918 3.47254e-21)
(1.00373 0.0356385 2.15138e-22)
(1.01315 0.00547707 -3.8115e-22)
(1.06224 0.0125372 -2.07885e-22)
(1.0137 0.00353529 4.93043e-22)
(1.02556 0.00966588 1.55334e-21)
(1.01105 0.00222672 7.56855e-22)
(0.511793 0.0422367 1.06801e-20)
(1.01309 -0.00134361 0)
(1.05021 0.05038 -8.25175e-23)
(1.0472 0.0119307 -1.60861e-22)
(1.01114 0.00230789 -7.66886e-22)
(1.01251 -0.00132657 6.30623e-22)
(1.01224 -0.0012871 -1.31331e-22)
(1.01731 0.0164314 -6.75358e-24)
(1.01487 0.00357115 0)
(1.03388 0.00479945 -5.2227e-21)
(1.01278 -0.00123681 -4.38767e-23)
(0.293414 0.00736834 -1.29221e-20)
(1.02556 0.00908374 3.73811e-23)
(1.05326 0.0367665 -9.58005e-21)
(0.769661 0.227847 0)
(1.04419 0.0409368 1.25788e-21)
(1.00796 0.000533417 0)
(1.01531 0.121433 -9.27003e-21)
(1.04081 0.0843303 -8.0691e-21)
(1.02069 -0.00207546 0)
(1.01215 0.00496346 -6.74517e-22)
(1.13638 0.202711 1.44068e-21)
(1.13786 0.195428 0)
(1.01579 0.000794962 5.27941e-22)
(1.00969 0.000442959 -6.52669e-22)
(1.06321 0.0862439 0)
(1.01295 -0.00127311 0)
(1.05485 0.0157365 2.06019e-22)
(1.0137 0.00370225 9.44935e-23)
(1.01226 0.00573697 -1.01577e-21)
(1.0773 -0.0396551 0)
(1.04706 0.0384563 3.43347e-21)
(1.04496 0.0474858 4.11332e-21)
(1.01221 0.0049397 0)
(1.01111 0.00037646 1.39386e-21)
(1.01146 -0.00144451 -2.69775e-22)
(1.01224 0.000941208 2.12004e-22)
(1.03701 0.056592 8.32402e-22)
(1.03132 0.0287287 -1.8587e-21)
(1.01125 -0.00141925 -8.3841e-22)
(1.04657 0.0386224 -3.35665e-21)
(1.03111 0.00549468 0)
(0.555512 0.0512135 2.79712e-20)
(1.0169 -0.0022859 4.67563e-24)
(0.717378 0.0653698 -9.65767e-21)
(1.05606 0.0292727 1.51789e-20)
(0.692331 0.0554225 0)
(1.0339 0.00520995 1.48883e-21)
(1.0132 -0.00137927 0)
(1.02437 0.00769729 8.29721e-22)
(1.10724 0.0719703 3.14261e-21)
(1.01237 0.00306094 0)
(1.04613 0.0416703 0)
(1.01661 0.0729063 -1.32907e-21)
(1.03987 0.0145775 7.7216e-21)
(1.09171 0.0983227 -2.23428e-20)
(1.01974 0.0141648 0)
(1.06026 0.0404979 1.15442e-20)
(1.05533 0.0291857 -1.09149e-20)
(1.01211 0.000941755 0)
(0.96805 -0.0176847 0)
(1.0549 0.0365315 -4.26715e-21)
(1.01635 0.0132921 0)
(1.03392 -0.0210966 0)
(0.981913 0.058409 -3.0347e-22)
(0.870416 -0.154673 4.63523e-21)
(1.02832 0.0594405 -1.03181e-21)
(1.0253 0.011615 -5.15074e-23)
(1.03807 0.0288373 4.26406e-21)
(1.00644 -5.24359e-05 5.95456e-23)
(1.01427 -0.00170972 0)
(0.973157 0.00599096 2.25779e-21)
(1.01201 -0.00155003 4.35521e-22)
(0.89815 -0.202004 7.62962e-22)
(1.01206 -0.00156471 0)
(0.987754 0.00918117 -9.99451e-22)
(1.08766 0.0550113 -4.09755e-21)
(1.01266 0.000871819 1.86011e-22)
(0.334714 0.014315 0)
(0.996443 0.054039 -2.3199e-22)
(1.07398 0.0678915 0)
(1.02597 0.0173294 0)
(1.0089 0.000533856 -3.83073e-22)
(1.0281 0.0669507 4.70571e-21)
(0.757675 0.219863 7.51114e-22)
(0.980019 0.0181353 1.40302e-21)
(1.03059 0.00540284 1.12366e-21)
(0.738333 0.0705872 -2.24186e-21)
(1.01214 0.0134719 0)
(1.01961 0.0143592 0)
(1.03007 0.0372203 0)
(1.04936 0.0496584 1.09519e-20)
(1.06221 0.0614322 -3.67336e-22)
(1.03608 0.0107542 0)
(1.00223 0.000905863 1.35245e-21)
(1.01703 0.00129973 -1.19651e-21)
(1.03066 0.0378365 -6.8354e-22)
(1.04512 0.0487171 0)
(1.06362 0.0392683 -1.4778e-21)
(1.05133 0.0441966 2.22763e-21)
(1.01555 0.000686874 4.99663e-22)
(1.01814 0.00419399 -1.51411e-21)
(1.01125 -0.000476766 -1.81554e-23)
(1.014 -0.00204998 -5.10341e-22)
(1.0697 -0.00280354 0)
(1.01479 0.000296619 0)
(0.563273 0.0528484 -2.71976e-20)
(1.01465 0.000322026 -2.1101e-22)
(1.01809 0.00448587 1.48769e-21)
(1.05083 0.0357708 3.64886e-21)
(1.01251 0.00536631 5.45745e-22)
(0.941846 0.147896 -8.87962e-21)
(0.97624 -0.0357209 0)
(1.06046 0.1307 6.43856e-21)
(1.05091 0.0124688 -2.4622e-22)
(1.13811 0.0556843 0)
(1.06156 0.0619877 2.84784e-21)
(1.01056 0.00225825 0)
(1.08735 0.0532622 -2.10344e-20)
(1.01206 0.00279015 0)
(1.01166 -0.000661235 -6.98621e-23)
(0.768598 0.0867443 1.26732e-20)
(0.388424 -0.275253 0)
(0.996923 0.0350465 -1.1709e-21)
(1.07367 0.0862031 0)
(0.869279 0.071428 0)
(1.0421 0.105117 -1.01628e-20)
(0.968566 0.0459145 -6.34496e-22)
(1.01401 0.00368287 -9.8113e-23)
(0.978674 0.0979536 -1.23215e-21)
(1.01354 -0.00188019 4.11942e-22)
(0.858095 0.123745 8.46119e-21)
(1.01957 0.00759351 0)
(1.02251 0.0147156 4.16414e-21)
(1.01326 0.00791043 -2.30132e-22)
(1.01239 0.00625821 6.31662e-22)
(1.01664 0.0363347 -1.76856e-22)
(0.983455 0.101082 0)
(1.00534 3.02036e-05 -3.8506e-22)
(1.01402 -0.00189253 2.77401e-22)
(1.01487 -0.0261012 1.61322e-21)
(0.831752 -0.022508 4.23092e-22)
(1.01417 -0.00183439 0)
(1.04236 0.0436806 6.4805e-21)
(1.01077 -0.00131861 0)
(1.00809 0.000528127 0)
(0.976076 0.0406908 6.51484e-23)
(1.02516 0.0112793 0)
(1.05429 0.036333 0)
(1.01204 0.00519421 -4.97927e-23)
(1.01045 0.00215161 -1.47459e-22)
(1.03925 0.106096 8.89296e-21)
(1.02091 0.0484692 1.64626e-22)
(1.08718 0.0725187 -1.47812e-20)
(0.94582 -0.260503 -7.93803e-21)
(0.70252 0.0575118 -1.12817e-21)
(1.01945 0.0491434 0)
(1.01124 0.00734125 -1.42979e-21)
(1.0224 0.034819 -4.64654e-22)
(1.01512 0.00265327 -9.47572e-22)
(1.00258 -6.83332e-05 0)
(1.01075 -0.00132554 0)
(1.01325 0.00775468 -2.23789e-22)
(1.01486 -0.00260053 5.50151e-22)
(1.00625 -0.000128906 1.75454e-23)
(1.00977 0.000725014 2.7605e-22)
(1.04754 0.112025 7.12181e-21)
(1.01516 0.00647941 0)
(1.01848 -0.023025 -7.0965e-22)
(1.01096 0.0236111 -4.50074e-22)
(1.01191 -0.000399611 1.05904e-21)
(1.01225 0.00547426 -1.32919e-22)
(1.013 0.0134924 0)
(1.06323 0.03984 0)
(1.0155 0.00531053 0)
(0.929757 0.153108 9.10827e-21)
(0.854754 0.0593088 -2.02068e-21)
(1.08759 0.0523401 1.58755e-20)
(1.00484 -6.82108e-05 1.40311e-22)
(1.04631 0.0522766 -2.47184e-21)
(0.758925 0.0857087 -1.87404e-20)
(1.06103 0.0407539 -1.1115e-20)
(1.01182 -0.000414735 -6.14629e-22)
(1.01137 0.0659497 -1.89423e-23)
(1.02412 0.00242345 4.06625e-21)
(0.952247 0.0475593 0)
(1.02646 0.0423176 -1.33836e-21)
(1.01424 0.0953311 -2.69411e-21)
(0.879534 -0.171349 -2.52229e-21)
(1.03458 0.0438591 0)
(0.336128 0.0129512 -4.66171e-22)
(1.00713 0.000351298 -2.10386e-22)
(0.456158 0.0334654 0)
(0.506402 0.0423229 1.23594e-20)
(0.876955 -0.0416991 0)
(1.02531 0.00976655 1.66098e-21)
(1.01413 -0.00202091 2.64652e-22)
(1.05113 0.0363892 0)
(1.00765 -0.00024164 2.7618e-22)
(0.945354 0.0371916 -8.57993e-22)
(0.617929 0.226645 1.5191e-20)
(1.01397 0.00384065 0)
(1.0155 0.00719328 -8.84311e-22)
(1.02535 0.0129074 -8.61837e-22)
(1.06337 0.00134473 -9.4919e-23)
(1.01452 0.0107923 -2.9009e-22)
(1.01293 -0.00200455 1.16875e-21)
(0.54582 0.0481262 -6.0161e-21)
(1.0467 -0.0214134 5.71138e-22)
(1.03893 0.0267927 -5.88695e-21)
(1.01191 0.00264531 0)
(1.028 0.041293 0)
(0.865035 -0.0512244 0)
(1.01362 0.00559745 0)
(1.00177 -1.15858e-05 1.98725e-22)
(1.01612 0.00605335 0)
(1.06092 0.0690942 -7.5613e-21)
(0.95014 0.0163157 4.6888e-22)
(0.954662 0.00614663 -4.82799e-22)
(1.04293 0.0378513 0)
(1.0525 0.0481851 -1.31998e-21)
(1.01283 0.00732392 -5.07265e-22)
(1.00586 -0.000144012 7.80691e-25)
(1.00783 0.000571463 6.43572e-23)
(1.04386 0.0503864 0)
(1.01649 0.00103894 1.3109e-21)
(1.00759 2.4027e-05 0)
(1.01346 -0.00177668 -1.22237e-21)
(1.06435 0.0614173 2.2288e-21)
(1.03473 0.0531466 0)
(0.824922 -0.334457 4.17875e-21)
(1.00176 0.14656 1.24875e-20)
(1.0505 0.0234572 0)
(0.645569 0.153683 -1.36928e-22)
(1.01241 -0.00164382 -7.67001e-25)
(1.05317 0.0433012 2.29707e-21)
(1.05303 0.0359856 1.7445e-20)
(1.0654 0.00483095 8.47961e-23)
(0.951784 -0.256867 9.96236e-21)
(1.01192 0.00509714 5.54514e-23)
(1.03819 -0.00699191 1.60957e-21)
(1.03171 -0.0149847 -5.08435e-22)
(1.00774 0.0560928 1.34944e-23)
(0.988682 0.0491321 0)
(1.01179 -0.000607103 4.8292e-24)
(1.04735 0.0180846 1.96131e-21)
(1.0515 -0.0239619 6.14398e-23)
(1.01635 0.00103763 0)
(1.05662 0.0019923 1.75366e-22)
(1.00755 1.56981e-05 0)
(1.03336 0.0338075 0)
(1.00759 0.00050606 -5.9204e-23)
(1.01364 0.00814999 0)
(1.02036 0.0728596 4.96557e-21)
(1.05356 0.0276127 0)
(0.821876 -0.00370444 3.1268e-22)
(1.01595 0.000680461 -3.88266e-22)
(0.409814 0.0121249 2.90243e-20)
(1.01155 -0.000607664 -1.80838e-23)
(1.03251 0.0279806 -2.13147e-21)
(1.08399 0.0707353 1.19417e-20)
(1.03192 0.0279499 -3.91047e-21)
(1.01701 0.0160878 0)
(1.04465 0.04804 0)
(1.06343 0.0619621 4.22983e-22)
(0.975576 0.0277682 8.03072e-22)
(1.01635 0.0133721 4.53721e-22)
(1.03172 0.0142198 0)
(1.08529 0.0708783 -1.7401e-20)
(1.0132 0.00560765 0)
(1.01805 0.00478895 1.95262e-21)
(1.00729 -0.0322009 0)
(1.0143 0.00787052 3.30658e-22)
(0.695219 0.0625291 1.98896e-20)
(1.01598 0.000453446 2.96119e-23)
(0.75129 0.0812482 -2.12576e-20)
(0.99602 -0.0228541 2.47685e-22)
(1.00221 -0.024641 0)
(1.01368 0.00575348 -2.64749e-23)
(0.96191 0.011351 1.01628e-21)
(0.519123 0.0432354 2.74946e-22)
(1.06496 0.0387156 0)
(0.820712 0.045996 -1.13077e-21)
(1.02533 0.0695574 -2.95348e-21)
(0.993873 -0.0136361 3.27634e-22)
(1.09341 0.0998109 2.49757e-20)
(1.00444 0.000213777 -2.55812e-23)
(1.02716 0.0412306 -1.35559e-21)
(1.0601 0.0622751 -1.09062e-20)
(1.02231 0.0143328 -2.3494e-21)
(1.01401 0.00813948 0)
(0.863958 -0.211555 1.19415e-21)
(1.02566 0.0512983 1.39777e-22)
(1.00919 0.00222984 1.30799e-22)
(1.00546 5.74024e-05 0)
(1.01252 0.0918306 1.19762e-21)
(0.964159 -0.0117869 0)
(0.982478 0.0112457 0)
(1.00552 -9.44838e-05 7.2515e-23)
(1.03465 0.0524136 0)
(1.04721 0.0184363 0)
(0.988075 -0.0602974 1.25872e-20)
(1.01524 0.0100876 0)
(1.02731 0.00406631 -5.00559e-22)
(1.06437 0.123136 -4.93023e-21)
(1.01253 0.00308759 -6.47858e-24)
(1.01174 -0.00148848 2.42939e-23)
(1.02283 0.014794 0)
(1.00866 -0.0721139 -1.34538e-21)
(0.763479 0.0845292 0)
(1.03494 0.0573899 0)
(0.969651 -0.0320336 1.98008e-20)
(1.01405 -0.00223029 0)
(1.01434 0.00979385 1.56471e-24)
(0.780913 0.0847168 0)
(1.01537 0.00339564 0)
(1.04349 0.0456849 0)
(1.01372 0.0054703 0)
(1.01169 -0.00148845 7.40286e-22)
(1.01776 -0.00275625 0)
(0.966931 0.0988726 0)
(1.00567 -0.000160443 -1.7523e-23)
(1.01246 0.00547308 0)
(1.01425 -0.00230676 -1.18329e-22)
(1.05922 0.0615977 1.42766e-20)
(1.00494 -0.000120888 3.9702e-22)
(1.04787 0.0326376 -5.98619e-21)
(0.948289 0.0344773 -6.35364e-21)
(1.05208 0.0477347 0)
(1.05521 0.0610025 -4.54645e-21)
(0.646793 0.208682 0)
(1.06354 0.0719871 1.84237e-22)
(0.990397 -0.0660985 7.25161e-21)
(0.946765 0.113102 2.60298e-22)
(1.02193 0.00108887 5.51576e-21)
(0.750426 0.0840646 5.37795e-21)
(1.03143 0.0144136 -1.77757e-21)
(0.990443 0.0221963 0)
(1.02069 -0.00234254 8.32742e-24)
(1.01202 0.000882 1.15453e-21)
(1.0223 0.00195384 -2.74004e-21)
(0.961206 -0.165735 0)
(1.0147 0.00827437 -1.20066e-23)
(1.01379 0.00564565 0)
(1.00647 4.20231e-06 2.97337e-22)
(0.961727 0.049981 6.17601e-22)
(1.00725 0.000366091 -3.72745e-22)
(1.026 0.0176987 0)
(0.950565 0.0495494 0)
(1.04467 0.110557 1.45551e-21)
(1.08121 0.10572 5.81073e-21)
(0.514196 0.0390739 0)
(0.818809 0.165814 1.04031e-20)
(1.06459 0.0393395 0)
(1.09457 0.0678281 0)
(1.0568 0.0286469 -1.17161e-20)
(0.715565 0.0590577 0)
(1.02525 0.0102726 0)
(1.04953 0.0502697 -6.03168e-21)
(0.973472 0.0583588 0)
(1.01022 0.0399766 6.244e-22)
(1.03523 0.0750236 1.02919e-21)
(1.00505 -0.00520062 -7.35693e-22)
(1.03915 0.0149998 4.7254e-21)
(0.632543 0.199386 0)
(1.07853 0.0412818 -1.17828e-20)
(1.0132 -0.00179689 -2.10195e-22)
(0.624375 0.213425 0)
(1.08088 0.0641479 2.42754e-20)
(0.977227 0.0610231 0)
(1.02713 0.0725492 5.04688e-22)
(1.05977 0.0697889 6.26987e-21)
(1.01312 -0.00176534 6.37415e-22)
(1.01681 0.0136365 0)
(1.07762 0.0413301 2.48583e-20)
(1.00479 -8.97358e-05 0)
(0.983439 0.00859876 1.04506e-21)
(1.01938 0.0636926 6.0252e-21)
(1.01234 -0.00162011 -2.30482e-22)
(1.01732 0.0144852 0)
(1.00936 -9.83887e-05 3.18106e-22)
(1.03329 0.0930923 0)
(1.02782 -0.0131734 0)
(1.0393 0.0147208 -7.98956e-21)
(0.973602 0.269871 1.37756e-20)
(0.462594 0.034645 3.08667e-21)
(1.04208 0.0260755 5.94408e-21)
(1.05691 0.0281761 8.1437e-21)
(1.02006 0.00707246 -9.26263e-22)
(0.865111 0.126597 0)
(0.796775 0.00962699 1.91098e-22)
(0.877743 -0.107231 5.24425e-22)
(0.96559 0.0189915 -1.03564e-21)
(1.04439 0.064267 -4.11815e-21)
(1.01343 -0.0310457 0)
(1.01556 0.00486557 -1.03993e-21)
(1.01372 0.0399329 0)
(1.01738 0.0143893 9.79788e-23)
(0.665284 0.0615749 0)
(0.704085 0.0743499 -1.1087e-20)
(1.00917 -7.50251e-05 6.20947e-22)
(1.00909 0.00398962 0)
(0.78093 -0.0322555 -8.97418e-21)
(1.01243 0.107798 -3.59712e-21)
(1.00058 -4.60742e-05 -4.00683e-22)
(0.485995 -0.24815 3.51042e-22)
(1.04225 0.0377822 -1.04775e-21)
(0.697724 0.000181752 9.34862e-22)
(1.00265 -0.00538413 0)
(1.01669 0.0133783 -4.16749e-23)
(1.01773 -0.0399305 1.51956e-21)
(0.598573 -0.100701 5.15361e-21)
(1.08128 0.0633472 -1.75992e-20)
(1.01659 0.00622595 -4.93502e-22)
(1.05291 0.0448821 5.00797e-21)
(1.02568 0.0308058 0)
(1.04943 0.0461048 -4.46009e-21)
(1.01293 0.000602926 2.36888e-21)
(1.07441 0.0919429 0)
(1.01672 0.00615871 -1.14241e-21)
(1.022 0.00197778 2.58561e-21)
(1.05622 0.0207717 0)
(1.00216 3.41399e-05 2.45982e-22)
(0.808338 0.0638782 1.64806e-20)
(1.07517 0.0870779 -6.61673e-21)
(1.03987 0.025335 0)
(0.588607 -0.213376 7.47612e-22)
(1.04199 0.0432338 -4.93658e-21)
(0.628582 0.0726636 0)
(1.01628 0.00581563 1.7544e-21)
(1.00534 0.000432002 -7.61266e-22)
(1.05733 0.061407 0)
(1.04353 0.0684036 2.38088e-21)
(0.771351 0.180716 0)
(1.00971 -0.00118095 1.37352e-21)
(1.01967 0.0533612 1.77595e-22)
(1.01078 0.00050316 -6.56561e-22)
(1.01065 -0.00112519 -5.48347e-22)
(1.01358 -0.00134407 -2.05391e-22)
(1.02485 0.0100746 0)
(1.0147 0.00908465 -2.03773e-22)
(0.992455 -2.91919e-05 -2.27689e-23)
(1.07922 0.105267 -1.73291e-22)
(1.06172 0.186996 -5.59403e-21)
(1.00307 -3.01773e-05 1.82057e-22)
(1.03524 0.0561924 0)
(1.02301 0.0213061 1.53673e-21)
(1.04614 0.0264091 9.922e-23)
(1.06195 0.147448 -5.94405e-21)
(1.01043 -0.00108376 5.31027e-22)
(1.01415 0.0101719 2.34229e-22)
(1.06375 -0.0147403 5.20054e-22)
(1.08752 0.163134 7.00869e-21)
(1.03754 0.0287504 -2.12416e-21)
(1.01043 0.00114723 0)
(1.00285 4.52017e-05 0)
(1.00204 -4.14355e-05 -2.43484e-22)
(1.01154 0.024695 -1.64648e-22)
(1.01371 -0.00153414 0)
(1.02484 0.0769058 2.72445e-22)
(1.09433 0.216644 0)
(1.01707 0.0163906 0)
(1.04368 0.0565124 0)
(1.04566 0.0570587 1.20575e-21)
(0.663855 0.206532 -7.76791e-21)
(0.628964 0.0736784 0)
(1.04658 0.0424633 2.58852e-21)
(1.00696 0.000363209 3.67394e-23)
(0.994966 0.00729693 -5.50261e-22)
(1.00507 -5.3491e-05 0)
(1.03811 -0.0243935 1.35103e-22)
(1.0124 0.0064998 1.31149e-21)
(0.860566 0.0910977 -6.11069e-21)
(1.05227 0.047094 5.04609e-21)
(0.554522 0.0494284 1.01818e-20)
(1.01347 -0.0018468 2.2552e-22)
(1.0131 0.00078122 0)
(1.03485 0.0909933 -3.20396e-22)
(1.00806 0.000396543 0)
(1.00642 2.02951e-05 0)
(1.0104 -0.00136372 -1.56011e-21)
(1.03584 0.0623094 -2.09446e-21)
(1.01392 0.00551839 2.57553e-24)
(0.973124 0.0515961 1.34094e-21)
(1.02224 0.00121515 0)
(0.95821 0.0147318 3.03594e-22)
(1.01635 -0.00257977 4.74131e-22)
(1.02544 0.0289428 -2.80331e-22)
(1.06218 0.0714094 1.26357e-22)
(1.04197 0.0380838 -1.2543e-21)
(1.01795 0.0163041 -1.54898e-21)
(1.1139 0.0992552 -2.06674e-21)
(1.01392 0.0672914 1.8203e-22)
(1.07384 0.0342466 0)
(1.05295 0.0431014 3.3392e-21)
(1.01611 0.00543287 7.5989e-22)
(0.773579 0.0615003 0)
(0.605 0.215858 0)
(1.01673 0.0654763 2.79215e-21)
(1.04042 0.0447375 -8.4558e-22)
(0.46427 0.0930293 9.65329e-22)
(1.00686 0.000353175 -1.55754e-22)
(1.01938 0.018562 5.97847e-22)
(1.04523 0.0256427 0)
(1.07912 0.0948626 0)
(1.01246 0.0734019 1.02653e-22)
(1.03346 0.0267326 2.48482e-21)
(1.0163 0.00630969 0)
(1.06707 0.1388 3.26856e-21)
(0.887983 0.0872162 0)
(0.79359 -0.341506 -1.80111e-21)
(0.901337 0.113568 0)
(1.04991 0.033982 1.27961e-20)
(1.0529 0.0439516 -3.94641e-21)
(0.433547 -0.261045 6.31869e-22)
(1.03938 0.0109705 1.3919e-21)
(1.04398 0.0261147 3.98185e-22)
(0.938285 -0.0348571 0)
(1.00268 0.00947639 -7.20093e-22)
(1.01152 -0.00156359 2.75258e-22)
(1.00495 0.0566066 -1.75924e-22)
(1.00451 -6.89903e-05 -1.77989e-22)
(1.06275 0.112052 -1.09122e-21)
(1.01154 -0.000534042 1.40585e-23)
(1.0095 0.0737545 -1.2975e-22)
(0.713591 0.0774584 -2.08986e-20)
(1.01273 0.000639555 0)
(1.01231 0.00561177 1.54296e-22)
(0.847376 0.0857087 6.0435e-21)
(0.569413 0.0492825 -8.14744e-21)
(1.07034 0.0358988 1.93516e-21)
(1.00544 0.00261426 -1.99777e-21)
(1.01131 -0.001522 -5.16041e-22)
(1.0334 0.026277 0)
(1.01871 0.0302773 0)
(1.04747 0.0490695 6.50094e-22)
(1.04625 0.0446012 -2.44323e-21)
(0.871066 0.115454 0)
(1.04026 0.0566927 -5.64955e-22)
(1.01234 0.00541716 1.53994e-21)
(1.02326 0.0210364 -8.37712e-22)
(1.05083 0.0506638 0)
(0.988532 -0.00903253 -2.45976e-22)
(1.00235 0.333108 6.41849e-21)
(1.01437 -0.00226712 0)
(1.08872 0.121493 1.25426e-20)
(0.641314 0.0795365 0)
(1.01412 0.00700705 3.38351e-22)
(1.02296 0.0163885 -2.7471e-21)
(1.00971 0.00158114 0)
(1.00127 -2.59535e-05 0)
(0.420276 0.027766 0)
(1.0096 0.0015859 0)
(1.01753 0.0165999 -1.42764e-21)
(1.0087 0.000416329 -4.88019e-22)
(0.810054 -0.33678 3.23959e-21)
(0.477135 0.024461 0)
(1.01138 0.000767553 1.02398e-21)
(1.01417 0.00815007 1.88665e-22)
(1.03387 0.0315762 -1.87804e-22)
(0.979007 0.333807 8.55093e-21)
(1.01197 -0.000773331 4.19741e-24)
(1.0342 0.0312877 -7.55833e-22)
(0.986038 0.00953115 0)
(1.01828 -0.00217008 6.00227e-23)
(1.00726 0.000440136 5.38794e-23)
(0.475956 0.132142 -5.54886e-21)
(1.02502 0.0282905 -1.03904e-21)
(1.00053 0.0657937 6.69579e-22)
(0.999848 -1.48822e-05 2.85192e-22)
(1.0343 0.00468932 6.72031e-21)
(1.05134 0.0317305 0)
(1.00905 0.00284309 0)
(0.526882 -0.227889 -1.39046e-21)
(1.02599 0.0337165 -1.9589e-21)
(0.693442 0.171835 0)
(0.998736 0.0332684 -2.20097e-22)
(1.07171 0.0366753 0)
(0.998015 0.0285237 6.74623e-22)
(0.938825 0.27771 0)
(1.00948 0.00582818 -9.43621e-22)
(1.00944 0.00356024 0)
(1.00611 0.00174956 -5.96156e-23)
(1.0086 0.00114146 2.55198e-22)
(1.0095 7.64015e-05 1.02644e-22)
(1.07385 0.0582286 0)
(1.051 0.0310336 -6.6287e-21)
(1.0449 0.0569609 0)
(1.01516 0.116229 1.24594e-20)
(0.909308 0.146743 3.34348e-22)
(1.01246 -0.00122116 -7.27908e-23)
(1.02876 0.0405655 0)
(1.0838 -0.0446068 2.06714e-23)
(1.05621 0.0438443 -2.57745e-22)
(0.981521 0.00218342 -6.89726e-22)
(1.05506 0.0183432 -7.34448e-22)
(1.03602 0.0303585 -1.54705e-21)
(0.877531 0.0920621 -1.31813e-23)
(1.04908 0.0127697 8.13435e-22)
(1.00925 -0.000816273 -1.40923e-22)
(1.0077 -7.87923e-05 3.2067e-24)
(1.00546 0.000125135 0)
(1.02019 0.00733228 -9.57124e-22)
(0.666843 -0.079156 -2.23215e-21)
(1.00873 0.00116615 4.97699e-22)
(1.02611 0.0131958 3.68505e-21)
(0.794557 0.0692408 0)
(1.11381 0.0894052 1.41012e-20)
(0.725457 0.0696302 0)
(1.0146 0.0073275 -5.55224e-22)
(1.06655 0.0301104 0)
(1.03889 0.0110633 -3.35734e-22)
(1.01656 0.0129847 1.66636e-23)
(1.04288 0.0608005 1.96654e-21)
(1.01446 0.00783646 1.12426e-22)
(1.01532 0.106337 0)
(1.05006 0.0229442 5.14173e-21)
(0.99141 0.025232 0)
(1.01556 -0.00262501 -3.94436e-22)
(1.01564 -0.00271406 0)
(1.00763 0.0694821 1.50398e-21)
(1.05047 0.0235005 0)
(1.11471 0.0911545 -2.96701e-20)
(1.01212 0.0062222 1.58138e-23)
(1.01132 -0.000514932 0)
(0.996646 0.271064 0)
(1.0101 0.00144463 2.89572e-22)
(1.01439 0.00350576 -8.10845e-22)
(0.51506 0.0390683 1.09692e-20)
(1.03711 0.0631182 -2.27876e-23)
(1.05139 0.0594101 9.29364e-21)
(1.02721 0.0233159 -8.65294e-22)
(1.00259 -5.84552e-05 2.34246e-22)
(1.00829 -0.000109364 0)
(1.01357 -0.000677868 -1.08353e-21)
(1.03091 0.0142459 1.46621e-21)
(1.13481 0.0142801 -7.35808e-21)
(1.07521 0.0667866 1.10535e-20)
(0.971966 0.102219 1.54725e-21)
(1.01333 -0.00119898 0)
(1.05189 0.046634 -6.00282e-21)
(0.980988 0.012651 -1.03283e-21)
(1.01418 0.00948717 6.02136e-23)
(1.01754 0.0256036 1.21754e-22)
(0.717731 0.0675423 0)
(1.03193 0.0372546 0)
(1.00794 0.000504929 -4.56571e-23)
(1.01791 0.0298568 0)
(1.01452 -0.00238758 -5.43956e-22)
(1.00943 -0.000850211 7.05972e-22)
(1.0618 0.0926384 2.04783e-21)
(1.048 0.0487135 -6.24752e-22)
(1.00539 -0.0001062 -3.5665e-22)
(1.01241 0.00577109 -8.90691e-24)
(1.03447 0.0464602 -6.8152e-22)
(1.07889 0.0575685 0)
(1.05789 0.0273458 9.85836e-22)
(0.699448 0.176004 0)
(1.04176 0.0113137 6.47162e-21)
(1.04593 0.0218975 0)
(1.10989 0.100212 0)
(1.02971 0.00331806 0)
(1.02326 0.0166401 2.47318e-21)
(1.01615 0.010652 1.33836e-22)
(1.04643 0.0449062 -4.45803e-21)
(1.0581 0.0621713 -4.46175e-21)
(1.02144 0.0133808 -5.1858e-22)
(1.01057 0.0679815 -1.39448e-21)
(1.01154 0.00470572 5.41424e-22)
(0.910124 0.194888 0)
(1.01672 0.0132449 0)
(1.01436 0.00333434 -7.98036e-22)
(1.11445 0.0976379 -2.08871e-21)
(1.01072 0.00214445 0)
(1.01385 0.00784655 8.15339e-23)
(1.00942 -5.74401e-05 0)
(1.00434 -2.19292e-05 0)
(1.01442 0.00720194 7.42416e-22)
(0.516372 0.0432521 -2.25351e-20)
(1.03071 0.0144563 1.98632e-22)
(1.14306 0.0138427 5.95067e-21)
(1.01051 0.00138445 0)
(1.01098 -0.00243768 0)
(1.01415 -0.00224881 0)
(1.01641 -0.00322255 5.5158e-22)
(1.01628 -0.00312273 -1.87273e-22)
(1.0179 0.00460126 -6.46416e-22)
(1.02525 0.0336073 -1.15393e-21)
(0.956713 0.279081 -2.04141e-21)
(1.03483 -0.0160009 6.15769e-22)
(1.05531 0.00423232 0)
(1.01013 0.00153988 0)
(0.950819 0.103938 -3.3348e-23)
(1.06635 0.0381414 -7.32976e-21)
(1.04171 0.0453511 -4.30348e-21)
(1.03466 0.0108663 0)
(1.01032 0.00150348 0)
(1.00881 -0.00071454 -2.87223e-22)
(1.01589 0.0185265 -1.77812e-23)
(1.01238 0.00572381 -2.33118e-22)
(1.01173 0.113815 -3.97878e-21)
(1.01523 -0.00200588 3.04617e-24)
(1.01376 -0.000444645 8.96935e-22)
(1.01633 0.0185763 4.75837e-23)
(0.346515 0.0147057 -9.39164e-22)
(1.01387 -0.00189592 0)
(1.03359 0.0437427 -1.12904e-21)
(1.00776 2.03521e-05 5.86149e-22)
(1.01284 -0.00126441 4.6792e-23)
(0.972035 0.0183245 0)
(0.957623 0.108393 -2.64977e-23)
(0.826597 0.166474 0)
(1.00506 -0.000125461 5.3053e-23)
(1.00579 -0.000146778 -1.27342e-22)
(1.07785 0.0575428 0)
(1.00566 3.15265e-05 4.01246e-22)
(0.545423 -0.104113 0)
(0.90735 0.0107563 0)
(1.06799 0.0462813 -5.11581e-21)
(0.479836 0.117052 0)
(1.01289 -0.00127035 0)
(1.02575 0.0363385 1.7038e-22)
(1.03524 0.0109819 0)
(1.05967 0.0489435 0)
(1.06877 0.0464954 0)
(0.98913 -0.144768 0)
(1.01253 -0.00126192 0)
(1.07125 0.0358649 0)
(0.447389 0.109674 0)
(1.01403 -0.0020141 -2.1025e-22)
(1.01183 0.00474236 -1.55573e-21)
(1.00309 9.50178e-05 2.30473e-23)
(0.943809 -0.00418283 2.54247e-22)
(0.975287 0.0156363 -7.16797e-22)
(1.06973 0.0447256 0)
(1.01866 0.0101924 5.83259e-23)
(1.01595 -0.00207624 -6.81765e-22)
(1.05317 -0.00919783 0)
(0.95552 0.0465918 2.23461e-21)
(1.09211 0.119676 1.2942e-20)
(1.05392 0.036927 8.6036e-21)
(0.945368 0.0374527 0)
(1.00924 0.00231246 -9.45562e-25)
(1.01379 0.00199602 0)
(1.01582 -0.00199879 -6.4287e-22)
(1.06429 -0.0450747 1.01478e-21)
(1.01085 -0.00142824 0)
(1.01658 -0.00222298 0)
(1.01366 0.00803919 -3.90917e-23)
(1.05011 0.0357227 6.78707e-21)
(1.0504 0.049858 0)
(1.0078 3.13532e-05 -6.39385e-22)
(1.04812 0.0343845 0)