/*--------------------------------*- C++ -*----------------------------------*\
| =========                 |                                                 |
| \\      /  F ield         | OpenFOAM: The Open Source CFD Toolbox           |
|  \\    /   O peration     | Version:  v2012                                 |
|   \\  /    A nd           | Website:  www.openfoam.com                      |
|    \\/     M anipulation  |                                                 |
\*---------------------------------------------------------------------------*/
FoamFile
{
    version     2.0;
    format      ascii;
    class       volScalarField;
    location    "100";
    object      ddt0(k);
}
// * * * * * * * * * * * * * * * * * * * * * * * * * * * * * * * * * * * * * //

dimensions      [0 2 -3 0 0 0 0];


internalField   nonuniform List<scalar> 
13917
(
-0.000575877
5.03209e-07
1.11948e-05
1.39256e-09
-6.33574e-06
1.5386e-06
5.64341e-08
-5.19136e-05
5.22585e-08
-5.50695e-05
1.05135e-05
5.0007e-08
1.1158e-08
-0.00262622
2.50103e-06
-0.000602512
-2.32642e-08
-9.47614e-06
-3.10695e-06
-0.00176738
-1.57947e-06
4.13642e-08
-1.1414e-07
4.98496e-08
-9.32294e-08
-1.82106e-06
0.0210388
6.15472e-05
-4.09177e-06
-5.74476e-08
-5.00391e-05
-9.38751e-07
-1.83967e-08
0.000341821
4.74118e-09
-6.41105e-05
1.88061e-07
-2.82796e-09
5.63566e-08
-2.10701e-06
-7.76911e-08
2.41277e-08
3.88389e-08
-2.56664e-06
-2.59917e-06
-1.11747e-05
-1.27335e-06
-0.0128637
0.00342844
2.54416e-08
3.96838e-08
-4.63682e-07
-0.000409951
-3.06181e-08
-2.36296e-08
-4.2442e-07
0.000116742
-9.98361e-08
7.85398e-09
-1.1124e-05
-0.0172468
-2.74597e-05
-1.29654e-07
-7.33864e-08
0.00753104
8.52434e-05
-8.42784e-06
0.000743136
-3.79196e-05
-0.00052064
0.00658969
9.4295e-05
-3.77839e-08
4.08616e-08
-1.76376e-06
-1.1881e-07
-2.5544e-07
-8.10604e-09
-1.04837e-07
-1.92543e-08
-9.41179e-08
-7.71476e-09
-4.91985e-08
0.00184506
7.55829e-09
-1.56194e-05
-8.95096e-07
1.24104e-08
-2.19031e-06
-1.21014e-08
6.12586e-09
3.7945e-08
0.00193206
3.10446e-10
9.83786e-08
-5.74255e-06
0.0216317
-4.41395e-09
1.07852e-08
-2.64259e-05
-1.05518e-07
-9.78556e-08
-4.09056e-08
6.15403e-09
1.93905e-07
-0.00329012
0.0015243
-3.11105e-05
-2.0919e-07
0.0127915
-8.95042e-09
0.000573299
-5.23254e-06
-0.00798241
0.00728762
-1.48481e-07
-2.62355e-06
-1.24615e-08
-1.85638e-06
-4.32172e-08
8.13177e-10
-1.21616e-08
-7.52109e-06
-1.9827e-06
-0.00054749
0.00255232
-5.65823e-08
-2.11898e-06
-2.84697e-09
-2.07718e-06
7.71258e-09
2.40526e-05
-0.00226149
-1.39876e-07
-1.30011e-06
0.0116444
-0.0266224
-0.000645288
-2.25506e-06
-5.2075e-09
-0.010177
-5.07975e-08
-0.00323523
-2.31834e-08
-2.06895e-08
-1.42802e-06
0.00531298
-0.000579158
-0.00518542
-3.12243e-08
-1.79796e-06
-7.4084e-08
-3.21939e-08
-4.18167e-08
0.0244118
4.01545e-07
2.70729e-09
-0.00257508
-3.40357e-08
-1.88358e-08
2.04351e-08
0.00704369
5.25813e-07
-0.00963609
0.000873207
0.000321549
-0.000208189
-0.00181944
1.39732e-08
-2.75848e-06
1.02366e-07
-0.000823395
5.20506e-08
-0.0144315
2.87649e-06
-7.62379e-08
1.7729e-09
-5.48435e-07
2.21395e-08
7.41247e-07
4.15473e-08
8.75001e-08
3.6992e-08
-2.70928e-06
-1.40033e-06
-3.66178e-07
3.10466e-08
2.75514e-06
-8.88989e-08
-2.26897e-05
3.2814e-06
-2.22047e-06
-4.11466e-06
-0.000595437
-8.20118e-10
-0.000537074
-2.05275e-07
-0.00262165
-1.81038e-08
3.06174e-07
-9.60054e-07
-0.000550259
-0.000484201
4.6596e-07
0.0161254
-6.06275e-07
-1.78753e-06
-2.65661e-08
-9.02699e-07
-1.06765e-07
-2.94048e-08
-1.73829e-05
-4.98605e-05
-0.0107141
-1.22887e-06
-2.15398e-06
0.00615394
1.1589e-08
-1.76172e-09
1.46278e-08
-0.00291111
-4.23011e-06
-1.12485e-05
1.164e-08
-1.25416e-07
0.00629225
-0.000518596
-1.6284e-09
8.9795e-09
-3.06365e-08
1.78758e-08
2.96344e-08
-4.43344e-05
-0.00479103
-9.70812e-08
4.36385e-08
2.32194e-07
-0.000171158
-3.91571e-08
1.12724e-08
0.0137396
-0.00354861
-2.5536e-06
0.00562554
2.96399e-06
-1.63182e-08
-0.00100887
1.06342e-07
-3.57043e-06
-1.59013e-06
3.97599e-07
-0.00633605
-4.71138e-08
2.08659e-06
2.67535e-06
-1.34128e-07
-2.072e-08
-7.01536e-08
3.51895e-06
-5.96283e-08
-0.000448276
0.00906906
-3.51227e-09
-5.05857e-09
4.93142e-07
-8.45898e-09
-4.74394e-08
1.46957e-08
4.8819e-07
2.03577e-08
-0.000724403
0.00231005
-2.32267e-08
1.73641e-06
4.25927e-05
-2.87753e-08
1.47786e-05
-0.000400692
-2.64947e-08
-0.000430786
-2.19365e-08
0.00711494
-9.73593e-08
9.83615e-07
-1.69346e-07
-3.60751e-08
-5.6706e-06
6.66217e-09
0.00872206
-4.14529e-07
0.00987355
-6.00401e-06
0.0170815
-0.000650889
-1.6441e-08
1.77662e-07
1.86583e-06
-1.40769e-07
-5.56965e-06
-1.11116e-07
-3.12207e-08
2.73616e-09
1.23589e-07
3.81435e-05
1.64711e-06
-9.43313e-08
9.67961e-09
-0.00252934
-0.000491844
-2.9053e-08
-5.5631e-06
-1.58206e-07
-0.000788507
-1.70655e-06
0.00233581
-0.00934215
0.000118009
-1.11798e-05
1.84657e-06
0.00199722
-0.00147366
2.57435e-05
1.97616e-08
2.36945e-06
0.0229903
2.06359e-07
-1.36484e-06
-2.17162e-06
-1.23376e-08
-0.000517362
7.45206e-09
-2.51452e-08
-1.50736e-08
-0.00189121
-2.08674e-09
1.13763e-06
-9.84357e-07
7.62495e-05
-4.08734e-09
-1.5931e-06
-0.00274019
7.80286e-08
2.49786e-07
0.000972021
-0.00293809
0.000972298
-0.0103736
-2.93941e-08
-7.60332e-08
-0.00390249
-1.90906e-05
-1.56455e-08
-1.72769e-06
-2.62988e-08
-3.96305e-06
1.56074e-06
-2.66643e-06
6.48884e-06
1.34464e-05
-1.00027e-07
9.42247e-05
1.91623e-09
8.01393e-08
-4.89247e-06
-2.83949e-06
-3.19583e-08
-0.000673296
-6.74688e-08
-0.000760421
-1.53342e-08
3.08207e-06
-8.22523e-06
-0.00913668
-8.59699e-08
-1.70328e-05
6.29809e-05
-1.52483e-06
-2.54226e-08
0.00256617
2.14021e-07
0.000461189
-5.38794e-06
-7.93877e-08
-0.00603602
-2.97253e-07
0.00112588
-1.7916e-08
-0.00165967
0.00118797
8.58772e-08
0.00156367
5.68174e-06
3.48756e-07
0.00284295
3.4181e-06
3.66935e-08
-6.35574e-06
-2.65303e-08
2.56084e-06
4.4772e-06
7.32199e-09
5.75691e-08
-9.74017e-08
-3.42139e-08
-1.59496e-09
1.29608e-08
-0.0213248
0.0013052
2.99481e-08
-9.08973e-09
2.29774e-08
8.55259e-07
-0.0200376
-1.55539e-08
1.63977e-08
-1.67628e-06
6.67651e-06
-3.41507e-08
8.34247e-08
-0.0075025
0.0166275
0.000444631
-3.47592e-06
0.00123306
7.17166e-09
-1.84033e-08
-8.61595e-07
5.64335e-10
-2.45315e-08
-1.30787e-07
-2.67096e-08
2.25625e-08
-0.00185874
-4.16965e-08
-2.41969e-06
-0.000780111
4.05454e-07
-2.71139e-08
-1.24427e-08
0.00381517
-8.65247e-07
-0.000549473
4.87959e-08
1.32763e-08
3.46617e-07
3.61012e-08
2.0055e-07
-3.46433e-07
-0.0083077
-7.23703e-06
-0.00365031
9.32009e-09
9.56666e-09
-3.65874e-05
-1.26406e-07
2.47467e-06
0.000321399
-2.36401e-08
0.0166769
-1.53159e-08
5.40213e-09
1.83599e-08
-3.17913e-07
-3.31115e-08
1.55509e-08
-0.00231622
-0.0125189
-2.99728e-08
0.0140149
-2.15318e-06
2.37653e-08
3.11234e-07
1.18177e-07
0.00281
6.03821e-08
-0.00323487
0.00112566
0.00120729
-3.89039e-07
9.82036e-05
-4.90201e-05
3.97367e-07
0.000827184
4.33999e-09
-4.46247e-08
1.06716e-07
6.09181e-08
-1.619e-06
-3.41058e-06
-5.46219e-07
5.65205e-06
1.09701e-06
-1.17354e-05
1.87952e-06
3.37924e-08
-0.005127
2.48171e-07
-3.81404e-07
-0.000124485
6.9978e-09
2.67791e-06
-1.98559e-06
4.35205e-09
-0.00201504
5.26995e-09
4.23315e-08
8.1538e-07
2.87213e-08
6.53216e-09
-5.8072e-09
-0.00301136
-0.00129538
1.81647e-08
8.08507e-09
-2.75264e-06
-8.53412e-05
-0.0114077
6.53412e-09
-2.53679e-08
1.46621e-08
2.11076e-06
0.000643121
-4.97138e-09
-2.68283e-08
2.19365e-07
-3.37222e-08
-2.44847e-06
-8.05105e-09
2.5858e-09
-6.04428e-07
3.21329e-09
1.25696e-08
-8.37274e-08
0.00175349
3.71682e-09
3.10475e-08
-1.21571e-07
1.35677e-08
-3.25702e-07
-5.94128e-06
2.70705e-06
-4.65519e-05
-5.57283e-08
-1.05863e-05
-0.0026274
-0.00163354
-0.00092937
-2.68207e-08
1.27955e-08
4.44548e-07
1.97485e-08
0.00657221
-4.21048e-08
0.0076352
-1.77056e-07
-0.000765765
2.97888e-05
4.18942e-08
0.00301984
-3.01179e-08
-2.66419e-07
-6.3153e-09
-1.02719e-07
-0.000558051
1.74011e-08
-3.16707e-06
-1.57599e-07
2.44656e-08
2.07544e-08
-3.55257e-06
-1.80931e-06
-8.13696e-09
-2.59558e-06
2.96265e-07
0.000730191
0.00488141
-0.00306072
0.00226049
3.84208e-09
-0.000500212
-5.73559e-08
-0.0251014
0.000891577
-1.01513e-06
-2.64831e-05
-9.9815e-08
2.52375e-07
3.8148e-08
-2.92279e-09
-1.33283e-09
-1.12259e-08
0.00380024
1.84663e-08
-7.00355e-07
-4.60145e-08
-4.19145e-09
-3.41163e-08
-1.53516e-05
0.00756298
0.00430175
-1.27684e-06
1.45684e-08
0.000223257
-0.000105837
-2.46631e-08
0.00194205
-5.2266e-09
-3.04242e-08
1.01726e-08
0.00236984
-3.38136e-08
-5.4171e-06
-2.9136e-08
0.00826632
3.97554e-07
0.00757716
-8.9305e-09
4.00111e-07
6.27279e-08
-1.16957e-07
0.000378281
-0.000259465
1.28441e-07
-2.85544e-06
9.64019e-09
-9.54028e-08
-1.21066e-07
0.000808076
1.32254e-08
3.659e-06
-3.62424e-08
7.96604e-08
-2.60259e-06
-9.65822e-08
-3.17029e-06
3.22625e-09
2.68617e-09
-0.0231209
-7.60619e-07
-1.18123e-08
-0.000390935
1.2278e-06
-0.0119004
-1.09897e-06
-2.62014e-08
3.14679e-06
0.00115986
-2.25313e-06
-6.38385e-07
1.66454e-07
-6.86354e-06
6.23262e-09
3.32759e-08
0.000389203
-3.75108e-07
-2.33544e-07
-0.000822756
3.52054e-07
-0.00910749
-0.0163414
6.7544e-05
7.17696e-07
-3.46579e-06
-0.000331008
-2.90099e-08
-1.92751e-05
0.00045771
4.45898e-09
-5.96384e-10
-3.22765e-08
9.34486e-06
6.86479e-09
-0.00056436
1.21483e-08
5.98618e-09
-2.00677e-06
-5.23283e-09
0.00298324
-5.40314e-09
-1.14702e-08
-0.00270287
-2.96019e-07
0.00218953
-1.76536e-08
7.06266e-07
-3.32347e-08
2.56052e-09
7.69357e-08
-2.48116e-08
-0.000543789
-6.25141e-07
0.0039201
0.00180447
-2.3139e-05
-0.00318282
6.29027e-09
1.19017e-08
8.11853e-08
-0.000348138
-0.00247248
-2.17399e-07
-0.000563509
0.00176909
-4.04468e-10
-3.15339e-08
2.78658e-07
-0.00295203
0.00108835
4.46909e-07
2.17663e-09
2.56478e-08
1.85448e-07
1.17239e-06
-3.03226e-06
-2.55791e-09
8.10852e-08
-2.40284e-08
8.86555e-09
8.18194e-08
6.54983e-07
2.04052e-05
-1.31769e-07
-1.74592e-05
-0.000574602
-7.83261e-06
0.00407982
1.09389e-07
2.02207e-06
-1.02101e-07
-1.29483e-06
-3.69961e-09
-1.33722e-07
0.0078054
-0.00238523
3.45074e-08
-1.71109e-07
1.16201e-09
-5.16251e-09
-4.18025e-08
-2.15296e-06
-1.75708e-05
-9.40986e-06
-2.60991e-06
-1.57882e-08
4.63942e-05
5.54715e-08
5.98254e-08
-3.33535e-06
-1.08427e-07
-2.80384e-07
0.0216955
-7.27026e-09
-4.19706e-07
3.69967e-06
4.39354e-10
3.27471e-08
-2.74316e-08
3.48699e-08
-0.000497329
-1.61152e-08
-5.44195e-08
-3.11864e-08
-3.29432e-08
-2.47873e-08
-1.69146e-07
0.00842077
5.60381e-06
0.0180403
-3.80969e-06
-0.00435767
-4.45199e-08
-7.82233e-07
-0.000133713
-3.33983e-07
0.000120169
-5.83107e-09
4.13834e-09
9.20438e-09
-1.63197e-07
-6.24263e-06
2.25879e-08
-0.000756541
3.41943e-08
0.0031878
7.94231e-08
5.90867e-08
-5.6567e-09
-1.61747e-06
1.7568e-06
0.00583021
7.51014e-06
-2.2069e-08
0.00193415
-3.29467e-08
-0.000462596
3.06568e-08
-9.05464e-06
9.00208e-07
9.21969e-09
2.82479e-08
0.000963408
7.94714e-08
-0.0137406
0.0149139
-6.77136e-09
-1.44025e-08
3.68011e-08
6.5075e-06
-0.00352081
5.5919e-08
-0.000750609
3.66599e-08
1.48258e-06
-2.58571e-06
-0.000728112
8.34307e-09
7.13863e-09
5.58179e-06
-2.00957e-08
-2.91507e-08
1.56054e-08
1.56369e-09
-6.66669e-08
1.363e-09
4.74909e-06
7.17059e-08
-0.00057378
-0.000494293
-0.00782417
-0.00387328
0.0171385
-0.000543407
0.000685192
-8.92144e-09
-2.04608e-07
5.88684e-08
-2.73811e-08
1.589e-08
7.75764e-08
3.79167e-08
-0.0184192
-3.22256e-08
8.3844e-05
-4.23482e-09
3.55876e-08
7.63843e-06
-1.80271e-08
-2.50939e-06
-3.3623e-08
-2.9025e-07
-8.49064e-09
2.71689e-07
-0.00351914
-4.36132e-07
0.000456225
-3.53185e-08
-1.65947e-08
1.51369e-07
1.1549e-07
0.000675513
-9.84215e-09
5.63972e-05
-3.15164e-08
0.000509791
-4.36105e-07
1.23886e-08
-1.55407e-07
-3.96149e-05
-1.00412e-08
0.00112011
0.00305047
6.95557e-07
-1.61448e-06
5.97294e-09
1.96811e-05
-1.38172e-07
1.25801e-07
-0.000238017
7.55002e-09
-1.27216e-09
-1.94858e-06
-0.00040744
1.4383e-06
0.00315781
0.00111913
-1.42785e-07
-1.1176e-07
1.18332e-08
0.000711748
-1.20785e-08
-3.04152e-06
7.11117e-08
-0.00223487
8.47316e-07
-0.0329566
-1.06247e-08
-2.89457e-09
0.00124812
7.40629e-09
-6.6322e-06
-0.00290445
1.7061e-07
9.49889e-09
0.00489765
-1.56121e-07
-2.25183e-07
-4.67069e-07
5.56791e-08
0.00677518
-2.34516e-06
-1.22847e-07
6.86959e-07
2.34649e-08
-0.00170684
1.37793e-07
-5.07968e-07
2.47413e-08
-0.000651435
0.000789139
-2.94858e-08
-5.31701e-08
-1.01977e-07
4.70402e-09
2.16796e-08
-2.06636e-08
1.03094e-08
3.28515e-08
-2.52302e-08
-7.73301e-09
1.5383e-07
-1.2874e-06
0.000598419
0.00553786
-1.77599e-06
1.24218e-07
0.00115346
2.78881e-08
-7.82299e-06
-0.000829376
-9.00496e-05
2.16064e-08
-9.75636e-09
-1.46989e-08
1.28299e-08
1.701e-08
2.11478e-07
-1.52988e-08
8.56128e-07
6.32833e-09
-0.00187652
0.00583621
2.03996e-08
0.00107702
2.30915e-08
1.38745e-08
-2.18332e-05
0.00117505
1.60457e-06
-3.13809e-08
0.00240831
1.02613e-08
-4.36356e-09
0.000283875
-3.36519e-07
0.0181587
-3.4508e-09
0.000273863
-1.4491e-08
-4.60429e-09
-9.92955e-07
-0.00180357
-5.18788e-08
7.07903e-05
5.2254e-05
1.58625e-08
-1.43671e-07
-1.86175e-08
-2.60346e-08
-1.30129e-06
3.38933e-08
-2.27615e-07
-0.000335979
-0.0048751
-0.00125948
-1.57787e-06
6.02726e-10
-0.000710351
-2.47167e-08
-0.0161877
2.15195e-06
5.71403e-08
-4.3437e-08
-0.0228745
-0.0036029
-0.00212851
1.98622e-06
0.00666362
9.59297e-08
3.1693e-08
2.4265e-08
5.18052e-08
6.80852e-08
-0.00419279
-0.000365921
-1.24573e-08
4.37717e-08
-0.000222236
-1.43535e-07
6.9876e-09
0.00760259
0.00446132
-1.51022e-08
-7.11387e-08
4.53432e-08
6.24021e-09
-2.61132e-09
-1.1046e-06
1.012e-06
5.99522e-08
0.00415292
1.37544e-06
-0.000509003
-0.00303206
1.72674e-05
-0.000569148
-2.41111e-08
-1.64799e-10
4.0434e-05
-0.000394973
0.000973518
-1.79347e-05
-1.05508e-06
-1.50757e-08
-4.94482e-09
1.69534e-06
0.00451717
-7.19467e-06
3.54215e-07
-5.36868e-07
-3.26809e-08
-0.00244661
-1.52701e-06
-2.18426e-06
-2.13303e-08
-2.65822e-05
0.000418568
-0.00677669
0.000847155
-1.70427e-09
-4.70484e-05
3.46836e-09
2.36765e-06
1.22084e-06
-0.0043197
-3.15872e-08
-9.35215e-08
-1.42468e-07
-0.0149474
3.03802e-07
0.00182822
4.49802e-07
3.59486e-06
-0.00395243
3.78484e-09
-5.64614e-07
3.01053e-08
2.62284e-09
-1.15648e-05
-2.98882e-05
-1.1959e-08
1.18932e-08
-4.45252e-08
-0.00281142
1.45318e-08
2.10756e-07
3.65179e-08
1.49038e-07
-5.25147e-08
5.69381e-06
1.3637e-08
3.09444e-07
-3.85145e-08
-2.60657e-05
4.04187e-05
2.37682e-06
-0.00197011
1.74015e-08
2.48391e-09
0.00204895
-6.22857e-08
2.44628e-07
0.00107503
-0.000621867
-4.7298e-07
2.86479e-06
3.25998e-07
-0.000541141
-0.000257214
-1.27319e-06
0.00583428
-1.00737e-08
-7.00319e-08
0.00195413
-2.973e-06
0.00288802
-0.0165649
2.3497e-08
1.64166e-08
-3.04278e-08
-4.38863e-08
6.70243e-09
5.17474e-06
8.25438e-09
6.8858e-07
-8.30654e-09
-6.10422e-08
0.00364987
9.43865e-08
-0.000197964
0.0160502
8.16809e-09
-2.70259e-08
1.27742e-06
7.67858e-08
-1.2481e-08
-0.000846122
-1.28769e-06
-0.000303915
-5.32254e-07
-0.00290541
4.26354e-06
8.9101e-07
-0.00959914
4.04047e-07
-4.5886e-06
1.42941e-08
-7.92563e-06
-6.32875e-09
-2.06677e-07
-1.79797e-06
1.13274e-06
-7.56099e-09
-6.13538e-07
-0.0316659
2.15242e-08
-2.14844e-05
0.00047613
-2.63452e-08
2.64876e-08
-7.8285e-07
-0.00240233
-0.000130564
3.72737e-08
3.88631e-08
8.94838e-05
0.000235839
-0.000590784
6.12603e-08
4.84741e-09
2.2963e-08
-1.98416e-08
-3.10626e-08
3.0915e-07
-0.00274233
2.08881e-07
2.02514e-08
9.70803e-05
4.84059e-05
-1.66382e-06
0.00535063
-0.00325071
-3.04422e-08
-2.37096e-09
4.9369e-09
1.65039e-07
7.21029e-08
-0.00368426
0.000137767
8.29247e-06
-7.62771e-07
-3.97321e-07
3.84901e-08
-0.00012285
-9.74556e-08
-2.45157e-06
1.67642e-08
5.4314e-05
-0.000100007
1.93281e-08
-5.12292e-08
0.00147148
7.72855e-07
0.000209268
0.000189573
9.71457e-07
-2.4478e-08
4.39247e-05
2.55364e-08
-4.70412e-09
0.00161437
0.00276769
8.95078e-09
-9.28973e-08
-2.54509e-06
-1.51599e-06
-1.56978e-08
-1.37366e-08
2.86012e-08
-3.66427e-08
2.02512e-09
7.4076e-09
1.21497e-06
-0.000559589
-1.47674e-06
-2.32922e-08
3.1711e-08
4.30734e-06
-2.33629e-08
-1.47375e-06
-9.25298e-06
3.02183e-06
0.00186571
2.69612e-07
-2.62652e-08
-0.000722351
4.82327e-09
0.00042075
-3.87205e-08
-2.46394e-06
1.8682e-08
5.07754e-09
0.000119218
-9.43274e-08
2.01673e-07
-1.62275e-08
0.00855775
2.41915e-06
-0.000176069
4.01634e-08
8.90092e-09
-0.0120122
-1.66508e-08
2.51726e-08
7.17764e-06
0.0037394
-4.35184e-07
1.59256e-07
-7.77971e-09
-0.00226194
-1.23754e-08
-1.37223e-06
-1.13291e-08
-2.59537e-08
4.11664e-06
-1.54916e-08
-3.58321e-08
-0.00666883
-5.73448e-07
-0.000510312
-6.41684e-06
-3.21452e-09
9.60609e-08
-1.74535e-08
-2.95066e-08
9.65361e-08
-1.77117e-08
-3.83665e-08
2.92163e-06
5.92315e-08
4.70676e-07
-9.17571e-06
-6.00671e-07
-1.09984e-08
-1.19372e-05
9.98788e-09
-0.00102231
3.05778e-08
-0.00864162
-1.11201e-06
-1.21931e-08
-4.91444e-07
1.4069e-07
1.01872e-07
-6.04268e-08
8.90309e-06
3.12683e-08
1.67459e-08
0.000845485
2.32206e-06
2.89989e-05
1.58704e-09
2.05815e-08
-1.60736e-07
-1.64655e-05
-2.42108e-08
0.00566074
6.39105e-07
5.63975e-09
2.36241e-09
-3.74231e-08
8.22807e-07
-0.000578316
0.00344497
0.000129104
-0.0030013
-1.38498e-06
3.36814e-06
2.48826e-07
0.00802535
-1.51396e-09
2.17552e-08
-2.30381e-07
0.000887794
-3.47789e-08
0.00107395
1.80066e-08
6.42412e-09
1.23222e-05
3.23894e-06
-0.000485309
-0.000166285
-1.1186e-07
-2.10408e-05
-0.000630598
-3.09066e-08
0.00829054
2.50976e-08
-8.3392e-08
-0.0364695
-2.16255e-08
0.00178394
-0.00104434
-2.97131e-08
3.69042e-08
-2.64685e-08
-0.0031598
-4.95831e-08
-1.89457e-08
-1.26594e-06
-5.56769e-09
-3.17717e-08
9.54062e-07
-6.66514e-09
-2.73887e-07
3.65019e-08
1.13255e-06
-2.4265e-09
0.0226701
-0.00308773
-5.90673e-09
-7.36885e-09
-1.05254e-08
-2.67205e-09
3.31785e-08
1.17367e-07
1.51139e-08
1.68721e-08
1.04409e-08
1.31381e-07
-7.48817e-09
-9.86216e-06
-3.58115e-08
-1.64727e-06
3.44354e-08
-5.17642e-06
4.20417e-08
-2.92409e-08
-3.68507e-08
4.61489e-08
-1.81248e-06
1.42393e-07
5.58188e-08
-0.000773434
4.01726e-06
-0.00199857
0.00490501
-1.58705e-06
-0.00418874
5.83628e-09
-1.08851e-08
0.0281436
-0.0211993
-2.40372e-07
-0.000235251
-1.58822e-08
-1.54652e-06
-0.00363944
1.63734e-08
-1.44619e-06
0.00111935
-0.00891584
6.339e-09
-3.53303e-07
1.95163e-08
0.0010928
1.88773e-08
0.00139101
-0.00250274
3.06011e-10
-0.00100183
0.00792686
-2.29872e-08
-0.000188901
0.00110446
4.60939e-09
-1.80541e-09
0.000751867
-0.000502141
-2.8386e-08
2.56503e-08
-6.11052e-08
0.0157034
2.19674e-07
-5.3347e-08
4.14305e-08
-0.000670245
-2.46349e-08
3.25146e-09
4.22547e-09
8.60317e-09
-2.0558e-05
-5.70128e-07
7.79331e-08
-0.000724964
4.66963e-09
-4.3292e-06
-4.7569e-08
0.000773074
2.14211e-06
0.00113989
3.48148e-08
6.68969e-08
-4.07826e-08
2.51755e-09
3.48459e-08
-5.53701e-08
0.000129009
6.93733e-08
-7.2764e-09
2.1973e-08
0.00120538
-2.10366e-09
-0.00222529
-0.00514351
0.00532566
2.15348e-08
1.53707e-08
-1.71729e-08
0.00454655
-9.98289e-09
-0.00333231
4.0882e-09
0.0118766
1.15368e-07
-1.07674e-07
0.000119016
-1.81871e-08
-1.41827e-08
-0.000460228
-2.58909e-06
0.00132245
-1.2991e-07
-0.00126696
0.0117452
2.50881e-08
-0.00010464
-5.48016e-09
2.03636e-07
-0.000904915
2.77282e-07
-1.84748e-06
-0.000281768
3.35136e-07
-9.96346e-07
-1.92368e-08
-0.00184771
1.68113e-08
-0.00363202
-1.46581e-08
-0.000437458
7.88956e-09
4.48501e-09
9.26463e-07
0.00587847
-8.58811e-09
5.92078e-06
3.13518e-06
0.00318403
-2.39649e-08
-6.16773e-07
-0.000492951
-0.0165051
-0.000914663
1.05477e-06
4.41624e-08
-2.71438e-06
0.00658665
7.14557e-07
0.000396008
7.13017e-09
-3.11968e-06
-0.000575716
-4.57839e-09
-0.000565413
3.86994e-09
-0.00152638
-1.98556e-05
-9.77884e-08
-5.12775e-09
-0.00370607
0.00653691
-1.20553e-08
-3.97677e-08
9.00932e-09
-2.02258e-09
0.00269458
2.94767e-06
-0.000140266
-5.1729e-08
-2.65627e-07
0.00188307
1.82863e-05
0.0010741
-0.00183252
6.36883e-09
2.0495e-08
-1.11282e-06
-0.0135798
-0.0398827
0.0018867
4.5977e-06
-2.13092e-06
-1.08585e-05
0.000805447
0.00171879
0.00168769
-1.742e-09
-3.17277e-07
9.24901e-07
3.74316e-06
-4.20497e-08
5.98308e-08
3.1118e-06
5.65577e-05
0.00369623
-2.52305e-07
-2.58588e-05
-0.000538975
-2.75989e-06
7.00593e-09
7.56785e-09
-0.00872683
2.67825e-08
-0.00284196
-3.38872e-07
6.90499e-08
-1.31264e-05
6.55349e-05
-3.53768e-09
4.47796e-07
8.79286e-08
-2.80151e-08
-0.00342859
1.23764e-05
-0.00351781
-2.93481e-09
0.000225409
2.49429e-05
-5.43324e-07
3.28873e-08
-4.17767e-07
2.03921e-07
2.78456e-06
3.31379e-06
-1.09542e-06
0.00335357
0.00111021
8.37021e-08
-2.8293e-07
-2.39513e-07
-2.81858e-06
-0.000562234
-3.82764e-08
1.46048e-09
-3.49907e-08
-0.000214211
-2.86671e-06
1.96824e-09
-3.63567e-08
-6.58576e-06
2.7079e-09
1.57731e-05
4.44002e-07
-0.00342593
-6.00056e-07
0.00225033
-0.00384435
7.16862e-08
8.17983e-07
0.00053986
2.30011e-08
-3.63051e-06
0.00165855
-3.47557e-08
2.02334e-06
3.7781e-08
-6.27127e-07
-0.0166154
-0.000512348
-2.2209e-09
-0.0123742
0.000403768
-2.86573e-08
-2.13153e-06
-2.07084e-07
6.27862e-06
0.000270073
0.0126901
0.000403394
-2.53374e-07
0.00248963
-4.44785e-07
-4.65912e-08
-2.31205e-08
-2.1065e-08
-3.36907e-08
2.69301e-08
0.000124175
5.92114e-05
2.68951e-08
-1.31481e-06
-1.57668e-06
1.98684e-08
0.00435961
0.00754332
7.21369e-08
-1.60322e-08
-7.44411e-08
1.82414e-07
-2.55898e-07
2.17318e-08
-0.00168702
9.16401e-08
8.73939e-07
1.39316e-06
3.81552e-06
-7.50936e-06
3.52147e-06
-0.00244376
-3.9994e-08
2.18086e-07
-2.59494e-08
1.58467e-08
-0.000854298
-5.31389e-07
-4.51123e-07
-0.00658713
-3.26107e-08
-1.00253e-07
8.34917e-08
1.08398e-09
7.53796e-10
4.61773e-06
-1.06256e-07
6.64553e-06
0.00316372
-0.0209974
-3.84267e-08
-0.0112449
-2.43979e-08
0.00284533
8.02142e-10
-4.02763e-06
-0.0306379
4.58741e-10
1.67447e-05
-0.00027126
-1.18694e-06
2.12824e-08
-1.51953e-08
-5.84547e-07
-0.000309269
1.9774e-08
1.84694e-08
5.81152e-09
-7.90406e-09
-9.4938e-07
-6.23237e-09
-1.65043e-07
7.65092e-09
6.54893e-09
0.000407194
3.51967e-07
-1.04392e-06
-3.04334e-06
-0.00756828
0.0015895
-0.0130573
1.29366e-08
-3.08272e-08
0.00122678
-5.7035e-08
-1.04886e-06
-4.58923e-08
0.00115927
1.45968e-07
1.78169e-07
1.44615e-06
0.00648072
1.77441e-08
3.4001e-08
2.56929e-09
2.45083e-06
-0.0041676
1.17178e-06
-1.39979e-08
3.05808e-07
1.14747e-08
-0.000894841
-1.07848e-07
0.00223989
-5.76975e-07
3.34838e-09
-9.23138e-06
2.26347e-06
0.000693641
-6.41185e-09
9.74541e-09
-4.96296e-07
-2.43846e-06
1.60951e-05
2.90141e-08
1.70554e-08
1.85524e-07
0.00167992
2.62705e-09
2.32732e-08
0.000282617
1.55613e-07
-2.4999e-05
-4.98524e-08
-1.70913e-08
-4.65268e-08
-0.00502232
3.31812e-08
0.00232725
0.00134381
1.69649e-08
0.0051387
1.76201e-08
-4.60907e-08
3.47155e-06
-9.29246e-09
4.8544e-08
-1.01059e-08
2.27896e-08
-0.0110186
-3.32667e-07
-0.00103037
0.00334341
3.43403e-08
6.41411e-06
-2.1846e-06
-6.79134e-05
3.37745e-08
0.000635806
3.00891e-05
0.00078635
5.94109e-09
-5.45376e-08
1.22048e-08
0.000345818
-0.000202908
3.38071e-07
5.51599e-09
1.11833e-07
-0.00203676
3.53595e-08
-5.03984e-08
2.32818e-07
-1.26696e-06
0.000153085
-9.44919e-09
0.00467785
6.27609e-08
1.03657e-08
0.000517254
-6.1485e-07
0.00902383
-0.0149214
-1.18351e-06
6.48279e-07
3.98441e-08
4.52618e-07
3.01318e-08
-1.9254e-05
-3.19051e-06
1.02195e-08
-2.71138e-08
1.75543e-06
-0.00715912
2.04758e-08
3.62541e-06
-0.00910386
0.0226527
3.16861e-09
4.87597e-08
0.000923951
0.000362329
-0.00511122
-7.67051e-09
0.0130573
-1.69049e-07
5.66301e-09
-0.000566237
-5.27401e-07
-2.89037e-08
-1.56656e-05
-2.76056e-09
0.000174601
2.79134e-08
-1.74831e-08
3.41142e-08
6.61407e-09
0.00783218
3.122e-08
-3.56574e-09
-1.2952e-06
5.65492e-08
8.8824e-07
-3.85519e-06
-3.8741e-08
-1.42001e-08
2.95207e-08
7.53622e-08
-0.00128061
-0.00272597
-0.000168843
-0.0120806
3.73852e-06
-0.00454119
-5.72769e-07
0.00610261
0.000161771
0.00865998
2.52427e-09
5.13508e-07
3.62248e-08
2.9885e-08
1.08331e-09
-1.69655e-07
2.38942e-06
-3.66704e-07
-2.13772e-06
1.0288e-08
1.96353e-08
-9.97047e-08
4.8116e-08
-2.11477e-08
-1.7828e-09
-0.00124178
-6.90744e-07
-0.000519222
-3.83607e-08
0.00104436
2.8434e-08
1.09705e-07
-1.85451e-07
-1.99701e-07
-3.29701e-08
-5.7485e-07
0.000777881
-2.56179e-06
-0.00061819
-0.00233835
-1.25863e-09
-2.40869e-07
0.00104229
2.35553e-06
2.51554e-08
-4.41992e-09
-5.86333e-09
0.00319583
-1.76938e-08
-0.00519202
-0.000323284
1.49542e-07
-0.00145066
-0.0221168
-9.96258e-07
-0.00358044
-1.28814e-08
4.60842e-09
0.000751362
-0.00249753
-3.99978e-08
-2.08365e-08
-0.0159629
-1.33791e-09
-1.29217e-06
1.27066e-08
-1.39455e-07
-5.03213e-08
4.96366e-08
4.45033e-07
0.00149368
0.000130209
-4.57535e-08
8.67243e-09
6.90938e-06
-3.95692e-08
4.29185e-06
2.41766e-08
-2.685e-06
-1.18637e-06
-7.63771e-09
-2.39608e-08
5.15616e-08
6.20887e-06
-3.17719e-05
-1.03915e-06
2.31293e-05
-5.75709e-07
0.000961835
-1.25505e-06
-1.4022e-06
-7.58414e-05
-3.16076e-08
0.00386674
-2.22345e-08
-0.00125841
0.00016394
0.0033955
0.00442556
-1.50782e-08
2.26409e-06
0.000730426
8.77447e-09
-0.00029988
-3.19238e-08
4.79277e-08
5.55101e-08
-5.33003e-10
5.95357e-08
7.46361e-05
-0.000500973
-0.00206474
-1.34627e-07
-2.46457e-06
8.50608e-08
-1.85444e-08
-3.24412e-08
1.34853e-06
-1.71789e-06
-0.0297088
2.42031e-06
5.70171e-08
-6.27971e-09
-1.15876e-07
7.75891e-06
5.88534e-07
-9.95001e-08
-2.41202e-07
4.76356e-06
5.52883e-08
-2.51473e-06
2.79668e-06
0.00481304
-5.75011e-07
4.8866e-08
3.60186e-08
5.8754e-08
8.39173e-05
-0.00189387
-3.28212e-06
-1.9009e-09
0.000161989
2.64282e-07
4.27659e-09
5.85739e-07
0.00156773
0.00010911
-1.47182e-06
6.99902e-10
0.0012774
1.4374e-09
7.26271e-10
3.19795e-08
-0.0279405
0.00108773
-9.83203e-10
-0.00023408
0.00818611
1.90101e-08
4.3911e-06
2.73571e-06
-0.00340168
-7.23983e-07
0.000621094
-2.06192e-08
-0.00104475
-4.43066e-06
-0.00282564
1.9243e-07
-1.54198e-08
0.00118751
-1.25594e-08
8.02304e-08
0.0137206
-0.00294261
0.00109946
6.27639e-05
4.73909e-08
-3.06171e-08
0.00441389
-2.15513e-08
-3.39618e-09
-2.88043e-08
1.03134e-06
3.01426e-08
2.70079e-06
-3.5158e-08
-0.00369092
-0.000910465
-2.25968e-09
-0.000333297
-3.15857e-08
0.000658115
-0.000514691
1.07492e-09
5.44971e-08
4.87446e-08
0.00169033
2.56545e-06
4.43255e-07
0.00120009
0.00371409
-6.21224e-05
3.01515e-07
-0.00229584
0.000674461
-2.38e-05
0.000707131
-1.28605e-08
-1.07194e-08
-3.57368e-08
9.6008e-08
-1.80412e-09
3.8294e-08
2.09798e-05
3.56196e-06
0.00116292
-0.00502594
-0.00377448
-0.0245004
0.00145174
-8.91845e-07
-0.0022233
-2.234e-06
-1.1784e-06
4.66035e-09
2.02577e-08
-1.1123e-06
-0.000547289
4.51378e-07
0.00652914
0.00180962
-3.57321e-09
4.61794e-08
-2.47808e-08
1.12348e-05
1.36533e-08
1.25061e-07
0.00341288
2.47544e-08
5.90145e-09
7.6658e-09
-1.26244e-08
-1.865e-06
0.000469766
-1.52729e-06
-0.00250407
2.94455e-06
2.0196e-08
0.00159017
1.03459e-05
-7.26855e-09
-0.000202623
-0.000678116
-0.034559
-0.01193
-0.000309982
-9.09601e-09
-0.000645483
0.000342651
1.68359e-06
-1.00704e-05
2.87294e-08
2.9903e-07
-7.02779e-08
2.59784e-08
0.000208918
9.16382e-07
6.71244e-08
-2.88669e-07
0.00098182
1.16587e-05
1.74038e-07
-1.27716e-05
-0.00264225
0.00201989
-1.64699e-08
-5.5187e-07
4.11675e-07
7.91301e-09
8.08028e-09
-0.0223518
1.33742e-08
-1.18875e-06
0.00134458
-0.00131787
-2.91854e-08
1.36665e-06
-4.18396e-06
1.0138e-08
-1.84016e-08
0.00811256
-0.0269534
1.67733e-08
4.0143e-06
-4.37938e-06
-2.50098e-08
-0.00104835
-0.000163766
-2.9592e-07
-0.000686995
0.00171063
3.69308e-07
7.30062e-09
-0.000105
1.38474e-08
2.33063e-08
-9.42313e-05
-2.14287e-06
9.77138e-07
-1.88759e-08
1.09173e-06
2.09162e-08
4.13205e-08
9.88967e-10
-1.11637e-08
-9.87987e-05
-1.35968e-08
-4.7564e-06
-0.000533291
1.8814e-06
-1.0754e-06
-0.00246691
-0.00188576
-0.000369865
-9.00196e-08
-1.44527e-08
4.50573e-07
-2.78625e-07
-1.11674e-06
0.000916396
1.60519e-09
-1.08555e-05
-0.000425263
-3.91026e-07
-1.75522e-06
-1.41055e-06
-1.98279e-06
-2.50164e-06
-2.84332e-08
-2.60425e-06
-2.11761e-06
-2.27554e-06
-1.95976e-06
-2.127e-06
-1.43475e-06
1.4004e-06
-3.48805e-09
1.9422e-07
-1.82963e-06
-2.0627e-08
-6.76911e-06
-0.00294955
-1.50517e-05
0.00220042
-3.51572e-09
-2.70292e-08
1.33173e-05
0.00797797
-5.62332e-09
5.45655e-07
-3.94119e-08
-0.0185321
-0.0154695
-5.12487e-08
1.26954e-06
-1.14945e-07
0.00311685
0.00113854
4.27202e-08
-0.000126473
0.000114142
-2.34808e-06
0.00204372
2.64332e-07
-0.00297218
-0.00228172
1.79949e-08
-0.00342535
-0.000521073
1.15655e-07
3.43034e-06
3.93152e-06
-2.57266e-07
1.97397e-08
0.00355023
0.0091255
1.89311e-08
1.73089e-08
-0.0260087
-8.51375e-05
3.87805e-06
-2.17333e-08
-9.28464e-07
-2.37803e-06
0.00144481
-0.000769773
4.02103e-08
1.80277e-08
-5.4047e-09
1.46693e-08
0.0017645
-0.0171056
0.00775916
-1.53997e-06
-5.25331e-06
0.00134847
1.6516e-08
8.68105e-10
-8.60789e-05
1.45245e-08
-0.00108018
-1.25636e-07
0.00161714
-1.94239e-08
5.90191e-08
-0.00719782
3.24965e-10
-2.57912e-06
-0.00184046
2.86393e-09
3.58549e-07
-2.63063e-08
1.7229e-06
-0.000125835
1.77762e-06
0.000923026
-8.41346e-09
-5.17911e-10
6.52327e-08
4.13147e-06
-0.00375483
-0.0081038
4.76438e-06
-2.92184e-06
-3.26592e-06
0.00597786
-3.59648e-06
-1.23056e-08
2.46901e-08
4.29472e-09
-9.9568e-05
-3.25372e-05
0.00221995
-2.51876e-06
-2.96452e-06
-3.51523e-08
0.000456186
-7.31605e-05
0.003118
-1.10762e-08
-4.327e-08
-2.06462e-08
0.000443661
-7.50416e-06
0.00831076
-8.52155e-05
-3.28938e-06
-3.53579e-05
2.53295e-08
5.53017e-08
1.72582e-06
-6.55617e-05
-0.000238744
-1.18282e-08
-3.13083e-06
-1.05785e-07
6.45676e-08
1.83061e-05
-0.0117083
-0.00765917
-5.77891e-08
5.09518e-06
-8.46176e-05
-0.0298907
-0.000568665
0.000801581
-0.00193932
-3.00575e-08
1.15041e-06
-7.77653e-08
-3.34935e-06
-2.55882e-09
3.96233e-06
-5.55822e-07
5.52116e-07
-0.00119152
-0.00297012
-2.29603e-09
1.1567e-05
-0.000403215
-7.90778e-07
-2.01238e-07
0.0137338
-1.12359e-06
-9.07615e-09
-3.89946e-07
-0.0006034
-6.12652e-08
2.22836e-06
-1.74739e-05
0.000908322
-0.000397698
-3.0172e-09
0.00890305
0.000956011
-0.0136132
0.00435457
1.866e-07
-2.62526e-06
-2.2033e-06
0.00109155
0.000638251
-1.91764e-09
0.00070315
-5.41547e-05
-1.50106e-05
-4.50565e-07
-0.000293983
-0.000910174
-0.000861328
5.9404e-08
-0.0258058
-1.09565e-07
0.000242135
5.11509e-07
0.00308186
-0.000505546
-2.06651e-09
-2.3249e-08
-1.96427e-05
-0.00316823
0.000123163
5.65459e-09
-2.59457e-06
2.98828e-06
0.00703755
-4.65425e-05
-0.00062632
-3.30339e-07
-0.000817206
2.16294e-06
0.00106642
2.41464e-09
-7.57974e-06
-0.00256008
-1.15539e-08
-1.01401e-06
3.89755e-08
-4.24908e-08
2.89655e-08