/*--------------------------------*- C++ -*----------------------------------*\
| =========                 |                                                 |
| \\      /  F ield         | OpenFOAM: The Open Source CFD Toolbox           |
|  \\    /   O peration     | Version:  v2012                                 |
|   \\  /    A nd           | Website:  www.openfoam.com                      |
|    \\/     M anipulation  |                                                 |
\*---------------------------------------------------------------------------*/
FoamFile
{
    version     2.0;
    format      ascii;
    class       volVectorField;
    location    "100";
    object      ddt0(U);
}
// * * * * * * * * * * * * * * * * * * * * * * * * * * * * * * * * * * * * * //

dimensions      [0 1 -2 0 0 0 0];


internalField   nonuniform List<vector> 
13917
(
(-0.0260057 -0.0155421 0)
(-0.0193789 0.0200769 -1.96775e-21)
(0.010403 -0.0261773 1.02256e-21)
(-0.000298891 -1.48426e-05 -1.85017e-21)
(0.000701946 0.0119726 5.40319e-22)
(-0.0216527 0.0157598 0)
(-0.00106415 0.000826189 -2.0474e-21)
(0.025608 0.0695256 0)
(-0.000143182 0.00108232 2.72159e-21)
(-0.0120383 0.0174766 -1.83561e-22)
(0.0206454 0.0642136 6.1098e-22)
(-0.000141321 0.000149212 0)
(-5.03103e-05 3.72345e-07 0)
(0.125302 0.0605631 -1.96543e-21)
(-0.00721048 -0.00432663 0)
(-0.0271042 -0.0101002 0)
(-7.7448e-05 -9.88778e-07 -1.94826e-21)
(0.0231578 0.0478598 -4.67717e-22)
(0.0179929 -0.00368159 0)
(-0.0881768 -0.0670089 0)
(0.00936056 -0.00182151 0)
(4.26656e-05 0.000184837 0)
(0.000946215 0.0041418 -4.55626e-23)
(2.27916e-05 0.000196589 0)
(-0.000321053 -0.00030944 0)
(0.012597 0.00150021 0)
(-0.292895 -0.288394 0)
(-0.00508016 0.0110318 0)
(0.0208459 0.0184113 -2.45549e-21)
(-4.51253e-05 -0.000266246 0)
(-0.0178766 0.0087035 -2.27023e-20)
(0.00271422 -0.00111485 0)
(-0.000214256 -3.84107e-05 -1.96694e-21)
(-0.000114388 -0.02115 0)
(-0.000268432 -0.000356956 2.4931e-21)
(0.0254874 0.0824764 0)
(0.000540781 0.00117791 -4.81332e-22)
(-0.000105726 -3.19276e-06 -5.7484e-21)
(-0.00100276 0.000916359 0)
(-0.00120921 -0.0117072 -1.95661e-21)
(-6.59597e-05 -5.10049e-07 0)
(0.000739482 -0.000449698 -1.09725e-23)
(-0.000156149 0.000865183 -4.95291e-21)
(0.00940302 -0.0080764 0)
(0.010319 -0.00718165 1.77132e-21)
(0.00453633 0.0969501 0)
(0.0077672 -0.00156403 0)
(0.104906 -0.181161 5.72775e-21)
(-0.113681 0.175623 0)
(-0.000305721 -0.000291595 -3.15073e-21)
(-0.000143421 0.000158653 1.31928e-21)
(0.00591617 0.044157 -1.04328e-22)
(0.0247894 -0.00139253 0)
(-0.000267572 -6.87645e-06 0)
(-0.000253395 0.000110882 2.11776e-21)
(0.00948949 0.0410334 3.99782e-22)
(0.0100338 0.00309853 1.93353e-20)
(0.000674667 0.00425589 -7.17412e-23)
(0.000672122 -0.000178068 1.90031e-21)
(-0.00442172 0.102924 -2.31035e-22)
(0.173287 0.0739754 9.41679e-21)
(-0.00436891 -0.0131982 0)
(-8.84936e-05 -5.74412e-06 0)
(-0.000299453 -0.000262772 0)
(-0.0111609 -0.0569398 1.90417e-21)
(-0.00468307 -0.0103963 -3.59121e-22)
(0.0220571 0.0261471 0)
(0.0166488 0.0892301 0)
(0.0278121 0.0528643 1.12085e-21)
(0.0102997 -0.0056458 1.39124e-20)
(-0.00945456 -0.051268 -5.47623e-21)
(-0.000657248 -0.0187597 0)
(-0.000137073 0.000136992 -1.29025e-21)
(0.000445828 -0.000144361 -2.97147e-21)
(0.00989006 -0.00328551 0)
(0.000147397 -0.000320593 0)
(0.0017507 0.00321296 -2.22087e-21)
(0.000387031 1.29653e-05 1.88465e-21)
(0.000105904 -0.000245886 0)
(-0.000224974 -4.72807e-05 -1.54977e-21)
(-0.000533818 -0.000444131 0)
(-6.6591e-05 2.70133e-06 0)
(-0.00012667 0.00014511 0)
(-0.0101608 -0.0359818 -1.87679e-21)
(-0.000118371 -2.02429e-05 -6.1087e-24)
(0.078546 0.0319849 -1.66232e-21)
(0.00262111 -0.00079605 0)
(-0.000103326 -1.10488e-05 3.23421e-22)
(0.000193616 -0.011009 7.48526e-22)
(-7.85432e-05 -1.71687e-06 2.26011e-21)
(-7.47529e-05 -8.29594e-06 -9.71345e-22)
(-0.000134297 0.000905065 5.99487e-21)
(-0.0898107 0.100743 -4.08656e-21)
(3.54821e-05 -8.2619e-05 -8.35333e-22)
(-0.000412738 0.000174211 0)
(0.0243835 0.0209405 2.56242e-21)
(-0.0487484 -0.229842 1.14895e-19)
(-7.44861e-05 6.35238e-07 0)
(-0.000106457 -8.12379e-06 -1.54662e-21)
(0.024883 -0.105384 0)
(-8.64765e-05 -3.3027e-06 -7.94674e-22)
(-9.01104e-05 -3.69415e-06 0)
(-0.000601756 -0.000419901 -1.31132e-21)
(-6.04494e-05 3.55007e-06 2.1692e-21)
(0.00111378 0.00318572 1.1112e-22)
(0.00874923 -0.0162567 0)
(0.00408879 -0.122569 0)
(-5.96559e-05 -0.0147343 0)
(0.00107166 -0.0005905 9.70768e-22)
(-0.306267 -0.284441 -3.78561e-21)
(-3.77428e-05 2.9955e-05 5.75175e-22)
(-0.00265029 -0.0248727 1.65621e-20)
(0.0224088 0.0138834 -2.18614e-22)
(0.0686048 -0.249776 -1.47132e-20)
(-0.0115923 -0.0553913 -8.7211e-22)
(0.000498558 -0.00034506 2.12869e-23)
(0.0164254 -0.00277721 -2.37145e-21)
(-0.000103064 9.9639e-07 -7.24926e-22)
(0.0143257 -0.020635 1.45882e-21)
(-6.83359e-05 0.00023931 3.9676e-21)
(-6.57135e-05 3.49624e-06 5.05991e-22)
(0.000129279 -9.09531e-05 -9.83277e-22)
(0.0257051 0.0295467 1.52444e-21)
(0.0152013 0.0139018 -9.24877e-22)
(0.0316261 -0.00308476 1.28925e-21)
(-0.0110259 -0.0358519 2.9449e-21)
(-0.000323167 -0.000207254 1.89627e-21)
(0.0115764 -0.00390065 -4.98531e-21)
(-1.37528e-05 9.50081e-05 2.36327e-21)
(0.016381 0.0126284 0)
(-1.50157e-05 0.0015542 -4.41882e-23)
(-0.125605 0.046928 0)
(0.0141113 -0.00843882 0)
(0.000587127 -0.000230874 6.6963e-22)
(0.00401859 -0.00306354 3.5149e-21)
(-0.310276 -0.345946 -2.29e-20)
(0.16294 0.135829 0)
(0.0412448 -0.00115154 -1.0907e-23)
(0.0151729 0.00397441 -6.33814e-22)
(-6.91786e-05 -3.04888e-06 2.70825e-21)
(0.0869313 0.0223784 -1.52775e-21)
(0.000264853 3.98959e-07 -9.74582e-22)
(0.00936841 -0.0168832 2.01977e-21)
(-0.000112694 6.85717e-05 1.72283e-23)
(-0.000129123 7.33849e-05 0)
(0.00442645 0.000199193 -1.14175e-21)
(-0.00907484 -0.0499424 2.557e-21)
(0.0430118 0.0366038 7.90293e-21)
(0.0397678 -0.249433 0)
(-0.000270259 3.06878e-05 -4.83163e-22)
(0.00103086 -0.00855231 0)
(-8.84228e-05 -2.11178e-06 9.7136e-24)
(-0.000121767 8.26282e-05 0)
(-5.90523e-05 0.000259469 -7.34452e-24)
(-0.111339 -0.275532 -1.1208e-19)
(-0.000769954 0.000381517 -2.99068e-24)
(-6.09958e-05 7.83246e-06 -3.05383e-21)
(0.0181927 -0.00616324 -1.41591e-20)
(-8.64065e-05 -2.62685e-06 3.85276e-23)
(-0.000100813 -5.15808e-07 0)
(-0.000112396 -2.52559e-05 0)
(0.0389603 -0.0538143 -1.45714e-21)
(-0.000330202 0.00358207 3.37554e-22)
(0.0853447 0.0289907 -2.66228e-21)
(0.115821 -0.0235566 1.35395e-20)
(0.0426004 -0.149218 -2.92666e-20)
(0.0158283 -0.000985443 0)
(0.145179 -0.0288334 -9.76011e-21)
(-8.23188e-05 -1.17945e-05 0)
(0.0175943 0.00453646 -6.56789e-22)
(4.52622e-05 0.000285734 -2.8712e-21)
(0.0094983 -0.014262 -1.15422e-20)
(-0.000113919 0.00107257 -2.42258e-21)
(0.171715 0.0916194 -2.68969e-20)
(-0.0172271 0.0186913 0)
(-0.000100949 1.92399e-06 5.18681e-22)
(-0.00030368 -4.55668e-06 0)
(0.00510876 0.0539402 -1.78248e-21)
(-4.96241e-05 0.00153179 -6.1397e-21)
(-0.000199085 0.00414018 -2.23248e-22)
(-0.000227441 0.000803664 1.74531e-21)
(-7.31782e-06 0.000249036 0)
(-0.000144678 0.000179262 -7.72684e-22)
(0.0436784 0.0424986 7.8587e-22)
(0.016583 -0.0216056 0)
(-0.140819 0.0379616 0)
(-0.000145513 0.000188492 0)
(0.043207 0.0497365 5.78587e-22)
(-7.25925e-05 -0.000259228 -2.08792e-22)
(0.0721138 0.0305333 -1.61752e-21)
(-0.0202978 0.0180801 -2.76913e-21)
(0.00956016 -0.00562773 -1.78708e-21)
(0.0321156 0.029988 3.59694e-22)
(-0.0388211 -0.0233646 -2.53691e-20)
(6.06098e-06 -0.000134317 5.48586e-21)
(0.0291963 -0.00345825 1.03722e-20)
(-0.00121536 -0.00103444 9.59922e-22)
(0.0116671 -0.00913865 1.1968e-20)
(-0.000206578 -0.000336224 -9.86335e-22)
(-0.000581033 0.000287376 5.09525e-21)
(0.00547425 -0.00131074 1.14401e-21)
(0.00532501 -0.00636076 0)
(0.0409942 -0.00104042 1.43032e-20)
(-0.000364507 0.00112566 0)
(-0.289732 -0.133021 -1.77655e-20)
(0.00517365 0.014361 5.8675e-23)
(3.24258e-05 -0.00918546 0)
(0.000208912 -0.000130088 2.01948e-25)
(0.00842198 0.0489998 -2.81146e-23)
(-0.000491026 -0.000516424 -1.19317e-21)
(-8.3574e-05 3.80391e-05 1.96552e-21)
(-0.00318392 0.0241133 -1.00559e-20)
(-0.000678658 0.0273505 1.28971e-21)
(0.0908365 -0.200385 -4.69758e-21)
(0.00357389 -0.00263222 -1.93545e-21)
(0.0146425 0.00144276 1.51441e-21)
(0.00159231 -0.0741317 -4.98287e-21)
(-0.000122985 6.15048e-07 0)
(-7.53502e-05 -6.71835e-05 -1.91663e-21)
(-7.48319e-05 -6.64806e-05 0)
(0.149579 -0.0338865 1.0513e-20)
(0.0375956 0.0370595 1.27874e-21)
(0.0466308 0.0592567 2.87819e-21)
(-6.3158e-05 3.41873e-06 0)
(-7.49361e-05 -3.23836e-06 -7.8779e-23)
(-0.294491 -0.340655 1.85633e-19)
(0.0271154 -0.00279943 1.09814e-20)
(-7.89738e-05 -5.75523e-05 1.13485e-21)
(-7.69605e-05 -5.64997e-05 -1.01768e-21)
(-5.92055e-05 7.88725e-07 0)
(-7.42798e-05 -7.3084e-05 0)
(-6.77515e-05 -6.32246e-05 -1.87143e-21)
(-0.00329466 -0.017462 -6.29867e-21)
(0.12342 -0.121319 0)
(-2.58839e-05 -0.000230788 -7.1189e-23)
(-7.05412e-05 -5.24555e-05 -6.41187e-23)
(-0.000431914 0.020499 0)
(0.0105239 -0.0114926 0)
(-8.66748e-05 4.09326e-06 1.01141e-22)
(-6.18219e-05 -2.26676e-06 0)
(-0.298804 -0.176619 2.17937e-20)
(0.0126147 -0.0159769 0)
(0.0414962 0.0388097 -6.96529e-22)
(-0.00127633 -0.0751654 0)
(-0.0258626 0.0377868 0)
(-0.000113547 7.65782e-05 2.86866e-21)
(0.13812 -0.0285413 1.2199e-20)
(0.0018448 0.0212738 -3.55727e-22)
(0.0194749 0.0123025 3.41442e-21)
(0.00878134 0.00268753 -8.58034e-22)
(-0.000338169 0.000952773 0)
(0.111122 -0.141202 5.70358e-21)
(-8.55536e-05 0.000216547 -1.59736e-21)
(-0.0105344 -0.00322726 2.17972e-22)
(-0.0150433 0.0146942 0)
(7.31923e-05 -0.00023182 -3.17619e-21)
(-3.89547e-05 -6.47122e-07 0)
(-0.00034361 -0.000244893 0)
(-0.00745347 0.004265 2.33258e-21)
(0.000357358 -2.15344e-05 0)
(0.0306338 -0.00500086 -1.00455e-20)
(-0.0622486 0.404584 -1.31724e-20)
(-0.000130249 -0.000278784 -1.08147e-21)
(-7.75072e-05 -5.05701e-05 0)
(-0.000774732 0.000614812 3.73906e-21)
(-8.0258e-05 -4.25715e-05 0)
(-7.90152e-05 0.000234529 -2.84084e-21)
(-7.88245e-05 1.56265e-06 1.67998e-21)
(-0.00349424 0.00314974 1.35923e-21)
(-0.000155183 -0.000348188 -1.06911e-21)
(0.0413716 -0.000823823 -1.35098e-21)
(0.0148751 -0.116877 0)
(-0.000162236 0.00018282 9.57154e-22)
(-0.00304529 0.00360021 0)
(-0.0140957 0.124215 2.20978e-22)
(-9.73297e-05 9.67976e-05 -4.12373e-22)
(0.0182521 -0.0793133 3.74534e-21)
(0.0301721 -0.00603958 -2.38846e-23)
(-9.13736e-05 0.000112124 4.24546e-22)
(0.011581 -0.00768467 -1.34571e-20)
(0.000288305 8.00758e-05 0)
(0.0433064 -0.0443178 0)
(-9.40447e-05 1.34961e-06 7.31429e-24)
(-0.00405509 -0.00389384 -4.40556e-21)
(0.00011558 -0.000266914 4.2368e-22)
(-0.00012843 2.80637e-06 -2.13348e-21)
(0.034506 0.00162861 0)
(-8.93442e-05 -1.16368e-06 5.84741e-21)
(0.00214084 -0.187449 -4.05748e-20)
(-0.00161951 -0.00253994 0)
(-0.0944225 0.448312 2.46696e-21)
(0.00536231 -0.000779098 0)
(-0.244265 -0.112131 0)
(0.0426003 -0.000671686 1.41986e-21)
(-9.17669e-05 6.72043e-06 -1.97445e-21)
(-4.47607e-05 0.00803892 2.11039e-21)
(-0.00517319 0.00785339 2.10679e-21)
(0.000866919 -0.000189977 6.08613e-22)
(-0.00133213 0.0104434 -1.09977e-22)
(2.02396e-06 -0.000288789 1.95788e-21)
(0.000102846 -2.5688e-05 -1.66655e-21)
(-9.10223e-05 1.45403e-06 -2.87673e-21)
(-0.00573699 0.0580729 7.33662e-22)
(0.0302148 0.00438634 0)
(-0.00955885 -0.0032524 -6.14556e-22)
(-2.35055e-05 -0.000232116 -6.63509e-22)
(-6.03478e-05 4.63709e-06 1.18108e-21)
(0.0160271 -0.00705626 1.38222e-20)
(0.00170797 -0.00516899 0)
(-6.0324e-05 8.27253e-05 -2.19283e-21)
(-0.00328646 0.00232227 7.62909e-24)
(0.00076513 -0.000339887 0)
(-0.0220797 0.120537 0)
(-0.00126875 -0.0102734 1.40115e-20)
(-0.00846828 -0.0982883 3.34364e-21)
(0.164432 0.0906458 2.10773e-20)
(0.00137965 -0.00912822 5.93106e-23)
(-0.10565 0.0378979 -8.23065e-21)
(-0.00318413 0.00254527 -2.29856e-21)
(-0.00940064 -0.0381531 9.21077e-21)
(-0.00858977 0.136038 -1.95624e-21)
(0.00853418 -0.024886 0)
(-7.42181e-05 8.7417e-07 0)
(-0.00600192 -0.00477448 0)
(-0.284293 -0.23177 0)
(-4.39517e-05 0.00049088 3.09664e-23)
(-0.021608 0.0241199 1.11129e-21)
(0.0101663 -0.00463044 -1.68753e-21)
(-7.03316e-05 -2.6094e-06 -2.47549e-21)
(0.00803816 -0.0158204 3.14505e-23)
(-0.000112734 -1.36412e-05 0)
(5.53134e-05 0.0013109 0)
(-0.00010035 -0.000128122 -2.39823e-21)
(-0.146205 -0.056936 -3.94798e-20)
(-8.09923e-05 3.10797e-05 -4.00964e-21)
(-0.00804523 -0.00230887 2.4171e-22)
(0.00729502 0.0145561 -1.71676e-22)
(0.00357697 -0.00634324 -7.18064e-23)
(-7.21541e-05 -4.00577e-06 1.5711e-21)
(0.00800727 0.000995575 -2.25635e-21)
(0.00275136 -0.0190484 -3.21465e-21)
(-0.000331055 0.000194653 -1.11535e-21)
(-0.000159702 0.000477187 -3.46158e-21)
(-0.00173286 -0.0278535 8.06097e-21)
(0.00552061 -0.0180669 0)
(0.0976398 0.0603939 -1.99722e-20)
(0.124011 0.0531986 0)
(-8.661e-05 0.000106421 2.01202e-22)
(-0.000180108 -0.000318662 1.42016e-21)
(0.015762 -0.0149703 0)
(-0.0950014 0.0462684 -3.00571e-22)
(-7.87767e-05 0.000116738 -1.71528e-21)
(-0.00431085 0.0102627 1.76405e-21)
(-0.000178535 0.000214398 -1.40959e-21)
(0.0261422 -0.0154822 0)
(-0.00888291 -0.00220355 2.7305e-22)
(0.0213166 0.0251441 4.36683e-23)
(-0.0519331 0.0169349 -2.98176e-21)
(0.0260287 -0.0733235 2.48391e-21)
(0.000253863 0.00128725 -4.76014e-21)
(-0.0204189 -0.0299323 0)
(-7.11897e-07 8.25385e-05 -5.01487e-21)
(-0.000298189 0.000231039 0)
(0.00130343 0.0140469 2.18065e-21)
(0.0336558 -0.0124803 1.56158e-21)
(-7.39153e-05 3.2546e-06 7.89551e-22)
(-0.0385352 -0.0156681 3.01364e-20)
(0.000217352 0.00130745 3.42019e-21)
(0.0153319 -0.0722533 -6.87157e-21)
(-0.000264963 0.000114595 -2.622e-21)
(-0.0749703 0.0346388 0)
(-0.00224541 0.00318672 6.15253e-23)
(-0.0683246 0.0252271 0)
(0.000747205 0.000657437 -1.0602e-21)
(0.0495139 0.0544081 -3.15159e-21)
(-0.00307303 0.115611 -8.91135e-22)
(0.00929928 0.0166585 -8.42376e-23)
(-0.000166959 0.000187301 3.22845e-21)
(0.0364239 -0.0379547 0)
(5.49462e-06 -0.000157021 0)
(0.124819 -0.0139805 -1.23094e-20)
(0.0369597 0.0312898 -9.22676e-22)
(0.000594371 0.000914573 -1.07632e-21)
(-0.0901498 0.0638332 1.16879e-22)
(0.000472646 -0.000324418 -3.24377e-21)
(0.0354883 0.0128147 2.08808e-21)
(-5.13601e-05 9.04607e-05 1.61904e-21)
(-0.0720536 -0.0805131 0)
(0.0372241 0.0200574 -8.66763e-22)
(0.000475775 0.000610087 3.01113e-23)
(-0.258236 -0.267819 -8.20831e-20)
(0.0257987 -0.0548115 0)
(-0.000426833 0.000688198 -2.0892e-21)
(0.093094 -0.000772522 -5.05699e-21)
(-0.0149878 -0.00983962 4.087e-21)
(0.000274446 0.000420837 2.5361e-22)
(0.0374847 0.00413288 -3.37419e-22)
(-0.000253667 -0.000276275 -1.35676e-21)
(0.0347226 -0.0538045 -1.1016e-20)
(0.0126159 -0.0249445 -7.08981e-21)
(-0.000114768 -1.02546e-05 0)
(-0.000538715 0.000991024 2.6058e-21)
(-9.84683e-05 -0.000259569 -8.38875e-22)
(-0.000124659 3.13853e-05 -1.95176e-21)
(-0.000116711 -4.50643e-05 1.09706e-23)
(7.57392e-06 1.76925e-05 4.86182e-21)
(0.154393 0.143831 0)
(0.0124993 -0.151101 2.98725e-20)
(-0.000282877 0.000166488 -1.30658e-21)
(4.70697e-05 7.09601e-05 2.51382e-21)
(-3.74496e-05 0.000149137 1.32496e-21)
(-0.00407947 0.00865156 3.76265e-21)
(0.00348824 0.11298 0)
(-0.000133437 -5.31828e-05 0)
(-8.54572e-05 -1.72645e-05 0)
(-0.000414782 -0.00992379 -9.33356e-21)
(-0.0773872 0.0241529 0)
(-0.000122572 2.30735e-05 -2.53157e-21)
(0.0003762 0.000574302 -2.50423e-23)
(0.148874 0.121793 0)
(-0.073793 -0.211957 1.83765e-20)
(-0.0045823 -0.0145395 0)
(0.0180137 -0.00565486 0)
(-0.00675068 -0.038131 -1.93492e-21)
(-6.19044e-05 -0.000187835 2.83479e-21)
(-0.000123984 -1.63591e-05 -1.53514e-21)
(0.00700028 0.00160928 1.79662e-21)
(-0.000116148 -4.58163e-05 1.06423e-23)
(-0.000134234 -2.84866e-05 1.561e-21)
(-8.83746e-06 -0.000276555 3.59474e-21)
(-0.00012248 1.24247e-05 -2.87592e-23)
(-4.10001e-05 -0.000156992 0)
(0.139733 -0.0445707 -7.04284e-22)
(-0.000290771 -0.000290658 -1.15996e-23)
(-0.00485124 -0.0121886 0)
(0.0404156 -0.00107274 0)
(-0.000864399 0.00785762 0)
(-7.92623e-05 5.07968e-05 -5.12071e-21)
(-0.000119331 6.28121e-05 0)
(0.0843074 -0.0101466 0)
(0.00606676 -0.000465642 -4.27124e-22)
(0.0319799 -0.00235375 -1.27828e-20)
(-0.000129489 -0.000112931 0)
(-8.6548e-05 6.26486e-05 2.22037e-21)
(-4.66995e-06 -0.000239235 0)
(-6.47791e-05 -6.1375e-05 1.93704e-21)
(0.000343149 0.00114378 -9.2211e-22)
(0.000758234 -0.00018912 2.4927e-21)
(0.147581 0.133039 0)
(-0.00214874 0.00776572 0)
(0.0119848 -0.0154528 -1.25394e-21)
(-8.45399e-05 7.12813e-05 0)
(-2.12977e-05 0.00204265 2.36056e-21)
(0.00179156 0.00883531 -8.44743e-22)
(-0.000398961 -0.000496114 0)
(-0.0206238 0.0362892 0)
(0.104977 0.071503 3.8718e-21)
(-0.000176719 0.000209738 1.50095e-21)
(-0.234455 -0.393688 3.84715e-20)
(-6.6461e-05 6.80279e-05 -2.643e-22)
(-9.17923e-05 -1.71511e-05 -3.43285e-21)
(-6.73494e-05 0.000132558 1.36235e-21)
(0.000372738 -0.000455945 3.07446e-21)
(-8.82549e-05 4.5291e-06 -9.49709e-22)
(-9.50887e-05 -1.35548e-06 0)
(0.0163724 -0.00744226 -1.67775e-21)
(0.170696 0.0743962 2.27297e-20)
(-9.00132e-05 -1.14532e-05 0)
(-0.246221 -0.0721929 1.4075e-20)
(0.00135042 -0.0102855 0)
(-5.93744e-05 1.80616e-06 -2.63171e-21)
(-2.31247e-05 0.0100496 1.95565e-21)
(-0.00189902 -0.000562721 -2.05098e-21)
(0.0908768 -0.0334219 1.33076e-20)
(-0.000490201 0.00115292 3.02464e-21)
(0.00720047 -0.0167158 -4.57392e-21)
(0.0445718 -0.0452406 3.8555e-21)
(0.0423351 -0.0503772 -2.03343e-21)
(0.000672943 -0.000375134 4.28666e-21)
(-0.00205123 -0.00883225 3.5198e-22)
(0.0039643 0.00992743 0)
(-0.000464394 0.000817612 3.00182e-23)
(0.0833258 0.0614809 0)
(-7.72901e-05 -8.39634e-06 -1.07005e-21)
(-0.000252488 1.49696e-07 0)
(-0.000362199 0.000221978 -2.56049e-21)
(-0.000367257 0.00101859 2.05284e-21)
(0.00630131 -0.00483873 6.01076e-22)
(0.0185714 -0.0171763 2.82749e-21)
(0.00306839 0.00303608 4.02167e-21)
(0.00184669 -0.00355725 0)
(-0.00408743 0.00457749 4.56784e-21)
(0.027602 0.0398272 0)
(-0.0155803 -0.0193668 3.93915e-22)
(-0.000288735 0.000128278 1.41699e-21)
(0.130859 0.0599245 -3.96464e-21)
(-0.001854 0.0031791 1.89242e-21)
(-0.00182703 -0.00227437 -7.52778e-22)
(0.132052 0.00819213 1.47729e-20)
(-0.000118156 -1.41154e-05 3.38596e-21)
(-0.0180955 -0.0210057 -4.88035e-21)
(0.00828383 0.0594768 0)
(-7.92535e-05 -1.53271e-05 9.54165e-24)
(0.0262593 -0.00364721 9.21343e-22)
(-9.81944e-05 -1.54332e-05 0)
(-5.94254e-05 -4.35119e-05 0)
(-0.00322737 0.00923869 -3.86387e-21)
(-0.000140712 -0.000104847 0)
(-0.000119253 -2.66917e-06 1.43145e-21)
(-0.0122031 0.055636 0)
(0.0229922 -0.00261956 0)
(-0.194615 -0.283126 -7.62266e-20)
(-0.000111936 -2.54524e-05 -1.74797e-21)
(-0.00030745 0.00020503 -2.88637e-21)
(-0.00129574 -0.00295192 1.19443e-21)
(0.0781253 0.0846981 8.4809e-21)
(0.045371 0.137146 6.31792e-20)
(-0.000293199 5.61307e-05 -2.75227e-21)
(-0.000255121 7.23177e-05 -1.46803e-21)
(-0.000105789 -1.73303e-05 0)
(-0.0116101 0.0122497 -3.57567e-21)
(-0.0693797 0.0828899 -1.5365e-20)
(-1.38836e-05 0.000136228 -2.49248e-21)
(-8.12083e-05 4.849e-06 3.3521e-22)
(-0.000572588 0.000129041 -6.68465e-21)
(-0.000125373 3.74208e-05 5.53944e-21)
(0.00461195 0.0051555 0)
(-0.0025483 -0.000229585 0)
(-7.26231e-05 -5.74481e-06 1.87218e-21)
(0.00330042 0.00347786 -4.17306e-21)
(-7.83576e-05 -1.53152e-05 1.84039e-21)
(-9.10906e-06 0.0001296 7.59939e-21)
(-0.000118757 -0.000222465 -4.15718e-22)
(-0.0227715 -0.0750989 -2.05681e-20)
(-5.49409e-05 1.70709e-05 -2.77856e-21)
(-0.000505053 0.000459276 -8.9357e-22)
(0.00029502 -0.000159544 0)
(-0.000130867 0.00197754 4.08033e-21)
(0.00421499 0.0121921 1.06732e-21)
(0.0356709 -0.00148869 -5.41029e-21)
(-0.0151544 0.0167258 0)
(0.0126241 -0.122064 0)
(-8.86247e-06 -3.76431e-05 0)
(0.0225229 0.0358332 -4.0486e-22)
(0.00942001 -0.0103472 -6.11257e-21)
(0.136063 -0.0556366 0)
(0.0387243 -0.00112751 9.43618e-21)
(-9.81994e-05 -3.01204e-05 2.03917e-21)
(-0.000113282 9.0293e-05 0)
(0.00273829 -0.00450899 -9.97174e-22)
(-0.000119405 0.000144319 0)
(-0.0119201 -0.0521339 -3.58086e-21)
(-0.000102353 9.6606e-05 0)
(-0.0551615 0.30864 0)
(-0.00127677 -0.000898752 -1.41592e-21)
(-0.00119074 -0.0195563 -1.07387e-20)
(0.0146308 -0.0920511 6.29427e-21)
(-0.000205751 0.000845682 -5.09104e-22)
(-0.022187 -0.120143 -1.1328e-20)
(-8.9663e-05 -3.50779e-05 5.49427e-21)
(-0.000527048 -0.000367765 -7.60405e-21)
(-7.71048e-05 2.86264e-06 2.93024e-21)
(0.000582519 0.00172414 5.65578e-21)
(0.00064183 -0.0189622 -7.99807e-21)
(-0.00013504 -8.29119e-05 3.77532e-22)
(-0.00162014 -0.0195747 -1.79662e-20)
(-8.14448e-05 4.09948e-07 2.48425e-22)
(-6.30146e-05 -1.61909e-06 1.4148e-21)
(-8.99835e-05 0.000123478 0)
(0.0169986 -0.0162497 -2.67147e-21)
(0.00408069 0.00665639 -1.97977e-21)
(-8.40335e-05 -1.54536e-05 -1.28636e-21)
(0.00732366 -0.00859235 0)
(-0.00112991 0.00978955 4.04879e-22)
(-0.00225614 -0.342738 -9.09039e-21)
(-0.00652741 -0.0490246 0)
(0.0163679 -0.00630876 -5.92974e-21)
(0.0981779 -0.0314808 -6.23498e-21)
(-5.41657e-05 1.02387e-05 3.25681e-21)
(0.0213332 -0.00425924 3.50322e-21)
(-0.000110035 2.76135e-06 2.26602e-22)
(0.170886 0.113214 0)
(0.0637932 0.0438853 0)
(0.000713806 0.00241385 -1.50749e-21)
(-0.000225011 0.00446066 9.34726e-22)
(-8.73018e-05 -4.29163e-06 9.18361e-22)
(-0.00204409 0.00299507 0)
(-0.00020667 0.000784756 -1.90445e-21)
(-0.000146024 -6.84e-05 -3.8834e-22)
(-7.46687e-05 1.2281e-06 0)
(-8.09796e-05 2.48882e-06 1.30768e-21)
(-0.000314527 -0.0466608 4.3608e-21)
(-0.00012581 -6.02312e-05 1.03974e-21)
(0.0019491 -0.000397603 -5.47654e-21)
(-0.00024879 -3.22538e-05 0)
(-8.41081e-05 -2.36224e-05 3.12161e-21)
(-9.25429e-05 -3.54402e-06 2.07346e-21)
(0.0032028 0.0869891 -3.84423e-23)
(0.044212 -0.0126127 -3.20794e-21)
(-0.0684617 -0.138525 1.69028e-20)
(0.00772445 0.00304467 2.65578e-21)
(-0.00240642 -5.14195e-05 0)
(0.0792647 0.00289722 -5.27393e-22)
(0.0128669 -0.0118263 1.3411e-20)
(-4.85103e-05 9.68419e-05 -1.66091e-21)
(0.0875523 0.0676929 0)
(-7.26485e-05 4.47071e-06 -2.69839e-21)
(-0.00436351 -0.0029433 1.09849e-20)
(-0.000125048 0.000153418 -3.83507e-21)
(0.0368681 -0.0377066 -1.15917e-21)
(-0.000125765 2.02638e-05 -2.20882e-21)
(0.00612011 0.00420645 0)
(-0.000130673 9.10609e-05 0)
(0.00619774 -0.315581 2.16037e-21)
(-0.00274705 0.00337386 2.39458e-21)
(-0.00765768 -0.0623741 3.70762e-21)
(-8.40781e-05 6.19578e-08 -2.29999e-23)
(-0.00330022 0.00273682 1.45504e-21)
(-0.000216558 5.48426e-05 0)
(-7.47127e-05 -2.10827e-06 -1.35303e-21)
(-0.0219375 -0.0359493 3.32561e-22)
(0.0872239 -0.108694 -3.07019e-21)
(-0.000395983 2.79211e-05 -7.50115e-22)
(0.0253236 0.0266002 2.46481e-23)
(-6.10095e-05 1.73426e-06 -1.75212e-21)
(-0.000446067 0.00119463 0)
(-7.86092e-05 -1.42713e-06 0)
(-0.017777 -0.0391423 -2.03098e-20)
(-0.000130723 -6.38794e-05 -9.93573e-22)
(-0.00760654 0.00643772 0)
(-0.000109949 7.26112e-05 1.02945e-21)
(-0.000322615 2.33381e-06 -5.38273e-21)
(0.0351688 -0.0101625 0)
(-8.50605e-05 -2.98505e-06 -2.88335e-22)
(0.0236951 0.0163722 3.19369e-22)
(-5.95821e-05 -1.97118e-06 -2.56997e-23)
(-7.62551e-05 1.63903e-05 0)
(0.170583 0.093365 1.81196e-21)
(0.00202619 -0.000669614 0)
(-0.000293901 2.2018e-05 1.58415e-21)
(0.0415367 -0.000196018 0)
(-0.00236624 -0.0186839 1.64688e-20)
(-0.0572538 0.0893296 -1.9881e-22)
(0.00498709 0.0638137 0)
(-9.00219e-05 -4.94448e-05 -3.5816e-21)
(-0.00877073 -0.00534738 -3.56875e-21)
(-0.0304491 -0.0763263 4.03e-21)
(-0.00879471 -0.0151769 -1.72754e-22)
(0.00588161 0.00136963 0)
(0.000635202 0.00100838 1.99551e-22)
(0.00796015 0.0043367 -5.10531e-21)
(-6.11977e-05 -3.24445e-06 2.69787e-21)
(-6.41815e-05 -0.000127245 0)
(0.00231332 -0.0124869 6.13947e-23)
(0.00472633 0.0149615 0)
(-0.0004697 -0.00101503 3.98953e-22)
(0.143366 0.00227927 1.00368e-21)
(-0.00243667 0.00367368 -2.92925e-21)
(-0.0136399 0.152267 -9.39797e-21)
(0.0590897 0.150906 7.92035e-21)
(0.032186 -0.00146739 0)
(-0.00659938 -0.000254182 2.26756e-21)
(0.0319533 0.0249228 0)
(0.00977013 -0.00936363 -1.20976e-20)
(7.21191e-05 -9.59906e-05 0)
(0.0120407 -0.0141999 2.3191e-21)
(0.00588578 -0.0123879 0)
(-7.46e-05 6.54102e-06 0)
(-6.5907e-05 6.18846e-06 2.06267e-21)
(-9.00493e-05 -2.85288e-06 -6.04087e-22)
(-0.00135146 -0.00401276 0)
(-0.000112122 4.34572e-06 0)
(0.0205163 -0.00439445 -3.84246e-21)
(8.91119e-05 0.00145807 -2.67905e-21)
(-6.93416e-05 -1.38678e-05 0)
(0.00935659 -0.00349267 1.74785e-21)
(-8.46763e-05 1.34669e-06 3.90329e-21)
(-0.00180711 -0.0949203 5.62526e-21)
(0.000290407 0.00019768 0)
(-1.79929e-05 0.000110751 0)
(0.024633 -0.00218737 0)
(0.00358664 0.00999275 -2.58578e-21)
(0.00293995 -0.188071 6.98463e-22)
(-0.000168049 6.45282e-05 0)
(3.53299e-05 0.000701317 0)
(-9.27603e-05 4.03066e-05 5.14887e-24)
(-0.00024191 0.000148047 1.38393e-21)
(-0.00120927 0.00121854 1.29694e-22)
(-0.000134359 -8.04069e-05 -3.58612e-21)
(0.0375051 -0.0018869 1.11545e-20)
(-0.0025322 -0.00344333 0)
(-0.0291516 0.26 9.98679e-22)
(0.0122812 -0.168506 1.9479e-21)
(0.0133175 -0.0111984 -4.61192e-21)
(0.016847 -0.00596909 0)
(-0.000324084 0.000172256 0)
(-5.87989e-05 -8.76604e-08 3.31225e-21)
(-0.000259575 8.60318e-05 5.76755e-21)
(0.0286834 -0.00708431 9.40138e-21)
(-0.204924 -0.237188 0)
(-0.00133483 -0.00117922 1.02647e-21)
(0.0336498 -0.0026786 0)
(-0.0619116 0.0651318 6.17167e-21)
(-7.87202e-05 3.04147e-05 4.83396e-21)
(-4.577e-05 0.000102151 0)
(0.000201111 0.00129253 -1.8793e-21)
(0.00436363 -0.017922 0)
(9.36611e-05 -0.162189 0)
(-0.00321432 0.00351016 7.8639e-22)
(-0.000236007 0.00012463 -1.19735e-21)
(-0.00054223 0.000430374 0)
(-0.00508046 -0.00279565 -1.14601e-20)
(-0.00236542 0.00206648 2.08979e-21)
(0.0212433 0.0210187 -4.85984e-22)
(0.000114642 0.00146196 0)
(-0.00042147 0.000103476 1.77763e-21)
(-0.000217172 -4.14821e-05 2.60882e-21)
(-6.1731e-05 -1.34543e-06 -3.3868e-21)
(-0.0012489 0.00112614 0)
(-0.00557827 0.00352406 -4.5338e-21)
(-0.0140247 -0.010911 1.66151e-20)
(0.00122431 -6.49799e-05 -2.25735e-22)
(-0.00470085 0.00167955 1.29983e-21)
(0.0357354 -0.00213004 1.499e-20)
(-0.000430208 -0.000775629 0)
(-0.0727367 0.139556 8.51082e-21)
(0.000501276 0.000852497 8.69472e-22)
(-0.0111631 0.0114012 7.13065e-22)
(-0.00139967 -0.000424258 7.46826e-22)
(-0.00869806 -0.015011 -7.36824e-21)
(-7.07867e-05 5.21008e-06 -1.9502e-21)
(-0.000522263 0.000106563 3.27184e-21)
(0.0434577 -0.01241 7.0927e-21)
(0.0114373 -0.0283844 5.87722e-22)
(-0.000113783 0.000123546 -1.13161e-21)
(0.00110435 -0.000267463 -6.54148e-22)
(-0.000117532 7.24844e-07 -8.04463e-22)
(-0.000116782 0.000123853 -2.43312e-21)
(-0.000115367 0.000135142 -3.32913e-22)
(0.0150814 -0.00733134 0)
(-0.000990741 0.0097078 0)
(-0.00424089 0.0839434 1.06543e-21)
(0.0240688 0.0194452 0)
(-8.44204e-05 -7.8367e-05 -3.71906e-21)
(-0.0137477 -0.0133423 5.33351e-21)
(-0.00016703 0.00106194 -4.88962e-21)
(-0.000402781 0.00103047 -3.31443e-21)
(0.0284956 0.0239297 0)
(-0.000184408 -0.000353127 1.41993e-21)
(-0.000294801 -0.000440952 -3.7348e-21)
(-0.0546432 -0.231405 -1.6261e-19)
(-8.09975e-05 2.70533e-05 -2.10249e-21)
(0.00389551 0.00909891 0)
(-0.0285304 0.0241038 -2.17346e-21)
(0.00010913 0.00148485 0)
(-5.61997e-05 -8.83146e-06 -1.51395e-21)
(-8.35939e-05 4.07464e-05 7.95086e-21)
(-4.79559e-05 -9.85707e-05 0)
(0.00681338 -0.00475574 -5.49668e-23)
(-0.000191089 -9.138e-06 1.41326e-21)
(0.000367819 0.000410423 3.38321e-23)
(0.000111021 0.00131789 0)
(-0.000135024 -6.16597e-05 4.82851e-21)
(-7.134e-05 6.51352e-05 1.06134e-21)
(0.0087182 0.0382087 -2.91669e-23)
(0.0219729 -0.181139 8.45795e-20)
(0.0281212 0.000180508 8.38903e-22)
(-0.143424 -0.28253 -3.78775e-20)
(0.0228279 -0.0130817 0)
(0.0188848 -0.0137444 0)
(-0.000113554 0.000161713 4.16452e-21)
(0.00221758 0.00369102 1.33874e-21)
(0.0655758 -0.0156467 -7.10269e-22)
(-2.53437e-05 0.00265126 -2.83108e-21)
(-0.00919039 -0.028654 2.22858e-21)
(-7.3999e-05 -4.03376e-06 9.83444e-22)
(-5.98882e-05 3.63853e-06 2.39861e-21)
(-0.000170185 1.41973e-05 -1.60696e-21)
(0.00165221 0.000158374 2.05427e-22)
(0.0384754 -0.00520876 -2.47287e-21)
(-5.11479e-05 1.11231e-05 1.80477e-23)
(-0.0243079 0.00221676 8.64396e-22)
(-0.000537109 -0.000362512 -1.70842e-21)
(0.0647937 0.013959 0)
(0.000566217 0.000736175 0)
(-0.000438264 0.00113404 -3.38274e-21)
(-0.00012697 -0.000141179 -1.82615e-21)
(0.00960209 0.0032487 5.99532e-21)
(-0.00503249 -0.00370479 3.98372e-21)
(0.0653916 -0.0107178 -1.00645e-20)
(0.0321515 -0.00303556 7.67054e-22)
(-7.34533e-05 -2.45817e-06 5.37511e-22)
(-0.016797 -0.0909413 1.33249e-20)
(-0.000191382 -4.23878e-05 -1.00798e-21)
(0.0294189 -0.00468203 1.00253e-20)
(-0.000155201 0.000775279 0)
(0.0536721 -0.00497185 -3.32779e-22)
(-0.00118388 0.00196039 6.44551e-23)
(-9.61028e-05 -0.000128826 -2.09016e-21)
(-0.00011052 0.000116086 -8.60949e-24)
(0.00353523 -0.0227843 0)
(-0.00146584 0.000983355 1.45693e-21)
(-0.0364618 0.106528 5.46407e-22)
(-0.0591985 -0.191989 -3.56418e-20)
(-0.000114706 0.000117973 0)
(0.00012737 0.00149469 0)
(-6.64931e-05 -3.34019e-05 0)
(0.00123384 -0.00731851 -2.29901e-21)
(-0.0651245 -0.0786938 -8.91848e-21)
(-6.746e-05 -5.38573e-05 -7.53079e-23)
(0.132308 -0.035446 3.04592e-21)
(-0.000459998 0.000552799 0)
(0.0586271 -0.0114308 0)
(0.016313 -0.000823813 1.69898e-22)
(-0.0844731 0.0567248 1.1262e-20)
(-5.58126e-05 8.49082e-05 0)
(-6.25348e-05 -8.28412e-06 -3.71972e-21)
(-0.0585054 0.0216339 -3.83238e-21)
(-8.71583e-05 -6.93506e-05 1.86524e-21)
(-0.000270425 -7.91541e-05 -2.40762e-21)
(0.000177505 0.000317152 1.16067e-21)
(-0.000151091 2.08976e-05 -1.40658e-21)
(0.000162948 0.00128343 5.05906e-22)
(-6.08419e-05 8.24163e-05 -6.67735e-22)
(0.0743712 0.00545623 -2.24204e-21)
(-0.000461868 4.30062e-05 -1.86435e-21)
(-0.0161466 -0.0113671 -2.72924e-20)
(0.0317689 -0.0041291 -1.29513e-21)
(0.0245714 0.0866395 0)
(0.0151287 -0.0145271 2.55124e-21)
(-0.253478 -0.410789 -4.53503e-20)
(-0.0214958 -0.0096909 2.79922e-20)
(-0.0514552 0.123616 0)
(-9.31507e-05 6.62057e-06 -3.8914e-21)
(-0.000858712 0.000694916 -1.35986e-21)
(-0.00012606 4.81798e-05 -2.31571e-21)
(-5.73656e-05 0.000117953 1.4325e-21)
(-0.000107157 -1.50319e-05 0)
(-0.0013943 0.00110552 -3.3164e-22)
(-0.000127999 -6.69205e-05 1.16053e-21)
(0.0176135 0.108321 4.66546e-21)
(-0.00027931 -4.95059e-05 3.70999e-21)
(0.00207021 -0.0381381 6.91357e-21)
(-0.000191891 8.96825e-06 0)
(1.79954e-05 0.00142604 -4.71373e-21)
(-0.0558883 -0.00182541 0)