/*--------------------------------*- C++ -*----------------------------------*\
| =========                 |                                                 |
| \\      /  F ield         | OpenFOAM: The Open Source CFD Toolbox           |
|  \\    /   O peration     | Version:  v2012                                 |
|   \\  /    A nd           | Website:  www.openfoam.com                      |
|    \\/     M anipulation  |                                                 |
\*---------------------------------------------------------------------------*/
FoamFile
{
    version     2.0;
    format      ascii;
    class       surfaceScalarField;
    location    "100";
    object      ddtCorrDdt0(phi);
}
// * * * * * * * * * * * * * * * * * * * * * * * * * * * * * * * * * * * * * //

dimensions      [0 3 -2 0 0 0 0];
oriented        oriented;


internalField   nonuniform List<scalar> 
20642
(
0.000524722
-0.00187964
0.00135476
-0.00970829
0.00879973
0.000908533
-7.52174e-05
0.00244849
-0.00237326
0.000102297
-4.63816e-05
-5.59172e-05
-0.00370601
0.00608254
-0.00237651
-0.00395543
-0.00575289
0.000313856
-0.00019934
-0.00011452
-0.0261
0.0223168
0.00378323
-7.60156e-05
-0.000133261
0.000209274
-0.000482941
-0.000706313
-0.0157708
-0.0103292
-9.27535e-05
3.36813e-05
5.90694e-05
-3.79635e-05
3.79625e-05
0.0234984
0.0152414
-0.0387399
-0.000607286
-0.00212867
0.00273595
0.00122247
-0.000697769
-4.60938e-05
4.63042e-05
-2.09475e-07
0.0203384
-0.0141475
-0.00619094
5.36679e-05
-0.00191758
0.00186392
-0.00322776
-0.00170726
0.00493491
-0.000184017
-0.00229671
0.00248071
3.78389e-06
-5.62236e-05
5.2427e-05
-0.000162413
-0.000381007
0.000543419
7.71007e-05
-7.33204e-05
0.000103174
1.23186e-05
-0.0001155
0.00120451
-0.00318785
0.00198332
-0.068552
0.0883768
-0.0198249
-0.000482946
0.00854801
-0.00805484
-0.000493201
3.48681e-05
-0.00014817
0.000113301
-0.000185966
-0.000297041
0.000242045
-0.000328563
8.65203e-05
-2.22362e-05
-4.59748e-05
6.82067e-05
-0.00125566
0.000657544
0.000598125
0.000183027
4.62063e-05
-0.000229236
0.0054011
0.0169157
-0.000187656
-0.000244046
0.000431692
-5.40306e-05
7.75441e-06
4.62761e-05
0.000226326
8.75304e-05
0.00177779
-0.00314536
0.00136759
4.62234e-05
-3.23415e-05
-1.38822e-05
0.000406371
-0.000176599
-0.000229769
0.000266056
-7.17949e-05
-0.000194263
0.00163944
-0.000556374
-0.00108306
0.000959871
0.000679565
0.00389139
-0.0105368
0.00664517
0.00196603
-0.00215005
-0.0195183
0.00443692
0.0150813
-0.0168515
0.0632428
-0.0463912
0.000199933
-1.69078e-05
-5.47802e-05
-3.79766e-05
-0.00310378
0.00684441
-0.00374062
0.000927807
0.000101037
-0.00102884
8.63899e-05
2.3516e-05
-0.000109915
4.574e-05
-0.000121291
7.5538e-05
-0.00528551
0.00218174
-0.000185976
0.00044564
-0.000608052
1.58765e-05
0.000390494
0.014069
-0.0101777
-0.0153598
0.0274806
-0.0121206
-0.00436309
-0.000606761
0.00496983
-3.68232e-05
5.44585e-05
-1.76353e-05
0.000111213
-8.04117e-06
0.00416507
-0.000342741
-0.00382233
-0.00767585
0.00241009
0.00526576
-0.00979099
0.0109819
-0.00119096
-0.0191493
0.0245504
0.00456753
0.000370037
0.000184886
-0.000554927
0.00194595
0.00225818
-0.00420411
-0.000928114
-0.000327536
-2.64378e-05
7.31598e-05
-4.67257e-05
0.000188015
-0.000172135
-0.000259136
-0.00203758
0.000101225
-9.42498e-05
-6.97898e-06
-0.000309057
0.00131484
-0.00100578
-5.00183e-05
0.000238034
2.88333e-05
7.2385e-05
-5.87955e-05
3.65568e-05
9.34073e-05
-0.000288356
0.000194937
4.11419e-05
-3.83363e-05
-2.80588e-06
4.02185e-05
-6.66576e-05
-0.00337412
0.00133725
0.00203688
3.72011e-05
2.52834e-05
-6.24844e-05
-0.0100354
-0.0140321
0.0240675
-0.000125494
0.000367538
6.44935e-05
-6.47858e-05
2.91855e-07
0.00238703
-0.000609255
-3.6512e-05
-9.58213e-06
4.5054e-05
-2.66965e-05
-1.83577e-05
0.000164041
-0.0410357
0.0241842
-3.66047e-06
-3.41808e-05
3.78398e-05
0.000141506
-0.000157148
1.56358e-05
-0.00124299
-0.0717446
0.0460714
0.0256732
-4.42608e-05
4.44547e-05
-1.97459e-07
1.02248e-05
5.42682e-05
-0.021423
0.023031
-0.00160818
-4.83778e-05
4.73036e-05
1.07421e-06
-4.72626e-05
-1.11521e-06
-0.000167624
0.000261024
-2.96106e-05
3.51886e-05
-5.57827e-06
-0.00125813
0.000949072
0.000374404
0.000734148
-0.00110855
0.0072797
0.00142607
-0.00870588
0.00542141
-0.0097845
0.000573839
-0.000750436
-0.0896018
0.0210497
-2.82256e-05
1.83784e-05
0.00183145
-0.0011739
-0.00617516
-0.00187971
-0.000198247
0.00436332
0.000194606
-0.000178913
-1.56974e-05
0.0017421
-0.00168843
-4.27338e-05
-1.6099e-05
5.8832e-05
0.000268857
-0.00211746
0.00184862
5.1562e-05
4.22532e-05
-9.38177e-05
9.47144e-06
3.16699e-05
-4.11954e-05
-2.60871e-05
6.72827e-05
0.0106531
0.000328855
-0.00109644
0.00273118
-0.00163474
-0.00155997
0.000158186
0.0014018
-0.00203201
-0.00134209
-8.65797e-05
0.000107922
-2.13421e-05
0.00279738
-0.00305652
4.0462e-05
2.39019e-06
-4.28521e-05
-0.00198087
0.000884427
-0.000295266
8.63443e-05
0.000208918
-0.0211653
-0.000469661
0.0216351
0.000531985
-0.00116687
0.000634884
4.02228e-05
0.00015438
0.000157687
0.000399035
-0.000556715
-0.0846031
-0.00499855
0.0217913
-0.0299785
0.00818741
0.00195815
-0.00200498
4.68276e-05
0.00204494
-0.00392887
0.00188391
-5.40317e-05
0.0336575
-0.00551982
-0.0281377
-0.000118845
6.88275e-05
-0.00110224
0.00147664
6.92883e-05
-5.72086e-05
-1.20831e-05
-1.14292e-05
5.84217e-05
-4.69951e-05
-0.00200686
0.00269949
-0.000692622
0.00393665
-0.00199072
-0.0250722
0.00916581
0.0071249
-0.0162909
0.0001152
-2.88128e-05
-0.00169356
0.00194716
-0.000253606
-4.68585e-05
6.00546e-05
-1.31962e-05
-5.28895e-05
4.14593e-05
-0.00927666
-0.0624678
-5.77082e-05
0.000430813
-0.000373104
-3.45157e-05
4.90551e-06
0.00111723
-0.00094086
-0.000176373
5.4164e-05
-5.4469e-05
3.04855e-07
-5.67246e-05
1.39909e-05
3.471e-05
2.2105e-05
-5.68177e-05
0.00598387
0.000297299
-0.0062811
0.00147219
-0.000493133
-0.000979081
0.0318615
0.0106934
-0.0115226
0.000829182
-0.0418144
0.0148426
0.0269715
0.000927809
-0.0136858
0.00231326
0.0113727
4.03146e-05
8.45903e-06
-4.87737e-05
0.00494809
-0.00290316
-0.000163208
0.000127289
3.59146e-05
0.000970297
0.000105387
-0.00107568
-0.000247051
-0.0224746
-0.00408031
0.0265551
-0.00256654
-0.000886416
0.00345296
-5.92147e-05
1.34072e-05
4.58076e-05
4.55074e-05
5.67886e-05
-0.00435008
0.00806431
-0.00371423
-8.5443e-05
-0.000209825
0.000912786
0.000559391
0.00023823
-0.000194831
-4.34005e-05
-8.61086e-05
-9.63526e-05
4.15706e-05
0.00729568
-0.00631267
-0.000983043
0.00244574
-0.00217687
-0.0261067
0.00494141
-4.9821e-05
-4.65326e-05
0.00753898
-0.000243339
-0.00010209
0.000136959
0.00984666
-0.0198821
-0.00482377
0.00225722
0.0015739
-0.000614022
0.00410829
-0.00508445
0.000976221
0.00118129
0.00149193
-0.00267331
-5.77003e-05
5.40379e-05
0.00132907
0.000126514
-0.00145558
0.000390531
-0.000375084
-1.54533e-05
0.000994555
-0.000462568
-0.00012788
0.000174085
-0.000280147
0.000222443
0.0014587
-0.00156525
0.000106548
-0.000152845
-0.000357773
0.00051062
0.00210698
-0.000148834
-0.000337276
0.000383279
-4.6001e-05
-0.0758259
0.0338329
0.041993
0.00149447
0.00246275
-0.00395724
0.000693473
-0.000160039
0.00249434
1.45782e-05
-0.000302934
5.46566e-05
-1.1908e-05
-4.27479e-05
0.0123997
-0.00661173
-0.00578795
0.00893076
0.00346892
0.0136028
0.000438231
-0.000280542
-0.00272437
-0.00259644
-0.0027809
0.00537739
-7.69338e-05
3.1607e-05
4.53251e-05
-5.81694e-05
2.40926e-06
5.57606e-05
-5.44271e-05
-3.74124e-06
-0.0108142
0.00427197
-0.00606447
0.00179253
-0.00930665
0.00947733
-0.000170768
-2.55024e-05
-8.8925e-06
3.43957e-05
-4.3454e-05
6.63081e-06
0.0120381
-0.0966413
0.00143011
2.75411e-05
-4.9763e-05
2.22224e-05
4.97879e-05
-2.22458e-05
2.35266e-05
2.26966e-05
-5.30956e-05
-1.33151e-06
-4.68656e-05
-6.22854e-06
-0.000496069
-0.000432026
-0.014586
0.00463828
0.00994775
-0.000116018
5.42454e-05
6.17644e-05
-1.211e-05
-3.91136e-05
5.12241e-05
0.00220031
0.00109644
-0.00329675
-0.000242447
-0.00060537
0.000847817
2.51184e-06
4.11358e-05
-4.36472e-05
-3.07332e-05
5.23159e-06
-0.0390896
-0.0367363
0.000184267
-0.00139892
0.00121466
-0.0020407
0.00280683
-0.00540328
0.00083563
-0.00690215
0.00606653
1.88823e-05
5.04038e-05
-0.0113204
0.0136337
-0.000905405
0.00310571
-0.0061753
1.30289e-07
-0.000310176
0.00126394
-0.000953763
-0.000322986
-1.42858e-05
-0.000983194
4.93996e-05
-7.52618e-05
2.58597e-05
4.2557e-05
-0.00151497
0.00147241
0.00374069
4.42236e-05
-0.00378493
-0.000125527
4.1417e-05
8.41038e-05
-3.23415e-05
2.46326e-05
0.00452501
-0.00120943
-0.00331558
0.000106556
-0.000170828
6.42648e-05
0.000187417
0.00136474
-0.00155215
0.11752
-0.0160361
-0.101484
-0.00021441
0.000143294
7.11199e-05
4.92278e-05
5.60775e-07
0.000236229
0.000194582
4.37742e-06
4.48508e-05
9.16526e-05
-3.14193e-06
-3.48221e-05
-0.000506588
0.000987898
-0.000481321
-0.000162387
-5.2024e-05
0.000117597
0.00180048
-0.00135632
0.00863595
8.22241e-05
3.0231e-05
-0.000112461
-0.00203652
0.0015628
0.000473733
-0.00571585
-0.0125662
0.0182818
6.24541e-05
1.38468e-05
-7.62986e-05
0.012433
-0.0191577
0.00672464
0.00156904
-0.00138162
-1.89025e-05
8.13583e-05
0.000680241
-0.000310202
0.00018718
-8.06239e-05
0.00397634
0.00200754
-5.89392e-05
-2.75476e-07
0.000342707
-0.00189215
0.00154943
-3.16398e-05
-9.38927e-05
4.80933e-05
-6.8707e-05
2.06099e-05
0.00354748
-0.000240753
-0.00330671
-4.93622e-05
5.23435e-05
-2.98304e-06
-0.0224016
-0.0194128
0.000627115
-0.000728864
0.000101739
-0.00283656
0.000829705
0.0447961
-0.0636658
0.0188697
0.00200972
4.31853e-05
-4.06732e-05
-0.00088806
0.00145829
-0.000570232
0.00533928
-0.0027118
-0.00262747
-0.000270581
8.76257e-05
0.000182949
-6.29619e-05
-0.00364305
8.47306e-05
-5.58997e-05
-4.36378e-05
1.13401e-05
3.22964e-05
-3.06677e-06
-4.62917e-05
-0.00633486
0.00964468
-0.00330978
-0.0163407
0.00935715
0.00698353
0.0014347
-0.00139215
3.82259e-05
4.64975e-05
2.34537e-05
7.54491e-06
-3.09984e-05
0.000817878
0.000299359
-1.02584e-05
-0.00014259
6.08068e-05
-2.81156e-05
-3.26909e-05
0.00129805
0.000796829
-0.00209487
-0.000230359
0.0468177
-0.0054514
-0.0413662
0.000832192
-0.00106418
0.000232002
0.00725028
0.000152164
-0.0074026
-0.019922
-0.00255255
0.00515345
0.00207684
-0.00723029
0.0192876
-0.0197573
-0.000759393
-0.00127713
0.00340326
-0.00206599
0.0591277
-0.01231
-0.00180636
0.00173114
1.51038e-05
2.2858e-05
0.00172627
-0.00233356
0.0492873
-1.82984e-05
-0.000162828
0.000181117
0.00572843
0.00307129
0.0006595
0.000914394
3.3427e-05
-3.99731e-05
6.54684e-06
0.00110388
-0.000133585
4.66301e-05
2.15777e-05
-6.82087e-05
-8.52452e-05
0.000190072
9.11835e-05
4.79609e-06
-9.5977e-05
-0.00856946
0.00534165
4.41233e-05
-4.32097e-05
-9.13616e-07
-0.000365684
-0.000949551
0.00131524
0.00457016
-0.0030757
0.00255696
0.0025965
-1.64365e-05
4.98649e-05
0.00106461
-0.000863604
-0.000201006
-0.00144447
0.00169062
-0.000246144
0.000136615
1.06182e-06
-0.000137685
0.000181005
-0.000199307
0.000904665
0.000926804
-0.00168497
0.000262168
0.0014228
0.0152459
-0.0112625
-0.0039833
-0.017288
0.0407862
6.22837e-05
-8.11848e-05
-0.000159761
2.5511e-05
0.000134249
0.000593423
-0.00166935
0.00107592
0.00287783
0.0164099
8.75453e-05
-2.52605e-05
0.00527631
-4.11294e-05
9.33408e-05
-5.22173e-05
0.00390349
0.00345043
-0.00735397
0.00106902
0.00370656
-0.00403085
0.000324315
0.00398371
-0.00975546
0.00577167
0.0146439
-0.00221093
-0.000178017
2.93109e-05
0.000148705
7.51905e-05
-0.0018504
0.00177511
4.50257e-05
-4.56375e-06
0.000147674
-1.10608e-05
0.00421489
0.00186766
0.00442336
-0.00199575
-0.00242758
-4.58324e-05
3.16634e-06
4.26651e-05
-0.000698376
3.17581e-05
-0.000209775
-0.0191418
0.0422684
-5.78722e-05
0.000103603
-0.0166831
0.0102546
0.00642864
0.00246346
-0.0011654
0.0227405
-0.0234272
0.000686703
0.000525682
-0.00014501
-0.00038067
-0.00176771
0.00835307
0.00596866
-0.00139852
-1.92628e-05
0.000101483
-0.00183535
0.00518076
-0.00334542
-8.44047e-05
2.55372e-06
8.18529e-05
0.0113118
-0.000618354
-0.00195617
0.00064145
-0.000115767
-0.0182952
-0.000198002
2.65884e-06
0.000195332
0.0209505
0.00052509
-0.0214756
4.3806e-05
8.79221e-06
-5.25997e-05
-0.00633852
0.0046312
0.00395389
0.0169966
-0.000226447
0.000258907
-3.24798e-05
-0.0564017
0.0684396
0.000603819
-0.0119041
0.0113003
0.000240712
3.42487e-05
-0.000274956
-0.00926086
0.00127074
0.0079903
-0.00114839
-0.000519994
-3.9432e-05
0.000157428
-0.000118004
0.000365983
0.00318149
5.66659e-07
0.000131627
-0.000132193
0.0137201
-0.0131163
0.00234777
0.000100723
5.68551e-05
0.00022019
-0.000230882
1.06873e-05
7.64917e-05
-3.82704e-05
-3.32305e-06
7.09211e-05
-6.76038e-05
1.4781e-05
-5.64402e-05
4.16585e-05
1.51915e-05
7.95202e-07
-1.59902e-05
0.0337841
-0.0189417
-0.000145902
9.08186e-05
5.50721e-05
-2.86664e-05
-1.78129e-05
4.64757e-05
-7.14096e-05
-9.78275e-08
7.1501e-05
0.00155951
-0.00144953
-0.000109982
-0.00542229
0.0360467
-0.0306245
0.000103809
-7.21843e-05
-3.1624e-05
5.94154e-05
-1.91007e-05
-0.000282421
0.00111462
-0.00439112
-0.0122919
6.00657e-05
-1.19772e-05
-0.00016413
-6.23243e-05
0.0106029
-0.020221
0.00961819
-0.0130525
-0.0359635
0.0490161
-0.00373412
-0.00394173
-1.07323e-06
-0.00191649
0.00165472
0.00174854
9.67511e-05
1.84786e-05
-0.000115229
-5.29286e-05
8.57796e-05
-3.28501e-05
-0.000823205
-0.00130545
0.00212867
5.33937e-05
-3.86124e-05
5.08804e-05
-7.46031e-05
5.29856e-05
3.27933e-05
9.01431e-06
8.77371e-05
-0.00934159
0.0130875
-0.00374581
-0.000149371
0.000149943
0.00272779
-0.00230211
-0.000425679
-0.00017352
0.001974
-0.00108996
0.000201895
3.77375e-05
1.69205e-05
-4.35842e-05
-9.30612e-06
-0.000181622
-0.00907927
0.00124239
0.000216293
-0.00159099
3.1023e-05
0.00010724
-9.80034e-05
-9.23503e-06
-5.78951e-05
4.35022e-05
1.43898e-05
6.36012e-05
-0.000148008
-3.85811e-05
-8.2842e-06
0.000152437
-0.000340096
-0.000328562
9.84585e-05
0.000230095
-0.0174075
0.0280108
0.00452143
-0.00105072
-0.0034707
-0.000917972
-4.71575e-05
-1.0739e-05
-0.000420667
0.000172864
0.000247802
0.00277673
0.00111595
-0.00389268
0.000208515
-0.00019394
0.00567791
-0.00484228
0.00461061
0.0106354
-8.93438e-05
4.82101e-05
0.0897027
0.00593543
-0.0956379
-5.75577e-05
1.99882e-05
3.75732e-05
6.02304e-05
-2.77047e-05
-3.25231e-05
-2.46522e-05
-4.67582e-05
-0.000285602
8.75901e-05
-3.61717e-05
4.64426e-05
-1.02691e-05
-4.39244e-05
6.13589e-05
-1.74343e-05
-0.000348987
-0.0194401
-5.29711e-05
1.6799e-05
0.041848
0.00294805
0.0010367
-0.000787516
-0.00024917
-2.63717e-05
-9.32174e-06
3.56925e-05
-0.0011154
0.00161797
-0.000502579
-0.000243758
3.25228e-05
0.00271687
0.00427969
-0.00699657
8.93245e-06
-0.000219913
0.000210981
-0.000950821
0.0162821
-0.0371606
0.0208785
-0.0110496
0.0273317
-0.000325903
0.00448693
0.00670454
-0.00392781
-8.22711e-05
0.00734473
0.00306515
-0.0104099
2.85546e-05
1.65005e-05
-6.96935e-05
9.32076e-05
0.000142567
5.1071e-05
0.000161678
-0.000212747
0.000632533
0.00141954
-0.00205206
0.0005104
-0.00209603
0.00158566
0.000617681
-0.000466159
-0.000151529
-0.00221935
0.00193664
0.000282706
-0.00146407
0.00302687
-0.0141195
-2.79577e-05
-0.00446616
0.00454654
-8.03826e-05
-6.26104e-05
-8.32982e-05
-0.0191145
0.0343558
-0.000786049
0.000462375
0.000323669
0.000588318
3.87918e-05
0.00174997
-0.012843
0.0110931
5.8779e-05
-0.00527612
0.000809947
0.00504099
0.00302333
-7.14789e-07
-2.98533e-05
3.05664e-05
-0.00142597
0.00155545
-0.000129482
1.98174e-05
4.04137e-05
-3.56766e-05
-2.90421e-06
0.00148185
7.76481e-05
9.07663e-05
1.6475e-05
-5.98181e-05
-1.71167e-05
0.00179493
-0.00812976
7.10346e-05
0.00115163
0.0647382
-0.0477505
-0.0169876
-2.44647e-05
5.91751e-05
-7.29105e-05
-2.8123e-05
0.000101033
-0.00195096
0.000637484
0.00131348
0.0137059
-0.00320515
-0.0105008
0.00498222
0.0184248
-0.0234074
-9.22237e-05
0.000120483
-2.82687e-05
-6.09258e-06
-2.45389e-05
-2.87044e-05
5.32434e-05
0.00272637
-0.00311076
0.000384378
-0.0260774
0.0591255
-0.033048
-1.15911e-05
-6.09322e-05
7.25217e-05
-2.11074e-06
-4.37209e-05
-0.000282908
2.76562e-06
-5.74571e-05
5.41331e-05
0.00424148
-0.00183289
-0.00240859
0.000481191
-0.000381349
-9.98461e-05
-4.31334e-05
0.000497405
0.000120274
3.27909e-05
-3.35059e-05
-5.39416e-05
7.0322e-05
-1.63871e-05
2.63924e-05
5.0093e-05
-0.0049905
0.000844877
0.00414564
2.20921e-05
9.51221e-06
-3.16038e-05
-8.84787e-05
0.00015946
-7.09817e-05
3.43741e-05
-0.000205204
-0.000265309
-0.00015536
0.00202725
-0.00135415
-0.000673116
-0.00743418
-0.00190328
0.00933744
0.00285427
0.0123611
1.21036e-05
-1.73281e-05
5.21901e-06
-0.00346648
0.000701512
0.000293042
-0.0133332
0.00399157
0.00177063
-0.00194415
3.5798e-05
-6.28971e-05
2.70988e-05
7.55852e-05
-5.13589e-05
-2.42253e-05
-0.00251536
0.000296016
-3.12397e-05
-4.14843e-05
7.27235e-05
-0.00362431
0.00434895
-0.000724622
-6.85143e-05
8.23623e-05
0.111062
0.00597556
-0.117038
0.000254168
0.000136359
-0.00152614
0.000704446
0.000821692
0.00387326
0.000166435
0.00763956
-0.00749748
-0.000142138
-1.91665e-05
-3.38039e-05
-4.73409e-05
5.58702e-05
-8.52804e-06
-4.11027e-05
-3.15788e-06
0.00116211
-0.000734936
-0.000427175
-0.000761305
-0.000764842
0.000109733
-1.89655e-05
0.00174474
-0.00156401
-0.000180718
-5.33356e-05
4.94537e-05
3.88169e-06
-3.26733e-05
6.30087e-06
5.09338e-05
0.00181302
-0.00130261
0.00357952
0.000661966
-2.85535e-05
4.41101e-05
-1.5557e-05
-0.00105429
0.00128132
-0.000227006
0.000510784
-0.00162619
0.0762733
0.0723125
0.00489196
-0.000955315
-0.0010898
0.00114632
-5.65168e-05
-0.00592427
0.00864114
2.80973e-05
-6.00577e-06
0.00123687
-0.000676584
-0.000560277
-6.44822e-05
4.9924e-05
1.4558e-05
-0.0139877
-0.0159908
-0.0354704
0.0103981
0.000633197
0.000528909
0.000150065
-0.00202745
0.00187739
-2.40331e-05
-2.32294e-05
-0.000225525
-0.000560528
-1.17973e-05
-0.000183037
3.75488e-05
1.72573e-05
2.71972e-05
5.49948e-05
-2.25194e-05
-3.24766e-05
0.00274445
0.0021475
7.61097e-05
-4.73684e-05
-2.87447e-05
-9.7095e-05
0.000252246
-0.000155157
3.54837e-05
-0.000105175
-4.74745e-05
1.89205e-05
4.46812e-05
9.48259e-06
-0.0130623
0.00252544
-0.00133945
-0.00301023
0.00434968
0.00938758
-0.00174811
0.000726938
-0.00103712
0.000391899
8.92915e-05
0.000300034
0.0065139
-0.00681394
0.000669845
-0.000912279
-1.10092e-05
5.48149e-05
-0.0114314
0.00515132
0.00628007
2.99844e-05
2.50102e-05
0.000179334
0.000358439
-0.000537773
4.48557e-05
-7.60952e-05
0.00243695
-0.00427233
4.81893e-06
-6.22781e-05
0.000879851
-0.00271274
4.66047e-05
1.18159e-05
0.121361
0.000967194
-0.000392358
-0.000574846
0.00213083
0.0021937
-0.00432453
5.30258e-05
-7.31801e-06
-4.57068e-05
-0.000823281
0.000316685
1.67431e-05
-7.76241e-05
6.08771e-05
-3.56382e-05
1.16051e-05
0.00235956
-0.00228433
-0.00335659
0.0322011
-0.0288446
1.18136e-05
0.000171808
-0.000183624
-0.000953169
0.00465976
-7.2792e-06
-0.000163608
0.000646887
-0.000483279
1.62636e-06
-4.84847e-05
0.000420246
0.00193926
4.65883e-05
2.95192e-05
0.0018132
-1.63236e-05
-5.21905e-05
0.000108949
-9.71398e-05
0.00254436
0.001879
3.37853e-05
2.62691e-05
0.00383421
-0.0022584
-0.0015758
3.44788e-05
-3.32991e-05
-1.1796e-06
4.39687e-05
-4.25282e-05
-1.44162e-06
0.013493
-0.00022259
-0.000121043
0.00153591
-3.60043e-05
-0.00149991
0.00155271
0.000192036
0.0365274
-0.0146429
-0.0218844
-0.00302468
0.0080657
-5.54734e-05
3.63077e-05
-0.0034681
0.00133942
-0.00025651
-0.00473404
0.00105109
-0.00143297
0.000381893
-0.00164861
0.000825386
-0.00031676
7.27054e-05
-0.00280207
0.00368191
1.06365e-05
2.38426e-05
-2.7304e-05
-3.73269e-05
6.46289e-05
-0.00251158
-0.00471871
0.00243264
-0.00169523
-0.000737414
0.000117302
-0.000291505
0.000174193
-0.0131226
0.0148726
0.000675939
0.000291252
-0.00954946
-0.0400932
0.0496425
-0.0159428
0.0209248
-0.0111091
-0.0052316
-3.80332e-05
-0.000955181
0.000993204
-0.00350813
-0.00157628
7.48743e-05
-7.78204e-05
0.00871612
0.000369719
-0.00908583
-0.00749493
0.00498334
1.47932e-05
2.91747e-05
2.84567e-05
-1.89857e-05
-4.21337e-05
-1.23351e-05
-0.00111083
-0.000840127
-4.78329e-05
6.76997e-05
-1.98699e-05
0.000717888
0.000518981
0.000160204
-0.0002769
0.000116696
4.76857e-05
-2.62463e-05
-2.14387e-05
0.00132583
-0.000666328
2.08647e-05
3.21612e-05
0.00247059
0.00477966
0.000175102
1.20792e-05
5.6892e-05
-5.45014e-05
-0.00119838
0.00126941
-0.00109879
0.00159068
-0.000491909
0.0752831
0.0276844
5.66338e-05
-2.888e-06
-5.37452e-05
-0.00018825
0.000476026
-0.000287772
3.87052e-05
-4.87314e-05
1.00229e-05
-7.5401e-05
1.35798e-05
6.18206e-05
-0.000373397
0.000197215
0.000176182
2.25389e-05
-7.66505e-05
5.41104e-05
1.3513e-05
0.00152023
-0.00153374
0.000905203
-0.000633632
-0.000271588
0.101408
0.0125027
-0.113911
-0.0125005
0.0877836
0.00635496
0.00236114
-0.000380741
-0.000709062
1.55979e-05
-8.85097e-05
4.00934e-05
-1.56435e-05
-2.44513e-05
0.000125692
0.000264756
0.00130429
0.00833661
-0.00034243
-3.26645e-05
-0.00136951
-0.00022148
0.0190924
0.0155826
-0.0346749
4.07592e-05
3.36259e-06
4.97285e-05
1.10787e-05
-0.000308197
0.000460635
-0.00118231
0.0275045
-0.090456
0.0629515
0.000595539
-1.35986e-05
-6.18037e-05
-0.000146786
5.83067e-05
-0.000369901
0.000607795
-0.00136719
-0.0010986
-0.00293224
-7.04037e-05
0.000230608
-0.000165361
8.20172e-06
-5.58273e-05
-2.96905e-06
2.40548e-05
1.60378e-05
-0.000196543
-0.000176855
-0.00267349
-0.00137942
-0.000371923
0.000131235
0.000240684
0.000393623
-0.00193531
0.00154169
0.00128386
0.000305865
-0.00158972
0.000170197
-0.000592037
0.000421841
0.0724463
-0.0533539
-0.000186253
-0.000130523
0.00368135
-0.00524844
0.00156706
-0.000160107
-0.000146988
0.000307088
0.00143821
-0.00038711
-3.65899e-05
-1.74667e-06
5.43376e-07
5.02767e-05
-5.08188e-05
-0.00334056
0.00200105
0.0189958
-0.00561024
-0.0133856
-3.45292e-05
6.75443e-05
-3.30157e-05
-0.000284297
-6.02387e-05
1.24059e-05
-7.32127e-05
1.23705e-06
7.19713e-05
4.83737e-05
2.00529e-05
-6.8426e-05
0.00552768
0.00106213
-0.0065898
0.00563738
-0.00933833
-0.00372395
0.00273562
3.13782e-06
-5.57226e-05
5.25849e-05
0.00128019
-0.00151579
0.000235615
-0.000212205
7.89419e-05
-0.000126536
0.000177607
-0.00446129
-0.000105719
-5.40443e-05
2.16615e-05
-6.90012e-05
0.0510214
-0.00495017
-4.34552e-05
3.55799e-06
3.98961e-05
0.000196545
-0.00129534
0.00618254
-0.00326293
-0.00291958
0.000157358
-0.00022776
-3.05356e-05
2.78238e-05
2.71139e-06
-4.86636e-05
3.67565e-05
-4.26244e-05
1.53194e-05
-0.000172887
1.65382e-05
-6.25125e-05
-0.000289687
-5.78608e-05
0.000347548
0.000141812
-0.000227059
7.36663e-05
-5.11283e-05
3.08422e-05
-5.47167e-05
2.3875e-05
-0.00456095
-0.000724561
0.0286197
-0.00899124
0.0113516
-0.00236035
-0.0756351
0.0625825
0.00677895
-0.0028755
0.000867679
-8.48114e-06
5.68545e-05
-0.000627391
0.00194224
-0.00145841
-0.00476559
0.00622397
-0.000984831
0.00161803
0.0105651
-0.0192272
0.00866208
2.92705e-05
2.05946e-05
-3.00702e-05
3.20366e-05
-1.96645e-06
-4.25609e-05
5.52457e-05
-1.26852e-05
-0.000474981
0.000251562
0.000223418
0.000903708
-0.00833791
-1.36299e-05
-1.69056e-05
-0.015298
0.00231941
0.0129786
8.07342e-05
0.000213292
-0.000294032
-0.0289389
-0.00653146
7.26525e-05
0.000187639
-0.000178706
-6.81922e-06
0.00114875
0.000115179
0.00206898
-0.00646936
0.00626665
0.000202653
0.00213374
-0.011125
3.49903e-05
-5.71957e-06
-0.00504265
0.00519479
-5.52604e-05
2.66688e-05
2.85879e-05
0.00149125
0.000192151
-0.000176508
-0.0216443
0.00161605
0.0200283
0.000867062
-0.000973754
0.000106691
-7.12068e-05
-5.549e-06
7.67542e-05
3.08521e-05
-6.53816e-05
0.00165984
-0.000678859
-0.000980993
0.000390539
-0.000221242
-0.000169296
0.0337517
0.00277569
0.0168832
-0.0528468
3.94197e-06
-7.71551e-05
0.000231786
-7.44276e-05
-4.44043e-05
3.22943e-05
-0.00320503
0.000121569
0.00308346
0.0421371
-0.051766
0.00962898
-4.71633e-05
8.04997e-06
0.00176711
-7.95905e-05
-8.73178e-05
0.000166908
-0.0044088
-0.0172355
0.00179727
-5.51659e-05
-0.0162187
0.0488292
-0.0326104
-6.31721e-05
2.04921e-05
4.26791e-05
-1.61171e-05
3.21125e-05
-1.59963e-05
-0.00759584
0.0115796
-5.23363e-05
6.10992e-05
-0.000117401
5.62989e-05
0.000117736
-4.5193e-05
-7.25479e-05
6.70328e-05
-7.93424e-05
1.23088e-05
0.000173569
-3.77099e-05
-2.54632e-05
-0.00454904
-0.0151057
0.0196547
-0.000130393
-3.49727e-05
-0.0013384
0.000762786
0.000575591
-0.00139396
-0.0204733
-0.0195521
0.0400255
-0.000805501
-0.00324012
0.0929429
-0.000115963
0.0503522
-0.0558037
4.32322e-05
-5.2134e-05
8.90247e-06
-0.00044056
0.000674553
-0.000233995
-1.0151e-05
-3.51229e-05
4.52697e-05
-3.03761e-05
3.59975e-05
-5.62461e-06
-4.9004e-05
0.000193996
7.06106e-05
-2.4973e-05
-4.56425e-05
-0.0244611
0.0190387
-4.88154e-05
-0.00337194
0.00120719
0.00216476
-4.59738e-05
6.25081e-05
-0.000256133
0.000166947
8.9186e-05
0.00962552
0.000738991
-0.0103646
7.56869e-05
-3.56462e-06
-7.21265e-05
-0.000723021
-0.00242235
-4.06247e-05
-1.46393e-05
0.00110425
-0.000645137
-0.000459118
-3.29031e-05
0.000265825
-0.000232925
-3.25445e-05
3.50989e-05
0.000162961
0.00112223
0.00213632
0.000296312
0.0126818
-0.0148353
0.0021535
2.18037e-05
-4.99181e-05
3.1621e-05
-6.74708e-05
-1.58338e-05
-0.000146999
0.000314699
-0.000233961
-0.00153118
4.86959e-05
-4.91562e-05
4.60734e-07
0.0236149
-5.17529e-05
5.65731e-05
0.0387865
0.0100682
-0.0488547
0.00141401
-0.00242991
0.00101589
1.81518e-05
-5.87813e-05
4.06276e-05
5.64141e-05
0.00521426
-0.00582104
4.14995e-06
4.45458e-05
0.0556273
-0.0040866
-0.000627208
0.000521409
0.000105784
0.000110842
5.42368e-05
1.1609e-05
-6.58472e-05
0.0220067
0.00023762
-0.000225572
-1.2048e-05
0.000191304
0.000123398
0.000192154
-0.00204261
-2.91777e-05
1.30606e-05
4.44061e-05
-9.07924e-05
0.000262029
0.00106379
0.0015469
0.000370541
-0.00013292
0.0263464
-0.0611061
0.0347596
0.00451245
-0.00597089
0.000688184
-0.000490226
-0.000197954
0.000614922
-9.47923e-05
-0.000520143
1.56754e-05
-0.00171722
-3.28695e-05
5.71086e-05
-2.4241e-05
-0.00121682
0.000162541
-5.86895e-05
3.75544e-05
2.11366e-05
-0.00135432
-7.16434e-05
0.000296923
-0.00218907
-0.0125572
0.0363577
-0.0238008
-1.34787e-05
0.000106444
-5.64871e-05
-4.99558e-05
-0.0243391
0.028293
1.23412e-05
-5.62642e-05
-0.000215631
0.000385828
0.000905989
-0.000204479
-0.000190745
4.16038e-05
0.000149151
6.63366e-05
-5.77135e-05
-8.62562e-06
-0.0696796
-0.0201627
0.0898424
0.000543176
8.70034e-05
-0.000527563
0.000332023
0.000109712
-0.000149152
-0.00382256
0.00187016
0.000857627
9.78766e-05
0.000110297
-0.000208172
0.00661999
-7.86094e-05
-6.81792e-05
0.000192594
0.000994945
-0.00118754
0.000166675
-3.0237e-06
-0.000163662
0.000236528
2.97366e-05
-3.16564e-05
1.91699e-06
-0.00176442
0.00014301
0.00162141
0.0016259
-7.11668e-05
1.78061e-05
5.33596e-05
-7.1652e-05
-0.000153921
-0.000495737
-0.000108187
0.000603922
-9.7118e-05
2.54665e-05
-1.22165e-05
-7.90825e-05
9.1301e-05
-0.000171975
6.49068e-05
0.000107071
2.79792e-05
-6.12958e-05
3.33179e-05
0.00043506
0.000184492
-0.00061956
-4.4306e-05
8.50768e-07
-0.00015084
-3.99111e-05
7.59534e-05
-0.000637366
0.000561414
0.00110049
0.00975549
-0.010856
-0.00365967
-0.00280969
0.00113696
-0.000874936
0.000111453
-0.0164966
-0.00784245
-5.71645e-05
1.91136e-05
3.80519e-05
0.00130667
-0.00607229
-0.0272363
0.00115894
0.00153591
-5.3663e-05
3.18794e-05
2.17852e-05
-5.92362e-06
-9.47658e-06
-4.85204e-05
5.79962e-05
4.96177e-06
-0.000109141
0.000104183
-1.5811e-05
-3.78508e-05
-8.35981e-05
0.0001472
4.98903e-05
2.98329e-05
-7.97245e-05
0.00112434
-0.00116237
5.60014e-05
1.03344e-05
-0.0028816
0.00936469
-0.0064832
-0.0105519
-3.34266e-06
-5.34385e-05
5.67847e-05
0.00111037
0.000549463
3.24319e-05
-2.69665e-06
-1.42235e-05
1.50172e-05
0.0047717
0.000649704
0.00293838
-0.00251808
-0.00452614
-0.000750012
1.78974e-05
-5.12903e-05
3.3393e-05
0.101574
6.98557e-06
0.000132497
-0.000139482
2.72123e-05
0.00156829
-0.00205686
0.00048858
0.000510945
0.0398902
-0.0130981
-0.0267921
-6.33373e-05
0.00010774
-0.0315518
0.027143
-1.98191e-05
-6.07539e-05
-7.98432e-05
0.000140594
-0.000987647
-0.000577603
-0.0359884
0.0197696
-2.5578e-06
1.46585e-05
0.00105435
-0.000384511
-0.00364997
0.00812884
-0.00447889
3.66512e-05
-2.88972e-05
0.000685122
-7.02078e-05
2.35741e-05
-5.75832e-05
3.40078e-05
-2.22046e-06
-0.000637963
0.000226278
0.000411695
0.000251824
-0.000126061
-9.25398e-05
0.000209837
-0.00129403
0.00155879
-0.0114329
0.0085512
-0.00292719
-0.0330612
-0.000359341
-0.00027862
-3.89623e-06
0.000147191
-3.37022e-05
0.00173404
-0.00170034
-9.37853e-05
6.76966e-05
0.00871133
0.0180098
-0.0267209
0.00277059
0.00019091
2.9279e-05
1.511e-05
2.97017e-06
-1.80879e-05
-0.0143182
-0.019697
0.0340152
-0.00149363
0.00075694
0.000736675
-0.000203553
0.00104587
-0.000842315
0.037699
-0.00855978
-0.000129664
1.71153e-05
5.34914e-05
0.000126748
-0.000179132
4.87317e-05
-2.20021e-05
-3.66883e-05
0.0270637
0.000294258
-0.0273582
0.000722714
-0.000367469
-0.000355221
-0.000154538
7.56894e-05
-0.00045358
-0.000458699
-4.29992e-05
-1.03367e-05
7.21403e-05
-4.24155e-05
-2.97229e-05
-0.0351637
0.00511446
0.00198397
-0.00709844
-5.21348e-05
2.17559e-05
-2.29804e-06
-6.21841e-05
1.53221e-05
-0.000214665
4.20472e-05
3.89485e-06
-4.59428e-05
4.53004e-05
0.00503148
0.000496194
-0.000985968
0.000300745
0.000685193
-5.42797e-05
4.4125e-05
-0.139019
0.000581621
-0.000785173
-0.00716967
-0.00887723
0.0160469
0.0149008
0.00321309
-0.00686308
-0.00161271
-0.000104491
0.0017172
5.2388e-05
4.24589e-06
5.39054e-06
-5.13605e-05
-0.00649047
0.006587
-9.65222e-05
-0.000550741
-0.0165132
0.0170383
0.00261352
-0.00218232
0.000876849
0.000131639
-9.86366e-05
-3.30044e-05
-6.95682e-05
6.22837e-06
-0.000111985
0.000482527
0.00608512
-0.00287088
0.00326451
0.000101235
0.000213286
-0.000314525
0.000368313
-0.000475499
0.00010718
4.8178e-05
2.27408e-05
0.00653759
0.0124582
-0.000429723
-0.000894052
0.00132377
0.000754811
0.00028189
-5.98145e-05
0.000110088
-0.0101911
0.010266
-7.50029e-05
0.0816561
-0.0541517
0.00376278
-0.0211703
0.00150581
-0.00114199
-0.000363809
-4.35103e-05
-1.05205e-05
-0.000713811
3.03033e-05
4.18383e-05
-0.00171996
-0.00139081
-0.00246296
0.0035594
-0.0408849
-0.0108811
4.56142e-05
-0.000213054
0.000167437
1.63244e-05
-0.00075126
-0.000314312
0.000114766
0.000199543
0.0264971
0.000232972
-0.000198717
-0.00947032
0.0107411
0.000867463
-0.000276836
-0.000590634
0.00431943
0.00186312
-0.0181758
0.0082478
0.0099281
-1.61377e-06
0.000395371
-0.000520947
0.000125572
-6.70254e-06
0.000124032