/*--------------------------------*- C++ -*----------------------------------*\
| =========                 |                                                 |
| \\      /  F ield         | OpenFOAM: The Open Source CFD Toolbox           |
|  \\    /   O peration     | Version:  v2012                                 |
|   \\  /    A nd           | Website:  www.openfoam.com                      |
|    \\/     M anipulation  |                                                 |
\*---------------------------------------------------------------------------*/
FoamFile
{
    version     2.0;
    format      ascii;
    class       volScalarField;
    location    "100";
    object      k;
}
// * * * * * * * * * * * * * * * * * * * * * * * * * * * * * * * * * * * * * //

dimensions      [0 2 -2 0 0 0 0];


internalField   nonuniform List<scalar> 
13917
(
0.0186711
0.000192697
0.000226955
0.000150104
0.000176966
0.000192085
0.000159197
0.000272464
0.000156914
0.00463007
0.000269455
0.000147568
0.000165517
0.00080363
0.000162039
0.0153571
0.000146356
0.000233697
0.000198556
0.0148956
0.000170685
0.000147211
0.000175775
0.000147217
0.000153441
0.000174308
0.0356842
0.00400785
0.000192
0.000133662
0.0027042
0.000184506
0.000150342
0.0306146
0.000144198
0.000326578
0.000155934
0.000158474
0.00015929
0.000171406
0.000146958
0.000144291
0.000154278
0.000195327
0.000195388
0.000257732
0.000168981
0.0142432
0.00314606
0.000144288
0.000147259
0.00020987
0.00824507
0.000147058
0.000147675
0.000208533
0.00129595
0.00017581
0.000143803
0.000269859
0.0261593
0.000150006
0.000140802
0.000152949
0.0263124
0.000938692
0.000200516
0.000205968
0.000257238
0.0178069
0.0153857
0.028438
0.000146923
0.000143081
0.000171674
0.000154881
0.000158506
0.000142558
0.000154322
0.000150592
0.000149804
0.000147129
0.0001467
0.0195244
0.000140634
0.000278496
0.000183798
0.000144651
0.000171082
0.000145818
0.000137374
0.0001546
0.00205721
0.000142115
0.00015003
0.000197733
0.00832903
0.000149146
0.000143803
0.000264244
0.000143291
0.00014259
0.000150002
0.00014333
0.000158166
0.0221747
0.0259362
0.000148773
0.000145552
0.0358109
0.000143942
0.031593
0.000190167
0.0117573
0.0259776
0.000155906
0.000196927
0.000138436
0.000207812
0.000145644
0.000146499
0.000141337
0.000208153
0.000197206
0.0196457
0.0237458
0.000152449
0.000173223
0.000142317
0.000197178
0.000165322
0.000279102
0.0445234
0.000155855
0.000188037
0.0336886
0.0342203
0.0207407
0.000177595
0.000158062
0.00325173
0.000141916
0.0208196
0.000141861
0.000146064
0.000159329
0.0152825
0.00291101
0.0126946
0.000147426
0.000169123
0.000141349
0.000145745
0.000145734
0.0140321
0.000149589
0.000142816
0.0451262
0.00014368
0.000139969
0.000140712
0.0221853
0.000160517
0.00524534
0.0228443
7.20615e-05
0.0075391
0.0238336
0.000128021
0.000180088
0.00014795
0.0427697
0.000156806
0.0221015
0.000191862
0.00014219
0.000150075
0.000214836
0.000164637
0.000161653
0.000154093
0.000147427
0.000147257
0.000229046
0.000207772
0.000321783
0.000146987
0.000229075
0.000133627
0.000249681
0.000192267
0.000193742
0.000211672
0.018775
0.000142113
0.0200243
0.0001584
0.0439966
0.000143898
0.000148864
0.000166043
0.0176276
0.017927
0.000154739
0.0406491
0.000177978
0.000169569
0.000141863
0.00021227
0.000149799
0.000139027
0.000214736
0.000222303
0.0142486
0.000187465
0.000175996
0.0302218
0.000152684
0.000134838
0.000134726
0.0236408
0.000215296
0.000242593
0.00014235
0.0001427
0.0314566
0.0171536
0.000134162
0.00013401
0.000147022
0.000135088
0.000134988
0.0267411
0.020904
0.000148284
0.000128265
0.000193162
0.0267195
0.000144344
0.000142323
0.0399469
0.0217103
0.000216361
0.03121
0.000205837
0.00014193
0.0236519
0.00019458
0.000186071
0.000189493
0.000154058
0.0194391
0.000145887
0.000172922
0.00018826
0.000148801
0.000148169
0.000152844
0.000170367
0.00014442
0.0260034
0.0105651
0.000141509
0.000133952
0.00015029
0.000133979
0.000145929
0.000166049
0.000169975
0.000142048
0.0250187
0.0267471
0.000144739
0.00016024
0.000218227
0.000134077
0.000216981
0.0293416
0.000134167
0.0218822
0.000143877
0.0202905
0.000143179
0.000158156
0.000149127
0.000141643
0.000207237
0.000152634
0.00260763
0.000161948
0.0105014
0.000159886
0.0300392
0.0203114
0.00014052
0.000180449
0.000174255
0.000156656
0.000175655
0.000154133
0.000142659
0.000150672
0.000216033
0.000238495
0.000171961
0.000153743
0.000142182
0.0449671
0.0150376
0.000141564
0.000176567
0.000156706
0.00769672
0.000195869
0.0285241
0.0199466
0.000673393
0.000264401
0.000158267
0.0158636
0.00777235
0.000222248
0.000164648
0.000160908
0.0360858
0.000148936
0.000202548
0.000193662
0.000145473
0.0423936
0.000141032
0.000171388
0.000136868
0.00670731
0.000137775
0.000170457
0.000178568
0.000497887
0.000144623
0.000188959
0.0174653
0.000149642
0.000148899
0.033725
0.0185234
0.00879465
0.000794903
0.000133802
0.000148093
0.0228829
0.000258215
0.000133931
0.00017803
0.000147053
0.000187636
0.000171242
0.000204813
0.000206342
0.00021815
0.000171283
0.026656
0.000142689
0.000149669
0.000188369
0.000211397
0.000145301
0.0165852
0.000171009
0.00491387
0.000148019
0.000226854
0.000175302
0.00334565
0.000144294
0.000237706
0.000215356
0.000182058
0.000145075
0.00138363
0.000138122
0.0228929
0.000213695
0.000144244
0.00309278
0.000150603
0.00177757
0.000137744
0.0166957
0.00153429
0.000154658
0.0314987
0.000205067
0.000152909
0.019394
0.000216861
0.000153486
0.000208932
0.000147538
0.000207578
0.000223831
0.000141248
0.00015821
0.0001536
0.000141366
0.000138922
0.000143168
0.0382971
0.000256907
0.000148799
0.000143762
0.000146161
0.00018
0.0071891
0.000135188
0.000128169
0.00019563
0.000226099
0.000141958
0.000154243
0.0115621
0.0113312
0.00198234
0.000199556
0.00972682
0.000139082
0.000134705
0.000168051
0.000138817
0.000135272
0.000148617
0.000134818
0.000138672
0.0233861
0.00014788
0.000172478
0.0272961
0.00018039
0.000139249
0.000145518
0.0192102
0.000166434
0.0167777
0.000136258
0.000142388
0.000138606
0.000135359
0.000155583
0.000151351
0.00936004
0.00020978
0.0242427
0.00014234
0.000167928
0.000210223
0.000149507
0.000203575
0.00893109
0.000146734
0.0204669
0.000139574
0.000142255
0.000145744
0.000150641
0.000138569
0.000149475
0.0447703
0.0237054
0.000138369
0.0331407
0.000195642
0.00014723
0.000183311
0.000185235
0.0225521
0.000159322
0.0231083
0.00381524
0.00396918
0.000151381
0.000685463
0.000223028
0.000153523
0.00067571
0.000138519
0.000146635
0.000150056
0.000157589
0.000168812
0.000204899
0.000180116
0.00016281
0.000163772
0.000225173
0.000179763
0.000148796
0.000707815
0.000169327
0.000161817
0.0220155
0.000140706
0.000180935
0.000218523
0.000138082
0.0430875
0.0001431
0.000135326
0.000180935
0.000136329
0.000151073
0.000214614
0.0464108
0.0284836
0.000140637
0.000150672
0.000161097
0.000300242
0.00220841
0.000148235
0.000147388
0.000140417
0.000185406
0.0035856
0.000142975
0.000144458
0.000148369
0.000141103
0.000167127
0.000161775
0.000140065
0.000180765
0.0001381
0.000146487
0.000153244
0.0293954
0.000134536
0.000153959
0.000144381
0.000167037
0.000188241
0.000195819
0.000189922
0.000283842
0.000152632
0.000214281
0.0429436
0.0231812
0.0309157
0.000140863
0.000145369
0.000157651
0.000143471
0.0279979
0.000134538
0.00568118
0.000158294
0.0372107
0.000226524
0.00015433
0.0151926
0.000138327
0.000182182
0.000148692
0.000148282
0.039246
0.000135722
0.000215951
0.000143003
0.000154377
0.000145777
0.000203393
0.000170045
0.000133597
0.000195006
0.000182559
0.0108888
0.0106137
0.0453566
0.0226102
0.000134594
0.0179678
0.000135872
0.0297293
0.00294035
0.000151469
0.000178522
0.000142889
0.000168909
0.000153615
0.000135806
0.000148776
0.000163942
0.00641238
0.000141155
0.000182015
0.000146295
0.000133477
0.000143096
0.000250308
0.00935927
0.0112477
0.000187971
0.000161515
9.22332e-05
0.0280527
0.000138125
0.00302838
0.000162243
0.00019071
0.000143446
0.00150697
0.000140886
0.000168501
0.000146318
0.0105804
0.000170128
0.0281289
0.000140826
0.000168828
0.000144313
0.000144747
0.0279197
9.41726e-05
0.000145212
0.000206816
0.00014218
0.000146804
0.000143156
0.0302141
0.000141178
0.000173763
0.000134465
0.000144746
0.000211888
0.000142179
0.000203279
0.000148258
0.000137901
0.029533
0.000182668
0.00014782
0.0083677
0.000210798
0.00928977
0.0002205
0.000138144
0.000164214
0.0275584
0.000225974
0.000166265
0.00015594
0.000170737
0.000147287
0.000142989
0.00147802
0.000190811
0.000157138
0.0228115
0.000170538
0.0178652
0.00393222
0.00025323
0.000169362
0.000209617
0.0237097
0.000142661
0.00018531
0.00155333
0.00013799
0.000141888
0.000142978
0.000169427
0.000152034
0.018244
0.000166817
0.000140957
0.000192227
0.000140047
0.029522
0.000143865
0.000142321
0.0455976
0.000186153
0.00613697
0.000147592
0.000140901
0.000142177
0.000149569
0.00016129
0.000141664
0.018553
0.000164114
0.00620172
0.00541205
0.000186781
0.0454141
0.000150732
0.000148345
0.000144661
0.0309912
0.0291383
0.000158994
0.0189391
0.00200911
0.000137879
0.000141931
0.000155662
0.0209422
0.00597322
0.000170414
0.000149421
0.000153982
0.000191406
0.000155901
0.00020375
0.000167092
0.00014971
0.000150715
0.000148176
0.000161137
0.000164179
0.000231873
0.000157567
0.000167023
0.0183831
0.0001426
0.00268838
0.00015517
0.000176374
0.000157939
0.000219955
0.000146246
0.000180739
0.00827064
0.00556876
0.000143706
0.000157564
0.000155781
0.000142516
0.00014605
0.000177299
0.000218982
0.000242473
0.000204132
0.000137908
0.000217232
0.000156834
0.000157677
0.000207479
0.000148481
0.000182179
0.00911811
0.00013365
0.00018585
0.000198328
0.000166786
0.000140781
0.000138808
0.000142938
0.0155141
0.000150145
0.000144631
0.00017103
0.000141957
0.000139824
0.000207126
0.00220249
0.000199189
0.0151953
0.000184254
0.0235925
0.000146068
0.00016033
5.45408e-05
0.000151706
0.000439405
0.000144463
0.000141548
0.000147446
0.000158634
0.000196979
0.000140759
0.00307696
0.000147471
0.0031471
0.00015521
0.000159142
0.000136882
0.000189821
0.000158988
0.0163655
0.000203167
0.000147536
0.0286091
0.000151066
0.0243757
0.000153141
0.000234057
0.000154382
0.000140142
0.00014351
0.0407963
0.000161056
0.0111884
0.0096079
0.000142419
0.000167141
0.000128096
0.000175396
0.00512102
0.000128458
0.0234716
0.000154086
0.00023739
0.000196698
0.0075655
0.000135022
0.000142267
0.000210856
0.000138095
0.000146774
0.000152842
0.000144995
0.000171219
0.000134889
0.00024359
0.000149708
0.0177071
0.0240485
0.0047542
0.025623
0.0218679
0.0158932
0.0075941
0.00013738
0.00014627
0.000145126
0.000151147
0.000140485
0.00016127
0.000141796
0.00263363
0.000147132
0.00207265
0.000149824
0.000163331
0.000204606
0.000141421
0.000173
0.000151084
0.000149358
0.000158225
0.000138051
0.0461974
0.000192989
0.00272277
0.000141575
0.00014374
0.000148276
0.000147883
0.0218465
0.000137573
0.000109804
0.000140673
0.00425757
0.000157392
0.000141817
0.0001815
0.000132072
0.000137691
0.00502444
0.00255616
0.000155612
0.00018938
0.000137999
0.000285275
0.000139695
0.000147897
0.023971
0.000144186
0.000150367
0.000191906
0.0223872
0.000142705
0.00365064
0.000435301
0.00014493
0.000152986
0.000145401
0.00689112
0.000143495
0.000196429
0.000146606
0.0439283
0.000158075
0.0344443
0.00014372
0.000133942
0.00223398
0.000155586
0.000141388
0.0410607
0.000152609
0.000138905
0.00704179
0.000144844
0.000146523
0.000190139
0.000153133
0.0287948
0.000171201
0.000185203
0.000218955
0.000153838
0.043049
0.000150526
0.000187875
0.000142784
0.0275803
0.00433053
0.000148063
0.000139913
0.000146907
0.000148227
0.000138298
0.000139204
0.000141889
0.000143368
0.000162366
0.000133654
0.000152058
0.000186417
0.023424
0.0190274
0.000190517
0.00014831
0.00263522
0.000141264
7.59755e-05
0.00360741
0.00663575
0.000134962
0.000137473
0.000145454
0.000146287
0.000134716
0.000138672
0.000141787
0.000170313
0.000138973
0.0100516
0.00691943
0.000139458
0.040058
0.000142899
0.00014322
0.000159213
0.0310514
0.000182885
0.000141341
0.00684928
0.00014315
0.000143332
9.71582e-05
0.000146949
0.00912215
0.000150648
0.000321929
0.000139283
0.00014165
0.000166304
0.00778679
0.00015235
0.0307084
9.97399e-05
0.000155584
0.000154042
0.000143776
0.000138597
0.000190014
0.000166072
0.000156808
0.0337725
0.0125731
0.00745284
0.000190876
0.000141476
0.0327223
0.000141287
0.0193899
0.000186958
0.000158339
0.000151822
0.0442077
0.0270911
0.00414498
0.000142623
0.00488944
0.000138492
0.000141835
0.000166952
0.000149381
0.000146335
0.0025466
0.0218508
0.000141697
0.000159297
0.0264394
0.000142768
0.000133936
0.00756927
0.0292408
0.000150739
0.000137146
0.000158682
0.000145292
0.000142932
0.000177626
0.000159048
0.000144838
0.00787472
0.000143765
0.00200173
0.00401908
0.000120805
0.0280992
0.000147872
0.000149569
0.000400314
0.0222269
0.00127724
0.000186271
0.000168879
0.000148821
0.000150774
0.000142593
0.016686
0.000187952
0.000149529
0.000179119
0.00014155
0.00540745
0.00018954
0.000194498
0.000180199
0.000234052
0.00618492
0.00551609
0.0394006
0.000158284
0.00022017
0.000134126
0.000184318
0.000194351
0.00560886
0.000155753
0.000148393
0.000157419
0.0152214
0.000152898
0.0207528
0.000168072
0.000200652
0.0165163
0.00014139
0.000190591
0.000154037
0.00014669
0.000181164
0.0015256
0.00013518
0.000137433
0.000151926
0.0109017
0.000138932
0.000152651
0.00015354
0.000150528
0.000145354
0.000204176
0.00018367
0.000149558
0.000141202
0.000225387
0.000299389
0.000182106
0.0440945
0.000148089
0.000143284
0.0286004
0.000144634
0.000153286
0.0396687
0.0296219
0.000170595
0.000184244
0.000160825
0.0148741
0.000136676
0.000167584
0.0115832
0.000142534
0.000193869
0.0234495
0.000208392
0.00419292
0.00806703
0.000138471
0.000146107
0.000164748
0.000145607
0.000146856
0.000231325
0.000144288
0.000175494
0.000135429
0.000179364
0.0212055
0.000153263
0.000215841
0.0168982
0.000143328
0.000185684
0.000159939
0.000152284
0.000142577
0.0321328
0.000187421
0.0237288
0.000160964
0.0244592
0.000200093
0.000140961
0.00257535
0.000168258
0.000149286
0.000142033
0.000276112
0.000142622
0.000158527
0.00017309
0.000158512
0.000148985
0.000180083
0.0349802
0.00014084
0.000244267
0.00037761
0.000146834
0.000141039
0.000158959
0.00407645
0.000109186
0.00013943
0.0001625
0.000169404
0.00734612
0.017424
0.000145833
0.000138966
0.000138399
0.000143819
0.000164968
0.00015522
0.004969
0.000148347
0.000155095
0.00152251
0.000197418
0.000190365
0.0285936
0.0240165
0.000147805
0.000143928
0.000138564
0.000151693
0.000183777
0.0448959
0.00266466
0.000206549
0.000165912
0.000177296
0.0001534
0.000166496
0.0001581
0.000194505
0.00014213
0.000271718
0.000200934
0.000138378
0.000147303
0.0362647
0.000178397
0.00108092
0.0234078
0.00021558
0.00014215
0.000224344
0.000158897
0.000141365
0.00597806
0.00719946
0.000142227
0.000170993
0.000197166
0.000167565
0.00015023
0.000134744
0.000141193
0.00013901
0.000142419
0.000162797
0.000177117
0.0228924
0.000167956
0.000157598
0.000164107
0.000198046
0.000140853
0.000169438
0.000239303
0.000211269
0.0257381
0.000151938
0.000134623
0.0289332
0.000139874
0.00110177
0.000152136
0.000172923
0.000148542
0.000140289
8.30874e-05
0.000158435
0.000151512
0.000143645
0.0454559
3.46571e-05
0.0277069
0.000146936
0.000145926
0.00663913
0.000139858
0.000139244
0.000232825
0.00523077
0.000159925
0.000166466
0.000149987
0.0106989
0.000141472
0.000155271
0.000148941
0.000134471
0.000211525
0.00014148
0.000138793
0.00468723
0.000180536
0.0489025
0.000214569
0.000140941
0.000163039
0.00013985
0.000141788
0.000154327
0.000151766
0.000146341
0.000204133
0.000145716
0.000191048
0.000177761
0.000167912
0.000145515
0.000148967
0.000142667
0.0327857
0.00013503
0.017884
0.000185296
0.000154449
0.000178331
0.000166322
0.000163382
0.0001454
0.000178249
0.000139316
0.000138367
0.00504945
0.000180993
0.000146157
0.000142596
0.000143562
0.000140541
0.000221865
0.00014151
0.029955
0.000176119
0.000142091
0.000141924
0.000136927
0.000175965
0.000421919
0.0275833
0.000553655
0.00634013
0.000169939
0.000203384
0.000153658
0.0143163
0.00013539
0.000134648
0.000156706
0.00396628
0.000137171
0.0347392
0.000146355
0.000143407
0.000234859
0.000276558
0.0155369
0.00345102
0.000157566
0.000268153
0.000342136
0.0001389
0.0159413
0.000142988
0.00014218
0.0199937
0.00013622
0.035813
0.00127324
0.000140484
0.000143548
0.000139161
0.0444762
0.000143751
0.000134734
0.000187037
0.000140989
0.000139562
0.000141957
0.000139008
0.000174042
0.000146908
0.000155967
0.000137027
0.0331678
0.00432247
0.000137195
0.000137273
0.000150507
0.0001418
0.000154131
0.00014736
0.000143367
0.000147162
0.000143237
0.000151187
0.00014468
0.00021228
0.000136923
0.000190401
0.000146614
0.000207446
0.00013906
0.000146118
0.000141615
0.000135434
0.000169793
0.000157368
0.000156215
0.0485534
0.000300927
0.0443318
0.030023
0.000189125
0.0266744
0.000146341
0.000144369
0.014796
0.0173223
0.000141011
0.0274858
0.000137748
0.000194123
0.00216901
0.000153895
0.000191964
0.000880379
0.0231358
0.000142358
0.000175113
0.000139646
0.00204829
0.000154878
0.0391827
0.0161005
0.000147148
0.00338076
0.00924636
0.000147148
0.000204693
0.00432726
0.000153317
0.000139049
0.0026339
0.0302849
0.00013885
0.000164508
0.000148261
0.00502534
0.000217922
0.000145857
0.000139423
0.00209617
0.000141408
0.000143378
0.00014959
0.000137609
0.000122855
0.000162551
0.000161238
0.0342805
0.000142443
0.000189352
0.000146699
0.00269405
0.0001824
0.00231632
0.000138713
0.000160013
0.000138728
0.000145138
0.000153803
0.000145078
0.000390204
0.000151775
0.000138049
0.000140941
0.00443203
0.000138915
0.00815002
0.00346443
0.00383822
0.000145593
0.000140139
0.000141563
0.00497707
0.000147889
0.0146081
0.000142956
0.00369097
0.000152936
0.00014929
0.000100206
0.000146463
0.000145877
0.0290077
0.000197341
0.0344001
0.000145998
0.0360764
0.00649075
0.000145956
0.0304002
0.000147153
0.000156106
0.023517
0.000153096
0.000184188
0.0235147
0.000166895
0.00018611
0.000145265
0.00726078
0.000143247
0.00737484
0.000141539
0.021563
0.000143441
0.000144363
0.00015323
0.00427922
0.000140492
0.000260018
0.000184701
0.00175178
0.000141959
0.00016445
0.0414272
0.005619
0.000201102
0.000193255
0.000139047
0.000201384
0.00196956
0.000155034
0.000156373
0.000134262
0.00021042
0.0170886
0.000141038
0.0176921
0.000141945
0.0325233
0.000150444
0.000154734
0.000155427
0.00677925
0.00394055
0.000143435
0.000151907
0.000137796
0.000146144
0.0254356
0.00018764
0.000162526
0.00014619
0.000160214
0.0365912
0.000229498
0.00402674
0.00350599
0.000140613
0.000142738
0.000204975
0.0125534
0.0204465
0.00192528
0.000205195
0.000171811
0.000213883
0.0390338
0.022303
0.00383625
0.000139051
0.000193201
0.000175316
0.000191457
0.00014419
0.000157624
0.000184699
0.000280605
0.00281508
0.000145474
0.000437806
0.0333054
0.000181641
0.000143086
0.000143162
0.0140515
0.000140653
0.0453746
0.000161062
0.00014215
0.000247365
0.000326973
0.000137086
0.000168641
0.000162483
0.00014445
0.0428648
0.000181577
0.0455672
0.000141175
0.0319616
6.72064e-05
0.00020529
0.000135436
0.000159391
0.000167684
0.000272198
0.000212152
0.000184788
0.0257639
0.00025331
0.000128861
0.000158012
0.000147616
0.000203552
0.0169539
0.000137964
0.000136869
0.000151904
0.000244272
0.000279605
0.000141587
0.000176109
0.000255283
0.000138895
0.000296396
0.000155261
0.0451415
0.000158924
0.00220219
0.0158391
0.000160957
0.000156288
0.000223916
0.000140969
0.000184996
0.0265821
0.000165754
0.000205935
0.000163695
0.000180565
0.00994564
0.0350442
0.000145049
0.00298251
0.00020093
0.000136254
0.000195979
0.000187474
0.000216281
0.000438545
0.0124686
0.00184444
0.000204471
0.0262306
0.000159788
0.000182696
0.000136472
0.00014729
0.000145148
0.000139132
0.000108214
0.0002714
0.000135172
0.000202807
0.000201349
0.000140813
0.00510539
0.0278339
0.000133858
0.000147538
0.000138203
0.000150993
0.000173548
0.000143216
0.023991
0.00016228
0.000190107
0.000158791
0.000190103
0.000213681
0.000173142
0.000688494
0.000144474
0.000151427
0.000134804
0.000140549
0.0405728
0.00018967
0.000163855
0.0249772
0.000146566
0.000149038
0.000170009
0.000138057
0.000141918
0.00019102
0.000157006
0.0266566
0.0471887
0.025223
0.000145393
0.0436206
0.000141973
0.000179673
0.000136906
0.000200782
0.0397092
0.000143685
0.000229122
0.0261321
0.000168264
0.00015146
0.000139132
0.000161505
0.00577751
0.000137365
0.00014782
0.000151342
0.000159289
0.000203181
0.000154303
0.000157579
0.000140358
0.000150736
0.000112118
0.000167041
0.000154255
0.000203163
0.0113584
0.0395978
0.0100687
0.000157557
0.000150457
0.0267591
0.000144513
0.000185467
0.000145902
0.0262095
0.000147968
0.000147803
0.000192489
0.0184813
0.00014273
0.000138702
0.000135207
0.000197401
0.011592
0.000211232
0.000143449
0.000153673
0.000139001
0.0337996
0.000143289
0.00497119
0.000179925
0.000146551
0.0002435
0.000174648
0.00392584
0.000149151
0.000139202
0.000163374
0.00018234
0.000237952
0.000147212
0.000148669
0.000147329
0.0327545
0.000144761
0.000151424
0.033987
0.000152989
0.000192199
0.000155587
0.000141923
0.000143233
0.00384915
0.000153001
0.00134467
0.00414331
0.000131811
0.00198661
0.000148512
0.000203516
0.000176615
0.000152544
0.000135819
0.000131561
0.000143113
0.00308216
0.000175264
0.0323618
0.0276548
0.000139517
0.000208674
0.000171141
0.00207775
0.000143257
0.00070148
0.0362523
0.0212263
0.000141898
0.000152359
0.00014928
0.00748823
0.0400406
0.00014186
0.000144103
0.000163324
0.0242479
0.000146576
0.000152525
0.000152058
0.000193447
9.18105e-05
0.000135511
0.0208298
0.000162206
0.000142973
0.00243655
0.000179991
0.00356411
0.0100031
0.000167411
0.00015674
0.000152457
0.000161034
0.00014941
0.000227189
0.000178982
0.000143389
0.000155268
0.00022651
0.04866
0.000137196
0.000209353
0.0447986
0.0128827
0.000144056
0.000145214
0.00536409
0.0114069
0.00161529
0.000142039
0.0412049
0.000182844
0.000132596
0.0225753
0.000160564
0.000147313
0.000267961
0.000145006
0.000129432
0.000139785
0.000130548
0.000145998
0.000135172
0.0256574
0.000135035
0.000140876
0.000190724
0.000155975
0.000155796
0.000200012
0.000145571
0.000143496
0.000152513
0.000150978
0.00412779
0.0065229
0.000100463
0.00539116
0.000174661
0.00500658
0.000255564
0.0282889
0.0474434
0.0240307
0.000139114
0.000167059
0.000143461
0.000145992
0.000141136
0.000147567
0.000203417
0.00018054
0.000174297
0.000140589
0.000142786
0.000178724
0.000147663
0.000148425
0.000145721
0.0358132
0.000164318
0.0142669
0.000145224
0.00480356
0.000149
0.000147351
0.000149471
0.000172446
0.000140446
0.000195575
0.0315618
0.000174102
0.0278696
0.00265457
0.000154298
0.000160091
0.0048877
0.000208794
0.000136426
0.000140728
0.000131777
0.0285536
0.000130464
0.00143275
0.000144603
0.00019288
0.000701482
0.00260344
0.000183974
0.0437018
0.000139045
0.000135013
0.00200548
0.0119177
0.000143887
0.000145267
0.0146016
0.000139156
0.000227765
0.000154862
0.000142303
0.000158226
0.000144598
0.000190338
0.0307563
0.0279454
0.000155868
0.00014403
0.000193738
0.000151457
0.000195217
0.000138965
0.000198001
0.000189368
0.000148372
0.000146906
0.000132331
0.000228379
0.000224051
0.000204386
8.91801e-05
0.000162945
0.0178512
0.000186367
0.000192625
0.0300522
0.000142143
0.0275667
0.000150677
0.0354737
8.60529e-05
0.0266747
0.0272766
0.000147627
0.000181418
0.00206394
0.000145187
0.0232154
0.000145233
0.000144589
0.000157547
0.000149644
0.000163325
0.000221557
0.00197184
0.0231822
0.000157765
0.000173332
0.000151452
0.000147074
0.000146319
0.000219091
0.000190263
0.0228576
0.00017385
0.000135596
0.000137849
0.000149064
0.000213799
0.000155421
0.00015048
0.000156934
0.000205745
0.000164151
0.00018193
0.000180017
0.0279615
0.00016247
0.000165395
0.000143305
0.000157666
0.000225398
0.00241148
0.000179811
0.000138044
0.00234396
0.000165788
0.000141701
0.000177857
0.0340679
0.00212494
0.000168478
0.000139257
0.0208333
0.000148714
0.000138966
0.00013602
0.0307428
0.000318591
0.000154215
0.000170091
0.0185564
0.000166508
0.000181211
0.000185098
0.0456584
0.000163771
0.0391485
0.000148785
0.000202336
0.000159692
0.0391871
0.000166262
0.000139757
0.0374648
0.000145171
0.000150657
0.0106559
0.0136183
0.00156177
0.000223837
0.00015498
0.000151538
0.00546338
0.000141656
0.000141057
0.000145021
0.000175681
0.000143098
0.000169096
0.000166201
0.00122565
0.00397081
0.000149935
0.0235249
0.000165279
0.0351653
0.0284856
0.000144842
0.000147335
0.000156817
0.000479705
0.000203235
0.000188336
0.0334475
0.0233912
0.000158672
0.000149052
0.00972227
0.0249771
0.000221913
0.00102327
0.000146523
0.000144211
0.000145026
0.000150626
0.000141949
0.000165715
0.0282877
0.00016662
0.00496877
0.0210911
0.00587848
0.024174
0.0399499
0.000161473
0.0421794
0.000201583
0.000186606
0.000136719
0.000145568
0.000185649
0.0246359
0.000150319
0.0131799
0.0386241
0.000139635
0.000145654
0.000145309
0.000202528
0.000149085
0.000190871
0.0285484
0.000136952
0.000142715
0.000139311
0.000150347
0.000191691
0.0304586
0.000173141
0.0160618
0.000209113
0.000141058
0.0037434
0.000231264
0.00014518
0.000180532
0.002663
0.0221533
0.00265962
0.0268675
0.000144617
0.009532
0.0319825
0.000225452
0.0185922
0.000140967
0.000153337
0.000154869
0.000153016
0.0271661
0.000188311
0.000147072
0.000159794
0.00540124
0.0317812
0.000148498
0.00014945
0.0453431
0.0391883
0.000147017
0.000161857
0.000205291
0.000142181
0.000142923
0.0446997
0.00014074
0.000228264
0.00409983
0.0296901
0.00014026
0.000190664
0.000204225
0.00014137
0.000133455
0.0325204
0.00969343
0.000147456
0.000173172
0.000216764
0.000209006
0.0428173
0.000180559
0.000157957
0.003724
0.00608009
0.000167203
0.000140353
0.000287679
0.000134737
0.000134641
0.0262821
0.000171067
0.000201187
0.00015516
0.000159265
0.00014066
0.00013556
0.000149726
0.000150534
0.00156739
0.000154734
0.000152897
0.0187113
0.000172957
0.000188406
0.00686795
0.0372724
0.00150971
0.00013903
0.000155894
0.0001678
0.000157555
0.000228279
0.00421583
0.000149643
0.000122635
0.030725
0.000159628
0.00019097
0.000189728
0.000192645
0.000194161
0.000151706
0.000196046
0.000197423
0.000199157
0.000201102
0.000193972
0.000192823
0.000165951
0.000140201
0.000165754
0.000191204
0.000140525
0.000248488
0.0437207
0.000243032
0.0360614
0.000132995
0.000138119
0.000107959
0.0150769
0.000150265
0.00015478
0.000182109
0.0292679
0.0133916
0.000145111
0.000168699
0.000156684
0.0163384
0.00530234
0.000154513
8.74289e-05
0.0318579
0.000194759
0.0385393
0.000200915
0.00116026
0.0433069
0.000127965
0.0410059
0.0347559
0.000151158
0.000190689
0.000205726
0.00015614
0.000139766
0.00079408
0.00444099
0.000140226
0.000140651
0.0149264
0.000325356
0.000195793
0.00014749
0.000219465
0.000208275
0.0385581
0.0278292
0.000145324
0.000142603
0.000150056
0.000154817
0.0364722
0.011813
0.0271289
0.000189595
9.58458e-05
0.00363367
0.000155048
0.000139888
0.0316545
0.000140542
0.0405396
0.000141271
0.0395247
0.000151098
0.000150248
0.00521025
0.000144387
0.000196075
0.00810709
0.000165388
0.000153122
0.000151488
0.000202473
0.026805
0.000227751
0.0369207
0.000160928
0.000152533
0.000160111
0.000193864
0.0434691
0.0245244
0.000205934
0.000215806
0.000197855
0.00947565
0.000143684
0.000140317
0.000137123
0.000136737
0.000161735
0.000239845
0.00269057
0.000173337
0.0002009
0.000141324
0.00499517
0.000291074
0.016312
0.000143341
0.000151994
0.000130729
0.0342062
0.000173015
0.00580126
0.000201056
0.00019784
0.000123262
0.00013204
0.000169351
0.000222871
0.000122483
0.000198754
0.000144822
0.000199043
0.000148738
0.000147135
0.000217184
0.00747039
0.00123519
0.000147716
0.000200016
0.000338364
0.0294554
0.0197644
0.0348642
0.030933
0.000141181
0.000185709
0.000145837
0.000199751
0.000142672
0.000212918
0.000152189
0.00017842
0.00906734
0.00748638
0.0001579
0.00021753
0.0349428
0.000193533
0.000152742
0.012237
0.000192033
0.000149489
0.000148537
0.0284923
0.000161589
0.000220534
2.50342e-05
0.00114438
0.0218665
0.000154967
0.0199551
0.0313349
0.00767437
0.00119348
0.000164535
0.000195703
0.000194309
0.0324921
0.00184966
0.000149797
0.00125585
0.000172072
0.000238115
0.000161642
0.0233348
0.00044986
0.00350428
0.000157749
0.00805703
0.000155472
0.0279828
0.000221861
0.0038629
0.0159227
0.000138969
0.000130666
0.0305313
0.0401436
0.000129103
0.0001494
0.000174026
0.000164669
0.0200234
0.000293314
0.0345376
0.00015865
0.034046
0.000216864
0.00147765
0.000149572
0.000243391
0.0223675
0.000159354
0.000188465
0.000132608
0.000155111
0.000145917
0.00520451
0.000141633
0.000145504
0.0426148
0.0128107
0.000136575
0.0421442
0.000150535
0.000145505
0.000142243
0.000140291
0.000147379
0.000277027
0.0433732
0.000137147
0.00132776
0.000185479
0.00017587
0.000844206
0.000190055
0.000157773
0.000164376
0.000141802
0.00688269
0.000167454
0.0426248
0.000166334
0.0222954
0.000738707
0.000191006
0.00305209
0.0334454
0.000137689
0.0250416
0.000182992
0.00018629
0.000201205
0.000141975
0.000177635
0.000204245
0.000145332
0.000927543
0.000142818
0.0313521
0.000199284
0.00589775
0.000201997
0.000201259
0.0418405
0.000145894
0.00014269
0.000183278
0.000152505
0.00014728
0.000147589
0.000160713
0.000141051
0.000141169
0.000151708
0.000176188
0.000153284
0.000161358
0.000155019
0.000178759
0.000191131
0.000154116
0.0336753
0.000153393
0.00014184
0.000191633
0.000172206
0.000155645
0.000141042
0.000740244
0.000152931
0.0302013
0.000153451
0.000207697
0.000142075
0.000144789
0.000217102
0.0446159
0.000186483
0.000171539
0.000132912
0.0390056
0.000146189
0.000140878
0.000188317
0.000154363
0.000212909
0.0351103
0.000195073
0.000213339
0.000173154
0.0217118
0.000145396
0.000146177
0.000187393
0.00367146
0.000182177
0.000203445
0.0207711
0.000161353
0.00014553
0.000160472
0.000221703
0.000180029
0.000145573
0.000193218
0.000190641
0.000187424
0.000147242
0.000145679
0.000226409
0.000187381
0.00268488
0.00461194
0.000153167
0.000188256
0.000147074
0.000173687
0.000163617
0.000147201
0.000216445
0.00104347
0.00019745
0.00181826
0.000144844
0.000144288
0.000141465
0.0414333
0.00021445
0.00015404
0.000217664
0.000194706
0.000146788
0.000144835
0.000689714
0.0418974
0.000226419
0.0335537
0.000262197
0.000163114
6.09797e-05
0.000196191
0.000163044
0.000275568
0.000189547
0.000547999
0.000144872
0.00019059
0.000197867
0.000150774
0.000456275
0.000170443
0.000221667