/*--------------------------------*- C++ -*----------------------------------*\
| =========                 |                                                 |
| \\      /  F ield         | OpenFOAM: The Open Source CFD Toolbox           |
|  \\    /   O peration     | Version:  v2012                                 |
|   \\  /    A nd           | Website:  www.openfoam.com                      |
|    \\/     M anipulation  |                                                 |
\*---------------------------------------------------------------------------*/
FoamFile
{
    version     2.0;
    format      ascii;
    class       volScalarField;
    location    "100";
    object      k_0;
}
// * * * * * * * * * * * * * * * * * * * * * * * * * * * * * * * * * * * * * //

dimensions      [0 2 -2 0 0 0 0];


internalField   nonuniform List<scalar> 
13917
(
0.0186795
0.00019269
0.000226763
0.000150104
0.000177054
0.000192064
0.000159196
0.000273176
0.000156913
0.004631
0.000269363
0.000147567
0.000165517
0.000838152
0.000162003
0.0153658
0.000146356
0.000233832
0.0001986
0.014921
0.000170708
0.000147211
0.000175776
0.000147216
0.000153443
0.000174334
0.0353881
0.00400705
0.000192059
0.000133662
0.00270491
0.000184519
0.000150342
0.0306098
0.000144198
0.000327539
0.000155931
0.000158474
0.000159289
0.000171436
0.00014696
0.00014429
0.000154277
0.000195364
0.000195425
0.000257898
0.000169
0.0144289
0.00309552
0.000144288
0.000147258
0.000209877
0.00825095
0.000147058
0.000147676
0.00020854
0.00129424
0.000175812
0.000143803
0.000270031
0.026403
0.000150401
0.000140804
0.00015295
0.0262048
0.000937497
0.000200637
0.000195656
0.000257794
0.0178144
0.0152924
0.0284367
0.000146924
0.00014308
0.0001717
0.000154883
0.00015851
0.000142558
0.000154324
0.000150593
0.000149806
0.00014713
0.0001467
0.0194989
0.000140634
0.000278711
0.000183811
0.000144651
0.000171113
0.000145819
0.000137374
0.0001546
0.00202754
0.000142115
0.000150029
0.000197814
0.00801373
0.000149146
0.000143802
0.000264634
0.000143293
0.000142591
0.000150002
0.00014333
0.000158163
0.0222219
0.0259145
0.000149221
0.000145555
0.0356311
0.000143942
0.0315849
0.000190242
0.0118734
0.0258736
0.000155908
0.000196965
0.000138437
0.00020784
0.000145645
0.000146499
0.000141337
0.000208261
0.000197235
0.0196536
0.0237103
0.00015245
0.000173254
0.000142317
0.000197208
0.000165322
0.000278764
0.0445563
0.000155857
0.000188055
0.0335272
0.0346032
0.02075
0.000177628
0.000158062
0.00339697
0.000141916
0.0208661
0.000141861
0.000146065
0.000159349
0.0152075
0.00291706
0.0127581
0.000147427
0.000169149
0.00014135
0.000145746
0.000145735
0.0136781
0.000149583
0.000142816
0.0451635
0.00014368
0.000139969
0.000140711
0.0220836
0.00016051
0.00538462
0.0228316
6.69348e-05
0.00754209
0.0238599
0.000128021
0.000180128
0.000147949
0.0427821
0.000156805
0.0223046
0.000191821
0.000142191
0.000150075
0.000214844
0.000164637
0.000161643
0.000154092
0.000147426
0.000147256
0.000229087
0.000207793
0.000321798
0.000146986
0.000229038
0.000133628
0.000250003
0.00019222
0.000193774
0.000211731
0.0187836
0.000142113
0.020032
0.000158403
0.0440346
0.000143898
0.00014886
0.000166057
0.0176356
0.017934
0.000154732
0.040421
0.000177987
0.000169594
0.000141864
0.000212284
0.000149801
0.000139028
0.000214983
0.000223019
0.0144044
0.000187482
0.000176027
0.0301334
0.000152684
0.000134838
0.000134726
0.023683
0.000215357
0.000242754
0.00014235
0.000142701
0.0313699
0.017161
0.000134162
0.000134009
0.000147022
0.000135087
0.000134988
0.0267418
0.0209736
0.000148285
0.000128265
0.00019316
0.0267221
0.000144344
0.000142323
0.0397522
0.0217613
0.000216395
0.0311293
0.000205795
0.000141931
0.0236664
0.000194579
0.000186122
0.000189516
0.000154053
0.0195308
0.000145888
0.000172892
0.000188222
0.000148803
0.00014817
0.000152845
0.000170316
0.000144421
0.0260099
0.0104349
0.000141509
0.000133952
0.000150283
0.000133979
0.000145929
0.000166048
0.000169968
0.000142048
0.0250292
0.0267141
0.00014474
0.000160216
0.000217581
0.000134077
0.000216766
0.0293475
0.000134167
0.0218884
0.000143877
0.0201877
0.00014318
0.000158141
0.000149129
0.000141643
0.000207318
0.000152634
0.00247921
0.000161954
0.0103601
0.000159972
0.0297972
0.0203208
0.00014052
0.000180446
0.000174229
0.000156658
0.000175736
0.000154135
0.00014266
0.000150672
0.000216032
0.000237937
0.000171937
0.000153745
0.000142182
0.0450038
0.0150448
0.000141564
0.000176651
0.000156708
0.00770867
0.000195893
0.0284907
0.0200777
0.000671702
0.000264574
0.00015824
0.015836
0.00779406
0.000221871
0.000164648
0.000160874
0.0357597
0.000148933
0.000202568
0.000193694
0.000145473
0.0424015
0.000141032
0.000171389
0.000136868
0.00673437
0.000137775
0.000170441
0.000178583
0.000496796
0.000144623
0.000188982
0.0175045
0.000149641
0.000148896
0.0337111
0.0185655
0.00877989
0.000932043
0.000133803
0.000148094
0.0229392
0.000258506
0.000133931
0.000178056
0.000147054
0.000187692
0.000171219
0.000204851
0.00020625
0.000217954
0.000171285
0.0266548
0.000142689
0.000149668
0.000188443
0.00021144
0.000145302
0.0165949
0.00017101
0.00492426
0.000148019
0.000226814
0.000175423
0.00347434
0.000144295
0.000237957
0.000214446
0.00018208
0.000145075
0.0013468
0.000138119
0.0228861
0.000213774
0.000144245
0.00317627
0.000150607
0.00176147
0.000137744
0.0167198
0.00151703
0.000154657
0.0314788
0.000204983
0.000152904
0.0193523
0.00021683
0.000153485
0.000209023
0.000147538
0.000207539
0.000223737
0.000141248
0.000158209
0.000153602
0.000141366
0.000138922
0.000143168
0.0386071
0.000237521
0.000148799
0.000143762
0.000146161
0.000179987
0.00747734
0.000135189
0.000128169
0.000195654
0.000226006
0.000141959
0.000154241
0.0116681
0.0110908
0.00197598
0.000199606
0.00971007
0.000139082
0.000134705
0.000168063
0.000138817
0.000135272
0.000148619
0.000134818
0.000138671
0.0234133
0.00014788
0.000172512
0.0273074
0.000180384
0.000139249
0.000145518
0.0191546
0.000166447
0.0167856
0.000136257
0.000142388
0.000138601
0.000135359
0.000155581
0.000151356
0.00947714
0.000209887
0.0242951
0.00014234
0.000167928
0.000210752
0.000149509
0.00020354
0.00892538
0.000146734
0.0202266
0.000139574
0.000142255
0.000145744
0.000150646
0.000138569
0.000149475
0.044804
0.0238811
0.00013837
0.0329444
0.000195672
0.00014723
0.000183307
0.000185233
0.0225112
0.000159321
0.0231547
0.00379901
0.00395187
0.000151387
0.000684064
0.000223737
0.000153517
0.000663363
0.000138519
0.000146635
0.000150055
0.000157588
0.000168836
0.000204947
0.000180124
0.000162729
0.000163756
0.000225344
0.000179735
0.000148795
0.000771188
0.000169323
0.000161823
0.022017
0.000140706
0.000180895
0.000218553
0.000138082
0.0431167
0.0001431
0.000135325
0.000180923
0.000136329
0.000151073
0.000214614
0.0464542
0.0285054
0.000140636
0.000150672
0.000161137
0.000301295
0.00236956
0.000148235
0.000147388
0.000140417
0.000185376
0.00357611
0.000142975
0.000144458
0.000148366
0.000141104
0.000167163
0.000161775
0.000140065
0.000180774
0.0001381
0.000146487
0.000153245
0.0293703
0.000134536
0.000153959
0.000144383
0.000167037
0.000188246
0.000195904
0.000189884
0.000284466
0.000152633
0.000214431
0.0429817
0.0232049
0.0309292
0.000140863
0.000145369
0.000157645
0.00014347
0.0279043
0.000134539
0.0055715
0.000158296
0.0372224
0.00022609
0.00015433
0.0151493
0.000138327
0.000182185
0.000148692
0.000148283
0.0392548
0.000135722
0.000215993
0.000143005
0.000154376
0.000145777
0.000203444
0.000170071
0.000133597
0.000195043
0.000182555
0.010879
0.0105442
0.0454007
0.0225773
0.000134594
0.0179751
0.000135873
0.0300876
0.00292659
0.000151484
0.000178905
0.00014289
0.000168905
0.000153615
0.000135806
0.000148776
0.000163942
0.00635814
0.000141155
0.000182025
0.000146296
0.000133477
0.000143096
0.000250529
0.0092497
0.0111851
0.00018799
0.000161515
8.88566e-05
0.0280543
0.000138126
0.00299859
0.000162243
0.00019071
0.000143446
0.001473
0.000140887
0.000168579
0.000146318
0.0104697
0.000170123
0.0280205
0.000140826
0.000168822
0.000144312
0.000144749
0.0279144
9.78231e-05
0.00014521
0.000206858
0.00014218
0.000146805
0.000143158
0.0302026
0.000141178
0.000173711
0.000134465
0.000144745
0.000211927
0.000142181
0.000203324
0.000148258
0.000137901
0.0298627
0.000182679
0.00014782
0.0083733
0.000210781
0.00946187
0.000220518
0.000138144
0.000164169
0.0275419
0.000226013
0.000166274
0.000155937
0.000170834
0.000147287
0.000142989
0.00147243
0.000190816
0.000157141
0.0228227
0.000170533
0.0179983
0.00416196
0.000252248
0.000169352
0.000209667
0.0237146
0.000142662
0.000185588
0.00154674
0.00013799
0.000141888
0.000142978
0.000169293
0.000152034
0.0182522
0.000166817
0.000140957
0.000192256
0.000140047
0.0294793
0.000143865
0.000142321
0.0456365
0.000186157
0.00610547
0.000147592
0.000140891
0.000142178
0.000149569
0.000161289
0.000141664
0.0185608
0.000164123
0.00614571
0.00538597
0.00018711
0.0454598
0.000150732
0.000148345
0.00014466
0.0309963
0.029176
0.000158997
0.0189472
0.0019828
0.000137879
0.000141932
0.000155658
0.0209845
0.0059577
0.000170407
0.000149421
0.000153982
0.000191403
0.000155884
0.000203793
0.000167092
0.000149709
0.000150715
0.000148176
0.000161136
0.00016417
0.000231558
0.000157569
0.000167275
0.0183913
0.000142712
0.00262874
0.000155168
0.000176345
0.00015794
0.000219979
0.000146246
0.000180741
0.00815791
0.00560249
0.000143705
0.000157567
0.000155781
0.000142517
0.000146051
0.000177331
0.000219245
0.000242605
0.00020417
0.000137908
0.000216605
0.000156833
0.000157676
0.000207528
0.000148483
0.000182183
0.0088024
0.000133651
0.000185856
0.000198276
0.000166786
0.00014078
0.000138808
0.000142937
0.0155213
0.000150145
0.000144631
0.00017103
0.000141957
0.000139824
0.000207129
0.00207833
0.000199108
0.0149346
0.000184308
0.0236555
0.000146068
0.000160342
5.64434e-05
0.000151712
0.00043769
0.000144463
0.000141548
0.000147446
0.000158637
0.000197069
0.000140758
0.00308801
0.00014747
0.00309994
0.000155208
0.000159141
0.000136882
0.000189844
0.000158963
0.0162807
0.000203059
0.000147537
0.0285815
0.000151067
0.0243824
0.000153141
0.000234178
0.000154369
0.000140142
0.00014351
0.0407833
0.000161055
0.0113872
0.00939149
0.000142419
0.000167141
0.000128095
0.000175302
0.00517139
0.000128457
0.0234825
0.000154085
0.000237357
0.000196735
0.00757578
0.000135022
0.000142267
0.000210775
0.000138096
0.000146774
0.000152842
0.000144995
0.00017122
0.000134889
0.000243524
0.000149706
0.0177155
0.0240556
0.00486709
0.0256787
0.0216217
0.0159011
0.00758506
0.00013738
0.000146273
0.000145125
0.000151147
0.000140485
0.000161269
0.000141796
0.00289364
0.000147133
0.0020718
0.000149824
0.000163331
0.000204498
0.000141422
0.000173036
0.000151085
0.000149362
0.000158225
0.000138047
0.0462478
0.000192996
0.00271629
0.000141575
0.00014374
0.000148273
0.000147881
0.0218363
0.000137573
0.000108577
0.000140673
0.0042502
0.000157398
0.000141817
0.000181502
0.00013264
0.000137691
0.00500814
0.00251188
0.000155602
0.000189403
0.000137999
0.00028503
0.000139697
0.000147895
0.0239745
0.000144186
0.000150367
0.000191934
0.0223932
0.000142685
0.00360475
0.000419067
0.000144932
0.000152987
0.000145401
0.00688158
0.000143495
0.000196472
0.000146605
0.0439606
0.000158062
0.0349213
0.00014372
0.000133942
0.0022161
0.000155586
0.000141483
0.0411027
0.000152607
0.000138904
0.00697423
0.000144846
0.000146526
0.000190146
0.000153132
0.0286982
0.000171235
0.000185205
0.000218946
0.000153838
0.0430739
0.000150524
0.000187883
0.000142784
0.0275898
0.00431917
0.000148063
0.000139914
0.000146909
0.000148227
0.000138297
0.000139204
0.000141889
0.000143368
0.000162366
0.000133654
0.000152055
0.000186435
0.023414
0.018947
0.000190542
0.000148308
0.00261865
0.000141264
7.59773e-05
0.00361827
0.00663704
0.000134961
0.000137473
0.000145454
0.000146287
0.000134716
0.000138669
0.000141787
0.000170301
0.000138973
0.0100783
0.00683697
0.000139458
0.0400432
0.000142898
0.00014322
0.000159528
0.0310347
0.000182861
0.000141342
0.00681486
0.00014315
0.000143332
9.25682e-05
0.000146954
0.00885817
0.000150648
0.000317874
0.000139283
0.00014165
0.000166318
0.00781295
0.000152351
0.0307075
9.89607e-05
0.000155584
0.000154044
0.000143776
0.000138598
0.000190032
0.000166071
0.000156811
0.0337775
0.0126434
0.00747129
0.000190898
0.000141476
0.0327326
0.000141287
0.019618
0.000186927
0.000158339
0.000151823
0.0445417
0.0271446
0.00417592
0.000142595
0.00479274
0.00013849
0.000141835
0.000166952
0.00014938
0.000146334
0.00260735
0.0218562
0.000141698
0.000159296
0.0264427
0.00014277
0.000133936
0.00746137
0.0291767
0.000150739
0.000137147
0.000158681
0.000145292
0.000142932
0.000177642
0.000159033
0.000144837
0.00781602
0.000143745
0.00200923
0.00406189
0.000120537
0.0281075
0.000147873
0.000149569
0.000399719
0.0222327
0.00126337
0.000186534
0.000168894
0.000148822
0.000150774
0.000142568
0.0166197
0.000188058
0.000149524
0.000179127
0.00014155
0.00544248
0.000189562
0.000194529
0.000180199
0.000234467
0.00617919
0.00561328
0.0393889
0.000158284
0.000220867
0.000134126
0.000184284
0.000194334
0.00567095
0.000155753
0.000148394
0.000157422
0.0154387
0.000152894
0.0207265
0.000168066
0.000200601
0.0165718
0.00014139
0.000190599
0.000154036
0.00014669
0.000181329
0.00152614
0.00013518
0.000137433
0.000151927
0.0109422
0.000138932
0.000152648
0.00015354
0.000150526
0.000145355
0.000204095
0.00018367
0.000149554
0.000141203
0.000225756
0.000298799
0.000182072
0.0441231
0.000148089
0.000143284
0.0285738
0.000144635
0.000153283
0.0396537
0.029631
0.000170603
0.000184203
0.00016082
0.0148819
0.000140361
0.000167602
0.0115002
0.000142534
0.00019387
0.0234227
0.000208438
0.00415079
0.00830343
0.000138471
0.000146106
0.000164748
0.000145608
0.000146856
0.000231211
0.000144287
0.000175484
0.00013543
0.000179365
0.0211524
0.000153262
0.000218523
0.0166663
0.000143328
0.000185684
0.000159921
0.000152283
0.000142577
0.0321451
0.00018744
0.0237332
0.000160971
0.0244999
0.000200033
0.000140948
0.00271318
0.000168252
0.000149351
0.000142033
0.000276226
0.000142622
0.00015853
0.000173116
0.000158496
0.000148985
0.000180092
0.0354423
0.000140839
0.000244581
0.000370563
0.000146835
0.000141039
0.00015897
0.00411169
0.00011064
0.00013943
0.000162499
0.000168124
0.00734181
0.0174325
0.000145833
0.000138966
0.000138398
0.000143819
0.000164969
0.000155216
0.00500894
0.000148344
0.000155095
0.00152121
0.000196733
0.000190389
0.0285167
0.0240618
0.000147805
0.000143928
0.000138564
0.000151691
0.000183776
0.0449488
0.00266284
0.000206431
0.000165923
0.000177302
0.000153399
0.000168234
0.000158102
0.00019454
0.00014213
0.000270938
0.000202341
0.000138377
0.000147303
0.0362438
0.000178386
0.00107795
0.0234052
0.000215566
0.00014215
0.000223716
0.000158896
0.000141365
0.00595317
0.00716108
0.000142227
0.000170994
0.000197203
0.000167587
0.00015023
0.000134744
0.000141192
0.000139011
0.000142419
0.000162797
0.000177098
0.0229005
0.000167978
0.000157599
0.000164107
0.000197985
0.000140853
0.000169459
0.000239437
0.000211219
0.0257116
0.000151934
0.000134623
0.0289437
0.000139874
0.00109581
0.000152136
0.000172959
0.000148542
0.000140289
8.11135e-05
0.000158436
0.000151509
0.000143645
0.045334
3.4673e-05
0.0277095
0.000146936
0.000145926
0.00680926
0.000139858
0.000139243
0.000232723
0.00517688
0.000159932
0.000166464
0.000149987
0.0107311
0.000141472
0.00015529
0.000148941
0.000134471
0.000211462
0.00014148
0.000138794
0.00478387
0.000180544
0.0489117
0.000214644
0.000140941
0.000163038
0.00013985
0.000141788
0.000154326
0.000151767
0.000146342
0.00020409
0.000145715
0.000191041
0.000177892
0.000167919
0.000145515
0.000149137
0.000142667
0.0328005
0.00013503
0.0180097
0.000185312
0.00015445
0.000178338
0.00016632
0.00016338
0.000145401
0.00017812
0.000139315
0.000138367
0.00503731
0.00018096
0.00014573
0.000142596
0.000143562
0.000140543
0.000222099
0.00014151
0.0298737
0.00017611
0.000142091
0.000141924
0.000136928
0.000175953
0.000430256
0.0275378
0.00055182
0.00638308
0.000169959
0.000203337
0.000153654
0.0142002
0.00013539
0.000134647
0.00015671
0.00395359
0.000137171
0.0347239
0.000146355
0.000143407
0.000234683
0.000276526
0.0155438
0.0034536
0.000157567
0.000268457
0.000351149
0.000138901
0.0158215
0.000142987
0.000142181
0.0205234
0.000136221
0.0357876
0.00128835
0.000140485
0.000143548
0.000139162
0.0445217
0.000143752
0.000134734
0.000187055
0.000140989
0.000139563
0.000141943
0.000139008
0.000174045
0.000146908
0.000155951
0.000137027
0.032846
0.00436754
0.000137195
0.000137274
0.000150508
0.000141801
0.00015413
0.000147358
0.000143367
0.000147162
0.000143237
0.000151185
0.00014468
0.000212423
0.000136923
0.000190425
0.000146614
0.00020752
0.00013906
0.000146118
0.000141616
0.000135433
0.000169819
0.000157366
0.000156214
0.0485674
0.000300876
0.0443609
0.0299526
0.000189148
0.0267349
0.000146341
0.000144369
0.0143887
0.0176213
0.000141014
0.0274893
0.000137749
0.000194145
0.00221911
0.000153895
0.000191985
0.000863841
0.0232631
0.000142358
0.000175118
0.000139645
0.00203254
0.000154878
0.0391631
0.0161366
0.000147148
0.00339605
0.00913266
0.000147149
0.000207374
0.00431149
0.000153317
0.000139049
0.00262313
0.0302923
0.00013885
0.000164508
0.000148262
0.00479578
0.000217919
0.000145858
0.000139422
0.0021055
0.000141408
0.000143378
0.000149589
0.000137609
0.000123107
0.000162558
0.000161237
0.0342911
0.000142443
0.000189414
0.000146699
0.00268297
0.00018237
0.00229996
0.000138713
0.000160012
0.000138729
0.000145138
0.000153803
0.000145079
0.000388031
0.000151774
0.000138049
0.000140941
0.00441474
0.000138915
0.00818249
0.00353759
0.00376125
0.000145593
0.000140139
0.000141563
0.00491142
0.000147889
0.0146562
0.000142956
0.00351696
0.000152934
0.000149292
9.82956e-05
0.000146463
0.000145877
0.0290145
0.000197379
0.0343813
0.000146
0.0360953
0.0063202
0.000145956
0.0304019
0.000147153
0.000156103
0.0235295
0.000153092
0.000184215
0.0235189
0.00016689
0.000186124
0.000145265
0.00728673
0.000143247
0.00742741
0.000141539
0.0215693
0.000143441
0.000144363
0.000153217
0.00419349
0.000140492
0.000259936
0.000184655
0.00170501
0.000141959
0.000164459
0.0414349
0.00585659
0.00021326
0.00019324
0.000139046
0.000201423
0.0018727
0.000155024
0.000150492
0.000134262
0.000210464
0.017097
0.000141038
0.0177002
0.000141945
0.0325458
0.000150711
0.000154735
0.000155427
0.00683269
0.00384587
0.000143435
0.000151908
0.000137796
0.000146144
0.025398
0.000187598
0.000164962
0.00014619
0.000160218
0.0365645
0.000229243
0.00400977
0.00353261
0.000140613
0.000142738
0.000204992
0.0127446
0.0210223
0.001897
0.000205126
0.000171842
0.000214038
0.0390231
0.0222778
0.00381151
0.000139051
0.000193205
0.000175303
0.000191403
0.00014419
0.000157623
0.000184654
0.000279799
0.00276117
0.000145477
0.000438688
0.0333134
0.000181681
0.000143086
0.000143162
0.014178
0.000140652
0.0454157
0.000161067
0.000142148
0.00024755
0.000325974
0.000137086
0.000168634
0.000162482
0.00014445
0.0429141
0.000181403
0.0456177
0.000141175
0.0319585
6.68499e-05
0.000205297
0.000135435
0.000159397
0.000167681
0.000272162
0.000212104
0.000184804
0.0257168
0.000236754
0.000128859
0.000158016
0.00014762
0.000203593
0.0169619
0.000137965
0.000136869
0.000151905
0.000247022
0.000279646
0.000141587
0.000176108
0.000255368
0.000138895
0.000296238
0.000155254
0.0451907
0.000158932
0.00216978
0.0158948
0.000160956
0.000156276
0.000216064
0.000140968
0.000185048
0.0265585
0.000165754
0.000205905
0.000163694
0.000180574
0.0101789
0.0350523
0.000145049
0.00316146
0.000194623
0.000136255
0.000196009
0.000187477
0.000216192
0.00043433
0.0122876
0.00183833
0.000204475
0.026195
0.000159794
0.000182697
0.000136473
0.00014729
0.000145148
0.000139132
0.000106475
0.000270543
0.000135172
0.000202826
0.000201371
0.000140813
0.00504237
0.027726
0.000133857
0.000147538
0.000138204
0.000150991
0.000173552
0.000143216
0.0240147
0.000162279
0.000190095
0.000158771
0.000190049
0.000213786
0.000173092
0.000719916
0.000144475
0.000151424
0.000134804
0.000140549
0.0405857
0.000189678
0.000163862
0.0250694
0.000146566
0.000149039
0.000170008
0.000138057
0.000141918
0.000190952
0.000157008
0.0266566
0.047144
0.025521
0.000145394
0.0437873
0.000141974
0.000149806
0.000136906
0.000200839
0.0401541
0.000143685
0.000228972
0.0261361
0.000168281
0.00015146
0.000139133
0.000161513
0.00578019
0.000137365
0.00014782
0.000151341
0.000159289
0.000203193
0.000154303
0.000157581
0.000140358
0.000150736
0.00010606
0.000167036
0.00015427
0.000203207
0.0114683
0.0395754
0.0102558
0.000157557
0.000150457
0.0267416
0.000144514
0.000185482
0.000145903
0.0261938
0.000147966
0.0001478
0.00019247
0.0183873
0.00014273
0.000138701
0.000135207
0.000197366
0.0116522
0.000211216
0.00014345
0.000153668
0.000139001
0.0338126
0.00014329
0.00493963
0.000179933
0.000146551
0.000243631
0.000174616
0.00391595
0.000149151
0.000139202
0.000163381
0.000182375
0.000237723
0.000147211
0.000148668
0.000147326
0.0327305
0.000144761
0.000151424
0.0339838
0.000152987
0.000192562
0.000155588
0.000141923
0.000143233
0.0039213
0.000153
0.00131042
0.00412407
0.00013181
0.00191134
0.000148512
0.000203517
0.000176565
0.000152544
0.000135818
0.000131561
0.000143113
0.00323774
0.000175269
0.0323767
0.0276068
0.000139516
0.000208566
0.000171172
0.00207913
0.000143257
0.000692262
0.0362527
0.0212159
0.000141898
0.00015236
0.00014928
0.007484
0.0400443
0.000141855
0.000144103
0.000163323
0.0242769
0.000146575
0.000152526
0.000152054
0.000193465
8.95988e-05
0.000135511
0.0207619
0.000162205
0.000142973
0.00242812
0.00018
0.00343212
0.0102166
0.000167428
0.00015673
0.000152457
0.000161027
0.00014941
0.000227451
0.000179028
0.000143388
0.000155268
0.000226526
0.0487669
0.000137195
0.000209302
0.0449342
0.0125544
0.000144056
0.000145213
0.00535082
0.0114024
0.00168753
0.00014204
0.0410209
0.000182846
0.000132596
0.0225835
0.000160572
0.000147313
0.000268197
0.000145006
0.000126896
0.000139784
0.000130548
0.000145997
0.000135172
0.0255454
0.000135034
0.000140876
0.000190743
0.000155975
0.000155783
0.000200067
0.000145572
0.000143496
0.000152513
0.000150977
0.00414531
0.00656207
0.000102946
0.0055647
0.000174607
0.00507171
0.000255586
0.0282012
0.0474448
0.0239066
0.000139114
0.000167052
0.00014346
0.000145992
0.000141136
0.00014757
0.000203383
0.000180545
0.000174328
0.000140589
0.000142786
0.000178725
0.000147662
0.000148425
0.000145721
0.0358312
0.000164328
0.0142744
0.000145224
0.00478858
0.000149
0.000147349
0.000149473
0.000172448
0.000140446
0.000195584
0.0315507
0.000174139
0.0278786
0.00268494
0.000154298
0.000160095
0.0048728
0.000208762
0.000136426
0.000140728
0.000131777
0.0285079
0.000130465
0.00150666
0.00014923
0.000192878
0.000724152
0.00291399
0.000183988
0.0437532
0.000139045
0.000135013
0.00199468
0.0119536
0.000143888
0.000145267
0.0148343
0.000139156
0.000227784
0.000154862
0.000142305
0.000158227
0.000144598
0.000190332
0.030735
0.0279436
0.000155869
0.00014403
0.000193637
0.000151458
0.000195156
0.000138965
0.000198039
0.000189385
0.000148372
0.000146907
0.000132331
0.000228291
0.000224511
0.0002044
8.87771e-05
0.000162953
0.0178384
0.000186385
0.000192645
0.0300541
0.000142143
0.0275113
0.000150678
0.0354919
8.37381e-05
0.0266255
0.0272141
0.000147627
0.000181386
0.00205345
0.000145187
0.0232198
0.000145233
0.000144588
0.000157546
0.000149644
0.000163324
0.000220605
0.00197896
0.0232109
0.000157767
0.000173368
0.00015145
0.000147075
0.000146319
0.000219072
0.000190287
0.0232804
0.000173815
0.000135595
0.000137849
0.000149066
0.000213691
0.000155413
0.000150481
0.000156938
0.000205675
0.000164151
0.000181966
0.000179976
0.0278923
0.000162479
0.000165394
0.000143304
0.000157665
0.000224203
0.0024389
0.000179858
0.000138044
0.00234088
0.000165784
0.000141701
0.000177849
0.0340455
0.00212253
0.0001685
0.000139257
0.0208141
0.000148714
0.000138966
0.000136019
0.0311505
0.000302716
0.000154215
0.000173503
0.0184394
0.000166508
0.000181148
0.000185059
0.0457072
0.000163781
0.0391404
0.000148785
0.00021672
0.000159755
0.039228
0.000166259
0.000139757
0.037448
0.000145171
0.000150656
0.0104582
0.0136608
0.00154632
0.000222954
0.000154979
0.000151538
0.00540114
0.000141656
0.000141057
0.000145021
0.000175666
0.000143098
0.000169057
0.000166201
0.00127816
0.00398388
0.000149935
0.0235297
0.000165279
0.035156
0.0284931
0.000144842
0.000147334
0.000156816
0.000454633
0.000203198
0.00018833
0.0334304
0.0233374
0.000159401
0.000149047
0.00975542
0.0249676
0.000222264
0.0010133
0.000146523
0.000144212
0.000145026
0.000150625
0.000141949
0.000165715
0.0282875
0.000166569
0.00495205
0.0211643
0.00593355
0.0245216
0.0399297
0.000161486
0.0422118
0.000201616
0.000186622
0.000136719
0.000145567
0.000185665
0.0246438
0.000150312
0.013085
0.0385985
0.000139636
0.000145653
0.000145309
0.000202367
0.000149084
0.00019087
0.0284995
0.000136951
0.000142715
0.000139311
0.000150347
0.000191718
0.0304519
0.000173163
0.0160977
0.000209071
0.000141057
0.00372064
0.000231115
0.00014518
0.000183393
0.00267281
0.0226469
0.00282661
0.026872
0.000144617
0.00954174
0.0319777
0.000225428
0.0185931
0.000140966
0.000153333
0.00015487
0.000153016
0.027164
0.000188299
0.000147071
0.000159799
0.00538717
0.0317811
0.000148495
0.000149633
0.0453813
0.0391599
0.000147017
0.000161865
0.000205286
0.000142181
0.000142923
0.0450266
0.00014074
0.000228244
0.00408066
0.0297096
0.000140261
0.000190643
0.000204285
0.00014137
0.000133456
0.0324013
0.010071
0.000147456
0.000173115
0.000216828
0.000209001
0.042833
0.000182949
0.000157961
0.00373299
0.00605557
0.000167197
0.000140352
0.00028914
0.000134736
0.000134641
0.0262835
0.000171098
0.000201173
0.00015516
0.000159248
0.000140659
0.000135559
0.000149726
0.000150535
0.00156888
0.000154734
0.000152989
0.018719
0.000172929
0.000188422
0.00690223
0.0373
0.00151494
0.000139031
0.000155895
0.000167793
0.000157559
0.000228296
0.0042025
0.000149643
0.000122736
0.0307313
0.000159633
0.000190995
0.000189748
0.000192673
0.000194197
0.000151707
0.000196083
0.000197453
0.000199189
0.00020113
0.000194003
0.000192844
0.000165931
0.000140201
0.000165752
0.00019123
0.000140525
0.000248588
0.0437634
0.000243246
0.0360299
0.000132995
0.000138119
0.000107751
0.0149628
0.000150265
0.000154772
0.000182109
0.0295314
0.0136142
0.000145111
0.000168681
0.000156686
0.0162938
0.00528601
0.000154513
8.9263e-05
0.0318564
0.000194793
0.0385108
0.000200911
0.00120119
0.0433401
0.000127964
0.0410552
0.0347636
0.000151156
0.00019064
0.00020567
0.000156143
0.000139765
0.000741314
0.00430932
0.000140226
0.000140651
0.0152945
0.000326691
0.000195737
0.00014749
0.000219442
0.00020831
0.0385378
0.0278403
0.000145323
0.000142603
0.000150056
0.000154817
0.0364477
0.0120562
0.0270175
0.000189617
9.56762e-05
0.00361372
0.000155048
0.000139888
0.0316558
0.000140541
0.0405558
0.000141272
0.0395021
0.000151098
0.000150247
0.00531318
0.000144387
0.000196112
0.00813392
0.000165388
0.000153117
0.000151488
0.000202448
0.0268068
0.000227725
0.0369077
0.000160928
0.000152533
0.00016011
0.000193805
0.0435229
0.0246379
0.000205866
0.000215852
0.000197902
0.00939016
0.000143737
0.000140317
0.000137123
0.000136737
0.00016316
0.000240307
0.00265878
0.000173373
0.000200942
0.000141325
0.00498825
0.000292153
0.0162674
0.000143342
0.000151994
0.000130729
0.0342
0.000173123
0.00568123
0.000202272
0.000197887
0.00012356
0.00013204
0.00016935
0.000222846
0.000123486
0.000201849
0.000144822
0.000199087
0.00014874
0.000147134
0.00021692
0.00763816
0.00134166
0.000147717
0.000199943
0.000339616
0.0298825
0.0197726
0.0348536
0.0309613
0.000141182
0.000185693
0.000145838
0.000199799
0.000142672
0.000212862
0.000152197
0.000178412
0.00908487
0.00752938
0.0001579
0.00021736
0.0349489
0.000193543
0.000152745
0.0120387
0.000192049
0.000149489
0.000148543
0.0285017
0.00016159
0.000220502
2.52231e-05
0.00113091
0.0218723
0.000154967
0.0198277
0.0313212
0.00786884
0.00112928
0.000164532
0.000195741
0.00019434
0.0324774
0.00184098
0.000149797
0.00124598
0.000172845
0.000238345
0.000161648
0.0233387
0.000462685
0.00351647
0.000157748
0.00842421
0.000155474
0.0279794
0.000221855
0.0038188
0.01593
0.000138969
0.000130667
0.0305317
0.0401893
0.000127303
0.0001494
0.000174064
0.000164626
0.0199233
0.000293996
0.0345469
0.000158655
0.0340579
0.000216833
0.00146024
0.000149572
0.000243502
0.0224033
0.000159354
0.000188479
0.000132607
0.000155111
0.000145916
0.00526712
0.000141633
0.000145504
0.0426419
0.0128169
0.000136575
0.0421957
0.000150536
0.000145505
0.000142243
0.00014029
0.000147379
0.000279139
0.0433927
0.000137147
0.00125568
0.000185496
0.000175875
0.000819426
0.000190079
0.000157777
0.000164376
0.000141802
0.00694224
0.000167432
0.0426783
0.000166336
0.0222984
0.000729257
0.000190989
0.00307248
0.0334593
0.000137689
0.0250471
0.000182973
0.000186303
0.000201473
0.000141976
0.000180472
0.0002042
0.000145331
0.00101983
0.000142818
0.0313648
0.000199321
0.00603857
0.00020198
0.000201267
0.0418601
0.000145894
0.00014269
0.000183291
0.000152505
0.00014728
0.000147589
0.00016072
0.000141051
0.000141169
0.000151708
0.000176228
0.000153284
0.000161363
0.000155019
0.000178739
0.000191143
0.000154117
0.0337061
0.000153394
0.00014184
0.000191658
0.000172209
0.000155644
0.000141042
0.000705399
0.000152931
0.030204
0.000153451
0.00020769
0.000142075
0.000144789
0.000217012
0.0446577
0.000186501
0.000171561
0.000132912
0.0389895
0.000146189
0.000140878
0.000188339
0.000154362
0.000212961
0.0351145
0.000195106
0.000216738
0.00017319
0.0217178
0.000145396
0.000146176
0.000187341
0.00366
0.000182188
0.000203432
0.0207756
0.000161361
0.000145529
0.000160471
0.000221745
0.000180033
0.000145573
0.000193249
0.000190659
0.00018742
0.000147242
0.000145679
0.000226407
0.000187365
0.00269713
0.00467559
0.000153168
0.000188274
0.000147074
0.00017369
0.000165206
0.000147201
0.000216507
0.00104981
0.000197422
0.00175571
0.000144844
0.000144289
0.000141465
0.0414589
0.000214482
0.000154038
0.000217535
0.000194743
0.000146788
0.000144835
0.000684638
0.0419437
0.000226403
0.0335602
0.00026237
0.000163113
6.20851e-05
0.000196229
0.000163043
0.000289937
0.000189566
0.000546226
0.000144871
0.000190603
0.000197899
0.000150774
0.000435866
0.000170472
0.000221815