/*--------------------------------*- C++ -*----------------------------------*\
| =========                 |                                                 |
| \\      /  F ield         | OpenFOAM: The Open Source CFD Toolbox           |
|  \\    /   O peration     | Version:  v2012                                 |
|   \\  /    A nd           | Website:  www.openfoam.com                      |
|    \\/     M anipulation  |                                                 |
\*---------------------------------------------------------------------------*/
FoamFile
{
    version     2.0;
    format      ascii;
    class       volScalarField;
    location    "100";
    object      nut;
}
// * * * * * * * * * * * * * * * * * * * * * * * * * * * * * * * * * * * * * //

dimensions      [0 2 -1 0 0 0 0];


internalField   nonuniform List<scalar> 
13917
(
0.00350337
0.00187049
0.00064698
0.00555501
0.00529278
0.002005
0.0030166
0.00233165
0.00258853
0.000281506
0.00236185
0.00594794
0.00502323
0.00235019
0.00484091
0.00217199
0.00600285
0.00184558
0.00057045
0.00151347
0.00214679
0.00596234
0.00131553
0.00596231
0.00559137
0.00172842
0.0142567
0.000207536
0.00130943
0.00590918
0.000200769
0.00139214
0.00594067
0.00991534
0.00594467
0.00242575
0.00561572
0.00608695
0.00264569
0.00363997
0.00596829
0.00590323
0.00274197
0.000688478
0.000712644
0.000368186
0.00227937
0.00273878
0.00371734
0.00594336
0.00594386
0.000406622
0.000490115
0.00595327
0.00595921
0.000386367
4.31953e-05
0.00138706
0.00590763
0.00039903
0.00934699
0.00439978
0.00601228
0.0053345
0.00870535
0.00485362
0.00141025
0.00133725
0.00192301
0.00300512
0.00541119
0.00886581
0.0059169
0.00592304
0.00201309
0.00533924
0.00572517
0.00592837
0.00542287
0.00593353
0.00593348
0.00600309
0.00591091
0.00635742
0.00582186
0.00200923
0.00111684
0.00589302
0.00344459
0.00600452
0.00588751
0.00256904
0.00274347
0.00593959
0.00594618
0.00139708
0.00460722
0.00601963
0.00587695
0.00109242
0.00600199
0.00598715
0.00592973
0.00594292
0.00572555
0.00650246
0.00861637
0.00476233
0.0058688
0.0146657
0.00584138
0.0103517
0.00134913
0.00202654
0.00857437
0.00453814
0.000626051
0.0059239
0.000475066
0.00588204
0.00601027
0.00594139
0.00147931
0.000537244
0.00357303
0.00649521
0.0055228
0.00184382
0.0059235
0.000561792
0.00193231
0.00077292
0.0129505
0.00512487
0.00106827
0.014152
0.0115938
0.00384187
0.00150769
0.00607858
0.00647313
0.00593879
0.00610788
0.00587493
0.00590016
0.00587741
0.00540286
0.00760647
0.00197681
0.00595881
0.00370636
0.00598338
0.00589246
0.00588314
0.00722588
0.00589665
0.00593591
0.0132334
0.00597135
0.00594734
0.00583463
0.00797561
0.00414852
0.00835659
0.00868818
0.000193941
0.000188716
0.00790514
0.00578924
0.00146915
0.00596008
0.0127484
0.0025378
0.00801742
0.000798326
0.00597828
0.00586491
0.000367519
0.00203109
0.00376573
0.00288427
0.00596158
0.00594459
0.000285228
0.000500434
0.00104382
0.00594084
0.000291166
0.0059077
0.00153694
0.000798609
0.00074534
0.000362531
0.00362433
0.00593723
0.00377735
0.00468613
0.012566
0.00594356
0.00592306
0.00268376
0.00309839
0.00260755
0.00580633
0.0153967
0.00181102
0.00386755
0.00593573
0.000390358
0.0059345
0.00585258
0.00472017
0.00427708
0.00263705
0.00107731
0.00162316
0.0100932
0.00604535
0.00584514
0.00584398
0.00685782
0.000329126
0.00028908
0.00582425
0.00600431
0.0139414
0.00269054
0.0058296
0.00582556
0.00594127
0.00585416
0.00585257
0.00796834
0.00643187
0.00596146
0.00579571
0.000738313
0.00776805
0.00599714
0.00582415
0.015515
0.00627374
0.000308
0.0103948
0.000514563
0.00587552
0.00831601
0.00066335
0.00137389
0.000932675
0.00583852
0.00535123
0.00588917
0.00376652
0.00103472
0.00595635
0.00592979
0.00538898
0.00551213
0.00594389
0.00681535
0.00846666
0.00594034
0.00582222
0.00589178
0.00582162
0.00588954
0.00614011
0.00214799
0.0059372
0.00580592
0.009181
0.0058981
0.00566676
0.000407197
0.00585242
0.000942645
0.00858765
0.00585311
0.00500862
0.00594539
0.00742849
0.00598857
0.00543042
0.00595234
0.00587569
0.000395616
0.00604059
0.00219245
0.00512407
0.00824779
0.00583934
0.0114894
0.00359528
0.00595297
0.00129812
0.00545342
0.00479717
0.00533437
0.00562393
0.00594553
0.00603718
0.00041188
0.00526148
0.00408158
0.00561304
0.0058238
0.0130445
0.00176342
0.00591322
0.00609185
0.00487759
0.00987691
0.000954612
0.00973852
0.00737853
0.00402033
0.00076135
0.00567803
0.00537794
0.00997846
0.000791763
0.00611671
0.00527418
0.0141933
0.00593775
0.00197189
0.000753115
0.0059884
0.0126427
0.00582976
0.00171347
0.005919
0.000331796
0.00581672
0.00426277
0.00158393
0.00380683
0.00600071
0.000898937
0.00537068
0.0059543
0.0059387
0.0111347
0.00559287
0.0037816
0.00154729
0.00584271
0.00596163
0.00650924
0.000708173
0.00584414
0.00537946
0.00594723
0.00119157
0.00417224
0.0004314
0.000584464
0.00101639
0.00162484
0.0081449
0.00592879
0.00595345
0.00515443
0.00032846
0.00598592
0.0026426
0.00191463
0.0142598
0.00596293
0.000550075
0.00585211
0.00423518
0.00590058
0.000282454
0.000376443
0.00150396
0.00590598
0.000868616
0.00593351
0.00870516
0.000328125
0.00588973
0.00387766
0.00592159
0.00786735
0.005859
0.00220418
0.00697439
0.00571686
0.0145882
0.000948559
0.00587578
0.00736355
0.000931798
0.00586977
0.000373296
0.0059597
0.000918685
0.000602278
0.00583376
0.00282928
0.00576154
0.00586688
0.00582048
0.00593502
0.0128559
0.000635914
0.00596011
0.00594601
0.00595852
0.00142557
0.00727004
0.00588905
0.00578971
0.00104008
0.00061028
0.00588228
0.00584059
0.00466041
0.00696351
0.00877088
0.000528539
0.00350241
0.00593319
0.00587635
0.00234693
0.00581892
0.00588953
0.00595619
0.00587711
0.00592892
0.00793782
0.00596174
0.00401845
0.00694611
0.00111426
0.00585729
0.00588812
0.00728281
0.00263659
0.00250037
0.00591452
0.00583519
0.00593877
0.00586403
0.00576143
0.00590529
0.00388144
0.00630329
0.00694738
0.00583487
0.0020553
0.00591545
0.00593974
0.000517189
0.00378547
0.00594217
0.0106122
0.00586184
0.0058833
0.00595361
0.00591885
0.00584488
0.00597731
0.0131317
0.00859617
0.00584096
0.0124449
0.000929625
0.00591448
0.00104701
0.00183021
0.00842717
0.00244839
0.00675946
0.011443
0.011772
0.00590103
0.00438343
0.00595127
0.00584913
0.000591164
0.00590613
0.00594798
0.00594561
0.00293198
0.00252075
0.000480454
0.00119512
0.00603777
0.005597
0.00162775
0.00174397
0.0059596
0.00153322
0.00229509
0.00495453
0.00836092
0.00582259
0.00136078
0.000348747
0.00581588
0.013192
0.00589658
0.00586394
0.0012079
0.00591365
0.00601471
0.000408709
0.0133879
0.0148096
0.00583186
0.00478665
0.00587617
0.000447729
0.00111026
0.00596179
0.0059561
0.0058277
0.00117784
0.00811785
0.00593745
0.00599503
0.00592496
0.00586065
0.00570695
0.00381611
0.00593032
0.00119645
0.00581649
0.005961
0.00585837
0.00986918
0.0058104
0.0037529
0.00594083
0.00181864
0.000851812
0.00115135
0.000804197
0.000929801
0.00580761
0.00154246
0.0122251
0.00849013
0.00874504
0.00590318
0.00595035
0.00590112
0.00586339
0.00906766
0.00586546
0.00749071
0.00425242
0.0108822
0.00101098
0.00309694
0.00175941
0.0058424
0.00149667
0.00602295
0.00585944
0.0101113
0.00590349
0.000920651
0.00601461
0.0060055
0.0059554
0.000495813
0.00570626
0.00581001
0.000745197
0.0012101
0.0132758
0.00389725
0.012897
0.00849764
0.00581113
0.00289332
0.0059221
0.0102848
0.00790416
0.005832
0.00543726
0.00600442
0.00217412
0.00298565
0.00590277
0.00602119
0.00612942
0.00255967
0.00583892
0.0013291
0.00594265
0.00580808
0.00600238
0.000411409
0.0039304
0.00106828
0.000860538
0.00372413
0.000229148
0.00841499
0.00586861
0.00158202
0.00610768
0.00198819
0.00586454
0.00107117
0.00585655
0.00565952
0.00590475
0.012758
0.00222347
0.00927073
0.00594003
0.00234453
0.00594913
0.00599653
0.00885316
0.000438296
0.00594004
0.00040612
0.00582371
0.00587055
0.0060041
0.00997691
0.00583843
0.00547664
0.00586516
0.00594589
0.000366442
0.00599084
0.000450746
0.00601065
0.00581619
0.0103002
0.00127813
0.00595849
0.000455547
0.000653415
0.00844904
0.000328256
0.00583887
0.00392286
0.00893438
0.000942076
0.00253022
0.00576279
0.00561504
0.00601178
0.00592618
0.00694584
0.000743233
0.00480434
0.00846057
0.00193943
0.0139596
0.00205482
0.0051221
0.00417761
0.000353984
0.00605517
0.00594376
0.00523174
0.00731644
0.00581633
0.00595461
0.00600788
0.00626091
0.00603237
0.00309091
0.00182534
0.00589337
0.000794389
0.00592482
0.0101496
0.00594682
0.00592449
0.013461
0.000937548
0.0150584
0.00593217
0.00589798
0.00592815
0.00576573
0.00261328
0.00588137
0.00298425
0.00498692
0.0105718
0.0138734
0.00532449
0.0128274
0.0048702
0.0060215
0.00594797
0.00940392
0.0147504
0.00473951
0.0031923
0.0047545
0.00581795
0.00591948
0.00577922
0.00626162
0.0150072
0.00227866
0.00591252
0.00353443
0.00193688
0.00574487
0.00043416
0.00176631
0.00594818
0.00593322
0.00600372
0.00260708
0.00558127
0.000910474
0.00452918
0.0057936
0.00308935
0.00584496
0.00547791
0.0057714
0.00208558
0.0040907
0.000969049
0.00601291
0.00162999
0.00351978
0.0182976
0.00586622
0.0047106
0.00607496
0.00584536
0.00589693
0.00362466
0.00626176
0.000486919
0.000453897
0.00583669
0.000942011
0.002446
0.00261701
0.000380922
0.00595604
0.00157668
0.00523599
0.00580425
0.000924711
0.000636952
0.00185325
0.00588089
0.00584721
0.00592754
0.00212455
0.00594343
0.00593769
0.00179119
0.00588711
0.00586977
0.000454017
0.00185733
0.00319207
0.00824343
0.00118596
0.00662057
0.00589608
0.00568007
0.000157547
0.00582272
0.0029188
0.00598838
0.00594334
0.00593316
0.00427968
0.00106732
0.0058817
0.0110527
0.00593226
0.00818594
0.00526882
0.00253108
0.00591861
0.000765412
0.00540274
0.00626308
0.00284496
0.00601929
0.00962237
0.00592799
0.00602775
0.00308482
0.00334252
0.00580338
0.00589186
0.00586195
0.0111398
0.00278379
0.0101148
0.00604133
0.00584259
0.00179113
0.00579202
0.00587962
0.00989254
0.00580156
0.00847508
0.00341108
0.0028417
0.000614639
0.00989256
0.00582975
0.00594701
0.00056815
0.00584029
0.00595139
0.00589111
0.00594735
0.00172267
0.00582755
0.00146816
0.00594917
0.00308605
0.00577937
0.00769157
0.00722171
0.0109077
0.00206705
0.00968191
0.00581614
0.0058795
0.00589246
0.00593181
0.00582994
0.00286891
0.00585656
0.0032783
0.0059566
0.00104607
0.00594947
0.00193218
0.000663619
0.00591859
0.00359712
0.0059292
0.00585709
0.00381228
0.0059357
0.0127416
0.000705167
0.00965909
0.00591479
0.00583958
0.00595359
0.00592787
0.00830852
0.00581757
0.000430578
0.00585173
0.0126412
0.00548206
0.00586808
0.00172392
0.00380866
0.0058193
0.0131792
0.00162728
0.00576012
0.000843532
0.00584371
0.00095604
0.00586293
0.00592802
0.00660307
0.00597317
0.00574668
0.000796891
0.00565155
0.0058987
0.00578422
0.000482533
0.0058872
0.00586863
0.00595187
0.0027408
0.00583769
0.000802923
0.00592741
0.0133217
0.00542908
0.0117757
0.00594342
0.00588373
0.0084895
0.00607689
0.0058348
0.011578
0.00589349
0.0058246
0.00884902
0.00588878
0.00588037
0.000791936
0.00587869
0.00931695
0.00419464
0.00172979
0.000362911
0.00409982
0.0132058
0.00593258
0.000858577
0.00583893
0.00732534
0.0128124
0.00593714
0.00586624
0.00589113
0.0059604
0.00590727
0.00592792
0.00593828
0.00585696
0.00422766
0.00580433
0.00591322
0.00107119
0.00890908
0.00711058
0.000836293
0.00595223
0.00922072
0.00584589
0.000193064
0.00806445
0.000179658
0.00586314
0.00581715
0.00589195
0.0059498
0.00585821
0.00593509
0.00584513
0.00393552
0.00582509
0.000760347
0.00866096
0.00584165
0.0117933
0.0058407
0.00593438
0.00507519
0.010333
0.00132827
0.00597707
0.0161139
0.00594341
0.00593923
0.000361022
0.00587162
0.00565673
0.00588352
0.00352714
0.00585549
0.00593793
0.00282123
0.0103132
0.00589618
0.00975048
0.00309421
0.00610965
0.00583663
0.0058425
0.0058432
0.00118292
0.00180185
0.00472156
0.010664
0.00116626
0.0100855
0.0011445
0.00593804
0.00992807
0.00593858
0.00706251
0.000998519
0.0025349
0.00591385
0.0148001
0.015027
0.00155785
0.00583779
0.00920424
0.00590725
0.005856
0.00178663
0.00594958
0.00592291
0.00187915
0.00513606
0.00594047
0.00210744
0.00753966
0.00600156
0.00584063
0.00834632
0.0101639
0.0059423
0.00594243
0.0029312
0.00588531
0.00593522
0.00343069
0.00504182
0.00588512
0.0116531
0.00586007
0.00636968
0.00843618
0.00371824
0.00769698
0.00593645
0.005951
0.00389095
0.00555696
0.00771572
0.00567705
0.00229267
0.00573901
0.00510256
0.00590231
0.00637764
0.00619724
0.00591884
0.00127354
0.00587072
0.0177042
0.000796219
0.00094465
0.00170415
0.000251893
0.015335
0.00258993
0.012501
0.00608187
0.000230082
0.00584527
0.0012227
0.000687724
0.0104911
0.00386645
0.00586219
0.00430472
0.012273
0.00587631
0.00787946
0.00284345
0.000587884
0.00633316
0.00593777
0.00177352
0.0058468
0.0059555
0.0056885
0.00585465
0.00590346
0.00583219
0.00591172
0.00350693
0.00582746
0.00589354
0.00327343
0.00593253
0.00591585
0.000628072
0.00168792
0.00591878
0.00590939
0.00123688
0.00341959
0.0019047
0.0133034
0.00594349
0.00583916
0.014064
0.00593538
0.00586936
0.0124887
0.00841217
0.00510025
0.00124881
0.00390463
0.00188048
0.000750043
0.00289739
0.00434279
0.00593056
0.000607983
0.00889222
0.000540472
0.00913895
0.00892655
0.00592781
0.0059562
0.0061459
0.00592106
0.00596385
0.00091267
0.00598059
0.00168249
0.00581614
0.00171311
0.00792449
0.00587843
0.000329457
0.00925784
0.00584206
0.0018607
0.00525881
0.00590649
0.0058484
0.00952491
0.000875784
0.00632977
0.00429796
0.00825552
0.00061583
0.00589884
0.00513331
0.00257864
0.00558778
0.00587448
0.00052041
0.00584819
0.00442116
0.0018141
0.00560015
0.0055827
0.00123329
0.0119467
0.00583625
0.000535481
0.00352544
0.00595437
0.00584361
0.00589307
0.00166307
0.000105275
0.00588093
0.00199169
0.00603418
0.00951444
0.00253834
0.00591212
0.00582721
0.00592591
0.00584242
0.00618157
0.00579318
0.00178618
0.00592496
0.00344879
0.00519205
0.00650436
0.000841449
0.00993404
0.00862225
0.00593368
0.00593335
0.00581979
0.00591826
0.00181199
0.0121533
0.00995718
0.000618719
0.00267288
0.00133993
0.00319473
0.00169086
0.00442379
0.000748664
0.00593686
0.00129949
0.00273172
0.00586546
0.0059233
0.0118336
0.00146895
0.00451078
0.00892379
0.000424469
0.0059264
0.000384034
0.00612867
0.00582661
0.00270942
0.0110418
0.00593742
0.00481313
0.00057944
0.00368106
0.00593953
0.00582633
0.00584638
0.00585489
0.00584103
0.00397701
0.00232673
0.00495758
0.00387342
0.00353739
0.00204349
0.000669454
0.00590424
0.00229096
0.000301913
0.00097095
0.00890627
0.00589053
0.00582651
0.00796437
0.00584283
0.00641749
0.00536538
0.00341002
0.00596223
0.0058493
0.000181172
0.00417031
0.00589604
0.00583839
0.0175917
6.77898e-05
0.00815228
0.0059459
0.0059551
0.00743979
0.00594741
0.00593095
0.000723408
0.0100212
0.0046045
0.00204983
0.00594468
0.00349812
0.00582653
0.00572319
0.005312
0.00582389
0.000963449
0.00582891
0.00585031
0.00295886
0.0014203
0.0174163
0.000664901
0.00582281
0.0028731
0.00586851
0.00592196
0.00583377
0.00598239
0.00593453
0.00096805
0.00590988
0.000794152
0.00567264
0.00577291
0.00588961
0.00578648
0.00592749
0.00962165
0.00589966
0.0140103
0.00108995
0.00602847
0.00133742
0.00192008
0.00249483
0.00592297
0.00590204
0.00584356
0.00586727
0.0165637
0.00197818
0.00597598
0.0059358
0.00594552
0.00591276
0.00151582
0.00586764
0.0101316
0.00151074
0.00593963
0.0058233
0.0058469
0.00168563
0.00249106
0.0138026
0.00331467
0.0196036
0.00579757
0.000543057
0.00577281
0.00552645
0.00581683
0.00589288
0.00478234
0.013015
0.00584955
0.0114311
0.0059526
0.00594298
0.000690752
0.000470682
0.00181704
0.0116859
0.00407211
0.000893575
0.00295811
0.00592535
0.00602625
0.00584097
0.00597956
0.00726284
0.0058361
0.0117185
0.00561595
0.00584835
0.00586107
0.00592779
0.0125181
0.00601379
0.00582708
0.00110182
0.00582325
0.00586476
0.00591427
0.00592768
0.00152301
0.00592516
0.00574489
0.00581392
0.0126575
0.0070845
0.00581475
0.00581565
0.00594509
0.00582329
0.0033432
0.00594341
0.00594761
0.0059283
0.00587029
0.00593339
0.00589536
0.00142416
0.00584887
0.00075711
0.00595959
0.0017861
0.00587526
0.00593008
0.00587729
0.00590314
0.00311608
0.00547303
0.00277089
0.0174117
0.00278853
0.0132642
0.0102965
0.000877889
0.00741097
0.00595794
0.00588812
0.00714043
0.00634934
0.00590137
0.00798292
0.005857
0.00116273
0.0050311
0.00357391
0.000726051
0.00188198
0.0127918
0.00594556
0.00147891
0.00584512
0.00637172
0.00365942
0.0123601
0.00223186
0.00594605
0.00672468
0.00467396
0.00601336
0.000398493
0.0158374
0.00587137
0.00581881
0.0104873
0.00887358
0.00592467
0.00202987
0.00595694
0.00297297
0.000414453
0.00593432
0.00588261
0.000947266
0.00591713
0.00584192
0.00593746
0.00583521
0.000205733
0.00477557
0.00292466
0.0106011
0.00584045
0.00103169
0.00590979
0.0107288
0.00133235
0.00680079
0.00587016
0.00297751
0.00594626
0.0059715
0.00316166
0.00591717
0.000456349
0.00592332
0.00584237
0.00583678
0.0145953
0.00581828
0.0134074
0.00181101
0.00606301
0.00595262
0.00589328
0.00583116
0.00688822
0.00596114
0.00442859
0.00595393
0.0027431
0.00588518
0.005857
0.000262306
0.00594866
0.00600352
0.00833945
0.000571177
0.0113566
0.0059129
0.0105306
0.00477968
0.00594702
0.00944502
0.00596067
0.00556679
0.00862094
0.00580913
0.00145482
0.00615553
0.00267367
0.000925035
0.00588218
0.00258345
0.00584427
0.0125161
0.0058285
0.00491664
0.00584559
0.00585556
0.00581006
0.00889264
0.00589875
0.00308196
0.00113349
0.00222005
0.00584642
0.00288251
0.0111652
0.00591238
0.000406947
0.000714314
0.00587689
0.000467675
0.00223249
0.00576958
0.000271664
0.0058889
0.000356073
0.00268179
0.00591191
0.00261451
0.00582333
0.0095671
0.000238173
0.00547603
0.00579935
0.0119177
0.00658891
0.00583555
0.00539411
0.00583962
0.00594543
0.00808857
0.00105904
0.000246477
0.00594971
0.00454332
0.0118775
0.00669349
0.00622141
0.00153252
0.00582161
0.00583524
0.00067693
0.00491421
0.00746709
0.00484421
0.00110432
0.00249618
0.00273105
0.0116216
0.00843099
0.00858389
0.00581903
0.000650551
0.00182261
0.000868175
0.00588945
0.0025916
0.00124978
0.00114322
0.0053386
0.00587201
0.0026825
0.0103197
0.0014259
0.00583547
0.00583765
0.0117749
0.00590753
0.0131685
0.00488389
0.00578788
0.000498672
0.00735781
0.00581457
0.00255122
0.00232945
0.00589304
0.0118818
0.00663303
0.0126169
0.00592993
0.0102957
0.000166069
0.000615382
0.00590484
0.00429774
0.00244149
0.00174951
0.000490291
0.00107577
0.00819653
0.000679749
0.00581234
0.00495881
0.00587398
0.000425462
0.00258784
0.00594063
0.00581343
0.00591572
0.000675814
0.00191421
0.00593256
0.00252301
0.000559271
0.00582198
0.00792237
0.00579247
0.011394
0.00536797
0.00864703
0.00470634
0.00298424
0.00572675
0.000327141
0.00584401
0.00141398
0.00871148
0.00616676
0.000948141
0.00190967
0.00133028
0.00397403
0.0103519
0.00587967
0.00442714
0.000785232
0.0058347
0.000939711
0.000874607
0.000581779
0.000550177
0.00564266
0.004468
0.0005198
0.00928199
0.00472265
0.00161982
0.00594399
0.00592714
0.00590899
0.00583918
0.00027489
0.00128457
0.00590282
0.00190092
0.000712255
0.00584134
0.00999021
0.00916275
0.00591545
0.00595738
0.00596787
0.00591745
0.00158893
0.00584395
0.0085185
0.00247199
0.000804963
0.00555085
0.00093539
0.00299636
0.00250192
0.00187526
0.00589474
0.00591122
0.00589797
0.00591652
0.0118664
0.00175291
0.00303215
0.00887488
0.00594878
0.00595088
0.00223456
0.00586099
0.00593983
0.000884065
0.0041216
0.00805908
0.0179313
0.00894
0.00587705
0.0146431
0.00584624
0.000389481
0.00581367
0.000567261
0.01326
0.00589969
0.000478172
0.00731773
0.00245149
0.00600762
0.00593541
0.00385045
0.00272484
0.00583266
0.00594083
0.00603643
0.00609172
0.000730704
0.00601904
0.00431429
0.00582123
0.00603085
0.000167646
0.0029214
0.00577655
0.000425251
0.00986043
0.0122939
0.0110914
0.00611049
0.00591761
0.0086016
0.00589884
0.000980639
0.005892
0.00816644
0.00591742
0.00594236
0.00463033
0.006902
0.00583304
0.00587195
0.00581397
0.0014683
0.000904716
0.00042688
0.00583353
0.00577205
0.00582779
0.0102726
0.00601251
0.00227366
0.00138923
0.00594732
0.000369046
0.00231421
0.0129646
0.00485717
0.00593332
0.00507778
0.00158781
0.000747338
0.00593085
0.00595646
0.00591996
0.0109393
0.00592241
0.00597911
0.0101587
0.0058861
0.00586176
0.00402441
0.00591812
0.00594715
0.00841111
0.00332937
0.00207546
0.0136761
0.00582502
0.00236683
0.00596106
0.000455137
0.00285412
0.00598779
0.0059092
0.00582204
0.00584381
0.00429176
0.00149424
0.00934594
0.00984925
0.00584728
0.00675447
0.00285386
0.00129665
0.00585258
0.00375496
0.0107178
0.00676624
0.00590915
0.00539174
0.00595554
0.00962946
0.0117879
0.00580187
0.00585061
0.00256841
0.00764646
0.0059182
0.00524334
0.0058719
0.00124471
0.000149736
0.00581464
0.00774993
0.00501043
0.00583409
0.0016035
0.00134482
0.002903
0.01086
0.00276671
0.00553692
0.00600338
0.0038481
0.00595085
0.00187694
0.0014884
0.00594644
0.00389644
0.000602463
0.0166343
0.00582993
0.000502926
0.0150146
0.00699595
0.00593938
0.00589885
0.0174074
0.00395943
0.00235812
0.00589417
0.0155653
0.00161092
0.00584333
0.00489199
0.00426898
0.00596258
0.000455403
0.00594889
0.00380497
0.00588802
0.00580295
0.00595595
0.00581458
0.00852276
0.00589801
0.00583982
0.000763953
0.00278314
0.00572329
0.000578526
0.00593068
0.00583538
0.00589939
0.00594106
0.0138005
0.020277
0.000139502
0.00713528
0.00250273
0.00974339
0.00446518
0.00970115
0.0170035
0.00819805
0.00584902
0.00255063
0.00585469
0.00594921
0.00592793
0.00586331
0.0011477
0.00154068
0.00174045
0.00583915
0.00583486
0.00166693
0.00594153
0.00595963
0.00593743
0.0109362
0.00499477
0.0017972
0.005873
0.0157856
0.00595694
0.00594344
0.00594778
0.00161637
0.00584965
0.000630974
0.0104127
0.00198363
0.0075033
0.00733917
0.00600711
0.0042434
0.0125938
0.000464499
0.00591511
0.00592366
0.00582634
0.00998076
0.00580614
0.00282597
0.000663267
0.000749616
0.00256938
0.0032546
0.00111732
0.0120159
0.00592972
0.00580989
0.00621301
0.00380151
0.00588221
0.00588057
0.014026
0.00582092
0.000365012
0.00604364
0.00602697
0.00438905
0.00587816
0.000758301
0.0102863
0.00870388
0.0039236
0.00594601
0.000823858
0.00592404
0.000749388
0.00583629
0.000731387
0.00124383
0.00595741
0.00595896
0.00583398
0.000642422
0.00359195
0.000776524
0.000197836
0.00513603
0.00587756
0.001095
0.00128745
0.00909113
0.00584792
0.00983843
0.00594018
0.0107235
0.000154533
0.00966777
0.00869822
0.00600947
0.00150102
0.00665934
0.00595114
0.00590003
0.0059246
0.00588484
0.00325521
0.00594836
0.00219117
0.000812007
0.00114451
0.00857903
0.00433671
0.00202456
0.00592789
0.00593726
0.00590357
0.000428294
0.000875183
0.0080513
0.00386119
0.00590812
0.00583763
0.00595163
0.00095351
0.00576985
0.00592418
0.00482003
0.000903119
0.00211842
0.00137894
0.00244581
0.00984522
0.00488985
0.00210343
0.00585217
0.00282898
0.000431057
0.00661379
0.00144432
0.00586281
0.00132565
0.00285679
0.00588714
0.00138527
0.0112862
0.00741887
0.00232855
0.00582375
0.00791749
0.00595821
0.00582247
0.00591304
0.0108464
0.000329406
0.00601759
0.00033661
0.00647944
0.00619049
0.00248448
0.00113633
0.012766
0.00503882
0.0116222
0.00595331
0.00127707
0.00579673
0.0110794
0.00249627
0.00590597
0.0121087
0.00588538
0.00594403
0.00686112
0.00420484
0.0025243
0.000495796
0.00307503
0.00564176
0.0022724
0.00588314
0.00582748
0.0058749
0.00181533
0.00585023
0.00281105
0.00617922
0.00444109
0.00179609
0.00593925
0.00600641
0.00616052
0.0114966
0.00797591
0.00587559
0.00593648
0.00286207
0.00109333
0.000891419
0.00082078
0.0110862
0.00865214
0.000767435
0.00583892
0.00321813
0.00738518
0.00382167
0.000695093
0.00595166
0.00593922
0.00586914
0.00592056
0.00583892
0.00194336
0.00869464
0.00325235
0.0160774
0.00677642
0.00202878
0.00853462
0.0122857
0.0052669
0.0120883
0.000484999
0.000997779
0.00581296
0.00595369
0.00101318
0.00589745
0.00589208
0.00516164
0.0122139
0.00586114
0.0058993
0.00592183
0.000761398
0.00595141
0.000828984
0.0100232
0.00582746
0.00582495
0.00585242
0.00594691
0.000997029
0.00995424
0.00180063
0.00504236
0.000480989
0.00583846
0.0123501
0.000619891
0.00599688
0.000268832
0.00145551
0.00778492
0.00203349
0.00755334
0.00594531
0.00343323
0.0103679
0.000425244
0.00600627
0.00592256
0.00586837
0.00563968
0.00362194
0.00834823
0.000889161
0.00593334
0.00455088
0.0156974
0.0100747
0.0058481
0.00572645
0.0133649
0.0121017
0.00592201
0.00369103
0.000476939
0.00583131
0.00583237
0.0150196
0.00584164
0.00091878
0.013563
0.00886335
0.00584627
0.000880255
0.000420083
0.00588231
0.00587133
0.0155301
0.00397843
0.00593304
0.00239707
0.000336291
0.000919727
0.0126042
0.000429469
0.00490335
0.011917
0.0150416
0.00463405
0.00582105
0.00263286
0.00580977
0.00589434
0.00781788
0.00249593
0.000534594
0.00377794
0.0056004
0.00590615
0.005837
0.0059415
0.00592805
0.00127087
0.00385075
0.000241882
0.00294987
0.00391668
0.000832605
0.0030872
0.0107543
0.000992928
0.00588774
0.00367278
0.0045805
0.00479262
0.000391373
0.0114597
0.0059428
0.00022411
0.00919577
0.00432986
0.000897391
0.000774368
0.000863252
0.000809563
0.00512847
0.000817926
0.000764072
0.000772289
0.000772206
0.000944859
0.000663921
0.00556262
0.00582829
0.00235653
0.000835502
0.00584657
0.000285323
0.0123679
0.000443114
0.0117346
0.00585633
0.00587042
0.00175526
0.00548566
0.00593435
0.00580336
0.00192115
0.0103414
0.0133136
0.00591905
0.00251693
0.00426696
0.00223865
0.0154472
0.00312623
0.000136166
0.0101787
0.000668886
0.0116812
0.000497748
0.00431462
0.0124386
0.00578752
0.0113772
0.0109189
0.00593283
0.000883997
0.000534511
0.00557403
0.00588581
0.00113708
0.00472791
0.00593344
0.00593801
0.00558831
0.000319929
0.000710033
0.00595596
0.00093208
0.000372749
0.0122769
0.0072635
0.00589144
0.00583134
0.00593794
0.00608156
0.0109771
0.0118038
0.00915702
0.000906347
0.000140629
0.00838322
0.00609699
0.00583497
0.00994054
0.00591758
0.0117872
0.00599946
0.0119766
0.00591606
0.00592793
0.00863158
0.00591338
0.000687144
0.0136812
0.00612634
0.00581064
0.00587813
0.00115016
0.00790129
0.000452006
0.0119902
0.00611774
0.00604622
0.00296981
0.000753024
0.011747
0.00903243
0.000561758
0.00097135
0.000631427
0.00373026
0.0059187
0.00591885
0.00583016
0.00581296
0.000178288
0.00197451
0.00910669
0.00220126
0.000615809
0.00587339
0.0145241
0.00186296
0.00222551
0.0058324
0.00538452
0.00580641
0.0111663
0.00434161
0.00978921
0.000225824
0.000711601
0.000288154
0.00582982
0.00186654
0.000416245
0.000135426
0.000228087
0.00587959
0.000569738
0.00595229
0.00593423
0.00078883
0.00899869
0.000889163
0.00596075
0.000649246
0.00106187
0.0100977
0.00365541
0.0104321
0.00910512
0.00590762
0.0010379
0.00595169
0.000604746
0.0059413
0.000517349
0.00584254
0.00141144
0.023982
0.0128467
0.00607276
0.000942911
0.0110656
0.00143619
0.00580528
0.00764079
0.00141288
0.00602453
0.00591348
0.00862791
0.00416045
0.000458356
5.72816e-05
0.00586614
0.00524678
0.00602505
0.00697727
0.0103808
0.0090324
0.00157516
0.00287988
0.000647756
0.000682781
0.00983987
0.00315369
0.005944
0.000778846
0.00215705
0.000258645
0.00359216
0.00845047
0.000973792
0.00149944
0.00256046
0.0076982
0.00556441
0.00878593
0.000395903
0.00195435
0.00208677
0.00581885
0.00581003
0.00958586
0.0112415
0.0035231
0.00594951
0.00216077
0.00410451
0.00683823
0.00273912
0.0107699
0.00443451
0.0104405
0.000456912
0.00224188
0.00594574
0.000300925
0.00840262
0.00609023
0.00126599
0.00584088
0.00407732
0.00590305
0.0152953
0.00586188
0.00588362
0.0123117
0.00432161
0.00581257
0.0115998
0.00594149
0.00595144
0.00584457
0.00590054
0.00593035
0.00035999
0.012841
0.00585101
0.00163486
0.00103429
0.00151703
0.000731758
0.000931402
0.00463049
0.00191557
0.00582292
0.0191687
0.00284616
0.0116061
0.00620041
0.00699337
0.000689867
0.000787858
0.00143973
0.0100395
0.00581641
0.00661137
0.00117827
0.000929221
0.00359786
0.00588584
0.00113607
0.0011244
0.00589021
0.00250508
0.00582586
0.00934898
0.000717835
0.00271791
0.00114352
0.000935285
0.0121697
0.00592874
0.00594314
0.00121711
0.00589817
0.00593376
0.00593905
0.00402828
0.00586997
0.00582877
0.00592355
0.00170421
0.00586974
0.00359043
0.0060572
0.00267598
0.00166104
0.00556983
0.00977735
0.00559731
0.00584193
0.000910777
0.00166629
0.00608036
0.00587486
0.00142887
0.00317159
0.00926169
0.00317777
0.000444294
0.00583446
0.00594838
0.000967179
0.0126842
0.000992622
0.00198545
0.00581751
0.0123966
0.00590805
0.00582846
0.000963016
0.00362825
0.000332815
0.0111937
0.000628095
0.000887672
0.00255268
0.0051369
0.00594642
0.0059223
0.00106921
0.0121458
0.00122815
0.000486273
0.00789978
0.00369855
0.00590856
0.00286841
0.000801401
0.00156837
0.00589498
0.000856865
0.00138743
0.000900937
0.00592451
0.00588667
0.000350458
0.000964402
0.00113361
0.00925927
0.00579237
0.000876244
0.00592474
0.00159846
0.000395531
0.00595339
0.000317541
0.0056536
0.000614495
0.00266833
0.00587981
0.00593241
0.00582411
0.0119551
0.000609858
0.00584948
0.00103499
0.000845639
0.00591922
0.00594358
0.00112903
0.0117129
0.000320825
0.0104994
0.000778055
0.00207078
0.000101174
0.000799462
0.00213159
0.00172642
0.00113071
0.00370016
0.00589453
0.00154717
0.000787254
0.00594512
0.00106037
0.00422051
0.00132305
0.00421317
0.000819475
0.0058682
0.00620941
0.00292646
0.00581558
0.00593088
0.00583253
0.00592238
0.00594007
0.00587989
0.00315148
0.00594118
0.00594913
0.0225267
0.00095735
0.00593705
0.000931821
0.00486604
0.00563642
0.00583074
0.00146359
0.00553021
0.00308266
0.00588394
0.00587325
0.000889264
0.000638148
0.0059167
0.00590298
0.000458923
0.0033447
0.000562059
0.00100699
0.0059547
0.00221949
0.00328009
0.00594702
0.000834231
0.0120469
0.00603408
0.00108011
0.0059355
0.00258153
0.00594647
0.00370198
0.0058489
0.00587681
0.00470575
0.000978728
0.000309439
0.00142058
0.00588984
0.00354404
0.011342
0.00124947
0.000868251
0.000711514
0.00589101
0.00144013
0.00993242
0.000438706
0.00189959
0.00451168
0.00926057
0.012305
0.00279908
0.00592778
0.000770928
0.00594507
0.00149642
0.0121351
0.00593934
0.00895262
0.0059607
0.0110821
0.00186514
0.00593412
0.00094761
0.0111942
0.00644113
0.00396099
0.000766431
0.00262345
0.00581215
0.0173107
0.00581839
0.00205824
0.00583561
0.00565532
0.00728402
0.00101146
0.00592423
0.00312506
0.000263024
0.00592669
0.00596209
0.00420833
0.00562678
0.00588352
0.00398907
0.00572547
0.00596019
0.00585047
0.00112675
0.0012682
0.000634724
0.00582182
0.00121378
0.0099602
0.00533558
0.00588381
0.00594506
0.00261411
0.000728334
0.00595444
0.00586502
0.00586444