/*--------------------------------*- C++ -*----------------------------------*\
| =========                 |                                                 |
| \\      /  F ield         | OpenFOAM: The Open Source CFD Toolbox           |
|  \\    /   O peration     | Version:  v2012                                 |
|   \\  /    A nd           | Website:  www.openfoam.com                      |
|    \\/     M anipulation  |                                                 |
\*---------------------------------------------------------------------------*/
FoamFile
{
    version     2.0;
    format      ascii;
    class       volScalarField;
    location    "100";
    object      omega_0;
}
// * * * * * * * * * * * * * * * * * * * * * * * * * * * * * * * * * * * * * //

dimensions      [0 0 -1 0 0 0 0];


internalField   nonuniform List<scalar> 
13917
(
5.32661
0.049938
0.21012
0.0252975
0.033464
0.0491854
0.0295131
0.116804
0.028297
16.4594
0.101032
0.0248098
0.027007
0.352972
0.0308662
7.06369
0.0243811
0.0851415
0.110867
8.94815
0.0369474
0.0246902
0.046767
0.0246913
0.0262725
0.0394735
2.50345
15.8346
0.0537457
0.0226192
13.4676
0.0666121
0.0253071
3.08809
0.0242566
0.120256
0.0270426
0.026035
0.0295521
0.0402778
0.0246233
0.024443
0.0269133
0.104539
0.104501
0.224072
0.0351974
5.13308
0.842055
0.0242771
0.0247749
0.123092
16.819
0.024702
0.0247811
0.11991
10.6068
0.0468345
0.024342
0.228682
2.8074
0.0340915
0.0234192
0.0260979
3.02159
0.193356
0.0604477
0.0927538
0.0937666
5.92314
2.8407
3.20754
0.0248312
0.0241563
0.0377739
0.0267359
0.0276866
0.0240465
0.0265195
0.0253798
0.0252474
0.024509
0.0248185
3.07002
0.0241562
0.128909
0.0643579
0.0245461
0.0399679
0.0242848
0.0233331
0.027067
0.748255
0.0239268
0.0252314
0.059612
1.78939
0.0247767
0.0244689
0.149821
0.023874
0.0238161
0.0252966
0.0241177
0.0276248
3.41101
3.00504
0.0312595
0.0248005
2.44448
0.0246419
3.05265
0.0532442
5.77518
3.0287
0.0271514
0.103818
0.0233692
0.18052
0.0247609
0.0243747
0.0237884
0.0674444
0.0941646
5.49669
3.13974
0.0259384
0.0395225
0.0240259
0.0945041
0.034792
0.234741
3.43928
0.0271103
0.0772985
2.38228
2.96011
5.3982
0.0422298
0.0260031
0.512985
0.0238964
3.40956
0.0241468
0.024756
0.0271104
2.82582
0.384307
6.36643
0.024741
0.037432
0.0236237
0.0247342
0.0247715
1.92506
0.0253682
0.0240597
3.41136
0.0240616
0.0235347
0.0241166
2.78132
0.0291967
0.636473
2.63199
0.359874
23.8651
2.67315
0.0221136
0.0448639
0.0248235
3.35644
0.0282566
2.76483
0.0739876
0.0237845
0.0253011
0.136093
0.034091
0.0298798
0.0268165
0.0247295
0.0247715
0.189854
0.187459
0.310767
0.0247417
0.193991
0.0226191
0.109385
0.0740368
0.0960492
0.139254
5.17491
0.0239359
5.29961
0.0286848
3.50233
0.0242107
0.0251328
0.0331634
5.68646
6.87421
0.0266495
2.64069
0.0411274
0.0377582
0.0238999
0.130004
0.0252421
0.0237549
0.0456229
0.0521911
5.35241
0.0751235
0.0412748
2.99504
0.0252564
0.0230683
0.0230538
2.74365
0.156417
0.205464
0.0244409
0.0237663
2.26291
6.37373
0.0230139
0.0230037
0.0247459
0.0230754
0.0230647
3.35536
3.23003
0.0248738
0.0221311
0.0782044
3.43923
0.0240688
0.0244367
2.57601
3.46148
0.174095
3.00324
0.104575
0.0241563
2.63332
0.0812201
0.049363
0.0756575
0.0263862
3.60193
0.0247722
0.0432766
0.066414
0.0249819
0.0249874
0.0260764
0.0308992
0.0242973
3.81505
1.24795
0.0238216
0.023007
0.0255081
0.0230141
0.0247776
0.0270432
0.0390132
0.023925
4.30922
2.91013
0.02454
0.028275
0.233067
0.0229097
0.113088
3.41685
0.0229224
4.36724
0.0241998
2.73122
0.0239088
0.0291222
0.0250535
0.0241066
0.145673
0.025268
1.16275
0.0309854
1.27393
0.0273889
2.61021
5.64869
0.023605
0.0534464
0.0319473
0.0274519
0.0329436
0.0264784
0.0239943
0.0249573
0.136806
0.0451957
0.042124
0.0263185
0.0244139
3.44846
8.52471
0.0239403
0.0289117
0.0274908
0.780642
0.121948
2.92769
2.71071
0.167181
0.209813
0.0278712
2.94811
0.780724
0.209668
0.0269177
0.0305046
2.54139
0.0250827
0.0569541
0.0958073
0.0242924
3.35473
0.0241918
0.0423348
0.0231235
20.234
0.0236859
0.0399827
0.0415144
0.130524
0.024101
0.0755499
3.25279
0.0251317
0.0250726
3.03011
3.31295
2.32613
0.537348
0.0229008
0.0248411
3.5164
0.198565
0.0229172
0.0330912
0.0247264
0.0567654
0.0410377
0.114494
0.103679
0.113462
0.0419918
3.27184
0.0240672
0.0251399
0.0365352
0.176295
0.0242739
6.2686
0.0417488
0.344931
0.0248232
0.147375
0.0299351
0.794238
0.0244548
0.199436
0.23581
0.0445275
0.0245641
1.57716
0.0232781
2.6318
0.152028
0.0244927
0.800496
0.025433
0.224457
0.0235099
7.5352
0.219408
0.0265516
2.16934
0.091512
0.0260233
2.63542
0.233027
0.0261484
0.145842
0.0247559
0.0929085
0.208745
0.0242122
0.0289505
0.0262935
0.0240956
0.0238678
0.0241225
2.98505
0.393338
0.0249659
0.024178
0.0245298
0.052381
1.00039
0.022956
0.0221374
0.120736
0.143641
0.0241332
0.0264086
2.4889
1.61563
0.225882
0.116887
2.7753
0.0234414
0.0229232
0.0343816
0.0238562
0.0229683
0.0249517
0.0229395
0.023389
2.65781
0.0248048
0.0429186
3.92999
0.0531671
0.0237736
0.0247138
2.63868
0.0331941
6.70784
0.0230379
0.0244016
0.0233389
0.023083
0.0269269
0.0256301
2.42197
0.0332334
3.4903
0.0243946
0.0372577
0.0355365
0.0251707
0.100898
2.3605
0.0246937
1.92389
0.0238106
0.0241795
0.02448
0.0254514
0.0237078
0.0250071
3.41069
2.76517
0.0236895
2.66191
0.118382
0.0248931
0.0582231
0.0717597
2.67767
0.0296897
3.41936
0.333202
0.337007
0.0256537
0.156272
0.0374666
0.0262468
1.13363
0.0234534
0.0246529
0.0252382
0.0286164
0.0358536
0.158072
0.0545528
0.0269668
0.0292605
0.0786877
0.0557808
0.0249674
0.483111
0.0383372
0.0310009
2.63684
0.0241655
0.0582272
0.148276
0.0237423
3.26753
0.0242683
0.0230775
0.0537334
0.0230533
0.0251172
0.131439
3.46756
1.93284
0.0241152
0.0254996
0.0274099
0.668756
2.02712
0.0248643
0.0247458
0.0240948
0.061367
0.441532
0.0240803
0.0240963
0.0250412
0.0240764
0.0292884
0.0311258
0.0236185
0.0553272
0.0237429
0.0245742
0.0261581
2.97792
0.0231543
0.0266748
0.0243032
0.0362628
0.0682046
0.0628817
0.0691346
0.161397
0.0259337
0.0707518
3.5137
2.67625
3.53583
0.0238622
0.0244304
0.0267333
0.0244689
3.08691
0.0229374
0.749275
0.0286715
3.41994
0.13735
0.0269042
7.33781
0.0236764
0.0624557
0.0246876
0.0253079
3.42006
0.0229901
0.217005
0.0237761
0.0257058
0.0244782
0.150658
0.0298051
0.0229942
0.105438
0.056953
0.82084
2.71982
3.51783
2.6626
0.0231615
6.20813
0.0229432
2.90026
0.371401
0.0259739
0.0328112
0.0237973
0.0378543
0.0265868
0.0230071
0.0247087
0.0267467
2.50037
0.0241749
0.0603485
0.0246179
0.0229812
0.0238399
0.220243
2.37726
10.5949
0.0709919
0.0309868
0.396102
3.33358
0.0235363
1.91117
0.0265638
0.0959068
0.0244599
1.3971
0.0240563
0.0297793
0.0247797
0.828195
0.0392311
3.03371
0.0237079
0.037678
0.0242578
0.0241386
3.1533
0.209417
0.0244462
0.123212
0.024414
0.0250075
0.0238431
3.02881
0.0241809
0.0317175
0.022926
0.0243439
0.17659
0.0237329
0.114824
0.024666
0.0237098
2.87658
0.0620748
0.0248083
18.3608
0.21298
1.10576
0.153524
0.0236593
0.0320262
3.0828
0.239529
0.0329177
0.0270596
0.0304167
0.0244997
0.0241284
0.212506
0.0736029
0.027893
2.64142
0.0396694
1.28275
1.95027
0.0490931
0.0383587
0.13642
3.91451
0.0240018
0.0354145
0.211991
0.0237247
0.0238283
0.0237984
0.0270526
0.0252031
5.90033
0.0366508
0.023918
0.0889363
0.0236373
2.90792
0.0241919
0.0240224
3.38848
0.0642314
0.406852
0.02488
0.0238877
0.0239834
0.0252029
0.0309725
0.0240869
6.21549
0.0329094
0.583156
0.389601
0.0350811
3.54129
0.0255054
0.0246359
0.0243211
3.29599
1.98526
0.0290639
5.93092
0.420274
0.0236989
0.023977
0.0269343
3.34525
0.39793
0.0394909
0.025169
0.0266735
0.0988053
0.0271364
0.113602
0.036799
0.0251691
0.0254018
0.0246806
0.0308818
0.0294177
0.254199
0.0278439
0.0288446
5.94898
0.0243962
0.485387
0.0267361
0.0389401
0.0285025
0.226839
0.024322
0.0589943
2.34457
0.304948
0.0244971
0.0278712
0.0256431
0.0243811
0.0247672
0.035644
0.034918
0.208851
0.115353
0.0236277
0.229267
0.0282472
0.028656
0.126923
0.0249295
0.0623338
1.72191
0.0230263
0.0641437
0.0881759
0.0365123
0.0239386
0.0237392
0.0241141
7.29887
0.0252622
0.0243581
0.0418806
0.0241132
0.0238211
0.114929
1.15599
0.0435817
1.83196
0.0523435
3.56443
0.0247737
0.0282278
0.277043
0.0260533
0.149541
0.0241239
0.0238162
0.0248511
0.0283364
0.0649906
0.0239316
0.278742
0.0248591
0.380774
0.0267756
0.0296221
0.0231274
0.0766107
0.0294243
2.61311
0.0455196
0.0245106
2.97164
0.0254835
4.04319
0.0264059
0.063466
0.0266012
0.0237857
0.0244817
3.31088
0.030791
1.11319
1.58027
0.024376
0.0367793
0.0221159
0.0298264
0.519589
0.0221419
2.63366
0.0267482
0.0651389
0.102073
0.764751
0.0231609
0.0239224
0.11539
0.0236453
0.0246621
0.0259444
0.0243798
0.0419972
0.0231468
0.110705
0.0251645
5.73387
4.16039
0.624212
3.54883
2.00063
7.6849
0.784876
0.0236204
0.0248784
0.024629
0.0254806
0.0240971
0.0309183
0.0242115
0.81996
0.0247008
1.97931
0.0251826
0.0331702
0.100814
0.0238944
0.0426948
0.0254813
0.0255006
0.0287743
0.0232576
3.6262
0.0789959
0.281894
0.0239358
0.0246148
0.0249052
0.0249469
2.63241
0.0236479
0.249168
0.0240396
0.336834
0.0287104
0.0241675
0.0607271
0.0346871
0.0236611
0.380957
1.56588
0.0270146
0.0761033
0.0236149
0.145223
0.0238253
0.0249486
3.62851
0.0241389
0.0253699
0.0880401
3.95885
0.0241883
0.628351
0.893425
0.0246174
0.0260686
0.0244295
2.51136
0.0245808
0.113407
0.0247336
3.29885
0.0291144
2.93017
0.0241814
0.0227648
0.262337
0.0256029
0.0242354
3.54716
0.0258945
0.0238479
0.795803
0.0245967
0.0249175
0.0727213
0.0260488
3.08999
0.0408128
0.0714657
0.145554
0.0266089
3.26138
0.0253727
0.0681673
0.0244537
3.76528
0.338069
0.0249385
0.0238487
0.0249369
0.0248687
0.0234119
0.0234828
0.0238939
0.0244782
0.0315993
0.0230267
0.0257148
0.0708134
2.63096
2.67614
0.0820064
0.0249166
0.284612
0.0241647
0.308433
0.448493
24.4478
0.0230186
0.0236323
0.0246869
0.0245869
0.022996
0.0233643
0.0242573
0.0394789
0.0238577
13.2155
0.799056
0.0238731
3.32926
0.024466
0.0241339
0.0313844
3.00553
0.0614877
0.0236473
0.424313
0.0240855
0.0241331
0.27057
0.0250274
1.59702
0.025449
0.0901761
0.0237868
0.0238551
0.0333094
0.756012
0.0258387
3.14987
0.0324155
0.0254653
0.0263926
0.0246087
0.0237194
0.0875043
0.0358173
0.0277322
3.16779
10.7214
0.739829
0.0925399
0.0238253
3.29663
0.0237913
2.75453
0.0645815
0.0290362
0.0256723
2.99008
1.80897
2.66474
0.0244344
0.524002
0.0234447
0.0242205
0.0368978
0.0251078
0.0247065
1.37024
4.25219
0.0238528
0.029916
3.50624
0.0237886
0.0229318
0.899633
2.87738
0.025367
0.0230792
0.029114
0.0246872
0.0240821
0.0355003
0.0285502
0.0246108
0.672121
0.024536
0.314683
0.478504
0.0325554
3.65078
0.0249093
0.0251333
0.102447
3.99656
0.164041
0.0327601
0.0348138
0.0250855
0.0254748
0.0241531
2.6168
0.0302909
0.0252631
0.0527525
0.0241111
0.306098
0.0749
0.110054
0.0580192
0.203821
0.403236
2.13952
3.15364
0.0260256
0.202872
0.022946
0.0595226
0.079777
0.536834
0.0274348
0.0253147
0.0281993
1.24537
0.0260192
2.63606
0.0368931
0.0921863
2.61337
0.023812
0.0948557
0.0263454
0.024631
0.0318794
0.261043
0.0228985
0.0235646
0.0256991
3.11072
0.0238409
0.0259012
0.0265855
0.0253734
0.0245703
0.100094
0.066986
0.0252682
0.0238946
0.0956779
0.0874173
0.0426497
3.31604
0.0249161
0.0245384
2.04187
0.0243682
0.0261162
3.17825
3.52169
0.032414
0.0595744
0.0294244
7.90701
0.179336
0.0346046
2.663
0.0240339
0.0803749
2.63889
0.194237
0.456687
0.909041
0.0233595
0.0245302
0.0268062
0.0245914
0.0246244
0.252986
0.024126
0.0458236
0.0232851
0.0558779
2.67694
0.026072
0.653837
1.81526
0.0245339
0.072662
0.0289846
0.0257825
0.0243788
3.37422
0.0701188
3.74742
0.0299728
2.67465
0.090618
0.0238939
0.510328
0.0371128
0.0267448
0.024178
0.235883
0.0243874
0.0283497
0.0388632
0.0283034
0.0251164
0.054899
2.93213
0.0241318
0.197079
0.105369
0.02466
0.0241356
0.0269743
2.45769
0.189329
0.0237089
0.0323967
0.0281395
0.771991
6.86341
0.0246668
0.0238478
0.0233548
0.0246164
0.0266872
0.0267933
2.78657
0.0250375
0.0271563
0.293442
0.0303797
0.081248
2.87878
2.67715
0.0249096
0.0242575
0.0238091
0.0256313
0.0670703
3.6944
0.267741
0.103763
0.0328916
0.0497891
0.0265066
0.0994616
0.0281011
0.102971
0.0239402
0.137636
0.0746286
0.0235919
0.0248684
3.06624
0.0497883
0.239288
2.6254
0.130607
0.023986
0.233316
0.0259268
0.024262
2.20612
0.649101
0.0239542
0.0323259
0.101384
0.0354942
0.0252931
0.0231267
0.0241504
0.0237426
0.0243825
0.0319238
0.0511024
4.61698
0.0358805
0.0283889
0.0335749
0.0874496
0.0238562
0.0359966
0.202301
0.217882
2.88578
0.0257934
0.0231053
3.63322
0.0239394
0.170004
0.0258618
0.0431097
0.0249139
0.0239839
0.235874
0.0288213
0.0256971
0.0246035
2.5792
0.51096
3.39854
0.0247122
0.0245044
0.896931
0.0235158
0.0234774
0.148512
0.518919
0.0293412
0.0353793
0.0252304
3.05995
0.0242806
0.0271316
0.0251176
0.0230896
0.210362
0.0242722
0.0237241
1.59971
0.0571905
2.80704
0.213709
0.0242049
0.0323876
0.0238306
0.0239428
0.0264542
0.0253689
0.0246594
0.181719
0.0246563
0.0729354
0.0313616
0.0291056
0.0247071
0.0257507
0.0240687
3.40823
0.0228878
1.27927
0.0674607
0.02562
0.0518137
0.0353313
0.0326982
0.0245486
0.0302055
0.0238409
0.0235829
0.304839
0.0421118
0.0244979
0.0240231
0.0241463
0.0237678
0.078987
0.024117
2.95726
0.0465546
0.0239225
0.0243718
0.0234188
0.0463068
0.170973
2.00471
0.166103
0.323888
0.0293074
0.0998904
0.0266173
2.58883
0.0232755
0.0228491
0.0276458
0.304619
0.0234498
3.04045
0.0245868
0.0241304
0.155273
0.233994
8.5476
0.295483
0.0283102
0.200783
0.117437
0.0234418
2.64377
0.0244801
0.0237778
2.76044
0.023341
3.05775
0.227547
0.0240212
0.0244918
0.0234762
3.55385
0.0239036
0.0231221
0.0719059
0.0242114
0.0237968
0.0240006
0.0234506
0.0452325
0.0247939
0.0271479
0.0235687
2.61788
0.612229
0.0235943
0.0236042
0.0253162
0.0243506
0.0267481
0.0247937
0.0241051
0.0248236
0.0244003
0.0254807
0.0245414
0.0710327
0.0234102
0.0771438
0.0246014
0.0613336
0.0236688
0.0246402
0.0240954
0.0229427
0.0375273
0.028753
0.0278332
2.78667
0.107543
3.34371
2.91644
0.0764227
3.60004
0.0245623
0.0245187
2.05522
2.73857
0.0238934
3.44294
0.0235186
0.111656
0.43449
0.0266282
0.0798893
0.461041
1.81091
0.0239436
0.046933
0.023891
0.319575
0.0270714
3.17199
7.16594
0.0247472
0.504222
1.96807
0.0244702
0.512567
0.273238
0.0261125
0.0238965
0.251041
3.41327
0.0234359
0.033912
0.0248887
1.66443
0.138746
0.0245786
0.0237008
2.21624
0.0238981
0.0245429
0.0251813
0.0235826
0.227146
0.0311772
0.0308578
3.23457
0.024389
0.0583627
0.0248231
0.250922
0.0561818
0.33921
0.0236302
0.0300659
0.0233304
0.024305
0.026682
0.0245183
0.850573
0.0256232
0.0236289
0.0241471
0.303562
0.0238755
0.608756
1.92747
0.626324
0.0244586
0.0237794
0.0242771
0.718529
0.0248089
3.30023
0.0240103
1.31964
0.0259865
0.0254905
0.214322
0.0246211
0.0242985
3.47849
0.102826
3.03047
0.0246918
3.42628
1.34737
0.0245427
3.219
0.0246873
0.0280421
2.63945
0.026354
0.0461839
3.81825
0.0329675
0.0664134
0.0246958
2.81243
0.0245106
0.590768
0.0242839
4.38383
0.0245383
0.0246541
0.0263723
0.473851
0.0238172
0.0840682
0.0650685
0.774488
0.0242814
0.0317568
3.39219
0.96116
0.520273
0.0778797
0.0236599
0.105731
0.861826
0.0268701
0.565609
0.0227992
0.135195
6.36826
0.0238566
6.76609
0.0243752
3.39969
0.230397
0.0266639
0.026801
0.570438
0.589755
0.0245795
0.0257854
0.0235967
0.0245809
3.14379
0.0657263
0.180102
0.0245709
0.0298147
3.08254
0.0341262
0.646089
2.29345
0.0241536
0.0244614
0.178681
2.56551
2.74897
0.395083
0.185751
0.0394223
0.0535305
3.35983
2.64753
0.445918
0.0238959
0.0793002
0.0455513
0.0726677
0.0244827
0.0286713
0.0605401
0.145819
0.522312
0.0247736
0.165077
3.22808
0.0456446
0.02452
0.0245238
1.19733
0.023809
3.4469
0.0303846
0.024572
0.207884
0.0437471
0.0235762
0.0374621
0.0319127
0.024512
3.60824
0.0273252
3.6122
0.0238072
3.10511
0.404651
0.185706
0.0229364
0.029
0.0334412
0.136509
0.120408
0.0661127
3.14244
0.360405
0.0221701
0.0283277
0.0251303
0.11658
6.54924
0.0232239
0.0235437
0.025678
0.287197
0.14357
0.0238661
0.049893
0.214386
0.023857
0.0369965
0.0268033
3.59653
0.029606
0.252208
3.36707
0.0306802
0.0272899
0.67318
0.0241219
0.0490877
3.04704
0.0268786
0.0885675
0.0334431
0.0568464
2.51714
3.38555
0.0246695
0.681563
0.249551
0.0233524
0.120667
0.0667962
0.123872
0.789823
2.20284
0.412538
0.106417
2.82346
0.0293523
0.0641999
0.0229597
0.0248501
0.0245639
0.0238273
0.230997
0.140218
0.0228996
0.0569615
0.158928
0.0241063
0.50757
3.03723
0.0226284
0.0247655
0.0231578
0.0255165
0.0447304
0.0245067
2.65601
0.031767
0.0706828
0.0286044
0.0706933
0.0520102
0.0367995
0.388875
0.0245091
0.0256168
0.0228561
0.0237553
3.42024
0.0894419
0.0314252
2.71258
0.0246379
0.0250447
0.035125
0.0235552
0.0238925
0.0770127
0.0279836
3.30691
2.62994
2.8302
0.0247392
2.97942
0.0242846
0.461724
0.0235489
0.129077
2.99885
0.0243547
0.237118
3.5706
0.0348259
0.0252113
0.0234411
0.0302204
2.12285
0.023551
0.024882
0.0250714
0.0261485
0.180708
0.0256358
0.0282372
0.0241114
0.0249941
0.656145
0.035808
0.0267047
0.116773
1.15513
3.22276
0.91432
0.0257846
0.0254253
3.1072
0.0244986
0.0650139
0.0247628
3.20884
0.0250056
0.0248726
0.037395
2.67758
0.0244692
0.023621
0.0232556
0.134397
12.7657
0.121142
0.0245905
0.0266232
0.0238514
3.29111
0.0238318
2.17879
0.0560291
0.0246416
0.210755
0.0378506
0.302705
0.0251636
0.0234611
0.0321749
0.0450866
0.156576
0.0248213
0.0249593
0.0248868
2.99519
0.0244429
0.0253255
3.34573
0.0259915
0.0327839
0.0273309
0.0239812
0.0240842
0.46312
0.0263378
0.636717
0.302943
0.0226284
0.823299
0.0249137
0.104283
0.0488612
0.0254759
0.0229843
0.022597
0.0244897
0.722569
0.0473615
3.46339
2.80694
0.0238601
0.0307153
0.0394275
1.60142
0.0244776
0.18958
3.38287
3.13631
0.0240133
0.0259239
0.0250657
0.777902
3.3978
0.0244657
0.0246305
0.0326084
2.67183
0.0247669
0.025999
0.0258957
0.109751
0.60485
0.0233051
2.68844
0.0312313
0.0245065
1.51806
0.0558223
1.20828
0.927565
0.0341579
0.0283068
0.0253952
0.0294539
0.0251074
0.0809538
0.0472144
0.0241134
0.0271751
0.207569
2.92626
0.023533
0.113514
2.98369
1.82803
0.0242544
0.0246172
0.30801
2.87968
0.695607
0.0240983
2.63844
0.0644065
0.0226918
4.61395
0.029744
0.0247062
0.226645
0.0243754
0.0342592
0.0237405
0.0224968
0.0245129
0.0232471
3.00945
0.0228949
0.0241233
0.0758128
0.0277141
0.0272203
0.124331
0.0245455
0.0245907
0.0258523
0.0254127
0.299842
0.32227
0.721018
0.76188
0.037272
0.516583
0.057211
2.91649
2.7863
2.93015
0.0237843
0.0329561
0.0245036
0.0245397
0.0238086
0.0251689
0.177197
0.057939
0.0399356
0.024077
0.0244712
0.0547046
0.0248526
0.0249051
0.0245428
3.27568
0.0328985
7.93432
0.0247274
0.304312
0.0250129
0.0247921
0.0251306
0.0431193
0.0240093
0.0850212
3.03181
0.0415937
3.71447
0.365513
0.0256859
0.0298035
0.388179
0.114592
0.0230639
0.023757
0.0226175
2.85987
0.0224701
0.515997
0.218808
0.0777881
0.281395
0.823449
0.0635988
3.63756
0.0234488
0.0232384
0.321981
3.13661
0.0244615
0.0247028
1.04705
0.0239063
0.180061
0.025624
0.0236111
0.028097
0.0245992
0.0718906
2.99023
3.21056
0.0274563
0.0242229
0.0816626
0.0255665
0.0803505
0.0238105
0.126799
0.0861008
0.0249055
0.024653
0.0226828
0.144708
0.0531588
0.184636
0.252371
0.0317267
3.03601
0.0713667
0.103336
3.30552
0.0243066
2.80158
0.0253657
3.30895
0.21238
2.75902
3.1351
0.0245657
0.0547643
0.309668
0.0243965
3.93298
0.0245136
0.0245696
0.0285236
0.0251571
0.0327445
0.219733
1.7272
2.66098
0.0283726
0.0408407
0.0255489
0.0247714
0.0247848
0.138986
0.0825209
2.84882
0.0450156
0.0229507
0.0236139
0.025046
0.224552
0.0269361
0.0254011
0.0277129
0.0935854
0.0335071
0.0453784
0.041513
2.8406
0.0313918
0.0345616
0.0244874
0.0285925
0.231811
0.366311
0.0469953
0.0235457
1.76882
0.034577
0.0240697
0.0492051
3.01987
0.287831
0.0352222
0.023912
2.63411
0.0249595
0.0238672
0.0230033
2.83942
0.95315
0.0256273
0.505367
2.86166
0.0268974
0.0420724
0.0609806
3.57729
0.0325031
3.36946
0.0249919
0.16187
0.0275562
3.53757
0.035143
0.0236637
3.09585
0.0246665
0.0253459
1.5452
3.24028
0.612899
0.240258
0.0271956
0.025665
2.39801
0.0240784
0.0242055
0.0246848
0.0459397
0.0244602
0.0342205
0.0268968
0.278902
2.21211
0.0252447
3.91536
0.0268287
3.06014
3.57155
0.0246516
0.0248184
0.0281062
0.426011
0.176572
0.0674414
3.01825
2.70478
0.202313
0.0255266
3.02318
3.37466
0.0503776
1.46487
0.0246189
0.0242812
0.0247099
0.0254412
0.0243107
0.0349065
3.25339
0.0334771
0.308928
3.09627
2.90231
2.84198
3.25345
0.0306585
3.49027
0.104478
0.0715474
0.0235197
0.02445
0.0668372
4.17671
0.0255116
2.55253
3.16419
0.023824
0.02469
0.024538
0.0969893
0.0250503
0.0730853
2.84788
0.0235011
0.0245006
0.023804
0.0252814
0.0930527
3.06042
0.0384641
3.18601
0.114101
0.0241601
0.303092
0.152332
0.0242093
0.673589
1.82965
2.85626
1.3663
3.55674
0.0243246
2.77523
3.08557
0.158306
3.09466
0.0238016
0.0261292
0.026686
0.0262971
3.25373
0.0670384
0.0247872
0.0295632
0.343988
3.15523
0.025392
0.0261049
3.39401
3.23993
0.0248256
0.0303148
0.10702
0.0243824
0.0245051
2.97897
0.0240925
0.24804
0.302302
3.34978
0.0239914
0.0751967
0.134285
0.0240331
0.02273
2.08936
2.46025
0.0248534
0.0368001
0.156001
0.204543
3.39846
0.41935
0.0282533
0.313221
0.403847
0.0360793
0.0241112
0.109706
0.0231914
0.0228424
3.36113
0.0387515
0.0959572
0.0271605
0.0284379
0.0238158
0.0232242
0.0252001
0.0253935
1.23394
0.026939
0.224834
6.34218
0.0441511
0.0704574
2.22785
3.4663
1.52773
0.0236126
0.0275265
0.0366308
0.028049
0.177715
0.3675
0.0251806
0.241211
3.3416
0.0290328
0.0874581
0.0743378
0.0951833
0.103801
0.0257301
0.11492
0.126361
0.139669
0.15501
0.107264
0.0813595
0.0298326
0.0240552
0.0346896
0.0868276
0.0240355
0.211099
3.53596
0.205092
3.07489
0.0227095
0.023528
0.0649005
2.74508
0.0253211
0.0266702
0.0625577
2.83991
1.01247
0.0245159
0.0338999
0.027825
5.8588
0.343132
0.0269459
0.235966
3.13056
0.0961047
3.30055
0.0963636
0.271804
3.48273
0.0221104
3.60483
3.18395
0.0254782
0.0717259
0.103405
0.0280118
0.0237462
0.676074
0.927232
0.0236332
0.0236865
2.68413
1.02019
0.0814706
0.0247634
0.208402
0.125886
3.14261
3.83162
0.0246669
0.0244546
0.0252706
0.0254568
3.32302
1.00561
2.96235
0.0812762
0.191438
0.432709
0.0254302
0.023974
3.18499
0.0237498
3.44023
0.0235473
3.3016
0.0255402
0.0253458
0.607378
0.0244169
0.105627
0.593171
0.0269963
0.0263517
0.0256583
0.171612
3.39202
0.160007
3.08087
0.0263051
0.0252279
0.0301162
0.0784592
3.70073
2.72179
0.10331
0.213523
0.116844
2.53467
0.0242754
0.0237068
0.0235197
0.0235228
0.172405
0.0872658
0.29221
0.0415759
0.139376
0.0240619
0.343875
0.1565
6.3421
0.0245768
0.0257988
0.0225145
3.06453
0.0397822
0.584642
0.176973
0.113979
0.200814
0.0226491
0.0386259
0.150129
0.172529
0.873909
0.0246313
0.125701
0.0249884
0.0247944
0.119504
0.836247
1.44247
0.0247815
0.090256
0.320834
2.9262
5.40487
3.34221
3.3975
0.0238982
0.0620482
0.0245035
0.13052
0.0240135
0.120585
0.0260488
0.0499483
0.37829
0.583793
0.0260014
0.1133
3.1587
0.111107
0.026311
1.59263
0.101957
0.0248133
0.0251187
3.30217
0.0309516
0.139544
0.436448
0.195873
4.16516
0.0257204
2.85793
3.01917
0.855792
0.73561
0.0334532
0.103178
0.0940307
3.30207
0.585747
0.0252013
1.6068
0.0554706
0.207438
0.0300804
2.6327
0.477213
2.33716
0.0287156
1.0614
0.0269531
3.18473
0.151512
1.9672
7.62771
0.0238826
0.0224898
3.18543
3.57165
0.036838
0.0251113
0.0422802
0.0324248
2.92616
0.107195
3.20776
0.0285265
3.26182
0.131588
0.658512
0.0251561
0.209372
2.66736
0.0261655
0.0815251
0.0227034
0.0270801
0.0247188
0.341181
0.0241617
0.0247304
3.46247
2.96361
0.0234966
3.63376
0.0253362
0.0244487
0.0243376
0.0237759
0.0248516
0.772474
3.37918
0.0234399
0.790472
0.0671706
0.0481978
1.14398
0.0831808
0.0281128
0.0339498
0.0243524
0.359752
0.0332196
3.67305
0.0268264
3.18757
1.06591
0.0724214
2.12493
3.33218
0.0236725
3.78701
0.0571567
0.0661321
0.0445461
0.0241216
0.156112
0.181598
0.0246734
0.378908
0.0245145
3.35357
0.137355
2.18505
0.167661
0.160451
3.43926
0.0246079
0.0240091
0.0625265
0.0258562
0.0248207
0.0248506
0.0296465
0.0240293
0.0242194
0.0256109
0.0435173
0.0261141
0.0298278
0.0255925
0.0394938
0.0965369
0.0264163
3.44453
0.0261988
0.0242796
0.0899138
0.043107
0.0255979
0.0240077
0.504588
0.0263337
3.26118
0.0265025
0.114968
0.024351
0.0243409
0.10726
3.51846
0.0701354
0.0372262
0.0228468
3.14836
0.0247441
0.0241708
0.0759105
0.0268005
0.138424
3.13762
0.0951933
0.135277
0.0421777
4.22476
0.0244511
0.0246823
0.0653474
0.302339
0.0597769
0.102546
2.63325
0.030039
0.0246303
0.0303165
0.20819
0.0571525
0.0246944
0.0977428
0.0935899
0.0662431
0.024853
0.0247473
0.183539
0.0654797
2.37209
0.500653
0.026443
0.0708315
0.0248236
0.0450912
0.414994
0.0247256
0.156466
0.185284
0.0862811
0.675878
0.0246342
0.0243221
0.0242895
3.46678
0.211096
0.0263338
0.108113
0.106532
0.0247985
0.0243683
0.612078
3.57773
0.186954
3.19652
0.194189
0.032792
0.602853
0.11691
0.0326247
0.165629
0.0857983
0.150399
0.0245772
0.0942025
0.128711
0.025361
0.418556
0.0403841
0.0873751
0.0295949
0.142768
0.0240402
4.12885
0.027304
0.0236986
0.0237627
0.0236151
0.025615
0.0254231
0.0237545
0.026943
0.0246461
0.0253013
0.373339
0.077478
0.0252461
0.0658571
0.0273572
0.0261967
0.0231794
0.0473098
0.0295428
2.64952
0.0246538
0.0246929
0.071737
0.247847
0.0246555
0.0246025
0.120615
0.0264336
0.0994044
0.0625678
0.024473
6.77586
0.0266336
0.0253157
0.0791583
3.66969
0.0249169
0.0601571
0.0236295
0.0284078
0.0242025
0.0297787
0.0241787
0.0247084
0.0529313
0.0628802
13.1105
0.05266
0.0245541
0.0309828
3.26572
0.0514215
0.172285
0.0969786
0.0247422
0.0557597
0.801258
0.17935
0.715833
0.0284926
3.42819
0.373332
0.0324233
0.0247911
0.0796285
0.0252782
0.056629
3.13581
0.0245816
0.620246
0.0248195
2.99708
0.0612108
0.0254013
0.063492
3.05284
0.255587
0.026707
0.0741669
0.0328143
0.0234743
2.3904
0.0233156
0.0365081
0.0240686
0.0277014
2.61599
0.0715439
0.0231154
0.031851
0.185034
0.0245801
0.0249256
0.0307247
0.0280187
0.0244973
0.0266227
0.0271932
0.0250459
0.0240509
0.0621821
0.101033
0.17292
0.0239966
0.0587457
3.09901
4.50601
0.0236173
0.0246169
0.0278171
0.0885614
0.025186
0.0240082
0.0242016
0.0237019
0.0285932
0.0300613
0.0268491
0.0657421
0.0262152
0.0231942
0.0262083
0.0640547
0.0489123
0.104012
0.0252048
0.0310963
3.30329
0.0324446
0.0274256
4.30233
3.26051
0.0959886
0.068985
0.157208
0.0242882
0.369451
0.0297351
3.97944
0.0244975
0.0242639
1.94254
0.0237058
0.292001
3.00854
0.0250515
13.5819
0.0331092
0.0342432
0.0295582
0.0778558
0.0318552
0.0288392
0.304463
0.0237799
0.0270436
3.64974
0.0258911
0.0244147
0.0325138
3.24971
0.0252306
0.0252311
3.21309
0.0259501
0.0295241
0.0585024
0.0231008
8.45602
0.0269252
0.0253508
0.125667
0.0575113
2.94325
0.0263626
2.07494
0.0359149
0.0929708
2.95107
0.0245801
0.0349454
0.0892512
0.0252241
0.705872
0.0252423
0.0261664
3.04352
0.0252579
0.0427446
0.0924307
0.542332
0.0325615
0.0290893
0.0253794
0.0267209
0.088131
0.0272714
0.0331123
0.0989875
0.0542476
0.0245675
3.46781
0.0402587
0.0232089
0.0257927
0.0242753
0.0235718
0.023103
0.0245787
0.0245506
0.0321783
0.0267169
0.0497318
0.0229198
0.0232275
0.024754
0.0798989
0.0236181
0.0327142
0.0845302
0.0316793
0.0323071
0.0243697
0.0261766
0.0270454
0.0408947
0.0312074
0.0269751
2.58949
0.0247071
1.95131
0.0275845
0.0870296
0.0982216
0.0245376
0.0593092
0.0337203
3.21616
3.08937
0.0280955
0.0247763
0.0264301
0.0321331
0.0494762
0.0241443
0.307081
0.0554891
0.0246948
0.0684288
0.0632019
0.0800485
0.0312316
0.23941
0.0812906
0.0297174
0.290371
0.0256688
0.124551
0.0254893
0.0242884
0.0808215
0.0855139
0.0244807
0.0508628
0.0245418
0.02474
0.0244886
0.0250931
0.024521
0.0244949
0.0244511
0.0251651
0.156736
0.0254289
0.0244192
0.0254125
0.0255411
0.186562
3.04986
0.0890284
0.0269684
3.35944
0.0244775
0.0244343
0.732727
0.0345221
0.0250902
0.0252274
0.0246884
0.191755
0.0247593
0.0282489
0.0252931
0.0367008
3.88511
0.0245553
0.0697585
0.0678546
0.0278727
0.0446163
0.0234075
0.0247579
0.0614236
1.58421
0.0261941
0.0390438
2.89189
0.0931259
0.0235751
2.83611
0.0256343
0.0221719
0.0846455
3.45371
0.024395
0.0235883
0.0261031
0.0344699
0.0375196
0.0245079
0.02541
0.040972
0.024756
0.0316964
0.0284517
1.23591
0.0230782
2.7312
0.558581
0.0434701
0.024284
0.0902294
0.023864
0.0263202
0.0246133
0.0563285
0.022868
0.022849
0.0420597
0.0819234
1.30669
0.024918
0.0227182
0.0262207
0.023615
3.00736
0.0261852
0.0257585
0.0251548
0.0644751
0.0493218
0.0264313
0.025953
0.046326
0.0246748
0.0242397
0.0263421
0.0251801
0.145195
0.0241397
0.0326444
0.025072
0.0245853
0.0513351
0.0933445
2.94764
0.0244859
0.0832019
0.298839
2.90427
3.2797
0.0353863
0.0245476
0.0273157
0.0322059
1.04836
0.0248736
0.0278604
0.0295822
0.0332043
0.0229527
0.0554959
0.0485804
0.593458
0.025134
0.0247629
0.0991744
0.585893
0.022797
0.0273503
0.035768
0.0225942
0.0254755
0.0471231
0.024152
0.0245049
0.0247889
0.0272624
0.0811675
0.0380024
0.0255033
0.0233548
0.0251603
0.226924
0.0225197
0.0236569
0.0286515
0.0880278
0.0282748
4.01061
0.0272771
0.024482
0.0246064
0.0260107
0.0242341
0.035318
0.282052
0.023713
0.0239692
0.0250663
0.0243448
0.0250441
0.046978
2.50144
0.0253161
0.101185
0.0258432
0.0243533
0.207634
0.0264077
3.50193
0.0248823
0.0247268
0.0236001
0.0245323
0.0255412
0.0329471
0.0484788
0.172056
0.0306679
0.0556142
0.0247782
0.0358247
0.0245321
0.0263054
0.035509
1.98156
2.98673
0.0248373
3.3549
0.12767
0.0442736
0.288226
0.022393
0.0244917
0.0246514
0.0258666
2.52585
0.0235685
0.0710794
0.363755
0.0253694
0.0868425
0.0225867
0.0346153
0.378099
2.5004
0.0248266
0.321014
0.11276
0.486933
0.0288519
3.2655
0.0255999
0.134909
0.113177
0.0232974
0.0477387
0.0344497
0.0265485
0.270979
0.0330382
0.0237301
0.0255668
0.342485
0.0247682
0.0781434
0.0246689
0.0224948
0.0258729
0.0349581
0.0246148
0.0851032
0.0292973
0.0264487
0.0224643
0.0244967
0.577822
0.0869721
0.209319
0.0360075
0.027774
0.0306482
0.0282711
0.0244564
0.0256829
0.0376608
0.0261031
0.0270288
0.0231573
0.0286053
2.6303
0.0250742
2.51908
0.133466
0.0246305
0.0247061
0.0229758
0.031495
0.0414383
0.0227672
0.0282576
0.0258207
0.0249251
0.0240605
0.0250489
0.0241264
0.0245907
0.272408
0.0247906
0.0291214
0.0245571
0.161948
0.065471
0.0244925
0.313733
0.0246313
0.0268307
0.0344932
0.397454
0.0314478
0.0239682
0.0242761
0.0359773
0.0435893
0.144265
0.0256629
0.0521719
0.132914
0.0250077
0.0245104
0.131057
0.0550689
0.0336169
0.0247733
0.025431
0.0257124
0.0262554
0.023704
2.18727
0.0268011
0.0268454
0.0234693
0.0307709
0.0231772