/*--------------------------------*- C++ -*----------------------------------*\
| =========                 |                                                 |
| \\      /  F ield         | OpenFOAM: The Open Source CFD Toolbox           |
|  \\    /   O peration     | Version:  v2012                                 |
|   \\  /    A nd           | Website:  www.openfoam.com                      |
|    \\/     M anipulation  |                                                 |
\*---------------------------------------------------------------------------*/
FoamFile
{
    version     2.0;
    format      ascii;
    class       volScalarField;
    location    "100";
    object      p;
}
// * * * * * * * * * * * * * * * * * * * * * * * * * * * * * * * * * * * * * //

dimensions      [0 2 -2 0 0 0 0];


internalField   nonuniform List<scalar> 
13917
(
-0.124571
0.0149167
-0.0958729
-0.0213142
0.0079824
0.0143583
-0.0328364
0.0200005
-0.0470647
-0.130044
0.0196648
-0.012762
-0.0114012
0.00146946
0.0082769
-0.123459
0.0022524
0.0171817
-0.0671183
-0.128213
0.00151401
0.00210345
-0.0418871
0.00221439
-0.0157784
0.00368436
-0.0401988
-0.128685
0.0103908
0.000187454
-0.125481
-0.0661957
-0.0161713
-0.124311
0.00365761
0.0226645
-0.00233462
-0.000325754
-0.0340379
-0.00296407
0.00174727
0.00317002
-0.0420988
-0.0738633
-0.0721953
0.0248819
0.000806134
-0.223185
-0.00564287
0.00364001
-0.0125136
-0.00768357
-0.109494
-0.00490668
-0.00579841
-0.0118553
-0.121039
-0.0402216
0.00316675
0.030681
-0.0248522
0.00366701
0.000263584
-0.0158906
-0.128419
-0.000491016
0.0125573
0.0243288
0.0179792
-0.116293
-0.120224
-0.122621
-0.021503
0.00311739
0.0011613
-0.0107886
0.00614904
0.00309931
-0.0110488
-0.0162745
0.000294234
0.0023353
-0.0212909
-0.115383
-0.00641639
0.00833421
-0.0651188
-0.00618282
-0.00293146
0.00220074
0.00224827
-0.0432289
-0.00715365
0.00331257
-0.00306339
0.0114262
-0.0520242
0.00209852
-0.0063706
-0.00880312
0.00097374
0.000923009
0.000286918
0.00188286
0.00612389
-0.0979736
-0.170834
0.00336781
0.0032388
-0.0426682
-0.0128652
-0.12564
0.00925375
-0.24088
-0.129504
-0.00853042
-0.0657102
0.0019089
-0.089426
-0.0209719
0.00236324
0.00303814
0.013272
-0.0407603
-0.106962
-0.115575
-0.0167678
0.00175493
0.00279051
-0.044151
-0.05195
0.0437726
-0.104681
-0.00795355
-0.0693387
-0.0547436
-0.000992361
-0.0965634
0.00508859
-0.00022164
-0.0198672
0.00305978
-0.0988304
-0.000659212
-0.0196566
0.00339279
-0.120134
-0.0303938
-0.231477
-0.00499675
-0.00365824
0.000832168
-0.019455
-0.0212897
-0.0624666
0.00437058
0.00189104
-0.103792
0.00171451
0.00188208
-0.00421882
-0.131906
0.00306119
-0.0238458
-0.108094
-0.0177314
-0.110282
-0.117919
9.14926e-05
0.00583207
0.00273043
-0.113181
-0.0474595
-0.00233673
-0.00380573
0.00135263
-0.0220461
-0.00187437
-0.0515727
0.00378224
-0.0402878
0.0024887
-0.0119583
-0.0308179
-0.0897798
0.0446792
-0.0116933
-0.0258081
0.000245263
0.00905128
-0.00173677
-0.0704084
-0.0361547
-0.126246
0.00330738
-0.108672
-0.0165357
-0.104636
0.00359857
0.00408515
-0.000533275
-0.118099
-0.0970239
-0.000807223
-0.00389639
0.00952869
-0.00376796
0.00308293
-0.00598638
0.000741529
0.00205776
0.00951455
0.00972044
-0.223388
-0.0689928
0.00427265
-0.148264
-0.00228903
0.00241031
0.0023957
-0.133627
-0.0331939
-0.0217277
-0.0122289
0.000161597
-0.0554909
-0.109925
0.00241546
0.00239591
0.00153241
0.00241041
0.00239283
-0.123167
-0.191085
0.00110869
0.000136864
-0.0198106
-0.118714
0.00198155
-0.0120533
-0.0160598
-0.097872
-0.0354331
-0.147938
0.0086758
-0.00081752
-0.114591
-0.0215021
0.00862935
-0.0549385
-0.00136255
-0.203618
-0.0211124
-0.00854224
-0.0077653
0.00172683
0.00172781
-0.0166787
0.00728587
0.00359987
-0.108254
-0.0278051
0.00314069
0.00238002
0.00459998
0.00239911
-0.0213868
-0.0114988
-0.0260598
0.00317211
-0.093723
-0.169737
-0.00970633
0.00670308
0.0411921
0.00208092
-0.00221252
-0.10861
0.00210357
-0.117012
0.00354263
-0.121934
0.00127155
0.00667144
0.00200033
3.23602e-05
-0.064265
0.000596147
-0.0273294
-0.0120041
-0.038489
0.00340518
0.00456797
-0.0933232
0.00198967
-0.0324852
0.00761713
-0.00680756
0.00790687
-0.011936
0.00338975
0.000627053
0.00595089
0.00544713
-0.00915511
-0.0122048
-0.0116812
-0.10239
-0.117795
0.00280273
0.00185332
-0.00745872
0.00802216
-0.084216
-0.15853
-0.00268493
-4.52165e-05
0.037301
0.00629267
-0.115878
0.0081418
-0.09585
-0.0112302
0.00774256
-0.0320897
0.00355119
0.0169595
-0.0685356
0.00218015
-0.114966
-0.00626926
-0.0666995
0.00186745
-0.114376
0.000839745
-0.0111129
0.00915662
5.47492e-05
0.00224181
-0.0581213
-0.103341
-0.0039876
0.00370676
-0.125737
-0.103713
-0.0393997
0.00480221
0.00209098
0.000165607
-0.0963117
0.0373608
0.00212009
0.00837074
-0.00852802
0.00231497
-0.0105462
-0.034412
0.0170581
-0.00369989
-0.062548
-0.128095
0.00286012
-0.00445585
0.00863075
-0.0796273
0.00198721
-0.125089
-0.0627736
-0.0128147
-0.00551753
0.028877
0.00174967
-0.0113024
0.00314651
-0.026506
0.0356867
0.0108024
-0.00961444
-0.106627
0.00184344
-0.0979145
-0.0373285
0.00312506
-0.00264762
0.00314664
0.00228885
0.00279527
-0.138918
0.00140496
-0.00494593
-0.0418751
-0.00160088
-0.00177842
-0.0877151
-0.0909616
-0.00649243
-0.0642739
-0.000944008
-0.00380987
-0.0941396
-0.00643156
-0.0391718
-0.0129902
-0.000457799
-0.00105446
0.00286687
-0.011653
-0.0133842
-0.00496162
0.00312261
0.00166504
-0.0235878
0.0230561
0.00194173
0.000103932
-0.0832932
0.0272829
8.689e-05
-0.0052834
0.0134327
-0.0695274
-0.00109073
-0.0694868
-0.11247
0.00257757
0.00195137
0.00193805
-0.00110178
0.00196699
0.00140795
0.0019842
0.00254605
-0.141851
-0.000971459
-0.00313706
-0.0944627
-0.0304796
0.00208677
-0.0188498
-0.0952087
0.000145868
-0.105573
0.00188926
-0.0115293
0.00187364
0.00241201
-0.00235103
0.00370046
0.0271897
0.00352919
-0.0983937
-0.0112421
-0.0462414
0.00374202
0.00062626
0.00510129
-0.0301265
-0.0087902
-0.0794763
0.00204735
-0.000853406
0.00157212
0.00298124
0.00200786
-0.0044162
-0.103436
-0.021491
0.00197929
0.0114195
-0.0825378
-0.0118442
-0.0295317
-0.0787907
-0.116087
-0.0419682
-0.106641
-0.00531837
-0.00644715
0.00357558
-0.000107906
0.00400353
-0.00126048
-0.0462058
0.00222508
-0.00525687
-0.00356101
-0.0425423
-0.0010298
-0.0856166
-0.0500967
0.00317974
0.00697768
0.0158854
0.0011889
-0.00469255
-0.00292283
-0.0322927
-0.0129357
-0.0739795
-0.00654512
0.00222542
0.00056741
3.93688e-05
-0.100027
-0.00106711
0.00238659
-0.0245933
0.00191155
-0.00189918
0.00893304
-0.0959045
-0.0493548
-0.00438871
-0.0270597
0.00334349
-0.0222533
0.0710098
-0.0046557
-0.00555774
-0.00436305
-0.0117152
-0.0163802
0.00310184
0.00196617
0.00390163
-0.000712759
0.00599944
-0.0211761
0.00220777
-0.0489562
1.15708e-05
0.00143849
-0.0133281
-0.144676
0.00238284
-0.0324868
0.00361691
-0.0456538
-0.0330892
0.0056379
-0.00681395
-0.00828154
-0.011616
0.0145254
-0.10504
-0.150464
-0.0948216
0.00281195
0.00170879
0.00311228
-0.0113054
-0.12846
0.00208826
-0.0313923
-0.0174557
-0.113412
-0.0059352
-0.0413131
-0.174729
0.00206758
-0.0736485
0.00208952
0.00389656
-0.11281
0.00191141
-0.0950522
0.000442451
-0.0118387
0.00180012
-0.0844513
0.00591545
0.00238199
-0.0761344
-0.0282907
-0.0468995
-0.116704
-0.102715
-0.111863
0.0023766
-0.111902
0.000567166
-0.00582889
-0.0243961
0.00397822
0.00202011
0.00103525
-0.0318714
-0.0398997
0.0019361
0.00214207
-0.00944652
-0.115262
-0.00505776
-0.0648874
-0.00507117
0.00236139
0.00179607
0.0173323
-0.0962627
-0.173084
-0.0535197
-0.0221797
-0.0813781
-0.117842
0.00284815
-0.0418901
-0.0102995
-0.0831123
-0.0109432
-0.107059
-0.000679891
0.00533959
-0.0201817
-0.049327
-0.028477
-0.135867
0.0023001
-0.0265338
0.00358968
0.000985924
-0.129879
-0.0206948
0.00379724
-0.0347828
-0.0118618
0.003706
0.000780864
-0.131076
-0.0053179
0.00785085
0.00205927
0.00371374
-0.0767217
0.000750217
-0.0436185
0.00233707
0.000583099
-0.0199246
-0.0659119
-0.00461757
-0.0936
-0.0939076
0.022763
0.00534179
0.00204653
0.00884416
-0.143556
-0.0932309
0.00115608
-0.00288757
0.00534227
0.0023864
0.002483
-0.000624927
-0.0307999
-0.0136509
-0.0768385
-0.0294675
0.0198589
0.0669176
0.00467114
-0.015183
-0.0399985
-0.118099
0.0034008
0.00578778
-0.00050989
0.000458954
0.00236461
0.00166459
0.00333074
-0.00288725
-0.113435
-0.0596648
0.00165133
-0.0670024
0.00232604
-0.156377
0.00353678
0.002874
-0.0967154
-0.0352542
-0.027264
-0.0209983
0.00169983
0.0030714
-0.0248852
-0.0340024
0.000626702
-0.101206
-0.011008
-0.0214662
-0.0251754
0.00569728
-0.0989466
-0.0265812
0.00193993
0.00368115
-0.109455
-0.0374973
-0.0161526
-0.104566
-0.0257213
0.000824815
0.00287365
-0.00152598
-0.102003
-0.0272732
-0.0270389
-0.0242554
-0.0319292
-0.0838882
0.00606865
-0.0379111
-0.0588603
-0.00304002
-0.015822
0.00183979
-0.0332022
0.00715543
-0.0915542
-0.00547202
0.00405239
-0.102884
0.000354875
-0.0242353
-0.00349678
0.0118938
-0.0210425
-0.0928742
0.00229655
-0.07358
-0.0942592
-0.00255984
-0.0120764
-0.00616648
-0.00291485
-0.0104422
-0.0203253
0.00795337
0.00401067
0.0172842
-0.0416332
0.00210581
-0.0927658
-0.046012
-0.0421048
-0.0392216
0.000501695
-0.0727155
-0.0498157
0.00237946
-0.0369828
0.00584655
-0.0572818
0.00202067
0.00193635
0.00253301
-0.116848
-0.0154879
0.00360302
-0.0650139
0.000665226
0.00226918
-0.0148225
-0.0331979
0.00799361
-0.0755058
0.00249044
-0.0946558
-0.0208468
0.00654241
-0.0909621
0.00401981
0.00309415
0.00220443
0.00235068
-0.0195164
-0.00413393
0.00467575
0.00205036
0.00031184
0.00382025
-0.0250816
-0.0040439
-0.0427457
0.00188822
-0.0541795
0.00714997
-0.0959386
0.00734627
0.00227308
-0.152685
-0.0149954
-0.108906
-0.0399828
0.00623215
0.00567439
0.00281341
-0.0120838
-0.121025
-0.0311811
0.0228085
-0.0628865
-0.0103781
-0.0568873
9.82783e-05
0.00404184
-0.02597
0.000125228
-0.124689
-0.0342745
0.0049964
-0.0629848
0.00530828
0.00257339
0.00236957
0.0208091
0.00212839
-0.00426339
-0.00763229
0.00182741
-0.0643757
0.00255611
0.00410989
-0.00249404
-0.121994
-0.10733
0.0104263
-0.0966283
-0.0795804
-0.121847
0.00941041
0.00131019
0.00360463
-0.0147219
-0.0114497
-0.00419646
-0.0321595
-0.00393499
0.0254663
-0.00437666
-0.108864
-0.0156517
-0.0572047
0.0156812
0.00303709
-0.00239979
-0.0144345
0.0039614
-0.0260029
0.00180534
-0.0960952
-0.030504
-0.000362643
0.00287499
-0.0158774
0.0032223
0.00398717
-0.0831853
0.00119003
-0.0163766
-0.000881734
-0.0114188
0.00655253
-0.00166819
-0.0743459
0.0043757
0.0011834
-0.0233634
-0.0491598
0.00112717
-0.0572416
0.00232981
-0.0113885
0.00176255
0.00386706
-0.1268
0.00233719
-0.0214529
-0.0650396
-0.125124
0.00180093
0.00308939
-0.0966031
0.00320356
0.00472344
0.00192331
-0.112087
-0.0152298
-0.0777922
-0.0140892
-0.0981123
0.00689363
0.0747926
0.00305523
0.00151396
0.00447715
-0.00444373
0.000266321
-0.10471
-0.00433729
-0.000340028
0.00189694
0.00316241
0.00362674
-0.032898
-0.00614511
-0.13006
-0.00385885
-0.0774708
0.0077973
-0.0308706
-0.103067
-0.0020497
-0.0349761
-0.0127702
-0.10004
-0.0133609
-0.0225887
0.00180121
0.00380764
-0.00498212
0.00177366
0.00278847
0.0032138
-0.0124385
-0.0191047
0.00236412
-0.00479244
-0.0637147
-0.130595
-0.107876
-0.0634856
0.00309938
0.00244676
-0.00402096
-0.0915123
-0.0206031
-0.0941391
0.00229482
0.00130533
-0.00889016
-0.00198001
0.00228439
0.00191343
-0.006758
-0.0146164
-0.000488341
-0.155896
0.00235525
0.000542294
-0.1209
-0.0130392
0.00281318
0.0039659
-0.13321
0.00266532
0.00156642
-0.0275133
0.00341505
0.00302946
-0.0939464
0.00372994
-0.0613781
-0.0220451
0.00663851
0.00198806
0.00311549
-0.00108701
0.00894789
-0.0120407
-0.118344
0.0055925
-0.000356228
0.0050905
-0.016086
0.00191019
-0.0762557
-0.0611796
-0.0131786
-0.109647
-0.167864
0.00642847
-0.0775091
0.00315568
-0.10265
0.00306742
0.0248599
-0.010478
-0.0402197
-0.0113919
0.0658498
-0.0388919
-0.0972468
0.00182731
-0.0374809
0.00182321
-0.0042302
-0.0620522
-0.00246378
-0.0136605
0.0429193
-0.118936
0.00309994
-0.0526426
-0.116833
0.000389726
0.00219416
-0.0380341
-0.157178
-0.0117872
0.000500574
-0.0326464
-0.0179188
0.00302926
0.00764493
0.00366367
-0.0146278
-0.0359988
0.00179756
0.00288061
-0.020205
0.00489458
-0.103168
-0.0216025
-0.0151066
0.00163666
-0.127822
0.00310585
0.00208633
0.00167695
-0.0272242
-0.0220579
0.00177492
-0.0901063
0.00392429
0.00415232
-0.0523594
-0.000510056
-0.0026526
-0.0500029
-0.0812479
-0.0742406
-0.0145209
-0.0251297
0.0249494
-0.118528
-0.000250386
-0.0210256
0.00221413
-0.0103664
-0.0168743
-0.0313282
-0.0254348
0.00389019
-0.0187964
0.0213315
-0.00240713
-0.0920761
-0.022835
0.00596135
-0.0151097
0.00230943
-0.0822153
-0.0061116
-0.00202913
0.00609276
0.001918
0.00158663
0.00220473
-0.0118455
-0.0985227
-2.99849e-05
-0.00367087
-0.0406291
-0.00255777
-0.00827441
0.0156231
-0.0768594
0.00402243
0.00287597
0.00406922
0.00169729
0.0134842
-0.103421
-0.0192314
-0.0146639
-0.0610248
0.00362027
-0.00318186
-0.120232
-0.102356
0.00762491
-0.00739861
0.00174693
-0.103631
-0.0160555
-0.00168249
-0.120852
0.00302116
-0.0244256
-0.128636
-0.091685
-0.0306076
-0.0188227
0.00245632
0.00140838
-0.00931705
-0.00828297
0.00172087
-0.0922038
0.00232873
-0.0253414
0.0024817
-0.07343
-0.108981
-0.00543952
-0.0134972
-0.0790037
-0.0146387
-0.0784805
0.0048363
-0.00638813
-0.00982344
-0.0994041
-0.0509954
-0.119716
-0.007658
-0.0836517
0.00875802
0.00172681
0.0107147
-0.0253453
0.00198475
-0.00146905
0.0374468
-0.0101607
-0.00483807
0.00286656
0.00335418
-0.0279652
-0.0531054
0.0734639
-0.00434412
0.033253
0.00445043
-0.00378744
-0.00362242
0.00335493
-0.0953197
-0.0756686
0.0028107
-0.0564996
0.00179291
0.00731803
-0.094154
-0.0135687
-0.000500366
0.00243503
-0.0161565
-0.00390593
-0.00147425
-0.0959213
0.0040422
-0.0311166
0.00166455
0.00166932
-0.0614331
-0.154325
-0.0700919
-0.0220245
0.000680526
-0.000473
-0.00460053
-0.0780072
-0.0960914
-0.000138818
0.0177738
0.00031485
-0.0527495
-0.0385432
0.00156965
-0.00403337
-0.0742334
0.00326894
-0.00917433
0.00145459
0.00278959
-0.0221163
-0.125183
-0.0241581
0.00172941
-0.122223
0.0150401
0.00300874
0.0414647
-0.00226513
-0.00828359
-0.0462787
-0.0257119
0.00328596
0.00758516
-0.0586269
-0.0041426
-0.0168934
0.00252543
-0.00372583
0.00215732
-0.0105242
-0.0197907
-0.00073977
-0.101703
-0.00437137
-0.0259142
-0.0477386
0.00841453
0.00287115
-0.000346111
-0.0165027
-0.0919295
-0.176714
-0.0011289
0.00251985
-0.0992716
-0.000622002
0.00237372
-0.0190319
-0.00238389
-0.00806388
-0.000768239
-0.10107
-0.0207655
-0.000131197
-0.0156064
0.0519
-0.104049
-0.116497
0.00358314
0.000848178
-0.00934829
0.00177811
0.00256254
0.0232626
-0.0228756
-0.00916563
-0.0338938
-0.0169268
-0.102332
-0.00893548
0.00528413
-0.0284054
0.00249608
-0.0914116
-0.00856701
0.00212639
0.0482002
-0.0649756
0.0621077
-0.0937174
-0.00753061
-0.0358481
0.0021886
0.00300066
0.00524131
-0.00896991
-0.00857922
-0.0906284
-0.0132195
-0.0205893
0.00578317
0.00358393
-0.0184802
0.00146751
0.00277053
-0.0957428
0.00169191
0.0202017
-0.0627702
-0.00920416
-0.0534541
-0.0351329
-0.0354893
-0.00610348
0.00385932
0.00100087
0.00281704
-0.0123773
0.0127556
0.00338292
0.00206822
0.00349803
0.00219375
0.0137106
-0.000759694
-0.148333
-0.0266647
0.00316235
-0.010981
0.00273289
-0.0236091
0.00383159
-0.0620185
0.00281987
-0.00113114
0.0034673
0.00903442
0.00343742
-0.107469
0.00249664
0.00165753
-0.0120104
-0.00247308
0.00274128
-0.125042
-0.00160299
0.00191423
0.0274849
0.035737
-0.102871
0.000234658
-0.0203729
0.0306997
0.00351025
0.00274393
-0.113377
-0.0134098
0.00121618
0.0717003
0.00265681
-0.127448
0.00172683
-0.000846042
-0.0124522
0.00277691
-0.100793
0.00162136
0.00252751
-0.0653536
-0.00760987
0.00221971
0.0017054
0.00264436
-0.0562071
-0.0178702
0.00592332
0.00153334
0.00165596
0.00943565
0.00142451
0.00141863
-0.011422
-0.0105291
-0.0335537
0.0034723
0.00346878
-0.0189111
-0.0059458
-0.00503049
-0.010216
0.0126449
0.00274227
-0.0519592
0.00195971
0.0161645
0.00280516
-0.00887094
0.000224722
0.00179348
-0.00289501
0.00645318
-0.0422117
0.0617091
0.00115391
-0.103935
-0.153929
-0.0601709
-0.0962072
0.00115535
-0.0102888
-0.0402728
0.0325615
0.0022605
-0.114739
0.00277065
-0.0831969
-0.0259914
-0.0304307
-0.0447679
-0.0110655
-0.00114303
0.00222115
-0.0567976
0.000549329
-0.000643173
-0.0303855
-0.120939
-0.140102
-0.0100633
0.00749966
0.0032684
0.00224333
-0.00573921
-0.00484536
-0.00721676
-0.00171088
-0.00222108
-0.105977
0.00272189
-0.0490773
-0.000599484
-0.0279456
0.0145534
-0.00537323
0.00285047
-0.100765
0.00298463
-0.014843
-0.0210389
0.00222192
-0.0068218
0.00790783
-0.0300319
-0.103662
-0.010853
0.00274964
-0.0217975
-0.0021279
-0.0118115
4.41847e-05
0.00280053
-0.0347941
0.00134481
0.00203527
-0.0417858
-0.00592019
-0.0291315
-0.00679558
0.00226659
-0.00467472
-0.00534488
-0.00124973
-0.0439856
0.0332361
-0.0150594
0.0027173
0.00286195
-0.00852044
0.00377732
-0.00409877
-0.0975078
0.00224079
-0.0459898
-0.0052126
0.00394827
-0.0998935
-0.00370033
0.0022925
-0.106261
-0.0616141
-0.127068
0.00372677
-0.111512
-0.0550629
-0.00156974
-0.115016
-0.00129619
0.00571818
-0.0902496
0.00255036
0.0116799
-0.125288
0.00552004
-0.0504653
-0.0186156
-0.10222
-0.0142079
-0.0403459
-0.0088842
-0.119259
-0.0148056
-0.0126435
0.00539494
-0.0318071
0.00286957
0.00162235
0.00395574
-0.0229575
-0.00699083
-0.000399408
-0.110942
0.0239319
0.0619742
-0.0149183
0.00284164
-0.0420223
-0.0395393
0.00116079
-0.0809479
0.00154935
-0.0311443
-0.119852
0.00297337
-0.095515
-0.0112025
-0.110343
5.17037e-05
-0.00909954
0.00556807
-0.0374677
-0.0311146
-0.0150241
-0.0184214
0.00230373
-0.00317476
-0.118477
-0.00593734
-0.0980907
0.00341781
-0.0149446
-0.126277
0.00450125
0.00264861
-0.0966221
-0.00657032
-0.0129818
-0.0914032
0.036229
0.0735371
-0.0318939
-0.0900631
-0.00148227
0.00655696
-0.11893
-0.106212
-0.0188607
-0.00159597
-0.0285206
-0.0223142
0.000728611
-0.00859063
-0.0445227
-0.00505792
-0.0122004
-0.01595
0.00318941
0.0149789
-0.106171
0.00680132
-0.0141522
-0.0142978
0.0220156
0.00299878
-0.10192
-0.0135225
0.0022906
0.0322445
0.00423477
0.00152584
-0.0238719
-0.0351332
-0.00927927
-0.0994421
0.00359228
-0.0969353
0.0032133
-0.119601
-0.102376
-0.092236
0.00175652
-0.00788335
0.00552879
-0.000940067
0.015867
-0.0609758
-0.122885
-0.0287284
9.36505e-05
-0.0122746
0.00385099
-0.0466851
-0.107463
0.00103593
0.00163604
-0.0108472
0.0550254
0.00025892
0.00324682
-0.00109306
0.0385321
-0.000641519
0.00398893
-0.000789005
-0.0991224
0.00710956
0.000408629
-0.0959904
-0.0290019
0.00168066
-0.0895136
-0.00328673
0.00756545
-0.163362
-0.00899778
-0.00184343
-0.0587102
-0.0626438
0.0435772
-0.112911
-0.017727
-0.0282654
-0.0208123
0.00264642
-0.0837253
-0.0312732
0.0235618
-0.0371374
0.00979906
-0.0215483
-0.0140224
-0.173303
-0.00988176
-0.0759773
0.000127606
-0.0208608
-0.00907691
0.000853991
-0.0995231
-0.011829
0.00162049
0.0154434
-0.0897936
-0.00318676
-0.0310908
-0.134233
0.000173768
-0.00398661
7.29627e-05
-0.00159733
-0.0571089
-0.0140128
-0.0924592
-0.0340377
-0.0190175
0.00453819
0.000813831
0.00801464
0.0110314
0.0151814
-0.00879785
-0.00162081
0.00155172
0.00311184
-0.108919
-0.0814069
-0.00014711
-0.0610918
0.00354692
0.000202637
0.00643828
0.00277993
0.00320673
0.00453246
-0.0206755
-0.126312
0.0561076
0.00243785
-0.0204678
0.0220634
-0.00736027
-0.0996563
0.00162652
-0.0761039
0.0688935
-0.00167926
0.0541534
-0.115323
0.000879957
-0.0048037
0.00173791
-0.00504499
-0.0243116
0.0022645
-0.0191425
0.000533675
-0.000794238
-0.0917975
-0.0101629
-0.0178771
-0.00545847
0.0015656
-0.0881427
-0.0232391
0.00488142
-0.0490039
0.019795
-0.120965
-0.0382477
-0.00381999
0.000666554
-0.150995
-0.00791101
-0.0483191
-0.0208963
-0.115292
0.00430306
0.0036324
0.00888387
-0.111371
-0.0131086
0.00283066
0.00248786
-0.0875143
-0.14467
0.00523416
-0.0148649
0.00308091
-0.000185666
-0.100246
0.000175055
-0.112755
-0.0634484
0.00343994
0.00715824
0.0111953
-0.00171555
-0.0290959
0.00256026
-0.011674
0.00991122
0.0232304
-0.018436
-0.00284935
0.00417092
-0.133801
-0.00156822
-0.011358
-0.115055
-0.00454165
0.00461486
-0.023816
0.00279594
0.00347263
-0.0195459
-0.038053
-0.0188282
-0.00547551
0.00151063
-0.0358549
-0.00858127
-0.0108939
-0.00460939
-0.00991969
0.00183946
0.00143855
-0.0136679
-0.0166665
-0.0591894
-0.093903
-0.166873
0.00100882
0.00378387
-0.00215876
-0.107955
-0.0127691
0.00535504
-0.114391
-0.115068
0.00155146
-0.0175317
-0.0152221
0.00724493
-0.117177
0.00219602
-0.0125992
-0.033239
-0.106751
-0.0177782
-0.0189093
0.000327991
-0.0831507
-0.101017
0.00244706
-0.112921
0.00803941
-0.0138279
-0.0295922
-0.0610257
-0.0450634
-0.0331238
-0.000974473
0.00610313
-0.01149
0.00240675
-0.00197029
0.0183172
0.00123184
0.00347678
-0.0255645
-0.0978521
0.0662997
0.00224903
0.0159109
0.0307762
-0.0679294
0.00353647
-0.0130818
-0.0108009
-0.111732
0.0239751
0.00121961
0.0137122
-0.0750101
0.00158085
-0.103968
-0.00750973
-0.000184851
0.0306892
0.00200872
0.0063824
0.00286044
0.00130881
0.00283366
0.00249894
-0.132748
0.00172655
-0.00380105
-0.0443563
-0.0410577
0.00235005
-0.0750885
-0.00476151
-0.0151103
-0.00733775
-0.00689712
0.000127183
-0.000456571
-0.104618
-0.0275123
0.00963491
-0.0328764
0.0103595
-0.148766
0.0561688
-0.133186
0.00175735
0.00630348
-0.0134834
-0.00122188
0.00320343
0.00382625
-0.0903233
-0.0692463
0.00245997
-0.00280835
-0.0132076
-0.0720187
-0.0169974
-0.00186748
-0.00348847
-0.0959117
-0.0100309
-0.11852
-0.0200903
-0.00937781
-0.00290098
0.00361493
0.00252476
-0.0564505
-0.000615317
-0.0259912
-0.127427
-0.000318705
-0.101574
-0.0183507
0.00150184
-0.0158205
-0.0155437
0.00709453
0.00184745
0.00316197
0.00147307
-0.163735
0.00119428
0.0222787
0.00943888
-0.0265038
0.00721307
0.0129011
-0.0600935
-0.101577
0.00264348
0.00236278
-0.000735429
-0.101406
-0.00876325
-0.0189284
-0.0293598
-0.00171974
0.00448843
-0.00765123
0.000165056
-0.00328169
-0.0149575
-0.0232727
-0.136929
-0.125591
-0.0245613
0.00161385
0.00613095
-0.0127989
0.00577706
0.0008546
-0.0827884
-0.076411
-0.00231108
-0.000215144
0.00161376
0.0267068
0.00822154
-0.0913507
-0.0219636
-0.0105169
-0.114777
-0.0655589
-0.0821085
-0.113544
-0.00760457
-0.162586
-0.0124805
-0.0941501
-0.100842
-0.165276
-0.121651
0.00229469
-0.0110335
0.000292953
0.0024855
-0.124639
-0.00461219
-0.0127756
-0.0374474
-0.017605
-0.042724
-0.093452
-0.100084
-0.0674854
-0.0193979
-9.65825e-05
-0.00651482
0.00376691
-0.0205816
0.0196403
-0.0661925
0.0363619
-0.00607312
0.00169518
0.00217693
0.00236543
-0.0915449
0.000448765
0.00354302
-0.0111737
-0.00150281
-0.043048
0.00822632
0.00915238
-0.156894
-0.0102756
-0.04245
-0.0130959
-0.0386799
0.0497171
0.0061847
0.00221585
0.00280486
-0.0218673
-0.0249013
0.00117748
-0.026129
-0.129588
0.00176472
1.88261e-06
-0.00160502
-0.0816344
-0.00235715
-0.000823433
0.00173002
0.0694679
-0.0955941
0.00153529
0.00289383
-0.123996
-0.00762724
0.00982872
-0.00792049
-0.0970275
-0.00983366
-0.117253
-0.00147061
0.00621642
0.00331727
-0.105712
-0.0320439
0.00304923
-0.122217
-0.00947444
-0.00665565
-0.0631296
-0.0990513
0.0153931
0.048555
-0.037595
-0.0185196
-0.114577
0.000824755
-0.00703712
-0.0186491
-0.0205925
-0.0123899
0.00964685
-0.00849771
0.00581095
-0.106384
-0.0200987
-0.119709
-0.00877002
-0.120859
-0.104783
-0.0172135
-0.0169481
-0.0356966
-0.0271893
-0.0908232
-0.0243236
-0.128082
-0.128076
-0.0213689
0.00425911
-0.100307
-0.15498
0.00905154
-0.108353
-0.00325434
0.00200144
-0.0194884
-0.000606592
-0.00811714
-0.0438305
-0.121068
0.00974332
-0.00815784
-0.190407
-0.0942902
0.01534
-0.120059
0.00755643
-0.107199
-0.0373063
-0.0668983
0.0017288
0.00242907
-0.0569993
-0.104457
0.00445663
-0.0896317
-0.12329
0.00198265
-0.0165465
0.00366442
0.00930993
-0.00193804
-0.0259681
-0.162615
0.00228777
-0.0129199
0.00176253
-0.0127513
-0.0758547
-0.125936
0.00418644
-0.104724
0.0119115
-0.00477064
-0.00402407
0.0307
0.00216904
-0.103714
-0.107798
0.0462586
0.065815
-0.113229
0.00208245
-0.110918
-0.12107
0.0225223
-0.112584
0.00316343
-0.00252899
-0.00839406
-0.0326282
-0.113706
-0.0199977
-0.0159356
-0.0146605
-0.0184538
-0.116084
0.00414119
0.00166673
-0.0996982
-0.122234
-0.0202741
-0.00425256
-0.00712933
-0.0111777
-0.0137004
0.0669396
-0.00289182
-0.0921959
-0.00564812
-0.110781
-0.000585145
0.00294672
-0.0677394
0.00129944
0.00151592
0.0295044
0.0723424
0.00391586
0.0115535
-0.0218694
-0.0917437
-0.109748
0.00997664
-0.0109279
-0.00118992
-0.0278774
-0.0143836
-0.00563249
0.02275
0.00248019
0.00161876
-0.125817
-0.00135867
-0.00720692
-0.0264743
0.00564527
0.0029583
0.00263286
-0.019481
-0.0193455
-0.0134961
-0.0265428
0.00744514
-0.0982318
-0.00607746
-0.0458327
-0.0138548
-0.109685
-0.0039402
0.00174104
-0.0269746
-0.0150026
-0.0106609
0.00769134
-0.0141372
-0.0206362
-0.0135864
-0.107539
-0.00705622
-0.0700113
-0.0462429
-0.0730592
-0.0763614
-0.0197029
-0.0794987
-0.0826808
-0.0857409
-0.0887123
-0.0798336
-0.0429912
0.00749197
-0.00371801
-0.0309608
-0.0675272
-0.00131975
-0.00180288
-0.104873
0.0275443
-0.128632
0.00154823
0.00286522
0.00591361
-0.122807
-0.019407
-0.000121001
-0.0754973
-0.046749
-0.0367576
-0.00548006
0.00845655
-0.020033
-0.210307
-0.0202532
-0.0372201
-0.0853205
-0.117838
-0.0651368
-0.119524
-0.0130297
0.0060402
-0.10654
0.000113999
-0.102085
-0.107131
-0.00565136
-0.00174038
0.012399
0.00593929
0.00281083
-0.0331131
-0.0273763
0.00299201
0.00302735
0.0499888
-0.104294
0.00318637
-0.00740353
-0.0967856
-0.0311999
-0.1223
-0.0980767
-0.016438
-0.0127946
-0.0188134
-0.0018031
-0.119626
-0.0205105
-0.140365
-0.0669207
-0.101228
-0.0258321
-0.00077034
-0.00170237
-0.11432
0.00313151
-0.110848
0.000233936
-0.117506
-0.0192025
-0.000620492
-0.0240942
-0.00187665
-0.072438
-0.0434869
-0.0124298
0.00217146
-0.0191668
-0.0902876
-0.120315
0.0284976
-0.121137
-0.00186418
0.00129924
-0.0321755
0.00312752
-0.0969667
-0.0486888
0.015283
-0.0946733
-0.0758242
-0.117783
0.000153658
0.00312014
0.00230251
0.00171824
-0.0878686
0.0195881
-0.000564284
-0.000838218
-0.082399
0.000411078
-0.0199835
6.62654e-05
-0.192825
-0.0145622
-0.0176545
0.00134196
-0.119885
0.0018828
-0.0293468
-0.0818432
-0.073922
-0.0996915
0.00154412
-0.0399344
0.0238117
-0.092776
-0.104575
-0.00949875
-0.0780502
0.000172977
0.0040949
0.00779511
-0.034698
0.0658715
0.000164344
0.0113085
0.0337311
0.0194243
-0.111008
-0.114877
-0.109389
0.00280434
-0.0191124
0.00339477
-0.0803956
0.00336939
0.0194261
0.00348452
-0.0284499
0.00060585
-0.0387231
-3.86717e-05
-0.00713784
-0.108676
-0.0839359
0.00329602
-0.0698502
-0.0820857
0.00215388
0.00435028
-0.112409
-0.0194713
0.0240328
-0.103497
0.00395321
-0.124036
0.00128378
-0.129345
-0.130291
-0.0244095
-0.0303942
-0.0263689
-0.0701475
-0.0626612
-0.11639
0.0161339
-0.0188407
-0.108902
0.00910388
-0.00843639
-0.00322751
-0.100581
0.0586717
-0.108053
-0.0438611
0.00955304
-0.00790902
-0.12776
0.0174018
-0.112533
-0.101848
-0.00140518
0.00122798
-0.116785
-0.104149
0.00545672
-0.0170195
-0.000957487
0.00905596
-0.122048
0.021753
-0.105337
-0.00846979
-0.101931
0.0197854
-0.0157757
-0.0182199
-0.00999063
-0.0544283
-0.00092476
-0.0752424
0.00161494
-0.0239514
-0.0174836
-0.00127537
-0.00216341
-0.0196969
-0.108398
-0.110763
0.00181472
-0.10079
-0.0138639
0.00226772
-0.00901907
0.00294853
-0.0199694
-0.103393
-0.109366
0.00275816
-0.0374496
-0.0599731
-0.0606466
-0.102329
-0.0687567
-0.00984279
-0.0525254
-0.0107432
0.000597484
0.00804655
-0.0986767
-0.00547299
-0.112701
-0.106816
-0.0162421
-0.0979187
-0.0988969
0.00095937
-0.112419
-0.0186608
-0.0468884
0.00874909
0.000453528
0.00768084
-0.0901977
-0.0168222
0.0119172
-0.0128229
-0.112123
-0.0845618
0.0422538
-0.0902137
-0.0896965
-0.109718
-0.00746848
0.00338141
-0.0609467
-0.00979761
-0.0174392
-0.0180261
-0.00564888
0.000591199
-0.00721603
-0.00980302
0.00108072
-0.00973756
-0.00228785
-0.00592538
0.00902522
-0.082069
-0.00958495
-0.108763
-0.0116264
-0.00748565
-0.0717946
-0.0595788
-0.00264076
0.0011111
-0.0290882
-0.0386992
-0.113372
-0.0378724
-0.00573702
-0.0102478
0.0025309
-0.00637106
-0.103107
-0.0609011
0.00216816
0.0021176
-0.119737
-0.0180548
-0.00608353
-0.0637932
-0.0288631
-0.0270062
-0.110517
-0.06156
-0.0167505
-0.00139435
-0.120157
0.000274704
-0.0125462
-0.00123418
-0.0035235
-0.060099
-0.00533758
-0.0610199
-0.00402064
-0.0121645
-0.0311481
-0.0967019
-0.0700023
-0.0173499
-0.0748173
-0.0800525
-0.0267647
-0.0212925
-0.0203329
-0.0217247
-0.0181842
-0.0996747
-0.0305032
0.00352378
-0.0496259
-0.0198235
-0.059499
0.0184986
-0.00668475
-0.0263777
0.000942071
-0.00703443
-0.0237947
-0.0161848
0.000924149
-0.00930135
-0.109433
-0.0936661
-0.00411446
-0.00567347
-0.0780172
-0.019226
0.00142334
0.031777
-0.103971
-0.0168767
-0.107694
0.0341266
-0.0505684
-0.104504
-0.0810598
-0.0459423
0.00429799
-0.074905
0.00177511
-0.0118811
-0.0811405
-0.0841011
-0.00881879
-0.0264516
-0.00473376
0.00651477
-0.00641711
-0.0869911
0.000399932
-0.0971696
-0.0395182
0.000544373
0.00318983
0.00201568
-0.00745395
-0.00978613
0.00271462
-0.0379286
-0.00676159
-0.007893
-0.00022602
-0.0657106
-0.0206487
-0.0224517
-0.0124617
0.00179564
0.00259193
-0.053166
0.00523921
-0.111295
-0.0166895
-0.0188777
0.00320094
0.0485218
-0.012119
-0.0117943
0.0112518
-0.0367474
0.0120778
-0.0231283
0.00320639
-0.213018
-0.0364762
-0.0107522
0.00396165
-0.0978647
0.00140096
-0.0177101
0.00296956
-0.0398901
0.00359123
-0.00305502
-0.00408005
-0.0194003
0.0104264
-0.0273626
-0.124577
-0.018244
-0.0115286
-0.00361149
-0.0951422
0.00351566
-0.0907097
-0.0684331
-0.0197819
-0.00894002
0.00184329
-0.0875737
-0.030679
-0.00931688
-0.0980882
-0.0194409
0.00685789
-0.0173824
0.00787496
-0.0134439
-0.0678926
-0.124348
-0.00447378
-0.00349249
-0.00660273
-0.135858
0.0176115
-0.0151104
-0.0315155
-0.121626
0.0003531
-0.028105
-0.0419635
-0.0321765
0.00189216
0.0477835
0.00248211
0.00248315
-0.00299441
0.00356019
-0.0685947
-0.0628262
0.00110197
0.00721438
-0.074404
-0.00680724
-0.00650795
-0.0188384
0.00397251
-0.00991853
-0.0265197
0.00289021
-0.00638145
-0.00112792
-0.0581874
-0.0810653
-0.0911337
-0.00301029
-0.0583462
-0.121952
-0.0998369
0.00169967
-0.0046001
-0.0429525
-0.0613795
-0.00621877
0.000574138
-0.00284294
0.00309714
0.00503475
-0.0300145
-0.00595869
-0.0580187
-0.0107858