/*--------------------------------*- C++ -*----------------------------------*\
| =========                 |                                                 |
| \\      /  F ield         | OpenFOAM: The Open Source CFD Toolbox           |
|  \\    /   O peration     | Version:  v2012                                 |
|   \\  /    A nd           | Website:  www.openfoam.com                      |
|    \\/     M anipulation  |                                                 |
\*---------------------------------------------------------------------------*/
FoamFile
{
    version     2.0;
    format      ascii;
    class       surfaceScalarField;
    location    "100";
    object      phi_0;
}
// * * * * * * * * * * * * * * * * * * * * * * * * * * * * * * * * * * * * * //

dimensions      [0 3 -1 0 0 0 0];
oriented        oriented;


internalField   nonuniform List<scalar> 
20642
(
-0.0210932
0.0260671
-0.0049739
0.295474
-0.0740523
-0.221422
-0.114798
0.0975032
0.0172952
-0.3518
0.140688
0.211112
0.372534
0.0349271
-0.407461
-0.0293214
0.324796
-0.224421
0.0227796
0.201642
-0.0107871
0.209074
-0.198287
-0.246339
0.223175
0.0231645
0.00652643
0.00571995
-0.230825
0.220038
0.228627
0.134345
-0.362971
0.597108
-0.597108
0.193634
0.0462552
-0.239889
0.302316
0.0343095
-0.336626
-0.0254456
0.00435242
0.584544
-0.589678
0.0051334
0.0591837
-0.260501
0.201317
-0.0361618
-0.079414
0.115576
-0.00494278
0.0294741
-0.0245314
-0.0860272
-0.188481
0.274508
0.633584
-0.374892
-0.258692
0.201015
-0.146185
-0.0548298
0.345163
0.288422
-0.0527443
-0.185835
0.238579
0.0712885
-0.263479
0.19219
-0.0215315
-0.162903
0.184435
0.00652643
0.101363
-0.281615
0.180252
-0.685095
0.397181
0.287914
0.00269308
0.00383335
0.0218283
-0.107411
0.0855823
0.0446305
0.253746
-0.298376
-0.000646571
0.0300139
-0.0293673
-0.661992
0.481685
0.180307
0.333072
-0.123999
0.265398
-0.362019
0.0966209
0.617782
-0.100246
-0.517536
-0.0230959
-0.201325
0.232188
-0.00393069
-0.228258
-0.771174
0.603506
0.167668
0.411029
0.135061
-0.54609
-0.136528
0.251873
-0.115345
0.128273
-0.113507
-0.0147664
0.0130951
0.115178
0.161183
-0.0754678
-0.0857156
0.222887
-0.308914
0.0179462
-0.0519389
0.0339927
0.257034
-0.262673
0.00563898
-0.409065
-0.252927
0.347837
-0.119211
-0.148265
0.0495459
0.0987195
0.0149297
-0.000518712
-0.014411
-0.310499
-0.0915577
0.402057
0.0140403
0.360749
-0.374789
-0.0832437
-0.0650218
0.00269308
0.167376
0.033639
-0.150536
0.561566
0.0546049
0.106578
-0.0538431
0.0695796
-0.0157365
0.56111
-0.515522
-0.0455876
0.473731
-0.617089
0.143359
-0.263134
0.210389
-0.0749923
0.0674001
0.00759226
0.117187
0.465704
-0.582891
-0.278036
0.0891523
0.188883
0.154978
0.178094
-0.171641
-0.00231032
0.0196925
-0.0173822
-0.114845
0.0725149
0.04233
0.0202409
-0.0208875
-0.257608
-0.143103
0.400712
0.389381
-0.539917
0.0809807
-0.269462
-0.0548031
-0.180668
0.235471
0.420209
-0.104454
-0.315755
-0.159657
0.549038
-0.260285
0.205482
0.23538
-0.19075
-0.377256
0.441286
-0.0640301
-0.605148
0.57751
0.0276381
-0.420529
0.162921
0.018252
0.0667155
-0.0849675
-0.23059
-0.300472
0.531063
-0.0357751
-0.192758
0.228533
-0.0962587
0.118087
-0.637986
0.604024
0.0339625
-0.028466
0.260654
0.48254
0.102004
-0.580629
0.406181
0.174448
0.116029
0.290834
-0.0337997
-0.615961
0.205894
0.410067
-0.41179
0.285155
0.126635
-0.176673
-0.00201996
-0.216622
0.218642
0.588306
-0.588316
1.0242e-05
-0.137707
-0.50028
-0.177683
-0.097947
0.27563
0.528442
-0.533455
0.00501367
0.544394
-0.0159528
0.00194746
-0.379203
0.51849
-0.591902
0.073412
-0.00761059
0.42782
-0.0789376
0.0772225
0.00171516
0.0409876
-0.0552251
0.0142375
0.425894
0.135216
0.540411
-0.40535
0.133445
-0.154977
0.532397
0.0724789
-0.00437244
0.0343864
-0.113885
-0.167731
-0.0606555
-0.0143368
0.386942
-0.179933
-0.207009
0.0983474
-0.134509
0.419806
0.161539
-0.581345
0.114909
-0.0926666
-0.0222422
-0.467572
0.277592
0.18998
-0.0947078
-0.51044
0.166089
-0.57658
0.410492
0.259745
-0.170593
-0.128929
0.139507
-0.0105776
-0.0177922
-0.00138353
0.0191758
0.052404
-0.034152
0.0767408
-0.269879
0.193138
0.260879
-0.179898
-0.42348
0.553482
-0.130001
-0.100081
-0.0288485
-0.0581693
0.158629
-0.100459
0.175135
-0.0416533
-0.133482
-0.00852182
-0.0333901
0.0419119
0.170148
0.216794
-0.0719087
0.126453
-0.0545446
-0.0296942
0.16314
0.0435739
-0.0673017
0.0237279
0.0176885
-0.0169913
-0.000697158
0.0574395
-0.249299
0.191859
0.617782
0.33491
-0.0365483
-0.298362
-0.559108
0.399451
-0.0647752
-0.0141625
-0.540955
0.255985
0.28497
-0.152309
-0.232825
0.385134
-0.387201
0.582787
-0.195586
-0.0616318
-0.0532131
-0.225568
0.0487119
-0.0395854
-0.00912648
-0.458646
0.148147
-0.197644
-0.0306279
0.228272
0.570783
-0.698524
0.127741
0.247535
-0.399844
-0.178125
0.176105
-0.136022
-0.333404
0.469426
0.541394
-0.022904
0.0297028
-0.0379813
0.00827852
-0.614304
0.606964
0.00734023
0.569341
-0.149535
-0.175568
-0.329161
0.504729
0.0845795
-0.0696171
-0.0149624
0.0633166
-0.307379
0.244062
0.327787
0.0707158
-0.0354277
-0.0352881
0.0266405
-0.228627
0.201986
0.0149297
-0.0200433
-0.0356772
0.0557205
-0.376958
-0.226666
0.603624
0.244115
-0.186675
0.0607035
0.308953
-0.369657
0.0506962
-0.0443136
-0.00638263
-0.0707281
-0.0673314
-0.0062555
0.0735869
0.1849
-0.0971092
-0.0877911
0.601184
-0.106547
-0.494637
-0.144311
-0.20749
-0.146769
0.0235433
0.123226
-0.19501
0.136841
-0.229483
0.2928
-0.165864
-0.0846183
0.250482
0.405866
0.249343
0.0984942
0.143922
-0.0748146
-0.0691069
0.105843
0.00906607
0.172913
0.00222141
-0.104238
0.353581
0.0543337
0.0895878
-0.390919
-0.294176
0.200755
-0.23653
0.137082
0.0478183
0.127777
-0.114682
0.0197273
-0.115707
0.0959799
-0.0247139
0.00155677
0.0231572
-0.265025
-0.350936
0.0207244
-0.00241772
-0.0183067
-0.272317
0.108443
0.163874
0.0377805
-0.0463023
0.507065
-0.0253802
0.356374
-0.492396
0.283124
-0.236421
-0.0467027
0.0174348
-0.0193949
0.00196014
0.0184419
-0.000753488
-0.0848186
-0.232849
0.317668
0.135307
0.00889623
-0.144203
-0.260992
0.298626
-0.0376343
-0.22611
-0.393019
-0.097223
0.307899
0.133387
-0.427164
-0.117739
0.544903
-0.0480251
0.333464
-0.285439
0.26746
-0.315485
-0.00322697
0.0494867
-0.121395
-0.17801
-0.0614262
0.0617421
-0.000315958
0.633231
-0.250939
-0.382291
0.724724
-0.412927
-0.311796
0.344104
0.38062
-0.0552911
-0.00692067
-0.107023
0.113944
-0.13849
0.049609
0.0888807
0.36915
0.180749
-0.549899
0.559664
-0.0859334
-0.147768
0.118073
0.0202057
0.125967
0.322502
-0.448469
-0.373828
0.499795
-0.314159
-0.457015
0.729067
-0.384963
0.311984
0.417083
-0.00944072
0.0296816
-0.0398209
0.0538444
-0.0140236
0.0867676
0.298721
-0.385488
0.480873
0.0870932
-0.567966
-0.110083
0.146854
-0.0367707
-0.0247098
0.00213637
0.0225734
0.0127971
-0.513506
0.500709
0.526733
-0.157583
0.17827
-0.0429629
0.0746
-0.0618787
-0.0127213
-0.0817353
-0.0548277
-0.00659851
-0.14563
0.127049
0.0185814
-0.342
-0.198955
-0.0643186
0.0286414
-0.159022
0.0489388
-0.250752
0.136867
0.00420044
0.117941
-0.122141
0.231561
-0.316379
-0.0430479
-0.469664
0.219925
0.24974
0.0586416
0.0948428
-0.153484
-0.0446092
-0.130826
0.175436
-0.0150868
-0.339151
0.354238
0.603506
-0.186393
-0.333046
-0.109904
0.44295
0.3767
-0.559632
0.182932
-0.00302863
0.0218253
-0.0187967
0.066502
-0.200693
0.134191
0.171012
-0.570144
0.399131
-0.666463
0.292635
-0.463725
0.130321
-0.28092
-0.385544
-0.192073
0.0621737
0.534934
-0.0212707
-0.161059
0.18233
0.585626
-0.414614
0.00178337
0.0162963
0.0505579
-0.0095703
0.0798057
-0.403029
0.323224
0.31319
0.117086
-0.430276
-0.146015
0.113138
0.0328771
-0.740561
0.30578
0.434781
0.29366
-0.111936
-0.181724
0.0207271
-0.0237558
-0.344483
-0.396078
0.0183653
-0.0206756
0.574119
-0.197419
-0.007068
0.0916475
0.603935
-0.00275077
-0.306845
0.388539
-0.0816943
0.282096
-0.297183
-0.330609
0.518919
-0.18831
0.114709
-0.0136672
-0.101042
0.54577
-0.585669
0.0398995
0.223544
-0.196904
-0.277074
0.0921518
0.184922
-0.545397
0.158195
-0.223008
0.179994
0.0430148
0.0167552
-0.438626
0.451423
0.157107
-0.0165925
-0.140515
-0.340712
0.459327
-0.118615
-0.355159
0.156587
0.198573
0.485519
-0.112985
-0.0754766
-0.184809
-0.596366
0.21104
0.385327
0.0490453
0.496724
0.148441
-0.00335957
-0.145082
-0.528527
0.20236
0.326168
-0.131495
0.190137
-0.248045
0.172568
-0.362129
-0.169458
0.531587
0.0400101
-0.0103073
0.0210228
-0.00358802
-0.424742
0.554785
-0.130043
-0.650957
0.189101
0.461856
-0.185011
-0.287669
0.37839
-0.0907203
0.0983537
0.0158593
-0.114213
0.0187236
-0.0497808
0.0310572
-0.0696497
0.0023183
0.514022
-0.599935
0.0859127
-0.196162
0.154509
-0.116401
0.429591
-0.0162455
0.0829611
0.105354
-0.393023
-0.071991
-0.0428074
-0.205105
-0.392003
-0.0491805
0.351497
0.0153667
0.514794
-0.162695
-0.352099
-0.247935
0.173883
0.0124121
0.115365
-0.48882
0.57017
-0.0813495
0.013514
0.0371822
-0.35929
-0.250618
0.609908
0.13269
0.0289586
-0.648217
0.449698
0.198519
0.0142663
-0.0192091
-0.395366
0.557323
-0.161957
-0.00416518
0.155073
-0.150908
-0.0202462
-0.240746
0.664257
-0.150234
0.188075
-0.676895
0.129283
-0.113662
-0.0156218
-0.0631097
-0.0104359
0.0735456
-0.487552
0.19513
0.292423
0.185346
0.329448
-0.0348046
0.0304322
-0.0557368
0.0738508
-0.018114
0.121829
-0.0761082
-0.0457213
-0.053555
0.247189
-0.703031
0.358548
0.10054
0.296993
-0.397533
0.0727679
-0.0614254
-0.0113426
-0.0894378
-0.106724
-0.328021
-0.375011
0.144807
-0.189068
-0.189698
0.378766
-0.0211242
0.226035
-0.204911
-0.135661
0.028221
-0.131356
0.103135
-0.00440492
0.158058
-0.153653
0.0666152
0.227045
-0.147235
0.156676
-0.00944144
0.027189
0.0016685
-0.0288575
0.103739
-0.52722
-0.275574
-0.211978
0.303716
-0.268789
0.121423
-0.0990793
-0.0223433
0.614984
-0.0558597
-0.559124
0.00135311
-0.144805
-0.00242983
-0.328041
-0.0703103
0.293302
-0.279262
0.181158
-0.0424693
-0.138689
-0.460926
-0.190032
-0.26607
0.294163
-0.0280931
0.539106
-0.401486
-0.137619
-0.0841559
-0.0914102
0.26378
-0.284026
0.364675
-0.28487
-0.102042
0.0817423
0.0202993
-0.431551
0.628467
-0.196916
0.0347264
0.0359894
-0.0872961
0.128162
0.410944
0.024764
-0.487597
0.217229
0.270369
0.354502
0.21648
-0.570982
0.134087
-0.55413
0.420043
0.0309258
-0.00145169
-0.113521
0.468023
-0.00355164
0.228384
-0.224832
-0.0624706
-0.0852969
0.257416
-0.257679
0.00026339
0.101513
-0.3428
0.241286
-0.0990843
0.0452955
0.0537888
0.0132243
0.0783344
0.23601
0.0544441
-0.290455
0.0188549
0.0958544
-0.304368
-0.0884215
0.392789
0.215869
0.041547
-0.00812076
0.105624
-0.496997
-0.197833
0.0222705
0.175562
-0.092788
-0.155257
-0.117992
-0.445828
0.563821
0.122579
0.334988
-0.457566
0.222095
-0.588053
0.365958
-0.0332492
-0.195378
0.452572
-0.125255
-0.327317
-0.57189
0.433512
0.138378
0.362197
-0.480292
0.118095
-0.135041
-0.0295204
0.164562
-0.283665
0.0933228
0.190342
-0.756724
0.325007
0.431717
-0.6742
0.297242
0.109587
-0.0112333
0.0114121
0.169746
-0.492296
0.161687
-0.273733
0.270181
0.0759375
-0.0839133
0.00797578
-0.19861
0.252821
-0.0542117
-0.43417
0.551357
0.0472425
-0.126656
0.0661444
-0.0823899
0.266692
-0.514127
0.247435
0.333108
-0.70252
0.369412
-0.0737592
-0.207037
0.280797
-0.344477
0.467056
-0.423615
-0.252384
-0.359916
-0.342605
0.513839
-0.247147
-0.0594118
0.0274917
0.0319202
0.0883551
-0.392723
-0.0322464
0.209428
-0.177182
-0.003039
0.0193353
-0.0192605
0.176368
-0.548995
0.121831
0.396656
-0.149121
-0.0347177
-0.0643666
0.211804
0.0713191
-0.0192782
0.00148599
-0.706759
0.267207
0.439552
0.528199
-0.207256
-0.320943
-0.597437
0.165887
0.660199
-0.348215
0.325683
-0.0602851
-0.486817
0.197312
0.289505
-0.0236263
0.0995639
-0.434643
0.55472
-0.120076
0.00982485
0.188692
0.339506
0.00315787
-0.136316
0.133158
-0.405191
0.578866
-0.173675
-0.0964318
0.404331
-0.119967
-0.0256635
0.0702889
0.0515405
0.168822
-0.35789
-0.177734
0.158513
0.0192207
0.34726
0.209266
-0.556525
-0.629828
0.199799
0.43003
0.479143
-0.116946
-0.295506
-0.192091
0.427109
-0.553732
0.126623
0.438705
-0.619269
0.180564
0.00662
-0.0600986
0.571489
-0.144379
-0.142283
-0.080726
-0.0199347
-0.0867897
0.106724
0.361922
0.20935
-0.571272
0.14954
0.0273469
-0.176887
0.124684
0.00307052
0.0675501
-0.012292
-0.0552581
-0.215126
0.19069
0.0244356
0.0214856
-0.314282
-0.19279
0.507072
-0.54357
0.229288
-0.269588
-0.134231
0.152179
-0.55737
0.333074
0.0249562
0.0791724
-0.104129
-0.415019
-0.165611
0.301118
-0.392676
-0.216661
0.208946
-0.175808
-0.0331373
-0.0857954
0.256143
-0.170348
-0.0845007
-0.0223148
0.106815
0.13269
-0.0204777
-0.112213
0.0902294
0.364829
-0.455058
0.430733
-0.313647
-0.0656569
-0.194844
-0.0135413
-0.170421
0.183962
0.109961
0.342611
-0.151896
0.198152
0.0794017
-0.159895
0.0804929
-0.0947237
-0.18235
0.0364587
-0.0720266
0.0355679
-0.481208
0.141358
-0.154899
0.125439
-0.101895
0.138486
0.329272
-0.467758
-0.0340741
0.0313009
0.00277319
-0.272701
-0.357127
0.395152
0.265046
0.0293709
-0.164412
-0.30675
-0.400009
0.50435
0.128881
0.152787
-0.00434522
0.0077897
0.0271406
-0.0490073
-0.0968183
0.145826
0.305509
-0.481078
0.280477
-0.0818695
-0.198608
0.119726
0.375352
-0.495078
0.119205
-0.0895985
-0.0296061
-0.102516
0.102554
-3.78506e-05
0.257171
-0.403263
0.146092
-0.0978971
0.153475
0.324381
-0.477856
-0.00286627
0.152203
-0.149337
0.410515
-0.415345
0.00482957
-0.545341
0.40893
0.136411
0.0786925
0.536292
0.466883
-0.110509
0.372388
-0.49038
0.465211
-0.436673
-0.0285379
-0.200424
0.17038
0.030044
0.594256
0.0179041
0.114786
-0.344839
0.483326
0.390877
0.031328
-0.422205
0.162595
-0.255383
0.00113141
0.03562
-0.0367514
-0.504025
-0.019351
0.523375
0.266814
-0.19456
-0.0722535
-0.168754
-0.390878
0.155054
-0.151896
0.0496544
-0.179709
0.130055
-0.17264
-0.0886583
0.261298
-0.141718
-0.210932
-0.166951
-0.168407
0.335358
0.194088
-0.0088838
0.0466643
-0.0271412
-0.0322706
0.0186683
-0.0217073
-0.435719
0.565427
-0.129708
-0.361159
0.480623
-0.119464
-0.356234
0.446464
0.415564
-0.134593
-0.280971
0.0755304
-0.0202273
-0.0553031
0.64689
-0.34111
-0.31587
0.342271
-0.0264009
-0.0661008
-0.206217
0.00427788
-0.0541617
0.0498838
-0.209883
0.0860094
0.0122017
0.00185768
-0.0140594
0.426397
0.145092
0.14907
-0.0856269
-0.0634431
0.521957
0.0663488
0.145254
-0.584345
0.439091
-0.0302954
0.0345733
-0.740376
0.433625
-0.0620871
-0.0258809
0.087968
0.620183
-0.565197
-0.0549857
0.494539
-0.132616
0.117984
0.028146
-0.112647
0.00197825
0.463233
0.425742
-0.511521
0.0857788
0.0122004
0.0987899
-0.11099
0.145124
0.00441535
0.471702
-0.369769
0.00843469
-0.0700665
-0.0471614
0.0324345
0.0147269
-0.00236322
0.0699133
-0.520012
0.015987
0.0243467
-0.0162777
-0.00806902
0.589657
-0.482633
-0.107024
-0.0283611
-0.0389406
-0.491027
0.265459
0.544236
-0.398981
0.607732
-0.185815
-0.421916
0.314859
0.229536
-0.0895857
0.168987
-0.244779
0.160161
-0.415368
-0.209773
-0.378543
-0.75793
0.29003
0.4679
0.0822129
-0.0737782
-0.423217
0.431862
-0.00864485
0.000681034
0.114537
-0.115218
-0.104896
0.406015
0.521486
-0.095744
-0.491316
-0.122987
0.0301609
-0.105629
-0.0801744
-0.0150129
0.0951873
-0.0130144
0.0252161
0.133349
-0.129149
-0.160019
-0.0404049
-0.00892105
0.0970692
-0.0881481
-0.00441777
-0.020292
0.542672
-0.408585
-0.0953696
0.000850049
0.0945196
-0.446206
-0.311724
-0.0945937
-0.0183695
0.112963
0.125222
0.290343
-0.0282783
-0.0737633
-0.129715
0.502103
-0.182749
-0.253924
-0.364396
0.131572
0.0648607
-0.165951
0.181121
-0.0151693
-0.0752817
0.0580441
0.0172375
-0.624475
0.0884088
0.536067
0.155057
-0.176328
0.107335
0.338327
-0.445662
0.484198
-0.16934
-0.0028343
0.0300233
-0.261497
0.228646
0.0328505
-0.0587314
-0.359118
0.41785
-0.0968363
0.125057
0.164604
0.565595
-0.426476
-0.139119
-0.0144977
0.585281
0.0302102
-0.0330445
-0.0769127
-0.346304
0.126281
0.377756
0.269134
-0.41216
0.353429
0.0940823
0.0273403
-0.389216
-0.309308
0.131803
-0.0298101
-0.101993
-0.579707
0.549942
0.0297648
-0.596394
0.452232
0.144162
0.0412186
-0.0955777
0.405317
0.0115707
-0.000591161
-0.0109795
0.0167026
-0.0787897
-0.240744
0.281273
-0.040529
0.100359
0.0250799
0.549065
-0.122668
0.299082
-0.264773
-0.0291748
0.0303062
0.0362662
0.0412845
-0.0775507
-0.280827
0.207068
-0.165034
-0.196984
-0.39128
0.208531
-0.209639
-0.370068
0.566447
-0.314903
-0.251544
0.52435
-0.438437
0.0359498
-0.155176
0.119226
0.18841
0.0318287
-0.220239
-0.0266748
0.0631335
0.0227198
-0.188671
-0.26612
0.221877
0.0442426
-0.105858
0.00334217
-0.266908
-0.261619
0.00983929
0.156899
-0.166738
-0.0259896
-0.0897176
0.0205017
-0.390472
0.539911
-0.328508
-0.211403
-0.0789269
0.603277
-0.222539
-0.373855
-0.43856
0.343852
0.50203
0.104933
0.468174
-0.348448
0.406302
-0.593151
0.186849
0.0109122
0.0134345
0.178104
-0.0415741
-0.13653
-0.63233
0.455432
0.176898
0.122759
-0.110347
-0.228772
-0.395704
0.0469256
-0.0282021
0.172476
0.401644
0.143074
0.410408
-0.0239629
0.0317526
-0.174377
0.065125
0.109252
0.318333
-0.501256
-0.212024
-0.121961
0.333985
-0.609293
0.183054
0.426239
-0.55487
0.417084
0.137786
0.17978
0.0926514
-0.272431
0.174503
-0.0084857
-0.166017
-0.372897
0.503167
-0.13027
-0.00162934
0.0160705
-0.0144412
-0.0846648
0.219403
-0.134738
-0.34168
0.412205
-0.0705248
0.519438
-0.201105
0.225452
0.314459
-0.0308512
-0.0163101
0.0856892
0.194788
-0.652202
0.2684
0.383802
-0.304825
-0.00429645
0.0250236
-0.111478
0.233568
-0.125125
-0.0141108
-0.00516737
-0.360933
-0.00952833
0.370461
-0.561662
0.166296
0.130813
-0.555555
0.243498
0.0821853
0.0107411
-0.559371
0.173364
0.386007
0.0200613
-0.106258
0.286038
0.194119
0.0726941
0.0206138
-0.435628
0.319227
-0.103671
-0.0276851
0.152111
0.0259934
0.395419
-0.110263
0.275386
-0.0400058
-0.365868
-0.286334
0.204487
-0.0299847
0.320829
0.0722209
-0.336137
0.122598
0.213539
0.122214
0.357112
-0.479326
0.0147534
0.00123932
-0.0159927
0.500428
0.0752512
-0.575679
-0.348358
-0.0125748
-0.377813
0.212779
0.0536817
0.241159
-0.294841
0.052235
0.165594
-0.217829
-0.0407511
0.0770172
0.494588
0.0829214
0.00933758
-0.122354
0.113016
-0.0934006
0.0132263
0.221499
0.303757
-0.525256
-0.136485
-0.291702
0.428187
-0.17955
0.514623
-0.108321
0.0999755
0.267912
-0.367888
-0.406458
0.201476
0.204982
0.396934
-0.104177
-0.292757
0.144222
-0.076774
0.106935
0.0281317
-0.400171
0.558463
-0.158292
-0.0122262
0.0813592
-0.069133
0.0655111
0.157663
0.205705
0.00324093
-0.122826
0.391176
-0.290636
0.0731401
0.0759299
-0.011116
-0.205506
0.398663
0.130939
-0.529602
-0.123223
-0.0511541
-0.130053
0.161843
-0.0317896
0.157927
-0.00581649
0.552417
-0.394371
-0.158046
0.412211
-0.529951
0.345737
0.22071
0.000297566
-0.0976658
0.351412
-0.602354
0.381794
0.22056
0.164045
-0.0313548
-0.528107
0.15521
-0.564954
0.419725
0.145229
0.0116332
-0.0948769
0.212429
-0.281292
0.395435
-0.114143
0.0527597
-0.251369
0.212221
-0.233345
0.0676713
-0.29345
-0.113008
-0.306688
0.202235
0.0219219
-0.103233
0.0813112
0.40744
0.136796
-0.597602
0.16953
0.428072
-0.375269
-0.301626
0.525275
-0.530905
0.00562998
0.241609
-0.343774
0.102164
-0.305754
0.197008
0.108746
0.0714686
-0.244109
0.390711
0.161706
0.609929
-0.171628
-0.438301
-0.355214
-0.129065
0.484279
-0.37559
-0.115437
-0.14943
-0.160981
-0.0541442
-0.38101
0.128852
-0.0109114
-0.356025
-0.0613029
0.0916593
-0.0303564
0.100659
-0.381951
-0.476876
0.101607
-0.00971266
-0.0400681
0.282857
-0.0956416
-0.187216
0.0194076
0.0961943
0.168971
-0.343721
-0.0318866
0.375608
0.122821
0.315762
-0.438583
0.549432
-0.416349
-0.133083
-0.418223
0.281739
0.019075
-0.0390606
0.0199856
-0.176825
0.200385
-0.0235596
0.0403899
-0.281133
0.187974
0.064847
-0.297693
0.397669
0.0210412
0.136886
0.670011
-0.189138
-0.412107
0.501939
-0.0898322
-0.450298
0.0234038
0.426894
0.484337
-0.397244
-0.036827
0.263861
-0.097967
-0.165894
0.00640506
-0.350126
0.117284
-0.0189368
-0.0374303
-0.34257
0.38
0.292741
-0.515991
0.223251
0.323494
-0.517086
0.193593
0.15008
-0.154485
0.148894
-0.300023
0.410669
-0.110647
0.075035
0.228023
-0.303058
-0.361061
0.499081
-0.13802
0.0192396
0.49176
-0.199019
-0.0769757
-0.181222
0.258197
0.281172
0.114247
0.0230714
-0.00205455
-0.0210169
-0.0201802
-0.383131
0.228782
0.154349
0.0108892
-0.147039
-0.0306942
-0.00237416
0.0513575
0.327032
-0.413895
0.564728
-0.150833
0.546124
-0.446108
-0.100017
-0.101788
0.379196
-0.277408
-0.0724537
-0.243596
0.31605
0.458984
0.0276619
-0.505756
0.360158
0.145598
-0.168714
-0.11495
0.102034
0.0170339
-0.0878284
0.0707944
0.226689
-0.324355
-0.0309612
-0.152
0.182961
-0.167048
-0.00705721
0.174105
-0.552998
0.413786
0.139212
-0.192516
0.188585
0.260724
0.0221336
0.554511
-0.177992
-0.376519
-0.00684536
-0.178143
0.184988
0.179041
0.449426
-0.00749057
0.042443
0.144642
-0.108692
-0.602017
0.156767
0.44525
0.150647
0.404138
0.233622
0.231099
-0.530953
0.368258
-0.469177
0.113963
-0.0373002
-0.399367
0.559527
-0.16016
-0.0595105
0.363801
-0.493516
-0.299412
0.563546
-0.264134
-0.415759
0.134394
0.281365
0.104645
0.332698
-0.437343
-0.0762893
-0.380765
-0.134757
0.156763
-0.55613
0.306286
-0.0704135
0.301022
0.0200526
-0.321074
0.0071422
-0.558259
0.41344
0.144819
0.216119
0.218616
-0.662545
0.443929
-0.351893
-0.117284
-0.0211472
0.0228157
0.483897
-0.160403
-0.148868
0.289556
-0.00633087
0.12909
-0.0261211
0.654802
-0.436186
-0.374761
0.343005
0.0317558
0.108078
-0.0861557
0.559803
-0.408924
-0.150879
0.0899004
0.302857
-0.392757
0.119562
0.0831783
-0.162827
-0.305622
0.468449
-0.090171
0.102371
0.289619
-0.349349
0.0597303
-0.0251044
-0.00896965
0.29204
0.0964985
0.0893131
0.00158791
-0.0909011
-0.349795
-0.459855
-0.115858
0.575713
-0.589071
0.47555
-0.0979671
0.536672
0.655195
-0.154767
0.0427691
-0.0516529
-0.0886902
0.328741
-0.240051
-0.61061
0.23669
0.37392
0.271165
-0.34014
0.0689747
0.158316
0.124588
0.421537
-0.105522
0.306072
-0.0700617
0.0148749
-0.20911
0.176863
-0.117596
-0.00540738
0.123003
0.0969993
0.232637
-0.0385171
-0.00587912
0.0281418
-0.0222627
-0.380601
0.117179
0.263422
-0.114584
-0.24817
0.413627
-0.165457
-0.0202918
0.0033851
0.0169067
-0.492202
0.202139
0.115533
-0.317673
-0.21949
-0.443054
-0.202296
-0.353377
0.555673
-0.629445
0.409955
0.601709
-0.177579
-0.42413
0.565903
-0.440302
-0.125601
0.127065
0.296146
-0.423211
-0.17266
-0.0311791
0.203839
0.54043
-0.141767
0.244969
-0.333659
-0.0155237
-0.113258
0.128782
-0.0506947
0.0722547
-0.02156
-0.0796398
0.018337
0.125161
-0.131492
-0.221999
-0.443352
-0.145718
0.476758
-0.337684
-0.139074
-0.022562
-0.0806711
0.43135
-0.0208351
0.0115707
0.142993
-0.41795
0.274957
0.145632
-0.00803815
0.511555
-0.503517
-0.303211
0.415652
-0.112442
-0.283638
0.426631
-0.421272
-0.176165
-0.371873
-0.13428
0.506152
-0.149515
0.159355
-0.242744
-0.367866
0.0275321
-0.024932
-0.00260013
0.376518
-0.373418
0.525838
-0.152421
-0.0268194
0.0458944
-0.421272
0.173102
-0.279232
-0.308822
-0.100366
0.52626
-0.00341075
0.033621
-0.0599076
0.201266
-0.203679
0.580756
-0.377076
-0.135927
-0.467409
-0.151798
0.619207
0.537251
-0.0176592
0.0789817
-0.0613225
0.119487
-0.0355148
-0.228356
0.26387
0.186112
-0.334979
-0.369993
0.376398
-0.201735
0.589249
-0.446648
-0.1426
-0.0640134
-0.172407
0.353428
-0.390858
0.0643611
-0.231312
0.0238957
-0.0283135
0.306773
-0.434821
0.128048
-0.432291
0.332045
0.375155
-0.285255
-0.511302
0.354569
0.156732
-0.141521
0.00736984
-0.109543
0.102173
0.027359
0.13835
0.225494
-0.0370843
-0.0271165
0.02282
0.0325916
-0.00505949
-0.0678077
0.421235
-0.101153
0.108523
-0.419364
-0.150779
0.00336049
0.0213628
-0.0247233
-0.452983
-0.123598
0.0495887
0.0366531
-0.0862418
-0.133693
0.0100999
-0.207933
-0.285794
0.306893
-0.0210995
-0.0893915
0.0664919
0.0228996
0.0123975
-0.0809586
0.0685611
-0.642421
0.226398
0.416023
0.0834119
-0.436308
-0.450404
-0.308689
-0.197067
0.168295
0.382939
-0.101768
-0.0764386
0.366057
-0.157628
0.0064707
0.151158
-0.0187521
-0.000612751
0.0193649
0.136266
0.194303
-0.0240458
0.00375375
0.523927
0.0962559
-0.176999
0.464235
-0.287236
-0.318497
0.0450608
-0.057555
0.0124943
0.218337
-0.290791
0.0199788
0.569678
-0.13767
0.16045
-0.259473
-0.139763
0.399236
-0.402266
0.269675
0.127259
0.0556728
0.182097
-0.237769
0.301128
-0.402916
-0.0341247
-0.42614
-0.216281
0.434768
0.12596
-0.560728
-0.0189477
-0.118784
0.425557
-0.0211963
0.0018582
0.0193381
-0.329398
0.117374
-0.10423
0.330919
-0.435101
0.553849
-0.118748
0.0243725
-0.412879
0.629359
0.146806
-0.294206
0.0871686
-0.193737
-0.118324
0.312061
0.21774
-0.0316283
0.44363
0.211172
0.0569417
0.469541
-0.347328
-0.486006
0.137799
0.348207
0.0168149
-0.129792
0.112977
-0.438149
-0.00767926
0.533387
-0.311888
-0.0967932
-0.0332954
0.130089
0.0832609
-0.103196
-0.0182156
-0.104138
-0.123528
0.0324699
0.0910585
-0.166152
-0.393219
0.0793037
-0.10293
0.0347958
0.0062863
-0.0410821
0.527688
0.0900945
-0.0739194
0.247531
-0.42453
-0.00869485
0.160898
0.130241
0.016613
0.434413
-0.411009
-0.0638593
0.227917
-0.164058
-0.401354
-0.182991
0.240471
-0.176623
-0.063848
-0.172797
-0.249652
-0.0931474
-0.0346252
0.0799207
-0.155527
-0.0214498
0.176977
0.0271226
-0.157176
-0.082038
0.0470579
0.0349801
0.0867148
-0.0100603
0.109027
-0.0989671
-0.219289
-0.410132
0.106921
0.357051
0.0952604
-0.452312
0.573044
-0.138276
-0.592694
0.449802
0.142892
-0.401743
0.543307
-0.141564
-0.221432
-0.0661594
0.0785569
-0.594173
0.431635
0.162538
0.0806467
0.248094
-0.148585
-0.253966
-0.117511
-0.22868
0.346191
0.164183
-0.0061251
-0.136686
0.0384896
0.0981962
-0.30066
0.111113
-0.546832
-0.2317
0.154724
0.0486369
-0.483738
-0.291377
0.262055
0.0249078
-0.0307869
-0.10418
-0.220865
0.325044
0.149018
0.313866
-0.462884
0.106957
0.0388683
-0.429878
0.326643
-0.245996
0.0408092
-0.0060134
-0.0178358
0.39109
-0.104592
-0.286498
0.176778
-0.164142
-0.0126359
0.309274
-0.0878259
-0.221448
-0.0174858
0.00337494
-0.024066
0.252712
-0.23896
0.153165
-0.0166874
0.0892023
0.539743
-0.0594258
-0.0995961
-0.0530579
-0.100787
-0.395222
0.413161
-0.270795
0.296473
-0.0256779
0.519582
-0.00574301
-0.0894149
-0.0117092
0.518345
-0.506636
0.239502
-0.357013
-0.343564
0.0599947
0.274258
-0.144751
0.161527
-0.0167759
0.586909
-0.179191
-0.407719
0.115111
-0.0766586
0.252159
0.0539128
0.0851501
0.0340545
0.211273
-0.445054
0.126751
0.318302
0.00708833
0.236742
0.122834
-0.359576
-0.0803901
0.318006
-0.237616
-0.497736
0.322302
0.175434
0.00355629
0.0197035
-0.0232598
-0.0166552
0.150005
-0.0281929
0.196049
-0.265538
0.0694892
0.0197408
-0.0556721
0.148225
0.0136182
-0.165663
-0.229858
-0.153273
0.177191
-0.0221335
0.387836
-0.573652
0.40282
-0.298175
-0.123369
-0.00591957
0.129289
-0.229824
-0.183156
-0.181289
-0.08219
-0.195421
0.251094
-0.311809
0.118072
-0.118861
0.135676
0.00367057
0.0856426
-0.470899
0.141739
-0.126359
0.137438
-0.0110785
-0.0836414
-0.286351
0.299073
0.111596
-0.352592
0.488634
-0.136041
0.183147
0.39964
0.0814662
-0.0673085
-0.0141578
0.0943739
-0.103295
0.579698
-0.434074
-0.145624
0.154927
-0.614406
0.179563
0.434843
0.0374586
-0.380028
0.016164
0.35625
-0.432688
-0.160173
-0.337774
0.497946
0.0242093
0.495373
-0.277679
0.0344977
-0.497098
0.462601
0.320636
-0.0771381
0.0676714
0.0137948
0.11499
0.1683
-0.226817
0.0585169
0.437049
0.135995
-0.425305
-0.00387053
0.129032
-0.0168897
0.0619505
0.0568612
-0.0371203
-0.127259
-0.497964
0.547009
0.339153
-0.499326
-0.0920492
0.337018
0.0382304
-0.453858
-0.148159
-0.00286511
-0.069023
0.011166
0.126764
-0.13793
-0.0935163
0.253677
-0.593643
0.169846
0.423797
0.297964
-0.100957
-0.0147169
0.45389
-0.392187
-0.0617027
-0.215157
0.248009
-0.0328526
-0.41408
0.557578
-0.423087
-0.134491
-0.36486
0.221757
0.00483498
0.032279
-0.037114
-0.178015
0.148495
-0.136968
0.574017
-0.122166
0.140578
-0.018412
-0.404223
-0.00673086
0.119869
-0.462419
0.21148
0.400131
0.165535
-0.565666
-0.0752581
-0.375805
0.0783021
0.375588
0.267263
0.123827
-0.0974345
-0.0197722
0.117207
-0.185759
0.245842
-0.0600839
-0.0923751
-0.206001
0.486046
0.00571431
0.124166
0.430393
0.11451
-0.542384
0.244691
-0.20751
0.03485
0.176099
-0.000859666
-0.17524
0.0147684
-0.0163977
-0.216386
0.191704
-0.19855
-0.145365
0.161305
-0.0159398
-0.0106499
0.158875
0.161479
0.403948
0.164411
0.0917325
0.122409
-0.0335282
-0.0896187
0.0722325
0.0173861
0.0380355
0.0125224
-0.115951
0.360919
-0.244968
0.282052
-0.496993
0.214941
-0.0167356
-0.626478
0.288704
-0.507335
0.094456
0.194423
0.080288
-0.274711
0.0169122
-0.351012
0.12983
0.221182
-0.426679
0.077685
0.0220671
-0.0997521
0.206895
-0.15466
0.0947427
-0.353827
0.259084
-0.18355
0.414649
0.0149116
0.0557611
-0.0706727
0.0756824
-0.0904978
0.0148154
-0.0205468
-0.00349894
0.359747
-0.488812
0.10333
-0.427636
0.324306
0.0233674
0.456232
0.113108
-0.493375
-0.0207528
-0.163195
0.169717
-0.00652155
0.036406
0.375799
-0.2689
0.0858654
0.183035
-0.197831
0.155152
0.0426796
-0.315402
0.223027
0.0653901
-0.075826
0.130667
0.362426
-0.493093
-0.122654
0.38333
-0.260676
-0.13101
-0.180799
-0.224073
0.506125
-0.0147942
-0.0748245
0.112816
-0.473943
0.361127
0.557016
-0.151731
-0.00589694
0.108646
-0.125103
0.016457
-0.082948
0.0721277
0.0108203
-0.0154144
0.0921568
-0.0767424
-0.157061
-0.274145
0.431206
0.105898
0.0818972
-0.187795
-0.355688
0.528197
0.0618077
0.313347
-0.528988
0.52095
-0.191114
0.359935
0.0805877
-0.0953819
0.0346938
0.321556
0.132154
-0.168925
0.442702
-0.0856513
-0.571035
0.409122
0.161913
0.137183
-0.447228
-0.137561
0.584789
-0.161261
-0.00395806
0.0226263
0.444775
-0.592559
0.147784
0.262267
0.109862
-0.125386
-0.540697
-0.118626
-0.0883503
-0.109481
-0.0704177
0.176316
0.289067
0.115159
-0.404227
-0.512473
-0.153775
-0.369671
0.523446
0.414485
0.143093
-0.570202
0.425065
0.145137
-0.237695
-0.131674
0.490076
-0.358402
0.32488
0.216514
0.0425068
-0.509916
-0.410933
-0.110382
0.521315
-0.0962685
0.273417
-0.177149
-0.182164
0.01102
0.0507222
0.0139406
-0.158692
0.138978
-0.357575
0.527914
-0.170339
0.551547
-0.447136
-0.10441
0.145644
0.0158831
-0.550815
0.140548
0.410267
0.14361
-0.323626
-0.273976
-0.293653
-0.243927
-0.387889
0.154171
-0.36751
0.256589
0.110921
-0.0882588
0.0732459
0.441595
0.145315
0.587613
-0.142838
0.248777
-0.0604047
-0.188373
-0.627979
0.172528
0.45545
0.623817
-0.189468
-0.43435
-0.0299697
0.313188
0.102464
-0.323502
-0.00466662
-0.158528
-0.1301
-0.00273242
0.156071
-0.0592389
0.224833
0.163083
-0.167749
-0.143611
-0.407204