/*--------------------------------*- C++ -*----------------------------------*\
| =========                 |                                                 |
| \\      /  F ield         | OpenFOAM: The Open Source CFD Toolbox           |
|  \\    /   O peration     | Version:  v2012                                 |
|   \\  /    A nd           | Website:  www.openfoam.com                      |
|    \\/     M anipulation  |                                                 |
\*---------------------------------------------------------------------------*/
FoamFile
{
    version     2.0;
    format      ascii;
    class       volVectorField;
    location    "100";
    object      U_0;
}
// * * * * * * * * * * * * * * * * * * * * * * * * * * * * * * * * * * * * * //

dimensions      [0 1 -1 0 0 0 0];


internalField   nonuniform List<vector> 
13917
(
(0.500139 0.0123963 0)
(0.98897 -0.00477136 -4.5143e-21)
(1.11073 0.099178 -3.84338e-21)
(1.0338 0.0153704 5.98318e-21)
(1.00018 0.00542959 2.97207e-22)
(0.993546 -0.00665227 0)
(1.04713 0.0313357 8.73466e-21)
(0.915499 0.0398351 0)
(1.06001 0.0218403 -1.32378e-20)
(0.0611925 -0.181235 3.23152e-22)
(0.924942 0.0363538 4.50418e-22)
(1.02432 0.0128137 0)
(1.00822 0.0001342 0)
(0.83127 0.21527 -3.42151e-22)
(1.01643 0.00617763 0)
(0.476315 0.00756111 0)
(1.00294 -8.77756e-05 -7.02105e-22)
(0.945797 0.0437874 -2.35927e-21)
(1.07156 0.0994079 0)
(0.517782 -0.00828319 0)
(1.01773 0.0412631 0)
(1.01226 0.00680301 0)
(1.05226 0.0559234 3.41192e-22)
(1.01213 0.00655748 0)
(1.03077 0.0228375 0)
(1.01185 0.0436966 0)
(0.923994 -0.117935 0)
(0.035691 -0.111521 0)
(0.98631 0.0496906 4.51861e-21)
(1.01673 -0.00207922 0)
(0.0547806 -0.113722 3.73246e-20)
(1.07629 0.0646664 0)
(1.02925 0.0172872 5.49816e-21)
(0.553438 0.030491 0)
(1.01212 0.000392477 8.28593e-22)
(0.897396 0.0345867 0)
(1.0177 0.0212365 4.20851e-22)
(1.00166 8.76441e-05 2.31256e-22)
(1.04823 0.0315739 0)
(1.033 0.0397826 -1.41231e-21)
(1.0028 -8.49064e-05 0)
(1.01479 -0.000190972 1.06017e-23)
(1.0549 0.0168598 2.3351e-20)
(1.08342 0.0862463 0)
(1.08109 0.0869534 -7.66323e-21)
(0.915698 0.0902306 0)
(1.01824 0.0391301 0)
(0.554657 0.278777 2.52319e-20)
(0.789333 -0.242902 0)
(1.012 0.000377086 -1.02114e-21)
(1.02387 0.0124259 -2.58019e-21)
(0.989075 0.0880345 -1.55851e-21)
(0.367179 0.00245454 0)
(1.01728 0.0110267 0)
(1.01833 0.0120007 -1.81473e-21)
(0.994295 0.0919136 4.85254e-21)
(-0.0132867 -0.0397081 -3.187e-20)
(1.05072 0.0552748 3.2016e-22)
(1.0143 -0.000264553 1.07016e-21)
(0.907938 0.0795958 -4.75772e-21)
(0.401201 0.299904 6.19675e-21)
(1.02985 -0.00594711 0)
(1.00736 -9.54987e-05 0)
(1.03063 0.0221922 0)
(0.912994 0.116597 -7.85419e-21)
(1.03596 -0.00659289 1.03756e-22)
(0.975345 0.0493604 0)
(0.894871 0.0188971 0)
(0.936396 0.048553 3.01152e-21)
(0.440845 0.00985713 -3.43968e-20)
(1.02964 0.121759 3.06943e-20)
(0.532229 0.02608 0)
(1.03164 0.0069088 3.808e-21)
(1.01388 -0.000443848 -1.59049e-21)
(1.01935 0.0428537 0)
(1.02667 0.0242462 0)
(1.00935 0.00841955 -1.01849e-21)
(1.01348 -0.00051685 1.00854e-21)
(1.0267 0.0235946 0)
(1.02953 0.0177258 4.49226e-21)
(1.01513 0.011283 0)
(1.0027 -5.75118e-05 0)
(1.03123 0.00641606 0)
(1.00965 0.0864963 5.42844e-21)
(1.01279 0.00209177 -7.8314e-24)
(0.954979 0.133659 2.40378e-21)
(1.07513 0.0635489 0)
(1.01216 0.00110104 -2.33836e-22)
(1.03212 0.0401117 7.5307e-22)
(1.00358 -9.80341e-05 8.1435e-22)
(1.00575 -0.00018379 -3.71514e-22)
(1.05615 0.0171924 -2.84561e-20)
(0.814857 -0.280846 -3.41442e-21)
(1.01118 0.000471437 -2.81402e-22)
(1.0173 0.0138087 0)
(0.981734 0.0537241 -4.97823e-21)
(1.1441 0.120275 1.70095e-20)
(1.00246 -1.07289e-05 0)
(1.01265 0.00122244 1.19229e-21)
(1.11416 0.0551209 0)
(1.00506 -5.67045e-05 -2.97429e-22)
(1.00571 -0.000119284 0)
(1.01526 0.0115857 3.64148e-24)
(1.00464 0.000130662 4.70739e-22)
(1.00927 0.0074067 4.82563e-23)
(0.97449 0.0529249 0)
(0.667504 0.0909472 0)
(1.0322 -0.00187398 0)
(1.01535 0.000120677 5.87651e-22)
(0.825527 -0.15884 -3.97118e-21)
(1.01839 0.000263741 -9.75619e-22)
(0.570868 0.0348533 -3.93072e-20)
(0.99204 0.0529103 -2.87437e-22)
(0.487006 0.281307 -8.04757e-20)
(0.926224 0.115337 3.61076e-21)
(1.02502 0.0253248 -2.47625e-22)
(1.07033 0.096139 1.26795e-20)
(1.00593 -0.000181196 -2.85273e-22)
(1.1017 0.101713 -6.39208e-21)
(1.03021 0.00327693 -1.08792e-20)
(1.00332 -6.05962e-05 1.74291e-22)
(1.01266 -0.000622213 -4.92982e-22)
(0.969825 0.0535716 -8.62846e-21)
(1.03841 0.093899 6.99173e-21)
(0.403118 0.00602196 -2.88539e-21)
(0.972036 0.0863162 -8.47078e-21)
(1.03115 0.0212876 -6.10752e-21)
(1.01925 0.0451794 9.25008e-22)
(1.01028 0.00207798 5.56558e-22)
(1.04169 0.0959766 0)
(1.06411 0.038278 1.90074e-22)
(0.967323 -0.0493362 0)
(0.6828 0.0382251 0)
(1.0243 0.0251644 -2.00978e-21)
(1.07917 0.0706965 -1.46886e-20)
(0.822905 -0.135085 1.39591e-20)
(0.35637 0.272683 0)
(0.367716 0.00606069 1.95746e-22)
(1.00759 0.0461285 3.11848e-22)
(1.0007 5.26475e-05 -8.15994e-23)
(0.871485 0.231511 8.77598e-21)
(1.01311 -0.000597157 -4.9961e-22)
(0.991412 0.0517327 -5.15329e-21)
(1.01133 0.00499612 4.49472e-23)
(1.02932 0.00671342 0)
(1.01594 0.00385382 -8.35639e-22)
(1.03246 0.11879 -1.08841e-20)
(0.893896 0.280765 -1.26523e-20)
(0.590692 0.215269 0)
(1.01756 0.0114734 3.77903e-22)
(1.0303 0.0392689 0)
(1.00636 -0.000113377 -3.59919e-24)
(1.02895 0.0061434 0)
(1.03054 0.0029413 1.12834e-22)
(1.09606 0.104089 8.90618e-21)
(1.01179 0.00406041 -4.07589e-23)
(1.005 0.000103447 -6.62575e-22)
(0.644372 0.0344215 3.35017e-20)
(1.00412 -9.60903e-05 1.4896e-23)
(1.00537 -0.000213799 0)
(1.01215 0.00417325 0)
(0.844737 0.205373 -2.25333e-20)
(1.01145 0.0195049 2.0765e-22)
(0.85778 0.242072 -3.23038e-21)
(0.609576 0.276839 3.09523e-20)
(1.15613 0.0654455 -4.30531e-21)
(0.247676 0.00293217 0)
(0.45787 0.315985 -3.91e-20)
(1.01108 -0.000703159 0)
(1.00598 0.0492457 4.57954e-22)
(1.01208 0.00637393 -7.16286e-22)
(0.701841 0.0435608 2.82595e-20)
(1.0604 0.0208974 1.19663e-20)
(0.499872 0.269355 -2.7516e-21)
(1.01221 0.0477425 0)
(1.00534 -0.000102461 2.03958e-22)
(1.03444 0.0150549 0)
(0.976624 0.0886698 -1.32542e-21)
(1.06384 0.037081 2.89356e-20)
(1.01026 0.0198156 -5.00625e-22)
(1.05308 0.0175746 -8.02542e-21)
(1.01206 0.0062698 0)
(1.02341 0.0125277 1.43917e-21)
(0.998037 0.143955 4.92178e-21)
(1.1017 0.105427 0)
(0.974611 -0.064992 0)
(1.02299 0.0121652 0)
(0.989738 0.142272 2.66193e-21)
(1.01667 -0.00216744 -7.73301e-23)
(0.96017 0.12101 3.61045e-21)
(1.01144 0.0444755 7.8542e-22)
(1.07908 0.0844972 7.73112e-21)
(1.0159 0.12425 7.16233e-21)
(0.511788 0.0135813 5.63002e-20)
(1.01116 0.00051105 1.81731e-21)
(0.412182 0.00750699 -2.45735e-20)
(1.03384 0.030304 -3.92246e-21)
(0.720353 0.0411259 -2.89627e-20)
(1.01192 0.000438116 -3.28412e-22)
(1.01179 0.00434636 1.46555e-21)
(1.01941 0.0356901 1.35239e-22)
(0.447892 0.00991326 0)
(0.355248 0.00560686 -3.10955e-20)
(1.01609 0.0176014 0)
(0.870628 -0.163535 -4.0431e-21)
(0.994612 0.0280587 8.1207e-22)
(1.03119 0.0392704 0)
(1.01308 -0.00058798 -1.00831e-23)
(0.983234 0.0925441 -1.26245e-21)
(1.01494 0.0110529 -1.38326e-22)
(1.00859 0.00135349 3.82368e-22)
(0.987154 0.000205789 -5.77664e-21)
(0.981632 0.00142936 9.40385e-22)
(0.59247 0.240514 -2.51271e-20)
(1.07871 0.0693627 7.86757e-21)
(1.01116 0.0463494 -9.02173e-22)
(0.797859 0.127497 3.21253e-20)
(1.00683 0.000468051 0)
(1.00953 -0.000967916 -7.98377e-22)
(1.00958 -0.000960209 0)
(0.445354 0.321644 4.10614e-20)
(1.00577 0.133088 1.00022e-20)
(0.972068 0.151002 4.52359e-21)
(1.01803 0.00165029 0)
(1.00628 -0.000129028 -2.46995e-23)
(0.732111 -0.173412 -3.06319e-20)
(0.40237 0.00677737 -2.62357e-20)
(1.00875 -0.000818891 4.67679e-22)
(1.00853 -0.000801645 -4.19391e-22)
(1.0025 -0.000137687 0)
(1.00994 -0.00102153 0)
(1.00999 -0.00102008 -7.96428e-22)
(0.522439 0.0234453 1.50427e-20)
(0.61837 0.241495 0)
(1.0137 0.00904256 -4.71273e-23)
(1.01212 -0.00112286 -2.41896e-23)
(1.02008 0.0700367 0)
(0.496112 0.0196457 0)
(1.00393 -9.34223e-05 3.96915e-23)
(1.01779 0.00158085 0)
(0.851844 -0.16941 2.98934e-21)
(0.982156 0.0498699 0)
(1.00545 0.138558 -4.56062e-21)
(0.780185 0.117203 0)
(0.988502 0.0456435 0)
(1.01149 0.00513692 -2.39906e-22)
(0.50838 0.302042 3.02688e-20)
(1.0204 0.0737323 1.38714e-21)
(0.995148 0.0491987 -4.91572e-21)
(1.06119 0.078565 4.42507e-21)
(1.01661 0.0173865 0)
(0.623327 0.231925 3.01066e-20)
(1.03052 0.00418092 4.39894e-21)
(1.03196 0.0378712 -1.87931e-21)
(1.01816 0.0478138 0)
(1.01357 0.00899856 -5.28278e-22)
(1.00152 -3.90463e-05 0)
(1.03129 0.0219335 0)
(1.00856 -0.00398599 9.29074e-22)
(1.01264 0.000501113 0)
(0.440204 0.0119037 2.38436e-20)
(0.717236 -0.0132392 -1.26409e-20)
(1.01238 -0.000775917 -4.9522e-22)
(1.00829 -0.000750308 0)
(1.01163 0.00421541 1.19131e-21)
(1.00827 -0.000752009 0)
(1.03078 0.00386306 7.88539e-21)
(1.01257 0.000273389 -2.44388e-21)
(1.04038 0.0446349 -4.77731e-21)
(1.01282 -0.000847856 -5.0893e-22)
(0.37758 0.00776787 2.86875e-21)
(0.682482 0.108706 0)
(1.01996 0.0095595 -1.39827e-21)
(1.0089 0.00140785 0)
(0.881646 0.0710225 7.81879e-21)
(1.01066 -0.00142432 -1.65594e-22)
(1.08852 0.0549782 3.98066e-22)
(0.461538 0.0151447 1.99268e-22)
(1.0106 -0.00138232 1.70483e-22)
(0.461947 0.0130654 3.32895e-20)
(1.01229 0.000387834 0)
(0.858077 0.213762 0)
(1.00473 -8.70081e-05 2.79421e-24)
(1.01663 0.00899591 -3.85997e-21)
(1.01358 0.00912022 8.26882e-23)
(1.01079 0.00429978 1.98503e-23)
(1.05994 0.124666 0)
(1.00345 0.000159328 3.44546e-22)
(1.17378 0.0623534 -7.89287e-21)
(1.0319 0.0336946 0)
(0.743213 -0.0587811 6.16636e-21)
(1.01694 0.00498958 0)
(0.982414 -0.126244 0)
(0.354948 0.00543965 -3.00865e-21)
(1.00505 -0.000154451 -7.72078e-22)
(1.04116 0.0601333 -8.09905e-21)
(1.0047 -0.00126736 9.51745e-22)
(1.02333 0.025888 -2.04366e-21)
(1.00171 0.00341669 -4.68385e-23)
(1.02753 0.0235489 -6.34371e-21)
(1.01158 0.000407469 -5.88574e-22)
(1.00439 0.000197085 -1.77326e-22)
(0.969906 0.075607 -8.08183e-22)
(1.00981 0.0365682 0)
(1.03248 0.0379566 3.36911e-21)
(1.02755 0.0229781 2.09201e-21)
(1.0174 0.0016176 -1.80046e-21)
(0.669226 0.0370244 -3.27344e-20)
(0.435289 0.00813034 0)
(1.01 0.00151457 -5.12672e-22)
(1.01643 -0.00666998 6.63426e-24)
(1.02409 0.0260914 0)
(0.879045 -0.0409105 0)
(1.09746 0.0706282 -4.83483e-20)
(0.670537 0.0816071 -8.96051e-21)
(0.554493 0.259461 6.4112e-22)
(1.03534 0.000129834 2.60805e-23)
(0.977534 -0.0335679 -1.86396e-20)
(1.01004 0.00108919 -8.7773e-22)
(1.03816 0.0916737 -2.90765e-20)
(0.861018 -0.0231172 -5.98396e-22)
(1.11098 0.0959617 0)
(1.01231 0.000260919 0)
(1.0171 0.00708256 0)
(0.93673 -0.125737 0)
(1.01179 0.00587857 7.05488e-23)
(0.983805 -0.00648348 2.45167e-21)
(1.07669 0.0848852 7.45289e-21)
(1.00312 -0.000101064 -9.40624e-22)
(0.713861 0.0454636 -1.03065e-22)
(1.01271 0.00163748 0)
(1.07771 0.0426633 0)
(1.0139 -0.00201453 -8.73085e-22)
(0.415609 -0.0146606 6.53492e-20)
(1.00725 0.00114099 -3.25407e-22)
(1.03301 0.0384452 -5.46962e-22)
(0.994494 0.0312643 5.78396e-22)
(1.03227 0.0013689 -2.04612e-23)
(1.00408 -8.35737e-05 5.97954e-22)
(1.06531 0.0770478 1.02359e-20)
(1.01894 0.0587858 8.36075e-21)
(1.01784 0.0137646 7.57761e-22)
(1.01173 0.0055041 -1.03794e-21)
(0.597798 0.0407151 -2.00591e-20)
(1.0102 0.0566235 0)
(0.848155 0.246941 -2.65897e-20)
(0.820778 0.194181 0)
(1.01025 -0.00128239 8.07765e-23)
(1.01428 0.00961456 4.78682e-23)
(0.971817 0.0484782 0)
(0.970357 -0.0228184 2.30172e-20)
(1.0102 -0.00123869 -6.9721e-22)
(1.00205 -0.000313314 8.65483e-22)
(1.0203 0.0120376 1.8994e-21)
(1.0285 0.0652253 0)
(1.03257 0.0385489 -1.67831e-21)
(1.02229 0.106446 9.10736e-22)
(1.00239 0.0136345 -3.15185e-21)
(1.08548 0.0626034 6.08279e-22)
(1.07369 0.0444661 2.2555e-20)
(0.55317 0.0287359 0)
(1.01046 0.00221527 -1.15114e-21)
(1.01823 0.0139975 0)
(0.99707 0.00573224 1.36829e-21)
(1.08161 0.127454 -1.16339e-20)
(1.00327 -9.53937e-05 3.06857e-22)
(0.493883 0.0101292 -6.7227e-20)
(1.07411 0.0436486 -1.62114e-20)
(0.869384 0.145974 -1.78104e-21)
(1.01827 0.0122795 2.32987e-21)
(0.983224 -0.00546005 0)
(1.01552 -0.00551434 3.92553e-23)
(0.853668 -0.292516 0)
(1.01389 -0.000390271 -6.18579e-22)
(0.981788 0.152839 -4.95794e-21)
(0.889806 0.083876 -7.07045e-21)
(0.990575 0.0337176 7.06737e-22)
(1.02008 0.00993306 -4.37531e-21)
(1.10668 0.16181 0)
(1.01498 -0.00208803 0)
(0.578635 0.284465 -2.85378e-20)
(1.01449 0.130054 -8.28421e-21)
(1.01376 -0.000640543 -6.15235e-22)
(0.835427 -0.277021 1.07516e-21)
(1.01347 0.00940532 -1.06367e-21)
(1.01086 0.0419586 7.33325e-22)
(1.00884 3.30478e-05 5.19272e-22)
(0.55594 -0.000870316 0)
(0.997467 0.0481993 -1.8518e-22)
(1.02029 0.0213076 -4.81746e-23)
(0.643337 -0.235304 1.47077e-20)
(1.06924 0.0649834 0)
(1.01691 0.0163566 8.2523e-22)
(0.739414 0.259637 -7.94075e-21)
(1.10629 0.0554097 -1.18478e-20)
(1.02154 0.0204972 -4.5142e-22)
(1.05672 0.128785 7.90512e-21)
(1.01471 0.0098001 1.91429e-22)
(1.06974 0.0750125 -7.26874e-22)
(1.10829 0.101141 2.90231e-20)
(1.01285 0.00144627 0)
(1.05266 0.0281874 -1.1991e-20)
(1.02828 0.0229112 2.72527e-21)
(1.01085 0.00437935 6.56639e-23)
(1.00875 0.00193516 2.86468e-23)
(1.01064 0.00252881 1.09649e-21)
(0.295987 0.283693 0)
(1.14819 0.0394919 4.39442e-21)
(1.01827 0.0132088 1.11901e-21)
(1.01088 0.00236224 6.23909e-22)
(1.01206 0.00618916 1.84834e-22)
(1.03399 0.0543412 -1.17234e-20)
(0.858298 -0.0380308 0)
(1.01219 -0.00178809 0)
(1.01092 -0.00064203 0)
(1.09617 0.0715172 3.22153e-20)
(0.99237 -0.00796764 0)
(1.01096 0.00453525 -4.71683e-23)
(1.02054 0.0209262 4.007e-23)
(0.705419 0.222624 0)
(1.02459 0.199739 -1.36837e-20)
(1.03994 -0.00781506 0)
(1.07515 0.100264 0)
(1.07876 0.0949335 6.15386e-21)
(1.013 -0.00140203 1.34382e-21)
(1.01167 -0.00168194 -5.95557e-22)
(1.01393 0.0355252 -9.31388e-22)
(1.00866 0.00185161 1.90893e-23)
(1.0121 -0.00179128 6.0563e-22)
(1.01372 0.00919075 5.84738e-22)
(1.0116 -0.00167679 -1.1207e-23)
(1.01273 -0.00138671 0)
(0.528672 0.297617 -3.03442e-21)
(1.0149 0.0101292 -6.71301e-23)
(1.03424 0.0383703 0)
(0.393034 0.0094665 0)
(1.03969 0.0584597 0)
(1.00876 0.00146036 -9.65949e-22)
(1.02822 0.00613054 0)
(0.766344 0.252605 0)
(1.01774 0.0358082 -1.7171e-22)
(0.384707 0.0039328 2.97919e-20)
(1.01331 -0.00195564 0)
(1.01859 0.00427134 -3.40698e-21)
(1.01531 -0.00215325 0)
(1.01037 -0.00106768 8.43248e-22)
(1.01759 0.0203217 6.20513e-22)
(1.01322 0.00937678 9.33602e-22)
(0.718103 0.20397 0)
(1.0089 -0.00419335 0)
(0.961632 0.0507293 3.11962e-21)
(1.01829 0.00429799 0)
(1.05842 0.0437753 -1.04485e-20)
(1.00756 0.000554862 -7.00058e-22)
(1.01482 0.0107309 0)
(0.991266 0.0514543 0)
(0.829809 0.245419 3.61386e-21)
(1.02035 0.0117145 -1.96393e-21)
(0.826149 0.0621245 -1.81739e-20)
(1.00895 0.00170682 -4.74515e-23)
(1.00776 0.000666334 3.12705e-22)
(1.01192 0.00588973 1.73527e-22)
(1.01371 0.00961795 8.53742e-22)
(1.00825 0.00116107 -1.74941e-22)
(1.00995 0.000766702 0)
(0.658527 0.0362811 3.95867e-21)
(0.45972 0.289444 8.71843e-21)
(1.00808 0.00107735 0)
(0.931074 -0.144366 5.03923e-21)
(1.09498 0.0745711 0)
(1.01702 0.000537169 4.06145e-21)
(1.03708 0.0622325 -7.01424e-21)
(1.08877 0.0557548 8.43021e-21)
(0.703941 0.250206 3.9516e-20)
(1.05524 0.0297653 -1.37921e-20)
(0.977176 0.0531532 1.18578e-20)
(0.969158 0.104866 -1.75489e-21)
(0.994188 0.0853576 9.21901e-22)
(1.01349 0.00960834 1.42258e-21)
(1.034 -0.00375522 -1.01691e-22)
(1.00606 0.00297829 0)
(1.0165 0.0166309 -1.28611e-22)
(0.982177 0.221113 0)
(1.00552 -0.000177369 -4.00446e-22)
(1.01735 0.0107005 0)
(1.01766 0.0140881 1.60656e-21)
(1.05574 0.0255786 -9.56561e-21)
(1.0234 0.0400262 1.02857e-22)
(1.09399 0.106331 -1.33808e-20)
(1.05931 0.0619802 -1.76659e-20)
(1.01989 0.000985605 0)
(1.00785 0.000193981 1.89001e-21)
(0.954824 0.0524676 0)
(1.03831 0.0328112 1.95595e-22)
(1.01798 0.012933 -1.01913e-21)
(0.817441 0.234911 8.02837e-23)
(1.0454 0.0456029 -7.59153e-21)
(1.0325 0.0336035 3.19849e-21)
(0.570467 0.288145 1.79665e-20)
(1.0129 0.00186592 -2.59732e-21)
(1.03922 0.0311874 -8.40085e-22)
(0.968347 0.0936569 0)
(1.0075 0.00116399 1.96905e-23)
(0.556612 0.027096 -2.09337e-21)
(1.00779 0.000668765 0)
(1.01039 -0.00106257 0)
(1.0343 0.0563148 1.2033e-20)
(1.0132 -0.00197142 0)
(1.00712 0.000497363 -2.8711e-22)
(0.970652 0.0677197 0)
(0.615111 0.0327977 0)
(0.572139 -0.266506 1.63111e-20)
(1.01215 0.00394648 9.10429e-22)
(1.03946 0.014532 1.08482e-20)
(1.01889 -0.00254778 7.31342e-22)
(0.951784 0.199084 5.8814e-21)
(0.81196 0.024387 2.22898e-20)
(1.01766 0.0121483 1.9339e-21)
(1.01797 0.0116049 1.29628e-21)
(1.01183 0.00354077 0)
(1.02279 0.0494174 5.27199e-21)
(0.89439 -0.233521 8.31639e-21)
(1.01056 0.00173381 -6.37269e-22)
(1.00391 -0.000122641 1.27459e-22)
(1.01186 0.00418266 -1.95177e-21)
(1.01077 0.00423581 -4.09581e-22)
(1.00872 0.00630287 0)
(1.03815 0.0347858 0)
(1.00513 -0.000137812 7.15423e-22)
(1.05787 0.0630261 1.83329e-20)
(1.00746 0.0011023 1.74134e-24)
(1.01237 0.00676586 9.69166e-22)
(1.02836 0.0224109 1.31454e-21)
(0.639876 0.0569829 4.63225e-20)
(1.00619 -0.00015068 -9.43318e-22)
(1.04595 0.0208845 3.76612e-21)
(1.01264 0.000535943 0)
(1.05797 0.0426372 -1.80237e-20)
(1.03688 0.0720714 -4.18777e-21)
(1.0101 0.0742223 1.76298e-21)
(1.01551 0.0487061 0)
(1.12623 0.0417614 0)
(1.02636 0.0210622 0)
(0.962226 0.0473718 4.19723e-21)
(0.747059 0.0437065 1.47297e-20)
(0.561523 0.285431 0)
(0.414699 0.0121117 -2.03809e-20)
(1.00978 0.00108762 5.01647e-22)
(1.01168 0.00536654 0)
(1.02116 0.00154146 -6.4107e-22)
(1.0201 0.00735045 0)
(0.909647 0.105676 1.37163e-20)
(1.01104 -0.0015159 0)
(0.822325 -0.152009 0)
(1.03453 0.0301875 5.77e-21)
(0.837972 0.0571033 2.76087e-20)
(1.10052 0.0523631 5.73532e-22)
(1.05421 0.0178202 2.38002e-21)
(0.296561 -0.124665 2.13437e-20)
(1.0081 0.00100876 1.09899e-21)
(1.08413 0.0549682 3.26111e-20)
(1.00324 -1.46506e-05 7.5289e-22)
(1.01268 5.45907e-05 2.81739e-21)
(0.803546 0.0539766 2.05739e-20)
(1.01274 -0.00187791 1.44691e-22)
(1.11311 0.0778367 5.65756e-20)
(1.0057 -9.61705e-05 8.78959e-23)
(1.0155 0.0002824 -2.17523e-21)
(1.01181 0.00563854 0)
(1.09271 0.104087 1.31081e-20)
(1.00717 0.00566591 -6.82307e-22)
(1.00751 -0.000608383 -5.03527e-22)
(1.08644 0.0828165 0)
(1.03623 0.0601139 -1.30142e-21)
(0.913737 0.0654257 1.24171e-20)
(1.06741 0.118315 0)
(0.685732 0.0372804 1.40558e-20)
(0.675342 0.258847 -2.09486e-20)
(1.00615 -0.000128523 1.10398e-21)
(0.420114 0.00625205 -8.28301e-21)
(1.00825 -0.000221359 9.01224e-23)
(0.393719 0.278964 0)
(0.911121 0.264169 0)
(1.01227 0.000156954 -7.70278e-22)
(1.01395 -0.00339166 3.72416e-22)
(1.00562 -5.968e-05 3.86128e-22)
(1.04514 0.0449191 0)
(1.05264 0.0163858 8.75627e-21)
(1.01265 -0.00188818 -1.48833e-22)
(1.00311 8.91294e-06 0)
(1.01099 0.000355395 -1.63174e-21)
(1.09707 0.120115 -2.11237e-20)
(1.01314 0.00471751 -5.92344e-22)
(1.07519 0.0606559 2.35446e-20)
(1.01703 0.0103424 0)
(1.00742 -0.000586877 1.21827e-21)
(1.00468 -0.000113255 8.20902e-22)
(0.931931 0.0886647 3.65028e-22)
(0.968288 0.223111 -1.43891e-20)
(0.345621 -0.0827675 -3.71511e-20)
(1.06007 0.0762902 -1.22707e-20)
(1.03881 0.0346257 0)
(1.06818 0.184222 -5.89233e-21)
(0.501021 0.0207277 -3.29108e-20)
(1.00912 7.97066e-06 -5.44612e-22)
(0.930571 0.233367 0)
(1.01069 0.00014658 3.55705e-21)
(1.0936 0.0594867 -3.96052e-20)
(1.01981 0.00745882 5.66875e-21)
(1.11157 0.154931 9.85869e-21)
(1.01056 0.00400938 1.37361e-22)
(1.00989 0.00836662 0)
(1.03001 0.00681057 0)
(0.928263 0.137244 -7.33183e-21)
(1.04219 0.0455851 -8.9813e-21)
(0.879733 0.123 -1.54716e-20)
(1.00482 -0.000128332 -1.21581e-23)
(1.04106 0.0434273 -5.41463e-21)
(1.01135 0.000808485 0)
(1.00455 -0.000126114 -5.55628e-22)
(0.570764 0.033485 -7.81228e-22)
(1.13846 0.10248 -3.78696e-22)
(1.01189 0.000458592 -2.31657e-22)
(1.02065 0.111976 -1.695e-21)
(1.01762 0.00173489 2.70395e-21)
(1.01283 -0.00121121 0)
(1.00543 -9.78794e-05 0)
(0.593081 0.0403856 4.81549e-20)
(1.01333 0.00467812 6.25355e-22)
(1.0062 -0.00412148 0)
(1.01108 -0.00154317 4.13309e-22)
(1.01169 0.000571491 -1.63978e-21)
(1.07734 0.128015 0)
(1.00592 -8.82253e-05 -1.05825e-22)
(1.03577 0.108441 -4.9469e-21)
(1.00246 -4.55136e-05 -1.32017e-23)
(1.00735 0.00123126 0)
(0.364109 0.297027 1.19589e-21)
(1.0761 0.0615065 0)
(1.01744 0.0117146 -1.14617e-21)
(0.307085 0.00250107 0)
(1.11178 0.0767612 -5.22598e-20)
(0.909553 -0.0837731 1.30805e-22)
(0.961276 0.0893488 0)
(1.00795 0.000936823 -6.94657e-22)
(1.01721 0.00454534 -4.19026e-21)
(0.619087 0.0464417 -8.20499e-22)
(1.11157 0.0624575 2.1837e-22)
(1.01499 0.0339567 0)
(1.01836 0.0216856 -2.07147e-22)
(1.01047 0.00980686 -1.64366e-21)
(1.00298 -4.46007e-05 8.73935e-22)
(1.01063 0.00301958 0)
(1.03911 0.000645348 -3.04352e-23)
(1.03242 0.0749024 0)
(1.03076 0.0282793 -1.6416e-21)
(0.514442 0.299003 -3.12086e-21)
(1.04285 0.0465521 1.09268e-20)
(0.810212 -0.0712866 -4.98141e-21)
(0.792042 0.0496987 2.07463e-20)
(1.01865 0.0366171 0)
(1.03439 0.0395682 -6.0722e-21)
(1.023 0.122777 0)
(0.477029 0.0158087 2.99343e-20)
(1.01154 0.000460913 0)
(1.02839 0.0156173 1.62401e-21)
(1.03882 0.00512642 0)
(1.00741 0.00127149 0)
(1.00449 -4.08066e-05 7.06679e-22)
(1.00483 -0.000122633 -2.325e-22)
(1.02023 -0.00285899 0)
(1.00806 0.000608691 0)
(0.42606 0.00679601 9.08526e-21)
(1.07142 0.0377126 1.31962e-20)
(1.00563 0.000206726 0)
(1.07507 0.0826104 -7.72576e-21)
(1.00505 -0.000136144 1.42955e-21)
(0.691528 0.0936959 -2.1269e-20)
(1.01228 0.000282382 0)
(1.01031 0.00191733 0)
(0.584326 0.0298928 0)
(1.04059 0.0691999 1.07554e-20)
(0.897788 0.046533 5.00747e-21)
(1.03163 0.00904476 0)
(1.01627 -0.0026052 0)
(1.01034 0.00120688 1.87065e-23)
(1.03663 0.0121132 -4.80083e-21)
(1.04818 0.0351628 -5.54363e-22)
(1.01052 0.00390313 -1.99128e-22)
(0.377325 0.00598111 -2.52706e-20)
(1.03225 0.0353604 0)
(0.833263 -0.0713308 -1.25805e-20)
(0.914536 0.0885975 4.42512e-21)
(1.0261 0.0178877 -1.58859e-21)
(0.686512 0.037874 0)
(1.03906 0.0150299 0)
(1.00374 6.26209e-05 7.18628e-22)
(1.01151 0.000727549 1.73682e-21)
(0.477645 0.017545 -2.23248e-20)
(0.577673 -0.267546 0)
(1.03374 0.0309447 -4.27312e-21)
(0.392365 0.00534794 0)
(0.866602 -0.267782 -4.19156e-21)
(1.00739 0.00124969 3.85174e-22)
(1.01017 0.00163412 0)
(1.0168 0.0197759 7.27576e-22)
(0.991847 0.0571783 0)
(0.983973 -0.00580217 0)
(1.04096 0.0456653 -2.89558e-21)
(1.03592 0.0119457 4.03417e-21)
(1.04544 0.0213893 0)
(1.09435 0.0591036 4.15306e-20)
(1.01044 0.00212321 8.06856e-22)
(1.02782 0.105885 8.77293e-21)
(1.07065 0.038666 0)
(1.01713 0.0132795 -8.91759e-22)
(1.02921 0.0179542 -7.54286e-21)
(1.00365 6.07313e-05 -6.99108e-22)
(1.04745 0.0346405 0)
(1.00916 -0.00167811 -1.87593e-21)
(1.10681 0.0545258 -4.63301e-20)
(1.02216 0.0264639 8.01727e-22)
(1.01396 -0.00598589 8.3188e-22)
(0.381782 0.00550403 -3.4287e-20)
(1.0206 -0.00316141 0)
(0.851716 -0.240053 -5.18818e-21)
(1.01891 0.0211417 -9.75729e-22)
(0.998442 0.0053098 1.58681e-21)
(1.03729 0.0299719 -2.99829e-21)
(1.11098 0.0632151 2.11726e-20)
(1.00343 -7.47128e-05 -6.72125e-22)
(1.08388 0.0529892 -1.44834e-20)
(0.994542 0.217431 3.34836e-20)
(0.864001 0.0612695 7.78792e-22)
(1.02094 0.0074678 1.88207e-21)
(1.023 0.0266775 2.19619e-21)
(1.00619 0.00029817 2.85905e-22)
(1.01828 0.00568902 3.4202e-21)
(1.02997 0.00569991 1.07219e-21)
(1.02044 0.0252848 0)
(1.00692 -0.00266511 0)
(0.937105 0.0833504 -3.23125e-21)
(1.03157 0.110063 0)
(1.00781 0.000822868 -7.73915e-22)
(1.10541 0.0546834 -1.44209e-20)
(1.05898 0.0219963 2.37573e-20)
(1.05531 0.0261689 1.54503e-20)
(1.02494 0.116674 0)
(1.0143 0.00978615 1.08168e-22)
(1.08324 0.0555004 1.582e-20)
(1.15458 0.0841735 -1.51583e-20)
(1.00669 -0.000392502 -7.81692e-22)
(1.0428 0.0693031 0)
(1.00203 0.0386743 -1.73352e-21)
(1.0692 0.0385592 0)
(1.00968 0.00251463 -2.41962e-22)
(1.0084 0.00135319 1.42655e-21)
(1.01057 0.0029382 0)
(0.431182 0.00864123 1.35649e-22)
(1.02847 0.0169121 -3.92215e-21)
(1.01256 0.000197619 -4.22713e-24)
(1.07619 0.042621 0)
(1.01069 0.00409872 2.79736e-22)
(1.00913 0.00157162 2.09838e-22)
(0.998956 0.0894963 -5.11221e-22)
(1.17621 0.0946222 9.8269e-21)
(1.01249 0.0392182 8.09475e-22)
(0.975655 0.155221 1.61683e-20)
(1.02623 0.0616281 0)
(0.964889 0.0468067 0)
(1.03045 0.00533466 -1.1578e-20)
(1.00861 0.00888022 6.5346e-22)
(1.08821 0.164857 1.47564e-20)
(1.01212 -0.000731428 -1.53453e-21)
(1.0473 -0.00726382 8.42055e-22)
(1.00383 -8.33938e-05 3.70486e-22)
(1.00442 -6.64123e-05 7.99253e-22)
(1.03019 0.00982855 4.50836e-21)
(1.02083 0.0270261 -7.69491e-22)
(1.01457 0.0786172 4.84746e-22)
(1.0096 0.00242457 2.38007e-23)
(1.02126 -0.0313683 1.58952e-22)
(1.01219 0.0035387 -4.64407e-22)
(0.933302 0.264564 0)
(1.01956 0.0216033 0)
(1.05591 0.0290042 1.57312e-20)
(1.01377 -0.00203019 -6.56843e-22)
(1.05971 0.0800555 -2.87667e-20)
(1.01627 0.00830576 3.58007e-21)
(0.84583 0.240709 -3.07315e-20)
(1.01666 0.0435583 8.00569e-22)
(1.00285 -2.64332e-05 2.02085e-22)
(0.65634 0.0676595 -3.14879e-20)
(1.02862 0.0186259 2.83624e-21)
(0.434284 0.0108715 -2.38187e-20)
(1.05267 0.0147235 0)
(1.02132 0.0710357 -1.06472e-21)
(1.01043 0.00385879 2.87297e-23)
(1.00957 0.000840419 -5.45093e-22)
(1.02071 0.00706733 -9.22157e-23)
(0.731602 0.0507773 0)
(1.04574 0.0345885 -6.08959e-21)
(0.880504 -0.075299 -2.47058e-22)
(1.01181 0.229308 2.7953e-20)
(1.01805 0.00552176 0)
(1.06869 0.0395367 0)
(1.01201 -0.0010678 0)
(1.02339 0.00132908 -8.66809e-22)
(0.95042 -0.229358 5.13682e-21)
(1.01237 -0.00117999 -2.68477e-23)
(0.54139 0.29351 9.55357e-21)
(1.04758 0.0206173 0)
(1.02995 0.0756237 0)
(1.06689 0.0954197 -4.45257e-22)
(0.948802 -0.11845 1.81691e-21)
(1.00832 -0.000554373 0)
(1.00468 -3.18406e-06 -1.16273e-21)
(0.996649 0.00900287 -4.52511e-21)
(1.00797 0.000880077 3.97e-22)
(1.01665 0.0105336 1.45494e-21)
(1.02244 0.0201003 -2.12943e-21)
(1.01148 0.00489521 -2.29613e-22)
(1.07552 0.0435048 -2.41321e-21)
(1.00818 -0.000570928 -2.63112e-22)
(0.998802 0.127328 3.50739e-23)
(1.01677 0.0130312 7.34005e-22)
(0.481377 0.0116055 6.51231e-20)
(0.425227 0.00976686 3.05537e-21)
(0.891542 0.00937256 0)
(0.950963 0.0487711 -6.18836e-21)
(0.82236 0.0252149 2.21423e-20)
(0.470173 0.00974107 -6.64886e-20)
(0.885375 -0.0783669 0)
(1.00695 0.000832406 -5.09634e-22)
(1.01324 -0.00172453 -7.08016e-22)
(1.02443 0.00879386 4.94944e-21)
(1.02531 0.0185212 -3.40908e-21)
(1.01185 0.00373776 0)
(1.04659 0.0351558 1.37858e-21)
(1.01319 0.00578657 -5.49641e-22)
(0.863107 -0.0169685 4.34979e-21)
(1.01692 0.0109005 -2.23009e-21)
(1.12477 0.100267 -2.33701e-20)
(1.02836 0.0161444 0)
(1.06935 0.0319789 2.3763e-20)
(1.01806 0.0066313 0)
(1.01018 0.000883312 1.16579e-21)
(1.03414 0.0399963 6.12254e-22)
(1.02815 0.0187694 7.13874e-22)
(1.01359 0.00154567 9.25715e-24)
(1.04132 0.0302659 -7.94226e-21)
(1.0151 -0.00207478 0)
(0.686446 0.0375043 0)
(1.03082 0.0780487 0)
(1.04043 -0.0198465 0)
(1.01005 0.00137602 0)
(1.02287 0.00126012 0)
(1.01186 0.00592447 9.35114e-22)
(1.01223 0.00356367 0)
(0.60192 0.282474 0)
(1.00711 0.000972205 -2.02947e-22)
(1.13792 0.0788213 0)
(1.01048 0.00389455 6.45277e-23)
(0.931884 0.118083 0)
(1.01799 0.0103965 1.0467e-21)
(1.01188 0.00541586 6.6805e-22)
(1.08452 0.0537354 8.78251e-22)
(1.0303 -0.00933453 0)
(1.00725 0.00106525 9.65082e-23)
(0.902366 0.138987 -1.20962e-20)
(0.96079 0.229133 0)
(1.01454 0.0163243 0)
(1.06386 0.0788387 1.14782e-20)
(1.00808 0.000748886 4.33857e-22)
(1.1153 0.0723338 0)
(1.01611 -0.00209978 2.79097e-22)
(1.01204 0.00378503 0)
(0.534269 0.0226964 2.89349e-20)
(1.00395 -7.50351e-05 9.26386e-22)
(1.0341 0.0161331 0)
(1.07271 0.0825901 1.4443e-20)
(0.517404 0.0185949 -5.56511e-20)
(1.01648 -0.00199408 -2.8676e-22)
(0.897389 -0.151998 0)
(1.09599 0.171608 0)
(1.01453 5.00162e-05 0)
(1.01174 0.0082111 -7.16242e-22)
(1.0116 0.00512792 -2.54622e-22)
(1.09886 0.0996435 0)
(1.022 0.0016514 9.23799e-22)
(1.08838 0.0844053 -2.16832e-20)
(1.02491 0.0112426 9.86436e-23)
(0.565815 0.0286108 0)
(1.01755 0.00915117 6.54679e-22)
(0.631785 0.0114407 3.75461e-20)
(1.01086 0.00251013 0)
(1.01288 -0.00191195 -2.35222e-22)
(0.989264 0.0663356 -5.15227e-22)
(1.0082 0.00043009 6.70801e-22)
(1.02028 -0.00288831 -9.06914e-24)
(0.787809 0.046386 -2.89026e-20)
(1.01907 0.0178798 5.33386e-22)
(1.00852 0.00205069 -1.37477e-22)
(0.82399 -0.0186244 2.31023e-22)
(1.01427 -5.0329e-05 0)
(1.01366 -0.00204288 7.00368e-22)
(1.03537 0.0750693 -5.35865e-21)
(1.02107 0.0198165 -8.38662e-22)
(0.896535 0.107029 0)
(1.03351 0.0384201 1.24393e-22)
(1.08762 0.0571036 1.673e-20)
(0.96169 0.0782249 0)
(1.04447 0.0212436 3.76882e-21)
(0.581338 0.0285428 1.71792e-22)
(1.01672 0.0137238 8.59321e-22)
(1.03939 0.0720625 0)
(1.01992 0.0042885 3.5807e-21)
(0.415295 0.0107139 -2.47176e-20)
(0.95755 0.0992207 1.69174e-21)
(1.03339 0.00879125 6.18558e-21)
(1.0161 -0.00202539 2.84008e-22)
(1.01315 0.000699207 2.15801e-21)
(1.01795 0.0123344 0)
(1.01565 -0.00207514 -1.79532e-24)
(1.01181 -0.00122017 5.03057e-22)
(1.01222 -0.000892861 -1.79317e-21)
(1.02079 0.00653672 7.52481e-21)
(1.03678 0.0351108 0)
(1.00663 -0.00037737 8.75459e-22)
(1.01935 0.0174492 5.54851e-22)
(1.07286 0.0703137 1.56605e-21)
(0.614052 0.270336 0)
(0.823717 0.236161 3.43576e-20)
(1.07124 0.0801362 1.23008e-20)
(1.01195 0.00626301 -1.88619e-22)
(0.996644 0.0731636 0)
(1.01269 0.00508947 0)
(1.09103 0.157121 -4.54325e-20)
(0.907705 -0.253955 0)
(0.205383 0.00134339 0)
(1.01062 -0.00114358 -1.44184e-21)
(1.00708 0.000913202 4.55191e-22)
(1.01468 0.00109541 -1.4231e-21)
(1.01475 0.00923506 -3.50726e-22)
(1.01044 -0.00113559 1.37151e-21)
(1.01515 -0.00221142 3.23364e-22)
(1.01492 0.00541169 3.20245e-21)
(1.03388 0.039992 -3.10374e-21)
(1.00862 0.00209166 0)
(0.475904 -0.021146 -3.89388e-20)
(0.841649 -0.0440233 -4.82762e-22)
(1.0089 0.00249142 1.26338e-22)
(0.759629 0.0555973 1.88884e-20)
(1.02032 0.00440381 -4.23418e-21)
(1.01068 0.00266654 -7.35514e-22)
(1.02861 0.000831124 -4.18622e-22)
(0.611912 0.0461246 -2.35843e-20)
(1.04283 0.0311912 1.149e-21)
(1.00539 -0.000160808 -2.59182e-22)
(0.904233 -0.0185353 -5.06924e-21)
(1.01132 0.000569787 0)
(1.01069 0.00220819 0)
(1.10974 0.0546236 2.16152e-20)
(1.01311 -0.00169058 3.55353e-22)
(1.09863 0.17793 7.29968e-22)
(1.03486 0.0165311 9.13531e-21)
(1.0325 0.0938489 3.0589e-21)