/*--------------------------------*- C++ -*----------------------------------*\
| =========                 |                                                 |
| \\      /  F ield         | OpenFOAM: The Open Source CFD Toolbox           |
|  \\    /   O peration     | Version:  v2012                                 |
|   \\  /    A nd           | Website:  www.openfoam.com                      |
|    \\/     M anipulation  |                                                 |
\*---------------------------------------------------------------------------*/
FoamFile
{
    version     2.0;
    format      ascii;
    class       volScalarField;
    location    "300";
    object      ddt0(k);
}
// * * * * * * * * * * * * * * * * * * * * * * * * * * * * * * * * * * * * * //

dimensions      [0 2 -3 0 0 0 0];


internalField   nonuniform List<scalar> 
13917
(
0.000177696
-2.28907e-06
-2.4298e-06
1.94361e-09
-3.88932e-07
-2.19942e-06
1.95074e-08
2.36395e-05
1.83673e-08
0.000442924
2.5899e-06
-1.34138e-08
4.71701e-09
0.0048308
-2.29818e-07
0.000150061
7.29997e-09
2.25232e-06
1.35043e-06
0.000332108
1.05358e-06
-4.2677e-08
7.88819e-08
-4.5428e-08
4.19068e-09
1.07863e-06
-0.00589372
0.000194827
1.4915e-06
-1.67072e-07
-5.27137e-05
6.56858e-08
-2.99462e-09
0.000359401
-1.01641e-08
3.70054e-06
-1.58113e-07
9.01557e-09
1.87253e-08
3.97221e-07
3.54028e-09
-3.01733e-08
1.68998e-08
3.16944e-07
4.17148e-07
0.000161651
6.83139e-07
0.00292212
0.0010654
-2.1075e-08
-1.37295e-08
-1.17069e-06
0.000182509
6.04454e-09
-5.5915e-09
-1.06706e-06
2.83299e-05
7.66833e-08
1.43587e-08
-1.9276e-05
0.00721907
-6.77463e-06
1.54932e-08
-9.6931e-10
-0.00160778
-0.000340854
1.53325e-06
1.08384e-05
6.94933e-06
0.000305479
-0.00293867
0.000348217
1.35414e-08
2.28351e-08
1.2098e-06
7.46908e-10
-1.00034e-07
1.82117e-08
-1.34521e-10
-3.6495e-09
6.71154e-08
9.20567e-09
1.15317e-08
-0.000176242
2.77492e-09
-1.70304e-05
8.89703e-08
1.54505e-09
5.09221e-07
6.18335e-09
-1.00236e-09
1.75471e-08
0.000433099
3.91273e-08
-1.02145e-08
2.84681e-06
-0.00160031
1.03511e-08
1.83527e-09
-4.11863e-06
1.14757e-08
9.00649e-09
5.56117e-08
6.16116e-09
-3.47755e-07
0.00392694
-0.000157378
-3.70214e-06
1.1783e-07
-0.0137973
3.27889e-09
0.000343517
2.37603e-06
0.00289272
-0.00189774
1.33671e-09
1.16568e-06
8.16002e-09
4.99935e-07
1.62548e-09
9.1828e-09
2.93762e-08
3.12691e-06
2.15197e-07
0.00028551
-0.00114401
-2.24187e-09
1.54436e-06
-7.264e-09
3.8504e-07
2.7129e-08
-9.60363e-06
0.000977412
-2.14032e-09
1.092e-07
-0.0177421
0.00321971
6.25177e-07
1.3577e-06
1.11278e-08
-0.00326807
5.35567e-08
0.00337112
-1.34506e-08
1.42058e-08
1.77367e-06
-0.00280779
-0.000140414
0.00119466
2.33048e-09
5.39101e-07
5.04871e-09
1.23866e-08
9.049e-10
-0.0222632
-1.62314e-07
5.83053e-09
0.00106526
6.58847e-09
8.37226e-09
4.04196e-09
-0.00034392
-5.61232e-07
-0.00325625
0.00202081
1.22229e-05
8.22178e-05
0.00590892
1.11075e-09
1.75764e-06
-6.52253e-08
-0.000104349
1.81031e-08
0.00289901
-5.3932e-07
9.96384e-09
2.80621e-09
-1.50739e-06
2.54067e-08
-6.90069e-07
1.55029e-08
-6.09714e-08
-1.72684e-08
1.092e-05
1.24721e-06
2.48608e-05
-1.75915e-08
-6.55616e-06
-9.77693e-08
1.68388e-05
-5.78576e-07
4.9554e-07
7.7008e-07
0.000152358
4.07452e-08
0.000314839
4.73959e-08
0.00165241
8.39114e-09
-1.20752e-07
4.21046e-07
0.000285016
1.00513e-05
-1.69631e-07
-0.000902435
-1.87801e-06
4.29253e-07
5.09235e-08
-1.36517e-06
7.00814e-08
-9.35386e-09
-6.28764e-07
6.21739e-07
0.00173271
1.04876e-07
1.65002e-06
-0.000331998
-7.98083e-09
-1.40614e-08
-1.38905e-08
0.00570103
-4.76302e-07
2.13223e-05
5.35462e-10
1.35288e-08
-0.0188312
0.000292478
-1.17452e-08
-1.05659e-08
2.8045e-09
-1.04666e-08
-9.39231e-09
0.000324109
0.00157557
2.98538e-08
7.27506e-09
-3.53793e-07
0.000379214
1.23312e-08
-4.62488e-11
-0.00346492
0.00297292
-2.09843e-06
-0.000299614
-1.28561e-06
-1.24112e-08
0.005505
-4.04736e-07
1.15739e-06
4.83242e-07
-1.30664e-07
0.00129624
4.78103e-09
9.83591e-09
-3.89661e-07
3.29624e-08
1.7865e-09
3.20564e-10
-1.85486e-06
5.99817e-08
0.000248794
0.0101598
2.5268e-09
-9.00203e-09
-2.27379e-07
-7.84949e-09
4.05244e-09
4.00545e-09
3.04129e-09
9.67288e-09
-0.000102239
-0.000270671
-1.63229e-08
-7.39569e-07
4.86848e-07
1.14298e-08
-5.58184e-07
0.000184888
1.20728e-08
0.000355377
4.33448e-08
-0.000325151
1.07869e-08
1.50519e-07
4.51911e-08
-1.41004e-08
2.55761e-06
6.54363e-09
1.7806e-05
1.13584e-07
0.00783145
3.69829e-06
-5.43431e-05
-6.23869e-05
1.00597e-08
3.39222e-08
-1.79236e-06
-1.21506e-08
-9.54791e-07
4.15409e-09
4.47576e-08
3.66653e-09
-2.03008e-06
0.000133788
1.89637e-08
-1.2144e-09
-1.47025e-09
0.00117285
0.00022907
-2.38865e-08
-9.33742e-06
-5.35608e-09
0.00116282
-9.55676e-07
-0.000375591
0.00195611
1.47769e-06
-3.07252e-06
-8.62425e-07
-0.00029551
0.00236878
-9.09846e-06
4.18098e-09
-1.10359e-07
-0.00193328
-1.17431e-07
-2.73258e-06
5.74086e-07
1.46951e-09
-0.000253072
2.10454e-09
-5.47107e-09
-4.90254e-08
0.000369561
-4.30037e-10
4.26158e-08
-1.51537e-06
3.54274e-05
1.63529e-09
4.62763e-07
0.00400228
-1.53914e-08
-1.2194e-07
0.000315487
0.00378462
0.00054849
0.00959764
1.6315e-08
3.88857e-08
0.00250756
2.26526e-06
1.59909e-08
-1.32121e-06
-1.87543e-08
2.37067e-06
7.63145e-09
-9.43672e-08
-1.53219e-06
-3.09734e-07
2.05249e-08
0.000196249
6.18842e-10
-1.5909e-08
5.19257e-07
2.1882e-06
8.07018e-09
0.000155684
1.18382e-08
9.53718e-05
-6.54953e-09
-2.07304e-06
-9.92251e-06
0.000202667
-3.38609e-09
-2.57638e-05
-4.16634e-05
-1.47292e-06
-1.93811e-08
-0.00167421
1.07347e-07
0.00327683
5.1406e-07
-8.4283e-08
9.16018e-05
7.49544e-08
0.000761448
3.11062e-09
0.000352318
0.000573386
-8.55579e-08
-0.0165308
7.20399e-07
-9.25478e-08
0.000528031
3.97096e-06
-5.79652e-08
2.7984e-06
3.48595e-08
1.39844e-06
5.5435e-07
1.98343e-09
1.68075e-08
1.90229e-09
-1.40852e-08
4.91329e-10
1.57883e-08
0.00347657
-1.5702e-05
-8.98084e-09
1.09393e-08
-3.80032e-08
-8.26979e-08
-6.20552e-05
-1.61435e-08
2.05968e-09
-1.08091e-06
-1.78564e-06
-1.50462e-08
-8.08903e-08
0.000831203
-0.00335776
-0.000496712
1.45254e-06
0.000778511
2.34258e-08
-1.4605e-08
2.18914e-07
8.97427e-10
-1.26713e-08
3.9631e-08
-8.59533e-09
1.46534e-08
0.00458794
3.71207e-08
3.52838e-07
-0.000104226
-1.1155e-08
-9.2126e-09
1.28326e-08
0.000239907
3.1889e-07
0.000266242
-1.40848e-08
-3.16763e-09
1.40346e-07
-3.49064e-09
-1.61287e-07
8.25428e-08
0.00072882
4.29003e-05
0.00357479
-4.05974e-09
3.75205e-08
6.2426e-05
7.1883e-08
-1.12398e-06
0.000674529
-2.19141e-08
0.00314748
-5.00381e-09
2.24728e-09
-4.04219e-08
9.5177e-08
-1.04941e-08
-1.02915e-09
0.000911539
0.00573032
-9.52677e-09
2.66555e-05
-9.45922e-07
-4.72627e-10
-1.12811e-08
-1.21722e-07
0.000600687
1.98187e-08
0.00408539
0.000913495
0.00125575
1.26833e-07
-0.000182667
5.19772e-05
-1.17718e-07
0.000689605
-6.48497e-10
3.72259e-09
-1.54096e-08
1.72759e-08
9.15014e-07
5.39366e-07
1.47672e-07
-5.12001e-08
-1.44873e-06
5.52097e-06
-9.69959e-09
-8.42112e-09
0.00287798
2.0844e-08
1.08909e-07
0.00384098
2.55634e-09
-9.97265e-08
-1.79366e-06
1.32846e-09
0.000405139
2.26285e-09
-1.21163e-09
-7.47465e-08
-2.1716e-08
-5.93039e-09
-2.20297e-06
0.00168156
-0.00876157
3.9236e-09
6.47074e-09
-7.97589e-07
0.000598242
0.00225491
-1.85331e-09
-3.16464e-09
2.30448e-09
-2.74149e-07
0.00482268
-2.21876e-08
9.48269e-09
-1.06995e-07
-1.31654e-08
1.24321e-06
4.22747e-08
3.55236e-10
1.63213e-07
1.01515e-09
-2.90512e-08
2.93802e-10
-0.000183409
1.57994e-09
1.05128e-08
5.71883e-08
3.65941e-08
4.58861e-08
4.87163e-06
-4.21621e-07
-3.81218e-06
-1.02172e-08
1.40714e-06
0.0018767
0.00285157
-0.000104262
-1.9845e-08
-3.91911e-08
-2.62924e-06
-8.97576e-09
-0.00201789
7.02577e-09
0.00838644
4.33295e-08
0.00084707
-4.20914e-07
1.57701e-08
0.000411382
-1.03792e-08
-5.07574e-08
8.17435e-09
4.17454e-08
0.000303127
-3.50025e-08
-4.88245e-06
1.01386e-08
1.01066e-09
-3.92648e-08
-1.50857e-07
1.34263e-06
-3.93492e-09
3.97223e-08
-1.44595e-08
0.00527204
-0.00259625
0.00196498
0.000861102
1.34386e-09
0.000317162
5.03024e-09
0.00421998
-0.000638408
3.78238e-08
-2.09252e-05
9.53514e-09
2.0687e-08
1.50204e-08
-3.6061e-08
1.02963e-08
3.07409e-09
-0.00151974
7.10208e-09
5.70588e-08
8.27744e-09
-3.69789e-09
7.67294e-09
-5.07285e-05
9.85121e-05
0.000538873
3.37559e-07
3.81123e-08
-0.000158597
0.000383309
-2.53627e-09
0.000427118
2.0617e-09
-9.65745e-08
-1.05297e-08
-0.00155276
-1.22728e-08
1.62376e-06
1.35458e-08
0.00610203
8.37495e-09
-0.000824043
4.15371e-09
1.33532e-08
-5.96442e-08
6.93961e-09
0.000156442
2.39833e-05
-7.06995e-08
4.48103e-07
-1.14636e-09
-3.3768e-08
4.85155e-09
0.000169858
6.46608e-09
-1.86464e-06
2.4647e-09
-6.41652e-08
2.11438e-06
5.65239e-09
7.73082e-07
1.34619e-09
8.42933e-10
0.0063519
4.422e-08
1.33861e-09
3.58875e-05
-7.0397e-07
-1.97158e-05
-1.92182e-06
-9.13813e-09
-2.69924e-07
-0.000144991
3.89035e-07
5.66775e-08
-1.44685e-07
1.99045e-06
2.35577e-09
3.07893e-08
7.65232e-05
-6.84131e-08
3.89481e-08
0.00544699
1.27816e-08
-4.28316e-05
0.0022687
0.000110176
3.0564e-08
1.18597e-06
0.000358254
4.52177e-08
2.80651e-06
0.000189435
1.39311e-09
8.28518e-09
6.61593e-09
2.08827e-06
-6.65949e-09
0.000345801
1.19439e-08
1.72062e-10
5.46058e-07
4.57458e-09
-0.000408412
4.37905e-08
-1.202e-08
0.00122917
9.58294e-08
0.000224503
1.5217e-08
-3.22724e-07
-3.41911e-08
6.01869e-09
2.26522e-08
-4.34612e-09
0.000152264
1.55841e-07
8.5329e-05
-0.000282622
-8.78624e-07
0.00218618
5.46967e-09
8.36938e-09
-6.74763e-08
0.000166483
-0.0136632
5.46323e-08
0.000256435
0.00353206
1.63972e-10
-2.38636e-08
-1.76334e-07
0.00414358
0.00173172
1.02202e-08
6.60999e-09
9.56905e-09
-9.16328e-08
-6.93411e-07
3.43942e-07
1.86916e-08
-6.45697e-09
-4.65984e-09
5.75454e-09
2.16055e-08
-1.47967e-06
2.00888e-06
-2.9823e-08
-4.95916e-07
0.000215708
-1.59603e-06
0.00490937
-1.10959e-07
-1.57482e-06
2.99733e-08
-4.49625e-06
1.15811e-08
-4.50338e-08
8.95378e-05
-5.22448e-05
-6.15909e-09
-1.53241e-08
4.43395e-09
-7.85365e-09
1.09154e-08
2.70444e-06
6.22846e-05
-1.19076e-05
5.07961e-07
-6.9602e-09
9.03658e-06
1.7727e-08
1.7074e-08
7.60026e-07
4.99215e-08
-4.17912e-08
-0.0191362
3.6331e-10
1.15081e-07
-9.33861e-07
1.80596e-08
1.24469e-08
-8.08972e-09
3.05021e-08
0.000252148
-4.10149e-09
3.38926e-08
-2.84547e-09
-9.80198e-09
-9.40092e-09
-1.00955e-06
9.49301e-07
6.91255e-06
-0.00428942
1.83501e-06
0.0019589
8.99948e-09
-4.85334e-08
-0.000606112
3.7207e-07
7.67853e-06
1.82168e-09
5.77977e-09
1.56466e-08
-4.6083e-08
3.79155e-06
9.32276e-09
-0.000748917
1.73853e-08
0.00194881
-1.00733e-07
2.01357e-08
-4.18543e-08
4.69637e-07
-4.73064e-08
-2.64246e-05
7.37494e-06
4.19973e-09
-0.000292175
-5.27588e-09
0.000292667
1.5553e-08
4.72845e-06
-5.74879e-07
-1.93254e-09
-5.90839e-09
-0.000823828
2.18573e-08
-2.25759e-05
-0.000860907
-6.55092e-09
2.42475e-08
3.57671e-09
-3.86976e-06
0.00196156
9.07407e-09
0.00383871
1.16147e-08
4.3225e-07
1.14178e-06
5.91841e-05
1.10638e-08
-1.56312e-09
-1.75152e-06
-8.34323e-09
1.42798e-08
-4.46932e-08
-3.19086e-08
7.55042e-09
1.13399e-08
2.13879e-05
2.40963e-09
0.000207935
0.000252289
0.0010393
0.00312064
-0.00264753
0.000175638
0.000731945
-2.97174e-09
-6.12202e-08
1.1791e-09
-1.63221e-08
2.4806e-09
2.21532e-08
1.08731e-08
-6.53601e-05
1.11452e-08
0.000364943
-4.22393e-09
1.57272e-08
-1.46994e-06
-1.97149e-08
4.54366e-07
-6.87364e-09
9.9717e-08
2.08113e-08
1.17115e-07
0.00255903
-2.09169e-07
0.000138761
-2.79871e-08
2.25628e-09
-8.39372e-08
-2.53732e-08
0.00259954
-2.8033e-09
1.65749e-05
-1.1131e-08
0.000724617
4.76945e-07
-4.94746e-09
-4.68104e-08
-7.55634e-06
-2.53679e-09
-0.00125755
0.000399726
-2.19564e-07
4.75056e-07
-2.41343e-09
-1.15058e-05
2.07086e-07
-4.85864e-08
0.00018534
1.7042e-10
1.81037e-09
6.21914e-07
0.000209443
4.8068e-07
0.00110469
-0.00129646
6.72641e-08
-7.72914e-08
-3.31151e-08
0.000890732
4.50429e-09
-1.96625e-07
-4.35732e-09
0.000604616
2.08139e-07
0.00222231
1.82761e-08
2.10997e-08
0.000740916
5.63549e-09
-1.07408e-06
0.00263871
-7.78026e-08
3.16591e-09
0.00874317
7.85718e-08
-9.26232e-08
-2.95127e-08
-6.09931e-08
-0.00170819
3.23139e-07
-1.13741e-07
-2.16747e-06
9.5955e-09
0.000185907
-1.064e-08
7.37728e-08
4.25881e-10
-1.63749e-05
0.00103496
1.19089e-08
1.62057e-07
9.22208e-08
-4.07935e-09
1.27876e-07
-9.19175e-09
-3.68058e-08
-3.72141e-09
5.22102e-08
2.06004e-10
-6.06409e-08
1.98226e-07
0.00169746
-0.000131866
5.26963e-07
-7.84778e-08
0.000750677
6.70609e-09
0.0032384
0.00377913
-1.58005e-05
7.62042e-09
-3.15268e-09
3.12089e-11
2.91045e-08
8.11888e-09
9.78677e-08
3.69992e-09
-7.33296e-10
2.4372e-09
0.000304705
0.00465596
7.35998e-09
-0.000876967
1.44974e-09
2.25725e-08
-2.08912e-06
0.000119863
2.24718e-08
9.82051e-10
0.000744071
-6.29954e-11
1.04731e-09
1.19941e-05
-5.58533e-08
-0.0192932
1.73934e-09
0.000275538
-4.62991e-09
2.34617e-08
4.71057e-07
-1.92624e-05
-1.1705e-08
0.000368813
1.29456e-05
9.31149e-09
-2.80859e-08
3.91696e-09
-7.96416e-09
-1.82582e-07
8.52608e-09
3.59279e-08
7.19187e-05
0.000609774
-1.29914e-05
-2.93748e-07
-1.90968e-08
-5.35904e-05
3.04135e-08
0.000460645
-3.37444e-07
1.79666e-08
-1.39708e-08
0.000240191
-0.00502848
0.000253558
2.42154e-06
0.00392918
1.14698e-07
1.13175e-08
5.72475e-09
9.11513e-09
-5.27812e-09
-0.00011065
0.000269184
2.8158e-08
1.7831e-08
0.000379851
9.99189e-09
1.37969e-08
0.00786999
-0.000479342
-1.56228e-08
5.77623e-09
1.78919e-08
1.2603e-08
-1.67281e-08
2.79974e-06
-4.42436e-07
3.1622e-09
0.000505664
8.01981e-07
0.000331066
0.00275057
4.89506e-06
6.1975e-05
1.41376e-08
-6.21751e-09
-9.91613e-06
0.000166192
0.000542195
-1.39143e-05
3.40022e-07
8.06825e-09
1.24539e-09
2.54929e-07
9.87784e-05
4.05599e-06
-1.60182e-07
1.39921e-07
-1.44601e-08
-2.39716e-05
4.12597e-07
-6.21012e-07
-6.79574e-08
4.69515e-05
0.00217137
0.000889347
-0.000253312
1.27564e-08
0.000199268
1.57988e-08
-2.6132e-07
-5.3801e-07
0.00111284
1.54756e-08
5.7052e-08
3.28745e-08
-4.42803e-05
-9.54561e-08
0.00103596
1.3952e-08
-1.05493e-06
0.00154684
6.11759e-09
-1.51234e-07
-6.48465e-08
2.91425e-08
1.27537e-06
0.000167357
5.51186e-08
2.05742e-10
-1.27734e-08
0.00130142
4.65798e-09
-7.84876e-08
1.5958e-08
-2.23228e-08
-1.45286e-08
-1.37696e-06
-9.99756e-08
-1.53989e-07
-2.72099e-08
1.09842e-05
-6.3581e-06
-1.84926e-06
0.000428125
1.22423e-08
5.63092e-09
-0.00829749
3.72118e-08
-1.01191e-07
-0.000393156
8.47092e-06
2.40588e-06
-2.88873e-07
-4.64516e-07
0.00024086
2.8693e-05
6.58081e-07
-0.00303502
-2.75003e-08
-3.29764e-07
0.00109177
-7.05773e-07
0.00319613
0.000255072
2.24927e-08
-3.54443e-08
5.31784e-09
-1.74624e-08
-2.96502e-08
1.55523e-06
1.51067e-09
-3.13112e-08
-5.39471e-09
-5.425e-08
0.000234805
-7.0858e-08
0.0007029
0.00104878
6.27448e-09
-1.10271e-07
-5.15964e-07
-5.59327e-08
-8.79655e-09
-8.66892e-05
3.4527e-07
0.000310435
1.15953e-07
0.00760152
-1.08148e-06
7.6131e-08
0.00181115
1.08085e-08
1.04656e-06
-4.70717e-09
2.21185e-05
-8.6014e-09
-1.12471e-08
1.3252e-06
-3.83513e-07
8.13759e-09
1.51615e-07
0.00306401
5.07021e-09
-6.737e-06
0.00084636
1.82376e-08
4.15985e-09
4.97427e-06
-0.000224605
0.000136503
1.21119e-08
1.64296e-08
8.26235e-05
0.000176636
-2.34671e-05
-5.52007e-09
1.515e-09
3.08342e-08
2.83637e-09
4.05219e-08
-1.74558e-07
3.25687e-05
-8.3574e-08
1.04228e-08
0.000143803
2.38712e-05
5.58962e-07
-0.000493848
0.00768347
1.32419e-08
1.19458e-09
1.57677e-09
-5.95526e-08
-1.14024e-07
0.00290835
-0.000295793
-1.63972e-06
1.99064e-07
1.06683e-07
1.46488e-08
-6.13769e-05
-6.87989e-08
1.86808e-07
2.66758e-08
-8.30911e-06
-3.53654e-05
1.46217e-08
1.1766e-08
0.000176558
-4.87556e-08
6.32358e-05
0.00229591
-2.13949e-06
-3.10838e-08
3.4264e-05
-1.40492e-08
1.16892e-09
0.000367754
-0.00151144
3.68401e-08
2.385e-06
1.11914e-06
4.31228e-07
-1.34348e-09
8.71467e-09
5.00265e-09
-1.26233e-08
-6.39058e-09
4.74521e-08
7.85172e-08
0.000118243
4.43043e-07
2.02468e-08
2.76492e-08
-9.70696e-07
-1.76925e-08
9.19471e-07
4.87441e-05
-1.44099e-06
-4.39776e-05
-5.03991e-08
5.16679e-09
-5.01168e-05
1.48435e-09
0.000295613
-5.20122e-10
4.54997e-07
-2.103e-08
1.63646e-09
-6.92383e-06
3.34269e-08
-5.29426e-09
3.18347e-09
-0.00108489
-5.0931e-05
0.000376096
2.43554e-10
-2.07273e-08
0.000624042
7.73263e-09
-7.17162e-09
-2.0911e-06
0.00243765
9.07186e-08
2.25233e-08
-1.50392e-09
0.00301362
-2.35862e-09
5.21863e-07
8.02493e-09
3.91597e-09
-1.0838e-06
-1.64891e-09
-1.20265e-08
-0.000248862
4.6757e-08
0.00103085
-1.02867e-05
2.06496e-09
2.52335e-08
-6.10895e-09
-3.31013e-08
-1.26878e-07
-5.62726e-10
-1.94957e-08
-9.68924e-07
-6.72915e-09
-2.67737e-07
7.19494e-07
-3.15221e-05
1.33354e-08
-1.20281e-05
7.99643e-09
-9.13184e-05
-2.15035e-09
-2.92221e-05
1.52145e-07
-2.28689e-09
1.2029e-07
2.51814e-08
2.48624e-08
-1.08126e-09
-4.13274e-06
9.5572e-09
1.50471e-08
-0.000105229
-1.90684e-06
5.07253e-06
5.48296e-09
-2.4322e-08
-3.35742e-07
7.39081e-06
-1.30729e-08
-0.00037165
-2.9143e-08
8.48163e-09
-2.84494e-09
-1.18163e-08
-4.92664e-08
-1.47241e-05
-0.00381875
1.16694e-06
5.01502e-05
-2.23211e-05
-1.19077e-06
7.45879e-08
-0.000130749
-5.72838e-09
1.09606e-08
3.26527e-08
0.000195992
-4.81329e-09
0.000291068
2.74125e-08
5.84204e-09
-2.02792e-06
-5.12622e-06
0.000191401
-0.000558919
3.0009e-08
-3.76382e-06
-2.80051e-06
-2.56633e-08
-0.000139976
2.85142e-09
1.19518e-08
0.00304501
-1.19499e-08
0.000181318
-0.000836871
-9.62432e-09
-3.43815e-09
-1.00887e-08
0.00234102
3.55675e-09
8.99971e-09
1.60997e-07
1.51827e-09
-1.27204e-08
-4.51066e-07
-3.18209e-08
6.62243e-08
1.48689e-08
-7.35026e-07
-1.67156e-09
-0.000123611
-2.59159e-05
-2.48225e-09
-2.80432e-09
-1.71957e-08
-3.07578e-09
1.06443e-08
-4.14097e-08
1.10302e-08
1.62172e-08
1.26719e-09
-4.52705e-08
-1.60284e-08
4.54021e-06
-1.33348e-08
4.29475e-07
-4.24829e-08
-3.15701e-06
1.54517e-08
-2.14622e-08
-1.34916e-08
-3.78742e-09
5.70134e-07
4.47857e-07
1.65925e-08
0.000484971
-3.97772e-06
0.000577061
-0.000446361
4.45223e-07
0.00260177
-2.09519e-08
-1.46982e-08
9.85569e-05
0.000199865
-3.79679e-07
0.000360783
4.0242e-09
-5.46836e-07
0.00167524
8.78876e-09
2.80265e-07
0.00161681
-0.00776235
-1.42681e-09
6.83446e-08
7.55056e-09
0.000526163
1.06729e-08
-0.000358433
0.000430919
-2.19778e-08
-2.34943e-05
-7.49574e-05
5.7865e-09
0.000573908
0.000300029
-4.62376e-08
-1.01621e-10
0.00022372
8.45461e-05
-2.79238e-08
2.78199e-08
4.49031e-08
5.18e-05
-2.00514e-06
5.17474e-09
1.32666e-08
0.0006696
-2.48914e-08
6.36332e-09
4.60631e-09
-1.01087e-09
0.000868608
5.10747e-07
2.24618e-08
-7.16758e-05
-6.02451e-09
2.79595e-06
9.90313e-09
0.000125327
-2.00434e-07
0.000179314
1.62874e-08
2.01344e-08
1.04739e-08
8.17357e-09
1.60985e-08
2.29148e-09
0.000696518
-4.51051e-08
-5.87884e-09
5.81389e-09
0.000119812
1.2094e-10
-0.00473926
0.00119165
0.00742691
-8.20341e-09
-1.99762e-11
-1.89577e-09
0.00161672
7.24426e-09
0.00213364
-2.54561e-09
-0.0100137
-7.3557e-08
9.82247e-08
-5.32475e-05
2.13149e-08
8.21305e-09
0.000141295
1.2271e-06
0.000276346
6.33296e-08
0.00155033
-0.000144087
2.56182e-08
0.00032475
3.14886e-08
3.11252e-07
0.00604623
2.70653e-08
-1.81729e-06
0.000235753
-1.08818e-06
2.78224e-07
1.13258e-08
0.00207892
5.65711e-09
-0.0036522
-2.63062e-09
0.00033479
7.06445e-09
3.0698e-09
-4.96568e-07
0.0037022
-1.02926e-08
-1.66834e-06
-5.23473e-08
-0.00019219
1.68348e-09
8.30802e-08
-8.87887e-05
-2.96652e-05
0.000720338
-4.49401e-07
1.64011e-08
3.85215e-07
-0.0080013
-1.93517e-07
-0.000576967
1.91823e-08
1.93103e-07
0.00026643
-9.37886e-09
3.55963e-07
-2.62448e-09
0.00237645
-0.000333999
-9.32608e-09
-1.27397e-07
-0.000447028
0.00669774
4.01369e-09
-3.99799e-10
-1.26276e-09
2.60112e-08
-0.00138743
-3.84045e-07
2.93288e-05
4.48927e-08
6.98369e-08
0.000106341
1.03019e-05
0.000498356
5.90442e-05
2.51623e-09
1.57011e-09
-3.34095e-06
0.000490243
0.00330258
0.00341451
2.60135e-07
6.7726e-07
-1.25331e-05
-0.000750486
0.00123023
0.00532083
-6.95082e-12
-2.18459e-07
-4.8192e-08
-6.0051e-07
-1.11804e-08
1.75464e-08
-3.23308e-07
-5.63023e-06
0.00532081
1.58729e-07
0.00827347
4.66577e-07
1.62404e-06
4.88258e-09
5.27645e-09
-1.91649e-05
8.73252e-09
0.00147251
9.08412e-08
-7.98501e-07
-6.36433e-06
0.000214824
-2.01371e-09
1.86702e-08
2.58607e-08
-1.49196e-08
0.00298042
4.20878e-06
0.00259842
1.95897e-08
0.000359201
-4.20478e-05
-3.10763e-06
-5.92648e-09
9.95378e-08
-1.00452e-06
2.26875e-05
-1.62584e-06
1.80874e-07
-0.00180766
-0.00222591
6.72823e-09
5.28123e-08
1.48869e-07
1.03001e-06
0.000293562
9.47498e-09
-7.15566e-10
-1.82496e-08
5.92151e-05
0.000113112
4.1649e-08
1.20125e-07
1.01752e-06
1.61518e-09
0.000134055
-1.79093e-07
0.00257922
7.2392e-07
-0.00291829
0.00161502
2.30066e-08
-2.62175e-07
-0.000401435
1.92521e-09
2.32029e-06
-0.000246799
7.22804e-09
1.25876e-06
1.45744e-08
7.60543e-08
0.000541892
0.000827948
1.16329e-08
-0.022957
-0.00113473
-1.03114e-08
-1.01182e-06
1.81976e-08
-2.08731e-06
0.000718285
-5.70235e-05
0.00237733
-8.48993e-07
-0.000142389
9.85503e-08
-8.48236e-08
1.22778e-08
1.55857e-08
-1.73022e-08
8.24804e-09
-3.2509e-05
-6.21391e-06
4.48466e-08
-2.82604e-06
-2.78216e-06
1.18068e-09
0.00279978
-0.00103406
-1.78654e-07
1.08664e-08
1.04555e-08
-2.2387e-08
5.57897e-08
5.13673e-09
0.00691916
2.47756e-08
-2.79266e-07
-4.47009e-07
-5.44891e-07
-8.17718e-06
-1.21057e-06
0.0074262
-1.44992e-08
-3.13015e-08
4.86521e-08
2.5575e-08
0.000379114
-1.42312e-07
2.76038e-09
0.00878025
3.19014e-08
5.60237e-08
-1.24779e-06
1.02534e-08
-2.99609e-08
-2.75662e-07
2.47692e-08
0.000258665
6.31976e-05
0.00194285
3.05154e-09
-0.002835
4.36679e-10
-0.000331811
-1.05416e-09
9.89771e-07
0.000483253
8.31475e-10
1.50123e-05
0.00037095
5.6929e-07
-2.49597e-10
6.7844e-09
1.79678e-07
0.000680028
2.79236e-09
1.37678e-08
8.10616e-09
5.00863e-09
-2.76871e-06
-1.82943e-09
3.57146e-08
1.61193e-09
-1.37911e-09
-0.000485702
1.28097e-08
4.11252e-07
1.12356e-06
-1.71468e-05
-0.000580179
-0.0194865
3.20174e-09
6.24905e-08
-0.000199036
-9.72132e-09
2.65189e-07
8.21977e-09
-0.000133619
-1.9051e-08
-6.77738e-08
-3.13281e-07
-0.00023921
2.42508e-09
1.72558e-08
-4.23574e-09
2.72458e-07
0.000421452
-1.37385e-06
3.04003e-09
4.50501e-08
3.86396e-09
-9.31788e-05
1.20777e-08
-0.000689867
5.65465e-08
2.73509e-08
4.82683e-05
-1.37051e-06
3.12371e-05
8.32184e-09
-5.50884e-09
1.2413e-07
-5.83106e-07
-2.40544e-06
1.4593e-08
1.54364e-08
-5.96746e-08
0.000124428
1.0298e-09
-2.92117e-09
0.000127575
-7.80334e-08
7.56266e-06
1.49572e-08
-1.69343e-08
4.7005e-08
-0.00359693
1.42257e-08
0.000894839
0.000237334
-1.27243e-09
-0.00462966
-2.20104e-08
-8.81717e-07
-8.5082e-08
-9.25311e-10
-9.2332e-09
5.72344e-09
4.18124e-09
0.00109457
5.29194e-08
-8.54308e-05
-0.000359595
1.06584e-08
3.46149e-05
7.0447e-07
0.000383782
-1.45351e-09
-0.00162194
0.00018001
0.000785427
7.84407e-12
-9.68071e-10
-5.08864e-09
0.000333833
-0.000134247
-7.7108e-07
2.94959e-09
2.39955e-08
0.00608815
1.44622e-08
5.63372e-10
-1.32859e-08
-4.60064e-07
-4.64654e-05
-4.12165e-09
-8.16056e-05
2.8794e-07
4.62344e-09
0.000441779
7.67035e-08
-0.00571118
-0.0220529
5.7524e-07
1.11019e-07
-2.44137e-09
-5.19587e-07
1.71729e-08
-1.94664e-08
1.37252e-06
1.90657e-08
1.30359e-08
-9.62897e-06
0.00132952
3.64562e-09
-1.47265e-06
-0.00265728
-0.0201307
1.28637e-08
-7.45157e-09
-3.70589e-05
0.00159845
1.77762e-06
2.95547e-09
-0.00413959
-6.94133e-08
-6.40126e-10
0.000182242
1.27871e-07
2.73985e-08
-6.8248e-05
-2.28015e-08
9.98189e-08
7.46509e-09
7.34099e-09
-1.77553e-08
-4.36129e-09
-0.00150467
1.32011e-09
-1.3664e-09
1.34903e-07
1.59458e-08
-2.40802e-07
9.27599e-07
1.26933e-08
3.49741e-09
-4.73602e-08
-3.78858e-08
2.85815e-05
3.3499e-05
-2.2703e-05
-0.0230087
6.16129e-07
0.000717932
7.67358e-06
-0.000422064
-0.00136097
-0.000722168
1.10988e-09
-1.16393e-06
1.83386e-09
2.1976e-08
3.03651e-08
-5.79075e-09
-1.42534e-06
-1.92528e-08
1.56298e-06
-1.63012e-09
2.53969e-09
-3.70066e-08
8.26014e-09
2.82174e-08
2.28056e-08
-3.38472e-05
1.65646e-07
0.000195516
2.43744e-09
-7.07145e-05
8.35432e-09
-3.65291e-08
3.67405e-08
5.15372e-08
-8.93485e-09
-3.80153e-07
0.000291949
8.73949e-07
2.12681e-05
-0.00259623
2.20013e-09
6.85564e-08
0.00148638
-1.21015e-06
-3.51426e-08
1.35448e-08
4.59069e-09
-0.000403147
9.32463e-09
-1.40495e-06
1.5818e-05
-2.8544e-07
0.0156468
0.0130471
1.70437e-07
0.00301068
-3.74892e-08
-1.29642e-09
0.000259181
0.00273387
-1.05026e-08
1.09817e-08
-0.00246691
3.81355e-11
-7.10659e-06
-2.92352e-10
1.44138e-08
-1.09123e-07
6.24904e-09
-2.12104e-07
3.27313e-06
0.000297976
1.55893e-08
1.71133e-09
-6.55515e-07
-1.04424e-08
-8.2405e-07
7.4052e-09
-1.03533e-06
-2.19781e-07
2.51788e-08
2.32003e-08
-9.06163e-09
-1.6393e-06
2.00476e-06
-2.62387e-06
0.000865132
1.41025e-07
0.00069009
1.16326e-07
-3.75981e-07
0.000946265
-1.48553e-09
-0.00041341
-1.31274e-08
-9.1255e-06
-7.06883e-05
-0.000238015
-0.00234306
1.01924e-08
-2.16113e-07
0.000297636
-3.93743e-09
0.000268329
1.42293e-08
-7.31129e-09
1.64788e-08
-2.64316e-10
2.7648e-08
1.24532e-05
0.000592685
0.00691433
3.29161e-08
8.70937e-07
-4.59688e-08
5.1471e-08
1.16848e-08
-1.60196e-06
4.14311e-07
-0.000312492
1.43034e-08
-7.58981e-09
-4.98688e-09
1.09588e-08
1.40079e-06
-2.15613e-07
-1.39914e-08
2.9755e-08
6.45254e-07
2.83882e-08
3.52508e-07
-6.45167e-07
-0.000485541
1.53589e-07
3.07985e-08
7.41658e-10
1.6825e-08
3.20566e-05
0.000835505
2.02581e-06
9.94103e-09
0.000521467
2.10001e-08
8.08734e-09
-3.34648e-08
0.000233194
-0.000702718
7.43408e-07
5.22676e-10
0.00156717
1.89508e-08
1.05311e-09
-1.4318e-08
0.00357701
-0.0011215
2.49007e-09
0.000682862
-0.00247171
7.07031e-09
-3.37417e-06
-2.92823e-07
0.00244818
1.72094e-07
-0.000626902
3.45968e-08
2.88477e-05
1.04836e-07
0.00289961
2.00007e-08
2.7216e-09
5.26344e-05
-9.00038e-10
-3.71293e-08
0.00373952
0.00265572
-1.501e-05
4.62089e-05
1.3982e-08
-5.14545e-10
-0.00213431
-2.23958e-09
3.09777e-09
9.43192e-09
-6.39702e-08
-2.38971e-09
-1.08983e-06
8.3099e-09
-0.000862541
0.00126173
1.39989e-09
0.000342259
6.07509e-09
0.000256915
0.000101539
1.15581e-08
9.25811e-09
1.53333e-08
-0.000455176
-1.70218e-06
-1.31776e-07
0.000278687
0.00013526
-0.00364508
-2.12643e-07
0.00174906
-9.85931e-05
8.57498e-06
0.000100835
2.36651e-08
-4.38973e-09
3.17894e-09
1.68457e-08
1.82037e-09
3.22702e-08
0.00037134
-2.97162e-07
2.73733e-05
0.00228567
-0.000255849
0.000735808
-0.000704831
9.95237e-07
0.00154902
-6.66305e-08
9.19026e-08
2.33411e-10
-2.04401e-08
2.62259e-07
0.000179647
-2.28629e-07
-5.49702e-05
-0.000314
-4.53054e-10
1.02241e-08
3.31e-08
-1.2918e-06
2.40245e-08
-1.62966e-07
-0.000462675
6.42624e-09
2.81358e-09
3.29532e-09
-1.22815e-08
-1.02541e-07
0.000317973
6.94195e-07
0.00395735
-1.41674e-06
6.0976e-09
0.000629735
-1.58964e-06
2.76104e-09
2.25554e-05
0.000646567
-0.000300528
0.00118834
0.000347495
-7.49929e-09
0.00222025
0.000368211
-2.90761e-06
0.00175723
3.33526e-08
-1.03966e-07
-2.18363e-08
9.68751e-09
0.000831484
-2.16575e-07
4.97725e-09
7.49512e-08
0.000128486
0.000311828
-1.3539e-07
-1.52488e-05
0.00110687
-0.000704239
1.6474e-08
1.57108e-07
-1.00814e-06
-3.61438e-09
4.39634e-09
0.00148008
-1.13828e-09
1.46507e-06
0.000243239
0.00241847
-7.24063e-09
-4.22092e-08
2.23895e-06
1.26413e-08
4.97482e-09
-0.00302621
0.00293106
2.47587e-08
-1.14081e-06
5.21848e-07
-1.87175e-06
0.000207234
0.000373077
4.88392e-08
0.000853321
0.00127935
6.47151e-08
1.6492e-09
-2.72627e-06
1.02278e-10
1.04295e-08
0.00030393
6.30054e-07
-9.15774e-07
1.10124e-08
-1.58156e-07
5.54047e-09
9.08525e-09
1.79556e-09
7.16497e-10
0.000576954
8.162e-09
-8.99879e-05
2.76308e-05
4.69788e-08
2.00161e-07
0.000810082
0.00207849
0.000666549
1.78303e-07
1.53656e-08
5.88332e-08
4.7595e-08
-4.12011e-06
-0.0022683
3.44684e-09
0.000465823
0.000123468
8.91381e-08
2.67098e-07
2.82179e-07
1.32773e-07
-8.41868e-08
-8.30317e-10
-4.93369e-07
-1.32409e-06
-1.67755e-06
-2.37757e-06
-5.43253e-07
1.59136e-07
-1.34636e-06
-1.41842e-09
2.14367e-08
4.34951e-07
-8.84506e-09
0.0425896
0.00215507
-2.43314e-06
0.000112974
1.26474e-08
-3.57121e-09
6.32559e-05
-0.00256139
1.41255e-09
-1.69994e-07
-8.02087e-08
0.00979129
-0.0227453
6.62659e-09
-1.46129e-06
2.52913e-08
-0.000307141
0.000442891
1.31557e-08
-0.000734025
0.000340333
9.28092e-07
-0.00113012
-8.13036e-07
-0.000999855
0.00136181
1.86399e-09
0.00330608
-2.64967e-05
-4.61464e-08
-5.37249e-07
-1.33411e-06
3.46324e-07
4.04745e-09
-0.000951579
0.00670092
3.93144e-08
3.63454e-08
0.000219519
5.10674e-05
-8.08934e-07
-1.51501e-08
-6.03167e-06
2.40897e-08
-0.000164157
-5.81905e-05
1.09411e-08
1.60043e-09
4.55704e-10
-8.56582e-09
-0.001189
0.000393615
-0.00034324
3.20562e-07
-5.59398e-05
0.00464212
5.20944e-09
8.01302e-10
0.000279161
2.54719e-08
0.000704939
1.3325e-08
-0.000963105
-2.02595e-09
2.38358e-08
9.75299e-05
1.01237e-10
6.27043e-07
-0.00468627
4.14205e-09
8.95822e-09
-1.63359e-09
-1.63722e-06
0.000368317
-4.42628e-06
0.000117415
4.51959e-09
-1.02392e-09
1.98107e-08
-7.00542e-07
0.00316962
0.00888951
-1.43113e-06
-1.87597e-06
4.46899e-07
-0.00302466
-6.15091e-06
-4.00101e-09
5.47459e-09
2.44745e-11
3.04505e-06
-1.04452e-06
-0.00360088
8.05595e-07
-3.86386e-07
-9.59841e-09
0.00043993
0.00134922
-0.000446259
3.62798e-09
-1.89426e-09
8.27256e-09
0.000293839
-1.46954e-07
0.00574091
0.000120109
6.78099e-07
-3.79311e-05
-2.85641e-09
4.04487e-08
-3.20518e-06
4.7187e-05
9.37676e-07
-1.03334e-09
1.66455e-07
5.45331e-08
9.62095e-11
-1.72478e-06
-0.0203708
0.00114188
3.31604e-08
-1.13385e-06
-1.26724e-05
-0.00017431
0.000351405
-0.000369959
0.00305396
-2.45806e-08
-1.82778e-07
5.78742e-08
-3.02969e-07
3.56836e-08
-1.70198e-06
2.36955e-07
-1.15714e-08
-0.000372391
-0.00311982
1.5045e-08
-5.52436e-07
3.54872e-06
-3.24218e-07
1.96846e-07
0.0038667
-3.10878e-07
8.38992e-09
1.62906e-07
0.00166049
4.93494e-08
-1.48652e-06
5.1005e-05
-0.00178189
0.000237289
3.19294e-09
-0.00158657
0.000218461
-0.00790782
0.00015927
2.29079e-08
7.44259e-07
9.48199e-07
-0.000472024
-1.90158e-05
8.47885e-10
0.000142222
-8.82279e-06
0.000716816
7.83623e-08
0.00535508
4.39032e-06
0.000943911
1.71682e-08
0.0133552
-1.23322e-08
0.000235718
-2.70187e-06
-0.00120388
0.000173319
4.06723e-11
1.15553e-08
0.000351263
0.0031571
6.55914e-06
-1.01329e-09
8.86961e-07
-1.57587e-07
-0.00280474
-4.23312e-06
-5.24496e-05
6.625e-08
-8.59527e-05
-1.89034e-06
0.00256562
8.6034e-10
-1.83618e-06
0.0059635
4.96829e-09
-1.66316e-07
-2.90893e-09
1.21957e-08
1.33578e-08
0.000826931
1.13443e-10
9.18558e-09
0.00103607
0.00231511
1.16942e-09