/*--------------------------------*- C++ -*----------------------------------*\
| =========                 |                                                 |
| \\      /  F ield         | OpenFOAM: The Open Source CFD Toolbox           |
|  \\    /   O peration     | Version:  v2012                                 |
|   \\  /    A nd           | Website:  www.openfoam.com                      |
|    \\/     M anipulation  |                                                 |
\*---------------------------------------------------------------------------*/
FoamFile
{
    version     2.0;
    format      ascii;
    class       surfaceScalarField;
    location    "300";
    object      ddtCorrDdt0(phi);
}
// * * * * * * * * * * * * * * * * * * * * * * * * * * * * * * * * * * * * * //

dimensions      [0 3 -2 0 0 0 0];
oriented        oriented;


internalField   nonuniform List<scalar> 
20642
(
0.000126
0.000187296
-0.000313388
0.00345607
-0.00153166
-0.00192441
-0.000233794
-0.000594446
0.000828244
-3.14854e-05
-1.93223e-06
3.34203e-05
0.00281399
-0.00318854
0.00037456
-0.000284949
0.00374102
-0.000119733
5.51146e-05
6.46185e-05
0.011582
-0.00185115
-0.00973087
6.07552e-06
6.74096e-05
-7.34839e-05
0.000532502
-6.68645e-05
0.00149164
0.0100904
1.80988e-05
8.12688e-06
-2.62246e-05
1.92578e-05
-1.9258e-05
-0.0127959
-0.0285552
0.0413512
-0.000435929
0.00141472
-0.000978773
-6.39407e-06
0.000132366
7.46845e-06
-7.0621e-06
-4.05932e-07
-0.00965633
0.00259463
0.00706174
9.19644e-05
0.000311688
-0.00040365
0.000838122
0.000247813
-0.00108599
0.000603642
0.000537657
-0.0011413
7.3257e-06
1.49361e-05
-2.22608e-05
0.000221922
-1.19967e-05
-0.000209925
-2.66326e-05
3.39596e-05
-2.80938e-05
8.22588e-06
1.98668e-05
-0.00130068
0.00142764
-0.000126969
0.0143513
-0.0218024
0.00745126
0.000532454
-0.00493148
0.00264267
0.00228887
5.74904e-05
-7.91674e-05
2.16762e-05
8.62755e-06
0.000523754
9.19058e-05
-4.90143e-05
-4.28903e-05
6.19788e-06
1.63804e-05
-2.25763e-05
0.000370977
-0.000456397
8.54135e-05
-0.000180224
6.65399e-05
0.000113683
0.0120646
-0.0139158
0.000192162
-1.93005e-05
-0.000172858
2.27518e-05
-3.98463e-06
-1.87668e-05
-6.39476e-05
-5.57833e-05
-0.00101103
0.00107274
-6.17075e-05
-6.13654e-06
4.57814e-06
1.55855e-06
-0.000290988
0.000615973
-0.000324987
-9.94499e-05
3.85297e-05
6.09203e-05
-0.000220421
4.5831e-05
0.00017459
-0.000117427
-0.000102991
0.000986204
0.00170816
-0.00269432
-0.000315862
0.000919502
0.00797996
-0.00411554
-0.00386461
0.033439
-0.0172001
-0.0162388
-0.000107533
-7.26904e-05
2.52296e-05
-7.13048e-06
9.96421e-05
-0.00147532
0.00137569
-0.00051375
-1.49537e-05
0.000528704
-5.0368e-05
5.4605e-06
4.49092e-05
-2.14235e-05
5.90609e-05
-3.76353e-05
0.00100411
-0.000904467
8.63425e-06
2.89954e-05
0.000192926
-0.000389547
9.85597e-05
-0.00266984
0.00365607
0.017959
-0.019658
0.00169902
0.00479
-0.00227465
-0.00251534
1.33275e-05
-1.65442e-05
3.21655e-06
-2.23236e-05
-5.77112e-06
-0.000709138
-0.000227379
0.00093651
-0.0014437
-0.00524537
0.00668907
0.00283197
-0.00595346
0.00312156
0.0106774
0.00138714
-0.00816467
-8.32619e-05
-0.00031987
0.000403122
-0.000214732
-0.000849169
0.00106389
6.82769e-05
0.0003027
3.22976e-05
-4.5796e-05
1.34975e-05
-0.000253674
-0.000135873
-0.000574907
0.00111257
-8.36937e-06
3.57898e-05
-2.74219e-05
0.000563186
-0.000977014
0.000413832
-0.000235623
-1.80499e-05
1.32246e-05
-2.15941e-05
1.84894e-05
-1.2289e-05
-5.37523e-06
8.72463e-05
-8.18694e-05
-9.93778e-06
9.5585e-06
3.80018e-07
-1.1832e-05
4.41283e-05
0.00127976
-0.00105275
-0.000227014
-6.26204e-06
-2.00083e-05
2.62708e-05
0.0160112
0.00345627
-0.0194675
3.37038e-05
5.82026e-05
-3.19751e-05
2.88442e-05
3.13075e-06
-0.000708468
-0.000302571
5.04038e-06
2.42836e-06
-5.12445e-06
2.76504e-06
2.36002e-06
-5.01385e-05
0.0113836
0.0220553
-9.43507e-06
6.59076e-05
-5.64731e-05
-8.518e-05
8.08436e-05
4.33806e-06
-0.00209947
0.0183027
-0.0135162
-0.00478643
1.39578e-05
-1.33461e-05
-6.10883e-07
-9.26863e-06
-2.27067e-05
0.00683206
-0.00798897
0.00115691
9.20685e-06
-9.56484e-06
3.60905e-07
9.54625e-06
-3.39359e-07
8.80389e-05
-9.34134e-05
1.41777e-05
-1.5751e-05
1.57361e-06
0.000782416
-0.000219228
0.00103041
-0.000544048
-0.000486354
-0.00288169
0.000239901
0.00264163
-0.000941135
0.00573113
0.000221041
0.000394932
0.0256495
-0.0112982
9.69544e-06
-6.6576e-06
-0.000495277
3.88753e-05
0.00377315
-0.00113045
0.000385808
-0.00109495
-9.15363e-05
4.87545e-05
4.27803e-05
-0.000249622
0.000341587
5.36786e-06
3.38372e-06
-8.75131e-06
5.71475e-05
0.000468437
-0.000525572
-1.88889e-05
-1.93333e-05
3.82222e-05
-1.85753e-06
-8.0797e-06
0.000172182
-0.000102706
-6.94743e-05
-0.00236643
-0.00358701
-7.86908e-05
-0.000444743
0.000523435
0.000666183
-4.65391e-06
-0.000661529
0.000421624
0.000858159
2.28788e-05
-2.42536e-05
1.37486e-06
-0.00139219
0.000817289
2.78132e-05
-5.47059e-06
-2.23415e-05
0.000363479
-0.00044217
0.000103916
1.5345e-05
-0.000119261
0.00635587
-0.00159802
-0.00475785
0.000360346
0.000281638
-0.000641975
-6.40566e-05
-2.74815e-05
1.89044e-05
-1.28743e-05
-6.03051e-06
0.0165463
0.00910319
-0.018276
0.0145229
0.00375317
-0.000654977
0.000597545
5.74346e-05
-0.00197013
0.00174284
0.000227295
2.27518e-05
-0.021416
0.0082121
0.0132044
-8.00363e-05
-0.000155586
0.000314408
0.000715999
-2.17814e-05
1.03199e-06
2.07504e-05
2.68429e-05
-4.31023e-05
1.62583e-05
0.0026403
-0.000859887
-0.00178041
-0.00106521
0.000850469
-0.0354424
0.000237071
-0.00421547
0.00397826
-5.13581e-05
9.91837e-07
0.000819164
-0.000537632
-0.000281541
1.00764e-05
-1.20418e-05
1.96467e-06
3.98365e-05
-1.29932e-05
-0.00467394
0.0229766
1.81598e-05
-0.000298865
0.000280707
1.39352e-05
2.42669e-07
-0.000168119
0.000524452
-0.000356326
-6.3792e-06
6.49021e-06
-1.10894e-07
7.66136e-06
-2.2935e-06
-1.52905e-05
-1.48862e-05
3.01776e-05
-0.00329236
0.00122308
0.00206933
-0.000449824
-0.000104935
0.000554764
-0.0089888
-0.00759936
0.0060191
0.00158017
0.0135404
-0.00555032
-0.00799003
-0.000513748
0.00895468
-0.00106457
-0.00788984
-1.59013e-05
-3.82972e-06
1.97306e-05
-0.00202522
5.50612e-05
8.70631e-05
-5.11069e-05
-3.59536e-05
-0.000886337
0.00058314
0.000303198
8.18761e-05
0.0141837
-0.00628433
-0.0078994
0.00108402
-0.000227852
-0.000856169
9.46196e-06
-3.20709e-06
-6.25514e-06
-3.03838e-05
-1.10065e-06
0.000274399
-0.00186985
0.00159546
-1.82737e-05
0.00012219
-0.000605274
0.000155449
-9.29693e-05
6.55809e-05
2.73887e-05
6.0431e-05
2.03618e-05
4.8682e-06
-0.00117991
0.00156931
-0.000389392
-0.000589674
0.00064683
0.0053543
0.00100153
-5.30085e-06
2.56632e-05
-0.00209725
0.000917345
2.00348e-05
3.74557e-05
0.00269795
0.0133133
0.00115471
-7.0695e-05
-0.000192552
7.5125e-05
-0.00135118
0.00105763
0.000293535
-1.8512e-05
-0.000408667
0.000427117
3.7256e-05
-4.66905e-05
-0.00066454
8.88971e-06
0.000655651
-7.2195e-05
0.000119089
-4.68936e-05
-0.000227176
0.000587529
0.000118961
-5.24216e-05
0.000207934
-0.000189773
-0.000698315
0.000423454
0.00027486
-0.000193198
0.000369408
-0.000176212
-0.000677777
2.28067e-05
9.74995e-05
-0.000225438
0.000127946
0.0197669
-0.010837
-0.00892986
-0.00193297
0.000261139
0.00167183
0.000110696
9.21457e-05
-0.00120092
-4.22711e-05
0.000129518
3.81941e-06
-2.02041e-05
1.63857e-05
-0.00632264
0.004868
0.0014546
-0.00195237
-0.00437019
-0.00387853
2.95777e-05
-1.0673e-05
0.00044216
0.00119149
0.000109719
-0.00130121
2.63002e-05
-1.17194e-05
-1.45804e-05
1.1311e-05
-5.49409e-06
-5.81622e-06
4.69474e-06
6.61623e-06
0.00492326
-0.00163486
0.00131394
0.000320918
0.00166598
-0.00264374
0.000977796
2.0801e-05
-1.00106e-06
-1.97995e-05
1.50887e-05
-1.76113e-06
-0.00980371
0.02635
-0.000679492
-3.50907e-06
5.74865e-06
-2.23926e-06
-6.93707e-06
3.42817e-06
-2.86816e-06
-3.26834e-06
1.59295e-05
-1.12343e-05
3.72738e-06
1.22019e-05
0.000243595
-0.00017532
0.00208716
0.00165782
-0.00374524
5.34984e-05
-4.87622e-05
-4.73554e-06
1.47418e-05
6.81474e-06
-2.15558e-05
-0.000786291
0.000118923
0.000667372
0.000330781
0.000160281
-0.000491065
-2.6507e-07
-6.20226e-06
6.46754e-06
1.93138e-05
1.48671e-06
0.00903239
0.0107346
-0.000883966
0.00023994
0.000644033
-6.55523e-05
-0.000280245
0.00147173
-0.000933771
0.00186682
-0.000933039
-2.4243e-05
2.46245e-06
0.00674646
-0.00781105
-0.000159799
-0.000626492
0.0023324
0.00144075
0.000196623
-0.000254556
5.79342e-05
0.000178976
-8.14744e-05
-0.00179139
-1.83184e-05
3.4704e-05
-1.63833e-05
-0.000341838
0.000601294
-0.000259459
-0.000674445
-0.00042056
0.001095
6.35751e-05
7.9766e-06
-7.15488e-05
4.57815e-06
5.55043e-07
-0.00227967
0.000115593
0.00216405
-0.000198043
8.37279e-05
0.000114314
1.17725e-05
-0.00066598
0.000654209
-0.0506708
0.0348802
0.0157906
5.32162e-05
-0.000122899
6.96821e-05
-5.11725e-06
-1.8198e-06
-0.000230218
-6.86471e-05
4.31121e-06
-9.4285e-06
-3.76521e-05
1.12078e-06
1.81371e-05
3.04541e-05
-0.000275881
0.000245428
0.000197543
-0.000144326
-9.78709e-05
-0.000442061
-0.000255981
-0.00262579
-2.95029e-06
-2.53193e-05
2.82698e-05
0.00117618
-0.000506795
-0.000669388
-0.000323072
0.00419462
-0.00387152
3.04402e-06
1.906e-06
-4.9494e-06
-0.0052091
0.00700218
-0.0017931
-0.000676102
0.000687877
-2.12601e-06
5.17027e-06
-0.000419366
0.000336105
-0.000139873
-5.81699e-05
-0.000678145
-0.00261423
8.86539e-06
5.96615e-07
0.000362662
0.000482668
-0.000845327
-1.39109e-05
7.74887e-05
-1.34232e-05
2.60553e-05
-1.26289e-05
-0.00102358
0.000307532
0.000716053
1.98729e-05
-2.0333e-05
4.6053e-07
0.00554229
0.00799813
-7.5747e-05
0.000220644
-0.000144898
-6.25038e-06
0.00264655
-0.00605459
0.0128768
-0.00682215
-0.000587274
-6.80619e-06
6.54119e-06
0.000390304
-0.000362688
-2.76175e-05
-0.00303114
0.00210334
0.000927797
0.000117302
-9.6852e-05
-2.04493e-05
0.00113842
0.00167557
-1.38196e-05
2.70446e-05
1.24851e-05
7.24971e-05
-8.49832e-05
4.46649e-06
1.54076e-05
0.00231883
-0.00225136
-6.74696e-05
0.0114586
-0.00457818
-0.00688046
-0.000483349
0.00014151
3.53752e-06
-1.73578e-05
-1.6856e-05
-2.64267e-06
1.94987e-05
-0.000575968
0.000407855
-0.00029076
9.75474e-05
1.94541e-06
8.26923e-06
-1.02145e-05
0.00131446
0.00139722
-0.00271167
5.32446e-05
-0.0301018
0.0307395
-0.000637724
9.92522e-05
0.000104815
-0.000204067
-0.00239165
0.000494238
0.00189724
0.00643405
0.00774972
-0.00117443
0.00781192
-0.00663749
-0.00550894
0.00391089
0.000196165
0.000980009
-0.00138096
0.000328219
-0.0144917
-0.0156101
0.000384197
-0.000617991
-8.44163e-06
-1.08168e-05
-0.00104962
0.000613698
-0.0127699
7.39397e-05
8.26903e-05
-0.000156629
-0.00328939
0.00175773
-4.6703e-05
-0.000145847
-3.86179e-06
4.94395e-06
-1.0816e-06
-0.000428723
-0.000457618
-1.46839e-05
-1.58955e-05
3.05793e-05
8.88325e-05
-0.000112476
-5.37715e-05
8.64146e-05
-3.26394e-05
0.00196153
-0.00112346
-5.55771e-06
2.07088e-05
-1.51506e-05
0.000342649
8.78758e-05
-0.000430525
-0.00242299
0.000490022
-0.00638749
0.00521306
2.20003e-06
-6.06153e-06
-0.000174198
4.13832e-05
0.000132815
0.000151897
0.000418513
-0.000570417
-8.38804e-05
1.18472e-05
7.20362e-05
-8.58635e-05
0.000159804
1.75388e-05
-0.000512815
-3.27717e-05
-0.000548439
0.000581207
-0.00524662
0.0044544
0.000792239
0.0348629
-0.0476588
-1.65953e-06
-4.65842e-07
6.59935e-05
-3.25006e-05
-3.34921e-05
-0.000788734
0.000226136
0.000562608
-0.00209086
-0.00341809
-9.77333e-07
-6.81628e-07
-0.00189272
-4.30489e-06
-2.63798e-05
3.06846e-05
-0.000335857
-0.00273459
0.00307035
-0.0001407
-0.00109256
0.000745185
0.000347372
9.48984e-06
0.00206149
-0.00207098
-0.00550664
0.00029746
4.86449e-05
5.11855e-05
-9.98305e-05
-0.000267535
0.000486608
-0.00021913
2.04945e-05
7.31912e-06
-7.66428e-05
-7.23641e-06
-0.00113856
-0.00204999
-0.00110146
0.000618534
0.000482934
6.72637e-06
-3.635e-07
-6.36251e-06
0.000168775
-7.17199e-05
0.000120365
-0.0114223
0.025037
2.85396e-05
-4.99614e-05
0.00387144
-0.00127198
-0.00259946
0.00291375
-0.0015993
-0.0317003
0.00178017
0.0299201
-0.000341733
0.000564361
-0.000222628
-0.000431255
-0.0029929
-0.00134339
-0.00107958
2.20936e-05
-2.50436e-05
0.000558805
-0.000967723
0.00040891
-0.000212729
0.00021079
1.93982e-06
-0.00554574
-0.00205364
-3.72486e-05
0.000148908
-0.00049064
-0.0203166
0.000162818
-5.91404e-05
-0.000103674
0.0221652
-0.00347207
-0.0186931
1.7924e-05
-1.01536e-05
-7.76968e-06
0.00147623
-0.00122846
0.00871454
0.0134507
0.000123764
-7.90112e-05
-4.47502e-05
0.0138162
-0.0236198
-0.00127469
0.00521647
-0.00394206
-5.89773e-05
-8.57788e-05
0.000144758
0.00637728
-0.00285234
-0.00352494
-0.000229323
0.000236201
5.25742e-05
-7.48969e-05
2.23262e-05
-0.000427628
-0.000595943
4.36048e-06
-4.25849e-05
3.8225e-05
-0.00613905
0.00486419
-0.000717826
0.000123391
-2.39523e-05
-0.000101179
8.14181e-05
1.97612e-05
-1.63454e-05
1.98844e-05
-1.33885e-05
-1.42779e-05
2.76672e-05
7.55319e-06
1.18594e-05
-1.94115e-05
2.54027e-05
1.34791e-05
-3.88794e-05
-0.0107901
0.00523981
7.62116e-05
-4.22125e-05
-3.39978e-05
2.56729e-05
-4.29838e-05
1.73129e-05
2.84985e-05
-7.45538e-06
-2.1041e-05
-0.000484589
0.000216858
0.00026773
-0.0155494
0.00435625
0.0111932
1.08382e-05
-1.58741e-05
5.03647e-06
-2.25774e-05
6.67582e-06
0.000189972
-9.07186e-05
-0.000134235
0.00400567
-2.37563e-05
1.03338e-05
3.4473e-05
8.9292e-05
0.00329549
0.00373704
-0.00703256
0.00815448
0.0149509
-0.0231054
0.00829369
-0.00973739
-7.48005e-05
0.00038649
-0.00108101
-0.00029995
6.09453e-05
-0.000106737
4.57937e-05
-7.4804e-06
1.07046e-05
-3.22343e-06
0.000695241
2.26097e-05
-0.000717848
-1.26944e-05
2.02481e-05
3.35781e-06
6.14761e-05
8.53797e-06
2.16656e-06
8.29028e-05
-2.19566e-05
0.00323933
-0.00668562
0.00344636
5.10222e-05
-4.66599e-05
-0.000933103
0.000382505
0.000550594
0.000155054
-0.000597115
0.000216901
0.000173404
-1.59112e-05
1.9731e-05
1.40547e-05
2.57818e-05
0.00141593
0.00496136
-0.00014796
-0.000550357
0.000705089
-3.89071e-05
-2.1661e-05
-2.96407e-05
5.1304e-05
2.40521e-05
-1.0039e-05
-1.4012e-05
-0.000172114
-4.06146e-05
1.99803e-05
-1.6253e-05
5.2715e-05
0.000139452
0.000223617
-0.000124415
-9.91987e-05
0.0063176
-0.00302213
0.00203545
-0.00408259
0.00204713
-0.000569553
8.67413e-06
1.53783e-05
0.000145787
-0.000124881
-2.09053e-05
0.00418201
-0.00515195
0.000969935
-8.38955e-05
4.16247e-05
-0.00167524
0.000741483
-0.000296036
-0.00495053
2.34103e-05
-2.77139e-05
-0.0216212
-0.00857646
0.0301976
-1.08295e-05
2.36396e-05
-1.28082e-05
-2.54051e-05
7.75743e-06
1.76475e-05
2.15108e-05
6.98922e-06
0.000165037
-2.21788e-06
1.75173e-06
-1.68205e-05
1.50694e-05
2.16223e-05
-3.12214e-05
9.59928e-06
-0.00029433
0.0116746
1.57828e-05
-1.40305e-05
-0.0102629
0.00420829
-0.000134293
-3.64935e-05
0.00017079
1.39712e-05
3.47275e-06
-1.74442e-05
0.000456767
-0.000334644
-0.000122125
6.41172e-05
0.000107402
-0.00343891
-0.000980608
0.00441945
-3.35499e-05
0.000103295
-6.9745e-05
-0.000576819
0.00395117
-0.0201146
0.0161635
-0.00963381
0.013585
0.000164477
0.00256655
-0.000288375
0.00447038
0.00012
-0.0026055
-0.000355896
0.00296129
-2.41812e-06
-2.70602e-06
4.28144e-05
-3.73521e-05
-7.33326e-05
3.38092e-06
-7.76082e-05
7.42271e-05
0.000151645
-0.000796709
0.000645066
-0.000169048
0.000538148
-0.000369095
-6.23398e-05
0.000158646
-9.63052e-05
0.0022567
-0.00049285
-0.00176384
0.00126268
-0.00176948
0.00730877
-0.0047141
0.00184227
-0.00121011
-0.000632168
3.23725e-05
4.38403e-05
0.0125314
-0.0410866
0.000198228
-0.000196394
-1.83182e-06
-0.000182708
0.000106961
-0.00500791
0.00915923
-0.00415127
-2.21576e-05
0.00147638
0.000365883
-0.000403233
-0.00146662
2.6475e-06
1.59445e-05
-1.85902e-05
0.000633025
-0.000406083
-0.000226946
-1.13856e-05
-1.40192e-05
7.9173e-06
1.20632e-05
-0.000248383
-0.000236206
2.36445e-05
-4.53054e-05
2.03624e-05
5.93803e-06
0.000601829
0.001717
-0.000409196
3.66872e-05
-0.022223
0.0139814
0.00824168
1.27994e-05
-2.80895e-05
2.14464e-05
2.6597e-05
-4.80432e-05
0.000644765
0.000798893
-0.00144366
-0.00351762
0.000323677
0.00319397
-0.00429788
-0.000630185
0.00492807
5.21903e-05
-6.09121e-05
8.72451e-06
7.70336e-06
1.34912e-05
1.36093e-05
-2.70994e-05
-0.000371694
0.000804046
-0.000432365
-0.00623116
-0.0466815
0.0529126
1.42772e-05
-4.19959e-06
-1.00772e-05
1.26141e-07
6.60027e-06
0.000200253
7.68302e-06
1.13713e-05
-2.47587e-05
-0.00296076
0.00143414
0.00152662
-0.000147891
5.82158e-05
8.96751e-05
4.96534e-06
-0.000168034
0.000105695
-1.57348e-05
1.83833e-05
9.48154e-06
-1.08719e-05
1.39127e-06
-1.32754e-05
-3.07004e-06
0.00139365
-0.000567556
-0.000826042
-7.15168e-06
-2.72901e-06
9.88133e-06
3.35847e-05
-6.54527e-05
3.18678e-05
-0.000128369
0.000212096
0.000153236
-7.44875e-06
-0.00043803
3.85194e-05
0.000399511
0.00197585
0.00254152
-0.00451749
-0.000902299
-0.00395797
-1.78404e-06
6.55194e-06
-4.7698e-06
0.00494236
0.000360829
-0.000588
0.00524077
-0.00200161
-0.000419084
0.000574141
-1.94771e-05
2.24032e-05
-2.92582e-06
-4.1319e-05
3.31707e-05
8.14997e-06
-0.000186755
0.00244346
2.37668e-05
-7.25041e-06
-1.65136e-05
0.000597956
-0.00119338
0.000595431
-9.26633e-06
1.11726e-05
-0.0427084
-0.0485623
0.0912704
-9.04099e-05
1.82154e-05
0.000310501
0.00040351
-0.000714011
-0.000986751
-5.44396e-05
-0.0013798
0.000765243
0.000614245
5.77245e-06
1.00109e-05
9.84292e-05
1.81378e-05
-0.000116566
1.03869e-05
3.5713e-06
-0.000676304
0.000907298
-0.000230994
0.000515425
-0.000204922
2.87079e-08
2.36166e-05
-0.000517086
0.000136656
0.000380422
1.31682e-05
-1.249e-05
-6.79068e-07
1.68231e-05
-2.85217e-06
-1.98076e-05
-0.000413228
0.000244182
-0.00226329
-0.000697468
-1.52828e-06
-7.93086e-06
9.45914e-06
0.000178648
-0.000146449
-3.21978e-05
0.000102031
0.000354736
-0.0258244
-0.0355329
-0.00168386
0.000618648
0.000448216
3.14639e-05
-0.000479671
0.00241811
-0.00585709
-9.38423e-06
2.23296e-06
-0.000699284
0.000422902
0.000276388
1.41683e-05
-9.05144e-06
-5.11732e-06
0.00145175
0.0130711
0.00106103
-0.0365034
-0.00115265
0.00047635
0.000205197
-0.00248477
0.00227957
5.57532e-06
3.96837e-06
-1.23841e-05
0.000210612
-6.42201e-06
7.20033e-05
-1.58453e-05
-3.75741e-06
-9.58835e-06
-2.8269e-05
1.20637e-05
1.62064e-05
-0.00113883
-0.00054504
-2.15116e-05
2.53783e-05
-3.86633e-06
-9.28558e-05
8.03116e-05
1.2546e-05
3.47374e-06
3.9342e-05
7.04066e-06
-8.56867e-06
-5.80554e-06
-5.73534e-07
0.00336272
-0.00165454
0.00170178
0.000608081
-0.00230989
-0.00425035
0.00287043
3.33881e-05
0.000163235
-7.35375e-05
-7.43535e-05
0.000735105
-0.00175273
0.00101761
-0.000163509
0.000494297
5.62706e-06
1.22975e-05
0.0038155
-0.00226268
-0.00155288
-1.54204e-05
-1.28492e-05
-0.000202651
8.44582e-05
0.000118195
6.14192e-06
1.7627e-05
-0.00036345
0.000922246
-1.25065e-05
2.3878e-05
-0.000319118
0.00175325
-1.84862e-05
-2.46171e-05
-0.0580862
-0.000288075
0.000210841
7.72366e-05
-0.000119511
-0.000796857
0.000916348
-7.95158e-06
-9.377e-08
8.04577e-06
0.000219582
-0.000189129
-7.46577e-05
9.26499e-05
-1.79922e-05
8.15224e-06
-2.57995e-06
-0.000616629
0.000349108
-0.00134315
-0.0117322
0.0130753
7.26627e-05
-0.000180693
0.00010803
-0.000237009
-0.00085556
2.45769e-06
-0.000374037
-0.000127314
0.000501353
1.071e-07
9.96924e-06
-0.000349167
-0.000267478
1.65089e-06
-2.31635e-05
-0.000176337
-2.12662e-06
-7.1394e-06
-4.46394e-05
0.000117303
-0.000780338
-0.000321117
-6.86251e-06
-5.18059e-06
-0.00073798
0.00070256
3.54185e-05
-8.12889e-06
7.77453e-06
3.5483e-07
-2.44068e-05
1.04436e-05
1.39639e-05
-0.0182064
-5.91516e-05
5.31825e-05
-0.000458497
3.74379e-05
0.00042106
-0.000178879
-0.000338209
-0.00897247
0.012473
-0.00350057
0.00141255
-0.00181578
1.45476e-05
-8.77467e-06
0.00123876
0.000175965
0.000340439
0.00105318
0.000313947
-5.96535e-06
-0.000307986
0.000618252
7.6987e-05
0.000107941
-0.000127242
0.00205288
-0.00237201
-3.01536e-06
-5.11322e-06
9.06301e-06
2.05146e-05
-2.95769e-05
-0.0115157
0.00487817
-0.000556967
0.000138101
0.000418867
-7.69044e-05
8.826e-05
-1.13566e-05
0.00701749
-0.0120254
-9.16211e-05
-0.000196453
-0.0214659
0.0141596
0.00730636
0.00122411
-0.00552199
0.00935832
0.00210028
0.000197139
0.000148891
-0.000346032
0.0011411
-8.34731e-05
-0.000259082
7.83926e-05
-0.00565301
-0.000185401
0.00583846
-0.00545606
-0.0060596
-1.44916e-05
-9.91465e-06
-7.88272e-06
6.02562e-06
4.65591e-06
1.83431e-06
0.00199639
-0.00135162
1.75018e-05
-2.68431e-05
9.34186e-06
-0.000357767
-0.000341513
-2.7261e-05
0.000118908
-9.16464e-05
-1.58993e-05
1.17299e-05
4.16664e-06
-0.000141525
9.48229e-05
-1.46277e-06
-6.48862e-06
-0.00131671
-0.00107497
1.81497e-05
-0.000158023
9.15031e-06
-1.4621e-05
3.12755e-05
-0.000440468
1.42943e-05
-0.000306355
0.000292061
0.0129088
0.00163527
-4.18246e-05
2.31577e-05
1.86659e-05
-0.000294633
0.00064421
-0.000349579
-1.1959e-05
2.60757e-05
-1.41158e-05
4.44119e-05
-2.23655e-05
-2.20467e-05
0.000131717
-4.6633e-05
-8.50851e-05
-2.3532e-05
2.6948e-05
-3.41409e-06
5.65391e-05
-0.000618389
0.000561848
-0.000296554
5.4507e-05
0.000242044
-0.0423283
-0.0433145
0.0856433
0.0123199
0.000588919
-0.00433407
-0.00131898
0.000545013
-9.67911e-05
-2.22005e-05
4.36473e-05
-1.68559e-05
6.98769e-06
9.86842e-06
-0.000119297
6.94907e-06
-0.00068305
-0.0084069
5.02492e-05
6.88405e-05
0.000552876
0.000152212
0.00552279
-0.0141616
0.00863853
-2.27207e-05
1.71632e-05
2.42486e-06
-4.79606e-07
0.00021886
-0.000166139
-0.000396542
-0.00378988
-0.0204375
0.0242273
-6.50394e-05
2.55041e-05
1.89079e-05
5.88181e-05
-2.52327e-05
-5.73898e-05
-0.000598542
0.000794704
-0.000121198
0.000866383
7.83838e-05
-0.000105644
8.45254e-05
-3.68027e-06
1.76384e-05
8.53062e-07
-9.25233e-06
-7.60353e-06
9.97952e-05
3.19226e-05
0.00137826
-5.18296e-05
0.000146676
-0.000134705
-1.19684e-05
-0.00231495
0.00180358
0.000511376
-0.000559539
-6.26502e-05
0.000622188
-0.000613944
-4.66411e-05
0.000660585
-0.0286951
0.0342176
-1.79468e-05
0.000125891
-9.64501e-05
0.00174561
-0.00164916
7.07139e-05
8.90006e-06
-7.96127e-05
-7.27056e-06
0.000321223
7.86202e-06
1.6969e-06
-0.000113392
-2.55895e-06
0.000115953
0.00172568
-2.39066e-05
0.0300532
-0.0330719
0.00301875
-7.19897e-06
-1.71265e-05
2.43271e-05
4.9824e-05
2.33584e-05
-5.85564e-06
6.68538e-06
1.28025e-05
-1.94887e-05
-1.8552e-05
-2.56422e-05
4.41929e-05
-0.00357564
0.000368386
0.00320723
-0.00311649
0.00159226
0.00177047
-0.000859179
-9.34832e-06
1.38983e-05
-4.54888e-06
0.000285577
1.15691e-05
-0.000297148
8.15601e-05
-1.41501e-05
6.72088e-05
-6.38278e-05
0.00090409
1.85459e-05
4.74488e-05
0.000116755
-1.83261e-05
-0.0169665
0.00345031
3.61522e-07
8.70398e-06
-9.06546e-06
-0.000249691
0.000263986
-0.00159715
0.00141958
0.000177595
-2.42562e-05
0.00010264
9.27639e-06
-2.20396e-05
1.27662e-05
-1.82228e-06
-1.8381e-05
2.73818e-05
-1.83183e-05
4.95343e-05
-7.78965e-06
2.41709e-05
0.000269875
-0.000163397
-0.000106478
-3.29717e-05
0.000121805
-2.84352e-05
4.90488e-06
-1.58593e-05
-3.97203e-06
1.98324e-05
0.00122091
-0.000216795
-0.0114243
0.00397262
-0.0066948
0.0027222
0.0279001
-0.0197456
-0.00240516
0.00206926
-0.000685344
1.30528e-05
-3.16055e-05
6.17663e-05
-0.00103878
-0.000178492
0.00154161
-0.00136313
7.56028e-05
-0.00122825
-0.00675038
0.00765807
-0.000907723
-4.07906e-06
-1.98212e-06
8.87515e-06
-9.43526e-06
5.60742e-07
3.64051e-05
-1.88133e-05
-1.7592e-05
0.000176203
1.33247e-05
-0.000189526
-0.00241817
0.00439393
2.14741e-05
-1.21972e-05
-0.0115207
-0.00090381
0.0124245
-6.74441e-05
-0.0001025
0.000169945
0.0446115
-0.0435505
-9.69577e-05
-9.03535e-05
5.68035e-05
-8.34119e-05
-0.00011744
-0.000137115
-0.000686952
0.00329953
-0.00422005
0.000920532
-0.00283218
0.00680479
-4.54518e-06
4.66406e-07
0.00158376
-0.00108953
1.82402e-05
-1.0497e-05
-7.73867e-06
-0.000657089
-6.23736e-05
6.76315e-05
0.01394
0.000393455
-0.0143334
-0.000354145
0.000637358
-0.000283215
2.56539e-05
-2.45175e-05
-1.13538e-06
-2.31339e-05
1.59354e-05
-0.000847787
0.000730633
0.000117144
-0.000127855
0.000103887
2.3968e-05
0.00411286
-0.0130853
-0.0124372
0.0273882
-1.40011e-05
2.06866e-05
-0.000103325
7.90685e-05
2.61591e-05
-1.14173e-05
0.00105849
0.00124742
-0.00230591
-0.023136
0.0193919
0.00374395
2.11027e-05
-1.42876e-05
6.08048e-05
3.40835e-05
3.50092e-05
-6.90923e-05
0.00380904
0.010131
-0.000375761
0.000126139
-0.00752162
-0.0121937
0.0197153
-5.39635e-07
-7.36978e-06
7.90976e-06
4.21555e-06
-6.76592e-06
2.55082e-06
0.00270702
-0.00269753
5.1996e-06
-4.24681e-05
4.45055e-05
-2.03551e-06
-4.99954e-05
4.03802e-05
9.61836e-06
-4.81272e-05
4.42331e-05
3.89598e-06
-0.000104692
5.68953e-06
-6.22819e-06
0.00724438
0.00689663
-0.0141412
6.57096e-05
1.88177e-05
7.2227e-05
-0.000189482
0.000117216
0.000649555
-0.00908585
0.0235421
-0.0144562
-0.000548786
0.00462174
-0.0262429
6.58101e-05
0.00883255
0.0219069
-2.20024e-06
1.54565e-05
-1.32557e-05
-6.6923e-05
-0.000369461
0.000436386
1.20317e-06
2.16041e-05
-2.2807e-05
1.42385e-06
-1.08383e-05
9.41543e-06
2.62906e-05
-2.806e-05
-3.17012e-05
1.88012e-05
1.29007e-05
-0.00395146
-0.011598
2.44185e-06
0.00140437
-0.000506518
-0.00089785
1.5918e-05
-2.37061e-05
0.000101362
-9.88821e-05
-2.47983e-06
-0.00189989
-0.00108039
0.00298028
-3.1057e-05
3.33973e-05
-2.33959e-06
0.000661436
0.000411294
1.17333e-05
6.50855e-06
-0.000916659
3.56829e-05
0.000880976
-9.93087e-06
-7.24491e-05
8.23797e-05
7.32489e-05
0.000137539
0.000442145
-0.000443002
-0.00022721
-0.000329757
0.0126518
-0.0106174
-0.00203441
-1.16617e-06
9.43478e-06
-1.49703e-05
2.78137e-05
-3.37882e-05
0.00011648
-0.000198846
0.000131402
0.00361347
-1.06016e-06
1.68647e-05
-1.58039e-05
-0.00933321
1.17558e-05
-2.42612e-05
0.0198758
0.00966808
-0.0295438
-0.000196136
0.000993011
-0.000796869
2.38583e-05
3.43805e-06
-2.72956e-05
-9.52542e-05
-0.00363676
0.00136213
1.81742e-05
-1.92342e-05
-0.00313876
0.00120999
0.000308482
-0.000126971
-0.000181506
-0.000116263
-1.40634e-05
1.43399e-05
-2.75236e-07
-0.00817635
0.000475979
-0.000509627
3.3647e-05
-0.000144023
-5.48222e-05
0.000176524
0.000310051
6.66135e-06
-2.44547e-06
-2.70913e-05
2.51609e-05
2.98333e-05
-0.000171356
-0.000136881
0.0006722
-0.000196222
-0.0362349
0.0162477
0.0199871
-0.00118228
0.00100379
-7.83751e-05
0.000562531
-0.000484157
-0.000418781
0.000183402
0.000235381
-1.49561e-05
0.000323356
2.06595e-05
-2.85226e-05
7.86301e-06
0.0001382
4.04474e-05
2.10417e-05
-2.33393e-05
2.29751e-06
0.000233024
0.0004
-0.000569217
0.00105189
0.00651405
-0.00649629
-1.77785e-05
5.10769e-05
-6.84564e-07
-1.70252e-06
2.38658e-06
-0.0153173
0.0240319
-5.91299e-06
2.7537e-05
-0.000820007
0.000206062
-0.000204811
0.000565646
6.43454e-05
3.79583e-05
-0.000102303
-2.5361e-05
7.24446e-06
1.81173e-05
0.0341759
0.0231432
-0.057319
0.000485985
-0.000582033
0.000515111
-0.000299929
-5.89653e-06
5.8472e-05
0.000983769
-0.000302619
-0.000630487
-0.000151745
9.71811e-05
5.45642e-05
-0.000838809
2.55576e-05
3.32611e-05
0.000253839
-0.00058458
0.00033074
-9.68306e-05
1.76366e-05
7.91959e-05
-0.000267835
-1.69291e-05
1.88746e-05
-1.94341e-06
0.000659687
-0.000133931
-0.000525749
-0.000238839
4.67901e-05
-2.57391e-05
-2.1051e-05
-0.000241333
-0.000268296
0.000110712
0.000484708
-0.000595421
-0.000347009
0.000105675
-7.03185e-05
1.7188e-05
5.31331e-05
0.000104942
-0.0001451
4.01586e-05
5.93205e-06
1.65394e-05
-2.24723e-05
-5.80155e-05
-0.000114354
0.00017237
8.32769e-06
-7.96565e-06
9.09856e-05
-2.66394e-05
6.88755e-05
-1.17217e-05
-5.71529e-05
0.00101249
-0.0060799
0.00506723
0.00305419
0.000245336
-9.64633e-05
0.000126298
-8.48945e-05
-0.0161235
0.000806149
2.86072e-05
-1.64625e-05
-1.21429e-05
4.88474e-05
0.00149275
0.022282
-0.0285132
-0.000458497
6.40887e-06
-1.07254e-05
4.31774e-06
1.46645e-05
6.40969e-07
1.88034e-05
-1.94452e-05
-9.15541e-06
3.50481e-05
-2.58938e-05
-4.91409e-07
6.90066e-06
-0.000254151
8.20374e-05
-3.00179e-05
4.50594e-06
2.5509e-05
-0.000201229
0.000398368
-7.16163e-06
-1.81986e-05
0.000790356
-0.00264152
0.00185093
0.0196842
-1.70703e-05
2.2892e-05
-5.82088e-06
-8.26136e-05
-0.000765179
-1.96557e-05
2.72753e-06
3.69441e-05
-2.34642e-05
-0.00339106
0.00244992
-0.000767485
0.000418354
0.00198875
-0.000512381
-1.75537e-06
5.18799e-06
-3.43272e-06
0.0366958
-8.13769e-05
-2.47611e-05
0.000106138
-2.24891e-05
0.00034352
3.01554e-05
-0.000373678
-0.000743497
-0.0154033
-0.00181388
0.0172171
6.87136e-06
-3.396e-05
0.0223178
-0.0185088
-2.67401e-05
0.000164647
-8.1413e-05
-8.32326e-05
3.88151e-05
0.000384636
0.00804789
-0.0155695
-1.08132e-07
-1.67677e-06
-0.000561879
0.000398373
0.00324471
-0.00398323
0.000738538
-1.71134e-05
1.31288e-05
-0.000287994
-0.000130787
-7.63221e-06
2.77022e-05
-2.00711e-05
-1.86426e-05
2.33424e-05
-7.48457e-05
5.15017e-05
-0.000113153
8.87089e-05
-1.79272e-05
-5.89777e-05
0.000709958
-0.000703008
0.00335852
-0.0025684
-0.0053464
0.0133943
-7.17015e-05
9.5045e-05
-0.000119991
-2.90759e-06
-0.000114228
-0.000615095
0.000729321
-1.20936e-05
-9.06111e-05
0.00662243
-0.00961288
0.0029904
-0.000792257
-6.60679e-05
-3.51107e-05
-4.70643e-06
2.59681e-06
2.11028e-06
-0.00512603
0.00915264
-0.00402663
-0.000618519
0.000133298
0.00048522
-0.000375547
0.00145432
-0.00107877
-0.0791969
0.0119289
-0.000273761
-1.90436e-05
-1.2657e-05
-2.1577e-05
8.05259e-05
-1.48147e-05
-4.19753e-06
2.52408e-05
-0.00587603
-0.00217328
0.00804921
7.01164e-06
0.000117613
-0.000124635
0.000152553
-4.66085e-06
0.000395811
9.84853e-05
1.25307e-05
6.37253e-07
-6.35903e-06
4.5203e-06
1.83957e-06
0.0628291
-0.002188
0.000189764
0.00199819
1.44568e-05
-1.30308e-05
2.01634e-06
1.21516e-05
-2.22457e-05
7.73604e-05
-3.64046e-05
2.00626e-05
1.63422e-05
2.34278e-05
-0.00213093
-0.00144471
0.000277319
0.000136716
-0.000414028
2.32169e-05
-2.2013e-05
0.0719904
0.000785019
-0.00116057
0.0119964
-0.0173166
0.00532015
-0.000853994
-0.000803855
0.00404857
0.000685057
-5.3804e-05
-0.000631255
-1.85288e-05
-2.3296e-05
-6.96346e-06
2.2882e-05
-0.00742268
0.00546725
0.00195543
-9.86515e-05
-0.0168158
0.0133438
0.00311895
0.000866219
-0.000843614
-5.12896e-05
3.95221e-05
1.17674e-05
2.44476e-05
-1.75753e-05
-0.000126184
0.000798384
-0.0028041
8.81098e-05
-0.00240307
-0.00013746
-0.000100496
0.000237958
-0.000152809
5.56497e-05
9.71603e-05
-2.16233e-05
7.34607e-06
-0.00608862
0.0361418
-0.000108883
0.000282213
-0.000173329
8.16312e-06
-0.000142454
0.00011666
-0.000119217
0.00190822
-0.00300262
0.00109449
0.0376584
-0.0414483
0.00282612
0.00349148
-0.000920416
0.000333039
0.000587361
1.84324e-05
4.31971e-06
-0.000735519