/*--------------------------------*- C++ -*----------------------------------*\
| =========                 |                                                 |
| \\      /  F ield         | OpenFOAM: The Open Source CFD Toolbox           |
|  \\    /   O peration     | Version:  v2012                                 |
|   \\  /    A nd           | Website:  www.openfoam.com                      |
|    \\/     M anipulation  |                                                 |
\*---------------------------------------------------------------------------*/
FoamFile
{
    version     2.0;
    format      ascii;
    class       volScalarField;
    location    "300";
    object      k_0;
}
// * * * * * * * * * * * * * * * * * * * * * * * * * * * * * * * * * * * * * //

dimensions      [0 2 -2 0 0 0 0];


internalField   nonuniform List<scalar> 
13917
(
0.0164657
0.000175856
0.000232455
0.000150117
0.0001612
0.000175894
0.000159162
0.000219968
0.000156894
0.00205975
0.000199995
0.000147653
0.000166808
0.0263944
0.00016346
0.0135186
0.000147971
0.000191135
0.000197298
0.0129783
0.000167331
0.000147128
0.000175228
0.000147138
0.000153314
0.000168831
0.00488831
0.00120236
0.000176137
0.000133452
0.00134775
0.000185616
0.0001503
0.0280271
0.000144382
0.000228081
0.00015517
0.000162114
0.000159255
0.000172453
0.000146837
0.000144203
0.000154259
0.000196837
0.000196513
0.000139105
0.000165945
0.0188051
0.000683562
0.000144465
0.000147361
0.000196512
0.00790284
0.000147158
0.000147774
0.000196164
0.000287125
0.000175178
0.000143687
7.3493e-05
0.0202595
0.000173412
0.000139941
0.000152843
0.0261586
0.000746197
0.000179314
0.000230634
0.000196959
0.0164509
0.0128463
0.0259883
0.000146992
0.00014294
0.00016847
0.000154499
0.000154191
0.000142455
0.00015401
0.000150554
0.000149968
0.000148859
0.000146787
0.0123832
0.000140707
0.000161068
0.000184689
0.000144932
0.000171971
0.000147729
0.000138197
0.000154586
0.000533566
0.000142239
0.000150096
0.00017929
0.00567609
0.000151203
0.000144031
0.000227588
0.000143217
0.000142313
0.000150218
0.000144465
0.000154032
0.0168596
0.0230148
0.000174274
0.000145154
0.0114595
0.000144037
0.0289048
0.000176148
0.0190888
0.0254133
0.000155396
0.000195814
0.000139642
0.000211498
0.000145783
0.000148506
0.000141401
0.000183129
0.000191925
0.0189831
0.0168114
0.000152372
0.000170019
0.000142475
0.000192281
0.00016535
0.000199201
0.0405575
0.000155341
0.000189533
0.017816
0.0190563
0.0207903
0.000170475
0.000161595
0.0127755
0.000141902
0.0159887
0.000142065
0.000146129
0.000155245
0.0121758
0.00207606
0.0168135
0.000147525
0.00016943
0.000141369
0.000145826
0.000145875
0.0103143
0.000149628
0.000143892
0.0419244
0.000144504
0.000141228
0.000140826
0.029518
0.000158924
0.012564
0.0237145
0.00026524
0.00715021
0.0231273
0.000128224
0.000172203
0.000147765
0.0382419
0.000156788
0.0211887
0.000187455
0.000142787
0.000150091
0.000198564
0.000164647
0.000159709
0.000154076
0.000147322
0.000147372
0.000214498
0.000211556
0.000203817
0.000147113
0.000220892
0.000133431
0.000243631
0.000187948
0.00019465
0.000200122
0.0164012
0.000142249
0.019211
0.000158305
0.0395805
0.000144078
0.000148903
0.000163712
0.0161413
0.0179311
0.000154296
0.00296798
0.0001685
0.000169999
0.000141895
0.000198286
0.000149956
0.000139232
0.000174089
0.000177574
0.0180312
0.000188895
0.000170323
0.0312423
0.000154435
0.000135004
0.000134897
0.0224004
0.000203974
0.000135236
0.000142424
0.000140805
0.0268143
0.0164322
0.00013432
0.000134174
0.000146855
0.000135275
0.000135186
0.024366
0.0186954
0.000148178
0.000128424
0.000188016
0.0246989
0.00014585
0.000142399
0.00474883
0.0174047
0.000217518
0.0314028
0.000194396
0.000142134
0.0230267
0.000189034
0.000173875
0.000188331
0.00015372
0.0179667
0.000146013
0.000174224
0.000185302
0.000148616
0.000147668
0.000152751
0.000160123
0.000144289
0.0248845
0.0111526
0.000141621
0.000134106
0.000150052
0.000134138
0.000146058
0.000167476
0.000169705
0.000142146
0.0250379
0.0245135
0.000144933
0.000155545
0.000402479
0.000134306
0.000208143
0.0279677
0.000134401
0.0202505
0.000143758
0.0291142
0.000143422
0.000160181
0.000148915
0.000141834
0.000203014
0.000155019
0.000155869
0.000161918
0.0117973
0.00015837
0.000368125
0.0205633
0.000141976
0.000179096
0.000160213
0.000156003
0.000160506
0.000153866
0.000142732
0.000152657
0.00019869
0.000206854
0.000173309
0.000153502
0.000142263
0.0413646
0.0137387
0.000141742
0.000167373
0.000156056
0.000758264
0.000201128
0.025907
0.0222123
0.000681797
0.000219683
0.000155011
0.00941969
0.00136847
0.000231338
0.000165977
0.000162751
0.00271785
0.000148704
0.00017857
0.00019431
0.00014687
0.0378227
0.000141121
0.000171838
0.000136949
0.00606356
0.000137909
0.000171464
0.000169024
0.000507309
0.000146351
0.000188457
0.0116377
0.000149689
0.000148693
0.0309376
0.0131062
0.0253861
0.0246731
0.000134052
0.000148085
0.019112
0.000216155
0.000134194
0.000160653
0.000147192
0.000184438
0.00017219
0.000195526
0.000195461
0.000208212
0.000171632
0.023903
0.00014284
0.000149701
0.000163864
0.000209773
0.000146454
0.0145344
0.000171385
0.00269573
0.000148102
0.000201792
0.000164738
0.000403622
0.000143953
0.000137764
0.000612068
0.000170637
0.000145269
0.00188568
0.000138264
0.0234658
0.000200694
0.000143923
0.000423717
0.000150137
0.000841922
0.000137967
0.0143292
0.000700813
0.000154078
0.0274882
0.000201415
0.000152763
0.0278042
0.000225685
0.000153062
0.000203532
0.000147587
0.000204232
0.000231475
0.000141344
0.000158174
0.0001534
0.00014156
0.000139028
0.000143301
0.0188221
0.00025802
0.000148866
0.000143838
0.000146212
0.000178545
0.000224475
0.000135309
0.000128374
0.000200586
0.000202441
0.000142153
0.000153721
0.024093
0.0371446
0.00156355
0.000198713
0.00410679
0.00013922
0.000134853
0.000164268
0.000138921
0.000135399
0.000148496
0.000134969
0.000138813
0.0222189
0.000147933
0.000174724
0.0271174
0.000178938
0.000139459
0.000145587
0.0283009
0.00016386
0.0163149
0.000136389
0.000142495
0.000138849
0.000135572
0.000154843
0.000150645
0.0234863
0.000163826
0.0193116
0.000142451
0.000167808
0.000184116
0.000149598
0.000193374
0.0255345
0.000146894
0.0356614
0.000139791
0.00014261
0.000145817
0.000150224
0.000138757
0.000150101
0.0412092
0.0207835
0.000138551
0.00036433
0.000200117
0.000147461
0.000181361
0.000187554
0.0271233
0.000159278
0.0172724
0.00216647
0.00230029
0.000150727
0.000612804
0.000196671
0.000153308
0.013523
0.000139502
0.000146741
0.000150109
0.000157564
0.00016713
0.000207278
0.000179733
0.000151618
0.000157202
0.000189486
0.00018313
0.000148866
0.0249329
0.000169024
0.000161865
0.0234452
0.000140779
0.000184253
0.000201031
0.0001382
0.0410669
0.00014353
0.000135546
0.000179405
0.000136436
0.000152356
0.000199134
0.044472
0.0352205
0.000140744
0.000150692
0.000149874
0.00955885
0.00933377
0.000148316
0.000147494
0.000140522
0.000183104
0.00420133
0.000143092
0.000146021
0.000148532
0.000141294
0.00015752
0.000161839
0.000141281
0.000180228
0.000138219
0.000146497
0.000153061
0.0263868
0.000134721
0.000153957
0.000144301
0.000166956
0.000185401
0.000186564
0.000186405
0.000236806
0.000152416
0.000183864
0.038017
0.0214994
0.0305022
0.000141041
0.000145483
0.000156329
0.000143626
0.0263331
0.000134738
0.00634482
0.000158237
0.0304624
0.000212523
0.000154314
0.00953424
0.000138502
0.000183775
0.000150869
0.000147357
0.0331752
0.000135835
0.000221424
0.000141693
0.00015499
0.000145873
0.000205995
0.000158564
0.000133744
0.00019724
0.000180698
0.00858238
0.0071002
0.0420019
0.0261074
0.000134783
0.0169793
0.000136639
0.0193827
0.00279083
0.000149502
0.00016486
0.000142784
0.000168638
0.000153603
0.00013591
0.000150915
0.000165373
0.0035061
0.000141253
0.000182947
0.000146398
0.000133622
0.000144514
0.00019678
0.0216548
0.00851938
0.000187041
0.000161565
0.000557868
0.0260029
0.000138338
0.0208384
0.000163522
0.000194938
0.000143609
0.00151342
0.00014107
0.000159188
0.000146391
0.00780739
0.000169783
0.0292102
0.000142029
0.000168674
0.000144403
0.000143867
0.0250412
0.000264392
0.000145289
0.000197217
0.00014226
0.000146225
0.000142305
0.0273014
0.000141274
0.00016046
0.000134656
0.000144842
0.000209821
0.000141627
0.000195965
0.000150059
0.000138028
0.0194784
0.000183729
0.000147909
0.00870706
0.00021728
0.000234202
0.000201234
0.000138313
0.000165168
0.024349
0.000232149
0.000163253
0.000155146
0.000160343
0.000149316
0.000143136
0.00145103
0.000187089
0.000156896
0.0229058
0.000170178
0.000213113
0.0123223
0.000230965
0.000169826
0.000199695
0.0218879
0.000142752
0.000182993
0.00163172
0.000138116
0.000143288
0.000144427
0.000153257
0.000152939
0.0172015
0.000166977
0.000141526
0.00019266
0.000141209
0.0275013
0.000143735
0.000142485
0.0438127
0.000183837
0.00272649
0.000147625
0.000139568
0.00014233
0.000149605
0.000161241
0.000141837
0.018313
0.000164421
0.00840554
0.00258928
0.000180913
0.0421747
0.000150751
0.000150399
0.000144713
0.0294052
0.0328195
0.00015893
0.0184306
0.0023694
0.000138017
0.000142105
0.000154957
0.0147423
0.00287627
0.000170125
0.00014945
0.000153977
0.000195724
0.000153761
0.000195422
0.000167236
0.000149807
0.000150659
0.00015003
0.000161082
0.000157515
0.000236418
0.000156745
0.000153729
0.0180608
0.000137613
0.00316733
0.000154504
0.000169495
0.000157909
0.000226487
0.000148288
0.000182108
0.0198168
0.00290123
0.000143849
0.000156752
0.000158032
0.000142657
0.000146144
0.000171936
0.000170926
0.000215935
0.000196004
0.000138069
0.000221672
0.000156817
0.000157653
0.000197916
0.000148484
0.00018379
0.00104206
0.000133801
0.000183722
0.000191158
0.000166914
0.000140993
0.000139009
0.000143094
0.0142974
0.000150106
0.000144395
0.000171446
0.00014214
0.000140041
0.00019536
0.000201407
0.000188895
0.0372638
0.000181372
0.0204038
0.000146169
0.000155085
8.24706e-05
0.00014975
0.000198878
0.000146114
0.000142843
0.000147467
0.000157576
0.000188973
0.000140974
0.00186336
0.000147774
0.00341341
0.000154544
0.000159099
0.000136969
0.00018849
0.000160907
0.0282887
0.000193522
0.00014908
0.0257791
0.000150992
0.023299
0.000153133
0.000266968
0.000152619
0.000140324
0.000143653
0.0364481
0.000161012
0.000237179
0.0371399
0.000142555
0.000167253
0.000128271
0.000159952
0.00178607
0.000128616
0.0226438
0.00015408
0.000266536
0.000195014
0.000294671
0.000135257
0.00014356
0.000196898
0.000138261
0.000146863
0.000152504
0.00014514
0.000171617
0.000135122
0.000249709
0.000149815
0.0157543
0.0231317
0.000712922
0.0212772
0.0370558
0.0141097
0.000558753
0.000137511
0.000145797
0.000145234
0.000150999
0.000140595
0.000161224
0.000141913
0.000207406
0.000147223
0.000445207
0.000149792
0.000163399
0.000195165
0.000141585
0.000174646
0.000150993
0.0001483
0.000158222
0.000138276
0.0439364
0.000188409
0.00202605
0.000141753
0.000143838
0.000148091
0.000148196
0.0239301
0.00013771
0.000262237
0.000140851
0.00254088
0.00015941
0.000142009
0.000183028
0.000172882
0.000137834
0.00291328
0.0179841
0.000155251
0.000188593
0.000138164
0.000234014
0.000139199
0.000148166
0.0213587
0.000145835
0.000150377
0.000192201
0.0199697
0.000140556
0.000749253
0.0011233
0.00014452
0.000151442
0.000145533
0.00270298
0.000143577
0.000198899
0.000146704
0.0419017
0.000160341
0.0175558
0.000143794
0.000134164
0.00109259
0.00015702
0.000137404
0.0355849
0.000152312
0.000139024
0.00474616
0.000144453
0.000145767
0.000186714
0.000152738
0.027621
0.000172891
0.000187515
0.00019888
0.000153838
0.0404094
0.000150635
0.000185205
0.000142879
0.0269678
0.00265668
0.000148109
0.000139393
0.000146332
0.000148307
0.00013879
0.000139292
0.000141993
0.000143497
0.000162477
0.000133805
0.000151834
0.000187227
0.023136
0.0289101
0.000190585
0.000148115
0.00132444
0.000141383
8.17401e-05
0.00323241
0.00664343
0.000135215
0.000137608
0.000145708
0.000146349
0.000134973
0.000138786
0.000141888
0.000170689
0.000139089
0.0092108
0.00251507
0.000139605
0.035331
0.000142993
0.000143342
0.000172236
0.028123
0.00018636
0.00014219
0.00280308
0.000143325
0.000143416
0.000114546
0.000146184
0.023286
0.000150656
0.000245043
0.000139497
0.000141746
0.000164243
0.000244433
0.00015216
0.028462
0.00017929
0.000157956
0.000151998
0.000143871
0.000138791
0.000192855
0.000166221
0.000156562
0.0319174
0.0115303
0.000242958
0.000194114
0.000141606
0.0315126
0.00014136
0.0226346
0.000184023
0.000158308
0.000151643
0.0211467
0.035658
0.00258287
0.000144013
0.00344242
0.000138828
0.000141943
0.000167145
0.000149507
0.000146444
9.64126e-05
0.0197988
0.000141786
0.000159288
0.0245712
0.000141424
0.000134215
0.0082854
0.0294661
0.000150623
0.000137224
0.00015866
0.000145356
0.000143038
0.000171794
0.000158298
0.000144933
0.00709384
0.000144518
0.00068105
0.0022474
0.000173263
0.0272146
0.000147908
0.000149543
0.000243582
0.0196253
0.000589225
0.00017217
0.00016517
0.000148888
0.00015078
0.000140338
0.0282972
0.000165458
0.000149295
0.000178947
0.000141747
0.00288356
0.00018781
0.000198555
0.000181596
6.11156e-05
0.00338318
0.0222732
0.0361732
0.000161928
0.000177902
0.000134403
0.000182305
0.000188764
0.00162923
0.000155742
0.000147445
0.000157364
0.000206891
0.000152683
0.0263336
0.000168034
0.000192206
0.0243251
0.000142645
0.000194707
0.000153523
0.000146748
0.000161036
0.000435858
0.000135387
0.000137593
0.000151755
0.00798012
0.000139061
0.000152392
0.000153528
0.000150605
0.00014554
0.000194531
0.000185621
0.000149286
0.000141383
0.000219411
0.000199511
0.000172532
0.0411531
0.000148097
0.00014336
0.0359075
0.000144416
0.000152932
0.0363024
0.0286775
0.000162964
0.000182515
0.000158988
0.0145931
0.000258544
0.00016592
0.0095019
0.000142669
0.000188702
0.0245433
0.000212957
0.00529297
0.00025274
0.000138611
0.000146136
0.000166391
0.000145796
0.00014681
0.000236417
0.000146017
0.000174725
0.000135576
0.000180559
0.0283553
0.00015286
0.0118042
0.0365868
0.000143405
0.00018804
0.00015915
0.000151983
0.000142723
0.0312423
0.000186384
0.0215786
0.000160371
0.0230282
0.000192208
0.000139635
0.00110985
0.000168121
0.000145793
0.000142228
0.000109503
0.000142768
0.000157516
0.000168731
0.000157914
0.00014905
0.000179971
0.0143623
0.000140952
0.000217631
0.000287481
0.000146915
0.000141169
0.000153987
0.00316031
7.98112e-05
0.000139632
0.00016255
0.000161631
0.000339985
0.0177237
0.000145958
0.000139109
0.000138542
0.000143918
0.000169083
0.000154587
0.00335775
0.000148572
0.000155086
0.000382671
0.00018192
0.000190225
0.0299712
0.0228815
0.000147853
0.000144743
0.000138681
0.000151513
0.000185785
0.0424464
0.00185827
0.000196147
0.000163091
0.000177222
0.00015339
0.000126715
0.000157041
0.000196334
0.00014229
0.000238135
0.0001557
0.000138611
0.000147387
0.0333772
0.000177337
0.000286703
0.0230511
0.000198993
0.000142304
0.000353718
0.000161693
0.000141441
0.0239504
0.00768453
0.000142376
0.00016271
0.00019448
0.00016735
0.000150201
0.000134964
0.000141323
0.000139208
0.000142548
0.000162907
0.000180402
0.0224278
0.000167993
0.00015759
0.000164079
0.000191295
0.000141029
0.000167139
0.00014953
0.000219512
0.023391
0.000152045
0.000134829
0.0282884
0.000140073
0.000536898
0.000152095
0.000174913
0.000148593
0.000140519
0.00012991
0.000158423
0.00015176
0.000143736
0.0217539
6.98842e-05
0.0258134
0.000147186
0.000145989
0.000311337
0.000141156
0.000139372
0.000203788
0.00757542
0.000159455
0.000166304
0.000149963
0.00603535
0.000141564
0.000154558
0.000149008
0.000134667
0.000219441
0.000141575
0.000138985
6.15269e-05
0.000181384
0.0176904
0.000220876
0.000141015
0.000162959
0.000140068
0.00014195
0.000152177
0.000152381
0.000146511
0.000210775
0.000145845
0.000186843
0.000159803
0.00017126
0.000145581
0.000146206
0.000142812
0.0321724
0.000135255
0.000224584
0.000185958
0.000155308
0.000178337
0.000166146
0.000163283
0.000145538
0.000161343
0.000139483
0.000138602
0.00321867
0.000171581
0.000164998
0.000143629
0.000143737
0.00014038
0.000192808
0.00014171
0.0309978
0.000175294
0.000142197
0.00014201
0.00013711
0.000175219
0.000210581
0.0363527
0.000199298
0.00282181
0.000161423
0.000193445
0.000154497
0.0258971
0.000135537
0.000134881
0.0001564
0.00291664
0.000137375
0.03194
0.000146414
0.00014455
0.000203556
9.82829e-05
0.0152518
0.00230451
0.000157536
0.000218819
0.000241924
0.000138991
0.0264916
0.000143074
0.000142662
0.0072531
0.000136383
0.0329786
0.000883216
0.000140654
0.000143678
0.00013925
0.0405123
0.000144802
0.000134953
0.000187932
0.000141067
0.000139769
0.000141443
0.000139111
0.000174213
0.000146932
0.000153603
0.000137153
0.000228123
0.00021922
0.000137323
0.000137403
0.000150397
0.000141888
0.000154123
0.000147551
0.000143276
0.000147182
0.000143446
0.000151061
0.000144869
0.000185792
0.000137102
0.000188609
0.000146604
0.000179975
0.000139276
0.000146302
0.000141801
0.000135618
0.000169654
0.000159423
0.000156197
0.0199839
0.000190367
0.0411176
0.0301507
0.000188886
0.0229509
0.000146357
0.000144557
9.6952e-05
0.0227119
0.000140904
0.0257375
0.000137973
0.000198938
0.00119892
0.000153893
0.0001889
0.0280683
0.0300277
0.000143659
0.000175339
0.000139793
0.000256403
0.000154872
0.0358625
0.0140854
0.000147286
0.000217742
0.000143353
0.000148726
0.00826131
0.00306737
0.000152918
0.000139148
0.00244616
0.0290339
0.000138942
0.000164488
0.000148337
0.000133873
0.000199163
0.000145973
0.000139627
0.000915696
0.000141577
0.000143453
0.000149604
0.00013777
0.0023607
0.000164635
0.000161202
0.0328482
0.00014257
0.000184866
0.000146791
0.0024696
0.000181032
0.000378356
0.00013894
0.000159969
0.000139753
0.000146632
0.000153786
0.000145209
0.0127716
0.00015154
0.000138211
0.000141046
0.00328781
0.000139015
0.00363303
0.0203616
0.00452577
0.000145763
0.000140323
0.000141661
0.00102311
0.000147976
0.0108572
0.000144331
0.00920703
0.000152566
0.000148229
0.000172592
0.00014654
0.000147799
0.0277976
0.000195167
0.0315886
0.00014563
0.0289107
0.0368467
0.000146022
0.0284242
0.0001472
0.000157878
0.0231127
0.000153733
0.000171468
0.0210995
0.000162889
0.000185126
0.000145343
0.00433396
0.000143325
0.00232576
0.000141636
0.0198017
0.000143515
0.000144475
0.000152136
0.00370345
0.000140668
0.000181282
0.000187963
0.0240556
0.000142068
0.000162103
0.0362396
0.00022615
0.00277076
0.000188016
0.000139265
0.0001943
0.00554994
0.000154942
0.00166312
0.000134498
0.000199337
0.0154627
0.00014121
0.0178767
0.000142031
0.0246727
0.00180636
0.000154312
0.000152743
0.00166661
0.00475935
0.000143517
0.000151863
0.000137959
0.000146213
0.018746
0.000184829
0.000210838
0.000146391
0.000160158
0.0337235
0.000172231
0.000489601
0.00245093
0.000140687
0.000142824
0.000211119
0.0231933
0.00984776
0.0019863
0.000211831
0.00017142
0.00023281
0.0336529
0.0255496
0.00569557
0.00013915
0.00018846
0.000174664
0.000187798
0.000144365
0.000157598
0.000183284
0.000243548
0.00327879
0.000145086
0.00431159
0.0317701
0.000172119
0.000143158
0.000143235
0.000244765
0.000140832
0.0422505
0.000161019
0.000142482
0.000221958
7.98886e-05
0.000137213
0.000168587
0.000162421
0.000144638
0.0385698
0.000160545
0.042749
0.000141295
0.02956
8.77297e-05
0.000211837
0.000135637
0.000158759
0.000163499
0.000283379
0.000196901
0.000185315
0.0195021
0.00106168
0.000129035
0.000157716
0.00014704
0.000196617
0.016376
0.000138524
0.000136997
0.000151706
0.000190768
0.000240039
0.000141718
0.000179505
0.000225254
0.000139006
9.8574e-05
0.000154697
0.0418361
0.000161142
0.00346172
0.0125657
0.000160928
0.000155878
0.00106751
0.00014111
0.000174127
0.0237446
0.000167533
0.000202148
0.00016377
0.00018121
0.0226413
0.0277982
0.000145118
0.00478299
0.000573219
0.000136422
0.00020085
0.00018469
0.000199091
0.00969297
0.000123808
0.00153877
0.000194137
0.0247579
0.000159399
0.000184452
0.000136603
0.000147332
0.00014534
0.000139295
0.000155404
0.000249283
0.000135395
0.000178671
0.000207745
0.000140953
0.00636888
0.0285424
0.000133676
0.000147626
0.000137417
0.000151117
0.000173795
0.000143295
0.0232924
0.000162216
0.000186278
0.000158467
0.00018699
0.000220829
0.000168658
0.00313607
0.000144662
0.000151514
0.000135023
0.000140728
0.0348888
0.000193304
0.000161452
0.0222704
0.00014679
0.000149113
0.000164538
0.000138289
0.000142018
0.000192417
0.000156959
0.0240642
0.0190751
0.0205547
0.000145521
0.0208396
0.000142085
5.5011e-05
0.000137033
0.000201498
0.0210398
0.000144134
0.000177263
0.024418
0.000165043
0.000152255
0.000140281
0.000160475
0.0239366
0.000137532
0.00014783
0.000153415
0.000163136
0.000210019
0.000155132
0.000157492
0.000140439
0.00015295
0.00125979
0.000167073
0.000153732
0.000196711
0.000243141
0.0359971
0.0120697
0.000159219
0.000150723
0.0235593
0.000144683
0.000184397
0.000146011
0.0186441
0.000147302
0.000147942
0.000166032
0.0288972
0.000142808
0.000138932
0.000135353
0.000203421
0.0104219
0.000196502
0.000143534
0.000154466
0.000139125
0.032694
0.000141034
0.00244691
0.000180708
0.000146793
0.000185582
0.000168747
0.00274482
0.000149217
0.000139333
0.000163523
0.00017086
0.000204705
0.000147233
0.000148781
0.00014688
0.0299237
0.000145318
0.000151944
0.0268323
0.000152642
0.000179132
0.000155567
0.000142096
0.000143238
0.00440166
0.000152994
0.0271894
0.00327399
0.000132087
0.031438
0.000148559
0.000193561
0.00017827
0.000153206
0.000135991
0.000131832
0.000143199
0.000234185
0.000175619
0.0319145
0.027023
0.000139686
0.000159214
0.000171307
0.000504959
0.000143372
0.00424982
0.0294883
0.01352
0.000142583
0.000152293
0.000149261
0.000392292
0.0343997
0.000142291
0.000144208
0.000163234
0.0230508
0.000146612
0.000152473
0.000152365
0.000198328
4.21758e-06
0.000135659
0.0289283
0.000164448
0.000143044
0.0187379
0.000180572
0.0328258
0.00489424
0.000165154
0.00015859
0.000152918
0.000159164
0.000149537
0.000189446
0.000177494
0.000143289
0.000155249
0.000236843
0.0187242
0.000137362
0.000195895
0.0213189
0.0231172
0.000143875
0.000145356
0.00322815
0.00508626
0.000219363
0.00014221
0.0231656
0.000184601
0.00013287
0.0220165
0.000159932
0.000147326
0.000105945
0.000145162
0.000183386
0.000139976
0.000130732
0.000146171
0.00013532
0.0262823
0.00013525
0.000141017
0.000187959
0.000155956
0.00015583
0.000200675
0.000145671
0.000143581
0.000152192
0.000150826
0.00287161
0.00286999
4.03277e-05
0.00577828
0.000173473
0.00199558
0.000196516
0.030647
0.0222814
0.0272119
0.000139323
0.000163281
0.000143562
0.00014606
0.000141262
0.00014674
0.000210159
0.000181701
0.000170003
0.000140736
0.000142866
0.000179896
0.000147682
0.00014852
0.000145794
0.0349672
0.00016454
0.0129592
0.000145351
0.00328611
0.000149102
0.000147574
0.000149148
0.000172624
0.000140612
0.000189752
0.0287773
0.000173439
0.0271246
0.0041532
0.000156998
0.000160078
0.00175423
0.000195689
0.000136555
0.000140858
0.000132062
0.0270199
0.000130627
0.000215326
0.000199004
0.000188148
0.022187
0.00946015
0.000184264
0.0400021
0.000139139
0.000135167
0.000484526
0.00748444
0.000144061
0.000145347
0.000308724
0.000139257
0.000220846
0.000155761
0.000140619
0.000157137
0.000144682
0.000186491
0.0278026
0.0253651
0.000155848
0.000145102
0.000194279
0.000151322
0.000190057
0.000139126
0.000202068
0.000192287
0.000148483
0.000146928
0.000132593
0.00020269
0.000222932
0.000211302
0.00315047
0.000162944
0.0106841
0.000187532
0.00019705
0.0221174
0.000142264
0.0279164
0.000150573
0.0348132
0.000151727
0.0270113
0.0222468
0.000149391
0.000180258
0.000552512
0.000145344
0.0209712
0.00014533
0.000144739
0.000157529
0.000149631
0.000163261
0.000226599
0.000959082
0.0227079
0.000157712
0.000172295
0.000151245
0.000147338
0.000146395
0.000199459
0.000190927
0.0223581
0.000175671
0.000135796
0.000138009
0.000148742
0.000222241
0.000155016
0.000149749
0.000156559
0.00020245
0.000164071
0.000171191
0.000179875
0.0293849
0.000162421
0.000165296
0.00014341
0.000157642
0.000249807
0.00120866
0.000176819
0.000138277
0.0206353
0.000165797
0.000141869
0.000176759
0.0312672
0.00496018
0.000165962
0.000139369
0.0255625
0.00014882
0.000139076
0.000136198
0.00792366
0.00152517
0.000156922
0.0103587
0.0187282
0.000168506
0.000178969
0.000183207
0.0427826
0.000163915
0.033667
0.000148914
0.000284467
0.000158587
0.0330691
0.000166126
0.000139941
0.0344914
0.000145416
0.000150529
0.0317651
0.00935424
0.000221248
0.000295183
0.000154965
0.000151506
0.00338781
0.000141828
0.000141137
0.000145111
0.000175085
0.000143217
0.000166016
0.000168119
0.0044815
0.00146034
0.000149941
0.0215765
0.000167031
0.0324531
0.0274441
0.000144911
0.000147362
0.000156804
0.000297593
0.000209956
0.000185055
0.0306269
0.0279872
0.00217116
0.000148765
0.00666813
0.0216942
0.000209101
0.000247541
0.000146594
0.000144378
0.000145145
0.000150853
0.00014205
0.000165621
0.0259727
0.000167555
0.00335502
0.0194909
0.00432847
0.0210293
0.0361099
0.000163228
0.0368679
0.000193861
0.000187805
0.00013685
0.00014571
0.000185518
0.0238868
0.000150002
0.0265907
0.0354033
0.000139855
0.00014572
0.000144974
0.000196534
0.000149222
0.000186904
0.027908
0.000137127
0.000142781
0.000139525
0.000150264
0.000194298
0.0277625
0.000167682
0.00999927
0.000195762
0.000141164
0.00312035
0.000202505
0.000146833
7.11466e-05
0.000744626
0.0223584
0.00300491
0.0252946
0.00014478
0.00424079
0.029473
0.000205461
0.0109632
0.000141144
0.000153036
0.000154398
0.000153017
0.0192204
0.000184957
0.00014712
0.000159732
0.0038505
0.0296251
0.000148351
0.000146836
0.0425521
0.0355691
0.000147056
0.000160637
0.000194284
0.000142285
0.000142994
0.0195119
0.00014089
0.000234173
0.00326001
0.0215408
0.000140419
0.000192589
0.000201639
0.000141535
0.000133695
0.0245418
0.0113291
0.000147766
0.000169281
0.00020291
0.000216564
0.0379992
0.00731701
0.000157577
0.0028044
0.00266226
0.000167738
0.000140433
0.000199721
0.000134894
0.00013488
0.023866
0.000170495
0.00019223
0.000155149
0.000158709
0.000140838
0.000135791
0.00014973
0.00015053
0.0173932
0.000154719
0.00186392
0.0187065
0.000175086
0.00018652
0.024352
0.0303895
0.0192074
0.000138749
0.000155889
0.000168307
0.000157165
0.000217886
0.00287568
0.000149652
0.00230789
0.0292985
0.000158884
0.00019242
0.000187491
0.000194539
0.000196694
0.000151681
0.00019932
0.000201676
0.000204179
0.000206919
0.00019768
0.000189229
0.000157527
0.000140312
0.000165625
0.000192085
0.000140697
0.000324934
0.0392495
0.00021999
0.0333104
0.000133264
0.000138331
0.000366384
0.0158964
0.000150261
0.00015444
0.000183751
0.0202546
0.00528175
0.000145231
0.000164869
0.000156634
0.0107629
0.00374801
0.0001545
0.000132929
0.0295772
0.000194147
0.0340973
0.000192195
0.00470521
0.0384999
0.00012815
0.0360468
0.0329958
0.000151003
0.000186961
0.000194499
0.000157856
0.000139955
0.00047676
0.00530468
0.000140353
0.000140762
0.0225331
5.64643e-05
0.000189978
0.000147603
0.00023426
0.000197355
0.0354039
0.0274119
0.00014539
0.000142683
0.000150052
0.000156962
0.0308922
0.000151675
0.030107
0.000190557
0.000173297
0.00471393
0.00015735
0.00014003
0.0296299
0.000140723
0.0347817
0.000139966
0.0351746
0.000151083
0.000150453
0.000506005
0.000144895
0.000196892
0.00302303
0.000166458
0.000153689
0.000151459
0.000209244
0.0246487
0.000205544
0.0340313
0.000164886
0.000155035
0.000160068
0.000189023
0.040481
0.0218426
0.00019484
0.000221693
0.000199489
0.00866402
0.000137773
0.000140457
0.000137298
0.000136867
0.000167574
0.000190274
0.00233939
0.000173215
0.000204134
0.000141499
0.00277691
0.00444371
0.00953233
0.000143421
0.000151941
0.000130928
0.0316186
0.000157092
0.00669629
0.00017246
0.000198636
0.000194315
0.000132324
0.000169076
0.000204385
0.000145447
4.19108e-05
0.00014505
0.00020127
0.000148802
0.000146678
0.000203737
0.0111019
0.00218751
0.000147715
0.000192555
0.000216022
0.0207407
0.0188503
0.028129
0.0230055
0.000141363
0.000183067
0.00014598
0.000202518
0.000142827
0.000197274
0.000152374
0.000177332
0.00255426
0.00157854
0.000161437
0.000212751
0.0330237
0.000198661
0.000153425
0.0350192
0.00019653
0.000151524
0.000148111
0.0203575
0.00016166
0.000199808
8.21807e-05
0.00429301
0.0196376
0.000157865
0.0223308
0.0284729
0.000462459
0.00016103
0.000164529
0.00019598
0.000193334
0.0254462
0.000215056
0.000149792
0.00027517
0.000200175
6.99463e-05
0.000160195
0.0229881
9.31567e-05
0.000993338
0.00015772
0.00756204
0.000154944
0.0252542
0.000204874
0.00232785
0.0157383
0.00013907
0.000130839
0.0284197
0.0345729
0.000180194
0.000149389
0.000174319
0.000166176
0.018095
0.00019893
0.0329384
0.000158074
0.0327779
0.000199116
0.00127555
0.000149567
0.000145564
0.0223724
0.000163176
0.000191042
0.000132875
0.000155083
0.00014597
0.00265956
0.000141809
0.0001456
0.0374837
0.00609041
0.00013671
0.0379171
0.000150461
0.00014564
0.000142377
0.000140478
0.000147403
8.65823e-05
0.0389763
0.000137344
0.0139572
0.000185755
0.000176298
0.00130781
0.000191267
0.000157305
0.000164408
0.000141889
0.00250721
0.000164092
0.0389366
0.000169851
0.0143402
0.000217966
0.00018673
0.00191167
0.0325112
0.000137822
0.0236571
0.000181103
0.000184898
0.000182391
0.000142159
0.00019138
0.000210934
0.000145397
0.000182062
0.000142884
0.0233822
0.000203773
0.0212761
0.000208779
0.000207669
0.0364636
0.000146064
0.000142833
0.000183797
0.000152242
0.000147303
0.000147605
0.000159761
0.000141213
0.000141252
0.000151499
0.000174343
0.000152972
0.00015974
0.000156005
0.000178008
0.000195244
0.000153757
0.0261034
0.000153147
0.000141948
0.000193245
0.000172519
0.000157585
0.000141199
0.0108867
0.000152924
0.0283652
0.000153443
0.00019545
0.000142191
0.000144943
0.00021442
0.0406451
0.00018688
0.000167409
0.000133144
0.0358089
0.000146236
0.00014096
0.000188858
0.000154354
0.000199597
0.0330387
0.000193599
0.000277707
0.000173926
0.0198052
0.000145503
0.000146324
0.000185429
0.00302708
0.000182608
0.000193343
0.02372
0.00016008
0.000145689
0.000160432
0.000234057
0.000181267
0.00014563
0.000195408
0.000194419
0.000184463
0.000147292
0.00014579
0.000214281
0.000184229
0.00134054
0.00220024
0.000153939
0.000186807
0.000147107
0.00017404
0.00905668
0.000147321
0.000203462
0.000739822
0.000190371
0.00226318
0.000144912
0.000144462
0.000141554
0.0358408
0.000220025
0.000153544
0.000210918
0.000197622
0.000146821
0.000144984
0.000225644
0.0369494
0.000221535
0.0318567
0.000217271
0.000163118
5.28122e-05
0.00019994
0.000163001
0.0105732
0.000192164
0.0112621
0.000145042
0.000194572
0.000202503
0.000150627