/*--------------------------------*- C++ -*----------------------------------*\
| =========                 |                                                 |
| \\      /  F ield         | OpenFOAM: The Open Source CFD Toolbox           |
|  \\    /   O peration     | Version:  v2012                                 |
|   \\  /    A nd           | Website:  www.openfoam.com                      |
|    \\/     M anipulation  |                                                 |
\*---------------------------------------------------------------------------*/
FoamFile
{
    version     2.0;
    format      ascii;
    class       volScalarField;
    location    "300";
    object      nut;
}
// * * * * * * * * * * * * * * * * * * * * * * * * * * * * * * * * * * * * * //

dimensions      [0 2 -1 0 0 0 0];


internalField   nonuniform List<scalar> 
13917
(
0.00312003
0.00341555
0.00106452
0.00579499
0.00516833
0.00351551
0.00311009
0.00238422
0.00276949
0.000357098
0.00266938
0.00594902
0.00439013
0.0175238
0.00529693
0.00195131
0.0060111
0.00276433
0.00171043
0.0018473
0.00460416
0.00595872
0.00209188
0.00595885
0.00584584
0.00439816
0.00291726
0.000135168
0.00359256
0.00590633
0.000179836
0.0027069
0.00594189
0.00942866
0.00595063
0.00245281
0.00575908
0.00613025
0.00273613
0.00263173
0.00594662
0.00590367
0.00287777
0.0018005
0.00181174
0.000602821
0.00478864
0.00312439
0.00181247
0.00594928
0.00594543
0.00126017
0.000484157
0.0059553
0.00596055
0.00143892
1.15404e-05
0.00235152
0.0059099
0.000431507
0.00624317
0.00550344
0.00596987
0.00577834
0.0082934
0.00504468
0.00315391
0.0024528
0.00268467
0.00285932
0.00441973
0.00839713
0.00591814
0.00592494
0.00452305
0.00579439
0.00565108
0.00592851
0.00582042
0.00593528
0.00594034
0.00601427
0.00591285
0.00413301
0.00582338
0.000873646
0.0022601
0.00589425
0.00282346
0.00603037
0.00590176
0.00268313
0.00162174
0.00594191
0.00594781
0.00335802
0.00451085
0.0060329
0.00587807
0.00170746
0.00598177
0.00595895
0.00593808
0.00596136
0.00565593
0.00513589
0.0078029
0.00552926
0.00587051
0.00562694
0.00584318
0.00986057
0.00359163
0.00311087
0.00761196
0.00574342
0.00181389
0.00594555
0.00114326
0.00588514
0.0060349
0.00594253
0.00297364
0.00203523
0.00357938
0.0044347
0.00584647
0.00434884
0.00592625
0.00200987
0.00232884
0.000816341
0.0112367
0.0057502
0.00236742
0.00850981
0.00651041
0.00399288
0.00418682
0.0061205
0.0156866
0.00593906
0.0048768
0.00587936
0.00590149
0.00583479
0.00423463
0.00459929
0.0026616
0.00596047
0.00325005
0.00596502
0.00589433
0.00588627
0.00516885
0.00590243
0.00595332
0.0117107
0.00597221
0.00596731
0.00583707
0.0102965
0.00549577
0.0155727
0.00723104
0.00162264
0.000188741
0.00513278
0.00579463
0.00399711
0.00595455
0.0109536
0.00269
0.0076024
0.00131137
0.00597208
0.00593469
0.00109036
0.00240609
0.00541461
0.00305101
0.00595761
0.00594644
0.00120148
0.00111337
0.000746664
0.00594281
0.00124651
0.00590644
0.00199444
0.00130289
0.00193894
0.00141914
0.00322517
0.00593999
0.0037523
0.00422996
0.0107643
0.00594944
0.00592703
0.00500782
0.00290963
0.00269976
0.00580183
0.00204429
0.00441167
0.00299268
0.00593791
0.00121755
0.00594109
0.00585718
0.0047543
0.00448954
0.00287749
0.00242558
0.00423465
0.0106336
0.00606427
0.00584905
0.00584788
0.00476362
0.00122901
0.000415215
0.00582588
0.00593928
0.0126197
0.0026637
0.00583304
0.00582924
0.00592518
0.00585879
0.00585748
0.00749756
0.00340712
0.00595841
0.00579989
0.00177385
0.00741823
0.00601354
0.0058258
0.00284079
0.00519465
0.00114638
0.0107357
0.00109191
0.00587993
0.00535295
0.00173027
0.00379406
0.00244076
0.00583435
0.00281003
0.00589196
0.00213734
0.00144427
0.00595166
0.00590882
0.00575737
0.00540016
0.00594032
0.00674673
0.00898742
0.00594522
0.00582553
0.00589155
0.00582533
0.0058924
0.00613193
0.00225594
0.00594002
0.00601532
0.00858109
0.00590229
0.00560508
0.00051456
0.00585759
0.00140903
0.0084323
0.00585842
0.00477163
0.00594208
0.0101657
0.00597565
0.00548473
0.00594743
0.00587978
0.0013358
0.00606825
0.00109852
0.00367885
0.00973923
0.00587422
0.000681879
0.00378257
0.00597849
0.00206887
0.00532606
0.00570733
0.00523169
0.0058237
0.00594663
0.00606381
0.00100316
0.00399054
0.00215403
0.0058434
0.00582556
0.0114165
0.00166125
0.00591666
0.0060541
0.00570153
0.00389958
0.00158494
0.009285
0.00852814
0.00446919
0.00105133
0.00563805
0.00334917
0.00444547
0.00107003
0.00611094
0.00532738
0.00186653
0.00593289
0.00343521
0.0019569
0.00599666
0.0108392
0.00583119
0.0019947
0.0059256
0.000335377
0.00581967
0.00228452
0.00435871
0.00411146
0.00601783
0.00243729
0.00384891
0.00595473
0.00593433
0.010614
0.00420691
0.00960657
0.0162915
0.00584855
0.00596156
0.00557388
0.000991473
0.00585036
0.00524794
0.00594942
0.00243403
0.00214325
0.00171397
0.00100104
0.00142567
0.00200659
0.00756272
0.00593162
0.00595332
0.00502758
0.00112749
0.00598632
0.00237075
0.00234385
0.0106727
0.00596389
0.000969774
0.00589841
0.00201297
0.00589204
0.000728067
0.000776817
0.00414483
0.00591019
0.000958014
0.00593082
0.00674277
0.00132313
0.00589231
0.00175947
0.00591294
0.00821183
0.00586395
0.00236211
0.00675169
0.00581757
0.0129408
0.00148183
0.00587395
0.0104276
0.000961508
0.00586282
0.00132589
0.00596104
0.00148537
0.0010645
0.0058352
0.00296264
0.00584492
0.00587112
0.00582269
0.0059373
0.0063532
0.00143839
0.00596066
0.00594663
0.00595834
0.00209876
0.00237325
0.00589313
0.00579522
0.00160642
0.000980965
0.00588643
0.00583335
0.00997132
0.0189674
0.00822697
0.00162869
0.00169085
0.00593552
0.0058799
0.00489797
0.00582111
0.00589309
0.00595327
0.00588051
0.00593195
0.0047532
0.00596339
0.00219629
0.00710714
0.00209047
0.005862
0.00588956
0.0105241
0.00500431
0.00251889
0.00591706
0.00583749
0.00593441
0.00586938
0.00577009
0.00589185
0.00979847
0.00692681
0.00569043
0.00583734
0.00264836
0.00712692
0.00594446
0.00114752
0.00977776
0.00594507
0.0204479
0.00586668
0.0058863
0.00595393
0.0059121
0.00584911
0.00597809
0.0115223
0.00651403
0.00584502
0.000557803
0.00163203
0.00591706
0.00202166
0.00179853
0.00991954
0.00268246
0.00522656
0.00962957
0.00977724
0.00588972
0.00486313
0.00767504
0.00584724
0.00525539
0.00592278
0.00594982
0.00594675
0.00310986
0.0046963
0.00125957
0.00241756
0.00572689
0.0055019
0.00275883
0.00158572
0.00596037
0.0179372
0.00264305
0.0035832
0.00713426
0.00582408
0.0013931
0.00116684
0.00581838
0.0121612
0.00590019
0.00586946
0.00191252
0.00591636
0.00602498
0.00112076
0.0121666
0.0175207
0.00583414
0.00492592
0.00578634
0.00399818
0.0044798
0.00596302
0.00595803
0.00582994
0.00165123
0.0089143
0.00593936
0.00601269
0.00593155
0.00586486
0.00556035
0.00307753
0.00595021
0.00248981
0.00581893
0.00595971
0.00586081
0.00937015
0.00581418
0.00387616
0.00593921
0.00228521
0.00218822
0.00257733
0.00149236
0.00153083
0.0058847
0.00274184
0.00989371
0.00447428
0.00880989
0.00590687
0.00595203
0.00573512
0.00586677
0.00813642
0.0058697
0.00803094
0.00387886
0.00799462
0.00130393
0.00320585
0.000872568
0.0058463
0.00169113
0.00604978
0.00584138
0.00743579
0.00590566
0.00102314
0.00596332
0.00600407
0.00595655
0.00131084
0.00552127
0.00581342
0.00178726
0.00232059
0.0129997
0.00260996
0.011337
0.00930774
0.00581495
0.00282577
0.005936
0.00653282
0.00560152
0.00580512
0.0057043
0.00597989
0.00236947
0.00312436
0.00590516
0.00604536
0.00612016
0.0015082
0.00584099
0.00237618
0.00594466
0.00581143
0.00601406
0.0006152
0.00767793
0.000694097
0.00258385
0.00309281
0.000427209
0.00806124
0.00587304
0.00783703
0.00609873
0.00194225
0.00586811
0.00100513
0.00586064
0.00553283
0.0059064
0.0116997
0.00239742
0.00933431
0.00595691
0.00234009
0.00595169
0.00595665
0.00827192
0.00172749
0.0059438
0.00158387
0.00582546
0.00586737
0.00596435
0.00945418
0.00584042
0.00534645
0.00586921
0.00594967
0.00113474
0.00595919
0.00168803
0.00602109
0.00581889
0.00611195
0.00241122
0.00596017
0.000493066
0.00103061
0.00276071
0.00115337
0.00584265
0.00517454
0.00831149
0.000993382
0.00504808
0.00575524
0.00552065
0.00603478
0.00592905
0.0076474
0.00202491
0.0049862
0.00600332
0.00224353
0.00206373
0.00561955
0.00550517
0.00232499
0.00143693
0.00576182
0.00594543
0.00529632
0.00833949
0.00581904
0.00597739
0.00602041
0.00576628
0.00603511
0.00300783
0.0021395
0.00590045
0.00208144
0.00594407
0.00992769
0.00594322
0.00592766
0.0123228
0.00233754
0.0099328
0.00593283
0.00586576
0.00593121
0.00592667
0.00269135
0.00588509
0.00306159
0.00334168
0.0139678
0.00980446
0.00518847
0.0113105
0.00500682
0.0060568
0.00594992
0.00914899
0.0156145
0.00408857
0.00322579
0.00515304
0.00582103
0.0059229
0.00577168
0.00461966
0.0100725
0.00247585
0.00593845
0.00366941
0.00181595
0.00572181
0.00172031
0.0021049
0.00595098
0.00593434
0.00602447
0.00278643
0.00551399
0.000989286
0.00565868
0.0055788
0.00315236
0.00574698
0.00571851
0.0057967
0.00421764
0.00376901
0.00100711
0.00603945
0.00199967
0.00704433
0.012655
0.00586925
0.00565373
0.00609804
0.00584851
0.005899
0.00483713
0.00749757
0.00125208
0.00168163
0.00584025
0.00103853
0.00260611
0.00281242
0.00154323
0.00595698
0.00200009
0.00138114
0.00580756
0.00230819
0.00116159
0.00220992
0.00588566
0.00585177
0.00593058
0.00201171
0.00594404
0.00593161
0.0021148
0.00589112
0.00587454
0.00149703
0.00087533
0.00436795
0.019137
0.00250324
0.00583637
0.00589831
0.00559304
0.000192145
0.00581517
0.00572166
0.00600968
0.00596402
0.00593357
0.00559626
0.00225377
0.0058865
0.0084788
0.00594249
0.00643515
0.00579013
0.00276744
0.00592471
0.002418
0.00545492
0.0102176
0.00428678
0.00601753
0.00913576
0.00592875
0.00596771
0.00318814
0.00351184
0.0057775
0.00589604
0.00586506
0.0095718
0.00285966
0.00257609
0.0201135
0.00584561
0.00216357
0.00579693
0.00559465
0.00706756
0.00580572
0.00512079
0.00355043
0.00334044
0.00185134
0.00388964
0.00583527
0.00596545
0.000993117
0.00584391
0.00595328
0.00588493
0.00595012
0.00206967
0.00583317
0.00196008
0.0059524
0.00279594
0.00576298
0.00325452
0.0061184
0.0197986
0.00188438
0.00368094
0.005819
0.00587788
0.00589505
0.00592876
0.00583229
0.00293559
0.00585899
0.00217025
0.00595832
0.000393523
0.00594976
0.00217896
0.00100519
0.00592214
0.00230925
0.00592924
0.00583263
0.00368237
0.00593172
0.0114004
0.00223144
0.00883079
0.00591836
0.00584173
0.00594864
0.00593865
0.00758315
0.00582058
0.00159671
0.00585569
0.0102801
0.00553032
0.00587228
0.00193326
0.0054446
0.0058225
0.0105138
0.00676854
0.00575881
0.00242194
0.00584726
0.00169203
0.00590879
0.00593731
0.0060383
0.00599778
0.00593064
0.00211098
0.00514152
0.00588098
0.00421149
0.000816948
0.00588078
0.00584001
0.00595424
0.00136274
0.00583948
0.00168161
0.00592945
0.0122179
0.00548526
0.00807709
0.00594391
0.00588759
0.00781759
0.00608476
0.00577977
0.00898642
0.00588714
0.00582715
0.00700187
0.00588295
0.0058774
0.00215805
0.00587172
0.00861144
0.00238717
0.00186459
0.00108649
0.00415017
0.011992
0.00593641
0.00218289
0.00584103
0.00738887
0.0103885
0.00593804
0.00590883
0.00588349
0.00596153
0.00592755
0.00592998
0.00594322
0.00585979
0.00310426
0.00580762
0.00590764
0.00256974
0.00673309
0.0104342
0.00225018
0.00594723
0.0084572
0.00584843
0.000317532
0.00817367
0.000208247
0.00586854
0.00582012
0.0058929
0.00595086
0.00586393
0.00593378
0.00584729
0.00226018
0.00582757
0.000842365
0.00548322
0.00584475
0.00971618
0.00584279
0.00593626
0.00558688
0.00984999
0.00150285
0.00597459
0.00987791
0.00594803
0.00594008
0.000479137
0.00586723
0.0113547
0.00592371
0.0020907
0.00586025
0.0059406
0.00498127
0.0040581
0.00589526
0.00933843
0.00559938
0.00613551
0.00579931
0.00584458
0.00584753
0.00210873
0.00205944
0.00502703
0.0102528
0.00144982
0.00433966
0.00201436
0.00594333
0.0097408
0.00594024
0.00944367
0.00155072
0.00276136
0.00591154
0.00978642
0.0184784
0.0011244
0.00593279
0.00641751
0.00592524
0.00585821
0.00205143
0.00595365
0.00592504
0.000467067
0.00475962
0.0059426
0.00230879
0.0072389
0.00595027
0.00584731
0.0100625
0.0106451
0.00593954
0.00592789
0.00302212
0.00588669
0.00593671
0.00484079
0.00557092
0.00588714
0.0123661
0.00591204
0.00423925
0.00746081
0.0055317
0.00769661
0.00593718
0.00595081
0.0052053
0.00501217
0.00821698
0.00597379
0.00483825
0.0058113
0.00529758
0.00586738
0.0103655
0.00573394
0.00591608
0.00241982
0.00587501
0.0126056
0.00247928
0.00172736
0.00196975
0.000114955
0.0105849
0.00915807
0.0114572
0.00612526
0.000340245
0.00585184
0.00157448
0.00164764
0.0063437
0.00383253
0.00584283
0.00403278
0.00183125
0.00587273
0.00959334
0.00245334
0.00116294
0.00965411
0.00595711
0.00197097
0.00584003
0.00595654
0.00540592
0.00409243
0.00591093
0.00583561
0.00591003
0.00280894
0.00583024
0.00588805
0.00338216
0.00593503
0.00591979
0.00100656
0.00194437
0.00591498
0.00591315
0.0021837
0.00496294
0.00363448
0.0119245
0.00594379
0.00584079
0.01776
0.00593048
0.00586308
0.0113615
0.00836698
0.00514575
0.00157721
0.00546682
0.00191255
0.00175801
0.0048274
0.00344921
0.00593304
0.00177419
0.0074666
0.00108913
0.0093381
0.00187728
0.00593071
0.00595524
0.0061356
0.00592505
0.00596095
0.000987511
0.0060059
0.00217303
0.00581939
0.00196781
0.0104832
0.00587082
0.00480752
0.020438
0.00584372
0.00211208
0.00551962
0.00589967
0.00585163
0.00943585
0.00262514
0.00591126
0.00518456
0.00646196
0.00112024
0.00587967
0.00377984
0.00246061
0.00567273
0.00587864
0.000667421
0.00585141
0.00559233
0.00442787
0.00560017
0.00560987
0.00245305
0.006733
0.00583867
0.00109996
0.00210314
0.00595597
0.00584638
0.00583401
0.0014991
0.000218264
0.00588571
0.00222896
0.00672596
0.00369081
0.00267413
0.00591481
0.00582952
0.00592929
0.00584461
0.0062236
0.00578577
0.00134979
0.00593361
0.00356439
0.00394103
0.00665398
0.00227543
0.0107598
0.00633115
0.00593468
0.00594306
0.00582199
0.00591347
0.00177943
0.0106239
0.00864582
0.00102887
0.00505
0.0023397
0.00331084
0.00184299
0.00562417
0.00183705
0.00594042
0.00178187
0.00289983
0.00587074
0.00592499
0.0111835
0.00216298
0.00421113
0.00614196
0.00105594
0.0059295
0.000584947
0.00615769
0.00582816
0.00896112
0.0132478
0.00594069
0.00515238
0.0018674
0.00391424
0.00594121
0.00583162
0.00584927
0.00585932
0.00584386
0.00298524
0.00168396
0.00505034
0.00356284
0.0033928
0.00242833
0.00111879
0.00590804
0.00468712
0.000765148
0.000980248
0.00798167
0.00589491
0.00583146
0.00799774
0.00584535
0.00726915
0.00563996
0.0021198
0.00596145
0.00585201
0.000440877
0.00372416
0.00590487
0.00584039
0.0104113
0.000253896
0.00784594
0.00595357
0.00595512
0.00232499
0.00596967
0.00593498
0.00101278
0.0125776
0.00517652
0.00235733
0.005946
0.0022244
0.00582854
0.00572076
0.00536065
0.00582866
0.00102123
0.00583096
0.00585461
0.000253916
0.00230064
0.00843517
0.00103762
0.00582437
0.00309204
0.00587324
0.00592537
0.00579504
0.00598139
0.00593776
0.00113521
0.00591268
0.00186478
0.00545495
0.00567477
0.00589111
0.00573755
0.00592987
0.00956936
0.00590393
0.00225227
0.00265183
0.00602953
0.00245257
0.00233508
0.00280773
0.00592583
0.0055913
0.00584709
0.00587253
0.0124254
0.00394008
0.00582567
0.00595394
0.00595032
0.00591795
0.00274707
0.005872
0.0107582
0.00213353
0.0059423
0.00582517
0.00585089
0.00209211
0.00269745
0.0189598
0.00564291
0.0123928
0.00543313
0.00109773
0.00579857
0.00901693
0.0058201
0.00589754
0.00536052
0.0114275
0.00585414
0.0108692
0.00595346
0.00596124
0.000978564
0.000526231
0.00185104
0.00971229
0.00379461
0.00118586
0.0028506
0.00592795
0.00916247
0.00584285
0.00597037
0.0038854
0.0058397
0.0111337
0.00508541
0.00585212
0.00586385
0.00593009
0.0100969
0.00601279
0.00583244
0.00251918
0.00582498
0.00586922
0.00588894
0.00593048
0.00226187
0.00592558
0.005714
0.00581661
0.000361979
0.00440032
0.00581751
0.00581847
0.00594182
0.00582518
0.00349515
0.00594939
0.00594526
0.00592861
0.00587168
0.00592939
0.00589944
0.00265829
0.00585284
0.00240737
0.00595792
0.00309958
0.00588031
0.00593384
0.00588132
0.00590729
0.00337678
0.00552501
0.00291913
0.00947604
0.00410731
0.0117866
0.0107836
0.00240395
0.0064681
0.00595679
0.00589224
0.000245475
0.0096732
0.00592015
0.00771918
0.0058619
0.00170824
0.00446895
0.00372278
0.00235578
0.0196016
0.0146758
0.00596473
0.0022639
0.00584831
0.00651507
0.00376111
0.0112837
0.00245258
0.00594823
0.00454619
0.000829535
0.00601596
0.00360356
0.0129912
0.00586543
0.00582084
0.010972
0.00873554
0.00592647
0.00242753
0.00595994
0.000831449
0.00102435
0.00593652
0.00588731
0.000591092
0.00592077
0.00584357
0.00594287
0.00583865
0.00130615
0.00525105
0.00291595
0.0102988
0.00584325
0.00221545
0.00591164
0.0110818
0.00168831
0.0101453
0.00587541
0.00302622
0.00596058
0.00599277
0.00330415
0.00591986
0.0050715
0.00591713
0.00584589
0.00583897
0.0124985
0.00582043
0.00933033
0.0084501
0.00701174
0.00595656
0.00589755
0.00583325
0.00438844
0.00596287
0.00347107
0.00597404
0.00550076
0.00587795
0.00582714
0.000908101
0.0059502
0.00602904
0.00823847
0.00183432
0.0108357
0.00590792
0.00744476
0.0197526
0.00594805
0.00910478
0.00596157
0.00561437
0.00578142
0.00582973
0.00409172
0.00565202
0.00507971
0.00268061
0.00588391
0.00189504
0.00584592
0.00707196
0.00583061
0.00463525
0.00584717
0.00585737
0.00579703
0.0068164
0.0059027
0.00463555
0.00130544
0.0187401
0.00584877
0.00517616
0.00891166
0.00254885
0.0020667
0.00158379
0.00588187
0.00183403
0.00323032
0.00577293
0.00108604
0.00589369
0.00145567
0.00247367
0.00591575
0.00273763
0.0058252
0.0066716
0.00145982
0.0058028
0.00575112
0.00617721
0.00686001
0.00583734
0.0057228
0.00584311
0.00594667
0.00591503
0.00150473
0.00097075
0.0059558
0.00367376
0.0112177
0.00611366
0.00396576
0.00130577
0.00582316
0.00583707
0.00117042
0.00986275
0.0047892
0.00467344
0.00111131
0.00325522
0.00382641
0.00965488
0.00900822
0.0102672
0.00582104
0.0020246
0.00209562
0.00130011
0.00589314
0.00280742
0.00151518
0.00174367
0.00590092
0.00587135
0.00398966
0.01002
0.00397764
0.005837
0.00583926
0.00276816
0.00591164
0.0116577
0.00376997
0.00579809
0.000945844
0.00213478
0.00581733
0.00237306
0.00250833
0.00589705
0.0099583
0.00578478
0.0107221
0.00593189
0.00983588
0.000342852
0.00113097
0.00590859
0.00550397
0.00503337
0.00145592
0.00102404
0.00261633
0.00604101
0.00152346
0.00581651
0.00517616
0.00586939
0.00164808
0.00258666
0.00594019
0.00581615
0.00591265
0.000319299
0.000884877
0.00593491
0.00174625
0.000976256
0.00582432
0.00229777
0.00578643
0.00919463
0.00542425
0.0103214
0.0038843
0.00294251
0.00572501
0.000779788
0.00584714
0.00378308
0.0080809
0.00510651
0.00157259
0.00214619
0.00230815
0.00968503
0.00762615
0.00588118
0.00459806
0.00125966
0.00583851
0.0015983
0.0020869
0.000931478
0.00396367
0.000712908
0.00470671
0.00135682
0.00871169
0.00513349
0.00194048
0.00593558
0.00592793
0.00591313
0.00584271
0.00079613
0.00176754
0.00591012
0.00339771
0.00127398
0.00584434
0.01073
0.00905954
0.00591078
0.00595932
0.0059326
0.00592195
0.00229577
0.00584566
0.00617434
0.00270269
0.00176648
0.00555725
0.00130553
0.00386889
0.00456404
0.00290529
0.00589881
0.00591478
0.00590543
0.0059199
0.00979812
0.00198496
0.00521987
0.00639944
0.00595547
0.00595451
0.00487501
0.00586615
0.00594511
0.0012616
0.00390411
0.0075186
0.00913638
0.00756874
0.00587986
0.00866395
0.00584864
0.000173217
0.00581643
0.0014986
0.00964455
0.00590308
0.000365702
0.00706447
0.00483643
0.00600901
0.00595285
0.00535193
0.00922294
0.00583623
0.00594105
0.00606282
0.00613754
0.00114289
0.00602019
0.00402317
0.00582292
0.00605461
0.000865695
0.00252848
0.00577451
0.001645
0.00298025
0.011025
0.0115813
0.00611961
0.00592793
0.00794936
0.00590234
0.00267535
0.00589443
0.00562039
0.00590442
0.00594723
0.00497767
0.010252
0.00583473
0.00587715
0.00581722
0.00146784
0.00106937
0.00110068
0.00583537
0.00579681
0.00583044
0.0100567
0.00593706
0.00124425
0.00229118
0.00595476
0.000912897
0.00457679
0.0109876
0.00490801
0.00593559
0.00352221
0.0040996
0.00100522
0.00593128
0.00595976
0.00591285
0.0105179
0.00592682
0.00598131
0.00754383
0.00587899
0.00599299
0.00397384
0.00592138
0.00594681
0.00869939
0.0034426
0.0196207
0.0124675
0.00583196
0.0162268
0.00596015
0.0014216
0.00173929
0.00598722
0.00591248
0.00582908
0.00584568
0.000700644
0.00220175
0.00935128
0.00984129
0.00585093
0.0068362
0.00318322
0.000556122
0.0058551
0.0118394
0.00741149
0.0044305
0.00591769
0.00572422
0.00595507
0.00362724
0.00973651
0.00582949
0.00585233
0.0027407
0.00523879
0.00591898
0.00552595
0.00588276
0.00174297
6.68478e-06
0.00581799
0.0106394
0.00524215
0.00583562
0.00717919
0.00236796
0.0167752
0.00563431
0.00488908
0.0055847
0.0060041
0.0054656
0.00595502
0.00293112
0.00278345
0.00594365
0.0038973
0.00109727
0.00880227
0.0058335
0.00102403
0.00926338
0.0112092
0.00593529
0.0059021
0.012381
0.00199954
0.00285394
0.00589799
0.0101487
0.00198544
0.00584988
0.0049578
0.00540697
0.00596232
0.000618965
0.00595205
0.00555742
0.00589245
0.00580792
0.0059601
0.00581785
0.00781905
0.0059026
0.00584165
0.00246898
0.00295752
0.00573066
0.00154929
0.00593263
0.00583724
0.00589298
0.00593591
0.0125661
0.0125546
0.000114286
0.00578957
0.00417969
0.0065157
0.00453126
0.0106916
0.0105239
0.00883966
0.00585363
0.00509192
0.00585688
0.00595016
0.00593012
0.00585274
0.00116294
0.00215228
0.00433356
0.00584229
0.0058366
0.00196239
0.00594186
0.00596259
0.0059388
0.0106914
0.00334981
0.00167484
0.00587579
0.0126064
0.00595959
0.00595053
0.00594018
0.00227454
0.00585329
0.00198139
0.00991934
0.00312065
0.00753727
0.00807684
0.0060432
0.00354095
0.00878305
0.00110987
0.00592152
0.00592579
0.00583365
0.00979663
0.00581059
0.00300659
0.00480636
0.00200328
0.0141458
0.00708501
0.00256446
0.00988674
0.0059316
0.00581283
0.00503269
0.00262353
0.00588593
0.00588222
0.000711723
0.00582277
0.00129791
0.0060436
0.00596234
0.00562707
0.0058799
0.00185211
0.00981927
0.00819018
0.0038716
0.00596036
0.00118237
0.00592271
0.00116661
0.0058397
0.00152857
0.00214852
0.00596095
0.00595868
0.00584033
0.000990028
0.00395062
0.00113115
0.00159163
0.00366126
0.00369773
0.00238865
0.00182517
0.00641273
0.00585055
0.0101978
0.005938
0.0105521
0.000600658
0.00985087
0.0069253
0.00601921
0.0017274
0.0051819
0.00595457
0.00545477
0.00592652
0.00588827
0.00343641
0.00594954
0.00255291
0.00107885
0.000755294
0.00606493
0.00398878
0.00364663
0.00592198
0.0059462
0.00590512
0.000962496
0.00223221
0.00967199
0.0018371
0.0059149
0.0058411
0.00594353
0.000967947
0.00576715
0.00590856
0.00559725
0.00142498
0.00250818
0.00403967
0.00403713
0.0106454
0.00374618
0.00251901
0.00585443
0.00297771
0.000464261
0.00500042
0.00341961
0.00586802
0.0079348
0.00259416
0.00589091
0.00199153
0.0108095
0.0128826
0.00478136
0.00582573
0.00923155
0.00596127
0.00582483
0.00592041
0.00404711
0.00091966
0.00604367
0.00436331
0.00623543
0.00618122
0.00414253
0.00158331
0.0113596
0.00356764
0.00962676
0.0059581
0.00239677
0.00581135
0.00825089
0.00265227
0.0059093
0.0113227
0.00588683
0.00593922
0.0203387
0.00309121
0.00339148
0.000420539
0.00322247
0.00590871
0.0014459
0.00588695
0.00582917
0.0058769
0.0020602
0.00585283
0.00499453
0.00553926
0.0123195
0.00101009
0.00594191
0.00566774
0.00614847
0.0108917
0.00792877
0.00587707
0.00593701
0.00302681
0.00105289
0.00116614
0.00189416
0.0105937
0.0102991
0.00219436
0.00585436
0.00248098
0.00678443
0.00404853
0.0002709
0.00595299
0.00594281
0.00587173
0.00592875
0.00584035
0.00240395
0.00826118
0.00480776
0.0126844
0.00333499
0.0016196
0.00829373
0.0108723
0.00530415
0.00961325
0.00186514
0.00239102
0.00581572
0.00595664
0.0027223
0.00593724
0.00588943
0.009477
0.0112111
0.00586601
0.00590088
0.00591655
0.00107266
0.00595619
0.00184042
0.0101677
0.0058313
0.00582638
0.0058572
0.00594508
0.00199733
0.00945031
0.00449297
0.00342645
0.00105447
0.00584074
0.0119914
0.000981996
0.00601274
0.000198111
0.000688368
0.00979543
0.00185295
0.0073449
0.00594876
0.0018498
0.00989247
0.00116005
0.00374306
0.0059262
0.00586309
0.00580165
0.00374005
0.00594155
0.00176496
0.00593429
0.00388369
0.0126752
0.00965879
0.00586228
0.0057181
0.0119491
0.0107948
0.00592269
0.00534152
0.00136093
0.00583357
0.0058339
0.00903285
0.00584496
0.0009862
0.0124714
0.00634311
0.00584976
0.00125793
0.00143796
0.005886
0.00587543
0.0118588
0.0053223
0.00594342
0.00427148
0.00124403
0.00103986
0.0107095
0.00333884
0.00549608
0.0112165
0.00979929
0.00253375
0.00582273
0.00273986
0.00581335
0.00589892
0.0073275
0.00375626
0.00133928
0.00380507
0.00560318
0.00591025
0.00584226
0.00594382
0.00593161
0.0068363
0.0039074
0.00112777
0.00306186
0.00210241
0.0026037
0.00952872
0.00778373
0.00757211
0.00591269
0.00365609
0.00252581
0.0055858
0.00129825
0.0104503
0.00594499
0.00160591
0.00899476
0.00550142
0.00211949
0.00250788
0.00196638
0.00182498
0.00540157
0.00166709
0.00154295
0.00142231
0.00130612
0.00177565
0.00232304
0.00545394
0.00583015
0.00251684
0.00213464
0.00585035
0.001282
0.0098871
0.000914218
0.0111593
0.00586269
0.00587494
0.00279371
0.00544956
0.00593746
0.00580121
0.00207354
0.00637645
0.00592341
0.00592158
0.00501595
0.00408834
0.00251435
0.0123913
0.00326902
0.000343285
0.00974434
0.00194124
0.0100187
0.00145517
0.0126603
0.010551
0.00579254
0.00878166
0.0105143
0.00592795
0.00138886
0.00105413
0.00561851
0.00589028
0.00110613
0.00485568
0.00593659
0.00594099
0.00980641
0.000110412
0.0012332
0.00595743
0.00109403
0.00157478
0.0113314
0.00737121
0.00589294
0.00583306
0.00594056
0.00610529
0.00802645
0.00155138
0.00994964
0.00226781
0.000861792
0.00885051
0.00612313
0.00583684
0.00955658
0.00592113
0.00946684
0.00594574
0.0103481
0.00592018
0.00593541
0.00388073
0.00591744
0.00178327
0.00843336
0.00611653
0.00582979
0.00590846
0.00119561
0.00750621
0.00109002
0.0112576
0.00616348
0.00607398
0.00303346
0.001223
0.0095356
0.00628741
0.00102521
0.00103582
0.00163361
0.00321305
0.00574721
0.00592117
0.00583394
0.00581576
0.000615305
0.00277901
0.00788502
0.00311751
0.00140984
0.0058772
0.0106935
0.0034763
0.0024432
0.00583413
0.0057765
0.00581179
0.0106118
0.00553982
0.0104943
0.000671004
0.00166865
0.00102793
0.00583694
0.00244356
0.00102172
0.000539859
9.71133e-05
0.00588113
0.00153747
0.00595545
0.0059249
0.00109898
0.0105486
0.00182904
0.00596065
0.00109383
0.000878935
0.0083276
0.00360745
0.0078231
0.00658833
0.00591127
0.00181756
0.00595582
0.00149044
0.00594502
0.00100412
0.00585342
0.00192992
0.0110899
0.00555187
0.00611428
0.00145925
0.0106077
0.00172351
0.00582944
0.020769
0.00185483
0.00603322
0.00590497
0.00620049
0.00320943
0.000953109
0.000323436
0.0118876
0.00480774
0.0060584
0.00708312
0.00989095
0.0006221
0.00100733
0.00268064
0.00182949
0.00199407
0.00709328
0.00334444
0.00594597
0.000293357
0.00388924
0.000148697
0.00537504
0.00560371
0.000187504
0.000650618
0.00276273
0.00564131
0.00576788
0.00823541
0.00103706
0.00123016
0.00214467
0.00582102
0.00581467
0.00920932
0.00856207
0.00560239
0.00595021
0.0027464
0.00513419
0.00596976
0.0027863
0.0104155
0.00556642
0.0101839
0.00100332
0.00235615
0.0059473
0.00039702
0.00632453
0.00613543
0.00224887
0.00584749
0.00407049
0.00590431
0.0109532
0.00586568
0.00588562
0.0103552
0.00230328
0.00581537
0.00986395
0.0059408
0.0059541
0.00584747
0.00590491
0.00593076
0.000201125
0.0110533
0.00585547
0.00751738
0.0026689
0.00222944
0.000935403
0.00221304
0.00561932
0.00226237
0.0058248
0.0107607
0.00507591
0.0091783
0.0062275
0.00463863
0.000327769
0.0016551
0.00114199
0.00988216
0.00581931
0.00645763
0.00182477
0.0026187
0.00449941
0.00588969
0.00479901
0.00113674
0.00589177
0.00274584
0.00582723
0.0065374
0.00143887
0.00897018
0.00122216
0.0012723
0.0101657
0.0059322
0.00594639
0.00262488
0.0058943
0.00593417
0.00593935
0.00542404
0.0058735
0.00583054
0.00591899
0.00358755
0.00586692
0.00541005
0.00605746
0.00445638
0.00193648
0.00583304
0.00686722
0.00585574
0.00584426
0.00205935
0.00221552
0.00609789
0.00587825
0.00580317
0.0032882
0.00896168
0.00331154
0.00128713
0.00583695
0.00595167
0.0015785
0.0109873
0.00259809
0.00459159
0.00582325
0.0113955
0.0059091
0.00583019
0.00241618
0.0037532
0.00144289
0.0106861
0.00196197
0.00159529
0.0027377
0.00480484
0.00594785
0.0059254
0.00138119
0.0117205
0.00249983
0.00129976
0.00787185
0.0053784
0.00591201
0.00291676
0.00108983
0.00207501
0.00589624
0.00191121
0.00199455
0.00203264
0.00592536
0.00588925
0.00123926
0.00175228
0.000741295
0.00700171
0.00581681
0.00260304
0.0059254
0.00223055
0.00395657
0.00595524
0.00130087
0.00535495
0.00138125
0.00269614
0.00588129
0.00593575
0.00582608
0.00949733
0.00104721
0.00584154
0.00161378
0.00177338
0.00591985
0.00594637
0.000931404
0.00937682
0.00128103
0.0101427
0.00116763
0.00239357
0.000171313
0.00164027
0.00248142
0.0163075
0.00215594
0.0170982
0.00589829
0.00198294
0.0015107
0.00594023
0.0100464
0.00238256
0.00229291
0.00542911
0.00139429
0.00587186
0.00635816
0.00308422
0.00581817
0.00593249
0.00583598
0.00591624
0.00593549
0.00588403
0.00328344
0.00594382
0.00594443
0.010853
0.00236323
0.00593996
0.00188455
0.00546496
0.00571992
0.00583608
0.00236856
0.00553312
0.00160234
0.00588541
0.0058754
0.00125912
0.000491879
0.00592001
0.00590665
0.00104954
0.00346612
0.00106674
0.00190657
0.00595907
0.00131746
0.00341809
0.00594341
0.00122248
0.0101409
0.00606533
0.00179422
0.00593805
0.00278101
0.00595207
0.00541426
0.00585151
0.00587909
0.00460725
0.00205217
0.000347067
0.00188255
0.00589389
0.00525918
0.0110501
0.00305967
0.00119291
0.00192341
0.00589305
0.00163099
0.00901123
0.00114518
0.0176862
0.00555403
0.00922191
0.0111553
0.00515103
0.00592837
0.00114669
0.00594385
0.00214453
0.0112622
0.00594091
0.00541177
0.00596158
0.0107216
0.00306317
0.00593483
0.00209814
0.0106403
0.0141661
0.00403517
0.00250488
0.00274766
0.00581507
0.0101986
0.0058218
0.00467049
0.0058387
0.00566729
0.0097029
0.00253809
0.00593996
0.00521164
0.000722867
0.00592986
0.00596189
0.00327216
0.00563454
0.00588751
0.00406568
0.00573628
0.00595856
0.00585446
0.00256375
0.00186907
0.00119628
0.00582418
0.00247535
0.00949316
0.00546346
0.0059095
0.00594678
0.00278308
0.00209892
0.00595147
0.00586842
0.00586752
0.0059161
0.00556271
0.00298179
0.0062175
0.00268782
0.00585585
0.00583902
0.00585361
0.00268119
0.00194871
0.00181556
0.00594972
0.00524632
0.00882194
0.00513936
0.00300741
0.00547199
0.00988373
0.00194554
0.00257504
0.00129371