/*--------------------------------*- C++ -*----------------------------------*\
| =========                 |                                                 |
| \\      /  F ield         | OpenFOAM: The Open Source CFD Toolbox           |
|  \\    /   O peration     | Version:  v2012                                 |
|   \\  /    A nd           | Website:  www.openfoam.com                      |
|    \\/     M anipulation  |                                                 |
\*---------------------------------------------------------------------------*/
FoamFile
{
    version     2.0;
    format      ascii;
    class       volScalarField;
    location    "300";
    object      omega_0;
}
// * * * * * * * * * * * * * * * * * * * * * * * * * * * * * * * * * * * * * //

dimensions      [0 0 -1 0 0 0 0];


internalField   nonuniform List<scalar> 
13917
(
5.27934
0.0420513
0.218581
0.0252858
0.0311883
0.04164
0.0294369
0.0923979
0.0283064
5.79624
0.0748534
0.0248197
0.0272878
1.51118
0.0308593
6.93128
0.0246163
0.0673363
0.115363
7.03628
0.0363456
0.0246911
0.0466152
0.0246924
0.0262262
0.0383884
1.65424
8.9069
0.0490248
0.0225946
7.49023
0.0685726
0.025295
2.9728
0.0242633
0.0929516
0.0269434
0.026445
0.0294771
0.0407761
0.0246925
0.0244257
0.0269158
0.109338
0.108481
0.23402
0.0346553
5.19607
0.381242
0.0242828
0.0247856
0.116411
16.33
0.0247104
0.024792
0.11571
5.73477
0.0466401
0.0243129
0.170733
3.25577
0.0314946
0.0234412
0.026057
3.15088
0.147486
0.0534891
0.0940708
0.0733304
5.75556
2.89775
3.09537
0.0248376
0.0241253
0.0372494
0.0266636
0.0272852
0.0240288
0.0264604
0.025366
0.0252458
0.024751
0.0248251
2.99672
0.0241625
0.183418
0.0661394
0.0245887
0.0404156
0.0244975
0.0234162
0.0270772
0.329326
0.0239383
0.0252355
0.0533905
1.27024
0.025063
0.0245031
0.132085
0.0239423
0.0238823
0.0252974
0.0242335
0.0272331
3.29207
2.95173
0.0315043
0.024726
2.00758
0.0246504
2.93153
0.0490444
3.48232
3.15903
0.0270564
0.10796
0.0234868
0.185017
0.0247714
0.0246079
0.0237947
0.0586022
0.0942908
5.3048
3.13407
0.0259031
0.0390983
0.0240413
0.0956559
0.0348523
0.139946
3.61102
0.0270151
0.0800621
2.0678
2.92523
5.20661
0.0407186
0.0264024
0.811919
0.0238932
3.28664
0.0241633
0.0247614
0.0266084
2.86686
0.450717
6.3069
0.0247505
0.0376199
0.0236997
0.02474
0.0247822
1.94092
0.02535
0.02417
3.58167
0.0241961
0.0236669
0.0241262
2.86583
0.0289168
0.804217
3.2842
0.148774
23.2405
3.98603
0.0221281
0.0430838
0.0248154
3.49128
0.0282703
2.78454
0.0712358
0.0239091
0.0252905
0.127393
0.0341297
0.0294951
0.026813
0.0247283
0.0247833
0.178503
0.190023
0.133045
0.0247549
0.177054
0.0225908
0.122076
0.0712659
0.1004
0.140983
5.08774
0.0239477
5.12117
0.0286052
3.67962
0.024217
0.0251225
0.0326922
5.54972
6.64158
0.0265942
1.45011
0.0381886
0.0380566
0.0238966
0.126671
0.0252406
0.0237712
0.0366086
0.0395091
6.14335
0.077879
0.040224
2.93715
0.0254663
0.0230814
0.0230676
3.84047
0.165925
0.156678
0.0244468
0.0237073
2.10518
6.1707
0.0230275
0.0230175
0.0247849
0.0230892
0.0230792
3.25053
5.50336
0.0248687
0.0221426
0.076079
3.33017
0.0242537
0.0244428
1.65841
3.35695
0.189596
2.92423
0.0963603
0.0241728
4.31497
0.0788934
0.0458268
0.0771582
0.0263473
5.76922
0.0247817
0.0434456
0.0646033
0.0249706
0.024991
0.0260367
0.0296484
0.0242898
3.68883
1.25545
0.0238209
0.0230203
0.0254688
0.0230266
0.0247875
0.027312
0.0387456
0.0239301
4.16195
2.85794
0.0245553
0.0277496
0.781173
0.0229286
0.0995312
3.31687
0.0229416
4.24535
0.0241932
2.86301
0.0240011
0.0292052
0.0250387
0.0241223
0.151986
0.025546
0.142085
0.0309242
1.22184
0.026963
0.536772
5.43598
0.0237478
0.0529269
0.0300772
0.027334
0.0306769
0.0264207
0.0240022
0.025175
0.125363
0.0317037
0.0423029
0.0262693
0.0244204
3.62511
8.2733
0.0239565
0.0275949
0.027371
0.195403
0.126902
2.7904
2.60236
0.152721
0.14892
0.0274924
2.81293
0.310107
0.216328
0.0271606
0.0305497
1.44935
0.0250642
0.0447014
0.0993053
0.024492
3.48923
0.024201
0.0429061
0.0231113
18.0943
0.023697
0.0400769
0.0387734
0.123481
0.0243196
0.077321
3.03622
0.0251379
0.0250562
2.91472
3.12599
2.64248
1.52351
0.0229205
0.02484
3.43364
0.148505
0.0229377
0.0306089
0.0247406
0.0573091
0.0410911
0.114054
0.0929461
0.100159
0.0424603
3.16127
0.0240812
0.0251459
0.0325898
0.186116
0.0244647
6.13395
0.0422434
0.252577
0.0248332
0.119091
0.0278964
0.198734
0.0244317
0.188189
0.786453
0.0411619
0.0245794
1.94585
0.023313
3.48567
0.151668
0.024426
0.239984
0.0253914
0.102793
0.023528
6.07685
0.10479
0.026485
2.10777
0.0868382
0.0260067
2.66635
0.234711
0.0261072
0.153517
0.0247587
0.0891805
0.217707
0.0242227
0.0289089
0.0262451
0.0241112
0.023877
0.0241358
2.96428
0.146243
0.0249748
0.0241883
0.0245389
0.0516418
0.0943724
0.0229605
0.0221517
0.124868
0.118977
0.0241493
0.0263521
2.41607
1.95467
0.189401
0.122023
2.43637
0.0234554
0.0229346
0.0335385
0.0238651
0.022976
0.0249437
0.022952
0.0234009
4.68799
0.0248069
0.0436504
3.81518
0.0524996
0.0237903
0.0247196
2.68892
0.0327445
6.47884
0.0230502
0.0244103
0.0233978
0.0230981
0.0268353
0.0255686
2.39685
0.0237208
3.40118
0.0244034
0.0372251
0.0258245
0.025166
0.0944138
2.61152
0.0247086
1.74345
0.023828
0.0242275
0.0244908
0.0254097
0.0237227
0.0251085
3.57797
3.19379
0.0237041
0.654992
0.122625
0.0249214
0.0573924
0.0743302
2.73522
0.0296465
3.31468
0.225397
0.235866
0.0255918
0.125971
0.0255178
0.0262186
2.57469
0.0235535
0.024663
0.0252421
0.0286024
0.0355894
0.164601
0.0548745
0.0264786
0.0285699
0.0657336
0.0564224
0.024976
1.39404
0.0380629
0.0309433
3.29001
0.0241719
0.0585321
0.14282
0.0237522
3.37758
0.0243264
0.0230934
0.0529184
0.0230608
0.0252873
0.1248
3.65755
2.00208
0.0241241
0.0254919
0.0258977
2.39245
2.08886
0.0248726
0.0247555
0.0241035
0.0599425
0.47446
0.0240921
0.0242854
0.0250408
0.0240916
0.0283321
0.0310422
0.0237439
0.0556701
0.0237533
0.0245812
0.026116
2.81617
0.0231711
0.0266474
0.0242963
0.0362269
0.0674461
0.0614161
0.0671085
0.142922
0.0259004
0.0589727
3.68022
4.81593
3.46201
0.0238775
0.0244426
0.0272504
0.0244813
3.20589
0.0229548
0.800308
0.0286001
3.52657
0.109525
0.0269078
6.68555
0.0236905
0.0644907
0.024938
0.0252269
3.54949
0.0230008
0.216416
0.0237608
0.0258142
0.0244894
0.157205
0.02872
0.0230061
0.110377
0.0561993
0.666585
2.7081
3.70775
2.80669
0.0231787
6.01071
0.0230186
2.96952
0.496274
0.0257527
0.0288623
0.0238774
0.0376243
0.0265885
0.0230153
0.0249638
0.027021
2.31364
0.0241831
0.0620177
0.0246268
0.022993
0.0240293
0.138304
2.82019
12.2591
0.0723847
0.0309031
1.30346
3.22619
0.0235548
2.6592
0.0268124
0.0997874
0.0244728
1.49109
0.0240708
0.0287703
0.0247851
0.675169
0.0389443
3.12743
0.0238428
0.0374629
0.0242625
0.0241524
3.02765
0.153533
0.0244437
0.124488
0.0244204
0.0249216
0.0238592
2.8879
0.0241891
0.0300087
0.0229428
0.0243445
0.184939
0.0237662
0.116074
0.0249222
0.0237206
3.19752
0.0638746
0.0248163
17.6626
0.210823
0.0847228
0.148652
0.023673
0.0319195
2.93003
0.233554
0.0323399
0.0269572
0.02904
0.0247425
0.0241416
0.190006
0.0726759
0.0278024
3.82532
0.0393666
0.102679
2.19755
0.0420244
0.0383396
0.138958
3.79984
0.0240104
0.0345807
0.195945
0.0237352
0.0239717
0.0239896
0.0265795
0.0253415
5.72104
0.0368616
0.0239857
0.0925662
0.0237564
2.77008
0.0241847
0.0240372
3.55717
0.0635454
0.274487
0.0248828
0.0237939
0.0239967
0.0252009
0.0308755
0.0241011
5.9823
0.0329393
0.60276
0.263692
0.0349022
3.73194
0.025496
0.0248315
0.0243218
3.21409
2.09026
0.0289929
5.7149
0.463249
0.0237102
0.0239925
0.0268478
3.20255
0.28633
0.0392063
0.0251665
0.0266444
0.102948
0.0268717
0.113577
0.0369998
0.0251735
0.0253877
0.0249034
0.0307813
0.0285639
0.238968
0.0277001
0.0275489
5.73032
0.0239532
0.559483
0.0266538
0.0362606
0.028429
0.224722
0.0245532
0.0607815
2.81301
0.229255
0.0245088
0.0277255
0.0259152
0.0243921
0.0247744
0.0355511
0.0228614
0.159509
0.116537
0.0236409
0.213295
0.0282552
0.0286337
0.128221
0.0249262
0.0643791
0.580907
0.0230391
0.0635996
0.0828309
0.0366878
0.0239554
0.0237551
0.0241283
7.10995
0.0252532
0.0243433
0.0424095
0.0241278
0.0238386
0.110493
0.231917
0.0432558
1.94258
0.0527336
3.49923
0.0247816
0.027728
0.423235
0.0257515
0.0347535
0.0243131
0.0239508
0.024853
0.0281575
0.0641502
0.0239488
0.218943
0.0248673
0.533436
0.026691
0.0295845
0.0231183
0.077949
0.0294976
2.76795
0.045157
0.0247743
2.82213
0.0254678
3.90486
0.0264126
0.075877
0.0264152
0.0237997
0.024493
3.41271
0.0306893
0.0919651
1.84443
0.0243867
0.0369458
0.0221274
0.02859
0.253884
0.0221534
4.43222
0.0267251
0.0796869
0.105342
0.0755826
0.0231792
0.0240652
0.101085
0.0236589
0.0246693
0.0259143
0.0243928
0.0425106
0.0231644
0.127353
0.0251689
5.63704
4.01443
0.219997
3.48349
1.8675
7.49062
0.152256
0.0236314
0.0248043
0.0246365
0.0254689
0.0241063
0.0308148
0.0242214
0.0950726
0.0247088
1.14117
0.0251761
0.0332671
0.0892208
0.0239078
0.0434771
0.0254658
0.0254265
0.0287039
0.0233115
3.82396
0.0776449
0.229757
0.0239513
0.0246225
0.0248948
0.0249544
3.15884
0.0236592
0.1439
0.0240537
0.247474
0.0288253
0.024183
0.0626738
0.0317464
0.0236727
0.276195
2.65736
0.0269586
0.0778667
0.0236288
0.137114
0.0235582
0.0249549
3.53818
0.0243148
0.0253559
0.0910533
3.88533
0.0239012
0.178538
1.35631
0.0245751
0.0259317
0.0244419
1.99423
0.0245874
0.1183
0.0247416
3.43051
0.0292317
2.17761
0.0241918
0.0227877
0.140834
0.0258054
0.0237805
3.68654
0.025872
0.0238579
0.687286
0.0245548
0.0248011
0.0718747
0.0260125
3.2041
0.0413343
0.0740628
0.13721
0.0265827
3.37009
0.0253747
0.0674982
0.0244613
3.64959
0.256221
0.0249424
0.0235906
0.0248716
0.0248774
0.0234144
0.0234894
0.0238916
0.0244884
0.0315313
0.0230395
0.0257013
0.0728592
3.44312
2.76989
0.0846994
0.0249047
0.156963
0.0241746
0.372604
0.39778
24.4574
0.0230406
0.0236434
0.0247261
0.024593
0.0230176
0.0233894
0.0242656
0.0394149
0.0238674
10.9554
0.46326
0.0238856
3.43976
0.0244734
0.0241469
0.0308206
2.85521
0.0616967
0.023799
0.283925
0.0240962
0.0241438
0.23933
0.0249152
2.02731
0.0254327
0.120642
0.0238039
0.0238606
0.032973
0.0600778
0.0258106
3.04809
0.0320548
0.0257446
0.0262097
0.0246161
0.0237349
0.0914597
0.0360216
0.0276436
3.1129
7.97659
0.0558802
0.0963681
0.023826
3.23492
0.023797
2.39452
0.0628632
0.0290016
0.0256521
2.16164
1.92424
2.29713
0.0242771
0.542854
0.0234301
0.0242297
0.0371466
0.0251117
0.0247161
0.201908
4.16112
0.0238593
0.0299426
3.39503
0.0237676
0.0229532
0.834858
2.76753
0.0253593
0.0231488
0.0290482
0.0246924
0.0240938
0.0354976
0.0284146
0.0246186
0.575286
0.0244433
0.160645
0.30241
0.0313318
3.53589
0.0249122
0.0251298
0.0466134
3.91704
0.0718063
0.028781
0.0341391
0.0250948
0.0254572
0.0239197
2.72935
0.0288543
0.0252352
0.0532277
0.0241271
0.228773
0.0757471
0.114952
0.0597563
0.543859
0.320646
2.43256
3.15637
0.0264361
0.529655
0.0229676
0.0583176
0.0771783
0.258347
0.0273757
0.0252357
0.0281264
0.111946
0.0259985
2.74601
0.036719
0.0863715
2.51921
0.0239453
0.09878
0.026288
0.0246365
0.0297855
0.10642
0.0229047
0.0235782
0.0256776
2.84414
0.0238516
0.0258816
0.0265879
0.0253755
0.0245853
0.0895981
0.0692786
0.0252384
0.0239098
0.100483
0.040184
0.0384498
3.45192
0.0249162
0.0245446
2.01414
0.0243516
0.0260839
3.19415
3.42734
0.0316728
0.0584025
0.0290817
7.63241
0.147321
0.0343718
2.74344
0.0240465
0.0785224
3.00262
0.195546
0.570354
0.140428
0.0233718
0.0245391
0.027119
0.0246067
0.0246286
0.239327
0.0243123
0.0453978
0.0232972
0.0574494
2.70474
0.0260372
2.45685
1.78852
0.0245399
0.0755777
0.0288328
0.0257613
0.0243903
3.3108
0.070996
3.65148
0.029832
3.57992
0.0846755
0.0237499
0.295751
0.0369019
0.0257269
0.0241939
0.164576
0.0243989
0.0281667
0.0381091
0.0281976
0.0251268
0.0554399
2.13969
0.0241411
0.156894
0.143865
0.0246668
0.0241465
0.0264082
2.10449
0.377333
0.0237239
0.032478
0.0241857
0.0919674
6.62752
0.0246768
0.0238629
0.0233658
0.024624
0.0271681
0.0267184
2.48559
0.0250389
0.0271149
0.0969078
0.0273496
0.083601
2.78469
3.63054
0.0249134
0.0243549
0.0238201
0.0256217
0.0695291
3.87443
0.214646
0.0922343
0.0322958
0.0501682
0.0265042
0.0689317
0.0279227
0.106889
0.0239528
0.133635
0.0544961
0.0236104
0.0248755
2.98405
0.0491749
0.0678851
3.66191
0.121324
0.0239992
0.605423
0.0262588
0.0242685
2.67259
0.579673
0.0239663
0.0315825
0.104144
0.0355402
0.0252813
0.0231435
0.0241608
0.0237584
0.0243927
0.0318456
0.0517975
4.44111
0.0360307
0.0283192
0.0335573
0.0817184
0.0238707
0.0356611
0.165138
0.223865
2.93357
0.0257925
0.0231209
3.53682
0.0239631
0.0735656
0.0258298
0.0438284
0.0249256
0.0240121
0.182535
0.0287502
0.0257007
0.0246107
2.08908
0.271467
3.29056
0.0247223
0.0245149
0.135624
0.0236456
0.0234831
0.115871
0.6056
0.0292295
0.0352208
0.0252208
2.72851
0.0242881
0.0270178
0.0251287
0.0231043
0.214809
0.0242799
0.0237394
0.226918
0.0586344
2.09984
0.21273
0.0242112
0.0322753
0.0238484
0.0239562
0.0262598
0.0254759
0.0246744
0.185602
0.0246664
0.0712167
0.0292935
0.0301057
0.0247121
0.0254646
0.0240835
3.36185
0.0229093
0.0994869
0.0692877
0.0257579
0.052312
0.035168
0.0325717
0.02456
0.0288544
0.0238551
0.0236018
0.258962
0.0381816
0.02833
0.0241234
0.0241561
0.02372
0.0697832
0.0241332
2.88044
0.0460395
0.0239297
0.0243787
0.0234341
0.0457973
0.0776249
1.91248
0.0353089
0.227791
0.029679
0.0925363
0.0266439
2.87139
0.0232877
0.0228708
0.0275535
0.255469
0.0234663
2.93839
0.0245931
0.0242484
0.117527
0.164136
8.24176
0.236725
0.0282394
0.143547
0.0844889
0.0234466
2.89064
0.024487
0.0238951
1.87537
0.0233545
2.96163
0.17215
0.0240347
0.0245024
0.0234819
3.73447
0.0240823
0.0231384
0.074601
0.0242177
0.0238139
0.0240163
0.0234569
0.045643
0.0247963
0.0268806
0.0235795
0.627946
0.0497824
0.023605
0.023615
0.0253117
0.0243577
0.0267239
0.024801
0.0240993
0.0248257
0.0244301
0.0254766
0.0245565
0.0618077
0.0234249
0.0783415
0.0246066
0.0475213
0.0236851
0.0246555
0.0241104
0.0229578
0.0377324
0.0288554
0.0278256
2.11061
0.0461707
3.48949
2.79522
0.0785728
3.55277
0.0245698
0.0245334
0.404302
2.34629
0.0237994
3.33475
0.0235373
0.116461
0.270161
0.0265963
0.0801785
1.43401
2.04074
0.0240847
0.0474121
0.0239032
0.0244927
0.0270287
3.17715
5.75566
0.0247614
0.0478398
0.171693
0.024722
2.29415
0.236311
0.0260712
0.0239051
0.223227
3.32363
0.0234443
0.0339156
0.024889
0.162532
0.124587
0.0245891
0.0237166
1.5592
0.0239119
0.0245489
0.0251737
0.0235962
1.81517
0.031354
0.0307515
3.1893
0.0243991
0.0583713
0.0248309
0.223042
0.0552352
0.0368083
0.0236478
0.0299829
0.0234463
0.0244682
0.0266871
0.0245292
2.51984
0.0256103
0.0236424
0.0241559
0.263193
0.023884
0.385008
2.41088
0.653564
0.0244709
0.0237934
0.0242851
0.23411
0.0248162
3.13435
0.0241597
1.65932
0.0259557
0.025439
0.189434
0.0246278
0.0245146
3.37421
0.106399
2.91507
0.0246501
3.51072
1.86417
0.0245496
3.12214
0.0246915
0.0281207
4.01047
0.0263704
0.0418994
3.73423
0.0320649
0.0671145
0.0247018
2.29633
0.0245171
0.324585
0.0242918
4.27345
0.0245444
0.0246655
0.026243
0.549416
0.0238312
0.0390043
0.0648451
1.28384
0.0242902
0.0313177
3.53112
0.0886046
1.34184
0.0754186
0.0236771
0.105923
1.69417
0.0268391
1.52634
0.0228207
0.13692
6.25382
0.0238701
6.52978
0.0243821
3.42362
1.24396
0.0265927
0.0265586
0.269968
0.701571
0.024586
0.0257566
0.0236105
0.0245874
3.1666
0.063973
0.18372
0.0245796
0.0297393
3.00566
0.0282242
0.123677
1.87553
0.0241599
0.0244684
0.180364
2.35129
2.06509
0.429491
0.190541
0.0397036
0.0608652
3.4846
2.83819
0.558582
0.0239046
0.077823
0.0451628
0.069997
0.0244972
0.0286642
0.0593173
0.139755
0.561813
0.0247109
1.10039
3.17051
0.0432729
0.0245259
0.0245296
0.0883659
0.0238228
3.62646
0.0303131
0.0245812
0.158707
0.0398333
0.0235869
0.0372801
0.031807
0.0245272
3.76279
0.0277491
3.80554
0.0238197
3.00549
0.253477
0.187291
0.0229558
0.0288446
0.0324814
0.195504
0.107494
0.0677267
3.17655
0.688499
0.0221842
0.0282284
0.0250519
0.119285
6.33285
0.0233198
0.0235547
0.025658
0.598867
0.273548
0.0238787
0.0504994
0.1573
0.0238664
0.0442736
0.0267343
3.78897
0.029709
0.332854
3.23894
0.0305804
0.0272272
1.36546
0.0241332
0.0460304
2.93967
0.0272265
0.0861655
0.033556
0.0581471
2.33781
3.46204
0.024675
0.975507
0.450619
0.0233659
0.12567
0.0659207
0.10437
2.44775
0.172625
0.328578
0.102155
2.84371
0.029235
0.066327
0.0230142
0.0248539
0.0245792
0.0238409
0.194741
0.141058
0.0229091
0.0455722
0.16307
0.0241179
0.597856
3.14829
0.0226153
0.0247724
0.0231631
0.0255181
0.0451674
0.0245131
3.78601
0.0316563
0.06907
0.0285148
0.0682543
0.0571273
0.034999
1.10276
0.0245239
0.025616
0.0228643
0.023772
3.56175
0.0933927
0.0309304
3.49961
0.024648
0.0250421
0.0337489
0.023574
0.0238881
0.0742068
0.0279099
3.20129
2.08912
2.71043
0.0247491
2.39508
0.0242937
0.290601
0.0235597
0.134491
2.18251
0.0244167
0.484537
3.45714
0.0341261
0.0253378
0.0235654
0.029985
2.59547
0.0235652
0.0248828
0.0253042
0.0265801
0.183743
0.0257687
0.0281589
0.0241183
0.0252618
1.45115
0.0356733
0.026623
0.119567
0.0816351
3.26372
1.02225
0.0260178
0.0254259
2.96474
0.0245127
0.0654504
0.0247711
3.20369
0.0249478
0.0248757
0.033351
2.81778
0.0244756
0.0236394
0.0232677
0.138566
9.76168
0.111187
0.0245972
0.0266467
0.0238618
3.25075
0.0237549
1.96498
0.0572774
0.0246514
0.151852
0.0355286
0.24986
0.0251752
0.0234741
0.0321531
0.0416731
0.115934
0.0248232
0.0249643
0.0248409
2.84489
0.0245186
0.0254031
3.42146
0.0259639
0.0298943
0.0272704
0.0239972
0.0240865
0.500682
0.0263406
1.38695
0.262923
0.0226488
1.93349
0.0249254
0.100679
0.0490453
0.0255889
0.0230007
0.0226162
0.0244966
0.361373
0.0479504
3.41268
2.74613
0.0238741
0.0233776
0.0397075
0.912944
0.0244867
0.357738
3.48628
3.05504
0.0240944
0.0258893
0.0250646
0.108159
3.53316
0.0244135
0.0246411
0.0324775
3.68708
0.0247698
0.0259622
0.0259002
0.113786
0.546985
0.0233171
2.7184
0.0313709
0.0245122
2.61027
0.0569134
1.95174
0.824435
0.0337813
0.0283973
0.0254689
0.0291205
0.0251111
0.0631567
0.0475636
0.024108
0.0271195
0.21601
2.13009
0.0235471
0.103231
2.29358
2.03833
0.0242407
0.0246278
0.260691
2.55516
0.0768144
0.0241116
2.27307
0.0665458
0.0227133
4.44127
0.0295792
0.0247096
0.169763
0.0243885
0.0329853
0.0237552
0.0225093
0.024525
0.0232594
3.14603
0.0229137
0.0241399
0.0761211
0.0276985
0.0271919
0.129554
0.0245543
0.0245975
0.0258261
0.025409
0.228588
0.228679
0.348089
0.948298
0.0364941
0.306947
0.0433565
2.86554
2.11597
3.07668
0.0238012
0.0320648
0.0245117
0.0245473
0.0238211
0.0250721
0.180652
0.0595892
0.0392323
0.0240891
0.0244776
0.0561749
0.0248546
0.0249087
0.0245495
3.27057
0.0329356
7.74058
0.0247373
0.260651
0.0250188
0.0248001
0.0251085
0.0434651
0.0240227
0.0831689
2.90127
0.0420577
3.59862
0.509625
0.0259792
0.0297354
0.200595
0.107442
0.0230608
0.0237703
0.0226379
2.75816
0.0224808
0.0715938
0.0414805
0.0759962
1.58421
1.35511
0.0650111
3.80598
0.0234572
0.0232533
0.0963359
2.86432
0.0244754
0.0247096
0.407007
0.0239159
0.170139
0.0257729
0.0235846
0.0279252
0.0246063
0.0704482
2.83146
3.09749
0.0273951
0.0243444
0.0780894
0.0255495
0.0763641
0.0238242
0.132218
0.0895009
0.0249093
0.0246579
0.0227029
0.117063
0.0564263
0.18676
1.9864
0.0316835
2.89332
0.0736318
0.107965
3.31858
0.0243163
2.73753
0.0253575
3.29917
0.179046
2.74251
3.20778
0.024819
0.0539588
0.106628
0.0244089
3.84575
0.024522
0.0245809
0.0284843
0.02515
0.0326783
0.209886
1.27836
3.75807
0.0282969
0.0409496
0.0255396
0.0247785
0.0247912
0.122314
0.0855361
2.30931
0.0452765
0.0229583
0.0236273
0.0250258
0.229534
0.0268788
0.0253444
0.027611
0.0880195
0.0334284
0.0423754
0.0400639
2.75985
0.0313315
0.0344898
0.0244959
0.0285531
0.538762
0.242234
0.0468903
0.0235646
2.6008
0.0344499
0.0240827
0.0486539
2.8924
0.384621
0.0347116
0.023923
2.7698
0.0249644
0.0238764
0.0230047
1.96908
1.64399
0.0259647
2.37556
2.99768
0.0272609
0.0399579
0.0596334
3.76961
0.0324981
3.49646
0.0249936
0.118152
0.0272835
3.64941
0.0349837
0.0236815
3.04558
0.0247019
0.0253448
1.56272
3.03558
0.0652879
0.702798
0.0271758
0.0256411
2.32596
0.024092
0.0242121
0.0246917
0.0454771
0.0244697
0.0332386
0.0272565
0.363141
1.45667
0.0252344
3.80801
0.0271663
2.97942
3.46137
0.024657
0.024821
0.0280667
0.28156
0.179978
0.0660524
2.89098
2.71764
0.975737
0.0254107
2.69355
3.1999
0.0516319
0.92236
0.0246252
0.0242946
0.0247193
0.0254444
0.0243222
0.0348402
3.14444
0.0332855
0.264521
5.47438
2.66866
2.53035
3.31985
0.0307754
3.64741
0.103918
0.0742814
0.023531
0.0244618
0.0681456
4.02359
0.0254694
2.80518
3.15677
0.0238415
0.0246945
0.0245032
0.0859687
0.0250532
0.0717734
2.74468
0.0235157
0.024506
0.023821
0.0252754
0.0972867
2.93795
0.0373219
2.9324
0.105375
0.0241688
0.260969
0.118529
0.0244203
0.358633
1.08899
2.28098
1.62766
3.4444
0.0243378
2.30826
2.97949
0.149209
2.93651
0.023817
0.0261015
0.0266128
0.0262823
3.23777
0.0654519
0.0247915
0.0294928
0.30406
3.0673
0.0253059
0.0256537
3.56279
3.29349
0.0248293
0.0300737
0.101335
0.0243908
0.0245108
2.16292
0.0241045
0.237342
0.261754
3.33394
0.0240041
0.0733869
0.140242
0.0240461
0.0227549
2.06735
2.13545
0.0248621
0.0351491
0.163079
0.208191
3.54877
2.19193
0.0281437
0.2507
0.27225
0.0361159
0.024118
0.0702971
0.0232042
0.0228652
3.25774
0.0388555
0.0912786
0.0271067
0.028326
0.0238294
0.0232429
0.0251908
0.0253775
2.54468
0.0268906
1.65033
6.10951
0.0445543
0.070954
2.55591
3.56036
2.53704
0.0234668
0.0274697
0.0366427
0.0279406
0.167847
0.273521
0.0251728
1.43935
3.2573
0.0288809
0.0907946
0.0747556
0.0989452
0.107796
0.0257036
0.119581
0.130725
0.143566
0.158421
0.111335
0.0814485
0.028881
0.0240666
0.0345293
0.0899908
0.0240493
0.444867
3.71015
0.159845
2.9844
0.0227308
0.0235459
0.130769
2.9102
0.0253073
0.0266219
0.0645866
3.20171
0.847493
0.0245257
0.0328665
0.0277542
3.66061
0.303074
0.0269316
0.361236
3.03548
0.100018
3.40142
0.0923854
0.370955
3.65123
0.0221233
3.73498
3.13796
0.0254731
0.0691723
0.0945822
0.0280961
0.0237604
0.426822
1.1101
0.023642
0.0236934
2.29754
0.515457
0.0774607
0.0247763
0.214232
0.125291
3.12348
3.71853
0.0246719
0.024461
0.0252589
0.0257092
3.43912
0.107593
3.02488
0.0840312
0.178507
0.53607
0.0256977
0.0239906
3.10058
0.0237663
3.57731
0.0235406
3.39746
0.02552
0.0253484
0.132152
0.024486
0.110424
0.354096
0.0272145
0.0263626
0.0256342
0.174957
3.28445
0.14674
3.0225
0.0267521
0.0255244
0.0300246
0.0747398
3.85956
3.49243
0.0935866
0.214087
0.122143
2.68414
0.0239635
0.0237212
0.0235344
0.0235338
0.177364
0.0638849
0.292365
0.0419365
0.144833
0.0240758
0.259851
1.28071
3.87253
0.024583
0.0257691
0.0225281
2.97946
0.0283398
0.644106
0.175085
0.119062
0.188875
0.0226701
0.038434
0.139697
0.177447
0.428527
0.0246636
0.13094
0.0249859
0.0247562
0.0991171
1.02868
1.20112
0.0247817
0.0840267
0.136699
2.4838
5.22716
3.43612
3.38828
0.0239141
0.0606625
0.0245105
0.135906
0.0240247
0.105961
0.026032
0.0493872
0.22993
0.279897
0.0264032
0.103964
3.11295
0.115255
0.0263193
1.6868
0.105952
0.0251149
0.0250827
3.28475
0.0308752
0.120197
0.255644
0.359822
4.08597
0.0260571
3.04109
2.87879
0.588511
0.163119
0.0333267
0.107136
0.0969587
3.37024
0.0642755
0.0251922
0.945372
0.0514357
0.433897
0.0298038
4.11413
0.495319
1.54092
0.0287004
1.36845
0.0268634
3.06697
0.143126
1.88523
7.33986
0.0238911
0.0225016
3.08622
3.6923
0.0321666
0.0251066
0.0430284
0.032367
3.0245
0.06673
3.16223
0.0283979
3.2184
0.118615
0.552683
0.0251487
0.146125
3.54583
0.0265957
0.0849537
0.0227235
0.0270239
0.0247227
0.243322
0.0241761
0.0247383
3.62166
2.6579
0.0235084
3.77893
0.0253267
0.0244604
0.0243484
0.0237901
0.0248539
0.430622
3.52675
0.0234557
1.83244
0.0687521
0.0489228
1.40777
0.0864328
0.0279938
0.0340038
0.0243594
0.233324
0.0323258
3.82099
0.0272744
3.09739
0.666684
0.0704324
1.67733
3.28968
0.0236836
3.66417
0.0560969
0.0664996
0.0405437
0.0241369
0.0399381
0.185494
0.0246781
0.0657323
0.02452
3.37173
0.141643
2.37269
0.170783
0.163199
3.58826
0.0246222
0.0240201
0.0639941
0.0258288
0.0248228
0.024852
0.0294546
0.0240424
0.0242263
0.0255955
0.0435501
0.0260736
0.0295268
0.0257542
0.0387058
0.100818
0.0263598
3.47608
0.0261534
0.0242884
0.0938473
0.0435571
0.0258425
0.0240207
1.84298
0.0263367
3.16539
0.0264999
0.1102
0.0243605
0.0243533
0.103454
3.70216
0.0719298
0.0364614
0.0228643
3.14145
0.0247475
0.0241776
0.0781654
0.0267609
0.13816
3.09151
0.0986779
0.17488
0.0427037
4.12325
0.0244631
0.0246944
0.0637244
0.25908
0.0610878
0.0979573
3.01493
0.0297639
0.0246428
0.0302224
0.214897
0.0587653
0.0246987
0.102257
0.0974778
0.0651212
0.0248579
0.0247553
0.172687
0.0639431
1.81465
0.31572
0.0264646
0.07176
0.0248265
0.0456227
2.29084
0.024738
0.156396
0.137892
0.0824305
0.84948
0.0246395
0.0243376
0.0242967
3.61411
0.210128
0.0262848
0.101057
0.111456
0.0248014
0.0243818
0.135771
3.72448
0.172705
3.14069
0.144837
0.0328105
0.301585
0.121914
0.0325874
0.648713
0.0891368
0.658383
0.0245904
0.0981191
0.13406
0.0253572
1.88735
0.0408243
0.0840233
0.0294034
0.147119
0.0240537
3.99418
0.0272894
0.0237093
0.0237713
0.0236281
0.0256012
0.0254155
0.0237688
0.0269295
0.0246591
0.025301
0.229791
0.0801896
0.0252358
0.064488
0.0272721
0.025352
0.0231982
0.0476653
0.0292096
2.14241
0.0246589
0.0247005
0.0692087
0.14063
0.024668
0.0246157
0.10927
0.026427
0.0911161
0.0612681
0.0244844
6.54512
0.0266208
0.0253115
0.0767132
3.8409
0.0251509
0.0589323
0.0236384
0.0283785
0.0242089
0.0294775
0.0241883
0.0247163
0.0426357
0.0617602
8.72075
0.051892
0.0245675
0.0306936
3.27333
0.0511254
0.17546
0.10121
0.0247488
0.0549394
0.757803
0.184326
1.89433
0.0283645
3.36229
0.289285
0.0316595
0.0247939
0.0756818
0.0252716
0.0581333
3.10325
0.02459
0.0600411
0.0248312
2.84597
0.047483
0.025388
0.0625648
2.9595
0.488453
0.0266664
0.074138
0.032677
0.0234865
2.07736
0.0233281
0.0356094
0.02408
0.0276768
2.68265
0.0739393
0.0232111
0.0312478
0.174894
0.0245931
0.0249363
0.0306566
0.027953
0.0245118
0.0265805
0.0271683
0.0250549
0.0240652
0.0634102
0.105031
0.175444
0.0240055
0.059805
2.98946
4.33158
0.0234531
0.0246254
0.02781
0.0915
0.0251912
0.0240209
0.0242141
0.023719
0.0285275
0.029969
0.0272596
0.0670982
0.0261697
0.0232131
0.0261655
0.065669
0.0483548
0.108613
0.0252
0.0308021
3.20764
0.0316472
0.0274152
4.14686
3.20046
0.100295
0.0690973
0.160141
0.0243005
0.305993
0.0295181
5.2556
0.0245034
0.0242707
1.47995
0.0237172
0.257587
2.3316
0.0250482
13.6253
0.0329973
0.0343201
0.0292486
0.0740568
0.0312015
0.0287624
1.54185
0.023794
0.027034
3.53348
0.0257998
0.0244276
0.032521
3.16897
0.0252275
0.0252286
3.24172
0.0263427
0.0292088
0.0602376
0.0231154
6.82815
0.0268777
0.0253506
0.102446
0.0590663
3.05772
0.0263524
1.42649
0.0357213
0.0895047
2.24596
0.0245916
0.0347891
0.0927282
0.0252144
1.74068
0.0252452
0.0261741
2.91215
0.0253079
0.0431105
0.088326
0.123525
0.0324996
0.0290124
0.0253638
0.0267125
0.0916455
0.0271574
0.0331481
0.071251
0.0556558
0.0245763
3.3993
0.0400501
0.0232278
0.0257736
0.0242822
0.0235829
0.023118
0.0245848
0.0245631
0.0321385
0.0266765
0.0417071
0.0229361
0.0232404
0.0247582
0.0796243
0.0236288
0.0328333
0.0599056
0.0310095
0.0322808
0.0243834
0.0261838
0.026975
0.0393648
0.030809
0.0270143
2.64785
0.0247105
2.05849
0.0275623
0.0905294
0.0884126
0.024544
0.0607208
0.0336398
3.13387
3.02616
0.0280764
0.0247899
0.0264231
0.0321997
0.0497006
0.0242729
0.253106
0.0545702
0.0246449
0.0562679
0.0473395
0.0600859
0.0307697
0.156277
0.0826372
0.0295429
0.491471
0.0260038
0.129173
0.0254706
0.0242975
0.0839564
0.0852646
0.0244866
0.0518024
0.0245475
0.0247434
0.0244994
0.0250877
0.0245334
0.0245009
0.0244623
0.0251604
0.161838
0.0255549
0.0244268
0.0253555
0.0255288
0.19123
2.94061
0.05736
0.026876
3.3172
0.0244917
0.0244419
0.063596
0.0343721
0.0251842
0.0252299
0.0246998
0.157034
0.0247616
0.0282386
0.0252959
0.0357129
3.76518
0.0245613
0.0562948
0.0667385
0.0278479
0.0450379
0.0234056
0.024764
0.0619889
2.00598
0.0261904
0.0376204
2.09164
0.0926398
0.0235853
2.25264
0.0256263
0.0221854
0.0549574
3.56465
0.0244073
0.0236007
0.0261077
0.0325847
0.0354668
0.0245142
0.0254054
0.0410822
0.0247613
0.0310205
0.0283996
1.25562
0.0230779
2.83535
0.306499
0.0389847
0.0243001
0.0941309
0.023876
0.0262665
0.0246262
0.0577197
0.0228873
0.0228672
0.0423831
0.0574056
0.69078
0.0249256
0.0227394
0.026204
0.0236255
2.86832
0.0261748
0.0257354
0.0251538
0.0628945
0.0493811
0.0263959
0.0259604
0.0465796
0.0246801
0.0243907
0.026314
0.0251734
0.14966
0.0241542
0.0328088
0.0250752
0.0245939
0.0506906
0.0905619
2.78814
0.0244953
0.0549731
0.188178
2.9982
3.36419
0.0334475
0.0245576
0.0272346
0.0321753
2.47932
0.0248796
0.0277851
0.0295012
0.033267
0.0229678
0.0564174
0.0480856
0.97766
0.0251311
0.024766
0.0898924
0.861289
0.0228115
0.027288
0.0356584
0.0226123
0.0254681
0.0473526
0.0238817
0.024519
0.0247924
0.0272107
0.083687
0.0381278
0.0254895
0.0233591
0.0251617
0.143337
0.0225411
0.0236738
0.0284258
0.0904449
0.0282036
3.72318
0.0271623
0.0244904
0.0246127
0.0259743
0.0242407
0.0352046
0.056335
0.0237227
0.0239781
0.0250648
0.0243547
0.0250234
0.0468539
2.53053
0.0256094
0.100489
0.0262112
0.0243644
0.214399
0.0263514
3.60503
0.0248834
0.024728
0.0236122
0.0245457
0.0255299
0.0329948
0.0394335
0.647444
0.0303673
0.0550495
0.0247824
0.0355743
0.0245377
0.0262533
0.0356906
2.53684
3.11229
0.0248373
3.25805
0.187746
0.0439654
1.87313
0.0224098
0.024498
0.0246566
0.025842
2.725
0.0235796
0.0736902
0.243409
0.025372
0.0834026
0.0226052
0.033381
0.262652
0.590825
0.0248316
0.269383
0.117449
0.27704
0.0287585
3.3747
0.0255784
0.155107
0.101367
0.0233133
0.0409171
0.0336238
0.0265314
0.375335
0.0331111
0.0237398
0.0255725
0.282535
0.0247795
0.0529586
0.0246756
0.0225129
0.0257432
0.0349259
0.0246215
0.0823114
0.029226
0.0264277
0.0224772
0.0245041
0.49558
0.0809205
0.141869
0.0358446
0.0277061
0.030427
0.0282383
0.0244657
0.0256646
0.0355907
0.0260619
0.0269817
0.0231713
0.028535
2.92151
0.0250764
2.06581
0.138605
0.0246675
0.0247208
0.0229906
0.0309968
0.0383942
0.02278
0.028205
0.025823
0.024914
0.0240735
0.0250515
0.0241359
0.0245975
0.23325
0.0247517
0.0288276
0.024563
0.165992
0.616519
0.0245056
0.266839
0.0246368
0.0267818
0.0325449
0.32773
0.0313823
0.0239766
0.0242892
0.0356217
0.0436491
0.150145
0.0255772
0.0514864
0.116111
0.0250074
0.024518
0.134297
0.0541909
0.0334808
0.0247767
0.0254762
0.0256869
0.0262335
0.0237174
2.07319
0.026828
0.0267964
0.0234842
0.0306975