/*--------------------------------*- C++ -*----------------------------------*\
| =========                 |                                                 |
| \\      /  F ield         | OpenFOAM: The Open Source CFD Toolbox           |
|  \\    /   O peration     | Version:  v2012                                 |
|   \\  /    A nd           | Website:  www.openfoam.com                      |
|    \\/     M anipulation  |                                                 |
\*---------------------------------------------------------------------------*/
FoamFile
{
    version     2.0;
    format      ascii;
    class       volScalarField;
    location    "300";
    object      p;
}
// * * * * * * * * * * * * * * * * * * * * * * * * * * * * * * * * * * * * * //

dimensions      [0 2 -2 0 0 0 0];


internalField   nonuniform List<scalar> 
13917
(
-0.0585448
0.00288494
-0.0522496
-0.0220607
0.00349506
0.00352177
-0.0330876
-0.00108297
-0.0440362
-0.0769231
7.04746e-05
-0.0145334
-0.0121416
-0.0130263
0.0024554
-0.057574
0.000907916
0.00113668
-0.0486001
-0.0662776
-0.00246305
-0.00105567
-0.0411243
-0.000926444
-0.0180756
-0.000498061
0.0334859
-0.0773441
0.00241839
0.000288821
-0.0778687
-0.0537137
-0.0178619
-0.0551451
0.00144301
-0.00173087
-0.00677017
-0.00251047
-0.0340447
-0.00723231
0.000968265
0.00160703
-0.0397344
-0.0518382
-0.0512752
-0.041995
-0.00331097
-0.0382369
0.00134583
0.0014152
-0.0142901
-0.0377882
-0.050423
-0.00776498
-0.00863421
-0.0387731
-0.07609
-0.0402143
0.00156578
-0.0411191
-0.0732876
0.00313292
0.000204691
-0.0181101
-0.0480991
0.00203468
0.00244536
-0.0020084
0.000748785
-0.0512535
-0.0494018
-0.0543116
-0.021418
0.00151992
-0.00218951
-0.0139312
0.00246391
0.00148349
-0.014101
-0.0180179
-0.00339379
0.000835709
-0.0211796
-0.0516134
-0.00815182
0.00672496
-0.0533956
-0.00791487
-0.00679977
0.000863726
0.0010112
-0.0406857
0.00426152
0.00124233
-0.00661901
0.00274661
0.0403548
0.000229162
-0.00807125
0.0207422
0.000647158
0.000618108
-0.00347784
-8.35722e-05
0.00229954
-0.0562048
-0.0516636
0.00290723
0.00162807
0.0346421
-0.0129326
-0.0555786
0.00264137
-0.0444938
-0.0506003
-0.0120796
-0.0485183
0.0010288
-0.0516619
-0.0205678
0.000838634
0.0014085
0.00264588
-0.042637
-0.0506992
-0.0507403
-0.0187688
-0.00137244
0.000341878
-0.0433157
-0.0478315
-0.014506
-0.0554453
-0.0115541
-0.0536461
0.0383178
-0.0689431
-0.0533747
0.000650447
-0.00241949
-0.00762782
0.0014661
-0.0583702
-0.00327761
-0.0197859
0.00183535
-0.0497868
-0.00857554
-0.0433754
-0.00789751
-0.00760674
0.000580611
-0.0195539
-0.0208061
0.0455024
0.00115007
-6.85215e-05
-0.0578272
0.000958175
0.00100948
-0.00637126
-0.0484146
-0.00286684
-0.00696971
-0.0470929
0.0268685
-0.0505467
-0.043914
7.21697e-05
0.00130929
-0.000475581
-0.0548748
-0.044347
-0.0671874
-0.0264973
0.000850269
-0.0226874
-0.0383926
-0.0475864
-0.00243788
-0.0382515
-0.000670439
-0.0138304
-0.0459622
-0.0512997
-0.0125727
-0.0135702
-0.0458088
0.000358834
0.00687228
-0.0251013
-0.0511913
-0.0441065
-0.0615241
0.0012124
-0.0506322
-0.0196432
-0.0557488
0.00136855
0.000882972
-0.00501158
-0.05214
-0.0528614
-0.00535302
0.0238243
0.000570558
-0.00788249
0.00144548
-0.0389607
-0.00296526
-0.000236108
0.00329014
0.0032933
-0.0398596
-0.0538497
0.00019127
-0.0507998
-0.00444471
0.00114354
0.00114727
-0.0415557
-0.044673
-0.0472358
-0.0128216
0.00016749
0.036875
-0.0509135
0.001125
0.00111348
0.000907163
0.00116665
0.00117125
-0.0548008
-0.0357322
-0.00223867
0.000121275
-0.0350926
-0.0527188
0.00100153
-0.0126718
0.025329
-0.0599393
-0.0452598
-0.0525212
-0.0280827
-0.00343647
-0.0420013
-0.0359623
0.00219956
-0.0467242
-0.00576438
-0.0393247
-0.0207966
-0.0178049
-0.0264725
-0.00168059
0.00102067
-0.0187464
0.00310242
0.00158923
-0.0514758
-0.0265849
0.00138697
0.00109423
0.00126106
0.00109115
-0.0209972
-0.0123145
-0.0306573
0.00143447
-0.0552824
-0.0494635
-0.0116255
0.00261881
-0.0422873
0.00115545
0.0150342
-0.0520063
0.00115708
-0.0517908
0.0015136
-0.0455003
0.000807902
0.00174782
-0.001455
-0.0025875
-0.0471593
-0.00157223
0.0304198
-0.0161516
-0.025073
0.00197837
0.0156978
-0.0544288
0.0010099
-0.0368912
0.00313633
-0.0105947
0.00332769
-0.0148618
0.00134699
-0.00155473
-0.0359869
0.00503265
-0.0176154
-0.0150378
-0.0123967
-0.0555008
-0.051808
0.000434107
0.0017952
-0.0111778
-0.00370542
-0.0581337
-0.054358
-0.065257
0.00122241
-0.0144532
0.00257418
-0.0522198
-0.0070903
-0.052603
-0.0118403
0.0024262
0.0276315
0.000305667
0.00271544
-0.0505974
0.000987665
-0.0556802
-0.00800559
-0.0587518
0.00121493
-0.0698184
-0.00139809
-0.0188946
0.000690853
7.6469e-05
0.00102543
-0.0480445
-0.0572421
-0.00736009
0.000441447
-0.0549963
-0.0600446
-0.0556035
-0.0192771
0.00113632
-0.00317687
-0.0608698
-0.0170788
0.00113748
0.00309725
-0.0109158
0.00570963
-0.0188664
-0.042474
-0.0175432
0.0160026
-0.0552351
-0.0582232
0.000391433
-0.00777535
0.00341384
-0.0487024
0.000959911
-0.0602836
-0.0555508
-0.00812924
-0.00845038
-0.0179396
0.00160642
0.00994208
0.00155063
-0.0468396
-0.0441135
0.000943086
-0.0115947
-0.0490864
0.00125072
-0.0465091
-0.0448069
0.00158182
0.0062647
-0.000374888
0.00221749
0.000853973
-0.0653302
0.00102733
-0.00886473
0.0309643
0.0128661
-0.0059645
-0.0496051
-0.0647674
-0.010057
-0.0469723
-0.00418341
0.0154079
-0.0521168
-0.00813856
-0.0378461
-0.0157131
-0.00302488
-0.00333693
0.000359252
-0.0692832
0.0237795
-0.00807503
0.000625279
-0.0013752
-0.0321426
-0.00073648
0.00116808
8.36001e-05
-0.0577785
-0.0151648
-0.00255464
-0.0090958
-0.0643013
0.0380919
0.00165586
-0.0490365
-0.0516136
0.00132035
0.00114753
-0.00301648
-0.00336965
0.00117344
-0.00200943
0.00115519
0.00130583
-0.038278
-0.00426645
-0.0082483
-0.055174
-0.0358215
-0.000227445
-0.0190241
-0.0492245
-0.00422142
-0.0500282
0.00119451
-0.012559
0.00124991
0.00119763
-0.00673714
0.000173371
-0.061771
0.00153934
-0.0588519
-0.0123276
-0.0436323
0.00172267
-0.00299362
-0.0292421
-0.057869
-0.0111022
0.0322906
-0.00029661
-0.00305962
-0.00142138
-0.000585045
-0.000248618
-0.00636392
-0.0551234
-0.0685737
-0.000258709
0.01029
-0.056535
-0.0123844
-0.0360168
-0.0645743
-0.0427989
-0.040126
-0.0627497
-0.0027655
-0.00341924
-1.48241e-06
0.00128355
0.00223731
-0.00559228
-0.0519915
0.000962471
-0.00802453
-0.00706263
-0.0404361
-0.00458432
-0.0507724
-0.0455568
0.00175065
0.00284612
0.00183519
-0.00682921
-0.00780398
-0.00936276
-0.0345771
-0.0170261
-0.0537063
-0.00825404
-0.00613494
-0.0395701
-0.00221172
-0.0567773
-0.00326856
0.00119673
-0.0329846
0.00119407
-0.00406153
-0.0341659
-0.058531
0.0254386
-0.00650387
-0.0268789
0.00162758
-0.0539291
-0.0413867
-0.00769655
-0.0083699
-0.00644848
-0.027459
-0.0181106
0.00068065
0.00094479
0.000786787
-0.00324843
0.00257811
-0.0245514
0.000983586
-0.0449175
-0.00223025
-0.00164846
-0.0159465
-0.0574183
0.000812876
-0.0319509
0.00156052
-0.0432056
-0.03874
0.00633795
-0.0272799
0.0206561
-0.0143891
0.00216692
-0.0550193
-0.0361357
-0.0559424
0.000521759
-0.00123372
0.00193688
-0.0127385
-0.0511282
0.00117143
-0.0273564
-0.0204077
-0.0545638
0.0175993
-0.0391181
-0.0714865
-0.000156776
-0.061037
0.000220645
0.0018417
-0.0536429
0.0011752
-0.0558318
0.000335695
-0.0123984
-0.00118799
-0.0509238
0.00264944
0.00103581
-0.0530084
-0.0352714
-0.0104205
-0.0504142
-0.0589802
-0.0413997
0.000794709
-0.0504697
0.0004191
-0.075253
-0.00225607
0.00185946
0.0017402
0.000684328
-0.0341515
-0.0378904
0.00117825
0.000260403
-0.0103455
-0.0518636
-0.00715896
-0.053878
-0.00781083
0.00102983
0.00100451
-0.0415632
-0.0433928
-0.0663913
-0.0463357
-0.0252921
-0.0474738
-0.0523655
0.000906068
-0.0570946
-0.0113128
-0.0648215
-0.0124407
-0.0494267
-0.00319259
0.00323156
-0.0202443
-0.00845361
-0.0323024
-0.050798
0.000940033
-0.0306468
0.00123038
0.000670669
-0.0586619
0.029397
0.00145663
-0.0430113
-0.012549
0.00167052
0.000569811
-0.0578519
-0.00738102
0.00310371
0.00116461
0.00136861
-0.0483482
0.000520274
-0.0439263
0.000718876
-0.00166487
-0.0757601
-0.0541727
-0.00761671
-0.0530555
-0.0561343
0.00344016
-0.0392733
-0.00016048
0.00305282
-0.0587905
-0.0605577
-0.00368546
-0.00723893
0.00345462
0.000747429
-9.92522e-05
0.00143591
-0.0384499
-0.0168029
-0.055269
-0.0330579
-0.00133417
-0.0447796
0.00553454
-0.0221589
-0.0443451
-0.0522957
0.00132765
0.00447638
0.000816944
-0.00179272
0.000831903
0.000918898
0.00172586
-0.0049714
-0.0513164
-0.0537841
-0.000399398
-0.0504745
0.00094682
-0.0531929
0.00154037
0.000444085
-0.0588549
-0.0391672
-0.0105609
-0.0211916
0.00137552
0.000727977
-0.024821
-0.0343542
-0.00198732
-0.0508529
-0.0157474
-0.0221346
-0.0078885
0.00451257
-0.0564214
-0.0265174
-2.20843e-05
0.0013216
-0.0520574
0.0266953
-0.0194367
-0.0500222
-0.0155313
-0.00142627
0.000482133
-0.00608682
-0.0563076
-0.0100083
-0.0314505
-0.0242656
-0.0315373
-0.0655328
0.00231207
-0.0428854
-0.0530715
-0.00653355
-0.0176603
-0.000146911
-0.0336735
0.00284978
-0.0645875
-0.00947624
0.00156435
-0.0504897
0.000839452
-0.0192479
-0.00767879
0.00181753
-0.0234581
-0.0604765
0.000808402
-0.0617525
-0.0431439
-0.00141712
-0.0133912
-0.0100945
-0.00503397
-0.0118346
-0.0202583
0.00595804
0.00185218
-0.0399444
-0.0436007
-6.82586e-05
-0.0634821
-0.0431576
-0.0401139
-0.043797
-0.00290262
-0.0600879
0.0391719
0.000952745
-0.0397793
-0.0243422
-0.0518608
-0.000437636
-0.000352485
-2.34925e-05
-0.0514716
-0.0172441
0.00161257
-0.05743
-0.00198812
-7.13147e-05
-0.0387976
0.0340977
0.00691362
0.0400366
0.00420663
-0.0617156
-0.0206882
0.0026429
-0.0480244
0.00184737
0.00306643
0.000955388
0.000779408
-0.0199882
-0.0083517
0.00766816
-0.000391563
0.00120204
0.00090161
-0.00158469
-0.00814908
-0.0407232
0.00120894
-0.0463242
0.00184919
-0.047818
0.0079304
0.000988578
-0.0550641
-0.0170105
-0.0511081
-0.0378823
0.00955962
0.0019953
0.00059949
-0.0133485
-0.0563513
-0.0322054
0.0013102
0.0369871
-0.0117548
-0.0514899
8.94356e-05
0.0026688
-0.00786678
0.000111101
-0.0406238
-0.0334178
0.0111274
-0.0479513
0.00225606
0.00105054
0.000683122
-0.0175786
-6.4075e-05
-0.00715022
-0.0109621
-0.00106331
-0.0567821
0.00104835
0.0125237
-0.00605599
-0.0552347
-0.0513666
-0.00416885
-0.0595646
0.0358524
-0.0556449
-0.00360889
-0.000881644
0.00163347
-0.0157693
-0.0140105
-0.0063149
-0.0330285
-0.00626902
-0.00189324
-0.00730024
-0.051823
-0.0173214
-0.0521931
-0.0116842
0.000774911
-0.006286
-0.0165494
0.00194735
-0.0275943
0.001246
-0.0596084
-0.0388821
0.000804647
0.000520833
-0.0157978
2.58505e-05
0.000991889
-0.0504068
-0.00102423
0.0265812
-0.00336247
-0.00641557
0.00238344
-0.0042323
-0.0620454
0.00276999
-0.00104489
-0.0074218
-0.0532605
-0.00381815
-0.047531
0.000183657
0.0228688
0.00131125
0.000853578
-0.0587907
0.000652531
-0.0222387
-0.0498416
-0.0576523
0.0013738
-0.00349231
-0.0482509
0.00159984
0.00122341
-0.00101797
-0.0519722
-0.015281
-0.053019
-0.015493
-0.0560948
0.00221782
-0.0370426
0.000534797
0.00109524
0.00237501
-0.00643357
0.000605086
-0.055299
-0.0081105
-0.00265315
-0.0177204
0.00163165
0.00159117
-0.039142
-0.00972862
-0.0511817
-0.00903579
-0.062995
-0.0375583
-0.0306396
-0.0549924
-0.00580694
-0.0394529
-0.0135859
-0.0532315
-0.00759374
-0.022535
0.00131408
0.00179243
-0.00799495
0.0012665
0.00131104
0.00140183
-0.0135843
-0.0229501
0.000952323
-0.00843745
-0.051285
-0.0374275
-0.0468892
-0.0496461
-0.000129253
0.00122095
-0.00627604
-0.0482552
-0.0162535
-0.0526286
0.0011864
-0.000899169
-0.0101724
-0.00499605
0.00118247
0.00126378
-0.00868565
-0.0220978
-0.00280031
-0.0666971
-0.0112637
-0.00185618
-0.0558348
-0.013833
0.000282406
0.00281512
-0.0578341
-0.00411741
0.000892149
-0.0113675
0.00121123
0.00055117
-0.0621266
0.00165747
0.0408804
-0.0227866
0.0100219
-0.000341131
0.00142472
-0.00527011
0.00202443
-0.0147023
-0.0526894
0.00206707
-0.00254268
0.0015111
-0.0160612
-0.000358385
-0.0570948
-0.0551612
-0.0163306
-0.0524206
-0.0622735
0.00357565
-0.0572272
0.00138553
-0.0531885
0.00140704
-0.066644
-0.0277727
-0.0386819
-0.0140567
-0.0390353
0.0201172
-0.0603363
0.00157436
-0.0093963
0.00128286
-0.00653604
-0.0557599
-0.00594859
-0.0151054
-0.00603673
-0.0520464
0.00142914
-0.0486693
-0.0520221
0.000284958
0.00115895
-0.0285954
-0.0479604
-0.0142374
0.000372022
-0.0328875
-0.0182631
0.000590615
0.00616164
-0.00221918
-0.0156372
-0.0198996
0.00147912
-0.000496637
-0.00998499
0.00227038
-0.0522884
-0.0217246
-0.0168204
0.00113898
-0.0605326
0.00215647
0.00187417
-0.00282791
-0.0264206
-0.0228791
0.00138417
-0.0484812
0.00157128
0.000866992
-0.0468758
-0.00310549
-0.00117575
-0.0449018
-0.05665
-0.0626161
-0.0487804
-0.0110415
-0.0596904
-0.0531501
-0.0024813
-0.0486109
0.00117192
-0.0260561
-0.034292
-0.00822116
-0.0266497
0.00182577
-0.0214187
-0.0011811
-0.00648665
-0.0497048
-0.0277927
-0.0259979
-0.0649311
0.000751751
-0.0632821
-0.00979189
-0.00509148
0.00237075
0.000290281
0.00115295
9.44546e-05
-0.0144653
-0.0606393
-0.00236071
-0.00754859
-0.0384729
-0.00624601
-0.0104778
-0.0154764
-0.0634051
0.000735229
0.000561069
0.012113
0.0014578
0.00279198
-0.0556105
-0.0198935
-0.0149972
0.0332987
0.00159946
-0.007202
-0.0539717
-0.0526441
0.00445164
-0.0237227
-0.003828
-0.0496576
0.0275528
-0.00536309
-0.0522237
0.000622874
-0.0370658
-0.0371371
-0.0520579
-0.0240345
0.0146219
0.00127392
-0.00162883
-0.010544
-0.0105301
-0.00142216
-0.0637806
0.000673295
-0.0317947
0.000693377
-0.0623086
-0.0475768
-0.00913626
-0.0536333
0.0349221
-0.015058
-0.0637421
-0.00124233
-0.009827
-0.0113373
-0.0540291
-0.0454335
-0.0524529
-0.0115798
-0.0562157
-0.0228963
0.00135376
-0.00424209
-0.02966
0.00170048
-0.0040718
-0.0346589
-0.0116172
-0.00897206
-0.00104217
-0.00242274
-0.0270648
-0.0471717
-0.0322014
-0.00650259
-0.0308621
0.0116966
-0.00673211
-0.00589897
0.00206471
-0.0626074
-0.047414
0.000671575
-0.0516787
0.00187947
0.000219671
-0.0539584
-0.0149638
-0.00272531
0.00126832
-0.0160869
-0.00589914
-0.00597628
-0.0613148
0.000936767
-0.0310895
-0.000199029
0.00164748
-0.0489762
-0.0464298
-0.0601788
-0.0220358
-0.00150047
-0.0027074
-0.00821094
-0.0643954
-0.0600095
0.000659165
-0.0134542
-0.00432293
-0.0472932
-0.0367366
0.00186573
-0.00827035
-0.0524041
0.00113893
0.0225482
0.00161617
0.000759921
-0.0219476
-0.0543629
-0.0320414
0.000677832
-0.042751
-0.0315073
0.000650823
-0.0401453
-0.00437118
-0.00970503
-0.0551801
-0.0202589
0.0011786
0.00451779
-0.04682
-0.00811134
-0.0184537
0.00104188
-0.0060151
-0.000123386
-0.0118358
-0.0236994
-0.00923687
-0.0514903
-0.00843933
-0.0274006
-0.0446964
-0.021177
0.000594603
-0.00376157
-0.045904
-0.0619342
-0.0469477
-0.00521946
0.00107772
-0.0535627
-0.00283529
0.00174131
-0.020619
-0.00694105
-0.0107149
-0.00298043
-0.0545898
-0.0233427
-0.00424724
-0.0155635
-0.0264022
-0.0511454
-0.0522149
0.000668399
-0.00218783
0.012002
0.000921721
0.00128597
-0.00578086
-0.023781
-0.0129609
-0.0351159
-0.0184179
-0.0577108
-0.01036
0.00156764
-0.0273952
0.00106815
-0.0628064
-0.0100833
-0.000133922
-0.00932502
-0.0545076
-0.0221614
-0.0551056
-0.0091493
-0.0360224
-0.000164349
0.000682954
0.00166586
-0.0102379
-0.0108763
-0.0630572
-0.0146367
-0.0347961
0.00238265
0.00214492
-0.0187563
0.00140142
0.000279975
-0.0559442
0.00115462
0.0017658
-0.0511839
-0.0104242
-0.047585
-0.0359463
-0.0358429
-0.00861987
0.0026396
-0.00138397
0.000804949
-0.00638522
0.00231367
0.00157923
0.000137038
0.00125082
0.00131196
0.00306319
-0.00335482
-0.0479895
-0.032774
0.00144597
-0.0118885
0.000881232
-0.0309372
0.000582891
0.0327944
0.00310656
-0.000582383
0.00199313
-0.0262693
-0.00117375
-0.0484547
0.000724628
0.00113854
-0.0152589
-0.000678628
0.00085622
-0.0547437
-0.00464668
-6.14336e-05
-0.00820475
-0.0375408
-0.0498663
0.001354
-0.0228069
-0.00755206
0.000793303
0.00130606
-0.0455804
-0.0141233
0.000765414
-0.0291318
0.000870319
-0.0548734
0.00213186
-0.00330583
-0.0136378
0.00131724
-0.0559432
0.000907736
0.00105739
-0.0519291
-0.00922731
-0.000100795
0.00139426
0.00128505
-0.0499622
-0.0185797
0.00225414
-0.000609794
0.020886
0.00325196
-0.000743722
-0.000762106
-0.0138868
-0.0115287
-0.0328558
0.000453938
0.00149002
-0.0194517
-0.00772706
-0.00851772
-0.012045
0.00317623
0.000904526
-0.0454938
-0.00112168
0.00225083
0.000703156
-0.0110968
-0.00239777
0.0011721
-0.00636909
0.00199437
-0.0400652
-0.0260119
0.000488536
-0.0551383
-0.049692
-0.0487714
-0.0615658
-0.00194233
-0.0120613
0.0340548
-0.062954
0.00135152
-0.051766
0.000811238
-0.0594098
-0.00634172
-0.0303199
-0.0432242
0.0089882
-0.00155871
0.000501702
-0.0501983
-0.00187103
0.00318587
-0.0304429
-0.0530155
-0.0635033
-0.0122247
0.00400506
0.0141087
0.000935601
-0.0539453
-0.000174396
-0.0106699
-0.00392267
0.00141061
-0.0523405
0.00129879
-0.0456852
-0.00397749
0.0301011
-0.0335168
-0.00803089
0.000729094
-0.0573513
0.000706564
-0.0151878
-0.0216748
9.50361e-05
-0.0513115
0.00416497
-0.0314082
-0.0533275
-0.0121013
0.00662584
-0.0215781
0.000670444
-0.0260455
0.00262331
0.000735063
-0.0347495
0.000829676
0.000101881
-0.0394553
-0.00841934
-0.0538609
-0.0101166
0.000105097
-0.00679577
-0.00370275
-0.00349113
-0.00738037
-0.0577644
-0.0220283
-0.000149252
0.000663366
-0.0100651
-0.00536522
-0.00715866
-0.060212
0.000514033
0.0401772
-0.00889605
0.00197565
-0.0535569
-0.00660391
0.000927173
-0.0515983
-0.0474346
-0.0552047
0.00175717
-0.0541848
0.0356678
-0.00456801
-0.0520335
-0.00446245
0.00104016
-0.0496908
-0.00198402
0.00122509
-0.0571827
-0.00143149
-0.0452608
-0.0187693
-0.0574223
-0.0147737
-0.00776997
-0.0103404
-0.0530003
-0.0152391
-0.0128709
0.00189994
-0.00506228
0.000632622
0.00106719
-0.00384182
0.0104893
-0.00891326
-0.00495458
-0.0518535
0.000967288
-0.0361294
-0.033068
0.000758265
-0.0434879
0.0407548
-0.00367524
-0.0481056
0.00111488
-0.0433377
-0.0532069
0.000735155
-0.0532792
-0.0120771
-0.0538353
-0.0507477
-0.0124475
0.00190526
-0.00673955
-0.0249872
-0.0150682
-0.020062
0.000174922
-0.0060855
-0.0510262
-0.0248372
-0.0565654
0.000636506
-0.0185774
-0.0543614
0.00159005
-0.000340989
-0.0615993
-0.00829448
-0.0136884
-0.0557083
-0.0610981
-0.031837
-0.0143478
-0.0653143
-0.00424564
0.00949128
-0.0548038
-0.0490382
-0.023405
-0.00380596
-0.0383768
-0.0298457
-0.0225995
-0.0106126
-0.0420247
-0.0225443
0.024017
-0.0188105
0.00166238
-0.0159386
-0.052755
0.00159586
-0.0145264
-0.0146889
0.00472251
0.000815514
-0.0574684
-0.0174358
0.00135485
-0.0334148
0.00265106
-0.000630054
-0.0287458
-0.0353302
-0.0112247
-0.0552833
0.00152947
-0.057985
0.0012098
-0.0531763
-0.0509902
-0.055209
0.00116623
-0.0117121
-0.00138335
0.0172805
-0.027334
-0.0503735
-0.0548387
0.0331623
8.77191e-05
-0.0156733
0.00191761
-0.0445296
-0.0501942
0.000690223
-0.000480804
-0.0136242
-0.0337426
0.0158711
0.00118161
-0.00820857
-0.0296183
-0.00293117
0.00181891
-0.00543296
-0.0577884
0.00289376
0.00333825
-0.0611972
-0.0305376
-0.00349729
-0.047978
-0.00559666
0.00212716
-0.0524332
-0.0102642
0.0138548
-0.0534056
-0.0528325
-0.0584872
-0.0531516
-0.0180452
0.00828333
0.0321563
0.000843981
-0.0570644
-0.037797
-0.0154957
-0.0513781
0.0111662
-0.00975799
-0.0375768
-0.0454095
-0.0136472
-0.0629775
0.000111977
-0.0210132
-0.0111465
-0.00151694
-0.0539437
0.0245727
0.00115165
0.00241077
-0.055898
-0.00548399
-0.0236805
-0.050509
0.00027797
-0.00700303
8.07494e-05
-0.00547159
-0.0506818
-0.0146423
-0.0513265
-0.0345057
-0.0336466
-0.00133149
-0.0210007
0.00771994
0.00254278
-0.0150876
-0.0108294
-0.00558436
0.00113376
0.00106417
-0.0507156
-0.0632747
-0.00496661
-0.064043
0.000719992
-0.00333882
-0.000878741
0.000784902
0.00140053
0.00153098
-0.022955
-0.0569686
-0.0180044
-0.0722696
-0.0201229
-0.0559624
-0.00922333
-0.0561572
-0.000503041
-0.0499505
-0.0403326
-0.00385896
-0.0304362
-0.0517598
-0.00352624
-0.00671921
0.000896354
-0.00912041
-0.0586218
0.000170196
-0.0197642
-0.00163339
-0.00300105
-0.0582312
-0.0112002
-0.0206648
-0.00732869
-0.000490031
-0.0472431
-0.0277804
0.00120146
-0.0448932
0.0063346
-0.0530065
0.0132879
-0.00581514
-0.00322416
-0.0573824
-0.0100697
-0.0444274
-0.0206958
-0.051692
0.0017726
0.00053163
0.00342581
-0.0466567
-0.0137226
0.000783334
0.000732299
-0.0658325
-0.0685742
-0.033453
-0.0148441
-0.00155511
-0.00251922
-0.0539984
0.000134381
-0.0501248
-0.0535803
0.000582413
-0.0433804
0.00200918
-0.000392105
-0.0279913
0.00128213
-0.0161944
0.00123928
-0.00303688
-0.0190862
-0.00617053
0.00168428
-0.0568967
-0.00375738
-0.0121709
-0.0531717
-0.00833968
0.00160492
-0.0252804
0.000387939
0.00142219
-0.00691854
-0.0362768
0.0124432
-0.00456056
0.00100769
0.0329149
-0.0111553
-0.0363526
-0.0157948
-0.0110103
0.00119245
0.000979035
-0.014351
0.00887245
-0.0518501
-0.056368
-0.0458815
-0.0013963
0.00148456
-0.00538654
-0.0525058
-0.0138004
0.00224136
-0.0530091
-0.0530952
-0.000515185
-0.0193983
-0.0168583
-0.000185505
-0.0558776
0.00131356
-0.0128736
-0.0341129
-0.0487726
-0.0184456
-0.0205798
-0.00390753
-0.0601828
-0.0488631
0.000621261
-0.0469141
0.00379779
-0.0142533
-0.0553634
-0.0519217
0.0375073
0.0158722
-0.00482043
0.00116863
-0.0120816
-0.00337131
-0.00551305
0.0012684
0.000915382
0.00147352
-0.0266485
-0.0538321
-0.0301082
0.00017066
-0.0253021
-0.0523593
0.0369727
0.00154679
-0.0145025
-0.00480383
-0.0523079
0.00348089
-0.0014185
-0.0465473
-0.061949
0.00105884
-0.0516132
-0.0114184
-0.00340569
-0.0383949
-0.00087755
0.00174143
0.000699626
0.00088815
-8.673e-05
0.000758036
-0.0537549
0.001156
-0.00582825
-0.0429845
-0.0391092
-0.00277899
-0.0500225
-0.00745455
-0.0150941
-0.0106708
-0.0100915
-0.00238725
-0.00215962
-0.0523559
0.0114384
0.00623616
-0.0114048
0.00305738
-0.0464102
-0.0348472
-0.0482847
-0.000572788
-0.00104166
-0.0143924
-0.00424121
0.00117503
0.00173565
-0.062472
-0.0578824
-0.000695512
-0.00511916
-0.0138429
-0.0611905
-0.0180149
-0.00522086
-0.00632362
-0.056416
-0.0147018
-0.0522481
-0.0197514
-0.00590345
-0.00627866
0.000609033
-0.000900584
-0.050377
-0.00308503
-0.0383035
-0.0561012
-0.00215943
-0.0527366
-0.00310372
-0.000567382
-0.0193512
-0.00268464
-0.0315779
0.0012141
0.00116895
0.000998292
-0.0481045
0.00084777
0.004997
0.0037751
-0.0373969
-0.0171476
-0.0234097
-0.0502062
-0.0603289
0.00127491
0.000648617
0.000358621
-0.0590727
-0.0107212
-0.018993
0.0173025
-0.00391681
-0.0419523
-0.00914373
0.000132833
-0.00763566
-0.0158361
-0.0354744
-0.0577794
-0.0562701
-0.0259579
-0.000439871
0.0009954
-0.0152093
-0.0211521
-0.00149857
-0.054093
-0.0577482
-0.00562152
-0.00337909
0.00104961
-0.0108679
0.00622762
-0.0588644
-0.0517542
-0.0148582
-0.052727
-0.0524821
-0.0601847
-0.0524856
-0.00945706
-0.0448074
-0.0148138
-0.0569288
-0.0538319
-0.0435843
-0.0511766
0.000828857
-0.024914
0.000558591
-0.000359585
-0.0565827
-0.00727808
-0.0141068
-0.0364543
-0.0189066
-0.0409842
-0.062638
-0.0584846
-0.0591195
-0.0220196
-0.00242478
-0.00982566
0.000934159
-0.0205447
-0.0302612
-0.0509055
-0.0618096
-0.0154008
0.00117401
1.79535e-05
-0.00100527
-0.0632471
-0.00437428
0.000108423
-0.0145178
0.0128025
-0.0412642
0.0012744
0.00759104
-0.0457029
-0.0144844
-0.0409053
-0.014049
-0.0374302
-0.0357063
-0.00134631
0.00153036
0.000828128
-0.0548774
-0.0286446
-0.00142809
-0.0328782
-0.0558568
0.00281522
-0.00394984
-0.00380163
-0.0512773
-0.00573108
-0.00311071
0.00118797
-0.0255683
-0.0478777
-0.000530552
-0.0548223
-0.0482628
-0.00910972
0.00700997
-0.0248367
-0.0569284
-0.0143088
-0.0536361
-0.00491574
0.000608336
0.00201999
-0.0554624
-0.0338617
0.00107171
-0.0536035
-0.010656
-0.00983499
0.0290372
-0.0592492
0.00957171
-0.0391873
-0.0362143
-0.0200797
-0.0502396
-0.00179295
-0.00877455
-0.0187013
-0.0289323
-0.0134641
0.0015563
-0.0098704
0.00110288
-0.0544481
-0.0210285
-0.0530301
-0.0100933
-0.0534356
-0.0519996
-0.0175943
-0.017918
-0.034943
0.033215
-0.0617272
-0.0352073
-0.0557469
-0.0398558
0.0313867
0.0019793
-0.0599904
-0.0566301
0.00528263
-0.0501759
-0.00620608
-0.000783174
-0.0192191
-0.00450298
-0.00956414
-0.0418976
-0.0535165
0.00405241
-0.00447796
-0.0344906
-0.0620714
-0.0695975
-0.0530668
0.00379803
-0.0548175
-0.0423434
-0.0532117
-0.00036126
-0.000474746
-0.0481856
-0.0514199
0.00114453
-0.047156
-0.0535184
-0.000376368
-0.0172985
0.00166517
-0.000241597
-0.00540986
-0.0366228
-0.0472245
0.000242582
-0.0131947
-0.000590732
-0.0149872
-0.05538
-0.0557226
-0.000835765
-0.0562997
-0.0285672
-0.00689586
-0.00580556
-0.0132723
0.000975933
-0.0528381
-0.0532208
-0.0584283
-0.0337767
-0.0516499
-0.000748014
-0.0532945
-0.0534712
-0.0332069
-0.0526698
0.00110668
-0.00666694
-0.0118422
-0.0319063
-0.0523581
-0.0333285
-0.0170624
-0.0182064
-0.0110763
-0.0523624
0.00195482
0.00159394
-0.056008
-0.0533329
-0.0204931
-0.00837187
-0.0358107
-0.0122306
-0.0141079
-0.0377597
-0.00521661
-0.0630842
-0.00555934
-0.0536735
-0.00303294
0.00392356
-0.0476492
-0.00126951
0.00108067
-0.0237163
-0.0398634
0.00103068
0.00300357
-0.044048
-0.0614197
-0.0531119
-0.0534411
-0.0144037
-0.00616497
-0.00959161
-0.0204185
-0.00749075
-0.000624246
0.000805228
0.00113337
-0.0569287
-0.00438695
-0.033717
-0.0273661
0.00343579
0.000757776
0.00103372
-0.0204672
-0.0205552
-0.0554579
-0.0273379
-0.0505501
-0.0532123
-0.0146045
-0.0434142
-0.0593966
-0.0545884
-0.057569
0.00130626
-0.0279258
-0.021283
-0.0141266
-0.0402466
-0.00211603
-0.0213847
-0.0514005
-0.0519969
-0.0109393
-0.0523104
-0.0436081
-0.0529621
-0.05361
-0.0210836
-0.0541597
-0.0546563
-0.0550746
-0.0554284
-0.0560397
-0.0427105
0.00285063
-0.00575918
-0.032993
-0.0510283
-0.00375754
-0.0481659
-0.0574989
-0.0371163
-0.054796
0.00106738
0.000940547
0.000740416
-0.0491551
-0.0205333
-0.00479727
-0.0629016
-0.0717674
0.018196
-0.00803969
0.000161577
-0.0223335
-0.0703773
-0.011993
-0.0358521
-0.0478707
-0.0527309
-0.0489308
-0.0518352
-0.0357458
0.00254856
-0.0551355
9.14054e-05
-0.0569837
-0.0528462
-0.00904166
-0.0239469
-0.0249163
0.0014356
0.000632923
0.0357536
-0.0157824
0.00134596
0.00136498
-0.0576354
-0.0536917
-0.0241986
-0.0100021
-0.0542499
-0.0426756
-0.0534705
-0.0544744
-0.0171543
-0.0134552
-0.02
-0.00399714
-0.0533315
0.0160259
-0.0486256
-0.0515377
-0.053245
-0.0222918
-0.00297589
-0.00388871
-0.052079
0.00110603
-0.0536381
0.000190932
-0.0506101
-0.0205698
-0.00442559
0.00260728
-0.00404151
-0.050797
-0.00343788
-0.0127265
-0.00236695
-0.0206036
-0.061209
-0.0533226
-0.0297601
-0.053421
-0.00407002
-0.000805774
-0.0327743
-0.0226865
-0.0597904
-0.0691981
-0.0215136
-0.0544162
-0.0512615
-0.0495604
0.000512885
0.00116116
0.00024088
-0.000384692
-0.0483039
0.000686879
0.00349336
-0.00318794
-0.0517955
-0.0021771
-0.0131114
0.0123015
-0.0688082
-0.014597
-0.0194376
0.000908057
-0.0532552
0.00136666
-0.00462922
-0.0479481
-0.0508346
-0.0527991
0.0010264
-0.0395148
-0.0310812
-0.0487943
-0.0530456
-0.0106563
-0.0513683
-0.00330295
0.00158189
0.00615758
0.0111881
-0.0304598
-0.00312525
-0.0195253
-0.00389457
-0.064928
-0.0513147
-0.0514746
-0.0546552
0.00047416
-0.0318598
0.00068205
-0.0518128
0.0012472
-0.0238722
-0.000409567
-0.0342431
-0.00398172
-0.00410475
-0.00224675
0.0191285
-0.052483
-0.0616391
-0.000940333
0.0327647
-0.0609239
0.000305489
0.00183592
-0.0530611
-0.0230603
-0.0266032
-0.0507186
0.00312625
-0.0563261
-0.000826805
-0.0502919
-0.0572687
0.0154807
0.0339299
-0.0294132
-0.0502358
-0.0483293
-0.0524894
0.00849663
-0.0199591
-0.0508705
0.00984043
-0.0478624
-0.00750426
-0.0468945
-0.0281954
-0.0529673
-0.0415039
-0.0221657
-0.0114851
-0.057567
-0.0341544
-0.0502532
-0.0505012
-0.00363943
0.000870051
-0.052421
-0.0563578
0.00210952
-0.0183745
-0.00315757
0.00360514
-0.0484817
0.000979904
-0.0530119
-0.0121916
-0.0536446
-0.0279875
-0.000872865
-0.0193993
-0.0461497
-0.0639696
-0.00312474
-0.0576201
0.00106188
-0.0253084
-0.0180817
-0.00613956
-0.00466741
-0.0196062
-0.0545336
-0.0528821
-0.000247332
-0.0581884
-0.015962
-0.000646353
-0.0106229
0.000785324
-0.0203333
-0.0535013
-0.0538511
0.000889486
0.0402089
-0.0496579
-0.0527658
-0.0487686
-0.0522329
-0.0133924
-0.0483393
-0.0117119
-0.00526812
0.00019673
-0.0589615
-0.00728286
-0.0527828
-0.0506146
-0.0327545
-0.0605971
-0.054758
-0.00127176
-0.0514362
-0.0305313
-0.0437966
0.00537215
-0.00220247
0.00423902
-0.0638654
-0.0174463
-0.000712787
-0.0130967
-0.0532711
-0.0540476
-0.0571464
-0.0598371
-0.0574782
-0.0534522
-0.00986318
0.00126913
-0.0508819
-0.0127864
-0.018304
-0.0188275
-0.0096589
-0.00197127
-0.00894482
-0.0126896
-0.000480071
-0.0128366
-0.00675577
-0.00766547
0.00699114
-0.0624177
-0.0128069
-0.0546516
-0.0144985
-0.00930282
-0.0529533
-0.0527666
-0.00474352
-0.00143764
0.0363134
-0.0367846
-0.0518857
-0.0362145
-0.036439
-0.0115375
-0.000250981
0.0194475
-0.0566815
-0.0498108
-0.00180742
0.00109759
-0.0527423
-0.0185883
-0.00796369
-0.0506793
-0.0291218
-0.043039
-0.0524655
-0.0477981
0.0294928
-0.00448701
-0.0532507
-0.00271485
-0.0141852
-0.0210874
-0.00643188
-0.0507019
-0.0343468
-0.0582435
-0.00823127
-0.0137706
-0.032066
-0.0534564
-0.0587416
-0.017914
-0.0535855
-0.0601268
-0.0360342
-0.021335
-0.0201456
-0.0449148
-0.0321149
-0.0583805
-0.0129985
-0.000859384
-0.0448275
-0.0201506
-0.0523935
-0.0531387
-0.00934354
-0.0439707
0.00140848
-0.0317764
-0.0039986
-0.0168326
-0.00194473
-0.0106334
-0.0546061
-0.0540692
-0.00810462
0.0181218
-0.0541788
-0.0196217
-0.00148333
-0.000814973
-0.0572156
-0.044826
-0.0523523
-0.0130132
-0.0468758
-0.0517344
-0.0546997
-0.0433463
-0.000205803
-0.0563131
0.00225049
-0.0134433
-0.0616461
-0.0551551
-0.0117074
0.0333943
-0.0102768
0.00911495
-0.0103933
-0.0555442
-0.00216083
-0.0543321
-0.0377798
-0.0016752
0.00126393
-0.000156057
-0.0106691
-0.0125709
0.000502467
-0.0364022
-0.00931951
-0.0108776
-0.00486061
-0.051405
-0.0214651
-0.0341276
-0.0155873
0.00154986
0.00104572
-0.0477425
0.00388959
-0.0523667
-0.0172802
-0.0188471
-0.019544
-0.0290661
-0.0137858
-0.013422
-0.0306398
-0.0352579
-0.023041
-0.0338573
0.000436751
-0.0589716
-0.0351254
-0.013328
0.00361888
-0.0593273
-0.000688302
-0.030724
0.00135127
-0.038305
0.00132528
-0.00742335
-0.00634606
-0.0192994
0.00308017
-0.0358289
-0.0784822
-0.0292418
-0.0131144
-0.00778657
-0.0569601
0.00336436
-0.0604644
-0.0501248
-0.0197832
-0.0237938
-0.0178438
-0.0509419
0.030612
-0.0129756
-0.0548611
-0.00531099