/*--------------------------------*- C++ -*----------------------------------*\
| =========                 |                                                 |
| \\      /  F ield         | OpenFOAM: The Open Source CFD Toolbox           |
|  \\    /   O peration     | Version:  v2012                                 |
|   \\  /    A nd           | Website:  www.openfoam.com                      |
|    \\/     M anipulation  |                                                 |
\*---------------------------------------------------------------------------*/
FoamFile
{
    version     2.0;
    format      ascii;
    class       surfaceScalarField;
    location    "300";
    object      phi;
}
// * * * * * * * * * * * * * * * * * * * * * * * * * * * * * * * * * * * * * //

dimensions      [0 3 -1 0 0 0 0];
oriented        oriented;


internalField   nonuniform List<scalar> 
20642
(
-0.0199817
0.0245821
-0.00460033
0.295734
-0.0625877
-0.233147
-0.109685
0.0961376
0.0135475
-0.352941
0.140605
0.212337
0.378587
0.0382795
-0.416867
-0.0422498
0.337984
-0.225946
0.0237316
0.202214
-0.01253
0.244242
-0.231712
-0.246571
0.224252
0.0223196
0.00224216
0.000228245
-0.2583
0.24577
0.229923
0.134449
-0.364372
0.598143
-0.598143
0.243358
-0.0576191
-0.185739
0.298005
0.039505
-0.33751
-0.0240748
0.00409309
0.5839
-0.589003
0.00510344
0.0595964
-0.282336
0.22274
-0.0308728
-0.0831589
0.114032
-0.00161724
0.0248052
-0.0231879
-0.0827986
-0.192663
0.275462
0.635575
-0.376493
-0.259082
0.203851
-0.146843
-0.0570081
0.346806
0.288769
-0.0522055
-0.187069
0.239274
0.0662643
-0.264564
0.198299
0.032679
-0.183342
0.150663
0.00224216
0.0962267
-0.289885
0.193659
-0.682119
0.395955
0.286164
0.00173265
0.000509509
0.0242494
-0.108141
0.0838917
0.0441573
0.255189
-0.299347
-0.000865181
0.0284192
-0.027554
-0.662443
0.481085
0.181358
0.390123
-0.14588
0.267579
-0.364753
0.097174
0.618325
-0.100333
-0.517992
-0.0240442
-0.201902
0.231358
-0.00470394
-0.226654
-0.769726
0.602463
0.167262
0.410121
0.135317
-0.545438
-0.138001
0.252703
-0.114702
0.128829
-0.111294
-0.0175353
0.0164141
0.112415
0.189454
-0.0859783
-0.103476
0.227847
-0.310645
-0.00133576
-0.0150873
0.016423
0.388029
-0.26539
-0.122639
-0.410147
-0.252296
0.349162
-0.119239
-0.157831
0.0500092
0.107822
0.0141779
-0.000561157
-0.0136168
-0.311579
-0.0920853
0.403665
0.0142159
0.362136
-0.376352
-0.0857173
-0.0721136
0.00173265
0.168421
0.0354299
-0.150945
0.561066
0.0652751
0.124179
-0.018884
0.0628555
-0.0439715
0.551642
-0.500253
-0.0513895
0.471758
-0.614528
0.14277
-0.264011
0.211806
-0.0662041
0.0625778
0.00362632
0.10605
0.463571
-0.569621
-0.289819
0.0853714
0.204448
0.168807
0.221315
-0.198703
-0.00218133
0.0188314
-0.0166501
-0.108139
0.0722553
0.0358832
0.0189818
-0.019847
-0.257607
-0.14403
0.401637
0.3886
-0.539545
0.0765143
-0.269177
-0.0541088
-0.182091
0.236199
0.423836
-0.105516
-0.31832
-0.160224
0.548824
-0.261205
0.207096
0.235935
-0.191778
-0.378219
0.443091
-0.0648719
-0.604666
0.577077
0.0275892
-0.421465
0.163858
0.0158535
0.0660073
-0.0818608
-0.231169
-0.301141
0.53231
0.0102527
-0.236852
0.2266
-0.0949927
0.119242
-0.639467
0.605457
0.0340098
-0.0271278
0.258486
0.481943
0.101956
-0.57997
0.4056
0.17437
0.115539
0.244964
0.143065
-0.616357
0.206626
0.409731
-0.413871
0.286257
0.127614
-0.193592
-0.0219266
-0.165299
0.187226
0.588389
-0.588369
-2.01818e-05
-0.137998
-0.50147
-0.154034
-0.0841904
0.238224
0.52673
-0.531718
0.00498731
0.542572
-0.0158414
0.00265097
-0.38087
0.518844
-0.59222
0.0733754
-0.00836003
0.432196
-0.0791318
0.0761993
0.00293248
0.0352449
-0.0442928
0.00904791
0.414142
0.1375
0.53936
-0.404044
0.149614
-0.116935
0.53334
0.0724769
-0.00366094
0.0320802
-0.108604
-0.181282
-0.0571765
-0.00902767
0.389028
-0.181495
-0.207533
0.101495
-0.132368
0.418835
0.16134
-0.580175
0.109449
-0.0917559
-0.0176929
-0.468677
0.277796
0.190882
-0.0945709
-0.510095
0.166797
-0.576613
0.409816
0.275678
-0.190306
-0.135184
0.141681
-0.00649718
-0.016603
-0.00150456
0.0181075
0.0498133
-0.0339597
0.0763975
-0.270802
0.194404
0.260877
-0.184363
-0.423619
0.554495
-0.130877
-0.100584
-0.0346004
-0.0570865
0.158871
-0.101785
0.194149
-0.0654806
-0.128669
-0.0093161
-0.0307091
0.0400252
0.170412
0.218616
-0.0693647
0.125359
-0.0559942
0.0325557
0.117059
0.0143772
-0.0709908
0.0566136
0.0158161
-0.0148758
-0.000940286
0.0504756
-0.250515
0.200039
0.618325
0.162249
0.105955
-0.268204
-0.559017
0.398793
-0.0635708
-0.015561
-0.542301
0.256283
0.286018
-0.152173
-0.2339
0.386073
-0.387654
0.580174
-0.192519
-0.0549211
-0.0532175
0.000918888
0.0210733
-0.0156889
-0.00538441
-0.460525
0.148946
-0.197923
-0.0290971
0.22702
0.568758
-0.696073
0.127315
0.24858
-0.400753
-0.140957
0.119031
-0.137957
-0.333344
0.471301
0.541647
-0.0228028
0.027104
-0.0359236
0.00881958
-0.612869
0.605569
0.00730007
0.568115
-0.14928
-0.176165
-0.329875
0.506041
0.0790945
-0.0544653
-0.0246292
0.065101
-0.311212
0.246111
0.312222
0.0552164
-0.0480283
-0.00718808
0.0177914
-0.189713
0.171921
0.0141779
-0.026259
0.00210988
0.0241491
-0.37549
-0.225348
0.600838
0.246743
-0.196267
0.0599464
0.310644
-0.37059
0.047894
-0.0425927
-0.00530123
-0.0698191
-0.0415635
-0.0400996
0.0816631
0.191824
-0.102145
-0.089679
0.599417
-0.106158
-0.493259
-0.145275
-0.207666
-0.157896
0.02251
0.135386
-0.195321
0.138234
-0.232126
0.297227
-0.167286
-0.083863
0.251149
0.406752
0.250604
0.0985578
0.153103
-0.0727315
-0.0803711
0.1047
0.0047487
0.161338
0.0328112
-0.104276
0.35488
0.0485198
0.104583
-0.388636
-0.293483
0.245187
-0.234934
0.139014
0.05281
0.129077
-0.112663
0.0117755
-0.117551
0.105775
-0.0232454
0.00138971
0.0218557
-0.26469
-0.351667
0.019669
-0.00246188
-0.0172071
-0.27337
0.108347
0.165023
0.0353757
-0.0446918
0.507524
-0.0264383
0.356371
-0.494328
0.284177
-0.239524
-0.0446525
0.0166263
-0.0185692
0.00194294
0.0163727
-0.000556587
-0.0858112
-0.234313
0.320124
0.185323
-0.041066
-0.144257
-0.270472
0.308705
-0.0382325
-0.225051
-0.39222
-0.107887
0.308545
0.134546
-0.427254
-0.118489
0.545742
-0.0431491
0.34281
-0.299661
0.288632
-0.331781
0.00598599
0.0511709
-0.120536
-0.18425
-0.0558225
0.0509188
0.00490367
0.634507
-0.251485
-0.383022
0.724053
-0.412072
-0.311981
0.344238
0.379815
-0.0206131
-0.0186411
-0.108234
0.126876
-0.147892
0.0425623
0.105329
0.370071
0.180949
-0.551021
0.557434
-0.0856755
-0.0977312
0.130287
0.0191078
0.125205
0.322602
-0.447807
-0.373828
0.499033
-0.313409
-0.456316
0.72835
-0.384112
0.312169
0.416182
-0.00906483
0.0280466
-0.0302098
0.027846
0.00236378
0.0874792
0.299434
-0.386913
0.478365
0.087175
-0.56554
-0.115682
0.151948
-0.0362658
-0.0234835
0.00198089
0.0215026
0.0128429
-0.512578
0.499735
0.527822
-0.15775
0.158341
0.0269822
0.0745969
-0.0604581
-0.0141387
-0.0913726
-0.0462749
-0.00954757
-0.156049
0.13174
0.0243093
-0.343128
-0.199173
-0.0405599
0.0426698
-0.16451
0.0488278
-0.25525
0.146647
0.00793506
0.116228
-0.124163
0.232831
-0.318643
-0.0242238
-0.47077
0.220812
0.249958
0.0572511
0.0965374
-0.153788
-0.0437396
-0.135514
0.179254
-0.0146867
-0.340437
0.355124
0.602463
-0.187614
-0.329858
-0.11806
0.447918
0.376515
-0.559838
0.183323
-0.00314003
0.0205996
-0.0174596
0.114833
-0.244962
0.130129
0.172128
-0.570499
0.398371
-0.66576
0.291932
-0.465956
0.132612
-0.280224
-0.385535
-0.192975
0.0622712
0.535872
-0.0209719
-0.163115
0.184087
0.585951
-0.413823
0.00187117
0.0138989
0.0388198
-0.00357493
0.0798485
-0.404305
0.324456
0.312437
0.122971
-0.435408
-0.177807
0.135493
0.0423147
-0.739481
0.305967
0.433514
0.268188
-0.103257
-0.164931
0.0191881
-0.0223281
-0.344559
-0.394922
0.017557
-0.0197383
0.574524
-0.198009
0.00692226
0.0721723
0.602181
-0.00276331
-0.304128
0.388251
-0.0841234
0.283263
-0.29795
-0.330978
0.520292
-0.189314
0.110688
-0.00702878
-0.103659
0.546457
-0.586355
0.0398982
0.175497
-0.157706
-0.277888
0.0919682
0.18592
-0.541379
0.153725
-0.200702
0.201298
-0.000595387
0.0146073
-0.437773
0.450615
0.160745
-0.0187455
-0.141999
-0.340603
0.466235
-0.125633
-0.357099
0.156726
0.200374
0.496476
-0.117888
-0.0750386
-0.186166
-0.596788
0.211724
0.385064
0.0492063
0.497251
0.162198
-0.00454752
-0.15765
-0.521002
0.173914
0.347088
-0.132775
0.190026
-0.249018
0.17398
-0.363001
-0.169687
0.532688
0.0380155
-0.0109115
0.0200803
-0.00345406
-0.424805
0.555757
-0.130952
-0.648749
0.189318
0.45943
-0.186687
-0.315363
0.467565
-0.152201
0.0978001
0.014589
-0.112389
0.0184723
-0.0423244
0.0238521
-0.0726194
0.0310559
0.51828
-0.590053
0.0717731
-0.209999
0.144518
-0.120927
0.433364
-0.0133324
0.0793397
0.185752
-0.501115
-0.0708727
-0.0388123
-0.205527
-0.392616
-0.0525538
0.350559
-0.0250012
0.516916
-0.164088
-0.352828
-0.256494
0.193906
0.0156103
0.113466
-0.488098
0.569364
-0.0812652
0.0123176
0.0355763
-0.360155
-0.251169
0.611324
0.133509
0.027847
-0.647209
0.447982
0.199227
0.0169967
-0.018614
-0.395701
0.558146
-0.162444
-0.00312096
0.155274
-0.152153
-0.0229289
-0.247543
0.661781
-0.143501
0.187903
-0.676002
0.12829
-0.115604
-0.0126864
-0.0614533
-0.0113227
0.0727759
-0.48992
0.19629
0.29363
0.18703
0.329886
-0.032402
0.028741
-0.0539167
0.0729915
-0.0190749
0.116149
-0.0575823
-0.0585668
0.0129587
0.230399
-0.701894
0.357336
0.10133
0.297718
-0.399047
0.0726167
-0.0597669
-0.0128498
-0.109407
-0.100592
-0.326849
-0.375046
0.155873
-0.189668
-0.19057
0.380238
-0.00936901
0.216259
-0.20689
-0.135896
0.0227485
-0.133892
0.111144
0.00832699
0.155119
-0.163446
0.06634
0.201848
-0.146635
0.157144
-0.0105088
0.0254499
0.00138256
-0.0268325
0.104559
-0.528178
-0.276819
-0.213102
0.314702
-0.276423
0.123162
-0.0945163
-0.0286461
0.613942
-0.0557905
-0.558152
0.00133663
-0.145478
-0.00115714
-0.34808
-0.0555755
0.29462
-0.280404
0.180323
-0.0266118
-0.153711
-0.458206
-0.190543
-0.349966
0.22578
0.124186
0.539035
-0.401333
-0.137701
-0.0993717
-0.112532
0.273197
-0.296126
0.365862
-0.286014
-0.0947972
0.0839726
0.0108246
-0.429709
0.62742
-0.197711
0.0528164
0.00239999
-0.0964589
0.128035
0.411
-0.105002
-0.489134
0.218082
0.271053
0.349218
0.215206
-0.564424
0.134767
-0.554614
0.419847
0.0275433
-0.00273811
-0.116521
0.465739
-0.00305352
0.229635
-0.226582
0.0279435
-0.125675
0.234788
-0.242168
0.0073796
0.102608
-0.345063
0.242455
-0.0785542
0.0141038
0.0644504
0.014297
0.0764146
0.23769
0.054291
-0.291982
0.0106551
0.100033
-0.305157
-0.0891316
0.394289
0.208589
0.0261996
-0.00423596
0.100374
-0.498153
-0.199175
0.0233268
0.175848
-0.0925475
-0.156471
-0.11875
-0.44659
0.565341
0.122498
0.33583
-0.458328
0.223056
-0.589013
0.365957
-0.0309302
-0.158783
0.454554
-0.125721
-0.328834
-0.572955
0.433716
0.139239
0.362799
-0.481927
0.119128
-0.138147
-0.0293568
0.167504
-0.341874
0.152955
0.18892
-0.755482
0.32523
0.430252
-0.671142
0.295652
0.107478
-0.00967784
-0.00463016
0.184953
-0.493548
0.16257
-0.275263
0.272209
0.0970744
-0.0825921
-0.0144824
-0.141399
0.140824
0.000575095
-0.42923
0.53528
0.0424679
-0.125627
0.065423
-0.0787554
0.265335
-0.513448
0.248113
0.33328
-0.701271
0.367991
-0.0717862
-0.211925
0.283711
-0.345312
0.467811
-0.422201
-0.252958
-0.358644
-0.342627
0.513049
-0.247714
-0.0335896
0.0351432
-0.0015536
0.0891042
-0.394261
-0.032166
0.207646
-0.17548
-0.00315939
0.0170583
-0.0183359
0.179081
-0.549845
0.122592
0.397574
-0.148994
-0.0102349
-0.0683193
0.215701
0.0684757
-0.0180667
0.00146371
-0.705606
0.267672
0.437934
0.529587
-0.207979
-0.321608
-0.596632
0.166922
0.659451
-0.347282
0.328189
-0.0606095
-0.488439
0.198041
0.290398
-0.00776673
0.104841
-0.441896
0.561591
-0.119695
0.0110261
0.189352
0.340235
0.00471369
-0.137751
0.133038
-0.413502
0.584333
-0.170831
-0.0972844
0.405829
-0.126068
-0.0299812
0.0855609
0.0305882
0.169575
-0.359243
-0.112455
0.0990044
0.0134509
0.347219
0.210122
-0.557342
-0.630984
0.200255
0.430729
0.480728
-0.117929
-0.296196
-0.192939
0.427188
-0.554548
0.127359
0.43968
-0.620712
0.181032
0.00730641
-0.0589835
0.572252
-0.145064
-0.168347
-0.0323553
-0.0180188
-0.0863719
0.104391
0.362679
0.209708
-0.572388
0.153523
0.0262772
-0.179801
0.124122
0.00386579
0.0401309
0.00984017
-0.0499711
-0.215637
0.192013
0.0236245
0.0222826
-0.312265
-0.200078
0.512342
-0.542829
0.230564
-0.270357
-0.126481
0.145542
-0.559044
0.335439
0.00371549
0.0934043
-0.0971198
-0.414467
-0.165503
0.302135
-0.39422
-0.217581
0.209146
-0.176886
-0.0322599
-0.0833559
0.25623
-0.172874
-0.0783251
-0.0255957
0.103921
0.132684
-0.0186174
-0.114067
0.090954
0.361862
-0.452816
0.436515
-0.313544
-0.0629592
-0.219377
-0.00914823
-0.169941
0.17909
0.110329
0.344226
-0.161819
0.1042
0.0811157
-0.161717
0.0806012
-0.0946028
-0.183285
0.00328027
-0.0601161
0.0568358
-0.482338
0.140725
-0.149873
0.137271
-0.114761
0.138454
0.329951
-0.468405
-0.031724
0.0282762
0.00344787
-0.273125
-0.357859
0.395192
0.264259
0.0291221
-0.167269
-0.307057
-0.398549
0.505278
0.129229
0.167954
-0.00575674
0.00843284
0.0243493
-0.0969565
0.00274698
0.0942095
0.30616
-0.482325
0.281221
-0.0815251
-0.199695
0.123089
0.372
-0.49509
0.120109
-0.104809
-0.0152998
-0.119915
0.133486
-0.0135707
0.258072
-0.404948
0.146876
-0.0983887
0.153978
0.325072
-0.47905
-0.00145219
0.154905
-0.153453
0.498822
-0.33703
-0.161793
-0.546373
0.409015
0.137358
0.0786324
0.53531
0.468578
-0.112207
0.372951
-0.491702
0.468453
-0.442314
-0.0261384
-0.201392
0.171532
0.02986
0.593503
0.0159447
0.116739
-0.345518
0.483973
0.391669
0.0320804
-0.423749
0.163888
-0.256435
0.000477141
0.0314298
-0.0319069
-0.503981
-0.0191336
0.523115
0.267471
-0.195699
-0.0717722
-0.169319
-0.390519
0.156779
-0.152065
0.0482373
-0.182849
0.134612
-0.18617
-0.0766348
0.262805
-0.145885
-0.184964
-0.167174
-0.169766
0.33694
0.212719
-0.00969168
0.0450674
-0.0295344
-0.00405512
0.0160308
-0.0191902
-0.435705
0.566315
-0.13061
-0.361671
0.482173
-0.120502
-0.351732
0.442686
0.416715
-0.134721
-0.281994
0.0680449
-0.0152225
-0.0528225
0.64584
-0.339873
-0.290218
0.41877
-0.128551
-0.0658203
-0.207549
0.00461781
-0.0528172
0.0481994
-0.187447
0.0854168
-0.00073008
0.00120216
-0.000472079
0.426439
0.145813
0.149144
-0.0848994
-0.0642442
0.52194
0.0664489
0.145375
-0.585825
0.44045
-0.0287975
0.0334153
-0.739129
0.432072
-0.0592174
-0.0258535
0.0850709
0.61791
-0.563075
-0.0548348
0.495529
-0.13285
0.119057
0.0312297
-0.109555
-0.00178651
0.470239
0.425082
-0.511186
0.0861039
0.00908357
0.0995124
-0.108596
0.147629
0.00589431
0.422979
-0.343557
0.0138509
-0.068772
-0.0447358
0.0297066
0.0150292
-0.0190452
0.0591761
-0.519808
0.0158272
0.023219
-0.0155505
-0.00766846
0.587182
-0.480706
-0.106476
-0.0557607
-0.0152301
-0.369652
0.370571
0.546792
-0.401417
0.605754
-0.186636
-0.419119
0.313815
0.228757
-0.0897192
0.170835
-0.245194
0.161331
-0.413898
-0.209753
-0.378616
-0.7594
0.29068
0.46872
0.0818967
-0.0680458
-0.424409
0.432974
-0.00856509
-0.00132066
0.115754
-0.114433
-0.105442
0.407576
0.521105
-0.0960229
-0.49024
-0.122629
0.0362306
-0.122209
-0.0588765
-0.0261099
0.0849865
-0.0119319
0.0112018
0.136424
-0.128489
-0.161176
-0.0402161
0.00494979
0.0879454
-0.0928951
-0.00417497
-0.0193085
0.543129
-0.408362
-0.08132
-0.0217249
0.103045
-0.446988
-0.312412
-0.0942979
-0.0177434
0.112041
0.125366
0.291349
-0.0193816
-0.0754156
-0.130454
0.503405
-0.190445
-0.251869
-0.365331
0.131431
0.0906114
-0.16829
0.182875
-0.0145846
-0.0671245
0.0554506
0.0116739
-0.62386
0.0882515
0.535609
0.156778
-0.17775
0.108756
0.338079
-0.446835
0.482745
-0.16893
-0.00225413
0.027704
-0.214306
0.205177
0.00912901
-0.06006
-0.358862
0.418922
-0.105364
0.128113
0.164821
0.56768
-0.427328
-0.140352
-0.0144772
0.583235
0.0280965
-0.0303506
-0.0772372
-0.347172
0.136377
0.377737
0.268103
-0.413357
0.353297
0.0903253
0.0328371
-0.387767
-0.308306
0.133685
-0.0249852
-0.108699
-0.579392
0.549669
0.0297227
-0.597336
0.452694
0.144641
0.00709478
-0.0963134
0.407018
0.0100124
-0.000643831
-0.0093686
0.0172343
-0.0764517
-0.230613
0.32397
-0.0933573
0.111925
0.0253459
0.549784
-0.123345
0.299359
-0.259854
-0.0257842
0.0262614
0.0349125
0.0405737
-0.0754863
-0.282993
0.211206
-0.165979
-0.198774
-0.396274
0.205829
-0.209492
-0.369901
0.567392
-0.314894
-0.252499
0.509421
-0.437648
0.0340884
-0.15804
0.123952
0.189836
0.0312113
-0.221047
-0.0460726
0.0493529
0.0221744
-0.190465
-0.346038
0.227206
0.118831
-0.130469
0.0105537
-0.282407
-0.238595
0.0104624
0.157671
-0.168133
-0.019071
-0.09848
0.0195379
-0.390163
0.532624
-0.318116
-0.214508
-0.0920124
0.601434
-0.223106
-0.374229
-0.438298
0.343727
0.500807
0.104762
0.467005
-0.343916
0.407117
-0.594434
0.187317
0.0103688
0.0128501
0.177888
-0.0403664
-0.137522
-0.632898
0.455728
0.17717
0.124278
-0.108668
-0.228474
-0.395387
0.0404741
-0.0220019
0.172961
0.401563
0.143979
0.410516
-0.0211114
0.0295442
-0.176942
0.064261
0.112681
0.293099
-0.527577
-0.213101
-0.121782
0.334883
-0.607816
0.183846
0.42397
-0.555861
0.417066
0.138795
0.180832
0.0924067
-0.273239
0.176066
-0.0091446
-0.166922
-0.373311
0.50445
-0.13114
-0.00173377
0.0148579
-0.0131241
-0.0845391
0.21984
-0.135301
-0.38926
0.469751
-0.0804907
0.527553
-0.234454
0.230301
0.302323
-0.0301867
-0.0145491
0.0853732
0.195847
-0.652536
0.268611
0.383926
-0.304601
-0.00440678
0.0235949
-0.069013
0.234469
-0.126122
-0.0130555
-0.0050112
-0.45679
0.190413
0.266377
-0.562544
0.166843
0.131742
-0.556547
0.245298
0.0828905
0.0115383
-0.573165
0.233651
0.339514
0.0197594
-0.105992
0.286824
0.195198
0.0722733
0.0202086
-0.439261
0.318334
-0.110988
-0.0229037
0.152989
0.0248998
0.39734
-0.111082
0.276514
-0.040579
-0.366085
-0.286451
0.205451
-0.0293849
0.318455
0.0713979
-0.338073
0.122452
0.215621
0.128475
0.356043
-0.484518
0.0137754
0.000918749
-0.0146941
0.497813
0.0748148
-0.572628
-0.270803
-0.185987
-0.380488
0.21451
0.0636548
0.239971
-0.303626
0.051932
0.166798
-0.21873
-0.0400982
0.0750108
0.494136
0.082941
0.0081452
-0.121791
0.113645
-0.0832858
0.0244093
0.329581
0.255724
-0.585305
-0.136559
-0.292792
0.429351
-0.181348
0.515665
-0.108548
0.100454
0.268549
-0.369003
-0.407455
0.201473
0.205982
0.392495
-0.0964562
-0.296039
0.142437
-0.0853915
0.121622
0.0226962
-0.400194
0.559133
-0.158939
-0.0132463
0.0800682
-0.0668219
0.0665719
0.15768
0.206664
0.00248139
-0.124435
0.392616
-0.291286
0.0740508
0.0750928
0.0029888
-0.168288
0.398091
0.131169
-0.52926
-0.126962
-0.04998
-0.133077
0.170812
-0.0377348
0.157728
-0.00473981
0.553224
-0.39535
-0.157874
0.412324
-0.530813
0.346739
0.220654
0.000262182
-0.0974553
0.352645
-0.602895
0.381851
0.221043
0.163628
-0.0301191
-0.529473
0.156162
-0.565906
0.419844
0.146062
0.0155478
-0.101265
0.178486
-0.295964
0.39694
-0.100976
0.01515
-0.156549
0.217763
-0.227132
0.0674202
-0.293794
-0.113662
-0.309824
0.204308
0.0107505
-0.0977774
0.0870269
0.409254
0.137538
-0.578016
0.172948
0.405069
-0.374804
-0.301198
0.525054
-0.530617
0.00556313
0.242772
-0.344693
0.10192
-0.307619
0.199149
0.10847
0.0555574
-0.241727
0.391666
0.161558
0.600443
-0.170694
-0.429749
-0.354851
-0.130562
0.485413
-0.388467
0.0188151
-0.150853
-0.162136
-0.0535012
-0.379537
0.130358
-0.0141294
-0.356682
-0.0646036
0.0746198
-0.0100162
0.0806731
-0.376637
-0.476256
0.101452
-0.00886873
-0.0334556
0.283739
-0.0954626
-0.188276
0.0181377
0.095488
0.17013
-0.364604
-0.00059424
0.365198
0.126196
0.31585
-0.442046
0.55018
-0.416278
-0.133902
-0.419306
0.282747
0.0180224
-0.0369678
0.0189455
-0.178362
0.201283
-0.0229214
0.10183
-0.332443
0.139776
0.00104737
-0.298387
0.398841
0.0199501
0.137778
0.667025
-0.188661
-0.405138
0.49528
-0.0901427
-0.520047
0.216849
0.303198
0.482421
-0.395246
-0.00541672
0.264549
-0.0975217
-0.167028
-0.0344472
-0.330157
0.11586
-0.0143647
-0.112933
-0.304978
0.417911
0.292076
-0.515842
0.223766
0.323338
-0.516975
0.193638
0.162409
-0.154082
0.149589
-0.300998
0.41227
-0.111272
0.0749804
0.229616
-0.304596
-0.361488
0.500606
-0.139119
0.01815
0.491428
-0.199352
-0.0411478
-0.207311
0.248459
0.282151
0.115189
0.0217993
-0.00183796
-0.0199613
-0.0189641
-0.468393
0.260244
0.208149
0.0121586
-0.0875407
-0.0249146
-0.00227557
0.147547
0.320017
-0.414089
0.565419
-0.151329
0.54794
-0.446413
-0.101527
-0.10157
0.380127
-0.278557
-0.0723062
-0.245131
0.317437
0.460138
0.0270897
-0.507195
0.361036
0.146159
-0.219109
-0.122765
0.102666
0.0135095
-0.082836
0.0693265
0.228002
-0.325457
-0.0299204
-0.153167
0.183088
-0.161325
-0.0183045
0.17963
-0.553859
0.41368
0.140179
-0.190794
0.18609
0.262002
0.0217373
0.554988
-0.177303
-0.377686
-0.00618017
-0.179373
0.185553
0.179925
0.447495
-0.00844391
0.0406
0.147625
-0.113537
-0.592982
0.150891
0.442091
0.151612
0.404145
0.233787
0.231878
-0.532924
0.368835
-0.470566
0.115715
-0.00729964
-0.39958
0.56026
-0.16068
-0.042385
0.364349
-0.494803
-0.298694
0.576234
-0.27754
-0.414886
0.135071
0.279816
0.105274
0.333354
-0.438628
-0.0767542
-0.37894
-0.121313
0.157345
-0.556925
0.315443
-0.0776045
0.302539
0.021264
-0.323803
0.00412698
-0.558904
0.413428
0.145476
0.195839
0.219406
-0.661126
0.441719
-0.351665
-0.118901
-0.0199449
0.0213274
0.483739
-0.160401
-0.149874
0.290479
-0.00322856
0.127507
-0.0245452
0.653294
-0.433888
-0.462204
0.297357
0.164847
0.100027
-0.0892768
0.559181
-0.408288
-0.150893
0.0905768
0.30413
-0.394707
0.120686
0.0789325
-0.162812
-0.306507
0.469319
-0.090402
0.0994855
0.29083
-0.350367
0.0595371
-0.0223163
-0.00940776
0.289833
0.0984179
0.109018
0.0203541
-0.129372
-0.349899
-0.457854
-0.116523
0.574377
-0.589053
0.472532
-0.0982051
0.537885
0.652096
-0.154283
0.0408156
-0.0505073
-0.0891471
0.330741
-0.241594
-0.611791
0.237407
0.374384
0.304097
-0.44631
0.142213
0.157847
0.126822
0.421118
-0.109803
0.30781
-0.0701195
0.0108685
-0.208089
0.175923
-0.117864
-0.00440464
0.122269
0.107378
0.233101
-0.037903
-0.00639066
0.0263901
-0.0199995
-0.382622
0.118249
0.264373
-0.118588
-0.249039
0.414605
-0.165566
-0.0184614
0.0034081
0.0150533
-0.498772
0.203233
0.115334
-0.318567
-0.220289
-0.440837
-0.202375
-0.354063
0.556438
-0.62829
0.408001
0.601886
-0.178305
-0.42358
0.566388
-0.439769
-0.126619
0.127087
0.297188
-0.424276
-0.173773
-0.0310142
0.204787
0.540031
-0.14194
0.246395
-0.335542
-0.0132018
-0.114694
0.127896
-0.0197369
0.0534451
-0.0337081
-0.063673
-0.000930536
0.126858
-0.130086
-0.22228
-0.439354
-0.149699
0.478049
-0.338457
-0.139593
-0.0128706
-0.0849068
0.31789
0.180933
0.0100124
0.141998
-0.417183
0.275185
0.146171
-0.0080396
0.512744
-0.504705
-0.304024
0.417161
-0.113137
-0.28387
0.425868
-0.419553
-0.177078
-0.37287
-0.134698
0.507568
-0.150363
0.160825
-0.243461
-0.36833
0.019779
-0.0220447
0.0022657
0.489848
-0.373783
0.526884
-0.153101
-0.0255644
0.0435868
-0.422288
0.173249
-0.279218
-0.309795
-0.101284
0.515426
-0.00240266
0.0304991
-0.0539607
0.194685
-0.203201
0.579241
-0.376041
-0.216102
-0.46707
-0.152838
0.619908
0.538275
-0.0185505
0.0775522
-0.0590017
0.121268
0.00698143
-0.175329
0.168347
0.186221
-0.336095
-0.381946
0.347498
-0.202626
0.589388
-0.445978
-0.14341
-0.0671004
-0.172424
0.319295
-0.432228
0.0651312
-0.232305
0.0226506
-0.0268255
0.29257
-0.437868
0.145298
-0.432952
0.332619
0.377491
-0.286914
-0.512254
0.355537
0.156717
-0.142224
0.00577096
-0.10789
0.102119
0.0262328
0.139342
0.226433
-0.0365971
-0.0254804
0.0210736
0.0255735
-0.00579452
-0.121046
0.440341
-0.100837
0.106608
-0.418748
-0.151751
0.0035696
0.0192093
-0.0227789
-0.452348
-0.124265
0.0788379
0.0161774
-0.0950153
-0.136967
0.00929416
-0.208469
-0.287426
0.30817
-0.0207436
-0.128801
0.0856044
0.0431965
0.0137069
-0.0800017
0.0662948
-0.640499
0.226986
0.413513
0.214621
-0.380015
-0.448365
-0.309461
-0.197733
0.168149
0.384735
-0.102584
-0.0763534
0.367184
-0.142557
-0.0258
0.168357
-0.0177182
-0.00066216
0.0183804
0.13704
0.19447
-0.0228875
0.00357897
0.521986
0.0959242
-0.176065
0.463459
-0.287394
-0.349174
0.0416711
-0.0465141
0.00484298
0.21972
-0.292026
0.0198489
0.567333
-0.137754
0.161486
-0.260532
-0.139658
0.40019
-0.402394
0.275869
0.116626
0.0544974
0.185215
-0.239712
0.302369
-0.403939
-0.0021337
-0.423454
-0.217045
0.426715
0.155092
-0.581807
-0.202157
-0.131092
0.423662
-0.0196022
0.00207614
0.017526
-0.330282
0.117181
-0.104087
0.332089
-0.433618
0.5501
-0.116483
0.0227171
-0.408748
0.623954
0.147548
-0.296322
0.0843976
-0.194844
-0.117942
0.312786
0.218571
-0.0323491
0.441309
0.211985
0.0643849
0.475545
-0.34707
-0.48815
0.139657
0.348493
0.0147679
-0.12941
0.114642
-0.439332
-0.00725806
0.58035
-0.250769
-0.100919
-0.0300833
0.131002
0.0831965
-0.101215
-0.0170718
-0.104719
-0.13452
0.0229314
0.111589
-0.242152
-0.331013
0.0964074
-0.104174
0.0327362
0.0059986
-0.0387348
0.528078
0.0902474
-0.0919577
0.247696
-0.423761
-0.0103438
0.165249
0.135959
0.0159889
0.485524
-0.268675
-0.0635132
0.228799
-0.165286
-0.402762
-0.183062
0.241396
-0.177846
-0.0635496
-0.193083
-0.25111
-0.0939535
-0.051988
0.0660918
-0.157074
-0.0213701
0.178444
0.03328
-0.166357
-0.0808454
0.0702683
0.0105771
0.0867564
-0.00935439
0.10791
-0.0985559
-0.220972
-0.41167
0.107646
0.362213
0.0990536
-0.461267
0.58245
-0.155736
-0.591404
0.447843
0.143561
-0.401748
0.543867
-0.142119
-0.222295
-0.0645142
0.078221
-0.595339
0.432187
0.163153
0.0811963
0.249545
-0.149706
-0.255009
-0.118019
-0.229438
0.347457
0.171683
-0.0165637
-0.136787
0.0392818
0.0975053
-0.30112
0.11204
-0.547745
-0.223529
0.182381
0.0467912
-0.480409
-0.300958
0.258708
0.0225838
-0.0289745
-0.103942
-0.222011
0.325953
0.149013
0.314757
-0.463771
0.120386
-0.026176
-0.429934
0.328797
-0.247601
0.0384016
-0.00566548
-0.0160326
0.391974
-0.100425
-0.291549
0.181454
-0.166394
-0.0150598
0.312959
-0.0886884
-0.22427
-0.0162539
0.00319844
-0.00252693
0.207704
-0.239045
0.155689
-0.0100487
0.082304
0.540757
-0.0634448
-0.101065
-0.0387821
-0.0959919
-0.450856
0.327976
-0.322023
0.218941
0.103082
0.519681
-0.00663223
-0.0902584
-0.011748
0.519294
-0.507546
0.24032
-0.358339
-0.344412
0.0581516
0.274247
-0.147201
0.163674
-0.016473
0.587112
-0.179601
-0.407511
0.11579
-0.0584791
0.253886
0.0539235
0.102145
0.0179634
0.114154
-0.445934
0.126699
0.319235
0.00625783
0.237059
0.126382
-0.363441
-0.0805508
0.319761
-0.23921
-0.499137
0.323329
0.175809
0.00371882
0.0174183
-0.0211371
-0.0137381
0.150162
-0.026783
0.197709
-0.266485
0.0687758
0.0389093
-0.0312769
0.149759
0.0210528
-0.166507
-0.285451
-0.182942
0.178659
-0.0218813
0.385309
-0.571945
0.404048
-0.298774
-0.140745
-0.014271
0.155016
-0.230589
-0.185167
-0.186717
-0.0778464
-0.198128
0.252626
-0.312557
0.117713
-0.120637
0.135405
-0.0202427
0.129261
-0.47211
0.142234
-0.138112
0.159412
-0.0213001
-0.129719
-0.252226
0.299982
0.112288
-0.353383
0.489945
-0.136562
0.178794
0.40138
0.0807922
-0.06514
-0.0156522
0.10397
-0.0990207
0.580379
-0.434011
-0.146367
0.156098
-0.612047
0.179312
0.432735
0.139405
-0.444383
0.0139634
0.357623
-0.433976
-0.160257
-0.338444
0.498702
0.0250896
0.494592
-0.278467
0.0345951
-0.497843
0.463248
0.323113
-0.0778152
0.0654715
0.0153207
0.116913
0.169493
-0.227624
0.058131
0.422261
0.16019
-0.422728
-0.000956454
0.127814
-0.00731105
0.0489821
0.0381332
0.000776092
-0.127049
-0.498558
0.547764
0.339828
-0.500085
-0.0925497
0.338945
0.0359478
-0.447404
-0.145578
0.0103577
-0.0672914
0.00914424
0.12861
-0.137754
-0.0929114
0.254242
-0.590655
0.168756
0.421899
0.299984
-0.100835
-0.0117814
0.454675
-0.392272
-0.0624027
-0.202857
0.214444
-0.0115879
-0.411344
0.558113
-0.423002
-0.135111
-0.365892
0.221862
0.00407247
0.0304656
-0.0345381
-0.180589
0.151232
-0.151087
0.573347
-0.13153
0.155296
-0.023766
-0.404249
-0.0132364
0.148729
-0.463271
0.211786
0.401067
0.165908
-0.566975
-0.0793072
-0.391394
0.0790877
0.375587
0.272926
0.119048
-0.101073
-0.0152356
0.116308
-0.186583
0.245209
-0.0586262
-0.0920899
-0.207257
0.48627
0.00515727
0.124667
0.430456
0.115287
-0.543895
0.245508
-0.208555
0.0347821
0.17285
0.00238122
-0.175232
0.013391
-0.0151248
-0.21568
0.193041
-0.199221
-0.146772
0.161592
-0.0148199
-0.0175624
0.167322
0.162431
0.403884
0.16821
0.08802
0.132431
-0.0271019
-0.088123
0.0703609
0.0177621
0.0339671
0.00485274
-0.117134
0.363104
-0.24597
0.281319
-0.496601
0.215281
-0.0147426
-0.627571
0.289127
-0.501849
0.0931007
0.195679
0.08
-0.275679
0.0168523
-0.352486
0.130262
0.222225
-0.427316
0.0751163
0.020145
-0.0952613
0.207685
-0.155753
0.0959648
-0.355842
0.259877
-0.183573
0.415451
-0.0111334
0.111584
-0.100451
0.0744145
-0.0845062
0.0100916
-0.0195149
-0.00337253
0.359571
-0.490132
0.104199
-0.429105
0.324906
-0.0962427
0.455311
0.112804
-0.493768
-0.0196799
-0.150756
0.175313
-0.0245576
0.114855
0.354896
-0.269939
0.0853896
0.18455
-0.199269
0.156995
0.0422745
-0.316424
0.224334
0.0636168
-0.0749395
0.130926
0.363362
-0.494288
-0.122477
0.383725
-0.261248
-0.132008
-0.180549
-0.224521
0.50584
-0.0151607
-0.0729623
0.113056
-0.475118
0.362062
0.557815
-0.176147
0.0335901
0.109704
-0.124486
0.0147813
-0.104128
0.132933
-0.0288046
-0.0132308
0.0885235
-0.0752927
-0.157433
-0.274814
0.432247
0.105714
0.0830796
-0.188794
-0.355784
0.529106
0.0625915
0.3149
-0.530225
0.522186
-0.191721
0.361295
0.0788749
-0.0940355
0.0351195
0.322504
0.137246
-0.173512
0.451064
-0.0888501
-0.569848
0.413836
0.156012
0.137042
-0.444883
-0.138142
0.583025
-0.162221
-0.00416781
0.0201986
0.442963
-0.591379
0.148417
0.329037
0.111407
-0.124609
-0.541973
-0.120266
-0.0883807
-0.110888
-0.0716527
0.177367
0.290025
0.115679
-0.405704
-0.506422
-0.154453
-0.369985
0.524438
0.414346
0.143766
-0.561145
0.445925
0.115221
-0.237303
-0.138753
0.491589
-0.352836
0.324937
0.21671
0.0437202
-0.51079
-0.409784
-0.111275
0.521058
-0.0894916
0.293099
-0.203607
-0.183049
0.00376804
0.0471508
0.013396
-0.160597
0.139973
-0.358466
0.529065
-0.170599
0.551894
-0.446924
-0.10497
0.147914
0.0157606
-0.568478
0.157586
0.410892
0.0839752
-0.300301
-0.277716
-0.267276
-0.315149
-0.391054
0.16502
-0.369151
0.256401
0.11275
-0.0839387
0.0578287
0.441412
0.145701
0.586363
-0.1434
0.249802
-0.0599715
-0.189831
-0.614721
0.16104
0.453681
0.624247
-0.190116
-0.43413
-0.0283295
0.313994
0.103167
-0.323609
0.0174815
-0.168237
-0.153981
-0.00247852
0.15304
-0.0589174
0.225716
0.1729
-0.155419
-0.152121
-0.416357
-0.460746
0.527961
-0.0672142
-0.0770164
-0.156889