/*--------------------------------*- C++ -*----------------------------------*\
| =========                 |                                                 |
| \\      /  F ield         | OpenFOAM: The Open Source CFD Toolbox           |
|  \\    /   O peration     | Version:  v2012                                 |
|   \\  /    A nd           | Website:  www.openfoam.com                      |
|    \\/     M anipulation  |                                                 |
\*---------------------------------------------------------------------------*/
FoamFile
{
    version     2.0;
    format      ascii;
    class       volVectorField;
    location    "300";
    object      U;
}
// * * * * * * * * * * * * * * * * * * * * * * * * * * * * * * * * * * * * * //

dimensions      [0 1 -1 0 0 0 0];


internalField   nonuniform List<vector> 
13917
(
(0.472446 0.0107239 0)
(1.01866 0.0345887 -7.80874e-22)
(1.07168 0.0611871 -2.0692e-21)
(1.03742 0.0133115 6.1988e-21)
(1.02334 0.0109282 1.2167e-22)
(1.01663 0.0334097 0)
(1.0524 0.0276187 8.83448e-21)
(1.05283 0.0451031 0)
(1.06304 0.0172196 -1.2419e-20)
(-0.00182741 -0.0418949 1.91419e-22)
(1.04752 0.043564 -5.30811e-23)
(1.02812 0.011652 0)
(1.00963 0.000111555 0)
(0.755718 -0.0833705 5.58102e-22)
(1.0138 0.0188119 0)
(0.450034 0.00642336 0)
(1.0018 -1.96088e-05 -2.81507e-22)
(1.04376 0.0347062 -1.24941e-22)
(1.07145 0.057465 0)
(0.471066 0.0356581 0)
(1.02588 0.0259128 0)
(1.01562 0.00813505 0)
(1.06261 0.045582 1.95771e-22)
(1.01548 0.00798081 0)
(1.03536 0.0204572 0)
(1.0262 0.0246716 0)
(0.866619 0.0962245 0)
(-0.00528287 -0.0337249 0)
(1.03231 0.024289 1.14345e-21)
(1.01237 -0.00101676 0)
(0.0172012 -0.0443728 2.37938e-20)
(1.07545 0.0495959 0)
(1.03336 0.0153969 6.07618e-21)
(0.521861 0.0243556 0)
(1.0128 0.00252504 3.35262e-22)
(1.05344 0.0539197 0)
(1.02562 0.0206184 1.23436e-21)
(1.00276 0.000137932 1.51809e-21)
(1.05347 0.0277039 0)
(1.02581 0.036067 -3.0996e-21)
(1.00072 -6.12317e-05 0)
(1.01319 0.000802776 7.16996e-24)
(1.05776 0.0129499 2.2044e-20)
(1.07373 0.0568655 0)
(1.07325 0.0566697 -5.48272e-21)
(1.07547 0.0902098 0)
(1.0262 0.0261447 0)
(0.181981 0.00764466 4.87768e-21)
(0.979053 0.153195 0)
(1.01286 0.00260572 -4.00526e-22)
(1.02763 0.0113306 -2.92573e-21)
(1.06399 0.0717394 -5.96218e-21)
(0.348086 0.00305198 0)
(1.02127 0.0115255 0)
(1.02254 0.0122949 -2.69102e-21)
(1.06495 0.070071 1.56313e-20)
(-0.0369447 -0.0154432 -1.98581e-20)
(1.06163 0.0454848 1.5917e-22)
(1.01305 0.000551873 5.40046e-22)
(1.07455 0.0938383 5.93819e-21)
(0.51067 0.0182108 1.41333e-20)
(1.01005 0.0100834 0)
(1.00305 -4.85894e-05 0)
(1.0352 0.0198583 0)
(0.842777 0.0534808 -3.15824e-21)
(1.01656 -0.0195119 -5.55074e-22)
(1.03552 0.0259972 0)
(1.04878 0.0590599 0)
(1.0482 0.0356952 6.33353e-23)
(0.422069 0.00897804 -1.53004e-20)
(0.976523 0.0573399 1.35374e-20)
(0.503473 0.0209532 0)
(1.03425 0.00534891 3.78566e-21)
(1.01289 0.000594539 -7.74015e-22)
(1.0255 0.0262511 0)
(1.03189 0.0217478 0)
(1.01845 0.008626 -4.01221e-22)
(1.01273 0.000458109 4.91059e-22)
(1.03189 0.0212018 0)
(1.03371 0.0158018 4.99071e-21)
(1.01889 0.0129057 0)
(1.0019 1.37553e-05 0)
(1.03378 0.00489116 0)
(0.980194 0.0626468 2.4659e-21)
(1.01515 0.00217042 -1.03425e-23)
(1.06374 -0.0106639 2.87043e-21)
(1.07512 0.0489086 0)
(1.01454 0.00115523 -2.98137e-22)
(1.02578 0.0347603 1.66736e-21)
(1.00241 -6.34988e-06 3.26418e-22)
(1.00455 1.71137e-05 -1.68405e-22)
(1.05897 0.0131825 -2.68287e-20)
(0.96155 0.152811 1.4591e-21)
(1.01171 0.00172161 -1.04666e-22)
(1.02228 0.0147641 0)
(1.03434 0.0235362 -1.36467e-21)
(0.902396 0.0164605 -1.32125e-20)
(1.00251 6.75604e-05 0)
(1.01502 0.00127816 1.49436e-21)
(0.973996 0.0364859 0)
(1.0019 -2.39181e-05 -1.98956e-22)
(1.00235 -5.46182e-05 0)
(1.01915 0.0133526 6.59072e-22)
(1.00517 0.000296268 -1.94747e-23)
(1.0183 0.00879338 1.75987e-23)
(0.962915 0.0692997 0)
(0.532685 0.0370723 0)
(1.00777 0.00857806 0)
(1.01319 0.000807341 3.0772e-22)
(0.785983 0.109446 1.37793e-21)
(1.02009 8.99097e-05 -9.79507e-22)
(0.536403 0.0269753 -1.7615e-20)
(1.03103 0.022663 -4.19179e-23)
(0.0916326 -0.00163064 -1.58695e-20)
(0.859541 0.0537867 1.48361e-21)
(1.03063 0.0225579 -4.11021e-22)
(1.07129 0.0570871 9.50739e-21)
(1.00387 8.19447e-06 -1.53814e-22)
(1.07289 0.0596789 -3.77255e-21)
(1.03239 0.0018274 -1.06915e-20)
(1.0026 3.38933e-05 6.20508e-23)
(1.01217 0.000669361 -2.31602e-22)
(1.03824 0.0256125 -1.72097e-21)
(1.06673 0.0594295 7.4434e-21)
(0.378732 0.00836363 -1.4687e-21)
(0.941068 0.0634397 -3.90014e-21)
(1.03559 0.0190011 -6.83019e-21)
(1.02503 0.0258709 -6.68981e-22)
(1.0119 0.00339408 8.91281e-23)
(1.06747 0.0593005 0)
(1.06822 0.031502 1.32658e-22)
(1.023 0.107069 0)
(0.645697 0.052972 0)
(1.03011 0.0224283 -2.88509e-21)
(1.07544 0.0525495 -1.14377e-20)
(0.734718 0.105211 -1.0625e-20)
(0.521495 0.0598303 0)
(0.325401 0.00997204 -5.5837e-23)
(1.02683 0.0239517 -1.53378e-23)
(1.00138 7.82869e-05 -6.87192e-22)
(0.788662 -0.187455 2.97688e-21)
(1.0125 0.000522369 -2.38571e-22)
(0.979287 0.0689068 -3.10433e-21)
(1.01399 0.00590728 3.63098e-23)
(1.03194 0.00533945 0)
(1.01148 -0.00133815 -4.82083e-22)
(0.98232 0.0591423 -4.6044e-21)
(0.86832 -0.17339 -3.82043e-21)
(0.236224 0.0265678 0)
(1.02166 0.0119368 5.76535e-22)
(1.02711 0.0330967 0)
(1.00269 -6.08373e-05 -2.59814e-24)
(1.0315 0.0048171 0)
(1.03266 0.00144865 9.68356e-23)
(0.842805 0.0233464 -6.6236e-21)
(1.01533 0.00767004 -2.36462e-23)
(1.00552 0.000292738 2.68698e-23)
(0.603695 0.0500366 1.89665e-20)
(1.00184 -2.42693e-05 8.35779e-24)
(1.00325 -6.44309e-05 0)
(1.0147 0.00445389 0)
(0.741687 0.0374584 -8.15617e-21)
(1.02334 0.022258 -4.19186e-22)
(0.796353 -0.192152 -1.71102e-21)
(0.589251 -0.00934685 1.47095e-20)
(0.954 0.0361192 6.62674e-21)
(0.234882 0.0028823 0)
(0.323304 -0.0469661 -1.43167e-20)
(1.00641 -0.000239551 0)
(1.02716 0.0232362 8.45145e-23)
(1.01564 0.00797267 7.11348e-23)
(0.665629 0.0520307 1.41068e-20)
(1.06332 0.0162892 1.11761e-20)
(0.643766 0.0449654 -3.7184e-20)
(1.04701 0.0641579 0)
(1.00236 -2.38797e-05 1.28099e-22)
(1.038 0.0129852 0)
(1.06509 0.0756226 -2.28728e-20)
(1.0679 0.0305209 2.67543e-20)
(1.02336 0.0227528 2.75738e-22)
(1.05612 0.013826 -7.6298e-21)
(1.01547 0.00788293 0)
(1.02723 0.0115116 1.66781e-21)
(1.07537 0.0669285 5.75438e-21)
(1.07261 0.0594906 0)
(1.01799 0.109649 0)
(1.02676 0.0112229 0)
(1.07557 0.0685256 4.26551e-21)
(1.01228 -0.00102764 -1.11628e-22)
(1.05759 -0.00337914 1.68866e-21)
(1.04517 0.0649568 7.97078e-21)
(1.07321 0.0559741 5.52539e-21)
(1.07158 0.0647383 9.29486e-21)
(0.481247 0.0144301 2.7628e-20)
(1.0117 0.00182256 6.59766e-22)
(0.389356 0.00945468 -1.15128e-20)
(1.03844 0.0278629 -4.60034e-21)
(0.686331 0.0560957 -1.57605e-20)
(1.01255 0.00236436 -1.27776e-22)
(1.01519 0.00750538 2.89438e-22)
(1.02694 0.0262147 1.65586e-21)
(0.428531 0.00854706 0)
(0.315218 0.00838858 -1.71483e-20)
(1.02351 0.0189548 0)
(0.916048 0.117553 1.12234e-20)
(1.02689 0.0270696 7.26997e-23)
(1.02712 0.0342188 0)
(1.01243 0.00067926 -6.41424e-24)
(1.06554 0.0732426 -3.35725e-22)
(1.01853 0.0126507 4.21621e-22)
(1.00995 0.0024536 -3.00262e-23)
(1.02895 0.0157924 -1.92273e-21)
(1.03279 0.0161257 2.5567e-22)
(0.251637 0.0170616 -5.06753e-21)
(1.07565 0.05199 5.95751e-21)
(1.02615 0.0241554 -8.04202e-23)
(0.697413 0.045377 1.0792e-20)
(1.00882 0.000595371 0)
(1.00857 0.00016241 -3.78546e-22)
(1.00857 0.000155494 0)
(0.255195 -0.052102 1.5044e-20)
(1.07412 0.0661976 1.26969e-20)
(1.08012 0.0707398 8.91384e-21)
(1.0201 0.00134184 0)
(1.0024 -6.32008e-05 -2.27809e-23)
(0.650346 0.117933 2.00365e-20)
(0.38145 0.00809189 -1.21948e-20)
(1.00776 0.000171206 2.1953e-22)
(1.00752 0.000153988 -1.96863e-22)
(1.00064 -7.92668e-05 0)
(1.00894 0.00015204 0)
(1.00894 0.000142712 -3.94769e-22)
(0.494631 0.0186231 6.75643e-21)
(0.411043 0.0115166 0)
(1.017 0.0100441 -6.05906e-23)
(1.00757 -0.000382316 -2.13988e-23)
(1.05799 0.0614561 0)
(0.472126 0.0177643 0)
(1.00202 -1.39314e-05 2.02922e-23)
(1.01985 0.00129999 0)
(0.882038 0.117787 -7.22928e-21)
(0.969942 0.0692488 0)
(1.07603 0.0664953 -5.91856e-21)
(0.683468 0.0455456 0)
(1.04917 0.0758689 0)
(1.01418 0.00601432 -9.97326e-22)
(0.423049 -0.0311022 1.33233e-20)
(1.0594 0.0617707 2.64328e-21)
(1.0297 0.0234682 -1.24848e-21)
(1.06926 0.0537931 3.86642e-21)
(1.02365 0.0185271 0)
(0.380407 0.0181627 6.04344e-21)
(1.03281 0.00271834 4.33792e-21)
(1.0361 0.0458694 -3.70287e-21)
(1.04669 0.0610278 0)
(1.01686 0.009958 6.2567e-22)
(1.00024 -1.52076e-05 0)
(1.03578 0.019605 0)
(1.01736 0.012818 3.90834e-22)
(1.01289 0.00130308 0)
(0.412749 0.015523 1.13251e-20)
(0.857421 0.10016 -1.2747e-20)
(1.01228 0.000985107 -2.17403e-22)
(1.00731 0.000170973 0)
(1.01563 0.00794327 3.19683e-22)
(1.00733 0.000189104 0)
(1.03301 0.00236546 7.73966e-21)
(1.01471 0.000238694 -2.62449e-21)
(1.05093 0.0425093 -5.70002e-21)
(1.01264 0.00107154 -2.29052e-22)
(0.327092 0.0134383 1.68951e-21)
(0.549582 0.0367377 0)
(1.02343 0.00914201 -1.6352e-21)
(1.01765 0.010402 0)
(1.07706 0.101875 -9.0184e-21)
(1.00904 6.54604e-06 -9.24171e-23)
(0.986581 0.0348803 -5.01197e-22)
(0.431591 0.0198034 6.34818e-24)
(1.00901 1.80333e-05 9.51449e-23)
(0.441401 0.0120273 1.48833e-20)
(1.01272 0.00125752 0)
(0.758561 0.0383813 0)
(1.00189 -2.5992e-05 1.78131e-24)
(1.01491 0.0163931 -1.06252e-21)
(1.01686 0.0100578 -7.00848e-23)
(1.01329 0.00538484 5.49615e-22)
(1.07173 0.0590563 0)
(1.00459 0.000251673 -9.58702e-22)
(0.944957 0.0379193 8.42666e-21)
(1.03539 0.0314519 0)
(0.79836 0.0895708 3.76167e-21)
(1.01057 -0.000695869 0)
(0.969154 0.111472 0)
(0.306641 0.00936769 -1.77198e-21)
(1.00318 -1.64209e-05 -3.91876e-22)
(1.0586 0.0508694 -8.97324e-21)
(1.01981 0.0126486 3.73889e-22)
(1.02949 0.0229087 -3.20279e-21)
(1.0221 0.0114017 -9.55401e-24)
(1.03256 0.0211501 -7.80399e-21)
(1.01205 0.00156512 -2.24766e-22)
(1.00562 0.000321868 4.65745e-22)
(1.06185 0.0790591 9.20401e-21)
(1.01641 -0.0222926 0)
(1.03611 0.0449166 6.36011e-21)
(1.03255 0.0206603 2.57339e-21)
(1.01951 0.00136541 -1.90249e-21)
(0.630786 0.0528097 -1.85244e-20)
(0.416103 0.00671742 0)
(1.01149 0.00292493 -6.91756e-23)
(1.01246 -0.00487393 -2.82966e-24)
(1.03 0.0230713 0)
(1.06515 0.076989 0)
(1.07977 0.0591802 -3.34203e-20)
(0.562186 0.0390369 -3.22941e-21)
(0.683672 0.0446963 2.83784e-20)
(1.02522 -0.0167323 8.15827e-23)
(1.02548 0.10009 7.39722e-21)
(1.01687 0.0100709 -3.56146e-22)
(1.00568 0.0621811 -1.33556e-20)
(1.08245 0.0834136 5.55224e-22)
(1.07265 0.0615057 0)
(1.01428 0.000240447 0)
(1.01381 0.0177254 0)
(0.904273 0.100563 0)
(1.01569 0.00796069 5.4231e-23)
(1.01924 0.0364756 4.33145e-22)
(1.07271 0.0558117 5.52712e-21)
(1.0017 -3.44282e-05 -4.30751e-22)
(0.677725 0.0529605 -2.77168e-23)
(1.01506 0.00171078 0)
(1.0796 0.0349496 0)
(1.01189 -4.96702e-05 -5.77476e-22)
(0.414489 0.0303663 4.07666e-20)
(1.00868 0.00169731 5.62147e-22)
(1.03777 0.0433535 -9.43326e-22)
(1.02754 0.0267926 1.32357e-23)
(1.02816 -0.0124714 -1.19757e-22)
(1.0027 1.2315e-05 2.7458e-22)
(1.07038 0.0532847 8.31472e-21)
(1.00481 0.0700239 4.59397e-21)
(1.02272 0.0144136 1.32556e-21)
(1.01559 0.00784903 -1.59223e-22)
(0.559973 0.0311741 -8.89924e-21)
(0.997359 0.0707606 0)
(0.831561 0.0445816 -3.42366e-20)
(0.818332 -0.0546893 0)
(1.00866 3.9384e-05 4.40547e-23)
(1.01768 0.0106786 -5.03967e-22)
(0.959006 0.0695869 0)
(1.03052 0.0988781 -1.10081e-20)
(1.00867 5.05342e-05 -3.78707e-22)
(1.0214 0.0128725 3.41877e-22)
(1.02433 0.0117 2.4103e-21)
(1.01817 0.02087 0)
(1.03764 0.0443573 -3.10555e-21)
(1.06835 0.063511 1.87096e-21)
(1.03267 0.0776219 3.81216e-21)
(0.987727 0.0303498 -5.19028e-22)
(1.07614 0.0362721 1.99249e-20)
(0.516454 0.0231057 0)
(1.0121 0.00352913 -1.50029e-22)
(1.02313 0.0145013 0)
(1.02502 0.0111641 4.95336e-22)
(1.07264 0.0581983 -6.87878e-21)
(1.00155 -3.6928e-05 1.51779e-22)
(0.465483 0.00989405 -3.29648e-20)
(1.07655 0.0356115 -1.43397e-20)
(0.914826 0.122464 -1.16411e-21)
(1.02259 0.0126337 3.50664e-21)
(1.03222 0.090482 0)
(1.01156 -0.00333668 2.4455e-23)
(0.93692 0.122376 0)
(1.01356 -0.000389539 -3.11438e-22)
(1.07897 0.0685255 -9.75216e-21)
(1.08007 0.0974592 6.97024e-21)
(1.02867 0.0269619 5.81558e-23)
(1.02362 0.00951612 -5.28307e-21)
(1.06322 0.0556801 0)
(1.01286 0.000148639 0)
(0.569922 -0.0151492 -1.35667e-20)
(1.07303 0.0647176 -1.04882e-20)
(1.01391 -0.000666304 -3.07695e-22)
(0.954075 0.13034 -2.01417e-21)
(1.01673 0.01002 5.84392e-23)
(1.00054 0.0391878 6.18389e-22)
(1.00931 0.00114829 1.56375e-22)
(0.484858 0.0365981 0)
(0.991535 0.0424092 -3.15158e-22)
(1.02705 0.0200623 -8.31581e-23)
(0.621059 0.133755 -1.02894e-20)
(0.996493 0.0272269 0)
(1.02329 0.0175563 2.61166e-21)
(0.704037 0.0174694 -6.1429e-21)
(1.08828 0.0662507 -8.57208e-21)
(1.02762 0.0192273 -7.01251e-22)
(1.07216 0.0592808 5.99092e-21)
(1.01825 0.0108079 7.11879e-22)
(0.995078 0.0214289 3.39577e-21)
(1.07248 0.0606168 1.59907e-20)
(1.0152 0.00151094 0)
(1.05703 0.0239135 -1.16101e-20)
(1.03316 0.0205827 3.26457e-21)
(1.01336 0.0053454 5.51359e-22)
(1.01072 0.00244293 2.67109e-23)
(1.01231 0.00382617 1.24568e-22)
(0.429757 0.0496402 0)
(0.959437 0.0463611 -6.76413e-21)
(1.02286 0.0136033 1.75116e-21)
(1.01253 0.0036717 1.3788e-22)
(1.01522 0.00760197 -1.83288e-22)
(1.05327 0.0516421 -1.57569e-20)
(1.02863 0.0799037 0)
(1.01033 -0.000105069 0)
(1.00627 -0.00021418 0)
(1.07929 0.0586171 2.23405e-20)
(1.02809 0.0883667 0)
(1.01352 0.0056414 5.87186e-22)
(1.02708 0.0197518 6.9183e-23)
(0.793366 0.064688 0)
(0.649201 -0.00395465 7.97618e-21)
(1.01489 -0.0248442 0)
(1.07179 0.0576007 0)
(1.0437 0.0637867 2.87206e-21)
(1.01205 0.00036078 6.97296e-22)
(1.00984 -7.31685e-05 -3.56534e-22)
(1.02641 0.0251623 1.43945e-21)
(1.01061 0.00233157 1.50292e-23)
(1.0103 -0.000105125 3.62486e-22)
(1.01701 0.0101828 -7.22436e-22)
(1.00984 -6.55435e-05 -6.62252e-24)
(1.01172 0.00029708 0)
(0.38902 -0.0216928 -8.89541e-22)
(1.01853 0.0111924 -5.76567e-23)
(1.02608 0.0392636 0)
(0.342915 0.0160258 0)
(1.05742 0.0505741 0)
(1.01016 0.00258313 1.13662e-22)
(1.03078 0.0048605 0)
(0.712929 0.0210169 0)
(1.02667 0.0258027 -8.47771e-22)
(0.360715 0.00591354 1.41898e-20)
(1.01137 -0.000101503 0)
(1.02109 0.00377496 -3.6996e-21)
(1.01331 0.000211889 0)
(1.00931 0.000152806 4.21461e-22)
(1.02531 0.0200863 1.72541e-21)
(1.0167 0.00970524 1.0858e-22)
(0.815547 0.0725922 0)
(1.02045 -0.00723029 0)
(0.950224 0.0692046 1.89175e-21)
(1.02081 0.0038203 0)
(1.06437 0.0364929 -9.87914e-21)
(1.01647 -0.00913593 -3.4246e-22)
(1.01833 0.0121761 0)
(1.05096 0.0738796 0)
(0.827448 0.0455405 5.84469e-21)
(1.02429 0.0113512 -2.47239e-21)
(0.499672 0.0343349 8.02455e-21)
(1.01044 0.00282127 8.14892e-24)
(1.00961 0.000857101 1.08929e-21)
(1.01499 0.00733561 -1.93212e-22)
(1.01683 0.010295 -2.51137e-22)
(1.00952 0.0022028 2.73887e-23)
(1.01231 0.000856233 0)
(0.619505 0.051364 2.16532e-21)
(0.584222 0.0266963 3.16167e-20)
(1.00931 0.00208354 0)
(0.972807 0.121056 3.10946e-21)
(1.078 0.0582955 0)
(1.01902 0.000458605 4.24484e-21)
(1.05812 0.0531086 -8.60845e-21)
(1.08604 0.0488309 6.88614e-21)
(0.644895 0.00890558 1.49993e-20)
(1.05959 0.0250466 -1.32244e-20)
(0.965582 0.0681823 6.93987e-21)
(0.979701 0.094457 -9.94148e-22)
(0.994636 0.0827782 5.01991e-22)
(1.01673 0.00996351 -5.45986e-23)
(1.02037 -0.0165617 5.43895e-22)
(1.01445 -0.0108178 0)
(1.02321 0.0180005 -1.01494e-22)
(0.986196 0.0587523 0)
(1.00436 1.45671e-05 -1.73776e-22)
(1.02126 0.0111261 0)
(1.0227 0.0148677 3.07862e-21)
(1.05951 0.021149 -9.11399e-21)
(1.02619 0.027924 4.74199e-22)
(1.07218 0.0588376 -8.15236e-21)
(1.06733 0.0477093 -1.60811e-20)
(1.01275 0.00318703 0)
(1.01813 0.0111543 7.57132e-22)
(1.04329 0.0292599 0)
(1.02154 0.0481347 -2.84744e-21)
(1.02252 0.0134046 -1.71557e-21)
(0.680421 -0.106152 9.79816e-22)
(1.05518 0.0410547 -8.05741e-21)
(1.03622 0.0315646 4.18338e-21)
(0.600775 -0.00905229 1.5554e-20)
(1.01525 0.00193895 -3.27566e-21)
(1.02012 0.0495956 2.45477e-21)
(1.06761 0.0771146 0)
(1.00911 0.00156207 1.94698e-23)
(0.509458 0.0416558 -1.21331e-21)
(1.00965 0.00085852 0)
(1.00929 0.000146429 0)
(1.05445 0.052162 1.61691e-20)
(1.01133 -0.00011749 0)
(1.00914 0.000638114 -6.10223e-22)
(1.05904 0.0794139 0)
(0.569681 0.0498422 0)
(0.502146 0.135894 -8.70388e-21)
(1.01468 0.00420606 1.32171e-21)
(1.04277 0.0121262 1.07568e-20)
(1.0155 0.00409174 3.59788e-22)
(1.01926 0.0674395 1.25479e-20)
(0.990394 0.117451 -1.23691e-20)
(1.02199 0.012694 3.15624e-21)
(1.02208 0.0119479 1.90618e-21)
(1.0143 0.00377721 0)
(1.04787 0.0579309 1.26535e-20)
(0.98018 0.121853 9.75145e-21)
(1.01219 0.00317952 -1.51063e-22)
(1.0021 -3.68766e-05 6.22462e-23)
(1.01493 0.00722959 -4.07897e-22)
(1.01326 0.00513532 -1.78469e-21)
(1.02008 -0.0007915 0)
(1.04387 0.0330211 0)
(1.00383 2.13309e-05 3.23103e-22)
(1.06679 0.0483343 1.66815e-20)
(1.00906 0.00147384 -4.13364e-22)
(1.0156 0.00801406 -1.21254e-21)
(1.03319 0.0201314 1.55174e-21)
(0.561075 0.0381863 1.89219e-20)
(1.00577 0.000218376 -3.21347e-22)
(1.04975 0.017723 3.70379e-21)
(1.01276 0.00148745 0)
(1.06384 0.0356498 -1.71292e-20)
(1.06147 0.0560966 -4.99401e-21)
(1.02548 0.0150848 1.94908e-21)
(1.04762 0.0624714 0)
(0.96952 0.0443792 0)
(1.03136 0.0190702 0)
(1.03933 0.0293691 7.3237e-22)
(0.715721 0.0580681 8.16225e-21)
(0.425591 -0.0122398 0)
(0.362859 0.0202393 -1.20494e-20)
(1.01106 0.00252358 8.46895e-23)
(1.01462 0.00693507 0)
(1.01222 0.00399034 -3.99801e-22)
(1.0231 0.0067469 0)
(0.848922 0.0550364 5.69048e-21)
(1.00942 -6.15262e-06 0)
(0.920967 0.0898811 0)
(1.03919 0.0277757 6.73578e-21)
(0.811876 0.060928 1.3898e-20)
(0.980603 0.0368023 -2.25386e-21)
(1.0572 0.0139442 2.25293e-21)
(0.0270493 0.0208207 1.02108e-20)
(1.00928 0.00202665 -7.41401e-23)
(1.08266 0.0461716 2.70473e-20)
(1.00334 9.24431e-05 9.34218e-23)
(1.01589 -0.00039911 1.32702e-21)
(0.772504 0.0582307 1.02764e-20)
(1.01085 -0.000115314 8.94371e-23)
(1.07748 0.0637933 3.35439e-20)
(1.00215 -5.38607e-05 6.60561e-23)
(1.01752 0.000220048 -2.27431e-21)
(1.01486 0.00719424 0)
(1.07215 0.0588582 7.73256e-21)
(1.02144 -0.000689134 -3.32726e-22)
(1.00662 0.000189898 -2.23154e-22)
(1.07471 0.0568632 0)
(1.05699 0.0527902 -1.95491e-21)
(0.817513 0.0775678 2.24503e-21)
(1.02079 0.0582865 0)
(0.647953 0.0540133 8.22373e-21)
(0.628335 0.00235832 -7.11433e-21)
(1.00577 0.0002178 3.74884e-22)
(0.400606 0.00707221 -3.76936e-21)
(1.00408 -7.6673e-05 6.66257e-23)
(0.550314 0.0509841 0)
(0.850325 -0.152803 0)
(1.01671 -0.000992635 -3.63859e-22)
(1.01001 -0.000704706 3.20351e-22)
(1.00221 -2.06936e-05 2.6133e-22)
(1.05456 0.0405605 0)
(1.05559 0.012747 8.32496e-21)
(1.01082 -0.00012184 -9.19972e-23)
(1.0033 0.00011367 0)
(1.01311 0.000350918 -1.78986e-21)
(1.05102 0.0587911 -9.47786e-21)
(1.01582 0.00496804 -8.43444e-22)
(1.0756 0.0474765 1.95488e-20)
(1.02085 0.0107957 0)
(1.00648 0.000171153 5.34731e-22)
(1.00235 -1.797e-05 4.58044e-22)
(1.06841 0.0872778 2.87666e-22)
(0.886665 0.0484838 -6.55063e-21)
(0.169598 0.0483661 -1.38843e-20)
(1.06878 0.053155 -1.079e-20)
(1.04463 0.0326485 0)
(1.08211 0.0564129 -3.59363e-21)
(0.476278 0.0193186 -1.4804e-20)
(1.0096 0.00116416 -1.73242e-22)
(0.913862 0.0535843 0)
(1.01266 0.000122002 3.87548e-21)
(1.08647 0.0550598 -3.09967e-20)
(1.02284 0.00689892 6.44381e-21)
(1.0711 0.0559492 4.73384e-21)
(1.01299 0.00490285 6.8882e-22)
(1.01921 -0.00192699 0)
(1.03262 0.00537756 0)
(0.809132 0.0437936 -7.82019e-22)
(1.05281 0.0422567 -1.00524e-20)
(0.797276 0.0508752 -5.91254e-21)
(1.00386 3.85487e-05 -7.80401e-24)
(1.05085 0.0411686 -6.16665e-21)
(1.01294 0.00283974 0)
(1.00156 -6.04269e-05 -3.78084e-22)
(0.529426 0.0264142 -3.54926e-22)
(0.95726 0.0164618 4.66134e-22)
(1.01349 0.00292793 -8.73093e-23)
(1.06938 0.0639241 -2.09272e-21)
(1.01973 0.00145007 2.86108e-21)
(1.01587 0.000502789 0)
(1.00206 -5.45626e-05 0)
(0.548081 0.0298907 2.14994e-20)
(1.01599 0.00490803 8.61195e-22)
(1.01865 0.0135156 0)
(1.00941 -1.58121e-05 2.35764e-22)
(1.0132 0.00285132 -5.9805e-22)
(1.0726 0.0582588 0)
(1.00243 -5.08634e-05 -7.43831e-23)
(1.06919 0.0611146 -4.63649e-21)
(1.0019 1.80938e-05 -8.51123e-24)
(1.00886 0.00174125 0)
(0.487659 0.0289159 3.91934e-21)
(1.07588 0.0480992 0)
(1.02165 0.0122756 -1.85497e-21)
(0.26429 0.00390559 0)
(1.07825 0.0635885 -3.11407e-20)
(1.00763 0.07114 -7.99921e-23)
(1.06727 0.0792093 0)
(1.00908 0.00191317 7.22173e-23)
(1.01269 0.0193004 -1.39652e-21)
(0.542563 0.0370469 1.00654e-22)
(1.08299 0.0660484 -6.04265e-23)
(1.0265 0.0251343 0)
(1.02604 0.0206919 -5.29648e-22)
(1.01894 -0.00287287 -1.05057e-21)
(1.00251 3.87212e-05 2.7375e-22)
(1.01242 0.00436047 0)
(1.02511 -0.0208199 1.10674e-22)
(1.06148 0.0580399 0)
(1.03538 0.0254963 -1.9856e-21)
(0.526368 -0.0218378 1.34058e-21)
(1.05382 0.0427199 1.22934e-20)
(1.01999 0.0972086 3.96333e-22)
(0.964522 0.113103 -1.44516e-20)
(1.00973 -0.020648 0)
(1.04149 0.0423102 -8.72779e-21)
(1.07121 0.0634926 0)
(0.455197 0.0141942 1.34165e-20)
(1.01199 0.00168446 0)
(1.00621 -0.00416661 1.31454e-21)
(1.02857 -0.0211103 0)
(1.00896 0.00176042 0)
(1.00391 0.000103234 2.49584e-22)
(1.00238 -2.84478e-05 -1.30557e-22)
(1.01579 0.00512252 0)
(1.01026 0.000713057 0)
(0.406468 0.00748735 4.13846e-21)
(1.07432 0.0306695 1.18866e-20)
(1.00648 0.000406805 0)
(1.07263 0.0551681 -5.7261e-21)
(1.00415 4.79191e-05 5.84323e-22)
(0.583875 0.041201 -7.00844e-21)
(1.01288 0.00112123 0)
(1.01192 0.00327754 0)
(0.536197 0.0461321 0)
(1.06163 0.0541951 1.20398e-20)
(0.914798 0.141061 2.01543e-21)
(1.03451 0.00742787 0)
(1.01308 -0.000230734 0)
(1.01179 0.00277588 1.98808e-23)
(1.03975 0.0100102 -4.79174e-21)
(1.05411 0.0310492 -5.57351e-22)
(1.01286 0.00510548 6.67458e-22)
(0.345795 0.00884214 -1.26308e-20)
(1.03485 0.0339979 0)
(0.931946 -0.0633622 -1.19728e-20)
(0.921296 0.142441 1.40981e-21)
(1.00775 -0.00598595 -1.35396e-21)
(0.648951 0.0546441 0)
(1.04244 0.0126406 0)
(1.00425 0.000181117 -2.3834e-23)
(1.01318 0.002879 6.30711e-22)
(0.447222 0.022369 -1.07497e-20)
(0.551899 0.141209 0)
(1.03826 0.0285847 -5.11882e-21)
(0.366344 0.00779085 0)
(0.947171 0.185087 -2.16674e-21)
(1.00886 0.00183214 -6.84958e-22)
(1.01171 0.00304829 0)
(1.02476 0.0200247 3.03873e-21)
(0.979555 0.0699302 0)
(0.97068 0.110372 0)
(1.05194 0.0430509 -3.31865e-21)
(1.03904 0.00990668 4.03293e-21)
(1.04933 0.01826 0)
(1.08725 0.0555687 3.25382e-20)
(1.01667 0.0095032 3.05959e-22)
(1.06838 0.0623987 1.02471e-20)
(1.0737 0.031491 0)
(1.02191 0.0142571 -1.85109e-21)
(1.03346 0.0160318 -8.36401e-21)
(1.00418 0.000175142 5.89306e-23)
(1.05333 0.0307009 0)
(1.01721 0.0116052 -7.51492e-22)
(1.08629 0.0668536 -3.26315e-20)
(1.02881 0.0232274 1.40331e-21)
(1.02119 0.00232813 3.37707e-22)
(0.353189 0.00812416 -1.68177e-20)
(1.01517 -0.00298255 0)
(0.955657 0.168523 -3.73229e-21)
(1.02617 0.02022 -2.05503e-21)
(1.01941 0.028811 2.68543e-22)
(1.04218 0.0275042 -3.34738e-21)
(1.08327 0.0656302 1.38174e-20)
(1.00262 2.26442e-05 -2.41972e-22)
(1.08315 0.0444658 -1.21938e-20)
(0.917742 0.0475215 1.511e-20)
(0.939307 -0.0878663 3.94291e-22)
(1.02392 0.00674109 2.0788e-21)
(1.0293 0.0233934 3.44123e-21)
(1.00821 0.000359922 4.69222e-22)
(1.02106 0.00529498 3.85596e-21)
(1.03246 0.00429216 1.06107e-21)
(1.01447 0.00119722 0)
(1.01957 -0.00937895 0)
(1.06664 0.0874532 7.39863e-21)
(1.06928 0.0619854 0)
(1.00884 0.00175284 2.4341e-23)
(1.08214 0.0675936 -9.91951e-21)
(1.06212 0.0174666 2.22949e-20)
(1.0592 0.0217553 1.47154e-20)
(1.07029 0.0632557 0)
(1.01767 0.0109025 -4.68238e-22)
(1.08176 0.0463854 1.30161e-20)
(0.936951 0.027697 1.22003e-20)
(1.00595 0.000203583 -3.1714e-22)
(1.06223 0.0535833 0)
(1.04369 0.0710715 5.8217e-21)
(1.07248 0.0314574 0)
(1.0114 0.0036505 8.19364e-23)
(1.00976 0.00239809 -2.64057e-22)
(1.01233 0.00425133 0)
(0.412649 0.00766846 6.0124e-23)
(1.03261 0.0150927 -4.33638e-21)
(1.01347 0.000831493 -6.17093e-24)
(1.07831 0.0348456 0)
(1.01311 0.00533374 -8.82279e-22)
(1.01058 0.00277313 -1.13533e-23)
(1.06443 0.0691393 -1.19089e-21)
(0.940363 0.0247228 -1.03109e-20)
(1.02075 -0.00727677 7.02319e-22)
(0.610122 0.0139108 -9.53192e-21)
(1.01987 0.0220991 0)
(0.950934 0.0693988 0)
(1.03287 0.00389661 -1.14815e-20)
(1.01894 0.00849258 2.763e-22)
(1.079 0.0562243 7.88666e-21)
(1.0175 -0.000741202 -7.06215e-22)
(1.00432 0.0144228 5.38745e-22)
(1.00252 1.22065e-06 1.62512e-22)
(1.00392 7.14167e-05 2.63253e-22)
(1.03321 0.00827745 4.61936e-21)
(1.02813 0.0234868 -1.44327e-21)
(1.02344 0.0134467 8.82692e-22)
(1.01128 0.00355212 2.28771e-23)
(1.00634 -0.0281475 2.68227e-22)
(1.01415 0.0063116 -1.15954e-22)
(0.833475 -0.118001 0)
(1.02666 0.0203687 0)
(1.06009 0.0242781 1.49577e-20)
(1.01185 -7.47834e-05 -4.22746e-22)
(1.06893 0.0542142 -2.43198e-20)
(1.01481 0.0174052 9.23024e-22)
(0.771804 0.0340639 -1.43243e-20)
(1.01859 -0.0100922 8.34799e-22)
(1.00152 2.01257e-05 8.6978e-23)
(0.558794 0.0398425 -1.19512e-20)
(1.033 0.0166952 3.19771e-21)
(0.408862 0.0137553 -1.13125e-20)
(1.05544 0.0111245 0)
(1.01532 -0.0289589 -1.99999e-21)
(1.01681 0.0089636 2.28869e-23)
(1.01062 0.00217359 -1.15501e-22)
(1.02363 0.00636516 -8.3174e-23)
(0.692906 0.0492851 0)
(1.05174 0.0310258 -6.31386e-21)
(1.01266 0.076913 5.23933e-23)
(0.608762 -0.021663 -1.69456e-20)
(1.02079 0.00512662 0)
(1.0721 0.0322824 0)
(1.00742 -0.000371431 0)
(1.01012 0.00368416 -5.99972e-22)
(0.960728 0.150434 1.96992e-21)
(1.00782 -0.000408727 -2.47879e-23)
(0.455999 -0.0212378 3.46518e-21)
(1.05126 0.0173048 0)
(1.00946 -0.0319539 0)
(1.07082 0.0569938 -1.18406e-22)
(1.00606 0.0637261 6.9924e-22)
(1.00786 0.000406931 0)
(1.00449 0.000159598 -3.27161e-22)
(1.0326 0.0812566 3.42534e-21)
(1.00905 0.00185808 -4.04901e-24)
(1.02052 0.0111378 2.40582e-21)
(1.02814 0.0187508 -3.044e-21)
(1.01426 0.00654972 1.16538e-22)
(1.07769 0.0355629 -2.12494e-21)
(1.00768 0.000378571 -1.09091e-22)
(1.03394 -0.0132246 1.64315e-21)
(1.02148 0.0141659 1.77269e-21)
(0.456603 0.00945854 2.99828e-20)
(0.398164 0.0130682 1.46198e-21)
(1.08907 0.0517116 0)
(0.938942 0.0689108 -3.85009e-21)
(0.526605 0.0528274 -9.62046e-21)
(0.445229 0.00796783 -3.05622e-20)
(1.04887 0.0846948 0)
(1.00816 0.00144958 3.46327e-22)
(1.01574 0.00101044 -3.17721e-22)
(1.02747 0.00769118 5.27772e-21)
(1.03009 0.0169259 -4.13294e-21)
(1.01434 0.00399558 0)
(1.05268 0.031393 1.41776e-21)
(1.01601 0.00616459 -8.55151e-22)
(1.0387 0.0769549 -8.5582e-22)
(1.02089 0.0114972 -3.71379e-21)
(1.07605 0.0632003 -1.14626e-20)
(1.0324 0.0143901 0)
(1.07228 0.0257493 2.16778e-20)
(1.02377 0.074088 0)
(1.01135 0.00241779 2.93985e-22)
(1.02449 0.0367671 1.49498e-21)
(1.03261 0.016855 8.15982e-22)
(1.01458 -0.000518134 5.60779e-24)
(1.04647 0.0274522 -8.38754e-21)
(1.01284 0.000170944 0)
(0.648443 0.0557297 0)
(1.06219 0.0590153 0)
(1.02577 -0.0245443 0)
(1.01151 0.00283316 0)
(1.02478 0.000457285 0)
(1.01551 0.00784466 4.0376e-23)
(1.01436 0.00659911 0)
(0.614959 -0.00720659 0)
(1.00841 0.00160018 1.93076e-22)
(0.960051 0.0277382 0)
(1.01288 0.0047332 3.43543e-22)
(0.957912 0.10481 0)
(1.01434 0.013654 3.24677e-22)
(1.01463 0.00611106 1.64993e-21)
(1.0834 0.0451977 7.75317e-22)
(1.01112 0.0121607 0)
(1.00859 0.00172182 -9.69211e-23)
(0.911903 0.140227 -3.715e-21)
(0.9414 0.054902 0)
(1.02224 0.0192024 0)
(1.06999 0.0537625 9.59771e-21)
(1.00901 0.00171084 4.17759e-23)
(0.971242 0.0280936 0)
(1.01331 0.000423231 2.12604e-22)
(1.01452 0.00679358 0)
(0.500735 0.0192299 1.3603e-20)
(1.00365 4.83814e-05 2.651e-22)
(1.03778 0.0140104 0)
(1.07208 0.0549984 1.10236e-20)
(0.487607 0.015475 -2.60242e-20)
(1.01358 0.000699688 -2.18445e-22)
(1.02582 0.109914 0)
(1.07615 0.0557656 0)
(1.01325 8.31133e-05 0)
(1.01695 0.00877831 -2.00455e-22)
(1.0145 0.00679723 1.10636e-22)
(1.05871 0.0632394 0)
(1.02396 0.000955439 9.28948e-22)
(1.07465 0.0574305 -1.4683e-20)
(1.02836 0.0100334 8.34024e-23)
(0.518434 0.0437984 0)
(1.0143 0.0155255 1.58888e-22)
(0.862336 0.124592 -1.85593e-20)
(1.01251 0.00380909 0)
(1.01012 -0.000246508 -1.70634e-22)
(0.986945 0.0571461 -2.94716e-22)
(1.01045 0.000485099 9.78528e-22)
(1.0153 -0.00269393 -1.08996e-23)
(0.762157 0.0608253 -1.57871e-20)
(1.02523 0.0178068 9.89932e-22)
(1.0104 0.00264219 -1.03717e-21)
(1.06731 0.0916457 3.17772e-21)
(1.01349 -0.000330828 0)
(1.01592 0.00132242 3.1429e-22)
(1.06208 0.0571269 -6.29805e-21)
(1.02712 0.0187819 -1.34354e-21)
(0.831643 0.0544501 0)
(1.02722 0.0383557 2.47808e-22)
(1.08443 0.0491955 1.36738e-20)
(1.06467 0.0807036 0)
(1.04837 0.0182163 3.74052e-21)
(0.538166 0.0421993 -4.46132e-23)
(1.02178 0.0150395 2.34532e-21)
(1.0621 0.0552945 0)
(1.02234 0.00366916 3.79913e-21)
(0.37514 0.0169312 -1.31651e-20)
(0.973602 0.0933171 9.58462e-22)
(1.0362 0.00704022 6.17675e-21)
(1.01347 0.000547327 2.06403e-22)
(1.01435 0.000160549 1.04134e-21)
(1.02233 0.0127866 0)
(1.01315 0.000321659 2.49894e-24)
(1.01153 0.000246003 2.37657e-22)
(1.01255 0.00104843 -7.83265e-22)
(1.02359 0.00581212 8.20936e-21)
(1.04225 0.0337382 0)
(1.00585 0.000183724 3.54546e-22)
(1.02525 0.0173458 9.8805e-22)
(1.07318 0.0515034 1.26327e-21)
(0.553479 -0.00717017 0)
(0.743429 0.0303793 1.60357e-20)
(1.07191 0.0542956 9.59561e-21)
(1.01563 0.00798016 -6.19473e-23)
(0.992938 0.0655793 0)
(1.01539 0.0054257 0)
(1.07717 0.0563779 -2.38448e-20)
(0.968644 0.148864 0)
(0.177313 0.00203625 0)
(1.00934 0.000108561 -7.53649e-22)
(1.00833 0.00156238 -3.13516e-22)
(1.01706 0.00105637 -1.63226e-21)
(1.01823 0.0100466 -8.22867e-22)
(1.00913 9.83368e-05 7.14878e-22)
(1.0133 0.000129677 2.14301e-22)
(1.01772 0.0055451 4.08217e-21)
(1.04144 0.0434879 -4.65252e-21)
(1.01053 0.00268069 0)
(0.387389 0.0505081 -1.59164e-20)
(1.07302 0.102532 1.57502e-21)
(1.01076 0.00331001 -3.73056e-22)
(0.721421 0.0532707 9.04012e-21)
(1.02276 0.00376117 -4.48995e-21)
(1.01235 0.00396541 -8.29208e-23)
(1.00801 0.00598199 -2.93577e-22)
(0.561377 0.032714 -1.04951e-20)
(1.01715 0.0489089 -2.39366e-21)
(1.00276 -5.00926e-05 -1.50838e-22)
(0.921666 0.12475 -2.04093e-21)
(1.01222 0.00241058 0)
(1.01234 0.00353329 0)
(1.08356 0.0683065 1.41586e-20)
(1.01621 0.000783613 1.60249e-22)
(0.792771 0.00255163 -5.7054e-22)
(1.03858 0.0143387 9.4406e-21)
(1.0086 -0.0450806 6.70239e-21)
(1.01019 0.00266768 -9.35426e-23)
(1.01233 0.000925262 -2.55045e-22)