/*--------------------------------*- C++ -*----------------------------------*\
| =========                 |                                                 |
| \\      /  F ield         | OpenFOAM: The Open Source CFD Toolbox           |
|  \\    /   O peration     | Version:  v2012                                 |
|   \\  /    A nd           | Website:  www.openfoam.com                      |
|    \\/     M anipulation  |                                                 |
\*---------------------------------------------------------------------------*/
FoamFile
{
    version     2.0;
    format      ascii;
    class       volVectorField;
    location    "300";
    object      U_0;
}
// * * * * * * * * * * * * * * * * * * * * * * * * * * * * * * * * * * * * * //

dimensions      [0 1 -1 0 0 0 0];


internalField   nonuniform List<vector> 
13917
(
(0.472431 0.0106644 0)
(1.0185 0.0346147 -7.81138e-22)
(1.0717 0.0610633 -2.06911e-21)
(1.03741 0.0133124 6.20226e-21)
(1.02331 0.0110211 1.21453e-22)
(1.01648 0.033413 0)
(1.0524 0.0276217 8.83792e-21)
(1.05257 0.0455582 0)
(1.06303 0.0172251 -1.24218e-20)
(-0.00182618 -0.0417372 1.90889e-22)
(1.04728 0.043961 -4.4388e-23)
(1.02812 0.011652 0)
(1.00963 0.00011157 0)
(0.757515 -0.0819233 5.85645e-22)
(1.01377 0.0187668 0)
(0.450017 0.00638394 0)
(1.0018 -1.96281e-05 -2.81589e-22)
(1.04364 0.0350584 -1.14712e-22)
(1.0715 0.0574657 0)
(0.470809 0.0354231 0)
(1.02593 0.025933 0)
(1.01562 0.00813598 0)
(1.0626 0.0455987 1.95939e-22)
(1.01548 0.00798196 0)
(1.03536 0.0204559 0)
(1.02626 0.0247208 0)
(0.865424 0.0953414 0)
(-0.00524854 -0.0336155 0)
(1.03235 0.0244731 1.10293e-21)
(1.01237 -0.00101567 0)
(0.0171088 -0.0442258 2.3725e-20)
(1.07545 0.049603 0)
(1.03336 0.0153968 6.08099e-21)
(0.521933 0.0242701 0)
(1.0128 0.00252367 3.34897e-22)
(1.05303 0.0543874 0)
(1.02562 0.0206267 1.23855e-21)
(1.00276 0.000137925 1.52038e-21)
(1.05346 0.0277074 0)
(1.02583 0.036011 -3.11342e-21)
(1.00072 -6.12317e-05 0)
(1.01319 0.000789829 7.19386e-24)
(1.05776 0.0129543 2.20493e-20)
(1.07375 0.0568467 0)
(1.07327 0.0566546 -5.48495e-21)
(1.07533 0.0905364 0)
(1.02625 0.0261619 0)
(0.182136 0.00645255 4.89545e-21)
(0.977977 0.152805 0)
(1.01285 0.0026053 -4.00064e-22)
(1.02762 0.0113306 -2.92812e-21)
(1.06394 0.0718935 -5.96957e-21)
(0.348275 0.00304815 0)
(1.02127 0.0115261 0)
(1.02253 0.0122957 -2.69466e-21)
(1.06492 0.0702195 1.56533e-20)
(-0.0369938 -0.0154464 -1.97997e-20)
(1.06162 0.0455012 1.59098e-22)
(1.01305 0.00054084 5.40439e-22)
(1.07437 0.0941694 5.93935e-21)
(0.511922 0.0198996 1.42426e-20)
(1.00995 0.0100008 0)
(1.00305 -4.85727e-05 0)
(1.0352 0.0198572 0)
(0.842801 0.0532779 -3.16022e-21)
(1.01676 -0.0195181 -5.52328e-22)
(1.03553 0.0262337 0)
(1.04833 0.0594604 0)
(1.04805 0.0361059 5.80616e-23)
(0.422198 0.0089551 -1.52729e-20)
(0.976531 0.0571249 1.35471e-20)
(0.503546 0.0208782 0)
(1.03425 0.00535047 3.78728e-21)
(1.01289 0.000586519 -7.74494e-22)
(1.02556 0.0262648 0)
(1.0319 0.0217473 0)
(1.01845 0.00865662 -4.00533e-22)
(1.01273 0.000451452 4.91361e-22)
(1.03189 0.0212014 0)
(1.03371 0.0158017 4.99477e-21)
(1.01889 0.0129027 0)
(1.0019 1.37549e-05 0)
(1.03378 0.00489269 0)
(0.980243 0.0624352 2.46322e-21)
(1.01515 0.00217055 -1.03593e-23)
(1.06428 -0.00992275 2.76643e-21)
(1.07512 0.0489165 0)
(1.01454 0.00115527 -2.98388e-22)
(1.02581 0.0347105 1.67313e-21)
(1.00241 -6.37502e-06 3.26514e-22)
(1.00455 1.70887e-05 -1.68473e-22)
(1.05897 0.013187 -2.68351e-20)
(0.960447 0.152181 1.58087e-21)
(1.01171 0.00171992 -1.04543e-22)
(1.02227 0.0147651 0)
(1.03439 0.0237529 -1.31952e-21)
(0.901946 0.015481 -1.32226e-20)
(1.00251 6.75355e-05 0)
(1.01502 0.00127822 1.49559e-21)
(0.974097 0.0359611 0)
(1.0019 -2.39103e-05 -1.99102e-22)
(1.00235 -5.46146e-05 0)
(1.01915 0.0133496 6.60816e-22)
(1.00517 0.00029626 -1.98446e-23)
(1.01829 0.00882212 1.75759e-23)
(0.963022 0.0694024 0)
(0.532824 0.036521 0)
(1.00768 0.00846488 0)
(1.01319 0.000789602 3.08077e-22)
(0.784476 0.108635 1.36452e-21)
(1.02009 9.00642e-05 -9.80005e-22)
(0.536463 0.0268763 -1.75853e-20)
(1.0311 0.0228266 -4.18115e-23)
(0.0925062 -0.00297297 -1.59039e-20)
(0.859564 0.0535802 1.48442e-21)
(1.03063 0.0225582 -4.12133e-22)
(1.07133 0.0570906 9.51538e-21)
(1.00387 8.17672e-06 -1.53907e-22)
(1.07293 0.0595935 -3.77375e-21)
(1.03239 0.0018288 -1.06958e-20)
(1.0026 3.38955e-05 6.20438e-23)
(1.01217 0.00066618 -2.31711e-22)
(1.03825 0.0258914 -1.65916e-21)
(1.06675 0.0594924 7.45246e-21)
(0.378937 0.00835657 -1.46573e-21)
(0.941114 0.0632327 -3.89574e-21)
(1.03559 0.0190003 -6.83593e-21)
(1.0251 0.0258856 -7.06576e-22)
(1.0119 0.00339344 8.86563e-23)
(1.0675 0.0593614 0)
(1.06822 0.0315111 1.32644e-22)
(1.02253 0.107076 0)
(0.645821 0.0530272 0)
(1.03012 0.0224293 -2.89067e-21)
(1.07544 0.052551 -1.14405e-20)
(0.733186 0.104288 -1.07139e-20)
(0.522184 0.0614962 0)
(0.325587 0.00998182 -5.62532e-23)
(1.0269 0.0240242 -2.11345e-23)
(1.00138 7.82799e-05 -6.88257e-22)
(0.789289 -0.187122 3.03975e-21)
(1.0125 0.000517486 -2.38695e-22)
(0.979384 0.069013 -3.10107e-21)
(1.01399 0.00590688 3.63214e-23)
(1.03194 0.00534075 0)
(1.01151 -0.00139743 -4.8243e-22)
(0.982328 0.0589208 -4.60645e-21)
(0.868826 -0.174311 -3.79593e-21)
(0.235901 0.0255549 0)
(1.02166 0.0119374 5.77331e-22)
(1.02713 0.0330605 0)
(1.00269 -6.08349e-05 -2.59727e-24)
(1.0315 0.0048184 0)
(1.03266 0.00145004 9.68307e-23)
(0.841734 0.0223774 -6.622e-21)
(1.01532 0.00767317 -2.36457e-23)
(1.00552 0.000292725 2.73974e-23)
(0.603808 0.0501047 1.89362e-20)
(1.00184 -2.42786e-05 8.36311e-24)
(1.00325 -6.44458e-05 0)
(1.0147 0.00445374 0)
(0.742079 0.0373204 -8.20032e-21)
(1.02332 0.0222756 -4.22088e-22)
(0.796622 -0.191553 -1.74826e-21)
(0.590276 -0.00926212 1.49051e-20)
(0.954111 0.0353889 6.6421e-21)
(0.235006 0.00287952 0)
(0.324642 -0.0472586 -1.45192e-20)
(1.00641 -0.000239649 0)
(1.02724 0.0233203 7.79395e-23)
(1.01564 0.00797485 7.21574e-23)
(0.665792 0.0520013 1.4078e-20)
(1.06332 0.0162946 1.11784e-20)
(0.64423 0.0463171 -3.73872e-20)
(1.04692 0.0641942 0)
(1.00236 -2.38511e-05 1.28185e-22)
(1.038 0.0129863 0)
(1.06503 0.0758079 -2.28979e-20)
(1.06789 0.0305298 2.67603e-20)
(1.02334 0.0227751 2.79313e-22)
(1.05611 0.0138301 -7.63179e-21)
(1.01547 0.00788477 0)
(1.02722 0.0115117 1.66928e-21)
(1.07545 0.0671325 5.77411e-21)
(1.07266 0.0594004 0)
(1.01748 0.109609 0)
(1.02676 0.011223 0)
(1.07564 0.0687452 4.27836e-21)
(1.01228 -0.00102695 -1.11696e-22)
(1.05801 -0.00273409 1.61549e-21)
(1.04507 0.0649867 7.96614e-21)
(1.07323 0.0559649 5.52763e-21)
(1.07165 0.0648812 9.31545e-21)
(0.481185 0.0143442 2.75716e-20)
(1.0117 0.00182095 6.58959e-22)
(0.389555 0.00944472 -1.14903e-20)
(1.03844 0.0278567 -4.6044e-21)
(0.686439 0.0561606 -1.57321e-20)
(1.01255 0.00236281 -1.27639e-22)
(1.01518 0.00750805 2.88596e-22)
(1.02697 0.0262259 1.67145e-21)
(0.42864 0.00852161 0)
(0.315408 0.00839507 -1.712e-20)
(1.0235 0.0189607 0)
(0.915144 0.116851 1.14e-20)
(1.02686 0.0271633 6.98576e-23)
(1.02715 0.0341779 0)
(1.01243 0.000674741 -6.43985e-24)
(1.06549 0.0734159 -3.39284e-22)
(1.01853 0.0126472 4.22925e-22)
(1.00995 0.00245316 -3.04794e-23)
(1.02885 0.0159581 -1.92255e-21)
(1.03268 0.0163203 2.55016e-22)
(0.251454 0.0161046 -5.08917e-21)
(1.07565 0.0519929 5.95846e-21)
(1.02622 0.0242104 -6.59127e-23)
(0.697525 0.0451235 1.08062e-20)
(1.00882 0.000595349 0)
(1.00857 0.000162384 -3.788e-22)
(1.00857 0.000155519 0)
(0.256491 -0.0526567 1.52566e-20)
(1.07419 0.0663741 1.27307e-20)
(1.08019 0.0710099 8.94397e-21)
(1.0201 0.00134205 0)
(1.0024 -6.31879e-05 -2.27972e-23)
(0.648899 0.116944 2.01601e-20)
(0.381643 0.00808363 -1.21714e-20)
(1.00776 0.000171098 2.19659e-22)
(1.00752 0.000153887 -1.96979e-22)
(1.00064 -7.92665e-05 0)
(1.00894 0.000152125 0)
(1.00894 0.000142834 -3.95064e-22)
(0.494694 0.0185538 6.7444e-21)
(0.411136 0.0108082 0)
(1.017 0.0100422 -6.06721e-23)
(1.00757 -0.000382391 -2.14151e-23)
(1.05796 0.0615219 0)
(0.472249 0.0177167 0)
(1.00202 -1.39253e-05 2.03038e-23)
(1.01985 0.00130015 0)
(0.880939 0.11705 -7.34249e-21)
(0.970041 0.0693555 0)
(1.07611 0.0666819 -5.93516e-21)
(0.683559 0.0452804 0)
(1.04903 0.075958 0)
(1.01418 0.00601386 -9.98945e-22)
(0.42425 -0.0312477 1.35237e-20)
(1.05937 0.0618421 2.64541e-21)
(1.02976 0.0236082 -1.19983e-21)
(1.06927 0.0538125 3.86949e-21)
(1.02364 0.0185322 0)
(0.380317 0.0173771 6.06892e-21)
(1.03281 0.00271983 4.33971e-21)
(1.03607 0.0458365 -3.70419e-21)
(1.04661 0.0610538 0)
(1.01686 0.0099563 6.27892e-22)
(1.00024 -1.52081e-05 0)
(1.03578 0.019604 0)
(1.01729 0.0128355 3.91593e-22)
(1.01289 0.00129874 0)
(0.412952 0.0155109 1.1303e-20)
(0.858607 0.102172 -1.265e-20)
(1.01228 0.00098499 -2.17427e-22)
(1.0073 0.000170812 0)
(1.01562 0.00794811 3.19208e-22)
(1.00733 0.000188892 0)
(1.03301 0.00236693 7.74276e-21)
(1.01471 0.000238718 -2.62604e-21)
(1.05091 0.0425136 -5.70224e-21)
(1.01263 0.00107128 -2.29094e-22)
(0.327253 0.0134544 1.68711e-21)
(0.549787 0.0362127 0)
(1.02343 0.00914224 -1.63657e-21)
(1.01761 0.0104244 0)
(1.07688 0.102275 -9.01898e-21)
(1.00904 6.41244e-06 -9.24913e-23)
(0.986711 0.0344731 -4.92352e-22)
(0.431795 0.0197896 6.30855e-24)
(1.00901 1.79281e-05 9.52213e-23)
(0.441532 0.0119959 1.48566e-20)
(1.01272 0.00125444 0)
(0.75898 0.0382921 0)
(1.00189 -2.59674e-05 1.78254e-24)
(1.0149 0.0163586 -1.06111e-21)
(1.01686 0.0100559 -7.03676e-23)
(1.01328 0.00538476 5.50601e-22)
(1.07184 0.0590938 0)
(1.00459 0.000251635 -9.60577e-22)
(0.945098 0.037082 8.46025e-21)
(1.03539 0.0314381 0)
(0.799472 0.0917458 3.73119e-21)
(1.01058 -0.000771632 0)
(0.968557 0.110848 0)
(0.30681 0.00937849 -1.76947e-21)
(1.00318 -1.64075e-05 -3.92101e-22)
(1.05858 0.0508954 -8.97761e-21)
(1.01975 0.0126961 3.74091e-22)
(1.0295 0.0229109 -3.21038e-21)
(1.02206 0.0114783 -9.90341e-24)
(1.03256 0.0211492 -7.81374e-21)
(1.01205 0.00156287 -2.24544e-22)
(1.00562 0.000321821 4.66653e-22)
(1.06175 0.0792442 9.21056e-21)
(1.01676 -0.0223074 0)
(1.03607 0.0448849 6.36254e-21)
(1.03255 0.0206596 2.57659e-21)
(1.01951 0.00136552 -1.90362e-21)
(0.630898 0.0528784 -1.84949e-20)
(0.4162 0.00669643 0)
(1.01149 0.00292477 -6.87249e-23)
(1.01251 -0.00492276 -2.70828e-24)
(1.03 0.0230726 0)
(1.06417 0.0772545 0)
(1.07974 0.0591692 -3.34144e-20)
(0.562259 0.038622 -3.22538e-21)
(0.683999 0.0458742 2.85268e-20)
(1.02539 -0.0166251 8.15476e-23)
(1.02508 0.100087 7.32697e-21)
(1.01684 0.0100852 -3.56373e-22)
(1.00573 0.0619533 -1.33448e-20)
(1.08164 0.0840651 5.47851e-22)
(1.07265 0.0613915 0)
(1.01428 0.000240465 0)
(1.01379 0.0176805 0)
(0.903343 0.099695 0)
(1.01569 0.00796503 5.42384e-23)
(1.01906 0.0365136 4.33821e-22)
(1.07273 0.055806 5.52959e-21)
(1.0017 -3.44379e-05 -4.30929e-22)
(0.677888 0.0529183 -2.78855e-23)
(1.01506 0.00171088 0)
(1.07959 0.034961 0)
(1.01189 -4.82588e-05 -5.77955e-22)
(0.414037 0.0301468 4.06424e-20)
(1.00868 0.00169701 5.63394e-22)
(1.03774 0.0433284 -9.43742e-22)
(1.02753 0.0268958 9.08364e-24)
(1.0283 -0.0123433 -1.19779e-22)
(1.0027 1.23e-05 2.7469e-22)
(1.07039 0.0532983 8.31881e-21)
(1.0049 0.0700887 4.58669e-21)
(1.02271 0.0144147 1.32776e-21)
(1.01558 0.0078533 -1.58402e-22)
(0.560037 0.0310613 -8.88493e-21)
(0.997456 0.0708497 0)
(0.832052 0.0450069 -3.4487e-20)
(0.820217 -0.0529923 0)
(1.00866 3.93426e-05 4.40896e-23)
(1.01768 0.0106766 -5.05246e-22)
(0.959105 0.0696834 0)
(1.03013 0.0989119 -1.09307e-20)
(1.00867 5.0542e-05 -3.7901e-22)
(1.02133 0.0129392 3.42079e-22)
(1.02433 0.0117005 2.41292e-21)
(1.01836 0.0208437 0)
(1.03761 0.0443315 -3.10679e-21)
(1.06839 0.0636201 1.8741e-21)
(1.03247 0.0776079 3.79886e-21)
(0.987904 0.0299647 -5.14672e-22)
(1.07613 0.0362831 1.99281e-20)
(0.516449 0.0229919 0)
(1.0121 0.00352841 -1.48999e-22)
(1.02313 0.0145026 0)
(1.02499 0.0112747 4.94328e-22)
(1.07277 0.0581767 -6.88881e-21)
(1.00155 -3.69186e-05 1.51859e-22)
(0.465423 0.00983539 -3.28977e-20)
(1.07654 0.0356224 -1.4342e-20)
(0.914683 0.123095 -1.15776e-21)
(1.02259 0.0126345 3.51159e-21)
(1.03191 0.090503 0)
(1.0116 -0.00339629 2.46029e-23)
(0.935929 0.12143 0)
(1.01357 -0.000399214 -3.11608e-22)
(1.07905 0.0687736 -9.78498e-21)
(1.07991 0.0978432 6.96856e-21)
(1.02865 0.0270847 5.45599e-23)
(1.02362 0.00951637 -5.28795e-21)
(1.06333 0.0556062 0)
(1.01285 0.00015018 0)
(0.571062 -0.0149388 -1.37477e-20)
(1.07311 0.0648704 -1.05152e-20)
(1.01392 -0.000673353 -3.07874e-22)
(0.953031 0.129581 -2.1049e-21)
(1.01673 0.0100187 6.02313e-23)
(1.00014 0.0388838 6.37892e-22)
(1.00931 0.00114783 1.56173e-22)
(0.484633 0.0363025 0)
(0.991131 0.0420458 -3.27525e-22)
(1.02705 0.0200672 -8.33514e-23)
(0.619604 0.132891 -1.03704e-20)
(0.996689 0.0269465 0)
(1.02328 0.0175597 2.61874e-21)
(0.70481 0.0176748 -6.19817e-21)
(1.08826 0.0662806 -8.56853e-21)
(1.02762 0.0192304 -7.02643e-22)
(1.07228 0.0593313 6.00287e-21)
(1.01825 0.0108065 7.13264e-22)
(0.995331 0.02114 3.37201e-21)
(1.07251 0.0605027 1.59933e-20)
(1.01519 0.00151103 0)
(1.05702 0.0239184 -1.16136e-20)
(1.03316 0.0205817 3.26825e-21)
(1.01336 0.00534517 5.52299e-22)
(1.01072 0.00244299 2.67205e-23)
(1.01231 0.00382514 1.23556e-22)
(0.430823 0.0515734 0)
(0.959439 0.0457036 -6.77982e-21)
(1.02286 0.0136043 1.75381e-21)
(1.01253 0.00367085 1.37402e-22)
(1.01522 0.00760253 -1.83895e-22)
(1.05324 0.0516636 -1.57633e-20)
(1.02795 0.0800739 0)
(1.01033 -0.000104807 0)
(1.00627 -0.000214246 0)
(1.07927 0.058605 2.23364e-20)
(1.02779 0.088352 0)
(1.01352 0.00564128 5.88335e-22)
(1.02708 0.0197562 6.93438e-23)
(0.793438 0.0654958 0)
(0.648809 -0.00545425 7.98944e-21)
(1.01513 -0.0248552 0)
(1.07185 0.0575932 0)
(1.04375 0.0635532 2.86976e-21)
(1.01205 0.000361237 6.9806e-22)
(1.00984 -7.31721e-05 -3.56829e-22)
(1.02644 0.0251941 1.46384e-21)
(1.0106 0.00233162 1.50393e-23)
(1.0103 -0.000104923 3.62785e-22)
(1.01702 0.0101808 -7.24966e-22)
(1.00984 -6.55799e-05 -6.62793e-24)
(1.01172 0.000297299 0)
(0.389909 -0.0221421 -9.01532e-22)
(1.01853 0.011191 -5.76864e-23)
(1.02609 0.0392002 0)
(0.343077 0.016045 0)
(1.0574 0.0505985 0)
(1.01016 0.00258264 1.14863e-22)
(1.03078 0.00486171 0)
(0.713661 0.0211223 0)
(1.0267 0.0258205 -8.54214e-22)
(0.36092 0.00590848 1.41617e-20)
(1.01137 -0.000100397 0)
(1.02109 0.00377498 -3.70195e-21)
(1.0133 0.000214624 0)
(1.00931 0.00015296 4.218e-22)
(1.02531 0.0200939 1.73078e-21)
(1.01671 0.00970573 1.07362e-22)
(0.815543 0.073356 0)
(1.02055 -0.00718357 0)
(0.950331 0.0693118 1.88976e-21)
(1.02081 0.00382031 0)
(1.06436 0.0365028 -9.88199e-21)
(1.01659 -0.0091421 -3.41854e-22)
(1.01833 0.0121728 0)
(1.05083 0.0739721 0)
(0.827909 0.0460394 5.88574e-21)
(1.02429 0.0113516 -2.47497e-21)
(0.499062 0.0325158 8.02894e-21)
(1.01044 0.0028207 8.21349e-24)
(1.00961 0.000857111 1.09077e-21)
(1.01499 0.00733614 -1.938e-22)
(1.01683 0.0102926 -2.53046e-22)
(1.00952 0.00220246 2.76128e-23)
(1.01231 0.000856217 0)
(0.61963 0.0514216 2.16155e-21)
(0.585232 0.0282283 3.18256e-20)
(1.00931 0.00208327 0)
(0.972103 0.120518 3.22575e-21)
(1.07798 0.0582777 0)
(1.01902 0.000458678 4.24726e-21)
(1.0581 0.0531407 -8.61291e-21)
(1.08603 0.048844 6.88616e-21)
(0.645713 0.00886442 1.51721e-20)
(1.05959 0.0250524 -1.32282e-20)
(0.965689 0.0682758 6.93056e-21)
(0.979257 0.0947202 -9.78984e-22)
(0.994205 0.083116 4.88448e-22)
(1.01674 0.0099625 -5.69406e-23)
(1.02054 -0.0165284 5.41206e-22)
(1.01459 -0.0108526 0)
(1.0232 0.0180046 -1.01525e-22)
(0.986518 0.0590589 0)
(1.00436 1.45306e-05 -1.73841e-22)
(1.02126 0.0111266 0)
(1.0227 0.014869 3.08437e-21)
(1.05951 0.0211543 -9.11642e-21)
(1.02623 0.0279195 4.79629e-22)
(1.07224 0.0587735 -8.15705e-21)
(1.06733 0.0477259 -1.60876e-20)
(1.01272 0.00314385 0)
(1.01808 0.0111818 7.57829e-22)
(1.04325 0.0296066 0)
(1.0215 0.048025 -2.846e-21)
(1.02252 0.0134055 -1.71832e-21)
(0.682051 -0.10479 1.01012e-21)
(1.05517 0.0410629 -8.0605e-21)
(1.03622 0.0315515 4.18802e-21)
(0.601943 -0.00849446 1.57368e-20)
(1.01525 0.00193907 -3.27838e-21)
(1.02008 0.0494765 2.45159e-21)
(1.06755 0.0773228 0)
(1.00911 0.001562 1.94784e-23)
(0.509585 0.0417133 -1.21156e-21)
(1.00965 0.000858531 0)
(1.00929 0.000146592 0)
(1.05442 0.0521869 1.61757e-20)
(1.01133 -0.000116346 0)
(1.00914 0.000638092 -6.10948e-22)
(1.05892 0.0795836 0)
(0.569751 0.0499236 0)
(0.501018 0.13476 -8.74446e-21)
(1.01468 0.00420595 1.32304e-21)
(1.04277 0.0121282 1.07612e-20)
(1.01545 0.00408672 3.60345e-22)
(1.01953 0.0678179 1.26104e-20)
(0.990204 0.117948 -1.23304e-20)
(1.02199 0.0126947 3.161e-21)
(1.02208 0.0119486 1.90874e-21)
(1.0143 0.00377708 0)
(1.04781 0.0579518 1.26544e-20)
(0.980102 0.123601 9.67922e-21)
(1.01219 0.00317954 -1.50582e-22)
(1.0021 -3.68633e-05 6.22824e-23)
(1.01493 0.00723113 -4.0683e-22)
(1.01326 0.00513507 -1.78749e-21)
(1.02013 -0.000745684 0)
(1.04386 0.0330157 0)
(1.00383 2.13153e-05 3.23234e-22)
(1.06678 0.0483522 1.66883e-20)
(1.00905 0.00147377 -4.14045e-22)
(1.0156 0.00801426 -1.21632e-21)
(1.03319 0.0201305 1.55338e-21)
(0.561067 0.0378896 1.88925e-20)
(1.00577 0.000218439 -3.21285e-22)
(1.04974 0.0177259 3.70514e-21)
(1.01276 0.0014825 0)
(1.06384 0.0356594 -1.71341e-20)
(1.06146 0.0561416 -4.99716e-21)
(1.02571 0.0151855 1.9061e-21)
(1.04754 0.0625037 0)
(0.969542 0.0438023 0)
(1.03136 0.0190701 0)
(1.03929 0.0296626 7.05731e-22)
(0.715829 0.0581278 8.14811e-21)
(0.426331 -0.0127006 0)
(0.363012 0.020265 -1.20326e-20)
(1.01106 0.00252369 8.42893e-23)
(1.01462 0.0069357 0)
(1.01217 0.00393707 -4.0095e-22)
(1.0231 0.00674691 0)
(0.848948 0.0548212 5.69103e-21)
(1.00942 -6.31262e-06 0)
(0.92192 0.0931228 0)
(1.03918 0.0277701 6.74163e-21)
(0.811997 0.0608759 1.38703e-20)
(0.980692 0.0363364 -2.25543e-21)
(1.0572 0.0139485 2.25349e-21)
(0.0270696 0.0205031 1.01664e-20)
(1.00928 0.00202645 -7.53619e-23)
(1.08265 0.0461827 2.70488e-20)
(1.00334 9.24079e-05 9.30341e-23)
(1.01591 -0.000389031 1.3254e-21)
(0.772636 0.0581767 1.02567e-20)
(1.01085 -0.000114651 8.95122e-23)
(1.07741 0.0637429 3.35234e-20)
(1.00215 -5.38411e-05 6.61046e-23)
(1.01752 0.000220096 -2.27561e-21)
(1.01485 0.00719495 0)
(1.0722 0.0587997 7.73758e-21)
(1.02149 -0.000627831 -3.3162e-22)
(1.00662 0.000189647 -2.23254e-22)
(1.07472 0.0568434 0)
(1.05696 0.0528198 -1.95577e-21)
(0.817187 0.0756417 2.27885e-21)
(1.02081 0.0580566 0)
(0.64804 0.0540995 8.21194e-21)
(0.629208 0.00232579 -7.19425e-21)
(1.00577 0.000217865 3.74808e-22)
(0.400781 0.00705693 -3.76213e-21)
(1.00408 -7.66165e-05 6.66699e-23)
(0.551026 0.0526426 0)
(0.850989 -0.154055 0)
(1.01673 -0.000977794 -3.63375e-22)
(1.01002 -0.000780078 3.20803e-22)
(1.00221 -2.06926e-05 2.61492e-22)
(1.05454 0.040568 0)
(1.05559 0.012751 8.32713e-21)
(1.01082 -0.000121219 -9.20745e-23)
(1.00329 0.000113643 0)
(1.01311 0.000350916 -1.79106e-21)
(1.05106 0.0585608 -9.48385e-21)
(1.01582 0.00496815 -8.44287e-22)
(1.0756 0.0474855 1.95526e-20)
(1.02085 0.0107962 0)
(1.00648 0.000170928 5.34958e-22)
(1.00235 -1.79851e-05 4.58323e-22)
(1.06829 0.0875676 2.90314e-22)
(0.886984 0.0485511 -6.59702e-21)
(0.168622 0.0478724 -1.382e-20)
(1.06879 0.0531751 -1.07961e-20)
(1.04462 0.0326444 0)
(1.08232 0.056526 -3.6075e-21)
(0.47641 0.0192691 -1.47772e-20)
(1.0096 0.00116369 -1.73032e-22)
(0.914253 0.0539487 0)
(1.01266 0.000122012 3.87797e-21)
(1.08645 0.0550712 -3.09932e-20)
(1.02284 0.00689897 6.44876e-21)
(1.07124 0.0558552 4.7426e-21)
(1.01299 0.00490267 6.89928e-22)
(1.01927 -0.00189195 0)
(1.03262 0.00537894 0)
(0.808961 0.0414565 -7.84335e-22)
(1.05279 0.0422638 -1.00563e-20)
(0.797318 0.0506736 -5.91718e-21)
(1.00386 3.85017e-05 -7.79246e-24)
(1.05083 0.0411722 -6.16909e-21)
(1.01294 0.00284169 0)
(1.00156 -6.04222e-05 -3.78321e-22)
(0.529413 0.0262773 -3.54298e-22)
(0.95759 0.0157403 4.65481e-22)
(1.01348 0.00293068 -8.71859e-23)
(1.06943 0.0640429 -2.09646e-21)
(1.01973 0.0014502 2.86277e-21)
(1.01587 0.000517423 0)
(1.00206 -5.45575e-05 0)
(0.54808 0.0297424 2.14631e-20)
(1.01599 0.00490819 8.6203e-22)
(1.01857 0.0135477 0)
(1.00941 -1.59709e-05 2.35953e-22)
(1.0132 0.00285348 -5.97156e-22)
(1.07273 0.0582482 0)
(1.00243 -5.08616e-05 -7.44348e-23)
(1.06925 0.0611967 -4.64471e-21)
(1.0019 1.80936e-05 -8.49496e-24)
(1.00886 0.00174102 0)
(0.488873 0.0307838 3.93826e-21)
(1.07588 0.0481076 0)
(1.02164 0.0122762 -1.85776e-21)
(0.264464 0.00390994 0)
(1.07818 0.0635453 -3.11227e-20)
(1.00709 0.0710802 -8.21535e-23)
(1.06719 0.0794267 0)
(1.00908 0.00191303 7.30281e-23)
(1.01266 0.019245 -1.39796e-21)
(0.542527 0.0367466 9.99368e-23)
(1.08293 0.066076 -6.13785e-23)
(1.02653 0.0251614 0)
(1.02604 0.0206996 -5.3134e-22)
(1.01902 -0.00283823 -1.04765e-21)
(1.00251 3.87213e-05 2.73616e-22)
(1.01242 0.00435951 0)
(1.02533 -0.0206989 1.10023e-22)
(1.06147 0.0580943 0)
(1.03538 0.0254916 -1.98783e-21)
(0.52775 -0.0213047 1.34193e-21)
(1.0538 0.0427282 1.22982e-20)
(1.01903 0.0972005 3.54947e-22)
(0.964369 0.113633 -1.44303e-20)
(1.01004 -0.0207427 0)
(1.04147 0.0422962 -8.73193e-21)
(1.07128 0.0636176 0)
(0.455319 0.0141559 1.33929e-20)
(1.01199 0.00168212 0)
(1.00631 -0.00430258 1.31548e-21)
(1.02878 -0.0209086 0)
(1.00896 0.00176023 0)
(1.00391 0.00010324 2.49561e-22)
(1.00238 -2.84588e-05 -1.30642e-22)
(1.01573 0.0051145 0)
(1.01026 0.000713021 0)
(0.406641 0.00746969 4.13052e-21)
(1.07432 0.0306794 1.18886e-20)
(1.00648 0.000406809 0)
(1.07264 0.0551666 -5.72866e-21)
(1.00415 4.78704e-05 5.84441e-22)
(0.583984 0.0408082 -7.0072e-21)
(1.01289 0.00111912 0)
(1.01192 0.0032771 0)
(0.536277 0.0462077 0)
(1.06162 0.0542327 1.20475e-20)
(0.914643 0.141544 2.0001e-21)
(1.03451 0.00742925 0)
(1.01308 -0.000243894 0)
(1.01179 0.00277628 1.98894e-23)
(1.03975 0.010012 -4.79381e-21)
(1.0541 0.0310532 -5.57554e-22)
(1.01286 0.0051056 6.68888e-22)
(0.346002 0.00884458 -1.26066e-20)
(1.03485 0.0339783 0)
(0.932523 -0.0608064 -1.20579e-20)
(0.921022 0.142511 1.39782e-21)
(1.00787 -0.00610058 -1.35029e-21)
(0.649032 0.0547343 0)
(1.04244 0.0126425 0)
(1.00425 0.000181116 -2.44446e-23)
(1.01318 0.00288152 6.29718e-22)
(0.447423 0.0223503 -1.07286e-20)
(0.550581 0.140291 0)
(1.03826 0.0285776 -5.12351e-21)
(0.366552 0.00778655 0)
(0.94699 0.185535 -2.12283e-21)
(1.00885 0.00183184 -6.86466e-22)
(1.01171 0.0030481 0)
(1.02475 0.0200327 3.04919e-21)
(0.979662 0.070006 0)
(0.970307 0.11107 0)
(1.05192 0.0430569 -3.31997e-21)
(1.03904 0.00990839 4.03469e-21)
(1.04933 0.0182626 0)
(1.08723 0.0555813 3.25346e-20)
(1.01664 0.00951578 3.05949e-22)
(1.06841 0.062495 1.02638e-20)
(1.07369 0.031501 0)
(1.02191 0.0142578 -1.85458e-21)
(1.03346 0.0160316 -8.37076e-21)
(1.00418 0.000175144 5.95932e-23)
(1.05333 0.0307045 0)
(1.01715 0.0116218 -7.52184e-22)
(1.08628 0.0668882 -3.26159e-20)
(1.02881 0.0232315 1.40734e-21)
(1.02117 0.00238435 3.37392e-22)
(0.353396 0.00812448 -1.67847e-20)
(1.01519 -0.00298377 0)
(0.955762 0.169887 -3.69643e-21)
(1.02617 0.0202264 -2.06058e-21)
(1.01931 0.0288298 2.67794e-22)
(1.04218 0.0275007 -3.34964e-21)
(1.08321 0.0656515 1.3809e-20)
(1.00262 2.26401e-05 -2.41978e-22)
(1.08314 0.0444776 -1.21946e-20)
(0.918018 0.0475995 1.52145e-20)
(0.939464 -0.0871087 4.0202e-22)
(1.02392 0.0067411 2.08025e-21)
(1.02931 0.0233962 3.44939e-21)
(1.00821 0.000359898 4.69692e-22)
(1.02106 0.00529502 3.85876e-21)
(1.03246 0.00429362 1.0615e-21)
(1.0146 0.0011786 0)
(1.0197 -0.00934736 0)
(1.06651 0.087732 7.40534e-21)
(1.06933 0.062079 0)
(1.00884 0.00175283 2.51391e-23)
(1.08212 0.067641 -9.91428e-21)
(1.06212 0.0174721 2.23e-20)
(1.0592 0.0217606 1.47193e-20)
(1.07035 0.0633716 0)
(1.01767 0.0109001 -4.69553e-22)
(1.08175 0.0463961 1.30169e-20)
(0.936937 0.0266873 1.22093e-20)
(1.00595 0.000203411 -3.17216e-22)
(1.06222 0.0536183 0)
(1.04355 0.071112 5.81473e-21)
(1.07248 0.0314672 0)
(1.0114 0.00364989 8.23371e-23)
(1.00976 0.00239763 -2.65969e-22)
(1.01233 0.00425032 0)
(0.412765 0.00764933 6.0017e-23)
(1.03261 0.0150926 -4.33982e-21)
(1.01348 0.000830784 -6.16352e-24)
(1.07831 0.0348567 0)
(1.0131 0.00533384 -8.84185e-22)
(1.01058 0.00277262 -1.15976e-23)
(1.0644 0.0692755 -1.19266e-21)
(0.940574 0.023812 -1.03063e-20)
(1.02098 -0.00721122 6.99622e-22)
(0.609533 0.0123629 -9.53612e-21)
(1.02003 0.022084 0)
(0.951034 0.0694779 0)
(1.03287 0.00389811 -1.14864e-20)
(1.01895 0.00852811 2.75776e-22)
(1.07925 0.0562369 7.90612e-21)
(1.01752 -0.000718192 -7.0525e-22)
(1.00418 0.0142705 5.39895e-22)
(1.00252 1.20047e-06 1.62572e-22)
(1.00392 7.14354e-05 2.63184e-22)
(1.03321 0.0082785 4.62175e-21)
(1.02814 0.0234935 -1.44782e-21)
(1.0237 0.0135262 8.65916e-22)
(1.01128 0.00355147 2.28926e-23)
(1.00661 -0.0282623 2.6571e-22)
(1.01415 0.00630916 -1.15747e-22)
(0.834232 -0.119857 0)
(1.02666 0.0203746 0)
(1.06009 0.0242839 1.49616e-20)
(1.01184 -7.31435e-05 -4.23097e-22)
(1.06894 0.0542358 -2.43354e-20)
(1.0148 0.0173689 9.21645e-22)
(0.772362 0.0341377 -1.44463e-20)
(1.01887 -0.010053 8.32267e-22)
(1.00152 2.01109e-05 8.70084e-23)
(0.558822 0.0394679 -1.19341e-20)
(1.033 0.0166949 3.20049e-21)
(0.409061 0.0137421 -1.12904e-20)
(1.05544 0.0111283 0)
(1.01584 -0.028962 -1.98787e-21)
(1.01679 0.00897785 2.29645e-23)
(1.01062 0.00217374 -1.15112e-22)
(1.02362 0.00636518 -8.31981e-23)
(0.693054 0.0491749 0)
(1.05173 0.0310282 -6.31645e-21)
(1.01206 0.0769135 5.55834e-23)
(0.608563 -0.0231627 -1.69569e-20)
(1.02079 0.00512667 0)
(1.07209 0.0322922 0)
(1.00742 -0.000371553 0)
(1.0101 0.00361046 -6.00448e-22)
(0.960097 0.150043 1.93042e-21)
(1.00782 -0.000408808 -2.48082e-23)
(0.457044 -0.0214526 3.51373e-21)
(1.05126 0.0173081 0)
(1.01001 -0.0320468 0)
(1.07087 0.0570048 -1.17755e-22)
(1.0054 0.063531 7.21098e-22)
(1.00786 0.000406834 0)
(1.00449 0.000159591 -3.2692e-22)
(1.03236 0.0812529 3.40859e-21)
(1.00905 0.00185803 -4.44122e-24)
(1.02051 0.0111382 2.40929e-21)
(1.02814 0.0187529 -3.04911e-21)
(1.01426 0.00655029 1.17007e-22)
(1.07769 0.035574 -2.12524e-21)
(1.00768 0.000378441 -1.09121e-22)
(1.03457 -0.0129307 1.61175e-21)
(1.02148 0.0141663 1.77629e-21)
(0.456628 0.00941451 2.9928e-20)
(0.398369 0.0130597 1.45913e-21)
(1.08843 0.0524185 0)
(0.939049 0.069013 -3.8467e-21)
(0.525844 0.0511133 -9.62494e-21)
(0.445233 0.00792908 -3.05058e-20)
(1.04778 0.0846879 0)
(1.00816 0.00144932 3.47376e-22)
(1.01574 0.00102513 -3.17585e-22)
(1.02747 0.0076914 5.28104e-21)
(1.03009 0.0169262 -4.13758e-21)
(1.01434 0.00399542 0)
(1.05267 0.0313961 1.41831e-21)
(1.01601 0.00616447 -8.56118e-22)
(1.038 0.077217 -8.4221e-22)
(1.02088 0.0114976 -3.7192e-21)
(1.07607 0.0629709 -1.14563e-20)
(1.0324 0.0143901 0)
(1.07228 0.0257579 2.16815e-20)
(1.02356 0.0740069 0)
(1.01135 0.00241809 2.93217e-22)
(1.02451 0.0367029 1.50306e-21)
(1.03261 0.0168547 8.16737e-22)
(1.01461 -0.000524177 5.54518e-24)
(1.04647 0.0274516 -8.39175e-21)
(1.01284 0.000171262 0)
(0.648503 0.0558195 0)
(1.06218 0.0590758 0)
(1.02605 -0.0243806 0)
(1.01151 0.00283317 0)
(1.02478 0.00045807 0)
(1.01551 0.00784777 3.9374e-23)
(1.01435 0.00659706 0)
(0.616021 -0.00683783 0)
(1.00841 0.00159986 1.93587e-22)
(0.960248 0.0270714 0)
(1.01288 0.004733 3.44095e-22)
(0.957556 0.105378 0)
(1.01434 0.0136177 3.23968e-22)
(1.01463 0.00611051 1.65227e-21)
(1.08339 0.0452094 7.7524e-22)
(1.011 0.0120865 0)
(1.00859 0.00172147 -9.71747e-23)
(0.911614 0.139914 -3.68524e-21)
(0.941767 0.055209 0)
(1.02223 0.0192075 0)
(1.07 0.0537779 9.60326e-21)
(1.00901 0.00171095 4.14215e-23)
(0.971437 0.027538 0)
(1.0133 0.000416581 2.12833e-22)
(1.01451 0.00679297 0)
(0.500721 0.01913 1.35776e-20)
(1.00365 4.8375e-05 2.64913e-22)
(1.03778 0.0140111 0)
(1.0721 0.0550005 1.10293e-20)
(0.487606 0.0153972 -2.59762e-20)
(1.01356 0.00068941 -2.1868e-22)
(1.02464 0.109565 0)
(1.07634 0.0557761 0)
(1.01326 6.78867e-05 0)
(1.01696 0.00878872 -1.9983e-22)
(1.0145 0.00679793 1.11132e-22)
(1.05877 0.0629983 0)
(1.02395 0.00095619 9.294e-22)
(1.07466 0.0574056 -1.46857e-20)
(1.02836 0.0100335 8.33956e-23)
(0.518548 0.0438631 0)
(1.0143 0.0154864 1.58518e-22)
(0.861984 0.125124 -1.84623e-20)
(1.01251 0.00380797 0)
(1.01012 -0.000246619 -1.70753e-22)
(0.986482 0.056792 -3.01881e-22)
(1.01045 0.000485079 9.79455e-22)
(1.01532 -0.00269144 -1.09471e-23)
(0.762256 0.0608936 -1.57587e-20)
(1.02523 0.0178103 9.92143e-22)
(1.0104 0.00264228 -1.03879e-21)
(1.06747 0.0933936 3.15258e-21)
(1.0135 -0.000344618 0)
(1.01591 0.00133759 3.14155e-22)
(1.06208 0.0571769 -6.30294e-21)
(1.02712 0.018785 -1.3462e-21)
(0.83167 0.0542373 0)
(1.02723 0.0382997 2.46928e-22)
(1.08442 0.0492067 1.36738e-20)
(1.06457 0.0809082 0)
(1.04836 0.0182187 3.74197e-21)
(0.538319 0.0422414 -4.50497e-23)
(1.02177 0.0150401 2.35043e-21)
(1.06209 0.0553362 0)
(1.02234 0.00366932 3.80141e-21)
(0.375334 0.016943 -1.31421e-20)
(0.973236 0.0939162 9.4383e-22)
(1.0362 0.00704186 6.17946e-21)
(1.01346 0.000543385 2.06649e-22)
(1.01436 0.00015891 1.04032e-21)
(1.02232 0.0127874 0)
(1.01314 0.000319531 2.50511e-24)
(1.01153 0.000246109 2.3781e-22)
(1.01255 0.00105038 -7.83175e-22)
(1.02359 0.00581216 8.21482e-21)
(1.04224 0.0337304 0)
(1.00585 0.00018355 3.5463e-22)
(1.02525 0.0173488 9.90079e-22)
(1.07318 0.0515102 1.26364e-21)
(0.554399 -0.00736427 0)
(0.744005 0.0303868 1.61723e-20)
(1.07193 0.054301 9.5998e-21)
(1.01563 0.00798311 -6.18369e-23)
(0.992467 0.065339 0)
(1.01539 0.00542556 0)
(1.07742 0.0563628 -2.39167e-20)
(0.96838 0.149812 0)
(0.177428 0.00203825 0)
(1.00934 0.000108637 -7.54293e-22)
(1.00833 0.00156209 -3.1446e-22)
(1.01706 0.00105639 -1.63343e-21)
(1.01823 0.0100459 -8.24219e-22)
(1.00913 9.84334e-05 7.1547e-22)
(1.0133 0.000133476 2.14491e-22)
(1.01772 0.00554546 4.08587e-21)
(1.04142 0.0434737 -4.65438e-21)
(1.01053 0.00268079 0)
(0.386711 0.0499665 -1.58592e-20)
(1.07245 0.10349 1.54749e-21)
(1.01076 0.00331002 -3.73837e-22)
(0.721559 0.0531524 9.02373e-21)
(1.02276 0.00376138 -4.49265e-21)
(1.01235 0.00396427 -8.22556e-23)
(1.00795 0.00587511 -2.9418e-22)
(0.561372 0.0325444 -1.04773e-20)
(1.01712 0.0487687 -2.38943e-21)
(1.00276 -5.00884e-05 -1.50936e-22)
(0.921536 0.125757 -2.02541e-21)
(1.01221 0.00241038 0)
(1.01234 0.00353262 0)
(1.08353 0.0683686 1.41492e-20)
(1.01622 0.000800842 1.60139e-22)
(0.79219 0.00149554 -5.68395e-22)
(1.03858 0.0143396 9.44574e-21)
(1.00935 -0.0452608 6.65302e-21)
(1.01019 0.00266713 -9.42349e-23)
(1.01232 0.00092346 -2.55124e-22)