/*--------------------------------*- C++ -*----------------------------------*\
| =========                 |                                                 |
| \\      /  F ield         | OpenFOAM: The Open Source CFD Toolbox           |
|  \\    /   O peration     | Version:  v2012                                 |
|   \\  /    A nd           | Website:  www.openfoam.com                      |
|    \\/     M anipulation  |                                                 |
\*---------------------------------------------------------------------------*/
FoamFile
{
    version     2.0;
    format      ascii;
    class       volScalarField;
    location    "200";
    object      ddt0(k);
}
// * * * * * * * * * * * * * * * * * * * * * * * * * * * * * * * * * * * * * //

dimensions      [0 2 -3 0 0 0 0];


internalField   nonuniform List<scalar> 
54593
(
-3.99764e-05
3.57047e-05
-3.90067e-05
-1.92887e-06
3.31471e-06
-1.706e-05
-1.34726e-08
-3.50633e-06
9.87208e-07
-5.59018e-09
5.16354e-10
1.97503e-05
-9.19842e-09
2.60227e-08
-1.40546e-05
3.80197e-08
0.000747965
-2.23249e-08
3.92689e-08
6.44773e-06
4.07359e-07
5.98387e-08
5.02638e-05
-6.6216e-08
-5.59725e-08
-2.78337e-08
5.14083e-05
1.43608e-05
1.17519e-06
-5.88569e-08
-2.59855e-05
0.000194326
4.34532e-09
-2.34083e-05
-2.40318e-08
-4.54432e-08
-3.1791e-08
-0.000371165
0.000871275
-0.0081785
-1.21163e-05
2.74448e-08
-1.10523e-08
-1.71285e-08
-1.41077e-08
4.32749e-07
-1.39591e-08
0.000215791
-0.000390862
6.15099e-08
-1.45369e-08
-1.90189e-08
8.66818e-08
3.09513e-09
-1.79107e-08
1.51991e-09
-3.45149e-06
2.22949e-08
-3.51832e-05
-2.03056e-07
0.000294718
-2.13779e-08
-7.16426e-10
-2.7647e-08
0.0013506
-0.00886245
1.3595e-08
0.00130076
-2.34169e-08
-1.27928e-08
0.00132737
-2.45101e-08
3.62651e-09
3.52259e-09
2.61013e-08
-1.14784e-08
-0.00808947
1.45254e-08
-3.99638e-05
-4.27271e-08
-6.27124e-08
1.24114e-08
0.00135229
0.0013173
9.57174e-09
1.28397e-08
1.20966e-05
4.4662e-07
2.24566e-08
-5.05183e-06
1.75257e-08
-4.40168e-08
0.00177202
1.09081e-08
-0.00415787
-1.8684e-08
-1.17691e-06
-6.03318e-08
-9.04132e-09
-6.44249e-09
0.000829143
0.00470602
-2.47984e-08
5.4424e-07
-0.000130244
-7.22247e-07
-2.24585e-08
-4.00703e-07
2.0354e-09
-1.44088e-08
2.23246e-08
1.49024e-08
0.00108459
-2.84966e-06
0.000306788
4.97603e-09
-1.94883e-08
5.73011e-07
-7.3506e-05
0.000652881
-3.85561e-08
-4.31828e-07
-2.39114e-08
4.08959e-06
1.67049e-07
0.000747942
-3.60773e-08
-7.82602e-07
0.00134947
-1.78987e-08
8.4154e-09
-2.17613e-07
2.25637e-08
7.63606e-08
-1.69298e-08
-2.55372e-08
-5.21096e-08
-1.6627e-06
1.50367e-07
-0.0186967
5.28135e-09
-1.36653e-07
-1.53146e-08
0.00194752
1.01449e-08
8.88094e-08
-1.31304e-07
-7.15358e-08
-1.55801e-08
0.000789845
-2.28772e-08
-0.0146359
-2.96457e-09
-7.40681e-09
1.71186e-08
4.85704e-06
-4.89458e-06
0.000609867
1.84565e-05
-5.71189e-08
1.00255e-05
-7.9865e-07
0.00135398
-5.47717e-09
1.46862e-05
1.73529e-08
5.60376e-07
2.72284e-08
-9.15943e-09
2.13512e-08
-0.00115861
-1.14517e-08
-1.97994e-08
3.02006e-07
9.95767e-09
-1.52034e-08
3.64001e-08
-1.93264e-07
0.00206813
-6.50147e-09
-1.45052e-08
4.16645e-07
0.000579558
-3.23498e-06
2.52054e-05
-4.99349e-09
0.00368986
-3.76712e-08
-1.16968e-06
-8.7804e-09
-0.00350944
1.22577e-06
2.57794e-08
0.00305326
-4.88712e-06
2.57565e-08
1.68877e-08
1.64638e-07
-5.26152e-06
3.49047e-07
-0.0024811
9.87235e-06
4.4124e-08
-2.36102e-07
0.000164932
1.76489e-07
-1.30553e-07
-2.57636e-07
1.98488e-08
0.0034183
8.27123e-09
3.93918e-05
7.3985e-08
-0.00505145
7.7144e-10
5.1974e-08
-7.8559e-09
-3.7397e-05
4.83821e-09
-1.09439e-10
-1.3163e-07
-0.00104978
-2.03812e-08
0.000672012
-0.00150853
-6.43774e-06
-2.04624e-07
-0.00221643
-2.01087e-06
0.00126992
-0.00358242
1.72231e-09
-2.67067e-08
3.78013e-07
-7.46672e-09
-8.63289e-09
1.65825e-07
-4.5133e-05
-5.15672e-06
7.93133e-09
5.55851e-09
-8.51908e-09
8.1719e-09
5.27503e-09
-1.75682e-08
-2.72512e-08
0.00515114
-0.000350039
-2.46417e-07
-5.38067e-08
-5.29551e-06
-3.56881e-09
-3.69835e-07
1.6664e-10
-0.0200801
2.75164e-08
0.00228111
-0.00229936
-6.60687e-06
-8.11379e-09
2.70755e-10
6.31839e-09
-1.30967e-06
-0.00716358
-3.8451e-05
1.72775e-06
4.89608e-09
1.90152e-06
-3.62402e-08
2.43889e-09
-9.44752e-06
-0.000384441
-1.85981e-08
-6.35886e-06
-5.52543e-06
0.0145248
1.62728e-09
8.4075e-09
-2.45116e-08
-2.22825e-08
-6.89418e-09
-3.36684e-07
-2.81353e-07
-2.12136e-07
0.00134636
0.00126418
-2.32526e-07
-4.7807e-07
-4.48911e-06
-7.86314e-09
-2.07664e-07
-0.0171843
-1.94107e-06
0.00150198
1.84969e-06
1.36993e-08
-4.23459e-06
-3.3997e-08
-5.36169e-07
0.000386663
1.71677e-07
1.60434e-06
3.12345e-05
-4.88917e-05
4.5028e-06
-4.24524e-06
0.00514229
0.00102008
0.0155928
0.00143416
6.2331e-08
0.00159672
1.67286e-06
0.00163615
5.10051e-05
-3.57908e-06
0.00128568
-2.52975e-07
-1.77394e-06
-3.57253e-08
0.000634395
-8.10603e-07
1.32426e-08
-3.86346e-06
-2.7074e-08
-0.00223357
1.26055e-08
-5.10066e-06
1.70245e-08
0.000282759
-5.8831e-06
-1.3021e-08
0.000446433
-9.73558e-06
-4.86109e-08
-1.86432e-09
-3.08862e-07
0.000392836
9.15832e-08
-5.57343e-09
-2.0588e-06
-0.00397348
0.000800663
3.1336e-09
-4.26182e-09
0.00235359
-3.21983e-08
0.000369612
-8.19631e-07
5.54765e-09
-0.00206356
4.00071e-09
0.000255536
-5.89346e-08
-3.3606e-06
2.00812e-06
-1.29751e-06
0.00508774
-1.44827e-06
-1.18295e-06
8.27562e-05
3.19416e-05
0.00105152
-2.52821e-08
0.000273913
-7.72609e-07
5.50546e-07
1.17613e-09
-3.12145e-08
3.8847e-06
6.24189e-07
-0.000192319
0.000223659
6.947e-08
1.20329e-08
8.93843e-08
7.0759e-07
-7.35436e-08
8.66417e-06
0.00234703
2.5264e-07
4.64474e-06
0.0011506
1.74183e-06
-0.00511325
7.54801e-08
-2.53813e-07
1.06844e-06
1.02165e-06
-6.48405e-10
-3.49448e-07
5.49675e-06
0.000122467
3.80457e-06
2.23894e-08
-4.16852e-09
-3.52612e-08
-1.99258e-09
-7.33416e-07
-4.11694e-07
4.94656e-05
-7.93591e-09
1.74176e-08
-5.50325e-08
3.77923e-06
-9.65964e-08
-1.77705e-06
-1.31593e-06
-2.81065e-05
-2.74967e-06
1.11313e-08
0.000967138
0.000252331
-3.38038e-06
3.12347e-09
-1.99452e-09
0.00117355
0.000107025
1.70654e-06
-3.09729e-07
-0.00171713
-5.66051e-08
-4.14752e-08
-0.00193497
-2.1582e-06
-4.58374e-06
0.000462967
-1.53546e-08
6.70003e-07
1.16465e-08
4.67578e-06
0.0036982
0.000595457
6.64021e-07
0.000224735
1.11652e-08
1.64267e-08
2.40028e-06
0.00549659
-9.60457e-06
-4.24332e-06
-1.58335e-09
-0.000579716
-1.23452e-08
0.0051653
6.91115e-07
1.52916e-06
2.57116e-06
0.00200248
0.00305299
-5.04549e-06
-1.2141e-08
-2.41818e-07
6.94198e-09
-3.02783e-05
8.09305e-07
-2.14365e-06
-2.60228e-05
1.8538e-08
8.15192e-07
0.00177951
6.99896e-09
-1.24831e-09
1.64992e-06
-4.2186e-07
0.000311054
5.72479e-09
0.00205889
-7.62446e-09
-1.27995e-08
-4.28849e-06
-1.1295e-06
1.65376e-05
2.78232e-06
-2.41781e-06
1.08515e-06
1.36859e-05
-6.56624e-08
3.13347e-07
9.08375e-06
-4.22403e-08
0.0155183
-1.66346e-06
-1.31421e-07
0.00333363
0.00183931
-5.71672e-06
1.34219e-06
-3.00078e-09
-2.74759e-07
-9.23394e-08
0.00289255
6.16755e-07
6.56442e-07
0.000191645
-0.000952643
-5.94001e-06
-1.27454e-06
-2.67627e-06
-6.42315e-09
1.75595e-09
0.00595368
-3.08163e-08
-6.6572e-09
9.1263e-11
-1.03137e-09
3.38635e-06
2.01277e-08
3.72165e-05
0.000989962
5.01564e-08
1.28206e-08
6.47153e-09
2.46817e-08
-4.25067e-10
5.23481e-07
2.31427e-08
7.60493e-07
-2.27534e-06
1.64153e-07
2.37093e-07
0.000145222
0.00202564
3.30905e-07
-0.000542677
3.84305e-06
-6.33774e-06
1.31927e-08
-1.77686e-08
-2.20309e-09
4.99942e-07
-2.35022e-06
1.88336e-08
0.00147216
-0.0019387
-2.6379e-06
-0.00575869
2.85346e-08
0.00541324
0.0002901
5.36316e-08
-6.16596e-06
-9.55355e-09
-3.84323e-06
2.48994e-08
-6.88458e-09
1.00213e-06
-5.76027e-08
-8.90067e-07
-3.73604e-08
-3.32105e-06
-2.70723e-07
-9.04352e-09
8.16439e-08
3.85675e-08
6.51905e-09
-1.44146e-05
-0.00181434
2.30621e-07
-2.15798e-07
0.00377271
-4.66531e-09
-2.95353e-05
6.79145e-07
6.73665e-06
-2.31521e-06
-2.40314e-05
-0.000670511
-2.41023e-06
-1.31468e-06
-6.00346e-08
-2.29184e-05
2.4008e-08
2.23283e-07
0.00346877
9.13899e-09
8.86869e-08
2.08748e-08
-2.34447e-07
2.32718e-08
1.41835e-08
1.267e-08
0.00290056
-5.70529e-06
-5.43208e-09
0.000656327
1.99104e-07
3.08887e-05
0.000309484
4.25117e-06
1.09555e-05
5.27002e-06
4.51134e-06
-8.37646e-07
-1.86968e-06
4.89014e-06
-6.30459e-06
0.000514795
-1.23645e-09
-3.10483e-06
-2.43271e-05
-0.000111189
6.11767e-09
-7.32691e-09
-0.000911882
-1.84424e-07
-0.00704487
3.15943e-09
-0.00830278
-2.09438e-06
-8.88041e-06
2.71903e-08
-8.32599e-05
-1.16554e-08
2.08218e-07
-7.90533e-06
-3.68883e-09
-9.95593e-07
0.00189029
0.0110269
-1.15241e-08
1.84054e-09
-1.87197e-06
0.00689106
-6.89306e-09
0.00140485
1.11628e-07
1.89305e-07
1.61051e-08
-1.64759e-05
-2.06556e-06
-3.82774e-07
-2.94675e-08
-3.01296e-08
5.43334e-10
0.00336887
-1.77956e-08
-3.03406e-07
2.26546e-08
-6.71479e-06
0.00328622
0.000935564
-3.33578e-09
-2.92498e-06
0.000610702
0.000991761
-4.75154e-08
0.00117804
2.15328e-07
-5.26202e-06
0.00344692
3.14739e-08
1.19507e-08
-1.87131e-08
-4.49072e-09
-2.22687e-06
-5.30017e-09
5.62545e-06
0.000908809
-6.61142e-06
-2.43612e-08
0.00334207
0.00305026
-9.88045e-09
2.63667e-08
-4.63423e-08
1.82362e-08
3.8716e-07
-3.72693e-05
-0.00831195
-2.54665e-06
8.01042e-06
2.62018e-06
-4.28246e-07
5.01838e-06
0.00194464
-0.00316278
0.00264995
0.00461852
-8.82545e-07
0.000401995
-4.99437e-09
0.00294729
0.000104222
8.35405e-09
0.000758062
-1.50139e-07
5.15703e-08
0.00114168
1.06772e-07
-1.5399e-06
-3.58728e-08
3.17158e-06
-0.00255625
1.72331e-06
0.000417072
-6.80075e-06
-1.82338e-06
1.26659e-06
-8.85362e-09
1.88643e-06
-2.94877e-08
0.000465022
-2.76509e-06
0.00237928
9.49701e-09
0.0012537
0.00458396
-2.92505e-08
4.58371e-09
0.0164201
4.83374e-06
-1.78486e-06
0.000111591
4.49342e-09
-4.37801e-08
-8.74723e-09
-1.22996e-06
-2.95985e-07
-3.14079e-09
5.57935e-08
1.28467e-07
6.12665e-05
-1.84329e-08
-1.4872e-06
-1.62231e-06
1.33586e-05
-5.23364e-08
-1.83407e-06
7.70406e-07
-1.41674e-09
0.01225
0.000366978
9.5853e-09
2.18421e-07
2.8613e-08
5.8382e-07
-5.32022e-06
1.30072e-08
1.02164e-05
5.05639e-06
0.00491568
-0.000109405
0.00234889
-7.13428e-09
0.00811019
1.04195e-10
6.03802e-07
0.00230879
6.24105e-09
1.30922e-07
0.00515799
2.1782e-08
5.0157e-06
5.06255e-09
0.00812989
0.000656191
2.92231e-06
2.32458e-09
-7.48764e-09
-3.4947e-05
1.06412e-05
-6.7785e-05
1.27258e-06
-2.76717e-08
-1.37288e-07
-0.000111952
-4.29745e-05
-2.4157e-09
0.00259934
-3.11697e-06
-0.0082349
-0.00153984
6.96125e-09
5.21299e-07
6.38165e-08
-4.44672e-08
1.50681e-06
-1.7344e-06
-4.21882e-07
-2.1458e-08
2.25472e-09
1.67331e-08
-0.00173242
-0.000377829
3.60887e-08
-4.99294e-06
-1.83548e-06
-4.82137e-06
5.23583e-08
-2.81017e-08
-3.31954e-06
1.4713e-07
-1.47349e-07
2.80383e-06
-2.51609e-08
2.98977e-06
2.41601e-09
0.000456011
0.00189589
2.59673e-06
0.0051109
3.10125e-06
-2.47912e-08
-8.2442e-07
0.00514297
-2.00866e-08
-6.83728e-08
0.000783111
0.00142929
1.48423e-05
4.7657e-06
0.00305719
-0.0075716
4.10487e-06
0.000847172
-1.07058e-08
-6.6098e-08
0.00506885
-4.82586e-09
-0.0026883
8.94022e-07
0.00048402
-2.01527e-08
-7.73558e-09
-5.13798e-05
-5.2158e-09
2.70791e-06
7.36628e-07
4.39169e-06
-2.67801e-08
4.8468e-06
-7.44026e-09
-1.76288e-08
0.00214714
8.97913e-07
-0.00725615
3.89766e-08
-3.96708e-06
0.0028578
-1.40369e-06
-1.01526e-08
0.000748114
0.0012803
0.00624435
-0.0048911
1.32718e-06
-9.05662e-07
-5.76323e-08
9.6408e-08
0.00240135
4.84666e-08
0.00184981
0.000386276
0.0113048
0.00130975
9.91551e-07
-1.7319e-08
6.29399e-09
0.00151513
7.00332e-09
9.25053e-07
-2.10521e-08
-4.51753e-08
2.02221e-09
0.000260844
-3.92538e-06
-6.93135e-06
0.00527575
-1.15391e-06
2.12151e-08
2.40296e-08
3.94839e-07
-8.3727e-09
0.000342347
0.00315345
0.00503832
-1.06811e-07
-0.000579872
-1.00391e-06
-4.52977e-10
3.7528e-08
0.000230279
-4.5415e-05
-5.329e-09
3.49502e-07
1.17392e-08
9.69757e-09
-0.00631882
7.65703e-08
-3.7712e-08
0.00415139
-3.01617e-09
4.93106e-06
1.41694e-08
-2.6286e-06
-8.49595e-07
1.07286e-08
-4.45786e-08
3.0024e-06
0.000291774
2.26136e-05
-8.0081e-08
-7.98587e-09
-2.72851e-08
9.43319e-10
2.15713e-08
-3.24887e-07
-1.79355e-07
-7.42679e-07
-0.00741061
0.00115619
2.48598e-06
1.0769e-08
4.1845e-08
-0.00138331
1.34645e-08
2.55375e-08
1.14328e-07
-0.00485558
2.13383e-06
-0.00367961
3.81805e-08
0.00112704
2.13572e-06
0.00206894
0.00143278
1.60789e-09
4.31893e-09
-2.74712e-07
-1.76498e-08
3.47488e-08
0.00132047
-2.28821e-08
-5.12757e-08
0.00499645
-5.31132e-08
-0.00322072
6.40818e-09
2.45933e-08
-7.74497e-08
-6.05652e-08
-5.95792e-06
7.8773e-07
0.00465679
-1.22791e-07
-1.43561e-09
-4.49475e-08
-4.823e-06
1.57176e-08
-1.66723e-08
0.00675882
-1.80988e-06
0.000408645
4.44028e-09
0.00508674
1.2564e-08
2.17344e-08
-3.63726e-06
-2.55047e-06
-5.04311e-05
0.000263714
2.34402e-07
-1.10668e-07
1.99669e-06
-2.48698e-06
1.82871e-08
9.61626e-06
8.81938e-09
0.000436618
2.41164e-09
-7.09283e-07
-2.39244e-08
2.1628e-08
0.00527783
9.01263e-05
0.00538989
-0.00262168
-2.2978e-08
-3.00133e-05
2.50022e-08
0.00729064
0.00704115
-4.86205e-07
7.70353e-09
-8.25139e-07
3.67423e-09
-1.22085e-08
4.78174e-09
-2.12247e-08
5.75558e-07
-3.07795e-08
-1.72523e-08
-3.10209e-10
-0.000644634
-0.000231554
-1.81634e-07
5.0299e-08
2.44984e-09
2.74914e-06
1.08053e-08
0.00503783
1.86476e-08
1.77143e-06
-7.10351e-09
-2.64687e-06
0.00454829
0.00107458
-3.76235e-07
5.6278e-09
-1.59762e-06
-5.10291e-09
-0.00110632
-1.75745e-06
2.23065e-08
0.00820058
-2.46772e-06
-4.41387e-08
-1.33016e-06
6.18273e-08
-1.21203e-08
1.95477e-06
-3.10846e-06
0.0141227
1.48407e-08
-3.1647e-07
0.00195947
-2.44454e-08
3.25392e-08
-1.78877e-06
3.68279e-09
1.2521e-08
-2.13749e-07
3.88516e-06
-5.70028e-08
3.45238e-08
-4.34438e-08
0.00236273
-2.17607e-08
1.53498e-08
0.00551056
-3.23966e-06
2.16339e-08
-2.49767e-06
0.00844138
-3.19365e-07
9.75083e-07
0.000431446
-6.38606e-08
-2.8581e-05
2.39211e-08
-1.53893e-06
-1.0031e-08
-5.61721e-06
2.83717e-06
-4.00259e-05
0.000455999
-2.33341e-09
0.00546355
-5.67541e-06
3.31665e-08
1.1704e-08
-4.85071e-09
-1.17536e-08
2.45004e-08
6.88126e-06
-2.25638e-08
-8.50952e-09
-5.3233e-09
0.0130283
8.41016e-07
-0.00371313
-5.46188e-08
-1.49307e-07
0.004039
2.48985e-08
-6.04357e-06
-2.67738e-08
1.27604e-08
2.22791e-07
-1.71725e-06
0.00329437
-0.000610863
6.51274e-09
2.13083e-08
1.71827e-07
0.00387632
6.68277e-09
-4.64957e-07
4.42835e-06
1.7241e-07
0.000517265
-7.72353e-09
9.35295e-08
2.12289e-06
1.62389e-07
0.007708
-0.000403118
-3.79631e-08
0.000294275
-9.20337e-09
-2.22477e-08
-1.30636e-08
1.39644e-06
-1.29903e-08
5.50736e-05
1.37005e-08
-4.76294e-08
-2.21015e-08
-9.2769e-09
-1.0509e-08
3.18515e-09
-3.67989e-09
7.49595e-09
-3.16951e-07
1.72522e-05
4.47303e-08
2.54531e-08
1.3951e-09
-1.10951e-08
1.04894e-06
-2.02043e-07
-1.20396e-06
-4.18167e-09
2.04086e-08
7.57604e-05
1.2119e-08
-1.52575e-06
-1.38228e-08
2.45534e-09
-1.24571e-07
-3.22324e-06
-1.48473e-06
-1.72779e-06
4.63821e-07
-1.25828e-09
6.04463e-06
-2.862e-08
6.8814e-06
0.00195338
-5.8313e-09
4.29095e-09
3.87207e-09
2.26947e-06
-6.00503e-07
2.68577e-06
-2.45807e-08
1.45022e-08
-2.26347e-09
-3.54685e-07
2.00481e-08
2.73172e-07
-1.19213e-08
1.03251e-08
0.00234683
-6.02849e-06
-5.10297e-06
2.60049e-08
-7.92647e-09
-4.46373e-08
-3.59377e-08
-1.05095e-06
2.21306e-10
0.00209404
0.00531835
-1.91918e-08
-1.19843e-06
2.54134e-07
0.00398532
1.23972e-08
4.01909e-06
-3.09992e-06
0.000151215
-1.48874e-06
1.77953e-08
1.0186e-08
-2.46062e-09
2.36418e-08
4.33016e-09
-6.73466e-09
2.48228e-08
-6.62678e-06
-2.39786e-06
3.18238e-07
-4.21934e-07
-5.81924e-09
-2.48052e-06
2.66845e-07
-8.20564e-08
-2.30347e-06
-3.45993e-08
0.000574786
3.84964e-06
1.40409e-06
-1.19497e-08
6.82008e-09
6.37724e-07
-0.00608272
2.04239e-07
-5.01429e-08
-4.85547e-09
-3.44488e-08
4.20165e-08
1.96605e-07
-1.4681e-06
2.4066e-08
6.60362e-07
1.96726e-08
-7.66963e-08
-0.0197806
1.39456e-08
-6.01916e-08
6.534e-06
-1.78241e-07
0.0026811
-2.57369e-08
-2.37427e-08
3.00443e-07
-0.00268065
-2.01948e-07
-1.32637e-08
-0.00340097
2.21659e-08
2.48551e-09
1.51396e-08
3.64706e-08
-1.91e-08
4.0539e-06
0.00108659
4.33708e-07
-1.08111e-06
-1.98102e-09
2.724e-06
-1.4773e-07
0.000472545
3.89185e-09
7.55213e-06
-2.09252e-08
0.00139418
-4.8316e-09
1.09034e-06
2.64795e-08
0.000750242
-2.88247e-08
-3.44818e-08
-1.39796e-06
-3.93632e-08
-2.08451e-08
-0.00266372
2.25564e-08
1.19033e-08
-2.20823e-07
0.00344634
-2.99226e-06
5.28048e-07
0.000585906
-5.17428e-08
1.22466e-08
0.00379897
-3.99377e-06
1.16742e-08
-8.14134e-09
1.51716e-08
0.00234836
4.29503e-09
-1.39942e-08
2.6266e-10
5.37763e-09
7.98112e-09
0.000100386
-6.57865e-08
-1.60177e-06
-1.40544e-06
2.15632e-07
-1.82074e-05
-1.56551e-07
-4.48817e-08
2.14866e-07
-6.9515e-09
-5.56826e-08
1.11381e-08
-6.56151e-09
-0.00271769
0.000271382
-1.61499e-08
2.28767e-07
-8.06081e-09
2.22181e-08
2.31878e-07
-2.56258e-08
6.48649e-09
-6.61756e-10
0.000658483
4.88621e-07
2.96665e-08
-9.51667e-05
0.00017059
2.4439e-08
1.94374e-08
0.000226802
7.18745e-08
-2.29716e-07
-9.27305e-09
7.13277e-07
2.28979e-09
9.55055e-05
-4.79208e-08
8.04893e-09
-0.000365008
1.9827e-08
5.51372e-08
-2.34178e-08
-3.79319e-09
-2.05534e-07
0.000890942
-3.22042e-05
-5.20654e-09
5.80114e-08
1.48739e-09
-2.30272e-07
2.11763e-08
2.35929e-08
0.00212713
-1.59895e-06
4.96129e-09
-4.15645e-05
0.00551598
-2.66919e-06
0.00106531
2.15857e-08
-2.69649e-08
-3.17866e-06
0.000220535
0.00294255
0.000378487
1.34884e-09
2.33849e-08
0.00380623
0.00256682
7.83918e-08
3.48177e-08
7.97361e-09
9.5475e-08
-3.03659e-08
2.84942e-09
1.17516e-08
3.99037e-07
1.24332e-08
0.00226907
-0.0144543
-1.11041e-08
-3.55301e-09
2.16372e-08
-9.05136e-09
5.88044e-09
-2.45564e-07
-6.12819e-08
-3.5563e-06
-1.45474e-08
-0.00402236
9.35171e-07
-1.49569e-06
-1.14301e-06
-4.48226e-07
2.18425e-08
0.000534947
5.18207e-06
-1.21396e-06
3.83968e-06
-2.5137e-09
-2.97074e-06
2.15055e-08
0.00143227
-3.04656e-08
3.07466e-07
1.11958e-08
1.11099e-08
0.00543675
5.08081e-07
-8.5617e-09
2.60605e-05
0.00506232
-2.49675e-07
2.69747e-08
-1.77538e-08
5.64125e-06
-0.00164947
-1.85592e-08
-3.10288e-07
-3.84942e-08
2.52676e-08
-9.58501e-09
4.74876e-09
0.00259772
-1.98917e-08
1.37461e-08
5.97371e-09
1.1665e-08
-6.29518e-09
3.77671e-07
-7.88981e-09
1.35115e-08
-0.00045705
-9.84937e-07
1.40133e-08
-1.6216e-07
4.36631e-09
2.19659e-08
-6.00967e-07
1.10935e-08
-2.22104e-06
0.00119597
2.3656e-08
0.00340849
5.06367e-08
0.00397032
-2.13487e-09
1.53561e-07
-4.85911e-10
4.58612e-06
0.00148005
3.63747e-07
2.72388e-05
-5.79878e-08
1.96252e-08
8.00996e-06
3.94029e-06
0.00206703
2.25357e-08
-1.09659e-08
-1.98888e-06
-1.89243e-08
3.2895e-09
-5.29222e-09
-3.37245e-07
2.74356e-09
-0.00328228
7.29958e-06
-5.56747e-08
3.96046e-08
-2.06662e-09
0.00194069
-0.00225525
-2.26073e-06
2.53585e-07
2.15807e-05
2.03308e-08
4.08965e-08
2.58242e-08
0.0010005
1.69884e-08
-2.0761e-06
2.28778e-09
-3.49538e-08
-1.11667e-08
-1.72671e-08
-1.59328e-05
2.08641e-06
2.73717e-08
4.61669e-09
2.40133e-07
5.0534e-08
-0.00222465
1.79639e-08
-5.23526e-08
-2.56206e-08
1.78234e-08
4.72225e-10
0.00468074
-4.30847e-09
2.29455e-08
-4.00258e-09
2.15057e-06
-3.30039e-07
0.000984962
1.72085e-08
-2.35706e-05
-1.54361e-06
1.40654e-06
2.05794e-08
1.74545e-05
0.00158021
6.735e-07
-2.51113e-08
1.79384e-08
-3.02973e-08
2.21238e-08
-2.36462e-08
2.53748e-09
2.1867e-08
3.84768e-09
0.00292101
2.586e-07
6.92884e-07
-5.63642e-09
-6.22365e-07
-4.19972e-09
1.19566e-08
-0.00101208
-5.22903e-08
7.89544e-08
-1.24946e-08
1.41896e-06
1.65138e-07
0.000511469
-1.94834e-06
-4.82801e-08
0.000639247
-2.18189e-06
6.57693e-05
-0.000625721
-2.8626e-07
-7.38793e-08
-3.92039e-09
-6.93222e-07
-2.56369e-08
-2.59921e-06
-2.31249e-08
0.00228152
2.69234e-09
2.50598e-08
-0.00372987
-3.26789e-07
2.12977e-07
-0.00337075
4.45245e-07
-0.00267803
3.42375e-09
0.000394527
2.15529e-08
-2.18396e-06
-0.0052693
-0.00382796
-2.77683e-08
1.898e-08
-7.10097e-09
-3.925e-07
0.0132438
-2.35968e-07
6.37598e-08
-1.20005e-09
5.01543e-08
-1.94972e-08
0.000106067
-1.36298e-08
4.9004e-06
-1.62227e-08
-8.82209e-09
2.8328e-05
2.023e-07
1.79091e-05
6.09602e-08
-3.33232e-07
0.00048392
-3.66115e-07
1.04955e-08
0.00271067
-6.03346e-06
0.00563306
6.77434e-06
-2.44377e-09
0.00169813
-5.64306e-05
-8.72728e-08
-3.38588e-08
0.00266894
-3.23048e-08
-7.319e-07
-3.21696e-08
-0.000899272
0.00291358
3.57841e-08
-2.63552e-08
2.61879e-05
1.03485e-09
-4.03291e-07
0.00174289
1.73335e-08
9.36007e-09
1.20471e-08
0.00499169
-1.38915e-08
-3.29857e-08
-1.12073e-06
-2.19353e-06
-2.03579e-08
0.00414491
0.000239912
-1.64271e-07
-2.54695e-09
0.00293618
-1.0433e-08
-7.80738e-09
-9.34116e-09
0.0176093
4.06364e-08
-1.99272e-08
-1.72401e-06
-1.70238e-06
-3.38789e-09
0.00220574
-3.89772e-09
5.75256e-09
1.01554e-08
4.40875e-06
-3.22819e-06
-6.09206e-09
-0.00284327
8.10562e-06
2.50714e-08
-8.91426e-10
2.7576e-06
1.93063e-06
-3.28025e-07
-2.42999e-07
-9.68218e-07
-8.30066e-09
2.35527e-06
-3.56452e-07
0.00059161
1.86317e-06
2.20799e-08
2.92549e-08
-3.27906e-08
5.04889e-08
1.34398e-06
-2.68092e-07
0.00251216
-3.70879e-08
2.26731e-09
-8.41634e-07
-2.35139e-07
2.17029e-08
-2.09872e-06
0.00131684
-6.17204e-09
-9.82784e-09
4.47956e-07
-3.89972e-08
-1.4733e-08
1.44188e-08
4.37406e-07
-5.70735e-08
-3.81474e-08
1.48968e-08
8.69105e-07
1.1951e-08
0.000290567
-9.22593e-09
-3.29634e-08
1.54174e-08
5.773e-08
-2.71549e-09
-6.47425e-05
7.23166e-05
6.26255e-08
-6.37202e-09
-2.33468e-06
2.114e-08
-5.51248e-08
1.86151e-06
4.07553e-08
0.00136823
1.04833e-06
1.87051e-05
-2.21791e-06
-4.82929e-08
4.78776e-05
-5.62277e-08
-1.95597e-06
-5.26407e-09
-3.29555e-06
-1.04243e-08
-0.00154506
-2.37034e-08
-0.00164603
-7.11171e-09
2.99606e-09
9.19253e-07
2.55165e-09
0.00114759
-0.00295689
2.78067e-07
1.83499e-09
-3.11155e-08
-5.00354e-09
4.74268e-06
8.80671e-09
-1.73878e-06
2.86923e-08
-6.7237e-05
-2.29908e-09
-1.66089e-06
0.00061593
9.21096e-09
-2.4771e-08
-1.32301e-08
-1.13478e-06
7.75558e-10
2.75548e-09
-1.40044e-09
-7.94971e-09
-0.00410465
0.000651665
-9.91304e-09
-8.98076e-09
-1.52855e-09
0.00152413
5.68157e-09
-5.9058e-06
-4.93171e-10
-3.15268e-07
-1.77561e-09
-1.41671e-09
0.000160533
8.78384e-10
1.57521e-07
-3.46007e-06
2.78899e-06
-9.37228e-09
1.54384e-05
-1.42334e-06
-4.31378e-07
0.00102275
-3.22335e-09
-9.97045e-09
-7.02418e-09
-3.53689e-08
-1.32635e-07
2.46243e-08
-1.70838e-08
-3.76244e-05
2.18555e-08
1.93906e-09
1.71679e-08
1.27572e-09
1.21907e-08
3.72433e-09
-2.68303e-08
1.13409e-05
-4.21484e-07
0.004305
2.32702e-06
-0.00544927
4.26235e-10
2.99038e-07
1.18922e-08
1.31679e-06
0.000134226
-4.72571e-07
9.46872e-09
-4.03064e-07
-0.00836285
1.94732e-08
-6.11196e-06
0.00260442
0.00112563
-4.43783e-07
-2.94621e-08
1.84935e-08
-1.44657e-11
9.23319e-10
4.14875e-07
2.43564e-08
0.00291671
-8.67969e-09
-6.9946e-09
7.82682e-06
0.00230915
-4.83465e-08
1.12455e-06
2.71762e-09
0.000178466
4.84918e-07
1.50217e-07
2.15211e-08
-1.69523e-07
1.90517e-08
-1.65203e-08
-3.06267e-08
0.00418799
-5.51442e-09
-4.89443e-07
-1.29309e-08
3.47091e-09
1.55888e-05
4.89121e-09
-2.0599e-06
-8.95088e-08
2.23909e-08
0.00242848
-2.8965e-07
4.08031e-07
-3.56386e-08
-7.58127e-09
4.51825e-06
0.00535614
2.77063e-08
-2.49271e-08
-0.00398195
1.70689e-08
9.67331e-07
0.00129783
1.20527e-08
-5.23572e-09
-0.00274589
1.99073e-08
-8.70154e-08
-1.58353e-08
0.00493348
-6.65001e-09
7.04168e-07
1.5154e-08
-2.76656e-08
3.26546e-08
1.40964e-08
0.00611682
-2.14129e-06
-7.99307e-05
2.96933e-08
-7.01314e-05
0.00479836
0.000358977
1.15681e-07
-3.34167e-06
5.08159e-07
1.43392e-08
-9.91435e-07
2.09853e-08
-4.44169e-09
1.58565e-06
-2.55985e-08
-3.97844e-08
0.00142857
-0.00131382
3.48664e-06
-0.00665369
-2.03262e-08
3.22107e-08
-1.34996e-08
-0.00284618
-1.77476e-10
0.00275707
0.00223953
-9.49059e-09
-3.2711e-07
6.93977e-07
-1.1219e-07
0.000240513
0.000605391
1.75658e-08
0.000490933
-5.86074e-09
-1.45572e-07
0.0019804
0.00069
1.46582e-08
-3.63669e-08
0.000328357
0.00105984
-1.75079e-08
-3.59507e-07
5.42549e-06
-3.0923e-07
8.76578e-08
2.1229e-06
8.88831e-05
1.36116e-05
0.000376834
1.35282e-07
5.47337e-08
-0.00693904
-1.3242e-09
-6.51426e-06
-1.64073e-06
4.17691e-09
-0.000259477
0.00428782
-3.71176e-06
-3.82653e-08
4.44488e-08
-1.09495e-08
0.00498951
1.07287e-08
-4.91052e-06
3.43365e-06
-3.17872e-08
-9.04422e-08
1.47244e-07
3.01291e-09
-1.3718e-08
1.22868e-08
2.12999e-06
-1.34741e-06
-0.00420346
0.00497506
0.000623328
0.0010001
-3.04931e-08
-1.23821e-06
2.33205e-05
4.87174e-06
-6.34756e-06
-2.67922e-06
2.97433e-06
0.00325282
-0.0022119
4.425e-06
-1.3707e-06
-4.91441e-08
-1.21374e-08
2.6214e-06
0.00301965
5.34255e-09
-1.40224e-08
-3.71227e-06
-1.29334e-08
-2.11582e-05
-2.95039e-09
1.27196e-08
0.00015912
-3.3195e-05
-4.01912e-08
-4.9766e-08
1.75135e-08
-1.79539e-08
-9.37377e-07
-1.04848e-06
-2.59743e-08
3.12643e-08
-9.78162e-07
-4.72384e-06
1.82643e-08
1.46506e-07
-0.00889053
0.00267049
2.05095e-08
0.00138987
-4.89003e-08
-1.30644e-06
-7.62741e-09
-4.55354e-08
-1.52979e-09
-4.19567e-06
-3.99526e-08
-8.05692e-09
-2.21921e-06
1.60397e-08
2.14944e-08
0.000798795
0.000263985
-2.02378e-06
6.33005e-09
3.02698e-08
-1.21872e-05
-7.59325e-08
-2.98999e-07
0.00224921
0.00249058
-1.38932e-07
3.65061e-09
0.00476954
0.00549431
-3.15213e-07
-2.09115e-06
-9.96189e-09
-3.2153e-07
1.92032e-08
0.00460466
2.34657e-09
-3.44094e-09
1.6923e-06
0.00462102
-2.26598e-07
6.53654e-09
-0.0013329
-4.39589e-06
2.38525e-09
2.27523e-08
-2.86718e-06
-1.0096e-08
-2.27876e-06
9.20026e-05
-3.18102e-08
0.00317392
2.55962e-06
0.00505666
-3.34964e-06
-9.55776e-07
-1.19469e-06
0.00510625
4.75049e-08
-3.01768e-09
3.8544e-08
3.46326e-08
-7.29095e-09
-4.27863e-08
1.95533e-06
-5.20302e-07
-4.29948e-07
4.35226e-09
-1.03078e-08
0.00116398
-2.32043e-06
-3.81335e-09
1.35258e-06
1.00303e-06
1.13217e-05
9.9809e-08
0.0029599
-1.19792e-05
0.0130932
0.000615819
-3.50123e-06
3.51607e-09
0.00520262
2.49786e-07
-3.85607e-07
-1.20755e-07
0.00329228
6.52758e-07
4.68022e-06
-7.52125e-09
-5.65683e-08
-0.000873399
1.09074e-08
-8.87234e-07
-1.12463e-06
0.00036048
4.59023e-06
7.274e-06
2.82411e-08
-1.71351e-08
3.79323e-06
-1.76016e-08
2.29439e-08
-2.17134e-06
9.75181e-09
0.00255496
-1.70053e-06
-1.53389e-07
5.28624e-09
-2.12055e-06
-1.60893e-06
1.21557e-07
0.00124007
1.34077e-07
0.00101495
0.000963995
4.39433e-08
2.18393e-07
-9.32269e-05
0.00302574
5.05251e-09
0.000108462
-4.186e-06
1.04338e-08
1.30567e-08
-2.05375e-06
2.14704e-08
0.00184977
-1.37816e-06
8.35109e-09
0.000311611
4.38072e-08
0.000725126
-4.7595e-09
2.76428e-08
1.75029e-08
-3.186e-07
-6.12096e-06
0.00162026
0.00271726
8.19179e-09
0.00170252
-2.60487e-08
5.44947e-07
-7.2551e-07
5.3278e-07
-3.88101e-09
2.91857e-06
-3.81794e-09
-1.33261e-06
3.27397e-08
-3.7582e-08
3.99645e-08
-2.72918e-09
-1.98596e-07
-3.52317e-08
-2.90925e-07
0.00554971
-2.38843e-08
-3.11395e-08
1.01848e-09
-0.00104432
0.00619128
-7.28765e-08
-1.76446e-06
-3.1442e-09
-4.66837e-09
-5.91839e-06
2.68883e-09
1.25573e-08
-9.81198e-09
8.84174e-09
-2.804e-06
2.8033e-07
-0.000469632
1.05857e-06
-5.696e-06
0.00344306
0.00168264
2.39245e-06
-1.26703e-06
0.00444144
0.0146548
3.05471e-07
3.58923e-05
-1.61877e-08
-0.000591798
0.0021245
4.3155e-09
0.00172128
-3.20659e-08
0.00481113
0.00557131
-3.56587e-06
6.06192e-06
-1.06741e-07
5.84552e-06
1.57801e-08
3.12407e-08
4.0885e-06
2.55008e-09
4.97061e-06
6.40151e-06
-1.46986e-08
5.54071e-09
-2.22604e-06
3.85214e-08
-0.00646168
2.60565e-05
-3.5912e-09
0.00514954
-4.38694e-08
1.19054e-06
-2.24803e-09
6.20627e-08
7.15096e-08
2.89378e-07
-0.00689308
1.18121e-07
9.50916e-05
-3.02326e-06
-1.17027e-08
-3.01943e-08
-3.23966e-06
-1.16095e-06
1.47446e-08
1.6511e-08
-3.29954e-08
6.19945e-10
1.11698e-07
1.74846e-09
-1.12789e-06
-3.40311e-08
-1.64885e-08
5.72887e-07
-0.0043566
-4.17705e-08
0.000773732
2.34597e-08
-0.00326953
1.95286e-08
0.0148856
-7.20773e-06
-2.78575e-07
-6.3635e-05
-3.10365e-08
0.00332404
-1.20061e-06
-6.06602e-08
0.0122952
3.77909e-09
1.02363e-08
-7.63176e-07
-1.71591e-08
1.04535e-06
-3.94869e-07
4.79084e-08
-1.93914e-06
0.00347741
8.504e-09
1.67803e-08
4.67614e-06
0.000925249
-1.0509e-08
0.000547303
2.72386e-09
-2.76879e-08
6.10647e-08
-2.74129e-07
0.000389677
8.63212e-09
0.00520389
2.99365e-07
-5.64061e-08
-6.15972e-06
3.11354e-08
-4.53881e-10
-8.57337e-09
-3.57678e-08
5.62284e-09
3.91045e-08
-1.23378e-08
0.00451698
-9.97724e-07
-5.50355e-08
-1.18891e-06
-0.00316494
0.0264129
0.00139116
5.12148e-07
1.91219e-06
-6.80777e-09
2.7974e-06
-8.13795e-07
1.83515e-07
9.92079e-10
-2.10951e-06
-1.46221e-08
4.24338e-09
0.00523824
-1.88637e-05
1.14624e-08
-1.4425e-08
1.15989e-08
1.50308e-07
-2.46869e-07
-4.17988e-07
-4.51276e-05
-0.00469417
-5.01386e-09
-2.35994e-09
8.60843e-07
1.74648e-08
1.07376e-06
0.000441737
0.000229621
6.24614e-07
4.77625e-06
1.218e-08
9.89493e-05
-3.48533e-09
1.87903e-08
7.68919e-09
5.69934e-06
1.64743e-05
3.36221e-08
2.82799e-06
1.77689e-08
-9.01163e-07
0.0259767
-1.58644e-06
-2.78913e-08
0.00515223
2.39237e-08
3.54699e-08
-2.34161e-08
0.00220334
-2.15832e-06
2.55342e-07
3.69517e-08
-3.61293e-09
0.00247831
1.37563e-08
4.59887e-08
-3.27313e-08
-6.37285e-09
-3.29513e-08
-3.77238e-08
-1.29202e-08
-1.43473e-05
-4.83224e-08
-1.78586e-08
6.39691e-10
0.00437851
-1.38721e-08
1.3001e-08
1.91566e-08
1.10283e-08
0.00155029
0.00553944
-3.32463e-09
-1.95845e-08
-0.00588703
-0.00870233
2.73253e-08
-8.75602e-09
-3.05062e-06
-3.01733e-07
-9.70033e-09
-1.06471e-06
-4.26433e-09
-0.00342392
-1.86635e-08
3.60737e-07
-0.00940941
1.29693e-07
-2.91695e-07
-1.05003e-06
3.45211e-07
5.76578e-06
-1.20661e-08
-0.0109388
2.91054e-08
6.6085e-07
-4.4258e-05
1.04956e-06
4.88746e-09
-0.00272469
4.83728e-06
9.76398e-07
2.11733e-07
-6.71456e-06
-8.47197e-08
-1.67713e-06
-1.73832e-07
-1.06583e-08
7.52487e-08
-1.28581e-06
2.14953e-08
-1.9185e-05
-2.46262e-08
3.30561e-08
-0.00255654
-4.69074e-07
-1.36948e-08
-3.6765e-08
-7.9667e-07
-1.53591e-08
-8.94366e-09
-3.80081e-08
3.4879e-07
0.00321431
1.9017e-06
3.85819e-08
-2.43352e-06
-0.00103354
3.24165e-09
-8.00249e-09
-2.09104e-07
2.5772e-08
-5.10433e-08
0.00133682
1.29933e-05
1.38418e-09
-4.95845e-10
1.52859e-08
0.000167786
1.92533e-08
-2.3956e-06
1.15632e-06
2.67821e-06
-9.26612e-09
-3.4884e-06
2.36278e-06
-0.00915137
-2.2045e-10
-2.74263e-06
2.60129e-08
2.5932e-07
-1.12181e-07
-3.91078e-07
0.00118274
-2.52481e-09
-6.20934e-09
-4.36562e-09
5.88699e-09
-7.56739e-08
9.11969e-09
2.64594e-06
1.21112e-08
2.67204e-08
0.000321027
3.32452e-09
6.47105e-08
0.00087531