/*--------------------------------*- C++ -*----------------------------------*\
| =========                 |                                                 |
| \\      /  F ield         | OpenFOAM: The Open Source CFD Toolbox           |
|  \\    /   O peration     | Version:  v2012                                 |
|   \\  /    A nd           | Website:  www.openfoam.com                      |
|    \\/     M anipulation  |                                                 |
\*---------------------------------------------------------------------------*/
FoamFile
{
    version     2.0;
    format      ascii;
    class       volScalarField;
    location    "200";
    object      ddt0(omega);
}
// * * * * * * * * * * * * * * * * * * * * * * * * * * * * * * * * * * * * * //

dimensions      [0 0 -2 0 0 0 0];


internalField   nonuniform List<scalar> 
54593
(
0.00230823
0.0232955
0.0026237
-0.0012632
-0.00090209
0.00342284
-1.11203e-06
-0.000254664
-0.00175505
-2.58751e-05
6.40733e-07
0.0897419
-1.10737e-06
1.96103e-06
-0.0449323
2.70037e-06
-0.0631449
-1.65585e-06
2.93145e-06
0.0244287
2.21482e-05
2.75744e-06
0.0210831
-1.5962e-06
-4.66663e-06
-6.37028e-05
0.0156077
-0.00611898
0.00234788
-1.71588e-05
-0.0245153
-0.434036
3.50952e-07
-0.00963296
-1.78419e-06
4.6099e-07
-7.10884e-05
-0.00851785
0.189107
-0.55044
-0.0199974
3.91889e-06
-7.97295e-07
-1.32726e-06
-1.06713e-06
2.91597e-05
-9.833e-07
0.0232737
-0.00711744
3.24687e-06
-1.09402e-06
-2.73633e-06
-1.56986e-06
-3.22218e-05
2.89151e-06
8.19231e-07
-0.000313115
3.31028e-06
0.00938052
-3.427e-05
0.177143
-3.22119e-06
-9.45334e-06
-3.9229e-06
-0.0531621
-0.418956
1.04108e-06
-0.0082683
-3.11803e-06
-9.41211e-07
-0.0656028
-1.82379e-06
-3.19613e-05
2.88476e-07
1.95445e-06
-8.17379e-07
-0.197065
7.03639e-06
-0.0170978
-8.26323e-05
-1.12716e-06
9.82377e-07
-0.0639884
0.00862246
6.78324e-07
1.2077e-06
0.0482357
2.44517e-05
1.5562e-06
0.00122382
1.42042e-06
6.83101e-07
-0.00711935
7.74532e-07
-0.0495061
-3.96608e-05
-8.49406e-05
-9.39046e-06
-5.55762e-07
-4.89004e-07
0.000781995
0.00752976
-3.52901e-06
0.00817464
-0.120358
-0.00906523
-1.67169e-06
-0.0004867
1.65761e-07
-1.02151e-06
1.6602e-06
6.85651e-06
-0.0309181
-0.000110735
0.0290755
3.84745e-07
-1.55862e-06
3.4897e-05
-0.0514156
-0.000575037
1.96106e-06
0.00720827
-5.95534e-05
0.000817298
1.70782e-06
-0.0671688
-2.74674e-06
-0.000317624
-0.0199631
-1.43273e-06
8.7068e-06
-2.36552e-05
1.68525e-06
-7.50369e-05
-1.2155e-06
-1.89821e-06
-8.5928e-05
-0.0115152
2.17681e-07
-0.472037
4.04347e-07
-2.26874e-05
-1.05356e-06
-0.119125
7.6774e-07
-5.89734e-05
4.33816e-06
1.01237e-05
-1.17886e-06
-0.064748
-2.45361e-07
-1.04278
4.77161e-07
-6.64044e-07
-1.40217e-05
0.0292457
0.00106893
0.0250569
0.0115674
-8.85395e-06
0.00311366
-0.000516848
0.0142609
-4.32469e-07
0.0490259
6.14778e-06
3.84353e-05
2.21316e-06
-6.47771e-07
1.61676e-06
-0.0208652
6.4586e-08
-7.70517e-07
0.000121429
8.50023e-06
-1.11655e-06
-0.000866175
-0.000108011
-0.119295
-4.82468e-07
-1.14692e-06
2.62261e-05
-0.0384328
-0.000858343
0.0153724
-3.77716e-07
0.147962
-2.82284e-06
-8.40461e-05
-9.96899e-07
-0.0834886
0.0104215
3.75834e-06
0.0794434
0.0061732
3.38634e-06
3.25812e-06
-2.82735e-08
0.00563042
2.3765e-05
0.0260818
-0.00649714
5.68078e-06
-0.000287529
0.0261933
1.41627e-06
-1.48879e-05
-0.000308743
4.0124e-06
0.118244
6.18198e-07
0.146735
-2.79866e-05
-0.975865
-4.77862e-07
-3.06621e-05
-1.74198e-06
-0.000466623
4.14373e-07
-4.54963e-07
-1.52432e-05
-0.0249085
-1.5264e-06
0.159176
-0.0641103
0.00646952
-2.25807e-05
0.0354633
-0.0004662
-0.0240364
-0.0587083
1.17042e-07
1.3672e-05
2.02145e-05
-2.67456e-05
-6.64016e-07
7.27469e-07
-0.0271063
0.00554461
6.68981e-07
4.44575e-07
-1.50436e-06
6.16315e-07
4.39184e-07
2.37885e-06
-2.02002e-06
-0.00609176
0.0059987
-2.81566e-05
-4.53975e-06
0.0073409
-2.63081e-07
-0.000444816
3.67598e-07
-0.514592
2.06774e-06
0.0162572
0.0292015
0.00597453
-6.26369e-07
3.1586e-06
4.96032e-07
-0.0015026
-0.220867
-0.00765284
-0.00185093
3.99478e-07
0.000179717
-1.08285e-06
6.58112e-07
-0.0313527
0.00126923
-1.36726e-06
0.00253272
0.00610998
0.775687
6.62259e-07
6.32743e-07
-0.000275114
-1.71771e-06
-5.63814e-07
-3.2418e-05
-3.58958e-05
-0.000263613
-0.0102805
0.405139
-0.000284113
-2.31394e-05
0.00574256
-3.6025e-08
-3.48365e-05
-0.378784
-0.0017106
0.00512291
0.000636456
1.32975e-06
-0.00250222
-2.67415e-06
-3.08353e-05
0.129424
-0.00083175
-0.000268407
0.02519
0.00736626
0.000617002
0.00527033
-0.000208211
0.0200429
0.0363915
0.010174
-2.89879e-06
0.440679
0.00016077
-0.127693
0.136021
-0.00103256
-0.00828703
-2.73494e-05
-0.00141028
-2.79114e-06
-0.0475778
-0.000703977
1.00634e-06
-0.00113999
-2.00402e-06
-0.0479647
1.60492e-05
0.0181257
1.24589e-06
0.0202973
0.00231482
-9.46334e-07
0.144412
0.0019188
-8.928e-05
-1.50192e-08
-1.70099e-05
0.102852
-4.06074e-05
3.3406e-06
-0.000514327
-0.133221
-0.0713063
3.45991e-06
-3.03137e-07
-0.108038
-2.49562e-06
-0.0169413
-0.000317199
1.77442e-07
-0.0344105
9.20885e-07
0.172317
-8.4609e-06
-0.00083111
-0.00134559
-9.70862e-05
-0.00527639
-0.0015057
-0.000337769
0.0484493
0.0238451
0.0201417
-2.41735e-06
0.0852452
-0.000683179
7.07699e-05
1.26331e-07
-2.43138e-06
0.000662597
3.98408e-05
0.00674691
0.0643787
-0.000144464
1.62957e-05
-0.00088621
-0.00195097
9.72947e-06
0.0417265
0.695596
-0.000289857
0.0003941
0.0481485
-0.00011453
-0.588857
-2.91727e-05
-0.000306722
-0.000336106
4.03447e-05
8.04084e-09
-2.02691e-05
0.0019101
0.0616416
0.00118265
1.77494e-06
-4.7198e-07
-7.49505e-05
-3.14672e-07
-0.000124484
-3.00668e-05
0.0289594
-6.08251e-07
1.42272e-06
-8.80768e-05
0.00122121
-0.000152341
-0.00139655
-0.00106183
-0.0212831
-0.000153177
8.71978e-07
-0.0132489
-0.10375
-0.000360929
2.41885e-07
-3.05183e-07
-0.036642
0.0332832
0.000284362
-1.64594e-05
0.0226367
-8.81013e-06
1.67984e-06
-0.199982
-0.000165682
-0.00325037
0.98959
-1.11896e-06
-3.42604e-05
9.56061e-07
0.000501087
0.273963
0.0604366
3.96572e-05
0.0556269
7.67515e-07
2.51993e-06
0.000899232
0.105652
-0.000628341
0.00118995
1.03181e-05
-0.0129409
-5.93908e-06
0.00182741
8.84419e-05
0.000670427
0.000643678
0.211526
-0.0805363
-0.000685004
-0.000147788
-0.000289434
5.49844e-07
-3.16315e-06
-2.8979e-05
-0.000169707
-0.0735327
-8.60463e-06
0.000181499
0.206101
5.52424e-07
6.43632e-07
0.000248988
-9.55922e-05
0.022653
-0.000218707
-0.117801
-5.64772e-07
-9.23092e-07
0.00153532
-0.000277092
0.0945622
0.000672177
-0.000732427
0.000154009
0.0548838
-8.28248e-06
-0.00028124
0.00144837
-3.56245e-06
0.749756
0.00111099
-0.000912003
-0.0930921
0.235758
-0.00465417
0.000118389
-1.98883e-07
-4.726e-05
-0.000140801
-0.0442419
0.00553854
4.55088e-05
-0.115774
-0.0413619
-0.00651805
-8.44651e-05
-0.000185751
-4.89898e-07
1.66681e-07
1.00984
-6.48158e-06
-5.03502e-07
-5.6838e-09
-2.91966e-07
0.000409417
1.51521e-06
0.00834427
0.401333
4.07545e-06
1.6166e-06
1.48361e-06
1.84912e-06
-4.16618e-08
3.13431e-05
1.67334e-06
0.000115632
0.000673435
-0.000186735
-0.000301395
-0.113043
-0.119539
-0.000306769
-0.801891
-0.000419855
-0.0454054
1.02673e-06
-1.38285e-06
-1.65425e-07
5.09164e-05
0.000517285
1.42147e-06
0.240304
0.0304427
0.000319645
-0.438541
1.65908e-05
0.145701
-0.0966271
3.62253e-07
-0.00222187
-8.15177e-07
-0.00135636
2.9137e-06
-5.19403e-07
-0.00162317
-9.74029e-06
-0.000202583
1.29397e-05
-0.00130752
-4.37843e-05
-1.22464e-06
0.00185087
-0.000118349
4.85417e-07
0.000500601
-0.144579
3.09414e-05
-0.000263813
0.105154
-3.46423e-07
0.0291503
0.000260603
0.0365888
-0.000289336
-0.00221136
-0.0194019
-0.00564986
-2.72632e-05
-5.11796e-06
0.00448267
1.81279e-06
3.18131e-05
-0.090425
4.60977e-06
-9.88351e-05
3.95405e-06
-0.000284099
1.70243e-06
1.5608e-06
9.2704e-07
-0.0454223
0.00158808
-4.13892e-07
-0.0570251
3.14512e-06
0.11866
0.109251
0.000398625
0.00776926
0.000584859
0.00159232
-0.000531752
-0.000665834
-0.0032729
-0.00140387
0.228639
-9.84264e-08
-4.11259e-05
0.0187169
-0.012958
-7.48056e-06
-5.61229e-07
-0.0437105
-2.43439e-06
-0.198631
-3.80501e-06
-0.220606
0.000666673
-0.00183254
2.07111e-06
-0.00445585
1.13455e-05
3.57142e-05
-0.0137846
-2.42094e-07
-0.00160234
-0.0156151
0.205204
1.12915e-05
1.59488e-06
0.000716746
0.320144
-5.27586e-07
0.176495
2.43397e-05
1.83436e-06
1.58101e-06
-0.0399423
0.000643694
-2.11896e-05
1.55196e-06
-2.26818e-06
-3.17496e-07
0.219137
1.38511e-05
-0.000115482
1.69961e-06
0.00574695
-0.0903368
-0.00621889
1.20115e-05
7.77787e-05
0.0859789
-0.00948887
1.20817e-05
0.0475539
3.90309e-05
0.00607272
-0.0861034
4.17591e-06
9.11782e-07
-2.98198e-06
-2.24634e-07
-0.000321408
1.21881e-05
0.00214934
0.0241572
0.00626254
1.43087e-05
0.220713
1.22222
-7.29908e-06
1.9764e-06
1.23388e-05
-1.31308e-05
5.57633e-05
-0.0243625
-0.135876
0.000453993
0.00171522
0.000523315
-0.000460881
-0.00183545
-0.117069
0.00271348
-0.0477351
0.251755
-0.000717607
-0.250937
-3.8197e-07
0.832987
0.0850076
-7.53516e-06
0.0366127
-2.14716e-05
-0.000210414
0.0490968
2.28634e-05
-0.000119562
-2.87093e-06
-0.000762939
-0.0614525
0.000244999
-0.111118
0.00520638
0.0006638
0.000434766
-6.67505e-07
0.000274215
-1.1617e-05
0.1257
-0.000128935
0.187436
7.25847e-07
-0.158948
-0.0046805
-2.2232e-06
3.70368e-07
0.173368
-0.00230091
-0.000308162
0.0535834
3.51073e-07
1.10917e-05
-6.98153e-07
-0.000335688
-0.000113763
-2.48247e-07
1.07495e-06
-0.000114977
-0.108855
-2.15672e-06
-0.00122422
-0.00110894
0.00994613
-4.27657e-06
-0.000733698
-0.00174965
-1.31269e-07
0.246769
-0.103757
6.62947e-07
0.000103578
2.32233e-06
9.01197e-05
-0.0116265
-2.91411e-07
0.00134303
-0.00313531
0.288646
-0.0178838
-0.101816
-5.78686e-07
0.659384
1.03806e-08
5.80077e-05
0.246012
4.73249e-07
1.15564e-05
-0.000881212
-8.86872e-06
-0.002318
9.77663e-07
0.548513
0.0552784
0.000463461
7.12846e-07
-3.22063e-05
-0.00186672
0.00127835
0.00857688
0.000121099
6.82741e-06
4.10865e-06
-0.0273893
-0.00196792
-5.55012e-07
-0.0465956
-0.00025303
-0.245065
-1.0711
5.37392e-06
5.23769e-05
7.78818e-06
-9.88699e-06
0.000209412
-0.000305074
-0.00010093
-1.64849e-06
5.00424e-06
6.35596e-06
-0.0265398
-0.757517
-0.000756281
0.00107737
-0.00124395
0.000941199
-5.41531e-05
1.3874e-05
-0.000434739
-0.000107088
-2.47681e-05
0.000281331
1.42734e-05
0.000248061
-4.00022e-06
0.269998
1.1323
0.000225249
-0.00372257
0.000488282
-1.91272e-06
-0.0006858
0.139682
-4.07022e-05
-4.95708e-06
0.0612388
-0.100559
0.0112581
-0.00115553
0.979719
-0.169089
0.003557
0.0543053
3.96489e-06
-7.77894e-06
-0.00969912
-4.8823e-07
-0.0470825
0.000114152
-0.101509
-1.4465e-06
-5.90584e-07
-0.0148848
-3.06268e-05
0.000269124
0.00011029
0.000410826
-2.03489e-06
0.00123245
-5.69122e-07
-1.32005e-06
-0.116224
0.0072001
0.0334316
0.00017377
0.00544918
-0.0818159
-0.00129631
1.06687e-05
0.0286823
-0.0584883
-0.0114668
-0.122495
0.000123681
-0.000195022
-5.24677e-06
-3.2828e-06
0.0722025
4.10148e-06
-0.124158
0.8669
0.171065
-0.0350694
-0.00032138
-1.35872e-06
4.95321e-07
-0.128368
5.49167e-07
0.000261408
4.23406e-06
-3.54205e-06
1.6319e-07
-0.0577749
0.00499027
0.0072361
0.128581
-0.000318512
3.87923e-06
-8.07629e-06
6.10802e-05
-4.79066e-07
0.0916387
-0.0433565
-0.0117376
0.00011118
-0.120257
-3.96909e-06
-1.00917e-05
-4.49069e-05
0.0780279
0.0131251
-4.03967e-07
-0.000527338
4.69632e-06
6.88928e-07
-0.176938
-0.000162054
-1.20221e-06
0.191828
-3.26058e-07
-0.0025679
5.76053e-06
-0.000210244
-7.03987e-05
9.06106e-07
-4.0571e-06
0.000193813
0.120351
-0.011857
9.8626e-06
-2.09507e-05
-2.0576e-06
-3.14785e-07
0.000166284
-3.29219e-05
-3.45107e-05
-0.000311614
-0.0261717
-0.0647267
0.000235615
8.83412e-07
4.44414e-06
0.00311637
-5.75203e-07
1.92689e-06
-0.000304077
-0.0680686
0.000136762
-0.116579
-7.15192e-06
-0.0585681
0.000211863
0.138829
-0.0607507
1.24782e-07
3.26174e-07
-3.4192e-05
-5.62142e-06
-7.63968e-06
0.0160844
1.40722e-05
-4.04724e-06
-0.0107878
-4.06862e-06
0.0150898
5.06187e-07
2.00103e-06
-4.20317e-06
1.04782e-05
0.00729009
3.27842e-05
0.286908
9.66886e-05
-1.1041e-07
-3.44461e-06
-0.000398112
2.73449e-06
-1.26344e-06
1.37302
-0.00130912
-0.0933037
6.49942e-06
0.250561
-3.4994e-06
1.7924e-06
-0.000337394
-0.0002588
0.0225445
0.0234532
3.95489e-06
-1.75812e-05
0.000314535
0.000596353
-7.11672e-06
0.00382971
1.09399e-06
0.0240679
1.2074e-06
-6.19341e-05
3.45497e-05
-3.26285e-05
0.772209
0.02366
0.1349
0.012425
5.23571e-06
-0.000582706
2.1429e-06
0.40861
-0.00935369
-3.07485e-05
-8.90933e-06
-0.000160396
2.66661e-07
-2.98645e-06
3.4627e-07
3.67503e-05
7.10661e-05
-2.29709e-06
-1.23133e-06
-4.80538e-08
-0.101625
0.0321835
-3.45202e-05
-0.00303338
1.99903e-07
0.000505282
1.92446e-06
0.150168
-7.15929e-06
0.000622651
-3.95078e-07
-0.000292382
1.28985
0.0509132
-1.18541e-05
6.11549e-06
-0.00173806
-3.84326e-07
-0.0503364
0.00107588
1.76247e-06
0.399348
-0.00101282
-3.48769e-06
-9.95825e-05
1.41886e-06
-9.12033e-07
0.00886021
-0.000492397
0.675564
6.0518e-06
0.00778532
-0.0189635
-3.48327e-06
-6.97068e-06
-0.00114051
2.90215e-07
2.40436e-06
-0.000112316
0.000386058
-4.83508e-06
-6.92339e-06
-3.37628e-06
0.757421
-5.77723e-06
6.20207e-06
0.103402
-0.000414491
-6.67217e-05
-0.000271106
0.220329
-1.20014e-05
-0.000345213
0.10566
7.70257e-05
0.0395076
1.77022e-06
-0.000564563
1.0486e-05
0.00562632
0.0103058
-0.00449391
-0.08281
1.14973e-05
0.143144
0.0109859
-2.79035e-06
6.61517e-07
-3.66785e-07
-2.27987e-06
-6.35348e-05
0.00227138
5.12868e-06
-6.221e-07
-3.92321e-07
0.656407
8.91323e-05
0.153061
-4.36216e-06
0.00733526
0.259154
1.87075e-06
-0.00343562
-2.01773e-06
3.49574e-06
2.80124e-06
-0.00112556
0.542769
-0.0409807
5.15055e-07
-3.20174e-06
3.41626e-05
0.00225867
5.28428e-07
4.3035e-05
0.00154928
3.25012e-05
-0.049791
-5.59273e-07
1.04523e-05
0.000396448
0.00185198
0.242443
0.021428
-2.84908e-06
0.0222085
-2.19298e-05
-4.1598e-06
-9.89043e-07
-0.00839307
-3.36917e-06
0.0347465
2.24613e-06
-5.28312e-06
4.00314e-06
6.61775e-07
-1.89575e-06
2.58275e-07
1.1676e-05
1.61763e-05
-7.64746e-06
-0.0320614
3.30747e-06
1.98516e-06
-3.79101e-06
3.41944e-06
0.00284607
-4.16491e-05
-0.00146143
-2.98893e-07
1.54695e-06
0.0178495
-3.59483e-06
-0.000111461
-1.00828e-06
1.90357e-07
-2.94193e-06
-0.000432727
-0.000207201
-0.00127849
3.50566e-05
-9.39392e-08
0.00112467
-2.93282e-06
0.00191297
0.11513
-3.11151e-06
-3.72895e-06
6.96512e-07
0.000144781
-0.000216495
0.000195535
1.37691e-05
1.10794e-06
-3.98721e-06
-0.000161739
6.36447e-06
3.67614e-05
-1.06734e-05
3.24238e-06
0.344793
0.00188008
0.00803336
4.85617e-06
-5.98085e-07
0.00462933
-1.79768e-06
-0.000517096
4.12304e-08
0.32057
0.922736
1.31636e-05
-0.000377524
9.6166e-06
0.00617056
2.23726e-06
-0.00653539
-0.000518588
0.0684044
-7.67141e-05
3.26135e-06
8.85013e-07
-1.65574e-07
1.77768e-06
9.69468e-07
-4.88706e-07
4.15047e-06
0.00549545
-0.000296689
4.4163e-05
-0.000460027
-3.2377e-05
-0.000293985
3.73689e-05
1.04231e-05
-0.000733128
-1.43301e-06
0.0521088
-0.000235395
0.000120721
-1.03747e-06
8.13484e-07
4.8607e-05
-0.261603
2.73079e-06
1.21037e-05
-5.63058e-06
-3.11753e-06
3.30507e-06
0.000139661
-0.00011427
1.81079e-06
6.52364e-05
4.24416e-06
-1.59754e-06
-0.578956
1.13381e-06
0.000118189
0.00245061
0.000117806
1.38606
-1.9661e-06
2.91526e-05
1.21309e-05
-0.109897
-4.4325e-05
-1.00544e-06
0.0312873
1.59852e-06
1.56843e-05
1.1492e-06
5.39569e-06
1.31854e-05
-0.00507804
0.0567711
-0.000329198
-0.00013102
-1.36042e-07
0.000192187
1.66352e-06
0.0843471
-3.74337e-06
0.002248
3.21215e-05
-0.0616429
-3.70127e-07
-0.000291386
4.87049e-06
0.0455709
1.3215e-05
5.09926e-07
0.0041293
-2.96423e-06
-1.26035e-06
-0.056842
2.01185e-06
9.9989e-07
-0.000278611
0.157331
-0.000533903
-0.00033314
0.0332452
-4.3338e-06
2.69991e-06
1.07243
-0.00101366
9.8512e-07
1.04428e-05
1.16259e-06
-0.0529134
-3.31251e-06
-1.11244e-06
3.00851e-08
8.60962e-07
1.4961e-06
0.00295449
-5.74995e-06
-0.00055577
-0.000148921
3.82171e-06
-0.00571571
-1.10251e-06
1.03997e-05
-0.000565175
1.03371e-05
8.18038e-05
8.48687e-07
-4.51892e-07
-0.0647564
0.0915286
-1.26989e-06
6.91469e-06
-5.98745e-07
1.68156e-06
4.35158e-06
4.54204e-06
-4.44608e-06
-3.10053e-08
-0.0636829
5.35249e-05
5.82798e-07
0.011394
0.0320063
4.08768e-06
4.48607e-06
0.0813455
-0.000223819
-0.000132308
-6.94746e-07
5.03268e-05
2.99521e-07
-0.0963958
1.02451e-05
6.22644e-07
0.00482254
4.51843e-06
5.00849e-07
2.30896e-05
-3.11973e-05
-1.39659e-05
0.17129
-0.00652637
-3.94447e-07
6.46909e-07
5.61757e-07
-0.000276118
6.12967e-06
-6.36917e-08
-0.0320666
-0.00131584
3.83481e-07
-0.00487719
0.109618
-0.000923598
0.200866
1.67289e-06
5.58749e-06
-0.000649944
0.536509
0.347986
0.0893129
-3.87863e-06
-3.61856e-06
0.104967
0.0725851
-1.75098e-06
4.81444e-06
6.13261e-07
-8.53613e-07
-2.47972e-06
2.14104e-07
9.08363e-07
3.02805e-05
9.49573e-07
-0.0521342
-0.319565
-8.4688e-07
-7.61505e-06
4.1962e-06
-1.00345e-06
-4.56727e-06
6.53441e-05
9.83942e-06
-0.00072399
2.59682e-06
-0.150183
0.0022272
-0.000119216
0.000403878
-0.00111752
1.65499e-06
0.0183203
0.00190791
0.000381496
-0.00103316
-3.20165e-05
-0.00401857
1.62176e-06
0.0750426
-2.33997e-06
0.000118827
8.54656e-07
8.44623e-07
0.11208
3.71009e-05
-6.3378e-07
0.104427
-0.00835967
-2.62802e-05
1.4241e-05
-1.25372e-06
0.00194864
-0.0710835
-7.5005e-06
-5.37406e-06
1.51367e-06
4.16467e-06
-7.05649e-07
3.77825e-07
0.241603
2.57288e-05
7.20568e-07
7.99646e-07
8.94903e-07
3.89209e-06
2.63183e-05
-3.90828e-07
1.79325e-06
0.21552
-4.10387e-05
8.35384e-07
-2.27399e-05
1.3879e-07
-7.06858e-06
-0.00122094
8.52708e-07
-0.00178589
-0.0664584
1.84866e-06
-0.0887473
3.9728e-06
-0.0331827
-7.52007e-06
-0.000595216
1.55832e-05
-0.000962373
-0.0686994
2.58774e-05
0.0107727
-4.99022e-06
1.71351e-06
0.351182
-0.000705022
-0.0773159
4.35007e-06
-5.60466e-06
-0.000341591
1.36839e-05
1.58668e-05
-4.30226e-07
-0.000180591
3.24215e-06
0.0487965
0.00206591
1.50589e-05
3.76756e-06
-6.34899e-07
-0.0173865
-0.0530635
-0.000649558
9.53552e-05
0.00553484
1.60463e-06
3.75971e-06
2.05948e-06
0.0182399
-6.02658e-06
-0.000918314
6.84238e-07
-2.64639e-06
-7.21756e-06
-7.2496e-06
-0.00366554
0.00022902
2.04324e-06
2.26688e-07
0.000102166
4.05907e-06
-0.81868
2.68341e-06
-1.58953e-05
-2.24904e-06
2.69101e-06
4.84048e-08
-0.0203414
-3.40522e-07
4.10589e-06
-3.01443e-07
-0.0066844
-2.80514e-05
0.00991308
1.22952e-06
-0.00510058
-0.0012074
0.000660366
1.54289e-06
0.00540961
0.278592
-0.000112392
-1.90729e-06
-4.95186e-06
-2.36059e-06
1.70341e-06
2.47747e-06
6.25756e-07
1.65775e-06
-2.68736e-07
0.0129731
1.12718e-05
-0.000354801
-4.24963e-07
-0.000214392
1.26999e-05
2.23826e-06
0.201194
-4.83126e-06
-0.000264467
-2.78143e-05
0.000431928
-0.000129482
0.0301944
-0.00033711
-7.08951e-06
0.0744986
-0.0008389
-0.0933439
-0.0109621
-2.87357e-05
-1.09391e-05
-2.18251e-07
-0.000262785
-1.88908e-06
-0.00405385
-4.8418e-05
-0.108269
-9.48728e-06
2.01363e-06
-0.103541
-6.78795e-05
2.56398e-05
-1.23046
0.000188733
-0.112045
4.33104e-06
0.0157425
1.68859e-06
-0.000972585
-0.0810341
-1.16853
-1.17186e-05
5.1624e-07
-4.95526e-07
-0.000668004
0.138749
-0.000285958
1.96375e-06
1.09556e-05
4.09597e-06
1.87236e-05
0.0528203
-1.01503e-06
-0.00135532
-1.22607e-06
-6.31886e-07
0.0160652
-0.000105948
0.00559787
7.18113e-06
-1.50477e-05
0.197779
-2.9828e-05
-9.66473e-07
-0.0791833
0.00658372
1.09569
0.00152922
1.1202e-05
0.0055708
-0.138012
-9.08021e-06
-2.6768e-06
0.193493
-2.42055e-06
-4.18138e-06
-2.55079e-06
-0.00530432
0.226561
4.50165e-06
-1.98401e-06
0.00566236
5.33259e-07
-2.34545e-05
0.00250194
1.35171e-06
6.90788e-07
5.00836e-07
-0.0141228
-1.14202e-06
-2.5619e-06
-0.000285125
-0.000864225
1.26148e-05
0.00455565
0.0738394
-2.26226e-06
7.47579e-08
0.201348
-1.45001e-05
-5.61409e-07
-2.00674e-05
0.575716
4.61474e-06
2.02832e-05
-0.000309827
-0.00107278
-2.63438e-07
-0.0353809
-3.31846e-05
9.27421e-07
2.36597e-06
0.000441417
0.000429099
-4.46039e-07
-0.0320742
0.0486135
5.50387e-06
-7.27837e-08
0.000756376
-0.00557896
-0.000427914
-0.000649087
-0.000106432
-6.01902e-07
-0.000153179
-0.000464797
0.0796904
0.000186853
4.02723e-06
5.60052e-06
-4.12199e-08
4.03758e-06
0.000661946
-0.000642507
0.0663463
-1.97355e-06
1.00648e-05
-6.0816e-05
-0.000285457
1.4748e-05
-0.000447357
-0.128744
-4.46327e-06
-7.61301e-07
9.15955e-05
-2.33224e-06
-1.37889e-06
2.34041e-06
3.2585e-05
1.42534e-05
-2.91361e-06
1.49061e-06
0.00639445
7.13114e-07
0.266364
-4.35117e-06
-2.61789e-06
1.15141e-06
3.34182e-06
1.26423e-05
-0.0124315
0.245832
3.22629e-06
-4.70498e-07
0.000441434
4.08423e-06
-4.17396e-06
0.000177633
5.7728e-06
-0.127154
-0.000517606
0.00514232
-0.000655199
1.18589e-05
0.169236
8.81252e-06
-0.00128243
-4.02751e-07
0.000863017
-1.79528e-06
-0.0605999
-1.80126e-06
-0.0608734
-5.33508e-07
3.73331e-07
0.00088343
1.07585e-06
0.234318
-0.102352
0.0015896
1.51211e-07
9.52237e-06
-3.73488e-07
-0.00160704
6.90151e-07
-0.000262724
-3.69176e-06
-0.0442638
-1.76419e-07
-0.00126253
-0.0616397
3.92855e-06
-4.90719e-05
-3.05216e-05
-7.25236e-05
-4.52734e-07
-0.000301607
-1.24686e-07
-5.88905e-07
0.137457
-0.0686049
-7.57495e-07
-6.71227e-07
-1.03557e-07
0.183489
-4.19066e-06
0.00451299
3.74474e-06
-1.42564e-05
-1.07993e-06
1.11328e-06
-0.11879
3.70181e-07
3.04289e-05
0.000366748
-0.00461474
-1.10125e-06
0.00418408
-0.00011401
-0.000675133
-0.0893434
-3.05313e-07
-7.31811e-07
-7.66908e-07
1.0081e-05
-2.02456e-05
0.000119309
1.65322e-05
-0.00153002
1.6789e-06
1.39203e-07
2.65179e-06
2.60024e-07
9.3629e-07
2.3918e-07
1.39105e-05
4.05501e-05
-8.47869e-05
0.0231282
0.0049499
-0.271909
3.57311e-08
1.54613e-05
-6.37036e-06
-0.000240495
0.0980158
-0.000123661
9.64254e-07
-1.14877e-05
-0.46021
-0.00027608
0.00651259
-0.109921
0.00954985
-2.44717e-05
1.34947e-05
1.18312e-05
-9.71412e-09
7.10922e-08
4.20667e-05
-2.25934e-06
0.0188575
-6.32933e-07
-5.3873e-07
0.0418559
-0.077829
1.11568e-05
0.00019864
1.98545e-07
0.0712502
7.93613e-05
2.83237e-05
2.78528e-06
-2.43058e-06
-9.72813e-06
2.70516e-06
-4.04104e-06
0.0126421
-4.21389e-07
-0.000348813
-2.8862e-06
2.36218e-07
0.0624864
3.877e-07
-0.000935646
9.97766e-06
1.66381e-06
-0.103134
-0.000160115
-0.000297783
-5.95953e-06
-5.68342e-07
-0.00106508
0.287946
-2.004e-06
-6.24606e-05
-0.687982
1.28461e-06
0.000176392
0.0206059
-2.31843e-05
-3.62454e-07
0.121296
1.76503e-06
0.00535008
-1.19603e-06
-0.0164212
-5.03822e-07
0.000109821
1.14437e-06
-6.48407e-05
4.35687e-06
1.44566e-05
0.479704
-0.00032102
-0.0583325
2.24876e-06
-0.0571035
0.017356
0.128503
9.31327e-06
0.000135188
9.02825e-05
2.2627e-06
0.00335004
1.5795e-06
-1.66291e-06
0.00011672
1.83509e-06
-3.06656e-06
0.01196
-0.0169857
-0.000569337
-0.157689
7.73918e-06
4.52983e-06
-2.00754e-06
-0.220077
1.00794e-05
0.0328586
0.719193
-7.91321e-07
-1.40195e-05
-0.000144425
-8.76421e-06
0.579307
-0.0636965
1.41621e-06
0.0215593
-4.63795e-07
-0.00322872
0.0107843
0.0298312
1.24086e-06
-5.99681e-06
-0.257636
-0.00253454
-1.3901e-06
-2.10412e-05
0.00195893
-5.01032e-06
7.34059e-06
0.00023564
0.0469078
0.00183195
-0.11984
-1.36585e-07
4.01151e-06
-0.142039
-1.00294e-07
0.00777287
-0.000836824
1.19054e-07
-0.12233
0.315138
0.00452572
-3.85523e-06
3.75685e-06
-8.06681e-07
0.308531
1.44823e-05
0.000975895
-0.000286292
1.35361e-05
9.70993e-06
-4.76738e-05
1.61591e-06
-1.70353e-06
1.9085e-06
0.00497754
-0.00116166
-0.316219
0.149645
-0.0683856
-0.00250453
-4.44391e-06
-0.000334516
0.00879574
0.000377504
0.00671084
-0.00142169
0.000359956
-0.0922654
-0.244992
-0.000539235
0.00349746
-3.28758e-07
-9.09217e-07
0.000333148
-0.0706837
4.01182e-07
-3.21462e-06
0.00511389
-9.60532e-07
-0.00926645
-2.27479e-07
1.95392e-06
-0.253762
-0.0136295
1.03518e-05
-4.22345e-06
2.6087e-06
1.05732e-05
-6.57507e-05
-0.000401694
1.32776e-06
7.8863e-05
-0.00120301
0.000853374
-1.33404e-05
9.12892e-05
-0.206172
-0.107503
1.54406e-06
0.0163043
7.09558e-07
-8.85746e-05
-5.66064e-07
-8.29474e-06
1.06182e-05
-0.00202801
-8.84079e-06
-6.0315e-07
0.000490082
1.08315e-06
1.60735e-06
0.0322281
0.632296
0.00135524
-7.19532e-05
2.26276e-06
-0.00467744
-4.58276e-06
-1.18069e-05
-0.082451
0.00395781
-1.94398e-05
3.07884e-07
-0.0208104
0.142712
-4.91049e-05
-0.000350075
-7.58124e-07
-7.17693e-06
0.00012943
0.145184
2.08108e-08
-3.61636e-07
0.000157376
0.168822
0.0042159
4.97312e-07
-0.358459
-0.00195346
1.91533e-07
4.28724e-06
6.24666e-05
-2.822e-06
-0.000147517
-0.113095
9.14147e-06
0.220329
-0.000184672
-0.00127167
-0.00388078
-0.000170956
-9.29345e-05
0.00544596
5.07114e-06
-2.33438e-07
-3.95716e-06
4.98165e-06
-5.47979e-07
1.00608e-05
0.000230106
-7.57045e-05
-4.05425e-05
9.55013e-07
-7.64438e-07
-0.00157886
0.00043455
-2.91471e-07
0.000108822
8.36013e-05
0.0637825
7.3566e-06
-0.0462069
-0.00311978
0.162689
-0.0547798
-0.000302233
7.57409e-07
1.21028
4.41553e-05
-2.04624e-05
-8.96e-06
-0.231096
-3.87349e-05
-0.00331884
-5.47936e-07
-6.0889e-06
-0.0320104
1.69919e-06
0.000129654
-0.0013584
0.123347
0.000528043
0.00243423
-3.48245e-06
-1.31573e-06
0.0423566
-2.93109e-06
-1.83417e-05
-0.000700219
8.33741e-06
-0.0901572
-9.56824e-05
1.08888e-06
4.23022e-07
-0.00364305
-0.000868077
-4.06981e-07
-0.0459865
5.36464e-07
0.861437
0.00236679
3.00171e-06
-0.0007452
-0.0201898
0.0836287
4.14158e-07
0.0579797
-0.00189197
8.35631e-06
1.80607e-06
0.000757341
1.69766e-06
-0.0436873
-0.00154987
6.44337e-07
0.0538681
3.17713e-06
0.204465
-3.43423e-07
2.13778e-06
4.03562e-06
-4.83446e-05
-0.00383834
-0.00103055
0.120033
6.32443e-07
-0.0397024
6.39276e-06
-7.83396e-05
-0.00135679
4.181e-05
-3.01146e-07
0.000809035
-3.03823e-07
-0.000659212
2.46176e-06
9.84125e-06
2.75505e-05
-2.18876e-07
9.29573e-05
1.30751e-05
-1.64825e-05
0.13635
-1.95334e-06
-2.3486e-06
7.04197e-08
-0.0490905
0.272756
-4.24431e-06
-0.000647928
-1.82512e-05
9.8063e-06
0.0118825
2.27332e-05
-2.19801e-05
-4.21215e-06
-1.39202e-05
-0.00251245
4.82717e-05
-0.0228115
-0.00766763
0.00942564
-0.0893106
0.00136741
0.000329481
-9.88899e-05
-0.0413631
0.162795
2.29945e-05
0.0272828
-1.21145e-06
-0.00841303
-0.0522192
-7.05492e-05
-0.0522831
-2.64542e-06
-0.016706
0.108552
0.00395209
0.000674137
-4.79909e-06
0.0021837
-5.51184e-06
2.56842e-06
0.000822584
-1.56895e-05
-0.00157761
0.00241004
3.73353e-06
4.39562e-07
-0.00114911
5.31932e-06
-0.360305
0.0237776
-2.05974e-06
0.0038128
-1.01691e-05
8.20598e-05
-3.84052e-07
1.88865e-05
9.90732e-06
2.01019e-05
-0.48216
1.0292e-05
0.0476268
3.57954e-05
-8.09654e-07
-2.2883e-06
-0.000461438
-0.000942577
-1.51675e-06
-2.09385e-05
1.36453e-05
5.16553e-07
1.04008e-05
3.33825e-07
-0.000950777
-2.71687e-06
7.27069e-06
-8.9997e-05
-1.20327
-3.20305e-06
-0.0571509
1.88399e-06
0.115084
1.46025e-06
0.0665529
-0.0039267
-1.48416e-05
-0.00398881
-2.3581e-06
-0.09251
-0.000974264
-6.62981e-06
0.0151834
2.14821e-08
7.75714e-07
-0.000556887
-1.26021e-06
7.55264e-05
-2.01879e-05
5.22657e-06
0.00135515
0.092528
6.57615e-07
1.23089e-06
-0.00134089
-0.0758939
-7.70408e-07
-0.107752
2.17749e-07
-2.08459e-06
-3.50025e-06
-4.31485e-06
0.0293047
6.60373e-07
0.0666688
4.40317e-05
-6.16997e-06
0.00646251
-3.2506e-06
-5.57639e-08
-6.71481e-07
-2.79579e-06
6.37761e-06
5.2514e-06
-4.4386e-06
-0.0355056
-2.6223e-05
-5.59484e-06
-0.000379451
-0.653104
0.898616
-0.00311399
3.2563e-05
0.000585492
-5.10625e-07
0.000382315
-0.00017929
2.22821e-05
7.26919e-08
-0.000123469
-1.11072e-06
-9.49712e-08
0.0973412
-0.0134429
-6.01763e-06
-1.15867e-06
8.90671e-07
1.01829e-06
-2.6439e-05
-2.3993e-05
0.0146637
-0.143802
-3.67734e-07
-1.68079e-05
-9.4305e-05
2.73035e-06
0.000476483
0.10096
0.0277863
0.000812566
-0.00199661
9.32581e-07
-0.0171947
-2.66534e-07
1.82224e-06
8.65625e-06
0.00184019
0.00121549
2.53642e-06
-0.00024165
1.43293e-06
0.0043895
0.750967
-0.00151225
-2.11972e-06
0.0308135
5.45542e-06
6.37493e-07
-1.73132e-06
-0.118979
-0.00111915
3.88254e-05
4.97262e-06
-2.6837e-07
0.147275
2.18219e-06
5.25804e-06
-2.63062e-06
-7.81499e-07
9.48078e-06
1.20779e-05
1.22453e-05
-0.00205936
-9.62583e-06
4.49928e-06
3.50222e-08
-0.0271083
-1.04947e-06
9.87701e-07
4.6671e-06
8.59957e-07
0.00518769
0.09939
-2.85562e-07
-4.24777e-05
0.026478
-0.170364
2.05325e-06
-7.83343e-05
-0.000138243
-1.776e-05
-9.29358e-07
-0.00094609
4.25277e-06
-0.0615451
-1.41748e-06
5.84691e-05
-0.209456
2.77279e-06
-1.1183e-05
-7.74284e-05
0.000142744
0.00117997
-7.7739e-06
-2.5641
0.000234387
-0.000275384
-0.0163624
-0.000408092
6.14189e-07
-0.0504637
0.000404599
0.000288923
-0.000556002
0.00551322
8.78542e-05
-2.656e-05
-0.00110972
-8.19108e-07
2.0619e-05
-0.00115866
1.83628e-06
-0.00384299
-4.9645e-05
0.000135845
-0.116787
-3.03293e-05
-9.69397e-07
1.27231e-05
4.72459e-05
-1.1602e-06
-7.61695e-05
-4.65048e-06
0.000145597
0.213478
0.000193024
1.06872e-05
-0.000890871
-0.00415995
-4.00604e-06
-6.07329e-07
-7.22115e-06
1.93376e-06
1.16522e-05
0.0116254
0.00135729
1.00967e-05
-6.41754e-08
1.86199e-06
0.0975569
1.43484e-06
-0.00106325
7.70347e-05
0.000210483
-4.22314e-06
-0.00107092
-0.00469966
-0.211949
1.56107e-05
-0.000514617
2.01003e-06
6.39999e-06
-1.35425e-05
-7.46263e-05
0.022601
-1.80886e-07
9.70842e-06
-1.11446e-05
4.57539e-06
7.93989e-05
7.03088e-07
0.000349169
9.28101e-07
5.57266e-06
0.0906226
-3.39838e-06
4.59609e-06
0.0592884
0.019039
0.000124183
-8.96642e-07
5.75861e-06
1.70467e-06
0.123073
-1.04084e-06
1.9267e-06
9.61652e-06
-4.13329e-06
-2.6205e-05
4.2789e-06
-0.00189216
-0.00093063
-0.000583858
4.83874e-06
5.08807e-06
4.60827e-05
-2.67231
-6.04851e-05
0.000880758
-0.0854235
-0.00287082
4.63552e-06
0.000253707
7.26986e-05
2.92419e-06
-3.0413e-05
1.09934e-06
3.3922e-05
-2.41568e-06
-2.10167e-05
-0.0630199
-0.0165843
0.000888159
-0.000634806
0.070402
-4.59362e-06
1.16497e-06
1.76896e-06
-0.00043708
0.0358315
0.000658604
0.955981
1.36953e-05
9.62887e-08
-1.19652e-05
-3.72569e-07
-7.78906e-06
7.37955e-07
3.29032e-05
8.19633e-06
1.84919e-07
5.28437e-06
8.0684e-05
-8.11239e-05
-0.0255157
0.611257
4.03088e-06
1.53966e-08
-6.47065e-06
0.00252511
2.93557e-07
6.51432e-05
-0.0139779
-2.12578e-06
3.20526e-07
-0.00021488
-2.73342e-06
0.0118473
-2.68652e-07
-0.000423239
-0.00060428
-1.95063e-05
-0.0335043
3.33052e-06
4.18784e-06
1.52882e-05
3.60005e-06
-0.00363723
0.00796126
7.07335e-06
0.00255088
9.38612e-05
-4.41591e-08
-7.7043e-07
-2.05113e-06
-2.383e-05
-4.67689e-06
-0.0312664
-0.215241
0.00425729
-5.55264e-07
4.93094e-08
3.36266e-07
-9.16036e-07
0.000655891
-0.00442412