/*--------------------------------*- C++ -*----------------------------------*\
| =========                 |                                                 |
| \\      /  F ield         | OpenFOAM: The Open Source CFD Toolbox           |
|  \\    /   O peration     | Version:  v2012                                 |
|   \\  /    A nd           | Website:  www.openfoam.com                      |
|    \\/     M anipulation  |                                                 |
\*---------------------------------------------------------------------------*/
FoamFile
{
    version     2.0;
    format      ascii;
    class       volVectorField;
    location    "200";
    object      ddtCorrDdt0(U);
}
// * * * * * * * * * * * * * * * * * * * * * * * * * * * * * * * * * * * * * //

dimensions      [0 1 -2 0 0 0 0];


internalField   nonuniform List<vector> 
54593
(
(-0.00239876 0.0130221 4.80493e-22)
(0.0149558 -0.00563113 4.1643e-22)
(-0.00154062 0.0146953 -8.1585e-22)
(0.00635111 0.00460287 2.66235e-21)
(-0.0189022 0.0103591 1.62848e-22)
(-0.00459359 0.012931 -5.53103e-23)
(-5.04951e-05 4.5038e-05 5.259e-22)
(0.00915583 -0.000271853 -9.69837e-22)
(-0.0109976 0.0179549 9.68168e-22)
(-0.000557736 0.000224134 2.65368e-25)
(-2.6369e-05 6.78527e-06 1.19236e-21)
(0.0224209 0.00253715 1.87971e-21)
(-3.50795e-05 -3.2071e-08 0)
(-2.86452e-05 8.9291e-06 0)
(-0.0123599 0.00179086 -1.05706e-22)
(-1.25637e-05 4.19158e-05 3.59171e-22)
(0.00554495 -0.00662341 2.15398e-23)
(-8.5367e-05 -7.35187e-08 0)
(-1.02407e-05 3.59076e-05 -3.64399e-22)
(0.00511232 -0.0141503 0)
(-0.000526159 0.000826226 -1.23557e-21)
(-0.000203303 0.000375905 1.67511e-22)
(-0.00360724 -0.0133346 -9.5916e-23)
(3.77267e-05 -0.000317118 0)
(-0.000101303 -8.38094e-05 -5.40374e-22)
(-0.00043952 0.000518484 9.58179e-22)
(-0.0121789 -0.177371 5.36073e-22)
(-0.0100571 0.00184257 0)
(-0.0155129 -0.0362423 -4.85056e-23)
(-8.30473e-05 0.00106385 4.09219e-22)
(-0.0160933 0.0557364 0)
(-0.0589625 0.0243975 -4.45262e-22)
(-2.90442e-05 -2.43609e-05 -3.45838e-24)
(0.075729 0.0636665 1.31893e-20)
(-4.7659e-05 -1.24718e-05 8.85703e-23)
(8.67763e-05 -0.000243273 -4.99674e-22)
(-0.000332318 0.000636645 -1.60726e-21)
(0.0120082 -0.0706941 2.13342e-21)
(-0.0816915 -0.0596711 -4.91913e-21)
(-0.0264902 0.00775157 2.278e-22)
(0.0952449 0.0430516 3.20827e-21)
(-4.23682e-05 -1.66484e-07 0)
(-8.92594e-05 -7.41883e-05 -5.50629e-24)
(-7.48403e-05 9.09394e-05 8.61118e-22)
(-5.35948e-05 1.88056e-05 5.62701e-22)
(9.13946e-06 0.00187964 2.23207e-21)
(-4.87489e-05 5.81447e-05 2.2818e-22)
(-0.00416407 -0.176829 0)
(0.0177355 -0.0759424 -2.2475e-21)
(-0.00019403 0.00039061 4.0024e-22)
(-5.3219e-05 1.59701e-05 -4.6573e-22)
(-0.000143128 4.03006e-05 0)
(-0.000535797 -0.000129236 0)
(-0.000274125 0.000469531 2.13116e-21)
(-0.000782392 -0.000239093 -1.3008e-21)
(-2.31918e-05 4.61313e-06 1.50764e-21)
(0.00876514 -0.000371325 1.02197e-21)
(-8.85613e-05 0.000174058 4.78846e-22)
(-0.0738404 0.016556 0)
(-0.00103788 0.000640535 2.98642e-22)
(-0.0824215 -0.0533862 -1.70149e-21)
(-0.000147696 0.0001485 -1.84098e-21)
(-0.000450437 -0.000119401 2.07521e-21)
(-0.0001528 0.000130104 0)
(-0.00179887 -0.00543529 2.93845e-21)
(-0.0249189 0.0195291 -1.14365e-21)
(-2.58324e-05 5.96366e-06 0)
(0.0149857 0.0102985 3.85304e-21)
(-0.00014179 1.76778e-05 0)
(-4.90774e-05 4.98908e-05 -8.51356e-22)
(-0.000530398 -0.00622638 1.50125e-21)
(-7.29202e-05 -2.8772e-05 3.29566e-23)
(-0.00028515 0.000455354 -1.09522e-21)
(-2.99994e-05 -2.36844e-05 -1.62268e-23)
(-2.16067e-05 -3.09684e-05 0)
(-4.63943e-05 6.17366e-05 0)
(-0.073488 -0.21491 -1.47199e-21)
(-6.04351e-05 3.39179e-05 2.12891e-21)
(0.0897365 0.0462976 0)
(-0.0003825 0.000627652 0)
(5.35664e-05 -0.000291466 0)
(-5.97681e-05 3.05765e-06 0)
(-0.000764231 -0.00611405 2.44567e-21)
(0.0138927 0.00652253 -3.59302e-21)
(-6.52416e-05 -5.19098e-05 0)
(-2.86726e-05 0.000147178 -7.19125e-22)
(0.0101053 -0.0124822 -3.30567e-22)
(-0.000611496 0.000843339 1.23029e-21)
(-2.14037e-05 0.000152158 4.96362e-22)
(0.0132264 0.00168384 6.56776e-21)
(-3.19613e-05 -8.96392e-05 -2.52463e-22)
(0.000101233 -0.00021872 4.72559e-22)
(0.00582824 0.00249161 3.3326e-21)
(-5.88467e-05 6.31442e-06 0)
(-0.0196125 -0.241078 1.48527e-21)
(-0.000725661 0.00036735 8.53583e-22)
(0.000671776 -0.00325051 -2.96973e-21)
(-0.00029809 -0.000298846 5.41185e-22)
(-8.66008e-05 -7.53245e-05 -1.25575e-21)
(-4.10253e-05 -5.47201e-05 0)
(0.0214295 -0.0862843 0)
(-0.00598898 0.00859754 0)
(-0.000153531 0.000139268 0)
(0.00229254 -0.0133241 0)
(-0.0247488 -3.97787e-05 1.92837e-22)
(-0.0309302 0.0412115 0)
(-7.1841e-05 -3.43673e-05 2.34699e-22)
(0.000172729 0.00173063 -2.28939e-21)
(-3.40753e-05 -2.56573e-05 2.44781e-22)
(-9.05232e-05 -6.38329e-05 1.13167e-21)
(-2.45367e-05 -0.000106482 7.05399e-23)
(-6.0329e-05 3.14623e-05 -1.64577e-21)
(-0.00188693 -0.00477945 0)
(0.00510732 -0.00677692 -5.45373e-22)
(-0.00355451 -0.18339 -2.61954e-21)
(-2.08416e-05 4.30175e-06 0)
(-8.50708e-05 -6.11754e-06 0)
(-0.000312391 0.00178995 -4.16415e-22)
(-0.0224073 -0.0023112 -2.52229e-22)
(0.0228771 -0.066575 0)
(0.000175249 -0.000136448 1.43065e-21)
(0.00284651 -0.0123708 0)
(-0.000437478 0.000511598 2.38424e-21)
(-0.0375698 0.0123872 8.35328e-22)
(-0.000672379 0.000300434 -3.47287e-21)
(0.00612365 -0.00682069 1.27365e-21)
(-8.67705e-05 2.949e-05 6.51348e-24)
(0.00663555 -0.000383351 -1.6377e-23)
(0.0146731 0.0118279 3.90377e-21)
(-2.76655e-05 8.32049e-05 -6.31548e-22)
(-4.54945e-05 0.00011201 2.25811e-21)
(-0.000673981 -0.00115726 1.27972e-21)
(-2.90203e-05 -7.27784e-05 0)
(0.00259675 0.00559566 0)
(-7.53374e-05 9.45781e-05 0)
(-4.74839e-05 -8.39121e-06 3.95984e-23)
(-0.000621413 0.000594456 2.9646e-21)
(-0.0305059 0.0433879 0)
(-0.000638218 0.000283286 1.46439e-21)
(0.0975429 0.0595049 0)
(-2.26909e-05 2.87508e-06 -8.03805e-22)
(-0.000823035 0.00043614 1.45514e-22)
(-8.68043e-05 -5.45657e-05 0)
(-0.000673209 -0.00942848 1.81219e-21)
(-6.33256e-05 -5.123e-05 -8.80462e-22)
(0.00232578 0.00535936 1.82762e-21)
(0.000160014 -0.000988947 -1.5101e-21)
(-0.000186415 -0.000628884 0)
(-9.15568e-05 -5.86266e-05 0)
(0.00518335 -0.00671432 2.14485e-23)
(5.51359e-05 0.000895355 3.83774e-22)
(-0.105457 0.0242225 0)
(-8.35919e-05 -0.000168337 7.72853e-22)
(-6.15824e-05 0.000125402 2.48295e-22)
(-0.000175485 0.000309378 0)
(0.0105242 -0.0119365 6.49884e-22)
(0.0129581 0.00216434 -5.07178e-21)
(0.00320596 -0.175546 1.38547e-21)
(0.0115832 -0.00737742 -1.85638e-22)
(-0.000284752 -0.000275201 -5.36404e-22)
(0.0027452 -0.00775054 -9.43419e-23)
(-0.000182283 -0.000991692 0)
(0.0126378 0.00466322 0)
(-5.24609e-05 -2.30204e-05 0)
(0.00578033 -0.014398 2.05649e-22)
(-6.42643e-05 2.43397e-05 1.64195e-21)
(-0.000395166 0.0016713 0)
(-2.32082e-05 -6.75325e-05 -1.14397e-22)
(-2.48642e-05 4.74649e-05 1.95501e-21)
(-2.40272e-05 -0.000111493 -2.73023e-22)
(0.0294686 0.0683372 9.13995e-23)
(-5.15319e-05 4.1332e-06 3.07015e-23)
(0.000162148 0.000864034 0)
(-0.00345988 0.000768221 1.03787e-21)
(-4.88753e-05 0.000108943 -1.50451e-21)
(-8.77991e-05 -4.96565e-05 -5.32329e-22)
(-0.00261253 0.00882613 -9.19246e-22)
(0.00361175 0.00264229 0)
(-0.000990818 -0.00962319 -2.22029e-21)
(-5.28447e-05 -2.3823e-05 3.7676e-22)
(-4.46516e-05 -3.84489e-05 -2.54915e-22)
(-0.00153672 -0.00111418 -4.64351e-23)
(0.0215598 0.0244739 -2.57837e-21)
(0.0123331 0.00263876 4.18944e-22)
(0.0109558 -0.00891751 7.21378e-22)
(-2.92918e-05 -1.09005e-06 1.33952e-22)
(-0.0518956 -0.11377 -4.95477e-21)
(-0.000118551 -7.92372e-05 3.64235e-22)
(0.000495661 -0.00348562 2.37694e-21)
(-3.37706e-05 1.39423e-07 1.16086e-22)
(0.0311059 0.110817 1.85076e-22)
(0.00168363 -0.013476 1.80947e-21)
(-4.38716e-05 -2.77324e-07 5.1586e-22)
(-0.0122931 0.19001 -1.23462e-23)
(0.0108988 -0.00761194 2.51983e-21)
(-8.77105e-05 0.000168247 9.21521e-22)
(-3.84541e-05 -3.4314e-06 -1.10261e-23)
(-0.00169155 -0.0010844 1.59533e-21)
(0.011577 -0.00669692 1.87968e-23)
(-0.00139357 -0.00132677 5.83053e-24)
(0.0142372 0.0829736 1.12648e-21)
(-0.00921883 0.000673089 2.0184e-22)
(-5.29811e-05 -4.11959e-06 -1.01154e-21)
(-0.00027382 0.000998488 -5.78014e-22)
(0.00161363 -0.00248275 2.69265e-21)
(-0.000754846 0.000272238 1.4877e-21)
(-0.000375969 -0.000195132 -1.84905e-22)
(-0.000228307 0.00102877 3.2175e-24)
(-2.15367e-05 1.03041e-06 9.5212e-22)
(-0.0454242 -0.110198 0)
(-2.20991e-05 -2.32534e-06 0)
(0.0225416 0.00161832 -1.26534e-21)
(-0.00190222 0.00121002 0)
(-0.0954427 0.0313822 -7.20468e-21)
(-1.73403e-05 3.79634e-06 0)
(0.00223368 0.00351644 0)
(-0.000307036 -0.000129201 1.40896e-21)
(0.000241718 0.0149508 1.55512e-22)
(-2.61139e-05 -1.96923e-05 2.71651e-23)
(-1.78559e-05 3.60724e-06 0)
(-0.000384566 -0.000119244 1.42274e-22)
(0.0307899 0.0638715 1.61764e-20)
(-7.09925e-05 -4.31861e-05 -1.35463e-21)
(-0.0760802 -0.0630943 1.65138e-21)
(0.0203412 -0.0010745 -3.03908e-22)
(0.0166946 -0.000243193 4.32089e-21)
(-0.000639117 -0.00107076 1.49212e-21)
(0.0102533 0.0912353 9.62839e-21)
(0.0118632 -0.00712716 -2.38258e-21)
(0.0159869 0.0139968 -3.98636e-21)
(-0.0948196 0.049717 -2.66094e-21)
(-3.50335e-05 -2.68747e-05 -2.00787e-22)
(0.000434716 0.000123385 -1.32525e-21)
(-0.000485326 0.000762354 9.90194e-22)
(-0.000577489 0.000228242 1.60091e-21)
(-2.4428e-05 4.78098e-05 0)
(-0.000722835 0.000254304 1.52939e-21)
(0.0216205 -0.0246801 -1.14058e-21)
(0.0110647 -0.00721815 -2.42097e-21)
(-5.34285e-05 1.00389e-06 0)
(-2.44343e-05 -1.74008e-05 -3.17893e-23)
(-6.07848e-05 2.55821e-06 -8.61315e-22)
(-6.38413e-05 -4.64016e-05 -3.94381e-22)
(-2.38674e-05 -1.48189e-05 -6.04891e-23)
(-0.000765695 -0.000191742 2.10088e-21)
(-7.39268e-05 1.68484e-06 0)
(-0.0138482 -0.00669329 0)
(-0.0144038 -0.150561 0)
(-0.000902479 0.00113626 -1.32139e-23)
(-0.000111135 -8.96213e-05 0)
(0.0137588 -0.00612926 3.56804e-21)
(-3.0004e-05 -1.76707e-06 -1.2401e-22)
(8.12833e-05 0.0016926 1.5926e-21)
(-2.1325e-05 2.16599e-06 -4.55096e-23)
(0.10568 0.0433611 6.92544e-22)
(-2.71401e-05 1.13494e-05 0)
(0.0105109 -0.0769106 0)
(0.0140569 0.0845454 -9.21529e-21)
(0.0172046 0.000932194 8.05496e-22)
(-5.98681e-05 5.21843e-05 -1.24112e-21)
(0.000123056 -6.37956e-05 0)
(-2.16154e-05 4.4027e-06 -3.46776e-23)
(0.00388672 0.0106332 -2.59514e-21)
(-0.143122 -0.113787 -3.0773e-21)
(-0.028979 0.0311113 7.23229e-23)
(-0.0148257 0.0175718 -2.03064e-22)
(-2.74993e-05 -2.22567e-05 3.37042e-24)
(-0.00516893 -0.00108775 0)
(-7.68086e-05 -0.000260325 -9.89305e-22)
(-2.57893e-05 -2.82771e-06 0)
(-0.0317399 0.0484539 -1.48266e-21)
(-0.0208212 -0.14179 4.2666e-21)
(-6.92854e-05 -4.80109e-05 1.04856e-21)
(0.0177069 0.0172165 1.04795e-21)
(0.0132474 -0.00573813 5.9381e-22)
(-0.147371 -0.1576 0)
(-7.54186e-05 -0.000169693 2.14852e-21)
(-2.18088e-05 -2.53147e-06 0)
(-0.0015253 0.00300926 -3.02713e-22)
(-2.48834e-05 0.000103499 -6.22078e-22)
(-5.98618e-05 5.44271e-05 1.97888e-21)
(-0.0012692 -0.00079805 0)
(-0.000793788 0.00125877 4.60435e-22)
(-0.000309583 0.000880165 5.91354e-22)
(-0.00459498 -0.00319121 0)
(-0.0411202 -0.0624028 -7.57391e-22)
(-0.00026553 0.000843825 -1.66175e-23)
(-0.0013782 -0.00372635 1.82293e-21)
(0.00923801 -0.00858225 0)
(-8.93277e-05 -0.000172891 -2.31387e-21)
(-0.00103171 0.000812928 0)
(0.103706 0.0566058 0)
(0.004347 0.0237241 -2.63696e-21)
(0.0102218 0.00441692 1.04757e-22)
(-0.0115321 -0.00496629 -1.26388e-21)
(-6.38298e-05 0.000112954 -1.80003e-21)
(-0.014935 0.00355253 9.22469e-23)
(-8.57993e-05 3.21698e-05 0)
(-0.00123784 -0.00348839 -3.79591e-22)
(0.0312967 0.00177594 -4.85833e-22)
(-0.00320976 0.0101446 1.88095e-21)
(-0.0105422 0.00808329 0)
(0.0082923 -0.0129457 1.19479e-21)
(-0.0319825 0.0353554 6.83207e-22)
(-0.0224772 -0.00932045 -1.65957e-22)
(0.00874764 -0.00842842 0)
(-0.0137523 -0.00682143 4.83553e-22)
(-0.00743443 -0.00282938 1.80287e-21)
(-0.178133 -0.0372038 0)
(0.0110011 0.00384574 0)
(-0.000544342 -0.000199632 5.76329e-24)
(-0.0508267 -0.057967 -2.00609e-23)
(-0.00480092 -0.00134199 0)
(0.00221906 -0.0101264 0)
(0.00909362 -0.0137242 0)
(0.0136134 0.00446388 -2.06136e-22)
(-0.00468354 -0.00319445 0)
(0.00120116 -0.00142718 1.59795e-21)
(0.00619304 0.0101735 0)
(-0.000117248 -7.20415e-05 1.09069e-21)
(0.0206515 0.0257739 2.61768e-21)
(0.000490808 -0.000276142 0)
(-6.02997e-05 -4.96793e-05 1.76073e-21)
(0.0147695 0.00476787 -1.49698e-21)
(-7.45547e-05 -4.58742e-06 0)
(0.0192719 0.124764 0)
(0.000524 0.000470715 0)
(-0.0383541 0.0337331 0)
(-1.96555e-05 5.54952e-05 5.9826e-23)
(-0.00305 -0.0155928 -6.54094e-24)
(0.0168055 0.017602 0)
(-4.34586e-05 -4.11849e-05 2.56594e-22)
(0.0324732 -0.00229684 -3.50602e-22)
(-0.00528263 0.0114012 0)
(-0.00037923 0.00063942 -5.41533e-23)
(-8.18906e-05 -8.01878e-05 -7.97193e-23)
(0.000157607 -0.00106564 -5.60204e-22)
(0.0161227 -0.0169033 -2.51168e-23)
(0.00233693 0.00468971 -1.9328e-21)
(0.000158622 -2.60841e-05 7.09272e-22)
(0.0125136 -0.00634629 2.64341e-22)
(0.0833504 0.122013 -4.07031e-22)
(0.00566722 -0.00695955 2.15314e-23)
(0.000164418 1.18598e-05 3.56182e-22)
(-5.40923e-05 -3.98511e-06 4.50294e-22)
(-0.00237315 -0.0110305 2.17961e-22)
(-0.000113221 -7.73429e-05 -1.37951e-21)
(-0.0407863 0.0377599 8.89942e-22)
(0.00645356 -0.00082389 0)
(-5.71349e-05 -1.418e-06 -9.71727e-23)
(-0.0321478 -0.075941 6.91645e-22)
(-1.80704e-06 -1.11501e-06 0)
(0.0801833 -0.0554286 -4.87844e-22)
(-0.00026411 -0.000281896 5.23801e-22)
(0.0134662 0.00274203 -4.54608e-22)
(-0.0154941 0.0165323 2.60783e-22)
(0.00150818 -0.00267461 0)
(-0.0138834 -0.00739675 -5.05737e-22)
(0.00364449 0.0223 6.19341e-21)
(-0.00617259 0.00669103 -3.25129e-24)
(0.0229988 0.015815 -4.40505e-22)
(0.00953604 -0.0116947 -1.20178e-21)
(-0.0072874 -0.00293882 -1.67337e-21)
(-7.95529e-05 0.000119337 1.23e-22)
(0.0163256 -0.01263 4.2321e-23)
(0.000409378 -0.000209492 9.16275e-22)
(-0.00105298 -0.00303385 -1.63469e-22)
(-1.99983e-05 -1.29507e-05 -3.61582e-23)
(-8.10407e-05 3.32085e-05 2.0853e-21)
(-0.021495 -0.0101913 2.19306e-23)
(-0.000590651 0.00162927 0)
(-0.0154403 -0.16982 -3.75794e-21)
(0.0251322 0.020069 0)
(-0.0054276 0.00418441 0)
(0.000489018 0.000464886 -2.61181e-21)
(-0.00320401 0.00958663 -1.56736e-21)
(-0.00987515 0.0207535 2.23808e-22)
(-0.000196583 -0.00066368 1.83065e-21)
(0.00875057 -0.013462 0)
(0.125248 0.0383241 0)
(-0.00307183 0.00454591 1.14866e-21)
(-0.0314013 -0.0166217 3.52261e-22)
(0.000875235 -0.00905215 0)
(-0.0108798 0.00857315 0)
(-0.0587522 0.0266031 -2.99891e-22)
(-0.00195835 0.00130179 2.60847e-21)
(-0.000243035 0.00107444 0)
(-0.00824284 0.00729613 1.8966e-21)
(-0.00691731 0.00234582 9.45904e-22)
(-5.59626e-05 0.000135616 -2.46497e-22)
(-0.00150837 -0.00319205 -1.45759e-21)
(-0.0206583 -0.0078782 -1.08766e-21)
(0.0258233 0.0131319 0)
(-0.0181495 -6.30752e-05 -3.88523e-22)
(-2.82449e-05 -7.45949e-05 0)
(-5.68187e-05 2.79677e-05 1.07083e-21)
(-0.000337817 0.000640892 1.89831e-21)
(-5.8465e-05 2.23101e-05 -1.82409e-21)
(-0.000426748 -0.00182928 0)
(-0.001338 -0.00301006 -1.20359e-21)
(0.0145147 -0.00748664 -4.47661e-22)
(-3.81886e-05 5.1464e-05 -2.15606e-22)
(-2.76148e-05 0.000119649 -2.92295e-22)
(-0.00062485 0.000615273 0)
(-0.0182778 -0.00164426 3.04707e-22)
(-0.000361369 0.000737925 0)
(0.00621563 0.00959176 1.82594e-22)
(0.0093623 0.0123112 0)
(-0.00784915 -0.0872548 4.61523e-23)
(0.00584911 -0.00563466 0)
(-6.74958e-05 0.000117636 8.18144e-23)
(-0.00359558 -0.0833665 4.86732e-23)
(0.00902529 -0.00739827 -5.55376e-22)
(-0.00349128 -0.00203834 0)
(-2.53941e-05 1.91508e-05 1.42049e-22)
(-3.74852e-05 -8.28984e-07 -4.63868e-23)
(-0.00190369 -0.00495567 0)
(0.00120212 -0.00209591 6.38108e-22)
(-0.0127426 0.00339337 3.16352e-22)
(0.000203815 -0.00095785 2.48347e-22)
(0.00725332 0.100136 4.17139e-21)
(3.89639e-05 0.00104683 -2.29291e-22)
(0.000161433 -0.00017321 -2.74974e-22)
(0.01244 0.0614038 3.5853e-21)
(0.00515139 -0.000344131 0)
(-0.0140908 0.00717906 -7.99734e-23)
(0.0206304 0.00310794 -2.8339e-21)
(-9.90434e-06 -3.36858e-05 -7.78645e-25)
(-0.004507 0.00370052 0)
(-6.71077e-05 0.000117972 0)
(-0.0312369 -0.0188791 -3.44455e-22)
(0.0488225 -0.0425254 0)
(-0.0152782 -0.0102466 2.71896e-21)
(-0.00067143 0.00150728 6.09074e-22)
(0.0218041 0.023786 1.80536e-22)
(-3.18866e-05 -6.31251e-05 9.33785e-23)
(-4.15388e-05 3.34151e-06 2.68049e-22)
(0.00890556 0.00212218 -1.75535e-22)
(-0.0123875 -0.00837563 0)
(-0.00277162 0.00791218 3.3712e-23)
(0.00589819 -0.00595811 3.61146e-21)
(-3.40877e-05 -1.19345e-06 0)
(0.00725427 -0.249348 -1.37224e-21)
(-0.000698704 -5.72777e-05 0)
(-0.01385 -0.0076067 0)
(-0.00163696 0.00884079 1.777e-21)
(0.00872851 0.00324471 -1.79703e-22)
(-0.01139 0.000473387 4.18482e-21)
(-0.00627083 -0.0164476 8.7417e-22)
(-0.00523489 -0.00351717 -2.53279e-21)
(-0.00266042 0.00733784 0)
(-0.00532189 0.00496668 2.32499e-24)
(-0.000259882 0.000960849 1.7857e-21)
(-2.17025e-05 -4.18941e-06 0)
(-0.068528 0.02301 0)
(-0.00459397 0.00305648 0)
(0.00529941 0.000123026 -7.16762e-24)
(-0.0348924 0.0504225 0)
(-0.000466353 -5.00793e-05 6.14874e-22)
(0.000933049 -0.00199772 2.36927e-23)
(-0.00580343 -0.0165957 2.30468e-21)
(-2.15172e-05 -1.68896e-06 0)
(-4.91647e-05 -2.23362e-06 0)
(0.00125127 -0.00211297 -1.91299e-23)
(0.00300323 -0.00135928 -9.29996e-22)
(-0.029397 -0.0204848 -1.65326e-21)
(-0.001698 0.00289742 -5.85051e-22)
(-0.00120711 -0.00926836 0)
(-5.47501e-05 7.42055e-05 -1.6202e-21)
(-8.48991e-05 -4.71062e-05 2.56921e-21)
(0.00599145 -0.00644903 0)
(0.00626229 -0.00494807 0)
(0.0214332 -0.00105451 2.06447e-21)
(-0.0111303 -0.000367848 -2.09738e-21)
(0.0138647 -0.00484094 -2.41689e-21)
(-0.00671937 0.00218544 1.24985e-21)
(0.0115247 -0.0119812 -6.57468e-22)
(-0.000251427 -0.000310148 0)
(-0.00335398 0.00501736 0)
(0.00196286 -0.00708488 -9.05016e-23)
(-0.000117476 -0.000111876 0)
(-0.152904 -0.159145 2.08299e-21)
(-0.00783713 -0.0215511 -3.8726e-22)
(-0.0228672 0.00718819 -3.74846e-22)
(-0.00639339 -0.00846112 0)
(-0.00491842 -0.0166416 0)
(-0.0157873 0.00541701 7.10278e-23)
(-0.00401904 -0.000735389 0)
(-1.81311e-05 -1.55099e-05 0)
(-0.00117941 -0.000429682 -7.66339e-23)
(-0.000362824 0.000729591 1.131e-21)
(0.00430593 0.0160781 4.28285e-22)
(0.0119181 -0.0501782 0)
(-0.00198157 0.000485091 2.21484e-23)
(0.0148098 -0.00646073 1.81443e-21)
(0.0329646 0.0634937 -1.38229e-20)
(-0.0147072 0.00924709 1.48473e-22)
(0.000405088 -0.00413531 -1.22676e-21)
(0.00648847 -0.00535785 -1.15032e-21)
(-6.05553e-05 2.32907e-05 -7.93915e-22)
(-1.87951e-05 -1.40312e-05 -2.00442e-23)
(-0.00185961 -0.0887695 0)
(-0.000352258 -0.000317612 0)
(-5.91454e-05 2.63071e-05 1.42669e-21)
(-2.96055e-05 2.48178e-05 1.17446e-22)
(-3.7404e-05 -1.514e-06 0)
(-0.0116249 -0.0010167 7.01976e-23)
(-2.40405e-05 -3.88469e-05 8.17571e-23)
(-0.0291778 -0.0152632 1.32972e-21)
(0.113569 -0.0287746 -6.52051e-22)
(-5.92599e-05 4.72014e-05 1.57878e-21)
(-1.80829e-05 3.19797e-08 1.49372e-24)
(-6.99934e-05 -0.000163038 -1.4316e-21)
(-3.81328e-05 -6.47404e-05 -8.00376e-22)
(-3.29644e-05 5.61638e-05 1.40474e-22)
(-0.000106918 0.00175972 -2.67779e-21)
(-2.25804e-05 0.000122384 2.4142e-22)
(-0.00217112 0.00912295 -2.64895e-21)
(-0.000206695 -0.00564942 -4.08593e-22)
(-0.00257247 0.00388662 -6.64162e-22)
(-0.00307949 0.0047365 1.52607e-21)
(0.0155199 -0.00613144 -1.96878e-21)
(-0.000511176 -0.0108171 -1.83262e-21)
(-0.00367782 0.00501093 -2.45804e-21)
(-0.0933562 0.0279868 -1.23336e-21)
(-0.0188752 0.00914157 0)
(-0.0133275 0.00344552 -3.34852e-22)
(-2.60212e-05 4.25597e-06 -7.69158e-22)
(-2.85269e-05 7.56066e-05 -4.49119e-22)
(-6.4132e-05 1.75414e-06 0)
(-0.00129477 -0.00241281 0)
(5.40166e-05 -0.00548843 0)
(-6.35531e-05 0.000111758 2.66075e-21)
(-0.00425639 -0.0166962 -2.19024e-21)
(0.0110747 0.0936366 0)
(0.0116632 -0.0132874 -1.05615e-21)
(-0.0994072 0.015682 3.44465e-21)
(-0.00151697 0.000175783 -1.2391e-21)
(-0.0118129 -0.00795232 0)
(0.00761825 -0.00766728 -1.81389e-22)
(-0.000230436 0.000326519 7.07722e-22)
(0.0099984 0.0144874 1.71643e-21)
(-8.47577e-05 -4.93762e-05 -1.98323e-21)
(0.0101941 0.0119323 -1.78865e-21)
(-8.75539e-05 0.00016466 1.62627e-21)
(-7.98954e-05 -4.9689e-05 1.00284e-21)
(-0.0110493 0.0189343 6.16519e-22)
(-0.000321139 -0.000290107 5.59919e-22)
(0.0052763 -0.00383652 2.19162e-21)
(0.000392137 -6.35862e-07 0)
(0.00921444 0.012853 -1.5076e-21)
(-0.00124722 -0.000243178 9.44458e-23)
(-0.000314504 -0.000139878 3.05619e-22)
(-0.0119709 -0.030343 0)
(0.00238229 0.00717289 -1.74575e-21)
(-5.35081e-05 -2.30155e-06 0)
(0.0696399 0.0415079 -2.77884e-21)
(0.0142516 0.0605362 0)
(-0.000381554 0.00129064 -2.24516e-21)
(-0.000300664 0.000852336 5.25039e-22)
(-0.01877 0.169069 -9.26272e-23)
(-5.36137e-05 -9.97081e-06 0)
(0.0761432 -0.0381765 -8.53668e-21)
(-0.0100415 -0.000517448 -7.28302e-23)
(0.0115928 -0.0113627 7.10264e-22)
(0.00704424 -0.00197858 -3.67752e-21)
(0.0158956 -0.00334698 1.19592e-21)
(0.00478026 -0.242965 6.47409e-21)
(-0.0142841 0.0514258 -5.2683e-21)
(-0.000328054 -0.00673872 0)
(-9.32745e-05 2.0053e-05 -2.88947e-22)
(-0.0125213 0.0103877 0)
(-2.53767e-05 -3.51335e-05 0)
(-0.000309744 0.00128889 4.28672e-23)
(-0.00697186 -0.00875514 0)
(4.00903e-05 -0.000114007 0)
(0.00196072 0.0073892 -4.36418e-21)
(-8.67848e-05 0.000183733 1.25878e-21)
(-0.000261329 0.000821561 -1.35015e-21)
(-2.55049e-05 -3.95358e-05 0)
(-6.72922e-05 -0.00014988 -2.18052e-21)
(-6.12874e-05 -5.09751e-05 -2.25728e-21)
(0.00454946 0.0175335 9.54614e-23)
(0.0162604 0.0191949 0)
(-5.37668e-05 -1.10712e-05 0)
(0.00640291 -0.00639809 -1.3449e-21)
(-0.000822475 0.000261543 1.30523e-23)
(0.0210375 -0.00158222 0)
(-0.0180022 -0.0248077 -1.05054e-22)
(0.00119538 -0.00346549 0)
(-0.0139679 0.00848908 -2.93508e-23)
(0.00169042 -0.00377848 0)
(-0.0202061 -0.0039513 -5.12202e-21)
(-0.00015294 -0.00112922 0)
(0.00388462 -0.00168185 0)
(-0.0462118 0.000762162 -6.35622e-23)
(0.00896941 0.0155826 0)
(0.0982944 -0.0281521 4.93161e-23)
(-6.36039e-05 -1.87315e-07 0)
(0.01008 -0.0124298 -5.24417e-22)
(0.0744605 -0.0350664 8.01109e-21)
(0.0468553 0.0358756 7.06851e-22)
(-0.000354369 3.13833e-05 0)
(-4.41401e-05 2.45105e-05 -4.27185e-22)
(0.0278517 0.043064 -5.03703e-21)
(0.000147242 -0.00138135 7.796e-24)
(-0.138833 -0.0867391 3.37168e-21)
(-5.67496e-05 0.000166941 -1.0093e-21)
(-0.122882 -0.110106 -3.86261e-21)
(-0.000564744 -0.00548806 3.13514e-22)
(0.0837306 0.0416574 0)
(-8.00904e-06 0.000116152 5.83682e-24)
(0.0447989 0.040319 -6.97606e-22)
(-5.8329e-06 -3.85923e-05 -7.72537e-25)
(0.000809324 0.00265901 -8.1474e-22)
(0.0787533 0.0438235 2.5486e-21)
(-3.94888e-05 -5.5596e-05 0)
(-0.0206327 0.00926241 -7.98476e-22)
(0.00520795 -0.0852179 0)
(-0.155502 0.001048 1.54619e-21)
(-1.12459e-05 -4.9126e-05 1.15921e-21)
(-4.40182e-05 3.87888e-07 0)
(-0.00112416 -0.00532367 -2.67888e-21)
(-0.0805294 -0.100009 1.68183e-21)
(-4.41602e-05 2.5669e-05 2.42635e-22)
(-0.0760019 -0.0685838 0)
(0.000247828 0.00101698 4.45664e-21)
(-0.000844917 0.000207353 -1.59208e-21)
(-3.01222e-05 -9.26382e-05 3.32628e-22)
(0.0740512 0.0695229 -1.35589e-20)
(-0.000743783 -0.00527525 0)
(0.000491126 -0.000812485 0)
(-2.28297e-05 -0.000240556 7.72748e-22)
(-9.11677e-05 3.8604e-05 6.09179e-22)
(-4.57342e-05 -9.05778e-07 -2.008e-22)
(-0.0548298 -0.105759 1.98614e-21)
(0.000124099 2.34282e-05 2.23766e-21)
(0.00354879 0.00093558 -5.10742e-21)
(-3.44874e-05 1.61416e-05 -2.49914e-22)
(0.0177819 0.00126189 0)
(-0.00629273 -0.0077639 2.11957e-21)
(0.0342073 -0.0663923 -1.80996e-22)
(8.25922e-06 5.36116e-05 0)
(0.0129782 -0.0172975 2.22467e-21)
(-0.0185919 -0.0287505 0)
(0.0384647 -0.0532252 1.46385e-21)
(0.000192221 -0.000214532 -1.27953e-23)
(0.00251355 -0.00816726 1.05793e-21)
(0.000727011 0.002509 7.55887e-22)
(0.0115703 -0.00723086 1.49295e-21)
(-0.00693297 -0.00801836 -1.00762e-21)
(0.000130704 0.000185005 7.10216e-24)
(-5.74046e-05 -3.99018e-05 -1.12894e-21)
(-0.000147789 0.000156687 2.08579e-21)
(-8.43838e-05 -8.00997e-05 1.76868e-22)
(0.00742976 -0.00145099 2.7352e-21)
(1.49199e-05 4.99681e-05 0)
(-0.0270448 -0.00624981 2.5013e-21)
(-0.00074276 -0.0330045 1.06277e-22)
(0.0173287 0.00015027 -4.6188e-21)
(0.000268575 4.15088e-05 0)
(-0.0521194 -0.104229 2.0836e-22)
(0.0642391 -0.0616473 6.92271e-22)
(-0.000673059 -4.52597e-05 0)
(-3.65948e-05 -6.61312e-05 0)
(0.000216353 -0.000194114 1.32503e-21)
(-0.000173042 0.000298754 -7.01577e-22)
(-0.000778737 0.00188764 6.47772e-22)
(-0.0213592 0.0561996 5.17637e-21)
(-0.114859 -0.032921 -4.27753e-21)
(0.000602899 -0.00557632 1.46838e-21)
(-0.00716418 0.0090011 -4.64873e-22)
(-0.0100127 -0.000359682 0)
(-9.5452e-05 0.000456422 -1.38324e-21)
(-0.0376662 0.00324521 0)
(-0.000708738 -0.00912599 0)
(0.0153898 0.0821022 2.85154e-23)
(0.00608443 0.018482 8.33354e-22)
(-0.0829376 -0.0829875 -1.95344e-21)
(0.000550079 -0.000473555 -3.39788e-21)
(0.0468689 0.0435053 -1.35282e-22)
(-6.24496e-05 -2.63686e-05 -5.84698e-22)
(0.125339 0.0265427 0)
(0.0250507 0.0144139 -8.22031e-23)
(-0.000340621 3.74835e-05 1.20949e-21)
(0.0482832 0.041456 1.36868e-22)
(0.0015346 -0.000133092 -9.06971e-22)
(-0.00190536 0.00295787 0)
(0.00427478 -0.00890987 9.47115e-22)
(0.000216075 0.000967502 -1.48757e-21)
(0.00234152 -0.00265019 -5.41546e-22)
(-8.73328e-05 8.68041e-06 -1.16283e-21)
(-0.0178128 0.0110066 -1.99576e-22)
(0.0236171 0.0670306 0)
(-0.00822212 0.00233594 1.03784e-21)
(0.0130946 -0.0072879 -8.24015e-22)
(0.0193205 0.0101112 -5.11961e-21)
(-0.0013005 -0.00508795 2.70234e-21)
(-0.00778553 -0.00189778 9.39962e-22)
(-4.60098e-05 1.23237e-05 -1.86327e-22)
(-0.00852948 0.00204229 -9.06367e-22)
(-0.00146283 -0.00142883 0)
(0.0315302 0.00655977 0)
(0.00581192 -0.00651614 5.80524e-22)
(-0.0069052 -0.016443 -3.0175e-22)
(-6.19045e-05 -4.53592e-05 0)
(-0.17594 -0.115442 0)
(-0.00564112 0.00816201 2.94729e-21)
(-9.05643e-05 3.10122e-05 1.13122e-21)
(-2.3012e-05 1.39515e-05 0)
(-0.179818 -0.0510474 -6.29617e-21)
(-0.0396752 0.00393869 5.25973e-22)
(0.00648874 0.00150049 0)
(0.017495 -0.0019667 -1.37886e-24)
(-2.35855e-05 1.52944e-05 -3.66064e-23)
(0.000535779 5.4167e-05 -6.86516e-22)
(-4.67788e-05 9.19879e-06 6.65804e-23)
(0.00773386 -0.00452595 -2.17078e-21)
(0.00368017 0.00110635 4.24616e-21)
(-2.13161e-05 3.11503e-05 2.00546e-22)
(-0.000221226 0.000342317 0)
(0.0020953 0.00808125 3.76614e-21)
(0.0166051 -0.00560989 0)
(-7.86472e-05 0.000134405 6.25556e-23)
(0.00451652 0.00474769 -2.0735e-21)
(0.00397596 0.000650715 -4.79872e-21)
(-0.00343169 -0.0110618 -2.21146e-23)
(-6.77151e-05 -6.21742e-06 1.04443e-22)
(0.00386756 -0.00140314 1.21641e-21)
(-0.00977048 0.0196028 -1.19779e-21)
(-3.34365e-05 5.87593e-05 0)
(-0.159952 -0.0105537 -1.38163e-20)
(0.0138444 -0.00696672 0)
(-3.50369e-05 4.93693e-05 -6.25289e-22)
(-0.00308425 0.000427505 0)
(-2.07514e-06 0.000107073 -7.83885e-22)
(0.00228012 0.000322261 0)
(0.011366 0.0289426 -2.45032e-22)
(-0.000123402 1.62787e-07 8.17709e-22)
(0.00789971 -0.00607773 -5.68518e-24)
(-0.0468784 -0.00180645 9.2926e-22)
(-0.0926508 -0.0757929 0)
(0.00984192 0.0347592 -2.88787e-22)
(-0.00244828 -0.0114219 -1.70385e-21)
(-7.92065e-05 -4.61781e-05 -1.09822e-21)
(0.0203562 -0.0875023 -6.47289e-23)
(-3.90394e-05 -2.51394e-05 5.24168e-23)
(0.00223978 0.000628826 0)
(-0.00563317 -0.0162667 -2.81027e-22)
(-3.6787e-05 5.37676e-05 6.90412e-22)
(0.000206701 0.000579652 5.37461e-22)
(-0.0134806 -0.0058041 -1.50853e-21)
(-0.00149795 -0.00128833 1.4694e-21)
(-0.0414535 0.00131619 0)
(-2.45991e-05 5.86734e-07 0)
(-0.0163286 -0.093184 2.50518e-21)
(-0.0138087 -0.0112385 -2.60837e-21)
(-0.00816555 -0.00346541 0)
(-7.5186e-06 -2.49485e-06 -3.25682e-23)
(-0.000526992 0.000293258 -1.62656e-21)
(0.00741568 0.0124984 0)
(0.00689006 -0.00622826 5.74699e-24)
(0.0158221 -0.00297281 1.48967e-21)
(-0.0119468 0.00194387 -3.98974e-22)
(-0.000717806 -0.000359946 1.47584e-21)
(0.000168522 -0.00105588 -7.78806e-22)
(0.0131693 0.0323492 5.24738e-22)
(0.00621696 0.0136251 2.73377e-22)
(-4.81212e-05 -7.00307e-07 -1.18594e-22)
(0.00656693 0.0202095 0)
(0.0010437 0.00605814 0)
(-0.127489 -0.137409 0)
(-0.0618138 0.0229148 0)
(0.000220265 -7.0353e-05 3.12543e-22)
(-0.00153295 -0.00219507 0)
(-5.03876e-05 1.99714e-06 -8.37789e-22)
(-0.000352424 -0.000242276 1.77669e-24)
(-0.00775636 0.00210213 0)
(0.00654677 0.00212926 0)
(0.00279475 -0.00145858 0)
(-2.69345e-05 9.62933e-05 -6.70921e-22)
(0.000203782 -0.000115874 -1.90585e-22)
(-6.34266e-05 2.46426e-05 -7.91434e-22)
(-0.0280512 -0.0752186 -2.39238e-22)
(-0.0703374 0.0227474 3.91396e-22)
(-0.00260236 0.00927488 1.94807e-21)
(0.0134805 0.00269052 -2.46597e-21)
(0.0059444 0.00477631 -2.76287e-21)
(0.0132714 0.00316823 1.78677e-21)
(0.00256643 0.00490028 -2.76028e-23)
(0.000298186 3.00638e-05 0)
(0.00161547 0.0059834 8.15864e-23)
(0.00164051 0.00834373 0)
(-0.000849821 0.000564452 0)
(-0.00612448 -0.00255619 0)
(0.000319919 6.18149e-05 1.29454e-21)
(-0.0127306 0.000125175 8.05721e-23)
(-5.15144e-05 0.000187203 1.05148e-21)
(0.079221 -0.0618625 -4.20488e-22)
(0.0713871 -0.0567238 4.5661e-21)
(-0.00713467 -0.00276272 0)
(-0.0130762 -0.0049023 4.06408e-21)
(-0.017845 0.00237329 -4.04266e-22)
(-2.41914e-05 0.000117002 0)
(0.000453565 -0.000407384 1.72635e-21)
(-0.0114743 -0.00915449 -3.35335e-21)
(-0.000699685 0.000379432 -2.70229e-21)
(2.63964e-05 -8.7035e-05 7.06454e-25)
(0.0287041 -0.0160481 -3.80639e-22)
(-0.104165 0.0863898 2.54762e-22)
(-0.000217249 -0.0100433 0)
(-0.0277903 0.00714923 -2.15175e-22)
(0.115221 -0.0516705 -1.59459e-21)
(-0.0965218 0.0211785 -1.06994e-21)
(-0.00127847 -0.00892423 3.20414e-23)
(0.0315296 -0.0158122 5.27213e-22)
(5.58666e-05 -0.000157527 -7.38649e-22)
(-0.000229943 -0.000310826 0)
(-0.0135193 -0.00620272 0)
(-2.00188e-05 -9.09483e-06 4.05348e-24)
(0.0222818 0.069456 0)
(0.00142663 -0.00240406 -8.58632e-22)
(0.0115935 -0.00745254 0)
(-8.31567e-05 -4.156e-06 2.21808e-21)
(-4.03895e-05 -3.94901e-05 7.74342e-23)
(0.0390551 0.0307867 -8.38174e-22)
(-0.000512697 0.000284835 2.58432e-21)
(-0.0062966 -0.00322777 -1.2965e-22)
(0.00131617 -0.00213396 9.30813e-22)
(-0.00342659 -0.0048451 -1.8335e-23)
(-7.44187e-05 3.09432e-05 4.08319e-22)
(-0.0391591 0.00965742 -1.06414e-21)
(-4.04985e-05 -3.63486e-05 -1.3691e-25)
(-7.85587e-05 1.24866e-05 0)
(-0.00118096 -0.010825 -2.32244e-22)
(0.00836004 -0.0498924 -3.61679e-22)
(-0.0361577 0.0531831 3.96442e-23)
(-0.00307618 -0.00201433 1.18959e-21)