/*--------------------------------*- C++ -*----------------------------------*\
| =========                 |                                                 |
| \\      /  F ield         | OpenFOAM: The Open Source CFD Toolbox           |
|  \\    /   O peration     | Version:  v2012                                 |
|   \\  /    A nd           | Website:  www.openfoam.com                      |
|    \\/     M anipulation  |                                                 |
\*---------------------------------------------------------------------------*/
FoamFile
{
    version     2.0;
    format      ascii;
    class       volScalarField;
    location    "200";
    object      k;
}
// * * * * * * * * * * * * * * * * * * * * * * * * * * * * * * * * * * * * * //

dimensions      [0 2 -2 0 0 0 0];


internalField   nonuniform List<scalar> 
54593
(
0.000279238
0.000279194
0.000297024
0.00019943
0.000200926
0.000287718
0.00013873
0.000205021
0.00020469
0.000161311
0.000147371
0.000239452
0.000145227
0.000139601
0.000270888
0.000134177
0.0360051
0.000142575
0.000134313
0.000235285
0.000150991
0.000151852
0.000469839
0.000145968
0.000137953
0.000163082
0.00615839
0.000241026
0.000202093
0.000142217
0.000251264
0.00017274
0.000132712
0.000309566
0.000134225
0.000145666
0.000162977
0.00361746
0.0136023
0.00136647
0.000304202
0.000155605
0.000143595
0.000143103
0.000138033
0.000154602
0.000139121
0.00616308
0.00381584
0.000152021
0.000137967
0.000142823
0.000148376
0.000158518
0.000162413
0.00014829
0.000204504
0.000148533
0.000305494
0.000142821
0.0127836
0.000147792
0.000151246
0.000147684
0.0349086
0.00240294
0.000142818
0.0282503
0.000142689
0.000138831
0.0360453
0.00014072
0.000158524
0.00013275
0.000133392
0.000139216
0.0124988
0.00015004
0.000300486
0.000164173
0.000145909
0.000147537
0.0359098
0.0283666
0.000141663
0.000142476
0.000236983
0.000151153
0.000142699
0.000211015
0.000138792
0.000145662
0.0300252
0.000147529
0.00925318
0.000164747
0.00015785
0.000150299
0.000143455
0.000133837
0.00374742
0.0150925
0.000147824
0.000223885
0.000286464
0.000230786
0.000140601
0.000181804
0.000132835
0.000143367
0.000139606
0.000149989
0.0327336
0.000165416
0.00644105
0.000142997
0.000142516
0.000154209
0.000283628
0.00367278
0.000145864
0.000220328
0.000162786
0.000215715
0.000153593
0.0366299
0.00014256
0.000173981
0.0280961
0.000145317
0.000150806
0.000154124
0.000138223
0.000170659
0.00014319
0.00013431
0.000166944
0.000233265
0.000153384
0.00801928
0.000142998
0.000141672
0.000142987
0.0411944
0.000141595
0.000169838
0.000162387
0.000160182
0.000143315
0.0362293
0.000141666
0.00115404
0.000146618
0.000142041
0.000154307
0.000229355
0.000210624
0.00637651
0.000248467
0.000150103
0.000207885
0.000189187
0.0284347
0.000137227
0.000245633
0.000149693
0.000153839
0.00013846
0.000144191
0.000139808
0.0261022
0.000158962
0.000141727
0.000177862
0.00015065
0.000142974
0.000194372
0.000168705
0.0413538
0.000137275
0.000133913
0.000149362
0.0262736
0.000175036
0.000255938
0.000145565
0.0198588
0.00014547
0.000158123
0.000145227
0.00568369
0.000225008
0.000155911
0.00701848
0.000215225
0.000148432
0.000152774
0.000156282
0.000214816
0.000149242
0.0266585
0.000232777
0.00016254
0.000175544
0.0221957
0.000153823
0.000137431
0.0001763
0.000159533
0.0191412
0.000142742
0.00025026
0.000175573
5.04282e-05
0.000156929
0.000167172
0.000156469
0.000289378
0.000132677
0.000156575
0.000137409
0.0258931
0.00014059
0.0103907
0.00371926
0.000217596
0.000153855
0.0272221
0.000183567
0.027714
0.0279809
0.000132834
0.000157477
0.00015071
0.000161598
0.000144136
0.000153679
0.00356845
0.000214567
0.000155086
0.000132609
0.000152874
0.000141414
0.000132654
0.000162316
0.000140929
0.0264831
0.00519224
0.00014353
0.000138237
0.000217608
0.000145232
0.00018137
0.000141674
0.00741774
0.000139715
0.00407763
0.0269489
0.000218057
0.000140674
0.000145063
0.000132281
0.000201137
0.0228557
0.000282364
0.000204899
0.00013265
0.00016248
0.00014836
0.000144527
0.000241329
0.00499357
0.000140481
0.000222268
0.00021598
0.0247933
0.000146649
0.000142709
0.000183031
0.000145602
0.000140768
0.000144248
0.000143602
0.00017408
0.0313909
0.000821157
0.000174444
0.000158596
0.000214535
0.000146789
0.000143022
0.00916198
0.000194066
0.0290088
0.000186281
0.000144608
0.000216609
0.000142408
0.000158305
0.00060749
0.000196226
0.000194734
0.000275338
0.000318391
0.000194794
0.000213822
0.025513
0.02694
0.0383893
0.0287451
0.00014838
0.00100001
0.000161803
0.043647
0.000274622
0.000178374
0.0310903
0.000165403
0.000202982
0.000145272
0.025658
0.000186766
0.000141501
0.000179728
0.000140878
0.00587029
0.000157735
0.000323388
0.00013537
0.008954
0.000221557
0.000133829
0.000652763
0.000277672
0.000164508
0.000143327
0.000149288
0.000731609
0.000168884
0.000145358
0.000183728
0.0122053
0.0369228
0.000145359
0.000137135
0.0421519
0.000145103
0.000320636
0.000173914
0.000154033
0.00459972
0.0001435
0.000325851
0.000149954
0.000176392
0.000204507
0.00015774
0.026812
0.000191592
0.000176016
0.000490194
0.000273164
0.0271013
0.000136091
0.000566674
0.000186323
0.000151809
0.000134611
0.000142039
0.000194073
0.000153688
0.00590148
0.000567116
0.000168336
0.000157585
0.000195317
0.000207232
0.000160436
0.000236221
0.000878802
0.000186927
0.000202622
0.0251684
0.000195597
0.00067221
0.000176086
0.000176364
0.0001929
0.000185948
0.000142233
0.000158117
0.000183181
0.000511379
0.000179654
0.000138341
0.000147612
0.0001633
0.000147598
0.000145023
0.000157783
0.00028725
0.000136469
0.000135483
0.000167452
0.000179518
0.000167862
0.000202679
0.000183946
0.0051466
0.000165497
0.000144489
0.00475103
0.0498939
0.000161641
0.000132064
0.000147521
0.0334111
0.0201975
0.00020141
0.00014903
0.0275348
0.000142206
0.000145844
0.00598525
0.00015921
0.000218229
0.000450236
0.000128366
0.000163123
0.000144603
0.000202634
0.00290774
0.0182098
0.000153484
0.000536701
0.000133849
0.000152884
0.000199033
0.0107496
0.000179796
0.000206183
0.000152397
0.0100378
0.000161753
0.0256667
0.000173512
0.000198051
0.000171547
0.00567994
0.0342379
0.000174703
0.000168576
0.000175502
0.000132338
0.000297257
0.000162738
0.000159452
0.000254532
0.00015139
0.000147706
0.00549256
0.000132341
0.000154378
0.000149868
0.000168548
0.00182989
0.000182683
0.040948
0.000142291
0.000142791
0.000207007
0.000177016
0.000238474
0.000171131
0.000184312
0.000185623
0.000237547
0.000149988
0.00018799
0.000197403
0.00014402
0.0254267
0.000189938
0.000212639
0.0367363
0.00471176
0.000220339
0.000160766
0.00012794
0.000143163
0.000167555
0.0213896
0.000213486
0.0001579
0.0464281
0.0256494
0.000223389
0.000158924
0.000166026
0.000141317
0.000134276
0.00307427
0.000147539
0.000141341
0.000131917
0.000147241
0.000193546
0.000133267
0.00152325
0.000484718
0.000147097
0.000156366
0.000146479
0.000140059
0.000136691
0.000154218
0.000135701
0.000173504
0.000201909
0.000185436
0.000187316
0.0461454
0.0431175
0.000187965
0.00437338
0.000199991
0.000275676
0.000142809
0.000145314
0.00014107
0.000150789
0.000201571
0.000144717
0.00412766
0.0273286
0.000176042
0.00459349
0.000169123
0.00901388
0.049646
0.000151355
0.000188393
0.000142769
0.0001838
0.000148107
0.000142407
0.000205839
0.000150446
0.000174829
0.000157538
0.000183708
0.000143227
0.000156637
0.000196323
0.000172387
0.000154028
0.000270636
0.00721014
0.00015762
0.000174023
0.00538261
0.000137131
0.000257173
0.000181657
0.000230933
0.000165775
0.0281232
0.0100432
0.000242712
0.00016173
0.000135564
0.000278228
0.000137379
0.000157644
0.036355
0.000147653
0.00017226
0.000149084
0.000174465
0.000137398
0.000146085
0.000141561
0.020032
0.000221888
0.000137163
0.0354424
0.000154099
0.000244934
0.000695133
0.000163999
0.000280908
0.000167859
0.000181939
0.000189735
0.000196872
0.000215491
0.000189345
0.000386296
0.000141018
0.000173935
0.000259478
0.000338808
0.000150551
0.000135621
0.0253571
0.000147592
0.0228341
0.000149297
0.0208247
0.000201663
0.000287847
0.00014214
0.000350101
0.000153693
0.00016331
0.000285174
0.000133753
0.000210381
0.00467815
0.03543
0.000153686
0.00015286
0.000201554
0.0210881
0.000135634
0.011403
0.000157621
0.000154037
0.000138959
0.00031168
0.000201464
0.000152873
0.000148263
0.000143145
0.00015029
0.0197453
0.000155008
0.000167968
0.000143541
0.00021874
0.0365863
0.00355467
0.000152881
0.000189435
0.00104289
0.00341147
0.000157316
0.025471
0.000162863
0.000215369
0.0361572
0.000145217
0.000141101
0.000147932
0.000143444
0.000166317
0.000153088
0.000191197
0.00231431
0.000218334
0.000156398
0.0195128
0.00140827
0.000161484
0.000140173
0.000157337
0.000154144
0.000159714
0.000256178
0.0209337
0.000201707
0.000264028
0.000169594
0.000180009
0.000209631
0.0407984
0.025665
0.0208286
0.0183023
0.000187683
0.00120087
0.000139273
0.00104481
0.000615411
0.000150436
0.00123844
0.000163104
0.000182783
0.0252279
0.000157307
0.000158735
0.000142257
0.000200951
0.0239234
0.000187154
0.0435097
0.000221836
0.000201311
0.000183153
0.000135504
0.000187096
0.000156052
0.000772918
0.000165919
0.00695117
0.000141331
0.0276161
0.017587
0.000143046
0.000132124
0.0368381
0.00021104
0.000165679
0.000370389
0.000132126
0.000158307
0.000135468
0.00017805
0.000168155
0.000143551
0.0001515
0.000173486
0.0459874
0.000136293
0.000196446
0.000194657
0.00031105
0.000134325
0.000196467
0.00020646
0.000136761
0.0352513
0.0425504
0.000139064
0.000175989
0.000142172
0.000147709
0.000257726
0.000151518
0.000191077
0.000215125
0.0204296
0.000299206
0.042306
0.000142344
0.00404353
0.000132907
0.000147391
0.00496681
0.000139053
0.0001505
0.0254939
0.000156034
0.000212005
0.000146391
0.00446159
0.0191251
0.000176034
0.000142956
0.000161444
0.000274293
0.000188637
0.0262564
0.000196404
0.000161928
0.000162699
0.000277719
0.000275985
0.000147473
0.0197826
0.000164551
0.0209012
0.000924692
0.000141496
0.00015088
0.000162207
0.000150565
0.000186429
0.000166201
0.000168365
0.000145607
0.000141464
0.000149785
0.00471221
0.000338022
0.000195137
0.000211404
0.000198947
0.000211037
0.000169438
0.0001567
0.000164927
0.000173443
0.000141953
0.000161615
0.000156758
0.000197702
0.000149341
0.000369776
0.000959721
0.000168704
0.025431
0.000195561
0.0001459
0.000187275
0.00891616
0.000164709
0.000131966
0.00148446
0.034002
0.000258322
0.000204085
0.000950978
0.01145
0.000227911
0.00158242
0.000148181
0.000149826
0.0269048
0.000130254
0.0244361
0.000150341
0.0414244
0.000142411
0.000131584
0.000297526
0.000161142
0.0001667
0.000148807
0.000190128
0.000141326
0.000215655
0.000131525
0.000142144
0.0426976
0.000213824
0.0147181
0.000173912
0.000214009
0.0348195
0.000195751
0.000153478
0.00660238
0.0444673
0.0157059
0.0146149
0.000186555
0.00017479
0.000136049
0.000156311
0.00672053
0.000147255
0.0433519
0.000413476
0.00769015
0.0273145
0.000192099
0.00014235
0.000132278
0.043793
0.000140246
0.000182149
0.000162071
0.00013463
0.000139107
0.0200421
0.000213464
0.000222882
0.0097967
0.000176042
0.00014896
0.000151345
0.000159346
0.000138712
0.00098046
0.0229785
0.0266219
0.000170608
0.023919
0.000161445
0.000151643
0.000167703
0.000857267
0.0219867
0.000141511
0.000193408
0.000143286
0.000143449
0.0134441
0.000182306
0.000148366
0.00366677
0.000128039
0.000212847
0.00014329
0.000165572
0.000152279
0.000143324
0.000134881
0.000190271
0.000728782
0.00355768
0.000160613
0.000165824
0.000141309
0.000150184
0.000173546
0.000144283
0.00014232
0.000173457
0.0122711
0.0453528
0.000159867
0.000140338
0.000147849
0.0275033
0.000151398
0.000144846
0.000185624
0.00874639
0.0001628
0.00446911
0.000151454
0.035417
0.000162395
0.00516651
0.0355719
0.000139066
0.000131123
0.000165837
0.000148822
0.000151531
0.00460221
0.000155757
0.000134484
0.0251589
0.000134649
0.026091
0.000140188
0.00014252
0.000146262
0.000159924
0.000218442
0.000184809
0.019532
0.000170253
0.000131299
0.000134783
0.000190654
0.000162906
0.000142084
0.00201944
0.000199138
0.0491639
0.000152028
0.0188135
0.000153016
0.000142314
0.000190003
0.000166118
0.000169334
0.0229437
0.000154649
0.000155838
0.000178269
0.000202006
0.000152758
0.000217084
0.00014626
0.0069428
0.000151226
0.00015112
0.00016574
0.000166814
0.00242776
0.0221528
0.00995448
0.0262784
0.000162167
0.000259692
0.000139077
0.00679941
0.0145448
0.00015371
0.000151228
0.00017408
0.000131068
0.000148293
0.000131008
0.000166149
0.000151871
0.000143298
0.000140579
0.0001311
0.0243148
0.0208844
0.000142365
0.000213185
0.000142093
0.000168907
0.00014636
0.00847701
0.00015089
0.000185741
0.000138973
0.00016467
0.00129897
0.0245458
0.000147981
0.000151865
0.00019054
0.000137173
0.0250537
0.00018988
0.000133516
0.00585187
0.000213644
0.000145826
0.000158014
0.000151714
0.000144243
0.000216023
0.000202966
0.0254751
0.000150025
0.000220597
0.0309852
0.000140652
0.000151124
0.000196026
0.000134807
0.000149356
0.000168565
0.000196747
0.000135753
0.000151194
0.000145631
0.00119305
0.000148727
0.000149929
0.0106572
0.000203385
0.000175665
0.000165674
0.00789162
0.000147441
0.000192811
0.000702077
0.000168878
0.000350014
0.000133314
0.000195219
0.000153481
0.000215743
0.000217941
0.000251169
0.0486359
0.000152633
0.00907717
0.000220048
0.00014483
0.000142469
0.000140807
0.000148094
0.00017514
0.000210389
0.000156811
0.000142332
0.000137171
0.0248887
0.00018538
0.0172222
0.000134493
0.00022065
0.0192721
0.000133478
0.000195737
0.000142865
0.000157752
0.000154626
0.000195557
0.00173728
0.00664102
0.000132437
0.00014465
0.000144721
0.0306915
0.000132498
0.000161579
0.000181985
0.000144811
0.0327145
0.000140417
0.000150631
0.00017878
0.0001964
0.00833309
0.0206616
0.000142078
0.0235178
0.000165826
0.00014624
0.000144313
0.000224744
0.000160323
0.000287038
0.000146586
0.000146047
0.000156811
0.00014726
0.000157114
0.000132062
0.00015279
0.000157175
0.000147535
0.000284336
0.000144637
0.000138595
0.000141949
0.000147961
0.000202467
0.00016473
0.000200633
0.000137334
0.000143332
0.00734768
0.000153172
0.000158848
0.000140561
0.000134786
0.000147363
0.000161544
0.000227669
0.000198652
0.000149999
0.000139848
0.000206607
0.000140088
0.000205002
0.00476025
0.000164948
0.000149316
0.000146769
0.000161665
0.000171307
0.00016341
0.000155706
0.000140903
0.000141934
0.000169623
0.000149527
0.00015801
0.000151694
0.000168182
0.00180593
0.000222502
0.000217945
0.000148876
0.000139684
0.00020881
0.0001482
0.000192123
0.000132911
0.00162048
0.00304524
0.000154803
0.000177488
0.000149997
0.0295357
0.000149322
0.000223539
0.000202585
0.00043198
0.000160365
0.000152655
0.000147649
0.000141858
0.000137333
0.000144252
0.000136408
0.000154464
0.000219306
0.000166262
0.00015845
0.000179699
0.000161051
0.000163848
0.000158014
0.000160817
0.000184573
0.000148184
0.00071763
0.000197961
0.000160865
0.000147491
0.00015101
0.000184559
0.0224398
0.000154311
0.000157679
0.000165291
0.000139872
0.000144448
0.000163032
0.000158422
0.000137234
0.000184014
0.000150016
0.000147329
0.00701693
0.000147501
0.000162753
0.000187039
0.000171566
0.00122495
0.00014277
0.000165273
0.000150258
0.0125294
0.000164731
0.000131656
0.026099
0.000133604
0.000157403
0.000141101
0.000157956
0.000154803
0.000223352
0.00252568
0.000188812
0.000154043
0.000139789
0.000162082
0.00016284
0.000675855
0.000149304
0.00022112
0.000165604
0.0356633
0.000137137
0.000193648
0.000148858
0.00237784
0.000157788
0.000148424
0.000206163
0.000145636
0.000128466
0.00626231
0.00016073
0.000147177
0.000174289
0.028681
0.000173357
0.000189583
0.00156426
0.000135063
0.000156505
0.00112293
0.000170004
0.000133758
0.000153288
0.000135384
0.0206266
0.00014922
0.000140454
0.000131916
0.000149812
0.000146839
0.00671325
0.000146585
0.000195512
0.000155242
0.00015436
0.000273522
0.000147907
0.000157264
0.000191845
0.000153186
0.000168881
0.000141306
0.000144144
0.00574532
0.000546492
0.000140356
0.000149322
0.000131566
0.000143454
0.000154962
0.000157078
0.000167849
0.000141945
0.0361857
0.000142048
0.000139861
0.00573068
0.0191708
0.000148762
0.000149833
0.000521632
0.000185244
0.000169409
0.000138506
0.000158275
0.00013311
0.043185
0.000157504
0.000140319
0.00474922
0.000150142
0.000142548
0.000164811
0.000160777
0.000147356
0.000602533
0.000230156
0.00014407
0.000142559
0.000141776
0.000174775
0.000149393
0.00013971
0.0315027
0.000198376
0.000130897
0.00023806
0.0141886
0.000213904
0.000659798
0.000133072
0.000157109
0.000174214
0.000335723
0.00229545
0.000780466
0.000149225
0.000145548
0.0059804
0.00704974
0.000148035
0.000155043
0.000140294
0.000148207
0.000139443
0.000130973
0.000142658
0.000157095
0.000142808
0.0196617
0.0100705
0.000144226
0.000150235
0.000150382
0.000145734
0.00014553
0.000161904
0.000160222
0.000169969
0.000145286
0.0038127
0.000199632
0.000158726
0.000181658
0.000197351
0.000143387
0.00328396
0.000185012
0.000181203
0.000203484
0.000160404
0.000225847
0.000143404
0.00293931
0.00013935
0.000177911
0.000142613
0.000141168
0.0147547
0.000157591
0.000138442
0.000288463
0.0253288
0.000155684
0.000169118
0.000128355
0.000183048
0.02342
0.000149568
0.000147726
0.000145694
0.000148762
0.000138336
0.000152868
0.00524654
0.000165165
0.000149406
0.00014563
0.000140883
0.000141419
0.00015681
0.000139123
0.000146108
0.0207666
0.000149035
0.000149411
0.000163354
0.000149409
0.000150779
0.000197728
0.000140821
0.000194872
0.0361718
0.000145235
0.03592
0.000146793
0.0239915
0.000150091
0.000193844
0.00015701
0.000202529
0.0362416
0.000149538
0.000241282
0.00013061
0.000138623
0.000222083
0.000199988
0.0363573
0.000145959
0.000161151
0.00016582
0.000154985
0.000156799
0.000141544
0.000170566
0.000145061
0.0265436
0.000221505
0.000162553
0.000140394
0.000149701
0.031177
0.0290399
0.000185006
0.000177171
0.000224481
0.00014147
0.000140416
0.000145231
0.00237747
0.000152729
0.00019846
0.000145138
0.000144731
0.000160883
0.000149452
0.000288632
0.000160821
0.000138337
0.000149105
0.000176631
0.000146956
0.0289309
0.000145358
0.000163619
0.000144082
0.000145366
0.000142002
0.0248254
0.000143607
0.000145197
0.000141232
0.00023529
0.000153824
0.00244691
0.00013373
0.000286923
0.000195813
0.000185776
0.000141545
0.000639494
0.0012558
0.00018797
0.000132551
0.000148213
0.000142182
0.000143476
0.000145587
0.000145293
0.000141427
0.000155212
0.0291613
0.000149547
0.000192452
0.000141255
0.000171662
0.000153309
0.000155948
0.0186298
0.000136218
0.000184787
0.000165426
0.000183726
0.000174723
0.0247439
0.000166331
0.000147556
0.00115497
0.000199513
0.0429474
0.00993646
0.000155674
0.000150912
0.000140624
0.000152937
0.000140736
0.000225235
0.000164997
0.0425168
0.000151377
0.000147373
0.00508578
0.000149674
0.000139518
0.00190811
0.000179609
0.0196718
0.000147803
0.000303181
0.000141361
0.000200091
0.0243788
0.0023445
0.000163715
0.000134614
0.000140766
0.000188051
0.00908942
0.000174173
0.000151862
0.000152391
0.000147103
0.000164358
0.000398887
0.000145444
0.000205726
0.000140431
0.000142216
0.000264024
0.000174722
0.000217243
0.000162488
0.0001526
0.000389906
0.000153906
0.000141276
0.0349717
0.000263683
0.00268792
0.000204253
0.000152569
0.0301387
0.0280674
0.000133676
0.000142772
0.00719995
0.00014492
0.000160538
0.000141617
0.00472235
0.00574462
0.000148218
0.000132454
0.000233759
0.000144217
0.000153113
0.00385933
0.000141954
0.000130731
0.000156153
0.0264846
0.000145448
0.000142792
0.000177102
0.00019976
0.000163922
0.0295369
0.000567069
0.000163301
0.000142182
0.00740805
0.000144369
0.000138608
0.000165195
0.0276493
0.000147988
0.000164721
0.000196342
0.000195192
0.000144044
0.0312685
0.000160679
0.000149426
0.000160035
0.000167978
0.000192642
0.000139639
0.00968861
0.000231618
0.000141032
0.000131351
0.000172966
0.000236847
0.000181852
0.000189231
0.00015338
0.000131613
0.000195899
0.000182312
0.0010922
0.000162399
0.000156145
0.000141068
0.000148219
0.000146956
0.000185744
0.000189243
0.000912368
0.000140807
0.000151769
0.00015736
0.000174162
0.000154755
0.000161946
0.0451882
0.000149012
0.000135575
0.000146267
0.000140822
0.000143288
0.000146582
0.000149875
0.000162348
0.000143835
0.000154442
0.000242797
0.000147325
0.000760273
0.000148864
0.000142048
0.000141836
0.000143182
0.000153183
0.000296062
0.00034342
0.000143205
0.000139594
0.000184066
0.000150218
0.000131819
0.00016255
0.000157634
0.0453619
0.000208483
0.000212339
0.00019913
0.000157414
0.000254559
0.000159785
0.0001998
0.000141232
0.000203835
0.000147797
0.00236414
0.000132373
0.00258495
0.000135271
0.00014676
0.000188213
0.000150576
0.00345003
0.0204592
0.000194681
0.000142355
0.000156262
0.000135667
0.000207055
0.000130442
0.000160682
0.000145351
0.000276483
0.000143988
0.000197623
0.0358932
0.000145428
0.000164912
0.000163349
0.000158732
0.00015301
0.000184456
0.000138827
0.00014218
0.0147786
0.0367499
0.000131659
0.000142112
0.000141904
0.00540279
0.000145133
0.000214608
0.000146508
0.000148762
0.00013479
0.000161185
0.0482903
0.000144696
0.000161665
0.000192885
0.00021691
0.000147609
0.000208397
0.000158458
0.000188073
0.000782449
0.000138816
0.000135615
0.000136439
0.000156597
0.000141649
0.000171466
0.000164289
0.000225897
0.000137497
0.000130997
0.000152756
0.000148053
0.000142715
0.000138935
0.000156342
0.000257168
0.000168541
0.0234026
0.000227061
0.0223892
0.000131227
0.000150115
0.000150933
0.000194501
0.000625409
0.000169179
0.000155129
0.000148318
0.00138729
0.000183964
0.00021676
0.0404529
0.0279104
0.000153428
0.000157404
0.000168583
0.000143178
0.000138928
0.000142397
0.000144211
0.0266158
0.000127908
0.00014153
0.000231866
0.0358889
0.000157276
0.000174388
0.000131195
0.000434588
0.000146609
0.000162092
0.000148241
0.000163582
0.000153699
0.000148124
0.000147687
0.027175
0.000131453
0.000175132
0.000158877
0.000143433
0.000238627
0.000140099
0.000198332
0.000161155
0.000133342
0.0419646
0.000169938
0.000188812
0.000148176
0.000139737
0.000203918
0.0207356
0.000144219
0.000162605
0.0397059
0.000136998
0.000174261
0.0286488
0.00015681
0.000139295
0.0282999
0.000144718
0.000212
0.000140463
0.0263483
0.000141494
0.000144506
0.000136905
0.000162902
0.000145462
0.000154596
0.00316647
0.000165722
0.000340664
0.000139886
0.000333725
0.0140634
0.000572948
0.000149408
0.000189839
0.000144823
0.000153396
0.000273288
0.000133179
0.000157477
0.0001557
0.000148276
0.000143825
0.00618736
0.00455007
0.000198852
0.0124076
0.000163478
0.000146303
0.000147692
0.00245278
0.000152235
0.00513165
0.000754059
0.000135961
0.000152694
0.000188611
0.00016187
0.00034447
0.0363672
0.000133636
0.0190915
0.000135975
0.000213856
0.00587211
0.0259211
0.000138511
0.000148181
0.000899572
0.00384225
0.000142896
0.00015281
0.000190859
0.000148014
0.000148658
0.000160789
0.000454509
0.000212276
0.000318281
0.000153111
0.000134929
0.0230946
0.000139076
0.000218813
0.000194977
0.000134814
0.000357135
0.0200068
0.000213144
0.000136397
0.000135137
0.000136292
0.0275358
0.000154546
0.000211821
0.000194365
0.000156489
0.000161155
0.000179711
0.000151755
0.000158703
0.000150949
0.000226136
0.000185467
0.00184005
0.0083803
0.0472824
0.00375145
0.000147895
0.000177937
0.000239577
0.000199151
0.00021748
0.000216496
0.000155805
0.0365779
0.00189533
0.000199174
0.000210073
0.000148805
0.000136203
0.000155992
0.0393616
0.000141384
0.000146528
0.000213786
0.000138646
0.000248438
0.000141199
0.000150855
0.00159345
0.000239033
0.000156939
0.000146496
0.00014456
0.000163847
0.000152167
0.000192668
0.000145157
0.000169745
0.000187375
0.000211489
0.000154402
0.000173837
0.0115984
0.040373
0.000136993
0.029366
0.000145409
0.000158636
0.0001418
0.00014226
0.000152432
0.000226698
0.000142639
0.000141829
0.000183327
0.000133467
0.000137558
0.00175415
0.000356184
0.000192215
0.000174422
0.000139874
0.000204405
0.00014637
0.000152463
0.0364815
0.00555736
0.000155868
0.000140997
0.0258615
0.00901208
0.000166567
0.000166334
0.000144152
0.000147806
0.000172005
0.0171353
0.000133258
0.000130859
0.000161761
0.0177273
0.000208665
0.000141437
0.000962916
0.000194423
0.000142104
0.000145731
0.000189205
0.000140854
0.000161655
0.0467864
0.000162196
0.0178629
0.000194951
0.0270072
0.000198021
0.000151538
0.000157546
0.0258503
0.00014633
0.000141108
0.000148182
0.000157025
0.000135297
0.000157154
0.000159157
0.000170545
0.000156011
0.000143088
0.000138684
0.0280105
0.000183951
0.000139211
0.000155059
0.000154347
0.000246073
0.00014868
0.0237678
0.000205189
0.0373848
0.0351948
0.000188614
0.000146019
0.00163964
0.000163563
0.000152974
0.000162095
0.0421663
0.000186764
0.000218926
0.000131708
0.00013684
0.0258364
0.00014693
0.000177906
0.000188286
0.00101411
0.000168759
0.000210234
0.000144993
0.000142748
0.00023064
0.000140866
0.000171359
0.000198801
0.000150735
0.04136
0.00016066
0.000163152
0.000140736
0.00022923
0.000194508
0.000152859
0.0342762
0.000153055
0.000582731
0.00415622
0.000134183
0.00019394
0.000302463
0.0044879
0.000141015
0.000302018
0.000226509
0.000150737
0.000140173
0.00017724
0.000141653
0.0420195
0.000201711
0.000142459
0.000836342
0.000134216
0.00295187
0.000141559
0.000134276
0.000145434
0.000143884
0.000205244
0.0295185
0.00407467
0.000142438
0.0421582
0.00016188
0.000185951
0.000199955
0.000157918
0.000141165
0.000173951
0.000131744
0.000177331
0.000134311
0.000156808
0.00014784
0.000131789
0.000171157
0.000157618
0.000152233
0.00907791
0.000144065
0.000143351
0.000143148
0.0276658
0.0193412
0.000146191
0.00018482
0.000160319
0.000152958
0.000221691
0.000147379
0.000156609
0.000158548
0.000143809
0.000221557
0.000145336
0.0100945
0.000224453
0.00021926
0.0366956
0.029731
0.000187832
0.000157828
0.0287479
0.0372351
0.000156326
0.000341738
0.000142023
0.00664228
0.0340083
0.000174905
0.042859
0.000141745
0.0249114
0.0105296
0.000212804
0.000187186
0.000146513
0.000188965
0.000151123
0.000142746
0.000203825
0.000158498
0.00020755
0.000187203
0.000148172
0.000140147
0.000209162
0.000147069
0.00313844
0.000342704
0.000141059
0.0257572
0.000150737
0.000154313
0.000145139
0.000156683
0.000173071
0.000156023
0.00216949
0.000149924
0.000358502
0.000190718
0.000140446
0.000143162
0.000202995
0.000190001
0.000141562
0.000170819
0.000157262
0.000144951
0.000150105
0.000142243
0.000189741
0.000143641
0.000163423
0.000186668
0.0300279
0.000144684
0.0353877
0.000143055
0.0296692
0.000139336
0.0385881
0.000209275
0.000152047
0.000326486
0.000143252
0.0370744
0.000190422
0.000149474
0.00936389
0.000151464
0.00013053
0.000188204
0.00013948
0.000153757
0.000149505
0.000147323
0.000192288
0.00647745
0.000142615
0.000143309
0.000205435
0.037329
0.000142558
0.0422281
0.000139003
0.000143044
0.000173104
0.000148253
0.010141
0.000142582
0.0109579
0.00015844
0.000149292
0.000217236
0.000144999
0.000131081
0.000142594
0.000142258
0.000151746
0.000147046
0.000160057
0.0278312
0.000160772
0.000149138
0.000177636
0.0397455
0.00896927
0.0285193
0.000157123
0.000185791
0.0001306
0.000188462
0.000174065
0.000139848
0.00014061
0.000161278
0.000131727
0.000156775
0.00956184
0.000288833
0.00015077
0.000139354
0.000142929
0.000153322
0.000165245
0.000155049
0.000185393
0.0114408
0.000137373
0.000160073
0.000189337
0.000165023
0.000183052
0.000749033
0.0210491
0.000188552
0.000208987
0.000141234
0.00354225
0.000135551
0.000134438
0.000150885
0.000180284
0.000264203
0.000143052
0.000195023
0.000143182
0.000207191
0.00946319
0.000201142
0.000143049
0.0138998
0.000147534
0.000150766
0.000134286
0.0419644
0.00020875
0.000163937
0.000148323
0.000135496
0.00365683
0.000145784
0.000147325
0.000139336
0.000143705
0.000156476
0.000158433
0.00015397
0.000293082
0.000150406
0.000163048
0.000143459
0.0246935
0.000140535
0.000141069
0.000149981
0.000141826
0.0292344
0.0106842
0.000141542
0.000168473
0.0117419
0.0208482
0.00013961
0.00017374
0.000174051
0.000155528
0.000137727
0.000189139
0.000148023
0.0073809
0.000140179
0.000159671
0.0116575
0.000144549
0.000147161
0.000157134
0.000178232
0.000202833
0.000149904
0.000908826
0.00017703
0.000190451
0.000264415
0.000195112
0.000145434
0.00762816
0.000199087
0.000182267
0.000192553
0.000218472
0.000169178
0.000197187
0.000193773
0.000140643
0.000157343
0.000194383
0.000135028
0.000245363
0.000168381
0.000172425
0.0152504
0.000153611
0.000140715
0.000158022
0.00017615
0.000141957
0.000174188
0.000136706
0.000178266
0.00608788
0.000162457
0.000143602
0.000185981
0.0312151
0.000149355
0.000141465
0.000146708
0.000133516
0.000157634
0.00440326
0.000231915
0.000151905
0.000143518
0.000148122
0.00074104
0.000141449
0.000211707
0.000157058
0.000198654
0.000158542
0.000193562
0.000216765
0.0116649
0.000156431
0.00020585
0.000146902
0.000154973
0.00013671
0.00016798
0.00643174
0.000130836
0.000153084
0.00016593
0.000152156
0.000169551
0.000140862
0.000188526
0.0001429
0.000147516
0.000583467
0.000155241
0.000145525
0.0228101
0.00028604
0.000171814
0.000137184
0.000168604
0.000133413
0.000248356
0.000132995
0.000139271
0.000149297
0.000155003
0.00015397
0.000141699
0.000213031
0.000189695
0.000197955
0.000149697
0.00014711
0.000181771
0.000510069
0.000169969
0.000195455
0.0275417
0.000245864
0.000156575
0.000182716
0.000146191
0.000144927
0.000150631
0.000140706
0.000165292
0.000132713
0.0001563
0.012644
0.0299845
0.000201678
0.00019269
0.000455712
0.000138352
0.000159345
0.00014655
0.00017975
0.0020487
0.000186276
0.00394891
0.000144144
0.000143152
0.000164403
0.000129269
0.000150072
0.000140921
0.000165037
0.000159847
0.000143516
0.000146254
0.000156947
0.000167947
0.000916823
0.0227587
0.000161003
0.000147463
0.000151114
0.000205896
0.000141416
0.00018126
0.00451872
0.000139234
0.000142768
0.000173521
0.000144908
0.0181351
0.000128328
0.000179363
0.000187826
0.000149442
0.0256159
0.000144459
0.000146257
0.000150086
0.000145669
0.026986
0.00776074
0.000151669
0.000213291
0.000170667
0.000144889
0.000140784
0.000143731
0.000155906
0.000138191
0.010754
0.0108079
0.000210232
0.000127848
0.000139175
0.000150969
0.000141796
0.000204998
0.000215763
0.000169039
0.000139332
0.0380602
0.00013546
0.000140213
0.00343455
0.000138938
0.000144217
0.000159312
0.000211293
0.000148498
0.000148958
0.000142946
0.000140068
0.000186805
0.000141918
0.000190005
0.000151869
0.000198458
0.000196924
0.000219042
0.000143065
0.0241451
0.00142027
0.00013687
0.000212229
0.000132635
0.000162245
0.000205934
0.00013684