/*--------------------------------*- C++ -*----------------------------------*\
| =========                 |                                                 |
| \\      /  F ield         | OpenFOAM: The Open Source CFD Toolbox           |
|  \\    /   O peration     | Version:  v2012                                 |
|   \\  /    A nd           | Website:  www.openfoam.com                      |
|    \\/     M anipulation  |                                                 |
\*---------------------------------------------------------------------------*/
FoamFile
{
    version     2.0;
    format      ascii;
    class       volScalarField;
    location    "200";
    object      nut;
}
// * * * * * * * * * * * * * * * * * * * * * * * * * * * * * * * * * * * * * //

dimensions      [0 2 -1 0 0 0 0];


internalField   nonuniform List<scalar> 
54593
(
0.00724948
0.00524003
0.00737514
0.00112032
0.00124147
0.00750937
0.00584433
0.00112
0.00096923
0.00257564
0.00590776
0.000706523
0.00593072
0.00585207
0.00521238
0.0058468
0.011328
0.00585655
0.00584977
0.000668852
0.00589503
0.0059136
0.0030866
0.00595868
0.00591437
0.00241671
0.0144153
0.00668641
0.00110307
0.00590024
0.0019405
0.00141232
0.00579925
0.00169825
0.00582602
0.00595836
0.0021294
0.0095579
0.00555534
0.00282949
0.00157024
0.00602806
0.00588533
0.00585882
0.0058309
0.00580821
0.00585251
0.0145776
0.0100208
0.00590925
0.0058296
0.00593874
0.00593248
0.00240479
0.0029593
0.00591858
0.0011561
0.00595702
0.00234654
0.00589048
0.00522358
0.0059562
0.00591937
0.0059559
0.0110874
0.00445629
0.00583435
0.0093216
0.0059368
0.00584633
0.0113079
0.00585672
0.00245538
0.00579973
0.00582107
0.00585403
0.0156429
0.0059398
0.00159654
0.00197367
0.00595811
0.00593074
0.0112823
0.00955351
0.00584534
0.00592602
0.000676
0.00588793
0.0059299
0.000876366
0.00586524
0.00595897
0.0097795
0.00593032
0.014609
0.00233804
0.00551607
0.00593963
0.00588258
0.00582233
0.0123176
0.00480757
0.00595709
0.000741503
0.00224332
0.000571379
0.00585452
0.00179724
0.00579947
0.00587932
0.00588451
0.0059402
0.0106275
0.00502725
0.0151109
0.0058282
0.00585562
0.0058137
0.00267732
0.012086
0.00595954
0.000792967
0.00216343
0.00197116
0.00584256
0.0114743
0.00589459
0.00179306
0.00914856
0.00587401
0.00585689
0.00577886
0.0058532
0.00203078
0.00586044
0.00582728
0.00215923
0.000474837
0.00585134
0.0092748
0.00582861
0.00590138
0.00587011
0.0117135
0.005844
0.00229022
0.00322762
0.00336388
0.00587767
0.0113901
0.00590829
0.00257799
0.00595237
0.0059198
0.00274014
0.000717252
0.000959541
0.0151788
0.00563809
0.00594442
0.00592304
0.00175486
0.00964142
0.00581848
0.000636178
0.00594416
0.00582195
0.00585977
0.00585047
0.00588922
0.00805675
0.00603635
0.00590788
0.00278688
0.00593337
0.00586955
0.00144317
0.00225225
0.0116774
0.00581946
0.00582145
0.00583166
0.0085731
0.00385878
0.00534849
0.00591736
0.010441
0.00592469
0.00549142
0.00592332
0.0131698
0.000737582
0.0060296
0.0159703
0.000918887
0.0059563
0.00601507
0.00563719
0.000941139
0.00583135
0.00712938
0.00641144
0.00608005
0.00191342
0.00549799
0.00583072
0.00592109
0.00188279
0.00601954
0.0100579
0.00582604
0.000660391
0.0024064
0.000157933
0.00600306
0.00257961
0.00346758
0.00719187
0.00579985
0.0059964
0.00591993
0.00906898
0.00585543
0.00439753
0.0119536
0.000927313
0.00579685
0.00787174
0.00128406
0.0090079
0.0178789
0.0057994
0.00372813
0.00590252
0.00264819
0.00584893
0.00583616
0.0117553
0.000941501
0.00601982
0.00579947
0.00601191
0.00583933
0.00580081
0.00252971
0.00585884
0.00730645
0.0125894
0.00588356
0.00591965
0.000875858
0.00591768
0.00173408
0.00593091
0.00872579
0.00585488
0.00902073
0.00804757
0.00089857
0.00584495
0.00595742
0.00579771
0.0010246
0.0182071
0.00395092
0.000932883
0.0057992
0.0051452
0.00596429
0.0059284
0.000508078
0.012147
0.00585328
0.000610714
0.000919407
0.00999992
0.00595355
0.00582572
0.00197891
0.00587885
0.00584683
0.00587933
0.0058833
0.00191493
0.0103882
0.00216629
0.00186811
0.00540106
0.000927571
0.00595487
0.0058888
0.0103082
0.00131827
0.00965992
0.00255137
0.00588477
0.00559861
0.00589055
0.00543158
0.0047968
0.00123611
0.00178624
0.00463032
0.00389655
0.00182048
0.000944132
0.00743274
0.00901383
0.0122824
0.00966778
0.00593235
0.00230807
0.00518476
0.0121573
0.000589825
0.0037775
0.0103054
0.00293286
0.000943319
0.00592008
0.00831324
0.00165746
0.00584309
0.00348947
0.00585799
0.0134762
0.00384245
0.00402891
0.00583834
0.00256867
0.000615557
0.00582
0.0046049
0.00742117
0.002041
0.00588084
0.00589297
0.00391041
0.00228508
0.00595886
0.00132184
0.0128622
0.0115434
0.00595924
0.0058131
0.0114227
0.00591682
0.00342662
0.00175008
0.00600266
0.0101464
0.00590712
0.0023773
0.00594656
0.00366927
0.000967411
0.00556131
0.00775318
0.00132642
0.0056272
0.00692146
0.00476211
0.0091099
0.00590201
0.00383601
0.00166725
0.00575725
0.00588191
0.00588183
0.00187245
0.00582341
0.0139374
0.00743878
0.00565522
0.00423616
0.00133838
0.000770743
0.00328494
0.000664547
0.00281452
0.00211138
0.00113778
0.00888129
0.00149344
0.00120929
0.00233552
0.00184329
0.00174294
0.0025065
0.00592302
0.0054502
0.00220297
0.00645013
0.00208013
0.00585574
0.00592907
0.0021089
0.00592939
0.00589777
0.00548482
0.00493903
0.00583002
0.00588365
0.00246495
0.00216949
0.00188821
0.00102964
0.0013188
0.0112056
0.00507326
0.0058832
0.0103832
0.0123599
0.00586579
0.00579691
0.00593252
0.0107965
0.00444257
0.00565864
0.00589991
0.00791702
0.00590097
0.0059591
0.00221403
0.00562553
0.00563188
0.000501589
0.00580143
0.00568761
0.00588563
0.00111262
0.00734503
0.00435086
0.00582616
0.00786651
0.0058267
0.00601424
0.00624768
0.00333339
0.00576238
0.00121226
0.00484569
0.0157284
0.00271974
0.00727304
0.00196989
0.00625874
0.00270364
0.00179842
0.0100082
0.00579979
0.005658
0.00188393
0.0057977
0.00228017
0.00568825
0.00563505
0.000573286
0.00591679
0.00589027
0.00175581
0.00579781
0.00600571
0.00592191
0.00238689
0.00510233
0.0018353
0.0116388
0.00583783
0.00586547
0.00117274
0.00180713
0.000685543
0.00302244
0.00127356
0.00278579
0.000676638
0.00594619
0.00163448
0.00615516
0.00593328
0.0100674
0.00165886
0.00459611
0.0103049
0.00152275
0.00549486
0.00529199
0.00578881
0.00588587
0.00190873
0.0067579
0.0010702
0.00557231
0.0132259
0.00743788
0.00555063
0.00541079
0.00507
0.00582295
0.0058765
0.00192582
0.00594447
0.00582312
0.00579633
0.00593498
0.00565032
0.0058165
0.00425395
0.00248663
0.00593097
0.00599552
0.00595117
0.00585549
0.00583302
0.00581683
0.00588854
0.00208229
0.001364
0.00207647
0.00187803
0.0132226
0.0117751
0.00186218
0.00401748
0.00132607
0.00551392
0.00583369
0.0058743
0.0058226
0.00578311
0.00138557
0.00588682
0.00135931
0.0077617
0.00312571
0.00367848
0.00260627
0.00284237
0.012486
0.00592662
0.00389802
0.0058658
0.00382508
0.00595394
0.005858
0.000894029
0.00593711
0.00191998
0.00378399
0.00371692
0.00588604
0.00313366
0.00116129
0.00190548
0.00600464
0.00163276
0.00259797
0.00494517
0.00198187
0.0136623
0.00581417
0.00130498
0.00562424
0.000710751
0.00518764
0.00778034
0.0158518
0.00176968
0.00511554
0.0058947
0.00638568
0.00583648
0.00456412
0.0100819
0.00596543
0.00179803
0.0059575
0.00178409
0.00583626
0.00594452
0.00584418
0.00636912
0.000604329
0.00581493
0.0111764
0.00581631
0.000676659
0.00279829
0.00609667
0.00653796
0.00609886
0.0021777
0.00175963
0.00140177
0.000784766
0.00377482
0.00253016
0.00582201
0.00319879
0.0013713
0.00474069
0.00593938
0.00581274
0.00844791
0.005872
0.0181476
0.0055527
0.0172718
0.00137437
0.00164015
0.00591596
0.00484731
0.00451544
0.00317107
0.00166818
0.00582097
0.0046072
0.0101724
0.0115612
0.00412269
0.00599612
0.00137789
0.00891536
0.00581235
0.00479721
0.00443819
0.00581834
0.00586927
0.00169836
0.00138492
0.00585635
0.00596443
0.00586591
0.00596862
0.00998785
0.00406026
0.00227857
0.00585136
0.000890968
0.0103073
0.0115433
0.00466483
0.00116816
0.00380185
0.0110637
0.00331759
0.00903515
0.00329116
0.000921488
0.0100213
0.00595911
0.00583465
0.00595769
0.00588319
0.00517443
0.00492864
0.00199583
0.00843847
0.000895503
0.0039695
0.00980624
0.00141948
0.00282215
0.00585832
0.00359451
0.00297324
0.00465873
0.00206018
0.0170973
0.00138285
0.00729031
0.00320688
0.00180697
0.00087399
0.0116863
0.00718591
0.00662317
0.00762218
0.00164091
0.00641007
0.00582536
0.00288357
0.00584227
0.00594237
0.00748301
0.00299401
0.00195346
0.00899779
0.00443761
0.00551937
0.00588866
0.00117781
0.00691336
0.00264545
0.0127911
0.000707017
0.00139048
0.00294033
0.00581251
0.00264883
0.00564819
0.00483804
0.00502847
0.00215221
0.00583811
0.0196295
0.00546381
0.00586418
0.00579692
0.0119299
0.00082804
0.00529147
0.00433085
0.00579701
0.00378761
0.005812
0.00165871
0.00218273
0.0058364
0.0059233
0.0019382
0.0132429
0.00590527
0.00118934
0.00137646
0.00292553
0.00586725
0.00136443
0.000814591
0.00583495
0.0115368
0.0126626
0.00584501
0.00270526
0.00591616
0.00585571
0.00529494
0.00476561
0.00604073
0.000796667
0.00832142
0.00497973
0.0113524
0.00585623
0.00270227
0.00579956
0.00585502
0.00158342
0.00584553
0.00592928
0.00745842
0.00565049
0.000866372
0.00592017
0.00256763
0.0049715
0.00563761
0.00591556
0.00241846
0.00686814
0.0060112
0.00682256
0.00563809
0.00308024
0.00326946
0.00491206
0.00688913
0.00597946
0.00632345
0.00577201
0.0173618
0.000804531
0.00594343
0.00578251
0.00606916
0.00593502
0.0027157
0.00528634
0.00233597
0.00587952
0.00594256
0.00594275
0.010345
0.000574446
0.00136072
0.000915282
0.00107285
0.00090375
0.00223776
0.00396077
0.00577021
0.00176688
0.00589873
0.00543837
0.00393119
0.00565617
0.00515417
0.00227918
0.00122213
0.00563874
0.00744915
0.00487597
0.00588468
0.00173855
0.00279804
0.00238723
0.00588873
0.00575288
0.0111613
0.00393842
0.00105239
0.00263646
0.00787714
0.00451073
0.00605529
0.00596561
0.0059484
0.00781811
0.00583449
0.00682037
0.00585047
0.012438
0.00585322
0.005805
0.00477797
0.00245864
0.00564394
0.00585564
0.00632283
0.00586537
0.00193917
0.00580323
0.00584566
0.011645
0.00107979
0.00518221
0.00392359
0.00093669
0.00941386
0.00121639
0.00432149
0.0156147
0.0110109
0.00870206
0.00973135
0.00247389
0.0020249
0.00590457
0.00563335
0.0152509
0.00593375
0.0119356
0.000501917
0.00826808
0.00878747
0.00179008
0.00585229
0.0057976
0.0122325
0.00582322
0.00308871
0.00295608
0.00587159
0.00582641
0.013041
0.000949351
0.000696238
0.00305577
0.00562467
0.00595786
0.00591851
0.00493282
0.00584134
0.00746951
0.00716281
0.00777106
0.00360343
0.00767658
0.00512249
0.00590595
0.00252159
0.00784637
0.00799023
0.00583533
0.00142043
0.0058988
0.00588541
0.0164391
0.0020003
0.00596404
0.00825918
0.00579016
0.000802621
0.00589821
0.00511624
0.00581625
0.00588289
0.00588555
0.0062617
0.00507759
0.011718
0.00322559
0.00248284
0.00586531
0.0059426
0.00372264
0.00588005
0.00589439
0.00189473
0.00436211
0.0114585
0.00548819
0.00585794
0.00594745
0.0075541
0.00420403
0.00588836
0.00184038
0.0138356
0.00549882
0.0111544
0.00591675
0.0112184
0.0056601
0.00191775
0.011192
0.0058251
0.00579795
0.00290215
0.00596209
0.00591412
0.0161009
0.00408208
0.00586972
0.00744688
0.00587289
0.00760499
0.00582211
0.00592517
0.00591874
0.00324509
0.000877346
0.00286399
0.00938687
0.00347804
0.00579972
0.00587438
0.00592064
0.00604117
0.0058447
0.00334412
0.00120626
0.0122415
0.00436255
0.0079003
0.0036659
0.00592051
0.00592944
0.00511146
0.000814054
0.00847459
0.00578114
0.00566157
0.00562739
0.00136289
0.00356955
0.00573672
0.0059474
0.0154004
0.00596888
0.0058211
0.00271994
0.00237215
0.00404217
0.00802787
0.00308808
0.00718483
0.00273116
0.00522844
0.00587335
0.00383707
0.00808409
0.00581808
0.00592055
0.0019699
0.00579645
0.00596043
0.0057957
0.00280294
0.00575762
0.00587207
0.00585672
0.00579495
0.00729418
0.00722385
0.00589403
0.000653469
0.00582426
0.00363966
0.00592926
0.00266054
0.00593195
0.00261746
0.00586497
0.00560178
0.00278328
0.00872851
0.00587735
0.00466143
0.00130105
0.00581402
0.00827101
0.00155578
0.00582235
0.00328159
0.000698463
0.00593069
0.00553747
0.00591718
0.00584933
0.00110105
0.00123494
0.0102261
0.00576275
0.000787236
0.00991862
0.00592939
0.00592662
0.0014066
0.00582716
0.0059519
0.00218439
0.00490189
0.0058984
0.00592477
0.00592698
0.00281664
0.00596247
0.0059395
0.00332025
0.00123145
0.00218271
0.00515358
0.00433877
0.005891
0.00170961
0.00420701
0.0029502
0.00534115
0.00581893
0.00171742
0.00391597
0.000931705
0.00118397
0.00516237
0.0122933
0.00474762
0.00287363
0.000857623
0.00594811
0.00592666
0.00584684
0.00595879
0.00218367
0.00199347
0.00330064
0.00583918
0.00581623
0.0102096
0.00263663
0.00640714
0.00587081
0.000788009
0.00938885
0.00582257
0.00373987
0.00585904
0.00600747
0.00578179
0.00130221
0.00348029
0.00192655
0.00579843
0.0059496
0.00587949
0.00837326
0.00579858
0.00509411
0.00215127
0.005879
0.0110112
0.00585532
0.00592872
0.00563298
0.00121891
0.00458449
0.00710279
0.00588529
0.00874173
0.00208227
0.00591555
0.00585035
0.000620968
0.00284092
0.00282484
0.00597737
0.00592132
0.00303354
0.00596064
0.00319358
0.0057968
0.00475259
0.00403459
0.00588258
0.00665383
0.00591756
0.00586233
0.00594303
0.00596541
0.00103178
0.00249434
0.000992121
0.00581336
0.00585053
0.00214397
0.00368766
0.00546384
0.00585723
0.00582696
0.00588042
0.00589995
0.0056622
0.00108833
0.00580942
0.00582215
0.00554802
0.00591897
0.0055735
0.00174456
0.00255015
0.00474167
0.00594633
0.00551714
0.00204493
0.00545601
0.00406612
0.005833
0.00594276
0.00197392
0.00594742
0.00503193
0.00590383
0.00285873
0.0067163
0.000633445
0.000865832
0.00595691
0.00582514
0.00105596
0.00596422
0.00171581
0.00579966
0.00623527
0.00207359
0.00353737
0.00169084
0.00588709
0.0078865
0.0059384
0.000821017
0.00126032
0.00465169
0.00526045
0.00601156
0.00594989
0.00582272
0.00583667
0.00591783
0.00582827
0.00602877
0.000842143
0.00514674
0.00499586
0.00172915
0.00246294
0.00561656
0.00527323
0.00320637
0.00125049
0.00596458
0.00787588
0.00141893
0.00529564
0.00592537
0.00594779
0.00268985
0.0179445
0.00580201
0.00365818
0.00259072
0.00591518
0.00591319
0.00496136
0.00554599
0.00583464
0.00282058
0.00595096
0.00588009
0.00839787
0.00594749
0.00498164
0.00208102
0.00324614
0.00102068
0.00585752
0.00284195
0.0058763
0.0130973
0.00265257
0.00580387
0.00746902
0.00582394
0.00388438
0.00583649
0.00604753
0.00410148
0.000825623
0.00574164
0.00184196
0.00580186
0.00582143
0.00547889
0.00313419
0.00803436
0.00515147
0.00220705
0.00282548
0.0112144
0.00581533
0.00168279
0.00595645
0.00550395
0.00355193
0.00596428
0.00105755
0.00592779
0.00580353
0.0141518
0.00606407
0.00594225
0.00179522
0.0188985
0.00374894
0.00181396
0.00437871
0.00588896
0.00600337
0.00281442
0.00579238
0.00582496
0.00449237
0.00583927
0.00659163
0.00503087
0.00584279
0.00579622
0.00593607
0.0059636
0.0149831
0.00595574
0.00158967
0.00578408
0.00580051
0.00160612
0.0058638
0.00345917
0.00156877
0.00438269
0.00270244
0.00583831
0.00585076
0.0132863
0.00386256
0.00584204
0.00584647
0.00579606
0.00585064
0.00575856
0.00341275
0.00267001
0.00582316
0.0113605
0.00589129
0.00593572
0.0136696
0.004035
0.00595726
0.00595283
0.00346296
0.00182973
0.00220148
0.00583766
0.00555426
0.00584695
0.0128195
0.00348139
0.00582334
0.0116666
0.00594912
0.00594595
0.00281578
0.00240317
0.00589973
0.00546408
0.0058444
0.00584933
0.00594643
0.0059268
0.00187635
0.00594888
0.00593439
0.00990231
0.00111212
0.00579352
0.00583617
0.00692199
0.000671036
0.0056046
0.00581405
0.0033921
0.00359143
0.000544954
0.00696926
0.00398443
0.00499961
0.00593421
0.0145328
0.0158781
0.0059419
0.00595878
0.0058231
0.0059405
0.00586597
0.00579375
0.00583442
0.00566205
0.00583256
0.00631776
0.0110994
0.00584962
0.00594562
0.00594578
0.00591774
0.00593453
0.00506621
0.00334786
0.00580083
0.00595855
0.010021
0.00110568
0.0055428
0.0030452
0.0011168
0.00584954
0.00693372
0.00206596
0.00310772
0.00107331
0.00241044
0.000536055
0.00585171
0.00627219
0.00586392
0.00271596
0.00583381
0.00583561
0.00722263
0.00562114
0.00583587
0.000604359
0.00745599
0.00567099
0.00262996
0.00580038
0.00215365
0.0150721
0.00595563
0.00587411
0.00595908
0.00595708
0.0058339
0.00601457
0.00166218
0.00286212
0.00583851
0.00596064
0.00584277
0.00594333
0.00567771
0.00586853
0.00596647
0.00786863
0.00592313
0.00593723
0.00294975
0.00592623
0.00593513
0.00120935
0.00584125
0.00128302
0.0113619
0.00588422
0.0101039
0.00592652
0.00732763
0.00594855
0.00138771
0.00408077
0.00113547
0.0112907
0.00584835
0.00455522
0.00585581
0.00586178
0.000670601
0.00129497
0.0110191
0.00595756
0.00274702
0.005255
0.00386913
0.00421223
0.00583637
0.00206099
0.00595784
0.0071627
0.00216474
0.00304614
0.00593901
0.00599179
0.0100117
0.0186932
0.00125229
0.00282481
0.00475957
0.00584572
0.00593966
0.00588475
0.0080234
0.00350687
0.00123711
0.0059054
0.00590754
0.00279811
0.00595716
0.00482222
0.00566416
0.00585685
0.00592222
0.00268769
0.00592917
0.00754988
0.00596597
0.00283839
0.00589304
0.00597033
0.00582379
0.00743405
0.00583698
0.00595829
0.00582703
0.00065652
0.00579736
0.00824393
0.00582541
0.0048631
0.00125369
0.00258038
0.00584706
0.0024685
0.00616312
0.00209031
0.00582045
0.00593347
0.0058845
0.00585032
0.00595884
0.00591323
0.00584577
0.00602699
0.00771024
0.00592841
0.00159194
0.00582276
0.00210003
0.00461097
0.00599978
0.00711988
0.00590733
0.00194159
0.00260589
0.00289078
0.00195072
0.00916226
0.00525029
0.00594455
0.00507937
0.00119374
0.0127754
0.0154605
0.00567191
0.00592383
0.00586143
0.00586778
0.00585626
0.000495625
0.00228819
0.0114662
0.00591546
0.00592975
0.0122086
0.00588427
0.00590486
0.00101404
0.00325571
0.00601854
0.00596592
0.00243218
0.00584464
0.0011356
0.0155502
0.00119289
0.00284451
0.00588477
0.00586404
0.00156073
0.00955052
0.00162861
0.00591359
0.00494155
0.00593175
0.0028293
0.00334669
0.00587956
0.000974035
0.00584324
0.00583685
0.00532963
0.00176048
0.00481616
0.00607687
0.00587205
0.00258609
0.00579495
0.00593679
0.0103425
0.000580236
0.00189075
0.00480144
0.00489076
0.0100082
0.0198284
0.00591406
0.00589812
0.00221534
0.00591259
0.00520214
0.00587635
0.0129053
0.0018028
0.0059524
0.00581876
0.00468793
0.00590034
0.00584688
0.00857975
0.00586821
0.00579335
0.00604981
0.00776011
0.00587903
0.00589849
0.00175661
0.00129501
0.00282523
0.00811626
0.00358449
0.003071
0.00592654
0.00228466
0.00589012
0.0058392
0.00262343
0.0104129
0.00594909
0.00281918
0.00172507
0.00133757
0.00584963
0.00977593
0.00251101
0.00592655
0.00602483
0.00597784
0.0010817
0.00582272
0.0152152
0.000724259
0.00594196
0.00580135
0.00256405
0.000627072
0.00180885
0.00162188
0.0058057
0.00579656
0.00174993
0.00177163
0.00483458
0.005104
0.00604639
0.00594295
0.00596453
0.0059298
0.00258067
0.00163473
0.00213866
0.00593703
0.00504747
0.00553572
0.00187206
0.00480289
0.00576982
0.0123905
0.00596116
0.00581403
0.00586149
0.00593702
0.00591612
0.00596819
0.00580983
0.00288876
0.00593092
0.00601847
0.00133816
0.005945
0.000578603
0.00596187
0.00588292
0.00586589
0.00594917
0.00489635
0.00201891
0.000507012
0.00594857
0.00582234
0.00253146
0.00594867
0.00588647
0.00515092
0.00603912
0.012342
0.00466087
0.00481799
0.00126349
0.0039509
0.000651955
0.00302599
0.00115609
0.00582254
0.00128498
0.00595497
0.00580778
0.00581655
0.00625376
0.00580953
0.00593675
0.0022909
0.00595076
0.00116487
0.00620733
0.00127755
0.00585899
0.00360605
0.0058262
0.000919482
0.00579218
0.00577334
0.0059392
0.00201963
0.00584873
0.00121493
0.0112734
0.00595908
0.00238431
0.0023597
0.00541297
0.00600478
0.00190273
0.00584248
0.00583572
0.00557142
0.0114885
0.00580617
0.00583487
0.00582314
0.00172894
0.00594268
0.00098959
0.00595421
0.00591192
0.00588751
0.0060465
0.0133298
0.00592069
0.00343557
0.00106933
0.000676546
0.00592754
0.00488672
0.00556479
0.00139641
0.00173789
0.00584289
0.0058144
0.00590101
0.00353036
0.00590165
0.00325935
0.00281857
0.00644117
0.00583807
0.00579392
0.00601265
0.00594676
0.00583189
0.00584357
0.00394194
0.00536929
0.00251952
0.00659332
0.000718712
0.017896
0.00579877
0.00591842
0.0036354
0.00165742
0.00527409
0.00239806
0.00601728
0.00586855
0.00279541
0.00194371
0.000929614
0.0112402
0.00947793
0.00583864
0.00392153
0.00249946
0.00582719
0.00584408
0.00589154
0.00595108
0.00720509
0.00578939
0.00583477
0.000707565
0.0107782
0.00349154
0.00208667
0.00579893
0.00410854
0.00586046
0.00338702
0.00595518
0.00294764
0.00322403
0.00596547
0.00595635
0.00754543
0.00580215
0.00161972
0.00324018
0.00583799
0.000674035
0.00582161
0.00126001
0.00279455
0.00581855
0.0113154
0.00208089
0.00187784
0.00596199
0.00582575
0.00104781
0.008532
0.00595123
0.00215178
0.0106903
0.00583454
0.00188323
0.00978252
0.00270848
0.00582642
0.00995113
0.00588601
0.00106483
0.00585387
0.00774845
0.00583382
0.00588682
0.00583287
0.00216155
0.00595868
0.00475963
0.00510233
0.00522807
0.00336901
0.00585481
0.00307946
0.00449593
0.00436342
0.00594794
0.00270015
0.00588761
0.00601854
0.00217041
0.00581501
0.00606268
0.00565185
0.00596505
0.00593023
0.0150018
0.00997284
0.00132724
0.0130512
0.00277205
0.00595502
0.00595362
0.00773047
0.00521359
0.0127901
0.00264112
0.00589738
0.00587134
0.00205207
0.00309506
0.000537828
0.0113848
0.00582358
0.00453031
0.00589706
0.000654448
0.0143684
0.00941695
0.00585799
0.00596228
0.00599879
0.0124971
0.0058975
0.00585749
0.00198333
0.00586654
0.00595811
0.00566326
0.00620522
0.00620321
0.00582344
0.0058643
0.0058955
0.0181715
0.00582272
0.000876658
0.00143605
0.00588893
0.00306865
0.00971802
0.000953997
0.00590951
0.00589932
0.00582722
0.0102271
0.00475883
0.000888375
0.00185811
0.00389177
0.00308216
0.00221062
0.00595651
0.00325283
0.00480648
0.000727663
0.00134536
0.00265213
0.00261884
0.011887
0.0122064
0.00595878
0.00168573
0.00583558
0.00132815
0.000914934
0.00062814
0.00598063
0.0103404
0.00669522
0.00139676
0.00104065
0.00596166
0.00582578
0.00598283
0.0103418
0.00583757
0.00590708
0.000938443
0.00584201
0.00399471
0.00582707
0.00440995
0.006763
0.00402646
0.0034789
0.00590795
0.00595706
0.00278135
0.00580402
0.00166294
0.00593609
0.00294583
0.00128226
0.000869607
0.0028382
0.00276188
0.0124019
0.0111517
0.00583207
0.00998532
0.0059338
0.00544042
0.0058276
0.00591546
0.00458008
0.00439707
0.00590958
0.00582849
0.00282773
0.00583288
0.00583892
0.00685638
0.000532556
0.00126853
0.00216739
0.00585529
0.00592313
0.00595703
0.00587892
0.0109239
0.0136628
0.00565865
0.00584856
0.00766895
0.0028665
0.00273425
0.0052202
0.00584857
0.00587549
0.00335579
0.00834693
0.00585018
0.00584401
0.00517792
0.00856951
0.00103552
0.00583923
0.00179431
0.00377149
0.00582481
0.00595927
0.00122947
0.00593181
0.00523128
0.0133067
0.00295779
0.00729356
0.00184945
0.00774143
0.00127449
0.0058339
0.00562648
0.00735576
0.0059552
0.00582248
0.00593432
0.00603766
0.00580976
0.00357879
0.00567035
0.00244205
0.00564506
0.00590964
0.00584195
0.00935959
0.00256745
0.00582464
0.00566263
0.0056708
0.000573741
0.00595748
0.0074034
0.00594523
0.011889
0.0110982
0.0028455
0.0059257
0.00314919
0.00339195
0.00585572
0.00310559
0.0119901
0.00223158
0.000799416
0.00579738
0.00591807
0.00760713
0.00597282
0.00234261
0.00127412
0.00706853
0.00598764
0.00202204
0.00594448
0.00589392
0.000759211
0.00593269
0.00236274
0.00140044
0.00593315
0.0110586
0.00525651
0.00305185
0.00586597
0.0056182
0.00145068
0.00587532
0.0109795
0.00586772
0.000803973
0.0147102
0.00584514
0.00139749
0.00475819
0.0113097
0.00584873
0.00274247
0.00438968
0.00593369
0.00592337
0.00266774
0.00590537
0.00997525
0.000962342
0.00582441
0.00821044
0.00584513
0.00103009
0.00583721
0.00585141
0.0059597
0.00589727
0.00106794
0.00971541
0.0107581
0.00582425
0.00954516
0.00284055
0.00218042
0.00104334
0.00560232
0.00582312
0.00252274
0.00579592
0.00459892
0.00585136
0.00364567
0.0058456
0.00579597
0.00312584
0.00374857
0.00587948
0.00289641
0.00589333
0.00587359
0.00582767
0.00789583
0.00827216
0.00595763
0.00126972
0.00259977
0.00451981
0.000822717
0.00585282
0.00248002
0.00287435
0.00589847
0.000546787
0.00587237
0.0160083
0.000612381
0.000856012
0.0102163
0.00980535
0.00257348
0.00560597
0.00840993
0.0118702
0.00571109
0.00315122
0.00583934
0.0148261
0.0105224
0.00222251
0.0109931
0.00587901
0.0074308
0.00331328
0.000959567
0.0061443
0.00591544
0.00204723
0.00385368
0.00591733
0.00109542
0.00292847
0.000923402
0.00211374
0.00596507
0.0058222
0.000801884
0.00596396
0.00694089
0.00305997
0.00593441
0.00724398
0.00593029
0.00570145
0.00596044
0.00445566
0.00232022
0.00572894
0.00550838
0.0059401
0.00455189
0.00116394
0.0058551
0.00586767
0.00122711
0.00153699
0.00594041
0.00236243
0.00386864
0.0058959
0.00593807
0.00592256
0.00151942
0.00592762
0.00269921
0.00218621
0.00786878
0.00590441
0.0111899
0.00587937
0.0189962
0.00584826
0.0122465
0.00105884
0.00588615
0.00508727
0.00586843
0.0103536
0.001519
0.00595407
0.00976769
0.00595256
0.00579284
0.00174291
0.00586125
0.00571264
0.0058888
0.00596575
0.00130521
0.0152733
0.00582491
0.00588349
0.000973763
0.0116243
0.00586075
0.0125592
0.00582426
0.00586668
0.00217328
0.00585641
0.00736206
0.00582476
0.00354661
0.0051301
0.00595702
0.00091129
0.00594492
0.00579429
0.00586199
0.00588789
0.00476463
0.005964
0.00287751
0.00818254
0.0051945
0.00595832
0.00163485
0.0108142
0.00705257
0.00944157
0.00564161
0.00262384
0.00580521
0.00250576
0.00206219
0.0059044
0.00586201
0.00523329
0.00580496
0.00600023
0.00312466
0.00180261
0.00390005
0.00585828
0.00583307
0.00585571
0.00270181
0.00579508
0.000896736
0.00398468
0.00581435
0.00264567
0.00200719
0.00605589
0.00292174
0.00421889
0.00501113
0.00226006
0.000863777
0.00583732
0.00737298
0.00580872
0.00585645
0.00554245
0.0023907
0.00735195
0.00588146
0.00173487
0.00588097
0.00102713
0.00737601
0.00101393
0.00586636
0.00441111
0.00596574
0.00594039
0.00582882
0.0116305
0.000917663
0.00291579
0.00595252
0.00580808
0.0101801
0.00595483
0.00596538
0.00590221
0.00595986
0.0036427
0.00346959
0.00440547
0.00177209
0.00593793
0.00271729
0.00583682
0.00744969
0.0058442
0.00583476
0.00595089
0.00586669
0.00972822
0.0033407
0.00583734
0.00227259
0.00441814
0.0171767
0.0058515
0.00223373
0.00328756
0.00578245
0.00591449
0.00153541
0.00596538
0.0125849
0.00584199
0.00460905
0.0149531
0.00593328
0.00589749
0.00558052
0.0027339
0.00479806
0.00595104
0.00107798
0.00358936
0.00181368
0.00390092
0.00152573
0.00595925
0.0128732
0.00133807
0.00307253
0.00153009
0.00086353
0.00357131
0.00165176
0.00144365
0.00584527
0.00439525
0.00127864
0.00587168
0.00414389
0.00268334
0.00368578
0.00516873
0.00581931
0.00584788
0.00386082
0.00244536
0.0058382
0.00225381
0.00591487
0.00291625
0.00190187
0.0051107
0.00589439
0.00119321
0.0107499
0.00506627
0.00583104
0.00591043
0.00583116
0.00368093
0.015596
0.00628657
0.00476846
0.00583758
0.0059406
0.00645005
0.00590153
0.000723166
0.00569713
0.00485021
0.00257165
0.00104113
0.000685956
0.014943
0.00413641
0.000910672
0.00592015
0.005759
0.00592289
0.00230357
0.0154124
0.00581004
0.00445969
0.00240143
0.00444572
0.00339304
0.00584326
0.00250595
0.00583322
0.00596599
0.00419051
0.00350057
0.00595767
0.00796636
0.00287135
0.00321534
0.00590835
0.00221803
0.00582925
0.000660015
0.00582664
0.0058773
0.00593085
0.00332285
0.00578798
0.00594227
0.00456981
0.00154527
0.00142479
0.00581998
0.00596483
0.00249436
0.000672322
0.00246399
0.00619993
0.00713953
0.00417366
0.00602334
0.00254842
0.00586478
0.00592655
0.00584877
0.00583137
0.00330353
0.00582586
0.00259694
0.0131232
0.00964383
0.00628352
0.001515
0.00440812
0.00591876
0.00300387
0.00591975
0.00177707
0.00535702
0.00254886
0.00610691
0.00588687
0.00582815
0.00282783
0.0058152
0.00594377
0.00584474
0.00310849
0.00323102
0.00584809
0.00593616
0.00569753
0.00235423
0.00782701
0.00973429
0.00605735
0.00596261
0.00375009
0.00504935
0.00583766
0.00254926
0.00992322
0.00585995
0.00593321
0.00337224
0.00591156
0.00559843
0.00579654
0.00184123
0.00171715
0.00588756
0.00770905
0.00594581
0.00595722
0.0059167
0.00595964
0.00777144
0.0154939
0.00477621
0.000942637
0.00296934
0.00593936
0.00586357
0.00588496
0.00576732
0.00591622
0.00406952
0.0141813
0.0010512
0.00578823
0.00582738
0.00593604
0.00592174
0.00104366
0.00070766
0.00256333
0.00586262
0.0106881
0.00590122
0.00585655
0.00822569
0.0058699
0.00594649
0.00327121
0.000737657
0.00596395
0.00590752
0.00586184
0.00584937
0.006127
0.005828
0.00152943
0.0058939
0.00115718
0.00121714
0.000792687
0.00590308
0.00895742
0.00372572
0.00581777
0.00197622
0.00582269
0.00297014
0.000946804
0.00581761
0.00591494
0.00257171
0.0058332
0.00584102
0.00606978
0.005835
0.0059143
0.00593787
0.00357489
0.00393877
0.00593574
0.0058348
0.00594375
0.0113189
0.00595948
0.00593104
0.00515832
0.00587768
0.00143429
0.00593211
0.00582388
0.00489093
0.00162534
0.0058476
0.00595299
0.0058921
0.00295215
0.00581529
0.00172669
0.0121468
0.00762041
0.000936576
0.00546672
0.00401656
0.00512641
0.00162958
0.0057943
0.00738121
0.00595872
0.00583354
0.00179459
0.00244252
0.0154426
0.00103644
0.0105822
0.0058683
0.00299523
0.00291456
0.00160108
0.00593869
0.00594308
0.0027474
0.00165069
0.00138089
0.00319813
0.00274786
0.00598785
0.00579383
0.00298886
0.00590751
0.00591514
0.00346264
0.00113077
0.00578544
0.00419201
0.000925049
0.000848048
0.00967459
0.00586512
0.00594469
0.0058551
0.00211625
0.0116593
0.0121519
0.0105375
0.0112099
0.00304651
0.00595603
0.00584243
0.00188745
0.00156981
0.00155376
0.00591987
0.00588111
0.00548655
0.00506996
0.00591023
0.00177933
0.000621684
0.00593684
0.00590667
0.00990747
0.00591836
0.00582713
0.00589409
0.0058819
0.00622165
0.00584939
0.00105064
0.00130255
0.00431613
0.00588058
0.00583006
0.00312358
0.00515795
0.0099225
0.00410227
0.00579671
0.0015104
0.00590424
0.00800756
0.00261866
0.00314589
0.00588304
0.00174764
0.00170298
0.00579359
0.0059316
0.00971474
0.00592902
0.00596447
0.000534446
0.00586082
0.00595594
0.00305642
0.00265465
0.00473398
0.00132449
0.00165464
0.00951549
0.00177994
0.00224935
0.00112026
0.00134303
0.00185484
0.0128408
0.0143866
0.00584546
0.00590997
0.00742888
0.00592828
0.00185587
0.010018
0.00593127
0.00474419
0.0022558
0.00168638
0.0058909
0.00139172
0.00224022
0.00335979
0.00405336
0.00366382
0.00591721
0.00545343
0.00582647
0.00595373
0.00580944
0.00552845
0.00588299
0.00604913
0.00579263
0.00163245
0.000499032
0.0110422