/*--------------------------------*- C++ -*----------------------------------*\
| =========                 |                                                 |
| \\      /  F ield         | OpenFOAM: The Open Source CFD Toolbox           |
|  \\    /   O peration     | Version:  v2012                                 |
|   \\  /    A nd           | Website:  www.openfoam.com                      |
|    \\/     M anipulation  |                                                 |
\*---------------------------------------------------------------------------*/
FoamFile
{
    version     2.0;
    format      ascii;
    class       volScalarField;
    location    "200";
    object      omega_0;
}
// * * * * * * * * * * * * * * * * * * * * * * * * * * * * * * * * * * * * * //

dimensions      [0 0 -1 0 0 0 0];


internalField   nonuniform List<scalar> 
54593
(
0.0385026
0.0531196
0.0402562
0.116112
0.11497
0.038291
0.0237376
0.149687
0.128439
0.0312059
0.0249454
0.338293
0.0244872
0.0238549
0.0522786
0.0229488
3.17886
0.0243445
0.0229604
0.351606
0.0256131
0.0256784
0.152075
0.0244967
0.0233251
0.0328945
0.427106
0.0360889
0.126058
0.0241038
0.108973
0.125284
0.0228843
0.182345
0.023039
0.0244474
0.0329743
0.378537
2.4472
0.486772
0.193864
0.0258134
0.0243989
0.0244252
0.0236727
0.0266176
0.0237712
0.422617
0.380843
0.0257259
0.0236666
0.0240495
0.0250108
0.0293891
0.0318584
0.0250549
0.147539
0.0249341
0.130128
0.0242463
2.44607
0.0248132
0.0255512
0.0247963
3.14887
0.542139
0.0244789
3.03069
0.0240348
0.0237468
3.18807
0.0240271
0.0293832
0.022889
0.0229154
0.0237813
0.800371
0.02526
0.188329
0.034019
0.0244891
0.0248766
3.18327
2.96918
0.0242352
0.0240424
0.350234
0.0256715
0.0240643
0.183378
0.0236635
0.0244441
3.07027
0.024877
0.633736
0.0341805
0.028617
0.0253044
0.0243864
0.0229869
0.304227
3.13928
0.0248148
0.301879
0.128535
0.235383
0.0240158
0.0589068
0.0229046
0.0243849
0.0237244
0.0252497
3.0803
0.0329047
0.426051
0.0245354
0.0243383
0.0265248
0.106296
0.30389
0.0244757
0.277803
0.0326288
0.0733841
0.0262886
3.19281
0.0241849
0.041672
3.07123
0.024739
0.0254316
0.0266706
0.0236149
0.0372238
0.0244334
0.0230486
0.0365272
0.24622
0.0262134
0.867929
0.0245338
0.0240068
0.0243584
3.51765
0.0242292
0.0364872
0.0313919
0.0299104
0.0243829
3.18121
0.0239774
0.45487
0.0246319
0.0239942
0.0269472
0.319567
0.18016
0.419919
0.0439893
0.0252512
0.0350761
0.0826638
2.94912
0.0235847
0.38577
0.0251831
0.0264237
0.0236289
0.0246461
0.0237396
2.72731
0.0263341
0.0239896
0.0506819
0.0253902
0.0243586
0.0912935
0.03578
3.54217
0.023589
0.0230034
0.0256121
3.06492
0.0361309
0.0477459
0.0245996
1.90098
0.0245533
0.0287952
0.0245179
0.432152
0.304991
0.0258575
0.438926
0.234181
0.0249202
0.0253985
0.0277235
0.228212
0.0255928
2.89702
0.036351
0.0267333
0.0478631
4.03688
0.0263815
0.0232106
0.0491555
0.0265025
1.90227
0.0245007
0.377938
0.0471064
0.326051
0.0261414
0.034325
0.0278429
0.0402401
0.022876
0.0261115
0.0232113
2.71741
0.0240103
2.36175
0.311578
0.234607
0.0265413
2.84705
0.056762
3.0768
1.56543
0.0229047
0.0280365
0.025533
0.0314427
0.0246431
0.0263323
0.303739
0.22786
0.0257626
0.0228658
0.0254285
0.0242176
0.0228682
0.0317966
0.0240541
3.44134
0.41239
0.0243954
0.0233522
0.2484
0.024542
0.0580825
0.0238875
0.853692
0.023863
0.451919
2.86622
0.235483
0.0240677
0.0243499
0.0228161
0.118646
1.25684
0.0715213
0.129168
0.0228739
0.0315778
0.0248747
0.0243787
0.275071
0.411088
0.0240004
0.234721
0.23487
2.474
0.0246322
0.0244964
0.0606083
0.0247672
0.024076
0.024535
0.0244087
0.0457526
3.02185
0.376265
0.0463489
0.029364
0.231247
0.0246502
0.0242874
0.891451
0.0615322
3.00297
0.0730077
0.0245733
0.0387071
0.0241757
0.0291456
0.125748
0.0975303
0.092602
0.0592896
0.0816623
0.102534
0.226439
3.43251
2.9886
3.12531
2.97322
0.025012
0.430227
0.0312063
3.59106
0.464662
0.0375801
3.01695
0.0336604
0.128126
0.0245389
3.08673
0.0736135
0.0242167
0.0383113
0.0240488
0.435938
0.0281044
0.0801446
0.0231864
3.48572
0.229047
0.0229947
0.140755
0.0374029
0.0343806
0.0243718
0.0253334
0.186383
0.0356755
0.0243936
0.0566398
0.949859
3.19912
0.0243922
0.0235906
3.69094
0.0245238
0.0609876
0.0417
0.0256608
0.453572
0.0242927
0.13586
0.0252169
0.0368795
0.127936
0.0283645
3.45823
0.058487
0.0312819
0.0704861
0.0571968
2.97479
0.0230585
0.147136
0.07225
0.0263678
0.0228856
0.0241489
0.100888
0.0263912
0.423383
0.0757912
0.0297674
0.0280342
0.0944106
0.138965
0.0300896
0.355174
0.307383
0.0693912
0.129337
2.83353
0.0954383
0.55997
0.0479266
0.0491325
0.0865084
0.0672951
0.0240135
0.0290114
0.0478897
0.0788548
0.0449344
0.0236249
0.0248963
0.0332751
0.0248926
0.0245904
0.0287673
0.0579586
0.0234079
0.0230271
0.0370838
0.0448006
0.0380584
0.127008
0.0515368
0.459436
0.0326225
0.0245596
0.457662
3.88317
0.0275591
0.0227819
0.0248665
3.09488
4.54612
0.0355914
0.0252599
2.80825
0.0240989
0.0244742
2.7047
0.0283025
0.0387713
0.890763
0.0221266
0.0286806
0.0245688
0.129487
0.393997
4.18492
0.0263437
0.0678404
0.0229716
0.0254203
0.0318509
3.22408
0.0312062
0.170074
0.0259506
0.63829
0.0313996
3.4471
0.0395145
0.0316393
0.0380799
3.15685
3.42155
0.030127
0.0297954
0.0478971
0.0228259
0.13037
0.0286097
0.0282977
0.312531
0.0255866
0.025075
3.12682
0.022826
0.0257052
0.0253056
0.0362719
0.358485
0.0599519
3.51905
0.0243739
0.0243443
0.176505
0.0466374
0.347204
0.0378561
0.057061
0.066631
0.350691
0.0252242
0.0721122
0.0320612
0.0242732
2.52049
0.0867521
0.0462714
3.56559
3.09263
0.0401314
0.0303784
0.0221012
0.0243236
0.0377404
3.16543
0.144434
0.0283362
3.51119
2.70536
0.0402906
0.0293723
0.032748
0.024269
0.0228496
1.58941
0.0248197
0.0242723
0.0227587
0.024809
0.0342512
0.0229119
0.358028
0.192116
0.0248015
0.0260804
0.0246134
0.0239193
0.0234339
0.0265122
0.023045
0.0394888
0.148022
0.065902
0.0703436
3.49067
3.66257
0.0719646
1.09411
0.112248
0.0503083
0.0244801
0.0247373
0.0242281
0.0260737
0.145475
0.0245831
3.03494
2.82092
0.0398909
1.25188
0.0384933
3.17026
3.92203
0.0255382
0.0407742
0.0243392
0.0388107
0.0248754
0.0243098
0.133168
0.02534
0.043589
0.0280979
0.0386328
0.0243336
0.0279322
0.108306
0.0387542
0.0256515
0.155844
2.77629
0.0279668
0.0457533
0.393249
0.0235857
0.196867
0.0322972
0.324662
0.0319577
3.61467
0.633707
0.100627
0.0316155
0.0229976
0.04354
0.023538
0.027983
3.57705
0.0247515
0.0385723
0.0250246
0.0464393
0.0235421
0.0245748
0.0242226
3.14548
0.228647
0.023588
3.17157
0.0264943
0.361151
0.247665
0.0268971
0.0429128
0.027519
0.0468287
0.0847422
0.111524
0.171464
0.0408686
0.151072
0.0242216
0.0386124
0.189091
0.0715592
0.025348
0.0233317
3.00189
0.0251348
1.25961
0.0251986
1.20722
0.146726
0.175512
0.0240265
0.0722587
0.0264127
0.031388
0.171038
0.0229778
0.0456746
0.459997
3.06317
0.0264112
0.0254932
0.146272
2.36315
0.0233356
2.37579
0.0279914
0.0264743
0.0236758
0.183785
0.145465
0.026104
0.0248579
0.0244028
0.0251801
1.9754
0.0269095
0.0353674
0.0245312
0.239308
3.55018
0.307985
0.026088
0.072676
0.273723
0.308414
0.0280487
2.81878
0.0310781
0.233677
3.56072
0.0243689
0.0241833
0.0248304
0.024382
0.0320916
0.0261663
0.054285
0.274091
0.238855
0.0275187
1.9883
0.983679
0.0312065
0.0239272
0.0280459
0.0268702
0.0290994
0.111854
1.22531
0.14586
0.0362041
0.0365857
0.0566405
0.150154
3.49194
2.94685
3.14514
2.39944
0.0765103
0.189042
0.023908
0.356521
0.104748
0.0253159
0.165219
0.031585
0.0600239
2.80344
0.0278311
0.0287605
0.0241578
0.115095
2.99283
0.0707438
3.40234
0.243603
0.144774
0.0622871
0.0233124
0.0706315
0.0276287
0.15889
0.0329968
3.2285
0.0242083
1.40796
3.17944
0.0243932
0.022792
3.08669
0.155557
0.0313127
0.0851523
0.022792
0.0284933
0.0233083
0.047776
0.0355014
0.0245958
0.025577
0.0396981
3.47336
0.0230799
0.10286
0.0991879
0.106255
0.0228941
0.10947
0.135853
0.0234382
3.05388
3.36104
0.0237919
0.0475988
0.024031
0.0252241
0.0487511
0.0257528
0.0316221
0.170198
2.45307
0.06021
3.72734
0.0243064
1.49184
0.0229168
0.025173
3.13508
0.023788
0.0253823
3.41814
0.0276142
0.158984
0.0247275
1.73386
3.84656
0.0312218
0.024166
0.0313642
0.0399499
0.0313721
3.84841
0.0348344
0.031423
0.0316366
0.0567277
0.0400746
0.0246633
3.12878
0.0285102
1.20555
1.15676
0.0238071
0.0260921
0.0267263
0.025369
0.0686474
0.0314417
0.0361921
0.0247652
0.0238052
0.0252047
0.455688
0.593649
0.0940105
0.184021
0.113728
0.180921
0.0362015
0.0276718
0.0285855
0.0396196
0.0240651
0.0297156
0.0276866
0.0349517
0.0252148
0.16035
0.77743
0.0299172
3.40482
0.0401038
0.0247933
0.0753096
3.18561
0.0341838
0.0224099
0.257615
3.04712
0.0655128
0.128752
0.353863
1.45476
0.0505022
0.260955
0.0248392
0.0251877
3.44141
0.0223248
2.98446
0.0256964
3.33118
0.0243304
0.0226673
0.0623732
0.0311176
0.0295343
0.0254119
0.0300672
0.0240949
0.0731565
0.0226641
0.0243162
3.66742
0.145616
2.8399
0.0443235
0.228436
3.407
0.099968
0.0263367
0.422631
3.9325
1.80492
1.5027
0.0689467
0.0436359
0.0230413
0.0277474
0.44017
0.0248164
3.63302
0.817787
0.928946
3.10858
0.0839289
0.0243239
0.022816
3.58093
0.0240839
0.0589707
0.0315769
0.022929
0.0238752
1.53725
0.224818
0.253024
3.20509
0.0313004
0.0250023
0.0255715
0.028907
0.0237466
0.130624
3.20832
3.42585
0.0397806
2.72196
0.0315169
0.0256764
0.0347643
0.108715
2.7516
0.0242507
0.088101
0.0242907
0.0243736
0.819039
0.0590834
0.0248768
0.442655
0.0221132
0.16229
0.0242939
0.0323634
0.0261822
0.0243629
0.0229174
0.0303852
0.142697
0.303689
0.0301917
0.0351194
0.0240924
0.0252725
0.0438076
0.0245379
0.0241452
0.0410375
2.81331
3.93384
0.0291276
0.0239568
0.0248591
2.79159
0.025716
0.0245987
0.0662832
0.632638
0.0296055
0.40147
0.0255975
3.15744
0.0286896
2.69308
3.17874
0.0238736
0.0226153
0.0340619
0.0249613
0.025622
0.285725
0.027234
0.0229116
3.37852
0.0229273
2.93142
0.0240785
0.0240534
0.0247116
0.0297671
0.24893
0.0645284
2.07877
0.0393287
0.0226388
0.0229442
0.0322043
0.026966
0.0243099
0.594335
0.114071
3.93133
0.0258679
2.37962
0.0262942
0.0240374
0.0320463
0.0325009
0.207857
2.70719
0.0267506
0.0275257
0.0316766
0.148215
0.0262357
0.0378147
0.0245923
0.450663
0.0253357
0.0259613
0.034694
0.0340697
0.595337
2.75932
3.22259
2.91629
0.0316364
0.0496734
0.0236793
1.76923
1.79926
0.0264196
0.025543
0.0428435
0.0226118
0.0248796
0.0226044
0.035108
0.0263769
0.0244033
0.024003
0.0226232
2.70828
2.89081
0.0241544
0.16534
0.0243967
0.0361697
0.0246843
3.18517
0.0254369
0.0709583
0.0236954
0.029398
0.457721
2.81179
0.0251782
0.0258146
0.0578458
0.0235934
3.00371
0.0863043
0.0229316
1.78051
0.176546
0.0245883
0.0285361
0.0256396
0.0246597
0.154044
0.140238
2.48654
0.0252691
0.280163
3.12408
0.0237212
0.0254992
0.104598
0.0231343
0.0250938
0.0357185
0.0401343
0.0230153
0.0255189
0.0245709
0.418304
0.0249438
0.0252427
3.20906
0.142398
0.0473626
0.0321493
1.81736
0.0250283
0.0862315
0.166153
0.0378134
0.0652769
0.0229103
0.106051
0.0263432
0.231518
0.161947
0.0486856
3.95687
0.0260097
3.1578
0.256502
0.0243489
0.0240386
0.0240825
0.024853
0.0465164
0.0686173
0.0279498
0.0243753
0.0235843
2.43326
0.0658555
2.68692
0.0229087
0.279959
2.05085
0.0229243
0.0431621
0.0243838
0.0262592
0.0267436
0.10261
0.495479
3.44741
0.0228401
0.0243125
0.0246143
3.6654
0.0228501
0.0317184
0.0468865
0.0246316
2.97137
0.023981
0.025407
0.0317354
0.108551
1.81601
2.90879
0.0241412
2.69013
0.0351133
0.0247214
0.0246674
0.209202
0.0302945
0.101368
0.0245235
0.0246646
0.0279672
0.0247055
0.028204
0.0227819
0.0260644
0.027833
0.02508
0.0429511
0.0244421
0.0236417
0.0238849
0.0248031
0.126391
0.0327957
0.116361
0.0236239
0.0244989
3.42703
0.0263522
0.0290734
0.0239978
0.0231314
0.0250601
0.0273836
0.0402098
0.111806
0.0258197
0.02402
0.0372322
0.0236677
0.0367684
2.72782
0.0341845
0.0251979
0.0246823
0.0293014
0.0388883
0.0299492
0.0272227
0.0241562
0.0238835
0.0367881
0.0251415
0.0281662
0.0256943
0.0374659
0.266505
0.233369
0.251662
0.0249922
0.0239794
0.135053
0.0248481
0.0938337
0.0229171
0.257674
1.46225
0.0268446
0.046913
0.0254789
3.64492
0.0251451
0.197228
0.139015
0.0923919
0.0304855
0.0253936
0.0248155
0.0243628
0.0235293
0.0243758
0.0234046
0.0256211
0.240612
0.0323063
0.0284018
0.0560858
0.031071
0.0291743
0.0281728
0.030329
0.0570274
0.024844
0.0907548
0.105337
0.030376
0.0248914
0.0253892
0.0639144
1.25232
0.0265961
0.0282223
0.0345448
0.0236463
0.0244281
0.0328595
0.028566
0.0235206
0.0626581
0.0252087
0.0250555
0.839609
0.0248005
0.0326696
0.0508513
0.040896
1.19061
0.0243738
0.0342708
0.02557
0.957407
0.0327848
0.0226842
2.933
0.0229404
0.0279509
0.0241756
0.0261191
0.0268413
0.199393
0.439492
0.0742434
0.0265515
0.0240128
0.0295816
0.0317161
0.0835333
0.0251971
0.0759591
0.0345966
3.18058
0.0235819
0.0889517
0.024991
0.431705
0.0281992
0.0248854
0.123696
0.0245684
0.0221359
0.442907
0.0265053
0.0247678
0.0468301
1.51655
0.0361919
0.0764076
0.357014
0.0229349
0.0260695
0.391507
0.0293567
0.0229628
0.0262687
0.023185
3.12957
0.0251749
0.024039
0.022759
0.0252375
0.0246225
0.448039
0.0246124
0.107412
0.0268405
0.0266115
0.160853
0.0252238
0.0280901
0.0831313
0.0262345
0.0378139
0.0242032
0.0246369
0.432875
0.140852
0.0240252
0.0255404
0.0226992
0.0245193
0.0269097
0.0281038
0.037099
0.0243759
3.18565
0.0241112
0.0235626
0.419151
4.7509
0.0249715
0.02517
0.15007
0.0655193
0.0364282
0.0237263
0.0284957
0.0227656
3.36938
0.0282256
0.024096
0.407045
0.0252377
0.0239739
0.0338624
0.0308507
0.0249768
0.109075
0.0394258
0.0246301
0.023974
0.0239211
0.046794
0.0251128
0.0235425
3.18157
0.110001
0.0225938
0.0408246
2.04903
0.178581
0.116322
0.0228879
0.0281057
0.0364388
0.612342
0.326967
0.195264
0.025189
0.0245269
0.410789
0.443494
0.0249138
0.0260193
0.0240927
0.0249486
0.0237715
0.0226058
0.0244512
0.0277451
0.0244846
3.11249
0.909535
0.0246557
0.0252682
0.0252922
0.0246266
0.0245227
0.0319572
0.0299834
0.0293058
0.0243828
0.381511
0.118703
0.0286374
0.0596509
0.102273
0.0245125
0.473498
0.0493372
0.0583047
0.125295
0.0305843
0.228088
0.0245063
0.468103
0.0237639
0.0507529
0.024446
0.0241907
2.04206
0.0280351
0.0237227
0.476573
3.39173
0.0274529
0.038514
0.0221288
0.0477895
1.55436
0.0251138
0.0251486
0.024449
0.0249722
0.0237124
0.0254163
3.15476
0.0342012
0.025166
0.024432
0.0241123
0.0237946
0.0276184
0.0237066
0.0244882
2.63768
0.0251618
0.0251652
0.0317744
0.0252115
0.0254046
0.103884
0.024108
0.0628077
3.18406
0.0246822
3.53847
0.0247688
3.27434
0.0252316
0.0896402
0.0277637
0.122607
3.21033
0.025569
0.0528934
0.0223043
0.0236486
0.32873
0.112356
3.30002
0.0244998
0.0309376
0.0315571
0.0269078
0.0276546
0.024252
0.0375468
0.0243479
2.92096
0.0762465
0.0317965
0.0236393
0.0249843
3.11418
1.55386
0.0585106
0.0494972
0.0471259
0.0242007
0.0236404
0.0246792
0.296191
0.0262096
0.115798
0.0245772
0.0244994
0.0307329
0.0250878
0.0598787
0.0283911
0.0236197
0.0251773
0.048629
0.0247853
2.99508
0.0243645
0.0317607
0.0244495
0.0243481
0.0243831
3.33955
0.0246029
0.0243689
0.0242373
0.243413
0.0265337
0.296745
0.0229563
0.059034
0.101213
0.0719908
0.0242079
0.259035
0.201832
0.0720807
0.0227734
0.0249792
0.0241622
0.0245245
0.0244321
0.0245709
0.024193
0.0257528
3.72251
0.0252254
0.0850146
0.0242591
0.0392704
0.0262288
0.0259923
2.6152
0.0230593
0.0644136
0.0347475
0.063553
0.0408177
2.70043
0.0316827
0.0248221
0.22687
0.120403
3.36238
0.642779
0.0274466
0.0254755
0.0239914
0.0260657
0.0240317
0.224618
0.034451
3.70875
0.0255901
0.0248532
0.417292
0.0254367
0.0236276
1.89022
0.0537789
2.99635
0.0247745
0.118824
0.0241864
0.12176
1.56831
1.97348
0.031799
0.022875
0.0240049
0.0729706
0.9508
0.0462007
0.0256802
0.0259337
0.0247992
0.033473
0.118824
0.0247373
0.135269
0.024033
0.0243652
0.0494277
0.0408267
0.0450683
0.0267388
0.0259876
0.149383
0.0265589
0.0237968
3.38191
0.372501
1.41413
0.0425294
0.0259942
3.01137
1.41647
0.0226031
0.0242064
3.24873
0.0245105
0.03086
0.0240995
0.365959
3.18494
0.0249006
0.0227633
0.0498248
0.0244421
0.0261873
0.449803
0.0241903
0.0225657
0.0258113
3.41301
0.0247402
0.0242082
0.0466032
0.12119
0.033103
3.62946
0.157691
0.0320535
0.0239907
3.24113
0.0245105
0.0237375
0.0345077
2.65136
0.0248757
0.0338147
0.113819
0.101556
0.0246244
3.19877
0.0308007
0.025213
0.0265626
0.0280971
0.0816674
0.0239817
0.636994
0.319464
0.023735
0.0226414
0.0392661
0.247953
0.05887
0.0759064
0.0264196
0.0227053
0.0967921
0.0597914
0.225365
0.0318166
0.0258245
0.023737
0.02485
0.0247827
0.0719706
0.0760392
0.426101
0.0237168
0.0257347
0.0284266
0.0461737
0.0267283
0.0280708
3.6479
0.0249972
0.0233186
0.0249533
0.0237194
0.0242199
0.0245605
0.0257966
0.0316343
0.0242517
0.0256613
0.156897
0.0247814
1.3121
0.0249695
0.0241459
0.0241797
0.0240675
0.0261808
0.146732
0.675621
0.0240739
0.0239755
0.0651144
0.0252524
0.0223935
0.0315563
0.0261021
3.67629
0.0447342
0.0440364
0.120868
0.0281335
0.389279
0.0296983
0.117313
0.0242561
0.158623
0.0248192
0.407483
0.022758
0.413764
0.0232843
0.0247205
0.0821507
0.0253036
2.96015
2.99792
0.103698
0.0242968
0.0275946
0.0232857
0.140321
0.0225204
0.0278336
0.0244732
0.1372
0.0246187
0.10792
3.18432
0.0244043
0.0344109
0.0328812
0.0293248
0.0254814
0.0637194
0.0237617
0.0243638
2.65162
3.19932
0.0226757
0.0243557
0.024369
3.12366
0.0244222
0.216835
0.0246058
0.0251631
0.0228942
0.0266575
3.62355
0.0244391
0.0303049
0.0814806
0.177455
0.0249023
0.0426167
0.0284759
0.0731835
0.450828
0.0237581
0.023324
0.0231213
0.027755
0.0240017
0.041061
0.0334402
0.0350817
0.0235518
0.0226094
0.0254058
0.0248963
0.0244715
0.0237757
0.0275058
0.0478954
0.0363431
3.54928
0.315894
1.25295
0.0226302
0.025364
0.0256498
0.0917933
0.117903
0.0369642
0.0257806
0.0252735
0.49946
0.0626009
0.233127
3.5997
2.94471
0.0262782
0.028011
0.0378943
0.0245707
0.0237724
0.0241695
0.0242327
3.6939
0.0220935
0.0242563
0.327406
3.3303
0.0280565
0.0402268
0.0226239
0.105284
0.0250161
0.0305922
0.0248928
0.0322807
0.0266277
0.0248303
0.0247949
3.60143
0.0226559
0.0418608
0.0292898
0.0245689
0.353597
0.0240654
0.115167
0.0305628
0.0229166
3.70935
0.0369161
0.0743112
0.0248535
0.0239861
0.127973
2.42834
0.0242335
0.032534
3.71895
0.0234804
0.0401202
2.92843
0.0282663
0.0239075
2.84305
0.0245867
0.13819
0.0239949
3.40058
0.0242541
0.0245466
0.0234713
0.0327938
0.0244117
0.026669
0.617273
0.0317008
0.10152
0.0238925
0.108768
3.12791
0.130418
0.0251192
0.0460869
0.0245973
0.0254873
0.12043
0.0229026
0.0259748
0.0275477
0.0248575
0.0242528
0.412358
0.456363
0.107792
0.951787
0.0327363
0.024568
0.0248072
0.318814
0.025896
0.401
0.280475
0.0230545
0.0260068
0.0738514
0.0307015
0.63646
3.1948
0.0229473
4.21402
0.0230581
0.168435
0.408608
2.75239
0.0236448
0.024853
0.151723
0.307469
0.02423
0.0260882
0.0541073
0.0252302
0.0249504
0.02839
0.0729199
0.0342076
0.0530251
0.026109
0.0228868
1.2719
0.023885
0.249546
0.103058
0.0228928
0.117228
2.05654
0.223392
0.023081
0.0229072
0.0233889
2.69031
0.0266582
0.184815
0.0924866
0.0275913
0.0305496
0.0540249
0.0254771
0.0291666
0.0255608
0.310737
0.0533015
0.696004
3.19898
3.97813
0.307352
0.0248196
0.0478108
0.0409936
0.117325
0.237654
0.189524
0.0260492
3.53801
0.284779
0.110299
0.130262
0.0249603
0.0233794
0.026071
3.74021
0.0242196
0.0248056
0.227774
0.0237326
0.0622566
0.0242315
0.0255339
0.237352
0.0594602
0.0279239
0.0247964
0.024267
0.033066
0.0262181
0.096144
0.0244533
0.0390264
0.0541644
0.18192
0.0269699
0.0444135
0.936647
3.62109
0.0234896
2.94081
0.0245052
0.0291593
0.0243326
0.024049
0.025956
0.0515706
0.024137
0.0243337
0.0633806
0.0228818
0.0235588
0.25562
0.664439
0.0927095
0.0454998
0.0238885
0.0345416
0.0245709
0.025934
3.34017
0.406724
0.0275452
0.024108
3.37237
3.14295
0.034629
0.0318653
0.0246474
0.0251564
0.0417361
2.05188
0.0227784
0.022392
0.0312394
2.06747
0.134368
0.0242219
0.539183
0.0427594
0.0243963
0.0244545
0.0727573
0.0237455
0.0309026
3.51678
0.0316144
2.4476
0.0938619
3.48376
0.066281
0.0259766
0.0280014
3.47294
0.0245718
0.0242351
0.0249703
0.0260076
0.0232879
0.0280429
0.0280666
0.0388378
0.027637
0.0242126
0.0237394
2.99272
0.0652504
0.0239003
0.0273821
0.0272172
0.336335
0.0249567
3.21071
0.0345347
3.14339
3.1716
0.0451952
0.0246417
0.512233
0.03155
0.026124
0.0308623
3.51836
0.069039
0.183274
0.0227186
0.0231224
2.97912
0.0245998
0.0498034
0.0551818
0.142613
0.0281809
0.0683976
0.0243912
0.0242195
0.303496
0.0237441
0.0413584
0.119367
0.0254055
3.7407
0.0305646
0.0319669
0.0239919
0.0408259
0.10093
0.0260172
3.12217
0.0260842
0.718864
0.282523
0.0229563
0.0897233
0.0637043
0.396256
0.0241103
0.109719
0.0516134
0.0254036
0.0236643
0.0415524
0.0239872
3.89102
0.121076
0.0244589
0.101486
0.022962
2.86426
0.0242511
0.0229476
0.0244029
0.0243988
0.0863849
3.03832
0.377931
0.024456
3.90783
0.031391
0.0670012
0.112232
0.0281877
0.0242421
0.0401024
0.0227305
0.0351499
0.0229538
0.0278687
0.0252906
0.0227381
0.0403966
0.0281271
0.0258923
3.13325
0.0244455
0.0244061
0.0245635
2.7909
2.33621
0.0245385
0.0585631
0.030414
0.0261576
0.260257
0.0251806
0.028155
0.0290829
0.0243809
0.21118
0.0247488
0.630734
0.208056
0.256077
3.59249
3.03211
0.0729856
0.0281543
3.41861
3.13576
0.0273722
0.108259
0.0243218
0.448072
3.23234
0.0462567
3.89906
0.0241104
3.35257
3.17725
0.221744
0.0304604
0.0247679
0.0524824
0.0256806
0.0241233
0.133606
0.0291676
0.142323
0.0509995
0.0248399
0.0240711
0.15594
0.0246595
0.454675
0.111833
0.0237697
3.4603
0.0254182
0.027065
0.0243504
0.027547
0.0435035
0.027234
0.397214
0.0252391
0.0784291
0.0759857
0.023987
0.0243984
0.141108
0.0826142
0.0238303
0.0406639
0.027949
0.0245851
0.0252783
0.0240172
0.0813942
0.0242325
0.0327154
0.0688026
3.19193
0.0245044
3.16287
0.0243317
1.56106
0.0238252
3.15052
0.0934445
0.0258314
0.0642057
0.0244106
3.58146
0.0840555
0.0251045
0.95857
0.0254451
0.022533
0.0791033
0.0237969
0.0269147
0.0253882
0.0246948
0.092931
0.423465
0.0244836
0.0243578
0.133994
3.21181
0.0243242
3.36307
0.0238662
0.0243825
0.0435478
0.0253148
1.37729
0.0244787
3.08923
0.0284011
0.0250615
0.238338
0.0243903
0.0226225
0.0243253
0.0241611
0.0257751
0.0246555
0.0301059
3.40154
0.0309507
0.0250302
0.0469045
3.67985
1.26574
3.02064
0.0278506
0.0708047
0.0224971
0.075209
0.042717
0.0236852
0.0239866
0.0308185
0.0226922
0.0261281
3.05945
0.16032
0.0255993
0.0237875
0.0245031
0.0261833
0.0335703
0.0267554
0.202773
2.87218
0.0236266
0.0302103
0.0759109
0.02725
0.0626484
0.176846
4.20028
0.0834225
0.147789
0.024195
0.480556
0.0233359
0.0229555
0.0254723
0.0457454
0.0359279
0.0243225
0.0943445
0.0243466
0.128466
1.27798
0.119788
0.0243846
3.15088
0.0247302
0.0253799
0.0230383
3.60895
0.153975
0.0317983
0.0249177
0.0233289
0.358196
0.0244816
0.0246967
0.0236074
0.0241122
0.0277065
0.0285507
0.026509
0.165401
0.0253298
0.0323862
0.0245783
3.31489
0.024047
0.0241773
0.0252031
0.0241748
3.00508
3.1975
0.0242477
0.0379792
2.65748
1.21492
0.0238589
0.0445835
0.0380834
0.0268967
0.0232864
0.0792777
0.0248136
0.586912
0.0239952
0.0290827
0.781051
0.0243624
0.0249532
0.0281581
0.0513313
0.042266
0.0251896
0.860935
0.0493192
0.0789314
0.0678966
0.0936965
0.0244048
0.592911
0.117282
0.0593194
0.0854197
0.236001
0.0380868
0.119381
0.0590639
0.024061
0.0278651
0.0950175
0.0229965
0.0592374
0.037923
0.0422965
2.95132
0.0263969
0.0240625
0.0283339
0.0467961
0.0243153
0.0452544
0.0231124
0.0513435
3.19954
0.0317862
0.0243624
0.0590332
2.90378
0.0252156
0.0242607
0.0248219
0.022897
0.0282113
0.282251
0.0368813
0.0257804
0.0245852
0.0249338
0.114213
0.0239682
0.167705
0.0275673
0.0409564
0.0290817
0.0758539
0.176999
0.782092
0.0274849
0.146945
0.0248139
0.0269097
0.0230817
0.0358919
0.417151
0.0225189
0.0262041
0.0351436
0.0259275
0.0385755
0.0241068
0.0752289
0.0244976
0.0247262
0.138609
0.027245
0.0244265
2.86289
0.0994845
0.0415157
0.0232186
0.0379537
0.0228868
0.375436
0.0228253
0.0236964
0.0251729
0.0271366
0.0266019
0.0238459
0.0466303
0.0817578
0.117193
0.0251981
0.0246629
0.0578286
0.777267
0.0381618
0.0315193
2.78916
0.0589284
0.0259947
0.0610416
0.0249265
0.0244538
0.0257545
0.0241291
0.0342225
0.0227801
0.0279882
0.963922
3.1093
0.0320901
0.0857049
0.102893
0.0233752
0.0295531
0.0247561
0.0551353
0.382188
0.0730776
0.640049
0.0244856
0.0245623
0.0328979
0.0222295
0.0252487
0.0241107
0.0339686
0.0296632
0.0245406
0.0246378
0.0275459
0.0358422
0.117275
2.33375
0.0265798
0.0247313
0.0257008
0.040759
0.0242248
0.0568582
0.455465
0.0237602
0.0240625
0.0375051
0.0245126
3.23923
0.0221387
0.0543599
0.0777807
0.0253829
3.32307
0.0242959
0.0245512
0.0253663
0.0244426
3.47249
0.500833
0.0257434
0.226253
0.0401218
0.0243948
0.0240099
0.0244234
0.0270328
0.023358
2.6428
0.763612
0.131024
0.0220875
0.023883
0.0254327
0.0239449
0.137108
0.172814
0.0371372
0.0237662
3.56064
0.0229546
0.0239412
0.418251
0.0236697
0.0242524
0.0295442
0.16496
0.0248993
0.0252151
0.0243859
0.0239459
0.0304835
0.024351
0.0780545
0.0257673
0.114141
0.104848
0.183552
0.0242356
2.69534
0.382828
0.0235262
0.0703024
0.022779
0.0313067
0.147094
0.0235216
0.0233414
0.073059
0.0235042
0.0239808
0.0327831
0.0235126
0.0233727
0.0239484
0.0262459
0.0256065
0.0246361
0.0242381
0.0251481
0.39151
0.0248796
0.0248777
0.0312766
0.0244268
0.0584113
0.0254774
0.0238862
0.551484
0.204313
0.0239351
0.0250169
0.0246042
0.0421763
0.0228963
0.113712
3.95992
3.29467
2.75303
0.0290101
0.0264422
0.0391997
0.0974411
0.0226025
0.480528
0.025003
0.0234976
0.0573911
0.0328575
1.60136
0.123456
3.254
0.024396
0.0407657
0.0394696
0.209055
0.0249235
0.0249438
0.334751
3.0592
0.164829
2.73896
0.0638477
0.0317316
0.0225718
0.0321041
0.025652
0.0233418
0.0262803
0.112223
0.0266268
0.0256585
0.231376
0.182512
0.875181
0.0239964
0.0244437
0.023925
0.055502
3.247
3.3056
3.19945
3.15477
0.0363786
0.0246692
0.0239896
0.0472765
0.0816257
0.0954838
0.0255231
0.0229172
0.0251467
0.0645171
0.0225602
0.0944964
0.438933
0.0411974
0.0254668
2.39834
0.0255406
0.0227958
0.0257646
0.0246313
0.0534167
0.0227523
0.0756423
0.156438
0.0256987
0.02292
0.0263215
3.25149
4.31192
2.66338
0.0255732
0.0227121
0.107699
0.498922
3.21043
0.0609891
0.0577136
0.025977
0.0811617
0.115437
0.0225966
0.0242261
2.02792
0.0248369
0.0246674
0.310518
0.0243056
0.0246105
0.0282089
0.0329118
0.0350521
0.103884
0.0949523
0.304721
0.0810171
2.6347
0.184908
0.0518565
0.0970785
0.366094
1.60159
0.0227408
0.0240004
3.02388
0.0250105
0.0487166
3.60764
0.0254881
0.0272227
0.0295171
0.0828323
0.0230365
1.81274
0.0467127
0.152372
0.027359
0.0256778
0.0233957
0.0251501
0.0243134
0.0246507
0.0233819
0.0264303
0.0244165
0.026173
0.0225263
0.0710624
0.269136
3.91585
0.0493769
0.0233459
0.105816
0.0391856
0.0258979
0.023043
0.0239361
0.0243428
0.0498137
0.0486333
0.0406566
0.0338282
3.60783
0.0344256
0.0243145
0.0337146
0.0248615
0.0233778
0.0556993
0.1814
0.0273291
2.93515
0.0250463
0.0243898
0.027891
0.0255553
0.0260807
0.0276793
0.112415
0.028919
0.0406313
0.0275972
0.0716954
0.145056
0.0244069
0.0973273
0.0229333
0.0260625
0.0242663
0.0363041
3.26183
0.0248174
0.0367854
0.0501678
0.0259871
0.024274
0.0426484
0.0274792
0.442052
0.024678
0.0408992
0.0470208
3.21562
0.389441
0.0259122
0.0274141
3.28296
0.0388363
0.0241147
0.0242999
0.0444017
3.2407
0.0259116
0.0260125
0.0251225
0.0239525
0.0341372
3.27331
0.123505
0.0225393
0.0245625
0.0254264
0.0252809
0.059999
0.0239097
0.116002
0.0235698
0.0236691
0.023711
0.0258368
0.0236251
0.0615601
0.0228557
0.0487544
3.52353
0.022616
0.0249066
3.24585
0.0954944
0.423967
0.0278306
0.601896
0.446622
0.140075
0.0255173
3.33285
3.10418
0.0302923
0.0626826
0.0240192
3.63789
0.185284
0.0245708
0.38398
0.023929
0.0251482
0.0241811
0.044654
0.024217
1.51321
0.0288641
0.0268037
0.026375
0.022866
0.034034
0.0780967
0.0373051
3.81577
0.113699
0.0235527
0.391438
0.0264324
0.0415905
0.0993103
0.0280718
0.189066
0.0979444
0.0228501
0.0266604
0.0269261
0.221202
0.0230847
0.0255994
0.0547727
0.0288329
0.123928
0.111352
3.94118
0.025925
0.106232
0.0274327
0.601822
0.0243483
0.0228402
0.431715
0.224629
1.69472
3.76158
0.0230358
0.0230654
0.0277909
1.73304
0.0582567
0.0339816
3.30133
0.351534
0.070897
0.0624998
0.0287161
3.08131
0.189627
0.0356294
0.0729824
0.0251679
0.946426
2.93249
0.070628
0.0689339
0.0241231
0.025454
0.227094
0.0239891
0.0546756
0.221616
0.0230571
0.0239545
0.112124
0.0229129
0.207345
0.0321494
0.0350951
0.0482813
0.0242501
0.0261127
0.0963895
0.0251368
0.0356912
0.0242142
0.0243968
0.0231109
0.0593817
1.29223
0.0248982
0.041986
2.75789
0.0239751
0.0222894
0.0418601
0.0266304
0.0238755
3.16759
0.0262028
0.0285807
3.15147
0.0250703
0.0258574
0.122944
0.0247428
0.0261774
0.0245739
0.0242983
0.0239053
0.659216
0.245321
0.1822
0.0243081
0.0242938
0.067027
0.516377
0.0251615
0.30887
0.0231995
0.0249484
2.00482
0.0258235
0.022135
0.0540274
0.0467549
0.096872
0.0249693
0.126705
0.0354474
0.0255484
1.35709
0.0245535
0.0518048
0.032573
4.04917
0.0246174
0.0246431
2.92138
0.0433709
0.0243897
0.0580461
0.0225024
3.39884
4.57919
3.24231
2.87039
0.11998
0.0551936
0.335981
0.0255267
0.238467
0.0251566
3.07667
0.0241674
0.0226497
0.0476275
0.0947006
0.0365124
2.00053
0.0225246
0.162715
0.16821
0.0241501
0.0537819
3.06823
0.0277312
3.70521
0.0439558
3.2372
2.82525
0.0238946
0.0664247
0.0248985
0.0338977
3.78657
0.0267186
0.0333809
0.231769
0.0244864
3.81054
0.0266407
0.0236934
0.46113
0.17093
0.0243536
0.377191
0.071645
0.0242544
0.0302788
0.0714693
3.57939
0.0240741
0.0827121
0.0543089
3.27174
0.0613973
0.346427
0.0927431
0.0350087
0.0241479
0.0331902
0.0256504
0.0264111
0.0260738
0.0552409
3.63386
0.962056
2.34321
0.0225335
0.0386934
0.106687
3.26567
0.0588493
0.0264267
0.0249886
3.37745
0.041021
0.0248309
0.0239227
0.0256775
3.62572
0.0248955
0.0242034
0.0255056
0.0239532
0.0243334
0.0241636
0.030329
3.22213
0.0255737
0.0382187
3.26933
0.0591329
0.0278946
0.02423
0.0236927
0.0249275
0.0606384
0.441204
0.0244904
0.0266163
0.0252035
0.336088
0.114065
0.313026
0.0278835
3.19907
0.0338296
0.026808
0.0235571
0.130796
0.122375
0.316075
0.0249182
0.0639658
0.0235501
3.81902
0.388984
0.0246152
0.0241279
0.365857
0.0242847
3.17588
0.0369096
0.390583
0.0250903
0.0342708
0.0581442
0.193974
0.025868
0.0237372
0.0225527
3.73706
0.0242113
0.0955896
0.0242886
0.0248573
0.0244714
0.0243371
0.043761
3.20653
0.206801
3.62275
0.0259715
0.0493298
0.0277793
0.0277238
3.95708
0.0483419
0.0238293
3.26418
2.98766
0.0244418
0.0247282
0.0232821
0.0245893
0.073013
0.0241643
0.0242225
0.0248728
0.0243687