/*--------------------------------*- C++ -*----------------------------------*\
| =========                 |                                                 |
| \\      /  F ield         | OpenFOAM: The Open Source CFD Toolbox           |
|  \\    /   O peration     | Version:  v2012                                 |
|   \\  /    A nd           | Website:  www.openfoam.com                      |
|    \\/     M anipulation  |                                                 |
\*---------------------------------------------------------------------------*/
FoamFile
{
    version     2.0;
    format      ascii;
    class       volScalarField;
    location    "200";
    object      omega;
}
// * * * * * * * * * * * * * * * * * * * * * * * * * * * * * * * * * * * * * //

dimensions      [0 0 -1 0 0 0 0];


internalField   nonuniform List<scalar> 
54593
(
0.0385184
0.053281
0.0402736
0.116104
0.114964
0.0383145
0.0237376
0.149685
0.128427
0.0312057
0.0249454
0.338916
0.0244872
0.0238549
0.0519701
0.0229488
3.17843
0.0243445
0.0229605
0.351774
0.0256133
0.0256784
0.152219
0.0244967
0.023325
0.032894
0.427212
0.0360471
0.126074
0.0241037
0.108805
0.12231
0.0228843
0.182286
0.0230389
0.0244474
0.0329738
0.378479
2.4485
0.48294
0.193729
0.0258134
0.0243989
0.0244252
0.0236727
0.0266178
0.0237712
0.422777
0.380794
0.0257259
0.0236666
0.0240494
0.0250107
0.0293889
0.0318584
0.0250549
0.147537
0.0249341
0.130189
0.024246
2.44729
0.0248132
0.0255511
0.0247963
3.14851
0.539225
0.0244789
3.03063
0.0240348
0.0237468
3.18762
0.0240271
0.029383
0.022889
0.0229154
0.0237813
0.799007
0.02526
0.188211
0.0340184
0.0244891
0.0248766
3.18283
2.96924
0.0242352
0.0240424
0.350566
0.0256717
0.0240643
0.183386
0.0236635
0.0244441
3.07022
0.024877
0.633391
0.0341803
0.0286164
0.0253044
0.0243864
0.0229869
0.304233
3.13933
0.0248147
0.301935
0.127696
0.235321
0.0240158
0.0589035
0.0229046
0.0243849
0.0237244
0.0252497
3.08009
0.0329039
0.426252
0.0245354
0.0243383
0.0265251
0.105937
0.303886
0.0244757
0.277853
0.0326284
0.0733896
0.0262886
3.19234
0.0241849
0.0416698
3.07109
0.024739
0.0254317
0.0266704
0.0236149
0.0372233
0.0244334
0.0230486
0.0365266
0.246141
0.0262134
0.864631
0.0245338
0.0240066
0.0243584
3.51683
0.0242292
0.0364867
0.0313919
0.0299105
0.0243829
3.18076
0.0239774
0.44765
0.0246319
0.0239942
0.0269471
0.319768
0.180168
0.420092
0.0440694
0.0252511
0.0350976
0.0826603
2.94922
0.0235847
0.386107
0.0251831
0.0264239
0.0236289
0.0246461
0.0237396
2.72717
0.0263341
0.0239895
0.0506828
0.0253903
0.0243586
0.0912875
0.0357793
3.54134
0.023589
0.0230034
0.0256123
3.06465
0.0361249
0.0478524
0.0245996
1.90201
0.0245533
0.0287946
0.0245179
0.431571
0.305062
0.0258576
0.439472
0.234224
0.0249202
0.0253985
0.0277235
0.228251
0.025593
2.89719
0.0363065
0.0267333
0.0478612
4.03706
0.0263815
0.0232105
0.0491534
0.0265025
1.9031
0.0245007
0.378957
0.0471063
0.319302
0.0261414
0.0343248
0.0278429
0.0402368
0.022876
0.0261115
0.0232112
2.71724
0.0240103
2.36284
0.311141
0.234652
0.0265411
2.84729
0.0567588
3.07663
1.56502
0.0229047
0.0280366
0.0255332
0.0314425
0.0246431
0.0263323
0.303561
0.227899
0.0257626
0.0228658
0.0254285
0.0242176
0.0228682
0.0317966
0.0240541
3.4413
0.41243
0.0243952
0.0233522
0.248451
0.024542
0.0580794
0.0238875
0.850094
0.023863
0.452029
2.86642
0.235525
0.0240676
0.0243499
0.0228161
0.118636
1.25532
0.071468
0.129155
0.0228739
0.031579
0.0248747
0.0243787
0.274857
0.411096
0.0240004
0.234739
0.234912
2.47935
0.0246322
0.0244964
0.0606064
0.0247671
0.0240759
0.0245348
0.0244085
0.0457507
3.02178
0.379061
0.046347
0.0293639
0.231287
0.0246502
0.0242872
0.888806
0.0615204
3.003
0.0730121
0.0245733
0.0386898
0.0241757
0.0291454
0.126645
0.0975245
0.0926001
0.0594641
0.0817109
0.102538
0.226475
3.43251
2.98874
3.12555
2.97329
0.025012
0.433268
0.0312074
3.59018
0.465599
0.037573
3.01689
0.0336603
0.128117
0.0245389
3.0864
0.0736087
0.0242167
0.0383034
0.0240488
0.435603
0.0281045
0.0802669
0.0231864
3.48585
0.229064
0.0229947
0.141754
0.0374163
0.03438
0.0243718
0.0253333
0.187093
0.0356752
0.0243936
0.0566363
0.948927
3.19862
0.0243922
0.0235906
3.69019
0.0245238
0.0608747
0.0416979
0.0256608
0.453334
0.0242927
0.137068
0.0252169
0.0368738
0.127927
0.0283639
3.4582
0.0584765
0.0312795
0.0708223
0.0573619
2.97493
0.0230585
0.147725
0.0722453
0.0263683
0.0228856
0.0241488
0.100893
0.0263914
0.423428
0.0762378
0.0297664
0.0280344
0.0944045
0.138952
0.0300896
0.355461
0.312239
0.0693892
0.12934
2.83387
0.0954375
0.555873
0.0479264
0.0491304
0.086506
0.0672954
0.0240135
0.0290112
0.0479028
0.0792819
0.0449425
0.0236249
0.0248963
0.0332746
0.0248926
0.0245895
0.0287671
0.0581592
0.0234079
0.0230271
0.0370832
0.044809
0.0380574
0.126999
0.0515295
0.459289
0.0326215
0.0245596
0.457569
3.88246
0.0275565
0.0227819
0.0248665
3.09463
4.54635
0.0355934
0.0252598
2.8084
0.0240988
0.0244743
2.70332
0.0283014
0.0387488
0.897618
0.0221266
0.0286804
0.0245688
0.12949
0.395878
4.18535
0.026344
0.0682261
0.0229716
0.0254203
0.0318571
3.22481
0.0312018
0.170082
0.0259507
0.6382
0.0313996
3.44711
0.0395151
0.031644
0.0380844
3.1583
3.421
0.0301223
0.0297944
0.0478951
0.0228259
0.130366
0.0286095
0.0282965
0.312025
0.0255865
0.0250763
3.12823
0.022826
0.0257052
0.0253073
0.0362712
0.358638
0.0599504
3.51823
0.0243739
0.0243443
0.176516
0.0466355
0.347861
0.0378608
0.057056
0.066632
0.351069
0.0252241
0.0721102
0.0320712
0.0242732
2.52563
0.0867598
0.046265
3.56495
3.09424
0.0400992
0.0303792
0.0221012
0.0243233
0.0377394
3.16513
0.144473
0.0283365
3.5104
2.70507
0.0402457
0.0293717
0.0327467
0.024269
0.0228496
1.59635
0.0248196
0.0242723
0.0227587
0.024809
0.034254
0.0229119
0.35808
0.19493
0.0248015
0.0260804
0.0246134
0.0239193
0.0234339
0.0265124
0.023045
0.0394896
0.148027
0.0659007
0.0703415
3.48989
3.66175
0.0719625
1.08859
0.112246
0.0499964
0.0244801
0.0247373
0.0242281
0.0260741
0.145478
0.0245831
3.03658
2.82112
0.0398931
1.24875
0.0384934
3.17126
3.92136
0.0255382
0.0407588
0.0243392
0.0388014
0.0248755
0.0243098
0.133157
0.0253399
0.0435877
0.028098
0.0386238
0.0243333
0.0279322
0.108318
0.0387534
0.0256515
0.155847
2.7753
0.027967
0.0457514
0.393975
0.0235857
0.197071
0.032299
0.324914
0.0319557
3.61465
0.633573
0.100588
0.0316154
0.0229975
0.0435706
0.023538
0.0279832
3.57643
0.0247515
0.0385716
0.0250246
0.0464373
0.0235421
0.0245748
0.0242226
3.14517
0.228659
0.023588
3.17118
0.0264943
0.361975
0.248413
0.0268998
0.0429658
0.027523
0.0468397
0.0847385
0.111519
0.171442
0.0408588
0.152676
0.0242216
0.0386121
0.189221
0.071468
0.025348
0.0233317
3.00158
0.0251348
1.25825
0.0251985
1.2057
0.146731
0.1755
0.0240265
0.072226
0.0264128
0.0313882
0.170949
0.0229778
0.0456635
0.459889
3.06456
0.0264113
0.0254932
0.146277
2.36537
0.0233356
2.377
0.0279916
0.0264743
0.0236758
0.183518
0.14547
0.0261038
0.0248579
0.0244028
0.0251801
1.97693
0.0269096
0.0353666
0.0245312
0.239348
3.54956
0.307943
0.0260881
0.0726765
0.274311
0.308348
0.0280488
2.81911
0.0310784
0.233719
3.56012
0.0243689
0.0241833
0.0248304
0.024382
0.0320894
0.0261664
0.0542998
0.274257
0.238899
0.0275188
1.98984
0.992102
0.0312064
0.0239272
0.028046
0.0268701
0.0290998
0.111684
1.22438
0.145863
0.0362162
0.0365893
0.0566374
0.150141
3.49113
2.94686
3.14481
2.40118
0.0765054
0.187342
0.023908
0.362333
0.105338
0.0253159
0.165501
0.0315848
0.0600224
2.80378
0.0278312
0.0287597
0.0241578
0.11509
2.9924
0.0707455
3.40158
0.243639
0.144778
0.0622901
0.0233124
0.0706334
0.0276286
0.159759
0.0329959
3.22978
0.0242083
1.40687
3.17941
0.0243931
0.022792
3.08788
0.155541
0.0313106
0.0855234
0.022792
0.0284934
0.0233083
0.0477737
0.0355006
0.0245958
0.025577
0.0396973
3.47261
0.0230799
0.102851
0.0991803
0.106323
0.0228941
0.109465
0.135841
0.0234382
3.05556
3.36032
0.0237919
0.0475995
0.0240311
0.0252247
0.0486739
0.0257528
0.0316314
0.170177
2.45506
0.0600849
3.72663
0.0243064
1.49635
0.0229168
0.0251734
3.13676
0.023788
0.0253824
3.41813
0.0276141
0.158968
0.0247275
1.73763
3.84694
0.031225
0.024166
0.031364
0.039937
0.0313809
3.84847
0.0348353
0.031423
0.0316367
0.0565382
0.0400609
0.0246633
3.12846
0.0285084
1.20386
1.14936
0.0238072
0.0260924
0.0267264
0.0253689
0.0686488
0.0314396
0.0361914
0.0247651
0.0238052
0.0252047
0.455505
0.588432
0.0940053
0.184029
0.11372
0.180928
0.0362011
0.0276719
0.0285825
0.0396188
0.024065
0.0297175
0.0276867
0.0349534
0.0252148
0.162241
0.785287
0.0299187
3.4048
0.0401071
0.0247933
0.0753049
3.18657
0.0341835
0.0224099
0.258037
3.04641
0.0655902
0.128744
0.360703
1.45357
0.0505265
0.261328
0.0248392
0.0251877
3.44134
0.0223248
2.98413
0.0256972
3.33048
0.0243304
0.0226673
0.0622704
0.0311174
0.0295361
0.0254127
0.0300701
0.0240949
0.0731649
0.0226641
0.0243162
3.66662
0.145666
2.84012
0.0443247
0.228473
3.40644
0.0999591
0.0263368
0.42283
3.9321
1.80485
1.50184
0.0689475
0.0436346
0.0230413
0.0277473
0.440664
0.0248165
3.63216
0.823793
0.930101
3.10834
0.0839267
0.0243239
0.022816
3.58005
0.0240839
0.0589724
0.031577
0.022929
0.0238752
1.53685
0.224853
0.253074
3.20597
0.0312982
0.0250023
0.0255714
0.0289075
0.0237466
0.131262
3.20802
3.42577
0.0397814
2.72114
0.0315168
0.0256763
0.034764
0.109257
2.75169
0.0242507
0.0880973
0.0242908
0.0243736
0.817813
0.0590823
0.0248768
0.443963
0.0221132
0.162272
0.0242939
0.032362
0.0261817
0.0243629
0.0229174
0.0303865
0.143529
0.303608
0.0301917
0.0351193
0.0240924
0.0252725
0.0438088
0.0245377
0.024145
0.0410353
2.81311
3.93339
0.0291292
0.0239568
0.0248592
2.7916
0.025716
0.0245987
0.0662811
0.632164
0.0296064
0.40066
0.0255975
3.15704
0.0286911
2.69404
3.17832
0.0238736
0.0226153
0.0340616
0.0249613
0.025622
0.285836
0.0272341
0.0229116
3.37845
0.0229273
2.93152
0.0240785
0.0240534
0.0247116
0.0297672
0.24898
0.0645286
2.08077
0.0393294
0.0226388
0.0229442
0.0322016
0.0269661
0.0243099
0.603878
0.114062
3.93069
0.0258679
2.38136
0.0262941
0.0240374
0.0320441
0.0324991
0.208013
2.70735
0.0267506
0.0275255
0.0316787
0.148219
0.0262356
0.0378411
0.0245923
0.45082
0.0253357
0.0259608
0.0346943
0.0340695
0.600607
2.75949
3.22352
2.91636
0.0316364
0.0496692
0.0236793
1.77203
1.79919
0.0264194
0.025543
0.0428424
0.0226118
0.0248795
0.0226044
0.0351082
0.0263774
0.0244033
0.024003
0.0226232
2.70758
2.89104
0.0241541
0.165319
0.0243967
0.0361732
0.0246843
3.1862
0.0254369
0.0709626
0.0236954
0.029396
0.466706
2.81214
0.0251782
0.0258146
0.0578338
0.0235934
3.00336
0.0863118
0.0229316
1.78324
0.176539
0.0245883
0.0285354
0.0256396
0.0246597
0.154105
0.140234
2.49118
0.0252691
0.280217
3.12395
0.0237212
0.0254991
0.10459
0.0231344
0.0250938
0.0357177
0.0401369
0.0230152
0.0255189
0.0245709
0.423573
0.0249438
0.0252427
3.20977
0.142395
0.0473621
0.0321474
1.81886
0.0250282
0.0862291
0.166883
0.037814
0.0655315
0.0229103
0.106047
0.0263433
0.231557
0.162018
0.0486539
3.9563
0.0260098
3.15878
0.256578
0.0243489
0.0240386
0.0240825
0.024853
0.046516
0.0686329
0.0279499
0.0243753
0.0235843
2.43778
0.0658561
2.68797
0.0229087
0.280009
2.05265
0.0229243
0.0431386
0.0243837
0.0262593
0.0267437
0.102602
0.499177
3.44711
0.0228401
0.0243125
0.0246145
3.66541
0.0228501
0.0317187
0.0468972
0.0246318
2.97102
0.023981
0.0254071
0.0317381
0.108564
1.81767
2.90895
0.0241411
2.69029
0.0351132
0.0247214
0.0246674
0.209145
0.0302945
0.101612
0.0245235
0.0246646
0.0279672
0.0247055
0.0282039
0.0227819
0.0260645
0.0278331
0.02508
0.0427326
0.0244421
0.0236417
0.0238849
0.0248031
0.12641
0.0327954
0.116351
0.0236239
0.0244989
3.42715
0.0263522
0.0290727
0.0239978
0.0231314
0.02506
0.0273806
0.0402086
0.111797
0.02582
0.02402
0.0372399
0.0236677
0.0367815
2.72862
0.0341845
0.0251978
0.0246823
0.0293023
0.0388868
0.0299505
0.0272228
0.0241562
0.0238835
0.0367869
0.0251415
0.0281665
0.0256943
0.0374659
0.268887
0.233382
0.251717
0.0249922
0.0239794
0.135085
0.0248481
0.0938302
0.0229171
0.25989
1.46858
0.0268447
0.0469104
0.025479
3.64496
0.0251451
0.197182
0.139011
0.0928651
0.030485
0.0253936
0.0248155
0.0243628
0.0235293
0.0243758
0.0234046
0.0256211
0.24065
0.0323042
0.0284021
0.0560826
0.0310708
0.0291723
0.028173
0.030329
0.0570224
0.024844
0.0911175
0.105335
0.0303768
0.0248914
0.0253892
0.0639147
1.25052
0.0265961
0.0282224
0.0345448
0.0236463
0.0244281
0.0328604
0.0285652
0.0235206
0.0626585
0.0252087
0.0250555
0.835561
0.0248005
0.0326705
0.0508682
0.0408968
1.20014
0.0243738
0.034271
0.0255701
0.956638
0.0327845
0.0226842
2.93321
0.0229404
0.027951
0.0241756
0.0261191
0.0268414
0.199358
0.439888
0.0742412
0.0265506
0.0240128
0.0295829
0.0317161
0.0841206
0.0251971
0.0759745
0.0345968
3.18015
0.0235819
0.0889496
0.0249911
0.432024
0.0281993
0.0248854
0.123725
0.0245684
0.0221359
0.442511
0.0265053
0.0247678
0.0468282
1.51763
0.0361882
0.0764053
0.357242
0.0229349
0.0260695
0.398992
0.0293497
0.0229628
0.0262687
0.0231851
3.12921
0.0251749
0.0240389
0.022759
0.0252375
0.0246225
0.448056
0.0246124
0.107408
0.0268395
0.0266115
0.16081
0.0252238
0.0280902
0.0831274
0.0262346
0.0378145
0.0242032
0.0246369
0.432424
0.141484
0.0240251
0.0255405
0.0226992
0.0245193
0.0269098
0.0281038
0.037099
0.0243759
3.18521
0.0241115
0.0235626
0.419229
4.75112
0.0249715
0.02517
0.150632
0.0655177
0.0364273
0.0237263
0.0284961
0.0227656
3.36871
0.0282256
0.024096
0.407078
0.0252377
0.0239739
0.0338626
0.0308505
0.0249767
0.110271
0.0393806
0.0246301
0.023974
0.0239211
0.0467921
0.0251129
0.0235425
3.18135
0.109992
0.0225938
0.0407904
2.04979
0.178575
0.117724
0.022888
0.0281058
0.0364344
0.616058
0.329367
0.195879
0.025189
0.0245269
0.411512
0.443993
0.0249138
0.0260193
0.0240927
0.0249486
0.0237715
0.0226058
0.0244512
0.0277453
0.0244846
3.11213
0.907303
0.0246557
0.0252682
0.0252922
0.0246266
0.0245226
0.0319577
0.0299835
0.0293008
0.0243829
0.380469
0.118718
0.0286365
0.0596537
0.102266
0.0245125
0.473622
0.0493503
0.0583073
0.125288
0.0305841
0.228061
0.0245063
0.468627
0.0237639
0.0507537
0.024446
0.0241907
2.04284
0.0280354
0.0237227
0.477304
3.39167
0.0274527
0.0385141
0.0221288
0.047803
1.55387
0.0251137
0.0251486
0.024449
0.0249722
0.0237124
0.0254163
3.15642
0.0342014
0.025166
0.024432
0.0241123
0.0237946
0.0276186
0.0237066
0.0244882
2.63917
0.0251615
0.0251652
0.0317742
0.0252115
0.0254046
0.103875
0.024108
0.0627954
3.1836
0.0246822
3.53785
0.0247688
3.27411
0.0252316
0.089636
0.0277638
0.1226
3.20985
0.0255692
0.0529682
0.0223043
0.0236486
0.33117
0.112351
3.29949
0.0244998
0.0309375
0.0315547
0.0269079
0.0276547
0.024252
0.0375455
0.0243479
2.92129
0.0762605
0.0317966
0.0236393
0.0249843
3.11406
1.5535
0.0585061
0.0494979
0.0471642
0.0242007
0.0236404
0.0246792
0.296316
0.0262096
0.115791
0.0245772
0.0244994
0.0307328
0.0250878
0.0598545
0.0283927
0.0236197
0.0251773
0.0486297
0.0247853
2.98948
0.0243645
0.0317605
0.0244495
0.0243481
0.0243831
3.33941
0.0246029
0.024369
0.0242373
0.243367
0.0265335
0.296813
0.0229563
0.0590001
0.101204
0.0719954
0.0242079
0.259062
0.203761
0.0720799
0.0227734
0.0249792
0.0241621
0.0245246
0.0244321
0.0245709
0.024193
0.0257528
3.7226
0.0252255
0.0850121
0.0242591
0.0392689
0.0262289
0.0259923
2.61658
0.0230592
0.0644117
0.0347473
0.063556
0.0408167
2.70064
0.0316804
0.0248221
0.227384
0.120397
3.36173
0.642702
0.0274464
0.0254754
0.0239914
0.0260639
0.0240317
0.22459
0.0344507
3.70801
0.02559
0.0248532
0.416573
0.0254363
0.0236277
1.88169
0.0537802
2.99558
0.0247745
0.118943
0.0241864
0.121753
1.56775
1.96539
0.0317989
0.022875
0.0240049
0.0729659
0.95172
0.0461988
0.0256802
0.0259338
0.0247993
0.0334731
0.119188
0.0247373
0.13526
0.024033
0.0243652
0.0495388
0.040826
0.0451071
0.0267388
0.0259875
0.150771
0.0265587
0.0237968
3.38136
0.372548
1.42162
0.0425399
0.0259943
3.01141
1.41552
0.0226031
0.0242064
3.25005
0.0245105
0.03086
0.0240995
0.365922
3.18649
0.0249006
0.0227633
0.0498639
0.0244421
0.0261871
0.449818
0.0241903
0.0225657
0.0258113
3.41292
0.0247402
0.0242082
0.0466012
0.121184
0.0331031
3.62949
0.158201
0.0320535
0.0239907
3.24251
0.0245104
0.0237375
0.0345076
2.6553
0.0248757
0.0338148
0.113817
0.101548
0.0246244
3.19852
0.0308005
0.025213
0.0265626
0.0281002
0.0816704
0.0239817
0.63677
0.3198
0.023735
0.0226414
0.0392713
0.247915
0.0588671
0.0759019
0.0264189
0.0227053
0.0967911
0.0597882
0.225915
0.0318179
0.0258246
0.0237371
0.02485
0.0247827
0.0719752
0.0760347
0.426608
0.0237168
0.0257347
0.0284262
0.0461717
0.0267284
0.0280677
3.64701
0.0249972
0.0233186
0.0249539
0.0237194
0.0242199
0.0245605
0.0257968
0.0316344
0.0242517
0.0256613
0.156941
0.0247814
1.31398
0.0249694
0.0241458
0.0241798
0.0240675
0.0261809
0.146644
0.677342
0.0240739
0.0239755
0.0651175
0.0252525
0.0223935
0.0315575
0.0261021
3.67542
0.0447305
0.044072
0.120863
0.0281335
0.390454
0.0296984
0.117305
0.0242561
0.158629
0.0248191
0.407065
0.0227579
0.413344
0.0232843
0.0247205
0.0821568
0.0253036
2.96174
2.99721
0.103709
0.0242968
0.0275947
0.0232857
0.14031
0.0225204
0.0278318
0.0244732
0.136898
0.0246187
0.107911
3.18389
0.0244043
0.0344105
0.032881
0.0293243
0.0254814
0.0637173
0.0237617
0.0243638
2.65258
3.19884
0.0226757
0.0243557
0.024369
3.1249
0.0244221
0.216866
0.0246059
0.025163
0.0228942
0.0266575
3.62273
0.0244391
0.0303051
0.0814831
0.177423
0.0249023
0.0426457
0.0284752
0.0731789
0.450229
0.0237581
0.023324
0.0231212
0.0277551
0.0240016
0.0410619
0.0334404
0.0350709
0.0235518
0.0226094
0.0254058
0.0248963
0.0244716
0.0237757
0.0275059
0.047896
0.0363425
3.54944
0.315928
1.25107
0.0226302
0.0253641
0.0256498
0.0917916
0.118582
0.0369634
0.0257806
0.0252734
0.496274
0.0625989
0.233172
3.59894
2.94478
0.026278
0.0280111
0.0378944
0.0245707
0.0237724
0.0241698
0.0242327
3.69403
0.0220935
0.0242563
0.327695
3.32976
0.0280566
0.0402281
0.0226239
0.105777
0.0250167
0.0305924
0.0248928
0.0322807
0.0266277
0.0248303
0.0247949
3.60152
0.0226559
0.0418584
0.0292898
0.0245689
0.354028
0.0240654
0.11516
0.0305629
0.0229167
3.70864
0.0369149
0.0743091
0.0248535
0.0239861
0.127966
2.43033
0.0242335
0.0325336
3.71418
0.0234804
0.0401214
2.92857
0.0282661
0.0239075
2.84389
0.0245867
0.138227
0.0239949
3.40046
0.0242541
0.0245474
0.0234713
0.0327934
0.0244117
0.0266691
0.620593
0.0316986
0.101117
0.0238926
0.108371
3.12803
0.131307
0.0251192
0.0460879
0.024598
0.0254873
0.120451
0.0229026
0.0259748
0.0275485
0.0248575
0.0242528
0.412441
0.456246
0.107788
0.950686
0.0327364
0.024568
0.0248072
0.317288
0.0258961
0.401221
0.285508
0.0230545
0.0260067
0.0738504
0.0307014
0.640484
3.19436
0.0229473
4.21417
0.0230581
0.168413
0.408683
2.75259
0.0236448
0.024853
0.149959
0.307452
0.02423
0.026088
0.0541208
0.0252302
0.0249504
0.0283916
0.0732463
0.0342203
0.0522478
0.026109
0.0228868
1.27093
0.023885
0.2496
0.103052
0.0228928
0.116382
2.05874
0.223423
0.0230809
0.0229073
0.0233889
2.69244
0.0266583
0.184822
0.0924847
0.0275914
0.0305497
0.0540245
0.0254771
0.0291666
0.0255608
0.31077
0.0532935
0.693799
3.20001
3.97766
0.307334
0.0248196
0.0478085
0.0410545
0.117327
0.2377
0.189515
0.0260516
3.53737
0.283087
0.110295
0.130286
0.0249603
0.0233794
0.0260733
3.73972
0.0242196
0.0248055
0.227809
0.0237326
0.0621918
0.0242315
0.0255339
0.235613
0.0593656
0.0279239
0.0247964
0.024267
0.0330661
0.0262176
0.0961413
0.0244533
0.039027
0.054156
0.181926
0.0269698
0.0444141
0.935207
3.62035
0.0234896
2.94092
0.0245052
0.0291587
0.0243325
0.0240489
0.0259561
0.0515566
0.0241369
0.0243337
0.063384
0.0228818
0.0235589
0.255841
0.668819
0.0927189
0.0454993
0.0238885
0.0345097
0.0245709
0.0259339
3.3396
0.40675
0.0275451
0.024108
3.37223
3.14393
0.0346287
0.0318629
0.0246474
0.0251563
0.041737
2.05289
0.0227784
0.022392
0.0312405
2.06864
0.134397
0.0242219
0.536651
0.0427461
0.0243963
0.0244545
0.0727578
0.0237455
0.0309015
3.516
0.0316144
2.44913
0.0938607
3.48375
0.0662542
0.0259754
0.0280008
3.47298
0.0245718
0.0242351
0.0249703
0.0260077
0.0232879
0.028043
0.0280682
0.0388372
0.0276368
0.0242126
0.0237394
2.99271
0.0652534
0.0239003
0.0273828
0.0272178
0.336779
0.0249568
3.21039
0.0345132
3.14449
3.17122
0.0451931
0.0246417
0.520654
0.0315503
0.0261238
0.0308622
3.51676
0.0690388
0.183251
0.0227186
0.0231223
2.9789
0.0245998
0.0498043
0.0551724
0.143469
0.0281846
0.0684143
0.0243912
0.0242195
0.303789
0.0237441
0.0413583
0.119363
0.0254056
3.74008
0.0305639
0.0319669
0.0239919
0.0408013
0.100924
0.0260172
3.12185
0.0260842
0.724815
0.28254
0.0229563
0.0897181
0.0635668
0.396819
0.0241103
0.110126
0.0516003
0.0254037
0.0236643
0.0415577
0.0239872
3.89072
0.121065
0.0244589
0.101863
0.022962
2.86565
0.0242511
0.0229477
0.024403
0.0243985
0.0863584
3.03831
0.378753
0.024456
3.90756
0.0313911
0.0670007
0.112222
0.028188
0.0242421
0.040108
0.0227305
0.0351454
0.0229538
0.0278688
0.0252908
0.0227381
0.0403973
0.0281272
0.0258922
3.13419
0.0244455
0.0244061
0.0245635
2.79058
2.3381
0.0245384
0.0585586
0.0304139
0.0261577
0.260339
0.0251808
0.0281549
0.0290829
0.0243808
0.211162
0.0247491
0.630576
0.208003
0.256142
3.59187
3.03212
0.0729878
0.0281536
3.41832
3.13686
0.0273724
0.108446
0.0243218
0.448013
3.23198
0.0462562
3.8987
0.0241103
3.35245
3.178
0.221771
0.030465
0.0247678
0.0524975
0.0256806
0.0241233
0.133612
0.0291675
0.142313
0.0510161
0.02484
0.0240711
0.155932
0.0246595
0.452166
0.111996
0.0237696
3.46032
0.0254182
0.0270655
0.0243504
0.0275471
0.0435036
0.0272342
0.393853
0.0252392
0.0787591
0.075986
0.023987
0.0243984
0.141105
0.0826077
0.0238303
0.0406637
0.0279491
0.0245851
0.0252783
0.0240172
0.0813877
0.0242325
0.0327154
0.0688019
3.18367
0.0245044
3.16247
0.0243317
1.56185
0.0238252
3.15096
0.0934178
0.0258313
0.064177
0.0244105
3.58082
0.0840488
0.0251045
0.95866
0.0254451
0.022533
0.0790994
0.0237969
0.0269152
0.0253881
0.0246948
0.0929404
0.424102
0.0244836
0.0243578
0.133985
3.21128
0.0243242
3.36233
0.0238662
0.0243825
0.0435478
0.0253147
1.37747
0.0244787
3.08969
0.0284014
0.0250614
0.238383
0.0243903
0.0226225
0.0243253
0.0241611
0.0257752
0.0246555
0.0301058
3.40129
0.0309505
0.0250302
0.0469019
3.67533
1.27177
3.02062
0.0278508
0.0708087
0.0224971
0.0752116
0.0427158
0.0236854
0.0239866
0.0308176
0.0226922
0.0261281
3.06012
0.160231
0.0255992
0.0237875
0.0245032
0.0261833
0.0335701
0.0267552
0.202874
2.87119
0.0236266
0.0302102
0.0759103
0.02725
0.0626517
0.177543
4.20047
0.0834281
0.147776
0.0241951
0.480436
0.0233359
0.0229555
0.0254724
0.0457581
0.0359365
0.0243225
0.0943429
0.0243466
0.128496
1.28297
0.119778
0.0243846
3.15109
0.0247303
0.0253799
0.0230383
3.60813
0.153967
0.0317986
0.0249177
0.0233289
0.359214
0.0244817
0.0246967
0.0236074
0.0241122
0.0277066
0.0285507
0.026509
0.165388
0.0253298
0.0323863
0.0245783
3.31471
0.024047
0.0241773
0.0252031
0.0241748
3.00512
3.19818
0.0242477
0.0379789
2.65765
1.21375
0.0238589
0.044583
0.0380824
0.0268966
0.0232864
0.0792712
0.0248136
0.586487
0.0239952
0.0290831
0.779602
0.0243624
0.0249532
0.0281575
0.0513323
0.0422741
0.0251895
0.843078
0.0493208
0.0789295
0.0677827
0.0936936
0.0244048
0.592563
0.117284
0.0593214
0.0854159
0.236039
0.0380874
0.11938
0.0590562
0.024061
0.0278652
0.0950095
0.0229965
0.0592107
0.0379226
0.0422975
2.95052
0.0263967
0.0240625
0.028334
0.0467964
0.0243153
0.0452539
0.0231123
0.0513445
3.201
0.0317876
0.0243625
0.0590271
2.90375
0.0252155
0.0242607
0.0248219
0.0228971
0.0282114
0.282332
0.0368906
0.0257804
0.0245852
0.0249338
0.114889
0.0239682
0.167697
0.0275679
0.0409578
0.0290816
0.0758466
0.176967
0.780626
0.0274851
0.146941
0.0248139
0.0269098
0.0230816
0.0358914
0.417308
0.0225189
0.0262042
0.0351435
0.0259275
0.038576
0.0241068
0.0752313
0.0244976
0.0247262
0.139235
0.027245
0.0244265
2.8633
0.0996184
0.0415166
0.0232186
0.0379538
0.0228868
0.376288
0.0228253
0.0236964
0.0251729
0.0271366
0.0266017
0.0238459
0.0466171
0.0817514
0.117189
0.0251981
0.0246629
0.0578289
0.758668
0.0381614
0.0315254
2.78857
0.0589086
0.0259948
0.0610433
0.024927
0.0244538
0.0257543
0.0241291
0.0342227
0.0227801
0.0279881
0.963483
3.10919
0.0320963
0.0857006
0.10338
0.0233752
0.0295531
0.0247561
0.0551323
0.382433
0.0730821
0.646629
0.0244857
0.0245623
0.0328978
0.0222295
0.0252487
0.0241107
0.0339688
0.0296632
0.0245407
0.0246378
0.0275465
0.0358416
0.117136
2.33799
0.0265798
0.0247313
0.0257008
0.0407767
0.0242248
0.0568586
0.455368
0.0237602
0.0240625
0.0375036
0.0245126
3.23931
0.0221387
0.0543569
0.0777765
0.0253828
3.32284
0.0242959
0.0245512
0.0253664
0.0244426
3.47246
0.500889
0.0257434
0.226271
0.0401225
0.0243948
0.0240099
0.0244234
0.0270326
0.0233579
2.64257
0.762125
0.131054
0.0220875
0.023883
0.0254327
0.0239449
0.137113
0.172784
0.0371368
0.0237662
3.5556
0.0229546
0.0239412
0.417539
0.0236697
0.0242524
0.0295442
0.164952
0.0248993
0.025215
0.0243858
0.0239459
0.0304887
0.024351
0.0780496
0.0257672
0.114157
0.104839
0.183527
0.0242356
2.69554
0.381206
0.0235262
0.070314
0.022779
0.0313067
0.14709
0.0235217
0.0233413
0.0730611
0.0235042
0.0239808
0.0327949
0.0235126
0.0233726
0.0239484
0.0262458
0.0256064
0.0246362
0.0242381
0.0251481
0.3915
0.0248796
0.0248777
0.0312763
0.0244268
0.0584043
0.0254774
0.0238862
0.548576
0.204018
0.0239351
0.0250169
0.0246042
0.0421769
0.0228963
0.11371
3.95937
3.29442
2.75427
0.0290094
0.0264423
0.0392137
0.097437
0.0226025
0.480331
0.0250031
0.0234976
0.0573887
0.0328573
1.60053
0.123485
3.2536
0.024396
0.0407664
0.0394702
0.208875
0.0249235
0.0249438
0.34076
3.06014
0.164885
2.73743
0.0638507
0.0317421
0.0225718
0.0321044
0.0256519
0.0233418
0.0262803
0.112214
0.0266266
0.0256585
0.231396
0.182517
0.872258
0.0239964
0.0244437
0.023925
0.055501
3.24642
3.30491
3.19914
3.15437
0.036379
0.0246692
0.0239896
0.0472746
0.0816195
0.0954925
0.025523
0.0229172
0.0251467
0.0644628
0.0225601
0.0944945
0.440683
0.0412536
0.0254669
2.40324
0.0255407
0.0227958
0.0257645
0.0246313
0.0540277
0.0227523
0.0756238
0.156443
0.0256987
0.02292
0.0263213
3.25225
4.31211
2.66529
0.0255732
0.0227121
0.107698
0.498688
3.20213
0.0609894
0.0577153
0.025977
0.0811578
0.115436
0.0225966
0.0242261
2.02982
0.0248369
0.0246674
0.310791
0.0243056
0.0246104
0.0282089
0.0329118
0.0350478
0.103894
0.0949183
0.304719
0.0810153
2.63209
0.18492
0.0518512
0.0970759
0.366063
1.60059
0.0227408
0.0240004
3.02342
0.0250105
0.0487144
3.60707
0.0254881
0.0272228
0.0295168
0.0828295
0.0230365
1.80411
0.0467261
0.152543
0.0273591
0.0256777
0.0233956
0.0251501
0.0243134
0.0246507
0.0233819
0.0264304
0.0244165
0.0261731
0.0225263
0.0710571
0.269174
3.9155
0.0493831
0.0233459
0.105813
0.0391854
0.0258979
0.023043
0.0239361
0.0243428
0.0498153
0.0486311
0.0406593
0.0338251
3.60702
0.0344275
0.0243145
0.0337266
0.0248615
0.0233778
0.0556937
0.181393
0.0273293
2.93587
0.0250463
0.0243898
0.0278913
0.0255552
0.0260807
0.0276795
0.112411
0.0289195
0.0406329
0.0275973
0.0716898
0.145055
0.0244069
0.0973199
0.0229333
0.0260624
0.0242663
0.0363031
3.26189
0.0248174
0.0367858
0.0501277
0.0259868
0.024274
0.0426576
0.027479
0.442469
0.024678
0.040673
0.0470191
3.21509
0.388087
0.0259122
0.0274142
3.28263
0.0388361
0.0241147
0.0242999
0.0444023
3.24148
0.0259131
0.0260123
0.0251225
0.0239525
0.0341369
3.27268
0.123495
0.0225393
0.0245625
0.0254265
0.025281
0.0599611
0.0239097
0.115992
0.0235698
0.0236691
0.023711
0.0258368
0.023625
0.0615626
0.0228557
0.048725
3.52293
0.022616
0.0249065
3.24556
0.0954375
0.423554
0.0278307
0.601712
0.446662
0.140107
0.0255174
3.33233
3.10415
0.0302941
0.0626859
0.0240192
3.63721
0.185296
0.0245708
0.383944
0.023929
0.0251482
0.0241811
0.0446529
0.024217
1.51306
0.0288633
0.0268039
0.0263751
0.022866
0.0340338
0.0780921
0.0373151
3.81592
0.11369
0.0235527
0.391556
0.0264324
0.041462
0.100238
0.0280718
0.187755
0.0988541
0.0228501
0.0266607
0.0269262
0.221235
0.0230847
0.0256006
0.0547696
0.0288328
0.123922
0.111349
3.94132
0.025925
0.106226
0.0274328
0.601669
0.0243483
0.0228401
0.431955
0.224038
1.6979
3.7612
0.0230358
0.0230655
0.0277911
1.7287
0.0582582
0.0339937
3.30083
0.350239
0.0708956
0.0625034
0.0287153
3.08109
0.189611
0.035615
0.0729768
0.0251678
0.947317
2.93167
0.0706277
0.0689378
0.0241231
0.0254541
0.227126
0.0239891
0.054675
0.221651
0.0230571
0.0239545
0.112121
0.0229129
0.207326
0.0321497
0.0350979
0.0482818
0.0242501
0.0261128
0.0963883
0.0251368
0.0356855
0.0242142
0.0243969
0.0231109
0.0593821
1.29377
0.0248982
0.0419864
2.75784
0.0239751
0.0222893
0.0418578
0.0266303
0.0238755
3.16772
0.0262027
0.0285803
3.15115
0.0250703
0.0258572
0.122936
0.0247428
0.0261773
0.0245739
0.0242983
0.0239054
0.666382
0.245334
0.182191
0.0243081
0.0242938
0.0670306
0.519592
0.0251616
0.308814
0.0231995
0.0249484
2.00605
0.0258233
0.022135
0.0540244
0.046753
0.0968632
0.0249692
0.126695
0.0354475
0.0255484
1.35582
0.0245535
0.0517994
0.0325734
4.04933
0.0246174
0.0246431
2.92163
0.0433806
0.0243898
0.0580485
0.0225023
3.39804
4.57941
3.24204
2.87083
0.119978
0.0551952
0.336578
0.0255267
0.238514
0.0251565
3.07662
0.0241674
0.0226497
0.0476283
0.0946963
0.0365129
2.00169
0.0225246
0.162611
0.168234
0.0241501
0.0537831
3.06807
0.0277311
3.70534
0.0439625
3.23664
2.82564
0.0238946
0.0663105
0.0248985
0.033889
3.78707
0.0267186
0.0333807
0.232196
0.0244864
3.81063
0.0266405
0.0236934
0.460983
0.172963
0.0243536
0.378278
0.0716393
0.0242544
0.0302781
0.0714641
3.5795
0.0240741
0.0827053
0.0541149
3.27183
0.0614007
0.346194
0.0927482
0.0350083
0.0241479
0.0331906
0.0256504
0.0264111
0.0260739
0.0550165
3.63297
0.961846
2.34471
0.0225335
0.0386916
0.106678
3.26533
0.0588459
0.0264267
0.0249887
3.37598
0.0410188
0.0248309
0.0239227
0.0256769
3.62485
0.0248955
0.0242031
0.0255056
0.0239532
0.0243334
0.0241636
0.0303288
3.22177
0.0255736
0.0382153
3.26884
0.0591353
0.0278946
0.02423
0.0236927
0.0249274
0.0606386
0.441018
0.0244904
0.026616
0.0252035
0.33647
0.114173
0.310466
0.0278837
3.19925
0.0338263
0.0268081
0.0235571
0.127907
0.122378
0.316184
0.0249182
0.0639692
0.0235501
3.81911
0.38909
0.0246152
0.0241279
0.366439
0.0242847
3.17565
0.0369101
0.390646
0.0250903
0.0342613
0.0581415
0.193967
0.0258679
0.0237372
0.0225527
3.73648
0.0242113
0.0955981
0.0242886
0.0248573
0.0244714
0.0243371
0.0437687
3.20637
0.207233
3.62219
0.0259716
0.0493315
0.0277787
0.0277235
3.95724
0.048358
0.0238293
3.26384
2.98768
0.0244418
0.0247283
0.0232821