/*--------------------------------*- C++ -*----------------------------------*\
| =========                 |                                                 |
| \\      /  F ield         | OpenFOAM: The Open Source CFD Toolbox           |
|  \\    /   O peration     | Version:  v2012                                 |
|   \\  /    A nd           | Website:  www.openfoam.com                      |
|    \\/     M anipulation  |                                                 |
\*---------------------------------------------------------------------------*/
FoamFile
{
    version     2.0;
    format      ascii;
    class       volScalarField;
    location    "200";
    object      p;
}
// * * * * * * * * * * * * * * * * * * * * * * * * * * * * * * * * * * * * * //

dimensions      [0 2 -2 0 0 0 0];


internalField   nonuniform List<scalar> 
54593
(
0.00332198
0.00217068
0.00319579
-0.0660382
-0.0256478
0.00347584
0.000619772
-0.0757154
-0.032794
-0.0464719
-0.012227
-0.0831061
0.00193297
-2.77789e-05
0.00270577
0.00226172
-0.0933553
-0.00973544
0.00227224
-0.0896185
0.00239869
-0.0122728
0.000895686
0.00171067
0.00248304
-0.0550194
-0.0282229
0.00286974
-0.0208677
0.00263202
0.0251902
0.0115096
0.00209025
0.0178449
0.00224763
0.00172362
-0.0601042
-0.00581233
-0.017012
-0.0150289
0.00867855
-0.00114582
-0.00803117
-0.0121394
0.000474784
0.00328579
0.000727188
-0.0274417
-0.00617337
-0.0123971
0.000462023
0.00210411
0.00195598
-0.0526705
-0.0383995
-0.0123508
-0.0756837
-0.0162628
0.0238388
0.00256715
-0.0132792
-0.0120418
-0.00641369
-0.0115954
-0.0968342
-0.0166404
-0.0147359
-0.0925483
0.0020851
0.000627868
-0.0972518
-0.00193989
-0.052325
0.0020887
0.00220458
0.000720318
-0.0303603
-0.0222238
0.0103443
-0.0593683
0.00170185
-0.0229048
-0.0970475
-0.0971012
-0.00778129
0.00161993
-0.0883396
0.00251648
0.00166537
-0.075912
0.00169788
0.00176045
-0.101961
-0.0231597
-0.037234
-0.0485788
0.00238297
-0.00539602
-0.00796174
0.00222377
-0.0127197
-0.0859872
-0.0117517
-0.0893405
0.00300382
-0.00931501
-0.00193928
-0.0597486
0.00209567
-0.00832315
0.0018993
-0.0223713
-0.0972798
0.00486824
-0.0287438
-0.0147953
-0.00959326
0.00331727
0.00324051
-0.0119756
0.00198666
-0.0887233
-0.0546692
0.0178297
-0.00699411
-0.0931049
-0.00159797
-0.0102241
-0.0902596
-0.0213401
-0.0202434
-0.00136776
0.00159177
-0.00273135
-0.0122495
0.002259
-0.0536479
-0.00839812
-0.00718096
0.00412694
-0.014876
0.00252872
-0.00858713
-0.0934762
-0.00773791
-0.00302221
-0.0248269
-0.0284774
-0.00846564
-0.0941221
0.00260521
0.0266935
-0.005806
0.00166267
-0.044275
-0.088038
-0.0753338
-0.0284004
0.0023095
-0.00561146
0.00221343
-0.0803286
-0.100824
0.000529813
-0.0896213
-0.0224675
0.00319004
0.00171185
-0.0183833
0.00194417
-0.0359051
-0.0103941
0.00260632
-0.0394376
-0.0202013
-0.00868583
-0.0457738
-0.00752986
-0.0930655
0.000560164
0.0022239
0.00341097
-0.0738643
0.00609849
0.00218683
0.00185721
-0.0525451
-0.00817048
0.0024922
0.00192278
-0.00749479
-0.0894983
-0.000987868
-0.0152653
-0.084578
-0.0163181
-0.001759
-0.000777869
-0.08398
0.00339922
-0.0073715
0.00269479
-0.00798681
-0.060505
-0.0914373
-0.00645601
0.00208974
-0.0607422
-0.0127435
-0.053773
-0.0143125
-0.0839028
-0.0456781
0.0264502
-0.0139039
-0.00585847
-0.0353084
0.00357881
0.00208504
-0.0140056
0.00209483
-0.0424102
-0.00182006
-0.0188594
-0.00815827
-0.080699
-0.00163039
-0.00616325
-0.0117417
-0.0872336
0.020709
0.0020984
-0.0186221
0.00222678
-0.0465789
-0.0181846
-0.00658777
-0.00864015
-0.084207
-0.000405151
0.00208465
-0.00404006
-0.00786072
0.00208056
-0.0387311
-0.00223666
-0.0907609
-0.0213204
0.00263206
0.00249083
-0.0843502
0.00184149
-0.0591842
0.00154938
-0.000533713
3.81189e-05
-0.00374435
-0.00961282
-0.0800765
-0.00375345
0.00175836
0.00206893
-0.055499
-0.0120282
0.0123561
-0.0290932
0.00209198
0.00297519
-0.00467226
0.00181229
-0.00514542
-0.0211851
-0.00180526
-0.0677179
-0.0836673
-0.047768
-0.00557911
-0.0142296
-0.0494397
-0.0221342
-0.00376608
0.00249557
0.00262445
-0.0614926
-0.103983
0.00298804
-0.0626701
0.00246469
-0.0853874
-0.00586117
0.00259963
0.000818267
0.0104713
-0.100849
-0.0258405
-0.014908
0.00487795
-0.00169472
0.00222716
0.00297533
-0.0443948
-0.0338013
0.00223397
0.0120705
-0.0204724
-0.0851601
-0.0928762
-0.107508
-0.00628113
-0.0995135
0.00206347
0.00372837
0.00272988
-0.0939097
-0.089378
0.00644399
-0.10458
-0.020042
-0.0592247
-0.00830582
-0.0719022
-0.075169
-0.00749609
0.00658338
-0.00218708
-0.00302779
-0.0157318
0.0123452
0.00226067
-0.091647
-0.0664764
0.00221524
0.00262015
0.00326774
-0.0600518
-0.00769808
0.00303953
0.00113645
-0.00389148
0.00192792
-0.0110824
-0.00208783
-0.0926015
0.00198165
0.000220862
-0.0933856
-0.00819412
0.0123799
-0.0107779
0.000210709
-0.00576555
0.000820535
-0.00497398
-0.00554633
0.00624618
-0.0286434
0.00247766
-0.0930348
0.00995894
0.0048187
0.00340683
0.00226004
-0.108432
0.00232418
0.00154179
-0.0750533
0.0034906
0.00111132
-0.00195398
-0.020738
0.00330874
-0.0267929
0.00336516
0.0045289
-0.0157719
-0.044552
-0.0332249
-0.0284425
-0.0892166
-0.0147231
-0.045142
-0.0172079
-0.119274
-0.0334744
0.011776
-0.0456744
-0.0601921
-0.036577
-0.0360144
0.00169049
0.00201738
0.0108863
0.00367014
0.0103251
0.00163443
-0.0241254
-0.060308
-0.0238793
0.000567737
0.00176712
0.00220383
0.00181218
0.00231292
-0.0538663
0.0102441
-0.0660393
-0.059741
0.00282233
-0.00637504
0.00483421
-0.0144833
-0.00491707
-0.0909527
0.0025437
0.0020502
0.00205272
-0.097692
-0.091528
0.00494294
0.00294777
-0.00408944
0.00263045
0.00194448
-0.016892
0.00445486
0.00518136
-0.0846972
7.48628e-05
0.00443854
-0.0146562
-0.0172473
-0.00367302
-0.127108
0.0031969
0.0036446
0.00223669
-0.000872328
0.00297317
-0.0930584
0.00388756
-0.0825295
-0.0237367
-0.0385356
-0.0409794
-0.0927111
0.00333853
0.00308046
0.00723962
-0.0903526
-0.0989958
0.00389187
0.00465044
-0.0611025
0.00208132
0.0230778
0.00431553
0.00444538
-0.00353044
-0.00679346
0.00215494
-0.090897
0.00207586
-0.00794518
0.00221834
-0.0154913
0.00136996
-0.048813
-0.0947551
-0.0122538
-0.00862738
-0.0830192
-0.0142466
-0.0846269
0.00696723
-0.00981434
-0.0361105
-0.0881623
-0.00527481
-0.0444492
0.00201992
5.85838e-06
-0.0483563
-0.0204476
0.00922039
-0.0943629
-0.0908563
0.00520957
0.00166394
6.1531e-05
0.00248219
-0.0653743
-0.0841402
-0.0247267
-0.00233704
-0.0909605
-0.0460032
0.00542475
0.00292321
0.00489922
-0.0104986
0.00108545
-0.0418116
0.00180274
-0.0106006
0.00203702
0.00205071
0.00444149
0.00218994
0.0019065
-0.00930964
-0.0191672
-0.0133332
-0.00550648
-0.000549426
0.00179295
0.00316636
0.00233151
0.00386978
-0.0857105
-0.0462349
-0.0452715
-0.0907169
-0.0931974
-0.0437359
0.0259079
-0.0257127
0.00302402
-0.0147
-0.0213394
-0.00964183
0.00345763
-0.0853297
-0.015089
-0.0909282
-0.00746005
0.00573613
0.0254555
-0.04226
-0.0914034
-0.0900346
-0.0117691
0.00818655
-0.00850049
0.00776574
-0.0161329
-0.00849546
-0.0324026
-0.00546083
-0.0145727
-0.0198082
0.00780953
0.00246955
-0.0352763
-0.0205133
-0.000514884
0.000238926
0.011824
-0.0174986
-0.00769571
-0.0620749
-0.013539
0.000316764
-0.0224147
0.00448107
-0.0878759
0.00496589
-0.089301
-0.0381865
0.0237207
0.00426704
0.00227191
0.00399261
0.00149495
-0.00803519
-0.0941003
-0.00316704
-0.000115154
-0.0164926
-0.0632452
0.00146248
-0.00559303
-0.0075502
-0.0809992
-0.0646329
0.000344843
-0.0928733
-0.00597176
-0.0847729
0.00182183
0.00228034
0.0041048
0.00234739
0.0110818
-0.0805223
-0.0763747
-0.0108465
0.00832518
-0.00629
-0.00953932
0.00566207
-0.0191728
0.00509888
-0.00811602
0.0016612
-0.0506007
0.00318563
-0.00899303
-0.0308397
-0.0126674
-0.0862356
0.00961394
0.00139295
0.00492897
-0.0239979
-0.00667159
0.0112657
0.00222003
0.00889981
-0.00572088
0.00737515
-0.0242987
-0.00685633
-0.0867313
-0.0326932
0.00164282
-0.0201694
-0.0114553
-0.00572191
0.00174996
0.0200111
-0.0862065
-0.000211718
-0.00403879
-0.0105973
0.001668
-0.0524941
-0.0213955
-0.010773
-0.0159766
-0.0802574
-0.0928245
-0.00772171
-0.021994
-0.0153563
0.00128111
-0.00664671
-0.0230019
-0.118072
-0.00700074
-0.084373
-0.0951852
0.00213538
-0.00749869
-0.0122093
-0.00774881
0.00501719
-0.0220413
0.0129413
0.000808717
-0.0808669
-0.020208
-0.0515267
-0.0304724
-0.0410773
-0.00046901
-0.0225904
-0.0437907
-0.00525414
0.0256481
-0.0024196
-0.0849516
0.00323697
0.00648811
-0.0718928
-0.0139043
-0.092554
-0.0025767
-0.0801185
-0.0256414
-0.0759169
0.00277241
-0.00272297
-0.0166825
0.00322629
-0.00826772
0.00217527
-0.0161964
-0.0480521
-0.117819
-0.0116333
0.0030033
-0.00154224
-0.0264047
-0.0183776
-0.0341087
-0.0913956
-0.0746546
-0.0867905
-0.0300672
0.00171748
-0.0334968
-0.000396865
0.00244325
0.00490345
-0.0937106
-0.00778182
-0.00746632
-0.0884761
-0.0104334
0.00206534
-0.00996794
-0.01287
0.00512136
0.00242252
0.00205917
-0.0187128
0.00172358
-0.0128368
-0.0103457
-0.0163194
-0.0119575
0.000615533
-0.0917858
0.00233182
-0.0630883
-0.0708485
0.000975848
0.002202
-0.0756093
-0.0336685
0.00182428
0.00486832
-0.0913872
0.000198813
-0.0392883
0.00136282
0.00273161
0.00661685
-0.0309734
0.00248033
-0.0108687
-0.0212862
0.00697581
-0.0934081
-0.00858682
-0.036182
0.00210238
0.00271916
-0.0924039
0.00027027
0.00093143
-0.0944808
-0.000632698
-0.0123618
0.0020049
-0.0429556
-0.126946
0.00410788
0.00100144
-0.0481781
0.0036427
0.00247826
-0.0895932
0.00468512
-0.0363747
-0.0247649
0.00671017
0.00386416
0.0015957
-0.0781794
0.00383446
-0.0174987
0.00856087
0.00267191
0.00348043
-0.00621656
-0.00581885
-0.0344972
0.00524206
-0.0159627
-0.0221237
0.00266662
-0.0224997
-0.00486671
0.00654677
-0.0455553
-0.0753056
-0.065007
-0.0746382
-0.0036473
-0.0201221
0.00383536
0.00107536
0.00256686
0.0056262
-0.0197135
0.00468166
-0.0314693
-0.00420415
-0.0304547
0.00413315
-0.092829
0.00797353
-0.022909
-0.0758482
-0.0901181
-0.0490313
0.000159397
0.00112794
0.0327143
0.00191681
-0.019207
-0.0122114
0.0245421
0.00173243
0.00141935
-0.00300188
-0.00522899
-0.09681
8.69395e-05
-0.0150145
0.00258525
-0.0916966
-0.00966744
0.0019634
0.00621436
-0.0480146
0.00398989
0.00256737
0.00220031
-0.00238522
0.0179998
0.00195911
-0.0100327
-0.0932
-0.0245204
0.0209819
-0.0314238
-0.0855932
-0.0985545
-0.062939
-0.0243139
-0.0295587
-0.0959407
-0.0499187
0.0209498
-0.0351497
-0.0150433
0.00229498
-0.000512016
-0.00889437
-0.019383
-0.0928463
-0.0854846
-0.00390045
-0.0852987
-0.037916
-0.00953737
0.00207342
-0.0932594
-0.00638218
-0.0342762
-0.0379535
0.00223666
-0.00211516
0.0164878
-0.0854183
-0.075919
-0.0888406
0.00470173
-0.016564
-0.00705638
-0.00522496
0.000421444
0.00339591
-0.0868678
-0.0929722
-0.029048
-0.0637233
0.00417001
-0.00576908
-0.00579113
0.00363131
-0.109819
-0.00916179
-0.0434351
0.00262517
-0.00719046
-0.0295944
-0.0475647
-0.00484667
-0.00527274
8.10182e-05
-0.011251
0.00261674
0.00483176
0.00343461
-0.00713329
0.00220005
0.00219523
0.00269218
-0.00962256
-0.027918
-0.0451433
-0.00231033
0.00168716
-0.0314371
0.00249421
0.0025272
-0.0100443
0.0179602
-0.0962317
0.00548625
-0.000850079
-0.0180628
-0.00563652
-0.0307826
-0.0154492
-0.0470372
-0.0369389
0.0059248
-0.00216066
-0.00741072
-0.0950877
0.0039962
-0.0579122
-0.0969281
-0.00219517
0.00188864
-0.0198837
-0.0101566
-0.00714365
-0.00537887
-0.0211978
0.00221787
-0.0931292
0.00222986
-5.82896e-05
-0.00633527
0.00152312
0.00305591
-0.0298687
-0.0831229
-0.0371444
-0.0516715
-0.029065
0.00192307
0.00225091
0.00392025
-0.0104712
-0.00991257
-0.0222488
-0.064302
-0.0904237
-0.0268576
-0.0285496
-0.0345159
0.00146805
0.0039125
0.00491482
-0.0269735
-0.110649
-0.00482082
-0.000426261
0.00429784
-0.085279
-0.037265
0.00223006
-0.00566358
-0.00887748
-0.00694909
0.00336531
-0.0354332
-0.00628427
-0.00159106
-0.111024
-0.0902806
-0.00764082
-0.0374528
0.0064243
0.0018296
-0.0451192
-0.0493958
0.000157635
-0.00668563
-0.0158093
0.00188464
-0.0122191
0.001872
-0.0354089
0.00351213
-0.00986611
-0.00158823
0.00190113
-0.0603918
-0.116441
0.00252891
-0.0329075
-0.0129841
0.00625443
0.00205603
-0.0898914
-0.00806709
-0.026218
0.00156054
0.0046618
-0.012265
-0.119205
0.00319239
-0.02684
0.00929658
0.000250232
-0.0444557
-0.0202531
0.00221311
-0.0429391
-0.055708
-0.00853365
0.00257811
-0.0117565
-0.0184389
-0.024931
-0.0760362
-0.0475531
-0.0233586
-0.0888541
-0.102756
0.00253013
-0.00811962
-0.0709588
0.00222125
0.00185628
-0.00808787
0.00803373
0.00228659
-0.00792363
-0.00849259
0.00143607
-0.0101281
-0.023088
-0.0893884
-0.0761599
-0.0476176
0.00490799
-0.0444163
0.00314293
-0.0375757
0.00159335
-0.030918
0.00713977
0.00219677
-0.0790308
-0.0246491
-0.0831218
-0.0255243
0.00639624
-0.090629
-0.0223948
-0.0891425
-0.082816
0.00266379
0.00167165
-0.00384374
-0.0125732
-0.0475682
0.0155736
-0.0316211
-0.0122607
0.000420334
-0.0481026
-0.0369832
0.00889548
0.00221514
-0.0889544
-0.0515654
0.00221052
0.0087864
-0.0107336
-0.0122931
-0.0045849
-0.070565
0.00109302
-0.0926429
0.00208063
0.00260319
0.00262106
-0.0929213
0.00208129
0.00421755
0.010987
0.0026349
0.0333718
-0.00137722
0.00093247
0.00425935
-0.0203516
-0.0454455
-0.11632
-0.00155616
-0.107324
-0.0456764
0.00305106
-0.0186485
-0.0102227
-0.0390934
-0.00246763
0.00199463
0.00299942
-0.0320527
-0.00531024
-0.0357811
0.00205567
-0.0224233
-0.0163665
0.00315506
0.0032552
-0.00525713
0.00171983
0.00266602
-0.00358812
-0.0211757
-0.0150363
-0.0544553
-5.2324e-05
-0.0151121
-0.0905434
-0.0346758
0.00295493
-0.00148578
0.00222397
0.00317477
0.00256616
0.00585748
-0.063634
0.00347167
-0.00507427
0.00238031
0.00246222
0.00239278
-0.0551173
-0.0425745
-0.0304218
0.00206626
0.0057073
-0.0118649
0.00602511
-0.021591
-0.00700027
0.00265999
-0.00920886
-0.0215677
-0.00702936
-0.00550599
-0.0438743
-0.00159954
-0.0659269
-0.0847782
-0.0172971
-0.00399116
-0.0233017
-0.00520554
-0.080682
0.00209862
-0.00141579
-0.0415611
-0.0228292
-0.0125643
0.00276545
-0.0934565
0.00188927
-0.00820801
-0.0766315
0.0025629
0.0036524
-0.00189351
-0.0149277
-0.012392
0.00152732
0.00162409
0.00178593
-0.00176898
-0.0795645
0.00496213
-0.00630805
-0.0713297
-0.0485694
0.00460292
-0.0073644
-0.027988
-0.00909769
-0.0050378
0.00338481
-0.0266259
0.00143725
-0.0244583
-0.0133168
-0.0379692
-0.019886
-0.00519656
-0.0221497
-0.0429842
0.0024445
-0.00536636
0.00492181
0.00289899
0.0015165
-0.038167
-0.0159887
0.00317833
0.00220821
-0.0150006
0.00472791
0.0111709
-0.0271601
-0.0386208
-0.0105755
-0.0360773
0.0029072
-0.000747133
-0.0146148
0.00198909
0.00311853
0.00221928
-0.016297
-0.00709946
-0.00189808
-0.0224774
-0.0083905
0.00138994
-0.0428383
0.00349964
-0.00500904
0.00580379
-0.0242394
0.0034818
-0.0308415
0.0165826
-0.0360508
-0.0960588
0.000409474
-0.0361187
-0.0175009
0.000510133
-0.0184572
-0.00404813
-0.022061
-0.00826668
9.25866e-05
-0.00799203
-0.00429099
-0.0148158
-0.0715099
0.0182852
0.00583059
-0.0417085
0.00168627
0.00220965
-0.0127083
-0.0143793
0.00383909
0.00222915
-0.0249838
0.00227243
-0.0768506
-0.0300813
-0.00339464
0.00204349
-0.012992
0.000585632
-0.00616691
0.00146983
-0.0792069
0.00351929
-0.00542818
0.0101284
0.00321558
-0.0263851
-0.0448301
-0.024853
-0.0314
-0.00760584
-0.0181891
-0.00413845
0.0014847
-0.00321474
0.0027818
0.00199996
-0.0156872
-0.00399272
-0.0316136
-0.0437069
-0.0126312
-0.0929554
0.00218432
0.00259405
-0.0257779
-0.0927034
-0.0167432
-0.0163424
0.00129402
-0.0478826
-0.00721025
0.000392766
-0.00226208
0.00206295
-0.0909977
-0.0264093
-0.00661949
-0.0173749
-0.0159638
0.00270734
-0.0367251
-0.0484153
0.00315736
-4.35066e-06
0.00405316
-0.0180302
0.00269351
0.00152878
-0.0616062
-0.0215452
0.00258455
-0.103994
-0.0620495
0.00184363
0.00407321
-0.0472082
-0.0569096
-0.000440502
0.00217347
-0.0312755
0.00588282
-0.0849098
-0.00295034
0.00122265
-0.0311551
0.00286147
-0.0133764
-0.0122942
0.00166934
-0.00154348
-0.0064945
0.00170981
0.00122534
0.00186594
-0.0142213
-0.0054793
-0.0147204
-0.0750103
0.00263272
-0.0184283
-0.00816114
-0.0156099
0.00194563
0.00286889
0.00440203
-0.029859
0.00386437
0.00181314
-0.00221532
-0.0205826
0.00304685
-0.0234601
-0.0494379
-0.0155315
0.00409285
0.0115725
-0.0237203
-0.0226501
-0.0487943
-0.0371498
-0.0152735
0.00355799
0.00118862
-0.0388152
-0.0140931
-0.00758991
-0.0480313
-0.00437763
0.000326002
-0.0421991
-0.093453
-0.000211441
-0.0427418
8.96631e-05
0.010852
0.0184029
-0.00830322
0.00317635
0.00185368
-0.0169697
0.000334861
-0.000371788
-0.0902865
-0.0367134
-0.026681
0.00134055
-0.00491833
0.00265782
-0.00571011
0.00161428
0.00126248
0.00264434
0.000538365
-0.02644
-0.016512
-0.0136511
-0.0082451
-0.0502835
-0.00499721
0.0105138
-0.0950362
-0.019306
-0.0964817
-0.018185
-0.0917451
-0.00833666
-0.0450563
-0.0168764
-0.021036
-0.0953999
0.00278198
0.00256519
0.000207089
0.00168348
-0.0345316
-0.0247862
-0.0981609
0.00236647
-0.0406062
0.00512049
-0.0218007
-0.0169515
-0.00916395
-0.00698562
0.00181393
0.0074129
0.0165169
-0.0328136
0.00261762
0.00158476
-0.103245
0.018717
-0.0101957
-0.0396013
0.00346679
-0.00677401
0.00262332
-0.0191441
-0.00130533
-0.0363143
-0.0724904
0.00160252
-0.00860656
-0.0406597
-0.00849948
0.00329087
0.00388639
0.00167336
-0.0136725
-0.0390614
-0.0186661
0.0108977
0.00192679
-0.0112458
-0.0087297
0.00193161
-0.0127388
-0.0926686
-0.0164556
0.00208631
-0.00951562
-0.000105743
-0.000980823
-0.00178859
0.00222827
0.00372098
-0.0650148
-0.0252414
-0.00681909
0.00254445
0.000464174
-0.0402182
0.00210035
0.00207575
-0.00197212
-0.0158184
0.00192328
0.00179962
-0.00657905
-0.00405998
-0.0924838
0.00176289
-0.0402078
-0.0103558
-0.012155
-0.0209243
-0.0127563
0.000148834
0.00231186
-0.0478428
-0.0462142
-0.0302132
0.0017993
-0.103242
0.00517292
0.00188838
0.00204359
-0.0721559
-0.0905996
-0.0408798
-1.6339e-05
-0.00475691
-0.00107862
0.00251532
-0.00205555
-0.0359548
-0.0496766
-0.0935352
-0.00626081
-0.022024
-0.00531245
0.00253695
0.00209003
0.0118407
-0.0355534
-0.0153089
-0.00319119
0.0244213
-0.00653105
-0.0705606
0.0212777
0.0142218
-0.0108837
0.002142
-0.00108023
-0.0541963
0.00217609
-0.065907
-0.0118983
-0.0227054
-0.0189182
-0.0373402
0.0015158
-0.0213519
-0.0173692
-0.00325245
-0.0120793
0.00207818
0.0022818
0.00344681
-0.0061453
7.75065e-05
-0.00813473
-0.000767974
0.0025648
-0.0973042
-0.0420051
-0.0345698
0.00758974
-0.0227651
-0.105767
-0.00940765
0.000257921
-0.00157272
-0.090656
-0.00829844
0.00372746
-0.00155277
-0.012225
-0.0912221
-0.0178834
0.00208774
0.0027602
0.000958405
-0.000157792
-0.00221352
-0.00409291
0.00180702
-0.00537514
-0.093123
-0.0214285
-0.00166066
-0.0137214
-0.0718104
-0.037951
-0.0928459
0.00148761
-0.0235149
0.00154674
-0.0912445
0.00275272
0.000371852
-0.0460382
-0.0436779
-0.0180947
-0.0373354
-0.0835934
-0.0711228
-0.0179566
-0.102742
-0.0489763
-0.012973
-0.0106191
0.00282109
-0.0158988
-0.00425323
-0.039372
-0.0854778
0.00264871
0.00192644
0.00806203
0.00134922
-0.0573412
-0.0512884
0.00348464
0.00200904
-0.0319734
-0.0579487
0.00172456
0.00362234
-0.00193708
0.00265251
-0.00466733
-0.0184192
-0.0248048
-0.0518155
-0.00939562
0.00259698
-0.0223625
0.00188341
-0.0653257
-0.0162657
0.00368853
-0.092706
-0.0110361
0.00174009
0.00271885
0.00260107
0.00128566
0.00194919
0.00345074
-0.0324545
8.26596e-05
-0.00532765
-0.0174006
-0.0147758
-0.0449997
-0.0111435
-0.00182202
-0.00403496
0.00273282
-0.0206616
0.0281416
-0.0446766
0.00274623
-0.00418022
-0.020864
-0.0156071
0.000113049
0.00272015
-0.00151638
-0.0927347
0.00864121
0.00423918
-0.0750287
-0.0247091
-0.0833047
-0.0300393
-0.0662789
-0.0102528
-0.0841054
-0.0130453
-0.0051181
0.00208239
-0.00600778
0.00174325
0.00205496
-0.0220146
-0.0123425
-0.0909381
-0.0136139
-0.0203437
-0.0080021
-0.0276533
0.00202342
-0.0163339
0.00171786
0.00365379
0.00283129
0.0270936
-0.0178077
-0.0641405
-0.092243
0.00208354
-0.0501077
-0.0471316
0.00280459
-0.00422479
-0.0486546
0.000353299
-0.0121146
0.00640177
-0.0917814
0.00197699
-0.011967
-0.0125066
-0.091401
0.00277723
-0.0809797
0.0025201
0.00290619
0.00216207
-0.0102686
-0.0912406
0.00180777
-0.00866742
-0.0154349
-0.0127664
-0.0246367
0.00433659
0.00298621
-0.0548713
-0.00788851
0.000402782
0.00173238
0.00121629
-0.0272321
0.00252839
-0.0329204
-0.0379421
0.00317174
0.0014499
0.00187759
-0.000997488
0.0020282
-0.014489
0.000280974
-0.02062
0.00632049
-0.0164241
-0.0925068
-0.0901327
-0.0238864
0.00191243
0.00187249
-0.0365976
-0.0347724
0.00301687
-0.0152855
-0.000428887
0.00320436
-0.0126443
-0.0486395
-0.0818727
-0.0944232
-0.0947194
0.000419915
-0.019033
-0.0427708
-0.0147488
0.000339284
0.00219445
0.00244677
-0.0923739
9.02896e-05
-0.00935946
-0.0877536
-0.0979527
-0.0245334
0.00568821
0.00190162
0.00193392
0.00272097
-0.00837227
-0.0160703
-0.0234049
-0.0401854
-0.00360001
-0.0113453
-0.0926761
0.00194897
-0.00248301
-0.037808
-0.0162594
-0.0881016
-0.00611292
-0.0718943
-0.0274869
0.00219706
-0.0935398
-0.00734543
-0.0435504
-0.00940394
-0.00405599
-0.0200625
-0.0246873
0.00243526
-0.0561785
0.0289895
0.00167366
0.00521729
-0.109756
-0.0488786
-0.00268157
0.0298096
-0.0153029
-0.0237524
-0.00168969
-0.0934207
-0.00939775
0.00228964
0.00166839
-0.0564169
0.00222651
-0.0169877
-0.00156002
0.00498126
0.0024128
-0.000273346
0.00231367
-0.0864792
0.00176334
0.000476461
0.00551719
0.00228463
-0.000788852
0.0269262
0.00218119
-0.00432711
0.00478066
-0.0038196
-3.13784e-05
-0.0267247
-0.00492773
-0.0265407
0.00422006
-0.038524
0.00251123
-0.0128424
-0.0010486
-0.0237908
-0.0219552
-0.011422
0.00232834
0.000262354
-0.0399311
-0.0167975
-0.0843997
-0.0925101
0.00222034
-0.103018
0.00232282
-0.0340541
-0.0253673
-0.0990138
0.00160287
-0.00920793
0.00442163
-0.0134284
-0.00212207
-0.00059838
0.0129519
0.00319438
-6.2633e-05
0.00384532
0.00317188
0.00259302
0.0075244
-0.00774518
0.00213544
-0.000398246
-0.00257986
-0.0827408
-0.0757283
0.00215601
0.00315406
-0.0529795
-0.0857314
0.00232444
0.00214865
0.00180867
0.00423692
-0.0173564
-0.0744978
-0.0305786
-0.021345
-0.0270281
-0.0454221
-0.0122341
-0.0377189
-0.0285173
-0.0899701
0.00316846
0.0106378
-0.0903652
-0.0915217
-0.0126461
-0.0109867
-0.0134153
0.00204114
-0.0184494
-0.081928
-0.0534923
0.00242356
-0.0982083
0.00122787
-0.0238778
-0.0226933
-0.00385662
0.00180635
0.00243728
-0.093035
-0.00807622
0.00306222
-0.0858666
0.000566803
0.0116143
-0.00936642
-0.0282478
0.00163312
0.0116593
-0.0268118
0.00305989
0.00190204
-0.0385293
0.00341888
-0.0811856
0.0029384
-0.0358021
0.00804659
-0.0737407
-0.0433564
-0.0388327
-0.000500313
-0.0945159
0.00157425
-0.109317
0.00296493
0.00278572
-0.0117105
0.00264961
-0.0233448
0.00926453
0.00265058
-0.0117096
-0.0213846
0.00220799
0.00146658
0.000437624
-0.0838263
-0.0201681
-0.048164
-0.000198168
0.00411055
0.00159595
0.000221277
-0.0979331
-0.0229653
-0.000192362
-0.00417104
-0.0943091
-0.0894062
-0.0185539
0.00510794
-0.01821
0.00317198
-0.0322226
-0.0524656
0.0020779
5.63561e-05
0.00295305
-0.05256
-0.0237077
-0.00800561
0.0103376
0.00859103
-0.0130149
0.0022803
-0.0156681
0.00253522
0.00405804
-0.0926841
-0.0363209
-0.020102
-0.031756
-0.0930301
0.011443
0.00309453
0.00264684
-0.0928889
0.00254944
-0.00979961
0.00198342
-0.00117607
0.00173199
-0.026841
0.00377655
-0.0185692
0.000616547
0.000808533
0.000487382
-0.0920219
-0.0211435
-0.00265851
0.00462142
0.00453304
-0.0653093
8.87148e-05
-0.0873529
0.00403058
0.00397495
-0.0925288
0.0055842
0.00200794
-0.0221102
-0.0061121
-1.75259e-05
-0.0170929
0.0281201
-0.039972
-0.0092322
0.00202417
0.00232575
-0.0519988
0.00127223
-0.0198045
0.00874947
0.00302683
0.00277823
0.0159017
0.00270474
-0.00222058
-0.0815355
0.00254549
-0.0458933
-0.0752173
-0.0195392
-0.0932113
0.00375571
-0.0241001
-0.000777116
0.0059009
-0.0750388
-0.00826935
-0.0975668
-0.00810898
-0.0369566
-0.00254451
0.00226173
-0.0440374
0.00601121
-0.0162273
-0.00427812
-0.00434125
0.00957667
-0.0192536
0.00172953
0.0060801
0.00125791
-0.093414
-0.0555543
-0.0138009
0.0039966
0.00226487
-0.0914071
-0.00897926
0.00226247
0.00213455
0.000453412
0.000719291
-0.101326
-0.015064
-0.0137313
-0.0928054
-0.0368437
-0.0410108
-0.0496543
-0.0041879
-0.00988954
0.0084231
0.00202956
0.00759743
0.00226083
-0.0272762
0.00287971
0.00203345
-0.0269341
-0.0193725
-0.00112483
-0.0896964
-0.00851678
-0.00981243
-0.0148078
-0.00248038
-0.0333112
0.00152748
-0.0108348
-0.0442148
-0.0252103
-0.0814191
0.00289803
-0.0485746
-0.0378626
0.00275018
-0.0463337
0.00262506
-0.0360962
-0.00960413
-0.0836455
-0.0947451
-0.102882
-0.032269
0.0027205
-0.0943
0.000151745
-0.0067841
0.00219455
-0.0106711
-0.00591462
-0.100899
-0.0482384
-0.0932936
-0.0015569
-0.0930835
-0.089749
-0.0860255
0.00225477
0.00308228
0.0121594
-0.0347061
0.000664193
-0.017648
-0.0435934
-0.0156308
0.0113224
-0.00319172
-0.00616557
-0.0586332
-0.00222789
-0.00134886
0.00207025
0.00255341
-0.092847
-0.00563034
0.0044581
0.00157175
-0.0135433
-0.0437061
-0.00704591
0.000213315
0.000688654
0.00236245
-0.0152317
-0.00147825
-0.0102255
-0.0766234
-0.0706909
0.00260393
-0.0458715
-0.019931
0.000860654
0.0007109
0.00163696
-0.0695349
5.54111e-05
-0.0391055
-0.0407603
0.0129336
-0.00924509
-0.0935177
-0.00660601
0.0222019
6.34835e-05
-0.000918458
0.000824339
-0.00111907
0.00699952
-0.0105623
-0.0940637
-0.07134
-0.00539453
-0.00357299
-0.0136902
0.00174391
-0.0794377
0.000904815
0.00430115
0.0031369
-0.00135214
-0.0202015
-0.0155754
-0.0140821
-0.00692817
-0.0181713
-0.0967857
-0.00861176
-0.0918489
-0.00216291
-0.00977317
-0.0442638
0.00321847
0.0163366
-0.0140704
-0.0865907
-0.00666644
-0.00558007
-0.0824615
0.00270615
0.00189846
-0.00854897
-0.00168204
-0.0264686
-0.00215236
-0.0391436
-0.095153
0.00385921
-0.00551471
-0.0119635
0.0335418
-0.0399873
-0.0944076
-0.0037562
-0.026774
0.00163863
-0.0311339
-0.0153313
0.00211087
-0.000976341
0.00397427
0.00199859
-0.0136516
-0.0864822
0.020215
-0.0362552
0.000849468
-0.0150131
-0.0075722
-0.0204648
0.0022423
-0.0264702
0.00588157
-1.74447e-05
-0.0441051
-0.0386617
-0.0101066
-0.0283371
0.00159214
-0.0931303
-0.0216285
-0.0146135
-0.00751112
0.00249623
0.00154561
0.00227008
-0.0220277
0.00960189
0.00323588
-0.00604604
-0.0307869
-0.00687451
-0.0229434
-0.0414489
-0.0582743
-0.00991386
-0.0878008
-0.00245274
-0.0128166
0.00224494
-0.0938527
-0.0586261
-0.00590241
-0.0184068
0.00155193
-0.0121964
0.000845428
-0.00148161
0.00237533
0.00204957
-0.0276938
-0.0182404
-0.0234138
0.0195825
-0.00574519
-0.0390742
-0.0162423
-0.0929149
-0.0034318
-0.00733748
-0.0163089
-0.0038723
-0.101784
-0.0897158
-0.00884076
-0.048743
0.00925825
-0.0068295
-0.000101873
-0.0487835
0.00564833
0.00268861
6.03973e-05
-0.0694185
-0.00299543
-0.00712654
-0.0026791
-0.00566923
-0.0242127
0.0029216
0.00312314
0.00199851
-0.0378679
0.00767691
-0.00825086
0.033976
-0.0294715
-0.0404647
0.0114851
-0.0362453
0.00141239
-0.00727977
-0.0183555
-0.0335886
-0.0446197
-0.0794582
-0.0305589
-0.0852076
0.0139548
-0.0036103
-0.0127526
-0.0626779
0.00229817
0.0109811
-0.049006
-0.0321763
-0.016474
-2.04641e-07
-0.00336204
-0.018832
-0.019894
-0.0106628
-0.0488603
0.0023347
-0.0372973
-0.0906202
0.00339076
0.00262566
-0.00800793
0.03303
-0.0313075
-0.00979501
0.00308897
0.00221579
-0.0225157
-0.00500568
0.00231857
-0.0226392
-0.0164004
-0.023492
0.00319617
0.00122539
-0.0570283
0.00453233
0.00842502
-0.0383331
-0.00993133
-0.0143362
-0.0273327
-0.0174979
-0.0684692
-0.0214736
-0.00424873
0.00201648
-0.0171387
-0.0287421
0.00168174
-0.0252517
-0.0441534
-0.0284166
-0.0305318
-0.00475462
-0.0317878
-0.0149509
-0.00232102
0.00206743
-0.0362455
0.00236435
-0.123747
-0.00229738
-0.0328298
0.00122172
-0.0433719
0.00220861
-0.086181
0.00215549
0.00185012
0.00169347
-0.0361239
-0.00118962
0.00267975
0.00922155
-0.0716948
-0.0770927
-0.0237536
-0.0016481
-0.0410169
0.0341286
-0.0188522
0.00252588
-0.00354744
0.0114007
-0.001127
-0.0208027
0.00262919
0.002956
0.00346312
-0.00651861
-0.0339566
0.00211004
-0.0486598
-0.000118095
-0.100193
0.00255774
-0.0437087
0.00246337
0.00250905
-0.0361426
0.00206413
-0.0615473
0.000457354
-0.0253515
-0.0124185
0.0026407
-0.0149028
-0.021818
7.22052e-05
-0.00453723
-0.00467376
-0.0338693
-0.0272283
-0.0125811
0.00290249
0.00460986
-0.0167429
0.00403606
-0.0449681
-0.00464579
-0.00532901
-0.0370471
0.0041424
-0.0082232
-0.0404904
-0.00344844
0.00108337
0.00181927
0.00567151
-0.00851951
-0.0904971
7.88357e-05
-0.0613911
-0.0787692
0.00310504
-0.0931904
0.00284911
0.00241486
0.00198916
0.00213779
-0.0933664
-0.0331124
-0.0257514
-0.0892404
-0.0354429
-0.00142991
-0.0011833
-0.00896668
0.00287121
0.0024983
0.0105079
-0.023293
-0.02284
6.41267e-05
-0.00214863
-0.0123738
0.00119283
-0.0170455
-0.0134181
-0.0188
0.00112772
0.0318151
0.00220529
-0.000733009
0.00290365
0.00178571
0.00282303
-0.0363817
-0.0558747
-0.00341061
0.0029655
-0.0104798
-0.00132132
0.00237247
-0.0121067
-0.0504914
-0.00434383
-0.020669
-0.0639534
-0.00916283
0.00264453
-0.107014
-0.0117849
0.000902206
0.0166728
0.00210711
-0.0252253
-0.0678735
0.000944364
0.00215246
-0.0329529
0.00154433
-0.0025238
0.00252224
0.00154942
0.00218202
0.00195343
-0.0371153
-0.0347398
0.00293823
-0.00886859
-0.023582
-0.0130877
-0.0124669
0.00206431
0.00409755
-0.00996513
0.0132659
-0.0122531
-0.00250926
-0.0175928
0.0177668
-0.00129889
0.00191638
-0.0152459
-0.0237542
0.00218158
-0.0833292
-0.0916274
-0.091968
-0.0912715
0.00282031
-0.023252
0.00416987
-0.0790199
0.00186876
0.00238891
-0.0157303
0.00157969
-0.0548348
-0.0466329
0.0284531
-0.0221613
-0.100428
-0.0100618
-0.0352633
-0.0362243
0.0160249
-0.023469
-0.0228462
-0.015138
-0.0915888
-0.0194015
0.0182498
-0.021696
0.00262941
0.00181662
-0.00492648
-0.00520807
0.000330441
-0.0365344
-0.0628632
-0.000960433
-0.0308737
-0.0894834
-0.0727935
-0.00297141
-0.000877095
0.0020578
-0.000632657
-0.0471851
-0.0944299
-0.0936048
-0.10175
-0.0973428
-0.0307774
-0.00616802
-0.00255303
-0.0592228
-0.0721823
-0.020403
-0.00475306
0.00220674
-0.0285185
0.00703289
0.00027296
-0.0827038
-0.0783711
0.00219392
0.00217104
-0.0429529
0.00102292
0.00212479
-0.00418998
-0.0176006
0.00729969
0.00204056
-0.00088908
-0.0831423
-0.0310862
0.00221005
9.52919e-05
-0.0905785
-0.0897817
0.00604305
-0.0342182
0.00201652
-0.024011
0.00329822
0.0161379
-0.0391727
-0.0345755
-0.0123189
-0.079647
-0.0840235
0.00185598
0.000420487
-0.0530507
-0.0213341