/*--------------------------------*- C++ -*----------------------------------*\
| =========                 |                                                 |
| \\      /  F ield         | OpenFOAM: The Open Source CFD Toolbox           |
|  \\    /   O peration     | Version:  v2012                                 |
|   \\  /    A nd           | Website:  www.openfoam.com                      |
|    \\/     M anipulation  |                                                 |
\*---------------------------------------------------------------------------*/
FoamFile
{
    version     2.0;
    format      ascii;
    class       volVectorField;
    location    "200";
    object      U;
}
// * * * * * * * * * * * * * * * * * * * * * * * * * * * * * * * * * * * * * //

dimensions      [0 1 -1 0 0 0 0];


internalField   nonuniform List<vector> 
54593
(
(1.00267 -0.00389693 5.43094e-22)
(1.02338 0.015815 1.89414e-22)
(1.00088 -0.00329871 -9.25027e-22)
(1.07545 0.0719088 1.21669e-20)
(1.04165 0.0550491 8.86843e-22)
(1.00273 -0.00648285 -6.38833e-23)
(1.00809 0.00200061 -1.02414e-22)
(1.086 0.0748013 -4.87081e-21)
(1.04173 0.0657211 3.64104e-21)
(1.06148 0.0290814 -5.63397e-23)
(1.01632 0.000623341 1.9034e-21)
(1.08781 0.0947363 7.0636e-21)
(1.00116 -3.57365e-05 0)
(1.00895 0.00293908 0)
(1.01473 -0.0149931 -9.9556e-23)
(1.00813 -0.000368167 5.65783e-22)
(0.465862 0.0317857 5.40901e-23)
(1.01776 0.00668899 0)
(1.00825 -0.000364492 -5.74019e-22)
(1.10679 0.0704342 0)
(1.01259 0.00803791 4.04667e-22)
(1.02613 0.0190949 1.69999e-22)
(1.03261 -0.00914417 -1.84533e-22)
(1.01199 0.00507761 0)
(1.01014 -0.000487237 -7.57472e-22)
(1.06943 0.0282401 5.34903e-21)
(0.990796 -0.03187 -1.94872e-22)
(1.01444 -0.0126466 0)
(1.06901 0.0511251 2.01481e-21)
(1.01263 -0.000835531 4.37595e-22)
(0.945391 0.00747749 0)
(0.994823 -0.0569262 1.48818e-21)
(1.00493 -9.5544e-05 -8.71332e-24)
(0.91218 0.133253 -4.05695e-21)
(1.00675 -0.000226607 1.91735e-22)
(1.01177 0.00487318 1.7896e-22)
(1.07413 0.0249592 -9.9753e-21)
(1.06388 0.0132372 -9.47471e-22)
(0.990268 -0.00958351 2.48675e-21)
(0.885257 -0.224511 -2.02414e-21)
(0.937725 0.164819 -4.84897e-22)
(1.00221 6.27798e-05 0)
(1.01745 0.00836714 5.71973e-24)
(1.02015 0.00680656 1.21972e-21)
(1.00742 0.00160675 -8.63264e-23)
(1.01165 0.00980695 -8.78724e-22)
(1.00841 0.00218234 -5.61136e-23)
(0.988614 -9.45243e-05 0)
(1.06282 0.0211345 1.04925e-21)
(1.02633 0.0193852 4.22342e-22)
(1.00734 0.00155717 7.14497e-23)
(1.01037 0.00213588 0)
(1.01291 0.00626446 0)
(1.06681 0.0193706 1.17159e-20)
(1.05442 0.0336237 -4.75028e-21)
(1.01629 0.000592431 2.43051e-21)
(1.08618 0.0740945 5.16546e-21)
(1.02781 0.0136881 7.55129e-22)
(0.993633 -0.0519106 0)
(1.01338 -0.00210622 3.46525e-22)
(0.988637 -0.01099 4.81036e-22)
(1.02357 0.0129842 -2.19551e-21)
(1.02101 0.0163377 1.1513e-21)
(1.02312 0.0128252 0)
(0.541003 0.0438303 1.28113e-20)
(0.88917 -0.22684 3.85367e-21)
(1.02097 0.00286886 0)
(0.684103 0.116969 9.06405e-21)
(1.01031 0.0020856 0)
(1.00817 0.00206576 1.67896e-22)
(0.536074 0.0428343 6.55946e-21)
(1.01072 0.0043363 1.11539e-23)
(1.06649 0.0198262 -6.01174e-21)
(1.00489 -8.99171e-05 -4.22046e-23)
(1.00674 -0.000230894 0)
(1.00849 0.00225615 0)
(0.977882 -0.122456 3.78377e-21)
(1.0345 0.0149639 4.69305e-21)
(0.934891 0.156477 0)
(1.0735 0.0278107 0)
(1.01193 0.00502311 0)
(1.03334 0.00770428 0)
(0.538097 0.0424854 1.0641e-20)
(0.659858 0.114935 -9.34006e-21)
(1.0153 0.00563228 0)
(1.01018 0.00295118 3.75639e-22)
(1.10415 0.0758897 -2.29835e-21)
(1.01254 0.00786974 -4.02943e-22)
(1.01028 0.00303232 -2.62838e-22)
(1.08425 0.0821355 2.8311e-20)
(1.00832 0.001402 2.6013e-22)
(1.01173 0.00483022 -1.81821e-22)
(0.671911 0.0971613 1.15651e-20)
(1.03358 0.00750755 0)
(0.979411 -0.0714712 -1.64273e-21)
(1.06373 0.0338651 4.0684e-21)
(1.0188 0.017596 6.05137e-22)
(1.01969 0.0148318 2.58189e-22)
(1.01727 0.00820544 -1.1629e-21)
(1.00664 -0.000232326 0)
(0.921914 0.129824 0)
(0.957471 0.104657 0)
(1.02335 0.0130267 0)
(1.1064 0.0674681 0)
(1.01834 -0.0266324 -3.17239e-22)
(1.01048 0.0590339 0)
(1.01061 0.0042168 7.57741e-23)
(1.07331 0.0510562 -1.24326e-20)
(1.00493 -9.93308e-05 6.53895e-22)
(1.0175 0.00806606 1.0947e-21)
(1.00891 0.00146184 -9.25972e-23)
(1.03458 0.0147846 -3.63751e-21)
(0.506679 0.0369226 0)
(1.02122 0.0221106 2.26733e-22)
(0.974362 0.00875097 -4.76227e-21)
(1.0203 0.000977729 0)
(1.01756 0.00659285 0)
(1.01167 0.00908958 1.84343e-22)
(1.02006 -0.0236588 5.26966e-22)
(0.917156 0.142685 0)
(1.01169 0.00467546 -6.7442e-22)
(1.10529 0.0677889 0)
(1.06912 0.0278479 1.31174e-20)
(0.99805 -0.0142291 -6.45434e-22)
(1.02226 0.0193737 -1.86334e-21)
(0.46701 0.032324 6.27066e-21)
(1.01195 0.00571626 7.31606e-24)
(1.02669 0.0495415 9.98376e-24)
(0.701343 0.117088 8.75689e-21)
(1.02996 0.00185241 -1.65972e-21)
(1.0331 0.0173548 4.27825e-21)
(1.01895 0.0167206 1.39428e-22)
(1.00787 0.00130358 0)
(1.01509 0.0366406 0)
(1.02036 0.00694347 0)
(1.00683 -0.000217047 8.59702e-23)
(1.06841 0.0352265 1.55399e-20)
(1.00795 0.0600343 0)
(1.02235 0.0192161 8.46946e-22)
(0.836558 0.0922969 0)
(1.02044 0.00102684 -1.544e-21)
(1.01321 -0.00185899 1.72576e-22)
(1.01735 0.00754356 0)
(0.620314 0.0517857 9.09662e-21)
(1.01516 0.0055077 -8.77859e-22)
(1.01568 0.0362568 3.17543e-22)
(1.0419 0.0361049 -3.04774e-21)
(1.04482 0.0327453 0)
(1.01755 0.00797089 0)
(0.471607 0.0324868 -4.55422e-23)
(1.01255 -0.000620595 4.02838e-22)
(0.991839 -0.0819218 0)
(1.01758 0.010915 4.73153e-22)
(1.01 0.00262539 -1.40502e-22)
(1.05803 0.0134479 0)
(1.10342 0.0760221 4.07152e-21)
(1.08333 0.0819751 -2.17971e-20)
(0.970939 0.0427775 2.26789e-21)
(1.02482 0.0118699 -8.45314e-23)
(1.01973 0.0146775 -2.81753e-22)
(1.02475 0.00147619 -1.55153e-22)
(1.09299 0.0520716 0)
(0.652246 0.112089 0)
(1.00654 0.00105882 0)
(1.10691 0.0710352 1.90198e-21)
(1.03446 0.013976 3.70162e-21)
(1.01182 0.00892848 0)
(1.00811 0.00131384 1.24446e-22)
(1.02572 0.00136786 4.55831e-21)
(1.00905 0.00147743 3.76017e-22)
(0.492812 0.158453 -3.22231e-22)
(1.01253 0.000545516 4.26881e-23)
(1.01256 -0.000470293 0)
(1.05644 0.0487346 4.21173e-21)
(1.03297 0.0169951 -2.82977e-21)
(1.01739 0.00746802 -5.4601e-22)
(1.05709 0.0639636 -3.78436e-21)
(1.02202 0.0399977 0)
(0.629889 0.0525038 -1.09344e-20)
(1.0066 0.00108827 -7.57294e-23)
(1.00655 -0.000222989 -5.50218e-22)
(1.01446 0.000109275 6.66425e-22)
(0.716889 0.128122 -3.95322e-21)
(1.00975 0.0277171 -2.59275e-22)
(1.02663 0.010564 2.69814e-22)
(1.00093 -2.29674e-05 2.86336e-22)
(0.790515 0.0890625 -8.4378e-21)
(1.0189 0.0102776 3.31974e-22)
(1.01905 0.0176484 -4.82323e-22)
(1.00105 -2.98934e-05 2.53611e-22)
(0.883273 0.117509 1.92753e-21)
(1.10671 0.0669444 1.48358e-20)
(1.00224 8.58018e-05 1.29869e-22)
(0.878033 -0.0267021 -1.13767e-21)
(1.09788 0.0765726 1.4244e-20)
(1.0278 0.0134537 1.50154e-21)
(1.00499 0.000313127 -4.3754e-24)
(1.01924 0.0178589 7.62274e-23)
(1.09639 0.0777514 -1.85956e-23)
(1.01471 0.000230197 -1.32556e-22)
(0.58322 0.121063 8.542e-23)
(1.01569 -0.0116927 2.06368e-22)
(1.00896 0.000424626 -1.12805e-21)
(1.07454 0.0437112 -3.3193e-21)
(0.373499 0.0128673 1.13647e-20)
(1.02188 0.0193685 7.06038e-22)
(1.01343 -0.00208701 -5.81325e-22)
(1.07471 0.0444336 5.53526e-23)
(1.01405 0.000277963 1.58723e-21)
(0.823792 0.0945538 0)
(1.01969 0.00117514 0)
(1.08904 0.0945096 -4.75844e-21)
(1.06136 0.0468061 0)
(0.982956 -0.0764931 7.51695e-21)
(1.01559 0.00013268 0)
(1.01986 0.0359239 0)
(1.05018 0.0246259 4.73414e-21)
(1.00058 -0.000891654 1.80726e-22)
(1.00489 -9.27601e-05 6.74081e-23)
(1.01634 0.000114797 0)
(1.01326 -0.00206225 4.41531e-22)
(0.495168 0.162043 1.26122e-20)
(1.01054 0.00417809 -4.29095e-22)
(1.0178 -0.00323063 -1.02585e-21)
(0.896614 0.163796 -1.17934e-21)
(1.08873 0.0861983 1.83737e-20)
(1.01899 0.016637 2.05722e-22)
(0.539735 0.122611 1.12124e-21)
(1.03279 0.0632348 -1.59494e-21)
(0.707402 0.119503 -8.94646e-21)
(0.863946 -0.123849 3.14661e-21)
(1.00497 -0.000102982 -5.35484e-22)
(1.03415 0.0290508 -1.90991e-21)
(1.01268 0.00805349 -2.91666e-22)
(1.06164 0.0295185 7.33076e-21)
(1.02542 0.00127299 0)
(1.02198 0.0192273 8.05644e-22)
(0.900659 0.162047 -2.61035e-21)
(1.09716 0.0767188 -1.37023e-20)
(1.00143 6.20278e-05 0)
(1.00491 -9.50467e-05 -7.88827e-23)
(1.00748 0.000481871 -5.94773e-22)
(1.01498 0.00507113 -4.04069e-22)
(1.00487 -9.05911e-05 -1.47789e-22)
(1.05477 0.0333633 7.68697e-21)
(1.01109 0.00463573 0)
(0.876023 0.0812308 0)
(1.02806 -0.0388902 0)
(1.01306 -0.0018777 -1.41458e-23)
(1.01032 -0.000505477 0)
(1.0961 0.0805852 1.83192e-20)
(1.00114 -3.87933e-05 -2.65083e-22)
(1.07281 0.0506263 8.65954e-21)
(1.00252 -7.64133e-05 -9.67575e-23)
(0.83393 0.126309 -1.06306e-23)
(1.00903 0.00299478 0)
(1.06561 0.0286668 0)
(0.559927 0.124736 -1.0719e-21)
(1.08735 0.0874316 3.34319e-21)
(1.01168 0.00462368 -7.02263e-22)
(1.01136 0.0044182 0)
(1.00501 -0.000117871 -7.82838e-23)
(1.06296 0.0740829 -1.02217e-20)
(0.810531 -0.203924 -2.70576e-21)
(0.981279 -0.0291464 -2.34203e-22)
(1.03951 0.0621696 -8.18416e-22)
(1.00494 -9.57857e-05 8.4917e-24)
(1.01758 0.0169329 0)
(1.01775 0.0123868 -4.61349e-22)
(1.0014 -3.26116e-05 0)
(1.0026 0.0611996 6.85882e-22)
(1.03462 -0.0516709 1.98159e-21)
(1.01043 0.00406881 3.30532e-22)
(1.06619 0.0981609 3.00963e-21)
(1.09534 0.0799504 3.07362e-21)
(0.728241 -0.0088264 0)
(1.01741 0.0108888 1.27715e-21)
(1.01958 0.00119416 0)
(1.06371 0.0535437 -1.41051e-21)
(1.03099 0.00154677 -1.72325e-21)
(1.0118 0.00475612 1.12101e-21)
(1.0153 -0.00256763 0)
(1.01295 -0.00170653 4.91664e-22)
(1.0755 0.0416948 3.48427e-21)
(0.554465 0.0484436 0)
(1.07458 -0.032101 4.49629e-22)
(1.07665 0.0416665 -1.01184e-22)
(1.01971 0.0171746 -3.56366e-22)
(1.09919 0.074428 0)
(1.01773 0.0110962 -1.43009e-21)
(1.01331 -0.00209012 0)
(0.826998 0.116887 0)
(0.985342 0.0391808 9.67973e-22)
(0.664163 0.106765 3.22484e-22)
(1.05022 0.0507362 -5.74411e-21)
(1.02398 0.00839507 -2.97384e-21)
(1.01179 -0.0150023 2.37734e-22)
(1.0119 0.00568334 0)
(1.0196 0.0171944 6.87248e-23)
(1.01937 0.0334835 -3.30906e-22)
(1.05514 0.0650469 7.56892e-21)
(1.04875 0.0580579 0)
(1.03124 0.00703699 4.45286e-22)
(0.976577 -0.0318202 -1.40675e-21)
(1.05071 0.046091 -5.05146e-21)
(1.09905 0.0738743 0)
(0.889375 0.0811978 2.27035e-21)
(0.52874 0.0421178 8.86751e-21)
(0.597286 -0.0997434 0)
(0.654887 0.108294 0)
(1.01295 0.00614762 -1.27745e-23)
(1.0694 -0.0388562 1.25442e-22)
(1.01791 0.0169946 0)
(0.605633 0.047833 0)
(1.10568 0.0748386 0)
(1.00716 0.0289835 1.35827e-22)
(0.547862 0.0461441 0)
(1.03778 0.0401264 2.3679e-21)
(1.06602 0.0767731 0)
(1.01889 0.0101128 9.88264e-22)
(0.736747 0.127002 3.56548e-21)
(1.08799 0.0517243 0)
(1.01488 0.00540192 1.70732e-21)
(1.00665 0.0302926 9.95901e-22)
(1.01099 0.00455018 0)
(0.885407 0.0639295 0)
(1.03109 0.028897 0)
(0.979882 -0.0385545 0)
(1.00723 5.60477e-05 1.80823e-22)
(1.05665 0.0639809 -7.1505e-23)
(1.06489 0.0974268 0)
(1.00646 -0.00022051 5.53954e-22)
(1.02425 0.0338079 -1.32951e-22)
(1.00445 -0.00711656 0)
(1.07416 0.0280853 -3.32786e-22)
(1.01696 0.00806189 -7.12099e-23)
(1.01377 0.00561246 3.51369e-22)
(1.03681 0.0160568 -2.81073e-22)
(1.01709 0.0362082 -3.78233e-22)
(1.01141 0.0043855 -3.45003e-22)
(1.03129 0.0635612 1.65404e-22)
(0.797122 0.0856621 3.00999e-22)
(0.474164 0.033515 9.43181e-24)
(1.01137 0.00431364 -1.73264e-22)
(1.00638 0.000912575 -3.61303e-23)
(0.684895 0.0554668 1.30975e-21)
(1.01869 0.00994023 -1.23674e-21)
(0.975432 -0.0436824 -1.76742e-21)
(1.02767 0.0496105 0)
(1.00038 9.53164e-06 6.98048e-24)
(1.05559 -0.0498861 -9.72885e-22)
(1.00226 -1.6142e-05 0)
(1.0919 0.0778736 -2.79556e-22)
(1.01958 0.0144759 2.73817e-22)
(1.00931 0.0290396 2.81315e-22)
(1.03981 0.0611141 1.11886e-21)
(1.01793 0.0176495 0)
(0.877524 0.0801088 -2.37639e-21)
(0.987741 0.0384548 -2.05842e-21)
(1.00751 -0.00502604 2.3172e-22)
(0.997677 0.0282967 -5.01711e-22)
(1.02998 0.00819258 -4.47899e-22)
(0.533928 0.0441501 -8.23931e-21)
(1.01014 -0.000782078 1.75403e-22)
(1.03284 0.0155766 3.2888e-22)
(1.08791 0.051131 6.57065e-21)
(1.01716 0.000386279 -1.04451e-21)
(1.00483 -0.000192886 -8.1126e-23)
(1.0118 0.0055112 6.2691e-22)
(1.05135 0.0465818 1.10067e-21)
(1.01176 0.00848459 0)
(1.00169 -0.0403469 -5.21567e-21)
(0.993764 0.031821 0)
(1.00987 -0.00408142 0)
(1.03113 0.0286117 -3.03757e-21)
(1.05565 0.0643617 -6.43499e-21)
(1.03999 0.0688324 7.81633e-22)
(1.04486 0.0330923 4.47461e-21)
(1.10541 0.0742606 0)
(1.03652 0.194085 0)
(1.05928 0.0566504 5.09808e-21)
(1.05434 0.039738 -1.10019e-21)
(0.576262 0.0877004 0)
(1.04816 0.0582897 0)
(0.990829 -0.0637515 1.65045e-21)
(1.06135 0.0472623 1.15901e-20)
(1.0742 0.0448104 0)
(1.05115 0.0584776 8.03973e-21)
(1.05325 0.0535233 3.90597e-21)
(1.01008 0.00269208 1.51563e-22)
(1.01947 0.0171574 2.26795e-22)
(1.02004 0.000774103 6.73953e-22)
(1.00156 0.0309002 0)
(1.01297 0.00482973 2.14375e-22)
(1.00798 0.00132134 0)
(1.03455 0.00653763 2.89934e-21)
(1.07431 0.0255741 1.1765e-20)
(1.03431 0.00670359 -4.9113e-21)
(1.01889 -0.00416363 0)
(1.01935 0.017164 1.32405e-22)
(1.02565 0.0145161 -2.03623e-22)
(1.00668 0.000576198 4.74534e-22)
(1.0095 -0.000569205 -4.1265e-22)
(1.06865 0.0357098 0)
(1.01448 0.00434707 -1.68092e-22)
(1.07976 0.0307142 0)
(1.06687 0.0762325 7.29214e-22)
(1.00228 0.0485881 0)
(1.06669 -0.00295977 -3.02512e-22)
(1.02001 0.0225722 0)
(1.02352 0.00837542 1.30165e-22)
(1.06718 0.00669413 -3.62717e-22)
(0.602346 0.0451456 -7.88219e-21)
(1.01802 -0.00499723 0)
(1.00507 -0.000149277 3.10433e-22)
(1.00031 -2.08777e-05 -1.58188e-22)
(0.518089 0.0394565 0)
(0.363765 0.010965 2.65558e-21)
(1.01163 -0.0125595 9.84644e-22)
(1.0136 0.00558136 -1.52227e-22)
(0.496294 0.123291 3.25868e-22)
(1.01261 -0.000661309 -2.42977e-22)
(1.01173 0.00473434 1.26111e-22)
(0.944534 0.0995608 2.05631e-21)
(1.01423 0.0101343 0)
(1.0077 -0.0143002 -2.86985e-22)
(1.08643 0.0980875 -1.03079e-20)
(1.00903 -0.00112209 -2.1663e-24)
(1.01029 -0.00299312 0)
(1.02378 0.00851809 0)
(1.05589 0.0396675 1.14792e-21)
(1.04432 0.0809193 0)
(0.527514 0.0460485 2.36267e-20)
(1.01192 0.00832916 -2.56088e-22)
(0.989539 0.0285368 2.95821e-22)
(1.00694 -0.000243184 1.72607e-22)
(1.00383 0.000190809 6.46711e-23)
(1.01418 0.00969973 -1.15713e-22)
(1.0268 0.0869544 0)
(1.0067 -0.00279924 7.03392e-22)
(1.09584 0.0695759 2.35186e-20)
(1.03746 0.0200685 0)
(0.973463 0.04757 2.01448e-21)
(1.05658 0.0318904 0)
(0.891263 0.0806826 0)
(1.00748 0.0290038 -3.44069e-22)
(1.01294 0.00942132 -1.46039e-22)
(1.01389 0.0118364 -1.66102e-21)
(1.07202 0.0709886 6.27877e-21)
(0.725985 0.0734586 -1.06946e-20)
(1.00767 -0.0026831 0)
(1.0091 -0.00395409 -1.12251e-22)
(1.07509 0.0433908 1.04462e-20)
(1.00506 -0.000117703 0)
(0.988212 -0.0469466 0)
(1.01095 -0.00306264 0)
(1.01377 0.0103588 3.96875e-24)
(1.00012 0.0606429 0)
(1.02137 0.0166794 3.48225e-22)
(1.01773 -0.0010642 1.50334e-22)
(1.07458 0.0699233 1.87732e-20)
(1.00502 -0.000114664 0)
(1.01064 0.000574367 0)
(1.01797 -0.000824217 -1.54202e-22)
(1.03318 0.0437092 -9.3771e-22)
(1.0373 -0.0303796 1.75708e-22)
(1.06323 0.053087 -2.72327e-21)
(0.628047 0.0522393 0)
(1.01894 0.00465563 -2.40894e-21)
(1.0172 0.00729811 2.6242e-21)
(1.09646 0.0698751 0)
(1.03454 0.0541616 0)
(1.09176 0.0917866 8.37053e-21)
(1.01479 0.0119101 7.97293e-22)
(1.02839 0.0644168 -1.23853e-21)
(1.05345 0.0532776 5.22756e-21)
(1.10346 0.0770025 -4.16393e-21)
(1.01939 0.014417 0)
(1.0585 0.057475 0)
(1.02395 0.000635262 -1.64656e-22)
(1.01177 0.00547112 0)
(0.726144 -0.0153548 -5.31143e-21)
(1.05661 0.0550008 -1.95562e-21)
(1.00577 -0.0182581 6.61808e-22)
(0.736364 0.0666123 0)
(1.0833 0.0701894 0)
(1.00982 -0.0160487 2.54833e-22)
(1.01797 0.0179261 0)
(1.00735 -0.000478846 0)
(1.0147 -0.00243617 -9.48991e-23)
(1.07915 0.0305292 7.51192e-21)
(0.864692 0.112365 1.06441e-21)
(1.07984 0.0781152 0)
(1.01939 0.0203627 -2.7533e-23)
(0.479814 0.0346523 1.8416e-20)
(0.484708 0.166022 -1.11821e-20)
(1.00561 -0.0151002 5.838e-22)
(1.01955 0.0178579 3.08817e-22)
(1.0196 0.0231304 5.08134e-22)
(1.01609 0.00262119 -1.09564e-21)
(1.005 -0.000211825 -4.51885e-23)
(1.08729 0.134139 0)
(1.01276 0.00588239 0)
(1.01618 0.00258081 1.94746e-21)
(1.00515 -0.000180875 2.49594e-22)
(1.00051 -3.78011e-05 0)
(1.01636 -0.011294 2.17998e-22)
(1.00645 -0.000212842 1.59236e-22)
(1.03328 -0.0305033 -1.41358e-22)
(1.08735 0.115513 -4.98706e-22)
(1.0296 0.0100922 3.22527e-21)
(1.01555 0.000276778 -1.18587e-23)
(1.01725 0.0107185 -8.55351e-22)
(1.00951 0.00343864 -9.23111e-23)
(1.00685 0.000668492 -2.81838e-22)
(1.01178 0.009573 1.0552e-21)
(1.00963 -0.000557371 3.4035e-22)
(1.00694 0.0282338 4.25474e-22)
(1.09955 0.0607821 -3.43513e-21)
(1.06053 0.0554893 -2.94663e-21)
(1.05919 0.057075 6.72376e-21)
(0.469993 0.0337987 -2.02678e-20)
(0.652317 0.0524105 -1.0722e-20)
(1.05791 0.0573379 -1.06827e-20)
(0.979682 -0.0908221 1.70104e-21)
(1.04254 0.0543966 0)
(1.01306 -0.0161149 -3.44731e-22)
(1.02086 0.00273343 -1.41089e-21)
(1.02998 0.00203645 -1.16704e-21)
(1.01529 0.00266927 0)
(1.01629 0.000198534 0)
(1.09908 0.0608939 0)
(1.02425 0.00850785 4.40277e-21)
(1.08632 0.069628 -1.75907e-20)
(0.516493 0.125979 0)
(1.02766 0.0291517 5.51013e-22)
(0.98518 -0.0955276 -4.76512e-21)
(1.05852 0.0410648 -5.05887e-21)
(1.0396 0.0888462 0)
(0.622912 0.0459858 -2.66929e-21)
(1.02546 0.0182158 6.99535e-22)
(0.99477 0.0223916 -1.52802e-21)
(1.01703 0.00724417 -2.02354e-21)
(0.997979 0.0232764 1.47903e-21)
(1.02742 0.0129999 2.58824e-21)
(1.01667 0.00670131 1.04143e-21)
(1.04075 0.0664059 2.20845e-21)
(1.01984 0.0150394 2.6804e-22)
(1.03412 0.051547 2.01182e-21)
(1.03541 0.0292998 0)
(0.996959 0.021681 1.34228e-21)
(1.01451 -0.00247805 1.16955e-22)
(1.0502 0.0250506 1.0175e-21)
(1.06389 0.0535469 0)
(1.01181 0.0365184 -5.60549e-23)
(1.00079 3.83788e-06 0)
(0.945533 0.128575 6.3183e-22)
(0.93236 0.103161 0)
(1.02309 0.0247406 -1.15261e-21)
(1.07605 0.0413215 3.1306e-21)
(0.88435 -0.107733 2.12859e-21)
(1.00639 0.000937867 0)
(1.05382 0.153693 -5.624e-21)
(1.01567 -0.00949615 -2.26208e-22)
(1.10283 0.0772095 4.26232e-21)
(1.01583 0.0226504 1.71934e-21)
(0.333254 0.0140877 7.75162e-21)
(0.987115 0.0319031 -1.18563e-20)
(0.950781 0.0105056 3.30674e-21)
(1.0217 0.0178714 0)
(1.01003 -0.000879453 -4.32401e-22)
(1.00529 -0.0148291 0)
(1.00715 0.00108771 0)
(1.02341 0.0249875 2.32017e-23)
(0.748309 0.0672368 0)
(1.01596 0.0109886 0)
(1.01126 0.0356071 3.71808e-23)
(1.02841 0.0145771 2.01403e-21)
(1.07719 0.0413668 -8.2865e-21)
(1.00714 0.00109973 0)
(1.0171 0.0104029 -1.34623e-21)
(1.01501 0.00552238 -2.18724e-21)
(0.878177 0.114169 2.287e-22)
(1.06235 0.0977875 0)
(1.00643 0.000968197 0)
(0.45258 0.0298874 -6.629e-21)
(1.02161 0.01944 -2.39353e-23)
(1.09227 0.0911691 0)
(1.04241 -0.0167884 -1.21817e-23)
(1.02001 -0.000832997 0)
(1.007 -0.016538 7.80802e-22)
(1.02042 -0.000427014 0)
(1.01624 0.00177286 3.12821e-21)
(1.0932 0.0526 0)
(1.0888 0.0639257 0)
(1.03933 0.0327749 1.0417e-22)
(0.993589 0.020767 0)
(1.07507 0.110719 5.0419e-23)
(1.01515 0.00257337 0)
(1.02679 0.0277061 2.71269e-22)
(1.04714 0.151939 5.3354e-21)
(0.962692 0.0673814 -8.09572e-22)
(1.02198 0.0161091 0)
(1.00566 0.000365739 8.16372e-22)
(0.687072 0.134564 -3.71979e-21)
(1.01439 0.00175226 -3.20476e-22)
(0.800421 -0.208816 2.25328e-21)
(1.04235 0.00528505 -3.5515e-21)
(0.792953 -0.218673 6.13937e-23)
(1.09988 0.0602597 2.64052e-21)
(0.942743 0.149466 0)
(1.0101 0.00319066 5.14619e-24)
(0.956563 0.0626229 7.6648e-22)
(1.03834 0.0226615 -8.40721e-24)
(1.02146 0.0313819 -3.35084e-22)
(0.940325 0.141787 -5.5613e-22)
(1.00656 -0.000224504 0)
(1.00356 -0.015952 1.21474e-21)
(1.06683 0.0213696 0)
(0.679644 -0.0753695 1.93289e-22)
(1.03863 0.0226302 2.56438e-21)
(1.00981 0.000584201 0)
(1.10033 0.0595828 -2.36325e-20)
(0.93108 -0.00722487 -1.94583e-21)
(1.00562 0.000375155 -4.56246e-22)
(1.01568 -0.0014775 0)
(1.02668 0.0270635 3.62035e-21)
(1.02141 0.0192565 -7.04495e-22)
(1.00845 0.00141813 -3.58713e-22)
(0.903685 0.128652 4.7642e-21)
(1.09984 0.0599316 0)
(1.01686 0.0149014 0)
(1.01713 0.0120066 3.31932e-22)
(1.01903 0.00740258 7.54173e-22)
(1.00023 -2.6402e-05 5.15345e-22)
(0.81907 0.0731605 -2.40414e-21)
(1.03627 0.0253153 4.0301e-21)
(1.02662 0.0411759 -3.22556e-21)
(1.0234 0.00462232 -4.80557e-22)
(1.08712 0.0883914 0)
(0.732189 0.0668674 1.05892e-20)
(0.995982 0.0899251 2.28093e-22)
(1.03596 0.0213812 0)
(1.04401 0.0708719 2.13717e-21)
(1.04561 -0.0163539 0)
(0.993806 0.096576 1.16037e-21)
(1.03864 0.0289667 -2.42194e-23)
(0.580739 0.0914847 4.81132e-21)
(1.02187 0.0310512 3.10876e-22)
(1.09712 0.0775944 8.31909e-21)
(0.74535 0.0673792 -4.95718e-21)
(1.01116 0.0038505 6.65576e-24)
(1.01434 0.00456621 -1.12865e-21)
(1.02381 0.0131729 2.48746e-21)
(1.01711 0.00820783 1.61675e-22)
(1.01516 0.0229124 -1.29712e-21)
(1.03611 0.0217363 0)
(1.01769 -0.00532872 -1.74489e-21)
(1.04888 -0.00727851 1.02902e-22)
(1.08847 0.0872336 -1.9378e-20)
(1.03548 0.0275825 0)
(0.833257 0.0711642 -6.3423e-22)
(1.05464 0.190246 2.87717e-22)
(1.05664 0.0314048 0)
(1.00957 0.00350079 0)
(1.03823 0.0290451 2.46279e-21)
(1.05745 0.0133544 -3.28901e-21)
(1.02076 0.0252109 2.27396e-22)
(0.945871 0.00094936 -3.53532e-21)
(0.761882 -0.225706 -3.74584e-22)
(1.09867 0.0616271 1.18641e-20)
(1.00696 -0.00938221 -5.21793e-22)
(1.01508 0.0130512 0)
(1.08505 0.0446246 -9.62157e-21)
(1.03928 0.039506 0)
(0.616304 0.0515775 0)
(0.631656 0.111294 1.04398e-22)
(0.864679 0.115193 1.96338e-21)
(0.960992 -0.00886365 1.81981e-21)
(1.0887 0.0525114 -2.44201e-20)
(0.956658 0.0657536 2.16841e-22)
(1.00951 0.00263216 -2.89289e-22)
(1.04863 0.1918 0)
(1.00117 0.0282295 4.86766e-22)
(1.02203 0.0159515 8.98579e-22)
(0.965589 0.0719163 -2.20047e-22)
(1.03273 0.0366212 -1.0066e-21)
(1.06256 0.0532103 0)
(0.580114 0.0970128 3.84885e-21)
(1.02683 0.0267265 -1.22733e-21)
(1.01755 0.0182187 1.41374e-22)
(1.0117 0.00546319 -2.84383e-22)
(1.04176 0.0560673 -1.07624e-21)
(0.693338 0.121125 0)
(1.05198 0.053668 4.57111e-21)
(0.472713 0.0335942 -6.26891e-21)
(1.07621 0.0958131 -1.68763e-20)
(1.10031 0.0592327 2.38948e-20)
(1.05099 0.0508723 3.7227e-21)
(1.00561 0.00032039 4.33054e-22)
(1.0517 0.0534336 -3.95152e-21)
(1.01916 0.0174986 0)
(1.01362 0.0351143 0)
(1.02091 0.0227508 -2.58901e-22)
(1.06767 0.071207 -2.11601e-21)
(1.01482 0.00493327 0)
(0.883404 -0.158022 0)
(0.934167 0.10355 8.90022e-21)
(1.0188 0.00727606 1.36067e-21)
(1.00513 -0.000144971 0)
(0.642344 -0.0914982 1.31865e-21)
(1.03823 0.0384529 -1.94349e-21)
(1.01172 0.0206803 0)
(1.02096 0.017166 -1.68114e-22)
(1.00508 -0.000142489 -8.02311e-23)
(1.03444 0.0303369 -9.49238e-22)
(1.00558 0.000306669 -1.56139e-22)
(1.03248 0.0556836 -1.63434e-21)
(1.026 0.0413348 2.65008e-21)
(1.02258 0.000828034 4.23878e-22)
(1.0257 0.0184859 0)
(1.00996 0.036002 -4.34429e-23)
(0.457103 0.0318603 0)
(1.01026 -0.000777482 8.63944e-23)
(1.07328 0.0684796 -9.7177e-21)
(1.08271 0.0639308 -2.68938e-20)
(1.02965 -0.00858994 -1.72287e-23)
(1.00916 -0.000791415 1.68241e-22)
(1.08802 0.0637413 7.51229e-21)
(1.04106 0.0679471 -4.27299e-21)
(1.00695 0.000666718 0)
(0.685582 -0.0777434 -1.07154e-21)
(0.457373 0.0318868 0)
(1.00843 0.00245446 3.98787e-23)
(1.05637 0.04741 0)
(1.01014 0.00325618 3.11091e-22)
(1.01445 0.00199683 0)
(0.979216 0.0147423 7.05093e-22)
(1.04401 0.0147219 2.58582e-21)
(1.0231 0.00866205 -4.62384e-22)
(1.04098 0.0317038 -1.56522e-21)
(0.932653 -0.0191308 0)
(0.97188 0.011073 7.90849e-22)
(0.697522 0.0558856 -1.06475e-20)
(1.01665 0.00656355 -1.14048e-21)
(1.03211 0.194445 3.47179e-22)
(1.00498 -0.00010469 1.40618e-22)
(1.01417 0.00191741 0)
(1.07935 0.0724474 -2.28219e-21)
(1.0084 0.00241606 -4.18961e-23)
(1.01359 0.0104085 -6.59756e-23)
(0.886669 0.0834228 -6.68962e-21)
(1.01921 0.0175876 8.75432e-23)
(1.03984 0.0361451 0)
(1.00061 -1.65917e-05 0)
(1.07002 0.134027 1.24836e-20)
(0.533013 0.0521195 -2.2557e-20)
(1.01873 -0.00750329 0)
(1.00234 -3.26659e-05 -7.25961e-23)
(1.06304 0.0285198 -7.8501e-21)
(1.00242 0.00809229 0)
(1.02335 0.00743105 4.66235e-22)
(0.322733 0.0122485 9.32968e-21)
(1.01313 -0.0116655 -1.2176e-21)
(1.05253 0.0334102 4.97184e-21)
(1.04194 0.0365667 -1.55978e-21)
(0.974512 0.0157449 -1.55689e-21)
(1.00147 0.00634779 3.58113e-22)
(1.00194 4.29728e-06 2.35867e-22)
(0.874892 0.116019 0)
(1.00845 0.00185852 0)
(0.802502 -0.211654 0)
(1.00705 0.0109118 0)
(1.01143 0.000395292 7.60685e-22)
(1.01603 -4.95619e-05 0)
(1.00596 0.000217924 -7.81197e-22)
(1.02019 0.0153112 -1.28538e-23)
(1.05233 0.0533996 0)
(1.01095 0.0205272 0)
(1.0338 0.0434879 0)
(1.031 0.00180609 -1.82855e-21)
(1.01141 0.000391989 -4.94284e-22)
(1.03456 0.0142229 -1.79789e-21)
(1.05874 -0.0396634 4.62535e-22)
(1.01491 0.0138602 2.89611e-22)
(1.05661 0.0645416 8.00431e-21)
(1.08291 0.0831615 -1.03125e-20)
(1.07455 0.0714415 -1.2637e-20)
(1.08197 0.0830357 7.48366e-21)
(1.0166 0.0367373 4.62034e-23)
(1.03548 0.0280282 0)
(1.00849 0.00266659 4.32208e-22)
(1.0094 0.0351066 0)
(1.01321 -0.00189037 0)
(1.01615 -0.000266416 0)
(1.03508 0.0281003 2.02701e-21)
(1.01519 -0.0125191 2.27799e-22)
(1.04298 0.0047947 3.83546e-21)
(1.09834 0.0712399 -4.00133e-22)
(1.06267 0.184441 3.76046e-21)
(1.01776 -0.00633241 0)
(0.883693 0.0841624 1.75593e-20)
(1.011 -0.0128169 5.44333e-22)
(1.03203 0.0015171 0)
(1.08867 0.051963 1.24015e-20)
(1.04298 0.0865388 -1.68719e-20)
(1.06413 0.033497 -1.29852e-20)
(1.0126 -0.00207873 2.87846e-24)
(1.03503 0.0326799 1.29077e-22)
(0.616389 -0.0334813 7.73903e-22)
(1.02746 -0.00280026 0)
(1.03978 0.0477796 -4.40972e-21)
(1.1124 0.114222 -1.66223e-21)
(0.960026 -0.102147 1.66936e-21)
(1.02609 -0.00340842 1.44016e-22)
(1.03327 0.0377017 -2.02905e-22)
(1.01618 0.0114963 -2.29599e-22)
(1.01924 0.0142092 0)
(0.873054 0.0812829 0)
(1.00666 -0.000318061 8.92106e-24)
(0.676748 0.119607 0)
(1.01755 0.000959891 -5.61667e-22)
(0.467622 0.0329591 0)
(1.01749 0.00638 2.56822e-21)
(1.00636 -0.000462805 1.50385e-22)
(0.97159 0.055184 1.21396e-21)
(1.06284 0.0279906 1.22624e-20)
(1.01816 -0.00540705 -4.0166e-22)
(1.017 0.000837902 6.35713e-22)
(1.02158 -0.00532976 -2.14877e-23)
(1.01153 0.00508462 1.51938e-22)
(1.00069 -0.0160959 8.22691e-22)
(1.00625 -0.000444663 1.49081e-25)
(1.01738 0.00570158 0)
(0.662899 0.0536349 -1.40299e-21)
(1.08001 0.0744367 -2.02625e-21)
(0.865911 0.0176662 9.11069e-22)
(1.05075 0.0463766 3.82562e-21)
(1.09974 0.0732748 0)
(0.707239 0.0704365 8.36306e-21)
(1.07337 0.0675667 -1.18613e-20)
(1.03857 0.0221162 -4.33761e-21)
(0.957985 0.0498647 -7.14681e-21)
(0.72675 0.0542575 0)
(0.856176 0.156955 -2.83123e-21)
(0.960684 -0.105965 -1.53977e-21)
(1.05267 0.0536358 -4.18008e-21)
(1.03488 0.0514079 0)
(1.01033 -0.000913662 5.61602e-22)
(1.01919 0.0177382 -8.17569e-23)
(0.877455 -0.0284308 2.07641e-21)
(1.02993 0.0102188 -3.56476e-21)
(0.632672 0.0508731 -1.13924e-20)
(1.08975 0.0951881 0)
(0.775533 -0.0272926 0)
(0.725833 0.119458 8.38981e-21)
(1.05233 0.0585244 -5.30628e-21)
(1.01732 0.00629563 -2.55858e-21)
(1.00505 -0.000120979 -1.58365e-22)
(0.596554 0.0468912 -7.6714e-21)
(1.01246 0.00299941 6.95762e-22)
(1.05292 0.0510011 0)
(1.05395 0.0331941 2.56037e-21)
(1.00924 -0.000759603 1.5481e-22)
(1.00908 0.0025554 -2.89458e-22)
(0.954746 -0.113861 1.16931e-21)
(1.09961 0.0727093 0)
(1.07724 0.0967129 8.92881e-21)
(1.03048 0.0868686 1.61811e-20)
(1.00849 -0.00536529 1.13947e-22)
(1.02836 0.0143781 -1.20076e-21)
(1.02155 0.0167142 7.98668e-22)
(1.02081 0.0247236 4.33542e-22)
(1.00808 0.00208361 0)
(0.986899 0.040516 0)
(0.85366 0.108395 0)
(0.871289 0.0826886 -1.4132e-20)
(1.04818 0.0443192 0)
(0.437527 0.190825 1.19547e-20)
(1.02154 0.0174948 0)
(1.02071 0.0165769 8.45687e-22)
(1.01966 0.0365066 0)
(0.986678 0.0333366 -1.55358e-23)
(0.531348 0.166013 0)
(1.01589 0.00464614 -1.89024e-21)
(1.05561 0.0621238 6.61089e-21)
(1.01449 -0.000805326 0)
(1.01668 0.0082073 -7.71526e-24)
(0.993869 -0.0962157 -4.83617e-21)
(1.06221 0.0526842 3.14947e-21)
(1.0179 0.0124301 1.50918e-21)
(1.04785 0.0811513 2.3779e-22)
(1.00726 -0.000453239 0)
(1.03898 0.0350359 0)
(1.01448 -0.000665999 3.87615e-22)
(1.01869 0.0227922 -4.33826e-22)
(1.01216 0.00353034 1.67434e-22)
(1.01652 0.00807574 5.16693e-22)
(1.00984 -0.000870472 -1.66582e-22)
(1.02115 -0.00609082 2.43696e-23)
(1.00817 0.0348624 -4.68527e-22)
(0.907037 0.156921 2.11226e-21)
(1.0444 0.0334112 -3.60569e-21)
(1.06082 0.0363107 2.34269e-21)
(1.01143 0.00501733 0)
(0.999853 -1.67796e-05 -5.82507e-22)
(1.05066 0.0462016 5.57304e-23)
(1.01506 -0.00265481 0)
(1.01382 -0.0022416 -8.85773e-22)
(1.02615 0.0485899 -1.09586e-21)
(0.89458 0.0180063 -1.09576e-21)
(0.713274 0.0519697 2.18559e-21)
(1.0156 0.000510559 -7.92029e-22)
(1.00986 0.00372387 1.51488e-22)
(1.02904 0.011958 0)
(0.475191 0.126693 -9.91827e-22)
(1.04375 0.0144437 -1.04332e-20)
(1.02469 0.00849901 -5.54897e-22)
(1.06114 0.0557453 3.07995e-21)
(0.966809 -0.0992813 5.5112e-23)
(1.0099 0.00218747 -7.07781e-22)
(0.898845 0.0960657 0)
(1.02188 0.0170196 2.34901e-21)
(0.511572 0.0383215 9.90849e-21)
(1.01735 -0.00454063 7.72877e-22)
(0.999839 0.118406 8.17957e-21)
(0.550155 0.0451387 -1.45995e-20)
(1.00906 0.00248093 3.81045e-22)
(1.00602 -0.000389366 -1.38843e-22)
(1.03774 0.0406776 1.20764e-21)
(1.02259 0.0141677 2.0342e-21)
(1.0217 0.0169956 -1.46551e-21)
(0.952167 0.00785138 2.01076e-22)
(1.03628 0.0265642 0)
(1.00921 -0.000780121 0)
(0.880114 0.0864475 0)
(1.00932 -0.000783972 -1.6765e-22)
(0.613241 0.110308 0)
(1.01235 0.00289238 -1.32592e-21)
(1.01025 0.00315204 -2.94368e-22)
(1.01194 0.00160125 0)
(1.04598 0.0321362 2.48163e-21)
(1.09305 0.0841509 -1.31521e-20)
(1.05419 0.0530777 0)
(0.869655 0.053878 -7.95252e-21)
(1.04807 0.0440986 0)
(1.00607 -0.000409495 -1.37104e-22)
(1.00934 -0.000757512 2.33222e-22)
(1.00592 -0.0041424 -4.50991e-23)
(1.01093 0.00030917 0)
(1.0172 0.00561659 1.65414e-22)
(1.07131 0.196002 2.62684e-21)
(1.07365 0.0718883 0)
(0.636565 0.0471988 -7.15755e-22)
(1.04029 0.0182674 5.6781e-22)
(0.958934 -0.00612472 -1.66369e-21)
(1.04818 0.016885 3.97171e-21)
(1.01017 0.0031211 -4.08984e-22)
(1.00649 -0.00551837 3.96362e-23)
(1.01815 0.0232948 7.1211e-22)
(1.10185 0.0436931 2.46081e-21)
(0.550131 0.152516 0)
(1.02092 0.0193765 0)
(1.01914 0.0173484 0)