/*--------------------------------*- C++ -*----------------------------------*\
| =========                 |                                                 |
| \\      /  F ield         | OpenFOAM: The Open Source CFD Toolbox           |
|  \\    /   O peration     | Version:  v2012                                 |
|   \\  /    A nd           | Website:  www.openfoam.com                      |
|    \\/     M anipulation  |                                                 |
\*---------------------------------------------------------------------------*/
FoamFile
{
    version     2.0;
    format      ascii;
    class       volVectorField;
    location    "200";
    object      U_0;
}
// * * * * * * * * * * * * * * * * * * * * * * * * * * * * * * * * * * * * * //

dimensions      [0 1 -1 0 0 0 0];


internalField   nonuniform List<vector> 
54593
(
(1.00269 -0.00398686 5.42769e-22)
(1.02328 0.0158541 1.8982e-22)
(1.00089 -0.00340018 -9.24388e-22)
(1.07541 0.0718772 1.21587e-20)
(1.04178 0.0549772 8.8879e-22)
(1.00276 -0.00657222 -6.38319e-23)
(1.00809 0.00200029 -1.02179e-22)
(1.08594 0.0748034 -4.86719e-21)
(1.04181 0.065597 3.64241e-21)
(1.06148 0.0290798 -5.6331e-23)
(1.01632 0.000623294 1.90333e-21)
(1.08766 0.0947192 7.05441e-21)
(1.00116 -3.57363e-05 0)
(1.00895 0.00293902 0)
(1.01482 -0.0150058 -9.92653e-23)
(1.00813 -0.000368454 5.65291e-22)
(0.465824 0.0318314 5.40118e-23)
(1.01776 0.00668899 0)
(1.00825 -0.000364738 -5.7352e-22)
(1.10676 0.070532 0)
(1.01259 0.0080322 4.0458e-22)
(1.02613 0.0190923 1.70022e-22)
(1.03264 -0.0090522 -1.83213e-22)
(1.01199 0.0050798 0)
(1.01014 -0.000486662 -7.56877e-22)
(1.06944 0.0282365 5.34862e-21)
(0.990881 -0.0306458 -1.95206e-22)
(1.01451 -0.0126596 0)
(1.06912 0.0513751 2.029e-21)
(1.01263 -0.000842876 4.37235e-22)
(0.945501 0.00709255 0)
(0.99523 -0.057096 1.48577e-21)
(1.00493 -9.53756e-05 -8.70564e-24)
(0.911656 0.132815 -4.09206e-21)
(1.00675 -0.000226522 1.91576e-22)
(1.01177 0.00487487 1.78811e-22)
(1.07413 0.0249548 -9.97429e-21)
(1.0638 0.0137254 -9.45727e-22)
(0.990833 -0.00917328 2.5511e-21)
(0.885441 -0.224562 -2.02872e-21)
(0.937066 0.164524 -4.9469e-22)
(1.00221 6.27809e-05 0)
(1.01745 0.00836765 5.71763e-24)
(1.02015 0.00680593 1.21974e-21)
(1.00742 0.00160662 -8.60675e-23)
(1.01165 0.00979398 -8.78823e-22)
(1.00841 0.00218194 -5.60088e-23)
(0.988644 0.00112679 0)
(1.0627 0.0216592 1.04714e-21)
(1.02634 0.0193825 4.22399e-22)
(1.00734 0.00155706 7.12354e-23)
(1.01037 0.0021356 0)
(1.01291 0.00626534 0)
(1.06681 0.0193673 1.1715e-20)
(1.05443 0.0336253 -4.75085e-21)
(1.01629 0.000592399 2.43042e-21)
(1.08612 0.0740973 5.16179e-21)
(1.02781 0.0136869 7.55168e-22)
(0.994142 -0.052027 0)
(1.01338 -0.00211066 3.46166e-22)
(0.989207 -0.0106232 5.02881e-22)
(1.02357 0.0129831 -2.19568e-21)
(1.02101 0.0163385 1.15157e-21)
(1.02312 0.0128243 0)
(0.541015 0.043868 1.2797e-20)
(0.889342 -0.226974 3.8678e-21)
(1.02097 0.00286882 0)
(0.684 0.116898 9.04377e-21)
(1.01031 0.00208547 0)
(1.00817 0.00206541 1.67517e-22)
(0.536077 0.0428774 6.55262e-21)
(1.01072 0.0043365 1.11596e-23)
(1.06649 0.019823 -6.01128e-21)
(1.00489 -8.97535e-05 -4.21675e-23)
(1.00674 -0.000230679 0)
(1.00849 0.00225573 0)
(0.97839 -0.120978 3.79984e-21)
(1.0345 0.0149637 4.69318e-21)
(0.934271 0.156159 0)
(1.0735 0.0278063 0)
(1.01193 0.00502513 0)
(1.03334 0.00770426 0)
(0.538102 0.0425278 1.06295e-20)
(0.659762 0.114891 -9.32074e-21)
(1.0153 0.00563264 0)
(1.01018 0.00295016 3.75287e-22)
(1.10408 0.075976 -2.29691e-21)
(1.01255 0.0078639 -4.02856e-22)
(1.01028 0.00303127 -2.62595e-22)
(1.08415 0.0821241 2.82837e-20)
(1.00832 0.00140262 2.59888e-22)
(1.01172 0.00483174 -1.81673e-22)
(0.671871 0.0971448 1.15467e-20)
(1.03358 0.00750751 0)
(0.979548 -0.069809 -1.64448e-21)
(1.06374 0.0338625 4.06836e-21)
(1.0188 0.0176184 6.04452e-22)
(1.01969 0.0148339 2.58256e-22)
(1.01727 0.00820596 -1.163e-21)
(1.00664 -0.000231949 0)
(0.921766 0.130423 0)
(0.957513 0.104598 0)
(1.02335 0.0130257 0)
(1.10638 0.06756 0)
(1.01851 -0.0266327 -3.16607e-22)
(1.01069 0.0587486 0)
(1.01061 0.00421704 7.58161e-23)
(1.07331 0.0510443 -1.24301e-20)
(1.00493 -9.91536e-05 6.53324e-22)
(1.0175 0.0080665 1.09478e-21)
(1.00891 0.00146257 -9.25197e-23)
(1.03458 0.0147844 -3.63761e-21)
(0.506692 0.0369557 0)
(1.02118 0.0221576 2.26629e-22)
(0.974388 0.0100178 -4.76229e-21)
(1.0203 0.000977698 0)
(1.01756 0.0065929 0)
(1.01167 0.00907721 1.84354e-22)
(1.02022 -0.0236434 5.25347e-22)
(0.916998 0.143148 0)
(1.01169 0.00467641 -6.73927e-22)
(1.10527 0.0678743 0)
(1.06913 0.0278444 1.31164e-20)
(0.998309 -0.0143155 -6.44725e-22)
(1.02226 0.0193716 -1.86379e-21)
(0.466968 0.0323711 6.26547e-21)
(1.01195 0.00571606 7.31594e-24)
(1.02664 0.0495443 9.99363e-24)
(0.701242 0.117007 8.7367e-21)
(1.02996 0.00185184 -1.6596e-21)
(1.0331 0.017354 4.27853e-21)
(1.01896 0.0167285 1.39654e-22)
(1.00787 0.00130408 0)
(1.01507 0.036602 0)
(1.02037 0.00694281 0)
(1.00683 -0.00021699 8.58998e-23)
(1.06842 0.0352224 1.55391e-20)
(1.00816 0.0597341 0)
(1.02236 0.0192142 8.47136e-22)
(0.835884 0.0918896 0)
(1.02044 0.00102682 -1.5439e-21)
(1.01322 -0.00186202 1.724e-22)
(1.01735 0.00754393 0)
(0.620318 0.0518513 9.08896e-21)
(1.01516 0.00550806 -8.77917e-22)
(1.01566 0.0362199 3.17028e-22)
(1.0419 0.0361117 -3.04889e-21)
(1.04482 0.0327496 0)
(1.01755 0.00797129 0)
(0.47157 0.0325332 -4.56341e-23)
(1.01255 -0.000626773 4.02508e-22)
(0.992565 -0.0820912 0)
(1.01758 0.0109161 4.73231e-22)
(1.01 0.00262452 -1.40369e-22)
(1.05803 0.0134457 0)
(1.10335 0.0761046 4.06873e-21)
(1.08324 0.0819604 -2.17761e-20)
(0.970918 0.0439909 2.2659e-21)
(1.02474 0.011921 -8.46982e-23)
(1.01974 0.0146794 -2.81818e-22)
(1.02473 0.00152977 -1.54964e-22)
(1.09299 0.0520784 0)
(0.652159 0.112058 0)
(1.00654 0.00105897 0)
(1.10687 0.0711347 1.90111e-21)
(1.03446 0.0139758 3.7017e-21)
(1.01182 0.00891694 0)
(1.00811 0.00131431 1.24329e-22)
(1.02572 0.00136753 4.55798e-21)
(1.00905 0.0014782 3.75707e-22)
(0.492607 0.157983 -3.21956e-22)
(1.01253 0.000545488 4.26879e-23)
(1.01256 -0.000476251 0)
(1.05646 0.0487292 4.21325e-21)
(1.03297 0.0169944 -2.82995e-21)
(1.01739 0.00746836 -5.46045e-22)
(1.05711 0.0639027 -3.78376e-21)
(1.02199 0.0399796 0)
(0.629895 0.0525708 -1.09251e-20)
(1.00661 0.00108844 -7.55325e-23)
(1.00655 -0.000222725 -5.49757e-22)
(1.01447 0.000116931 6.65954e-22)
(0.71674 0.127954 -3.94094e-21)
(1.00967 0.0276992 -2.59607e-22)
(1.02656 0.0106258 2.70351e-22)
(1.00093 -2.29599e-05 2.8606e-22)
(0.790876 0.0898485 -8.45518e-21)
(1.0189 0.0102782 3.32005e-22)
(1.01904 0.0176724 -4.81767e-22)
(1.00105 -2.98944e-05 2.53372e-22)
(0.883057 0.116747 1.9282e-21)
(1.1067 0.0670374 1.48313e-20)
(1.00224 8.58035e-05 1.30033e-22)
(0.878117 -0.028014 -1.13801e-21)
(1.09781 0.0766254 1.42337e-20)
(1.0278 0.0134525 1.50161e-21)
(1.00499 0.000313151 -4.37813e-24)
(1.01925 0.0178663 7.65671e-23)
(1.09631 0.0777978 -1.8701e-23)
(1.01472 0.000239325 -1.32465e-22)
(0.583118 0.120491 8.17406e-23)
(1.01575 -0.0116976 2.05928e-22)
(1.00896 0.000424655 -1.1281e-21)
(1.07454 0.0437043 -3.31888e-21)
(0.373487 0.0128845 1.13526e-20)
(1.02189 0.0193666 7.06233e-22)
(1.01343 -0.00208567 -5.8054e-22)
(1.07471 0.0444265 5.52958e-23)
(1.01405 0.000277956 1.58716e-21)
(0.824108 0.0953148 0)
(1.01969 0.00117516 0)
(1.08889 0.0944987 -4.75228e-21)
(1.06138 0.0467977 0)
(0.983615 -0.0767143 7.51104e-21)
(1.01559 0.000132653 0)
(1.01984 0.0358996 0)
(1.05019 0.0246268 4.7344e-21)
(1.00058 -0.000994826 1.80532e-22)
(1.00489 -9.26238e-05 6.73484e-23)
(1.01634 0.000114772 0)
(1.01327 -0.00206144 4.40937e-22)
(0.494954 0.161604 1.25232e-20)
(1.01054 0.00417838 -4.29342e-22)
(1.01832 -0.00279643 -1.0485e-21)
(0.896473 0.163807 -1.17687e-21)
(1.08861 0.0862004 1.83543e-20)
(1.019 0.0166444 2.05971e-22)
(0.539666 0.121982 1.09583e-21)
(1.03271 0.0632843 -1.59621e-21)
(0.707292 0.119407 -8.92585e-21)
(0.864597 -0.124196 3.13113e-21)
(1.00497 -0.000102797 -5.35016e-22)
(1.03414 0.02905 -1.91034e-21)
(1.01268 0.00804821 -2.91585e-22)
(1.06165 0.0295169 7.33072e-21)
(1.02542 0.00127266 0)
(1.02198 0.0192255 8.05843e-22)
(0.90051 0.162221 -2.60113e-21)
(1.09709 0.0767688 -1.36925e-20)
(1.00144 6.20208e-05 0)
(1.00491 -9.49261e-05 -7.88129e-23)
(1.00748 0.000481854 -5.949e-22)
(1.01498 0.00507145 -4.04093e-22)
(1.00487 -9.04884e-05 -1.47658e-22)
(1.05477 0.0333646 7.68788e-21)
(1.01109 0.00463572 0)
(0.876118 0.0812774 0)
(1.02816 -0.0378512 0)
(1.01307 -0.00188556 -1.41313e-23)
(1.01032 -0.000504861 0)
(1.096 0.0806278 1.83036e-20)
(1.00114 -3.87811e-05 -2.64827e-22)
(1.07281 0.0506146 8.65786e-21)
(1.00252 -7.64282e-05 -9.66581e-23)
(0.8332 0.126013 -1.41565e-23)
(1.00903 0.0029947 0)
(1.06554 0.0291985 0)
(0.55983 0.124155 -1.04752e-21)
(1.08723 0.0874256 3.33953e-21)
(1.01168 0.00462332 -7.02423e-22)
(1.01136 0.00441864 0)
(1.00501 -0.000117901 -7.82135e-23)
(1.06293 0.0740096 -1.02148e-20)
(0.811516 -0.203146 -2.76055e-21)
(0.981478 -0.0293618 -2.33909e-22)
(1.03961 0.062048 -8.192e-22)
(1.00494 -9.56317e-05 8.48421e-24)
(1.01761 0.0169402 0)
(1.01775 0.0123886 -4.61455e-22)
(1.0014 -3.25921e-05 0)
(1.00282 0.0608639 6.91022e-22)
(1.03476 -0.0506928 1.98453e-21)
(1.01043 0.00406914 3.30723e-22)
(1.06607 0.0980426 3.00491e-21)
(1.09525 0.0799903 3.07106e-21)
(0.729263 -0.00773631 0)
(1.01741 0.0108899 1.27737e-21)
(1.01958 0.00119417 0)
(1.06372 0.0535229 -1.41044e-21)
(1.03099 0.00154606 -1.72312e-21)
(1.0118 0.00475574 1.12127e-21)
(1.01531 -0.00256215 0)
(1.01295 -0.00171524 4.91194e-22)
(1.07551 0.0416887 3.48379e-21)
(0.554497 0.0484659 0)
(1.07487 -0.0316712 4.4554e-22)
(1.07666 0.0416606 -1.0117e-22)
(1.01972 0.0172003 -3.55757e-22)
(1.09913 0.0744874 0)
(1.01773 0.0110974 -1.43032e-21)
(1.01332 -0.00209576 0)
(0.826282 0.1165 0)
(0.985312 0.0390171 9.70768e-22)
(0.664093 0.106735 3.21912e-22)
(1.0503 0.0507703 -5.75868e-21)
(1.02398 0.00839429 -2.97388e-21)
(1.01189 -0.0150271 2.37367e-22)
(1.0119 0.00568311 0)
(1.01961 0.0172185 6.86024e-23)
(1.01915 0.0334718 -3.32709e-22)
(1.05516 0.0649769 7.56805e-21)
(1.04882 0.0580019 0)
(1.03118 0.00712658 4.4536e-22)
(0.976797 -0.0320648 -1.40648e-21)
(1.05087 0.0461549 -5.07952e-21)
(1.09899 0.0739326 0)
(0.88947 0.0812452 2.26789e-21)
(0.528791 0.0421376 8.85762e-21)
(0.598514 -0.0994928 0)
(0.654811 0.108269 0)
(1.01295 0.00614899 -1.27757e-23)
(1.06975 -0.0384574 1.24373e-22)
(1.01795 0.0170038 0)
(0.605618 0.047903 0)
(1.10562 0.0749335 0)
(1.00706 0.0289529 1.36031e-22)
(0.547895 0.0461664 0)
(1.03778 0.0401363 2.36916e-21)
(1.06598 0.076703 0)
(1.01889 0.0101133 9.88355e-22)
(0.736604 0.126825 3.55343e-21)
(1.08798 0.0517262 0)
(1.01488 0.00540227 1.70744e-21)
(1.00654 0.03026 9.97464e-22)
(1.01099 0.00455021 0)
(0.885273 0.0630703 0)
(1.03109 0.0288938 0)
(0.980146 -0.0387883 0)
(1.00723 5.56657e-05 1.80679e-22)
(1.05667 0.0640885 -7.14934e-23)
(1.06477 0.0973057 0)
(1.00646 -0.000220227 5.5349e-22)
(1.02403 0.0338244 -1.34248e-22)
(1.00449 -0.00719539 0)
(1.07416 0.0280808 -3.32753e-22)
(1.01696 0.00806244 -7.12162e-23)
(1.01377 0.00561982 3.51179e-22)
(1.0367 0.016174 -2.82034e-22)
(1.01707 0.0361759 -3.77727e-22)
(1.01141 0.00438569 -3.44747e-22)
(1.03121 0.0636053 1.65512e-22)
(0.796544 0.0848248 3.03295e-22)
(0.474124 0.0335631 9.35006e-24)
(1.01137 0.00431357 -1.73129e-22)
(1.00638 0.000912601 -3.5918e-23)
(0.684911 0.055543 1.30885e-21)
(1.01869 0.00994076 -1.23685e-21)
(0.975713 -0.043944 -1.7679e-21)
(1.02763 0.0496163 0)
(1.00038 9.54138e-06 6.93138e-24)
(1.05581 -0.0493633 -9.769e-22)
(1.00226 -1.61343e-05 0)
(1.09135 0.0782576 -2.78526e-22)
(1.01958 0.0144779 2.7388e-22)
(1.00922 0.029021 2.81676e-22)
(1.03991 0.0609996 1.12016e-21)
(1.01792 0.017668 0)
(0.877619 0.0801601 -2.37381e-21)
(0.987715 0.038301 -2.06475e-21)
(1.00756 -0.00507236 2.31561e-22)
(0.997518 0.028188 -5.02537e-22)
(1.02992 0.00827354 -4.47973e-22)
(0.533978 0.0441707 -8.23013e-21)
(1.01014 -0.000782904 1.75244e-22)
(1.03273 0.0156643 3.29786e-22)
(1.0879 0.0511324 6.56916e-21)
(1.01717 0.0004072 -1.04378e-21)
(1.00483 -0.000192797 -8.10388e-23)
(1.0118 0.00551097 6.27225e-22)
(1.0515 0.0466518 1.10694e-21)
(1.01177 0.00847333 0)
(1.0018 -0.039175 -5.21939e-21)
(0.99359 0.0316829 0)
(1.00991 -0.00411043 0)
(1.03113 0.0286085 -3.0382e-21)
(1.05567 0.0642954 -6.43449e-21)
(1.04006 0.068689 7.81749e-22)
(1.04486 0.0330969 4.4758e-21)
(1.10535 0.0743537 0)
(1.03566 0.193822 0)
(1.0593 0.056619 5.09833e-21)
(1.05456 0.0398521 -1.11174e-21)
(0.576256 0.0877637 0)
(1.04823 0.0582303 0)
(0.991233 -0.0639368 1.64619e-21)
(1.06136 0.0472533 1.15913e-20)
(1.0742 0.044803 0)
(1.05121 0.0584271 8.04443e-21)
(1.0533 0.053507 3.90857e-21)
(1.01008 0.00269115 1.51429e-22)
(1.01948 0.0171794 2.26347e-22)
(1.02018 0.000827999 6.72805e-22)
(1.00138 0.0308099 0)
(1.0131 0.00482974 2.14105e-22)
(1.00798 0.00132186 0)
(1.03455 0.00653744 2.89922e-21)
(1.07432 0.0255696 1.17638e-20)
(1.03431 0.00670344 -4.9111e-21)
(1.01889 -0.00415101 0)
(1.01936 0.0171848 1.32053e-22)
(1.02555 0.0145681 -2.04059e-22)
(1.00668 0.000575842 4.74106e-22)
(1.0095 -0.000570031 -4.12286e-22)
(1.06865 0.0357055 0)
(1.01461 0.00435794 -1.67881e-22)
(1.07977 0.0307091 0)
(1.06682 0.0761665 7.2864e-22)
(1.00222 0.0485033 0)
(1.06674 -0.00235791 -3.02663e-22)
(1.01997 0.0226112 0)
(1.02352 0.00837461 1.30167e-22)
(1.0672 0.00726944 -3.62645e-22)
(0.602283 0.0451964 -7.88226e-21)
(1.01804 -0.00498324 0)
(1.00507 -0.000149409 3.10151e-22)
(1.00031 -2.0872e-05 -1.58048e-22)
(0.518102 0.0394909 0)
(0.363756 0.0109794 2.65265e-21)
(1.01172 -0.0125832 9.83324e-22)
(1.0136 0.00558798 -1.52141e-22)
(0.496243 0.122599 3.11905e-22)
(1.01261 -0.000668533 -2.42771e-22)
(1.01173 0.00473555 1.2602e-22)
(0.944448 0.099137 2.04232e-21)
(1.0142 0.0101368 0)
(1.0078 -0.0143501 -2.86604e-22)
(1.08629 0.0980666 -1.02938e-20)
(1.00903 -0.00112186 -2.16358e-24)
(1.01032 -0.00301876 0)
(1.02378 0.00851727 0)
(1.0561 0.0397972 1.15939e-21)
(1.04398 0.081216 0)
(0.52762 0.0461197 2.36106e-20)
(1.01192 0.00831874 -2.5607e-22)
(0.989388 0.0283731 2.96423e-22)
(1.00694 -0.000242748 1.72461e-22)
(1.00383 0.000190786 6.47567e-23)
(1.01412 0.00968529 -1.15841e-22)
(1.02688 0.0870125 0)
(1.00672 -0.00285391 7.03129e-22)
(1.0958 0.0696171 2.35065e-20)
(1.03746 0.0200686 0)
(0.973414 0.0492926 2.01451e-21)
(1.05658 0.0318908 0)
(0.891359 0.0807355 0)
(1.00749 0.0289428 -3.44758e-22)
(1.01288 0.00939911 -1.46123e-22)
(1.01397 0.0118328 -1.65937e-21)
(1.07207 0.0711021 6.27634e-21)
(0.726021 0.0734832 -1.06814e-20)
(1.00769 -0.00273381 0)
(1.00913 -0.00398849 -1.12162e-22)
(1.0751 0.0433842 1.04447e-20)
(1.00506 -0.000117673 0)
(0.988684 -0.0471073 0)
(1.01098 -0.00308384 0)
(1.01373 0.0103581 3.99111e-24)
(1.00036 0.0602941 0)
(1.02137 0.0166797 3.48305e-22)
(1.01772 -0.00105039 1.50132e-22)
(1.07462 0.0700379 1.87668e-20)
(1.00502 -0.000114651 0)
(1.01064 0.000574382 0)
(1.01796 -0.0008096 -1.54014e-22)
(1.03316 0.0437187 -9.38204e-22)
(1.0375 -0.030239 1.74153e-22)
(1.06324 0.0530669 -2.72322e-21)
(0.628055 0.0523051 0)
(1.01894 0.00465512 -2.40894e-21)
(1.0172 0.00729844 2.62437e-21)
(1.09642 0.0699197 0)
(1.0345 0.0541959 0)
(1.09161 0.0917943 8.36057e-21)
(1.01487 0.0119124 7.96676e-22)
(1.0283 0.0644505 -1.23873e-21)
(1.05349 0.0532624 5.23154e-21)
(1.10338 0.0770854 -4.16112e-21)
(1.01939 0.0144191 0)
(1.05852 0.0574403 0)
(1.02394 0.000684221 -1.64523e-22)
(1.01177 0.00547189 0)
(0.727204 -0.0142547 -5.3492e-21)
(1.05667 0.0551495 -1.965e-21)
(1.00593 -0.0183083 6.61226e-22)
(0.736408 0.066671 0)
(1.08334 0.0703044 0)
(1.00993 -0.0160865 2.54495e-22)
(1.018 0.0179311 0)
(1.00735 -0.000478739 0)
(1.01471 -0.00243323 -9.47925e-23)
(1.07916 0.0305242 7.51101e-21)
(0.864662 0.112255 1.06223e-21)
(1.07976 0.078462 0)
(1.0194 0.0203593 -2.75409e-23)
(0.479712 0.0346968 1.84136e-20)
(0.484479 0.165585 -1.11051e-20)
(1.00571 -0.0151643 5.82992e-22)
(1.01955 0.0178864 3.08467e-22)
(1.01956 0.0231675 5.08125e-22)
(1.01609 0.00262103 -1.09564e-21)
(1.005 -0.000211728 -4.51398e-23)
(1.08731 0.134752 0)
(1.01276 0.00588457 0)
(1.01618 0.00258063 1.94746e-21)
(1.00515 -0.000181046 2.49366e-22)
(1.00051 -3.77907e-05 0)
(1.01644 -0.0112873 2.17709e-22)
(1.00645 -0.000212573 1.59098e-22)
(1.03348 -0.0303987 -1.40106e-22)
(1.08656 0.115713 -4.95013e-22)
(1.0296 0.0100918 3.22527e-21)
(1.01555 0.000276778 -1.18548e-23)
(1.01725 0.0107196 -8.55493e-22)
(1.00951 0.00343909 -9.25188e-23)
(1.00685 0.000668105 -2.81582e-22)
(1.01178 0.00956084 1.05532e-21)
(1.00963 -0.000558215 3.40051e-22)
(1.00696 0.0281708 4.26435e-22)
(1.09955 0.060821 -3.43428e-21)
(1.06055 0.0554624 -2.94674e-21)
(1.05922 0.0570423 6.72393e-21)
(0.469885 0.0338408 -2.02652e-20)
(0.65232 0.0524852 -1.0715e-20)
(1.05794 0.0573033 -1.0684e-20)
(0.980327 -0.0910145 1.69482e-21)
(1.04267 0.0543331 0)
(1.01315 -0.016139 -3.43873e-22)
(1.02086 0.0027334 -1.41083e-21)
(1.02998 0.00203592 -1.16696e-21)
(1.01529 0.00266926 0)
(1.0163 0.000215162 0)
(1.09908 0.0609317 0)
(1.02425 0.00850708 4.40281e-21)
(1.08635 0.0697432 -1.75845e-20)
(0.516416 0.125333 0)
(1.02758 0.0292437 5.50744e-22)
(0.985864 -0.09564 -4.74587e-21)
(1.05853 0.0410635 -5.05968e-21)
(1.03968 0.0889015 0)
(0.622859 0.0460385 -2.66936e-21)
(1.02546 0.0182136 6.99628e-22)
(0.9947 0.0222918 -1.53016e-21)
(1.01703 0.00724451 -2.02366e-21)
(0.997908 0.0231943 1.48104e-21)
(1.02742 0.0129987 2.58836e-21)
(1.01667 0.00670166 1.0415e-21)
(1.04082 0.066275 2.20898e-21)
(1.01984 0.0150414 2.6811e-22)
(1.03408 0.0515736 2.01364e-21)
(1.03541 0.0292998 0)
(0.996895 0.0215925 1.34416e-21)
(1.01452 -0.0024764 1.16824e-22)
(1.05021 0.0250515 1.01756e-21)
(1.06398 0.0537563 0)
(1.01179 0.0364689 -5.52793e-23)
(1.00079 3.85362e-06 0)
(0.945051 0.12829 6.39035e-22)
(0.932261 0.102744 0)
(1.02309 0.0247317 -1.1528e-21)
(1.07605 0.0413156 3.13018e-21)
(0.884479 -0.108902 2.12963e-21)
(1.00639 0.000937935 0)
(1.0533 0.153958 -5.60509e-21)
(1.01574 -0.00949282 -2.25908e-22)
(1.10275 0.0772881 4.25933e-21)
(1.01578 0.0226642 1.72012e-21)
(0.333144 0.0141108 7.74757e-21)
(0.987084 0.0335812 -1.18498e-20)
(0.950879 0.0101505 3.31238e-21)
(1.0217 0.0179179 0)
(1.01003 -0.000879595 -4.31997e-22)
(1.00538 -0.0149011 0)
(1.00715 0.00108796 0)
(1.02341 0.0249786 2.32056e-23)
(0.748357 0.0672975 0)
(1.01596 0.0109894 0)
(1.01124 0.0355561 3.90415e-23)
(1.02841 0.0145758 2.01415e-21)
(1.07719 0.0413612 -8.28531e-21)
(1.00714 0.00110001 0)
(1.0171 0.010404 -1.34644e-21)
(1.01501 0.00552273 -2.1874e-21)
(0.878146 0.114049 2.2822e-22)
(1.06223 0.0976554 0)
(1.00643 0.000968272 0)
(0.452535 0.0299316 -6.62346e-21)
(1.02162 0.0194382 -2.39327e-23)
(1.09213 0.0911805 0)
(1.04253 -0.0166176 -1.22715e-23)
(1.02 -0.000809041 0)
(1.0071 -0.016597 7.79491e-22)
(1.02041 -0.000400887 0)
(1.01638 0.00179965 3.12379e-21)
(1.0932 0.0526077 0)
(1.08877 0.0639373 0)
(1.03964 0.0327687 1.05934e-22)
(0.993527 0.0206596 0)
(1.07439 0.110915 4.98334e-23)
(1.01515 0.00257337 0)
(1.02673 0.0277922 2.71236e-22)
(1.04663 0.152183 5.31769e-21)
(0.962368 0.0671344 -8.12803e-22)
(1.02198 0.0161088 0)
(1.00566 0.00036557 8.15569e-22)
(0.686879 0.134267 -3.70223e-21)
(1.01439 0.0017618 -3.20293e-22)
(0.801377 -0.208224 2.3082e-21)
(1.04235 0.0052839 -3.55128e-21)
(0.793798 -0.21792 6.31443e-23)
(1.09989 0.0602976 2.63987e-21)
(0.942165 0.14918 0)
(1.0101 0.00318986 5.14565e-24)
(0.956253 0.0623453 7.698e-22)
(1.03834 0.0226618 -8.41129e-24)
(1.02146 0.0313636 -3.35066e-22)
(0.939781 0.141486 -5.6309e-22)
(1.00656 -0.00022412 0)
(1.00371 -0.0160164 1.21422e-21)
(1.0668 0.0219582 0)
(0.680716 -0.0753818 1.76432e-22)
(1.03863 0.0226305 2.56463e-21)
(1.00981 0.000584198 0)
(1.10034 0.0596195 -2.36275e-20)
(0.931638 -0.00653486 -1.97122e-21)
(1.00562 0.000374978 -4.55796e-22)
(1.0162 -0.00100524 0)
(1.02668 0.0270565 3.62098e-21)
(1.02142 0.019255 -7.04711e-22)
(1.00845 0.00141877 -3.58387e-22)
(0.903173 0.128174 4.79884e-21)
(1.09984 0.0599679 0)
(1.01686 0.014907 0)
(1.01713 0.0120083 3.32013e-22)
(1.01903 0.00740232 7.542e-22)
(1.00023 -2.63957e-05 5.14835e-22)
(0.819451 0.0738915 -2.40928e-21)
(1.03627 0.0253151 4.03071e-21)
(1.0266 0.0411695 -3.22611e-21)
(1.0234 0.00462221 -4.8054e-22)
(1.087 0.088383 0)
(0.732232 0.0669213 1.05782e-20)
(0.995747 0.0903856 2.29335e-22)
(1.03596 0.0213808 0)
(1.04392 0.0709917 2.14084e-21)
(1.04574 -0.0161559 0)
(0.993541 0.0969456 1.15154e-21)
(1.03864 0.0289682 -2.42245e-23)
(0.580722 0.0915419 4.8053e-21)
(1.02186 0.0310339 3.10859e-22)
(1.09704 0.0776444 8.31298e-21)
(0.745397 0.0674348 -4.95207e-21)
(1.01116 0.00384923 6.65493e-24)
(1.01434 0.00456649 -1.12872e-21)
(1.02381 0.0131719 2.48765e-21)
(1.01711 0.00820838 1.61688e-22)
(1.0151 0.0229226 -1.29778e-21)
(1.03611 0.021736 0)
(1.01788 -0.00528624 -1.74181e-21)
(1.04889 -0.00705062 1.02175e-22)
(1.08835 0.0872329 -1.93572e-20)
(1.03548 0.0275823 0)
(0.833619 0.0718847 -6.35708e-22)
(1.0542 0.190674 2.8793e-22)
(1.05664 0.0314051 0)
(1.00957 0.00350125 0)
(1.03823 0.0290465 2.46333e-21)
(1.05745 0.0133524 -3.2888e-21)
(1.02076 0.0251978 2.27418e-22)
(0.946017 0.000561116 -3.54012e-21)
(0.762673 -0.225485 -4.17058e-22)
(1.09867 0.0616656 1.18609e-20)
(1.00701 -0.00944452 -5.21044e-22)
(1.01515 0.0130534 0)
(1.08505 0.0446214 -9.61982e-21)
(1.03954 0.0394828 0)
(0.61631 0.0516415 0)
(0.631548 0.110727 1.04012e-22)
(0.864636 0.115067 1.95903e-21)
(0.961566 -0.00829189 1.84758e-21)
(1.0887 0.0525147 -2.44143e-20)
(0.956334 0.0654536 2.19085e-22)
(1.00951 0.00263234 -2.89392e-22)
(1.04777 0.19162 0)
(1.00099 0.0281303 4.87679e-22)
(1.02203 0.0159512 8.98727e-22)
(0.965255 0.0716303 -2.22321e-22)
(1.03272 0.0366222 -1.00697e-21)
(1.06258 0.0531898 0)
(0.580084 0.0970752 3.84344e-21)
(1.02683 0.0267198 -1.22754e-21)
(1.01754 0.018237 1.41307e-22)
(1.0117 0.00546313 -2.84569e-22)
(1.04188 0.0559909 -1.07859e-21)
(0.693174 0.120664 0)
(1.05203 0.0536517 4.57566e-21)
(0.472622 0.0336444 -6.26677e-21)
(1.07608 0.0957438 -1.68529e-20)
(1.10032 0.0592677 2.38898e-20)
(1.05104 0.0508853 3.72813e-21)
(1.00561 0.000320304 4.3264e-22)
(1.05176 0.0534194 -3.95584e-21)
(1.01917 0.0175084 0)
(1.0134 0.0350696 0)
(1.02087 0.0227959 -2.58808e-22)
(1.06771 0.0713205 -2.11517e-21)
(1.01482 0.00493358 0)
(0.884616 -0.157232 0)
(0.934206 0.103494 8.88621e-21)
(1.0188 0.00727585 1.36073e-21)
(1.00513 -0.000145066 0)
(0.643585 -0.0911515 1.39517e-21)
(1.0385 0.0384249 -1.96656e-21)
(1.01167 0.0206701 0)
(1.02084 0.01718 -1.68376e-22)
(1.00508 -0.000142594 -8.01586e-23)
(1.03444 0.0303366 -9.4948e-22)
(1.00558 0.000306605 -1.55991e-22)
(1.03243 0.055715 -1.63562e-21)
(1.02597 0.0413273 2.65049e-21)
(1.02258 0.000827818 4.23846e-22)
(1.0257 0.0184835 0)
(1.00994 0.0359463 -4.50618e-23)
(0.456988 0.0318988 0)
(1.01026 -0.000778412 8.63164e-23)
(1.07325 0.0684469 -9.71197e-21)
(1.08268 0.0639264 -2.68813e-20)
(1.02967 -0.00851365 -1.70293e-23)
(1.00916 -0.000791374 1.68082e-22)
(1.088 0.0637511 7.50909e-21)
(1.04113 0.0678117 -4.27402e-21)
(1.00695 0.000666312 0)
(0.686685 -0.0776757 -9.19171e-22)
(0.457277 0.0319348 0)
(1.00843 0.00245412 3.96483e-23)
(1.05639 0.047407 0)
(1.01014 0.00325545 3.10759e-22)
(1.01444 0.00199466 0)
(0.979137 0.0145428 7.05789e-22)
(1.04401 0.0147219 2.5858e-21)
(1.02304 0.0087042 -4.62715e-22)
(1.04131 0.0317153 -1.59074e-21)
(0.933295 -0.0186094 0)
(0.971811 0.0108334 7.91701e-22)
(0.697538 0.0559644 -1.06407e-20)
(1.01665 0.00656386 -1.14055e-21)
(1.03197 0.195052 3.46985e-22)
(1.00498 -0.000104517 1.40496e-22)
(1.01415 0.00191312 0)
(1.07939 0.0725598 -2.28126e-21)
(1.0084 0.00241569 -4.16405e-23)
(1.01359 0.0104045 -6.59478e-23)
(0.886762 0.0834632 -6.6819e-21)
(1.01922 0.0175964 8.78341e-23)
(1.04013 0.0361352 0)
(1.00061 -1.65957e-05 0)
(1.07013 0.134671 1.24926e-20)
(0.533108 0.0521976 -2.25416e-20)
(1.01879 -0.00747956 0)
(1.00234 -3.26487e-05 -7.25169e-23)
(1.06304 0.0285177 -7.84988e-21)
(1.00237 0.00800619 0)
(1.0233 0.00747421 4.66569e-22)
(0.322623 0.012269 9.32448e-21)
(1.01322 -0.0116792 -1.21596e-21)
(1.05253 0.0334127 4.97263e-21)
(1.04194 0.036574 -1.5604e-21)
(0.974421 0.0155219 -1.55836e-21)
(1.00143 0.00625388 3.5825e-22)
(1.00194 4.30203e-06 2.35624e-22)
(0.874846 0.115881 0)
(1.00845 0.00181673 0)
(0.803379 -0.210713 0)
(1.00747 0.0107519 0)
(1.01142 0.000395786 7.60185e-22)
(1.01604 -3.4443e-05 0)
(1.00596 0.00021791 -7.81271e-22)
(1.02019 0.0153129 -1.28527e-23)
(1.05239 0.053385 0)
(1.0109 0.0205126 0)
(1.03378 0.0434981 0)
(1.031 0.00180543 -1.82842e-21)
(1.01141 0.000392796 -4.93963e-22)
(1.03456 0.0142227 -1.79793e-21)
(1.05893 -0.0391454 4.6409e-22)
(1.01539 0.0137015 2.79109e-22)
(1.05663 0.0644775 8.0029e-21)
(1.08282 0.0831432 -1.03022e-20)
(1.07451 0.0714087 -1.26285e-20)
(1.08188 0.0830141 7.47621e-21)
(1.01658 0.0367036 4.62572e-23)
(1.03548 0.028028 0)
(1.00848 0.00262533 4.32057e-22)
(1.00939 0.0350491 0)
(1.01321 -0.00189429 0)
(1.01619 -0.00024891 0)
(1.03507 0.0280999 2.02741e-21)
(1.01527 -0.0125203 2.27487e-22)
(1.04298 0.0047934 3.8352e-21)
(1.09779 0.0716688 -3.9991e-22)
(1.06218 0.184836 3.74772e-21)
(1.01781 -0.0063135 0)
(0.883783 0.0841967 1.75385e-20)
(1.01112 -0.0128338 5.43907e-22)
(1.03203 0.00151629 0)
(1.08867 0.0519658 1.23985e-20)
(1.04306 0.0866024 -1.68561e-20)
(1.06413 0.0334944 -1.2985e-20)
(1.0126 -0.00207813 2.87382e-24)
(1.03483 0.0327915 1.31072e-22)
(0.617106 -0.0340807 7.67652e-22)
(1.02746 -0.00273093 0)
(1.03997 0.0477297 -4.43244e-21)
(1.11161 0.114584 -1.65227e-21)
(0.96069 -0.102297 1.66049e-21)
(1.02609 -0.00334682 1.43704e-22)
(1.03306 0.0378118 -2.05659e-22)
(1.01618 0.0114974 -2.29673e-22)
(1.01924 0.0142114 0)
(0.873147 0.0813261 0)
(1.00666 -0.000317999 8.91064e-24)
(0.676592 0.119128 0)
(1.01754 0.000976521 -5.61324e-22)
(0.467542 0.0330105 0)
(1.01749 0.00638002 2.56832e-21)
(1.00636 -0.000462533 1.5024e-22)
(0.97132 0.054972 1.21743e-21)
(1.06285 0.0279887 1.22621e-20)
(1.0182 -0.00538491 -4.01175e-22)
(1.01699 0.000852666 6.35322e-22)
(1.0216 -0.00529639 -2.14557e-23)
(1.01153 0.00508441 1.51999e-22)
(1.00096 -0.0161636 8.21783e-22)
(1.00625 -0.000444412 1.49342e-25)
(1.01738 0.0057015 0)
(0.662907 0.0537095 -1.40203e-21)
(1.07995 0.0747814 -2.03509e-21)
(0.866159 0.0172975 9.00137e-22)
(1.05077 0.0463905 3.82866e-21)
(1.09968 0.0733363 0)
(0.707272 0.0704626 8.35314e-21)
(1.07334 0.0675356 -1.18548e-20)
(1.03857 0.0221166 -4.33801e-21)
(0.957966 0.0511073 -7.14184e-21)
(0.726751 0.0543309 0)
(0.856327 0.157808 -2.83011e-21)
(0.961423 -0.106052 -1.53162e-21)
(1.05272 0.0536191 -4.18334e-21)
(1.03485 0.0514364 0)
(1.01033 -0.00091388 5.61079e-22)
(1.0192 0.0177467 -8.21212e-23)
(0.877555 -0.0296452 2.07816e-21)
(1.02993 0.0102185 -3.56477e-21)
(0.632668 0.0509461 -1.13852e-20)
(1.08961 0.0951876 0)
(0.775652 -0.0291223 0)
(0.725726 0.119352 8.369e-21)
(1.05238 0.0584765 -5.30892e-21)
(1.01732 0.00629569 -2.55868e-21)
(1.00505 -0.000120994 -1.58223e-22)
(0.596534 0.0469598 -7.66694e-21)
(1.01246 0.00299941 6.95827e-22)
(1.05297 0.0509997 0)
(1.05395 0.0331959 2.56069e-21)
(1.00924 -0.000759933 1.54666e-22)
(1.00908 0.00255572 -2.89601e-22)
(0.955622 -0.113828 1.15859e-21)
(1.09956 0.0727699 0)
(1.0771 0.0966462 8.91617e-21)
(1.03056 0.0869306 1.6166e-20)
(1.00853 -0.00540502 1.13856e-22)
(1.02836 0.0143768 -1.20083e-21)
(1.02155 0.0167143 7.98845e-22)
(1.02081 0.0247115 4.33599e-22)
(1.00808 0.00208326 0)
(0.986685 0.0403203 0)
(0.853647 0.108312 0)
(0.87138 0.0827265 -1.41152e-20)
(1.04819 0.0443357 0)
(0.43721 0.190416 1.18892e-20)
(1.02154 0.0175395 0)
(1.02071 0.0165781 8.45914e-22)
(1.01964 0.0364818 0)
(0.986499 0.0331466 -1.55335e-23)
(0.531077 0.166027 0)
(1.01589 0.00464627 -1.89031e-21)
(1.05563 0.0620665 6.61077e-21)
(1.01449 -0.000798151 0)
(1.01668 0.00820792 -7.71599e-24)
(0.994374 -0.0946479 -4.85599e-21)
(1.06222 0.0526648 3.14954e-21)
(1.0179 0.0124319 1.50952e-21)
(1.04756 0.0815796 2.36006e-22)
(1.00726 -0.000453145 0)
(1.03928 0.0350246 0)
(1.01448 -0.000658785 3.87323e-22)
(1.01864 0.0228229 -4.33818e-22)
(1.01214 0.00351742 1.67397e-22)
(1.01652 0.00807635 5.16742e-22)
(1.00984 -0.000869811 -1.6642e-22)
(1.02118 -0.00606054 2.43333e-23)
(1.00796 0.0347891 -4.69931e-22)
(0.906873 0.157152 2.10445e-21)
(1.0444 0.033416 -3.60664e-21)
(1.06082 0.036309 2.34279e-21)
(1.01144 0.00501716 0)
(0.999854 -1.67762e-05 -5.8193e-22)
(1.05068 0.0462153 5.56794e-23)
(1.01507 -0.00265079 0)
(1.01382 -0.00224263 -8.84814e-22)
(1.02611 0.0485899 -1.09608e-21)
(0.894804 0.0176621 -1.08254e-21)
(0.713268 0.0520405 2.1854e-21)
(1.01564 0.000524906 -7.9147e-22)
(1.00986 0.00372446 1.51695e-22)
(1.02904 0.0119573 0)
(0.475139 0.125986 -9.42228e-22)
(1.04375 0.0144437 -1.04331e-20)
(1.02469 0.00849829 -5.54903e-22)
(1.06115 0.0557178 3.07989e-21)
(0.966979 -0.0976607 5.52306e-23)
(1.00993 0.00216634 -7.0765e-22)
(0.898569 0.0954566 0)
(1.02188 0.0170193 2.3495e-21)
(0.511568 0.0383641 9.89837e-21)
(1.01739 -0.00452253 7.72091e-22)
(0.999784 0.118156 8.15614e-21)
(0.550166 0.0451782 -1.45834e-20)
(1.00906 0.00248123 3.81231e-22)
(1.00602 -0.000389071 -1.38706e-22)
(1.03773 0.0406882 1.20833e-21)
(1.02259 0.0141671 2.03442e-21)
(1.0217 0.0169954 -1.46583e-21)
(0.952136 0.00866484 2.01717e-22)
(1.03627 0.0265641 0)
(1.00921 -0.000780263 0)
(0.880197 0.0864687 0)
(1.00932 -0.000784193 -1.67494e-22)
(0.613156 0.109714 0)
(1.01235 0.00289237 -1.32605e-21)
(1.01025 0.00315113 -2.94085e-22)
(1.01194 0.00159611 0)
(1.04599 0.0321402 2.48219e-21)
(1.09294 0.0841761 -1.31396e-20)
(1.05423 0.0530625 0)
(0.870003 0.0546033 -7.97736e-21)
(1.04808 0.0441147 0)
(1.00607 -0.000409212 -1.36971e-22)
(1.00934 -0.000757927 2.33007e-22)
(1.00594 -0.00420335 -4.50506e-23)
(1.01093 0.000309147 0)
(1.01721 0.00561653 1.65419e-22)
(1.0706 0.196221 2.60114e-21)
(1.07361 0.071852 0)
(0.63652 0.0472535 -7.15757e-22)
(1.04029 0.0182677 5.67835e-22)
(0.95949 -0.00551428 -1.68909e-21)
(1.04819 0.0168849 3.97168e-21)
(1.01017 0.00312019 -4.08565e-22)
(1.00652 -0.00557625 3.95937e-23)
(1.0181 0.0233234 7.12235e-22)
(1.102 0.0441781 2.48107e-21)
(0.549907 0.15253 0)
(1.02093 0.0193753 0)
(1.01915 0.0173585 0)
(1.01654 -0.00847263 2.15578e-22)