/*--------------------------------*- C++ -*----------------------------------*\
| =========                 |                                                 |
| \\      /  F ield         | OpenFOAM: The Open Source CFD Toolbox           |
|  \\    /   O peration     | Version:  v2012                                 |
|   \\  /    A nd           | Website:  www.openfoam.com                      |
|    \\/     M anipulation  |                                                 |
\*---------------------------------------------------------------------------*/
FoamFile
{
    version     2.0;
    format      ascii;
    class       volScalarField;
    location    "100";
    object      ddt0(k);
}
// * * * * * * * * * * * * * * * * * * * * * * * * * * * * * * * * * * * * * //

dimensions      [0 2 -3 0 0 0 0];


internalField   nonuniform List<scalar> 
54593
(
1.85743e-05
-4.41466e-05
3.06082e-05
4.78452e-06
-1.41398e-06
1.66666e-05
3.15361e-08
4.2017e-06
1.80329e-06
-3.44231e-08
7.46654e-09
-2.56219e-06
-7.03343e-08
2.88033e-09
-2.00676e-05
5.57696e-08
-0.00120031
1.74784e-08
5.61407e-08
-5.27804e-06
-3.20557e-07
-6.74425e-08
-1.01708e-05
7.10169e-08
-4.0263e-08
-2.02074e-08
0.00418917
2.38963e-06
-7.3335e-06
2.46238e-07
-0.0001153
0.000110136
-5.75007e-10
-0.00537751
-2.05551e-08
6.49889e-08
-2.80458e-08
-0.000723618
0.0014067
0.00636894
-0.00836597
1.05691e-08
-1.85904e-08
4.24918e-08
1.41709e-08
2.03833e-07
3.69075e-08
0.00266375
4.28488e-05
-6.62689e-08
1.29057e-08
-8.11145e-09
-2.23894e-07
-5.42995e-08
-2.26227e-08
6.21957e-09
4.06816e-06
-9.0821e-09
2.98639e-05
-2.29824e-08
0.00213148
3.5521e-08
-1.58e-07
3.93509e-08
-0.00223903
0.0043772
-1.7967e-08
-0.00369329
-1.10214e-08
3.42486e-08
-0.00223165
6.42461e-09
-5.3881e-08
-9.85495e-10
8.72478e-09
4.00601e-08
-0.0113623
5.57174e-09
-0.00797437
-8.10297e-09
7.23276e-08
-2.74626e-08
-0.0022708
-0.00352503
-2.532e-08
4.12387e-08
-4.13187e-06
-3.80776e-07
3.98962e-08
4.14941e-06
-3.76323e-08
6.64983e-08
-0.00395288
-2.54926e-08
0.000515425
-2.34464e-08
-3.10066e-08
-4.78857e-08
-1.99879e-08
-2.88742e-08
0.00134077
-0.00977961
3.54138e-08
-3.52927e-06
2.59658e-06
5.57368e-05
3.95678e-09
7.66543e-07
-4.20956e-09
-1.13131e-08
-3.98043e-08
4.47328e-09
-0.00170059
-5.25976e-07
0.00153209
-9.96862e-09
1.54849e-08
-3.06577e-08
3.54906e-06
0.00117164
7.69445e-08
-2.8348e-06
-2.34621e-08
2.52748e-06
-3.27581e-07
-0.00121233
3.9734e-08
1.56319e-06
-0.00386609
2.56548e-08
2.14436e-08
-2.82427e-07
-3.27759e-08
2.69636e-06
4.14862e-08
-1.68226e-08
3.03817e-08
0.000114298
-3.07687e-07
-0.0124974
-1.0109e-08
-1.08942e-07
-5.66511e-09
-0.00387593
-2.56258e-08
2.55563e-06
2.09544e-07
1.2934e-07
-7.22055e-09
-0.00128141
1.96202e-07
0.000100188
-2.45631e-08
3.88627e-08
-4.9446e-08
-3.69843e-06
4.35183e-06
5.3376e-07
1.42964e-05
-3.82959e-08
2.8626e-06
4.85008e-07
-0.00350108
-6.27168e-09
-5.7184e-06
-2.92139e-09
-2.03558e-07
-3.07511e-08
1.05176e-08
-4.16841e-08
0.00289204
-6.77644e-09
2.11324e-07
-5.92463e-07
1.81238e-08
-4.21498e-09
1.41622e-07
1.7379e-06
-0.00405648
-5.60767e-09
-2.65436e-08
-5.79224e-07
-0.00319984
1.87096e-06
1.18577e-05
-9.3752e-08
-0.0515066
7.64306e-09
-1.05078e-07
-6.82796e-08
0.00220074
-4.32972e-06
1.24932e-08
-0.000772133
-5.84496e-07
-1.37912e-08
3.88307e-09
-8.01988e-07
2.63053e-08
-5.40761e-07
0.000910691
-1.97384e-06
-9.17124e-08
3.81131e-07
-4.97544e-05
-3.65647e-07
-1.51403e-07
4.17349e-07
-1.78498e-08
-0.0221059
-1.28999e-08
-4.93481e-06
-1.52245e-07
0.000157745
-1.51931e-09
1.69099e-06
2.89814e-08
3.27957e-05
1.92913e-09
5.51892e-09
-1.51812e-07
0.00292862
-2.61707e-09
0.000742149
6.55288e-05
2.37623e-06
-2.51785e-07
0.00132225
4.66852e-07
-0.00375911
0.00157083
-4.22671e-09
2.2149e-07
-3.1793e-07
-3.20784e-08
9.73725e-09
-3.52144e-07
0.000444596
-2.11048e-07
7.93252e-09
3.04554e-09
1.62762e-08
-2.14276e-08
3.89368e-09
-2.32351e-08
2.10743e-08
-0.0101399
0.00411434
1.98055e-07
-3.75156e-08
-2.22229e-07
-8.89574e-08
7.36481e-07
-6.13112e-08
-0.010967
3.03279e-09
-0.000726299
0.000888098
2.46807e-06
3.26564e-08
3.68555e-08
1.00209e-08
3.95662e-06
-4.05052e-05
4.55913e-05
1.25629e-06
1.41825e-09
-2.01519e-06
3.45941e-08
-8.14168e-08
0.000862069
0.00291714
-4.31699e-09
4.60067e-06
2.60851e-07
0.00745635
-2.5018e-08
-1.28167e-08
1.06421e-07
3.41944e-08
3.23703e-08
-5.28577e-07
2.29431e-07
3.02482e-07
-0.00224713
-3.56606e-05
3.23259e-07
-7.52395e-07
-6.91992e-07
-1.92463e-08
3.48781e-08
-0.011673
1.16358e-05
-0.00372546
-2.61292e-06
4.67868e-09
4.20918e-06
3.99746e-08
-6.72587e-07
0.000348518
2.58999e-07
-1.87379e-06
3.4986e-05
0.000201775
-4.53032e-06
-7.02805e-07
-0.00987724
-0.00167756
0.00864644
-0.00357568
-2.0749e-07
-3.49482e-05
-1.89301e-06
-0.00302222
-5.00962e-06
2.18887e-06
-0.00212395
4.11553e-07
4.7686e-06
1.08596e-08
-0.00328489
1.01039e-06
-2.70849e-08
-4.65722e-07
1.96678e-08
0.00112507
2.14069e-07
0.000144717
4.36933e-08
3.28732e-06
5.15858e-06
-2.60202e-08
0.000290839
1.10643e-05
-2.9359e-09
-3.09812e-08
1.98795e-07
-0.000144128
2.15442e-06
4.50664e-08
5.34885e-07
-0.0136577
-0.00131794
4.07551e-08
-3.84266e-10
-0.0046835
3.76276e-09
0.000641919
1.57619e-06
-2.13881e-08
-0.00353178
-1.13364e-07
-0.000356637
-2.91899e-08
1.51374e-06
8.20804e-07
3.07342e-07
-0.00986298
1.03954e-05
2.88884e-06
0.000725196
2.32107e-05
-0.0017509
6.80137e-09
9.29176e-06
8.87937e-07
-7.70535e-07
-9.38997e-09
4.33423e-08
-4.7324e-06
-2.77715e-07
0.00441066
0.000989667
4.65122e-07
2.22594e-07
2.22531e-07
2.93534e-06
1.24767e-07
-5.08772e-06
0.00937422
-6.09366e-07
-5.16981e-06
-0.00232935
-1.81738e-06
0.000360095
-1.45956e-07
4.16662e-07
-1.66573e-06
-1.27587e-06
4.07441e-08
-7.04424e-07
-4.3727e-06
0.000699071
-3.6447e-06
-3.14895e-08
-1.39957e-09
-2.33631e-08
-5.55797e-09
-1.06031e-06
-6.32723e-07
-5.0285e-05
2.7635e-08
5.71401e-08
3.44775e-08
-3.97078e-06
3.98998e-08
4.78985e-06
5.74217e-06
-0.00168332
-1.29161e-07
1.07406e-08
-0.00131982
0.00173593
-2.68843e-06
9.8415e-09
-4.88721e-08
-0.00188161
5.05213e-05
1.54482e-06
2.65251e-07
0.00341175
2.65827e-07
7.83226e-08
0.00086993
1.31497e-06
6.81851e-06
-8.03524e-05
3.61444e-08
-2.18046e-07
9.57163e-09
-5.72852e-06
0.000521396
-0.000565505
-3.0242e-07
0.00100139
-2.24679e-08
1.90059e-08
9.53894e-06
-0.0014481
7.97392e-06
1.06074e-06
5.53241e-08
0.00519828
-2.22672e-08
-0.00975211
2.28812e-06
9.97494e-06
-3.19528e-06
-8.10703e-06
-0.00570257
5.63515e-06
7.27147e-07
3.76288e-07
8.99286e-09
2.93333e-05
-5.12309e-07
1.41263e-06
0.00169592
-1.7207e-07
-5.38195e-07
-7.51779e-06
9.22159e-09
-1.14147e-08
-1.14621e-06
8.10466e-07
-4.97292e-05
6.88493e-08
-0.00405313
2.22866e-08
-5.85508e-09
8.34205e-07
6.45983e-07
-1.18012e-06
-3.21984e-06
1.05759e-06
-1.25204e-06
-4.22323e-06
-1.61052e-08
-7.39158e-07
-6.69137e-06
-1.19023e-08
0.00985878
-4.31543e-06
2.36209e-06
-0.00659584
-8.11209e-06
5.64767e-06
-1.78273e-06
1.61474e-08
-3.81675e-07
3.70529e-08
-0.00627911
-3.32837e-05
-1.09395e-06
0.000273143
0.00405133
9.18714e-06
-2.88806e-07
3.46092e-08
6.62843e-09
-7.4755e-09
-0.000135246
-7.99034e-08
7.21766e-09
7.11909e-09
-4.75332e-08
-3.66304e-07
2.32108e-09
-8.15851e-05
-0.00840226
-6.82642e-08
-1.84256e-08
-3.00706e-08
-3.38599e-08
3.27407e-08
5.85796e-08
5.88415e-08
1.94478e-06
-5.32942e-07
-3.39746e-07
-6.82304e-07
0.000319997
-0.00384072
-8.26955e-07
0.000231909
-1.56294e-06
-1.92453e-05
-1.76521e-08
2.51163e-08
-1.73534e-09
-7.14956e-07
-3.52689e-07
-8.06161e-09
-7.41417e-06
0.00199771
-3.7084e-06
0.000140066
-1.50431e-07
-0.000838788
0.00201904
-7.70085e-08
8.75104e-06
-1.04015e-08
6.08583e-06
-1.152e-08
-1.20257e-08
2.1194e-06
-5.87546e-08
7.16853e-07
2.19312e-07
6.82012e-06
-3.58667e-07
2.93659e-08
-6.87906e-06
3.23532e-06
-2.54534e-08
-0.0204424
0.000465125
-1.88732e-07
3.01805e-07
-0.00719512
-1.99775e-09
8.51143e-05
-2.29977e-06
-3.76753e-06
1.0355e-06
0.000219781
0.00451466
2.61417e-05
-1.04614e-06
-3.98777e-08
1.13433e-05
-1.18244e-08
-1.3865e-07
-0.00692532
3.3219e-08
3.36442e-06
-8.28964e-09
3.23517e-07
-1.31619e-08
-4.01454e-08
-2.71214e-08
-0.00635489
5.18632e-06
-1.91042e-09
-0.00102084
-4.09467e-07
-2.27338e-06
-3.49297e-05
-5.24878e-06
9.94078e-06
-4.80273e-06
-3.49061e-06
5.16307e-07
2.53432e-06
1.52401e-06
9.34743e-06
-0.00936384
-2.93e-09
-4.76805e-06
4.12011e-06
-0.00248634
-1.10324e-07
8.3778e-09
-0.00155841
1.95102e-07
6.85102e-05
-6.75512e-09
3.49668e-05
-6.64108e-07
-0.0155794
4.21675e-08
-0.00365207
8.55587e-08
1.09191e-06
-0.0159131
-2.77849e-08
3.51535e-06
-0.000912068
0.00863659
8.48955e-08
4.60562e-09
-8.83595e-07
0.00235421
9.03158e-09
0.000462746
1.53844e-07
-4.10395e-07
-3.81171e-08
-0.00487685
-6.65709e-07
4.09369e-07
4.91444e-08
4.01228e-08
-2.62902e-08
-0.00030365
1.25073e-07
1.32398e-06
-3.21921e-08
2.37962e-06
-0.00660155
0.000624489
6.61934e-08
-2.51183e-06
1.07211e-05
0.00060896
1.84932e-07
-0.00243272
9.41342e-07
-3.47909e-07
-0.00688903
1.3283e-08
-2.09645e-08
3.11843e-08
-2.49278e-08
1.23641e-06
7.31856e-08
-3.36442e-06
-9.31849e-05
2.30231e-06
1.70838e-07
-0.000164399
-0.0586383
-2.08732e-08
-3.63125e-08
1.889e-07
-4.93693e-08
-3.64844e-07
-0.000119069
0.000377157
-1.60139e-07
5.93697e-06
-3.08696e-06
4.97872e-07
-2.14989e-07
-0.00383419
0.00110671
-0.00597028
0.00205765
9.6552e-07
0.00212138
-4.49125e-09
0.00508171
0.00121908
-1.01438e-07
0.00216689
5.84542e-07
3.50463e-09
-0.00235491
1.28632e-07
5.14485e-07
3.3465e-08
-8.41816e-07
0.000557647
-1.66814e-06
-0.000520958
3.02012e-06
-8.62905e-07
-1.7214e-06
2.36021e-09
-1.65652e-06
-6.86299e-07
0.00137687
-3.69615e-07
-9.54664e-06
-2.1884e-08
-1.97945e-05
-0.00930568
3.73543e-08
1.06866e-08
0.010199
7.60899e-07
1.94724e-06
0.000112327
1.07756e-08
2.6413e-07
1.52687e-09
7.74126e-07
1.38201e-06
1.64443e-09
-7.49958e-08
3.57671e-06
0.000484161
1.17555e-08
4.07928e-06
3.4891e-06
3.1187e-05
-4.77218e-08
2.82038e-06
2.72721e-06
3.50403e-08
0.00917813
-0.000437787
2.88082e-08
-4.97012e-07
3.94851e-08
5.85751e-07
0.000872538
-1.8295e-09
-1.81253e-05
1.14846e-06
0.00513572
0.00232854
-0.00462437
-1.03299e-08
-0.0584415
-5.77766e-09
7.06583e-07
-8.95037e-06
3.19941e-08
4.75541e-08
-0.0101687
-7.11163e-07
1.20349e-07
-3.51031e-08
-6.54069e-06
-0.00073018
-2.41466e-06
-1.22725e-07
-3.40252e-08
4.55588e-05
-2.33295e-05
0.000297576
1.03823e-07
-2.62323e-09
2.06142e-07
0.00196222
4.3381e-05
-1.36768e-08
-0.00592784
3.15625e-06
4.15912e-05
0.005417
2.34548e-08
-7.3095e-07
-1.5017e-08
-8.2032e-08
-1.47177e-06
2.17792e-06
7.57003e-07
3.26068e-08
2.62542e-08
-7.07628e-10
-0.00303045
0.00177211
3.34686e-07
4.38385e-06
4.67005e-06
4.51972e-06
2.27481e-06
1.84561e-07
3.39145e-06
3.66958e-06
-4.64355e-08
-3.07172e-06
1.85654e-07
-7.58461e-08
-5.63547e-09
-0.000198367
-0.0469629
-2.94483e-06
-0.0101566
-1.04382e-06
4.02615e-08
9.18216e-07
-0.000432235
-2.28851e-08
-4.26795e-09
0.00138738
0.00271518
1.53564e-05
-1.4937e-06
0.0015641
0.000296882
2.03842e-05
0.00146446
5.95973e-08
-7.51324e-09
-0.00999356
1.01002e-08
0.000641246
-1.04972e-06
-0.000878312
1.41656e-08
-1.96779e-08
-0.00177105
-3.68119e-08
-3.03514e-06
-7.5533e-07
-2.99588e-06
3.68245e-08
2.23128e-07
-1.79487e-08
1.65652e-08
-0.00414282
-5.47797e-06
0.00918483
-6.05337e-07
-7.63152e-07
-0.00528151
3.91367e-06
7.84465e-08
-0.000544289
0.00106611
-0.0286229
0.000182274
-1.47709e-06
6.84054e-07
-3.72544e-08
-7.87742e-07
-7.3371e-05
-6.65221e-08
-0.00352088
-2.7273e-05
-0.0060276
-0.00389678
-1.51728e-06
1.15248e-08
9.72386e-09
-0.00282254
-1.16419e-09
-1.24924e-06
-1.5373e-08
-1.90402e-08
-1.35001e-08
0.000117405
-6.76516e-07
2.82158e-06
-0.000878148
1.96289e-06
-9.18494e-09
-1.69892e-07
-4.27476e-07
3.26705e-08
0.00222469
-0.0065772
-0.00997098
-3.43341e-07
0.00684255
-1.14269e-06
-1.87251e-07
1.80066e-06
0.00195445
0.00230874
-3.43198e-09
-4.82554e-07
-7.43368e-08
-3.9507e-08
-0.009393
-3.10145e-08
3.34105e-08
0.000615586
1.51104e-08
7.4373e-07
-6.1873e-08
2.83759e-07
9.27359e-07
-3.97081e-08
-6.18168e-08
-2.26902e-06
0.00151271
0.000564628
1.38006e-07
-5.02257e-08
3.51713e-08
-2.74657e-08
-6.04861e-07
-5.18975e-07
-1.61292e-07
1.75336e-06
0.00958181
0.00116601
-2.87805e-06
-3.66085e-08
-4.23066e-08
0.00550964
-3.64309e-09
-1.68755e-08
-3.0247e-07
-0.000726025
-1.76227e-06
0.00178769
-1.75259e-07
-0.00184867
-2.15609e-06
-0.00586095
-0.00240383
-1.19844e-08
-3.3504e-09
4.1818e-07
-1.33631e-08
-1.82272e-07
7.22002e-05
1.47929e-07
-3.39399e-08
-0.0098487
-2.97208e-08
0.00112836
-1.51843e-10
4.16635e-08
1.01672e-07
1.08494e-07
9.50221e-07
-1.10139e-06
0.000146442
-2.88559e-07
-1.09352e-08
-1.56737e-08
1.04481e-05
3.82597e-08
1.45584e-08
-0.00336838
4.68408e-06
0.00194338
3.46736e-08
0.00150195
-7.2587e-09
4.44694e-08
1.02041e-05
4.53313e-07
-7.77561e-06
0.000766606
-5.13922e-07
-6.21664e-07
-2.4865e-06
-3.00152e-07
-3.20006e-08
6.16535e-06
-3.53451e-08
0.000153064
6.78982e-09
6.69427e-07
-1.0413e-07
1.57556e-06
-0.000146325
0.00187165
-0.000672264
0.000824354
-1.26137e-08
0.000632174
-2.9807e-08
-0.000512909
-0.0254028
3.83314e-07
-1.60063e-07
5.24288e-07
-2.97233e-09
1.7714e-08
-8.90687e-10
-1.17815e-07
-8.56482e-07
2.78651e-08
-9.81376e-09
-6.50444e-09
0.00613791
0.00329528
-1.53421e-07
5.08602e-06
2.35684e-09
-3.02639e-06
-2.80454e-08
-0.000264681
-1.33049e-07
-2.44909e-06
-3.82279e-08
2.47313e-06
0.00035744
-0.00208886
3.60356e-07
3.12872e-08
9.38986e-06
-1.96671e-10
-0.00140062
-4.41698e-06
-1.82862e-09
-0.000470936
5.97102e-06
2.33409e-08
2.3815e-07
-8.28465e-08
1.75239e-08
-5.14241e-06
3.72273e-06
0.00874052
2.93567e-09
-2.91721e-06
-0.00405131
-1.19143e-08
-1.46809e-07
3.86213e-06
3.4451e-08
-2.25643e-08
1.66437e-06
-1.69489e-06
-3.32566e-08
-1.52772e-07
1.37011e-08
-6.92748e-05
-8.12715e-09
1.84101e-09
-0.00201505
3.93668e-06
-4.49561e-08
6.7416e-07
0.00246731
3.10613e-07
-1.46897e-06
0.000552424
-2.4496e-07
-0.000974455
8.67277e-09
1.36449e-06
7.73883e-08
6.44035e-07
-1.67059e-05
0.000400962
0.00228846
6.08684e-08
-0.00124183
1.22601e-06
-7.63045e-08
4.17653e-08
3.22013e-08
2.44308e-08
-5.61646e-08
5.30589e-07
7.10682e-08
2.36853e-08
-3.43785e-09
0.00760511
-1.14438e-06
0.0141054
-4.05811e-08
-3.16881e-06
5.77548e-05
6.15434e-09
1.45158e-05
3.75928e-08
-7.9867e-09
-5.17403e-07
3.68734e-06
-4.30938e-05
4.64163e-06
6.9733e-09
-6.24316e-08
-2.11916e-07
-0.0039179
5.68848e-09
-1.36589e-06
-3.58203e-06
-2.25634e-07
0.00329947
-2.13912e-08
9.41771e-08
-2.44596e-06
-5.6851e-06
0.000414326
0.00329125
2.58228e-08
0.000315967
-4.67534e-08
-3.49836e-08
1.96115e-08
1.22673e-05
-6.50202e-09
-0.0197933
4.88412e-09
-2.09311e-08
6.63623e-08
-5.70361e-09
2.68431e-08
9.7062e-09
6.45337e-08
1.97008e-07
3.33981e-07
1.63591e-06
-6.04686e-08
-3.42533e-08
-3.22922e-08
4.35843e-08
-9.05722e-06
7.29973e-07
3.62948e-06
4.80328e-09
-2.29893e-08
4.35691e-06
-5.67559e-09
1.20349e-07
-1.53989e-08
3.39257e-08
8.47378e-08
-1.9067e-06
2.16205e-05
4.49945e-06
-6.24172e-07
1.09637e-08
2.69613e-06
6.44222e-09
5.93268e-06
-0.00543394
-6.34437e-08
-8.04187e-09
-4.91001e-08
-1.90732e-06
1.30805e-06
-2.63414e-06
1.4649e-07
-1.85624e-08
-3.13006e-08
1.67459e-06
-5.26592e-09
-2.57189e-07
-1.83338e-07
-9.24647e-08
0.000523654
4.50244e-06
-5.40794e-07
-1.46731e-08
1.40388e-08
-2.88109e-05
2.06227e-08
7.42904e-07
-5.89593e-09
0.000735135
-0.000140879
1.16422e-07
1.01589e-06
-4.89414e-07
-0.00411919
-1.97771e-08
5.13874e-06
3.4276e-06
0.000409813
-5.9955e-07
9.36097e-10
1.17748e-08
8.42132e-09
-6.13865e-09
-8.36623e-08
2.62504e-08
5.31727e-10
2.4227e-06
8.65979e-07
-3.2521e-07
4.97391e-07
-3.54567e-08
2.57486e-06
-1.92301e-07
1.35775e-07
1.12965e-06
2.31582e-08
0.00178155
-2.19098e-06
-1.88061e-06
1.10679e-08
-9.42353e-09
-9.99303e-07
6.56314e-06
-4.58297e-07
2.05016e-07
-6.32481e-08
1.90393e-09
-6.0688e-08
-1.80543e-06
5.95836e-07
-2.73283e-09
-9.70744e-07
-3.43872e-09
3.55409e-08
-0.0116362
6.99914e-09
-1.71234e-06
-5.79225e-06
-3.71973e-07
-5.89104e-05
3.47933e-08
-8.33853e-08
-5.53578e-07
-0.0139739
7.44145e-07
-2.06087e-08
0.00125713
-4.27996e-09
2.05529e-07
-2.2313e-08
-2.39059e-08
1.1751e-07
5.56514e-06
0.00277986
-9.81603e-07
1.17529e-06
1.11294e-08
-2.66711e-06
2.32903e-07
0.00156488
-7.63266e-09
-1.66582e-06
-9.47518e-08
-0.00237676
-3.78153e-09
-1.55389e-06
-1.54448e-08
0.00260251
2.35841e-07
5.18641e-08
-8.68386e-06
9.89129e-09
2.61293e-08
0.00169077
-4.30508e-09
1.40686e-08
1.78251e-07
-0.00192202
-6.37419e-07
-1.13102e-06
-4.44363e-05
-6.30517e-08
-1.22465e-08
-0.02076
4.25147e-06
-2.04457e-08
7.24433e-08
4.7026e-08
-0.00556448
-7.8533e-09
3.01307e-08
7.33072e-09
-3.64169e-09
-1.01787e-08
0.00040191
9.50854e-09
1.34513e-06
1.41907e-06
-4.58606e-07
-0.0215447
1.27831e-07
1.43167e-07
-6.2489e-07
7.00785e-08
-2.32942e-07
-2.28866e-08
5.51662e-09
0.00133512
4.77192e-05
2.66271e-08
9.05814e-07
-6.21192e-09
-2.9824e-08
-5.83e-07
7.37767e-08
-8.9641e-08
6.39811e-09
-0.001038
-2.98997e-07
1.17368e-08
0.00411779
-6.42136e-05
-1.24691e-08
-2.55531e-09
-0.000153052
-2.27977e-07
1.85467e-06
2.95442e-08
-1.13032e-06
-2.16687e-08
0.00018274
1.46785e-07
-3.79194e-09
0.00215837
-2.47382e-09
-4.56975e-08
-6.88809e-08
-3.82563e-08
2.0989e-07
0.000148298
9.06291e-06
2.96514e-09
-4.35782e-08
-6.32787e-08
3.38829e-07
-7.07058e-09
1.3369e-08
-0.00426706
4.2744e-06
2.44805e-09
7.20057e-06
-0.00014154
5.94567e-06
-5.4925e-05
1.28594e-08
7.84161e-08
-1.81546e-07
-1.50185e-05
0.000566234
-0.000213396
-3.55275e-09
-8.6812e-08
-0.00657462
-0.000301899
-1.9021e-07
-9.56017e-09
-3.12627e-09
-2.039e-07
1.85555e-08
-9.53256e-10
-1.195e-08
-5.6921e-07
-1.72902e-08
-0.00548735
-0.0131963
1.50077e-08
-9.05325e-08
-5.54659e-09
-7.66094e-08
-6.46839e-08
-1.46907e-06
1.00445e-07
4.73865e-06
4.76691e-08
0.00219226
-8.60676e-06
6.92626e-07
-1.84376e-06
1.70836e-06
-2.83155e-08
0.00230596
-4.83177e-06
-1.74815e-06
-4.22564e-07
-3.96856e-08
5.64342e-06
-2.48118e-08
0.0027581
1.51304e-08
-6.29514e-07
-1.07556e-08
-2.10681e-08
-0.000127869
-7.51769e-07
2.79833e-08
-0.00428156
-0.0100489
-5.22153e-07
-1.3657e-07
2.32135e-08
-3.70647e-06
0.000228695
-5.31398e-08
3.40904e-07
7.05806e-08
-1.36169e-08
2.59152e-08
1.0266e-08
-9.48411e-06
-8.16424e-08
-1.18264e-08
1.18625e-08
9.47176e-09
2.3595e-08
-5.36401e-07
-3.80622e-08
1.63003e-08
0.0148774
-9.92048e-07
-1.18254e-08
5.82886e-07
-1.14353e-08
-1.24909e-07
2.1472e-06
8.90568e-09
1.17367e-05
-0.0019939
-4.66126e-08
-0.00671592
-6.29062e-08
-0.00775287
-8.18911e-08
-9.51883e-08
1.92027e-07
-1.74371e-06
-0.00252995
8.68655e-07
-0.000100549
-1.13058e-08
-3.80736e-08
-1.31942e-05
-2.10891e-06
-0.00360787
2.28673e-08
-1.7646e-08
1.69412e-06
1.23986e-07
1.79825e-07
-3.77659e-09
2.10575e-06
3.43484e-08
0.00120816
-5.96944e-07
2.21644e-08
2.32207e-08
-1.77117e-08
-0.00392695
0.000966612
5.84438e-07
-5.31503e-07
-8.10953e-05
-2.95092e-08
2.16517e-08
-4.74139e-08
0.00123804
-2.52188e-08
4.06654e-06
-1.00288e-07
1.29231e-08
-1.58367e-08
-4.7945e-08
-0.000884113
-2.07229e-06
-2.86212e-08
-1.0756e-08
-5.52727e-07
-6.66692e-08
0.0148373
4.79752e-09
8.50875e-07
8.68473e-09
7.24078e-09
5.20071e-09
-0.00901454
3.6198e-09
2.43835e-08
-1.0096e-09
3.42465e-05
-9.29068e-08
0.00130082
-1.42805e-08
-0.001087
4.11005e-06
-2.62948e-06
-3.0849e-08
-6.84773e-05
0.000690535
-1.14822e-06
-1.21391e-08
-1.62753e-07
4.70906e-08
-3.09236e-08
6.26478e-08
-8.77883e-08
-2.82412e-08
-3.39112e-09
-0.000220624
-2.68762e-07
-1.11957e-06
4.64218e-09
1.24305e-06
7.63792e-08
-1.44872e-08
0.0127564
-3.04852e-08
-1.79907e-07
-3.41022e-08
-1.74816e-06
3.90408e-06
-0.000942516
1.85107e-06
-5.59253e-08
0.00128513
4.29182e-06
0.000217702
0.00444235
-4.67142e-07
-7.31186e-08
-2.95572e-08
-1.28462e-06
1.14648e-08
5.75822e-06
-1.58926e-08
-0.00448721
-1.6897e-07
-4.48423e-08
0.00214885
-6.43391e-07
-3.04856e-07
0.00798196
-9.42534e-07
0.000892988
3.81729e-08
3.14611e-05
-2.69593e-08
4.66223e-06
0.000820198
0.00823024
8.25661e-07
-1.16531e-08
-2.66489e-08
6.17743e-07
-0.001825
2.84324e-07
-8.05471e-08
5.51581e-08
-6.63716e-08
-5.59224e-08
-1.92189e-05
1.46483e-08
-1.5793e-06
2.81649e-08
2.28759e-08
1.25581e-05
3.98694e-06
-2.99445e-05
-3.06764e-08
4.98049e-07
-0.0171706
-5.4992e-08
-2.61053e-09
-0.0049693
-0.00313561
-0.0601018
-4.35477e-06
5.962e-08
-0.00361408
1.07467e-05
-4.96222e-08
4.62891e-08
-1.09234e-05
6.10851e-09
-1.05826e-06
1.55717e-08
0.000286767
-1.01208e-05
-3.06852e-08
-1.64936e-08
-8.28838e-05
-1.14171e-07
3.56399e-07
-0.00226167
1.8092e-08
9.67973e-09
9.29024e-09
-0.0099071
1.52105e-08
4.64181e-08
7.00398e-07
4.38101e-06
-4.60261e-08
-0.004856
-0.000177566
2.54442e-07
-7.65963e-08
-1.25939e-05
-2.39923e-07
3.11669e-08
-4.34012e-08
0.0144114
-3.95999e-08
-6.82262e-08
2.75372e-07
3.55986e-06
-3.04995e-10
-0.00443885
-3.89345e-08
-3.95978e-09
1.82089e-08
4.24928e-06
-4.08314e-06
1.23942e-08
0.00121359
-1.64178e-06
2.19106e-08
-1.16677e-08
-3.31815e-06
5.29179e-05
5.91182e-07
-2.02846e-08
1.01736e-06
-5.15459e-09
-1.89731e-06
6.64783e-07
0.00120388
-1.97881e-06
-4.46472e-09
2.03692e-08
3.55465e-08
-6.43666e-08
-2.6755e-06
6.76631e-08
0.0191441
-5.0246e-09
4.24839e-08
-2.61639e-07
2.85518e-07
7.56717e-08
3.20738e-06
-0.00220998
-1.48388e-08
3.49163e-09
3.36917e-07
-6.55646e-09
-1.46147e-07
3.9981e-09
-6.02701e-07
2.95303e-08
-1.94419e-08
8.3274e-09
-2.77817e-06
1.21013e-08
-0.0045121
-8.87827e-09
3.75077e-08
2.02949e-08
-2.84696e-08
7.21046e-08
0.0203248
-0.00461468
-3.15179e-08
1.1707e-08
-2.35237e-06
-5.19333e-09
2.06945e-08
-2.05615e-06
-1.19763e-08
-0.00220883
1.40041e-06
-2.56683e-05
3.53045e-06
1.68305e-07
-8.13847e-06
9.81679e-08
4.82712e-06
4.00076e-09
2.87489e-07
3.07152e-08
0.00134402
-1.49322e-08
0.000307352
-2.93102e-09
-4.90006e-08
-3.61422e-06
5.61388e-09
-7.84707e-06
0.00111373
-7.27994e-06
-2.40838e-08
1.12258e-07
-2.63584e-08
4.42463e-07
1.35211e-08
2.99454e-06
-8.05806e-08
0.0194434
-2.23727e-09
4.39184e-06
-0.000957
3.70723e-08
-1.45393e-08
-2.82285e-08
-3.72427e-07
3.79996e-09
-7.4712e-08
3.34519e-08
2.13194e-08
0.0127906
-0.0010409
-2.12796e-08
2.1891e-08
7.5221e-09
-7.77678e-06
-6.81192e-08
2.30188e-06
5.75247e-08
3.3923e-07
-3.18972e-08
-1.29127e-08
0.000653589
-8.4158e-08
7.2167e-07
-7.14685e-06
5.60789e-06
9.99685e-09
-2.56552e-05
7.45497e-07
7.23768e-07
0.0157287
3.48917e-08
4.67807e-09
-3.57327e-08
1.22905e-07
-1.21296e-07
-4.18186e-07
-5.90912e-08
3.89774e-06
-2.05052e-08
-2.49328e-09
1.78261e-08
-1.70071e-08
-1.56473e-08
3.19914e-08
1.70374e-07
0.000763337
7.13253e-07
-0.00378214
-3.67353e-06
-0.000251607
-8.66896e-09
-2.63563e-07
-2.58235e-08
-1.67224e-06
0.00118219
8.28664e-07
1.05545e-08
3.9396e-07
0.00752668
-2.55813e-08
1.7881e-06
-0.00510637
-0.00332811
5.27015e-07
2.17125e-07
-1.25003e-07
-2.03291e-09
3.41828e-08
-4.12175e-07
-5.45285e-08
1.22998e-05
2.41022e-08
-3.19234e-10
-3.46357e-06
-0.00407411
1.71735e-07
2.87743e-07
-5.81565e-09
0.000120409
2.23474e-07
8.26322e-07
-7.26864e-09
2.48776e-07
-3.94641e-08
4.91805e-08
3.93781e-08
-0.00446187
-1.63399e-08
3.2347e-06
1.27536e-08
-9.73284e-09
-4.16032e-06
2.51337e-09
4.09248e-06
1.4696e-07
2.77901e-09
-0.00486349
1.89494e-06
-8.77607e-07
9.67612e-09
1.49402e-08
-1.3125e-06
0.00367927
-5.54004e-08
-2.72803e-08
0.00593949
2.35383e-08
1.21711e-06
-0.0023589
-5.39646e-08
-5.46578e-09
0.00499711
-1.21007e-08
-3.51268e-05
-1.01327e-08
-0.00972606
-1.41195e-10
-2.06026e-07
2.52723e-08
-2.39681e-08
1.47951e-08
8.32325e-08
-0.000139146
1.4271e-06
-6.55057e-05
-2.26709e-08
-6.5582e-05
-0.0100339
3.20185e-05
-1.10026e-08
-6.57731e-06
-4.641e-07
1.90518e-08
0.000494411
4.29442e-09
1.61398e-08
-1.95728e-06
5.30509e-08
-1.46629e-08
-0.00386649
-0.00312422
-2.07662e-06
-0.013573
-3.75823e-08
2.15979e-08
3.49276e-08
0.00231964
5.06104e-08
-0.00276474
-0.0244249
2.80973e-08
5.23278e-07
-1.20786e-06
4.91901e-07
-2.52259e-05
-0.000949408
-1.17297e-08
-0.000597279
3.16152e-08
5.77423e-06
-0.00380039
-0.00193086
-3.84919e-08
8.53361e-09
0.00193246
0.00085123
5.51439e-08
3.01743e-07
-4.02683e-06
3.36759e-07
-9.89656e-09
-2.22285e-06
0.000510775
-7.82951e-06
0.00397146
-2.69257e-07
3.32865e-08
0.000306803
-7.50553e-09
1.38606e-06
2.37131e-06
-2.75681e-08
-4.74971e-05
-1.42562e-05
-7.85732e-07
-1.35123e-08
1.70333e-08
2.13381e-08
0.0135408
8.72013e-08
4.55732e-06
-2.35031e-06
1.72583e-07
1.50172e-07
-2.1684e-07
7.20822e-09
1.67333e-08
4.5433e-09
-4.00879e-06
5.68625e-06
0.000104539
-0.000179721
0.00256201
0.000839468
3.10967e-08
7.68644e-07
1.25695e-05
-5.44643e-06
1.78744e-06
6.03786e-06
-2.65824e-06
-0.00642158
0.00219286
-2.65584e-06
-1.21792e-06
6.82836e-08
1.87651e-08
-2.71404e-06
-0.00540033
-1.80122e-08
-5.27017e-08
-8.97107e-07
2.97199e-08
0.00014218
-2.68381e-09
2.7716e-09
0.00209998
-5.55338e-05
1.33492e-07
-2.16866e-08
2.53883e-09
-4.85234e-08
8.29182e-07
5.55566e-07
3.76291e-08
-2.8798e-07
7.91379e-06
4.73691e-06
-4.82122e-08
-4.22218e-07
-0.0133313
-0.00528587
1.3268e-08
-0.00256696
5.75945e-08
-1.76432e-07
1.5792e-08
-5.75056e-08
5.58216e-08
1.34277e-05
-8.26493e-08
1.68114e-08
-2.09022e-06
4.64617e-08
-2.02358e-08
-1.14402e-05
-4.39701e-05
-5.33749e-06
-2.624e-08
-1.74781e-08
1.15432e-05
4.77109e-08
5.21286e-07
-0.004045
-0.00332422
-5.84497e-07
2.47167e-08
-0.00926457
-0.00168254
5.17486e-07
1.60127e-06
1.25346e-08
3.47031e-07
-4.61654e-07
-5.90976e-06
-2.25517e-08
9.65706e-09
-1.84935e-06
-4.28608e-05
-9.17261e-06
-2.00916e-08
3.12273e-05
1.3832e-05
2.4957e-09
2.09716e-08
-2.67387e-06
-7.33157e-09
-2.29112e-07
0.000533557
-6.10566e-09
0.00238424
-1.99684e-06
-0.00933089
1.55528e-05
1.34262e-06
8.33928e-07
-0.00919645
5.01273e-09
-2.93766e-10
-1.78919e-07
2.23706e-09
-2.40168e-09
1.35897e-07
-2.16706e-06
3.72246e-07
-3.83205e-07
-1.20787e-07
3.16069e-08
-0.00349119
-2.35256e-06
-5.8802e-09
-1.87364e-06
-1.7065e-06
-0.000648583
-2.83842e-08
-0.00625104
1.22875e-05
0.00828693
-0.000943529
-8.1815e-06
-3.31049e-08
0.000912846
1.07311e-06
4.58602e-07
4.89836e-07
-0.00423069
-1.00958e-06
2.70693e-06
-2.106e-09
-4.03209e-08
-0.00152326
1.53747e-08
-6.7743e-07
8.63005e-06
0.00219679
3.98751e-06
-1.93187e-06
-6.99882e-08
5.42723e-08
-1.37955e-06
-8.9089e-09
-9.71162e-08
3.40367e-06
1.87658e-08
-0.00496099
-4.86811e-07
2.26151e-07
-3.67222e-08
2.04249e-05
2.51983e-06
-2.36908e-07
-0.0020327
-2.50774e-07
-7.25279e-05
0.000629613
4.51399e-08
-3.08664e-07
-0.00183018
-0.0012008
2.40272e-08
-0.0189682
1.48955e-05
1.82905e-08
-2.24242e-08
-6.56306e-06
4.48113e-08
-7.26755e-05
4.12765e-06
-9.93979e-09
0.00182916
3.88763e-08
-8.30439e-06
-5.60789e-09
6.25414e-08
2.76024e-08
-8.47503e-07
-1.20113e-05
-0.00386612
-0.000432993
-9.47758e-09
0.000582287
-5.65671e-09
-8.03203e-07
2.69558e-06
-7.78718e-07
1.14507e-09
-3.45212e-06
2.31064e-09
6.20542e-06
6.15993e-08
1.24395e-07
1.42194e-07
3.84559e-09
-3.29236e-07
2.25628e-07
2.51476e-07
-0.00262295
1.84331e-09
2.79678e-08
-3.87488e-09
0.00879103
0.00140419
4.54843e-08
5.19533e-07
-2.95291e-08
6.31566e-08
1.27904e-06
1.67712e-07
-5.49678e-08
6.20858e-09
-1.9749e-07
6.69762e-06
-1.50943e-07
0.00510009
1.22411e-05
5.7357e-07
-0.00692822
-0.0038252
-1.89799e-06
7.50798e-07
-0.00844657
0.00889983
-3.99618e-07
9.747e-06
2.25662e-08
0.000624957
-0.00385552
-1.90074e-08
7.62011e-05
1.71034e-08
-0.0093505
-0.00389793
-9.25531e-07
-7.05724e-06
1.3132e-07
-3.137e-06
-2.64375e-08
-3.97133e-08
-6.40648e-06
-2.8352e-08
-1.16713e-06
-5.60179e-06
5.91119e-08
1.43751e-09
5.5185e-06
1.36691e-08
-0.00133216
1.77995e-05
-5.31824e-09
-0.00955775
-9.47779e-08
-1.62364e-06
-1.92402e-09
1.33407e-07
-1.85863e-07
-3.8333e-07
-0.00112679
1.949e-08
0.000107342
-3.33271e-06
-1.69071e-08
3.49113e-08
3.5849e-06
2.35977e-06
-1.7383e-08
-8.87764e-08
2.07389e-07
-1.32877e-07
3.83913e-08
4.11928e-08
2.39685e-06
-2.24601e-08
-4.25825e-08
-9.30068e-07
0.0162457
3.08125e-08
-0.00122807
-4.85959e-08
-0.00172515
1.53834e-08
0.00809299
1.25684e-07
2.6865e-07
0.00294452
4.1195e-08
-0.00663674
2.33809e-06
2.80312e-09
-0.00891945
-1.20136e-08
1.43891e-08
5.42848e-07
4.12659e-08
-1.53712e-06
3.52387e-07
7.48759e-09
-5.31359e-06
-0.00483914
-1.21163e-08
-4.35601e-08
-4.30407e-07
-0.00156187
-7.55375e-09
-0.000926374
-1.25217e-08
2.41383e-08
-1.72822e-07
2.76408e-07
2.60703e-05
-1.18608e-08
-0.0109702
-2.59372e-07
4.46963e-09
1.3006e-06
-7.50936e-08
-5.75182e-09
-1.16986e-08
3.74767e-08
3.11185e-08
1.32697e-08
-5.78904e-09
-0.00859637
-9.56971e-07
9.12529e-09
1.02732e-06
0.0012852
-0.00829916
-0.00371195
-8.17719e-07
-2.3901e-06
7.62852e-10
-2.12883e-06
6.02245e-07
-3.55065e-07
-3.16047e-08
-3.59544e-07
-2.05829e-08
-9.94667e-09
-0.0109854
-0.00603821
-2.40086e-08
3.87582e-08
-1.79369e-08
-2.85933e-07
3.76871e-07
1.05181e-06
-1.8907e-05
0.00384896
5.88732e-09
-2.61854e-08
-1.38077e-06
4.5525e-08
-1.89611e-06
0.000489778
-0.000165358
-3.6654e-06
3.65338e-08
-2.29324e-08
0.00258317
8.29345e-09
6.16886e-08
2.23467e-08
-5.86363e-06
4.60738e-06
-4.94761e-08
-2.41368e-06
-4.67247e-08
3.66748e-07
-0.0139779
4.32858e-06
2.76604e-08
-0.0107108
2.95845e-08
-4.50075e-08
-2.6402e-08
-0.00430081
5.47877e-06
1.19689e-06
-3.30925e-08
7.06943e-09
0.000134577
-4.34974e-09
1.2887e-08
1.83302e-08
-1.84889e-08
1.14288e-07
2.66842e-07
9.37772e-08
-0.00703656
-7.04363e-08
-3.07284e-08
-5.06313e-09
-0.0084047
3.11167e-08
-2.08692e-08
-1.14659e-09
2.77707e-08
-0.00373256
-0.00284532
-7.23106e-09
-2.49681e-08
0.0128741
0.000164999
-3.65904e-09
-5.26826e-09
-3.35278e-06
1.09841e-06
-6.41489e-08
2.18063e-06
5.26087e-08
-0.00285434
1.34133e-08
-2.65921e-07
-0.0114487
-1.20559e-07
2.73811e-07
6.24662e-08
-7.02673e-07
-3.89562e-06
-7.05923e-08
0.0250159
-9.81596e-07
-1.27461e-06
4.5868e-05
-1.33121e-06
1.23908e-08
-0.00511981
-5.35468e-06
-1.30846e-06
-4.41207e-07
2.5066e-06
-2.25039e-07
-1.74904e-07
9.87853e-06
3.24713e-08
1.76552e-07
3.54013e-06
5.62327e-08
1.64704e-05
-1.40609e-08
-4.96663e-07
0.00113663
3.18188e-07
3.40416e-08
2.4713e-07
-3.63662e-07
2.08393e-08
1.86923e-09
-2.03117e-08
-7.32852e-07
-1.08611e-05
-2.00382e-06
-1.01874e-07
1.15703e-06
0.00328711
-6.90613e-09
4.51093e-09
1.86569e-07
4.74549e-08
1.99426e-07
-6.44138e-05
-3.05648e-05
4.55844e-08
-3.23651e-09
-2.5712e-08
0.00161502
4.67956e-08
5.76162e-06
-5.06859e-07
-7.15409e-07
6.23818e-09
-5.16735e-06
5.79797e-06
-0.0135228
1.65441e-07
5.34478e-06
-4.91036e-08
-5.77839e-07
-1.26126e-07
6.30213e-07
-0.00378111
7.12082e-09
6.55171e-08
-5.86756e-08
2.79441e-08