/*--------------------------------*- C++ -*----------------------------------*\
| =========                 |                                                 |
| \\      /  F ield         | OpenFOAM: The Open Source CFD Toolbox           |
|  \\    /   O peration     | Version:  v2012                                 |
|   \\  /    A nd           | Website:  www.openfoam.com                      |
|    \\/     M anipulation  |                                                 |
\*---------------------------------------------------------------------------*/
FoamFile
{
    version     2.0;
    format      ascii;
    class       volScalarField;
    location    "100";
    object      ddt0(omega);
}
// * * * * * * * * * * * * * * * * * * * * * * * * * * * * * * * * * * * * * //

dimensions      [0 0 -2 0 0 0 0];


internalField   nonuniform List<scalar> 
54593
(
0.0135601
-0.0560481
0.0224411
0.00240036
0.00230767
0.0125337
2.30432e-06
-2.4827e-05
0.0045317
2.831e-05
2.61509e-08
-0.0297633
-5.68127e-06
2.13045e-07
-0.000204053
4.127e-06
0.154972
1.33779e-06
4.20552e-06
-0.00908515
-1.32281e-05
6.61341e-07
-0.0530513
-1.2297e-06
-3.95718e-06
8.44335e-05
0.111521
-0.000222757
-0.00672286
3.31117e-05
0.0968368
0.0537573
-7.48886e-08
-0.0512263
-1.54621e-06
-3.57118e-07
8.41935e-05
-0.0141122
1.30791
1.06113
-0.0241463
9.26648e-07
-1.28572e-06
3.2187e-06
1.09876e-06
2.63992e-05
2.8306e-06
0.0808612
0.00786046
3.03523e-07
9.6256e-07
-3.70376e-09
-1.33905e-05
3.71887e-05
-2.5097e-05
-1.45682e-07
9.65298e-05
-1.68912e-06
0.0239531
1.25972e-05
1.66751
6.2877e-06
-5.29895e-06
6.43937e-06
0.114392
0.793265
-1.36682e-06
-0.0556363
-6.75351e-07
2.47787e-06
0.148675
5.90595e-07
3.71142e-05
-1.06977e-07
7.73867e-07
3.01967e-06
-0.604251
-8.33447e-06
-0.0454099
0.00010806
-8.43311e-07
-2.30896e-06
0.144025
-0.083462
-1.86443e-06
4.30459e-06
-0.0126699
-1.69798e-05
4.39047e-06
-0.00314105
-3.10517e-06
-3.54334e-07
-0.0306553
-2.05864e-06
0.0266397
5.53257e-05
-4.38801e-05
-2.50364e-06
-1.57086e-06
-2.20947e-06
0.0167532
0.0230201
6.53276e-06
-0.00479722
0.00723205
0.100121
2.3891e-07
0.000978911
-3.61622e-07
-8.43057e-07
-3.65321e-06
-8.19102e-06
0.0570535
-0.000387163
0.0484568
-7.53225e-07
1.16588e-06
1.17428e-05
0.00427944
0.0105047
1.65615e-06
-0.0049401
7.78557e-05
0.00697445
-1.96858e-05
0.167826
3.03207e-06
0.00071122
-0.0363698
2.00295e-06
-7.768e-06
-3.36195e-05
-2.35996e-06
0.000745838
3.14415e-06
-1.3421e-06
0.000139792
0.198707
-1.7498e-05
-0.348101
-7.76368e-07
-6.99788e-06
-5.05379e-07
0.282605
-1.92605e-06
0.000583022
1.28169e-05
-3.60961e-06
-5.06758e-07
0.156981
2.46295e-05
0.0696362
-3.55397e-06
4.18955e-06
1.80747e-05
-0.011243
-0.00253051
0.0112935
-0.0334518
-1.6511e-06
-0.000327965
0.000374906
-0.0942138
-4.39059e-07
-0.0108949
-7.86881e-06
-2.22974e-06
-2.29911e-06
7.16544e-07
-3.84458e-06
0.175034
6.43275e-07
2.73938e-05
-0.000184292
-8.03552e-06
-3.76967e-07
0.00217393
0.000606147
0.279978
-4.83007e-07
-2.04038e-06
-5.88129e-05
-0.025356
0.000398561
-0.0372549
-7.69548e-06
-5.55296
6.39478e-07
-5.86853e-05
-5.11014e-06
0.00346873
-0.00568736
1.54253e-06
-0.0916096
-0.0073054
-1.8548e-06
-1.19408e-06
-0.000104028
-0.00695178
-5.66757e-05
0.291306
-0.00024767
-9.37176e-06
0.000553217
-0.0848567
-2.46315e-05
-1.43386e-05
0.000596546
-3.0701e-06
-6.65747
-9.66554e-07
-0.0369872
0.000148678
0.104772
2.10261e-06
0.000418459
3.08693e-06
0.0254684
9.61584e-08
1.85933e-06
-1.47132e-05
0.058388
-1.32628e-07
0.74553
-0.0466781
-0.0092184
-2.83531e-05
0.54112
-0.000304126
-0.0328552
0.589604
-3.57874e-07
3.32251e-05
-1.28604e-05
2.96764e-05
7.61672e-07
-2.27863e-05
-0.00756066
-0.00658131
2.92173e-06
2.38444e-07
4.15387e-06
-1.62165e-06
2.57033e-07
-2.36922e-05
1.79169e-06
0.00750522
0.110777
2.68451e-05
-4.03066e-06
-0.00969938
-7.41511e-06
0.000939215
-3.8385e-06
-0.370502
2.93268e-07
-0.0407942
0.364848
-0.00989336
2.47429e-06
1.16625e-06
7.5469e-07
0.00305273
0.00999961
0.0319607
0.00445515
8.44683e-08
-0.000413418
-2.82087e-06
-6.84059e-06
0.849821
0.0711819
-4.05839e-07
-0.0108992
-0.00831865
1.98333
-3.74094e-06
-9.67813e-07
0.000888818
2.73215e-06
2.47282e-06
-4.59036e-05
2.4903e-05
0.000465004
0.00749643
-0.00379443
0.000485433
-0.000215689
-0.0066285
-3.34612e-06
1.49379e-05
-0.362072
0.0070711
-0.0675027
-0.00174016
-1.32143e-07
0.00159037
3.30285e-06
-0.000187882
0.0145015
0.00232281
0.00111507
-0.0286546
0.138034
-0.00191659
-0.00604454
-0.0219591
-0.0809248
-0.0198818
-0.0822469
-1.28457e-05
-0.00710498
-0.000413162
0.265783
-0.0132177
-0.000125429
0.00341607
9.84353e-05
0.00264367
7.23113e-07
-0.00846205
0.000915524
-2.04037e-06
-9.02828e-06
1.55232e-06
-0.0336349
3.49116e-05
0.0970539
3.16777e-06
0.060695
-0.00868858
-2.09741e-06
0.0128244
0.00845478
0.000115775
-2.17136e-06
3.00201e-06
-0.0203658
0.000508058
2.18675e-06
-0.000222253
-0.327061
0.172928
2.2312e-06
-2.54187e-08
0.16649
2.57239e-07
0.270635
0.000674776
-1.35923e-06
-0.184483
-8.17356e-06
-0.0555613
-1.66859e-06
8.71573e-05
0.00427448
2.63726e-05
-0.0150746
0.00604022
0.000656612
0.0408674
-0.0286603
-0.0826089
9.06987e-07
-0.0200902
0.000921321
-8.66e-05
-1.21972e-06
3.26597e-06
-0.0026135
-8.17904e-06
0.115371
0.047903
0.000234913
4.16102e-05
0.00226707
0.00429856
-6.16621e-06
-0.0119857
-0.0687647
0.000815124
-0.000941575
-0.248959
0.00138485
0.140371
0.00015421
0.000599393
0.00104666
-0.000148499
4.23227e-06
-0.00018555
-0.000920182
0.0375439
-0.000669865
-2.58567e-06
-1.16541e-07
9.10456e-05
-3.47437e-07
-2.12017e-05
-0.000155747
-0.0625828
2.06951e-06
4.96229e-06
0.000147248
-0.000678943
0.000180092
0.00267138
0.00310253
-0.0780074
-0.000254021
7.00049e-07
-0.0667598
0.00804902
-0.000255724
7.31709e-07
-4.71624e-06
0.0719015
-0.111573
0.000539399
8.46442e-06
0.865619
3.95268e-05
1.52301e-06
0.0917233
0.000139095
0.00197785
-0.224154
2.2744e-06
8.46037e-05
5.7608e-07
-0.000801069
0.00424053
-0.515035
-1.04044e-05
0.0511778
-1.67008e-06
2.41515e-06
0.000472535
-1.91411
0.00142338
-0.00191074
-6.66039e-06
0.162441
-4.79818e-06
-0.0478875
0.000736392
0.000424112
-0.000654423
-0.00763067
0.197443
0.00100971
0.00025678
0.000547401
6.74632e-07
0.0247051
7.0027e-05
0.000157211
0.689691
-5.38256e-06
-0.000184646
-0.00459769
6.95633e-07
-1.10643e-06
-0.000210241
0.000266153
0.00143682
0.00077331
0.282355
1.68423e-06
-5.01732e-07
-0.0023958
0.000156757
-0.0220779
-0.000739557
6.34782e-05
-0.000125806
-0.0141065
-1.67467e-06
0.000906425
-5.99483e-05
-1.00899e-06
1.4177
-0.00452113
0.00268272
0.205372
-0.00936098
0.00180616
-0.000268265
1.28457e-06
-5.74978e-05
0.000180191
0.0785077
-0.0275331
-0.000116143
0.188876
0.00957553
0.00241591
-0.000116053
-0.000185959
5.18418e-07
-1.07106e-06
-0.0769238
-7.52499e-06
5.67106e-07
4.97144e-07
-4.77761e-06
0.000281151
1.34309e-07
-0.00229851
-2.36547
-5.61464e-06
-1.36179e-06
-4.00559e-06
-2.49824e-06
2.43986e-06
1.67396e-05
5.27118e-06
0.000688254
-0.00185711
0.000700831
0.000841987
0.18728
0.219173
0.000870743
0.132797
0.00177508
0.000687233
-1.36324e-06
1.92862e-06
-1.26626e-07
-9.0527e-05
-0.00161021
-2.97828e-07
-0.00495066
0.671882
-0.0018595
0.0880314
-5.33929e-05
-1.45723
-0.00893805
1.55852e-06
0.0032524
-6.6183e-07
0.00154971
-1.2536e-06
-9.47056e-07
0.00444598
-2.60485e-06
0.000156194
3.10761e-05
0.00144056
-5.34775e-05
1.9232e-06
-0.0065282
0.000901684
-2.04881e-06
-0.226618
0.0864951
-1.0093e-05
0.000464446
-0.115083
-1.72699e-07
-0.122458
-0.000159819
-0.0126567
0.000164503
0.0345329
0.167831
0.0144842
-0.00043496
-3.43468e-06
0.00439417
-8.17232e-07
-5.95299e-06
0.189986
-2.6915e-06
0.000834102
-2.35377e-06
0.000484749
-1.10926e-06
-4.02245e-06
-2.01556e-06
0.0749831
-0.00770935
-1.40573e-07
0.140441
-2.86616e-05
-0.0263505
0.0023102
-0.000475071
0.0024969
-0.000262214
-0.00071236
0.000403596
0.00117305
0.0107029
0.00348235
-2.50937
-1.91936e-07
-0.0024276
-0.0829092
-0.0769415
1.8796e-07
6.21418e-07
-0.0158218
-3.55248e-06
0.0241887
6.23429e-06
0.0232508
-0.00189784
-0.147386
3.56545e-06
-0.0851672
-3.19818e-06
0.000156906
-0.163939
-2.10917e-06
0.00306106
-0.0456821
-0.00191668
-3.354e-06
-7.24166e-07
-0.00210999
1.68209
6.71438e-07
0.550845
2.39095e-05
-2.94944e-05
-3.20396e-06
-0.0570126
-0.00188023
2.47627e-05
-2.94312e-06
3.03233e-06
-2.49149e-06
-0.0395234
4.96886e-06
0.000474097
-2.4027e-06
-0.0110979
0.216274
0.00796342
-5.51432e-06
-0.00360967
0.00985518
0.00469269
1.84585e-05
-0.240759
0.000136668
-0.00757723
0.201774
3.68119e-06
-1.58391e-06
6.27801e-06
-1.94834e-06
0.000222932
-4.40718e-06
-8.25586e-07
0.000195125
-0.0104583
1.696e-05
-0.139169
-2.35068
-1.178e-06
-2.60267e-06
1.86529e-05
1.72893e-05
-2.46754e-05
0.0528667
0.162377
-0.00149496
0.00447214
-0.000708006
0.000632121
0.00616008
0.28364
0.146665
0.0720355
1.59415
0.000968566
0.0275066
-3.37859e-07
-0.0891376
0.0750093
1.22357e-06
0.0333337
0.000170008
0.000773916
-0.266616
1.98186e-05
6.64e-05
2.54753e-06
0.00234814
0.0381696
-0.000292688
0.234972
-0.0139751
-0.00199849
-0.00107529
1.89376e-07
-0.000272654
-9.48177e-05
0.0491118
-0.000326685
-0.0127357
-1.66076e-06
0.00908371
0.0583383
2.82936e-06
8.02302e-07
-0.00789586
0.00741637
0.000441301
0.0253482
8.13007e-07
4.76092e-05
1.15989e-07
0.000213506
0.000503238
1.39018e-07
1.1359e-06
0.00102071
0.178378
1.11682e-06
0.00255647
0.0019957
-0.014815
-3.44148e-06
0.00127712
0.00437673
2.57971e-06
-0.00859855
0.227658
2.16479e-06
-0.000190009
3.42542e-06
6.18696e-05
0.278242
1.07918e-06
0.0004069
0.00938716
2.36798
0.128019
0.0982483
-7.90885e-07
-1.11468
-4.81441e-07
6.7791e-05
-0.0133621
2.39304e-06
8.21071e-06
0.00514932
-9.36579e-05
0.00773414
-1.77627e-06
-0.147389
-0.466451
-0.000149546
-9.07818e-06
3.84023e-05
0.0373288
-0.00174162
0.010594
0.000455045
-2.86277e-05
1.08919e-05
0.112625
0.0359891
-5.85924e-07
0.0711637
0.000429535
0.011087
1.52999
1.71015e-06
-8.92668e-05
-3.49404e-06
-2.75391e-06
-0.000224829
0.00050915
0.000269621
2.51657e-06
1.46402e-06
-7.97581e-06
-0.167606
2.05776
0.00222141
-0.00320735
0.00244364
-0.00263157
0.000605926
2.17504e-05
0.000459668
0.000976248
-4.11792e-06
-0.000328189
2.14091e-05
0.000429785
6.72528e-06
-0.105277
-4.44003
-0.000387446
0.0364119
0.000738186
3.14872e-06
0.000893836
-1.08021
5.68755e-05
-4.06743e-06
0.0197533
0.154729
-0.0130537
0.00356871
-0.813993
0.156299
-0.000173188
0.0206745
-2.02796e-06
-1.70883e-06
0.0202105
5.586e-07
0.0532799
-3.75174e-06
0.237774
1.05264e-06
-1.54177e-06
-0.0224584
3.6031e-05
-0.000350582
-7.35622e-05
-0.00202677
2.76951e-06
0.00615201
-1.40513e-06
1.27603e-06
0.21106
-0.0272245
0.0878155
-0.000515668
-0.00620882
0.195457
0.00261095
-4.17756e-06
-0.0081602
-0.0464875
-0.0581529
0.102697
-0.000148668
0.00013768
-3.54591e-06
-0.000105587
-0.0206906
-5.73452e-06
0.244863
-0.0998332
-0.164902
-0.0142642
0.00102402
8.44001e-07
7.33193e-07
0.26633
-9.40157e-08
-0.000579433
-2.61502e-05
-1.28637e-06
-1.03091e-06
0.0753797
-0.00541831
-0.0148468
-1.30334
0.000466432
-2.32816e-06
-4.78411e-06
-3.17991e-05
2.47738e-06
0.031445
0.089631
0.0353626
-0.000346634
0.639568
-0.000461438
-8.89286e-06
0.000495332
0.04523
-2.32021
-2.59169e-07
0.00174583
-2.00497e-05
-2.954e-06
-0.50629
0.000673077
-2.76687e-06
0.00684644
1.0169e-06
0.00649396
-2.03081e-05
-9.49988e-05
0.000105599
-3.14661e-06
-5.45214e-06
-0.00167993
0.0507691
-0.00787825
-3.92968e-06
2.23224e-05
2.66774e-06
-2.64991e-06
-0.000495917
-5.19295e-05
-1.69774e-05
0.000779716
0.101774
-0.0439748
-0.000324263
-2.79209e-06
-4.63424e-06
0.907042
1.35831e-06
-1.24523e-06
0.000853332
-0.00654962
-7.90643e-05
-0.00466486
-4.51439e-06
0.132572
-0.00028369
0.036504
0.133648
-9.20402e-07
-2.88208e-07
0.000104739
5.79808e-06
-5.38499e-06
-0.00518828
1.02972e-05
-2.46684e-06
0.0598389
-2.27953e-06
0.22718
-1.76919e-08
4.02281e-06
1.53973e-05
-6.92905e-06
-0.0109583
-6.23211e-05
0.0795968
-0.000329639
-8.68148e-07
-9.91492e-07
0.00166927
2.06325e-06
1.07465e-06
-0.213347
0.00254038
-0.0156035
-5.32966e-06
1.26319
5.55898e-06
3.93969e-06
0.00173374
-2.01984e-05
-0.00195714
-1.10681
-4.35464e-05
-8.28978e-05
-7.55562e-05
-0.00167777
1.00407e-05
-0.000116704
-3.81508e-06
-0.0205129
-5.90368e-07
6.41265e-05
-0.000108083
0.000432351
-0.0203118
-1.99799
-1.07122
0.187672
-2.7223e-05
0.0287147
-3.02207e-06
-0.380456
-0.000442176
2.64084e-05
-4.90233e-06
0.000103646
-2.60081e-07
6.0988e-06
-1.06988e-07
-0.000117803
-9.97359e-05
2.22179e-06
-8.70356e-07
-5.5723e-07
0.486115
-3.65938
-1.4262e-05
0.0054824
1.6483e-07
-0.000738183
-1.7014e-06
-0.637916
-7.4672e-07
-0.00165691
-2.95595e-06
0.000333484
0.213444
-0.312011
2.60731e-05
-5.32953e-06
0.0054849
-1.71482e-08
-0.00985183
-0.00458335
2.37481e-08
-0.088818
0.000285332
1.63126e-06
1.75775e-05
8.06484e-07
1.32957e-06
0.000868378
0.000402982
1.63222
-7.52872e-06
-0.00556123
0.00482539
-9.5441e-07
-1.78497e-06
0.00208203
2.58487e-06
-2.86555e-06
0.000580101
0.000366679
-2.85895e-06
-2.28225e-06
1.52771e-06
-0.0221462
5.8741e-06
-7.7434e-06
-1.83542
0.000344976
0.00022675
5.0747e-05
-0.256107
1.99942e-05
0.0010344
0.0274122
-0.000248278
-0.0141552
6.02928e-07
0.000764683
-4.16403e-06
-0.00780734
-0.00224949
0.0429839
-0.0341949
-6.24324e-06
-1.37252
-0.0125839
-5.07648e-06
4.46738e-06
2.43149e-06
5.79951e-06
0.000215357
0.00300941
-7.3267e-07
1.78611e-06
-3.01928e-07
1.68
-1.04105e-05
0.318066
-3.29916e-06
-0.00530347
0.0490577
4.45231e-07
0.00393978
2.86581e-06
-2.63923e-06
-4.37585e-05
0.00205006
-0.0186697
0.0731491
5.19001e-07
-4.24691e-06
-2.0528e-05
-0.137951
4.17685e-07
-0.000525892
-0.000671208
-3.27197e-05
0.134591
-1.65948e-06
1.08146e-05
-0.000121732
-0.00624052
0.55409
-3.00868
2.24589e-06
-0.88721
2.63008e-05
-1.06686e-05
1.49602e-06
0.0209007
-7.32735e-06
-0.716612
1.52509e-06
-7.97074e-06
-5.09451e-07
-3.69228e-06
1.87424e-06
7.25517e-07
-5.80207e-06
3.17815e-05
1.80493e-05
0.00588789
-4.71262e-06
-2.59039e-06
-2.40821e-06
-2.97838e-06
-0.00803714
0.000225337
0.0030473
3.67669e-07
-1.7147e-06
0.0627086
5.75741e-06
-1.79657e-05
-1.18177e-06
2.53912e-06
-9.94418e-06
-0.000262879
0.00386142
0.00255044
-6.59928e-05
8.58197e-07
0.000501283
8.28529e-07
4.68389e-05
0.0492997
-1.6009e-05
6.06579e-06
-5.04681e-06
-9.06858e-05
0.000570493
-0.000173293
1.00487e-05
-1.41323e-06
-2.65292e-06
0.000636576
-7.95814e-06
-1.81943e-05
-9.18095e-06
-1.72193e-05
0.018801
-0.0102909
-0.010064
-4.17307e-06
1.0721e-06
-0.0153643
-2.58796e-06
0.000478669
-4.82708e-07
0.0142744
-0.109042
1.9886e-06
0.000393101
-3.26784e-05
-0.150868
-2.1231e-06
0.0167998
0.000361403
0.0623429
-0.000256954
-1.34438e-06
1.45749e-06
6.16434e-07
-4.12773e-07
-5.24945e-06
1.97617e-06
-1.29698e-06
-0.0119229
0.000118219
-2.43715e-05
0.000661964
3.93841e-05
0.000332915
-1.4975e-05
-4.62733e-06
8.57297e-05
-2.80051e-06
0.0395391
0.00110106
-0.000260815
8.41596e-07
-6.98337e-07
3.33753e-05
0.00228713
-3.58472e-05
2.35677e-05
-1.44072e-05
7.1247e-07
-4.69937e-06
-0.000699773
8.14589e-05
-2.01329e-07
-8.65122e-06
-1.60795e-06
-1.257e-05
-0.352799
1.1215e-06
-0.000685951
-0.00172624
-0.000404431
-0.0764478
2.64332e-06
-9.10737e-05
-3.81545e-05
-0.309217
0.000235007
-1.60915e-06
0.225191
-3.4516e-07
3.34475e-05
-1.69172e-06
-3.62237e-06
2.39855e-06
0.0186311
0.424207
0.000885842
0.000144472
8.47499e-07
-0.000178869
2.07569e-05
0.0410238
6.09518e-06
0.00328724
-9.66912e-05
0.137086
-2.91691e-07
0.00108632
-4.26518e-06
0.411399
3.72484e-05
-2.82759e-06
-0.0275736
7.92464e-07
1.92471e-06
-0.00593257
3.23897e-06
1.35992e-06
0.000356664
-0.454249
-0.000771619
0.000925493
0.00243092
-5.49705e-06
-2.55745e-06
-2.13846
0.00080407
-1.42647e-06
-4.88236e-06
3.35369e-06
0.0670219
5.21964e-06
2.2729e-06
5.48511e-07
-6.24715e-07
-1.9377e-06
-0.0223235
-3.53163e-06
0.000684794
0.000221224
-3.59418e-05
-0.24537
-8.339e-06
6.44759e-06
0.00165213
-5.1003e-06
-0.000244445
-1.72934e-06
3.51159e-07
-0.0158626
-0.00399945
2.02196e-06
6.94043e-05
-4.73506e-07
-2.23637e-06
-5.31701e-05
-9.103e-07
-9.95118e-07
4.64863e-07
0.157999
5.9569e-06
3.88433e-06
0.109236
-0.132755
-2.81915e-06
-2.22535e-06
-0.0670069
0.000743853
0.000678286
2.22757e-06
-0.000120246
-2.10317e-06
0.188876
6.89091e-06
-2.90504e-07
0.0539859
-1.79312e-06
1.3797e-06
-7.59071e-05
3.80234e-05
2.48668e-05
-0.0259131
0.00184463
2.32781e-07
1.61447e-06
-3.85095e-06
0.000504668
-7.65802e-06
3.34706e-06
0.0373022
0.00266619
1.20136e-07
0.00164034
-0.0488894
-0.000182375
-0.0668803
1.01968e-06
-9.42193e-07
-0.000531675
-0.0671083
0.0198576
-0.0463692
6.63636e-06
-8.87933e-06
-0.121573
-0.0428048
-9.78136e-06
-2.09538e-06
-2.49297e-07
-9.9816e-06
1.2103e-06
-1.52212e-07
-9.12275e-07
-4.88135e-05
-1.31192e-06
0.0669119
-0.337189
1.15698e-06
1.51631e-06
-1.04335e-06
-6.0922e-06
-8.12292e-06
-0.000545674
-1.1458e-05
0.000856912
6.45402e-07
0.00240235
-0.00742092
0.00010186
-0.00172655
0.00275849
-2.13919e-06
0.400698
-0.00119914
-0.00166463
0.00354178
3.86686e-05
-0.00569876
-1.88145e-06
0.406257
1.07102e-06
-0.000211623
-8.13106e-07
-1.58851e-06
-0.0434472
-7.13012e-05
2.09714e-06
-0.229038
0.0494314
-6.94151e-05
-4.67161e-05
1.55917e-06
-0.00120239
0.121332
2.75756e-06
1.44891e-05
6.50698e-07
-3.01763e-06
2.0003e-06
2.9148e-06
-0.0173206
-8.23172e-05
-1.63846e-06
1.94114e-06
7.18398e-07
-3.1963e-07
-4.6127e-05
-3.16587e-06
1.91821e-06
0.338372
-0.000136582
-1.81013e-06
0.00016435
-8.85564e-08
7.10379e-09
0.00288912
6.60468e-07
0.00705292
0.152586
-3.39715e-06
0.212493
-5.01763e-06
0.103039
2.17642e-06
0.00195844
2.95336e-05
0.00280344
0.154791
6.42934e-05
-0.0162907
-5.6624e-06
-2.91553e-06
-0.0256353
0.00179191
0.175534
4.62348e-06
-5.53064e-06
0.000364167
4.54921e-06
2.61965e-05
-2.4534e-07
0.000762738
1.21945e-06
0.297461
0.00328523
-4.55023e-05
5.28763e-06
-7.69329e-07
0.00393285
0.390732
-0.000339164
-0.000162402
-0.0251675
-2.27233e-06
5.56808e-06
-3.64588e-06
0.0196669
8.77108e-06
0.00170531
-6.24171e-06
9.78494e-07
-5.08464e-07
3.44975e-06
0.0128349
-0.000297309
-2.21989e-06
-1.88904e-07
-0.000204997
-5.37695e-06
0.454579
2.79064e-07
0.000238783
7.96991e-07
8.11511e-07
3.76704e-07
0.0900661
2.92471e-07
3.57e-06
-6.80678e-08
0.141644
-1.49048e-05
0.0188847
-1.06357e-06
-0.0103978
0.00245939
-0.00195509
-2.32314e-06
-0.00809901
0.018458
0.000518805
-1.01249e-06
-1.15864e-05
3.49071e-06
-2.35761e-06
1.74732e-06
-6.97309e-06
-2.1359e-06
2.18348e-06
-0.0749007
-9.5889e-06
0.00123894
3.65923e-07
0.000524653
-3.01612e-06
-2.3888e-06
0.923312
-2.4569e-06
0.000839513
3.79936e-05
-0.00100131
0.00116893
-0.415447
0.000430878
-6.72695e-06
0.022513
0.00164079
0.185316
0.106966
-6.56513e-05
-4.96447e-06
-2.2666e-06
-0.000302678
8.69187e-07
-0.00374268
7.11961e-05
0.148231
-6.39309e-06
-3.68597e-06
0.00269779
-9.17416e-05
-3.15527e-05
0.210412
-0.000450274
0.0399112
-2.82668e-06
0.0332335
-2.0589e-06
0.00180663
0.358086
0.208338
0.000219465
-2.5806e-06
-2.05675e-06
0.00158254
-0.128145
0.000450154
4.47437e-07
-6.86535e-06
-5.50532e-06
-6.07945e-05
-0.0588549
1.06219e-06
0.00443632
2.14864e-06
1.71364e-06
0.00167343
0.00116123
-0.0166576
-3.33186e-06
3.08866e-05
-0.552125
-1.09806e-05
1.84523e-06
0.187157
-0.659505
-2.08767
-0.000221795
-6.43312e-06
-0.0509144
0.0277695
-3.51618e-06
3.66527e-06
-0.0191468
3.70844e-07
-0.000389202
1.22329e-06
0.00741641
-0.0227306
-4.59904e-06
-1.34616e-06
-0.0243218
-8.08108e-06
2.35097e-05
-0.261276
1.24429e-06
6.48252e-07
1.76055e-06
0.0458712
1.31999e-06
3.64102e-06
0.000183745
0.00170732
-4.80646e-05
-0.146482
-0.0776367
2.98097e-05
-4.9385e-06
-0.027806
-2.15016e-05
2.33762e-06
2.57784e-05
0.537131
-5.0728e-06
-6.91393e-05
-0.000446786
0.00197155
1.79862e-09
0.0434385
4.04008e-05
-7.66225e-07
9.69847e-07
0.000874472
-0.00933699
9.37279e-07
0.0793767
-0.0203718
3.56565e-06
-9.31697e-07
-0.000746919
0.252139
0.000890588
0.00161601
0.000112073
-4.05019e-07
0.00119653
0.00101627
0.0169981
-0.000502691
-1.95725e-06
4.08463e-06
-3.07571e-06
-5.14942e-06
-0.00196317
0.00161829
1.03493
-3.53186e-06
-7.5874e-06
-8.16644e-05
0.000449786
6.87511e-06
0.000336665
0.224288
5.93203e-06
2.39508e-07
5.61956e-05
-3.66185e-06
-1.08103e-05
1.02331e-06
-6.40558e-05
-4.30363e-05
-1.91648e-06
1.29809e-06
-0.00188845
1.58716e-06
-0.017035
6.07134e-06
2.91203e-06
1.55251e-06
4.18721e-06
-3.26227e-06
0.398275
-0.182878
4.30537e-06
8.87001e-07
-0.00238672
-1.06797e-06
-9.75963e-07
-0.000397201
-2.01827e-06
0.207545
0.00197573
-0.00596766
0.00125841
1.17178e-05
-0.047179
-8.79599e-06
0.00248604
3.24137e-07
-0.0015675
5.14075e-06
0.0292863
-1.16045e-06
-0.515885
-2.24477e-07
-4.83994e-06
-0.00287333
-3.10383e-07
-0.00328786
0.040356
-0.00582988
-1.7983e-06
1.30877e-06
-1.98323e-06
0.00505392
9.87748e-07
0.000356421
-7.73329e-06
0.695519
-1.55564e-07
0.00253147
0.151621
3.38827e-06
7.21033e-05
3.93392e-05
-0.00014051
2.51455e-06
0.000871206
2.52427e-06
1.61564e-06
0.8094
0.167635
-1.6626e-06
1.66581e-06
5.67119e-07
-0.00189492
-6.92238e-06
-0.00655963
6.13771e-06
1.5555e-05
-3.2968e-06
1.36268e-06
0.147937
-7.03947e-06
0.000108475
-0.00331898
0.0121652
1.01697e-06
-0.00379229
0.000111486
0.00160026
1.3611
2.60206e-06
3.67963e-07
-3.31129e-06
2.82273e-06
-4.42337e-06
-0.000350545
-5.83556e-05
0.00219052
-1.32805e-06
-2.76814e-07
2.14853e-06
1.57147e-07
-1.19622e-06
2.42909e-06
1.7379e-05
0.1652
0.000217855
-0.568623
-0.00238157
-0.0770137
-6.90464e-07
-9.3102e-06
1.008e-05
0.00109633
0.0624501
0.000317694
2.9702e-06
2.6449e-05
1.13342
0.000880678
-0.0087508
0.246576
-0.0961921
3.71256e-05
3.18713e-05
-3.09883e-05
-1.3169e-07
2.56489e-06
1.32618e-06
-2.27534e-06
-0.00555741
1.68055e-06
1.98918e-10
-0.0131931
0.177296
1.41072e-05
0.000687547
-4.88443e-07
0.0136355
4.13407e-05
0.000123266
-9.75264e-07
2.9438e-05
1.36445e-05
-2.99649e-06
6.53412e-06
-0.195147
-1.28313e-06
0.00138267
-5.37787e-07
-6.9463e-07
-0.0151271
1.98785e-07
0.00178384
-2.78634e-06
2.12535e-07
0.12175
0.000693399
0.000889129
4.7993e-06
1.13974e-06
0.00331992
2.23589
-1.99122e-06
7.8263e-05
1.21047
1.74561e-06
0.000669706
-0.0763531
2.72075e-05
-3.49825e-07
0.0830587
-9.84053e-07
-0.0132891
-6.9278e-07
0.060632
-2.30058e-09
-3.41034e-05
1.90461e-06
8.31736e-05
4.03855e-06
5.54976e-06
-0.0270453
0.000273406
-0.00071927
-1.55693e-06
-0.000396251
0.000950853
0.00375701
4.55147e-06
-0.00251337
-3.65941e-05
2.56777e-06
0.433953
4.20756e-07
5.00697e-06
-0.00016795
-2.90874e-06
-1.65056e-06
-0.052383
-0.277761
0.00147853
-0.285488
-3.71507e-05
5.30986e-06
5.64234e-06
0.0122468
-7.19034e-06
-0.0313282
-1.55755
2.54721e-06
3.32692e-05
0.000556198
0.000131747
-0.0947785
0.161081
-7.49182e-07
-0.14602
3.81325e-06
0.005786
-0.0496942
-0.240713
-3.00455e-06
4.70483e-06
0.0541821
0.0132125
4.28912e-06
1.71642e-05
-5.45412e-05
1.08835e-05
3.7569e-06
-0.00037855
0.0267857
0.00285196
0.0283651
-1.33279e-05
1.3549e-06
0.144007
-5.62197e-07
-0.0115233
0.00133022
-2.9521e-06
0.00795099
0.119067
-0.00489601
-1.09721e-06
7.93278e-07
1.61518e-06
0.11439
5.95138e-06
-0.00332608
0.000469413
1.68515e-05
-1.78967e-06
0.000298107
-5.45616e-07
-4.74911e-07
-1.86417e-06
-0.00249016
0.00335381
0.0489757
-0.457695
-0.0431446
0.00938834
6.46706e-06
0.000203112
-0.0134749
-0.00133174
-0.00984462
-0.00079462
-0.000408845
0.222607
0.00797464
0.00130477
-0.0289107
-2.13281e-06
1.41997e-06
-0.000455752
-0.00748516
-1.35739e-06
-1.22488e-05
-0.00577037
2.26528e-06
0.138961
-1.87042e-07
-2.19664e-06
0.0121384
0.0171351
4.5639e-06
-1.1491e-05
-1.44958e-07
-4.50583e-05
8.87528e-05
0.000334479
8.9011e-06
-0.000224883
0.00432312
-0.0027183
1.74836e-05
-0.000199838
-0.344158
0.225265
9.81084e-07
-0.0621705
9.28886e-06
-9.13257e-05
1.19449e-06
-1.36498e-05
-6.85903e-06
0.00521656
-1.8422e-05
1.28193e-06
-0.00216618
3.35458e-06
-1.50209e-06
-0.00538014
-0.139824
-0.00584551
0.0002197
-1.24404e-06
0.00158759
-2.54888e-06
3.21429e-05
0.191608
-0.0424596
-8.39915e-05
1.86258e-06
0.0919378
-2.73267
0.00014518
0.000338743
9.66739e-07
1.67885e-05
-0.000384886
-0.00511337
-2.49565e-06
6.67333e-07
-0.000416065
-0.00721129
-0.00041576
-1.52534e-06
0.0174455
0.00354799
1.92939e-07
4.19531e-06
-0.0036927
-5.16036e-08
-0.000159468
0.173059
-3.54173e-05
1.82289
0.000962118
-0.0610383
0.00975656
0.000149753
0.000104928
-0.0949857
5.1038e-06
1.48597e-09
-1.19921e-05
-2.2418e-07
-1.75695e-07
5.16631e-06
-0.00035999
6.0781e-05
-6.3053e-05
-8.16626e-06
2.39814e-06
-0.0744255
-0.00240085
-4.48754e-07
-0.000163528
-0.000165143
-1.01597
3.28322e-06
0.0870644
0.00173292
-0.00693351
0.134991
-0.00500923
-1.67089e-06
-0.135394
0.000154573
2.8602e-05
0.000124085
0.751749
0.000404786
0.0143144
-1.61204e-07
-4.33255e-06
-0.0283691
2.10015e-06
-0.000828477
0.00471907
0.0355728
0.000821464
0.00216497
-6.19955e-06
4.37553e-06
-0.027583
-1.3556e-07
5.65853e-05
0.00125368
-7.17341e-06
0.0462179
-0.000218981
1.80596e-05
-2.80708e-06
0.00375982
0.00142807
-1.00094e-05
0.0971078
-1.14918e-05
-0.088753
0.00619288
3.50277e-06
0.00198962
-0.0254069
-0.0078036
1.7188e-06
-0.830602
0.00656024
-6.9291e-06
-1.79892e-06
-0.00266444
3.69146e-06
-0.0591911
0.00309962
-7.65037e-07
0.0599415
3.2928e-06
-0.00123262
-4.22323e-07
4.47244e-06
3.45442e-06
-3.06669e-05
-0.00299985
-0.048567
-0.000941092
-7.31338e-07
-0.0579543
-2.79019e-05
0.000460119
0.0029252
-7.28243e-05
9.3922e-08
-0.000683763
1.62163e-07
0.00153599
4.5614e-06
3.12353e-06
5.19763e-06
2.82184e-07
-0.000370534
3.30054e-05
1.17034e-05
-2.85062
2.85947e-07
2.11891e-06
-2.76171e-07
0.765295
1.14453
-2.65626e-06
-0.000353996
1.69369e-05
-5.54898e-06
-0.0147006
7.84649e-06
2.59326e-05
6.59198e-08
-1.53597e-05
-0.00160172
-3.70398e-05
0.214354
0.0218773
-0.0118991
0.182362
-0.0490396
-0.00038456
0.000101443
0.135429
-0.010993
-3.1116e-05
-0.044841
1.73145e-06
-0.0296192
0.102727
0.000221895
-0.0535599
1.44941e-06
0.0795058
-2.08155
-0.00455458
-9.26077e-05
1.56697e-05
-0.000480925
8.32986e-06
-3.51407e-06
-0.00228657
1.62272e-05
0.00507423
-0.00183396
-2.18597e-06
1.22966e-07
0.00140115
-1.38426e-07
-0.0118712
-0.0413715
8.2846e-07
-0.0735779
-3.89672e-06
-0.000139742
8.67338e-07
1.8619e-05
1.51234e-05
-2.93136e-05
-0.0115555
6.49311e-06
0.0305517
-0.00458432
-1.40541e-06
2.59671e-06
0.000297752
0.0016142
7.84625e-07
5.85579e-05
2.69759e-05
-9.30555e-06
7.00184e-06
4.30819e-06
0.00168373
-1.93832e-06
-3.58133e-05
0.000469698
0.352542
2.41203e-06
0.134828
-3.72929e-06
-0.45382
1.2169e-06
-0.0105168
-0.0175028
1.2296e-05
0.0815711
3.12313e-06
0.197931
0.00162441
-1.41789e-06
-0.2035
1.34424e-07
1.02129e-06
0.000485899
3.10661e-06
-0.000136283
1.67976e-05
2.04379e-06
-0.00583579
-0.112248
-9.39264e-07
-3.37202e-06
0.00434241
0.182988
-6.35913e-07
0.244265
-9.62562e-07
1.85543e-06
4.54334e-05
3.16765e-06
0.0261367
-9.11741e-07
-0.30194
-1.7891e-05
-1.13296e-06
-0.00972844
-6.16085e-06
-5.25218e-07
-8.4589e-07
3.03375e-06
-5.65359e-06
9.63273e-08
-3.59444e-06
0.123425
-0.000358055
-1.39199e-06
0.000401062
1.39564
-0.287596
-0.059857
-7.93808e-05
-0.00153708
-1.77835e-08
-0.000495816
0.000189277
-3.76546e-05
-2.4563e-06
-0.000206417
-1.60651e-06
8.99831e-07
-0.443298
-0.135216
9.71932e-06
2.95866e-06
-1.36779e-06
-1.51562e-05
8.52483e-05
8.43585e-05
-0.00751503
0.0791212
4.39111e-07
1.71806e-05
0.000510802
2.08618e-06
-0.00133879
0.00965279
-0.108309
-0.00315141
0.00540728
-1.73542e-06
0.407789
6.29839e-07
4.59072e-06
-8.45614e-06
-0.00216884
0.00396241
-3.89662e-06
0.000991348
-3.51752e-06
-0.0207748
-0.420764
0.00297365
1.98936e-06
-0.0478329
-1.23787e-06
2.31247e-06
-2.10608e-06
0.252221
0.00151088
0.000168031
-5.53955e-06
5.57969e-07
0.00116623
-1.39552e-06
1.76135e-06
1.71623e-06
-1.1808e-06
1.66305e-06
4.6754e-05
-2.23122e-06
-0.11138
-2.56295e-06
-2.74566e-05
-3.64302e-07
0.105393
2.36761e-06
-1.57906e-06
-2.2213e-06
1.94281e-06
-0.0640673
-2.29282
-5.07146e-07
7.98169e-05
0.606544
0.0836013
-1.70133e-07
0.000215928
-0.00146176
9.14294e-05
-4.99883e-06
0.0016381
-2.19671e-06
-0.75907
1.01803e-06
-1.36763e-05
-1.16768
2.99058e-07
2.09947e-05
-1.39617e-05
-0.000293397
-0.000126585
2.39046e-06
3.13797
-0.000810442
0.000952958
0.0371907
0.00144563
2.15539e-06
-0.810447
-0.00142411
-0.000628978
0.00164732
-0.0106796
-0.000252893
-0.000998317
0.00642278
2.47698e-06
2.66678e-05
0.00246682
4.94681e-06
0.0175686
9.23987e-05
-0.000421203
0.0601506
2.08156e-05
2.57287e-06
3.98834e-05
-0.000543341
1.59748e-06
0.000224221
-2.05453e-06
-0.000305383
-0.0294394
-0.000493122
-2.54168e-05
-2.35322e-05
0.144751
6.70396e-06
3.56546e-07
1.86088e-05
3.37582e-06
2.25132e-05
-0.00577463
-0.0099107
-7.47213e-06
-2.02191e-07
-3.65524e-06
0.050375
3.82983e-06
0.000711856
-2.37501e-05
0.000798416
9.35615e-07
-0.00211545
0.0124448
-0.802949
2.1508e-05
0.000888136
-3.70854e-06
-5.21293e-05
-1.3063e-05
0.000191588
-0.0434037
5.08761e-07
-5.3053e-06
9.45846e-06
-3.4458e-06
-0.000290308
1.03338e-06
-0.000506936
-1.37614e-06
-8.61283e-07
0.0205159
4.92214e-06
3.74188e-06
-0.531597
-0.47291
-0.000373486
-4.02426e-06
-2.04115e-05
3.37993e-06
-0.0218065
1.13649e-06
-3.09015e-06
-9.69315e-06
6.03426e-06
-2.46191e-05
3.41359e-07
0.00333747
0.00152224
0.000931443
-6.60138e-06
1.49037e-06
9.40545e-05
2.81225
4.75079e-05
-9.17544e-05
0.568052
0.0148485
-2.09719e-07
-0.00192577
-7.37984e-05
7.29946e-07
2.43569e-05
-9.59695e-07
-0.000101014
-1.88608e-06
2.49219e-05
-0.255516
-0.0128688
-0.000289026
0.0017005
0.0448
-2.0008e-06
-8.30795e-06
-1.92899e-06
0.000828266
0.0159221
-0.00182189
-0.0375515
-4.27033e-05
-2.90564e-07
5.43876e-05
8.52636e-07
-1.74644e-06
1.07981e-06
-9.69696e-05
4.48258e-06
2.4663e-07
-8.43981e-06
-3.32228e-05
0.000218376
0.0479389
1.95969
3.21874e-06
-3.40415e-06
1.03648e-05
-0.0137228
-1.26801e-06
3.42637e-05
-0.260154
1.51638e-06
4.10351e-06
-0.0010172
9.41101e-07
0.00258076
1.01787e-06
0.000813269
0.000633718
1.50517e-05
0.114946
6.09465e-06
5.10232e-06
-1.18281e-05
3.23141e-06
-0.0364484
0.144177
-6.31776e-06
-0.00334234
-0.000259196
4.33032e-06
-1.79404e-06
8.14755e-07
0.000103837
-2.2314e-06
0.681134
-1.4941
-0.00268532
1.8505e-06
-9.6315e-07
2.17096e-06
-8.83067e-06
-0.00105261
0.011833
9.11419e-05
1.5829e-06
1.5075
-4.67368e-06
-2.81841e-06
-0.000966713
-2.96751e-06
5.73952e-06
-7.1553e-06
0.00114258
-2.29666e-06
1.35181e-05
2.72313e-06
-2.02781e-06
-6.35892e-05
1.09177e-06
0.00176223
-1.08414e-05
-0.00709258