/*--------------------------------*- C++ -*----------------------------------*\
| =========                 |                                                 |
| \\      /  F ield         | OpenFOAM: The Open Source CFD Toolbox           |
|  \\    /   O peration     | Version:  v2012                                 |
|   \\  /    A nd           | Website:  www.openfoam.com                      |
|    \\/     M anipulation  |                                                 |
\*---------------------------------------------------------------------------*/
FoamFile
{
    version     2.0;
    format      ascii;
    class       surfaceScalarField;
    location    "100";
    object      ddtCorrDdt0(phi);
}
// * * * * * * * * * * * * * * * * * * * * * * * * * * * * * * * * * * * * * //

dimensions      [0 3 -2 0 0 0 0];
oriented        oriented;


internalField   nonuniform List<scalar> 
81438
(
-0.0026196
0.00330884
-0.000689242
0.00466381
-0.0041283
-0.000535512
-0.00379841
0.00117881
-0.000549496
-0.000257945
0.00080744
0.0029851
-0.000606935
-0.00237816
0.00195895
0.00134989
-5.36917e-06
-3.0545e-05
3.59143e-05
0.00013465
0.00060823
-0.000742875
-0.00311717
0.00166312
0.00145406
-0.00013986
-6.30249e-05
0.000202884
-4.18731e-05
3.20117e-05
9.86147e-06
0.0018295
-0.000925346
-0.000904151
1.1311e-05
-8.78203e-06
-2.52905e-06
2.01537e-06
-3.06386e-05
2.86231e-05
-0.00251953
0.00119802
0.0013215
8.02783e-06
-1.31276e-05
5.09983e-06
-0.000779946
0.000256594
0.000523349
5.43687e-05
-6.10388e-05
6.66996e-06
1.40864e-05
-6.05854e-06
0.000849515
-0.00127341
0.000423896
-0.000117315
0.000174759
-5.74456e-05
-8.61765e-05
3.9975e-05
4.62018e-05
0.00150775
-0.00149295
-1.47979e-05
2.84363e-07
6.63855e-05
-6.66703e-05
6.92553e-05
-2.29897e-05
-4.62657e-05
0.000209664
-7.12743e-05
-0.000138389
-0.00273119
-0.0411083
0.0438395
-0.00106861
-0.00145092
0.0065687
-0.00287712
-0.00369158
-0.000159257
5.60463e-05
0.000103211
0.0182021
-0.00615609
-0.012046
-0.00530697
-0.00803452
0.0133415
1.05829e-05
-1.31412e-05
2.55846e-06
-0.0175064
0.0273625
-0.009856
3.79872e-05
-1.26152e-05
-2.53715e-05
2.57016e-05
-5.86518e-05
3.29492e-05
-0.000169969
0.000177521
0.00507211
-0.0178748
0.0128026
-0.0134075
0.011742
0.00166546
0.0250848
-0.0260872
0.00100244
-0.0239411
0.000455699
0.0234854
4.91809e-05
-2.28249e-05
-2.63561e-05
6.30974e-06
-5.85473e-05
5.22375e-05
-6.7303e-05
8.10434e-06
5.91984e-05
-9.65941e-06
-2.44294e-05
3.40889e-05
6.3148e-05
0.000314229
-0.000377378
-1.65626e-05
-2.10768e-05
3.76392e-05
0.0344047
-0.0371359
0.0251283
-0.0200563
-3.98708e-05
-4.63054e-05
-3.93652e-05
2.97058e-05
6.16181e-06
-4.88545e-05
4.26939e-05
0.000176375
-0.000129675
-4.67015e-05
8.68644e-07
-0.000146788
0.00014592
-0.00023897
0.000266847
-2.78763e-05
-1.86626e-05
-2.32105e-05
-0.000488332
0.000622984
2.37801e-05
-7.3791e-05
5.00106e-05
-0.00916196
-0.00426846
0.0134304
-2.10083e-05
-0.000228252
0.00024926
-0.00310384
-0.0103036
6.55068e-05
-8.49076e-05
1.94008e-05
-0.000134313
4.39196e-05
9.03933e-05
-8.08266e-05
7.35072e-05
7.31953e-06
-0.000534849
0.000505717
2.91324e-05
0.0282989
-0.00321409
1.45929e-06
-3.2329e-05
3.08703e-05
-0.00186886
-3.95936e-05
0.00190846
-5.66665e-05
6.28293e-05
2.3284e-05
-2.86534e-05
-0.000120944
-0.000340952
0.000461897
1.45066e-06
-5.45095e-05
5.30593e-05
0.000144519
-0.000143651
1.05705e-05
1.23785e-08
1.3022e-05
1.22737e-06
-1.42491e-05
-3.89289e-05
2.23662e-05
0.000359973
-0.0278962
0.0275363
-2.91825e-05
-3.14073e-05
6.05897e-05
-0.0212086
-0.00273252
-0.000194289
6.35738e-05
0.000130715
6.16835e-05
-6.13995e-05
-5.62192e-05
4.63026e-05
9.91681e-06
0.000482319
-0.000603263
0.00215356
-0.00202422
-0.000129334
1.12812e-05
-4.34445e-05
3.21633e-05
-1.86871e-05
2.68264e-05
-8.13939e-06
-0.00113922
0.000189509
0.000949712
-0.000140787
2.34708e-05
-2.33118e-05
4.62365e-06
-0.00151234
0.000572875
0.000939468
2.10548e-05
-1.77694e-06
-1.92768e-05
5.18808e-05
-2.618e-05
0.00090062
-0.00150752
0.000606915
-4.28261e-05
-1.33932e-05
0.0521717
0.0143322
-0.0665039
-7.57151e-05
0.000235441
-0.000159726
5.05055e-05
-0.000696646
0.00064614
-6.18386e-05
-7.45703e-05
0.000136409
5.68932e-05
-5.05837e-05
-1.90794e-05
1.18369e-05
7.2426e-06
0.00285157
0.0345188
-0.0373703
0.000532324
-0.000730726
0.000198403
-1.53198e-05
-5.44668e-05
-0.000924119
0.000978586
0.00067784
-0.00497655
0.0042987
-0.00653558
0.00207935
0.00445624
5.80751e-05
-5.66243e-05
9.5218e-05
0.000183822
-0.00027904
1.25997e-05
-1.34124e-05
8.12573e-07
-6.73258e-05
6.33948e-05
3.93075e-06
1.93283e-05
-2.08435e-05
1.51639e-06
2.66481e-05
-5.58307e-05
-0.000583411
0.000448013
0.000135398
0.00142668
0.000563748
-0.00199043
-0.00200225
0.0364069
-3.52882e-06
-1.92237e-05
2.27525e-05
-1.15729e-05
6.59415e-05
0.000180364
0.00020599
-0.000386355
-0.00385125
0.00452909
-0.0271906
0.0300422
-1.06627e-05
-2.9016e-05
3.96773e-05
0.000775488
0.000140468
-0.000915957
0.000184464
2.51996e-05
0.00527442
0.00382605
-0.00910046
0.000127242
-1.4998e-06
-0.000125742
-0.000842692
0.00063091
0.000211778
-4.57337e-05
-8.86147e-06
5.45953e-05
0.000543192
-0.00153734
0.000994146
-0.00184619
-2.26625e-05
1.05057e-05
-4.95156e-05
3.90098e-05
1.81599e-05
4.59732e-05
-6.41337e-05
-0.000218842
0.000401532
-0.000182689
1.22299e-05
6.0572e-06
-1.82869e-05
0.000171011
-0.00102293
0.000851918
-9.58063e-06
-5.77233e-05
9.40479e-06
2.85827e-05
-0.000225636
2.67778e-05
0.000198858
-0.00527154
-0.00126404
-2.02429e-05
0.000147485
0.00456825
-0.028433
0.0238647
1.7304e-05
-2.08328e-05
5.35371e-05
0.000139606
-0.000193144
-6.96022e-05
6.19469e-05
7.65517e-06
-0.000606616
-7.80242e-05
0.000684639
4.64762e-05
-3.51951e-05
0.000984249
-0.000813236
0.000267687
-0.00034906
8.1373e-05
0.000102386
0.000123176
-0.000225561
-1.22079e-05
-5.51182e-05
-0.000586611
-0.000193336
-0.000131116
1.67645e-05
0.000114351
-0.0157666
0.000766782
0.0149998
7.94523e-05
-2.35533e-05
-5.58995e-05
-5.80939e-06
2.9815e-05
-2.40073e-05
0.000156319
-6.16287e-05
-9.46898e-05
-4.95386e-05
-0.00108968
-0.000986479
-0.000525859
0.0192926
-0.0212949
0.00420244
-0.00336153
-0.000840908
6.41609e-05
-0.000126
0.000721779
0.000833149
-0.00155493
9.02273e-05
6.02855e-08
-9.02882e-05
0.00032663
0.00182694
3.40158e-05
6.73899e-08
-3.4083e-05
-0.000271851
0.00112136
-8.85957e-06
6.27373e-05
-5.38783e-05
-8.58741e-05
0.000266239
-5.71663e-06
-7.32582e-06
1.30434e-05
2.26116e-05
1.39336e-05
-3.65452e-05
1.32985e-06
1.7999e-05
0.00719096
-0.000934704
-0.00625625
4.92629e-05
-6.14688e-05
1.22059e-05
-4.72805e-06
-0.000126389
0.000133131
0.00053379
-0.000666923
-4.43436e-05
6.25038e-05
-7.72813e-06
-6.18742e-05
-0.00138647
0.000676922
0.000709553
0.000694297
0.000169414
-0.00086371
-0.00086695
0.000260335
-4.69379e-06
3.87094e-05
-3.12907e-05
1.23454e-05
1.89454e-05
0.000536954
-0.00039888
-0.000138073
-0.00119526
0.00229588
-0.00110061
0.00264164
-0.00348815
0.000846503
0.00242363
0.00177881
-9.94005e-06
-1.33403e-07
1.00735e-05
-0.00774765
-0.0141574
0.021905
-4.99621e-05
-2.50092e-05
7.49716e-05
0.000799269
-0.000748764
2.76738e-06
8.54369e-06
-0.00528744
0.0418506
-0.0365632
-0.000922224
0.000867757
1.81326e-05
3.10484e-05
0.00225382
0.00873006
-0.00111676
0.000361064
0.000755696
7.20581e-05
-4.82775e-05
-3.79235e-05
2.54149e-05
1.25087e-05
0.000482389
-0.000474154
-8.23502e-06
0.000974012
-0.000155625
-0.000818388
0.000507466
2.94881e-05
-0.00349611
0.00758442
-0.00408835
0.000916944
-0.00198556
3.17342e-06
-4.67185e-05
4.3545e-05
-0.000240276
0.000106615
0.00013366
0.000188704
0.000183846
-0.000372549
0.000158584
-1.62324e-05
-0.000142351
8.78614e-05
-0.000106125
1.82636e-05
-0.000141487
-9.87889e-05
3.66662e-05
-3.70809e-05
4.14796e-07
0.0109905
-0.0187381
3.16204e-05
-2.26557e-05
-8.96479e-06
0.000993451
0.000836046
-0.000450714
3.86966e-05
0.000412017
-0.018637
0.00287048
2.00305e-05
2.8905e-06
-2.29211e-05
0.000106871
0.000586735
-0.000693604
2.07063e-05
0.000104866
-0.000125572
-0.0012855
-0.00251291
-1.22804e-05
5.06303e-06
7.21738e-06
2.21661e-05
-2.1356e-06
0.000116132
-2.82707e-05
0.00390633
0.00328462
6.35335e-06
5.17221e-05
0.0125897
-0.000847681
-0.00184355
0.0256027
-0.000569677
0.00135115
-0.00078147
7.86773e-05
-0.00029752
0.00822226
-0.00405641
-0.00416588
-0.000126414
-0.00257563
0.00270205
-0.001554
-0.000292176
0.0238291
-0.00657174
-0.0172574
1.18191e-05
7.80596e-07
0.000117625
-8.0484e-05
-3.714e-05
0.000108929
6.58285e-05
4.32924e-05
-0.000183152
-1.72025e-05
3.98142e-05
0.000157084
0.0223995
-0.000180557
-0.000936201
4.00442e-06
-3.70007e-05
3.29964e-05
-5.19396e-06
-7.08646e-06
4.08348e-05
-5.93097e-05
1.84749e-05
2.75915e-05
-6.01751e-05
3.25836e-05
-1.211e-05
6.9161e-06
3.51331e-05
-0.000274103
3.03021e-05
3.14984e-05
-6.18009e-05
-0.00175746
0.00128403
0.000473422
-0.0339413
0.0467078
-0.0127665
-0.000274078
-8.3652e-06
0.000282443
3.16721e-05
3.7583e-05
-0.00108081
0.00104275
3.80545e-05
-8.36239e-06
-1.57768e-06
-0.000183026
0.000278243
1.68883e-05
-1.38417e-05
-3.04646e-06
-0.00876419
-0.00374248
0.0125067
2.84555e-05
-2.64402e-05
0.021827
-0.0123157
-0.00951134
0.00472615
-0.000645299
0.00136501
-0.000719711
-3.26561e-05
5.56848e-05
-2.30288e-05
1.14808e-05
8.65378e-06
-2.01352e-05
5.27557e-06
-1.0037e-05
4.76141e-06
-7.60074e-05
-0.00110051
0.00117651
-0.0210645
0.0147817
0.00628276
-0.0130902
0.00324659
0.00984366
0.00262642
0.000284119
-0.00291054
-8.07817e-06
0.00107856
-0.000760827
-0.000317736
-0.000106026
2.19196e-05
8.4105e-05
-9.13305e-06
1.40983e-05
-4.96534e-06
-0.006954
0.00310357
0.00385043
-0.046513
0.0125717
5.78531e-05
-5.14996e-05
-0.0017179
0.00202064
-0.000302744
-0.00125351
0.000172702
-0.0144379
0.00752713
0.00691072
2.02141e-05
5.92381e-05
8.08066e-06
2.35396e-05
0.000502676
-0.000693884
0.000191208
1.67335e-05
-5.63626e-05
3.9629e-05
-5.5017e-05
2.23609e-05
1.28261e-05
0.000290892
-0.000303718
-0.000241359
-3.27192e-05
6.86422e-05
-0.000211912
0.000143268
3.2114e-05
-0.000631682
0.000599571
-0.011608
0.000728483
0.0108795
0.000155782
3.48436e-05
-0.000190626
-0.000448833
-0.000445521
0.000894353
-0.000619764
-0.000200968
0.000820733
-8.37773e-05
6.0224e-05
-0.000220244
0.000199236
0.0147256
-0.0234898
0.00430337
0.00183431
-0.00613769
0.00138485
0.000501915
-0.00188677
0.000243371
0.00167772
-0.00192109
5.60789e-05
-9.31427e-05
3.70631e-05
0.000450483
-0.00410023
0.00364975
2.20142e-05
-6.77479e-05
-0.000770547
0.000321713
0.0073038
-0.0116553
0.00435154
0.00172589
-0.00115789
-0.000567994
-0.00195058
0.000435288
0.00151529
-0.00393476
0.0022087
0.00172606
0.00118072
-0.014271
0.00392306
-0.00183177
-0.0020913
0.000347426
-0.000967189
-0.00110343
-0.000654031
0.000453684
-0.000812347
0.000358662
0.00971858
-0.000506734
-0.00921186
0.00171149
0.000105318
7.1056e-05
-0.0103573
-0.00125073
0.00087865
0.000199914
0.000706306
-0.000892901
0.000186592
-0.000860276
0.00117463
-0.000314354
0.00286161
0.00120893
-0.00407055
0.000466087
-0.000433973
0.000560598
-0.000455104
-0.000105492
0.00147656
-0.000519147
-0.000957416
2.45864e-05
-7.45483e-05
-0.00233146
0.0011362
7.77976e-07
4.03977e-05
-4.11761e-05
-2.27795e-05
5.08234e-05
-2.80439e-05
0.00468023
-0.00181862
-2.67982e-05
5.71004e-05
-0.0299389
0.00792278
0.0220162
-0.000101535
7.51841e-05
2.63512e-05
-0.0105341
0.0117148
6.45084e-06
-3.64675e-06
-2.80321e-06
-0.00111536
0.00118418
-6.88152e-05
-0.00210744
0.000389537
-1.87934e-05
-1.24971e-05
0.00952761
-0.00222382
-0.000763616
0.00272257
-0.00016713
-2.71581e-05
-1.77963e-05
5.88291e-05
-4.10328e-05
-0.000146007
-0.00012313
0.00026914
-0.00125424
0.00747639
-0.00622215
-0.000329648
0.00098839
-0.000658739
-3.5355e-06
-1.47974e-05
1.83315e-05
0.00273544
-0.00286185
0.0240763
0.0263768
-0.0504531
-0.000586099
6.5279e-06
-1.00636e-05
3.06971e-05
-3.70816e-05
6.38475e-06
0.000878671
-0.000820038
-5.86295e-05
-5.04648e-05
7.50513e-05
0.00752458
-0.0180587
-0.000801544
0.00134474
3.22891e-05
-4.13271e-06
-2.81562e-05
-0.0172393
-0.00428199
0.0215213
-3.8475e-06
7.49112e-07
3.09841e-06
-0.0131923
0.0167257
-0.00353346
0.000128292
-6.41312e-05
0.00385058
0.00287656
-0.000250136
0.00029216
0.00043326
-0.000725421
-0.00180236
0.000698929
0.00587956
-0.00157619
0.00267107
-0.00243626
-0.000234803
-0.00856778
-0.000101951
0.0086697
-0.00111701
-0.00281776
-0.000482048
0.000935729
4.67691e-05
2.05806e-06
-4.88271e-05
-0.00543479
0.00418055
-2.9396e-05
3.01737e-05
-0.000545592
0.000797417
-0.000251825
-2.30049e-05
2.63589e-06
2.0369e-05
-2.23758e-05
6.14467e-05
-3.90716e-05
0.000804481
0.00311859
0.000285667
-0.000371542
-0.0461383
0.00502997
0.00121284
-0.00978063
0.00124233
-0.00221911
0.000976782
-2.84046e-05
-7.31301e-05
0.000961863
0.000764024
0.00297839
-0.00095728
-0.00202111
0.000224278
-0.000121892
3.59196e-05
-0.000896196
-0.0324488
-0.0207181
0.0531669
-0.00118128
0.000534717
0.000646564
0.00445472
0.00018076
-0.00463548
-0.00143978
0.00233391
-0.000894161
-0.000941158
-0.00100941
0.0100948
-0.0154018
-8.87924e-05
-0.000361922
9.54202e-05
-0.000236907
0.00029605
-0.00166618
0.00137013
0.00136441
-0.000350559
-0.00101385
-2.80604e-05
2.22504e-05
-0.000280124
-0.000490424
-0.00473712
0.00418497
0.000552156
0.00784552
-0.00794748
0.00311742
-6.37158e-05
-0.0030537
1.52427e-05
-3.01196e-06
5.41555e-05
-1.5933e-05
-3.82224e-05
-0.000180023
1.00539e-05
4.26023e-05
1.15533e-05
-0.000177989
9.28981e-05
8.50906e-05
0.000502164
-0.000782287
0.00130228
-2.26668e-05
4.14753e-06
1.85198e-05
2.48701e-05
-6.22349e-06
-1.86464e-05
-6.96359e-05
-0.000156
-0.000769887
0.0038873
0.000167011
-0.000165924
0.000662702
0.000813855
-0.000783903
0.00345745
-0.00267355
-0.021489
0.0192976
0.00219144
0.00114946
0.000752002
-0.00190147
-8.51947e-05
6.02147e-05
2.49795e-05
-0.00689004
-0.014599
-0.000337308
-0.00046388
-5.4138e-05
0.000784495
-0.000730356
1.0151e-05
-9.42304e-06
-7.28017e-07
-1.59094e-06
-3.30731e-07
1.92192e-06
-0.00045143
-0.000131981
0.00297733
-0.00252685
-0.000255119
0.000109115
0.00944727
-0.00409677
-0.00535042
-0.000142493
-4.03445e-05
2.96805e-05
0.00101258
-0.00505322
0.00404062
-0.000837145
-0.000411966
0.00124911
0.00337682
-0.00435981
0.000982986
0.000919456
-0.00180737
0.000887914
-2.80981e-05
3.38389e-05
-5.74076e-06
0.00170402
-0.000461687
-2.9116e-05
0.00446778
-1.30606e-05
0.0226499
-0.0232131
0.000563209
0.000901365
-0.00216355
0.000286226
-5.60412e-07
0.0100273
-0.00881444
-1.00025e-05
1.42458e-05
-4.2431e-06
-4.28314e-05
3.26886e-05
1.01429e-05
-0.000715278
-0.00123817
0.00195344
-0.00160265
0.00058896
0.00101368
0.00225867
-0.000382032
-0.00187664
0.000856945
-0.000560626
-0.000296321
-2.41046e-05
8.34305e-05
-5.93257e-05
-0.0645472
0.0634089
0.00113825
1.56156e-05
0.000195972
-0.000211587
-0.000917026
-0.000885334
-0.00251639
0.00173376
0.000782619
-0.00202156
0.00130628
0.00290995
-0.00212879
-0.000781152
-0.00141322
0.00020055
0.00121267
0.000683923
0.000154666
-0.000838586
0.000542303
0.00171637
-0.00160759
-0.000611521
-0.000116148
0.000222763
-4.7113e-06
1.14897e-05
-6.77839e-06
-0.0153056
0.00614368
0.000797961
0.000906055
0.000397712
-0.00123486
-0.00291945
-0.00403456
-0.00011484
0.000121205
-6.36574e-06
-0.000720775
0.000346642
0.000374133
0.000127724
-0.00134094
0.00121321
-1.07567e-05
6.04554e-06
-3.78171e-05
4.09905e-05
-0.000419983
-0.000300791
-0.000371091
0.000843101
-0.00047201
-0.00606843
0.000290176
0.00577826
-0.00010772
0.000610395
0.000767913
-0.000845938
-2.61391e-05
6.22689e-05
-3.61306e-05
5.50388e-05
-6.27669e-05
0.000476953
0.000379992
0.000469484
-0.00162669
0.00115721
0.00120649
-0.00140612
0.000199627
0.00168636
0.00122359
-0.000378266
0.00299932
-0.00262105
0.000219435
0.00114497
-0.00117918
0.00112964
5.25017e-05
7.57909e-05
0.000676936
-7.0505e-05
-0.000606431
0.00164673
-0.000924953
-5.59306e-06
-6.60352e-05
7.16271e-05
-0.00783003
-0.00660784
0.00435756
-0.00302366
-0.0013339
-0.00350758
0.00606904
-0.00256145
-0.00109473
0.000420382
0.000674349
-0.00128549
-0.000723412
-0.00054393
-0.000210497
0.000754427
2.29532e-05
-1.38466e-05
-9.10666e-06
5.26056e-06
0.000268517
-0.000273779
0.000167788
-7.76419e-07
-0.00106314
0.000580704
0.000482444
-0.00768144
-0.00013133
0.00781277
-0.000497844
0.000287707
0.000210137
0.00117161
-0.000852813
-0.000318801
0.00451954
-0.000613197
-0.00122096
-0.00313884
-0.000942179
1.51389e-05
0.000927041
-0.000915114
0.00206458
-5.51958e-05
4.39828e-05
1.12128e-05
-1.78326e-05
-5.17234e-06
0.0189265
-0.0145941
-0.00433241
0.000154722
-5.32681e-05
-0.000101455
-8.12976e-06
-4.70662e-05
1.39304e-05
-1.03501e-05
-3.58017e-06
-2.40652e-06
8.15536e-07
-0.000497432
-0.00242995
0.00292738
-1.21904e-05
-2.63559e-06
1.4826e-05
-0.00653654
0.000468105
0.000237915
0.01741
-0.0176479
-7.29672e-05
5.28784e-05
2.00887e-05
1.38459e-06
-2.70279e-05
2.56434e-05
-5.52068e-05
7.54209e-05
2.55768e-05
-4.14507e-05
1.58739e-05
1.89181e-05
-1.96978e-07
-1.87209e-05
0.000269138
2.11416e-05
3.72864e-06
-0.00176779
-0.000748611
-0.000121054
-0.000323869
0.000444923
-0.000281213
0.000807316
-0.000526105
-0.000504347
0.00077342
0.000398196
-0.000371024
0.000911942
-0.000540917
-0.000845557
0.000775052
0.0195169
-0.0187501
0.000633519
0.00235158
-0.00199116
0.00318918
3.15784e-05
-3.01185e-05
3.56606e-05
-2.51549e-05
3.01256e-05
-5.00677e-05
1.99423e-05
-0.00059825
0.000703286
-0.000105035
0.000315308
-0.000436362
-5.38572e-05
-3.92859e-05
-0.0001649
-0.00117604
0.00539087
-0.00468794
0.00257397
0.00211397
0.00371507
0.0158018
-0.000232004
-0.000128948
0.000360953
-0.00042329
-0.00117935
-0.000776489
-8.36263e-05
4.8662e-05
3.49644e-05
0.00350935
-0.00648082
0.00297148
-7.4789e-06
6.25176e-05
-0.00561991
0.00358717
0.00203274
-3.08893e-05
7.62158e-05
-4.53257e-05
-5.41304e-05
-1.22004e-05
6.63308e-05
-0.00102956
-0.00208761
-0.000130917
5.63463e-05
-0.000417229
0.00141532
-0.00099809
0.000103023
-0.0001202
1.71772e-05
-0.00211056
-0.000213491
0.000218751
-0.000117661
0.000138367
-0.00536022
0.00352365
0.00183656
-0.00183541
0.00131279
0.00052262
2.60667e-05
6.22246e-06
0.0202839
-0.0107936
-0.00949035
0.00456163
-0.00354905
0.000140167
-0.000213932
7.37653e-05
0.000224424
-0.012661
-0.00906581
3.31744e-05
-3.55458e-05
2.37146e-06
-0.0133237
-0.00600755
0.0193313
0.00175911
-0.00225654
-0.00014122
-0.00103796
0.000104114
0.00126105
-0.00136516
0.000278767
-0.00121691
0.000938144
-0.0566499
-0.00789727
0.00527312
0.0129289
-0.00158121
0.000271601
0.00130961
5.97124e-05
-5.5123e-05
-4.58937e-06
0.00405891
-4.16886e-05
-0.00401723
-1.38217e-05
1.57685e-05
-1.94687e-06
0.000162858
-2.26917e-05
-0.000280496
-0.000814237
-7.04311e-06
-4.85027e-05
5.55452e-05
-0.00148054
-0.000354873
3.35752e-05
3.48465e-05
-6.84225e-05
0.000141465
-0.000106621
-1.47041e-05
8.81976e-07
-1.88256e-05
-5.18178e-05
7.06434e-05
2.36968e-05
-0.0006393
-0.000423837
0.00184596
-0.00214497
0.000299018
3.64835e-05
-3.30923e-06
0.000844642
-0.000213736
0.00014775
-0.000163982
-0.000105797
0.00131229
0.00749746
-0.00243637
-0.00506108
-0.00106074
0.000423879
0.000636858
0.0011718
0.00288712
-0.000711805
-0.000348932
-0.00312483
-0.000747226
0.00387205
8.47594e-05
5.46793e-06
-0.000471521
0.000281293
0.000190227
0.00520932
1.6542e-05
-0.00522586
-0.00425744
-0.00222338
0.0179902
-0.0177523
-2.05632e-05
5.06889e-05
-0.00265717
-0.00203077
0.00248006
-0.0158037
-0.0252245
0.0114984
0.0137261
-2.39235e-05
-5.91184e-05
8.30419e-05
-3.29471e-05
1.89018e-05
1.40455e-05
-0.00390826
0.0011481
0.00276015
0.000217565
3.19708e-05
-0.000249535
-0.00679797
-0.0142665
-4.30721e-06
-6.79981e-05
7.23053e-05
0.0213555
-0.00657381
-0.000661307
0.000337439
-0.0252506
0.00404201
-2.68328e-05
1.11599e-05
1.56722e-05
-0.011482
-0.0137425
-0.000102625
6.55131e-05
3.71118e-05
0.000181501
-0.000493078
0.000311578
-0.0157868
-0.00946373
-1.18391e-05
-7.24031e-06
-0.00688853
0.00338095
0.014937
0.000634621
-0.00856543
0.0079308
-6.01658e-05
-4.2459e-05
-5.05102e-05
5.14493e-05
-9.39223e-07
0.000277936
-0.000633922
0.000355987
0.00977937
-0.0129015
0.00312214
-1.91629e-05
-1.3784e-05
0.00311325
0.00947642
4.35488e-05
7.05044e-05
-0.000114054
-1.7816e-05
0.000165566
1.95718e-05
1.48407e-06
-0.025259
0.00775259
-0.000383372
0.000130857
0.000159068
-0.000289924
-9.86901e-06
8.55859e-05
-7.57183e-05
4.72117e-05
9.25623e-06
-5.64682e-05
7.86612e-06
4.3806e-06
-1.22468e-05
-0.0233213
0.0135913
0.00973
-8.99761e-05
6.37121e-05
2.62641e-05
-3.85677e-05
-0.000525629
0.000564197
5.3216e-05
-4.10668e-05
-1.21487e-05
-0.00134895
0.000703655
-0.00115279
0.000580544
0.000572246
0.0148761
-0.0278675
0.0129914
5.01431e-06
-6.18864e-05
5.68725e-05
-0.00298737
0.00499501
-0.00200765
0.006717
0.000780464
0.0255357
-0.0106596
0.000140296
-2.20675e-05
-0.000118229
0.000775793
-0.00221557
0.000434115
-0.000252613
0.000793454
-0.000732409
1.88093e-05
-2.26747e-05
3.86716e-06
-3.09743e-05
5.52017e-05
-2.42276e-05
-2.07847e-05
-6.41229e-05
3.90969e-05
-0.00162457
0.00172869
-5.99661e-05
6.49805e-05
-0.00404676
0.00543047
-0.00138371
0.00271865
0.00186201
-0.00458066
0.000795336
8.77885e-05
-9.37665e-05
5.9779e-06
-0.0148732
-0.00844815
-0.0218202
0.0036727
0.0181474
0.000187607
-0.000171991
3.87185e-05
-1.31417e-05
0.000122539
1.77568e-05
9.87095e-05
5.76091e-05
0.000111986
0.000252754
-0.000364739
-0.0182922
0.0121361
-0.0166676
0.0216953
-0.00502771
9.02866e-05
0.000354156
-0.000444444
0.00246358
-0.000822018
-0.00164156
0.00247409
-0.000787734
8.58187e-05
1.55518e-05
-0.000101371
-0.00438548
-0.000443301
0.00482877
0.000119989
0.000647924
-0.00863923
0.00435442
0.0042848
-0.00125027
0.000610977
0.0132874
-0.0100257
-0.00326166
-2.04444e-05
-3.94449e-05
5.98889e-05
0.00233928
-0.0249131
0.0225738
3.37608e-05
1.25784e-05
-4.63392e-05
0.0108692
-0.043318
-0.00304171
-0.00557975
0.00862146
6.37174e-05
-8.7641e-05
0.0256317
-0.0232924
0.000253079
-0.000329134
7.60556e-05
0.000461056
-0.000568776
0.00293782
-0.00216202
-4.98301e-05
9.33787e-05
-0.000513202
-0.000400379
0.00091358
8.18623e-06
-6.8817e-05
6.06312e-05
-0.00231803
0.00171109
-0.00610357
0.00326927
0.00283426
0.000778921
0.000477325
-0.00125625
0.000507326
0.000559938
-0.00106727
0.00104865
0.000985464
-0.00203412
-0.000366522
-0.00136922
0.000225658
0.00114356
-1.06674e-07
1.9537e-05
-1.94302e-05
-0.000719327
0.00149825
-0.000522297
0.000408747
0.000113551
-0.000117453
0.00874433
-0.00862688
0.00217868
-0.00107777
0.00127832
5.62501e-05
-2.86587e-05
-0.0233683
0.0145386
0.00882976
0.000536413
-4.0905e-06
-1.47603e-05
6.19721e-05
-7.9978e-06
9.8435e-06
-1.84557e-06
-0.000557631
0.0102762
0.000280756
-0.00466624
-0.0010594
0.00167094
-0.000611541
-0.00238824
-0.00176503
0.00415327
-9.82139e-06
1.82358e-06
0.00010353
-0.000152874
4.93441e-05
1.73738e-05
-1.74805e-05
-0.00151503
-0.000345736
0.00186077
-0.000611263
0.000572695
-3.54345e-05
2.17896e-05
1.36447e-05
-4.80173e-05
-3.56087e-05
-0.00231754
0.000837002
-0.000679516
-0.000444451
0.00112397
-1.02839e-06
4.77976e-05
0.000429926
0.000330149
-0.000760075
2.80826e-05
-0.000392031
0.000363947
0.000918351
0.000589401
4.98288e-05
-1.83327e-05
-3.14962e-05
-0.00017721
-0.000294311
0.00194883
2.11735e-05
-2.25504e-06
-0.00781488
0.0084495
-0.000577351
0.00108468
3.56622e-05
-2.58874e-05
-9.77499e-06
-0.000335461
-0.000267218
0.000602677
-1.07623e-05
-1.60709e-05
-0.000240612
0.00043232
-0.000191709
-0.0141182
0.0126166
0.00150163
3.97315e-05
-7.8329e-05
3.85971e-05
0.00142018
0.000794026
-0.00221421
-0.00115085
0.00636016
0.0110351
-0.00127075
-0.00976433
0.0130947
-0.0175382
0.00444351
0.000807854
-0.000873598
6.57451e-05
5.22946e-06
-5.93598e-05
-0.0195651
0.00128402
0.018281
-1.49728e-05
2.76421e-06
1.22087e-05
-0.000505217
0.000264602
0.00019346
-0.00127123
2.63914e-05
9.27067e-06
6.97018e-05
2.3707e-05
-9.34098e-05
-0.00050295
0.00121087
-0.000707929
-0.000411028
-0.000111269
-0.0049312
0.00521195
-3.00757e-06
3.07995e-06
-7.24696e-08
0.0183584
0.000568091
0.00248682
-0.00158545
-0.000934751
-0.00123416
0.00216891
-3.50083e-06
6.97118e-06
-3.47034e-06
0.000137545
-0.000190143
5.25981e-05
0.00350657
0.00127979
-0.00478637
-0.000649036
0.00206922
0.0010614
-0.000782633
0.00279331
0.000184025
6.22341e-05
-0.000273578
0.000211344
0.000329703
-6.20156e-05
-0.00102353
0.00332363
0.000182944
-6.18365e-06
-5.201e-06
1.13845e-05
-0.000784826
-0.000465444
-9.69805e-05
0.00105869
-0.000961711
0.00780122
0.0135543
0.00745151
-0.000995423
-0.00645608
5.13981e-05
-4.7868e-05
-3.53054e-06
-0.000547807
-5.04433e-05
5.92007e-05
-5.32017e-05
-5.99898e-06
4.78053e-05
7.71752e-05
-0.00012498
-0.000868227
0.00134555
0.000542072
-0.00160147
0.000189572
-0.000560662
5.10896e-05
-3.43561e-05
3.86733e-05
1.27248e-05
-5.25988e-05
4.37392e-05
-0.0185631
0.00132379
-0.000756596
0.00820811
-0.000424611
-0.00149092
0.000504439
-0.000920841
0.000371345
-0.00099461
-0.000496308
0.000654601
9.01338e-05
-2.34518e-06
0.000974987
-0.00107197
-0.00174479
-0.000572747
-0.000174715
-9.56019e-05
-0.00150792
0.00160352
0.00010034
-1.02058e-05
0.000363359
6.93576e-05
9.97145e-06
-0.0142596
0.00106729
-0.0126455
-0.0091748
0.000816215
-0.00175097
-0.00061002
0.00123832
-0.000628301
0.00333602
-0.00491836
0.00158234
5.77196e-05
-4.42242e-05
1.99531e-05
0.00052692
0.000771972
-0.0012989
-0.000212569
0.000136854
3.44856e-05
-4.73548e-05
1.28692e-05
-0.0118804
0.00818516
0.00369529
0.00655128
0.00290548
-0.0094568
0.00207854
-0.000181681
-0.00189685
-0.000763092
-0.00288843
0.00365151
-0.0169666
-0.00121786
0.0181845
0.0190207
-0.0153057
0.000263428
0.00181511
-0.0096051
-0.00227534
-7.01213e-05
5.49394e-06
6.46256e-05
-8.15751e-05
0.000134077
0.000781076
-6.40315e-06
-1.15504e-05
1.79535e-05
-0.00352057
-0.00258301
-9.65603e-05
-0.000467145
0.000563708
0.000436341
-0.00102383
0.000587492
4.27521e-05
-5.43251e-05
1.64802e-06
2.27429e-05
-2.43909e-05
-0.0206831
0.0142439
0.00643917
-2.77633e-05
0.000165307
-0.000852159
0.00166837
-0.000368973
0.000272413
0.000886154
0.000296839
-0.00118299
5.2979e-05
-5.47735e-05
1.79396e-06
-0.00118389
0.00645831
-2.19666e-05
2.36146e-05
4.33907e-05
-5.4547e-05
1.11561e-05
0.000507649
-0.00721802
-0.000463411
0.0105228
-0.00268905
-0.00783375
0.000271834
0.000349691
-0.000621525
-0.000552083
0.000899508
0.000854551
-0.000170628
0.00073701
-0.000307084
-0.000119547
5.93809e-05
-0.003349
0.0226415
0.000982293
-0.000683218
-0.000299076
0.00550894
-0.0254372
0.0199283
0.00291011
0.0161106
-0.00121879
-0.0012514
0.000834169
-5.98865e-05
6.84787e-05
-8.59182e-06
7.13603e-05
-0.0123975
0.00391251
0.00848505
-1.76476e-05
-5.53194e-05
0.00056112
0.000350821
-0.00191094
0.00103835
0.000872587
0.0259879
0.0525684
-0.0785563
0.000275007
-0.00182901
-0.00152696
0.000366366
0.00116059
5.50351e-05
-1.22832e-05
-5.48114e-06
-4.28205e-06
0.000710587
2.66078e-05
-4.24602e-05
1.58525e-05
0.00040967
0.000660354
-0.00107002
0.000244047
2.27994e-05
-8.88944e-06
5.63618e-05
-4.74726e-05
-3.46764e-05
-7.94823e-06
4.26232e-05
-0.0151829
-0.00297982
0.0181627
0.000297254
-0.000849336
-0.000292776
0.00134143
0.00111588
0.00106348
6.42099e-05
-3.06353e-05
-0.000112977
-1.86305e-06
-0.000216814
0.0003288
-1.77177e-05
-2.38745e-05
4.15918e-05
0.0134552
-0.00578293
-0.00767228
0.000154024
-0.000708173
0.000554155
0.000600852
4.98052e-05
0.000478106
-0.000527913
-0.00755231
0.00636256
-0.000976156
-0.000605052
0.00013481
-1.58246e-05
-0.000118985
-0.000576634
0.000683505
0.00974599
0.00370922
0.000414169
0.00343513
-0.00384932
1.51706e-05
-4.983e-05
3.46594e-05
-0.000874513
0.00139868
-0.000524169
-0.000231735
0.000244414
-1.26781e-05
1.48538e-05
4.33594e-05
-5.82132e-05
0.025675
-0.0253151
-0.000116567
0.000577622
-8.9188e-05
-1.68377e-05
0.0241501
-0.00150023
8.37714e-06
1.4576e-05
-0.00491466
-3.18324e-05
-0.000199904
0.0010246
-0.00193972
-0.000623063
4.75563e-06
0.000618308
5.39944e-05
-3.91407e-05
4.36581e-05
-3.21243e-05
-1.15338e-05
-0.000374948
0.0012611
0.00909473
-0.00921218
-0.00914449
0.031544
7.42395e-05
0.000150038
-0.000220088
0.000226354
-6.26617e-06
5.19528e-05
1.02612e-06
1.06034e-05
-2.73737e-06
0.000640972
-0.000369139
0.000281343
-0.000105229
-0.000138485
0.000243714
-0.000509868
-0.00102747
0.00699055
0.00353227
0.000435585
0.000546709
0.00110756
-0.00120316
4.75589e-05
-4.03249e-05
-7.23386e-06
-3.25757e-05
-3.93214e-05
7.18982e-05
-0.0103507
0.00625401
-3.66037e-05
7.63347e-05
8.54798e-05
-2.42435e-05
-6.12365e-05
0.00049604
-0.000777254
0.0776579
-0.0254862
0.00135488
-0.000302776
-0.00105211
0.00124784
-0.0316432
0.0303953
8.70096e-05
-0.000104405
1.73953e-05
-0.000254596
-0.000261969
0.000516563
0.00058203
-0.00143419
-0.00190458
0.00181658
8.80028e-05
3.75075e-05
-0.000572356
9.784e-06
-4.4461e-05
1.09325e-05
1.43347e-05
-2.52672e-05
0.000367077
0.000193521
5.23146e-05
-7.55676e-05
2.32531e-05
-2.59671e-05
0.0223915
-0.0233613
0.000969878
-9.14644e-05
7.50514e-05
1.6413e-05
5.28145e-05
-1.40125e-05
-3.88022e-05
-0.000601691
0.00120667
-0.000604986
4.3925e-05
-0.00419472
-0.00444454
4.41983e-05
-1.75904e-05
1.1018e-05
9.05419e-06
-2.00724e-05
-4.46948e-05
0.000162468
-0.000117773
6.54036e-05
-0.000199455
0.000134052
0.00132618
-0.00104834
-0.000277844
-0.00124203
0.00011783
0.0011242
0.0218878
-0.00223888
-0.0196489
-0.000446176
0.000495981
-6.50944e-06
-1.80409e-05
2.45503e-05
5.34832e-05
2.87851e-06
0.00203251
-0.00241455
5.29363e-05
-3.67322e-06
-8.81133e-06
5.2202e-05
0.03269
-0.0287861
-0.00390386
-0.000463745
-0.000457095
-0.000477319
-0.000299172
-5.31383e-06
-7.05548e-05
7.58687e-05
0.002533
0.0107544
-3.22886e-05
9.21351e-05
-5.98463e-05
2.21777e-05
-0.000542427
0.00257494
-0.000996551
0.00202115
0.00587246
-0.0110647
0.00519228
0.00270062
-0.00533863
0.00263805
0.000169747
2.93508e-05
-0.000199098
0.000530589
-0.000121842
0.0022681
-0.000508992
0.000405595
3.92352e-05
-0.000102779
6.35434e-05
-0.000969692
0.00180284
-7.40325e-05
0.00395582
-0.0163534
-4.26434e-05
-7.86681e-06
-0.000312075
0.000548641
-0.000236565
-5.84487e-05
-0.000254987
0.000313436
0.000635756
-4.90214e-05
-0.0124529
0.0146913
-0.00223834
0.00311479
-0.000362562
0.00113453
0.00576864
0.00181577
0.00028466
-4.06126e-05
0.0112445
-0.0126747
0.00143018
2.31714e-06
-1.60609e-05
1.37457e-05
0.0115043
0.00685402
0.0221361
-0.0166271
-0.00021717
-0.000114719
0.000331889
-1.31079e-05