/*--------------------------------*- C++ -*----------------------------------*\
| =========                 |                                                 |
| \\      /  F ield         | OpenFOAM: The Open Source CFD Toolbox           |
|  \\    /   O peration     | Version:  v2012                                 |
|   \\  /    A nd           | Website:  www.openfoam.com                      |
|    \\/     M anipulation  |                                                 |
\*---------------------------------------------------------------------------*/
FoamFile
{
    version     2.0;
    format      ascii;
    class       volScalarField;
    location    "100";
    object      k_0;
}
// * * * * * * * * * * * * * * * * * * * * * * * * * * * * * * * * * * * * * //

dimensions      [0 2 -2 0 0 0 0];


internalField   nonuniform List<scalar> 
54593
(
0.000238605
0.000320857
0.000258794
0.000199641
0.000198554
0.000236457
0.000138614
0.000211402
0.000201175
0.000161473
0.000147293
0.000258587
0.000146102
0.000139526
0.000224477
0.000134091
0.0334473
0.00014243
0.000134227
0.00025502
0.000150477
0.000151733
0.000227749
0.000145851
0.000137782
0.000163199
0.00704988
0.000198393
0.000217565
0.000141921
0.000233284
0.000269515
0.000132641
0.0364341
0.000134079
0.000145496
0.000163083
0.00618663
0.000562989
0.00177264
0.0361849
0.000154852
0.000143375
0.000143055
0.000137914
0.000152779
0.000139005
0.00652066
0.00689269
0.000151898
0.000137847
0.000142691
0.000148653
0.000158566
0.000162701
0.000148199
0.000210889
0.000148519
0.000242666
0.000142081
0.000724966
0.000147755
0.000151458
0.000147632
0.0329242
0.00129798
0.000142778
0.0334796
0.000142553
0.000138717
0.0336159
0.000140542
0.000158575
0.000132678
0.000133308
0.000139104
0.00520892
0.000150004
0.0362776
0.000164291
0.000145781
0.000147349
0.0335636
0.0327726
0.000141541
0.000142357
0.000254319
0.000150628
0.000142584
0.000221218
0.000138635
0.000145484
0.0330755
0.00014734
0.00909638
0.00016487
0.000161047
0.000150469
0.000143239
0.000133708
0.00555398
0.0171219
0.000147781
0.00024732
0.000274081
0.000265587
0.000140426
0.000181252
0.000132761
0.000143155
0.000139443
0.000149952
0.0310783
0.000172732
0.00599097
0.000142938
0.000142366
0.000152545
0.00025934
0.00541222
0.000145627
0.000242063
0.000162901
0.000204383
0.000153672
0.0339109
0.000142388
0.000175666
0.0337103
0.000145184
0.000150763
0.000155339
0.000138089
0.000168636
0.000143144
0.000134162
0.000167015
0.00030535
0.000153475
0.00812199
0.000142939
0.000141208
0.000142793
0.0350529
0.000141476
0.000167958
0.000162812
0.000160484
0.000143107
0.0336117
0.000141463
0.000277714
0.000146401
0.000141907
0.000154306
0.000251544
0.000220048
0.00588416
0.000259255
0.000150238
0.000214089
0.000192214
0.0324278
0.00013712
0.000256517
0.000149648
0.000152344
0.000138329
0.000144084
0.000139641
0.0249703
0.000158737
0.000141553
0.00017767
0.000150605
0.000142782
0.000190188
0.000168071
0.03477
0.000137167
0.000133778
0.000150287
0.0339811
0.000185777
0.000268959
0.000146797
0.00323555
0.000145219
0.0001615
0.000146093
0.00556933
0.000247379
0.000155147
0.00484004
0.000234274
0.00014842
0.000152175
0.000157833
0.000232932
0.000150236
0.030612
0.00019425
0.000161836
0.000175467
0.0212521
0.000153977
0.000137313
0.000176195
0.000159182
0.00207421
0.000142699
0.000262561
0.000175125
0.000289981
0.000156674
0.000165813
0.000156635
0.000268304
0.000132606
0.000156293
0.000137276
0.0249312
0.000140408
0.00042101
0.00504292
0.000236089
0.000154956
0.0284737
0.000191187
0.0337932
0.00053892
0.00013276
0.000157368
0.000150249
0.000161761
0.000144031
0.000153827
0.00508128
0.00023264
0.000154372
0.00013254
0.000152434
0.000141307
0.000132582
0.000162599
0.000140769
0.0184365
0.00843161
0.000142758
0.000138079
0.000238703
0.00014636
0.000180787
0.000142769
0.00616586
0.00013964
0.00343152
0.029641
0.000236605
0.0001406
0.000144847
0.000132214
0.000198624
0.000423893
0.000247985
0.000201697
0.000132581
0.000164323
0.000148253
0.000145722
0.000803097
0.00897577
0.000140302
0.000239904
0.000235169
0.0023863
0.000146435
0.000142667
0.000181594
0.000145479
0.000140694
0.000143036
0.000142833
0.00017412
0.0306061
0.000265832
0.000174547
0.000162372
0.00023313
0.000146575
0.000142265
0.00701526
0.000197814
0.0328575
0.000190294
0.000144612
0.000201403
0.000142242
0.000161922
0.00179485
0.00019187
0.000191808
0.000279087
0.000294204
0.000200497
0.000231892
0.017074
0.026306
0.0185382
0.0325239
0.000148697
0.000262451
0.000163888
0.0358237
0.000259161
0.00019246
0.0302509
0.000166058
0.00020201
0.000145021
0.0338567
0.000188623
0.000141391
0.000196507
0.000140714
0.00477604
0.000157491
0.000278296
0.000135286
0.000294514
0.000237084
0.000133698
0.00185743
0.000226943
0.00016463
0.000143117
0.000149988
0.00105852
0.000167172
0.000145111
0.000191121
0.0112895
0.0341154
0.000145108
0.000137048
0.0314448
0.000144849
0.00038662
0.000175688
0.000153423
0.00286904
0.000146902
0.000377172
0.000150071
0.000189281
0.000201552
0.000160412
0.0176904
0.00019274
0.000171755
0.0015927
0.000277226
0.0265277
0.000135958
0.000842143
0.000188095
0.000153857
0.000134755
0.000141878
0.00020046
0.000152295
0.00766421
0.00205573
0.000164082
0.000157331
0.000191037
0.000204672
0.000160755
0.000256283
0.0109879
0.000184775
0.000209599
0.0258792
0.000192543
0.000321185
0.000175581
0.00017623
0.000189968
0.000185173
0.000142104
0.000161468
0.000185156
0.00175305
0.000179363
0.000138206
0.000147426
0.000163411
0.00014741
0.000141175
0.000160958
0.000328273
0.000136364
0.000135371
0.000167514
0.000179665
0.000168082
0.000201751
0.000185471
0.00349007
0.000172265
0.000144492
0.0033027
0.0384535
0.000153121
0.000131994
0.000147849
0.0316867
0.019317
0.000190994
0.000149571
0.0260664
0.000141966
0.00014562
0.0207182
0.000163708
0.000204693
0.000292467
0.000128278
0.000159574
0.000144607
0.000210078
0.00480341
0.0167662
0.000152196
0.00192245
0.000133733
0.000152251
0.000215432
0.000732838
0.000179206
0.000217627
0.000152395
0.00831417
0.000161998
0.0161039
0.000169545
0.000213348
0.000171753
0.000285123
0.0326556
0.000172796
0.000164387
0.000175458
0.000132272
0.000243544
0.000159254
0.000163695
0.00181109
0.000151575
0.000145787
0.00028409
0.000132274
0.000154142
0.000147759
0.000169443
0.000347301
0.000181273
0.0348607
0.000142259
0.000142607
0.000219234
0.000180866
0.000259813
0.000171739
0.000192211
0.00018491
0.00025425
0.000150109
0.000185539
0.000198373
0.000143799
0.00309119
0.000202225
0.000199881
0.0301241
0.0002821
0.00020728
0.000162373
0.000127867
0.000142242
0.000167763
0.0283897
0.000243165
0.000158161
0.0409422
0.0241662
0.000212214
0.000162935
0.000172666
0.000141262
0.000134405
0.000379454
0.000147784
0.000141287
0.000131845
0.000147532
0.000184886
0.000133181
0.000332415
0.000879333
0.000147011
0.000156107
0.000146264
0.000139929
0.000136598
0.00015254
0.000135594
0.000169465
0.000211548
0.000183529
0.000185057
0.0410072
0.0335648
0.000185591
0.000307129
0.000198071
0.000231912
0.000142768
0.000145179
0.000141008
0.000152411
0.00021094
0.000144722
0.000281128
0.0271462
0.000193557
0.000292758
0.000169255
0.000539175
0.0369533
0.000151271
0.000205853
0.000142584
0.000197607
0.000148106
0.000142239
0.000202717
0.000150634
0.000177669
0.000157484
0.000196672
0.000142284
0.00015681
0.000211249
0.00017019
0.000153424
0.0262034
0.0219929
0.000157028
0.000174088
0.00705037
0.00013704
0.000371601
0.000175458
0.000252423
0.000170674
0.0274692
0.00792324
0.000270373
0.00016799
0.000135403
0.000231588
0.000137287
0.000157044
0.0292131
0.000147469
0.00016983
0.000149052
0.000174578
0.000137304
0.000145862
0.000141448
0.0274688
0.000237276
0.000137068
0.033047
0.000154255
0.000258696
0.000336747
0.000157636
0.000230972
0.000163445
0.000182571
0.00019293
0.000201189
0.000218439
0.000206516
0.000667316
0.000140958
0.000189404
0.000378394
0.00341054
0.000150625
0.000135527
0.0339442
0.000148363
0.000419434
0.00014921
0.000450027
0.000211155
0.0339065
0.000142044
0.00356806
0.000153703
0.000161951
0.0335682
0.000133629
0.000198163
0.00362303
0.0192663
0.000153698
0.000152641
0.00021095
0.000812501
0.000135544
0.000366413
0.000157145
0.000154242
0.000138798
0.0364022
0.000210823
0.000153284
0.000148133
0.000143017
0.000150096
0.000562787
0.000154975
0.000168007
0.000143482
0.000238138
0.0306751
0.0059126
0.000152852
0.000202975
0.000344532
0.00585109
0.000157371
0.0264777
0.000161558
0.000234374
0.0297761
0.000144951
0.000141017
0.0001479
0.000143227
0.000171027
0.000153061
0.000190519
0.00263831
0.000237783
0.000156336
0.000507977
0.0087401
0.000161714
0.000140039
0.000157377
0.000154142
0.000158729
0.000234605
0.000464146
0.000211107
0.000213922
0.000170374
0.000180807
0.000211107
0.0351513
0.0318476
0.0285532
0.000730279
0.000189756
0.0047203
0.00013917
0.0118221
0.00178143
0.000150496
0.00495546
0.000163152
0.000181369
0.0263879
0.000156861
0.000161517
0.00014207
0.000198513
0.0330888
0.0001866
0.038858
0.000241788
0.000210528
0.000184758
0.000135404
0.000186721
0.00015782
0.00258649
0.00017307
0.000288005
0.000141229
0.000360246
0.0199962
0.000142917
0.000132055
0.0172873
0.000212822
0.00016827
0.000539698
0.000132057
0.000158226
0.000135369
0.00018215
0.000168085
0.000143468
0.000151408
0.000170964
0.0413131
0.000136165
0.000195074
0.000196203
0.000209229
0.000134151
0.000200398
0.00020366
0.000136666
0.0187424
0.0384485
0.000138991
0.0001759
0.000142076
0.000148679
0.00110715
0.000151533
0.000212774
0.00021823
0.00149407
0.00256737
0.0301542
0.000142181
0.0172031
0.000132832
0.000148369
0.000282438
0.000138976
0.000149825
0.0183684
0.000157702
0.000214216
0.000147155
0.000382478
0.017784
0.000172896
0.00014611
0.00016159
0.000299662
0.000203317
0.0257789
0.000186613
0.000162244
0.000163159
0.00265253
0.000293587
0.000147118
0.027925
0.000165184
0.000453135
0.00202963
0.000141313
0.00015245
0.000161004
0.000150756
0.000185841
0.00016855
0.000169306
0.000145478
0.000141286
0.000149744
0.00274231
0.000708406
0.000190905
0.000221372
0.000198668
0.000220248
0.000167739
0.000156639
0.000166228
0.000170764
0.000141445
0.000164126
0.000156682
0.000188158
0.000149253
0.000338749
0.00319484
0.00016669
0.0193579
0.000188547
0.00014578
0.000189334
0.000423563
0.000164835
0.000131902
0.00412426
0.0242245
0.000233407
0.000203629
0.000305197
0.000324542
0.000224645
0.00438704
0.000147998
0.000149928
0.0196581
0.000130205
0.0329457
0.00015046
0.0374411
0.000142271
0.000131487
0.00516255
0.000161287
0.000165731
0.000148805
0.000166397
0.000141182
0.000204954
0.000131431
0.000142027
0.0329714
0.000240831
0.0177597
0.000174967
0.000232266
0.0332622
0.000194261
0.000153496
0.00561457
0.0266793
0.0293503
0.0003074
0.000185801
0.00017768
0.0001359
0.000157988
0.00471326
0.000147167
0.0346327
0.000277257
0.0171168
0.033806
0.000189188
0.000142208
0.000132211
0.0361526
0.000140207
0.000182298
0.000162366
0.000134465
0.000139002
0.000305539
0.000231307
0.00024483
0.000580537
0.000171467
0.000148932
0.000151504
0.000158444
0.000138609
0.00316213
0.0286935
0.0203544
0.000171744
0.0240241
0.000167538
0.000151926
0.000166403
0.00258297
0.0214323
0.000141407
0.000189532
0.000143161
0.000143243
0.00601188
0.000180955
0.000148263
0.00520855
0.000127966
0.000215028
0.000143173
0.000171753
0.000152197
0.000143122
0.000134714
0.000167822
0.00248785
0.0051011
0.000160935
0.000165963
0.000141162
0.000150013
0.000174642
0.000143038
0.000141669
0.000174859
0.0157799
0.0281001
0.000162111
0.000140168
0.000147819
0.0250699
0.000151409
0.000144846
0.00018367
0.00936578
0.000160212
0.00526463
0.000151583
0.0330706
0.000161816
0.0161982
0.0334246
0.000138965
0.000131048
0.000166569
0.000148785
0.000151687
0.00545352
0.000155718
0.000134313
0.0210729
0.000134479
0.0312845
0.00014015
0.000142413
0.000145689
0.000160218
0.00023967
0.000183979
0.000448012
0.000171385
0.000131216
0.00013462
0.000189384
0.000161936
0.000141968
0.0120996
0.000198633
0.035713
0.000152049
0.000605696
0.000153076
0.000142211
0.000187852
0.000172148
0.000255157
0.0237704
0.000154972
0.000157604
0.00017347
0.000211676
0.000152781
0.000225848
0.000146035
0.00469186
0.000151072
0.000151457
0.000166187
0.000165591
0.00033893
0.0220214
0.000509348
0.0314283
0.00016247
0.00218594
0.000138929
0.00041731
0.0303157
0.000154448
0.000151414
0.00017675
0.000130996
0.000148263
0.000130938
0.000166602
0.000153824
0.000143134
0.000140391
0.000131029
0.0237932
0.019234
0.000141703
0.000214034
0.000142078
0.000170139
0.00014695
0.000375351
0.000150976
0.000189444
0.000138781
0.0001703
0.000410832
0.0255183
0.000147967
0.000151884
0.000192263
0.000137083
0.0339049
0.000202205
0.000133423
0.000460245
0.000218156
0.000145591
0.000160922
0.000151614
0.000144146
0.000241731
0.000209021
0.00310423
0.000149993
0.000243049
0.0332425
0.000140528
0.000151212
0.000197712
0.000134714
0.000149316
0.000168038
0.00019036
0.000135597
0.000151287
0.000145389
0.0002895
0.000148686
0.000149893
0.0009084
0.000209524
0.000175162
0.000171234
0.000316346
0.000147334
0.000189713
0.00165062
0.000169716
0.00595382
0.00013323
0.000199897
0.000153502
0.000234257
0.000243399
0.00125822
0.0340189
0.000152611
0.000655925
0.000242501
0.000144902
0.00014235
0.00014074
0.00014807
0.000174694
0.00020186
0.000156986
0.000142298
0.000137074
0.00246552
0.000184426
0.00882161
0.000134318
0.000242701
0.000435127
0.00013339
0.000212843
0.000142753
0.000157492
0.000154998
0.000197113
0.000285194
0.000290593
0.000132369
0.0001447
0.000144609
0.0119229
0.000132431
0.00016758
0.000182047
0.000144661
0.0244584
0.000140232
0.000149939
0.000174026
0.000210796
0.000487331
0.0188922
0.000141885
0.0249024
0.000165959
0.000146686
0.000144218
0.000231771
0.000160561
0.00677093
0.000146478
0.000146432
0.000156989
0.000147078
0.000157301
0.000131993
0.00015277
0.000156955
0.000147742
0.00024022
0.00014446
0.000138456
0.000141907
0.000147793
0.000218986
0.00016485
0.000197773
0.000137255
0.000143301
0.000291752
0.000153236
0.00016234
0.00014037
0.000134691
0.000148131
0.000152895
0.000223055
0.000197739
0.00015122
0.0001398
0.000206886
0.000139942
0.000205605
0.0162593
0.000165171
0.00014923
0.000147119
0.000159508
0.000172461
0.000162287
0.00015568
0.000140835
0.000141895
0.000169612
0.000149479
0.000157355
0.000152004
0.000168287
0.00507214
0.000239818
0.000239546
0.000148845
0.00013961
0.0002345
0.000148089
0.000196057
0.000132835
0.00460824
0.000351826
0.0001548
0.000181342
0.000150453
0.0108718
0.000149293
0.000227959
0.000208793
0.00086255
0.00016559
0.000152056
0.000147659
0.000141838
0.000137245
0.000145967
0.000136307
0.00015376
0.000238828
0.000171668
0.000157723
0.00018045
0.000161189
0.000168649
0.00015735
0.000161151
0.000192207
0.000148069
0.00331538
0.000196317
0.000162164
0.000147305
0.000150872
0.000183595
0.000435615
0.000154588
0.000157717
0.000165487
0.000139717
0.000144269
0.000169538
0.000160918
0.000137152
0.000183142
0.000149955
0.000148106
0.00709132
0.000147516
0.000169303
0.000190396
0.000173018
0.000342255
0.000142653
0.000165684
0.000150753
0.0124966
0.000164826
0.000131556
0.0311411
0.000133508
0.000157189
0.00014102
0.000157018
0.000154795
0.000227822
0.00202524
0.000186288
0.000154165
0.00013974
0.000161411
0.000163301
0.00290442
0.000149217
0.000208211
0.000166015
0.0334493
0.00013704
0.000190545
0.000148827
0.00179067
0.000157677
0.000148302
0.000233617
0.000145388
0.000128386
0.00528296
0.000159607
0.000147196
0.000174798
0.026545
0.000185578
0.000186951
0.000349919
0.000134893
0.000156304
0.00192617
0.000169594
0.000133646
0.000153306
0.000135299
0.0290049
0.000149133
0.000140359
0.000131844
0.000149698
0.000146417
0.00465794
0.00014664
0.00020032
0.000155809
0.000154599
0.0279978
0.000148812
0.000157399
0.000188282
0.000153201
0.000169691
0.000141207
0.000144033
0.00505022
0.000825631
0.000140249
0.000150504
0.000131485
0.000143405
0.000155442
0.000157264
0.000167975
0.000141928
0.0336248
0.000141778
0.00013975
0.00765188
0.0182027
0.000148737
0.000149777
0.000445898
0.000183352
0.000168776
0.000138404
0.000158403
0.000132976
0.0396591
0.000157648
0.000140278
0.00885407
0.000150077
0.000142448
0.000165191
0.000160915
0.000146748
0.00241928
0.000213626
0.000143959
0.000142451
0.000142966
0.000174784
0.000149342
0.000139606
0.0335045
0.000196894
0.000130832
0.000213219
0.000348737
0.000219055
0.00256074
0.000132994
0.000157293
0.000186582
0.000270258
0.00536608
0.00109816
0.000149134
0.000145805
0.00579979
0.00482957
0.000148213
0.000154418
0.000140255
0.000148377
0.000139264
0.000130905
0.000142633
0.00015676
0.000142764
0.0284744
0.00943238
0.000144126
0.000150291
0.00015031
0.000146732
0.000145793
0.00016793
0.000160533
0.000169939
0.000145073
0.00551379
0.000214951
0.000161118
0.00018663
0.000193138
0.000143341
0.0016603
0.000185962
0.000185841
0.000201883
0.000160534
0.000244021
0.00014337
0.00202635
0.000139172
0.000177709
0.00014259
0.000141078
0.000363154
0.000157366
0.000138342
0.00532449
0.0202692
0.000157534
0.00016922
0.000128275
0.000185897
0.000325965
0.000149587
0.000148147
0.000145486
0.000148736
0.000138235
0.000152233
0.000283269
0.000165546
0.000149344
0.000145264
0.000140838
0.000141249
0.000156527
0.000138929
0.000145715
0.00822196
0.000142683
0.000149351
0.000163451
0.000149287
0.000150851
0.000193669
0.000140776
0.000199926
0.0336205
0.000145093
0.0304723
0.000146744
0.0266623
0.000150133
0.000189817
0.000156821
0.000201601
0.033862
0.000150828
0.000308702
0.000130527
0.000138471
0.000299548
0.000198272
0.0342681
0.000145612
0.000161383
0.000169226
0.00015496
0.000156607
0.000141438
0.000170255
0.000144844
0.0305678
0.000209484
0.000162961
0.000140257
0.000149374
0.0331042
0.000449888
0.000193333
0.000176947
0.000272591
0.000141375
0.000140283
0.00014509
0.00580333
0.000152761
0.000201433
0.000147148
0.000144493
0.000161113
0.000149457
0.00488362
0.000161075
0.00013821
0.000148991
0.000176514
0.00014689
0.0242663
0.00014516
0.000163094
0.000143859
0.000145156
0.000141986
0.0236445
0.000143524
0.000144934
0.000141155
0.00024971
0.000154975
0.00585525
0.000133625
0.00503718
0.000195104
0.000190357
0.000141446
0.000294242
0.00418449
0.000185986
0.000132419
0.000148563
0.00014203
0.000143421
0.000145354
0.000146664
0.000141339
0.000154514
0.00796072
0.000149323
0.000189088
0.000141199
0.000172966
0.000153262
0.000155756
0.00589826
0.000136075
0.000183008
0.000165558
0.000185232
0.000171818
0.0273758
0.000169512
0.000147808
0.00320381
0.000202537
0.0395935
0.00916569
0.000157566
0.000151196
0.000140431
0.000148531
0.000140565
0.000241797
0.000165108
0.0312439
0.000151604
0.000147196
0.00559822
0.000146427
0.00013936
0.0100332
0.000179767
0.0314122
0.000147618
0.000253713
0.000141278
0.000202493
0.000411707
0.0104804
0.000163132
0.000134479
0.000140565
0.000185623
0.0173815
0.000174435
0.000151755
0.000152373
0.000147032
0.000164709
0.000300832
0.000145289
0.000205833
0.000140327
0.00014218
0.000295046
0.000171786
0.000252588
0.000161378
0.000152654
0.00922209
0.000155076
0.000141166
0.0335772
0.00324378
0.0109266
0.000197423
0.000152554
0.0321625
0.000354522
0.000133617
0.000142613
0.00028923
0.000144671
0.0001659
0.000141418
0.010486
0.000285075
0.000148195
0.000132322
0.000281751
0.000147354
0.000153616
0.00122502
0.000141906
0.000130667
0.000155609
0.0211806
0.000145293
0.000142636
0.000180864
0.000202612
0.000164247
0.0115828
0.000479334
0.0001638
0.000143547
0.000290829
0.000143938
0.000138509
0.000165339
0.00599332
0.000147957
0.000165081
0.000202358
0.000196967
0.000143931
0.0335337
0.000160809
0.000149317
0.000159352
0.000181534
0.00021086
0.000139573
0.00908844
0.000254237
0.000140862
0.000131266
0.000173051
0.000256466
0.000181024
0.000186303
0.000153629
0.000131531
0.000193118
0.00018149
0.00293419
0.000165359
0.000155357
0.000140899
0.000148098
0.000146901
0.000190623
0.000186318
0.00697513
0.000140674
0.000151748
0.000160418
0.000174413
0.00015458
0.000164807
0.0363067
0.000148977
0.000135473
0.000146989
0.00014069
0.000145662
0.000146479
0.000151154
0.00016275
0.000143605
0.000153916
0.000325732
0.000147343
0.0103774
0.000148829
0.000141879
0.000141788
0.000142974
0.00015313
0.0151316
0.00763134
0.000142999
0.000139526
0.000191422
0.000150149
0.000131732
0.000164031
0.000156743
0.035888
0.000196489
0.000235119
0.000203398
0.000157511
0.000264273
0.000160076
0.000200001
0.000141175
0.000214547
0.000147784
0.00109798
0.000132245
0.000973651
0.000135176
0.000147096
0.000196179
0.000150463
0.000279745
0.031688
0.000208387
0.000142188
0.000156381
0.000135533
0.000207589
0.000130377
0.000162313
0.000145548
0.0085193
0.000143876
0.000196744
0.0334234
0.000145152
0.000165026
0.000163506
0.000162719
0.00015247
0.000182734
0.000138739
0.000142146
0.00633344
0.034061
0.000131558
0.000142075
0.000141886
0.000283729
0.000145293
0.000230636
0.000146096
0.000148929
0.000134644
0.000160735
0.0414349
0.000145884
0.000160697
0.000211446
0.000218798
0.000147429
0.000235335
0.000160578
0.000185672
0.00508664
0.000138725
0.000135513
0.000136789
0.00015672
0.000141198
0.000172235
0.000164627
0.000196123
0.000137393
0.000130929
0.000152131
0.000148196
0.000142679
0.000138855
0.000156294
0.00123635
0.00016952
0.00475615
0.000249007
0.000459409
0.000131148
0.000149726
0.000150868
0.000191431
0.00192663
0.000170242
0.000154415
0.000148424
0.00207113
0.000182353
0.000235241
0.0326516
0.0327632
0.000153761
0.000157313
0.000168712
0.000143117
0.000138843
0.000142025
0.000144184
0.00521174
0.000127834
0.000141428
0.000252922
0.0341372
0.000157363
0.000170167
0.000131117
0.000666383
0.00014732
0.000161088
0.000148237
0.00016411
0.000153728
0.000147964
0.00014763
0.00869548
0.000131363
0.000174617
0.000159095
0.000143347
0.000254824
0.000140062
0.000201026
0.00016151
0.000133255
0.0304494
0.000169531
0.000186196
0.0001481
0.000139665
0.000203348
0.00111753
0.000144185
0.000162717
0.0190019
0.000136924
0.000169985
0.0286165
0.000156851
0.00013919
0.0248115
0.000144718
0.000242541
0.00014028
0.0220052
0.000141396
0.00014374
0.000136832
0.000163015
0.000145171
0.000154444
0.000318929
0.000169822
0.000269532
0.000139785
0.000280468
0.0154075
0.00147524
0.00014893
0.000226196
0.000143813
0.000152737
0.000322821
0.000133097
0.000156789
0.000156534
0.000148133
0.000143599
0.00650265
0.00158923
0.000196681
0.0134223
0.000163781
0.000145902
0.000147674
0.00582819
0.000152229
0.0082033
0.00275885
0.000135834
0.000152668
0.000186437
0.000161847
0.000273879
0.0337967
0.000133534
0.0179789
0.000135851
0.000215152
0.00726831
0.0295527
0.000138354
0.000148103
0.00240193
0.00583085
0.000142786
0.000153327
0.000189452
0.000148591
0.000148295
0.000161283
0.0014209
0.000247508
0.00542728
0.000153161
0.000134817
0.00043691
0.000138981
0.000240177
0.000198548
0.000134671
0.00028829
0.00049469
0.000230782
0.000136263
0.000135018
0.000136183
0.0133357
0.000154403
0.000221592
0.000192544
0.000156467
0.000161509
0.000178796
0.000151599
0.000158919
0.000150948
0.000248043
0.000187835
0.000274012
0.000350166
0.0309117
0.00575618
0.000147835
0.000182153
0.000258412
0.000204971
0.0002369
0.000223298
0.000151721
0.0311382
0.00535041
0.000198179
0.000243381
0.000148714
0.000136092
0.000151433
0.0245198
0.000141278
0.000147061
0.000231933
0.000138531
0.000289847
0.000141121
0.000150852
0.00530778
0.000224893
0.000157067
0.000147029
0.000144344
0.000164159
0.000152959
0.000196837
0.000144717
0.000170225
0.000187317
0.000220528
0.00015442
0.000173955
0.00979699
0.0319101
0.000136921
0.0295006
0.000144964
0.000162425
0.000141763
0.000142203
0.000152425
0.000209161
0.000142552
0.000141791
0.000189906
0.000133367
0.000137451
0.00198895
0.000279679
0.000207089
0.000174042
0.00013978
0.000199918
0.000146362
0.000152344
0.0342629
0.0076043
0.000157727
0.000140943
0.0233093
0.000795083
0.000167336
0.000170233
0.000144051
0.00014813
0.000172861
0.000380384
0.000133121
0.000130943
0.00016419
0.000376216
0.000236845
0.000141327
0.000258532
0.000214202
0.000142087
0.000145416
0.000202853
0.000140738
0.000167077
0.0414931
0.000162528
0.000811036
0.000192506
0.0160998
0.000206564
0.000151919
0.000159144
0.0142218
0.000145925
0.000141048
0.000148498
0.000156185
0.000135201
0.000157293
0.000160515
0.000172264
0.000158181
0.000146426
0.000138577
0.0332714
0.000191301
0.000139109
0.000156214
0.000156472
0.000478071
0.000148326
0.0296634
0.000201152
0.0192178
0.0328707
0.000222613
0.000146718
0.0119724
0.000162058
0.000153289
0.000162112
0.0216901
0.000185114
0.000222475
0.000131625
0.000136713
0.0337925
0.000146538
0.000182046
0.00018835
0.00343192
0.000182072
0.000202917
0.000145122
0.000142635
0.000255522
0.000140751
0.000171248
0.000203055
0.000150685
0.0279867
0.000165912
0.000163647
0.000140542
0.000224969
0.000197744
0.000152878
0.0323867
0.000153065
0.000308405
0.00572076
0.0001341
0.00018987
0.0052656
0.00797102
0.000140962
0.00646245
0.000211046
0.000150685
0.000140685
0.000196286
0.000141562
0.0233103
0.000199417
0.000142432
0.00231512
0.000134132
0.000278601
0.000141448
0.00013418
0.000145155
0.000140722
0.000245255
0.0329748
0.00817957
0.000142412
0.0231423
0.000162186
0.000184334
0.000196164
0.000157596
0.000141103
0.000174004
0.000131668
0.000177012
0.000134219
0.000156941
0.000148453
0.000131714
0.000172628
0.000157545
0.000152646
0.00102969
0.000143839
0.000143182
0.000143086
0.0247231
0.00058649
0.000146161
0.000193354
0.000160497
0.000152977
0.000244527
0.000147911
0.000156648
0.000158757
0.000143522
0.000232519
0.000145273
0.00710207
0.000232105
0.000241657
0.0288576
0.032769
0.000187699
0.00015968
0.0261322
0.0186697
0.000156
0.000259641
0.000141941
0.004682
0.0336871
0.000174478
0.0245173
0.000141546
0.022764
0.00148454
0.000230215
0.000182712
0.000145945
0.000189289
0.000151093
0.000142571
0.000212793
0.000158654
0.000208216
0.000189389
0.000148
0.000140109
0.000211042
0.000146889
0.00612905
0.000259812
0.000140948
0.0151135
0.000150956
0.000155318
0.000144759
0.000156361
0.000172893
0.000155739
0.00560504
0.000149352
0.000508284
0.000206579
0.000140261
0.000143016
0.00020935
0.000191204
0.000141467
0.00017074
0.000157201
0.000148817
0.000149513
0.000142117
0.000190587
0.000143407
0.000163718
0.000184891
0.0240917
0.00014447
0.0329806
0.000142883
0.0273122
0.000139266
0.0190317
0.000259414
0.000152391
0.00395965
0.00014312
0.0298374
0.000191862
0.000149524
0.016438
0.000151309
0.000130465
0.000190892
0.000139356
0.000155004
0.000150012
0.000147116
0.000206971
0.00544966
0.000142579
0.000143113
0.000205365
0.0343839
0.000142385
0.037843
0.000138906
0.000142884
0.000172921
0.000149074
0.000278824
0.000142548
0.00940528
0.000157698
0.000149315
0.000236857
0.000145117
0.000131011
0.000142416
0.000142079
0.000151761
0.000146867
0.00016029
0.025559
0.00016629
0.000149144
0.00018139
0.0193441
0.0115292
0.0332789
0.000157146
0.000189073
0.000130506
0.000188614
0.000176677
0.000139613
0.000140419
0.000166761
0.000131624
0.000156507
0.00717282
0.0339755
0.000150703
0.000139232
0.000142875
0.000153362
0.000165912
0.000154305
0.00025355
0.0240882
0.000137291
0.000160246
0.000187129
0.000163876
0.000185529
0.00168094
0.0200341
0.000197033
0.000210191
0.000141141
0.00188681
0.000135472
0.000134333
0.000150858
0.0001855
0.000213442
0.000142906
0.000192912
0.000142993
0.000235204
0.0105149
0.000199353
0.000142894
0.0129001
0.000147335
0.00015069
0.000134134
0.0338184
0.000210335
0.000162399
0.000148289
0.000135417
0.00798492
0.000145401
0.000147117
0.000139176
0.000143535
0.000156604
0.000158328
0.000153965
0.0354743
0.00015058
0.000163331
0.000143374
0.0252305
0.000140442
0.000140988
0.000149921
0.000141774
0.0326679
0.00116719
0.000141432
0.000168493
0.00651941
0.000446088
0.000139533
0.000173415
0.000189268
0.000154309
0.00014005
0.000189946
0.000147838
0.000669866
0.000140045
0.000158674
0.0021263
0.000144329
0.000146963
0.000159827
0.00017813
0.000194873
0.000149945
0.00534025
0.000178641
0.000187707
0.000248576
0.000191641
0.00014506
0.000807097
0.000205339
0.000182636
0.000188802
0.000237028
0.000170069
0.000203885
0.000190655
0.00014056
0.000156955
0.000192771
0.000134917
0.000241106
0.000168401
0.000173334
0.0284648
0.000154406
0.000140621
0.000157932
0.000179657
0.000141874
0.000173823
0.000136581
0.000178264
0.000286635
0.000165028
0.00014347
0.000194668
0.0251328
0.000149268
0.00014138
0.000146253
0.000133429
0.000157684
0.00547402
0.000221782
0.000151888
0.000143432
0.000147966
0.00235803
0.000141354
0.000215106
0.000154782
0.0001909
0.000158749
0.000213088
0.000218921
0.0037091
0.000156265
0.000209186
0.000146717
0.000155383
0.000136633
0.000168935
0.00602502
0.000130736
0.000153107
0.000166084
0.000152189
0.000170472
0.000140815
0.000188392
0.000142849
0.000147315
0.0013117
0.000155368
0.000145237
0.0234004
0.0091811
0.000172595
0.000137672
0.000168717
0.000133325
0.00025854
0.000132871
0.000139115
0.00014914
0.000155121
0.000155167
0.000141526
0.00020084
0.000191183
0.000202927
0.000149656
0.000146922
0.000180889
0.00342747
0.000171528
0.000174462
0.0246826
0.000240264
0.000155786
0.00018925
0.000146049
0.000144649
0.000151534
0.000140652
0.000165775
0.000132569
0.000156327
0.014991
0.0333878
0.000177239
0.000188958
0.000916594
0.000138209
0.000159593
0.000147208
0.000179554
0.000361491
0.00019058
0.00620211
0.000143972
0.00014309
0.000164993
0.000129208
0.000150206
0.000140875
0.000165528
0.000160123
0.000143481
0.000146237
0.000154797
0.000168879
0.00264136
0.00110572
0.00015987
0.00014729
0.000151055
0.000249395
0.000141308
0.00018046
0.00164105
0.000139069
0.000142642
0.000187954
0.000144664
0.0160547
0.000128253
0.000179157
0.000190352
0.000150028
0.0265114
0.000144109
0.000145879
0.000149773
0.000145383
0.0170562
0.00611933
0.000151679
0.000229401
0.000171178
0.00014479
0.000140582
0.000143523
0.000154691
0.000138038
0.00703594
0.000942023
0.000243327
0.000127773
0.000139067
0.000150892
0.000143766
0.000213116
0.00021745
0.000170371
0.00013916
0.0204326
0.000135309
0.000140058
0.00443981
0.000138789
0.000143886
0.000159559
0.000214032
0.000148355
0.000149257
0.000142819
0.000139904
0.000182983
0.00014189
0.000186856
0.000152306
0.000214353
0.000195881
0.000222616
0.000142945
0.026232