/*--------------------------------*- C++ -*----------------------------------*\
| =========                 |                                                 |
| \\      /  F ield         | OpenFOAM: The Open Source CFD Toolbox           |
|  \\    /   O peration     | Version:  v2012                                 |
|   \\  /    A nd           | Website:  www.openfoam.com                      |
|    \\/     M anipulation  |                                                 |
\*---------------------------------------------------------------------------*/
FoamFile
{
    version     2.0;
    format      ascii;
    class       volScalarField;
    location    "100";
    object      nut;
}
// * * * * * * * * * * * * * * * * * * * * * * * * * * * * * * * * * * * * * //

dimensions      [0 2 -1 0 0 0 0];


internalField   nonuniform List<scalar> 
54593
(
0.0049659
0.00306758
0.00442639
0.0016808
0.000501594
0.00504552
0.00584174
0.00136335
0.000590049
0.00234135
0.00590834
0.000823891
0.00595446
0.00585041
0.00590516
0.00584461
0.0107676
0.00585334
0.00584755
0.000793365
0.00587981
0.005906
0.00373541
0.00595696
0.00591054
0.00227799
0.0148206
0.00601651
0.000464727
0.0058843
0.0015977
0.00370604
0.00579746
0.0181613
0.00582235
0.00595449
0.00203075
0.012834
0.000898839
0.00483764
0.0176411
0.00602398
0.00588041
0.00585781
0.00582813
0.00576105
0.00584987
0.0141446
0.0139766
0.00590137
0.00582684
0.00593645
0.00594129
0.00225066
0.00239789
0.0059195
0.00138133
0.00595524
0.00166911
0.00586988
0.000952873
0.0059552
0.00592609
0.00595482
0.0110808
0.00462279
0.00583348
0.011246
0.00593446
0.00584372
0.0110918
0.00585265
0.00231973
0.00579793
0.00581884
0.00585145
0.00708784
0.00594061
0.0176212
0.00190716
0.00595593
0.00592707
0.0111145
0.0111188
0.00584261
0.00592304
0.000856573
0.00587216
0.00592705
0.00112909
0.00586156
0.00595477
0.0116579
0.00592663
0.0123341
0.00215414
0.00533176
0.00594771
0.00587778
0.00581907
0.0171323
0.0053283
0.0059561
0.000806673
0.0063177
0.000537289
0.00585057
0.0031042
0.00579761
0.00587458
0.00588086
0.00594112
0.0105985
0.00304547
0.0134589
0.00582691
0.00585219
0.00577072
0.00634344
0.0167845
0.00595282
0.000817098
0.00208829
0.00139392
0.00584068
0.0108268
0.00589077
0.00139155
0.0115773
0.00587098
0.00592808
0.00580127
0.00585005
0.00284106
0.00585939
0.00582359
0.0021237
0.000741932
0.00584987
0.00960515
0.0058273
0.00588815
0.00586579
0.00988821
0.00584133
0.00288583
0.00245359
0.00273312
0.00587302
0.0108249
0.0058956
0.00202432
0.00594834
0.00591669
0.00260699
0.000871808
0.00117269
0.013355
0.00491401
0.00595169
0.00641026
0.00152595
0.0115958
0.00581597
0.000840572
0.00594503
0.00578235
0.00585661
0.00584812
0.00588549
0.0057475
0.00604387
0.00589546
0.00162108
0.0059317
0.00586526
0.0012538
0.00258399
0.00969012
0.00581697
0.00581805
0.00585338
0.0112012
0.00304244
0.00492823
0.00594803
0.00181058
0.00591917
0.00520405
0.00594661
0.0137699
0.000830947
0.00602642
0.0115919
0.000948258
0.00595471
0.00601363
0.00565926
0.00101344
0.00585517
0.0101746
0.00606049
0.00608799
0.00237532
0.00520185
0.00583047
0.00591568
0.00244474
0.00602568
0.00189004
0.00582509
0.000805929
0.00199933
0.00215015
0.00600527
0.00349779
0.00318241
0.00428416
0.00579803
0.00599734
0.00591401
0.00566319
0.00585126
0.00090368
0.0153674
0.000976364
0.00581821
0.00858677
0.000790385
0.0116312
0.00222337
0.00579754
0.00395978
0.00588855
0.00238279
0.00584659
0.0058359
0.0157101
0.0010173
0.0060177
0.00579773
0.00601227
0.00583692
0.00579902
0.00208397
0.0058552
0.00494421
0.0162892
0.00585899
0.00591623
0.000962594
0.00594631
0.00312301
0.00595934
0.00782317
0.00585323
0.00750309
0.00942704
0.000969473
0.00584334
0.00595127
0.00579597
0.00137732
0.00233367
0.0037449
0.000478
0.00579743
0.00446907
0.00596474
0.00595874
0.00068771
0.0168148
0.00584924
0.000724759
0.000995113
0.00152438
0.00594964
0.00582481
0.00223154
0.00587611
0.00584526
0.00585144
0.00585912
0.00224631
0.0107553
0.00433774
0.0021823
0.00456304
0.00101631
0.00595114
0.00586704
0.00862286
0.00113444
0.0116727
0.00067714
0.00588494
0.00573417
0.00588684
0.00502035
0.00521138
0.00118059
0.000740977
0.00627962
0.00308472
0.000457744
0.000987378
0.00491716
0.00892094
0.00844011
0.0112958
0.00594247
0.00431865
0.00461647
0.00956464
0.000832129
0.00298802
0.0106107
0.00211299
0.00138412
0.00591454
0.0114906
0.00198935
0.00584064
0.00308907
0.0058543
0.0117248
0.00437565
0.00331715
0.00583629
0.000665489
0.000713687
0.0058167
0.0054383
0.00536306
0.00197171
0.00587615
0.00590886
0.00400595
0.00332738
0.00595148
0.000805439
0.0122766
0.0108857
0.00595171
0.00581108
0.00786705
0.00591123
0.0030654
0.00137249
0.00599956
0.00657477
0.00598998
0.00275154
0.00595353
0.00304935
0.000543315
0.00558223
0.00506068
0.00107804
0.00561056
0.00467156
0.0062198
0.00906367
0.00589865
0.00383763
0.00202445
0.00579939
0.00588775
0.00587812
0.000458609
0.00578644
0.0155301
0.00574054
0.00562227
0.00522218
0.00107231
0.0005489
0.0026059
0.000821739
0.00942977
0.00166857
0.000400963
0.00881603
0.000726683
0.00346536
0.00198782
0.00240522
0.000893247
0.00110892
0.00591996
0.00519769
0.0016486
0.00518267
0.00159763
0.00585259
0.0059255
0.00201947
0.00592574
0.00582117
0.0054783
0.00331384
0.00582756
0.00588069
0.00237081
0.00165581
0.00183782
0.00148478
0.00111309
0.00755762
0.00316412
0.00588333
0.00729776
0.00740555
0.00579115
0.00579507
0.00594506
0.0107942
0.00416383
0.00570458
0.00591192
0.00679183
0.00588557
0.00595288
0.00734426
0.00564597
0.00568026
0.000712008
0.00579838
0.00564052
0.00588577
0.000395021
0.00943172
0.00358204
0.0057921
0.00533854
0.00582375
0.00601254
0.00577877
0.000562183
0.00577644
0.00118956
0.00483361
0.0121458
0.00229815
0.00462251
0.00269654
0.00587603
0.00229866
0.000722941
0.00999879
0.00575685
0.00561749
0.00236986
0.00579597
0.00167993
0.00564739
0.00564739
0.00115489
0.00592217
0.00585517
0.000725207
0.00579608
0.00601265
0.00585256
0.00178311
0.00680279
0.00215625
0.00985422
0.00583716
0.00586136
0.00113027
0.00102468
0.000821777
0.00243605
0.000795005
0.00110315
0.000857669
0.00595337
0.00165261
0.0061965
0.0059287
0.00187002
0.000474078
0.00373054
0.00843243
0.000735346
0.0057379
0.00531642
0.0057864
0.00586467
0.00184378
0.00907953
0.000639377
0.00557222
0.0106952
0.0046685
0.00568462
0.00449898
0.00327729
0.00582175
0.00588168
0.00126261
0.00595362
0.00582195
0.00579441
0.00594702
0.00572731
0.00581426
0.00653941
0.00185549
0.00592915
0.00599923
0.00594698
0.00585252
0.00583084
0.0057728
0.00588567
0.00237506
0.00102754
0.00186679
0.00175339
0.0107861
0.00874477
0.00147674
0.00213925
0.000517682
0.00584359
0.00583278
0.00587129
0.00582123
0.00581876
0.0010642
0.005887
0.000736858
0.00757627
0.00237339
0.00218478
0.00195217
0.00055916
0.00719938
0.00592071
0.00345021
0.00586163
0.00308274
0.0059529
0.00585423
0.000558316
0.00594543
0.00112413
0.00384228
0.0032085
0.00586424
0.00281873
0.000441612
0.002385
0.00600377
0.0125976
0.00773705
0.00562001
0.0023119
0.0151075
0.00581206
0.00129993
0.00567105
0.000867667
0.00356476
0.00766084
0.0116087
0.00165118
0.00333758
0.00589074
0.00603227
0.00583434
0.00561761
0.0079477
0.00596122
0.00243847
0.00595486
0.00204899
0.00583411
0.00593996
0.00584164
0.00839727
0.000690752
0.00581274
0.01064
0.00581581
0.000828345
0.0069132
0.00584978
0.00609641
0.00591732
0.00163756
0.00153121
0.00174372
0.000362035
0.00331739
0.00109006
0.0058207
0.00238906
0.00130402
0.00538024
0.00594228
0.00581048
0.0113216
0.00588715
0.00230675
0.00550084
0.00235825
0.000919194
0.0162306
0.0059137
0.00559634
0.00439656
0.00518872
0.0160791
0.00581782
0.00388906
0.00774211
0.00851623
0.00418253
0.00600212
0.00091453
0.00103932
0.00581022
0.000900114
0.00561816
0.00581911
0.00586545
0.0184201
0.00110528
0.00586404
0.00596344
0.00586307
0.00597358
0.00120062
0.00416546
0.00210402
0.00585006
0.000955503
0.00860201
0.0183504
0.00488454
0.000598993
0.00717308
0.0182354
0.00314889
0.00909596
0.00522523
0.00100381
0.0082765
0.00595073
0.00583278
0.00595668
0.00587832
0.00359916
0.00498986
0.00148925
0.00946267
0.000960917
0.00409257
0.00114088
0.00452198
0.00238519
0.00585521
0.00344218
0.00281629
0.00546936
0.00155004
0.00225175
0.00105119
0.00571487
0.00254678
0.00203677
0.000365511
0.0100642
0.0112669
0.00918782
0.00100375
0.00198982
0.0113299
0.00582304
0.0101464
0.00570578
0.00594483
0.0117617
0.00285539
0.00217974
0.00902265
0.00563924
0.00542629
0.00588444
0.000534385
0.0117668
0.000927416
0.0108228
0.000845798
0.000984734
0.000895242
0.00581011
0.000935977
0.00567408
0.00754686
0.00308493
0.000714468
0.00583584
0.0023788
0.00574659
0.00586133
0.00579511
0.0078852
0.000375554
0.00411091
0.00296609
0.00579521
0.00382898
0.00580964
0.000978242
0.00239141
0.00583456
0.00591691
0.00228749
0.0109089
0.005902
0.00187693
0.00193426
0.00524224
0.00586282
0.001772
0.000535672
0.00583273
0.00832985
0.0109156
0.0058434
0.00156673
0.00591388
0.00584256
0.002681
0.00463573
0.00590927
0.000360085
0.0012338
0.00448406
0.00704752
0.00585257
0.00820597
0.00579764
0.00584605
0.000734975
0.00584379
0.00590855
0.0053066
0.00567481
0.000377507
0.00594086
0.00126304
0.00414601
0.00570212
0.00599033
0.00222359
0.00348692
0.00569521
0.00675281
0.00569944
0.00241974
0.00245475
0.00491188
0.00357246
0.00597969
0.00880099
0.00573022
0.00237761
0.00135006
0.00593692
0.0058171
0.00606414
0.00594301
0.000998805
0.00412653
0.00169216
0.00587667
0.00593633
0.00594366
0.00641733
0.000699746
0.00117408
0.00114729
0.00171076
0.00114133
0.00296296
0.00406539
0.00573138
0.00227007
0.00588346
0.00551717
0.00409989
0.00572612
0.00503798
0.0026441
0.00192505
0.00567611
0.00561672
0.0042784
0.00588203
0.00197965
0.00053455
0.00219292
0.00588622
0.0123156
0.0100211
0.00569432
0.000413656
0.00247579
0.0021507
0.00657348
0.0131101
0.00596176
0.00595511
0.00565165
0.00583321
0.0117213
0.00582238
0.0108948
0.00585009
0.00580233
0.00742541
0.00226135
0.00568413
0.00583088
0.00588897
0.00586216
0.00134763
0.00580063
0.00584303
0.00846206
0.000612974
0.00709466
0.00149624
0.000973064
0.0100289
0.00192641
0.00433489
0.0128966
0.00604941
0.0136125
0.00219043
0.000985805
0.00116406
0.00590098
0.00565729
0.0113089
0.00593192
0.00912374
0.00075111
0.0166301
0.0114282
0.000968957
0.00584911
0.00579586
0.0096718
0.00582237
0.00115718
0.00236602
0.00586743
0.00582405
0.00222985
0.000968693
0.000817093
0.000580545
0.00561994
0.0059554
0.00592305
0.005494
0.00583891
0.00890116
0.0090987
0.00588077
0.00156997
0.00355551
0.00341424
0.00591412
0.00340967
0.00765662
0.00419876
0.00583301
0.00120243
0.00589393
0.00588084
0.0077694
0.00205879
0.00596462
0.0100344
0.00578767
0.000373562
0.00589335
0.00328535
0.00578259
0.00587838
0.00588136
0.00591628
0.00721623
0.0158883
0.0026603
0.00213595
0.00586198
0.00594581
0.00143788
0.00585136
0.00587839
0.00148158
0.00631528
0.00620054
0.00554982
0.00585406
0.00594641
0.00599759
0.00416582
0.00588839
0.00191261
0.0126023
0.00546375
0.0129873
0.00591991
0.0109581
0.00569714
0.00543252
0.0111467
0.00582282
0.0057958
0.00209092
0.00596196
0.00591809
0.018699
0.00415756
0.00586539
0.00615185
0.00586858
0.0109253
0.00582131
0.00592247
0.00589732
0.00264398
0.000950759
0.00112416
0.00106799
0.00165626
0.00579739
0.00587023
0.00586815
0.00604074
0.00584212
0.0104548
0.00170739
0.0071293
0.004382
0.000966434
0.0035178
0.00591805
0.0058668
0.00345248
0.000569165
0.00529085
0.00578359
0.00568756
0.00567831
0.00106796
0.00340237
0.00658588
0.00594291
0.0113439
0.00597525
0.00579843
0.00187347
0.00355989
0.00429685
0.00524359
0.000576484
0.0107737
0.00220645
0.00419174
0.0058699
0.00120716
0.0140939
0.00583107
0.00592639
0.00121222
0.00579435
0.00595926
0.00579365
0.00189865
0.00579776
0.0058684
0.00585245
0.00579289
0.00372024
0.0031599
0.00587761
0.000477308
0.00582396
0.00272874
0.00594656
0.00058762
0.00593443
0.000699759
0.00586052
0.00559442
0.00237718
0.00851444
0.00586428
0.00469676
0.00106287
0.00581193
0.0119184
0.000498965
0.00581992
0.00128327
0.000734116
0.00592566
0.0055612
0.00591043
0.00584718
0.000592086
0.0014415
0.00188726
0.00585214
0.000821638
0.0115834
0.00592718
0.00592875
0.00184498
0.00582483
0.00595796
0.00257605
0.00422453
0.00589452
0.00592701
0.0059217
0.00428041
0.0059625
0.00594103
0.000601798
0.00142227
0.00206779
0.00337625
0.000934881
0.00587928
0.000936595
0.00535819
0.00157335
0.00869575
0.00581675
0.00168758
0.0038209
0.00100328
0.000592769
0.00270864
0.00711562
0.00490159
0.00057313
0.000926571
0.00595216
0.00592382
0.00584539
0.00595765
0.0020546
0.00145024
0.00293617
0.00583847
0.00581399
0.00160082
0.00112307
0.00390099
0.00586641
0.000799895
0.00106988
0.00582027
0.00320524
0.00585654
0.00601306
0.00578545
0.00187727
0.00429555
0.000669155
0.0057967
0.00595304
0.00587001
0.00331715
0.00579685
0.0033066
0.00161097
0.00586837
0.0100778
0.0058511
0.00590747
0.00569017
0.000451233
0.00145251
0.00232394
0.0058809
0.00645435
0.00187347
0.00592841
0.00584823
0.000401082
0.00242587
0.00667501
0.00598236
0.00593294
0.00270019
0.00595811
0.00284339
0.00579495
0.00482265
0.00486639
0.00587837
0.0056034
0.00591372
0.00585903
0.00594343
0.00596248
0.000434034
0.00269132
0.00137009
0.00581153
0.00584985
0.000673504
0.00352245
0.00493794
0.00585287
0.0058246
0.0058978
0.00580191
0.00552856
0.0017378
0.00583716
0.00582113
0.0064245
0.00591582
0.00639458
0.00546385
0.00208348
0.00473569
0.00596021
0.00549243
0.00160105
0.00546172
0.00413477
0.00583152
0.00594332
0.0020664
0.00594757
0.00559303
0.00591281
0.00223632
0.00994307
0.000713431
0.000955852
0.00595482
0.0058235
0.000564939
0.00596469
0.00158092
0.00579774
0.00914526
0.0012258
0.00367034
0.00101177
0.00589806
0.00305054
0.00594326
0.000398692
0.00145308
0.00355053
0.00390522
0.00601005
0.00594943
0.00582231
0.00583463
0.00595913
0.00582587
0.00602659
0.000947092
0.00353455
0.00556137
0.00193622
0.00227624
0.00559904
0.00559193
0.0024583
0.000806446
0.00596487
0.00829269
0.000545715
0.00531587
0.00592161
0.00594932
0.00120712
0.0024066
0.0058043
0.00348027
0.00210458
0.00591179
0.0059092
0.00296531
0.0055594
0.00583274
0.00123224
0.00594648
0.00589836
0.00868144
0.00594726
0.00305523
0.00160348
0.00136559
0.00121783
0.00585492
0.00201298
0.00588781
0.0132535
0.00260287
0.00580115
0.0110129
0.00582147
0.00444861
0.00583472
0.00604371
0.00409333
0.000395406
0.00620904
0.00141585
0.00575902
0.00582037
0.00549249
0.00237738
0.0073348
0.00505778
0.00154457
0.0019667
0.0111274
0.0058131
0.000850161
0.00595443
0.00625558
0.00383083
0.00596379
0.000609764
0.00592241
0.00580087
0.0130889
0.0060611
0.00594236
0.00180799
0.0156269
0.00282298
0.00125729
0.0068836
0.00588469
0.00600796
0.00257222
0.00573953
0.00582207
0.00434676
0.00583717
0.0093968
0.0049942
0.0058407
0.00579428
0.00593737
0.00596261
0.0112342
0.00596008
0.00165595
0.00574042
0.00580186
0.0134234
0.00588225
0.00315914
0.00135545
0.00450142
0.00152018
0.0058361
0.00584827
0.0124788
0.00346466
0.00583966
0.00582403
0.00579383
0.00584957
0.00576421
0.00305529
0.00213385
0.00582281
0.010738
0.0058729
0.00593244
0.0155043
0.0036921
0.00595518
0.00594881
0.00286238
0.00210429
0.00245407
0.00583534
0.00555084
0.00584336
0.011042
0.00309702
0.00582247
0.0166322
0.00594443
0.00594357
0.0020441
0.00222787
0.00587497
0.00502864
0.00605156
0.00584684
0.00594365
0.00595747
0.00224306
0.00594891
0.00593151
0.0114795
0.00176462
0.00579163
0.00607833
0.00109628
0.000759817
0.00515932
0.00581198
0.00299412
0.0029372
0.000774808
0.0104124
0.00449585
0.00492934
0.00594316
0.0129514
0.0116616
0.00594836
0.005957
0.00582225
0.00594648
0.00586187
0.00579184
0.00583388
0.00564975
0.0058316
0.00909195
0.0107635
0.00584738
0.00594836
0.00594055
0.00594345
0.00594364
0.00320274
0.0026648
0.00574151
0.00595268
0.0135727
0.000445073
0.00555515
0.000765459
0.00137652
0.00584853
0.00551518
0.00155874
0.000787974
0.0004568
0.002234
0.000490056
0.00585101
0.00608852
0.00585982
0.00145471
0.00583332
0.00583362
0.00111372
0.00561081
0.00583358
0.00203216
0.00582418
0.00569819
0.00199628
0.00579758
0.00162926
0.00217467
0.00595829
0.00587535
0.0059536
0.00595501
0.00583157
0.00601386
0.000733514
0.00204701
0.00587699
0.00595893
0.00584182
0.00593797
0.00566625
0.00586408
0.00596463
0.00372729
0.00582046
0.00593958
0.00276426
0.00592657
0.00593722
0.00136711
0.00584029
0.00104963
0.0110401
0.00588114
0.00866959
0.00592553
0.0082087
0.00595095
0.00129549
0.00457922
0.000439589
0.011151
0.00582336
0.00447524
0.00585253
0.00585814
0.000932567
0.000498771
0.0110679
0.00594639
0.00233215
0.00394733
0.00387694
0.00497278
0.00583399
0.00207321
0.00595162
0.0106667
0.00149074
0.00225973
0.00593412
0.00599478
0.0115684
0.00218561
0.000761807
0.00155016
0.00454819
0.0058436
0.00593488
0.0058816
0.0164637
0.00339081
0.00168569
0.00595306
0.00590225
0.00239153
0.00595924
0.00692426
0.00570991
0.00585385
0.00592266
0.00152234
0.00592776
0.00553617
0.00596686
0.00334829
0.00588806
0.00597218
0.00582346
0.00687554
0.00583515
0.00595008
0.00582534
0.000446751
0.00581934
0.0167139
0.00582271
0.00715285
0.00190362
0.000717163
0.00584487
0.00636928
0.00852405
0.00123748
0.00581695
0.00594477
0.00588105
0.00584907
0.00595215
0.00594672
0.00584385
0.00602561
0.00226582
0.00592124
0.00108029
0.00582154
0.00156847
0.00478658
0.00600374
0.00286705
0.0059038
0.00205234
0.00225737
0.000897925
0.00204334
0.00818284
0.00387441
0.00595396
0.0100359
0.00163103
0.011056
0.0129639
0.00570003
0.00593421
0.00585702
0.00580582
0.00585239
0.000468819
0.00212751
0.00755504
0.00592245
0.00592618
0.0138263
0.00582213
0.00589146
0.00402624
0.0012437
0.0111107
0.0059619
0.00182162
0.00584277
0.00161376
0.00213314
0.00421368
0.00376071
0.00588129
0.00585943
0.0025918
0.0168431
0.00180201
0.00590644
0.00508457
0.00593024
0.00210865
0.00416368
0.0058761
0.000388201
0.00584094
0.00583607
0.0068928
0.00203603
0.00476976
0.0060746
0.00587102
0.00854144
0.00581714
0.00593448
0.0105274
0.00145377
0.0055429
0.00434396
0.00497912
0.011481
0.00231856
0.00591092
0.00589458
0.000711689
0.00590707
0.00367366
0.00587185
0.0207377
0.0007283
0.00595119
0.00581527
0.0045344
0.00597746
0.00585641
0.00383757
0.00586721
0.00579145
0.0060486
0.00614866
0.00587556
0.00589502
0.00101378
0.0016215
0.00215057
0.00324507
0.00318176
0.0023014
0.00596117
0.000707711
0.0058828
0.00583694
0.0023184
0.00314763
0.00594801
0.00207741
0.00117225
0.00189413
0.00584711
0.0114086
0.00233002
0.00592796
0.006026
0.00603364
0.000618228
0.00582126
0.01248
0.00085511
0.00593572
0.00579896
0.00209936
0.000522506
0.00311673
0.00235553
0.0057663
0.00579429
0.00068984
0.00307333
0.00921859
0.00387939
0.00604439
0.00593662
0.00596433
0.00592859
0.000626124
0.00247058
0.00789716
0.00593446
0.00523312
0.00543565
0.00206642
0.005658
0.00574734
0.00935031
0.00596016
0.0058116
0.00584836
0.00593456
0.00597468
0.00597185
0.00583946
0.00217167
0.00592604
0.0060179
0.00131314
0.00594496
0.00366093
0.00596087
0.00587913
0.00586487
0.0059422
0.00512268
0.00829073
0.00279164
0.00594168
0.00582085
0.000633273
0.00594368
0.00588321
0.00477639
0.00603506
0.00897538
0.00383582
0.00488988
0.00162826
0.00365213
0.000796874
0.00246566
0.00166142
0.00582128
0.00111005
0.00595414
0.00631067
0.00581318
0.00478604
0.00580722
0.00594971
0.000558931
0.00595218
0.000740278
0.0112638
0.000443923
0.00585525
0.00333992
0.00582295
0.000393294
0.00579022
0.0057454
0.00594655
0.00497399
0.00584624
0.00179547
0.0106678
0.00595051
0.00221327
0.00214467
0.00458874
0.00600383
0.00216875
0.0058405
0.00583501
0.00298387
0.0107899
0.00580341
0.00583408
0.00582276
0.000724522
0.00594907
0.00103804
0.00594093
0.0059141
0.00588375
0.00605535
0.0103389
0.00595052
0.00532117
0.000620633
0.000379725
0.00592405
0.00492744
0.00557419
0.00258415
0.00660155
0.00584088
0.00581193
0.00591271
0.00326755
0.0058887
0.00156992
0.00212641
0.0058966
0.00583559
0.00579197
0.00601084
0.00595643
0.00583109
0.00584179
0.00402671
0.00303347
0.00188573
0.00152534
0.000815895
0.00244158
0.00579652
0.00590639
0.00352123
0.000767821
0.00616326
0.00176146
0.00601241
0.00585796
0.00505599
0.00207565
0.000989066
0.00890423
0.0107458
0.00584295
0.00406015
0.00195348
0.00582584
0.00584217
0.00587219
0.00595216
0.0015951
0.00578672
0.0058325
0.000865674
0.0109402
0.00341262
0.00227114
0.0057967
0.0031236
0.00584725
0.00528557
0.00595393
0.0021642
0.0030535
0.00596304
0.00595531
0.0025084
0.00579964
0.00171175
0.00274085
0.00583607
0.000854881
0.00582081
0.00169553
0.00220082
0.0058163
0.00726203
0.00219539
0.00141052
0.00596185
0.00582415
0.000420293
0.0011061
0.00595202
0.00205386
0.00520965
0.00583284
0.0024852
0.0101552
0.00252508
0.00582404
0.0100565
0.0058861
0.000645989
0.00584969
0.00641908
0.00583164
0.00586176
0.00583118
0.00206395
0.00594947
0.00550619
0.00421956
0.00373123
0.00646502
0.00585248
0.00663705
0.00479922
0.00460311
0.00593272
0.00266802
0.00586156
0.00601609
0.00144009
0.00581285
0.00606177
0.00567003
0.00596349
0.00592554
0.0146441
0.0045516
0.000539295
0.0140296
0.00217251
0.00594207
0.00595288
0.014203
0.00533384
0.0177627
0.00322237
0.00589411
0.0058683
0.00120245
0.00304238
0.000760878
0.0107166
0.00582093
0.00400925
0.00589375
0.000493761
0.0160097
0.0092314
0.00585426
0.00596215
0.00708967
0.0181645
0.00589505
0.0058685
0.0014954
0.00587241
0.00594628
0.00570747
0.00437559
0.00641638
0.00806601
0.00586193
0.00589237
0.00224315
0.00582058
0.000944385
0.00186652
0.00588514
0.00564923
0.00110935
0.000939064
0.00590618
0.00589593
0.00582461
0.00592426
0.00539827
0.00113086
0.0006793
0.0039087
0.00242195
0.00187731
0.00595876
0.00288428
0.00480312
0.000798152
0.00109971
0.00376396
0.000611833
0.00659098
0.0179847
0.00595779
0.000987669
0.00633727
0.000415444
0.000972784
0.000646079
0.00583605
0.00886832
0.0129666
0.000493188
0.000681378
0.00596224
0.00582313
0.00583523
0.00575005
0.00583521
0.00592173
0.00096017
0.00583937
0.00253283
0.00582535
0.00438761
0.0127309
0.0032252
0.00319714
0.00592256
0.00595765
0.00214765
0.00578221
0.00149682
0.0059199
0.00171825
0.00124844
0.00112757
0.00269753
0.00161794
0.0110601
0.00861123
0.0058304
0.0105322
0.00591716
0.0047816
0.0058268
0.00591498
0.00468206
0.00378167
0.00590862
0.00582768
0.000658267
0.00583027
0.00583643
0.00777649
0.000742746
0.000482782
0.00202701
0.00585317
0.00597589
0.00595925
0.00587337
0.0108899
0.0167109
0.00568634
0.0058474
0.00687836
0.000575141
0.0019641
0.00379326
0.00584631
0.00587464
0.00149524
0.00109024
0.00584656
0.00584664
0.00436517
0.00108192
0.000584277
0.00583677
0.00395963
0.00342017
0.00582448
0.00594926
0.000583865
0.0059297
0.00367906
0.0107656
0.00231143
0.00098987
0.00070519
0.00458466
0.00111813
0.00580506
0.00563641
0.00407273
0.0059421
0.00582115
0.00594461
0.00603368
0.00580745
0.00319166
0.00571927
0.00147891
0.00567537
0.00599095
0.00583948
0.011403
0.000672734
0.00582235
0.00568877
0.00571371
0.000637891
0.00594593
0.00947048
0.00597369
0.00859626
0.0105677
0.00305301
0.00594482
0.0102771
0.00516818
0.00586089
0.00299845
0.00835076
0.00125392
0.000376705
0.00579507
0.00591512
0.010249
0.00597105
0.00089164
0.00109226
0.00963543
0.00603457
0.0014655
0.00595012
0.00589134
0.000837157
0.00593061
0.0020066
0.00164562
0.00593054
0.00646823
0.00379637
0.00222667
0.00586147
0.00558206
0.00190144
0.00587226
0.0109654
0.00586429
0.00102139
0.0192647
0.00584304
0.0012019
0.00757477
0.0177759
0.00584759
0.00651846
0.00345743
0.00593082
0.00593886
0.00218901
0.00590325
0.00541614
0.00127035
0.00582385
0.00689105
0.00584295
0.0007422
0.00583474
0.00584893
0.00595095
0.00583099
0.00113581
0.0116817
0.018222
0.00582372
0.00520951
0.00227545
0.00134599
0.00113972
0.00559069
0.00582177
0.00202839
0.00579385
0.00373257
0.005849
0.00328427
0.00583796
0.00579395
0.00137291
0.00388698
0.00588958
0.00060911
0.00588833
0.00586983
0.0058263
0.00561732
0.000980405
0.00595928
0.000782385
0.0023134
0.00454438
0.000902923
0.00584341
0.00235246
0.00252076
0.00589222
0.000531723
0.00586033
0.0109268
0.000396096
0.000935791
0.00788033
0.0116344
0.000869742
0.00561873
0.00767873
0.00839796
0.0056987
0.00509262
0.0058375
0.0113724
0.0113093
0.00216234
0.00597996
0.00587449
0.0066799
0.000786883
0.000915979
0.0061176
0.00589365
0.00153987
0.00380946
0.00591348
0.000403505
0.00262537
0.000376451
0.00160505
0.00596173
0.00582141
0.00089682
0.00595862
0.0107654
0.00529983
0.00593229
0.00433257
0.00593881
0.00572163
0.00595881
0.00567649
0.00179432
0.00571721
0.00999287
0.00592221
0.00279328
0.000641908
0.00585088
0.00586441
0.00143419
0.00227342
0.0059387
0.00203186
0.00393631
0.00599111
0.00591958
0.00591948
0.00230677
0.00592264
0.00214063
0.00131051
0.00558515
0.00589969
0.0107179
0.00587557
0.0158972
0.00584672
0.00861269
0.00118408
0.0058947
0.00637879
0.0058655
0.00827834
0.00223646
0.00595954
0.0161718
0.00595328
0.00579088
0.00161021
0.00585851
0.00573887
0.00589837
0.00595905
0.000494731
0.0124649
0.00582415
0.00587912
0.000400979
0.0109631
0.00585687
0.0108488
0.00582207
0.00586309
0.00180591
0.00586861
0.00213826
0.00582403
0.00300529
0.00556135
0.00596178
0.000975208
0.00595019
0.00579228
0.00585797
0.0058838
0.00471424
0.00595865
0.002464
0.00747888
0.00358195
0.00596259
0.00102275
0.00565892
0.0102219
0.0117753
0.00563625
0.000718305
0.00580246
0.000803306
0.00119858
0.00588823
0.00585761
0.00373693
0.00580216
0.00600236
0.00232994
0.0166015
0.00377768
0.00585555
0.00583188
0.00585293
0.0019821
0.00577076
0.000569977
0.00881341
0.00581246
0.00241498
0.00110497
0.00605431
0.000841707
0.00567882
0.00464498
0.000521753
0.000373598
0.00583525
0.00552638
0.00580682
0.00585367
0.00576311
0.0017679
0.00577944
0.00587834
0.000669903
0.00587677
0.000599746
0.00948901
0.00152519
0.00586292
0.00399896
0.00596021
0.00593487
0.00582502
0.00909974
0.00100677
0.00513794
0.00595119
0.00580617
0.0179914
0.00595356
0.0059587
0.00589852
0.00596174
0.00331647
0.00376944
0.00439672
0.0173394
0.00594576
0.0021484
0.00583492
0.00762649
0.00584213
0.00583297
0.0059466
0.0058656
0.0116347
0.000686556
0.00583486
0.00211054
0.00295745
0.00227135
0.00584978
0.00208682
0.00246496
0.00574705
0.00597318
0.00236131
0.00596135
0.00267345
0.00583897
0.00547157
0.00395019
0.00592609
0.00588329
0.00560765
0.00141191
0.00433058
0.00595399
0.0039835
0.00112204
0.00116651
0.00365487
0.000815796
0.00595736
0.00245474
0.000411368
0.00104656
0.00130711
0.000963545
0.00182746
0.00109879
0.0011602
0.00584346
0.00563481
0.00201895
0.00586869
0.00383015
0.00244004
0.00160326
0.0100321
0.00583372
0.00584577
0.00405982
0.000994725
0.00583636
0.00218414
0.00591182
0.00134715
0.000723921
0.00410887
0.00588772
0.000785055
0.0102206
0.00495798
0.00582914
0.0058909
0.00582888
0.00354489
0.0187675
0.00586828
0.00493178
0.00583564
0.00593849
0.00716816
0.00589928
0.000807336
0.00564561
0.00396412
0.00231019
0.000731479
0.000391159
0.00564381
0.00475909
0.0013687
0.00591613
0.00576336
0.00591923
0.00180473
0.0136805
0.00580716
0.00444287
0.00204923
0.0043581
0.00163997
0.00584226
0.000823353
0.00583209
0.00596022
0.00480407
0.00321347
0.00594855
0.00711914
0.00851475
0.00148886
0.00592328
0.00182183
0.00582697
0.000833505
0.00582345
0.00587367
0.0059259
0.00311484
0.0058105
0.00593645
0.00365921
0.00229124
0.00167188
0.00594285
0.00595888
0.00150216
0.00341784
0.00148945
0.00599215
0.00534841
0.00394432
0.0060197
0.000698321
0.00585255
0.00591785
0.00586315
0.00583022
0.00215757
0.00582207
0.00244844
0.0151899
0.0116444
0.00598396
0.00124877
0.00381073
0.0059157
0.00253924
0.00593792
0.00280545
0.00763791
0.000647734
0.00781784
0.00587721
0.00582677
0.00207913
0.00581336
0.00595127
0.00584379
0.00213442
0.00265096
0.00584789
0.00593614
0.00564898
0.00177184
0.00777007
0.00112906
0.00605552
0.00596063
0.00363672
0.00492898
0.00583524
0.00147734
0.00466604
0.00585618
0.0059303
0.00261235
0.00590617
0.00486442
0.00579419
0.002746
0.00164291
0.00589883
0.00804444
0.0059332
0.00594498
0.00590681
0.00595076
0.00486424
0.0119745
0.00478485
0.000776419
0.00164595
0.00593707
0.00585896
0.00588031
0.0057314
0.00591289
0.00320761
0.00235573
0.000667583
0.00578551
0.00582492
0.00593046
0.00597059
0.000392017
0.000381091
0.00159637
0.00585859
0.00624252
0.00589739
0.00585297
0.00962328
0.00586641
0.00593463
0.0027049
0.00079618
0.00596221
0.00591285
0.005859
0.0058456
0.00612139
0.00582741
0.00212329
0.00590629
0.000450405
0.00184328
0.000364174
0.00590025
0.00713567
0.0069165
0.00581556
0.00144551
0.00581907
0.00228191
0.00136761
0.00581544
0.00590679
0.000890256
0.00583145
0.00583787
0.00598895
0.00583316
0.00590558
0.00593665
0.00344425
0.00383492
0.00593632
0.00583252
0.0059453
0.0156972
0.00595834
0.00594454
0.00348508
0.00587394
0.00118406
0.0059262
0.00582165
0.00444767
0.0175804
0.00584398
0.0059604
0.00589228
0.0012338
0.0058132
0.00119161
0.00690122
0.00841836
0.000725682
0.00505699
0.00423531
0.00506714
0.00169173
0.00579233
0.00561467
0.0059561
0.00583181
0.00285129
0.00217179
0.00385927
0.000639891
0.0112429
0.00586488
0.00160937
0.00170524
0.0170857
0.00593628
0.0059415
0.010378
0.000724611
0.00134574
0.00598791
0.000639807
0.00596448
0.0057919
0.00510197
0.00591741
0.00596604
0.00333347
0.00173293
0.00580843
0.00415336
0.000800583
0.0010906
0.00768544
0.00586063
0.0059566
0.00585187
0.00199641
0.0110343
0.0109171
0.0113735
0.0109781
0.0017335
0.00595265
0.00583924
0.00236266
0.0022939
0.000455842
0.0059305
0.00587671
0.00550205
0.00794045
0.00590792
0.00136915
0.000691201
0.00669322
0.00589532
0.00122694
0.0059183
0.0058234
0.00590673
0.00588022
0.00922281
0.00584602
0.000932212
0.00116278
0.00427964
0.00587624
0.00584069
0.000557251
0.00500611
0.00574965
0.00401826
0.00579445
0.000501064
0.00541837
0.00549499
0.00133252
0.00114959
0.0058735
0.0016074
0.00128215
0.00579167
0.00592677
0.00111561
0.00592561
0.00595854
0.000650967
0.00585695
0.00596025
0.0027524
0.00206953
0.00390038
0.000446584
0.00186499
0.0180815
0.00109721
0.00723563
0.000856438
0.000940115
0.00128065
0.0204319
0.0047592
0.00584217
0.00590777
0.0118215
0.00593619
0.00236363
0.00727949
0.00592569
0.00571865
0.002157
0.00109023
0.00588771
0.00355948
0.00167904
0.00301623
0.00409525
0.00359514
0.00597027