/*--------------------------------*- C++ -*----------------------------------*\
| =========                 |                                                 |
| \\      /  F ield         | OpenFOAM: The Open Source CFD Toolbox           |
|  \\    /   O peration     | Version:  v2012                                 |
|   \\  /    A nd           | Website:  www.openfoam.com                      |
|    \\/     M anipulation  |                                                 |
\*---------------------------------------------------------------------------*/
FoamFile
{
    version     2.0;
    format      ascii;
    class       volScalarField;
    location    "100";
    object      omega;
}
// * * * * * * * * * * * * * * * * * * * * * * * * * * * * * * * * * * * * * //

dimensions      [0 0 -1 0 0 0 0];


internalField   nonuniform List<scalar> 
54593
(
0.0480741
0.104499
0.0585131
0.118797
0.113856
0.0468872
0.0237283
0.155082
0.130004
0.0311771
0.0249296
0.313839
0.0245365
0.0238489
0.0379912
0.0229427
3.10555
0.0243332
0.0229545
0.301503
0.0255918
0.0256913
0.0609525
0.0244843
0.0233113
0.0329017
0.477608
0.0329775
0.130842
0.0241189
0.145511
0.0729274
0.0228792
2.00413
0.0230283
0.0244348
0.0330469
0.481663
0.637131
0.375442
2.04792
0.025706
0.0243818
0.0244212
0.0236635
0.0265196
0.023762
0.462292
0.493178
0.0257393
0.0236573
0.0240365
0.02502
0.0294152
0.0318452
0.0250358
0.152691
0.0249391
0.100373
0.0242051
0.77618
0.0248111
0.0255576
0.0247921
2.96992
0.287276
0.0244756
2.83245
0.0240212
0.0237378
3.02935
0.0240135
0.0294078
0.0228837
0.0229097
0.0237726
0.723996
0.0252507
2.05565
0.0340619
0.0244767
0.0248604
3.01843
2.80258
0.0242257
0.0240345
0.29687
0.0256507
0.0240565
0.191553
0.0236515
0.0244315
2.83488
0.0248607
0.737771
0.0340774
0.0290546
0.0252986
0.0243696
0.0229776
0.324714
3.20096
0.0248118
0.279416
0.0433857
0.319835
0.0240021
0.0583907
0.0228993
0.0243686
0.0237113
0.0252398
2.93123
0.034902
0.445922
0.0245307
0.024327
0.0264342
0.0408868
0.322927
0.0244636
0.261778
0.0326347
0.0674875
0.0263103
3.13135
0.0241714
0.0430067
2.8598
0.0247291
0.0254321
0.0267763
0.0236048
0.0368455
0.0244298
0.0230377
0.0364162
0.407171
0.0262352
0.836807
0.0245291
0.0239815
0.0243434
3.54227
0.0242199
0.0361761
0.0315586
0.0299833
0.0243669
3.10425
0.0239949
0.125896
0.024612
0.0239842
0.0269518
0.288503
0.187669
0.44061
0.0527782
0.0252428
0.0334009
0.0855914
2.79447
0.0235765
0.305124
0.025172
0.0263461
0.0236192
0.0246377
0.0237263
4.34797
0.0262641
0.0240108
0.0496371
0.0253899
0.0243437
0.0892118
0.0358284
3.58536
0.0235804
0.0229936
0.0256746
2.87342
0.0403615
0.0545916
0.0246797
1.60177
0.0245336
0.0292544
0.0245673
0.405544
0.279329
0.0257445
0.417115
0.233136
0.0249248
0.025305
0.0278884
0.228758
0.0256581
3.00928
0.0320497
0.0265827
0.0476013
4.08544
0.0264086
0.0232115
0.0488569
0.0264172
1.02352
0.0244972
0.325745
0.0462204
0.13537
0.0260894
0.0341126
0.0278361
0.0626788
0.0228708
0.0260604
0.0232119
4.40585
0.0239963
0.471545
0.328191
0.241821
0.0266326
3.31705
0.0625594
2.86627
0.247287
0.0228993
0.0280609
0.0255152
0.0314099
0.024635
0.0263584
0.323635
0.227686
0.0256531
0.0228607
0.0253538
0.0242091
0.0228628
0.0317837
0.0240418
3.46737
0.519327
0.0243658
0.023339
0.247977
0.0246134
0.0574978
0.0239571
0.778688
0.023857
0.456685
3.14491
0.244072
0.0240616
0.0243388
0.0228114
0.1206
0.181538
0.0663021
0.13059
0.0228689
0.0317345
0.024855
0.024455
1.17624
0.534966
0.0239864
0.261916
0.236326
1.59905
0.0246124
0.024493
0.0591092
0.0247578
0.0240699
0.0244439
0.0243782
0.0456376
2.84426
0.0612279
0.0463105
0.0298643
0.229317
0.0246297
0.0242482
0.80443
0.0676762
2.80791
0.072417
0.0245733
0.0351283
0.0241627
0.0296185
0.344859
0.0956446
0.0897812
0.0444813
0.0958216
0.101953
0.225161
3.45875
2.94752
2.20334
2.798
0.0250226
0.0607171
0.031407
3.7433
0.311403
0.0430775
2.84963
0.034011
0.131753
0.0245195
2.89864
0.0754213
0.0242081
0.0451566
0.0240361
0.407996
0.0281166
0.0841948
0.0231802
0.442588
0.252999
0.0229852
0.341904
0.0423299
0.0344362
0.0243555
0.0253839
0.263989
0.0353966
0.0243824
0.0624376
0.912074
3.13314
0.024381
0.0235839
3.84514
0.0245041
0.127563
0.0430487
0.0255724
0.432723
0.0245245
0.136197
0.0252071
0.0418825
0.129075
0.0287365
3.48248
0.0624193
0.0306163
0.341986
0.0445972
2.92551
0.0230491
0.219456
0.0739775
0.026529
0.0228874
0.0241367
0.100973
0.026319
0.495436
0.359274
0.0291848
0.0280413
0.092453
0.143408
0.0301707
0.303387
1.17185
0.0672412
0.129632
2.93369
0.0928508
0.0934
0.0469997
0.0488126
0.0835588
0.0650996
0.0240043
0.0294274
0.0469366
0.339165
0.0436425
0.0236145
0.0248799
0.0333438
0.0248762
0.0242507
0.029162
0.0989584
0.0233999
0.0230197
0.0369452
0.0435453
0.0382238
0.130393
0.0541546
0.460277
0.034536
0.0245596
0.451329
4.27247
0.0264374
0.022777
0.0248691
2.93436
4.63932
0.0334828
0.0253002
3.84136
0.0241213
0.0244623
2.82178
0.0289972
0.036044
0.41001
0.022123
0.0282904
0.0245689
0.129591
0.509656
4.67958
0.0262762
0.361378
0.0229633
0.0253223
0.037291
1.28634
0.031033
0.173953
0.0259451
0.687413
0.0313741
3.46765
0.0386493
0.0363197
0.0375917
0.394318
3.26209
0.0300224
0.0292644
0.0476541
0.0228213
0.101123
0.028199
0.0289876
1.5781
0.0255943
0.0248982
0.391667
0.0228214
0.0256363
0.0252455
0.0368604
0.0510028
0.0584556
3.53486
0.0243713
0.02433
0.179883
0.0491668
0.316148
0.0374984
0.0634475
0.0645774
0.296409
0.0252141
0.0698415
0.0320062
0.0242547
1.6891
0.0911749
0.0422755
3.56713
0.383555
0.0361315
0.0305395
0.0220979
0.0242536
0.0378862
3.12209
0.161388
0.0283825
3.82825
4.76853
0.0373422
0.0299621
0.034644
0.0242646
0.0228514
0.299802
0.0248225
0.024268
0.0227538
0.0248077
0.0322811
0.022906
0.050748
0.444641
0.0247945
0.0260212
0.0245946
0.0239091
0.0234268
0.0264241
0.023038
0.0385932
0.151973
0.0640476
0.0681421
3.80208
3.82764
0.069644
0.144319
0.110972
0.0396647
0.0244767
0.024727
0.0242231
0.0261921
0.14956
0.0245833
0.381454
3.58487
0.0459035
0.134443
0.0382041
0.954226
4.27239
0.0255494
0.0479497
0.024325
0.0445605
0.0248797
0.0242968
0.136144
0.025336
0.0454156
0.0281287
0.0440973
0.0242626
0.0279275
0.113932
0.0383929
0.0255545
2.06898
2.84292
0.0279406
0.0456469
0.463463
0.0235785
0.286282
0.0309365
0.290892
0.0334844
3.58585
0.685156
0.128051
0.0327181
0.0229856
0.0384043
0.0235309
0.0279556
3.59109
0.0247382
0.038152
0.0250304
0.0464072
0.0235346
0.0245561
0.0242137
3.12162
0.254233
0.0235807
3.10528
0.026523
0.312287
0.0486759
0.0269412
0.0378976
0.0276159
0.0455232
0.0877689
0.115389
0.174693
0.0477931
0.556867
0.0242167
0.0440545
0.290196
0.630792
0.025348
0.0233246
2.84734
0.0252015
0.182033
0.0251858
0.190931
0.150726
2.08252
0.0240196
0.633185
0.0264124
0.0312135
2.08094
0.0229689
0.0422642
0.467159
2.26913
0.0264105
0.0254311
0.150166
0.797341
0.0233286
0.410644
0.0279711
0.0265056
0.0236636
1.97443
0.149528
0.02614
0.0248402
0.024393
0.0251266
0.466885
0.0269212
0.0356438
0.0245265
0.249244
3.53359
0.322436
0.0260892
0.0826534
0.048041
0.32109
0.0280817
2.90912
0.03092
0.233481
3.55663
0.0243585
0.0241766
0.0248293
0.0243653
0.0335759
0.0261676
0.0516212
0.278742
0.24747
0.0275392
0.444338
1.84528
0.0311809
0.0239169
0.0280782
0.0268713
0.029021
0.13322
0.207292
0.149974
0.0374396
0.0363375
0.0573969
0.152331
3.49015
2.82731
3.10331
0.741647
0.0785184
0.417891
0.0238998
1.1684
0.313662
0.0253153
0.422569
0.031722
0.0584451
2.92287
0.0278162
0.0291817
0.0241434
0.114072
2.81236
0.0685292
3.59006
0.265111
0.148831
0.0613193
0.0233049
0.0683528
0.0278134
0.343959
0.0349548
0.403015
0.0242002
0.151386
3.22439
0.024383
0.0227874
2.20109
0.15821
0.0322295
0.182211
0.0227873
0.028529
0.0233008
0.0506216
0.0357326
0.0245894
0.0255889
0.0392665
3.78742
0.023071
0.103947
0.101448
0.0399527
0.0228815
0.113102
0.139706
0.0234309
2.25746
3.52209
0.0237859
0.0467557
0.0240242
0.0254482
0.41515
0.0257312
0.0359859
0.172838
1.23947
0.57606
3.89129
0.0242937
2.04807
0.0229113
0.0253802
0.3842
0.0237819
0.0253574
3.44847
0.027789
0.161763
0.0247699
0.302809
4.28824
0.0303185
0.0243908
0.0313386
0.0860274
0.0356719
3.81781
0.0327425
0.0314339
0.0318185
0.542719
0.0822628
0.0246029
3.10117
0.0288306
0.190704
1.53053
0.0238025
0.0262064
0.0265501
0.0253668
0.0663994
0.0322937
0.0367927
0.0247552
0.0238002
0.025194
0.42412
1.02967
0.092049
0.192845
0.116147
0.189058
0.0359129
0.0276943
0.0290071
0.0391411
0.0240411
0.0297445
0.027709
0.0328595
0.0252036
0.127627
1.49747
0.0293634
3.43424
0.0376955
0.0247841
0.0773056
0.786978
0.0340834
0.0224086
0.335641
2.41917
0.0410077
0.128662
0.110047
0.151857
0.0341954
0.335385
0.0248246
0.0251763
3.46633
0.0223214
2.81111
0.0258404
3.43607
0.0243194
0.022661
0.693646
0.0310955
0.0291532
0.0255193
0.0282523
0.0240837
0.0670707
0.0226581
0.0243072
3.82622
0.158888
2.51199
0.0442448
0.226367
3.22729
0.100855
0.0263342
0.435092
4.03444
2.14169
0.140914
0.0667477
0.0454535
0.0230301
0.0279254
0.416735
0.0248093
3.79329
0.368888
1.02677
2.89611
0.0811144
0.0243128
0.0228114
3.73597
0.0240806
0.0576442
0.031574
0.0229172
0.023867
0.137387
0.22327
0.274352
0.989899
0.0305128
0.0250078
0.0255785
0.0288389
0.023739
0.356942
3.14868
3.44971
0.0400497
5.83011
0.0325685
0.0256884
0.0345898
0.339081
4.55254
0.0242425
0.0857765
0.0242894
0.0243574
0.765544
0.0575563
0.0248571
0.519482
0.0221101
0.164447
0.0242939
0.0341773
0.0263209
0.0243471
0.0229052
0.0283636
0.346176
0.321303
0.0302777
0.0349761
0.024081
0.02523
0.0438006
0.0244447
0.0240997
0.0421715
2.50892
4.06572
0.0292065
0.0239438
0.0248584
4.1863
0.0256942
0.0245986
0.064377
0.742773
0.0293205
0.406303
0.0256054
3.01678
0.0284005
2.97437
2.99716
0.0238656
0.0226108
0.0344579
0.0249557
0.0256309
0.291676
0.0272507
0.0228993
3.40031
0.022915
2.86419
0.0240754
0.0240462
0.0247044
0.0298236
0.25209
0.0625059
0.420447
0.0396055
0.0226337
0.0229326
0.0322852
0.0268074
0.0243007
1.15507
0.116356
4.24899
0.0258517
0.637409
0.0262762
0.0240301
0.0320313
0.034283
0.211944
3.63298
0.0267946
0.0277096
0.0305466
0.152237
0.0262225
0.034299
0.024573
0.413693
0.025283
0.0261211
0.0347064
0.0338937
0.0786477
4.20209
0.875756
2.91766
0.0316354
0.522493
0.0236681
0.343066
2.13859
0.0264876
0.025549
0.0444767
0.0226075
0.0248794
0.0226003
0.0351151
0.0265306
0.0243906
0.0239884
0.0226189
5.76452
5.88344
0.0241088
0.178325
0.0243954
0.0360682
0.0247116
0.635756
0.0254406
0.0701494
0.0236806
0.030444
0.104034
2.9954
0.0252324
0.0257979
0.0619338
0.0235864
2.84395
0.0910229
0.0229253
0.355962
0.190639
0.0245696
0.0289368
0.0256518
0.0246523
0.162751
0.145019
1.67646
0.0252553
0.264717
2.86746
0.0237091
0.0255047
0.107176
0.0231276
0.0250616
0.0358061
0.0378429
0.0230038
0.0255249
0.024552
0.0675259
0.0249368
0.0252301
1.48711
0.147335
0.0465089
0.0338319
0.247094
0.0250603
0.0835776
0.30875
0.0379673
0.683915
0.0229045
0.109987
0.0263398
0.233496
0.168189
0.465489
4.22053
0.026009
1.13002
0.261727
0.0243443
0.0240301
0.0240771
0.0248538
0.045703
0.0626572
0.0279541
0.0243726
0.0235765
1.57261
0.063788
2.2858
0.0228962
0.264047
0.407113
0.0229182
0.0510833
0.024375
0.0261916
0.0267903
0.105013
0.0663263
0.434318
0.0228353
0.0243068
0.024635
3.58642
0.0228453
0.0327085
0.0455404
0.0246506
2.42915
0.0239668
0.0253813
0.0305808
0.113972
0.337227
6.50739
0.0241264
3.47133
0.0349667
0.0247429
0.0246601
0.234302
0.030287
0.994265
0.024485
0.0246812
0.0279711
0.0246854
0.0282016
0.0227772
0.0260643
0.0278433
0.0251335
0.0428726
0.0244279
0.0236312
0.0238762
0.0247873
0.131873
0.0329933
0.117886
0.0236176
0.0244964
0.433231
0.0263346
0.0295986
0.0239831
0.0231245
0.0251165
0.0263504
0.0403726
0.113805
0.0259056
0.024016
0.0322054
0.0236555
0.0321593
2.969
0.0340876
0.0251842
0.0246834
0.0290392
0.0397586
0.0297103
0.0272391
0.0241507
0.0238747
0.037109
0.0251327
0.0281339
0.0257074
0.0372199
0.510474
0.262282
0.250606
0.0249957
0.0239735
0.149668
0.0248276
0.0973167
0.0229116
0.504437
0.286243
0.0268533
0.049592
0.0255083
3.55485
0.0251197
0.200737
0.143706
0.243715
0.0313768
0.0253003
0.0248191
0.0243611
0.0235225
0.0244946
0.0233969
0.0255136
0.252187
0.0339572
0.0283601
0.0567301
0.0310518
0.0301242
0.0281385
0.0304223
0.0633887
0.0248235
0.401252
0.103657
0.0305033
0.0248759
0.0253595
0.0619933
0.181034
0.0266328
0.0282595
0.0344395
0.0236336
0.0244142
0.0339293
0.028946
0.0235142
0.0607184
0.0252174
0.0251098
0.807792
0.024804
0.0337697
0.049862
0.0413181
0.270863
0.0243647
0.0342756
0.0256036
0.935754
0.032972
0.0226776
2.82847
0.0229337
0.0279636
0.0241692
0.0259803
0.0268502
0.200676
0.329216
0.0717709
0.0267708
0.0240088
0.0293843
0.0319075
0.397423
0.0251839
0.0671508
0.0345869
3.0046
0.0235744
0.0863061
0.0249942
0.289077
0.0282266
0.0248671
0.142046
0.0245488
0.0221322
0.404503
0.0263331
0.0247707
0.0472816
1.69773
0.0408315
0.0737742
0.0507894
0.0229227
0.0260162
0.695318
0.0295534
0.022955
0.0262644
0.0231788
3.08265
0.0251602
0.0240313
0.0227542
0.0252128
0.0245558
0.414866
0.0246036
0.111404
0.0271441
0.026646
2.07481
0.0252986
0.0281184
0.0806999
0.0262286
0.0379422
0.0241954
0.0246282
0.405431
0.23839
0.0240167
0.025843
0.022694
0.0245154
0.0269661
0.0281135
0.0368668
0.0243744
3.13073
0.0241408
0.0235569
0.495337
4.93005
0.0249761
0.0251777
0.155415
0.0637666
0.0364964
0.0237183
0.0285355
0.0227567
3.59176
0.0282577
0.0240926
0.533218
0.0252467
0.0239667
0.0338563
0.0308357
0.0249788
0.481308
0.0353112
0.0246216
0.0239668
0.0239977
0.0466157
0.025104
0.0235363
2.91611
0.111595
0.0225898
0.0350866
0.317276
0.19356
0.496292
0.0228827
0.0281154
0.0411959
0.348678
0.515726
0.243935
0.0251781
0.0245331
0.444393
0.413977
0.0249164
0.0259221
0.0240894
0.0249518
0.0237577
0.0226017
0.024449
0.0277457
0.0244811
3.0797
0.86805
0.024648
0.0252658
0.0253024
0.0246879
0.0245292
0.0329183
0.0300483
0.0296038
0.0243711
0.407338
0.123694
0.0290043
0.0609459
0.101323
0.0245089
0.303884
0.0478237
0.0594263
0.125371
0.0305752
0.277325
0.0245035
0.335892
0.0237501
0.0496949
0.024444
0.0241836
0.325269
0.028046
0.0237148
2.60575
3.41836
0.0276456
0.0382194
0.0221256
0.0469871
0.150621
0.0251056
0.0252154
0.0244368
0.0249766
0.0237045
0.0253137
0.386093
0.0341861
0.0251458
0.0243775
0.0241086
0.0237874
0.0276239
0.0236915
0.0244298
2.23287
0.0245129
0.0251451
0.0319295
0.0251894
0.0254076
0.103306
0.0241043
0.0699384
3.0441
0.0246709
3.50961
0.0247647
3.24165
0.0252283
0.087422
0.0277769
0.121633
3.03515
0.0259015
0.0688271
0.0223027
0.0236374
0.232712
0.110787
3.09396
0.0244874
0.0309197
0.0326994
0.0269193
0.027667
0.0242437
0.0377801
0.0243368
2.8665
0.0670215
0.0318648
0.0236357
0.0249174
2.85932
0.208909
0.0652717
0.0484875
0.0598141
0.0241932
0.023637
0.0246683
0.353
0.0261942
0.119512
0.024718
0.0244809
0.0307134
0.0250798
0.704439
0.0282073
0.02361
0.025156
0.0477102
0.0247798
4.40147
0.0243278
0.0317499
0.0244323
0.0243054
0.0243817
3.34358
0.0245965
0.0243584
0.0242312
0.290696
0.0266308
0.350848
0.0229488
0.703199
0.102505
0.0717073
0.0242
0.0461258
0.491451
0.0696636
0.0227642
0.0249904
0.0241505
0.0245202
0.0244204
0.0246629
0.024186
0.0256428
3.51286
0.0252179
0.0824576
0.0242546
0.0402263
0.0262339
0.0259432
2.08756
0.0230486
0.0626384
0.0346112
0.0623563
0.0403087
3.07799
0.0327664
0.024825
0.320101
0.124195
3.58132
0.709324
0.0276425
0.0254785
0.0239765
0.0255816
0.0240184
0.270512
0.0343496
3.87639
0.025598
0.0248383
0.405954
0.0251494
0.0236543
2.50534
0.0526787
2.82773
0.0247603
0.108978
0.0241799
0.125498
0.195676
2.50041
0.0317736
0.0228656
0.0239895
0.0716211
1.03119
0.046333
0.0256931
0.0259311
0.0247936
0.0334575
0.0722208
0.0247253
0.135833
0.0240248
0.0243624
0.0428166
0.0402933
0.0529146
0.026566
0.0260018
1.06598
0.0266584
0.0237875
3.1863
2.21663
1.89799
0.0394736
0.0259922
2.79925
0.152942
0.022605
0.0241941
0.406296
0.0244912
0.0317151
0.0240841
0.505734
0.39133
0.0249016
0.0227542
0.062013
0.0246514
0.0262309
0.315225
0.0241863
0.022562
0.0257265
3.43384
0.0247285
0.0241961
0.049129
0.124972
0.0330807
3.55931
0.150271
0.0322717
0.0240802
0.410823
0.0244674
0.0237297
0.0343829
1.93513
0.024875
0.0337972
0.118344
0.104001
0.0246158
2.9367
0.0307895
0.0251886
0.0264441
0.0300916
0.0960406
0.0239765
0.728877
0.297302
0.0237313
0.0226361
0.0386791
0.327192
0.0580828
0.0741222
0.0266438
0.0227
0.0942174
0.0590548
0.319172
0.032136
0.0257026
0.0237339
0.0248307
0.0247783
0.0717905
0.0743282
0.899738
0.0237045
0.0257306
0.0288143
0.046299
0.0267382
0.0286792
3.88135
0.0249955
0.0233107
0.0251337
0.0237069
0.0243797
0.0245282
0.0258842
0.0317042
0.0242328
0.0255763
0.218432
0.0247845
2.82624
0.0249676
0.0241328
0.0241758
0.0240608
0.0261859
1.84155
2.7224
0.0240671
0.0239701
0.0678321
0.025262
0.0223912
0.0316652
0.0259721
3.92326
0.0408528
0.0480472
0.124932
0.0281656
0.331569
0.0297535
0.120399
0.0242515
0.162564
0.0248203
0.175451
0.0227492
0.203942
0.0232771
0.0247231
0.0831366
0.0252786
0.377819
2.81392
0.108266
0.0242839
0.0276066
0.0232756
0.142153
0.0225168
0.0282544
0.0244759
1.73922
0.0246101
0.109594
3.13251
0.0243933
0.0343138
0.0328164
0.0299078
0.0253955
0.0620502
0.0237548
0.024361
2.1516
3.1561
0.022669
0.0243526
0.0243674
0.391536
0.0244228
0.222199
0.0245915
0.0251825
0.022884
0.0265443
4.00812
0.0245162
0.0302005
0.0964598
0.189623
0.0248866
0.0477247
0.0288084
0.0718522
0.786774
0.0237508
0.0233163
0.0231348
0.0277716
0.0239776
0.0410011
0.0334214
0.0332649
0.023544
0.0226053
0.0253094
0.02488
0.0244686
0.0237693
0.0275263
0.40927
0.036952
3.10147
0.28744
0.187492
0.0226253
0.0253495
0.0256428
0.0891753
0.313898
0.0376575
0.0256827
0.0253376
0.419828
0.0609617
0.237853
3.66311
2.8029
0.0263163
0.028037
0.0376327
0.024566
0.0237658
0.0241856
0.0242238
3.26756
0.0220909
0.0242483
0.29214
3.11781
0.0280873
0.0391974
0.0226192
0.213597
0.025195
0.0304779
0.0248973
0.0325168
0.0266184
0.0248136
0.0247897
3.45463
0.0226502
0.0422577
0.0292859
0.0245622
0.298048
0.0240623
0.118579
0.0306659
0.0229107
3.86499
0.0371037
0.0718843
0.0248413
0.0239803
0.128443
1.03317
0.0242245
0.0325612
3.65535
0.0234748
0.0390885
2.81635
0.0282822
0.0238991
2.47057
0.0245865
0.157246
0.0239808
3.41784
0.0242464
0.0245213
0.0234657
0.0328183
0.0244007
0.0266802
0.0753616
0.0330215
0.0416223
0.0238846
0.0421909
3.19626
0.320531
0.0251032
0.0603339
0.0245345
0.025388
0.226557
0.022897
0.0258652
0.0276048
0.02484
0.0242339
0.44226
0.344507
0.105804
0.950151
0.0327123
0.0245541
0.0248072
0.411453
0.0258894
0.460768
0.805208
0.0230458
0.0260164
0.0713824
0.0307949
0.35973
3.15307
0.0229403
4.48335
0.02305
0.18249
0.452386
2.89159
0.023633
0.0248405
0.34064
0.321321
0.0242214
0.0261275
0.0514817
0.0253035
0.024939
0.0282556
0.325522
0.0385658
0.676164
0.0261277
0.0228799
0.195724
0.0238775
0.254331
0.106382
0.0228832
0.0509754
0.445872
0.221605
0.0230713
0.0229002
0.0233806
2.26647
0.0266684
0.194314
0.0900287
0.0276138
0.0306555
0.0527202
0.0254414
0.0291628
0.0255393
0.283735
0.0569375
0.0729907
0.570363
4.15456
0.320377
0.0248137
0.0506684
0.04079
0.117326
0.243539
0.209596
0.0259941
3.50628
0.413774
0.108684
0.152932
0.0249428
0.023371
0.0259484
3.82475
0.0242112
0.0248341
0.225301
0.0237237
0.11482
0.0242254
0.0255126
0.418037
0.0696124
0.027946
0.0248252
0.0242283
0.0330426
0.0264543
0.0998344
0.0244459
0.038906
0.0565684
0.190755
0.0269697
0.0438465
0.877656
3.7015
0.0234841
2.79936
0.024499
0.0297193
0.0243296
0.0240411
0.0259514
0.0469133
0.024126
0.0243306
0.0655451
0.0228749
0.0235505
0.25575
0.376151
0.0993856
0.0447758
0.023881
0.0334673
0.0245606
0.0259386
3.14379
0.453699
0.0277372
0.0241036
3.37967
1.36282
0.0350688
0.0331438
0.0246396
0.0252156
0.0416817
0.348855
0.0227691
0.0223962
0.031488
0.347469
0.150151
0.0242133
0.065255
0.0517636
0.0243948
0.0244428
0.0827706
0.0237344
0.0319611
3.85458
0.0316342
0.835868
0.0913879
3.49793
0.0765975
0.0261716
0.028236
3.47671
0.0245579
0.0242302
0.0249801
0.0258856
0.0232806
0.0280693
0.0280632
0.039781
0.0278711
0.0244411
0.0237311
2.81931
0.0680113
0.0238923
0.0274577
0.0273833
0.742631
0.0249458
3.12771
0.0336869
2.2421
3.10988
0.0591214
0.02468
1.16546
0.0313583
0.0261551
0.0309697
2.59394
0.0667882
0.185646
0.0227133
0.0231124
2.84334
0.0245415
0.0518673
0.0577529
0.35772
0.030176
0.0625603
0.0243896
0.0242111
0.305215
0.023733
0.0408875
0.123405
0.0254084
3.87629
0.0314688
0.0321741
0.0239772
0.040327
0.104006
0.0260337
2.95228
0.026101
0.247483
0.297178
0.0229505
0.0873517
0.69352
0.447954
0.024106
0.97165
0.0478901
0.0254071
0.0236888
0.0479654
0.0239803
3.9405
0.123406
0.0244567
0.337761
0.0229562
0.375295
0.0242424
0.022941
0.024392
0.0241325
0.12508
2.82053
0.448717
0.0244539
3.94947
0.031399
0.0648419
0.112629
0.0281881
0.0242371
0.0394644
0.0227255
0.0357554
0.0229475
0.0278888
0.025429
0.0227331
0.0408829
0.0281561
0.0259182
1.66178
0.0244278
0.0243928
0.0245586
4.41188
0.608062
0.0245267
0.0653594
0.0303942
0.02615
0.269827
0.0253127
0.02817
0.0290798
0.0243577
0.242094
0.024789
0.653116
0.234606
0.258242
3.62147
2.81434
0.0706951
0.0284202
3.39575
2.23026
0.0273741
0.050997
0.0243153
0.412075
2.97639
0.0454959
3.96752
0.024095
3.3643
1.85359
0.219802
0.0298588
0.0247632
0.0504314
0.0256661
0.0241095
0.134169
0.0291576
0.143616
0.049754
0.024825
0.024068
0.164736
0.0246516
0.568485
0.0490459
0.0237594
3.47347
0.0254184
0.0271439
0.0242933
0.0275456
0.0429032
0.0272399
0.560138
0.0252189
0.182226
0.0881529
0.0239726
0.0243871
0.145987
0.0841111
0.0238211
0.0402221
0.0279757
0.0248395
0.0252574
0.0240085
0.082628
0.0242133
0.0326911
0.0665358
4.33329
0.0244878
3.07637
0.0243181
1.71725
0.0238196
2.21605
0.138878
0.0258525
0.623914
0.0244004
3.59885
0.0857953
0.0250899
1.0127
0.0254161
0.0225295
0.081714
0.023787
0.0270078
0.0254331
0.0246877
0.0996542
0.434625
0.0244807
0.0243426
0.135143
3.13537
0.0243108
3.48764
0.0238585
0.0243701
0.0429189
0.0254023
0.118351
0.0244759
3.10488
0.0283557
0.0250454
0.242887
0.0243885
0.0226182
0.0243115
0.0241476
0.0257592
0.0246478
0.030097
3.38567
0.0318376
0.0250133
0.0495804
3.42003
1.12227
2.82402
0.0278804
0.0700417
0.0224915
0.072909
0.0443436
0.0237101
0.023972
0.0318792
0.0226853
0.0260742
3.04666
2.04403
0.0255916
0.0237778
0.0244989
0.0262024
0.0339222
0.0267403
0.207042
2.73607
0.0236201
0.0301885
0.0733854
0.0270677
0.0620721
0.296581
4.31283
0.0847515
0.150284
0.0241876
0.344594
0.0233298
0.0229485
0.0254663
0.045948
0.0369366
0.0243107
0.0915479
0.0243319
0.145408
1.098
0.122256
0.0243725
3.20772
0.0247198
0.0253905
0.0230273
3.71323
0.162212
0.0316095
0.0249175
0.0233229
0.443864
0.0244225
0.0246894
0.0235951
0.0240759
0.0277213
0.0285838
0.0265112
2.04311
0.0253256
0.0323613
0.0245718
3.30081
0.0240395
0.0241708
0.0252113
0.0241705
2.80564
1.67231
0.0242391
0.0377098
2.23387
0.196916
0.0238526
0.0439383
0.0435996
0.0268515
0.0234464
0.0804473
0.0247994
0.243539
0.0239846
0.0289994
0.518835
0.0243547
0.02498
0.0285017
0.050302
0.0390713
0.0251839
1.38368
0.0492035
0.0762326
0.0680973
0.0911684
0.0243497
0.314862
0.117365
0.0579264
0.0831245
0.246014
0.0382169
0.124104
0.060262
0.0240543
0.0278548
0.0954925
0.0229894
0.0629786
0.0376663
0.0422582
2.83812
0.0264683
0.0240552
0.0283648
0.0486172
0.0243088
0.0445754
0.0231029
0.050316
0.395846
0.0320422
0.0243675
0.0665283
2.46118
0.0252042
0.024254
0.0248271
0.022891
0.0282495
0.291652
0.0377585
0.025776
0.0245786
0.0249164
0.330485
0.0239613
0.179687
0.0274158
0.0385661
0.0290769
0.0935474
0.190014
0.64096
0.027499
0.152862
0.0247995
0.0269597
0.0230827
0.0364644
0.438554
0.0225129
0.0261971
0.0349893
0.0259089
0.0387485
0.0241029
0.0729824
0.0244936
0.0247164
0.2738
0.0272325
0.0244155
3.28149
1.06583
0.041446
0.0232424
0.0376836
0.0228808
0.310169
0.0228166
0.0236845
0.0251672
0.0271226
0.0267044
0.0238401
0.0434073
0.0834467
0.121387
0.0251824
0.024656
0.0561835
1.0357
0.0390102
0.0291149
4.6284
0.0609567
0.0258794
0.0638947
0.0249546
0.0244426
0.0258456
0.0241247
0.0342644
0.0227701
0.0280041
0.981506
2.86488
0.0296168
0.0832273
0.241215
0.0233631
0.0295595
0.0247912
0.0548648
0.0473559
0.0724556
0.793242
0.0244965
0.0245573
0.0331845
0.0222261
0.0252393
0.0241068
0.034022
0.0297407
0.0245356
0.0246348
0.0274018
0.0364079
0.341703
0.999346
0.0264007
0.0247104
0.0256926
0.0505621
0.0242162
0.0553234
0.347463
0.0237473
0.0240531
0.0426623
0.0244937
3.28581
0.0221349
0.0540843
0.080222
0.0254338
3.28884
0.0242887
0.0245382
0.0253557
0.024431
3.49306
0.514003
0.0257289
0.221312
0.0399595
0.0243875
0.0239943
0.0244074
0.0269915
0.0233453
2.21831
0.376244
0.151978
0.022085
0.0238744
0.0254435
0.0240789
0.137195
0.183106
0.0378631
0.0237532
3.2725
0.0229438
0.0239293
0.461524
0.0236582
0.0242452
0.0295507
0.176243
0.0248826
0.0252433
0.024376
0.0239331
0.0298853
0.0243487
0.0761498
0.0257869
0.120391
0.106284
0.186589
0.0242268
3.18265
0.373858
0.0235188
0.0642482
0.0227695
0.0314654
0.152982
0.0235144
0.0233354
0.0708144
0.0234983
0.0239698
0.0320428
0.0235065
0.0233672
0.0239093
0.026232
0.0255933
0.024634
0.0242299
0.025133
0.50675
0.0248798
0.0248848
0.0323615
0.0244139
0.0594198
0.0254885
0.0238783
0.23034
1.90975
0.0239228
0.0249892
0.0246047
0.0430569
0.0228908
0.118222
4.19302
3.24663
0.374269
0.0295383
0.0264438
0.0473906
0.100927
0.0225985
0.375024
0.0250095
0.0234918
0.0564444
0.0327952
1.19935
0.144279
3.00434
0.0243843
0.0405867
0.0392989
1.89037
0.0249059
0.0249271
1.15065
0.390509
0.22462
2.52663
0.0659949
0.0315266
0.0225681
0.0318786
0.0256637
0.0234819
0.026265
0.114108
0.0267329
0.0256368
0.225196
0.19202
0.772939
0.0239813
0.0244475
0.0239142
0.0541186
3.14263
3.31989
2.94236
3.00937
0.0365609
0.024648
0.0239786
0.0469507
0.0833461
0.0980917
0.0255286
0.0229046
0.0251286
0.67586
0.0225612
0.0981539
0.446943
0.0417915
0.0254534
1.27022
0.0254997
0.0227858
0.0257842
0.024625
0.68806
0.0227447
0.0994102
0.160605
0.0256773
0.0229073
0.0263787
0.801042
4.31934
2.27628
0.0255593
0.0227069
0.106287
0.0536515
4.27429
0.0591334
0.0563673
0.0259911
0.0838889
0.119977
0.0225927
0.0242076
0.439029
0.0248233
0.0246602
0.586192
0.0242923
0.0246015
0.0282071
0.0331934
0.0358384
0.108377
0.135262
0.338406
0.0784178
2.7365
0.185601
0.0562388
0.100918
0.500366
1.38916
0.0227332
0.0239935
2.8568
0.0250028
0.0485473
3.6512
0.025499
0.0272235
0.0295489
0.080131
0.0230284
2.39775
0.0465706
0.082566
0.0273776
0.0256694
0.0235416
0.0251368
0.0243098
0.02463
0.0233766
0.0264427
0.0244004
0.0260274
0.0225227
0.0722727
0.403791
3.98324
0.554664
0.0234037
0.103774
0.0388361
0.0258241
0.0230353
0.0239247
0.0243405
0.0517801
0.0484845
0.0466651
0.0341668
3.99168
0.0343621
0.0244785
0.0323533
0.0248603
0.0233725
0.0616371
0.198201
0.0273434
0.388043
0.0250552
0.0243807
0.0278933
0.0255577
0.0260798
0.0277109
0.116606
0.0288576
0.0472026
0.027612
0.071682
0.149802
0.0243946
0.0992981
0.0229219
0.0260825
0.0242208
0.0365408
3.30196
0.0248202
0.0369329
0.0674368
0.0260148
0.0242558
0.0432794
0.0276994
0.474472
0.0246575
0.0392624
0.0466841
3.1454
0.46633
0.0258957
0.0274197
3.18258
0.0385108
0.0241003
0.02455
0.0438226
4.43756
0.0261937
0.0260456
0.0250989
0.0239399
0.0345304
3.27499
0.126741
0.0225357
0.024723
0.0254087
0.0252686
0.0328031
0.0239007
0.117853
0.0235558
0.0236599
0.0237039
0.02585
0.0236121
0.0633832
0.0228481
0.0656779
3.47808
0.0226118
0.0249045
3.17553
0.137014
0.0502133
0.0278546
0.138847
0.256143
0.153492
0.0254957
3.11341
3.02189
0.0301491
0.0620994
0.0240085
3.72078
0.185931
0.024566
0.504467
0.0239171
0.0251232
0.0241744
0.0466383
0.0242093
0.122608
0.0293514
0.0268148
0.0263858
0.0228585
0.0339343
0.0762554
0.0358416
3.84237
0.115156
0.0235386
0.0497042
0.026415
0.0381455
0.524324
0.0280677
1.96288
0.509831
0.0228421
0.0268225
0.0269329
0.226394
0.0230785
0.0257925
0.0551663
0.0288232
0.127912
0.115452
3.93619
0.0259397
0.109672
0.0274483
0.182024
0.0245252
0.022832
0.434581
0.0437982
1.25607
3.82113
0.023025
0.0230588
0.0278489
2.70567
0.0608372
0.0481564
3.0786
0.409075
0.0685911
0.0642926
0.0291528
2.8996
0.19894
0.0563268
0.074141
0.0251556
1.02442
2.8338
0.0682651
0.0679952
0.0241189
0.0254446
0.224284
0.0239744
0.053364
0.227791
0.0230473
0.0239413
0.116619
0.0229025
0.235454
0.0319286
0.0349791
0.047351
0.024242
0.0261227
0.0937752
0.0250597
0.0624513
0.0242069
0.0243864
0.0231014
0.0576359
1.11756
0.0249075
0.0415527
3.89465
0.0239638
0.0222874
0.0421673
0.0266215
0.0238686
3.22316
0.0261878
0.0289856
2.95318
0.0250638
0.0258867
0.126629
0.0247301
0.0262262
0.0245672
0.0242918
0.0238968
0.254654
0.283178
0.199758
0.0243014
0.0242897
0.065981
0.738691
0.0251447
0.323722
0.0231941
0.0249315
0.288732
0.0258415
0.0221306
0.0543439
0.0465619
0.0976292
0.0249784
0.128332
0.0358425
0.0254552
0.161088
0.0245474
0.0561634
0.0323132
4.05338
0.0246316
0.0246346
2.93946
0.0437372
0.0243884
0.0571616
0.0224953
3.47601
4.63258
3.19589
3.0898
0.124724
0.05407
0.309671
0.0254377
0.245684
0.0251507
2.97969
0.0241614
0.0226441
0.04941
0.0980705
0.0365867
0.298429
0.0225188
1.97967
0.266524
0.0241449
0.0526802
2.93197
0.027638
3.71182
0.0402489
3.13771
3.24827
0.0238862
0.0699385
0.0248836
0.0379791
4.26479
0.0267022
0.0333046
0.288017
0.0244848
3.61667
0.0266518
0.0236811
0.49461
0.987516
0.0243506
0.373074
0.0716514
0.0242476
0.0311502
0.0727155
3.40946
0.0240602
0.084179
0.0370115
3.30808
0.0610956
0.59058
0.0918348
0.0354972
0.0241428
0.0328658
0.0256371
0.026238
0.0260833
0.0365943
3.93161
1.00012
0.38293
0.0225276
0.0457651
0.107965
3.15564
0.0583704
0.0264092
0.0249766
2.40167
0.0421454
0.0248221
0.023913
0.025863
3.78961
0.024881
0.0241467
0.0254857
0.0239425
0.0243287
0.0241578
0.030325
2.96899
0.025566
0.0444964
3.05496
0.0580392
0.0278922
0.0242221
0.0236807
0.0249147
0.0588553
0.412137
0.0244866
0.0266676
0.0251841
0.296345
0.987115
0.480851
0.0278872
3.28225
0.0342858
0.0268169
0.0235486
0.555401
0.122599
0.287192
0.0249595
0.0631128
0.023542
3.60769
0.34883
0.0246282
0.0241136
0.302642
0.0242731
2.92651
0.0369898
0.301532
0.0250821
0.0390804
0.0572738
0.215544
0.0258979
0.023721
0.0225491
3.85594
0.024192
0.0983011
0.0242843
0.0248586
0.0244685
0.0243345
0.0425723
3.21187
0.263853
3.67741
0.0259854
0.0492211
0.0279211
0.0276449
4.09386
0.0555289
0.0238203
3.12926
2.84211
0.0244302
0.0246687
0.0232722
0.0245883