/*--------------------------------*- C++ -*----------------------------------*\
| =========                 |                                                 |
| \\      /  F ield         | OpenFOAM: The Open Source CFD Toolbox           |
|  \\    /   O peration     | Version:  v2012                                 |
|   \\  /    A nd           | Website:  www.openfoam.com                      |
|    \\/     M anipulation  |                                                 |
\*---------------------------------------------------------------------------*/
FoamFile
{
    version     2.0;
    format      ascii;
    class       volScalarField;
    location    "100";
    object      p;
}
// * * * * * * * * * * * * * * * * * * * * * * * * * * * * * * * * * * * * * //

dimensions      [0 2 -2 0 0 0 0];


internalField   nonuniform List<scalar> 
54593
(
0.00311568
0.00293252
0.00301138
-0.0340043
-0.0376012
0.0032235
0.00478066
-0.0325314
-0.0399955
-0.029747
-0.0032365
-0.0246824
0.00276594
0.00469663
0.00381693
0.00322776
-0.014373
-0.000990064
0.00324596
-0.0301296
0.00788646
-0.000962828
0.0004598
0.0063391
0.00378413
-0.0372688
-0.00678604
0.00371404
-0.00677185
0.00321762
0.0114197
0.00442607
0.00340545
0.0351639
0.00372071
0.00626334
-0.0422014
0.00362415
-0.0549527
-0.0332812
0.0415394
0.00371329
0.000473979
-0.00278252
0.00460023
0.00891676
0.00488385
-0.0103791
0.00202065
-0.00100715
0.00457987
0.00563785
0.00709456
-0.0362736
-0.0222665
-0.00333541
-0.0328484
-0.00516888
0.00216457
0.00315597
-0.059395
-0.00186954
0.00317218
-0.00154103
-0.0173742
-0.0303776
-0.00510965
-0.0228454
0.00560354
0.00480415
-0.0175576
0.00395867
-0.0359037
0.00342035
0.00335646
0.00490258
-0.0135206
-0.00994115
0.0413292
-0.0411365
0.00630771
-0.0113709
-0.0174999
-0.0219505
0.000282875
0.0055989
-0.0272465
0.00794819
0.00564484
-0.0300045
0.00498148
0.00625637
-0.0229209
-0.0115999
-0.0279171
-0.0311427
0.0101183
0.00362459
0.000502112
0.00357194
-0.0170767
-0.0239088
-0.00163217
-0.0338649
0.00590344
-0.064469
0.0039315
-0.037366
0.00347774
0.000228045
0.00509575
-0.0101038
-0.0180055
0.0131036
-0.0123572
-0.0052324
-0.000897407
0.00877953
0.00566898
-0.0173668
0.00631387
-0.0342068
-0.037023
0.0105702
0.00336309
-0.014208
0.00447426
0.0107154
-0.0238111
-0.0105612
-0.0079371
0.00713068
0.00488375
0.0124519
-0.00284903
0.00373423
-0.0352522
-0.065866
0.00318753
-0.0291436
-0.00529574
0.00309881
-3.96221e-05
-0.0139416
0.000302268
0.0119161
-0.0089669
-0.0130355
0.000105888
-0.015058
0.00325114
-0.00412132
0.00252973
0.00553019
-0.0294151
-0.027391
-0.0301418
-0.0136966
0.00302175
0.0034331
0.00270793
-0.0509388
-0.023535
0.00446676
-0.0295148
-0.0102902
0.00868261
0.0049287
-0.00813383
0.00512048
-0.0366145
-0.00186503
0.00326512
-0.0251527
-0.00795316
-0.00012093
-0.0335817
0.00937596
-0.0137853
0.00448581
0.00363296
0.00632826
-0.0275276
0.0144991
0.00319944
0.00256495
0.0238051
0.000676796
0.0102176
0.00274041
-0.0282307
-0.0344794
0.0038177
-0.0169702
-0.0293565
-0.00524735
0.00350429
0.00784956
-0.0288597
0.00630075
-0.0707378
0.00361947
-0.000234683
-0.0393523
-0.0126384
0.00380868
0.00181254
-0.0393316
-0.0036423
0.0259342
-0.00483879
-0.0243189
-0.0289003
-0.00302328
-0.00453625
0.00938273
-0.0202299
0.00302073
0.00336794
-0.00463767
0.00183946
-0.0357041
0.00399785
-0.0499872
-0.0116142
-0.0270946
0.00689917
-0.0734237
0.0163324
-0.0241419
-0.0178913
0.00349291
-0.00433745
0.00776358
-0.0297894
-0.00797554
0.00366319
-0.0126141
-0.0294242
0.00401944
0.00334615
0.00231279
0.000170607
0.00333108
-0.0225555
0.00383674
-0.0161587
0.000456129
0.0032045
0.00378783
-0.0273003
0.00252146
-0.0371254
0.00194145
-0.0334811
0.0047433
0.00601618
-0.0697854
-0.0270917
0.00286709
0.00610616
0.00319882
-0.0342488
-0.0132563
0.00546083
-0.040675
0.00338329
0.0104017
0.00364963
0.00245642
-0.0704963
0.00350486
0.00398518
-0.0308458
-0.0279477
-0.0290426
0.00269003
-0.00477399
-0.0319165
-0.011244
0.00288218
0.00301173
0.00322095
-0.0404837
-0.0235122
0.0100852
-0.041383
0.0101256
-0.0302135
0.00252236
0.00315659
-0.0356115
0.0227823
-0.0222283
-0.0195328
-0.00476575
0.00655715
0.00439902
0.0099336
0.000147896
-0.0342881
-0.0327898
0.00391459
0.00553032
-0.024707
-0.0307649
-0.0179816
-0.0254812
-0.103853
-0.0196851
0.00712991
0.00977696
0.0102748
-0.0153475
-0.026942
0.014876
-0.0241247
-0.00316964
-0.033749
0.000549657
-0.0287444
-0.0470079
0.000461391
0.015148
0.00384605
-0.0194729
-0.00173387
0.00420828
0.00404841
-0.0327913
-0.031291
0.00361708
0.000347518
0.0034204
-0.0416976
0.000672396
0.00739418
0.0014462
0.011121
0.0061865
0.0170373
-0.0439647
-0.0137738
0.0061913
0.0043319
-0.0145205
0.000603743
0.00402545
0.0103098
0.00421095
0.00686961
0.000909202
0.014883
0.00343922
0.0147955
-0.0402097
0.0101521
-0.0173814
0.0222749
0.0066698
0.000366966
0.00336486
-0.0259966
0.00302075
0.00173332
-0.0472295
0.00639136
0.00128967
0.00419361
-0.0229613
0.00866259
-0.00341711
-0.000314988
0.00670277
-0.00185813
-0.0339621
-0.0415324
-0.0129401
-0.0274766
-0.00406056
-0.0310998
-0.02749
-0.0251166
-0.03353
0.00351027
-0.0289922
-0.0388936
-0.0319642
-0.027041
0.00556236
0.009795
0.0121731
-5.51134e-05
0.0125706
0.00490986
-0.0125058
-0.0422969
-0.0122846
0.000311398
0.00959351
0.00299389
0.00457603
0.00312365
-0.0353714
0.0125351
-0.0465308
-0.0337251
0.021905
0.00759765
0.0131053
-0.00443653
0.00693023
-0.0261463
0.00320727
0.00309162
0.00355736
-0.0183077
-0.0127571
0.00645353
0.00730838
-0.0762111
0.00324483
0.00632023
-0.0650439
0.00810966
0.00636011
-0.023787
7.22827e-05
0.00669765
-0.00455823
-0.0264911
0.00175581
-0.0376143
0.00857154
-0.000624128
0.00349274
0.00387797
0.00289685
-0.0209107
0.00489699
-0.0352458
-0.0105233
-0.0325547
-0.0246965
-0.0175987
0.0141129
0.00268236
0.0123111
-0.0261855
-0.021717
0.00489578
0.00666223
-0.0398442
0.00325053
0.00429185
0.00671874
0.00811919
-0.0729076
0.0029481
0.00146272
-0.0271367
0.00323484
-0.000196343
0.00146862
0.00289978
0.00674843
-0.0315698
-0.0152419
-0.0030736
-0.000109182
-0.03487
0.00846076
-0.0241888
0.0121743
0.0188008
-0.0267045
-0.0266534
0.00363469
-0.0311589
0.00265781
0.00544619
-0.0341642
-0.00366723
0.00857623
-0.0158695
-0.0268858
0.00628176
0.00969854
6.55007e-05
0.00301296
-0.0459931
-0.0289829
0.0161372
0.00728214
-0.0225572
-0.0304008
0.00614453
0.0106189
0.0132521
-0.00189487
0.00125749
0.0348725
0.00681974
-0.00197483
0.00302199
0.00353366
0.00675199
0.00338337
0.00665662
0.0137434
-0.00801954
-0.00410035
0.00270959
0.00454524
0.0046161
0.00879227
0.00314933
0.0143048
-0.0459145
-0.0309831
-0.0312701
-0.0226599
-0.0145277
-0.0309339
-0.00629887
-0.0366003
0.00386448
-0.00508734
-0.0105445
-0.00128003
0.00636634
-0.0455256
-0.00490737
-0.027799
-0.071454
0.0153493
-0.00603839
-0.0257281
-0.0209499
-0.0255065
-0.000720659
0.0132686
-2.80721e-05
0.0132349
-0.00516372
-8.72529e-05
-0.0407258
0.00361996
0.00689627
-0.00538526
0.0130957
0.00303533
-0.0201525
-0.00517471
0.013812
0.00420982
0.044799
-0.0632953
0.00412023
-0.0410068
-0.0128734
0.00436833
0.0475279
0.00665985
-0.0267448
0.0128994
-0.014792
-0.0261301
0.0136112
0.0117261
0.00288397
0.0048781
0.00473273
0.00390696
-0.0158845
0.00445368
0.0138661
-0.0052233
-0.0418991
0.00472999
0.00258658
0.000436191
-0.0280827
-0.032063
0.00438488
-0.0140836
0.00422519
-0.0242145
0.00684397
0.00148486
0.0048641
0.00145935
0.012108
-0.0507242
-0.0393303
-0.0465672
0.0132208
0.0158031
-0.00121173
0.0149678
0.0480431
-0.00072146
0.00176708
0.00442427
-0.0398982
0.00597991
-0.0143297
-0.0183885
-0.0158403
-0.0467148
0.0433079
0.00552961
-0.00133105
-0.010366
0.00697669
0.0425435
0.00356188
0.00915524
0.00730543
-0.108708
-0.0106537
0.000533004
-0.0480381
-0.0432849
0.00442282
-0.0472933
0.00155741
0.00436813
0.00500636
0.0341233
-0.0472576
0.00748648
0.00403655
-0.0015448
0.00425877
0.0211596
-0.0075983
0.00682499
-0.0059781
-0.02682
-0.0147756
-0.0144261
-0.00881089
0.0178455
0.0071017
-0.014635
-0.00839804
-0.0240414
0.0066014
-0.0287853
-0.017018
0.00613993
0.000368498
-0.00197492
0.000656079
0.0130583
-0.00879411
0.0115783
0.000232466
-0.0267828
-0.00610456
0.0194058
0.0473712
-0.0248118
0.00460442
-0.00800952
-0.0290015
0.00627685
0.00925905
-0.0198417
-0.0442908
0.00352761
0.011925
-0.0477939
-0.0440023
-0.0132074
-0.0774743
-0.0282714
-0.048751
-0.0470855
-0.0117559
0.00320163
-0.00188192
-5.32486e-05
0.00163187
-0.0115987
-0.000161449
-0.0312528
-0.0198405
0.00132261
0.0106668
0.00445098
-0.0379848
-0.0622569
-0.0268245
-0.0178119
-0.0283146
-0.0486928
-0.0206182
0.0043989
-0.0265149
0.00806531
-0.000611896
0.0132609
-0.0259987
0.000209666
-0.0067693
-0.0251874
-0.0014362
0.00314514
-0.100854
-0.0454552
0.0123772
0.00147167
0.0031292
-0.0041407
0.00439129
0.0109032
0.00733361
-0.00646889
-0.000817886
0.0144868
-0.0251694
0.00303263
-0.03466
-0.0377553
0.000500075
0.00282133
-0.0392475
-0.0408216
0.00462659
-0.105928
-0.0178513
0.00469275
-0.0245189
0.00553721
0.00339246
0.0047542
-0.0175321
0.00499097
-0.0457547
-0.0590792
0.00308353
-0.0150115
-0.000170681
0.0408455
0.00352748
0.0033586
-0.0260474
0.00471946
0.00728211
-0.0202885
0.00791364
-0.0452727
0.00303328
0.0343362
-0.035874
0.00680146
0.00117493
-0.0312846
0.00263406
0.00501142
-0.0148912
0.00663917
-0.0204247
-0.0088552
0.00361971
0.00241153
0.00427031
-0.0288877
0.00503322
-0.0146883
-0.0833002
0.0044133
0.00637899
0.000946901
0.00340673
-0.0263009
0.0124235
0.00226009
-0.0112229
0.00442973
-0.0102926
0.00724637
-0.0789039
-0.0339079
-0.0297073
-0.0341543
-0.0299717
0.0115804
-0.00593941
0.00505477
0.0145913
0.00312757
0.00922083
-0.00554436
0.0066019
-0.0189803
0.0145282
0.0487951
0.0067089
-0.0187602
0.00934127
-0.0119037
-0.0473427
-0.0203726
-0.0315527
0.000119318
-0.00216206
-0.130717
0.00158203
-0.0399377
0.012614
-0.00916208
0.00162456
-0.00241587
0.0046817
0.00362557
-0.0215579
9.28536e-05
-0.0636129
0.00374165
-0.0157993
-0.000976611
0.00260787
0.00100881
-0.0311919
0.00674578
0.00376164
0.00308202
0.00383569
0.0098518
0.00261383
-0.0013173
-0.0145741
0.0137215
-0.103471
-0.0168654
-0.0309185
-0.0212318
-0.0348242
-0.0107003
-0.01615
-0.0255871
0.0187469
-0.00807683
-0.0267213
0.00624286
0.00290324
0.00800533
-0.0136735
-0.00817694
-0.0143021
-0.0234745
-0.0607791
-0.0251145
-0.0317308
-0.000891131
0.00321311
-0.0148698
0.00097323
-0.0234201
-0.0219057
0.00290974
0.00352855
-0.00705481
-0.0314653
-0.0276997
-0.019942
0.00668663
-0.00532419
0.0027616
0.00615769
0.00471128
-0.00181371
-0.0253109
-0.0184368
-0.0134213
-0.0220768
0.0115901
0.00372591
0.00975174
-0.000300074
-0.00480546
-0.000794243
-0.033088
0.00378548
0.00105836
-0.0107471
-0.0309464
0.00352785
0.00182325
8.62266e-05
-0.0469856
0.00376453
0.0131263
0.00545113
0.00107643
0.00270535
0.00314835
-0.000787779
-0.0145063
-0.0124122
-0.0280608
0.00386236
0.0042525
-0.0167513
0.00302421
0.00309083
0.0105386
-0.101259
-0.0257619
0.00912276
0.00445363
-0.00688882
-0.0743072
-0.0173997
-0.00518769
-0.0313212
-0.0316395
0.00952035
-0.023235
0.00254213
-0.0156286
0.0066664
-0.0389455
-0.0175617
0.0034747
0.00248284
-0.00291964
-0.000184612
0.00274002
-0.0043098
-0.00719891
0.00286304
-0.0198385
0.00288153
-0.0790619
0.000994493
0.00560936
0.00534666
-0.0144342
-0.0266005
-0.0267688
0.00891118
-0.0133716
0.00255272
0.002933
0.00495318
-0.00196378
-0.0012385
-0.000528897
-0.0340213
-0.025022
-0.013512
-0.0450611
-0.0203924
0.0055655
0.00495929
0.0132699
-0.010148
-0.010438
0.00507512
0.00799335
0.00674636
-0.0446166
-0.0231191
0.00270308
0.00256859
-0.0151573
0.000484944
0.00561059
-0.019467
0.00897335
0.0103231
-0.00502239
-0.0200446
-0.0688227
-0.0214276
0.00499567
0.00502066
0.0372441
0.0203396
0.00791233
0.0029839
0.0049613
0.00248676
-0.00190354
0.00246483
-0.0194555
0.00639626
-0.000950451
0.0041189
0.00254628
-0.0245736
-0.00219174
0.00308784
-0.0442687
-0.00378126
0.0118233
0.00321649
-0.0203431
0.00191215
-0.0192993
0.00501192
0.00790585
0.0120676
-0.0193967
0.00565497
-0.0135438
0.0216365
0.00434913
-0.0413432
-0.00227977
0.00339777
0.0386966
-0.0351397
0.000462259
0.0102952
-0.00060341
-0.00821214
0.00954883
-0.0341454
-0.031494
-0.0109744
-0.0333614
-0.0237472
0.00481413
0.00193687
-0.0367936
0.00398596
0.00409925
0.00885837
0.00912419
0.00290788
0.00211124
0.000465087
0.0107019
-0.000198362
-0.0107684
-0.0204345
-0.0337316
-0.0301984
0.0130443
0.0396201
0.00565215
-0.0321173
0.000492905
-0.0151374
-0.000696448
0.00335777
-0.0436149
-0.0110066
-0.0280724
0.00796722
0.00605471
-0.0253821
-0.00924708
-0.0204466
-0.0260794
0.00590818
0.00559831
0.0028448
-0.00222888
-0.0301392
0.0109619
-0.0166636
-0.00306583
0.00441562
-0.02546
-0.0270606
-0.0928396
0.00284086
-0.0345873
0.0120784
0.00337083
0.0129593
-0.0017092
-0.00326554
0.00522885
-0.0370457
0.0109026
-0.0367879
0.00328016
0.00587287
0.00370768
-0.0174103
0.00330083
0.0115035
0.0123424
0.00374227
-0.130031
0.00420174
0.00735276
0.00674833
-0.00700282
0.0374561
-0.00265854
0.00440931
-0.0123558
-0.0285135
0.00598353
-0.00839056
-0.060288
-0.0231128
0.0163261
0.00394938
0.00595725
-0.0170665
0.00298316
-0.0205345
0.00310655
-0.00921757
-0.0025
0.0057591
0.00382956
0.0025899
0.00494959
0.00486653
0.00425847
-0.00501445
0.00154494
-0.0343988
0.00425395
-0.00525768
-0.0336193
-0.0204928
0.0106789
0.00417172
0.00397217
0.00602531
0.00320337
0.00586049
-0.034112
0.00632751
0.00180277
0.00158641
0.0048086
0.00144775
-0.0396519
-0.0259034
-0.0179651
0.00348141
0.0094595
0.00773245
0.00936572
-0.00756903
0.000688362
0.00484829
0.00892234
-0.00954287
0.00468112
0.0039104
-0.0270124
-0.00360921
-0.0315479
-0.0272394
-0.00597403
0.00249233
0.00996693
0.00325142
-0.0487596
0.00351609
-0.00108661
0.0326755
-0.00895108
0.010762
0.00769712
-0.0178123
0.00410962
-0.0500668
-0.03467
0.000801854
0.0112839
0.00342118
-0.00424218
-0.00333009
0.00473842
0.00208743
0.00456852
0.00347077
-0.0269254
0.0131999
0.00525524
-0.0474349
-0.0317204
0.00781111
0.00446345
-0.0124419
0.0198258
0.00336176
-0.00369404
-0.0346991
0.00962304
-0.0128772
-0.00408282
-0.0271573
-0.0121491
0.00475861
-0.00750502
-0.0262506
0.00478227
0.00249007
0.0117778
0.0105046
0.0047172
-0.0268951
-0.00453235
0.00603898
-0.0288821
-0.00433339
0.0118057
0.0120281
-0.0112156
0.0321161
-0.00160378
-0.0200692
0.00779193
-0.043228
0.00190772
0.00268916
-0.0853851
0.0034132
-0.00234841
0.000662959
0.00344638
-0.00865853
-0.0492572
0.00306096
-0.0311046
0.00539411
0.00183429
0.00933389
-0.00830141
-0.00274717
-0.0183439
0.00984394
-0.0200498
-0.0166788
0.00440514
-0.032411
-0.00614242
0.00431581
-0.00409689
0.00407142
0.0171911
0.000631582
9.00271e-05
-0.0270493
0.00215702
-0.00424061
-0.0498491
-0.0715874
0.0146721
-0.0311195
0.00634066
0.00272066
-0.00363003
0.010778
0.00501458
0.00347576
-0.0113774
0.00404238
-0.028648
-0.0176745
0.00304847
0.0030372
-0.00382576
0.00427239
-0.0145642
0.00646446
-0.0432657
0.00538682
0.00461487
0.0453107
0.00604015
-0.011619
-0.0326511
-0.0113081
-0.0156571
0.000336083
-0.00795317
-0.0223024
0.00147461
0.00313863
0.00327919
0.00282566
-0.00573859
0.00566606
-0.0166238
-0.0268735
-0.00351078
-0.0143092
0.00149016
0.00410366
-0.00456976
-0.0139983
-0.00551836
-0.00488355
0.00209459
-0.0315822
0.00990066
0.00466338
0.00741591
0.00253374
-0.022663
-0.0115865
0.00082393
-0.000257374
-0.00446745
0.0049874
-0.0206672
-0.0316392
0.00540368
0.00112559
0.0047957
-0.00782479
0.00499573
0.00190584
-0.0404433
-0.00957038
0.00409372
-0.0267518
-0.0341129
0.00243562
0.00482077
0.0154258
-0.0346782
-0.00109088
0.00332304
-0.01629
0.0148315
-0.0238205
-0.00412645
0.0016301
-0.0187327
0.00596698
-0.013483
-0.0171552
0.00692148
0.00357685
0.000910024
0.0069844
0.00506599
0.00248392
-0.00467845
0.00529492
-0.00511432
-0.0298519
-0.0331115
-0.0081931
0.00167397
-0.00410773
0.00276089
0.00595055
0.0115011
-0.014397
0.00498757
0.00617361
-0.0242545
-0.00677268
0.0106437
-0.00885805
-0.0343642
-0.0056221
0.000369069
0.0119977
-0.00912047
-0.0400661
-0.0320668
-0.0456717
-0.00537819
-0.000268023
0.00503937
-0.0247281
-0.00458193
0.00031839
0.0146726
0.00606386
0.00462434
-0.0443751
-0.0197377
0.00812025
-0.0261157
8.54538e-05
0.0120818
-0.0100581
0.00140209
0.00583142
0.00627844
-0.00572026
0.00460877
0.00405241
-0.0250424
-0.0206571
-0.0143037
0.00430325
0.00215071
0.00447048
0.00507734
0.00503949
0.00434843
-0.0895575
0.000296375
-0.0140681
-0.000357181
-0.00433813
0.00176207
-0.0343841
0.00208455
0.0236215
-0.0156282
-0.00855632
-0.0184947
-0.00720731
-0.0238407
0.00150519
-0.0333718
-0.00297248
-0.0386981
-0.0161533
0.00332114
0.011566
0.000167765
0.00495207
0.0257379
-0.036589
-0.0191502
0.00630751
-0.0244161
0.0125449
-0.00796187
-0.00312415
-0.000776726
0.0108075
0.00611444
-0.0861394
0.00934609
-0.017001
0.00421644
0.0042688
-0.0234186
-0.017078
0.0192147
-0.0250828
0.0110366
0.000977276
0.0042013
-0.0084052
-0.00412376
-0.0222089
-0.0358082
0.00203338
0.000243115
-0.0244933
0.00121784
0.00469165
0.0066722
0.00491299
-0.0043671
-0.0244906
-0.00760003
-0.109747
0.0039884
0.00422321
5.00071e-05
0.00396825
-0.00359111
-0.0210283
-0.00657791
0.00613789
-0.00113857
-0.0686069
0.00729118
-0.00429235
0.00345347
0.00535008
-0.0351877
-0.0177961
0.000962092
0.00632058
-0.0018988
-0.0299298
0.00285711
0.00707332
0.00421078
-0.00585873
0.00624443
0.0024018
0.00111092
0.00226936
-0.0206461
0.00733917
-0.0323321
-0.00179632
0.00767573
-0.00771428
-0.00363226
-0.085072
0.00292785
-0.0314654
-0.0290359
-0.0212949
0.0152458
-0.0143238
0.0127013
0.00685012
-0.00131623
-0.0351019
-0.022828
-0.0358661
0.00824901
0.00421605
0.00439142
0.00312406
0.00390047
-0.0461678
-0.0320766
-0.0148324
0.00331492
-0.0105777
-0.0285134
0.00311744
0.00151185
-0.0886054
-0.0229778
-0.0644601
0.0044752
0.00097247
0.001129
-0.0344883
-0.0141968
-0.0899608
0.00462748
0.00253546
0.0044155
-0.0340073
-0.0486478
-0.0443729
-0.000661842
-0.00960567
-0.00779962
-0.0212342
0.00249362
-0.010485
-0.0413246
0.00313296
-0.00294526
0.00570916
0.0151699
0.0112222
0.00096896
0.00755928
0.0117454
0.00743744
0.00491829
-0.0193797
-0.0442473
0.0437112
0.00920762
-0.00959085
-0.0235778
-0.00627796
0.000174818
0.0045202
-0.0249313
0.000499319
0.0111736
0.00432849
0.00310428
-0.0243358
-0.00665144
0.00283385
0.0114689
0.00109018
0.00757964
0.00794058
0.00290741
0.00233314
0.00145239
-0.0188726
-0.0105627
0.00448305
0.00925121
-0.0347595
-0.0218022
-0.0169731
0.00217314
-0.0074432
0.00192655
-0.0241726
0.00403627
0.00467276
-0.0289211
-0.0490101
-0.00688206
-0.0212276
-0.0486376
-0.0374521
-0.0077506
-0.026439
-0.0321745
-0.003819
-0.00204954
0.00314035
0.0195837
0.00230982
-0.0286986
-0.0245019
0.00434221
0.0025459
0.0121203
-0.0714681
-0.0359326
-0.0332438
0.0054313
0.00284339
-0.0331679
-0.0362031
-0.00129209
0.010684
0.00341516
0.00432498
0.00359774
-0.00738101
-0.0172929
-0.0333651
-0.0467757
0.00459822
-0.00949505
0.00972841
-0.0438638
-0.00322059
0.00526397
-0.0157497
-0.000802257
0.0044091
0.00341737
0.00461611
0.00154988
0.00392567
0.00631841
-0.0166701
0.00544223
0.00146732
0.0448394
-0.0041771
-0.0434434
-0.000926317
0.00426581
0.00292254
0.00511477
-0.00752545
0.0076602
-0.0425263
0.00511177
0.00234567
-0.00296948
-0.004158
8.49685e-05
0.0103459
0.00359802
-0.016117
0.009017
0.0106499
-0.0364676
-0.0100019
-0.0245302
-0.014601
-0.0337763
-0.00172107
-0.0401173
-0.00267181
0.00630523
0.00283902
0.00656
0.00434853
0.0034765
-0.0140632
-0.00331048
-0.0288468
-0.0679153
-0.00718672
0.000267006
-0.0130605
0.00435184
-0.0426695
0.00215537
0.00527568
0.00593805
0.0138075
-0.00762752
-0.0344318
-0.0137835
0.00619845
-0.0324663
-0.0300239
0.0105017
0.00218125
-0.0317789
0.00470638
-0.00298533
-0.0887952
-0.0134421
0.00263039
-0.0028811
-0.00341547
-0.0281216
0.00590593
-0.0282234
0.00642456
0.00714475
0.00258149
-0.00181424
-0.024446
0.00244863
0.0050935
0.0211962
-0.0541635
-0.0130081
0.0106659
0.010497
-0.0342163
-0.0392974
0.00472444
0.00442309
0.00143528
-0.0125843
0.00307825
-0.0177255
-0.0217885
0.00342335
0.00475137
0.00250409
0.00379314
0.00382689
-0.00492925
0.00470018
-0.00649779
0.00490299
0.00174318
-0.0184505
-0.0381135
-0.0118163
0.00253401
0.00751339
-0.0232468
-0.0328875
0.000185082
0.00325182
0.00402783
0.00571457
-0.0334144
-0.0316669
-0.0272674
-0.0150691
-0.0218067
0.00797496
-0.00473736
-0.0260649
-0.0052104
0.00472349
0.00151303
0.00582904
-0.0211899
9.06293e-05
-0.0009397
-0.0261582
-0.0193933
-0.00988652
0.0142144
0.0025049
0.0012636
0.00343863
0.0054388
-0.00507942
-0.00725263
-0.0256088
0.00429093
-0.00134139
-0.0175878
0.00259626
0.0154229
-0.0221245
-0.00637941
-0.0260013
0.00113579
-0.0357773
-0.0118683
0.00338009
-0.0148833
0.0101085
-0.0312584
0.000239844
0.00246391
-0.039921
-0.0545456
0.0058436
-0.0384995
-0.158218
0.00467965
0.0138985
-0.0260904
-0.0330659
0.0032362
-0.123881
-0.00508557
0.0172895
0.00404575
-0.0195087
-0.000978208
0.00150064
0.00466381
-0.0386396
0.00619443
-0.00387577
0.0103325
0.012746
0.00383201
0.00463854
0.00384415
-0.0243121
0.0015378
0.0068362
0.0169614
0.00154384
0.00393058
0.00782726
0.00336268
0.00212426
0.00886404
0.00418539
0.00539172
-0.0189285
0.00910846
-0.0357629
-0.0373081
-0.0223379
0.00635634
-0.00253082
-0.0239119
-0.0106322
-0.024954
0.0122949
0.00306005
0.00768233
-0.0301672
-0.00119024
-0.0239639
-0.0141517
0.00343622
-0.023399
0.00307039
-0.0440009
-0.0211435
-0.0165551
0.00493509
0.000397332
0.00031791
-0.0184976
0.00425226
0.00728267
0.0117946
0.00589298
0.00640861
0.00667358
0.000131521
0.00497007
-0.00129385
0.00273225
0.00244243
-0.0182117
0.00324591
-0.0263671
-0.0406061
0.00255665
0.00410116
0.0107611
-0.0322395
0.00296755
0.00246015
0.0045423
-0.0952053
-0.00420036
-0.0297398
-0.0318022
-0.00711249
-0.0114142
-0.0293602
-0.00326323
-0.0220772
-0.0154367
-0.0380037
0.0225854
0.00410122
-0.0205166
-0.0257273
-0.0175492
-0.00102293
0.0100922
0.0036322
-0.0276207
-0.0269544
-0.0362506
0.00150261
-0.0194988
-0.0186497
-0.0354764
0.022874
0.00428286
0.00452534
0.00154813
-0.0151029
3.34599e-06
0.00602134
-0.0316628
0.00475054
0.00839047
-0.00102855
-0.0152161
-0.0165479
0.00795479
-0.0121056
0.00600064
0.00401054
-0.022333
0.00559745
-0.0489968
0.00532008
-0.0201811
0.0209945
-0.0300003
-0.0284708
-0.0236205
-0.0380818
-0.0152968
0.00467629
-0.0260074
0.00535998
0.0105027
-0.00275874
0.00387943
-0.0101564
0.00896395
0.00388992
-0.00275218
-0.00443965
0.00313061
0.00476961
0.000143954
-0.024188
0.00208033
-0.0305035
0.00467203
0.00474553
0.00641648
0.00758466
-0.0190566
-0.0221432
0.00815578
0.00267055
-0.0212689
-0.0206988
-0.00125498
0.0128225
-0.00800697
0.00581248
-0.0171364
0.013542
0.00255623
5.8497e-05
0.0103585
0.0102151
0.0126351
6.86906e-05
0.00471579
0.013199
-0.0038002
0.00626059
0.0163823
0.00485325
0.0118568
-0.0259058
-0.020374
-0.055863
-0.0326351
-0.0171617
0.0242679
0.00417887
0.0101008
-0.0173452
0.00635295
-0.00139411
0.00704197
0.00376591
0.00436037
-0.0120758
0.00664517
6.69631e-05
0.00871419
0.000914329
0.00473705
-0.0225054
-0.00390803
0.00322657
0.00879011
0.00867827
-0.0323209
0.00648755
-0.0258356
0.00480227
-0.107291
-0.0138633
0.0168774
0.00302249
-0.00419197
0.00738044
0.0076243
-0.00136788
-0.145571
-0.0291756
-0.0482051
0.00288626
0.00290046
-0.0363026
0.00433554
-9.04999e-05
0.0211733
-0.00198161
0.0032107
0.0101464
0.00590845
0.0041697
-0.0254279
0.00483325
-0.0287066
-0.03686
-0.00734948
-0.0150256
0.0114186
-0.00807924
0.00455931
0.00575627
-0.0404997
0.00229592
-0.0180176
0.00246712
0.0265563
-0.00206736
0.00326377
-0.033368
0.000788515
-0.0251593
0.00261205
0.0153898
0.00891347
-0.0070851
0.00227208
0.0150385
0.0054328
-0.0209383
-0.0342945
-0.00443081
-1.56656e-06
0.00328485
-0.0300596
-0.000632924
0.00317612
0.0062014
0.000246352
0.0384042
-0.0223416
-0.0280216
-0.00437657
-0.0220246
-0.0208646
-0.0291984
-0.0348809
0.00627386
-0.00145135
0.0123584
0.00294457
0.0114596
0.00318811
-0.0125669
0.00464149
0.00296581
-0.0108814
-0.00496836
0.00681766
-0.0209183
0.000207569
-0.000895541
-0.00525341
-0.0827092
-0.0372057
0.00635764
0.0182146
-0.0278485
-0.011705
-0.0259939
0.00458648
-0.0328494
-0.0222159
0.00402521
-0.0401286
0.00376404
-0.0218304
-0.0603149
-0.0263823
-0.0161685
-0.0228985
-0.026528
0.0102476
-0.0198713
-0.105127
0.00426765
0.00141285
-0.00184922
-0.0171818
-0.0219983
-0.0305815
-0.021268
0.00435301
-0.0208141
-0.0208497
-0.0331366
0.00155174
0.00537433
0.0118412
-0.0212828
0.00546259
-0.0237517
-0.0275899
-0.0424569
0.0120418
0.00455725
0.00110906
-0.0337872
0.00490327
-0.0287687
0.00160372
0.00487384
-0.0175069
0.00358208
0.0086811
0.00431756
-0.000350872
-0.0271922
0.00402262
-0.025341
0.0070526
0.0011051
0.0185137
0.0041508
-0.00125146
-0.0342474
-0.0407971
0.00490811
-0.0286757
-0.00558832
0.000985381
0.00712401
0.00556333
-0.0401876
0.00539677
-0.0228567
-0.0293979
-0.115844
-0.000237982
-0.0143961
0.00140667
-0.0705703
0.00468464
-0.105758
0.0404146
0.00678109
0.0017899
-0.00149696
-0.0155152
-0.0409307
0.00342351
-0.0558711
-0.00436245
0.00220193
-0.0506653
0.00499932
0.00861153
0.00738145
0.00544367
0.000461943
-0.015852
-0.00466179
0.00122173
-0.0412978
-0.0172368
-0.000142236
-0.0161483
0.00347827
-0.000923561
-0.0276006
0.00597441
-0.00204426
-0.00464812
-0.0233077
0.00503557
0.00325552
-0.0270891
0.00593065
0.00255119
-8.67622e-05
0.00437507
-0.0132399
0.00492827
-0.0231971
-0.021414
0.0113239
0.00325503
0.0116593
-0.156037
-0.0148711
-0.0213693
0.00630727
-0.0199994
0.00189899
-0.0265018
0.00547468
0.00153597
0.00443954
0.0117193
0.00270518
-0.00432626
-0.0231797
0.0330607
-0.0229669
0.00496438
-0.00535706
0.00290709
-0.00369089
0.00906535
-0.00781218
-0.0842348
0.00427576
-0.0277997
-0.0301472
-0.00168141
-0.018641
0.000947035
-0.0143389
-0.0141128
-0.043886
0.000388937
0.00381092
0.00441138
0.00315667
-0.00949385
0.0124541
0.0035939
0.0017984
-0.0325242
0.00123844
0.0160678
-0.00971729
-0.0339691
-0.00103785
-0.0230465
0.00486428
-0.0017171
0.00367834
-0.0145488
-0.0337905
0.00773547
-0.00709162
0.00440093
-0.0284524
0.00437406
0.00537311
0.00477866
0.00367668
-0.01304
-0.00368502
-0.00974664
0.0348165
0.00341598
-0.0228521
-0.00638464
-0.0224634
0.00304483
0.000481911
-0.00481054
0.00302501
-0.0218478
-0.0205911
-0.000537718
-0.0309793
-0.0905968
-0.0178736
0.00466594
-0.0309175
0.0150647
0.00924303
5.77587e-05
-0.0404761
0.00464298
0.007108
0.00342499
0.0060315
-0.00761095
0.00509421
0.00560424
0.00975817
-0.0241165
0.00927007
0.00151179
-0.0222299
-0.0157505
-0.0313073
0.00672756
-0.0334593
0.0043405
0.00816236
-0.0267234
-0.0229112
-0.032901
-0.0271077
-0.0148872
-0.0500706
0.0173143
0.00295376
0.000492275
-0.0351818
0.00315217
0.00816357
-0.0312121
-0.017219
-0.067953
0.00781756
0.00312316
-0.00435522
-0.000515132
-0.00185772
-0.0309907
0.00296608
-0.0236971
-0.0235712
0.0106129
0.00379309
0.0219133
-0.130498
-0.0188029
-0.00129451
0.00546431
0.00319903
-0.00785508
-0.00368481
0.00584973
-0.00970669
-0.0065151
-0.0117561
-0.000200968
0.00539269
-0.0344779
0.009247
0.00909944
-0.022644
0.0278489
-0.0530888
-0.0119707
-0.00371575
-0.0322081
-0.0101762
0.00550958
0.00175687
0.000801502
-0.0181513
0.00193887
-0.0116899
-0.027225
-0.0149141
-0.0149163
0.00225642
-0.0268891
-0.00530253
0.0049439
0.000877026
-0.0214045
0.00618049
-0.017307
0.0156536
-0.0177402
0.00144606
-0.0265648
0.00318586
-0.023946
0.0029854
0.00505026
0.00725542
-0.0213437
0.00718609
0.0044761
0.00907364
-0.0417287
-0.0389243
-0.011471
0.00523333
-0.0274743
-0.0191702
-0.000443939
0.0043486
-0.0785255
0.0072819
0.00379693
-0.00239621
0.00378373
0.00510594
0.00761543
0.00099129
-0.0180555
0.00282722
-0.0330363
-0.0461565
-0.0234918
0.00443667
-0.0328487
0.000969
0.00387905
-0.0204823
0.00320652
-0.0390782
0.0069796
-0.0188013
0.00642254
0.00379722
-0.00533171
-0.00540258
7.70612e-05
0.00414886
0.00232434
-0.0179692
-0.0118709
-0.00351028
0.00615225
0.0092107
0.00118858
-0.000272193
-0.0292236
0.00194022
0.00300553
-0.0235889
0.0104477
-9.57679e-05
-0.0269884
0.00814477
0.00499523
0.00566037
0.0148361
0.000334975
-0.022131
8.35863e-05
-0.0390984
-0.0502087
0.00738423
-0.0224142
0.00532777
0.00637144
0.00753911
0.00626473
-0.0176119
-0.0163787
-0.0126002
-0.0438008
-0.0200069
0.00494204
0.00436609
-0.000195068
0.00940498
0.00386945
-0.0920693
-0.00684002
0.0207301
6.39231e-05
0.00352458
-0.00130786
0.00139682
-0.0259213
-0.0523722
-0.000703298
0.0050266
-0.15254
0.00262743
0.00448652
-0.0146709
0.00500088
0.0052905
-0.0207306
-0.0348252
0.00450063
0.00723032
-0.00149349
0.0041629
0.0015469
-0.00306107
-0.0331717
0.00474132
-0.00447315
-0.0346176
-0.0489226
0.00387487
-0.0130711
-0.0184201
0.00452185
0.0106824
0.00285481
-0.00937626
-0.0322016
0.00453147
0.0018807
-0.0268378
0.00469339
0.00349373
0.00549974
0.00470873
0.00191175
0.00396176
-0.0229509
-0.0214256
0.00615431
-0.000585717
-0.0113886
0.000817599
-0.00210297
0.00353882
0.0116503
-0.000971906
0.0172582
-0.00116128
0.00329683
-0.0342414
0.0325392
0.00415345
0.00402396
-0.0049863
-0.00673797
0.00334173
-0.0478165
-0.0256949
-0.0228724
-0.0312505
0.0105501
-0.00964809
0.0104562
-0.045629
0.00246934
0.00324986
-0.00460935
0.00469135
-0.0345825
-0.0296012
-0.0341285
0.0195693
-0.0216625
-0.00112386
-0.0199228
-0.0206394
0.0327022
-0.0117708
-0.0111266
0.00339914
-0.0292531
0.044577
-0.0992591
-0.00534732
0.00529773
0.00234811
0.00832808
0.00408939
0.000344432
-0.022358
-0.0340219
0.00733988
-0.0175579
-0.0442006
-0.0300422
-0.0332459
0.00450967
0.00332202
0.00450793
-0.0304637
-0.0150083
-0.0151311
-0.022494
-0.0176723
-0.0149315
0.00233424
0.00349593
-0.0383709
-0.0422008
-0.010742
0.00425244
0.00274905
-0.0161567
0.00124916
0.000189581
-0.0514716
-0.0266394
0.00528805
0.0076651
-0.0348029
0.0043505
0.00287064
0.00483773
-0.00707841
-0.00165829
0.00245536
0.0338881
-0.0387041
-0.0177061
0.00276961
0.0078119
-0.0201737
-0.0119501
-0.0943842
-0.0209605
0.00287028
-0.0342822
0.00659826
-0.123736
-0.0270775
-0.0232611
-0.000701181
-0.0504335
-0.0489327
0.00245703
0.00554183
0.0148887
-0.00996486
0.00517661
-0.0329279
0.000233284
0.00649258
-0.0200791
-0.00583447
0.0116177
-0.00885646
0.0213812
-0.00852246
-0.0315443
-0.0805887
-0.0444393
0.0184327
-0.0511243
0.00303665
-0.0357028