/*--------------------------------*- C++ -*----------------------------------*\
| =========                 |                                                 |
| \\      /  F ield         | OpenFOAM: The Open Source CFD Toolbox           |
|  \\    /   O peration     | Version:  v2012                                 |
|   \\  /    A nd           | Website:  www.openfoam.com                      |
|    \\/     M anipulation  |                                                 |
\*---------------------------------------------------------------------------*/
FoamFile
{
    version     2.0;
    format      ascii;
    class       surfaceScalarField;
    location    "100";
    object      phi;
}
// * * * * * * * * * * * * * * * * * * * * * * * * * * * * * * * * * * * * * //

dimensions      [0 3 -1 0 0 0 0];
oriented        oriented;


internalField   nonuniform List<scalar> 
81438
(
-0.210247
0.316335
-0.106088
-0.29892
0.101336
0.197584
-0.311203
0.100956
0.0467963
0.0135544
-0.0603507
0.0505678
-0.0860142
0.0354464
0.242717
0.0736184
-0.206419
-0.0680487
0.274468
-0.0439143
-0.0121676
0.0560819
0.011419
-0.0621059
0.0506869
0.0438138
-0.10213
0.0583162
-0.331089
0.219616
0.111473
-0.049014
0.0424327
0.00658134
-0.363375
0.270271
0.0931045
0.0714325
-0.281611
0.210178
-0.0649231
-0.242514
0.307437
-0.270573
0.346702
-0.0761291
0.0183028
-0.015463
-0.00283979
0.23806
-0.227367
-0.0106926
-0.334346
0.0637725
0.0471117
-0.0113496
-0.0357621
0.182256
-0.0430378
-0.139219
-0.104184
0.166898
-0.0627146
-0.0756911
0.295264
-0.219573
0.275687
-0.0377227
-0.237964
0.0383332
-0.256409
0.218076
-0.0199784
0.0812145
-0.061236
0.249235
-0.064843
-0.184392
0.232713
-0.297636
0.0926571
-0.0390823
-0.0535748
-0.316752
0.138571
0.178181
-0.0852171
0.180462
-0.0952446
0.0652446
-0.211892
0.146647
-0.23209
0.329435
-0.0973457
0.112122
-0.101809
-0.0103122
-0.222056
0.284918
-0.0628615
0.29848
-0.148622
-0.149858
0.0668937
0.0525353
0.107955
0.149276
-0.257231
-0.109755
0.0512294
0.0585252
0.259846
-0.157714
-0.102133
0.0831392
-0.0833929
0.000253754
0.376489
-0.168041
-0.208447
0.125254
-0.212064
0.0868094
-0.141958
-0.0958628
0.237821
0.165677
-0.274971
0.109294
0.16351
-0.217873
0.054363
-0.251226
0.00808989
0.243136
0.0165182
0.232716
-0.180078
0.288033
-0.151654
0.0474706
-0.129785
0.295462
0.25781
-0.236992
-0.0208179
0.284526
-0.235285
-0.0492414
0.146884
-0.0932416
-0.0536422
-0.139789
0.0859341
0.0538549
-0.172327
-0.158762
0.00876958
-0.0526839
-0.119166
-0.0598641
0.17903
-0.182483
0.071497
0.110986
-0.290483
-0.017198
0.307681
-0.0683093
-0.0414453
0.1925
-0.146118
-0.0463822
-0.20184
0.0890198
0.11282
-0.148937
0.207791
-0.0588541
-0.0113979
-0.00719628
0.0185942
0.170015
0.0898311
-0.137901
-0.117652
0.255554
0.00481046
0.0205568
-0.0253673
-0.0144714
0.272282
0.0359811
-0.2424
0.0227795
-0.0125515
-0.0102281
0.206817
-0.290692
0.0838747
0.0990883
0.0477954
-0.25917
0.0270806
-0.0562778
-0.22
0.276278
-0.281856
0.0306295
0.110117
-0.207116
0.0969985
-0.127773
-0.0199908
0.147763
0.00824058
0.0748986
-0.0497959
0.102449
-0.0526534
0.238801
0.0368864
-0.215046
0.099577
0.115469
0.0125905
0.010189
-0.0219781
0.000409854
0.0215683
0.131172
-0.223804
0.0926311
-0.22184
0.293987
-0.0721473
0.0400154
-0.0445139
0.00449847
-0.0572108
0.239467
-0.299567
0.0777272
0.0587621
-0.00484358
-0.0539185
0.0850324
0.187866
-0.272898
0.145334
0.153146
0.0189815
0.00455673
-0.0235382
-0.0680146
-0.147031
-0.180439
0.248056
-0.0676174
-0.11326
0.0817893
0.0314709
-0.140525
-0.0439704
0.184495
-0.0393195
-0.138472
0.177792
0.212562
-0.0873074
0.226404
-0.320068
0.0936638
0.318809
-0.145067
-0.173741
0.00184567
-0.0391488
0.0373032
0.0435628
-0.0519751
0.0125126
0.0394625
0.175774
-0.275259
0.0994852
-0.0149608
0.0629443
-0.0479835
0.281176
-0.0743589
0.0546487
-0.0835391
0.0288904
-0.233543
0.327222
-0.093679
-0.152331
0.2322
-0.0798689
0.0312938
-0.219005
0.187712
-0.00381669
-0.123956
0.00869138
0.00843722
-0.0171286
0.202984
-0.154693
-0.0482902
0.223669
-0.207151
0.0773552
-0.243768
0.166413
-0.00468098
0.242741
0.158065
-0.21227
0.0542045
-0.0960221
0.271796
0.155632
0.163176
-0.274317
0.193055
0.081262
0.0495978
-0.0521336
0.0025358
0.0725484
-0.0925268
0.170345
-0.0680804
-0.102265
-0.0200815
0.121114
-0.101033
0.0174963
-0.00337358
-0.0141227
-0.0508591
-0.14128
0.192139
-0.130428
0.0742946
0.0561331
0.0258144
-0.0210039
0.210956
-0.151414
-0.0595423
-0.0437087
0.148072
-0.104363
-0.0794856
0.197957
-0.118471
0.0392514
0.200256
-0.239507
0.000865886
0.0865996
-0.0874655
0.0733823
-0.21534
-0.303011
0.0809549
0.0207857
-0.0889194
0.0681337
0.0397582
-0.054719
-0.138134
0.118052
-0.210849
0.212665
-0.00181637
0.234245
-0.156889
-0.26577
0.340464
-0.0746934
-0.169309
0.216058
-0.0467494
-0.0193411
0.0209747
-0.0016336
0.225936
-0.0947637
-0.103649
0.104514
0.0373236
-0.11244
0.0751168
0.0310057
0.0727791
-0.103785
0.0390498
-0.191381
0.0053021
0.0130007
-0.345864
0.142252
0.203612
-0.185861
0.0947557
0.0911056
0.200358
-0.154463
-0.0458948
-0.194484
0.264518
-0.0700345
0.0712367
-0.125812
0.0545755
0.0428521
-0.00283676
0.0531282
0.00563385
0.00213467
0.221534
-0.336436
0.142857
0.193579
0.1385
-0.177819
-0.082327
-0.161968
0.244295
0.0226597
0.0434491
-0.0661088
-0.0217478
-0.000230265
0.0102424
0.193943
-0.204185
0.049192
-0.00208031
0.0548221
0.0972145
-0.152037
0.210112
-0.0520471
-0.212384
-0.0590533
0.271438
-0.0905451
0.246025
-0.15548
-0.236061
0.267354
-0.0308809
0.013899
0.0169818
0.25782
-0.337953
0.0801326
-0.192254
-0.15361
0.0866665
-0.031844
-0.0548225
-0.150956
0.107248
0.0504666
-0.219775
0.0230128
0.0460629
-0.0690757
-0.145424
0.0573199
0.088104
-6.19087e-05
-0.0192792
-0.24645
0.256692
0.230929
-0.329382
0.0984526
0.352441
-0.153653
-0.198788
0.00691549
-0.0271444
0.020229
0.0228804
0.141357
-0.164238
-0.167856
-0.16858
0.285085
0.0026257
-0.28771
-0.0213067
-0.042171
0.0634777
-0.0665584
-0.137345
0.203904
0.0484169
-0.188942
-0.151067
-0.212308
0.280666
-0.108642
-0.172023
-0.0356044
-0.0163707
0.14108
0.235408
-0.137457
0.270792
0.0443072
-0.046589
0.00228187
0.0778238
-0.19699
-0.317521
0.219086
0.098435
0.186104
-0.148044
-0.0380605
-0.0454128
0.0446913
0.000721457
0.148662
0.203779
-0.0140794
-0.0196255
0.0337049
0.301502
-0.0687897
0.00449572
-0.253342
0.248847
0.0431451
-0.0974446
0.0542994
-0.000811193
-0.0110942
0.0119054
-0.00184597
0.12636
-0.124514
-0.330437
0.268253
0.0621844
0.107787
-0.0646414
0.326422
-0.320397
-0.00602497
0.0439582
-0.0652649
0.279542
-0.259579
-0.0199629
-0.0033287
-0.0456853
0.0239894
-0.0794123
0.0554229
-0.105074
-0.0807874
0.284275
0.0105142
-0.294789
0.00184303
-0.107814
0.105971
0.0742846
0.0400634
-0.114348
-0.0358129
-0.27539
0.308906
-0.203811
-0.105095
0.268268
0.0160069
-0.271459
-0.0589782
-0.0199104
-0.0109705
0.213066
0.06811
0.0915947
-0.0403653
-0.283307
0.148491
0.0457117
-0.049867
0.00415523
0.0828912
-0.162377
-0.0243263
-0.012441
0.0367673
0.126109
-0.0763383
-0.0497711
0.00440629
0.0214081
0.16669
-0.0743365
-0.0923531
-0.305937
0.0723948
0.0449567
-0.128649
0.0836927
0.165751
-0.208789
0.103664
-0.0598503
-0.244516
0.153971
0.119268
-0.183903
0.0441568
0.000150329
0.0215331
-0.283572
0.262039
0.222344
0.0865616
0.236869
-0.332042
0.0951735
0.187575
-0.279119
0.0915441
0.307599
-0.0852546
-0.0453875
-0.0944015
0.272332
-0.0217507
-0.250581
-0.0300528
0.0378581
-0.0078053
-0.108692
-0.107438
0.21613
-0.333923
0.154175
0.179748
0.235854
-0.197521
0.00781759
-0.0442907
0.0364731
0.244718
0.0403665
0.0810409
-0.0263922
-0.3548
0.284552
0.0702484
0.208606
-0.0954849
-0.113121
0.264107
-0.192674
-0.21998
0.280603
-0.0606227
-0.0384057
0.0441176
-0.0495733
0.00545571
-0.163049
0.2744
-0.11135
-0.216366
0.285949
-0.0695832
-0.22763
0.299833
-0.0722036
0.0465149
0.0150637
-0.0615786
-0.174248
0.0947333
0.079515
0.0181391
-0.158897
0.140758
0.0590711
-0.0660027
0.00693164
0.125624
0.103978
-0.16672
0.0627425
-0.231123
0.157372
0.0737518
0.238259
-0.322681
0.0844219
0.0275588
-0.0590631
0.0315043
0.10629
-0.214982
0.289904
-0.0768376
0.04889
-0.0519666
0.00307662
0.0528771
-0.0450595
-0.0904585
0.0622328
0.0282257
0.155728
0.04463
0.0208033
0.258739
0.065892
0.0139543
-0.0798463
0.235835
-0.155701
-0.0801334
-0.26945
0.1064
-0.300927
0.119893
0.181034
-0.21943
-0.114493
-0.0932665
0.0372492
0.0560173
-0.0187889
0.000677234
0.0181116
-0.241498
0.0983114
0.143187
0.0573389
-0.10366
0.0463214
-0.015783
-0.11678
0.132563
-0.0352282
0.0450376
-0.00980945
-0.206472
0.0520084
-0.261133
-0.0293495
0.0582969
0.150309
-0.0245957
-0.106577
0.131173
0.0158377
-0.0239686
0.00813093
-0.0386102
0.0913345
-0.0527244
0.22091
-0.160029
-0.0608808
-0.0582492
-0.203408
0.261657
0.227973
-0.278832
-0.128534
0.112751
-0.333416
0.17138
0.162035
-0.0188105
0.0614774
-0.0426668
0.0141343
-0.0742462
0.0601119
0.29006
-0.105585
-0.184476
0.207383
-0.189244
0.0664669
0.00919374
-0.0756607
-0.0472947
0.0120665
-0.0343616
0.0043088
0.0174305
-0.0130726
-0.00435795
0.0350907
-0.0744348
0.0393441
-0.00591016
0.2075
0.0770266
-0.159531
-0.0819676
0.17192
-0.0679423
-0.0186851
0.00152288
0.0171623
-0.0352394
-0.0104244
0.0456638
0.0122357
-0.152333
0.140097
-0.00203955
-0.0167493
0.0409527
-0.118723
0.0777699
-0.0612106
0.00152353
0.0596871
0.138164
-0.204723
0.0296203
-0.0227048
-0.0324876
-0.0276779
0.0601656
-0.163901
0.242985
-0.0790836
-0.134941
0.147177
0.0310554
0.241276
-0.202524
0.29746
-0.0949358
-0.00775231
-0.0824504
0.0902028
0.0554084
0.151974
0.260227
-0.292713
0.0324865
-0.0422098
0.00400218
0.0382076
0.0503327
-0.00144276
-0.0807108
0.31164
-0.217982
-0.115434
-0.0492883
0.292005
0.0504075
-0.100203
-0.14862
0.215823
-0.067203
0.160607
-0.257908
0.0973017
0.236096
-0.346215
0.110119
0.0323448
-0.121172
0.0888274
0.306633
-0.104667
-0.201966
0.0635451
0.0625643
0.189599
-0.200925
0.0113264
0.00203328
0.0990379
0.207595
0.0740023
-0.277527
0.203525
-0.000224601
-0.023379
0.0236036
-0.0618895
0.200054
0.211352
-0.155944
-0.0735609
-0.0568667
0.314861
-0.0311184
-0.283742
0.186063
-0.250849
0.0647865
0.317285
-0.118233
-0.199052
-0.159959
0.0761628
0.0837962
0.18047
-0.0419702
-0.129452
-0.0141756
0.0732467
-0.14141
0.197329
-0.0559189
-0.0324532
-0.00190848
-0.115345
0.0907496
0.27014
-0.0329369
-0.237204
0.151904
-0.342038
0.190134
0.0909714
0.199089
0.00510557
0.0123249
-0.235437
0.304771
-0.0693336
0.313177
-0.0770818
0.0380281
-0.0705157
-0.278171
0.0965362
0.181634
0.279261
0.0170541
-0.296315
-0.195095
0.259623
-0.064528
-0.0258974
0.0923644
0.120769
0.0893433
0.117794
-0.182637
0.321642
-0.169738
0.0156841
-0.27457
0.258886
-0.101186
0.0934335
-0.0692761
0.0504656
0.00180205
-0.0567772
0.0549751
0.093589
-0.0625834
-0.0449799
0.00974054
-0.165888
0.125903
0.0399844
0.00550658
0.0670277
-0.0725343
0.085647
-0.0360024
-0.0496446
0.0173169
7.63606e-05
-0.0173933
0.0608536
-0.0467193
0.212151
-0.146907
0.0778945
-0.053905
0.0761368
0.0316497
-0.0751625
0.028272
0.0468905
-0.0105444
0.0675029
-0.0569585
-0.272667
0.0781831
-0.00512219
-0.123412
-0.115716
0.172974
-0.0572575
-0.198198
-0.14384
0.181361
-0.117611
-0.0637508
0.253753
-0.214502
0.20066
-0.147211
-0.0534496
-0.0339714
0.100865
0.064086
0.136574
0.0563582
0.234418
-0.290776
0.15008
-0.155202
-0.156063
-0.0748974
-0.178341
0.253238
-0.236815
0.339221
-0.102406
0.0794069
-0.0586212
0.0793308
0.102031
0.053014
0.0331292
-0.00679948
-0.0544111
0.0319673
-0.126897
0.0949293
0.215295
0.0449745
-0.260269
0.200882
-0.151457
-0.0494243
-0.152752
0.229761
-0.0770093
0.262425
-0.0471299
-0.00610238
0.0205101
-0.29646
0.119564
0.176896
-0.228839
0.301087
-0.0722476
0.281166
0.00830844
-0.289475
-0.0087389
0.0174303
0.194641
-0.252891
-0.0927635
0.25337
-0.0212498
-0.0159948
0.0372446
-0.1745
-0.158373
-0.115945
-0.0465318
0.0430277
0.00350406
0.269665
-0.0549052
-0.21476
0.261626
-0.189413
-0.0722127
-0.0401546
0.0440055
-0.00385092
-0.0929052
-0.167592
0.260497
0.261203
-0.245518
0.0681577
0.0505023
0.0351447
-0.230003
0.271484
-0.0414806
0.0146092
-0.0152923
-0.0684662
0.189235
0.203264
0.118377
0.228697
-0.303248
0.0745509
-0.33502
0.254684
0.0803363
0.330145
-0.217302
-0.112843
0.0427278
-0.0459142
0.00318642
0.033443
0.184499
-0.217942
-0.00996334
0.0484003
-0.038437
-0.068422
0.15572
-0.0872981
-0.0505533
-0.157355
0.207908
-0.0764362
0.111004
-0.0345682
-0.0340014
0.0015483
0.158866
-0.0350569
-0.123809
0.141032
0.189113
0.15637
-0.0231491
-0.133221
-0.0383645
0.0462219
-0.00785738
-0.00732744
0.0283774
-0.02105
-0.187121
0.220564
-0.0150989
-0.259472
-0.0560764
-0.0413681
0.229864
-0.307915
0.0780518
-0.135273
-0.0472098
0.252118
0.00908472
0.0446025
0.225063
0.0541777
-0.026619
-0.192408
0.155208
0.0372006
0.234013
0.0657828
-0.299795
0.0411088
-0.0405333
-0.000575421
0.308412
-0.0785487
-0.232253
0.236748
-0.0741565
0.308169
-0.113846
0.0307369
0.0831095
-0.271275
0.26255
0.00872583
0.087024
-0.021132
0.0157443
0.00523038
0.0606443
0.165694
-0.226338
0.266598
-0.216132
0.031852
-0.0418154
0.117092
-0.0592531
-0.0578384
-0.0527006
0.0343337
0.0183669
-0.0131803
0.16955
0.119324
-0.067935
-0.0513891
-0.0628235
0.0522791
0.0458667
-0.00301459
0.133312
0.0471584
-0.0574009
0.101453
-0.0440525
-0.294099
0.211772
0.198108
-0.265185
0.067077
-0.0290178
-0.0614407
0.10526
-0.0648444
-0.0404156
-0.239441
0.175163
0.0642778
-0.0235756
0.0259248
-0.00234916
0.00274424
0.0582179
-0.16249
0.0704681
0.0920215
-0.223963
0.316942
-0.0929798
-0.334219
0.133159
0.20106
-0.0338742
0.0868882
0.0316547
-0.0343118
0.00265706
-0.096849
0.0530699
0.0437791
-0.0940892
-0.0607834
0.154873
-0.0142216
0.0156828
-0.00146118
-0.0182354
-0.00167506
0.0836653
-0.273078
-0.191754
0.138464
0.0532898
0.154628
0.046254
-0.297291
0.211989
0.0853018
0.27665
0.00261123
0.0232853
-0.0742708
0.0509855
0.256577
-0.181153
-0.075424
-0.0789831
-0.218307
-0.212939
0.30552
-0.0925813
0.250207
0.0309592
-0.0617332
-0.201271
0.263004
0.0580483
0.226847
-0.284896
-0.0750764
-0.196199
0.110707
0.0395641
-0.150271
-0.124244
0.195443
-0.0711993
0.032262
-0.273685
0.241423
-0.047391
0.203119
0.090938
-0.284818
0.19388
0.10836
0.1656
-0.27396
-0.0487597
0.0599519
-0.296767
0.020891
0.137975
0.0546294
-0.0597373
0.00510787
-0.0808756
0.0185059
0.0623697
-0.0518944
-0.0157461
0.00152447
0.0207603
-0.000345817
-0.0204144
0.0415677
0.0598857
0.197825
-0.10307
0.083113
-0.0325453
-0.286509
0.043995
0.132847
-0.270748
0.158758
0.0521981
0.171429
-0.252281
0.0808517
-0.314126
0.123057
0.191069
0.0511557
0.00347375
-0.206011
0.0459821
-0.0405919
5.85402e-05
-0.0336907
-0.0491482
-0.120965
0.170113
0.0970135
0.100812
-0.104193
0.053067
0.0511264
0.0397023
0.00302542
0.0147572
-0.115081
-0.0422594
0.15734
-0.100541
0.227251
-0.12671
0.0554061
0.211192
0.231329
-0.14484
-0.0864893
0.075244
0.0973781
-0.172622
-0.13763
-0.114391
0.252021
-0.0512386
0.0626576
-0.17379
0.0353178
-0.11542
0.0566937
0.0587262
0.130502
-0.0482409
-0.0822612
0.130789
-0.193472
-0.140747
-0.0481745
0.122459
-0.0921889
0.0513416
0.0408473
0.155608
-0.0928126
-0.0627949
0.27806
0.036801
-0.0846769
-0.00974374
0.0944206
-0.0481023
0.00157051
-0.16984
0.084097
0.0857433
-0.0359276
-0.263913
0.13413
0.0561522
-0.261289
0.205137
0.0726432
-0.0732146
0.000571407
0.194676
-0.256409
0.0425212
0.00334554
0.207525
-0.16123
-0.0462949
-0.000348113
0.0109447
-0.0105966
0.158852
-0.209405
-0.159708
0.074491
-0.178663
0.12855
0.0501132
-0.229293
-0.047062
0.276354
0.298644
-0.0947406
-0.203903
-0.302398
0.274595
0.0278026
-0.0879883
-0.081852
-0.0254166
0.00184093
-0.154469
-0.0357287
0.190198
0.0827657
0.0728418
-0.0638708
0.16696
-0.10309
-0.0554881
-0.0481722
-0.275968
-0.0264292
-0.147431
-0.0447148
0.192146
0.0620347
0.0328234
-0.00116867
-0.0512412
0.0477861
0.00345509
0.243356
-0.187204
-0.0159775
0.012604
0.215418
-0.0890583
-0.0228323
-0.0298684
0.205628
-0.266961
0.0613328
0.203463
0.07982
-0.283283
0.115484
0.18316
0.308803
-0.105341
-0.167371
0.0711961
0.096175
0.0629965
-0.0403368
0.0441101
0.0153695
-0.0594796
0.0999962
-0.0610807
-0.0389155
0.084444
0.142807
0.155945
-0.0452383
-0.0876166
0.259046
0.118813
-0.167961
0.0934989
-0.0208557
0.295812
-0.121903
-0.173909
-0.0936287
-0.0627234
0.156352
-0.209901
0.274078
-0.0641764
0.0382693
-0.0147927
-0.0234766
-0.194547
0.273528
-0.0789811
-0.0833717
-0.0908767
0.184994
-0.128015
-0.0569791
0.179854
-0.0851206
-0.0485192
-0.0112181
0.102718
-0.0944773
-0.300439
0.167871
0.132567
0.204709
0.0911026
-0.14724
0.0919696
0.05527
-0.0220554
0.114137
-0.0920812
0.00211572
0.100602
0.298887
-0.0724833
-0.199272
-0.0401698
0.0424449
0.0881147
-0.0326726
-0.0554422
-0.0864728
-0.0607668
-0.301402
0.308688
-0.00728575
0.0535685
-0.0512828
-0.00228569
0.0381061
-0.0818006
0.0436945
-0.275814
0.0659124
0.0493818
0.0422128
-0.0284547
-0.0897764
0.118231
0.104765
0.110653
0.310137
-0.225104
0.0963065
0.0158152
0.00504928
-0.14654
0.200952
-0.0544118
-0.15071
0.208252
-0.0575421
0.16374
0.0470866
-0.210826
0.224794
0.0766222
-0.301416
-0.0796392
0.0151757
0.0644636
-0.138742
0.0553268
0.0834152
0.118339
-0.00433246
-0.114006
0.174905
-0.250773
0.0758685
0.0474662
-0.00334855
-0.0198132
0.0273536
-0.00754042
0.325947
-0.092193
-0.233754
0.0217883
-0.122039
0.100251
-0.105953
0.0468849
0.0590679
-0.0529078
0.258536
0.0793375
0.246609
0.139866
-0.0647637
-0.0751021
0.016976
0.000340945
-0.120251
0.0981956
-0.00125593
0.00611163
-0.272557
0.0858919
0.186665
-0.197021
0.273414
-0.0763929
0.0374328
-0.183551
0.0639417
0.147066
0.0604582
-0.104098
0.125887
-0.1604
0.110581
0.0498188
0.163009
-0.321959
0.15895
-0.00386162
0.0437516
-0.132648
0.0888968
-0.028067
-0.0515722
-0.0609256
-0.0238583
0.0847839
0.0369172
-0.113353
0.281208
-0.19027
0.0586999
0.0811659
-0.0581357
0.129372
0.0953658
-0.149428
0.0540625
0.0603343
0.120127
-0.100547
0.173953
-0.0734057
-0.0516554
0.0474706
0.00418475
0.308712
-0.201152
-0.10756
0.128701
-0.141881
0.0579593
-0.0840093
0.02605
0.0223761
-0.0681821
0.045806
0.0214275
-0.00568324
0.0320816
0.00888439
-0.040966
0.0362441
-0.00342074
0.0852537
-0.0396488
-0.0456049
-0.0468354
0.0642023
-0.0173668
-0.300702
0.124501
0.176202
0.0171724
0.21719
-0.234362
-0.113826
-0.0520622
-0.333061
0.119027
0.214034
0.086894
-0.180523
-0.116015
-0.184687
-0.0871226
-0.0226706
0.109793
0.0555269
0.0314971
0.00876864
0.00820736
0.0890916
-0.117546
0.139157
-0.197128
0.0579715
0.182607
-0.29066
0.108053
-0.0405286
-0.0454856
0.0357336
-0.0392323
0.0034987
0.0988908
-0.0520176
-0.0468732
0.000425736
-0.014036
0.0136102
-0.0228448
-0.0346236
0.0574684
0.00200341
-0.04789
-0.0382906
0.0861806
0.309807
-0.0275623
-0.282245
0.0400804
0.0588104
-0.193871
0.145302
0.0485689
0.321794
-0.107747
-0.214047
0.0515264
0.0418369
0.00438496
0.265524
-0.0779497
-0.191498
0.0922787
0.0992193
0.0305913
-0.0287457
-0.0605084
0.224248
0.224601
-0.301815
0.0772139
0.0710969
-0.0360062
0.0662262
-0.0438501
0.188728
-0.135234
-0.0534936
-0.257484
0.33263
-0.075146
0.308088
-0.0834867
0.114226
-0.03163
-0.0825955
0.240736
0.0690714
0.0685876
-0.121681
0.0530935
0.111277
0.00706179
-0.156189
0.250659
-0.09447
0.0471065
-0.162187
0.174465
-0.0916996
0.00403392
0.0100312
-0.0140651
-0.330443
0.095006
-0.0207405
-0.0412269
0.0619675
0.0196567
0.0429976
-0.0626543
-0.303562
0.227871
-0.228838
0.313435
-0.0845974
-0.0237308
0.0678409
-0.0494366
0.284298
-0.175938
0.0531131
0.0350016
0.0131618
-0.0127361
0.293038
-0.199574
-0.093464
0.0426109
-0.0906347
0.0480238
-0.174661
-0.125777
0.335769
-0.15644
-0.179329
0.0827182
-0.275732
0.193014
-0.0284523
-0.0921496
0.120602
-0.230078
-0.0312945
0.261372
0.0470819
0.0529143
0.0927413
-0.0558965
-0.0368448
-0.254449
0.0761669
0.178282
0.0231026
0.000657254
-0.0237598
0.0892038
-0.226833
-0.0444329
-0.0272145
0.0716474
0.232324
0.0920868
-0.324411
0.143091
0.192677
0.040284
0.0015529
0.220013
0.0730242
-0.212939
-0.0127777
0.225716
-0.0359377
0.0335923
0.00234547
-0.134471
-0.0593994
0.0137077
0.0525185
0.294076
-0.287585
-0.00649086
0.0741946
-0.0509094
0.0144057
0.000203481
-0.0554182
-0.200231
0.255649
0.229496
-0.300959
0.0714627
-0.0418022
-0.0598034
0.101606
0.349149
-0.143349
-0.2058
0.0251954
-0.255273
-0.00872429
0.00837618
0.255389
-0.0607474
0.0699469
-0.128315
0.0583685
0.105454
-0.06813
-0.171731
0.190903
0.158246
-0.0713477
-0.204961
0.276308
0.0318668
0.00437735
-0.300364
0.129454
0.17091
0.0916802
0.0881738
-0.0240443
0.068628
-0.0445837
-0.26869
0.0662166
0.202473
-0.119679
-0.194447
0.340587
-0.303593
-0.0369941
0.0408767
0.128975
-0.169852
-0.104997
0.0529794
0.0501937
0.138534
-0.10324
-0.0106061
0.161968
0.0738666
-0.0789362
-0.189754
-0.0811132
0.135935
-0.0759506
0.262013
-0.0686513
0.0446071
-0.0462633
0.0572786
-0.00415037
0.0681408
-0.0213445
0.0508283
0.00645031
-0.0713037
0.131254
-0.0875022
-0.194757
-0.105607
0.0827217
0.0917436
-0.282968
-0.056043
-0.165821
0.221864
0.0475516
0.0837022
0.0541179
-0.0869549
0.184235
-0.0733606
-0.0865984
0.00257968
-0.0635053
0.189553
-0.244971
-0.0368416
0.0331015
0.00374012
0.232142
-0.177368
-0.0547747
0.167722
0.0558391
-0.0745134
0.0366874
-0.0417445
0.00505712
-0.0732517
-0.0400085
0.266952
0.012265
-0.279217
0.163646
0.106353
-0.269999
-0.0510383
0.0571234
-0.00608511
-0.231959
-0.0704724
0.302431
-0.0773222
0.0278319
0.0494903
-0.161657
0.0826739
0.0789828
0.173269
-0.0762556
0.068128
-0.300087
-0.139612
0.303258
-0.214853
0.156154
0.0586988
-0.0585878
0.191899
0.00192039
0.266567
0.031402
-0.297969
5.34656e-05
0.0356801
0.0402896
0.196382
-0.236671
-0.014767
0.0170942
-0.00232717
0.200607
-0.205288
-0.0792175
-0.218905
0.298123
0.295763
-0.188802
-0.106961
-0.100729
0.0589267
-0.056269
0.245822
0.212554
-0.172264
-0.340924
0.188041
0.152882
0.275069
-0.200068
-0.0750016
0.0926226
0.0777228
0.225322
-0.30454
0.195115
-0.222758
0.0276431
0.0205357
-0.0484694
-0.0483796
0.00293247
-0.0517712
0.0488387
-0.00359512
0.0640855
-0.0604903
-0.0429782
-0.00431657
0.0127595
-0.020087
-0.0662552
0.0455147
-0.17156
0.0850868
0.215818
-0.213683
-0.0200725
-0.00573421
0.0258067
0.0507313
-0.0719553
0.021224
0.0691225
0.104147
-0.0374941
-0.0659804
-0.0494396
-0.0411775
-0.260114
0.301292
0.051633
-0.279919
0.142135
0.137784
0.0636588
-0.187903
-0.0183074
0.0179616
0.0458597
-0.0451561
-0.000703524
-0.237493
0.19634
0.0411534
-0.0222013
0.0266076
0.0308519
-0.0805484
0.0496965
0.205939
-0.00533191
0.0807824
-0.0187547
6.95886e-05
0.11525
-0.22979
0.11454
0.0856506
-0.0326623
-0.0529884
0.131587
-0.0456533
0.305184
-0.256913
-0.0482707
-0.0848127
-0.190828
0.275641
-0.105669
-0.0564472
0.162116
-0.0475878
0.00460964
0.0145598
-0.0374047
-0.00922676
0.255042
0.0708006
-0.134671
-0.1464
-0.0460082
0.153185
-0.0578187
-0.0220855
-0.228323
0.250409
0.216206
-0.315755
0.099549
0.0283799
0.00367761
-0.0320575
-0.00324933
0.000288616
0.0704747
-0.0707634
0.019315
-0.018658
-0.0396721
-0.138991
0.172098
-0.0351322
-0.136966
0.0932096
-0.0913666
0.336175
-0.119969
-0.0219354
0.00218515
0.0197503
0.00295639
-0.207676
0.20472
-0.046987
-0.025743
0.0727301
0.381266
-0.16439
-0.216876
0.149497
0.0681371
-0.217635
0.198035
-0.0879173
0.0815021
-0.0259752
-0.109563
-0.12156
-0.290275
0.0602719
0.0556392
-0.279602
-0.0473731
0.208868
0.172398
0.213083
-0.0584559
0.0493755
0.193005
-0.24238
0.214806
-0.0653083
-0.233915
0.30322
-0.0693048
-0.206428
-0.134495
0.228908
0.092886
-0.167681
-0.0162221
0.00741399
0.0861751
-0.115717
0.0418092
0.0739082
0.174479
0.10059
0.263799
-0.0390053
0.0646431
-0.0682382
-0.167768
-0.350337
0.188223
0.162114
0.122817
-0.0485226
-0.0486041
0.0515366
-0.0252415
0.00516898
0.153586
-0.209629
0.276222
-0.072929
-0.203293
0.063416
-0.175468
0.112052
0.0155248
-0.0315196
-0.11709
0.0886376
0.137142
0.0851529
-0.222295
-0.0704174
-0.0104582
0.0209181
-0.201357
0.148365
-0.209007
0.0606423
-0.303387
0.12608
0.177307
0.171371
-0.148864
-0.0225077
-0.0141277
0.0184017
-0.00427398
0.196249
-0.252518
0.0554455
-0.0323552
-0.0230903
-0.0169098
0.00551192
0.196343
-0.281156
-0.0618732
-0.225874
0.287747
0.109187
-0.0682346
0.0632402
-0.155498
0.0922578
0.0249714
0.212271
0.0315327
-0.243804
-0.125254
0.0468891
0.0783647
-0.23662
0.310092
-0.0734727
-0.0330001
0.0312861
0.00171401
0.0685641
0.0393961
-0.00731454
0.243989
-0.128739
0.0645274
0.161213
-0.225741
-0.219395
-0.0429877
0.262383
0.028995
-0.0969054
0.0679104
-0.045939
0.00570128
0.0402377
0.0107427
-0.0692582
0.0585155
0.0992901
-0.0312064
-0.0680837
-0.0729289
0.0732175
0.0653726
0.234821
-0.300193
0.0380587
-0.294972
0.349483
-0.164984
0.282682
-0.0248615
-0.0167161
0.211831
0.14694
-0.0324659
-0.114475
0.045294
0.0228468
-0.00418292
0.0189401
-0.0504479
-0.0780614
0.128509
0.0410793
0.0441744
0.0396907
0.0832143
-0.122905
0.232399
0.127672
0.221812
0.165309
0.0477745
0.0533711
-0.0952209
0.0418498
0.00533555
0.0120923
-0.0174279
0.200898
-0.0951754
-0.105723
0.185249
-0.039947
0.256648
-0.0619725
-0.0004997
0.141764
-0.104725
-0.0370391
0.0953176
-0.257286
-0.194822
-0.1586
-0.121319
-0.255156
-0.046246
0.052395
-0.243968
0.191573
0.0303254
-0.0952917
0.0649663
-0.102025
-0.00578903
-0.219097
0.0867549
0.132342
-0.0165999
-0.0391773
-0.00256719
-0.034494
0.0148684
0.0864719
0.0451156
-0.148048
0.26589
-0.117842
-0.15826
-0.112848
0.271108
0.101927
-0.0277327
0.0674122
-0.0166809
-0.185746
0.132699
0.0530472
-0.0466327
0.124068
-0.0447238
-0.0793444
0.233162
-0.295035
-0.210819
0.155213
0.0556061
-0.0484951
0.281657
0.0938781
-0.0635527
-0.155114
0.152581
-0.266594
0.114013
0.271603
-0.0877422
-0.183861
-0.084247
0.297707
-0.21346
0.0207157
-0.00140064
0.0172249
-0.0150398
-0.136734
-0.213602
-0.0596651
0.00158018
0.058085
0.0292182
0.233984
-0.263202
0.15418
-0.0254793
0.287288
-0.3408
0.0535126
-0.0400582
0.000880875
-0.0646309
-0.103934
0.168565
-0.0868574
0.0482472
0.0670309
0.194817
-0.261848
0.18992
0.057883
-0.247803
-0.096826
-0.0648306
-0.00670443
0.0154731
-0.0714379
-0.193209
0.264647
0.0881701
-0.138618
0.0282019
-0.143547
-0.187287
0.00846954
0.0297998
0.062602
0.042658
0.29528
-0.232813
-0.062467
0.0612576
0.0406697
-0.0638823
0.0496812
0.014201
0.11832
-0.205622
0.0873021
0.0502161
-0.191626
-0.116056
0.163163
-0.159244
0.251704
-0.0924598
-0.0477197
-0.0383269
0.0860467
0.0421309
-0.0548172
0.0126863
0.0872191
-0.0249863
0.113457
0.050851
-0.164308
0.0385406
0.0110572
-0.0242695
0.0205762
0.0036933
-0.212018
-0.0581169
0.270134
0.0966278
-0.161259
-0.0107914
-0.0389665
0.0497579
0.312883
-0.0494084
-0.263475
0.207773
0.0842117
-0.291985
-0.119839
-0.0255847
0.0687597
0.163383
-0.27047
-0.0415089
0.138137
0.200569
-0.0822495
-0.239745
0.107207
0.132539
-0.0936434
0.156884
0.177446
-0.0639897
0.0422276
-0.00252532
0.0538156
-0.0116847
-0.0208668
-0.0570837
0.0779505
0.2127
-0.0473912
-0.100587
0.058266
0.0423214
0.202869
-0.274307
-0.0443106
-0.323264
0.247611
0.0756527
-0.112215
0.0765741
0.0356405
-0.0753285
0.265111
-0.189782
-0.276761
0.220483
0.0355746
-0.0676335
0.0320589
-0.098067
-0.0734925
0.00282962
0.0500475
-0.0846235
0.0369038
0.0430109
-0.191059
0.0176085
-0.0217914
0.0357776
-0.129854
0.0940762
0.039061
0.00316665
-0.045609
0.0506357
-0.00502677
0.00408503
0.188031
-0.192116
0.199541
0.0944461
-0.035694
-0.233756
0.0977113
-0.217278
0.119567
-0.0746009
0.0537341
0.190912
-0.140195
-0.0507167
-0.131441
0.0630432
0.0683978
0.212894
-0.15225
-0.0125363
0.203702
-0.191165
0.0621774
0.0250417
-0.0520808
0.0449051
-0.0797065
0.0348014
0.0812543
-0.039621
0.0639443
0.0353458
0.0752798
-0.209793
0.138993
0.0708002
0.155998
0.0600489
-0.216047
-0.0447049
-0.259315
0.30402
0.0764919
0.124407
-0.0587938
0.0480024
-0.15134
-0.0884051
0.0152993
0.0296679
-0.302772
0.0761065
0.226666
-0.222895
0.22698
-0.342817
0.184523
0.158294
0.0308828
-0.0312457
0.00036292
-0.0849894
-0.217783
-0.156153
0.181298
-0.0251451
-0.0880403
-0.196316
-0.146501
-0.0447062
-0.00633214
-0.288193
0.101746
0.186448
-0.19918
-0.013759
0.0564178
-0.0506112
-0.0415777
-0.0393298
0.0182808
-0.0744094
0.257016
-0.00788259
0.0199749
-0.0719488
-0.0437686
0.0565626
0.174277
-0.230839
0.0889061
0.0709773
-0.0531148
-0.0178625
-0.0570852
-0.0469753
0.10406
-0.113818
0.150354
-0.0365355
-0.306775
0.235658
0.0711162
-0.168321
0.224884
-0.0912377
-0.0402034
-0.134406
-0.0618879
0.196294
0.127244
-0.0625389
-0.0647051
0.0792492
-0.0862616
0.0133464
-0.105263
0.0919166
-0.209886
0.269037
-0.0591512
0.215678
0.0867721
-0.30245
-0.0452859
-0.140299
0.185585
-0.286607
0.0742232
0.311955
-0.112092
-0.199862
-0.148649
0.210052
-0.0614025
0.0740457
0.0186114
0.133879
-0.0812913
-0.052588
-0.0229517
0.0694666
0.0675502
-0.27139
0.20384
-0.160606
0.220104
-0.0594982
-0.0120372
-0.0301725
-0.0726387
0.112329
-0.184709
0.13313
0.0515797
0.18868
0.0829228
0.0954229
0.21746
-0.273098
0.0776647
0.195433
-0.102797
-0.193662
0.259761
-0.187587
-0.0721748
0.0654261
-0.0201321
0.311325
-0.162663
0.163989
-0.249365
0.0853757
0.31194
-0.243812
0.205482
0.058448
-0.26393
0.0231121
0.288828
0.0289941
0.0264514
-0.0450395
-0.0563756
0.101415
-0.146002
0.0773592
0.0686429
-0.325249
0.236238
0.0890108
0.21635
-0.0679845
-0.0784357
0.106533
-0.0280972
0.139789
0.0691447
-0.208934
-0.0495043
-0.0757494
0.268676
-0.198412
-0.0702639
0.211847
0.100108
-0.055003
0.127016
-0.0720133
-0.0511145
-0.110427
0.161542
-0.178665
0.0694515
0.109214
0.141797
0.0303014
0.0048316
0.0681017
-0.0729333
-0.025044
-0.262706
0.28775
-0.000908439
-0.00391917
-0.0403716
-0.177808
0.129533
0.0482755
-0.209521
0.236411
-0.0268897
0.100146
-0.0545111
-0.0456348
0.22783
-0.131072
-0.096758
-0.0318713
0.0654905
-0.0336193
-0.0736133
0.222419
-0.247463
-0.0350416
-0.0392293
0.133221
-0.0998014
-0.0334194
0.115938
-0.0473504
0.064204
0.144803
-0.209007
0.00272196
0.0281608
0.258298
-0.0505249
0.0813322
-0.0370183
-0.0443139
0.0473248
-0.0532953
0.00597055
-0.310437
0.10403
0.206406
0.182463
-0.135134
-0.0473296
-0.165497
-0.152024
-0.0789535
0.171407
-0.0924538
-0.197305
0.28987
-0.0925647
0.185227
0.0893678
0.232355
0.0436682
-0.276023
0.188755
-0.263652
0.285013
-0.0659264
-0.0402398
-0.0109452
0.051185
0.0514704
-0.156068
0.0970752
0.0589931
0.0791579
-0.0211985
-0.0406339
-0.060095
0.227604
-0.0376846
-0.0945682
0.0819283
-0.0745143