/*--------------------------------*- C++ -*----------------------------------*\
| =========                 |                                                 |
| \\      /  F ield         | OpenFOAM: The Open Source CFD Toolbox           |
|  \\    /   O peration     | Version:  v2012                                 |
|   \\  /    A nd           | Website:  www.openfoam.com                      |
|    \\/     M anipulation  |                                                 |
\*---------------------------------------------------------------------------*/
FoamFile
{
    version     2.0;
    format      ascii;
    class       surfaceScalarField;
    location    "100";
    object      phi_0;
}
// * * * * * * * * * * * * * * * * * * * * * * * * * * * * * * * * * * * * * //

dimensions      [0 3 -1 0 0 0 0];
oriented        oriented;


internalField   nonuniform List<scalar> 
81438
(
-0.210229
0.316313
-0.106083
-0.298952
0.101364
0.197588
-0.311178
0.100948
0.0468
0.0135561
-0.0603561
0.0505476
-0.0860101
0.0354625
0.242703
0.0736094
-0.206419
-0.0680485
0.274468
-0.0439152
-0.0121717
0.0560869
0.01144
-0.0621172
0.0506772
0.0438148
-0.10213
0.0583148
-0.331089
0.219615
0.111473
-0.0490264
0.0424389
0.00658749
-0.363375
0.270271
0.0931045
0.0714325
-0.28161
0.210178
-0.0649061
-0.242522
0.307428
-0.270573
0.346702
-0.0761291
0.0183081
-0.0154648
-0.00284334
0.238059
-0.227367
-0.0106926
-0.334346
0.0637725
0.0471059
-0.011341
-0.0357649
0.182257
-0.043039
-0.139218
-0.104183
0.166898
-0.0627149
-0.0757013
0.295274
-0.219573
0.275687
-0.0377232
-0.237964
0.0383327
-0.256409
0.218076
-0.0199799
0.0812149
-0.0612351
0.249253
-0.0645638
-0.184689
0.23272
-0.297626
0.0926127
-0.039063
-0.0535497
-0.316751
0.13857
0.17818
-0.0853405
0.180504
-0.0951634
0.0652808
-0.211837
0.146556
-0.23209
0.329435
-0.0973457
0.112239
-0.101994
-0.0102448
-0.222057
0.284918
-0.0628613
0.29848
-0.148622
-0.149858
0.0668949
0.0525341
0.10792
0.149397
-0.257317
-0.109664
0.0511498
0.0585144
0.259677
-0.157538
-0.102138
0.0833008
-0.0833954
9.45206e-05
0.376488
-0.168041
-0.208447
0.125254
-0.212063
0.086809
-0.141957
-0.0958628
0.23782
0.165677
-0.274971
0.109293
0.16351
-0.217875
0.0543655
-0.251226
0.00809003
0.243136
0.0162838
0.232969
-0.180249
0.288169
-0.151654
0.0474709
-0.129785
0.295462
0.25781
-0.236992
-0.0208182
0.284525
-0.235284
-0.0492411
0.146884
-0.0932406
-0.0536431
-0.139787
0.0859323
0.053855
-0.172326
-0.158762
0.0087729
-0.0526881
-0.119167
-0.0598636
0.17903
-0.182421
0.0715262
0.110895
-0.290483
-0.0171964
0.307679
-0.0682887
-0.0413756
0.1925
-0.146117
-0.0463823
-0.201839
0.0890195
0.11282
-0.148937
0.207791
-0.0588541
-0.0113943
-0.00719971
0.018594
0.169823
0.0898532
-0.137901
-0.117652
0.255553
0.0048232
0.020557
-0.0253802
-0.014471
0.272281
0.0359809
-0.2424
0.0227803
-0.0125492
-0.0102312
0.206817
-0.290692
0.0838744
0.0990873
0.0477964
-0.25917
0.0270806
-0.0562778
-0.22
0.276278
-0.281855
0.0306293
0.110113
-0.206927
0.0968135
-0.127772
-0.0199906
0.147763
0.00838438
0.0749165
-0.0497945
0.102449
-0.0526543
0.2388
0.0368869
-0.215046
0.0995767
0.115469
0.0125873
0.0101931
-0.0219927
0.000423638
0.0215691
0.131172
-0.223803
0.0926309
-0.221839
0.293987
-0.0721473
0.0400231
-0.0445151
0.00449204
-0.0572098
0.239467
-0.299567
0.0777271
0.0587723
-0.00484748
-0.0539248
0.0850323
0.187866
-0.272898
0.145334
0.153146
0.0189753
0.00456696
-0.0235423
-0.0680143
-0.147031
-0.180791
0.247959
-0.0671678
-0.11326
0.0817877
0.031472
-0.140525
-0.0439656
0.184491
-0.0393191
-0.138472
0.177791
0.212561
-0.0873071
0.226404
-0.320068
0.0936638
0.318789
-0.145301
-0.173489
0.00184202
-0.0391438
0.0373018
0.0435629
-0.0519747
0.0125188
0.0394559
0.175769
-0.275226
0.0994562
-0.0149166
0.0629303
-0.0480137
0.281176
-0.0743585
0.0546481
-0.0835403
0.0288923
-0.233543
0.327222
-0.093679
-0.15233
0.232199
-0.079869
0.0312936
-0.219005
0.187712
-0.00381687
-0.123956
0.00869534
0.00843419
-0.0171295
0.202974
-0.154697
-0.0482767
0.223682
-0.207398
0.0773552
-0.243768
0.166413
-0.0046809
0.24274
0.158064
-0.212271
0.0542071
-0.0959961
0.271765
0.155817
0.162973
-0.274317
0.193056
0.0812617
0.0495925
-0.0521345
0.00254199
0.0725471
-0.092527
0.17031
-0.0681064
-0.102203
-0.0200824
0.121114
-0.101032
0.017502
-0.00337785
-0.0141242
-0.0508588
-0.14128
0.192139
-0.130431
0.0743049
0.0561263
0.0258269
-0.0210037
0.210956
-0.151414
-0.0595426
-0.0437089
0.148071
-0.104363
-0.0794841
0.197954
-0.11847
0.0392513
0.200256
-0.239507
0.000864768
0.0866065
-0.0874713
0.0733824
-0.21534
-0.303011
0.0809547
0.0207872
-0.0889196
0.0681324
0.0397939
-0.0547105
-0.138134
0.118051
-0.210881
0.212857
-0.00197612
0.234245
-0.156889
-0.265771
0.340463
-0.0746921
-0.169308
0.216058
-0.0467495
-0.019337
0.0209752
-0.00163823
0.225936
-0.0947635
-0.103655
0.10452
0.0373218
-0.112438
0.0751163
0.031005
0.0727783
-0.103783
0.0390499
-0.19138
0.00530608
0.013002
-0.345863
0.142252
0.203611
-0.185755
0.0947508
0.0910039
0.200358
-0.154463
-0.0458944
-0.194484
0.264518
-0.0700344
0.0712356
-0.125812
0.0545761
0.0428524
-0.00282938
0.0531349
0.00563743
0.00200229
0.22168
-0.336464
0.14288
0.193584
0.138499
-0.177818
-0.0823319
-0.161974
0.244306
0.0226591
0.0434491
-0.0661082
-0.02175
-0.000242693
0.0102422
0.193943
-0.204185
0.0491938
-0.00208789
0.0548222
0.0972141
-0.152036
0.210113
-0.0520489
-0.212384
-0.0590533
0.271437
-0.0905452
0.246025
-0.15548
-0.236061
0.267354
-0.0309296
0.0139056
0.017024
0.25782
-0.337953
0.0801325
-0.192254
-0.153609
0.0866656
-0.0318476
-0.054818
-0.150956
0.107247
0.0504667
-0.219775
0.0230222
0.0460583
-0.0690805
-0.145429
0.0573188
0.0881098
-5.60383e-05
-0.019281
-0.24645
0.256692
0.23093
-0.329382
0.0984525
0.352437
-0.15365
-0.198787
0.00692368
-0.02716
0.0202363
0.0228624
0.141381
-0.164243
-0.167872
-0.168592
0.285085
0.0026257
-0.287711
-0.0212526
-0.0420771
0.0633297
-0.066558
-0.137345
0.203903
0.0484115
-0.188937
-0.151067
-0.212308
0.280702
-0.108926
-0.171775
-0.0355981
-0.0163766
0.14108
0.235408
-0.137473
0.270733
0.0443147
-0.0465915
0.00227675
0.0778233
-0.19699
-0.317521
0.219086
0.098435
0.186101
-0.148041
-0.0380604
-0.0454193
0.0446923
0.000727005
0.148658
0.203779
-0.0140559
-0.0196768
0.0337327
0.301496
-0.0687762
0.0044957
-0.253342
0.248846
0.0431468
-0.0974453
0.0542985
-0.000812472
-0.0110955
0.011908
-0.00184704
0.12636
-0.124513
-0.330438
0.268254
0.0621843
0.107787
-0.0646407
0.326422
-0.320397
-0.00602498
0.0438857
-0.0651383
0.279542
-0.259579
-0.0199628
-0.00333545
-0.045691
0.0239925
-0.0794126
0.0554201
-0.104948
-0.0808072
0.284275
0.0105142
-0.294789
0.00184228
-0.107818
0.105976
0.0742845
0.0400626
-0.114347
-0.0358041
-0.275373
0.308906
-0.203811
-0.105095
0.268268
0.0160069
-0.27146
-0.058978
-0.019937
-0.0109925
0.213066
0.0681096
0.0915096
-0.0403598
-0.283295
0.148317
0.0457155
-0.0498761
0.00416055
0.0828907
-0.162375
-0.0243819
-0.0124138
0.0367957
0.12611
-0.0763208
-0.0497894
0.00441687
0.0214101
0.166528
-0.0742921
-0.0922359
-0.305937
0.0723947
0.0449559
-0.128649
0.0836929
0.165751
-0.20879
0.103664
-0.059849
-0.244516
0.153971
0.119267
-0.184055
0.044158
0.000156674
0.021533
-0.283571
0.262038
0.222344
0.0865616
0.236869
-0.332042
0.0951734
0.187575
-0.279118
0.0915439
0.307599
-0.0852547
-0.0453877
-0.0943997
0.272331
-0.0217509
-0.25058
-0.0300409
0.0378494
-0.00780852
-0.108462
-0.107754
0.216216
-0.333921
0.154175
0.179746
0.235854
-0.197521
0.00782491
-0.0442978
0.0364729
0.244718
0.0403665
0.0810421
-0.026394
-0.3548
0.284552
0.0702484
0.208666
-0.0954612
-0.113205
0.264107
-0.192674
-0.220128
0.280686
-0.060558
-0.0384378
0.044122
-0.0495826
0.0054606
-0.163049
0.274399
-0.11135
-0.216366
0.285949
-0.0695831
-0.22763
0.299833
-0.0722036
0.0465154
0.0150711
-0.0615866
-0.174106
0.0946333
0.0794725
0.0182278
-0.158919
0.140691
0.0590534
-0.0660047
0.00695133
0.125624
0.10397
-0.166715
0.0627446
-0.231123
0.157371
0.0737512
0.238259
-0.322681
0.0844219
0.0276058
-0.0590842
0.0314783
0.106605
-0.215067
0.289903
-0.0768372
0.0489016
-0.0519803
0.00307863
0.0528856
-0.0450606
-0.0903616
0.062183
0.0281786
0.155728
0.0446296
0.0208033
0.258738
0.0658886
0.013959
-0.0798476
0.235835
-0.155701
-0.0801336
-0.269449
0.1064
-0.300927
0.119891
0.181036
-0.219428
-0.114493
-0.093267
0.0372507
0.0560163
-0.0187891
0.000681515
0.0181076
-0.24142
0.0983062
0.143114
0.0573378
-0.10366
0.0463227
-0.01578
-0.116777
0.132557
-0.035224
0.045039
-0.009815
-0.206471
0.052008
-0.261132
-0.0293509
0.0581991
0.150467
-0.0246247
-0.10659
0.131214
0.0158282
-0.023972
0.00814375
-0.0386119
0.0913232
-0.0527113
0.220909
-0.160028
-0.0608811
-0.0582524
-0.20338
0.261632
0.227972
-0.278831
-0.128529
0.112749
-0.333465
0.171459
0.162006
-0.0188222
0.0614852
-0.042663
0.0141475
-0.0742491
0.0601017
0.290087
-0.1056
-0.184487
0.207375
-0.189147
0.0664404
0.00920619
-0.0756466
-0.0472971
0.0120731
-0.0343542
0.00431325
0.0174274
-0.0130671
-0.00436038
0.035025
-0.0744314
0.0394064
-0.00592178
0.207499
0.0770261
-0.159461
-0.081959
0.171914
-0.0679436
-0.0186899
0.00152892
0.017161
-0.0352335
-0.0104323
0.0456659
0.0122162
-0.152341
0.140125
-0.0020427
-0.0167464
0.0409489
-0.118719
0.0777706
-0.0612206
0.00152702
0.0596935
0.138164
-0.204722
0.0296361
-0.0227124
-0.0324876
-0.0276782
0.0601658
-0.163901
0.242985
-0.0790834
-0.134973
0.147189
0.0310555
0.241276
-0.202321
0.297407
-0.0950858
-0.00775162
-0.0824509
0.0902026
0.0554799
0.151895
0.260227
-0.292713
0.0324865
-0.0422022
0.00399418
0.038208
0.050347
-0.00144535
-0.0807107
0.31164
-0.218046
-0.115419
-0.0492832
0.291986
0.0504087
-0.100203
-0.14862
0.215823
-0.0672028
0.160608
-0.257908
0.0972999
0.236104
-0.346265
0.110161
0.032347
-0.121179
0.0888319
0.306633
-0.104667
-0.201966
0.0635266
0.0625836
0.189437
-0.201103
0.0116658
0.00203725
0.0990378
0.207595
0.0740021
-0.277527
0.203525
-0.000230543
-0.0233735
0.023604
-0.0618891
0.200053
0.211301
-0.155821
-0.0735555
-0.0568758
0.31486
-0.0311184
-0.283742
0.186179
-0.25082
0.064641
0.317285
-0.118233
-0.199052
-0.15987
0.0760499
0.0838198
0.180469
-0.0419698
-0.129478
-0.0141951
0.0732485
-0.141412
0.197326
-0.055914
-0.0324409
-0.00191323
-0.115385
0.0907604
0.270122
-0.0329204
-0.237202
0.151962
-0.342037
0.190075
0.090979
0.199108
0.00510883
0.0123186
-0.235437
0.30477
-0.0693332
0.313214
-0.07711
0.0380283
-0.0705159
-0.278167
0.0965308
0.181636
0.279261
0.0170541
-0.296315
-0.195095
0.259622
-0.0645278
-0.0259029
0.0923433
0.120767
0.0893459
0.118107
-0.182671
0.321634
-0.169672
0.0156757
-0.274555
0.25888
-0.101186
0.093434
-0.0692826
0.0504604
0.00178193
-0.0567708
0.0549889
0.0935875
-0.0625825
-0.0449801
0.0097466
-0.165668
0.126042
0.0396258
0.00551456
0.0670241
-0.0725386
0.0856169
-0.0360037
-0.0496132
0.0173266
6.05404e-05
-0.0173872
0.06086
-0.0467125
0.212083
-0.146802
0.0778951
-0.0539026
0.0761362
0.0316513
-0.0751645
0.0282832
0.0468813
-0.0105536
0.0675053
-0.0569516
-0.272667
0.0781829
-0.00512031
-0.123409
-0.115684
0.172946
-0.0572613
-0.198251
-0.143786
0.18134
-0.11761
-0.0637302
0.253753
-0.214502
0.20066
-0.14721
-0.0534494
-0.0339702
0.100865
0.0640857
0.136574
0.0563594
0.234417
-0.290776
0.150077
-0.155197
-0.156072
-0.0748972
-0.178341
0.253238
-0.236815
0.339221
-0.102406
0.0794074
-0.0586201
0.0793361
0.102004
0.0530129
0.0331303
-0.00680393
-0.0544166
0.0319725
-0.12692
0.0949475
0.21544
0.0448437
-0.260284
0.200874
-0.151462
-0.0494114
-0.152751
0.229761
-0.0770095
0.262471
-0.047031
-0.00610012
0.0205133
-0.296459
0.119559
0.1769
-0.228839
0.301087
-0.0722476
0.281166
0.00830844
-0.289475
-0.00873585
0.0174312
0.194621
-0.252873
-0.0927617
0.253369
-0.0213136
-0.0159674
0.0372811
-0.174499
-0.158373
-0.115945
-0.0465387
0.0430619
0.00347682
0.269671
-0.0549024
-0.214768
0.261603
-0.189383
-0.0722194
-0.0401608
0.0440177
-0.00385697
-0.0929051
-0.167592
0.260497
0.261191
-0.245515
0.0681579
0.0504721
0.0351449
-0.230157
0.271641
-0.0414838
0.014603
-0.0152776
-0.0684682
0.189235
0.203197
0.118437
0.228697
-0.303248
0.0745509
-0.33502
0.254683
0.0803362
0.33015
-0.217294
-0.112856
0.0427386
-0.0459182
0.00317954
0.0334277
0.184502
-0.217929
-0.00996914
0.0484041
-0.0384349
-0.0684218
0.155719
-0.0872977
-0.0501161
-0.157784
0.2079
-0.0764363
0.111003
-0.0345667
-0.0339953
0.00155432
0.158883
-0.0350687
-0.123814
0.141045
0.189105
0.15635
-0.0231347
-0.133215
-0.0383549
0.0462205
-0.00786557
-0.00733209
0.0283764
-0.0210443
-0.187125
0.220553
-0.015088
-0.259467
-0.0560757
-0.0413696
0.229864
-0.307915
0.0780519
-0.13517
-0.0472516
0.252113
0.00907857
0.0445998
0.225071
0.0541976
-0.0265917
-0.192407
0.155207
0.0372007
0.234018
0.0657804
-0.299798
0.0411079
-0.0405242
-0.00058363
0.308412
-0.0785488
-0.232252
0.236748
-0.0741537
0.308171
-0.113844
0.0307312
0.0831127
-0.271234
0.262547
0.00868681
0.0870248
-0.0211361
0.0157391
0.00523611
0.0606445
0.165693
-0.226338
0.266598
-0.216131
0.0318488
-0.0418179
0.117088
-0.0592421
-0.0578462
-0.0527087
0.0343432
0.0183655
-0.0131918
0.169542
0.119327
-0.0679553
-0.0513713
-0.062825
0.0522713
0.0458747
-0.00302223
0.133311
0.0471579
-0.0574055
0.101454
-0.0440484
-0.29411
0.211779
0.198108
-0.265185
0.0670765
-0.0289647
-0.061397
0.10523
-0.0648239
-0.0404065
-0.239418
0.175122
0.0642953
-0.0235682
0.025922
-0.00235373
0.00275293
0.0582229
-0.162486
0.0704695
0.0920164
-0.223963
0.316943
-0.0929797
-0.334219
0.133157
0.201062
-0.0338753
0.0868882
0.0316619
-0.0343156
0.00265374
-0.0967969
0.0530706
0.0437264
-0.0940859
-0.0607854
0.154871
-0.0142295
0.0156886
-0.00145903
-0.0182659
-0.00167116
0.0836737
-0.273057
-0.191747
0.138464
0.0532835
0.154634
0.04624
-0.29729
0.211988
0.0853018
0.27665
0.00261127
0.0231574
-0.074172
0.0510146
0.256576
-0.181152
-0.0754233
-0.0789831
-0.218307
-0.212939
0.30552
-0.0925813
0.250207
0.0309592
-0.0617299
-0.201254
0.262984
0.0580484
0.226848
-0.284896
-0.0750323
-0.196202
0.110705
0.0394466
-0.150152
-0.124243
0.195443
-0.0711994
0.032262
-0.273685
0.241423
-0.0473906
0.203119
0.0909378
-0.284818
0.19388
0.10836
0.1656
-0.27396
-0.0487615
0.0599518
-0.296767
0.020903
0.13798
0.0546302
-0.0597351
0.00510486
-0.0808737
0.0185005
0.0623733
-0.051891
-0.0157513
0.00152179
0.0207628
-0.000351989
-0.0204108
0.0415735
0.0598805
0.197693
-0.102942
0.0831088
-0.0325612
-0.286495
0.0439734
0.132847
-0.270748
0.158758
0.0521983
0.171429
-0.252281
0.0808515
-0.314122
0.123052
0.19107
0.0511535
0.0034767
-0.20601
0.0459824
-0.0405907
6.64944e-05
-0.0337274
-0.0491165
-0.120982
0.170099
0.0969886
0.100705
-0.104192
0.0530679
0.051124
0.0397052
0.00303342
0.0147624
-0.11508
-0.0422597
0.15734
-0.100564
0.227295
-0.126731
0.0554062
0.211192
0.231367
-0.144864
-0.0865032
0.0752442
0.0973776
-0.172622
-0.137629
-0.114391
0.25202
-0.0512317
0.0626717
-0.173789
0.0353174
-0.115417
0.0566841
0.058733
0.130501
-0.0482401
-0.0822613
0.130803
-0.193471
-0.140749
-0.0481737
0.122458
-0.0921526
0.0513179
0.0408347
0.15562
-0.0928214
-0.0627985
0.278059
0.036801
-0.0848139
-0.0096702
0.0944842
-0.0481332
0.00159444
-0.169841
0.0840984
0.0857428
-0.0359292
-0.263827
0.134191
0.0561519
-0.261289
0.205137
0.0727326
-0.0731738
0.000441152
0.194664
-0.256394
0.0425221
0.00335257
0.207524
-0.161238
-0.0462856
-0.000349998
0.010953
-0.010603
0.159235
-0.209351
-0.159744
0.0744038
-0.178652
0.128548
0.0501044
-0.229293
-0.0470616
0.276354
0.298616
-0.0947404
-0.203876
-0.302397
0.274595
0.0278026
-0.0879894
-0.0818518
-0.0254147
0.00184645
-0.154469
-0.0357284
0.190198
0.0827757
0.0728442
-0.063871
0.16696
-0.103089
-0.055489
-0.0481715
-0.275968
-0.0264292
-0.147431
-0.0447144
0.192145
0.0620346
0.0328276
-0.00116574
-0.0512537
0.0478006
0.00345312
0.243356
-0.187204
-0.0159833
0.0126054
0.215417
-0.0890572
-0.0228315
-0.0298772
0.205577
-0.266944
0.061367
0.20347
0.0798171
-0.283287
0.115476
0.18314
0.308808
-0.105338
-0.16735
0.0712012
0.0961488
0.0629959
-0.0403369
0.0441133
0.0153676
-0.0594809
0.0999611
-0.0610809
-0.0388801
0.0844727
0.142822
0.155824
-0.0451183
-0.0876165
0.259046
0.118831
-0.167948
0.0934816
-0.020749
0.295982
-0.12198
-0.174002
-0.0936285
-0.062723
0.156351
-0.209901
0.274077
-0.0641765
0.0382958
-0.0148006
-0.0234952
-0.194549
0.273528
-0.0789794
-0.0833257
-0.0907801
0.184994
-0.128014
-0.0569796
0.179709
-0.0850762
-0.0485147
-0.0112203
0.102888
-0.0945039
-0.300438
0.167871
0.132567
0.204787
0.0911949
-0.147239
0.0919692
0.0552698
-0.0220566
0.11414
-0.0920833
0.00222291
0.100665
0.298887
-0.0724832
-0.199225
-0.0401928
0.0423434
0.0881105
-0.0326146
-0.0554959
-0.0864724
-0.0607666
-0.301402
0.308687
-0.00728574
0.0535666
-0.0512785
-0.00228809
0.0380398
-0.0817137
0.0436739
-0.275813
0.0659125
0.0493611
0.0421486
-0.0284549
-0.0897768
0.118232
0.104765
0.110652
0.310137
-0.225104
0.0964775
0.0157618
0.00505187
-0.146541
0.200951
-0.0544099
-0.15071
0.208251
-0.0575416
0.163739
0.0470865
-0.210826
0.224794
0.0766222
-0.301416
-0.0794814
0.0150843
0.0643971
-0.138741
0.0553264
0.083415
0.118339
-0.0043289
-0.11401
0.174905
-0.250773
0.0758685
0.0474753
-0.00335333
-0.0198054
0.0273497
-0.0075443
0.325847
-0.0920046
-0.233842
0.0217882
-0.122039
0.10025
-0.105933
0.0468511
0.0590814
-0.0529532
0.258531
0.0791647
0.246682
0.139865
-0.0647635
-0.0751013
0.0169707
0.000355955
-0.120254
0.0981973
-0.00126131
0.0061166
-0.272557
0.0858921
0.186665
-0.197021
0.273413
-0.0763928
0.037433
-0.18355
0.0639414
0.147077
0.0604465
-0.104098
0.125886
-0.160373
0.110545
0.0498283
0.16299
-0.321972
0.158981
-0.00386703
0.043751
-0.132648
0.0888968
-0.0279665
-0.0515148
-0.0607779
-0.0238831
0.084661
0.0369159
-0.113352
0.281208
-0.19027
0.058699
0.0811658
-0.0581363
0.129372
0.0953651
-0.14943
0.0540649
0.0604583
0.120046
-0.100434
0.173806
-0.0733718
-0.051656
0.0474682
0.00418775
0.308695
-0.201146
-0.107549
0.128684
-0.141876
0.0579588
-0.0840094
0.0260507
0.0224059
-0.0681792
0.0457733
0.0214267
-0.00568763
0.0321401
0.00885505
-0.0409951
0.0362526
-0.00342495
0.0851641
-0.0395809
-0.0455832
-0.0468353
0.0642025
-0.0173672
-0.300719
0.12467
0.176049
0.0171722
0.21719
-0.234362
-0.113897
-0.0517701
-0.333041
0.119065
0.213976
0.0868935
-0.180522
-0.116189
-0.18453
-0.0871243
-0.0226684
0.109793
0.0555238
0.031501
0.00874869
0.008222
0.089092
-0.117547
0.13916
-0.197126
0.0579653
0.182607
-0.29066
0.108053
-0.0405129
-0.0454972
0.0357749
-0.0392545
0.00347964
0.0988855
-0.0520208
-0.0468647
0.000422312
-0.0140398
0.0136174
-0.022852
-0.0346302
0.0574822
0.00200588
-0.0478807
-0.0382922
0.0861729
0.309807
-0.0275625
-0.282245
0.0400852
0.0588003
-0.193867
0.145299
0.0485681
0.321795
-0.107806
-0.213989
0.0515117
0.0418442
0.00437631
0.265524
-0.0779495
-0.19134
0.0921803
0.0991594
0.0305876
-0.0287456
-0.0605083
0.224248
0.224602
-0.301815
0.0772139
0.0711008
-0.0360758
0.0662244
-0.0438185
0.188735
-0.135245
-0.0534894
-0.257468
0.332642
-0.0751741
0.308088
-0.0834867
0.114225
-0.031629
-0.0825959
0.240736
0.0690716
0.0685978
-0.121679
0.0530809
0.111281
0.0070579
-0.156189
0.250659
-0.0944701
0.0471068
-0.162187
0.174481
-0.0917053
0.00403851
0.0100342
-0.0140727
-0.330443
0.0950057
-0.0207434
-0.0412292
0.0619726
0.0196565
0.0430003
-0.0626568
-0.303568
0.227867
-0.228838
0.313436
-0.0845972
-0.0237296
0.0678429
-0.0494498
0.284298
-0.175938
0.053166
0.0349444
0.0131657
-0.0127434
0.293037
-0.199573
-0.0934639
0.0426132
-0.0906329
0.0480197
-0.174661
-0.125777
0.335771
-0.156443
-0.179328
0.0828136
-0.275818
0.193004
-0.0284526
-0.0921491
0.120602
-0.230087
-0.0313
0.261387
0.0470898
0.0528713
0.0926671
-0.0558885
-0.0367787
-0.254538
0.0762854
0.178253
0.0230971
0.00066317
-0.0237603
0.0892037
-0.226833
-0.0443008
-0.0272227
0.0715234
0.232324
0.0920868
-0.324411
0.143095
0.192676
0.0402827
0.00156151
0.220013
0.0730241
-0.212939
-0.0127779
0.225717
-0.0359344
0.0335841
0.00235028
-0.134469
-0.0593986
0.0137411
0.0524833
0.294076
-0.287585
-0.00649086
0.0740704
-0.0509129
0.0143889
0.000214134
-0.0554119
-0.200222
0.255634
0.229496
-0.300959
0.0714627
-0.0418031
-0.0598021
0.101605
0.349125
-0.143358
-0.205767
0.0251999
-0.255287
-0.00873149
0.00838149
0.25537
-0.0607487
0.0699465
-0.128314
0.0583671
0.105451
-0.0681296
-0.171725
0.190881
0.158245
-0.0713477
-0.204961
0.276308
0.0318721
0.00438054
-0.300363
0.129447
0.170916
0.0916274
0.088082
-0.0240948
0.0686349
-0.0445401
-0.26869
0.066217
0.202473
-0.119675
-0.194447
0.340586
-0.303592
-0.036994
0.0408764
0.128974
-0.169851
-0.104991
0.0529703
0.05019
0.138545
-0.103242
-0.0106023
0.161968
0.0738668
-0.0789365
-0.189754
-0.0811128
0.135935
-0.0758251
0.262004
-0.0686464
0.0445516
-0.0462604
0.0572887
-0.00415381
0.068147
-0.021347
0.050835
0.00645369
-0.0713081
0.131253
-0.0875022
-0.194763
-0.1056
0.0827335
0.0917475
-0.282967
-0.0560423
-0.165811
0.221853
0.0475509
0.0837022
0.0541155
-0.0869554
0.184235
-0.0732642
-0.0866054
0.00266556
-0.0634435
0.189547
-0.244959
-0.0368375
0.0330931
0.00374439
0.23212
-0.177335
-0.0547855
0.167722
0.0558394
-0.0745135
0.0366838
-0.0417497
0.00506593
-0.0732502
-0.0400094
0.266951
0.0122653
-0.279217
0.163726
0.106297
-0.270024
-0.0510827
0.0571038
-0.00602106
-0.231973
-0.0704713
0.302444
-0.0773171
0.0278514
0.0494656
-0.161542
0.0826823
0.0788598
0.17314
-0.0761516
0.0681262
-0.300099
-0.139547
0.303273
-0.214852
0.156154
0.0586984
-0.0585873
0.191898
0.00191509
0.266567
0.0314021
-0.297969
7.71907e-05
0.0356977
0.0402903
0.196385
-0.236675
-0.01477
0.0171011
-0.00233115
0.200607
-0.205288
-0.0792175
-0.218905
0.298123
0.295903
-0.188898
-0.107005
-0.100729
0.0589256
-0.0562633
0.24581
0.212556
-0.172266
-0.340929
0.188039
0.15289
0.275069
-0.200067
-0.0750016
0.0926308
0.0776791
0.225322
-0.30454
0.195114
-0.222758
0.0276431
0.0205322
-0.0484206
-0.0483763
0.00286126
-0.051753
0.0488918
-0.00359698
0.0640831
-0.0604861
-0.0429744
-0.00432265
0.0127537
-0.0200858
-0.0662602
0.0455168
-0.171559
0.0850864
0.21584
-0.213837
-0.0200792
-0.00572961
0.0258088
0.050693
-0.0717828
0.0210899
0.069103
0.104037
-0.0374858
-0.0659719
-0.0494452
-0.0411771
-0.260115
0.301292
0.0516325
-0.279836
0.142109
0.137726
0.063659
-0.187902
-0.0183112
0.0179593
0.0458726
-0.0451631
-0.000709459
-0.237669
0.195985
0.0416844
-0.0222031
0.0266199
0.0308622
-0.0805509
0.0496887
0.205939
-0.00533183
0.0807825
-0.0187547
6.47809e-05
0.11525
-0.22979
0.11454
0.0856479
-0.0326667
-0.0529811
0.131586
-0.0456535
0.305184
-0.256913
-0.0482704
-0.0848125
-0.190828
0.27564
-0.105566
-0.0564273
0.161993
-0.0475898
0.00461539
0.0145618
-0.0374137
-0.00923435
0.255034
0.0708001
-0.134671
-0.146399
-0.0460082
0.153186
-0.0578209
-0.0220854
-0.228323
0.250408
0.216115
-0.315716
0.0996014
0.0283788
0.00368245
-0.0320612
-0.00325341
0.000288266
0.0704715
-0.0707598
0.0193663
-0.0187009
-0.0396656
-0.138987
0.172097
-0.0351321
-0.136965
0.0932135
-0.0913712
0.336109
-0.119994
-0.0219381
0.00216174
0.0197764
0.00295629
-0.207676
0.20472
-0.0469811
-0.0257525
0.0727336
0.381267
-0.164392
-0.216876
0.149497
0.0681368
-0.217634
0.197861
-0.0877471
0.0815029
-0.0259791
-0.109562
-0.12156
-0.290438
0.0602813
0.0556391
-0.279602
-0.0473398
0.208868
0.172399
0.213077
-0.0584428
0.0493797
0.193005
-0.242385
0.214805
-0.0653081
-0.233915
0.30322
-0.0693047
-0.206426
-0.134504
0.228846
0.0929486
-0.167619
-0.0164359
0.00741349
0.086174
-0.115716
0.0418076
0.0739083
0.174479
0.10059
0.263799
-0.0390053
0.0646388
-0.0682357
-0.16777
-0.350336
0.188224
0.162112
0.122821
-0.0485156
-0.0486515
0.0515128
-0.0252445
0.0051653
0.153579
-0.209621
0.276222
-0.0729287
-0.203293
0.0634162
-0.175467
0.112051
0.0155947
-0.0315622
-0.11709
0.088637
0.137141
0.0851531
-0.222294
-0.0704207
-0.010453
0.0203935
-0.201184
0.148356
-0.209005
0.0606494
-0.303396
0.126295
0.177101
0.171371
-0.148863
-0.0225078
-0.014126
0.0184035
-0.00427749
0.196245
-0.252508
0.0554584
-0.0323674
-0.023091
-0.0169101
0.00551581
0.196343
-0.281156
-0.0618733
-0.225874
0.287747
0.109185
-0.0682359
0.0632399
-0.155498
0.0922576
0.0249716
0.21212
0.0316909
-0.243811
-0.125253
0.0468886
0.0783646
-0.23662
0.310092
-0.0734724
-0.032996
0.0312779
0.00171813
0.0685638
0.0394247
-0.00728462
0.243989
-0.128739
0.0645273
0.161213
-0.225741
-0.219395
-0.0429888
0.262384
0.0289946
-0.0969041
0.0679095
-0.0459479
0.00570839
0.0402395
0.0107511
-0.069259
0.0585079
0.0991418
-0.0311909
-0.0679508
-0.0729259
0.0732141
0.0653726
0.234821
-0.300194
0.0380583
-0.294972
0.34947
-0.164968
0.282682
-0.0248615
-0.016716
0.21183
0.146719
-0.0322721
-0.114447
0.0452971
0.0228499
-0.00417971
0.0189421
-0.0504478
-0.078061
0.128509
0.0410626
0.0441014
0.0396909
0.0832137
-0.122905
0.232399
0.127675
0.221794
0.165316
0.0477608
0.0533312
-0.095146
0.0418148
0.00531713
0.0121286
-0.0174457
0.200897
-0.0951756
-0.105722
0.185245
-0.0399462
0.256633
-0.0619691
-0.000502439
0.141764
-0.104724
-0.0370395
0.0953241
-0.257298
-0.194821
-0.158628
-0.121207
-0.255156
-0.046246
0.0523971
-0.243971
0.191574
0.0303258
-0.09529
0.0649642
-0.10203
-0.00578868
-0.219013
0.0866557
0.132357
-0.016621
-0.0391749
-0.00257489
-0.034533
0.0148563
0.0864699
0.0451159
-0.148124
0.265976
-0.117852
-0.15826
-0.112848
0.271108
0.101849
-0.0277787
0.0672621
-0.0165691
-0.185745
0.1327
0.0530449
-0.0466326
0.124066
-0.0447301
-0.0793363
0.233162
-0.295035
-0.210819
0.155213
0.0556062
-0.0484952
0.281657
0.0938761
-0.0635503
-0.155115
0.15258
-0.266594
0.114013
0.271603
-0.0877418
-0.183861
-0.0842471
0.297707
-0.21346
0.0207648
-0.00139849
0.0172136
-0.0150518
-0.136733
-0.213603
-0.0596651
0.00156324
0.0581019
0.0292184
0.233984
-0.263202
0.154172
-0.0254878
0.287288
-0.3408
0.0535126
-0.040065
0.000890122
-0.0646304
-0.103934
0.168565
-0.0868475
0.0482356
0.0670306
0.194817
-0.261848
0.189928
0.0578866
-0.247815
-0.0968246
-0.0647175
-0.0067193
0.015468
-0.0714382
-0.193211
0.264649
0.0881696
-0.138617
0.0281949
-0.14358
-0.187286
0.00846876
0.0298271
0.0625791
0.0426513
0.29528
-0.232813
-0.0624671
0.0611352
0.0407139
-0.0638941
0.0496958
0.0141983
0.11832
-0.205621
0.0873018
0.0502104
-0.191622
-0.116056
0.163163
-0.159244
0.251704
-0.09246
-0.0477098
-0.0382878
0.0859975
0.0421315
-0.0548214
0.01269
0.0871165
-0.0249335
0.113456
0.050851
-0.164307
0.0385429
0.0110496
-0.0242726
0.0205707
0.00370191
-0.212018
-0.0581164
0.270134
0.0966277
-0.161258
-0.0107907
-0.0389693
0.04976
0.312883
-0.0494084
-0.263475
0.207773
0.0842117
-0.291985
-0.119846
-0.0255824
0.068766
0.163354
-0.27047
-0.0415084
0.138136
0.200569
-0.0822491
-0.239668
0.107122
0.132545
-0.0936433
0.156883
0.177446
-0.0639897
0.0422373
-0.00253208
0.0538194
-0.0116879
-0.0208698
-0.0570812
0.077951
0.212695
-0.0473796
-0.10052
0.0581281
0.0423923
0.20287
-0.274308
-0.0443023
-0.323303
0.247593
0.0757103
-0.11221
0.0765715
0.0356387
-0.0754695
0.26524
-0.18977
-0.276761
0.220483
0.0355727
-0.0676335
0.0320608
-0.0980666
-0.0734922
0.00283551
0.0500501
-0.0845726
0.0368628
0.0429937
-0.191118
0.017614
-0.0217937
0.0357775
-0.129853
0.0940758
0.0390628
0.00317448
-0.0456119
0.0506451
-0.00503312
0.00408548
0.18803
-0.192116
0.199541
0.094446
-0.0356939
-0.233755
0.0977113
-0.217278
0.119566
-0.0746017
0.0537319
0.190873
-0.140138
-0.0507351
-0.13144
0.0630428
0.0683971
0.212894
-0.15225
-0.0125361
0.203701
-0.191165
0.0621111
0.0250054
-0.0520739
0.0448447
-0.0797076
0.0348629
0.081254
-0.0396156
0.0638076
0.0353342
0.0752799
-0.20984
0.139005
0.0708352
0.155998
0.0600488
-0.216047
-0.0447049
-0.259315
0.30402
0.0764923
0.124405
-0.0587963
0.0480055
-0.15126
-0.0884072
0.0153027
0.0296607
-0.302772
0.0761066
0.226666
-0.222894
0.22698
-0.34282
0.184524
0.158296
0.0308849
-0.0312402
0.00035528
-0.0849894
-0.217783
-0.156146
0.181286
-0.0251403
-0.0880139
-0.196317
-0.146503
-0.044687
-0.00639572
-0.288193
0.101745
0.186448
-0.19918
-0.0137589
0.0564108
-0.0505911
-0.0415615
-0.0393852
0.0182968
-0.074409
0.257016
-0.00786969
0.0199983
-0.0719491
-0.0437669
0.0565638
0.174275
-0.230839
0.0889063
0.0709601
-0.0531329
-0.0178272
-0.0570853
-0.046974
0.104059
-0.113872
0.150266
-0.036394
-0.306775
0.235658
0.0711162
-0.16832
0.224884
-0.091237
-0.0402028
-0.134406
-0.0618874
0.196293
0.127243
-0.0625388
-0.0647041
0.0792492
-0.0862612
0.0133458
-0.105263
0.091917
-0.209888
0.269038
-0.0591506
0.215681
0.0867511
-0.302432
-0.0452857
-0.140299
0.185585
-0.286607
0.0742231
0.311954
-0.112092
-0.199862
-0.148649
0.210051
-0.0614021
0.0740127
0.0185999
0.133881
-0.0812899
-0.0525909
-0.0229588
0.0694742
0.0675501
-0.27139
0.20384
-0.160606
0.220104
-0.0594983
-0.0120293
-0.0301729
-0.0726381
0.112329
-0.184705
0.133132
0.051573
0.18868
0.0829224
0.0954229
0.21746
-0.273097
0.0776627
0.195434
-0.102792
-0.193667
0.259758
-0.187558
-0.0722
0.0654322
-0.0201351
0.311322
-0.162663
0.163989
-0.249365
0.0853756
0.311947
-0.243821
0.205483
0.0584476
-0.26393
0.0231092
0.288838
0.0290068
0.0264516
-0.0450374
-0.0563762
0.101414
-0.146002
0.0773585
0.0686432
-0.325249
0.236238
0.0890108
0.216346
-0.0679897
-0.0784423
0.106533
-0.0280912
0.139779
0.0691495
-0.208928
-0.0495038
-0.0757493
0.268675
-0.198411
-0.0702638
0.211846
0.100108
-0.0550001
0.12702
-0.0720194
-0.0511146
-0.110427
0.161541
-0.178666
0.0694531
0.109213
0.141796
0.0303013
0.00482926
0.068102
-0.0729313
-0.0251362
-0.26278
0.287916
-0.000906716
-0.00392599
-0.0403718
-0.177808
0.129532
0.0482757
-0.209521
0.236411
-0.0268896
0.100095
-0.0545013
-0.0455932
0.227829
-0.131072
-0.0967574
-0.0318721
0.0654901
-0.0336181
-0.0736133
0.222472
-0.247608
-0.0349258
-0.0392462
0.13322
-0.0998008
-0.0334193
0.115937
-0.0473393
0.064204
0.144802
-0.209006
0.00273085
0.0281541
0.258298
-0.0505248
0.0813012
-0.0370313
-0.04427
0.0473258
-0.0532994
0.00597369
-0.310442
0.104069
0.206373
0.182455
-0.135132
-0.0473227
-0.165497
-0.152024
-0.0789537
0.171407
-0.0924533
-0.197305
0.289869
-0.0925648
0.185227
0.0893678
0.232355
0.0436682
-0.276023
0.188755
-0.263652
0.285012
-0.0659263
-0.0402435
-0.0109513
0.0511947
0.051457
-0.15607
0.0970746
0.0589949
0.079158
-0.0211993
-0.040635
-0.0600937
0.227615
-0.0376868
-0.094568
0.0819268
-0.0745133
0.0520061
0.0673205