/*--------------------------------*- C++ -*----------------------------------*\
| =========                 |                                                 |
| \\      /  F ield         | OpenFOAM: The Open Source CFD Toolbox           |
|  \\    /   O peration     | Version:  v2012                                 |
|   \\  /    A nd           | Website:  www.openfoam.com                      |
|    \\/     M anipulation  |                                                 |
\*---------------------------------------------------------------------------*/
FoamFile
{
    version     2.0;
    format      ascii;
    class       volVectorField;
    location    "100";
    object      U;
}
// * * * * * * * * * * * * * * * * * * * * * * * * * * * * * * * * * * * * * //

dimensions      [0 1 -1 0 0 0 0];


internalField   nonuniform List<vector> 
54593
(
(1.01955 0.00845129 5.00609e-22)
(1.02687 -0.0162861 2.52007e-22)
(1.02077 0.00988296 -8.38477e-22)
(1.07513 0.0521153 6.18757e-21)
(1.08966 0.0920237 1.26355e-21)
(1.01756 0.00880756 -5.84605e-23)
(1.00833 0.00143693 -7.71136e-22)
(1.06913 0.053025 -2.03772e-21)
(1.09796 0.0735845 4.26956e-21)
(1.05965 0.0330151 -4.33511e-23)
(1.01537 0.000614728 4.9595e-22)
(1.06366 0.0356667 2.0364e-21)
(1.00319 -4.14245e-05 0)
(1.00895 0.00207764 0)
(1.00938 0.000892365 -1.40197e-22)
(1.01039 -0.00124682 7.92131e-22)
(0.545495 0.0316071 4.53674e-23)
(1.01646 0.00653961 0)
(1.01049 -0.00126924 -8.03655e-22)
(1.05498 0.0747805 0)
(1.01372 0.0067663 1.27865e-21)
(1.02386 0.0186798 1.10972e-23)
(1.02536 -0.00612932 -9.88204e-23)
(1.01138 0.00345467 0)
(1.01176 -0.00146329 -1.13356e-21)
(1.0682 0.0321505 3.56422e-21)
(0.878043 -0.151957 -4.28694e-22)
(1.01111 0.000745367 0)
(1.00139 0.148732 6.49589e-22)
(1.01607 -0.00158622 5.27921e-22)
(1.11157 -0.00890299 0)
(1.05762 0.0636146 7.05482e-22)
(1.007 -0.000402845 -1.38695e-23)
(0.77109 -0.177831 -7.75565e-21)
(1.00853 -0.000851461 3.11613e-22)
(1.01129 0.00315562 6.58885e-22)
(1.07318 0.0287723 -6.87715e-21)
(0.984757 -0.0744032 4.46832e-22)
(1.06319 0.272736 8.60823e-21)
(0.944543 0.300687 -4.6602e-21)
(0.711215 -0.123121 -2.07583e-21)
(1.00237 3.35655e-05 0)
(1.01603 0.00788519 7.216e-24)
(1.01881 0.00680305 2.77532e-22)
(1.0077 0.00113751 -8.28702e-22)
(1.0143 0.0062558 -2.36722e-21)
(1.00865 0.00156324 -3.4765e-22)
(0.885755 -0.180308 0)
(0.986974 -0.0874114 -4.42413e-22)
(1.02404 0.0189336 3.77458e-23)
(1.00762 0.0010981 6.8584e-22)
(1.01082 0.00143024 0)
(1.01258 0.00579708 0)
(1.06561 0.0227171 7.91819e-21)
(1.05138 0.0380667 -2.71563e-21)
(1.01533 0.00058624 6.41659e-22)
(1.06931 0.053514 2.23199e-21)
(1.02576 0.0135811 2.30817e-22)
(1.07897 0.0919302 0)
(1.01569 -0.0018933 4.1377e-22)
(1.07287 0.268056 3.17648e-21)
(1.02168 0.0129247 -3.41906e-22)
(1.01886 0.0162473 -5.45606e-22)
(1.02124 0.0127647 0)
(0.606822 0.0253636 2.26016e-21)
(0.933614 0.289934 6.95335e-21)
(1.01985 0.00290319 0)
(0.694876 -0.0032086 2.09338e-21)
(1.01075 0.00137238 0)
(1.00841 0.0014851 1.25052e-21)
(0.605084 0.028515 1.12905e-21)
(1.01022 0.00368616 -2.14134e-23)
(1.06525 0.0232069 -4.05893e-21)
(1.00695 -0.000381492 -6.79825e-23)
(1.00886 -0.000962829 0)
(1.00872 0.00161966 0)
(0.84376 0.196264 1.51539e-21)
(1.03214 0.0152434 2.06577e-21)
(0.730915 -0.133376 0)
(1.07246 0.0317359 0)
(1.01135 0.00336179 0)
(1.03169 0.00837564 0)
(0.606433 0.0273401 1.87557e-21)
(0.668369 -0.00223551 -1.99034e-21)
(1.01417 0.00518301 0)
(1.01051 0.00199038 1.27398e-21)
(1.05299 0.0644189 -7.01694e-22)
(1.01382 0.0067579 -1.2734e-21)
(1.01061 0.00202867 -8.81995e-22)
(1.06836 0.0470987 1.09785e-20)
(1.00887 0.000481692 7.47972e-22)
(1.01129 0.00306996 -6.43082e-22)
(0.680837 0.00976333 2.41639e-21)
(1.03194 0.00821767 0)
(0.810098 0.0534944 -1.19775e-21)
(1.06232 0.0382349 2.56848e-21)
(1.0097 0.0169851 2.47471e-21)
(1.01738 0.0143701 -1.79525e-22)
(1.01587 0.00771214 7.13565e-23)
(1.00855 -0.000925506 0)
(0.880931 0.00872344 0)
(0.955148 0.0235857 0)
(1.02145 0.0129641 0)
(1.05944 0.0790451 0)
(1.00758 0.019354 -5.19907e-22)
(1.1493 0.0910482 0)
(1.01012 0.00356519 -1.57224e-22)
(1.07352 0.0518495 -7.57032e-21)
(1.00693 -0.000410045 1.06588e-21)
(1.01609 0.00765918 -2.86866e-23)
(1.00945 0.00044254 -2.41613e-22)
(1.03225 0.0150757 -1.60421e-21)
(0.577821 0.0209725 0)
(0.99905 0.0162218 6.06864e-22)
(0.879669 -0.195549 -2.03392e-21)
(1.01933 0.00117099 0)
(1.01628 0.00642832 0)
(1.01452 0.00635914 4.53776e-22)
(1.00719 0.0163261 9.59635e-22)
(0.876044 0.0322632 0)
(1.01138 0.00276515 -2.10437e-21)
(1.06043 0.0767681 0)
(1.06789 0.0317366 8.71815e-21)
(1.05762 0.0522454 -3.58301e-22)
(1.02061 0.0193079 9.03344e-22)
(0.54594 0.0333808 9.3703e-22)
(1.01133 0.00496182 2.23553e-24)
(1.00755 0.0340707 5.67147e-23)
(0.712181 -0.00191259 2.21274e-21)
(1.0288 0.00265885 -8.05016e-22)
(1.03052 0.0173394 1.64788e-21)
(1.01532 0.0171797 -7.26823e-22)
(1.00845 0.000446324 0)
(1.01776 0.0207517 0)
(1.01901 0.00693856 0)
(1.0086 -0.000845146 1.3995e-22)
(1.06736 0.0394047 1.0025e-20)
(1.15321 0.0896387 0)
(1.02063 0.0191538 -3.41142e-22)
(0.975673 -0.239164 0)
(1.01946 0.00122491 -5.35131e-22)
(1.01546 -0.00206468 2.06658e-22)
(1.01598 0.00718964 0)
(0.685128 0.0459554 1.3728e-21)
(1.01404 0.00505987 2.93226e-23)
(1.01817 0.0211779 -1.07992e-21)
(1.03439 0.0382111 -1.07114e-21)
(1.03939 0.0352836 0)
(1.01615 0.00759097 0)
(0.550712 0.0317369 -4.18998e-23)
(1.01585 -0.00168931 4.89839e-22)
(1.08932 0.121992 0)
(1.01586 0.00996127 -2.08065e-22)
(1.01037 0.00180515 -4.68653e-22)
(1.05659 0.0161324 0)
(1.0536 0.0636648 1.23289e-21)
(1.06905 0.0470476 -8.50049e-21)
(0.884206 -0.214736 1.15178e-21)
(1.0226 -0.015077 -1.15475e-22)
(1.01746 0.0142135 1.59838e-22)
(1.02027 -0.0102785 -1.76092e-22)
(1.08515 0.0587106 0)
(0.659915 -0.00111721 0)
(1.00692 0.000659619 0)
(1.05407 0.0740104 6.09861e-22)
(1.03221 0.0143156 1.66527e-21)
(1.01447 0.00645026 0)
(1.00872 0.000406761 3.54973e-22)
(1.02464 0.00192937 1.9828e-21)
(1.00959 0.000440605 9.65812e-22)
(0.630679 -0.100258 2.13663e-22)
(1.01156 0.000535991 7.83396e-24)
(1.01589 -0.00172399 0)
(1.05939 0.059316 2.66272e-21)
(1.03044 0.016994 -1.0832e-21)
(1.01603 0.00713084 -7.12228e-24)
(1.07967 0.0621783 -2.74565e-21)
(1.01593 0.0265917 0)
(0.694584 0.0471114 -1.67421e-21)
(1.00698 0.000679329 -6.08861e-22)
(1.0084 -0.000864294 -8.81121e-22)
(1.01321 0.00209167 1.21201e-21)
(0.743367 -0.0125843 -1.40483e-21)
(0.998528 -0.00642648 -6.04604e-22)
(1.02064 -0.0157185 4.70312e-22)
(1.00267 -3.26172e-05 3.86179e-22)
(0.678756 0.238798 3.66361e-21)
(1.01724 0.00984574 -1.78356e-23)
(1.00965 0.0176399 -1.97525e-21)
(1.00298 -3.159e-05 3.57654e-22)
(0.950269 0.106034 7.22398e-21)
(1.05991 0.0804012 5.74131e-21)
(1.00242 5.60286e-05 -4.87953e-22)
(0.874114 0.209351 -1.3842e-21)
(1.05906 0.0585543 4.90625e-21)
(1.02577 0.0133556 4.81028e-22)
(1.00491 0.000233757 8.09963e-24)
(1.01662 0.0202577 -9.26838e-22)
(1.05969 0.0562656 -1.76287e-23)
(1.01304 0.00191619 -2.41088e-22)
(0.784708 -0.0528013 1.2617e-21)
(1.01159 -0.000384714 2.6606e-22)
(1.00808 0.000369472 -2.46283e-23)
(1.07369 0.0468346 -2.1262e-21)
(0.466421 0.0105384 1.5576e-21)
(1.02028 0.0194032 -4.48089e-22)
(1.01702 -0.00325195 -4.9562e-22)
(1.07384 0.0473912 2.51738e-23)
(1.01307 0.000276085 4.4391e-22)
(0.695964 0.227208 0)
(1.0187 0.00128791 0)
(1.06244 0.0360269 -1.38452e-21)
(1.06338 0.0530244 0)
(1.09714 0.115532 -9.19996e-22)
(1.01474 0.000154075 0)
(1.01835 0.0242322 0)
(1.04722 0.0272192 2.66014e-21)
(1.02257 0.00980303 1.4738e-22)
(1.007 -0.000382174 1.06399e-22)
(1.01547 0.000143682 0)
(1.01686 -0.00318865 3.79266e-22)
(0.620404 -0.0986351 1.01078e-20)
(1.01006 0.00350077 9.19205e-22)
(1.05293 0.265223 -2.8378e-21)
(0.847609 0.0975199 -1.54813e-21)
(1.06361 0.0445563 6.02722e-21)
(1.0155 0.016966 -8.21602e-22)
(0.760928 -0.0672644 9.65157e-21)
(0.986975 0.046762 2.15996e-21)
(0.719952 -0.00348691 -2.25701e-21)
(1.08124 0.197369 -2.96039e-21)
(1.00695 -0.000426426 -8.72656e-22)
(1.02917 0.027967 -4.26945e-22)
(1.01362 0.00678794 -1.00331e-21)
(1.05983 0.0335017 4.60934e-21)
(1.02436 0.00182209 0)
(1.02032 0.0192538 -4.06901e-22)
(0.85238 0.0794087 -3.70818e-21)
(1.05963 0.0579053 -4.70818e-21)
(1.00175 4.10772e-05 0)
(1.00705 -0.000388497 -1.24521e-22)
(1.007 0.000427098 3.30047e-22)
(1.0139 0.00467269 5.83247e-24)
(1.00702 -0.000365367 -2.31249e-22)
(1.05183 0.0377737 4.4016e-21)
(1.01053 0.00402073 0)
(0.911994 0.0385414 0)
(0.899359 -0.113121 0)
(1.01605 -0.00151376 -1.69595e-23)
(1.01191 -0.00148604 0)
(1.05849 0.0531469 5.77005e-21)
(1.00313 -5.17938e-05 -3.575e-22)
(1.0732 0.0516735 5.27877e-21)
(1.00539 -9.6499e-05 -1.18558e-22)
(0.941171 -0.277919 -2.87016e-21)
(1.00903 0.00210931 0)
(0.965793 -0.0503813 0)
(0.766014 -0.0625766 -9.14956e-21)
(1.06468 0.0430383 1.07257e-21)
(1.01101 0.00409172 5.26651e-22)
(1.01119 0.0026783 0)
(1.00728 -0.000409262 -1.18336e-22)
(1.08214 0.0529351 -6.24278e-21)
(0.932357 0.242363 -3.32739e-21)
(1.06743 0.0293828 -1.14558e-22)
(1.09919 0.0807598 -1.11552e-21)
(1.00703 -0.000404112 1.35165e-23)
(1.01902 0.0259481 0)
(1.01573 0.0112478 3.65912e-22)
(1.0036 -3.30705e-05 0)
(1.15818 0.0864638 8.48293e-21)
(0.896405 -0.0932668 -1.47684e-22)
(1.00996 0.00339126 -7.13797e-22)
(1.08431 0.0323223 1.33058e-21)
(1.05952 0.0534207 9.94259e-22)
(0.855856 0.385365 0)
(1.01569 0.00987706 -6.16891e-22)
(1.01859 0.00129385 0)
(1.06986 0.0565745 -8.93182e-22)
(1.02985 0.00242421 -8.67314e-22)
(1.01111 0.00420586 -8.38085e-22)
(1.01583 -0.00321625 0)
(1.01614 -0.00143067 5.88422e-22)
(1.07441 0.0451747 2.239e-21)
(0.604594 0.0173398 0)
(0.984705 0.0617506 1.07467e-21)
(1.07539 0.0451632 -6.56452e-23)
(1.01183 0.0212596 -1.41208e-21)
(1.05937 0.0617607 0)
(1.01598 0.0101659 6.15805e-22)
(1.01581 -0.0017581 0)
(0.95373 -0.267682 0)
(1.03209 -0.00873104 1.93309e-21)
(0.671694 0.00248023 6.63272e-23)
(1.0497 0.090038 -4.33626e-21)
(1.02244 0.00833807 -9.42172e-22)
(1.02167 0.0156357 3.13087e-22)
(1.01129 0.00493682 0)
(1.01204 0.020812 2.88688e-22)
(1.04623 -0.0233131 -7.05946e-23)
(1.0821 0.0632254 5.82231e-21)
(1.07949 0.0775804 0)
(1.01524 -0.0167347 7.0648e-22)
(1.0753 0.0320284 -5.566e-22)
(1.05548 0.118662 -5.78391e-21)
(1.06003 0.0622294 0)
(0.926024 0.0378994 4.46615e-22)
(0.570902 0.0122532 2.07217e-21)
(0.853588 0.263006 0)
(0.66177 0.00154367 0)
(1.01254 0.00572024 -1.06726e-23)
(0.989308 0.0649805 3.65384e-22)
(1.01843 0.0255637 0)
(0.674863 0.0548864 0)
(1.05198 0.067217 0)
(0.998973 -0.0108894 3.07558e-22)
(0.599844 0.0168837 0)
(1.02666 0.0402054 3.58773e-22)
(1.08091 0.0503036 0)
(1.01726 0.00970425 -5.97502e-23)
(0.761452 -0.0101124 1.4183e-21)
(1.08164 0.0551844 0)
(1.01379 0.00492457 -9.84037e-23)
(0.997461 -0.0126415 2.26857e-21)
(1.01045 0.00392681 0)
(0.975831 0.137132 0)
(1.02657 0.0268589 0)
(1.07243 0.0407579 0)
(1.00876 -0.000600509 3.1828e-22)
(1.05459 0.0930515 -2.57601e-23)
(1.08544 0.0331541 0)
(1.00832 -0.000855698 8.87187e-22)
(1.04343 -0.0279739 -9.2569e-23)
(1.01668 0.00760158 0)
(1.07314 0.0320358 -2.27443e-22)
(1.01558 0.00751388 6.85348e-24)
(1.01168 0.00388415 8.25848e-22)
(1.03377 -0.0219296 -3.36665e-22)
(1.01803 0.0222885 1.12058e-21)
(1.0113 0.00256854 -1.07747e-21)
(0.986277 0.0440748 -2.38266e-22)
(0.986948 -0.212033 3.48874e-21)
(0.552526 0.0339037 6.3015e-24)
(1.01134 0.00249732 -5.53743e-22)
(1.0067 0.000627235 -6.49368e-22)
(0.755066 0.0578473 2.16559e-22)
(1.01707 0.00950433 8.46688e-23)
(1.07975 0.0472391 -4.97984e-22)
(1.00774 0.0353799 0)
(1.00083 -5.87914e-06 1.43819e-22)
(0.928774 0.00804916 1.2644e-21)
(1.00451 3.99252e-06 0)
(0.896722 0.0738641 8.87126e-22)
(1.01732 0.0139566 -1.58854e-22)
(0.99711 -0.00786916 6.56006e-22)
(1.09784 0.0822307 1.49677e-21)
(1.0091 0.0146523 0)
(0.917084 0.0396819 -4.69451e-22)
(1.03107 -0.00571758 -4.60774e-21)
(1.02363 0.00600271 2.98987e-22)
(1.0538 0.00207603 -9.70289e-23)
(1.01692 -0.0165289 -7.1092e-22)
(0.573906 0.0125201 -1.92339e-21)
(1.01258 -0.00177413 2.24092e-22)
(1.03318 -0.018007 3.85983e-22)
(1.08187 0.0547597 4.0661e-21)
(1.01206 0.00148698 -1.87215e-21)
(1.00844 -0.000254349 -9.24e-23)
(1.01118 0.00480116 -1.33505e-21)
(1.05224 0.11782 1.47534e-21)
(1.0146 0.00648601 0)
(0.879714 -0.135997 -8.98383e-22)
(1.05948 0.00530607 0)
(1.02063 0.0055721 0)
(1.02672 0.0266559 -3.24742e-22)
(1.08107 0.063235 -4.84771e-21)
(1.10232 0.0702597 9.41333e-22)
(1.03931 0.0357141 1.98374e-21)
(1.05293 0.06774 0)
(0.750882 0.0397128 0)
(1.07147 0.0615473 3.42952e-21)
(1.05441 0.143099 -1.98534e-21)
(0.569721 0.011085 0)
(1.08101 0.0779956 0)
(1.06145 0.0713591 4.94106e-22)
(1.0637 0.053485 7.24024e-21)
(1.07348 0.0477045 0)
(1.07712 0.0730155 6.88912e-21)
(1.06539 0.0709717 2.9143e-21)
(1.01045 0.0018443 4.78525e-22)
(1.01276 0.0210179 1.06809e-21)
(1.02437 0.0478242 7.55454e-22)
(1.05489 -0.00392007 0)
(1.03011 0.0394318 2.56709e-22)
(1.00856 0.000444098 0)
(1.033 0.00742754 1.46995e-21)
(1.07335 0.029414 8.10666e-21)
(1.03274 0.00755978 -2.48126e-21)
(1.02106 -0.00337297 0)
(1.01288 0.0205359 8.50057e-22)
(1.02452 -0.0172545 -2.70869e-22)
(1.00762 0.000100254 1.1781e-21)
(1.01187 -0.00154285 -5.46211e-22)
(1.06764 0.0398862 0)
(1.02865 0.0407316 -2.01224e-22)
(1.07881 0.0349111 0)
(1.08024 0.0505107 4.04526e-22)
(1.01056 0.00456038 0)
(0.943107 -0.0315345 2.95933e-22)
(0.999115 0.0136939 0)
(1.02199 0.00832814 3.86109e-23)
(0.952217 -0.0356851 6.00788e-22)
(0.670761 0.0809867 -2.52282e-21)
(1.01513 -0.0039666 0)
(1.00744 -0.000429044 4.59524e-22)
(1.00167 -3.0408e-05 -2.7004e-22)
(0.587313 0.0224434 0)
(0.457567 0.00890628 3.64566e-22)
(1.02137 0.0133182 1.3123e-21)
(1.01167 0.00371997 -3.6769e-22)
(0.731394 -0.0826244 4.79204e-21)
(1.01611 -0.00161614 -2.99058e-22)
(1.01136 0.00285527 3.98242e-22)
(1.01499 0.0282912 8.18694e-21)
(1.01084 -0.00280653 0)
(1.02572 0.0148256 -3.42368e-22)
(1.0636 0.031938 -2.83837e-21)
(1.0131 -0.00127468 -2.05442e-24)
(1.01966 0.00471859 0)
(1.02224 0.00846504 0)
(1.0508 0.145619 1.78038e-21)
(1.00172 -0.0998534 0)
(0.522752 0.0224879 6.96526e-21)
(1.01455 0.00655714 -6.60007e-22)
(1.0579 0.0121075 -7.20421e-23)
(1.00893 -0.00101871 2.63632e-22)
(1.00398 0.00013177 -2.59303e-22)
(1.02631 -0.00501302 -1.14955e-22)
(1.04571 0.0400585 0)
(1.02362 0.00357025 8.47619e-22)
(1.06663 0.0631156 9.95036e-21)
(1.03443 0.0204582 0)
(0.819391 -0.0864856 1.33673e-21)
(1.05403 0.0360823 0)
(0.931573 0.0398964 0)
(1.02481 0.0180257 -1.1483e-21)
(1.02662 -0.00388108 -1.31522e-22)
(1.02544 0.0321166 -2.81174e-21)
(1.04791 0.0763014 1.80263e-21)
(0.75582 0.0294273 -2.25824e-21)
(1.02241 0.00332832 0)
(1.02145 0.00533828 -1.57112e-22)
(1.07413 0.0465742 6.67046e-21)
(1.00729 -0.000444386 0)
(1.08319 0.0847331 0)
(1.01897 0.00485716 0)
(1.01128 -0.00340109 7.19063e-24)
(1.1553 0.0871929 0)
(1.01927 0.0166266 -1.54801e-22)
(1.02142 -0.00443743 9.98107e-23)
(1.04878 0.0786962 5.7409e-21)
(1.00726 -0.000422808 0)
(1.00977 0.000511311 0)
(1.02185 -0.00446618 -9.67142e-23)
(1.01848 0.0390293 1.7195e-22)
(0.990616 0.0138606 7.18749e-22)
(1.0693 0.0566719 -1.72193e-21)
(0.691777 0.0447345 0)
(1.01778 0.00464257 -5.84024e-22)
(1.01588 0.00695788 2.35458e-23)
(1.06594 0.06342 0)
(1.00455 0.0476966 0)
(1.05978 0.0393815 2.32469e-21)
(1.02442 0.0322989 1.3879e-21)
(0.984682 0.0387005 2.23081e-21)
(1.06471 0.0704883 3.82127e-21)
(1.05289 0.0623889 -1.25925e-21)
(1.01709 0.0138398 0)
(1.07239 0.0623237 0)
(1.01972 -0.00949782 -2.04264e-22)
(1.01126 0.00448282 0)
(0.864857 0.384852 -4.17575e-21)
(1.00949 0.111427 -4.24446e-22)
(1.03542 0.0256191 5.94065e-22)
(0.785388 0.0419934 0)
(1.04891 0.0767829 0)
(1.02385 0.0165633 3.03995e-22)
(1.01868 0.0243679 0)
(1.01147 -0.000534342 0)
(1.01569 -0.00287633 -1.13752e-22)
(1.07819 0.0346906 5.19623e-21)
(0.860223 0.0138735 3.25437e-22)
(0.933847 0.142039 0)
(1.01969 0.0218951 -2.63541e-23)
(0.535524 0.0622803 4.71245e-21)
(0.595068 -0.103645 -8.49057e-21)
(1.02812 0.0155046 6.50543e-22)
(1.00894 0.0186643 1.06155e-21)
(0.998499 0.0125805 1.3559e-21)
(1.01508 0.00261612 -2.0336e-22)
(1.00865 -0.00028047 -5.13017e-23)
(0.806311 0.154835 0)
(1.01211 0.00511964 0)
(1.01518 0.0025751 3.47228e-22)
(1.00758 -0.000468651 3.6285e-22)
(1.00204 -5.16074e-05 0)
(1.01658 0.0123427 3.21256e-22)
(1.00854 -0.000897269 2.40706e-22)
(0.99415 0.0159499 -5.78019e-22)
(0.854814 0.0702388 7.21846e-22)
(1.0278 0.0101847 1.32948e-21)
(1.01457 0.000286035 -9.07835e-24)
(1.01556 0.00968307 4.08696e-22)
(1.00931 0.00249815 7.54454e-22)
(1.00776 0.000152309 -7.11073e-22)
(1.01429 0.00636796 2.84075e-21)
(1.01199 -0.00155352 4.50755e-22)
(1.02548 0.0180321 1.69696e-21)
(1.07735 0.0723864 -1.82704e-21)
(1.07041 0.0598789 -1.93736e-21)
(1.07204 0.0617683 4.54515e-21)
(0.52422 0.0613002 -5.3258e-21)
(0.721834 0.0573359 -1.78418e-21)
(1.07223 0.0630266 -7.45434e-21)
(1.09189 0.134648 -3.98828e-22)
(1.08707 0.0927919 0)
(1.00884 0.00235821 -4.34447e-22)
(1.01975 0.00277478 -4.75488e-22)
(1.02881 0.00284179 -5.62767e-22)
(1.0143 0.0026105 0)
(1.01246 0.0017343 0)
(1.07706 0.0715878 0)
(1.0227 0.00844993 1.3933e-21)
(1.04989 0.0791874 -5.32142e-21)
(0.739413 -0.0779215 0)
(0.983387 0.0188364 1.4414e-21)
(1.08226 0.140449 9.63238e-22)
(1.0574 0.0473527 -3.03566e-21)
(1.04982 0.0397289 0)
(0.696866 0.0824037 -8.46338e-22)
(1.02327 0.0179088 3.36619e-23)
(1.01805 -0.0209072 -2.46702e-21)
(1.01572 0.00687506 -1.60733e-23)
(1.01399 -0.0177818 2.6002e-21)
(1.02544 0.0129084 8.00119e-22)
(1.0154 0.00634714 1.56468e-23)
(1.09982 0.0732048 2.66206e-21)
(1.01753 0.0146344 -1.83289e-22)
(1.00874 0.0455212 -1.00236e-21)
(1.03028 0.0285902 0)
(1.01667 -0.0174531 2.16734e-21)
(1.01564 -0.0026949 1.4021e-22)
(1.04719 0.027682 5.68188e-22)
(1.00346 0.133743 0)
(1.01863 0.0182859 1.15515e-21)
(1.00126 -1.66912e-05 0)
(0.83968 -0.127478 2.46172e-21)
(1.00026 0.0236143 0)
(1.02212 0.0228504 6.43316e-22)
(1.07487 0.0448504 2.02402e-21)
(0.863169 0.192163 1.95982e-21)
(1.00673 0.000623975 0)
(0.810559 0.0528089 1.294e-20)
(1.0168 0.0106828 -3.33316e-22)
(1.05336 0.0616261 1.26045e-21)
(1.00129 0.00672702 4.41922e-21)
(0.410235 0.0216585 1.28869e-21)
(0.814463 -0.0654443 -8.04334e-21)
(1.09984 -0.00932053 1.96149e-21)
(1.00661 0.0230734 0)
(1.01254 -0.00193182 -5.38832e-22)
(1.02235 0.0145444 0)
(1.00782 0.000357063 0)
(1.02228 0.0229673 -1.15338e-23)
(0.797654 0.042685 0)
(1.0143 0.0093669 0)
(1.01935 0.0182281 2.84343e-21)
(1.02626 0.0144512 6.31023e-22)
(1.07586 0.0449221 -5.39758e-21)
(1.00779 0.000369358 0)
(1.01547 0.00937805 5.99683e-22)
(1.01391 0.00504509 1.27611e-22)
(0.873042 0.0144336 7.47276e-23)
(1.08794 0.0330384 0)
(1.00677 0.000642902 0)
(0.533272 0.0309148 -9.96484e-22)
(1.02009 0.0195588 -2.28433e-23)
(1.05933 0.0402148 0)
(0.99315 0.00367727 1.01782e-23)
(1.02278 -0.00559657 0)
(1.02032 0.0153563 9.36011e-22)
(1.02344 -0.00574882 0)
(1.02808 0.0446172 3.36253e-21)
(1.08489 0.0593267 0)
(1.074 0.0590274 0)
(1.0971 0.145768 4.34193e-22)
(1.02097 -0.0206506 0)
(0.856952 0.0572208 2.88444e-23)
(1.01417 0.00250923 0)
(0.986326 0.0189585 6.84796e-22)
(0.815892 0.0438691 -1.21691e-20)
(1.01026 -0.114897 2.47539e-23)
(1.01991 0.0159653 0)
(1.00664 4.26789e-05 2.13554e-21)
(0.760706 -0.0316758 -2.99108e-21)
(1.01252 9.76378e-05 -5.93826e-22)
(0.943776 0.245464 3.6334e-21)
(1.04096 0.0068098 -2.07525e-21)
(0.924161 0.252808 -3.33315e-22)
(1.07826 0.0727716 1.40914e-21)
(0.763291 -0.124282 0)
(1.01033 0.00213749 1.28154e-24)
(1.02115 -0.114483 -3.1794e-22)
(1.03488 0.0231078 -9.82188e-25)
(1.02074 0.0245371 3.2574e-22)
(0.785098 -0.130769 -1.98907e-21)
(1.00847 -0.000907319 0)
(1.03669 0.022391 1.19577e-21)
(0.95593 -0.0493183 0)
(0.909298 0.233478 -3.30928e-21)
(1.03519 0.0231295 1.11024e-21)
(1.00905 0.000502947 0)
(1.07972 0.0736608 -1.30554e-20)
(0.998775 0.317673 -2.8553e-21)
(1.00659 5.52129e-05 -1.19826e-21)
(1.04326 0.269122 0)
(1.02389 0.0245227 -4.88676e-22)
(1.01987 0.0194489 5.14638e-22)
(1.00901 0.000471995 -1.01123e-21)
(0.770927 -0.192997 7.56528e-21)
(1.07908 0.0726434 0)
(1.01305 0.0124075 0)
(1.01517 0.0106462 -3.10977e-22)
(1.01766 0.00733858 1.12249e-22)
(1.00127 -4.12429e-05 1.2825e-21)
(0.735152 0.266953 9.71848e-22)
(1.03226 0.025208 1.39775e-21)
(1.01652 0.0310593 2.07843e-21)
(1.02213 0.00466837 -1.77293e-22)
(1.06476 0.0420465 0)
(0.779195 0.0403626 1.82046e-21)
(0.996229 -0.0181911 -9.3712e-23)
(1.03274 0.0214682 0)
(0.97096 0.0697609 -2.50156e-21)
(0.990434 0.00209254 0)
(0.999133 -0.00435455 2.29031e-21)
(1.03362 0.0292943 -8.58358e-24)
(0.573634 0.00928435 8.91159e-22)
(1.02096 0.0246444 -3.02242e-22)
(1.05912 0.0569142 2.80928e-21)
(0.792359 0.0406005 -7.84123e-22)
(1.01146 0.00221278 2.63802e-24)
(1.01333 0.00414873 4.59946e-23)
(1.0219 0.0131092 3.87403e-22)
(1.01571 0.0076695 -1.19072e-23)
(1.00132 0.00544499 -3.30874e-21)
(1.03282 0.0218158 0)
(1.03091 0.0531952 -1.59435e-21)
(1.03798 -0.0100458 3.19097e-23)
(1.06366 0.043474 -6.36676e-21)
(1.0309 0.0270759 0)
(0.748674 0.27131 2.34395e-22)
(0.726142 0.0679124 3.54342e-22)
(1.05412 0.0355145 0)
(1.00938 0.00253317 0)
(1.03318 0.0292511 8.50417e-22)
(1.05598 0.0160062 -2.1404e-21)
(1.02151 0.0230002 -2.51081e-22)
(1.11518 0.00143958 -1.31284e-21)
(0.960258 0.26246 -4.83992e-21)
(1.07579 0.0706615 6.14124e-21)
(1.01464 0.0060373 -5.33722e-22)
(1.02357 0.0310733 0)
(1.08208 0.0487354 -6.27609e-21)
(1.094 0.130873 0)
(0.68045 0.0439595 0)
(0.823086 -0.0324178 -8.11197e-23)
(0.861113 0.0124139 6.27929e-22)
(1.028 0.297881 3.20332e-21)
(1.08166 0.056087 -1.48591e-20)
(1.07365 0.0343869 -9.99247e-22)
(1.0091 0.00221995 3.23933e-22)
(0.754579 0.0632394 0)
(1.04927 0.0143242 6.21657e-23)
(1.01997 0.0158297 -1.60299e-22)
(1.07746 0.0168272 1.01429e-21)
(1.02425 0.0333449 6.35775e-24)
(1.06909 0.0572346 0)
(0.568944 0.00651946 6.30828e-22)
(1.02404 0.0243549 1.42889e-22)
(1.00782 0.0134028 5.00447e-22)
(1.01112 0.00471716 8.03993e-22)
(1.0903 0.0896013 -1.53307e-21)
(0.825469 -0.0270684 0)
(1.06556 0.0744179 3.60712e-21)
(0.536729 0.053579 -1.23864e-21)
(1.07475 0.0341023 -6.22303e-21)
(1.08066 0.073546 1.32091e-20)
(1.05286 0.0763434 2.57256e-21)
(1.00663 -1.4618e-05 1.08865e-21)
(1.06493 0.0754462 -3.07031e-21)
(1.01572 0.0197529 0)
(1.0568 0.000483262 0)
(0.998244 0.0150615 -6.81492e-22)
(1.04744 0.0747498 -6.09394e-22)
(1.01376 0.0045296 0)
(0.955318 0.2121 0)
(0.931695 0.0236554 2.48241e-21)
(1.01744 0.00720024 1.76056e-22)
(1.00745 -0.000458622 0)
(0.876968 0.271543 1.27469e-20)
(1.09684 0.132991 -6.99214e-21)
(1.00594 0.00188683 0)
(1.03606 -0.00770966 -1.10835e-22)
(1.00742 -0.000437997 -1.19229e-22)
(1.02898 0.0291515 -1.82789e-22)
(1.0066 -2.90373e-05 -3.90927e-22)
(1.00088 0.0448013 1.37447e-21)
(1.01607 0.0305683 -1.74732e-21)
(1.0216 0.00121699 1.64656e-22)
(1.02349 0.0181504 0)
(1.01959 0.0170364 -2.45704e-21)
(0.508012 0.0598019 0)
(1.01269 -0.00177569 1.10524e-22)
(1.07578 0.0534519 -5.15495e-21)
(1.0745 0.0557728 -1.4037e-20)
(1.02465 -0.00571208 -9.87267e-24)
(1.01173 -0.00178379 2.11957e-22)
(1.07415 0.0585856 3.8517e-21)
(1.10045 0.0707392 -5.15856e-21)
(1.00786 0.000143584 0)
(0.910212 0.241915 2.92742e-20)
(0.521491 0.0510727 0)
(1.00855 0.00176563 7.78588e-22)
(1.05791 0.0574041 0)
(1.01034 0.00217192 1.22722e-21)
(1.01842 -0.00309699 0)
(1.05596 -0.0275355 4.31673e-22)
(1.0418 0.0162529 1.43552e-21)
(1.01545 -0.0108104 -9.14861e-22)
(1.09415 0.14931 -6.08551e-21)
(1.04292 0.301247 0)
(1.06601 -0.0251761 4.74844e-22)
(0.771683 0.0612735 -1.83008e-21)
(1.01539 0.00622783 -1.71348e-23)
(0.686974 0.0925641 3.83463e-22)
(1.00693 -0.000429376 2.30859e-22)
(1.01854 -0.00283912 0)
(1.04792 0.0737458 -6.57684e-22)
(1.00854 0.00174179 -8.59678e-22)
(1.0132 0.00773123 -4.61541e-22)
(0.918831 0.0369109 -1.41688e-21)
(1.01606 0.0197907 -8.4868e-22)
(1.09435 0.138684 0)
(1.00219 -2.50173e-05 0)
(0.796635 0.158852 -9.80258e-21)
(0.525337 0.0231888 -6.6232e-21)
(1.01355 0.00893045 0)
(1.0048 -1.73829e-05 -8.16806e-23)
(1.06137 0.0324256 -5.02516e-21)
(1.02958 0.00584505 0)
(1.01465 -0.00981519 9.22673e-22)
(0.401059 0.0188625 1.48839e-21)
(1.01969 0.0125702 -1.63572e-21)
(1.049 0.0376656 2.74067e-21)
(1.0342 0.0387786 -5.37505e-22)
(1.05954 -0.0320711 -8.47353e-22)
(1.02849 0.0074113 2.15537e-22)
(1.00302 -3.7678e-05 6.2322e-22)
(0.871406 0.0121495 0)
(1.02181 -0.000768826 0)
(0.912642 0.250151 0)
(1.15027 0.171222 0)
(1.01271 -0.00122796 1.23272e-21)
(1.01265 0.0020108 0)
(1.00535 0.000175871 1.17638e-22)
(1.01792 0.015007 -1.00898e-23)
(1.06469 0.0730244 0)
(1.00654 0.00089237 0)
(1.01927 0.0395401 0)
(1.02985 0.00268081 -9.10678e-22)
(1.01261 -0.00122462 -8.0352e-22)
(1.03229 0.014557 -8.14455e-22)
(0.935597 0.000731282 -4.64565e-22)
(1.15359 0.168107 -3.51222e-21)
(1.08059 0.062128 5.80712e-21)
(1.06918 0.0459717 -4.0168e-21)
(1.07546 0.052327 -6.42374e-21)
(1.06998 0.0458958 2.89516e-21)
(1.01769 0.0219448 4.19553e-23)
(1.03077 0.0274795 0)
(1.02189 -0.00148014 5.61723e-22)
(1.02031 0.0169801 0)
(1.01557 -0.00195375 0)
(1.01515 0.0123182 0)
(1.03036 0.0274239 5.53001e-22)
(1.01795 0.0134236 3.15712e-22)
(1.04163 0.00635279 2.27917e-21)
(0.903751 0.0804032 8.12932e-22)
(0.748011 0.0622066 -5.82125e-21)
(1.014 0.00785083 0)
(0.912044 0.0352089 3.55939e-21)
(1.02729 0.0221735 6.29986e-22)
(1.03089 0.00244861 0)
(1.08196 0.0557413 7.56671e-21)
(1.04881 0.0424493 -3.90229e-21)
(1.06272 0.0378163 -8.21795e-21)
(1.0165 -0.00219829 2.08539e-24)
(1.05707 -0.0071359 -2.2621e-22)
(0.894548 0.146961 -2.93547e-21)
(1.02397 -0.0110393 0)
(1.09097 0.110637 -8.76327e-21)
(0.864498 0.0892057 1.46627e-21)
(1.08325 0.15342 -6.20914e-22)
(1.02314 -0.0104868 1.09044e-22)
(1.05811 -0.00520075 3.57243e-22)
(1.01438 0.00981003 3.69706e-22)
(1.01696 0.0135748 0)
(0.906973 0.0372083 0)
(1.01077 -0.000340224 9.34692e-24)
(0.821473 -0.0298912 0)
(1.01644 -0.0046539 -7.99848e-22)
(0.536961 0.0474884 0)
(1.01622 0.00622783 2.44995e-22)
(1.00914 -0.00105337 1.96299e-22)
(1.01528 -0.0912611 1.94728e-22)
(1.06115 0.0318529 7.81418e-21)
(1.01336 0.00699992 -6.70364e-22)
(1.01637 -0.00439707 8.91965e-22)
(1.0151 -0.00631402 -2.9905e-23)
(1.01092 0.00445326 -2.40425e-22)
(1.05569 0.0557352 4.56559e-22)
(1.00902 -0.00100961 1.18686e-24)
(1.01616 0.0056089 0)
(0.73206 0.0569822 -2.304e-22)
(0.940709 0.145404 1.10117e-21)
(1.05664 0.132149 -4.57158e-21)
(1.04556 0.0594176 2.05679e-21)
(1.05978 0.0634635 0)
(0.739964 0.0283402 1.74157e-21)
(1.07569 0.0537166 -6.4545e-21)
(1.03521 0.0226334 -1.87181e-21)
(0.878625 -0.223461 -3.74946e-21)
(0.817737 0.0839154 0)
(0.591062 0.179691 1.15056e-21)
(1.07163 0.158643 5.74341e-22)
(1.06547 0.0721903 -3.19545e-21)
(1.00949 0.0467524 0)
(1.01281 -0.00197684 6.96787e-22)
(1.01629 0.0202415 9.94147e-22)
(0.905028 0.189372 3.13335e-21)
(1.02811 0.01034 -1.46967e-21)
(0.701814 0.0563152 -1.87661e-21)
(1.06034 0.0353721 0)
(1.02844 -0.0332802 0)
(0.737539 -0.00196976 2.3685e-21)
(1.07621 0.0709514 -4.36687e-21)
(1.01606 0.00612797 -2.44077e-22)
(1.00731 -0.000430914 -2.40206e-22)
(0.665986 0.0550862 -1.29377e-21)
(1.01167 0.00265009 -1.00809e-22)
(1.05797 0.0691521 0)
(1.0508 0.0375258 1.45474e-21)
(1.01175 -0.0017122 1.96793e-22)
(1.00876 0.00204458 4.6305e-22)
(1.04976 0.169562 -5.08337e-22)
(1.06049 0.0639417 0)
(1.07386 0.0332539 3.24216e-21)
(1.04677 0.0416946 3.77422e-21)
(1.02266 0.00647636 1.5947e-22)
(1.02624 0.0142505 -3.68438e-22)
(1.01947 0.0166473 -3.03604e-22)
(1.02146 0.0228549 -4.71409e-22)
(1.00828 0.00151701 0)
(1.05401 0.0334032 0)
(0.849311 0.0170953 0)
(0.901658 0.0359761 -2.84317e-21)
(1.03993 0.0540849 0)
(0.445439 -0.112418 4.73406e-21)
(1.00761 0.0235436 0)
(1.01852 0.0165316 -5.17944e-22)
(1.01784 0.0241638 0)
(1.04884 0.0326355 -4.62504e-24)
(0.503407 -0.0449141 0)
(1.01478 0.0044664 -1.52167e-22)
(1.07868 0.064483 4.93131e-21)
(1.01456 -0.00260096 0)
(1.01531 0.00754781 1.02217e-24)
(0.838745 0.17765 -1.90092e-21)
(1.06851 0.0572361 2.00703e-21)
(1.01588 0.011358 -1.06859e-21)
(0.990447 -0.107868 -9.68462e-23)
(1.01138 -0.000506956 0)
(1.0967 0.14097 0)
(1.01463 -0.00267638 5.48012e-22)
(0.999499 0.0112345 -1.1572e-21)
(1.0167 -0.00227576 2.58142e-22)
(1.01517 0.00740639 -7.21416e-23)
(1.0125 -0.00204368 -2.00221e-22)
(1.01459 -0.00577633 3.39206e-23)
(1.05643 0.00696511 5.15134e-23)
(0.862981 0.0681687 3.08466e-21)
(1.03865 0.0359509 -1.59754e-21)
(1.0593 0.0411645 1.43644e-21)
(1.01084 0.00438271 0)
(1.00078 -3.30715e-05 -1.44856e-21)
(1.0453 0.0589428 6.19709e-23)
(1.01574 -0.00300606 0)
(1.01555 -0.00233815 -1.05076e-21)
(1.00855 0.0331143 1.13027e-21)
(1.07507 0.135682 4.72432e-21)
(0.803235 0.0820332 6.18105e-22)
(1.01517 0.0114534 -1.31159e-21)
(1.00956 0.00281619 -7.71894e-22)
(1.0271 0.0119337 0)
(0.704457 -0.0937392 -1.68685e-20)
(1.04156 0.0159517 -5.77954e-21)
(1.02313 0.00844367 -1.79124e-22)
(1.07085 0.0594225 1.99074e-21)
(0.814122 0.0852268 5.18268e-23)
(1.01989 0.00865885 -1.13355e-21)
(0.999222 0.0957995 0)
(1.01984 0.016949 -7.8612e-22)
(0.585164 0.0274761 1.56856e-21)
(1.01371 0.00620863 1.28271e-21)
(1.00448 0.0163083 4.98246e-21)
(0.614935 0.0264752 -2.57597e-21)
(1.00873 0.0019948 -5.96112e-22)
(1.0089 -0.000889902 -1.78454e-22)
(1.02613 0.0407532 1.57323e-22)
(1.0206 0.0140488 2.32702e-23)
(1.01965 0.0169432 5.32741e-22)
(0.906961 0.00847815 1.54574e-22)
(1.03195 0.026353 0)
(1.01175 -0.00175257 0)
(0.901501 0.0326087 0)
(1.01185 -0.00175924 -2.13123e-22)
(0.818434 -0.0357341 0)
(1.01157 0.00255203 2.03041e-22)
(1.01051 0.00210022 -1.04819e-21)
(1.01406 -0.000545499 0)
(1.041 0.0349016 1.17942e-21)
(1.06002 0.0480176 -4.10818e-21)
(1.06453 0.0684919 0)
(0.811391 0.298514 9.26025e-22)
(1.03985 0.0535646 0)
(1.00889 -0.000932247 -1.78053e-22)
(1.01184 -0.00171212 2.98516e-22)
(1.02431 0.0049872 -5.59401e-23)
(1.00997 0.000303525 0)
(1.016 0.00551167 2.06272e-23)
(0.764996 0.105248 2.77356e-22)
(1.07586 0.0521468 0)
(0.713912 0.0830662 -2.22658e-22)
(1.03756 0.0191652 2.78335e-22)
(1.01696 0.301948 -2.9329e-21)
(1.04593 0.0189218 2.29703e-21)
(1.01042 0.00208593 -1.52711e-21)
(1.02353 0.00604293 4.91632e-23)
(0.999087 0.0100811 1.87272e-21)
(0.976068 0.212459 7.59344e-22)
(0.531957 -0.0369492 0)
(1.01954 0.0198138 0)
(1.01548 0.0192662 0)
(1.01576 0.00978417 3.3379e-22)