/*--------------------------------*- C++ -*----------------------------------*\
| =========                 |                                                 |
| \\      /  F ield         | OpenFOAM: The Open Source CFD Toolbox           |
|  \\    /   O peration     | Version:  v2012                                 |
|   \\  /    A nd           | Website:  www.openfoam.com                      |
|    \\/     M anipulation  |                                                 |
\*---------------------------------------------------------------------------*/
FoamFile
{
    version     2.0;
    format      ascii;
    class       volVectorField;
    location    "100";
    object      U_0;
}
// * * * * * * * * * * * * * * * * * * * * * * * * * * * * * * * * * * * * * //

dimensions      [0 1 -1 0 0 0 0];


internalField   nonuniform List<vector> 
54593
(
(1.01948 0.00845518 5.0109e-22)
(1.02696 -0.0162272 2.51286e-22)
(1.02069 0.00989083 -8.39424e-22)
(1.07523 0.0521267 6.19306e-21)
(1.08957 0.092285 1.26429e-21)
(1.01749 0.0087988 -5.85312e-23)
(1.00833 0.00143636 -7.72226e-22)
(1.06923 0.0529722 -2.0387e-21)
(1.098 0.0738484 4.27774e-21)
(1.05964 0.0330261 -4.33692e-23)
(1.01537 0.000614839 4.93503e-22)
(1.06388 0.0355632 2.04041e-21)
(1.00319 -4.14444e-05 0)
(1.00894 0.0020778 0)
(1.00936 0.000831558 -1.40208e-22)
(1.01039 -0.00124678 7.92212e-22)
(0.545623 0.0315036 4.54433e-23)
(1.01646 0.00653932 0)
(1.01049 -0.00126915 -8.03737e-22)
(1.05496 0.0746076 0)
(1.01372 0.00677142 1.28014e-21)
(1.02386 0.0186823 1.07278e-23)
(1.02538 -0.00610203 -9.79624e-23)
(1.01138 0.00345258 0)
(1.01176 -0.00146467 -1.13375e-21)
(1.06819 0.0321637 3.56254e-21)
(0.878345 -0.153077 -4.27406e-22)
(1.01108 0.000695032 0)
(1.00092 0.148648 6.32589e-22)
(1.01606 -0.00158546 5.27871e-22)
(1.11171 -0.00809639 0)
(1.05723 0.0638458 7.08182e-22)
(1.007 -0.000402805 -1.38739e-23)
(0.771938 -0.178776 -7.7429e-21)
(1.00853 -0.000852217 3.11717e-22)
(1.01129 0.00315403 6.59644e-22)
(1.07318 0.0287857 -6.87443e-21)
(0.985182 -0.0747029 4.41003e-22)
(1.06215 0.272997 8.55984e-21)
(0.944029 0.300067 -4.63196e-21)
(0.711509 -0.124475 -2.0778e-21)
(1.00237 3.35584e-05 0)
(1.01602 0.00788433 7.22635e-24)
(1.01881 0.00680397 2.75778e-22)
(1.0077 0.00113684 -8.29906e-22)
(1.01431 0.0062648 -2.36958e-21)
(1.00865 0.00156274 -3.48123e-22)
(0.886066 -0.181201 0)
(0.987451 -0.0877027 -4.358e-22)
(1.02404 0.0189361 3.68555e-23)
(1.00762 0.00109744 6.86836e-22)
(1.01082 0.00142906 0)
(1.01258 0.00579664 0)
(1.06561 0.0227277 7.91422e-21)
(1.05137 0.0380755 -2.71249e-21)
(1.01533 0.000586346 6.38558e-22)
(1.0694 0.0534627 2.23296e-21)
(1.02575 0.0135832 2.29775e-22)
(1.07845 0.0922908 0)
(1.01569 -0.00189858 4.13715e-22)
(1.07191 0.268394 3.16271e-21)
(1.02168 0.012926 -3.38033e-22)
(1.01885 0.0162479 -5.49808e-22)
(1.02124 0.0127658 0)
(0.60682 0.0252444 2.26089e-21)
(0.93311 0.289299 6.92202e-21)
(1.01985 0.00290369 0)
(0.695079 -0.00347913 2.11055e-21)
(1.01075 0.0013711 0)
(1.00841 0.00148458 1.25229e-21)
(0.605108 0.0283942 1.12926e-21)
(1.01022 0.00368512 -2.14726e-23)
(1.06525 0.0232174 -4.05689e-21)
(1.00695 -0.000381469 -6.80051e-23)
(1.00886 -0.000962584 0)
(1.00872 0.00161924 0)
(0.84304 0.195675 1.51816e-21)
(1.03214 0.0152446 2.06095e-21)
(0.731321 -0.134635 0)
(1.07246 0.0317497 0)
(1.01135 0.00335986 0)
(1.03169 0.00837662 0)
(0.606452 0.027219 1.87612e-21)
(0.668538 -0.00255374 -2.00448e-21)
(1.01417 0.00518254 0)
(1.01051 0.00199034 1.27539e-21)
(1.05303 0.0642437 -7.00954e-22)
(1.01382 0.00676354 -1.27489e-21)
(1.01061 0.00202871 -8.82963e-22)
(1.06851 0.047041 1.09918e-20)
(1.00887 0.000481329 7.48715e-22)
(1.01129 0.00306851 -6.43807e-22)
(0.680872 0.00948851 2.42363e-21)
(1.03193 0.00821867 0)
(0.810028 0.0515813 -1.19832e-21)
(1.06231 0.0382496 2.56688e-21)
(1.00968 0.0169612 2.48024e-21)
(1.01737 0.0143687 -1.8058e-22)
(1.01586 0.00771129 7.38082e-23)
(1.00855 -0.00092582 0)
(0.880818 0.00963773 0)
(0.955076 0.0235161 0)
(1.02145 0.0129653 0)
(1.0594 0.0788919 0)
(1.00746 0.0192908 -5.20567e-22)
(1.14932 0.0916644 0)
(1.01012 0.00356414 -1.57646e-22)
(1.07353 0.0518734 -7.56939e-21)
(1.00693 -0.000410105 1.06625e-21)
(1.01609 0.00765839 -3.09106e-23)
(1.00945 0.000442169 -2.41836e-22)
(1.03225 0.0150769 -1.60048e-21)
(0.577821 0.0208674 0)
(0.999026 0.0161443 6.07927e-22)
(0.879939 -0.19638 -2.04157e-21)
(1.01933 0.00117122 0)
(1.01628 0.00642799 0)
(1.01452 0.0063693 4.54219e-22)
(1.00708 0.0162589 9.60999e-22)
(0.875908 0.0331583 0)
(1.01138 0.00276406 -2.10657e-21)
(1.06041 0.0766226 0)
(1.06789 0.0317496 8.71389e-21)
(1.05739 0.0525437 -3.59111e-22)
(1.02061 0.0193124 9.1057e-22)
(0.546076 0.0332757 9.35782e-22)
(1.01133 0.00496097 2.22129e-24)
(1.00758 0.0339906 5.68669e-23)
(0.712389 -0.0021555 2.23151e-21)
(1.0288 0.00266035 -8.03682e-22)
(1.03052 0.0173409 1.64274e-21)
(1.01531 0.0171764 -7.29271e-22)
(1.00845 0.000446126 0)
(1.01783 0.0207607 0)
(1.01901 0.00693953 0)
(1.0086 -0.000845937 1.39998e-22)
(1.06735 0.0394211 1.002e-20)
(1.15326 0.0902728 0)
(1.02063 0.0191582 -3.44182e-22)
(0.976366 -0.238449 0)
(1.01946 0.00122515 -5.33449e-22)
(1.01545 -0.0020692 2.06629e-22)
(1.01598 0.00718893 0)
(0.685141 0.0458052 1.37192e-21)
(1.01404 0.00505942 3.10377e-23)
(1.01823 0.0211869 -1.08325e-21)
(1.03437 0.0382014 -1.06648e-21)
(1.03938 0.0352811 0)
(1.01615 0.00759021 0)
(0.550835 0.0316313 -4.17897e-23)
(1.01585 -0.00168793 4.89792e-22)
(1.08861 0.122346 0)
(1.01585 0.00995985 -2.09523e-22)
(1.01036 0.0018047 -4.69167e-22)
(1.05659 0.0161396 0)
(1.05365 0.0634942 1.23177e-21)
(1.0692 0.0469967 -8.51099e-21)
(0.884471 -0.215257 1.15753e-21)
(1.02268 -0.0150448 -1.15181e-22)
(1.01746 0.0142122 1.60884e-22)
(1.02031 -0.0102712 -1.75953e-22)
(1.08514 0.0587038 0)
(0.660055 -0.00145086 0)
(1.00692 0.000659002 0)
(1.05406 0.073833 6.08812e-22)
(1.03221 0.0143168 1.66158e-21)
(1.01447 0.00645988 0)
(1.00872 0.00040668 3.55322e-22)
(1.02464 0.00193028 1.97868e-21)
(1.00959 0.000440211 9.66693e-22)
(0.631756 -0.100111 2.14122e-22)
(1.01156 0.000536031 7.77199e-24)
(1.01589 -0.00172199 0)
(1.05936 0.0593632 2.66079e-21)
(1.03043 0.0169954 -1.07979e-21)
(1.01603 0.00713016 -6.07649e-24)
(1.07971 0.0622962 -2.74869e-21)
(1.01597 0.0265665 0)
(0.69459 0.0469592 -1.67318e-21)
(1.00698 0.000678686 -6.09724e-22)
(1.0084 -0.000864815 -8.81402e-22)
(1.0132 0.00208558 1.21289e-21)
(0.743733 -0.0127249 -1.41969e-21)
(0.998624 -0.00650902 -6.04995e-22)
(1.02072 -0.0156999 4.69127e-22)
(1.00267 -3.26214e-05 3.8622e-22)
(0.677117 0.238359 3.68942e-21)
(1.01724 0.00984478 -1.85555e-23)
(1.00962 0.0176159 -1.97968e-21)
(1.00298 -3.16091e-05 3.57713e-22)
(0.95012 0.107117 7.20525e-21)
(1.05987 0.0802483 5.73109e-21)
(1.00242 5.60211e-05 -4.89016e-22)
(0.873909 0.209456 -1.37844e-21)
(1.05913 0.0584222 4.90477e-21)
(1.02576 0.0133577 4.79022e-22)
(1.00491 0.000233735 8.12151e-24)
(1.0166 0.0202619 -9.29988e-22)
(1.05978 0.0561405 -1.7453e-23)
(1.01303 0.00190882 -2.41259e-22)
(0.785448 -0.0521397 1.27317e-21)
(1.01157 -0.000432539 2.66074e-22)
(1.00808 0.000369429 -2.26312e-23)
(1.07369 0.0468532 -2.12555e-21)
(0.466506 0.0104968 1.55712e-21)
(1.02028 0.0194082 -4.51152e-22)
(1.01702 -0.00325284 -4.95331e-22)
(1.07384 0.0474099 2.52055e-23)
(1.01307 0.000276125 4.41945e-22)
(0.694676 0.226496 0)
(1.0187 0.00128808 0)
(1.06266 0.0359148 -1.38726e-21)
(1.06337 0.0530609 0)
(1.09644 0.115951 -8.95851e-22)
(1.01474 0.000154137 0)
(1.01839 0.0242287 0)
(1.04721 0.0272228 2.65684e-21)
(1.02249 0.00982397 1.47704e-22)
(1.007 -0.000382102 1.06432e-22)
(1.01547 0.00014375 0)
(1.01686 -0.0031898 3.79051e-22)
(0.621427 -0.0985818 1.03051e-20)
(1.01006 0.00349969 9.21638e-22)
(1.05188 0.265418 -2.81938e-21)
(0.847463 0.0981736 -1.54304e-21)
(1.06377 0.0444622 6.03439e-21)
(1.01549 0.0169629 -8.24438e-22)
(0.761803 -0.0665402 9.74697e-21)
(0.986968 0.0465747 2.17225e-21)
(0.720191 -0.00371254 -2.27607e-21)
(1.08013 0.19733 -2.92602e-21)
(1.00695 -0.000426511 -8.7296e-22)
(1.02917 0.0279618 -4.23485e-22)
(1.01362 0.00679253 -1.00454e-21)
(1.05983 0.033513 4.60611e-21)
(1.02436 0.00182299 0)
(1.02032 0.0192586 -4.10044e-22)
(0.85223 0.0801818 -3.69886e-21)
(1.05971 0.0577775 -4.70668e-21)
(1.00175 4.10596e-05 0)
(1.00705 -0.00038841 -1.24559e-22)
(1.007 0.000427061 3.31714e-22)
(1.0139 0.00467228 6.60299e-24)
(1.00702 -0.000365277 -2.31317e-22)
(1.05182 0.0377827 4.39654e-21)
(1.01053 0.00401986 0)
(0.911804 0.0383986 0)
(0.899712 -0.114167 0)
(1.01604 -0.00151732 -1.6958e-23)
(1.01191 -0.00148749 0)
(1.0586 0.0530157 5.77068e-21)
(1.00313 -5.1797e-05 -3.57538e-22)
(1.07321 0.0516983 5.27819e-21)
(1.00539 -9.65115e-05 -1.18556e-22)
(0.941714 -0.277674 -2.88783e-21)
(1.00902 0.00210947 0)
(0.966093 -0.0507432 0)
(0.766828 -0.0619333 -9.24011e-21)
(1.06485 0.0429509 1.07395e-21)
(1.01101 0.00409168 5.28944e-22)
(1.01119 0.00267777 0)
(1.00728 -0.000409205 -1.18365e-22)
(1.08226 0.0530217 -6.25371e-21)
(0.931641 0.242009 -3.3016e-21)
(1.06725 0.029732 -1.14814e-22)
(1.09919 0.0810512 -1.11737e-21)
(1.00703 -0.000404048 1.35208e-23)
(1.01898 0.0259785 0)
(1.01573 0.0112458 3.67759e-22)
(1.0036 -3.30604e-05 0)
(1.1583 0.0871565 8.50719e-21)
(0.896726 -0.0943201 -1.45243e-22)
(1.00996 0.00339019 -7.15681e-22)
(1.0846 0.0323631 1.33563e-21)
(1.05962 0.0532961 9.94357e-22)
(0.854819 0.385135 0)
(1.01569 0.00987564 -6.20925e-22)
(1.01859 0.00129402 0)
(1.06986 0.0566266 -8.93235e-22)
(1.02985 0.002426 -8.66009e-22)
(1.01111 0.00420584 -8.41742e-22)
(1.01583 -0.00322444 0)
(1.01614 -0.00143328 5.88368e-22)
(1.07442 0.045192 2.2383e-21)
(0.60451 0.0172056 0)
(0.984377 0.061578 1.07739e-21)
(1.07539 0.0451797 -6.56243e-23)
(1.0118 0.0212471 -1.41565e-21)
(1.05942 0.0616282 0)
(1.01597 0.0101644 6.20172e-22)
(1.01581 -0.00176307 0)
(0.954321 -0.267174 0)
(1.03236 -0.00856258 1.93159e-21)
(0.671798 0.00217274 6.66361e-23)
(1.04954 0.0901123 -4.3241e-21)
(1.02243 0.00833973 -9.38409e-22)
(1.02157 0.0156663 3.13568e-22)
(1.01129 0.004936 0)
(1.012 0.0207999 2.89429e-22)
(1.04636 -0.0231232 -6.87845e-23)
(1.08215 0.0633606 5.82965e-21)
(1.07945 0.0777557 0)
(1.01533 -0.0167501 7.05432e-22)
(1.07506 0.0324029 -5.56162e-22)
(1.05521 0.118802 -5.76385e-21)
(1.06008 0.0620998 0)
(0.925836 0.0377547 4.4723e-22)
(0.570737 0.0121098 2.06996e-21)
(0.853432 0.26401 0)
(0.661879 0.00121697 0)
(1.01253 0.00571951 -1.06657e-23)
(0.988966 0.0648329 3.66143e-22)
(1.01839 0.0255899 0)
(0.674919 0.0547405 0)
(1.05201 0.067035 0)
(0.999098 -0.0109718 3.07697e-22)
(0.59976 0.0167555 0)
(1.02664 0.04018 3.53418e-22)
(1.08105 0.0503689 0)
(1.01725 0.00970333 -6.19012e-23)
(0.761808 -0.0102256 1.43394e-21)
(1.08164 0.0551821 0)
(1.01379 0.00492419 -1.01822e-22)
(0.997596 -0.0127326 2.26956e-21)
(1.01044 0.00392588 0)
(0.97553 0.137742 0)
(1.02657 0.0268544 0)
(1.07214 0.0411051 0)
(1.00876 -0.000600572 3.18424e-22)
(1.05449 0.0928619 -2.56855e-23)
(1.08572 0.0332052 0)
(1.00832 -0.000856168 8.8747e-22)
(1.04359 -0.027807 -9.06981e-23)
(1.01662 0.00758874 0)
(1.07313 0.0320498 -2.27353e-22)
(1.01557 0.00751304 7.00815e-24)
(1.01167 0.00387724 8.26513e-22)
(1.0339 -0.0218466 -3.3476e-22)
(1.01809 0.0222924 1.12417e-21)
(1.0113 0.0025681 -1.07859e-21)
(0.986282 0.043885 -2.39554e-22)
(0.987539 -0.210515 3.50597e-21)
(0.552655 0.0337957 6.39499e-24)
(1.01134 0.00249704 -5.54331e-22)
(1.0067 0.000626766 -6.50378e-22)
(0.755024 0.0576843 2.1615e-22)
(1.01707 0.00950338 8.7387e-23)
(1.07936 0.0475965 -4.9966e-22)
(1.00777 0.0352988 0)
(1.00083 -5.91183e-06 1.44044e-22)
(0.928685 0.00753083 1.2636e-21)
(1.00451 4.00159e-06 0)
(0.896318 0.0733458 8.90313e-22)
(1.01731 0.0139551 -1.59859e-22)
(0.997217 -0.00796193 6.56429e-22)
(1.09783 0.0825158 1.49891e-21)
(1.00909 0.0146258 0)
(0.916896 0.0395319 -4.70097e-22)
(1.03132 -0.00555981 -4.60514e-21)
(1.02359 0.00605523 2.99224e-22)
(1.05375 0.00230352 -9.74243e-23)
(1.01701 -0.016534 -7.09862e-22)
(0.573738 0.0123669 -1.92133e-21)
(1.01258 -0.00177538 2.24086e-22)
(1.03328 -0.0179217 3.84168e-22)
(1.08187 0.0547587 4.06455e-21)
(1.01205 0.00146963 -1.87341e-21)
(1.00844 -0.000254253 -9.23893e-23)
(1.01118 0.0048004 -1.33868e-21)
(1.05196 0.117944 1.4716e-21)
(1.0146 0.00649639 0)
(0.880031 -0.13714 -9.07557e-22)
(1.05941 0.0055747 0)
(1.0206 0.00560551 0)
(1.02672 0.0266517 -3.18205e-22)
(1.08111 0.0633651 -4.85306e-21)
(1.10239 0.0705387 9.43397e-22)
(1.0393 0.0357115 1.97851e-21)
(1.05296 0.0675619 0)
(0.750687 0.0378317 0)
(1.07147 0.0616283 3.43034e-21)
(1.05401 0.143259 -1.9777e-21)
(0.569594 0.010608 0)
(1.08098 0.0781777 0)
(1.06098 0.0715821 4.98131e-22)
(1.06368 0.0535229 7.23705e-21)
(1.07348 0.047724 0)
(1.0771 0.073165 6.89236e-21)
(1.06534 0.0710664 2.91332e-21)
(1.01045 0.00184394 4.79035e-22)
(1.01273 0.0210094 1.07094e-21)
(1.02419 0.0479066 7.57276e-22)
(1.05488 -0.00368031 0)
(1.02999 0.0395526 2.57227e-22)
(1.00856 0.000443894 0)
(1.033 0.00742878 1.46766e-21)
(1.07334 0.0294276 8.10345e-21)
(1.03274 0.00756096 -2.47737e-21)
(1.02106 -0.00336995 0)
(1.01285 0.0205272 8.52476e-22)
(1.02461 -0.0172126 -2.70094e-22)
(1.00762 9.98173e-05 1.1791e-21)
(1.01187 -0.00154343 -5.4622e-22)
(1.06763 0.0399028 0)
(1.02852 0.0408429 -2.0163e-22)
(1.07881 0.034926 0)
(1.08037 0.0505704 4.05224e-22)
(1.01076 0.00455279 0)
(0.943277 -0.0320318 2.95435e-22)
(0.999103 0.0136163 0)
(1.02199 0.00832977 3.84401e-23)
(0.952414 -0.0361217 5.99866e-22)
(0.670924 0.0809177 -2.51118e-21)
(1.01514 -0.00398715 0)
(1.00744 -0.000429127 4.59625e-22)
(1.00167 -3.04247e-05 -2.70151e-22)
(0.58731 0.0223335 0)
(0.457648 0.00887126 3.64563e-22)
(1.02129 0.0133489 1.31405e-21)
(1.01167 0.0037136 -3.67999e-22)
(0.732497 -0.081825 4.84268e-21)
(1.01611 -0.00161461 -2.99024e-22)
(1.01136 0.00285401 3.98661e-22)
(1.01543 0.0288088 8.23622e-21)
(1.01087 -0.00282677 0)
(1.02563 0.014882 -3.42882e-22)
(1.06385 0.0318268 -2.84474e-21)
(1.0131 -0.00127401 -2.05364e-24)
(1.01964 0.00474753 0)
(1.02224 0.0084667 0)
(1.05039 0.145764 1.7721e-21)
(1.0023 -0.0999671 0)
(0.52228 0.0221687 6.93939e-21)
(1.01456 0.00656698 -6.60671e-22)
(1.05778 0.0123555 -7.11533e-23)
(1.00893 -0.00101871 2.63695e-22)
(1.00398 0.000131771 -2.59858e-22)
(1.02632 -0.00495713 -1.14756e-22)
(1.0458 0.0398757 0)
(1.02359 0.00361349 8.48173e-22)
(1.06667 0.0630228 9.94489e-21)
(1.03442 0.0204587 0)
(0.819572 -0.0884289 1.33623e-21)
(1.05401 0.0360919 0)
(0.931386 0.0397452 0)
(1.02487 0.0180993 -1.14864e-21)
(1.02663 -0.00382375 -1.31445e-22)
(1.02536 0.0322022 -2.81785e-21)
(1.0479 0.0760898 1.79865e-21)
(0.755751 0.0292766 -2.26153e-21)
(1.02238 0.00336778 0)
(1.02142 0.00537723 -1.57244e-22)
(1.07413 0.0465923 6.66846e-21)
(1.00729 -0.000444285 0)
(1.0827 0.0851402 0)
(1.01894 0.00488145 0)
(1.01131 -0.00341911 7.15533e-24)
(1.15547 0.0879001 0)
(1.01926 0.0166277 -1.56051e-22)
(1.02143 -0.00442811 9.9681e-23)
(1.04876 0.0784879 5.72752e-21)
(1.00726 -0.000422719 0)
(1.00976 0.000511259 0)
(1.02186 -0.00445552 -9.65919e-23)
(1.01848 0.0389832 1.75008e-22)
(0.990526 0.0136949 7.19741e-22)
(1.0693 0.056724 -1.72187e-21)
(0.69178 0.044584 0)
(1.01778 0.00464343 -5.80732e-22)
(1.01588 0.00695721 1.85021e-23)
(1.06597 0.0633229 0)
(1.00453 0.0475875 0)
(1.05997 0.0392556 2.32816e-21)
(1.02434 0.0323765 1.39076e-21)
(0.984714 0.0385042 2.24128e-21)
(1.06466 0.0705799 3.81927e-21)
(1.05295 0.0622147 -1.25808e-21)
(1.01709 0.0138381 0)
(1.0724 0.0624114 0)
(1.01976 -0.00949479 -2.03991e-22)
(1.01126 0.0044812 0)
(0.86393 0.38484 -4.11262e-21)
(1.0092 0.111353 -4.11713e-22)
(1.03528 0.0257458 5.94529e-22)
(0.785298 0.0418347 0)
(1.04889 0.0765755 0)
(1.02374 0.0166061 3.04451e-22)
(1.01865 0.024391 0)
(1.01147 -0.000534046 0)
(1.01569 -0.00288375 -1.13722e-22)
(1.07819 0.0347055 5.19443e-21)
(0.860337 0.01378 3.2757e-22)
(0.933375 0.141637 0)
(1.01968 0.0219108 -2.63925e-23)
(0.535758 0.0622171 4.68966e-21)
(0.596094 -0.103668 -8.66184e-21)
(1.02802 0.0155759 6.51648e-22)
(1.00891 0.018637 1.0639e-21)
(0.998493 0.0124992 1.35801e-21)
(1.01508 0.00261628 -2.01757e-22)
(1.00865 -0.000280362 -5.12952e-23)
(0.805686 0.153905 0)
(1.0121 0.0051177 0)
(1.01518 0.0025753 3.44352e-22)
(1.00758 -0.000468845 3.6292e-22)
(1.00204 -5.16283e-05 0)
(1.01651 0.0123437 3.21642e-22)
(1.00854 -0.000897069 2.40763e-22)
(0.994046 0.0158083 -5.78818e-22)
(0.854231 0.0696674 7.24805e-22)
(1.02779 0.0101861 1.32608e-21)
(1.01457 0.000286065 -9.07847e-24)
(1.01556 0.00968172 4.11384e-22)
(1.00931 0.00249781 7.55917e-22)
(1.00776 0.000152061 -7.11688e-22)
(1.0143 0.00637686 2.84358e-21)
(1.01199 -0.00155401 4.50763e-22)
(1.02554 0.0181126 1.69943e-21)
(1.07732 0.072327 -1.82531e-21)
(1.07041 0.0599485 -1.93763e-21)
(1.07205 0.0618516 4.54669e-21)
(0.524463 0.0612423 -5.3005e-21)
(0.721843 0.0571791 -1.78048e-21)
(1.07223 0.0631169 -7.45663e-21)
(1.09108 0.134971 -3.90934e-22)
(1.08697 0.0930423 0)
(1.0088 0.00229494 -4.34667e-22)
(1.01975 0.00277524 -4.73888e-22)
(1.0288 0.00284321 -5.61817e-22)
(1.01429 0.0026104 0)
(1.01245 0.00172068 0)
(1.07703 0.0715289 0)
(1.0227 0.0084516 1.38773e-21)
(1.04986 0.0789839 -5.30899e-21)
(0.740406 -0.0772117 0)
(0.98334 0.0186755 1.44409e-21)
(1.08146 0.140709 9.40891e-22)
(1.05738 0.0473743 -3.03305e-21)
(1.04996 0.0395494 0)
(0.697023 0.0823294 -8.4226e-22)
(1.02326 0.0179112 3.21204e-23)
(1.01824 -0.020867 -2.46622e-21)
(1.01572 0.00687438 -1.21808e-23)
(1.01416 -0.01777 2.59974e-21)
(1.02544 0.0129104 7.96599e-22)
(1.0154 0.00634651 1.36771e-23)
(1.09987 0.0734771 2.66767e-21)
(1.01752 0.0146332 -1.84398e-22)
(1.00873 0.0454311 -1.01183e-21)
(1.03027 0.0285848 0)
(1.01683 -0.0174229 2.16664e-21)
(1.01564 -0.00270242 1.40173e-22)
(1.04718 0.0276856 5.67466e-22)
(1.00307 0.133655 0)
(1.01872 0.0183089 1.15754e-21)
(1.00126 -1.67334e-05 0)
(0.840311 -0.128297 2.46025e-21)
(1.00071 0.0240992 0)
(1.02213 0.0228583 6.48284e-22)
(1.07488 0.0448672 2.02336e-21)
(0.862986 0.191707 1.95343e-21)
(1.00673 0.00062346 0)
(0.810379 0.0517638 1.29986e-20)
(1.01674 0.0106866 -3.33716e-22)
(1.05342 0.0614558 1.25946e-21)
(1.00131 0.00666099 4.42466e-21)
(0.410524 0.0216142 1.28319e-21)
(0.814629 -0.0673391 -8.03739e-21)
(1.10005 -0.0085989 1.95322e-21)
(1.00656 0.023037 0)
(1.01254 -0.00193312 -5.38807e-22)
(1.02226 0.0145773 0)
(1.00782 0.000357151 0)
(1.02229 0.0229746 -1.1629e-23)
(0.797553 0.0425253 0)
(1.0143 0.00936562 0)
(1.01943 0.0182571 2.84907e-21)
(1.02626 0.0144533 6.2826e-22)
(1.07587 0.0449382 -5.39584e-21)
(1.00779 0.000369406 0)
(1.01547 0.00937682 6.03785e-22)
(1.01391 0.00504468 1.31994e-22)
(0.873165 0.0143558 7.52339e-23)
(1.08823 0.0331073 0)
(1.00677 0.000642368 0)
(0.533414 0.0308162 -9.95151e-22)
(1.02008 0.0195642 -2.28895e-23)
(1.05952 0.0400864 0)
(0.993117 0.00352609 1.02456e-23)
(1.0228 -0.0055833 0)
(1.02022 0.0153748 9.3779e-22)
(1.02345 -0.00573304 0)
(1.02792 0.044724 3.37001e-21)
(1.08488 0.0593182 0)
(1.07403 0.0589903 0)
(1.09674 0.146157 4.33621e-22)
(1.02116 -0.0205892 0)
(0.856409 0.0566467 3.00063e-23)
(1.01416 0.00250912 0)
(0.986279 0.0188127 6.85891e-22)
(0.815789 0.0427709 -1.22242e-20)
(1.01083 -0.114896 3.30423e-23)
(1.01991 0.0159662 0)
(1.00664 4.22223e-05 2.13743e-21)
(0.761265 -0.0316098 -3.02329e-21)
(1.01252 9.00075e-05 -5.942e-22)
(0.943047 0.245104 3.60388e-21)
(1.04096 0.00681311 -2.07314e-21)
(0.923464 0.252443 -3.32771e-22)
(1.07823 0.0727158 1.40782e-21)
(0.763704 -0.125421 0)
(1.01033 0.00213763 1.2723e-24)
(1.02172 -0.114383 -3.26971e-22)
(1.03488 0.0231077 -9.56579e-25)
(1.02076 0.0245425 3.2754e-22)
(0.785623 -0.131803 -1.98842e-21)
(1.00847 -0.000907575 0)
(1.03657 0.0225296 1.19618e-21)
(0.956219 -0.0497497 0)
(0.909195 0.23447 -3.30371e-21)
(1.03519 0.0231294 1.10741e-21)
(1.00905 0.000502956 0)
(1.07968 0.0736096 -1.30429e-20)
(0.99758 0.317663 -2.8293e-21)
(1.00659 5.47833e-05 -1.19932e-21)
(1.04217 0.269256 0)
(1.02389 0.0245238 -4.99159e-22)
(1.01987 0.0194541 5.17921e-22)
(1.00901 0.000471643 -1.01223e-21)
(0.771867 -0.193863 7.54433e-21)
(1.07904 0.0725907 0)
(1.01305 0.012399 0)
(1.01516 0.0106442 -3.12389e-22)
(1.01765 0.0073387 1.11021e-22)
(1.00127 -4.12793e-05 1.28357e-21)
(0.734166 0.265834 9.85059e-22)
(1.03226 0.0252063 1.39216e-21)
(1.01655 0.0310236 2.09203e-21)
(1.02213 0.00466915 -1.76771e-22)
(1.06494 0.0419587 0)
(0.779109 0.0402073 1.82175e-21)
(0.996167 -0.0175096 -9.09189e-23)
(1.03273 0.0214685 0)
(0.970843 0.069496 -2.51943e-21)
(0.990412 0.00192391 0)
(0.999041 -0.00368327 2.2892e-21)
(1.03361 0.0292902 -8.54955e-24)
(0.573535 0.00880975 8.89973e-22)
(1.02098 0.0246495 -3.03912e-22)
(1.0592 0.0567845 2.80879e-21)
(0.792261 0.040443 -7.84639e-22)
(1.01146 0.00221317 2.62954e-24)
(1.01333 0.00414846 4.8193e-23)
(1.02189 0.0131106 3.83015e-22)
(1.0157 0.00766864 -1.22518e-23)
(1.00135 0.00537901 -3.31267e-21)
(1.03282 0.0218159 0)
(1.0307 0.0533176 -1.59848e-21)
(1.03803 -0.00995509 3.13242e-23)
(1.06383 0.0433792 -6.37478e-21)
(1.03089 0.0270724 0)
(0.747627 0.270253 2.3831e-22)
(0.725127 0.0671879 3.54844e-22)
(1.05411 0.0355239 0)
(1.00938 0.00253283 0)
(1.03318 0.0292467 8.46879e-22)
(1.05598 0.0160132 -2.139e-21)
(1.02151 0.0230149 -2.52483e-22)
(1.11524 0.00225566 -1.30481e-21)
(0.959491 0.262049 -4.80137e-21)
(1.07577 0.0705989 6.13569e-21)
(1.01459 0.00601154 -5.3431e-22)
(1.02351 0.0311433 0)
(1.08208 0.0487455 -6.27406e-21)
(1.09372 0.131226 0)
(0.680461 0.0438113 0)
(0.823716 -0.0317143 -8.0528e-23)
(0.861259 0.0123335 6.3241e-22)
(1.02688 0.297998 3.1774e-21)
(1.08166 0.0560822 -1.48531e-20)
(1.0735 0.0350311 -9.96861e-22)
(1.0091 0.00221931 3.25035e-22)
(0.754175 0.0616774 0)
(1.04913 0.0144948 6.39534e-23)
(1.01997 0.0158306 -1.62798e-22)
(1.07737 0.0175236 1.01187e-21)
(1.02425 0.0333246 8.96951e-24)
(1.06909 0.0572893 0)
(0.568869 0.00600654 6.30818e-22)
(1.02404 0.0243561 1.46369e-22)
(1.00781 0.0133703 5.01393e-22)
(1.01111 0.00471616 8.05991e-22)
(1.09023 0.08986 -1.53397e-21)
(0.826078 -0.0266098 0)
(1.0655 0.0745235 3.60557e-21)
(0.536947 0.0534906 -1.23325e-21)
(1.075 0.0340753 -6.24119e-21)
(1.08062 0.0734982 1.31965e-20)
(1.05277 0.0764078 2.56792e-21)
(1.00663 -1.51656e-05 1.08957e-21)
(1.06486 0.0755518 -3.06834e-21)
(1.01571 0.0197536 0)
(1.05677 0.000734005 0)
(0.998225 0.0149794 -6.82667e-22)
(1.04744 0.0745347 -6.081e-22)
(1.01375 0.00452923 0)
(0.954586 0.211789 0)
(0.931631 0.023573 2.49305e-21)
(1.01744 0.00720027 1.73786e-22)
(1.00745 -0.000458632 0)
(0.87683 0.272549 1.27141e-20)
(1.09654 0.133351 -6.98792e-21)
(1.00599 0.00184773 0)
(1.03609 -0.0076017 -1.10691e-22)
(1.00742 -0.000438026 -1.19256e-22)
(1.02898 0.0291445 -1.80962e-22)
(1.0066 -2.95921e-05 -3.91258e-22)
(1.00087 0.0446785 1.38395e-21)
(1.0161 0.0305321 -1.75856e-21)
(1.0216 0.0012176 1.64234e-22)
(1.02348 0.0181529 0)
(1.01968 0.0170701 -2.46187e-21)
(0.508268 0.059754 0)
(1.01269 -0.00177691 1.10521e-22)
(1.07587 0.0534771 -5.15878e-21)
(1.07455 0.0557598 -1.40381e-20)
(1.02466 -0.0056883 -9.75498e-24)
(1.01173 -0.00178475 2.11951e-22)
(1.07419 0.0585516 3.851e-21)
(1.10051 0.0710091 -5.16952e-21)
(1.00786 0.000143303 0)
(0.910108 0.242909 2.9221e-20)
(0.521721 0.0509881 0)
(1.00855 0.00176567 7.79817e-22)
(1.05788 0.0574443 0)
(1.01034 0.0021721 1.22868e-21)
(1.01842 -0.00308488 0)
(1.05619 -0.027256 4.30619e-22)
(1.04179 0.016255 1.43371e-21)
(1.01551 -0.0108222 -9.13924e-22)
(1.09376 0.149685 -6.07664e-21)
(1.04201 0.301592 0)
(1.06625 -0.024794 4.73884e-22)
(0.771628 0.0611087 -1.82594e-21)
(1.01539 0.00622722 -1.49778e-23)
(0.685815 0.091771 3.85432e-22)
(1.00693 -0.000429533 2.30942e-22)
(1.01854 -0.00282661 0)
(1.04792 0.0735339 -6.56423e-22)
(1.00854 0.00174179 -8.6104e-22)
(1.01321 0.00773195 -4.62306e-22)
(0.918642 0.0367721 -1.41925e-21)
(1.01604 0.0197924 -8.51549e-22)
(1.09402 0.139035 0)
(1.00219 -2.50212e-05 0)
(0.79599 0.157896 -9.88173e-21)
(0.524889 0.0228258 -6.59817e-21)
(1.0135 0.00891447 0)
(1.0048 -1.73596e-05 -8.16702e-23)
(1.06136 0.0324371 -5.02199e-21)
(1.02952 0.00591624 0)
(1.01471 -0.00983091 9.21729e-22)
(0.40135 0.018823 1.48211e-21)
(1.01961 0.012591 -1.63789e-21)
(1.04898 0.0376723 2.73691e-21)
(1.03418 0.0387683 -5.35059e-22)
(1.05982 -0.0317452 -8.45073e-22)
(1.02842 0.00747363 2.15917e-22)
(1.00302 -3.77591e-05 6.23766e-22)
(0.871568 0.0120862 0)
(1.02181 -0.000731566 0)
(0.91195 0.249801 0)
(1.15005 0.17201 0)
(1.01271 -0.00122705 1.23309e-21)
(1.01264 0.00199856 0)
(1.00535 0.00017589 1.1927e-22)
(1.01792 0.0150063 -1.009e-23)
(1.06463 0.073123 0)
(1.00659 0.00085712 0)
(1.01927 0.0394959 0)
(1.02985 0.00268252 -9.09263e-22)
(1.01261 -0.00122391 -8.03764e-22)
(1.03229 0.0145582 -8.12685e-22)
(0.935553 0.000249304 -4.6392e-22)
(1.15325 0.168845 -3.51171e-21)
(1.08064 0.06225 5.81375e-21)
(1.06934 0.0459214 -4.022e-21)
(1.07555 0.0523428 -6.42943e-21)
(1.07013 0.0458511 2.8989e-21)
(1.01775 0.021948 4.19051e-23)
(1.03076 0.0274755 0)
(1.02189 -0.00144248 5.61995e-22)
(1.0204 0.0170203 0)
(1.01557 -0.00195824 0)
(1.0151 0.0123262 0)
(1.03035 0.0274198 5.49664e-22)
(1.01787 0.0134324 3.16131e-22)
(1.04163 0.00635637 2.27699e-21)
(0.903324 0.079934 8.16662e-22)
(0.747156 0.0614149 -5.83708e-21)
(1.01396 0.0078387 0)
(0.91186 0.035075 3.56615e-21)
(1.02718 0.0222536 6.30356e-22)
(1.03089 0.0024506 0)
(1.08197 0.0557378 7.56375e-21)
(1.04896 0.0422607 -3.90508e-21)
(1.06271 0.0378309 -8.21294e-21)
(1.0165 -0.00219725 2.08364e-24)
(1.05708 -0.00689209 -2.25572e-22)
(0.89435 0.147995 -2.9354e-21)
(1.02401 -0.0110225 0)
(1.09079 0.11094 -8.76177e-21)
(0.863932 0.0886581 1.47438e-21)
(1.08237 0.153628 -6.10417e-22)
(1.02317 -0.010474 1.08711e-22)
(1.05811 -0.0049278 3.56695e-22)
(1.01438 0.00980833 3.71006e-22)
(1.01695 0.013573 0)
(0.906787 0.0370673 0)
(1.01078 -0.000340039 9.3451e-24)
(0.822097 -0.0293825 0)
(1.01646 -0.00465454 -7.99491e-22)
(0.537164 0.0473897 0)
(1.01622 0.00622752 2.40585e-22)
(1.00914 -0.00105348 1.96308e-22)
(1.01578 -0.0912437 1.85167e-22)
(1.06115 0.031864 7.80906e-21)
(1.01332 0.00698438 -6.71012e-22)
(1.01638 -0.00439728 8.91623e-22)
(1.01512 -0.00633953 -2.98755e-23)
(1.01091 0.0044526 -2.41151e-22)
(1.05544 0.0560163 4.57592e-22)
(1.00902 -0.00100973 1.18828e-24)
(1.01616 0.00560877 0)
(0.732054 0.0568232 -2.29966e-22)
(0.940227 0.145035 1.11963e-21)
(1.05684 0.133123 -4.57724e-21)
(1.0455 0.0594353 2.05214e-21)
(1.05983 0.0633317 0)
(0.7399 0.0281891 1.74387e-21)
(1.07576 0.0537419 -6.45899e-21)
(1.0352 0.0226334 -1.86702e-21)
(0.878845 -0.223915 -3.76504e-21)
(0.817826 0.0837708 0)
(0.589805 0.178614 1.15361e-21)
(1.07078 0.15879 5.6463e-22)
(1.06542 0.0722895 -3.19421e-21)
(1.00947 0.0466642 0)
(1.01281 -0.00197825 6.9673e-22)
(1.01627 0.0202447 9.97525e-22)
(0.904711 0.18941 3.11021e-21)
(1.02811 0.0103414 -1.46592e-21)
(0.701845 0.0561619 -1.87248e-21)
(1.06056 0.0352444 0)
(1.02874 -0.0307269 0)
(0.737778 -0.00216919 2.38984e-21)
(1.07619 0.0710892 -4.36875e-21)
(1.01606 0.00612762 -2.39683e-22)
(1.00731 -0.000430842 -2.40267e-22)
(0.666054 0.0549429 -1.29065e-21)
(1.01167 0.00265022 -1.02274e-22)
(1.05791 0.0692189 0)
(1.05078 0.0375338 1.453e-21)
(1.01175 -0.00171335 1.96789e-22)
(1.00876 0.002044 4.64389e-22)
(1.04893 0.16958 -4.98044e-22)
(1.06053 0.0638129 0)
(1.07412 0.0332194 3.25189e-21)
(1.04688 0.0415092 3.7768e-21)
(1.02262 0.00652204 1.59605e-22)
(1.02624 0.0142525 -3.66772e-22)
(1.01946 0.0166485 -3.06327e-22)
(1.02147 0.0228694 -4.74067e-22)
(1.00828 0.00151669 0)
(1.0538 0.0336479 0)
(0.849376 0.0169802 0)
(0.901474 0.0358383 -2.84869e-21)
(1.03989 0.0540854 0)
(0.446506 -0.112879 4.85354e-21)
(1.00756 0.0235126 0)
(1.01851 0.0165322 -5.21385e-22)
(1.01789 0.0241584 0)
(1.04862 0.0328123 -4.94946e-24)
(0.503773 -0.0456287 0)
(1.01478 0.00446606 -1.48939e-22)
(1.07871 0.0646067 4.93591e-21)
(1.01456 -0.00260521 0)
(1.0153 0.00754698 1.03956e-24)
(0.838048 0.176959 -1.90462e-21)
(1.06851 0.0572901 2.00689e-21)
(1.01587 0.011356 -1.07434e-21)
(0.99104 -0.10807 -9.47565e-23)
(1.01138 -0.000506676 0)
(1.09636 0.141346 0)
(1.01464 -0.00267997 5.47946e-22)
(0.9995 0.0111591 -1.15899e-21)
(1.01671 -0.00226417 2.58225e-22)
(1.01517 0.0074056 -7.33085e-23)
(1.01251 -0.00204414 -2.00202e-22)
(1.0146 -0.00580501 3.38872e-23)
(1.05636 0.00720775 4.98936e-23)
(0.862824 0.0689692 3.07647e-21)
(1.03863 0.0359476 -1.59333e-21)
(1.05929 0.0411804 1.43537e-21)
(1.01084 0.00438198 0)
(1.00078 -3.30964e-05 -1.44976e-21)
(1.04525 0.0589597 6.20965e-23)
(1.01574 -0.00301455 0)
(1.01555 -0.00234446 -1.0506e-21)
(1.00859 0.0330402 1.13629e-21)
(1.07528 0.136647 4.72813e-21)
(0.803332 0.0818969 6.1538e-22)
(1.01513 0.0114621 -1.31247e-21)
(1.00956 0.00281544 -7.73513e-22)
(1.0271 0.0119355 0)
(0.705718 -0.0929592 -1.70458e-20)
(1.04156 0.0159538 -5.77223e-21)
(1.02313 0.00844533 -1.78427e-22)
(1.07086 0.0594915 1.99103e-21)
(0.814012 0.0833211 5.18638e-23)
(1.01988 0.00870067 -1.13413e-21)
(0.999015 0.0966862 0)
(1.01984 0.0169506 -7.9384e-22)
(0.585208 0.0273629 1.56859e-21)
(1.01367 0.00619632 1.28381e-21)
(1.00471 0.0164491 5.01803e-21)
(0.614935 0.026352 -2.57675e-21)
(1.00873 0.00199422 -5.97849e-22)
(1.0089 -0.000889766 -1.7846e-22)
(1.02611 0.0407259 1.54475e-22)
(1.0206 0.0140495 1.88415e-23)
(1.01964 0.0169448 5.3767e-22)
(0.906825 0.00899735 1.5501e-22)
(1.03195 0.0263504 0)
(1.01175 -0.00175365 0)
(0.901334 0.032481 0)
(1.01185 -0.00176038 -2.13119e-22)
(0.819076 -0.0349793 0)
(1.01157 0.00255218 2.05857e-22)
(1.01051 0.00210035 -1.04937e-21)
(1.01406 -0.0005417 0)
(1.04098 0.0349008 1.17682e-21)
(1.06016 0.0478981 -4.11069e-21)
(1.06449 0.0685772 0)
(0.810222 0.297616 9.87456e-22)
(1.0398 0.0535648 0)
(1.00889 -0.000932233 -1.78061e-22)
(1.01184 -0.00171329 2.98512e-22)
(1.02428 0.00503424 -5.60082e-23)
(1.00997 0.000303555 0)
(1.016 0.0055115 2.03565e-23)
(0.764336 0.104079 2.80844e-22)
(1.07596 0.0521674 0)
(0.71406 0.0829832 -2.21579e-22)
(1.03756 0.0191662 2.7782e-22)
(1.01578 0.301984 -2.90913e-21)
(1.04592 0.0189251 2.2945e-21)
(1.01041 0.00208604 -1.52888e-21)
(1.02349 0.00608406 4.9223e-23)
(0.999094 0.0100028 1.87537e-21)
(0.975291 0.212282 7.33718e-22)
(0.532328 -0.0376333 0)
(1.01953 0.0198202 0)
(1.01546 0.0192654 0)
(1.0157 0.009782 3.3416e-22)