/*--------------------------------*- C++ -*----------------------------------*\
| =========                 |                                                 |
| \\      /  F ield         | OpenFOAM: The Open Source CFD Toolbox           |
|  \\    /   O peration     | Version:  v2012                                 |
|   \\  /    A nd           | Website:  www.openfoam.com                      |
|    \\/     M anipulation  |                                                 |
\*---------------------------------------------------------------------------*/
FoamFile
{
    version     2.0;
    format      ascii;
    class       volVectorField;
    location    "300";
    object      ddt0(U);
}
// * * * * * * * * * * * * * * * * * * * * * * * * * * * * * * * * * * * * * //

dimensions      [0 1 -2 0 0 0 0];


internalField   nonuniform List<vector> 
37809
(
(-0.000554367 -0.000270759 3.57268e-22)
(-0.00860772 0.000233325 -1.41334e-21)
(-1.43788e-06 -3.6033e-05 -7.536e-23)
(-0.000169142 8.02507e-06 -2.21425e-22)
(-0.000948444 0.00280489 -1.06778e-22)
(0.000267194 0.000816445 -4.4227e-22)
(-0.000384565 -0.000577188 -2.41153e-22)
(-2.03066e-05 -0.000786832 -5.31194e-22)
(0.0026889 6.2135e-05 0)
(-0.000481642 -2.47183e-05 -1.08622e-22)
(-7.30557e-05 -2.49521e-05 -6.75451e-22)
(-3.66576e-05 -0.000104188 -2.85736e-22)
(9.95575e-06 -0.00014227 0)
(6.94459e-06 -0.000145352 0)
(0.00339326 -7.15806e-05 1.16733e-21)
(-0.000149299 -2.30298e-05 -5.91447e-22)
(-1.77534e-05 -1.04557e-05 -2.5864e-22)
(-0.00849165 0.000392053 0)
(-8.76839e-05 4.2987e-05 -1.18086e-22)
(-0.000388225 -0.000487042 0)
(6.64592e-05 -0.000395465 1.68387e-21)
(5.72199e-05 -0.000389823 -1.31146e-21)
(-0.00588255 0.00223411 0)
(-2.04052e-05 5.37176e-06 -3.50535e-22)
(-0.000246411 -0.000294129 -3.11385e-22)
(0.00329039 -0.00302269 -2.29539e-22)
(-0.00095769 0.00347388 -1.13361e-21)
(-1.38855e-05 -0.000157321 0)
(-1.69533e-06 -2.02612e-05 0)
(-2.24827e-05 -0.000816739 1.22728e-21)
(-0.00109628 0.00174688 0)
(-0.00160724 -0.000347434 0)
(-2.02586e-05 6.51511e-06 -3.27925e-22)
(-0.000327425 -0.000858467 -1.26462e-21)
(-1.5267e-07 0.000109712 0)
(-1.7423e-05 -1.17277e-05 0)
(-1.17805e-05 4.94058e-05 2.10221e-22)
(0.00203984 -0.00253561 3.01103e-22)
(-0.000576367 0.000765741 2.49028e-22)
(6.9104e-05 3.25571e-05 4.40721e-22)
(-0.00119296 0.00121134 6.47911e-22)
(0.00249185 0.000164333 2.5957e-22)
(-0.00348222 0.000334075 1.34529e-21)
(0.000409198 0.000106861 -1.49785e-21)
(-6.00601e-05 -7.66411e-05 7.04949e-22)
(1.19499e-05 0.000339916 7.36492e-22)
(0.00112079 0.00149839 -1.06769e-21)
(-0.00239062 0.00373016 0)
(0.00132097 0.00314247 4.80552e-22)
(-0.000308372 -4.54736e-05 0)
(-5.76442e-05 4.53025e-05 -6.09142e-22)
(-2.41074e-05 -1.39262e-05 -3.04123e-22)
(-2.50676e-05 -2.28509e-05 7.08706e-22)
(-0.000105156 3.30459e-05 4.90862e-22)
(0.00155272 -0.000319722 0)
(-2.37807e-05 -2.15989e-05 -6.68968e-22)
(-0.000195937 -0.000102598 0)
(-6.49034e-05 0.000218765 -3.14275e-22)
(-0.000483041 0.000792932 4.3529e-22)
(-0.00269749 -0.00308771 -3.1318e-22)
(-0.00354689 2.79152e-05 -7.83368e-22)
(7.04896e-06 -0.000144001 0)
(1.36319e-05 -0.000141324 0)
(-0.000955453 0.000553274 -9.89818e-22)
(-0.00105109 0.00181299 0)
(-0.000270018 -0.000296544 -2.83002e-23)
(-0.00225577 0.000384952 2.66263e-22)
(-9.22482e-05 4.12915e-05 -8.96164e-22)
(2.59644e-05 0.000206138 -7.09546e-22)
(-0.00246083 -0.00135203 1.07711e-21)
(-0.000146405 7.64679e-06 0)
(0.000163515 -4.23604e-05 0)
(-3.87929e-05 -0.000119908 0)
(3.36367e-06 -0.000145288 -4.11852e-22)
(-1.51773e-05 -0.000156846 0)
(-1.84066e-05 2.08519e-05 -6.79762e-22)
(6.16902e-05 1.31811e-05 -9.39072e-22)
(-0.000641426 -0.000105288 0)
(-0.000537783 -0.000271852 0)
(-0.00146934 -0.00148728 0)
(-3.82843e-05 -5.86526e-05 2.92393e-22)
(-1.44394e-06 -1.89181e-05 0)
(-0.00614706 0.004345 -4.93163e-22)
(-0.000193265 0.000294968 -2.05224e-21)
(-6.39668e-05 4.6559e-05 0)
(-0.00335352 0.000239666 -5.23358e-22)
(-8.46061e-05 -8.76198e-05 0)
(-0.00174715 0.00116975 2.16063e-22)
(3.31136e-05 0.000996714 -4.91676e-22)
(-0.000128073 -0.000183485 1.3929e-22)
(0.00135078 -0.00261802 0)
(-0.000719544 0.000171616 1.01404e-21)
(-0.000121372 -0.000452365 1.76375e-22)
(-0.00233504 0.00103939 0)
(-8.41078e-05 -8.84087e-05 1.07017e-21)
(-0.0066678 0.00399629 0)
(-3.73614e-05 -0.000122634 0)
(-5.80882e-05 4.93902e-05 6.25064e-22)
(-0.00122694 0.000271635 -6.22083e-22)
(-2.05278e-05 1.46672e-06 5.0089e-22)
(0.00128691 -0.00224145 9.92727e-22)
(-5.64889e-05 5.194e-05 9.69916e-22)
(-0.000911159 0.000558845 5.24027e-22)
(-0.00868533 0.000337921 1.12094e-21)
(-0.00312452 0.00413112 -1.22756e-21)
(-2.80319e-06 -3.87573e-06 1.64687e-21)
(-2.05802e-05 -0.000829596 6.11848e-22)
(-0.000271128 -4.42008e-05 0)
(-0.000655586 4.20106e-05 1.5652e-22)
(-3.53177e-05 -0.000101133 0)
(-0.000376786 -0.000481255 7.84024e-22)
(-0.000182577 0.000292811 2.20697e-21)
(0.000169244 -0.000538941 5.64991e-22)
(-9.24537e-05 -8.62037e-05 6.33296e-22)
(-0.000191013 -0.000102358 0)
(-0.000542737 0.000757973 -2.25665e-22)
(-6.9653e-05 -9.76096e-05 0)
(-1.6863e-05 -0.000103714 2.65849e-22)
(-0.00221841 0.00375125 1.75736e-22)
(0.00331281 0.000283107 2.78787e-22)
(-1.32836e-07 -5.00035e-07 1.10973e-21)
(-9.62683e-05 3.23199e-05 0)
(-0.000351579 6.33116e-05 -7.62459e-22)
(-0.000459007 0.00269274 0)
(-1.45256e-05 9.77297e-05 -4.36536e-22)
(-6.77871e-05 -0.000100545 0)
(0.000920384 0.00165557 -9.50705e-22)
(-7.55174e-05 -3.88184e-05 -7.80668e-22)
(-0.000117382 -0.000178153 0)
(5.28246e-05 0.000212123 -4.48761e-22)
(-0.00310124 -0.00100599 3.90925e-22)
(0.00195003 0.00147262 -6.15731e-22)
(-0.000387462 0.000185567 3.13342e-22)
(-2.61703e-05 -2.12491e-05 2.53042e-23)
(-0.00180208 -0.00164868 0)
(-2.15321e-05 1.11582e-06 0)
(-5.87935e-05 4.30779e-05 0)
(9.83765e-06 -0.000144153 0)
(-0.00380957 -0.000232506 -2.14337e-21)
(0.00125874 -0.00112678 -8.00213e-24)
(2.12142e-06 0.00010944 1.76063e-22)
(-0.000965728 0.00353037 -4.4499e-22)
(-0.00240691 -0.00012112 2.29059e-21)
(-0.00114473 0.00126642 6.88368e-22)
(-4.03659e-05 -0.000120432 0)
(-0.0023781 -0.000572959 1.54973e-21)
(-0.00014556 6.06069e-05 8.73648e-22)
(-4.49159e-05 -0.000130571 -3.16769e-22)
(-0.00624315 0.00427071 9.51707e-22)
(-6.80962e-06 5.71416e-07 3.83462e-22)
(-0.00289618 0.000338466 -7.07801e-22)
(5.80529e-05 0.000208343 0)
(0.000173838 0.000561584 -3.37751e-22)
(-0.00113795 -0.0021075 6.32538e-22)
(-0.000581279 -0.000835134 -5.44664e-23)
(-6.93734e-06 4.43847e-07 0)
(-0.00135646 0.00365464 2.15557e-22)
(-0.00202756 0.0036484 -1.23116e-22)
(-0.000106561 3.33116e-05 -2.02378e-22)
(0.000524349 -9.89136e-05 -2.31755e-22)
(-0.000111603 -0.000180178 1.32957e-22)
(0.00255105 0.000394062 6.21784e-22)
(-8.4316e-05 -0.000999074 9.55443e-22)
(8.59884e-06 -1.08474e-05 -3.5274e-22)
(-5.86282e-06 -0.000148377 1.63107e-22)
(-5.39916e-06 2.83461e-05 -3.48448e-22)
(-2.6809e-05 -9.39469e-06 9.34399e-22)
(-0.000753419 -0.000270201 -4.18409e-22)
(-0.000721082 0.000598502 5.47683e-25)
(-0.000520394 -0.00077743 0)
(0.000610331 0.00468744 -9.87073e-22)
(-3.81585e-05 -2.49252e-05 0)
(0.00435907 0.000187594 6.62704e-22)
(-0.000136514 1.48823e-05 6.05951e-22)
(2.848e-05 0.000211985 0)
(-0.000131839 -8.59183e-05 -7.01284e-22)
(-0.00358991 0.0040571 0)
(-0.000121864 -0.000183744 5.00236e-22)
(-0.00390862 0.00318005 0)
(-0.000439143 -0.00016942 0)
(0.00342241 0.000385702 -3.13429e-22)
(-9.36222e-05 2.46004e-05 -8.06898e-22)
(-2.52097e-05 -2.35021e-05 -6.52248e-22)
(-4.05024e-05 -0.000143882 0)
(5.21568e-06 5.40187e-05 -1.51901e-24)
(-0.00219989 0.00227292 -5.40718e-22)
(-9.39069e-05 2.39273e-05 0)
(-0.000223605 0.000161555 -8.71715e-22)
(0.00182488 -0.00106847 -7.00575e-24)
(0.00142244 0.000104115 1.17039e-21)
(-0.000301266 -4.1066e-05 -2.85048e-22)
(-3.91315e-05 -0.000123216 0)
(-5.90273e-05 -0.000113016 1.29312e-21)
(0.000380916 4.33931e-05 -2.28068e-22)
(0.000118189 0.00038399 0)
(0.000124774 -0.000820146 5.26409e-22)
(-1.92631e-05 -7.09463e-05 0)
(8.10051e-06 2.8975e-05 0)
(-2.37156e-05 -1.96472e-05 0)
(-0.000149126 7.12787e-06 0)
(0.00755209 -0.000337618 -1.87071e-21)
(-5.87254e-05 -1.94754e-05 0)
(0.00339939 -8.00837e-05 -5.4576e-22)
(-0.000442409 -0.000162559 0)
(-0.000566356 0.0003156 0)
(3.73345e-06 5.36835e-05 3.66192e-22)
(-0.000140119 1.41238e-05 1.09701e-21)
(-0.000245336 -0.000367108 -5.75263e-22)
(-2.75895e-05 -1.14974e-05 -6.10983e-22)
(0.0007676 0.00105412 5.74937e-24)
(-0.000229656 -0.000369858 3.44704e-23)
(-0.00848918 0.000220571 0)
(-2.24755e-05 -1.23228e-05 -5.91417e-22)
(-1.549e-05 -9.84498e-05 -8.31183e-22)
(-3.54769e-05 -5.77135e-05 0)
(-7.32011e-06 0.00322396 -1.27532e-21)
(9.8961e-05 -0.00038066 0)
(-5.9393e-05 2.91428e-05 0)
(-2.27516e-05 -1.25115e-05 7.59073e-22)
(0.0017157 0.00169515 1.70353e-21)
(-0.00247077 0.000933344 -5.12843e-22)
(8.61202e-06 -0.000736776 0)
(-6.62159e-05 -0.000109156 0)
(-9.6385e-05 2.69047e-05 -1.50055e-23)
(-3.77172e-05 -5.86366e-05 0)
(-0.00245101 0.00168833 -4.68608e-22)
(-0.00239936 0.000849305 -4.18276e-22)
(0.000923512 0.00157084 1.34876e-21)
(3.32894e-05 -0.0001756 1.37318e-21)
(0.00141274 -0.00231841 0)
(-4.39932e-05 -0.000139941 0)
(-0.000133356 -0.000579647 -2.2668e-22)
(-0.00177839 0.00226507 -1.00493e-21)
(3.3238e-06 -0.000145506 -3.24238e-22)
(0.000603309 0.00483056 1.50233e-21)
(0.000574515 0.000227539 -2.08549e-22)
(-2.95591e-05 -1.34784e-05 -1.56044e-22)
(-0.00132715 0.00178151 0)
(-6.62548e-06 -0.000152624 -1.56237e-22)
(0.000113316 6.57528e-05 0)
(-0.00406356 0.00420406 -1.10537e-23)
(-3.71312e-05 -2.77003e-05 0)
(-0.00267449 -0.00291471 5.17651e-22)
(-0.00409244 0.00439804 4.58383e-22)
(-6.18311e-05 -7.34989e-05 -6.4713e-22)
(-1.19934e-05 -1.62893e-06 0)
(-8.44849e-07 -1.79439e-05 0)
(-6.28813e-06 5.44663e-06 -1.64213e-22)
(-0.000469571 -0.000775834 -4.58847e-22)
(7.64261e-06 5.63386e-05 0)
(3.78444e-06 -6.41605e-05 5.05808e-22)
(-2.05735e-05 7.47029e-06 3.4546e-22)
(-2.21945e-05 -5.22577e-06 1.0653e-21)
(0.00206119 0.00106417 0)
(-6.40375e-05 -8.63647e-05 -1.04985e-21)
(-6.44245e-05 -9.28037e-05 0)
(8.61396e-06 2.78073e-05 0)
(-5.50545e-08 -1.0845e-05 6.48248e-22)
(-0.000320616 -0.000964184 -8.22365e-22)
(0.00407925 -0.000265453 -1.10932e-22)
(-0.00121698 -0.00201762 0)
(-6.04659e-05 -0.000110646 -1.40843e-21)
(0.00931623 -2.12225e-05 1.57318e-21)
(-9.85997e-05 3.22839e-05 0)
(-0.00358624 1.45705e-05 8.7015e-22)
(-0.000415333 -0.000200195 -1.54403e-21)
(0.0011909 0.00153424 2.19095e-21)
(-0.000339044 6.55315e-05 3.10453e-22)
(-1.59604e-05 -7.24718e-05 0)
(0.000116453 -0.000811951 -1.07571e-24)
(-0.000624747 0.000249907 0)
(-3.35721e-05 -6.10371e-05 0)
(-0.00264335 0.00322654 9.09835e-22)
(-0.00144871 -0.0033455 0)
(-2.0514e-05 8.25077e-06 -3.32805e-22)
(7.32853e-06 0.000173729 -4.69773e-22)
(-0.000344934 -0.000834717 1.39036e-21)
(-1.28644e-05 -5.62349e-05 -2.91301e-22)
(-0.00297365 -0.00309459 -3.11125e-22)
(-7.97303e-06 -5.76597e-06 0)
(-6.03642e-05 3.06769e-05 3.41821e-22)
(0.000228526 0.000192018 -2.7373e-22)
(-0.000118673 8.60714e-05 0)
(-2.03014e-05 2.73932e-06 -4.14339e-22)
(0.00163944 0.000626123 -6.74551e-22)
(-1.27434e-05 -1.96407e-06 0)
(-3.96991e-05 -0.000117646 2.02185e-21)
(-2.27634e-05 -9.22026e-06 0)
(-6.35953e-05 -9.0678e-05 1.42922e-21)
(-0.00437421 0.000177838 -1.18385e-21)
(-2.49757e-05 3.68543e-06 0)
(-0.000285979 0.000502158 4.24662e-22)
(0.00209802 -1.32057e-05 0)
(-2.41648e-05 -2.19982e-05 1.42251e-24)
(-7.40409e-05 -4.36597e-05 -7.68517e-22)
(-0.000216725 0.000152785 1.09475e-21)
(0.00166902 0.00187394 0)
(0.000325725 3.81998e-06 1.09871e-22)
(-6.57436e-05 -8.48573e-05 -9.26557e-22)
(-0.000181491 -0.000932892 -3.896e-22)
(-0.000282591 0.000480596 5.45907e-22)
(-0.00170257 -0.000255532 -4.41928e-22)
(-1.95169e-05 1.9408e-05 5.45695e-22)
(0.00180423 0.00307567 -1.52217e-21)
(-0.000518271 -1.98584e-05 0)
(-0.000213804 0.000279571 2.47033e-22)
(-1.3162e-06 -3.97493e-05 -1.55916e-21)
(-0.000147173 6.85147e-06 -9.0544e-22)
(-0.00101655 0.00115516 -3.54796e-22)
(-3.63152e-05 -2.78262e-05 0)
(0.00127764 0.000830173 0)
(0.00176893 0.00114684 -6.94405e-23)
(-0.00794065 0.000229057 8.14831e-22)
(-0.00035292 -8.51548e-05 -1.49169e-21)
(-2.21451e-07 -6.86187e-07 -1.03081e-21)
(-0.00180195 0.00101404 0)
(-4.40978e-05 -0.000130251 1.05506e-21)
(-8.8511e-05 4.31093e-05 1.21325e-22)
(0.000285999 -0.00113743 1.36038e-21)
(0.000326586 0.000278348 0)
(-0.000781484 -0.000144646 -1.25106e-21)
(-2.66006e-05 -0.000727709 4.1534e-22)
(-0.000261731 -0.000201404 -3.3653e-22)
(-0.000143124 5.58709e-06 -7.5009e-22)
(-0.00172631 5.62851e-05 1.0416e-21)
(-4.38256e-05 -0.000390741 1.12664e-21)
(-0.000567965 -1.16503e-05 0)
(-1.84702e-05 -8.3819e-05 0)
(-1.7137e-06 -3.58685e-05 3.61652e-22)
(0.000248797 0.0035208 6.25041e-22)
(-2.96789e-05 -1.50925e-05 -1.42138e-21)
(1.32201e-05 8.3147e-05 -5.11508e-22)
(-6.1455e-05 2.95511e-05 -1.65467e-21)
(-0.000285875 -4.05787e-05 9.06805e-22)
(-1.36629e-05 6.02314e-06 -2.45114e-22)
(-2.7119e-05 -2.46984e-05 -4.26902e-22)
(0.000190724 0.0006328 4.1599e-22)
(-8.73361e-05 4.33702e-05 0)
(-2.13402e-05 6.64822e-06 7.128e-22)
(-0.000172187 -0.000289571 -3.1203e-22)
(-1.65711e-05 -8.8158e-07 0)
(-1.30004e-06 -0.000145218 0)
(-0.000125431 -0.000988582 0)
(-0.00181523 -0.00161394 -6.13643e-22)
(-0.000192371 -1.03954e-05 -9.61552e-22)
(0.000361569 0.00354467 -7.73226e-22)
(0.000130534 -0.00100356 -7.69823e-22)
(-1.16937e-05 -6.0285e-05 -6.08242e-23)
(0.00386709 0.000153033 -4.45277e-22)
(-0.000146742 6.35776e-05 0)
(6.18004e-06 -0.000715039 0)
(-0.0001526 -0.000598932 1.10589e-21)
(-3.45722e-05 -9.94039e-05 -3.2714e-23)
(-9.15814e-05 4.11232e-05 0)
(0.00349532 8.36174e-05 -1.53554e-22)
(0.00112739 -0.00207697 -2.47912e-22)
(6.28327e-06 5.63048e-05 7.03602e-22)
(0.00179343 0.00162295 -1.65898e-21)
(-1.93297e-05 -6.84875e-05 0)
(-0.00601597 0.00248831 -7.13331e-22)
(-0.00482165 0.00428713 9.47071e-22)
(-0.000162718 -2.54797e-05 7.45133e-22)
(-0.0049973 4.19538e-05 1.01779e-21)
(0.00555853 0.000488606 7.76357e-22)
(-0.00351178 0.000744562 0)
(-0.00238377 0.00157376 0)
(-7.22347e-05 -0.000303045 -1.30252e-21)
(-0.000143292 -4.62138e-05 1.13888e-21)
(-0.000161954 5.36036e-05 -1.33557e-21)
(-2.66313e-05 -1.24478e-05 7.86852e-22)
(1.76863e-06 -0.000145408 4.16576e-22)
(-0.000126603 -0.000445524 -5.28254e-22)
(0.00029453 0.000833003 -2.44398e-22)
(0.00619189 4.8443e-05 0)
(-9.62447e-05 -9.65021e-05 -4.13393e-23)
(-2.67161e-05 3.0239e-05 0)
(0.000159787 0.00121888 0)
(1.01298e-05 5.77536e-05 0)
(-0.00205581 0.000301712 0)
(-0.000184169 -0.00104706 -1.1828e-21)
(-4.12932e-05 -0.00011851 -1.47794e-21)
(-4.24706e-05 -0.000131273 -8.4988e-22)
(-0.000830835 0.00034048 -1.13801e-21)
(-0.000373432 0.000151515 0)
(-2.36429e-06 -0.000763511 0)
(-0.000197893 -6.26144e-05 0)
(0.00111751 -0.00198365 0)
(-0.000208374 -0.000145634 -5.32139e-22)
(-0.000326078 -0.00113623 0)
(-1.73036e-05 9.80827e-06 6.5366e-22)
(-9.80459e-06 -8.05944e-06 0)
(-0.0020553 -0.000229819 0)
(-2.0537e-06 -3.11661e-05 5.46199e-22)
(-7.64864e-05 -6.9661e-05 1.62679e-24)
(-0.000119321 -9.19505e-05 -1.80439e-24)
(4.57552e-05 0.00103192 0)
(0.00445158 -0.000103722 0)
(3.02045e-05 -0.000699897 -1.1837e-21)
(-0.000231736 3.22118e-05 0)
(-1.39616e-06 -3.41405e-05 1.21434e-21)
(-0.00171988 0.00107207 0)
(0.000718207 0.00105381 4.77847e-24)
(-1.64185e-05 9.24637e-06 2.75842e-22)
(-3.24808e-05 -0.000129072 0)
(-1.09376e-05 1.89987e-06 -7.92775e-22)
(-0.000403775 -0.000365978 1.34793e-21)
(-3.53925e-05 -2.96986e-05 -3.75419e-22)
(-0.00150846 0.00175798 0)
(-0.00238418 0.00356512 -3.86789e-22)
(0.0043655 0.00020484 -3.99502e-22)
(-4.53002e-05 -0.000398172 0)
(-0.000238238 3.10455e-05 -2.71774e-22)
(-0.000174548 5.72297e-05 8.0278e-22)
(-4.31246e-05 -0.000139283 7.85004e-22)
(-1.61851e-05 3.0772e-05 -6.61599e-22)
(-0.0030681 -0.00293878 8.6432e-22)
(3.71017e-05 -0.000703823 1.23945e-21)
(-0.000610194 -1.37685e-05 2.14159e-21)
(-3.17578e-07 -1.38525e-05 -1.01986e-21)
(-1.91424e-05 5.522e-06 -6.46353e-22)
(-0.00104419 0.00128736 -6.18022e-22)
(-0.000687939 0.000578074 1.68262e-21)
(-0.000671852 -0.000420359 -1.96366e-22)
(0.00185312 0.00296195 1.35591e-21)
(-2.26469e-05 -6.71175e-06 3.77224e-22)
(-0.00486019 0.00275676 1.4194e-21)
(-9.77402e-05 2.81818e-05 -9.83775e-22)
(-7.04179e-06 -0.000218238 6.60292e-22)
(-4.51237e-05 -0.000174624 0)
(-0.000692588 -0.00109277 7.49627e-23)
(-6.19914e-05 -8.01945e-06 6.92534e-22)
(-0.000416597 -0.000214419 4.74142e-22)
(-0.000167074 7.39352e-06 7.90007e-22)
(-9.51172e-05 -8.04035e-05 2.58965e-22)
(-0.000969531 0.00122333 -9.08315e-22)
(-4.74138e-05 -0.000136013 0)
(0.000241216 0.000211461 5.23667e-22)
(-0.00326266 0.00336101 -7.92875e-22)
(-0.000191385 -0.000129023 8.62797e-22)
(-2.90917e-05 -1.69027e-05 6.98907e-22)
(-8.62124e-05 -7.81865e-05 0)
(-0.00085742 -0.000163758 0)
(-0.000307654 -0.000142735 1.45319e-21)
(3.85735e-05 0.000731101 7.30184e-22)
(-2.34486e-05 3.641e-06 -1.05958e-21)
(-4.47481e-05 1.67679e-05 0)
(0.00400189 -0.000336217 1.03524e-22)
(-0.000751897 -0.00189612 0)
(-1.46512e-06 0.000683454 3.38359e-22)
(0.00124922 0.00273585 -6.05487e-22)
(-0.000314491 0.00037723 -1.1812e-21)
(-2.56483e-05 2.86956e-05 2.79021e-22)
(-9.51771e-05 -8.27477e-05 0)
(5.30175e-07 -8.80448e-06 -6.80472e-22)
(-3.82338e-05 -0.000129481 -5.53115e-22)
(-1.99669e-05 4.01288e-06 0)
(-1.30173e-05 4.62197e-05 4.25036e-22)
(-1.92571e-05 4.26409e-06 -3.15656e-22)
(-0.00329631 0.000100236 -1.70097e-22)
(-4.43616e-05 -8.78921e-05 -7.62781e-22)
(-6.45969e-05 -0.000109294 -1.70958e-22)
(-0.00016217 -2.34522e-05 -6.21726e-22)
(8.90613e-05 0.000362868 -4.26947e-22)
(-0.00327723 0.00459929 0)
(-0.00429699 0.000223203 0)
(-0.00897719 0.000160207 1.83093e-22)
(3.38061e-05 0.000225752 -4.03478e-22)
(-0.00021025 -9.45609e-05 -9.74678e-22)
(-0.000835556 0.000830102 4.79449e-22)
(-2.22038e-05 2.48601e-06 0)
(-0.000260354 7.9093e-05 -2.85106e-22)
(-6.12861e-05 -5.91241e-06 -6.0553e-22)
(-1.21095e-05 -5.91735e-05 -1.49806e-21)
(-6.80604e-05 -2.11416e-05 7.19302e-22)
(0.000360557 0.000690052 8.63089e-22)
(-4.76912e-05 -3.14802e-05 0)
(-0.000231646 1.13311e-05 5.64628e-22)
(0.00349953 0.000121349 -2.23501e-22)
(0.000202087 0.000495564 -2.77645e-22)
(1.42196e-06 -1.01224e-05 -4.8254e-22)
(-2.673e-05 -1.47462e-05 -8.13161e-22)
(-1.88926e-05 -5.61354e-05 9.83301e-22)
(-0.000222001 2.8189e-05 4.99979e-22)
(8.63283e-06 5.83486e-05 3.51719e-22)
(0.000246415 0.000109659 2.25888e-22)
(-2.45975e-05 5.18247e-06 6.08269e-22)
(-0.000302906 0.000509203 -4.41157e-22)
(2.20295e-06 0.00361521 -3.28567e-22)
(0.00283517 -0.00119411 1.65391e-22)
(-5.99936e-05 3.50105e-05 -4.36246e-22)
(0.00442002 -0.000106956 2.09649e-22)
(0.000195067 0.00061792 -7.42646e-22)
(0.000737231 0.000615523 3.1329e-22)
(-5.76323e-05 5.43704e-05 -1.14942e-21)
(-0.000162501 -0.000270196 3.16552e-22)
(0.00438814 -7.86785e-05 0)
(-6.22059e-06 6.05574e-06 7.58907e-24)
(-0.000326133 0.000389499 7.93651e-22)
(-0.000197686 -0.000137695 -8.49224e-22)
(-0.000196749 -5.97567e-05 4.08353e-22)
(-0.000563941 -0.000250504 -3.58862e-22)
(-0.000775867 -0.002021 6.33592e-22)
(-0.00103418 0.00116935 1.22059e-21)
(-0.00225802 -0.000220696 -1.27064e-21)
(-0.000145739 -4.58219e-05 -1.23579e-21)
(-0.000204247 -4.61442e-05 0)
(-0.00051888 0.000797459 7.43859e-22)
(-0.000239963 -0.000252527 -3.37927e-22)
(-8.6557e-05 4.34133e-05 -8.36254e-22)
(-8.82967e-05 4.31666e-05 9.18144e-22)
(-1.5762e-05 2.94531e-05 8.30278e-22)
(-4.76151e-05 -2.75376e-05 0)
(-0.00235312 0.00088027 -3.98879e-22)
(-0.00020295 -4.35061e-05 0)
(8.39971e-06 0.000199855 4.06818e-22)
(0.00106813 0.00116891 -5.224e-22)
(-0.000211505 7.24608e-05 0)
(-9.29705e-05 -4.6017e-05 -7.24635e-22)
(0.000166495 2.76675e-06 2.31624e-22)
(-0.000119632 -8.85495e-05 -6.75126e-22)
(-0.000202245 2.27918e-05 -1.59946e-21)
(-0.00177186 -0.00109044 -3.98407e-22)
(-1.10227e-06 -6.12374e-05 -2.96683e-22)
(-0.000571901 -1.35252e-05 -1.95749e-21)
(1.10047e-05 0.000206429 4.31987e-22)
(-0.000121472 -1.33247e-05 -8.65436e-22)
(-0.00134784 -0.00201084 0)
(-0.00585112 0.00176796 -3.96818e-22)
(5.57005e-05 -0.00032754 4.83807e-22)
(-0.000222308 0.00268677 -9.94753e-22)
(-0.000533815 -2.00204e-05 -7.99748e-22)
(-9.28517e-06 -0.000148051 -5.77506e-22)
(-0.00141792 -0.00191135 0)
(-0.000359283 -9.28362e-05 4.83513e-22)
(-2.03434e-07 -2.96048e-06 0)
(-1.57356e-05 4.64758e-06 0)
(-6.35302e-05 4.58037e-05 1.19927e-21)
(-0.00463502 6.29933e-05 0)
(-2.17906e-05 1.64587e-06 7.12776e-22)
(-2.28767e-05 -6.07059e-06 0)
(7.06065e-05 -3.13954e-05 -1.81523e-21)
(-0.000121942 -1.45304e-05 -1.43669e-24)
(-0.00638241 0.00248732 0)
(0.00125879 0.00283509 3.83865e-22)
(-0.000245998 -1.91518e-05 0)
(-4.78661e-05 -0.000135333 -5.39178e-25)
(-1.35522e-05 -0.000108857 0)
(0.00307039 -0.000102796 0)
(0.00139118 1.4152e-05 -1.40408e-22)
(-1.56448e-07 -2.1852e-06 0)
(-0.000196271 -1.37521e-06 5.71541e-22)
(3.56213e-06 0.000703489 -1.14355e-21)
(-1.38142e-05 -5.4296e-05 1.9755e-21)
(9.55419e-05 8.55572e-05 -5.02813e-22)
(-0.00314005 0.000252261 0)
(-0.000227858 2.64844e-05 -5.20902e-22)
(-2.148e-05 -4.90079e-06 -8.40169e-22)
(-0.000631607 2.85628e-05 -5.71813e-22)
(0.000228452 -0.000835074 -5.31561e-24)
(-0.000210282 -0.000139413 9.7999e-22)
(-0.00056051 -0.000233042 -1.89806e-24)
(0.000837336 0.000223878 -9.62361e-22)
(2.32533e-06 0.00176432 -4.11644e-22)
(-1.50847e-05 4.63795e-06 0)
(0.00118098 0.000148983 2.25948e-21)
(-6.3128e-06 0.000390404 -3.83222e-22)
(-0.000420056 -0.000376338 7.9946e-23)
(-7.54274e-05 -7.30395e-05 -1.51295e-24)
(0.00274025 -0.00131614 -1.72817e-22)
(0.00196595 0.00285587 6.39918e-22)
(-4.9097e-07 -8.39807e-06 1.22449e-21)
(-0.000746714 0.000118481 -1.09082e-21)
(-6.24412e-06 -6.48871e-05 1.18206e-21)
(-4.73022e-05 -0.000137946 0)
(-5.97116e-05 3.22661e-05 0)
(-5.34604e-06 -9.43914e-06 0)
(-0.000823569 0.000724325 -1.37131e-21)
(0.00418958 7.98421e-05 0)
(-1.51249e-05 7.21242e-06 -8.3895e-22)
(-4.45444e-06 2.89022e-05 9.52447e-23)
(-0.000159288 -2.21756e-05 0)
(-0.000182492 -0.00016032 -1.64294e-22)
(9.216e-05 -0.000389166 -1.14551e-22)
(0.001683 0.00241811 1.85874e-21)
(0.000402915 0.000137719 1.33061e-21)
(-0.000989084 -0.000555608 0)
(-0.00128335 0.00194985 7.26853e-22)
(0.000468802 2.63372e-05 0)
(0.000357173 0.00013804 4.33878e-22)
(-0.0017672 0.00190489 1.47843e-21)
(-1.29397e-05 -0.000106097 0)
(-2.08278e-05 8.78149e-06 0)
(-0.000150781 6.29009e-06 -1.79617e-21)
(0.010323 5.91119e-05 0)
(-9.83748e-05 2.7063e-05 -4.97427e-22)
(-6.73498e-06 -7.1578e-06 0)
(-1.60812e-05 7.86213e-06 2.38939e-22)
(-0.00449051 0.00435277 0)
(-0.00333515 7.4432e-05 0)
(-2.69343e-05 -2.13846e-05 -8.29197e-22)
(-5.06988e-05 -0.000124282 5.92347e-22)
(-2.15325e-07 -1.72109e-05 -6.86493e-22)
(-0.0013684 0.00036887 6.11887e-24)
(-0.000234147 -1.31608e-05 0)
(-0.000199422 -0.000892717 0)
(-9.69042e-05 2.60176e-05 1.50265e-23)
(0.000875901 0.000767799 0)
(-0.000140942 5.88204e-05 -6.47553e-22)
(-0.000168245 6.75871e-05 9.87874e-25)
(-0.000783668 -0.000113157 1.09936e-21)
(-2.36143e-05 -1.99801e-05 0)
(0.0102787 5.83977e-05 2.10739e-22)
(-6.104e-05 3.3789e-05 0)
(0.00162664 0.00141741 0)
(-4.44421e-05 -0.000129189 0)
(-9.32066e-05 -4.48733e-05 0)
(-6.61017e-05 -0.000103998 6.10192e-22)
(0.00233632 -0.000756045 8.89164e-23)
(-2.1244e-05 -0.000794501 6.75177e-22)
(-8.96943e-06 -0.000766622 0)
(-2.08758e-06 -6.48237e-05 0)
(-0.00495631 0.00283286 -1.29312e-21)
(-0.00218356 0.00146512 0)
(-6.3531e-06 -0.000146787 -1.74199e-22)
(0.000365115 4.99594e-05 6.70341e-22)
(0.00159287 0.000675983 1.81094e-23)
(0.00124092 0.000765591 5.18608e-22)
(-2.08049e-05 9.0267e-06 -1.39139e-21)
(-2.09102e-05 -8.19767e-05 6.40308e-23)
(-1.85132e-05 -6.03619e-05 0)
(-0.00115086 -0.00326917 4.61039e-22)
(0.00205366 -0.00165342 -5.85405e-22)
(0.000204028 0.000665997 -1.16712e-21)
(-0.0008901 0.000738083 1.01992e-21)
(-8.01603e-06 -6.51707e-05 -1.37593e-21)
(-1.00105e-05 -5.93548e-05 0)
(-0.000261289 0.000479908 -5.36397e-22)
(-0.00024969 -3.36369e-05 -6.47521e-22)
(-6.13099e-05 1.01455e-05 1.79646e-23)
(-0.00316226 0.000295196 -5.09514e-22)
(-0.000166033 -9.10235e-06 3.00954e-22)
(0.00147743 2.49021e-05 0)
(6.67932e-05 -0.00058358 0)
(-0.00345145 -7.6384e-05 -2.55909e-21)
(-0.00306631 0.000455749 1.16871e-24)
(5.04462e-05 -0.000713718 -1.8767e-22)
(-0.00176277 0.00372679 0)
(-5.12491e-06 -6.12537e-05 -1.5108e-21)
(-1.54996e-05 4.98276e-06 0)
(-6.76292e-05 0.000224986 -4.29133e-22)
(-5.1528e-05 -0.000125231 1.23485e-21)
(-0.000115552 -0.000192385 2.62912e-22)
(-0.00106535 0.00126945 0)
(-1.91078e-05 -7.82265e-05 0)
(0.00084782 5.6698e-05 -1.30733e-21)
(-0.00163394 -0.00135244 5.51198e-22)
(-0.00314556 0.000335981 0)
(-0.000167525 8.83363e-06 5.61183e-22)
(-0.00421595 0.00418078 2.94568e-22)
(-0.000211589 -1.69202e-05 -9.41723e-22)
(0.00039229 -0.00111456 -8.5101e-22)
(3.42826e-05 0.000213518 0)
(-2.33331e-05 -9.31047e-06 -3.86006e-22)
(5.02591e-05 -0.000196217 0)
(3.60306e-06 -0.000109402 3.28034e-22)
(-0.000163679 4.91844e-05 1.15586e-21)
(-0.000691443 -0.000398101 -3.65347e-22)
(-0.000948749 -0.000292743 -3.84065e-22)
(-6.58156e-05 -0.000592339 3.5469e-22)
(0.00164031 0.00325224 0)
(0.000422619 -3.8609e-05 1.01846e-22)
(0.00234593 -0.00082448 3.76803e-23)
(-0.000221435 -1.55351e-05 0)
(-2.31027e-05 2.7164e-06 1.1833e-21)
(0.010281 4.55812e-05 0)
(-5.08567e-06 3.07349e-05 7.20882e-22)
(0.00108406 -0.00336548 -4.88157e-22)
(-0.00354121 3.49019e-05 8.89827e-22)
(-8.75445e-06 9.69333e-07 4.52311e-23)
(-0.000179652 -1.23594e-05 -2.61349e-22)
(0.00202638 0.00273692 -3.60263e-22)
(-0.00225096 0.00159648 -4.7879e-22)
(-8.82886e-05 -7.38628e-05 1.26574e-21)
(-1.01343e-06 -2.83155e-05 -5.27809e-22)
(-0.00630526 0.00420973 0)
(0.00107691 -6.69334e-05 0)
(-0.00186204 0.00064771 8.76196e-22)
(-6.33142e-05 -9.58722e-05 0)
(-0.00064575 -0.000838024 -2.9735e-24)
(-8.30004e-05 2.89222e-05 -2.65995e-22)
(0.000794445 0.00453012 -4.01472e-22)
(-0.000215978 -1.58314e-05 -8.95814e-22)
(-0.00010239 3.78571e-05 7.1922e-23)
(-0.000402109 -0.000227843 0)
(-0.00409625 0.000613237 0)
(-8.73912e-05 4.29629e-05 0)
(-4.72919e-05 -0.000128527 1.40448e-22)
(-6.13601e-05 -9.83789e-05 0)
(-6.24406e-05 2.69377e-05 0)
(-0.00228832 0.00240631 0)
(-0.00315218 0.00277572 -1.32144e-21)
(0.00285577 -0.000637074 -1.41142e-22)
(-0.000404243 -0.000471059 -1.8876e-22)
(-2.1839e-05 7.3486e-06 -6.75458e-22)
(0.0042132 8.8974e-05 -1.27792e-22)
(-0.000245359 -3.01007e-05 0)
(-0.000532731 -0.000834758 5.59632e-22)
(0.00189528 -0.000656908 9.50555e-22)
(-0.000131076 0.000127528 0)
(0.00256367 0.000180172 -6.30063e-22)
(1.37604e-06 -0.000151048 1.19789e-21)
(-9.09584e-05 -7.71315e-05 0)
(-0.00651291 0.00253408 0)
(0.000967469 0.00150077 8.38306e-24)
(-0.00118974 0.00174853 -4.12898e-22)
(0.00349733 -0.00110914 4.01951e-22)
(-0.0053143 0.00448749 -4.90664e-22)
(-0.000298618 -3.47028e-07 1.09392e-21)
(-0.00122514 0.000145934 -1.84408e-23)
(0.00175428 0.00180423 -1.51027e-21)
(-9.34099e-06 -0.000158101 1.05317e-21)
(-0.0065103 0.00254981 0)
(-4.07337e-05 -0.000187233 -9.96398e-22)
(-0.00025383 0.00045983 0)
(-7.06813e-05 -0.000157021 1.99203e-21)
(-9.17336e-05 -0.000146931 4.08853e-22)
(-0.000215724 -1.49906e-05 7.2945e-22)
(-9.34234e-05 -8.71207e-05 -6.16641e-22)
(-1.42058e-05 -0.000220054 0)
(-0.000309276 0.00264996 5.44695e-22)
(-0.000102018 -0.000175981 0)
(6.56749e-05 0.000296593 0)
(-0.000102853 0.000244779 1.93397e-22)
(0.000694226 0.000629857 6.14085e-22)
(1.83419e-05 0.000237674 2.91936e-22)
(-3.33741e-05 -9.51582e-05 3.0276e-23)
(-4.23645e-05 -0.000140355 -7.08432e-22)
(-5.81866e-05 -0.000100771 0)
(-1.47245e-05 -0.000157501 2.49881e-24)
(-0.00190797 0.00378696 -2.98304e-22)
(0.000307623 -0.00089467 4.41808e-22)
(-9.99077e-05 2.80277e-05 8.62419e-22)
(-6.27571e-05 4.37129e-05 3.57343e-22)
(-0.000298373 -6.45627e-05 0)
(-0.000191241 0.00038972 4.38553e-22)
(-3.43313e-06 -3.84255e-06 -1.67432e-21)
(-0.000156428 -2.10829e-05 -1.14458e-21)
(-0.000241715 -0.000317204 1.43829e-21)
(0.000134166 0.00364719 0)
(-1.81853e-06 -3.22729e-05 -3.1212e-22)
(-9.20437e-05 -1.03002e-05 -2.91351e-22)
(2.49381e-05 0.000240443 0)
(-0.000592264 0.00108037 -3.77681e-22)
(-0.000139062 1.04609e-05 -8.14835e-22)
(-6.80743e-05 -4.40419e-05 9.76335e-22)
(-3.21316e-05 -3.08279e-05 0)
(-0.00434423 0.000183784 1.33041e-21)
(0.0018553 0.00172505 0)
(-0.00235698 -0.00326496 0)
(-0.000206907 -4.52894e-05 -8.28431e-22)
(-1.56575e-06 -3.72508e-05 -3.23138e-22)
(-1.91199e-05 2.81864e-06 6.13881e-22)
(-0.000144651 -0.000139904 4.97643e-22)
(2.73962e-06 -8.14369e-06 -3.6901e-22)
(-2.7773e-05 -1.09553e-05 4.6859e-22)
(-0.00017717 -1.11157e-05 -5.43409e-22)
(-0.00209805 0.000728383 0)
(-0.00069646 0.000532226 2.03411e-26)
(-0.00469339 -0.000683576 0)
(-2.30708e-05 9.5532e-06 0)
(-0.000163172 -9.39232e-06 0)
(-0.00024563 -0.000407548 3.10294e-22)
(-0.0058135 0.00183462 4.58965e-22)
(-0.00040122 -0.000220215 9.19431e-22)
(0.000242863 -0.000103136 -9.0709e-22)
(0.00220465 -0.000546233 -2.20125e-21)
(-0.000243161 -0.00114057 7.85731e-22)
(-1.32036e-05 4.28207e-05 -2.846e-22)
(-1.92258e-05 3.21861e-06 -6.50873e-22)
(-0.00316847 0.000364929 4.78907e-22)
(-0.00061513 -4.69508e-05 7.10943e-22)
(-0.000208297 -1.86959e-05 2.66756e-24)
(-8.41064e-05 -0.000102067 -4.35927e-22)
(-0.00163925 0.00289543 0)
(0.0102374 6.92116e-05 -8.48964e-22)
(-0.000367621 -0.000589782 1.27965e-21)
(-0.000104392 3.2448e-05 -1.34253e-21)
(-0.00172778 0.00248387 -4.08797e-22)
(-0.000153872 0.000433327 2.20712e-23)
(-0.000178801 -1.30496e-05 2.49289e-22)
(0.000821554 -0.000625742 0)
(-0.000278571 7.08659e-05 0)
(0.001786 -0.000983374 4.76942e-22)
(-0.00351823 -0.000206633 2.06018e-21)
(-0.00063893 0.0003135 -4.76296e-22)
(-0.000187599 5.89053e-05 6.65799e-22)
(-3.07296e-07 -0.000152985 -1.48639e-21)
(-0.00609965 0.00260729 0)
(-6.33091e-05 4.49435e-05 1.46372e-24)
(3.59203e-05 -0.000736536 0)
(-0.000197611 -4.6564e-06 2.96766e-23)
(-2.83266e-05 -1.69671e-05 6.54033e-22)
(-8.6915e-05 1.76592e-05 -9.84112e-22)
(-1.4857e-05 5.34673e-06 3.00159e-22)
(-0.00311378 9.75496e-05 0)
(1.15175e-05 8.39055e-05 0)
(4.9663e-05 -0.000343564 4.50371e-22)
(-2.13679e-05 -7.76703e-05 0)
(-0.000191492 -0.000159353 -1.61097e-22)
(-0.00288528 -0.00089982 4.84999e-22)