/*--------------------------------*- C++ -*----------------------------------*\
| =========                 |                                                 |
| \\      /  F ield         | OpenFOAM: The Open Source CFD Toolbox           |
|  \\    /   O peration     | Version:  v2012                                 |
|   \\  /    A nd           | Website:  www.openfoam.com                      |
|    \\/     M anipulation  |                                                 |
\*---------------------------------------------------------------------------*/
FoamFile
{
    version     2.0;
    format      ascii;
    class       surfaceScalarField;
    location    "300";
    object      ddtCorrDdt0(phi);
}
// * * * * * * * * * * * * * * * * * * * * * * * * * * * * * * * * * * * * * //

dimensions      [0 3 -2 0 0 0 0];
oriented        oriented;


internalField   nonuniform List<scalar> 
56134
(
2.89403e-05
-3.13701e-05
2.42933e-06
0.000316187
-0.000140574
-0.000175611
1.02358e-06
-1.21128e-05
1.10893e-05
2.57997e-05
-2.11211e-05
-4.67944e-06
-0.000109561
0.000130475
-2.09487e-05
-6.94901e-05
-1.67241e-06
7.11606e-05
3.3224e-05
-8.85198e-06
-2.43777e-05
-2.8091e-05
2.32133e-05
4.87977e-06
-9.72186e-05
9.72158e-05
1.00488e-05
-1.5816e-05
-6.32622e-07
6.01554e-06
-5.38449e-06
4.02102e-06
-1.86402e-05
1.46206e-05
-1.57001e-05
1.06067e-05
5.09303e-06
-1.61088e-05
4.08168e-07
-0.000104884
0.000106281
-1.39664e-06
-1.74215e-05
3.37531e-06
1.40467e-05
6.34902e-07
5.23027e-06
-5.86478e-06
-6.37589e-05
0.000296257
-0.000232498
-1.82662e-05
4.58254e-06
1.36836e-05
1.94617e-05
-2.87818e-05
9.31843e-06
-2.11363e-05
2.30435e-05
-1.90549e-06
-2.34333e-05
2.29749e-06
-0.00017983
-7.91343e-05
0.000258964
8.48097e-06
-4.14178e-06
-4.33939e-06
-3.76953e-05
1.79253e-05
1.97707e-05
-1.572e-05
0.000182744
-0.000167023
0.000169675
4.29605e-06
-0.000173956
-2.47133e-05
2.96618e-06
2.17471e-05
6.51019e-06
-1.28863e-06
-5.22205e-06
-3.00649e-05
2.0036e-05
1.00297e-05
-0.000150634
4.03227e-06
0.000146598
-5.17829e-05
4.09326e-05
3.56387e-06
4.91709e-06
-2.10926e-05
-1.22572e-05
3.33506e-05
2.05854e-05
-2.55255e-05
4.94087e-06
-6.19471e-06
6.83018e-06
2.57401e-06
9.3189e-06
-1.18934e-05
-0.000177266
5.40717e-05
0.000123195
4.3224e-05
-7.61208e-05
3.2898e-05
4.75486e-06
4.19856e-07
-5.17763e-06
-5.6669e-05
4.78483e-07
5.6192e-05
8.54354e-05
-7.5693e-05
-9.73975e-06
-8.59182e-05
0.000107755
-1.34081e-05
1.26874e-05
7.21791e-07
-2.12686e-05
-7.56703e-07
2.20255e-05
4.42096e-05
-5.36631e-05
9.45148e-06
-8.28695e-05
-2.99226e-05
0.000112785
-0.00021774
0.000196694
2.10447e-05
5.77797e-05
0.000111909
-1.564e-05
-9.80524e-06
2.5445e-05
-1.54627e-05
1.23544e-05
3.10841e-06
7.06671e-07
-6.49842e-06
5.79193e-06
-4.13189e-06
1.21835e-05
-8.05177e-06
-1.92703e-05
1.66672e-05
2.60335e-06
-5.27144e-05
4.02155e-05
1.24986e-05
-1.05786e-05
6.44676e-06
1.50066e-05
-1.99551e-05
4.94854e-06
-3.56036e-05
1.92773e-05
1.63263e-05
-4.2624e-05
8.58423e-05
-4.32175e-05
-0.000147331
0.000252295
-0.000104981
-3.45366e-05
-5.41938e-05
8.87307e-05
2.0043e-05
-6.02174e-06
-1.40235e-05
1.6359e-05
-5.75406e-06
2.90665e-06
5.88889e-05
-6.17944e-05
-0.000142785
-7.85605e-06
-1.76317e-05
-2.00632e-05
-0.000128812
0.000125174
3.63282e-06
1.80815e-05
-3.03603e-06
-1.50457e-05
-3.49602e-05
3.98685e-06
3.0974e-05
-0.000147212
7.07733e-05
7.64429e-05
-2.40478e-05
1.58006e-05
8.24511e-06
-3.79532e-06
3.79659e-06
-2.9066e-05
2.19187e-05
7.14773e-06
-1.58259e-05
-2.84159e-07
-5.01296e-07
-2.42126e-05
2.50875e-07
-6.22612e-06
5.97509e-06
5.27589e-06
-5.24586e-07
4.40366e-05
-3.17037e-05
-1.23318e-05
3.24382e-05
-3.50015e-06
-0.000141369
6.74675e-05
7.39026e-05
2.04414e-05
-7.3445e-06
-1.30969e-05
1.01431e-06
5.49567e-06
-0.000402676
0.000137635
0.000265027
2.50464e-05
1.77455e-05
-4.27908e-05
1.73421e-05
-3.35589e-06
-1.39866e-05
-0.00010746
2.1542e-05
5.29236e-06
-1.79006e-05
1.26087e-05
2.2089e-05
8.22274e-05
-0.000104322
-9.46213e-05
3.11939e-05
6.34291e-05
2.49078e-05
-1.5326e-05
-9.58175e-06
-4.272e-05
-0.000134547
-2.57028e-05
2.36198e-05
2.08336e-06
-1.83101e-05
-6.43532e-06
2.47451e-05
0.0001146
-1.75586e-06
-0.000112854
1.70593e-05
-1.1767e-05
-0.000381192
0.000309999
7.12036e-05
-3.01105e-05
2.30521e-05
7.05893e-06
-1.08045e-05
-4.65828e-06
-3.71484e-05
4.1445e-05
-4.29436e-06
-4.68701e-06
7.69833e-06
-3.01137e-06
-0.00010822
-1.46652e-05
0.000122925
-1.56486e-05
4.8435e-06
-7.03692e-05
7.32769e-05
-0.00026535
0.000201594
-0.000311098
6.34823e-05
0.000247615
-1.84156e-06
1.83599e-06
5.57224e-09
-1.16278e-05
-1.84374e-05
-1.08263e-05
6.57209e-06
2.16951e-05
1.52274e-05
-3.69219e-05
2.09289e-05
-1.69073e-05
-1.15757e-05
3.10369e-05
3.58573e-05
-1.08106e-05
-2.00879e-05
2.90692e-05
-8.98153e-06
-1.71334e-05
6.57443e-06
1.05592e-05
2.01313e-05
-5.12503e-06
-3.53081e-05
7.85326e-05
2.23552e-05
-1.73298e-05
-5.02385e-06
5.94376e-06
1.38728e-05
-1.9817e-05
0.000142597
-0.000220296
7.77561e-05
-0.000123055
6.82658e-05
5.47878e-05
1.64171e-07
-1.95518e-07
3.13686e-08
3.8917e-06
-1.78138e-05
1.39212e-05
1.7039e-05
-3.73983e-05
2.03599e-05
-2.78471e-05
-8.17165e-05
3.45973e-06
7.66913e-08
1.04227e-05
1.19333e-05
0.000125682
-9.83323e-05
-2.73442e-05
1.80238e-05
-1.74422e-05
-5.81892e-07
2.26916e-05
-1.26209e-05
-1.00724e-05
1.85159e-05
1.412e-05
-3.26365e-05
-0.000181953
2.24166e-05
0.000159533
7.84095e-05
7.13848e-05
-0.000149785
4.69722e-06
-9.54732e-06
4.84925e-06
-8.56489e-06
9.59498e-06
-1.02993e-06
0.000157291
-6.82829e-05
-8.90086e-05
1.67439e-06
-6.36144e-06
1.30722e-05
-7.17513e-07
9.66056e-06
1.03811e-05
9.65547e-05
-0.000126469
2.99126e-05
-8.49369e-05
8.27149e-05
2.21831e-06
-3.02213e-06
2.36073e-05
0.000216476
-0.000147061
-6.94235e-05
9.65545e-05
2.713e-06
-5.93835e-05
-2.1297e-05
-7.76881e-06
-8.26903e-05
-4.61528e-05
-2.32961e-05
1.71098e-05
6.18683e-06
1.52726e-05
-1.78264e-05
2.5567e-06
-0.000132393
-0.000270292
2.38608e-06
-1.81962e-06
-5.67013e-07
-8.45685e-05
8.91525e-05
-4.58402e-06
-1.49538e-05
3.34694e-05
-1.60077e-07
-5.1802e-05
5.19621e-05
-0.00015596
9.48545e-05
6.11058e-05
3.84106e-05
2.59755e-05
-6.43799e-05
2.60214e-08
2.35955e-06
0.000134763
8.17088e-05
-8.51146e-05
0.000227747
-6.96978e-06
-1.23004e-05
5.11521e-06
1.10213e-05
-1.614e-05
9.77668e-06
1.29136e-05
-0.000162357
5.21158e-05
0.000110242
-2.97174e-05
3.22537e-05
-2.53125e-06
8.02871e-07
-6.67251e-07
-1.2909e-07
1.69152e-05
-1.85975e-05
1.67737e-06
6.79434e-06
-9.95576e-06
3.16123e-06
-7.01989e-06
1.39175e-09
7.01741e-06
8.29176e-06
1.69264e-05
-2.51902e-05
8.18749e-05
-8.87987e-05
6.92566e-06
5.00877e-05
1.81082e-05
-6.81931e-05
-0.000276063
2.18742e-05
0.000254175
1.309e-05
-9.47891e-06
-3.61166e-06
-6.96954e-05
-6.92924e-05
0.000138988
-1.1318e-05
2.28494e-05
-1.15316e-05
-1.04936e-05
-2.44671e-05
-1.47501e-05
1.76192e-05
-2.86835e-06
-0.000239714
-7.13856e-05
1.22863e-05
0.000132963
-0.000201902
6.89823e-05
-3.22476e-05
2.43452e-05
7.90248e-06
-8.4325e-05
-3.87347e-05
-2.04069e-05
1.24106e-05
7.99456e-06
9.45084e-06
2.73264e-06
-9.40587e-07
-1.99153e-05
2.08572e-05
-2.81463e-06
-1.05164e-05
1.333e-05
-0.000207076
0.000174163
3.29362e-05
-5.37257e-06
-1.50355e-05
3.93637e-05
-2.79376e-05
-1.14251e-05
-0.000112021
2.70878e-05
-3.47192e-05
5.29001e-05
-1.81801e-05
-2.50783e-05
9.43864e-06
-8.19167e-06
-8.55231e-07
-1.72979e-05
1.81548e-05
-7.7201e-06
1.32005e-05
-5.47978e-06
2.04305e-05
-2.82693e-05
7.83408e-06
-2.37339e-05
-6.89514e-06
3.06353e-05
-1.17922e-05
-3.69205e-06
1.5483e-05
1.17739e-05
-6.29962e-06
-5.47687e-06
9.88206e-06
-8.31054e-06
-1.57163e-06
-1.96371e-05
-4.41149e-06
0.00027492
-0.000274922
-3.64845e-06
3.01576e-06
-0.000107865
-6.60044e-06
-2.56471e-05
1.88462e-05
-1.41502e-05
-1.27345e-05
9.91875e-06
-2.23562e-05
1.10386e-05
3.06666e-05
-1.53425e-05
-1.53237e-05
-7.88012e-06
8.15945e-06
-2.8028e-07
5.1959e-05
4.6394e-05
-9.83549e-05
1.58119e-05
1.48539e-05
0.000120539
0.000195646
1.51878e-06
6.37342e-06
-7.89266e-06
-1.31237e-05
1.90681e-05
1.13218e-05
-1.60119e-05
4.68968e-06
8.13562e-05
9.11803e-05
-0.000172537
-1.7792e-05
2.5178e-05
-7.38672e-06
-1.55839e-05
2.65259e-06
1.29312e-05
-4.67552e-06
6.19421e-06
8.68608e-05
-0.000159111
7.22573e-05
-4.9529e-06
0.000119545
-1.7856e-05
1.89622e-06
1.59603e-05
1.18628e-05
8.86843e-06
-2.0731e-05
5.67031e-06
-1.85675e-05
1.28996e-05
1.30906e-05
7.35097e-06
1.80973e-06
8.24713e-05
-8.42657e-05
-1.894e-05
7.28877e-05
-5.39486e-05
9.99852e-05
2.56959e-05
1.46678e-05
-2.0776e-05
6.10724e-06
-0.000130187
2.19611e-05
2.28914e-05
-2.47954e-05
1.90484e-06
-1.85356e-05
3.06307e-05
-1.20945e-05
-0.000186024
5.05687e-05
0.000135484
-1.72704e-05
2.056e-05
-3.29169e-06
-0.000232941
-4.31315e-05
1.49053e-05
7.18876e-06
8.53386e-06
-1.03776e-05
1.84372e-06
-6.85624e-05
7.95486e-05
-1.09867e-05
1.79856e-05
-1.07186e-06
-8.71544e-06
7.51522e-06
1.20112e-06
-0.000275951
4.81269e-05
0.000227844
2.22966e-06
1.08605e-05
0.00012968
-0.000215609
8.59266e-05
-0.000321458
7.5974e-05
0.000245477
-2.17756e-05
5.07354e-07
-3.61887e-06
3.04181e-07
3.31485e-06
-2.87243e-06
6.27469e-06
-3.4024e-06
-2.67825e-06
2.46125e-06
2.16979e-07
-2.36213e-06
5.24543e-05
-3.32577e-06
-1.03059e-05
1.36319e-05
-1.49176e-05
-3.3626e-07
8.44276e-06
-4.87905e-06
4.26113e-07
4.39972e-06
-4.82567e-06
9.12952e-05
-2.98717e-06
-8.82866e-05
1.80471e-05
-2.61126e-05
8.06388e-06
-2.77839e-05
2.15063e-05
6.27887e-06
7.39086e-06
2.41719e-06
-2.44881e-06
3.23609e-08
-3.39615e-06
3.36847e-05
-3.02889e-05
-6.70429e-05
0.000138274
-7.12153e-05
-9.8838e-05
-5.71241e-05
-1.67093e-05
1.58551e-05
0.000327747
-5.28407e-05
1.78816e-05
-1.39907e-05
-0.00010196
6.74236e-05
2.79743e-05
4.44221e-06
-3.2416e-05
4.1237e-05
-0.000124116
3.90448e-05
-2.20054e-05
-1.47268e-05
1.28572e-06
1.34417e-05
-2.90467e-05
5.31405e-06
1.41391e-05
4.70336e-06
-1.29525e-06
1.26184e-05
6.2975e-05
8.62082e-05
-0.000149176
0.000102108
0.000125668
-0.000227793
2.96097e-06
5.4817e-06
1.1021e-05
-1.18293e-05
8.07864e-07
1.68264e-05
-3.792e-05
1.78214e-05
-1.49966e-05
-2.82449e-06
-0.000257826
0.000110491
-8.11471e-08
-2.30547e-06
2.38627e-06
1.23535e-05
-1.27018e-05
3.4931e-07
-1.36138e-06
8.33807e-06
-6.98145e-06
2.77378e-06
6.84231e-07
7.0867e-06
-5.30695e-06
-1.77951e-06
-2.25431e-05
-7.21475e-05
9.47033e-05
-5.62072e-07
-3.05722e-06
-2.96985e-05
8.40184e-06
-3.26866e-06
8.0389e-06
-4.77044e-06
-9.73614e-06
-0.000217309
7.41178e-06
0.000209893
5.84042e-07
-5.99507e-06
5.41191e-06
6.32559e-05
-4.20265e-05
-2.12295e-05
-8.18452e-05
8.18445e-05
-7.22226e-06
-3.35636e-06
1.74799e-05
5.43468e-07
3.32947e-05
6.0694e-06
7.79251e-05
-0.000161911
8.39847e-05
8.89867e-06
-1.11356e-05
2.23954e-06
-1.63351e-05
-9.77872e-06
-3.37654e-05
5.06754e-06
2.87176e-05
2.53102e-05
3.79457e-05
-5.28079e-05
1.02366e-06
5.97793e-06
-5.72744e-06
0.000264534
-0.000154624
-0.00010993
1.4247e-05
-4.19836e-06
1.85807e-05
-4.03461e-05
2.17673e-05
-1.01856e-05
1.38004e-05
-3.61554e-06
2.62713e-05
-1.04711e-05
4.69106e-05
-4.64327e-05
1.54489e-05
-1.32186e-05
0.000117774
-4.41649e-05
-7.36027e-05
1.77812e-05
7.35233e-05
-0.000245049
0.000243843
1.20957e-06
1.60712e-05
1.05376e-05
-2.6609e-05
2.18101e-07
-5.39149e-08
8.5703e-05
-8.12086e-05
-4.49389e-06
-2.02562e-06
-9.6405e-06
1.16646e-05
-5.10411e-06
-1.31622e-05
-4.04009e-05
2.16847e-06
3.82394e-05
-1.36033e-06
-5.83484e-05
1.06367e-05
4.77056e-05
-2.00195e-05
2.162e-06
-2.16223e-05
-1.84984e-06
2.34733e-05
1.29749e-05
1.3296e-05
-8.56874e-06
9.82447e-05
-8.96599e-05
-1.29477e-07
-2.24035e-05
2.25319e-05
1.90846e-05
-1.76263e-05
-1.45892e-06
-1.2649e-05
1.91615e-05
-6.51188e-06
-1.04323e-05
1.11324e-05
-7.00419e-07
-8.2923e-05
-0.000124904
0.000207978
9.57273e-06
-1.03887e-06
-2.62925e-06
-1.24344e-08
1.23667e-05
-5.98273e-06
-3.06116e-06
4.43317e-06
-1.37144e-06
-1.23415e-05
3.77671e-06
6.10055e-05
-5.91114e-05
-1.89397e-06
-1.96289e-05
1.45247e-05
-5.5291e-06
7.33968e-06
-1.81068e-06
1.143e-05
-2.82112e-05
1.67819e-05
-5.49089e-06
5.60906e-06
-1.18025e-07
1.78221e-05
-1.57069e-05
-2.11482e-06
-3.16153e-05
1.90263e-06
-8.29971e-05
-2.10001e-05
-1.98052e-06
2.2981e-05
8.39387e-05
-0.000166878
-6.64053e-06
-3.37354e-05
1.34137e-05
4.40809e-06
-0.000117733
0.00011984
-2.09887e-06
-1.62538e-05
-7.04206e-06
-2.08182e-05
2.2716e-05
-2.36517e-05
-7.09101e-06
3.0742e-05
7.10071e-06
1.38285e-05
1.94214e-05
-1.34002e-06
-9.75292e-05
3.08479e-07
-0.000116613
0.000101971
-1.38425e-05
-7.59058e-05
0.000162771
3.75241e-06
-1.55449e-05
0.000118546
0.000117909
-0.000236433
-0.000257976
-2.681e-07
-1.36667e-05
1.39348e-05
0.000169088
-4.93878e-05
-0.000119699
-0.000117325
0.0001927
0.00015615
-6.24071e-05
-9.37807e-05
7.22426e-05
-7.04517e-05
-2.6415e-05
1.10154e-05
1.54015e-05
-2.18452e-05
1.5564e-05
6.28139e-06
1.84197e-05
-9.65084e-07
-1.74536e-05
1.07852e-06
-7.67833e-06
6.59986e-06
1.99614e-06
9.95335e-06
-2.82638e-05
-7.89604e-05
9.46915e-06
-0.000242599
0.000242589
2.71923e-06
8.30915e-06
-1.10287e-05
-5.66371e-07
7.66844e-06
-7.10196e-06
-0.000112621
8.32034e-05
2.94265e-05
-3.42744e-06
-6.17219e-05
6.56955e-05
-3.96657e-06
-3.42312e-05
3.16853e-05
2.54827e-06
-8.72857e-06
-2.09693e-05
1.32464e-05
2.52801e-05
-1.11479e-05
-1.23077e-05
-2.7418e-05
3.97274e-05
8.96685e-06
-2.28488e-05
1.38807e-05
1.8131e-05
-2.0546e-05
2.41574e-06
-0.000105753
-1.08776e-05
-2.53682e-05
2.06704e-06
2.33008e-05
-3.4388e-05
6.25124e-07
5.48526e-07
3.74027e-06
-4.28903e-06
-3.17834e-06
3.0961e-06
3.89355e-05
-6.72549e-05
2.83206e-05
-1.04076e-05
-2.475e-08
1.19836e-05
6.45081e-06
-1.84336e-05
-5.27987e-06
-1.18113e-05
1.7091e-05
-4.4021e-05
-5.05993e-05
-0.000163657
7.38381e-05
8.98081e-05
1.83345e-05
-2.50669e-05
6.73369e-06
-1.42631e-05
2.9521e-05
-1.52574e-05
-1.21978e-05
2.0121e-06
6.79019e-05
1.78031e-05
9.10384e-05
-3.90718e-05
-4.33387e-06
4.88248e-06
-2.70801e-05
1.96057e-05
7.47371e-06
-3.13301e-06
-7.47664e-07
3.88071e-06
3.52499e-05
-6.5528e-06
-2.86983e-05
3.91521e-06
1.1534e-05
8.92644e-06
-7.7512e-05
-4.90339e-05
-0.000168707
8.7558e-05
-0.000157252
-2.02222e-05
2.00908e-05
1.49181e-05
-2.91814e-05
-1.10807e-05
1.36416e-05
-2.5596e-06
2.24145e-05
4.77563e-07
1.07848e-05
-7.07435e-06
-3.71084e-06
-0.000166645
-9.11906e-05
-4.29372e-06
2.26293e-05
1.73222e-05
-1.90239e-05
1.70184e-06
1.47133e-06
-4.34397e-06
8.07932e-06
-4.62611e-06
-3.45355e-06
-5.01423e-05
7.80439e-05
-2.79021e-05
7.91529e-05
2.72358e-06
-4.33787e-05
1.95555e-05
2.38272e-05
0.000126494
0.000138043
3.99133e-06
-7.26015e-06
0.000235627
-0.000208108
-2.75392e-05
-1.8554e-05
5.78967e-06
1.27648e-05
-2.20231e-05
1.39949e-05
8.02802e-06
1.59773e-05
-1.83283e-05
2.35117e-06
3.06082e-06
3.49604e-05
-3.8023e-05
-7.88709e-06
-5.54631e-06
1.34332e-05
2.98122e-05
-1.83759e-06
9.54372e-06
1.62549e-05
6.6612e-06
-1.72333e-05
1.05724e-05
-7.7328e-05
2.7184e-05
1.81986e-05
3.39499e-06
-2.1598e-05
8.83943e-06
-4.82115e-06
-4.01651e-06
-0.000142154
0.000205135
-2.33638e-05
1.76052e-05
5.75791e-06
4.20116e-07
9.15265e-06
-1.79358e-05
8.25021e-06
9.68424e-06
-1.56673e-05
4.43984e-05
-2.87321e-05
2.95794e-05
-2.88142e-05
-7.65505e-07
8.85372e-05
-4.61792e-05
-4.23558e-05
2.07917e-06
-6.7176e-06
4.64002e-06
-9.21519e-06
1.05972e-05
-1.38112e-06
-0.000130508
6.34698e-05
0.000105299
2.16598e-05
-0.000126959
-8.73669e-05
3.46058e-05
5.27633e-05
-0.00020911
0.000117929
9.11938e-05
-5.18466e-05
4.72661e-05
4.57939e-06
-7.50095e-06
6.93459e-06
-1.04723e-05
2.21262e-06
2.049e-07
2.75852e-05
-2.12195e-05
-6.36588e-06
2.94495e-06
9.6873e-06
-7.11335e-06
5.10692e-06
2.9723e-06
-9.96834e-05
1.27089e-05
8.69749e-05
-9.70176e-06
2.12622e-05
-1.15602e-05
2.11609e-05
-9.29834e-06
1.60942e-05
-1.63619e-05
2.21387e-05
-1.70972e-06
0.00020002
-0.000298944
9.89057e-05
0.000109396
-7.47555e-06
-0.000101919
0.000232711
-0.00031086
7.81473e-05
5.73389e-06
2.77855e-05
-3.35205e-05
1.92521e-05
-2.06954e-05
1.44301e-06
4.42332e-06
-3.34711e-05
2.90443e-05
6.60908e-07
-5.12207e-06
4.4609e-06
2.1152e-05
9.54196e-06
-3.06939e-05
-1.41555e-05
6.26816e-06
-1.74131e-05
2.4166e-06
1.59732e-05
-1.43998e-05
-1.57259e-06
-2.95964e-05
7.70639e-05
-4.74734e-05
-1.30129e-05
1.25204e-05
4.93279e-07
2.15467e-05
-7.93685e-06
-1.36096e-05
-0.000101197
0.000121326
4.77735e-05
-5.89158e-05
1.11428e-05
2.31291e-06
-1.00054e-07
7.1746e-06
-6.09595e-06
1.01536e-05
-1.34254e-05
3.27179e-06
-1.3714e-05
2.95598e-05
-1.58454e-05
-1.37333e-05
2.06822e-06
-5.33233e-06
3.26267e-06
5.00605e-06
-4.42233e-06
3.8123e-06
-4.58385e-05
-6.64435e-05
-0.000125863
0.000192317
-5.59064e-07
0.000110053
-0.00010949
1.15619e-05
-1.29611e-05
1.40017e-06
-8.74142e-05
-7.62658e-05
5.68752e-05
4.13096e-06
3.8869e-05
4.25213e-05
-8.13888e-05
-1.00981e-05
-5.55116e-06
2.57386e-05
-1.43108e-05
-8.05163e-05
-6.68702e-05
0.000147391
-2.672e-06
-6.45141e-09
-4.73776e-05
-4.46946e-06
-5.29963e-07
-2.28336e-05
1.97799e-05
-1.64931e-06
-2.37134e-05
-7.65631e-06
-2.53279e-06
0.000107832
-3.46578e-05
-4.26735e-05
2.05256e-05
-0.000103229
-7.35162e-06
-1.44932e-05
-1.69236e-05
2.3466e-05
-6.54207e-06
-7.79309e-05
3.65688e-06
-8.65877e-06
5.01957e-06
5.27112e-06
-2.10678e-05
1.57966e-05
-1.43579e-05
6.17719e-06
4.60765e-06
-1.82628e-06
-1.11864e-05
6.46021e-05
-8.35418e-05
-2.15595e-05
4.63623e-06
-3.02116e-05
4.21764e-06
2.59949e-05
8.21354e-05
7.76931e-07
-8.29085e-05
-6.19086e-06
7.95846e-07
5.40543e-06
-3.38839e-06
1.64519e-05
-1.30642e-05
-6.78018e-06
6.77096e-06
1.27972e-05
-1.80764e-05
4.7394e-06
-6.41883e-06
-0.000131732
0.000139571
-7.83616e-06
-1.59516e-05
1.65071e-05
-5.55871e-07
1.62135e-05
-3.68468e-06
-2.65264e-05
7.70183e-06
8.98122e-06
-1.66831e-05
-0.000184055
8.52138e-05
0.000215869
-0.000240675
2.48004e-05
2.19429e-05
-3.59896e-06
-1.83444e-05
0.000103172
8.15516e-05
-0.000184714
1.54218e-05
1.9362e-05
-1.81823e-05
-1.18321e-06
-0.000105059
-7.89962e-05
-7.70133e-06
2.37734e-05
-6.9534e-07
8.96723e-07
-2.01425e-07
3.35611e-06
-4.72505e-06
1.36994e-06
5.34533e-07
1.68074e-05
-4.69421e-05
-0.000170369
4.05438e-06
-3.39387e-06
3.81167e-06
2.04896e-06
-5.8609e-06
-1.5027e-06
5.24509e-06
-3.7469e-06
1.57636e-05
-8.0615e-06
0.000269969
-0.000151422
-0.000111971
-9.71355e-05
-7.08219e-06
8.97032e-07
-2.38305e-06
2.20443e-05
-1.96648e-05
2.08233e-05
-1.88652e-05
-1.95732e-06
-7.52264e-05
7.94604e-06
6.72721e-05
-6.72394e-05
9.3201e-05
-2.5964e-05
-8.21006e-07
1.25633e-07
1.80879e-05
-2.65741e-05
8.4867e-06
-3.22868e-05
-5.508e-05
-1.62008e-05
-1.2124e-06
-8.41567e-06
-2.99731e-07
-6.5925e-06
8.55161e-05
-7.8924e-05
1.5807e-05
6.41758e-06
-5.99127e-06
-1.46849e-05
3.63826e-05
-2.84516e-05
-1.67329e-06
3.01209e-05
-2.13879e-05
-3.9809e-06
1.04339e-05
-3.41473e-05
-2.52092e-05
2.68634e-05
-1.6522e-06
9.36984e-05
-0.000131045
3.73664e-05
4.83573e-06
-1.4791e-06
-3.85881e-06
2.92759e-05
-2.54147e-05
-5.61638e-05
2.0784e-05
3.53802e-05
4.63188e-05
-9.77312e-06
-3.65467e-05
-5.90827e-06
1.78925e-05
-9.36662e-05
9.31092e-05
0.000248186
-0.000121681
-4.54614e-07
2.65131e-06
-2.19667e-06
-2.4575e-05
-1.1279e-06
1.2733e-05
-1.18808e-05
-8.51916e-07
-6.5968e-06
-4.276e-06
-1.13079e-05
-2.8597e-06
1.75352e-06
1.10609e-06
-2.88994e-05
3.57177e-05
-6.81836e-06
-0.0001357
1.75698e-05
0.000118134
-4.55582e-07
-3.5316e-06
3.98799e-06
9.16183e-06
-2.368e-06
1.54409e-06
1.45502e-05
-2.50905e-05
1.47043e-05
1.03854e-05
-2.37032e-05
5.91181e-06
-0.000197408
0.000127908
6.95029e-05
-9.72998e-06
1.55717e-05
3.33267e-05
-4.89005e-05
6.64989e-05
1.30456e-05
-1.27272e-05
5.00879e-06
-9.75713e-05
8.47464e-05
1.278e-05
1.64827e-05
4.34147e-06
8.11459e-06
-5.15372e-06
-2.08599e-05
2.07135e-06
1.87888e-05
-0.000264524
0.000304418
-3.98577e-05
-1.28832e-05
-1.64303e-06
-1.21648e-06
-4.78938e-06
0.000273446
-0.000275866
2.42121e-06
-0.000100395
7.11398e-07
8.90794e-06
-1.05773e-05
1.66993e-06
-2.35623e-05
-1.96043e-06
2.55227e-05
-1.2336e-07
-4.5397e-06
4.66334e-06
-2.88165e-06
-3.42693e-05
6.52865e-06
-2.2105e-05
1.55764e-05
-3.47743e-05
2.11573e-05
1.3619e-05
-1.15669e-05
-7.00033e-06
9.83565e-05
-5.5179e-05
-4.31679e-05
2.32191e-05
-6.10906e-06
1.17278e-06
-1.22537e-05
8.20668e-06
-6.65599e-05
2.65662e-06
7.22535e-06
-0.000283446
1.8967e-05
-1.1397e-06
9.24185e-05
-0.0001534
6.0973e-05
1.93035e-05
-2.72073e-05
7.90395e-06
1.14377e-05
-1.48262e-05
2.28397e-05
-1.24167e-05
-9.88246e-05
1.52113e-05
8.3597e-05
-1.71016e-05
-1.09894e-05
-2.4336e-05
2.04033e-05
3.9322e-06
-1.59632e-05
1.13888e-08
7.19968e-06
0.000228434
4.72158e-06
-6.87725e-05
6.40242e-05
7.63775e-07
7.61536e-06
5.58553e-06
7.31268e-05
-9.56678e-05
5.92646e-05
5.85109e-05
2.23867e-06
5.87582e-06
1.76496e-05
-1.2993e-05
-4.65703e-06
1.39058e-05
-3.34184e-05
0.000135529
0.000108994
-0.000124809
1.58149e-05
6.25256e-05
1.00239e-06
-6.35221e-05
7.49285e-06
-3.63923e-05
2.3432e-05
-2.02446e-05
-3.18784e-06
1.00617e-05
1.80277e-06
-1.18636e-05
5.84765e-05
-3.31657e-05
7.23738e-06
1.84623e-05
-2.56988e-05
5.42691e-06
8.7714e-06
-1.41984e-05
-2.33185e-05
9.2583e-05
-6.9264e-05
2.366e-05
-1.90743e-05
-4.58552e-06
3.00464e-05
-9.72869e-05
-2.04272e-05
-3.61695e-06
2.40462e-05
0.000129763
-0.000129764
-1.83321e-05
-6.62318e-05
-1.57465e-05
2.10452e-05
-5.30006e-06
-0.000128282
-0.000104325
0.000232711
1.11983e-05
1.53485e-06
2.85753e-06
1.97878e-06
-2.43209e-05
-1.12837e-05
2.68461e-05
-1.98186e-05
-7.02755e-06
1.25183e-05
9.54332e-06
-2.20627e-05
4.73926e-05
3.06518e-05
5.00095e-06
-3.47191e-05
-0.00014661
8.56447e-05
6.09666e-05
-0.000100594
7.72763e-05
-4.36165e-06
-1.67595e-05
-3.0926e-05
-0.000245025
1.99063e-05
-1.22531e-05
-7.65667e-06
3.19966e-05
-2.98289e-05
2.13702e-05
-3.18647e-05
7.80297e-06
-1.06917e-05
1.79713e-05
-7.28043e-06
1.67857e-05
-1.86587e-05
1.87269e-06
1.97214e-05
-1.30208e-06
-3.11731e-05
-1.22046e-05
-6.63484e-05
4.25466e-05
2.38086e-05
-1.79537e-05
2.24472e-06
1.57304e-05
-6.36633e-06
-0.000154746
0.000161106
-2.79316e-06
1.20646e-05
-9.27477e-06
-8.84852e-05
-1.03593e-05
-2.19457e-05
6.18312e-06
1.57631e-05
-3.91558e-06
-0.000295419
1.20034e-05
-1.66292e-06
-8.2926e-06
-6.35816e-05
-0.00012048
0.000184062
-0.000120179
6.59849e-05
-2.979e-06
2.83104e-06
1.48024e-07
2.53355e-05
-2.2735e-05
-2.59972e-06
0.000113808
0.000134386
7.69695e-05
6.92893e-06
-1.89373e-05
1.20064e-05
8.29051e-06
-7.26672e-06
0.000385525
-0.000315697
-6.98375e-05
4.47245e-05
-4.4724e-05
-5.54405e-05
6.11263e-05
-5.6877e-06
8.54932e-06
1.29581e-05
2.04956e-05
-3.84453e-05
1.21904e-05
-1.56194e-05
3.42851e-06
-0.000222299
8.07169e-06
0.000214208
-2.35481e-05
1.67804e-05
6.76638e-06
4.16901e-06
-1.69484e-05
1.27795e-05
-2.69995e-05
3.19703e-05
-4.96891e-06
6.90027e-05
-0.000138023
6.90235e-05
-6.27521e-06
-1.47928e-05
-3.02846e-05
1.07995e-05
1.94848e-05
2.04431e-05
-1.18932e-05
1.62693e-05
-4.03888e-06
-1.22305e-05
-0.000152311
-5.4744e-05
-4.50039e-05
0.000139191
-9.41908e-05
0.000122403
-8.32456e-05
-3.91585e-05
8.70908e-06
-2.23579e-05
1.36581e-05
-7.01756e-06
5.3559e-06
1.66158e-06
-2.60724e-05
-0.000109627
-2.00205e-05
2.72584e-05
5.65193e-05
-2.64417e-05
-6.69207e-05
9.336e-05
2.72545e-05
-3.13262e-06
-2.41211e-05
2.97531e-05
5.5683e-05
-1.57187e-05
1.86318e-05
-2.91217e-06
1.83259e-05
-7.26187e-06
-1.1064e-05
0.000328647
-5.86769e-05
8.50418e-05
-2.88449e-06
-0.000120087
0.000124122
-0.000103978
0.000170886
-6.69064e-05
0.000330759
-0.000254784
-3.7479e-06
-1.68792e-05
2.06264e-05
-3.6141e-05
3.95577e-05
-3.41634e-06
-8.1186e-05
2.04477e-05
-2.20335e-05
1.58602e-06
0.000292099
3.65659e-05
1.82913e-05
-1.61133e-05
-2.17664e-06
2.26584e-05
3.58179e-05
-2.08634e-05
1.50442e-05
5.82014e-06
-8.58306e-06
1.58719e-05
-7.28837e-06
-3.64255e-06
-1.10181e-05
1.75924e-05
-1.61994e-05
-5.82267e-06
-6.10977e-05
0.000164269
1.27929e-05
-2.09672e-05
8.17269e-06
1.55368e-05
-3.85387e-05
2.29991e-05
4.21919e-05
-1.22242e-05
-2.99697e-05
-3.69906e-05
7.58603e-05
-2.44534e-06
-2.56331e-05
2.80805e-05
-1.36122e-05
2.0713e-05
-4.77513e-06
-1.7537e-05
2.23111e-05
9.45567e-06
1.0988e-05
2.49547e-05
-2.19882e-05
-0.000213347
1.08951e-05
-3.59865e-05
2.50796e-05
1.90863e-05
-1.32967e-05
1.05699e-05
3.09438e-06
-1.3664e-05
4.33158e-06
1.5833e-05
-2.01654e-05
1.75107e-05
-1.12217e-05
-6.28899e-06
-7.87956e-07
-1.0536e-06
1.75863e-05
-1.60418e-05
-3.4939e-05
1.77873e-05
1.71517e-05
-0.000191335
1.0226e-05
9.06729e-07
-5.97775e-06
-9.13755e-06
1.51149e-05
2.84013e-05
-3.08466e-05
5.09401e-05
2.39327e-05
-7.48676e-05
2.0776e-05
-1.27513e-05
-8.02339e-06
1.0962e-07
1.37046e-05
-1.38139e-05
-8.35053e-06
-3.95818e-06
1.2309e-05
0.000112697
-3.30039e-06
0.000102527
-8.13407e-05
-2.11821e-05
0.000135888
0.000116404
-1.803e-05
-3.52929e-06
1.32195e-05
-2.99324e-06
4.54695e-07
4.6521e-06
3.09462e-06
-1.76832e-05
1.4588e-05
2.18162e-06
1.31405e-07
-9.10364e-06
2.08337e-06
1.89122e-05
6.4235e-06
8.35354e-05
-7.6231e-06
-7.59111e-05
6.30712e-05
1.60811e-05
-7.14038e-05
-0.000123127
0.000194532
-6.89253e-06
-3.88322e-07
7.28075e-06
1.65488e-05
7.11124e-06
-1.26049e-05
2.77862e-05
-1.51844e-05
0.000206504
9.36158e-06
2.81337e-06
-1.10213e-05
7.22718e-06
-7.21291e-06
0.00010316
-9.59493e-05
-3.29941e-05
-1.24007e-06
1.72601e-06
7.9611e-06
5.09536e-06
-4.64084e-06
2.43758e-05
-0.000103528
7.91525e-05
3.62287e-05
-3.20439e-05
-4.18402e-06
-1.88721e-05
6.61749e-06
8.53029e-06
-5.81122e-06
-0.000132176
9.10523e-05
4.11099e-05
-0.000275116
-2.02739e-05
2.98896e-05
3.33231e-06
1.15162e-06
1.55157e-05
-0.000220164
0.000156197
6.40116e-05
3.63604e-06
1.38753e-05
1.35294e-05
-2.16458e-05
8.11734e-06
-5.43029e-05
1.66551e-05
3.76463e-05
-2.60844e-05
1.57661e-05
1.0318e-05
-8.61687e-05
-2.58471e-05
0.000100659
-9.19091e-05
-8.74528e-06
-3.2725e-05
-5.44766e-06
3.81868e-05
1.18331e-05
1.80887e-06
2.26688e-06
0.000115695
-0.000308017
0.000192321
-4.13155e-06
1.47015e-05
6.05366e-06
-2.17998e-05
-8.45586e-06
2.65438e-05
9.66367e-06
-9.24345e-06
-1.13539e-05
1.59749e-05
-4.62141e-06
4.45697e-06
-1.59876e-06
-8.77016e-05
9.85612e-05
-1.08597e-05
1.33156e-05
-1.59451e-05
1.31087e-05
9.2476e-06
-2.23535e-05
-1.66848e-05
-8.9397e-06
-1.61512e-05
0.000140819
-0.000166747
2.59277e-05
-2.10285e-05
2.99919e-06
-5.27896e-06
5.98605e-06
5.23671e-05
-4.57172e-05
-6.65209e-06
7.18031e-06
-2.72696e-05
-7.26486e-06
2.04248e-06
5.22222e-06
-2.09794e-05
1.47041e-05
-9.23356e-06
-0.000101896
0.000111131
7.11497e-05
-8.07767e-06
3.63257e-05
-0.000106815
-7.8002e-07
0.000107608
2.25044e-05
-3.33193e-05
1.08141e-05
-1.90221e-05
5.2517e-06
1.37715e-05
1.08794e-05
-3.36617e-06
-7.51384e-06
-1.22068e-05
-0.00015015
-0.000124689
7.05298e-05
5.41597e-05
0.000121442
-3.10294e-05
-9.04142e-05
2.00747e-06
5.03596e-05
2.61801e-05
1.00489e-05
-1.10644e-05
2.41735e-05
-1.70134e-05
-3.98318e-05
7.11287e-06
1.35952e-05
-1.85555e-05
4.96479e-06
-0.000172804
0.000137876
3.49356e-05
1.2694e-05
-4.39312e-06
-0.000110321
-3.62875e-05
8.40309e-06
-2.49639e-06
-5.90643e-06
1.00832e-05
-1.74345e-05
3.1896e-05
-1.22218e-05
-1.96749e-05
9.92772e-06
-1.59058e-05
-5.94661e-05
-0.00024913
0.000308601
-1.12397e-05
8.44334e-06
4.27468e-05
-6.51979e-06
-3.62186e-05
8.78047e-07
1.80599e-06
-2.68466e-06
-1.76379e-05
3.34483e-05
1.60267e-05
-3.8359e-06
-2.07618e-05
2.52758e-05
-4.51151e-06
2.17249e-05
-1.227e-05
-0.000200427
-0.00014978
4.35907e-05
0.000106189
-2.20403e-06
-8.59419e-08
2.29057e-06
-2.38801e-05
2.05897e-05
3.28966e-06
2.27063e-05
-1.61774e-05
5.60377e-06
-4.55157e-06
-1.05274e-06
1.31054e-05
-2.0074e-05
6.96792e-06
5.07818e-05
5.17443e-05
7.94067e-05
-4.48008e-05
4.83711e-05
-4.85305e-05
1.0004e-05
-1.10009e-06
-4.64038e-05
9.73446e-05
-1.10076e-05
-1.22316e-05
1.52691e-05
-3.04287e-06
3.25478e-06
-1.16051e-05
-7.72937e-06
2.02484e-05
1.71403e-06
9.1654e-06
2.16146e-06
-2.77484e-06
6.13031e-07
1.88767e-05
3.62352e-05
-5.51126e-05
4.52297e-05
-6.37078e-05
1.84785e-05
1.71494e-05
-1.58895e-05
-1.26079e-06
2.36065e-06
-1.6496e-05
1.4135e-05
-3.89346e-06
8.32618e-07
1.60155e-05
-1.36551e-05
-1.53507e-05
1.73237e-05
-1.9735e-06
-2.43828e-05
3.95783e-06
2.98512e-05
-2.20279e-05
-7.82202e-06
1.76973e-05
-1.4753e-06
-1.62224e-05
-0.000160999
0.000106867
8.5839e-05
-0.000192701
-2.08186e-06
-8.29568e-06
2.19377e-05
-3.66197e-05
-7.54632e-06
2.83689e-06
4.70905e-06
-2.88622e-05
4.43971e-05
1.08319e-05
2.38776e-06
2.50823e-05
-2.49363e-05
-1.45684e-07
-3.71254e-05
4.15464e-05
-1.43753e-06
1.42897e-05
-1.28536e-05
2.51197e-05
2.77797e-05
-1.09635e-05
-1.93213e-05
-2.04e-05
1.63835e-05
4.01748e-06
-0.000141119
8.38258e-05
5.72965e-05
-0.000173561
0.000169229
4.33536e-06
1.48629e-05
1.64406e-06
-2.30358e-05
2.04073e-05
2.62918e-06
-1.02103e-05
8.51888e-06
1.69106e-06
-4.53167e-06
2.9924e-06
1.55407e-06
-1.36582e-06
-1.45919e-05
6.69631e-06
7.92099e-06
5.98835e-05
-3.2508e-05
-2.73756e-05
-2.72695e-05
6.51014e-06
-5.57237e-05
4.12677e-06
-7.05429e-05
7.05438e-05
-1.58839e-05
7.30127e-06
-9.12286e-06
-4.30241e-06
1.26284e-05
-1.25186e-05
1.19355e-06
-9.50406e-06
-1.58471e-05
-4.55287e-06
-9.6325e-08
1.77931e-05
-0.000148711
3.14017e-05
2.30365e-05
-2.59237e-05
2.88487e-06
-9.26785e-06
-1.70356e-05
2.63038e-05
0.000115634
0.00017888
-0.000294583
-1.95421e-05
2.98367e-05
-1.02957e-05
0.00010609
-2.05422e-05
2.43527e-05
-3.81139e-06
2.17532e-07
2.6583e-05
-2.68003e-05
3.41446e-06
6.45618e-05
6.59064e-05
-2.57955e-05
2.07793e-05
5.01643e-06
3.24572e-05
4.69505e-05
-2.88473e-05
1.30816e-05
1.57659e-05
1.56357e-05
8.50243e-05
-0.0002761
6.15605e-05
0.000214533
-1.51983e-05
-4.65642e-07
1.56666e-05
-7.43687e-06
1.80007e-05
-6.14131e-07
-1.73881e-05
-2.76207e-05
-9.61093e-07
2.85821e-05
1.73539e-05
-2.49118e-06
1.75922e-05
1.43027e-05
4.51487e-06
-1.36787e-05
9.16354e-06
4.30284e-07
1.65841e-05
-5.87165e-06
-1.07127e-05
4.46036e-05
-1.84818e-05
-2.61136e-05
-8.00618e-06
-1.10152e-05
-3.26131e-05
1.30699e-05
1.50945e-05
-1.20002e-05
-2.58301e-05
2.92287e-05
-3.39817e-06
1.25518e-05
-9.05767e-06
-3.49449e-06
6.95696e-05
7.85294e-05
-0.000148096
0.000170576
-3.1537e-05
-0.000138994
-1.48002e-05
-5.27394e-06
1.1027e-06
4.50067e-06
-4.346e-05
7.75206e-05
-3.40607e-05
0.000203877
-0.000288426
8.45509e-05
3.42477e-05
1.08795e-05
-4.512e-05
1.82424e-07
-4.60268e-06
4.42034e-06
1.4426e-06
7.16618e-08
-4.51934e-05
0.000245209
2.22899e-05
6.04144e-05
-2.08818e-05
2.60148e-05
-5.13482e-06
-9.82089e-07
3.05615e-05
7.21716e-06
-2.30738e-07
-6.98682e-06