/*--------------------------------*- C++ -*----------------------------------*\
| =========                 |                                                 |
| \\      /  F ield         | OpenFOAM: The Open Source CFD Toolbox           |
|  \\    /   O peration     | Version:  v2012                                 |
|   \\  /    A nd           | Website:  www.openfoam.com                      |
|    \\/     M anipulation  |                                                 |
\*---------------------------------------------------------------------------*/
FoamFile
{
    version     2.0;
    format      ascii;
    class       volScalarField;
    location    "300";
    object      k;
}
// * * * * * * * * * * * * * * * * * * * * * * * * * * * * * * * * * * * * * //

dimensions      [0 2 -2 0 0 0 0];


internalField   nonuniform List<scalar> 
37809
(
0.000177527
0.0190177
0.000149667
0.00015486
0.0670907
0.000181659
0.000182628
0.000513412
0.00649906
0.00798085
0.000178548
0.000148096
0.00015326
0.000153305
0.0168731
0.000154024
0.000148387
0.0358675
0.000148765
0.000176566
0.000165775
0.000165655
0.0530376
0.000147565
0.000165545
0.0166055
0.00194001
0.000149231
0.000149605
0.000529809
0.000199657
0.0222519
0.000147594
0.00027005
0.000148923
0.000148437
0.000145869
0.0071243
0.00018216
0.000186342
0.0681888
0.0154738
0.0229866
0.0117849
0.00014775
0.000160068
0.000201258
0.0455922
0.00102116
0.000166513
0.000149436
0.000147821
0.0001469
0.000149776
0.0230252
0.000146926
0.00015921
0.000155978
0.000181311
0.000147388
0.0232077
0.000151814
0.000153121
0.000185696
0.000199623
0.000165698
0.0291236
0.00014897
0.000153763
0.00571948
0.000153195
0.0078751
0.000148288
0.000153212
0.000149207
0.000145661
0.000186205
0.000183461
0.000177207
0.000215443
0.000147341
0.000149644
0.0393441
0.000162658
0.000147551
0.0189488
0.000150972
0.000294107
0.000183142
0.000158764
0.00564141
0.0147133
0.000168923
0.0842933
0.000151142
0.0495796
0.000148331
0.000149595
0.0193492
0.000147051
0.00474171
0.000149619
0.000185156
0.0339055
0.00582342
0.000149414
0.000543906
0.00436265
0.000189309
0.00014808
0.000176283
0.000162451
0.000174928
0.000152014
0.000158974
0.000181588
0.000148962
0.000148293
0.00024501
0.0238235
0.000149858
0.000149625
0.000166941
0.0663018
0.012864
0.000148936
0.000200501
0.00014818
0.000158337
0.00015437
0.000252297
0.000212948
0.0187631
0.000147255
0.000225791
0.000149009
0.000149433
0.000151932
0.0106652
0.00363243
0.00014886
0.0139319
0.00813203
0.0675326
0.000148295
0.026306
0.000154196
0.000151628
0.0407524
0.000150944
0.0180252
0.000154368
0.00017185
0.000241113
0.000194462
0.000151415
0.0069866
0.000245412
0.00014987
0.00792279
0.000158321
0.000219019
0.00060918
0.0262363
0.000150775
0.000144348
0.00014767
0.0427045
0.000182275
0.00019268
0.000135295
0.000146661
0.030943
0.000152291
0.000154121
0.000154678
0.00576926
0.00015872
0.0608006
0.00017103
0.0242844
0.00014983
0.000146923
0.000149435
0.000144627
0.000217976
0.000149881
0.000160325
0.000203246
0.00707324
0.000166478
0.000148338
0.000148663
0.012928
0.000202298
0.000287987
0.000148091
0.000143558
0.000146789
0.000153335
0.00573441
0.000179581
0.0206806
0.000171018
0.0219167
0.00014467
0.000152596
0.000167352
0.000147708
0.000192965
0.000167371
0.0193677
0.000146592
0.000148262
0.000147688
0.000256246
0.000165721
0.000147158
0.000146576
0.000210951
0.0817127
0.000395491
0.000149321
0.000149828
0.000147361
0.043585
0.0559333
0.000199636
0.000156645
0.00221652
0.00014935
0.000179795
0.000212056
0.000151577
0.000110061
0.000308573
0.000146463
0.0464053
0.000150712
0.000188915
0.0505584
0.000146692
0.000319028
0.00797338
0.00014776
0.000148041
0.000149713
0.000144042
0.000192862
0.000144676
0.000148564
0.000147644
0.000148164
0.0691974
0.000148334
0.000148302
0.000143514
0.000148224
0.000349179
0.0331089
0.000235469
0.00014869
0.00763953
0.000149687
0.0179426
0.000170122
0.000202487
0.000166082
0.000148142
0.000274342
0.0190015
0.000147697
0.0654928
0.000285881
0.000147678
0.00018793
0.000254492
0.000148531
5.08789e-05
0.000148185
0.000149114
0.0136855
0.00954592
0.000147485
0.000205024
0.000148028
0.000148249
0.000148255
0.000148282
0.012367
0.00014787
0.000171078
0.00719868
0.00014689
0.000148147
0.00016
0.000211787
0.00647904
0.000148312
0.000979905
0.000170523
0.0173825
0.00014571
0.000241738
0.00642749
0.000162784
0.000149622
0.000153197
0.0656694
0.000146698
0.000199646
0.0704486
0.0163323
0.000167508
0.000149809
0.053931
0.000151808
0.000148832
0.00103181
0.0068346
0.000183414
0.000401065
0.000163785
0.000153085
0.00720568
0.000165506
0.00660866
0.000148161
0.000149625
0.000226453
0.000146499
0.000146701
0.0001491
0.00416522
0.000145047
0.00014722
0.000174923
0.000148793
0.000147956
0.000180592
0.000147552
0.000153227
0.000532115
0.00534656
0.000157537
0.000226984
0.000932612
0.000148559
0.0194458
0.000154293
0.000384426
0.000183049
0.000148073
0.000148928
0.0114549
0.00779148
0.000144718
0.000211058
0.000148073
0.0536777
0.00876674
0.00015533
0.0223579
0.0208093
0.075601
0.0418513
0.000162249
0.000154196
0.000154959
0.000147467
0.000153328
0.000168586
0.000182493
0.00593763
0.000177372
0.000145793
0.000187981
0.000144734
0.0185959
0.000545587
0.000148252
0.000151737
0.0216447
0.000167655
0.000516187
0.00016834
0.00585997
0.000160523
0.00100194
0.000145289
0.000148207
0.0220422
0.000149663
0.000148794
0.000154438
0.000184182
0.0240994
0.000254601
0.000159659
0.000149665
0.0564345
0.000192368
0.000145252
0.000148452
0.000148895
0.000172296
0.00014673
0.0456975
0.0511013
0.0344652
0.000166098
0.000160185
0.000175341
0.000149402
0.00014566
0.000117964
0.000264349
0.00700445
0.00014978
0.00014789
0.0632074
0.000181353
0.000194105
0.000239063
0.000148219
0.0566789
0.000149847
0.000158571
0.00015673
0.000685106
0.000147284
0.00017014
0.00015475
0.000151902
0.0591597
0.000149312
0.0193182
0.0653861
0.00017361
0.000146536
0.000150549
0.000214661
0.000173416
0.000176386
0.000147812
0.000147511
0.0366166
0.000224639
0.000174397
0.000217287
0.000168705
0.000145777
0.000152012
0.000148209
0.000148461
0.000147505
0.000145884
0.000147956
0.019362
0.000147725
0.000149401
0.000155148
0.000199693
0.00426843
0.02158
0.0181278
0.000154732
0.000159863
0.0328638
0.000147923
0.000161453
0.000147254
0.000148555
0.000147628
0.000181331
0.000146874
0.000169328
0.0192404
0.00016983
0.00014823
0.000147431
0.000148033
0.000158978
0.000144763
0.010864
0.000147875
0.000171845
0.000228847
0.0709906
0.000149264
0.024031
0.000174636
0.000190654
0.00014963
0.000180322
0.0379327
0.000144007
0.000169174
0.00017364
0.000168188
0.000178429
0.000235076
0.0573847
0.0368085
0.000154275
0.000159168
0.000181842
0.019299
0.000148806
0.000148846
0.000145587
0.000146851
0.058337
0.000159074
0.000153536
0.000270349
0.00358776
0.000149782
0.00166022
0.00015433
0.00330655
0.000211086
0.000148533
0.00900136
0.000153858
0.000151776
0.000235047
0.0518166
0.000163066
0.000208785
0.00755661
0.000150733
0.000231695
0.000167521
0.000149808
0.000145128
0.000147531
0.0140522
0.000147919
0.000148221
0.000185883
0.000151759
0.0523972
0.000219066
0.00208794
0.000149168
0.000148343
0.00995437
0.000203874
0.00014985
0.000157504
0.000175041
0.000148525
0.000188904
0.0317962
0.000159506
0.000148142
0.000185864
0.000265815
0.000160477
0.000177726
0.0187535
0.000195714
0.000145104
0.0131077
0.000162387
0.000182703
0.000148736
0.074554
0.000240041
0.000149815
0.012008
0.00014817
0.000149358
0.000147175
0.00014821
0.0395793
0.0178774
0.000145155
0.000144269
0.000154748
0.000159964
0.000165935
0.000217943
0.0138036
0.0237937
0.0488704
0.00887471
0.0141839
0.0471315
0.000148334
0.000147723
0.000153663
0.014543
0.000149901
0.000148191
0.000145209
0.0486764
0.0162191
0.000147302
0.000148548
0.000149825
0.0211516
0.000165872
0.000330024
0.000149889
0.000193328
0.000153876
0.000176427
0.000183061
0.000146821
0.0171338
0.000149256
0.000207459
0.000148531
0.000149894
0.000148874
0.0733196
0.000541765
0.000520858
0.000148561
0.0570579
0.0405225
0.000150776
0.0129515
0.000204585
0.000199226
0.000147761
0.000148135
0.00014805
0.000691663
0.0854721
0.000176311
0.0399809
0.000149221
0.000148138
0.000169998
0.000163595
0.000147224
0.0361003
0.00015512
0.000204749
0.000178517
0.00734675
0.0197918
0.000630396
0.000246304
0.000148162
0.000145141
0.000156262
0.00014866
0.000158792
0.0652284
0.000148135
0.00624244
0.00021434
0.0391198
0.000154891
0.0518229
0.000166757
0.000595859
0.000154167
0.000148248
0.000158015
0.00014837
0.000154971
0.000194958
0.000304804
0.0297297
0.00024139
0.0138433
0.0730898
0.000165767
0.000147829
0.0146051
0.000144361
0.00297949
0.0270022
0.000150152
0.000156872
0.00023631
0.0423368
0.000150455
0.000149721
0.0378563
0.00733631
0.0388246
0.000148249
0.0397322
0.000148383
0.000164572
0.000166259
0.000151225
0.000169743
0.0254822
0.000148854
0.00014859
0.000148231
0.000147298
0.000221459
0.0574876
0.0673016
0.0288478
0.000147944
0.0206228
0.000162855
0.000194375
0.000647063
0.000155238
0.0168898
0.00015069
0.000151204
0.0514522
0.000270085
0.000200037
0.0402687
0.0115608
0.00016865
0.0136518
0.000211959
0.000149223
0.0518834
0.000157312
0.000169197
0.000156289
0.000156219
0.000166379
0.000152136
0.000158828
0.000208891
0.000157899
0.000158224
0.000158182
0.000189805
0.000155342
0.000148048
0.000149096
0.000148227
0.000149341
0.000247674
0.000307143
0.00014991
0.000147749
0.000165442
0.0289456
0.000149377
0.000154596
0.000165861
0.000228604
0.00014966
0.000149153
0.000155435
0.000186653
0.000152546
0.000147777
0.000146788
0.0182907
0.0601338
0.000113914
0.000159485
0.00014962
0.000147963
0.00015778
0.000148202
0.000147646
0.000156775
0.0719509
0.000181124
0.0295359
0.000147834
0.000155059
0.000168914
0.0523402
0.000169525
0.00880242
0.000747257
0.000645214
0.000145773
0.000148008
0.0428478
0.000182209
0.0001666
0.000178133
0.0687028
0.0170066
0.000183419
0.00014973
0.000214696
0.0310965
0.000156839
0.0875766
0.000173821
0.000434474
0.0176908
0.000200583
0.000175082
0.000150755
0.0182646
0.000147727
0.000516685
0.000157591
0.000146553
0.000148609
0.000145097
0.0157932
0.000146721
0.000187962
0.000148115
0.000160013
0.000231756
0.000159436
0.000147828
0.0516794
0.000175429
0.000147845
0.000148815
0.0827566
0.000180228
0.000162603
0.000208618
0.000156593
0.000153997
0.000146048
0.000219383
0.06458
0.0634853
0.0519934
0.000181175
0.000188049
0.000165935
0.000205946
0.000151566
0.0596111
0.0339481
0.00021306
0.000147626
0.000154065
0.000180316
0.000149243
0.0253621
0.0161177
0.000204814
0.000148222
0.000167713
0.000148302
0.000164315
0.0173391
0.000148198
0.00013607
0.078384
0.000148063
0.000161589
0.00016544
0.000143914
0.000163084
0.0618639
0.000174022
0.000172084
0.00533005
0.000186217
0.000150556
0.000153021
0.000146777
0.000159108
0.000146051
0.00014822
0.0324153
0.000170834
0.00015326
0.000151206
0.00014504
0.000151348
0.000145396
0.000178098
0.000182317
0.000151637
0.000241907
0.019523
0.000146433
0.000185903
0.000147622
0.000158219
0.000149621
0.000149358
0.0350706
0.000155359
0.00731335
0.000148589
0.000150349
0.000222205
0.0611602
0.000148558
0.000158719
0.00926409
0.0266472
0.000149665
0.0275345
0.000161287
0.000164427
0.000214195
0.000153177
0.00598053
0.000156073
0.000148027
0.000147818
0.000146744
0.000150379
0.000151608
0.0174233
0.000171781
0.000161782
0.000616061
0.000171454
0.026366
0.000162988
0.000149067
0.000176113
0.0677989
0.000160088
0.000173294
0.000158835
0.0213645
0.000183564
0.000153284
0.000163344
0.000150753
0.03127
0.00014853
0.0001817
0.000147065
0.000158838
0.000152517
0.0290677
0.000154036
0.000171647
0.000157905
0.000169007
0.000145724
0.000219758
0.000206367
0.000163522
0.000143929
0.000188772
0.0243601
0.000247215
0.000145231
0.000153372
0.000625577
0.00494937
0.0044406
0.000148588
0.000173857
0.000149653
0.000167149
0.000246244
0.000248606
0.000157768
0.000206665
0.000158959
0.000147961
0.00014952
0.000201588
0.000147955
0.000147785
0.000151244
0.000205874
0.000225858
0.000163306
0.00014653
0.000145516
0.000145683
0.000161926
0.000148863
0.000195189
0.0274014
0.000145804
0.0245583
0.000150028
0.018362
0.000534429
0.0001706
0.000154771
0.000162497
0.000148318
0.0583133
0.000145965
0.000222462
0.000153914
0.000148382
0.000181307
0.000164971
0.000147227
0.0179934
0.000181247
0.000158423
0.000153121
0.0382844
0.000184347
0.0198623
0.000149901
0.000165763
0.000230778
0.0221649
0.000146592
0.000158759
0.000147218
0.015655
0.0102298
0.000425587
0.0643974
0.000149853
0.000162887
0.000151067
0.0681193
0.000276268
0.000150974
0.000188139
0.000147938
0.000161538
0.000147201
0.000147981
0.000147608
0.000154716
0.0143609
0.000147941
0.000163476
0.000217492
0.000147984
0.000149818
0.000161339
0.0480231
0.000157069
0.000188208
0.000147863
0.000554084
0.000535699
0.000148053
0.000190351
0.000162667
0.000172034
0.0595842
0.000159942
0.000148827
0.00022797
0.000176959
0.000150924
0.000225393
0.000198596
0.000211381
0.000154789
0.000144244
0.000208568
0.000183287
0.000218998
0.000147275
0.0238638
0.000171755
0.000190724
0.000165604
0.000145998
0.000149861
0.000146794
0.000148102
0.000149257
0.000151942
0.0212836
0.000158585
0.00014936
0.000156163
0.000156252
0.000147745
0.0609822
0.000156439
0.000206603
0.000165644
0.00015123
0.000578124
0.000196538
0.000174233
0.029326
0.0595702
0.000146367
0.000169138
0.000184552
0.000193938
0.000186272
0.000379626
0.000144341
0.000148457
0.0225099
0.000149087
0.0205167
0.000216595
0.000196308
0.000156313
0.000156286
0.000147245
0.000146728
0.000148007
0.000148157
0.000148753
0.00014812
0.0164557
0.000148055
0.0315926
0.000154035
0.000173709
0.0370402
0.000149829
0.000148243
0.000214663
0.0483716
0.000209507
0.000149646
0.0756267
0.000149611
0.000148044
0.000150658
0.000268654
0.000501995
0.000214593
0.0124206
0.0192057
0.000161608
0.000172252
0.000145936
0.000148877
0.0401039
0.0724654
0.000207516
0.000169306
0.000151278
0.0162474
0.000171771
0.00255022
0.000146837
0.000216786
0.000151195
0.000151796
0.000160173
0.000175581
0.0073385
0.000154288
0.000189999
0.0579644
0.00715572
0.000148328
0.000155249
0.0130555
0.000151811
0.000609721
0.000155043
0.000166125
0.000166126
0.000181722
0.0228729
0.000146319
0.000148113
0.000163433
0.00018964
0.0166032
0.000149548
0.0125614
0.000151299
0.00538201
0.0356906
0.000201002
0.000148102
0.000147334
0.000205685
0.0273576
0.000144206
0.0764009
0.000151208
0.0323803
0.000158528
0.000156062
0.000148449
0.00017394
0.000180761
0.000155004
0.000156743
0.000147056
0.0373892
0.000168853
0.00014529
0.000165028
0.0335437
0.0319886
0.000158601
0.0738384
0.0469265
0.000169136
0.000181951
0.000158587
0.000213202
0.000147189
0.000197651
0.000150621
0.0241538
0.000148987
0.000148958
0.000426752
0.000234144
0.000153414
0.00080917
0.000144208
0.000148295
0.0227427
0.00014673
0.000265249
0.000162646
0.000148166
0.0251832
0.000174099
0.000200178
0.000148165
0.000158275
0.000179674
0.000149018
0.000153291
0.0289614
0.0433746
0.00016205
0.000197861
0.000148195
0.000155427
0.000206487
0.0350783
0.0494906
0.000182113
0.000164656
0.000150734
0.000292048
0.000179682
0.000180875
0.0559175
0.000147881
0.000202313
0.000201931
0.000145948
0.00014908
0.000201907
0.000149761
0.0194109
0.000231167
0.000553285
0.000148147
0.000149022
0.0501721
0.000149221
0.0724123
0.0215495
0.00710335
0.000171916
0.000147351
0.000151638
0.0459311
0.000158307
0.000147205
0.000161455
0.00015061
0.0329266
0.0157142
0.00015455
0.00014901
0.000148579
0.000146321
0.0349442
0.000250072
0.000253656
0.0782206
0.000147796
0.000147686
0.0090155
0.000147526
0.000185184
0.000160826
0.0190169
0.0225601
0.000166644
0.0460795
0.0197772
0.000146682
0.000168097
0.000195694
0.000155522
0.000149659
0.000162894
0.000154426
0.000185279
0.000277434
0.0177254
0.000147484
0.000147703
0.0588103
0.0302562
0.0182136
0.000228408
0.00015728
0.0447434
0.000145234
0.000189931
0.0397985
0.000176331
0.000150542
0.000175955
0.000145639
0.000148226
0.000147107
0.000147552
0.000150463
0.000158806
0.000168056
0.0816153
0.000148151
0.000143954
0.0323681
0.000221869
0.000182122
0.0364865
0.0273425
0.0759937
0.00014812
0.000149489
0.0217539
0.000168295
0.000192719
0.000150896
0.000148124
0.000148535
0.000145308
0.000150784
0.000174487
0.00372734
0.000148661
0.000151628
0.000157889
0.000151039
0.059875
0.000175457
0.000172393
0.0104322
0.000169002
0.00014793
0.00989716
0.023186
0.000170911
0.0865342
0.000153442
0.000166018
0.0133521
0.000206631
0.0596743
0.000155171
0.000148085
0.0134032
0.000171954
0.000149558
0.000148292
0.000173712
0.0226769
0.000147072
0.00014517
0.000149519
0.000145166
0.000147563
0.0411492
0.000230837
0.000149767
0.000159933
0.000168316
0.000148078
0.000155378
0.000149523
0.00014429
0.000148542
0.000171688
0.000156601
0.000149002
0.000157495
0.000149561
0.014991
0.000151472
0.0067072
0.000203004
0.00453873
0.000191384
0.000143974
0.000149558
0.000147098
0.000179743
0.000146556
0.000145206
0.0397246
0.0173215
0.00015648
0.000145435
0.000201282
0.000229258
0.000148991
0.0143105
0.000152988
0.000553123
0.000147799
0.000220189
0.0171196
0.000149907
0.00014869
0.0394135
0.0285189
0.0001692
0.000472823
0.00029519
0.0177241
0.0214859
0.0691847
0.000148381
0.0469948
0.0218037
0.0785659
0.000149707
0.000257469
0.000147801
0.000143902
0.0599458
0.000149658
0.000192424
0.0378779
0.000145479
0.0157162
0.00017049
0.0355669
0.000166489
0.000151341
0.000164716
0.000146699
0.000148726
0.000166059
0.000158773
0.0423318
0.000145814
0.0261896
0.0283461
0.000169602
0.0339803
0.000169802
0.000148111
0.0119056
0.00014801
0.069943
0.00765463
0.0304285
0.0301683
0.000593183
0.000174108
0.000182642
0.000154311
0.0390842
0.000149216
0.000148546
0.000175676
0.000148983
0.000164016
0.00912589
0.000149354
0.000260482
0.000154267
0.000150601
0.0448743
0.000153085
0.000148025
0.000169356
0.000350184
0.000156456
0.000197594
0.000149438
0.0399807
0.000147794
0.0374676
0.000147691
0.0079824
0.000191743
0.000200639
0.00649146
0.000151037
0.000183621
0.000149252
0.000294752
0.000151043
0.00014669
0.000211574
0.000147802
0.000149784
0.0399313
0.000147542
0.0475789
0.0001481
0.000146215
0.000148268
0.000168985
0.000229005
0.000147393
0.000235619
0.000148072
0.000146851
0.000153403
0.000167194
0.000187405
0.000186539
0.000423515
0.000156306
0.000149558
0.000149799
0.000148162
0.000156348
0.041549
0.000147028
0.000149868
0.0461485
0.000149448
0.000156397
0.000147883
0.000149014
0.0402395
0.000146094
0.000152564
0.000147593
0.000147509
0.000149013
0.0242646
0.000151268
0.00868555
0.079381
0.000171899
0.0115544
0.000164148
0.000149523
0.000962156
0.0210672
0.000146505
0.000147541
0.000172076
0.000180201
0.000149247
0.000168178
0.000150417
0.000149858
0.000146896
0.00982254
0.000148556
0.00021084
0.000156432
0.000269962
0.00385124
0.000149932
0.0490942
0.000148124
0.0161256
0.000182691
0.0002008
0.000170403
0.000197204
0.000150674
0.0543013
0.000188241
0.000146137
0.000147269
0.000149513
0.000240971
0.000186481
0.000210483
0.000208226
0.000149619
0.000147561
0.0471898
0.000148519
0.0182365
0.000164281
0.000672978
0.000165686
0.000154162
0.000156941
0.000164374
0.000148527
0.000149906
0.000147387
0.000148263
0.000147799
0.00026275
0.000160177
0.000166781
0.000231241
0.000150993
0.0425389
0.000165761
0.00015241
0.0793266
0.000153679
0.0001799
0.000172232
0.000154737
0.0229233
0.000225408
0.000148047
0.073465
0.000146245
0.0804671
0.000148519
0.000148748
0.0640939
0.000190803
0.000148316
0.000157076
0.000155206
0.00019977
0.000161899
0.0741849
0.000148866
0.000220571
0.0104988
0.000180136
0.00014836
0.000164695
0.0855846
0.00015799
0.000150993
0.0455247
0.000150466
0.00145282
0.0219384
0.00018242
0.000148392
0.000147073
0.0506668
0.000244629
0.000276503
0.000172287
0.000695165
0.000167324
0.000243177
0.000181525
0.0175504
0.00016432
0.0391286
0.000175366
0.00026368
0.000148039
0.000146105
0.000187456
0.000163942
0.000260573
0.00579591
0.000170886
0.0413915
0.0202316
0.000166021
0.000152399
0.000363921
0.000147756
0.000184827
0.000150893
0.000146596
0.00690462
0.000146074
0.000178383
0.000148049
0.000149623
0.000148073
0.0196132
0.0619194
0.000201639
0.000147411
0.0409913
0.000161917
0.0817711
0.000248498
0.00564503
0.000148503
0.0149188
0.000185691
0.000147511
0.000174649
0.000150832
0.000145267
0.000149241
0.000151616
0.000148206
0.000151399
0.000148523
0.000147379
0.000150667
0.000168692
0.0634476
0.000148489
0.000188856
0.0252493
0.000175722
0.000158973
0.000146231
0.000246008
0.0359578
0.000158198
0.000145409
0.000198319
0.000148337
0.000189891
0.000148169
0.000250731
0.000183795
0.000147428
0.000547781
0.000196722
0.000172886
0.000156776
0.0214634
0.000168862
0.0240291
0.0513809
0.000150606
0.000337852
0.000146895
0.000192993
0.00014782
0.0671466
0.000147276
0.000163946
0.0220094
0.000151426
0.000148066
0.0747426
0.000152163
0.0454924
0.000151152
0.000177119
0.0219001
0.000156844
0.00014683
0.030839
0.000198361
0.00015774
0.0534084
0.0170621
0.000148061
0.000153461
0.00016919
0.000150393
0.000148198
0.000187335
0.0863942
0.00918312
0.000150348
0.000150776
0.0377559
0.000148557
0.000168079
0.0295149
0.0352594
0.000146724
0.000149564
0.0500524
0.0446577
0.000147446
0.000219457
0.0124886
0.0106716
0.0442828
0.000147647
0.000150371
0.000149501
9.82925e-05
0.000153317
0.000428147
0.000162162
0.000148284
0.000166143
0.000146774
0.000188019
0.000148031
0.0237788
0.00016513
0.000153495
0.0109043
0.000167891
0.000165833
0.00028129
0.00014727
0.000175891
0.000152767
0.000247687
0.000176013
0.0622734
0.000164864
0.0160896
0.000151505
0.000150347
0.000240421
0.000174102
0.000145252
0.000178143
0.000175873
0.00014769
0.000171491
0.0058243
0.000149523
0.0001474
0.000149856
0.000149216
0.0761629
0.000148551
0.00022011
0.00018106
0.0818319
0.000214084
0.00027496
0.000158575
0.000205903
0.00015397
0.000147731
0.000196179
0.000149866
0.000165265
0.0212554
0.0621587
0.000213245
0.000186336
0.000157556
0.000148169
0.000219602
0.000242595
0.000156621
0.0359436
0.000158844
0.000186292
0.000147753
0.000146808
0.000149523
0.00018587
0.000187817
0.0371494
0.0506004
0.000153828
0.000148905
0.0634317
0.000149813
0.000183997
0.00014651
0.000346758
0.0459376
0.0415401
0.000171868
0.0153375
0.00576387
0.018871
0.000145369
0.00883444
0.00014755
0.020235
0.000498094
0.00014526
0.000154027
0.0295279
0.000149756
0.000148709
0.000145209
0.000162959
0.000258297
0.000149818
0.00015364
0.000178901
0.00014796
0.00591122
0.00016527
0.000146725
0.0266193
0.00959055
0.0034031
0.000233786
0.00014724
0.0293319
0.000157085
0.000184851
0.000149401
0.000144824
0.064745
0.000165202
0.067933
0.00019487
0.000349665
0.000148559
0.000166915
0.0200288
0.000155953
0.000555081
0.000153903
0.050789
0.000149094
0.000178315
0.000162438
0.0204455
0.000146815
0.000156515
0.000171838
0.000147371
0.000147656
0.000166798
0.000196975
0.000210652
0.000148098
0.000148058
0.000149781
0.00015072
0.000198373
0.000146089
0.000168289
0.000215265
0.000150351
0.0168269
0.0712575
0.0305092
0.0224478
0.000460266
0.000148547
0.000164907
0.00014622
0.000159362
0.000157613
0.0178382
0.000147889
0.000163407
0.00014991
0.000148104
0.00014779
0.000148366
0.000174568
0.000149107
0.000194392
0.00861831
0.0370986
0.0350651
0.000148265
0.0180224
0.000149848
0.018015
0.000174646
0.000157682
0.000154088
0.000146801
0.000146205
0.000149816
0.0568456
0.000161202
0.000165274
0.000183482
0.000184863
0.000147781
0.000162239
0.000214143
0.0157228
0.000163007
0.000154638
0.000148068
0.0839628
0.000279282
0.000149891
0.000146383
0.000218209
0.000147025
0.00015616
0.000247658
0.0801572
0.000149067
0.000147016
0.000158892
0.000147998
0.0769462
0.0442045
0.079531
0.000149242
0.000145328
0.000216658
0.0284239
0.000148561
0.00014876
0.000176265
0.000148304
0.000165789
0.000149846
0.0178825
0.000148519
0.000146454
0.000157915
0.000147072
0.000163048
0.000163021
0.0447246
0.0883548
0.000160351
0.000148144
0.0154703
0.00868269
0.000216481
0.000146571
0.0222404
0.000154681
0.00014806
0.000508953
0.000162111
0.000167126
0.0527256
0.000153326
0.020374
0.0494621
0.0155244
0.000165719
0.000153593
0.00015344
0.000154697
0.000148332
0.000184404
0.0182053
0.000147737
0.000148531
0.000178663
0.000148164
0.0227416
0.0181914
0.0418933
0.000147036
0.000148831
0.000151862
0.000153772
0.000147045
0.000188023
0.000148064
0.00014736
0.0430733
0.0504761
0.000162794
0.000251118
0.000236193
0.000160884
0.000238342
0.000158353
0.000166225
0.0304704
0.00020081
0.000156845
0.000170906
0.085605
0.000146457
0.000147106
0.00014975
0.014355
0.000253144
0.00016728
0.000148346
0.0483705
0.00020933
0.000165397
0.000186251
0.0209896
0.01469
0.000147674
0.000147157
0.000181003
0.00153637
0.051778
0.076449
0.000148558
0.000146875
0.0686488
0.000149231
0.000148195
0.000150272
0.000146081
0.000200143
0.000149637
0.00014956
0.000148398
0.000148389
0.0629235
0.00133518
0.00014714
0.000154581
0.0432979
0.000148582
0.000152032
0.000145012
0.000153818
0.0035694
0.0014037
0.00867211
0.000167209
0.000149622
0.00014763
0.000349625
0.000208281
0.00538485
0.000217827
0.000147858
0.000147636
0.0585644
0.000255478
0.000199367
0.000220697
0.0001591
0.000147811
0.000227538
0.0130079
0.000148666
0.000147767
0.027369
0.0348161
0.000146882
0.0670322
0.000148405
0.000148153
0.000147891
0.0651339
0.000163923
0.000213275
0.0409742
0.00014805
0.000230829
0.00461295
0.011893
0.000213444
0.000147821
0.0426225
0.000591433
0.000155772
0.0206598
0.000149723
0.000153413
0.000196023
0.000145048
0.000147455
0.000149515
0.000211346
0.00015561
0.000160594
0.000172146
0.000189327
0.000148517
0.000157026
0.000148163
0.0227454
0.0401127
0.000161772
0.000176226
0.0571332
0.000197682
0.00014589
0.0619921
0.0001479
0.00014747
0.000159253
0.000152912
0.000149502
0.000394132
0.000151474
0.000154711
0.000182572
0.000216328
0.000217846
0.000144265
0.0666803
0.000158479
0.000147708
0.0478682
0.000149016
0.000213351
0.000175922
0.000154796
0.0405307
0.000364818
0.000148701
0.000208431
0.000151064
0.000145372
0.0325383
0.000198478
0.000163281
0.0229075
0.0436371
0.00014713
0.000147653
0.000148533
0.000149628
0.0709784
0.000166064
0.046218
0.0819983
0.000165037
0.000168328
0.0568525
0.00016157
0.0182115
0.0147652
0.000307209
0.000190838
0.000148926
0.000235814
0.000161788
0.00052982
0.000220628
0.000162879
0.0414166
0.000148653
0.000279812
0.000148179
0.0435824
0.000146378
0.0472231
0.000149853
0.000160494
0.000149209
0.0248189
0.000148401
0.000147792
0.000202861
0.00014803
0.000149476
0.000156969
0.000154987
0.018189
0.000167693
0.0394124
0.000147057
0.00015287
0.000208377
0.000147767
0.0190698
0.000148361
0.00023177
0.00686602
0.000145922
0.020565
0.000148044
0.000155462
0.000148633
0.000149883
0.0208415
0.000158267
0.000147701
0.0155768
0.0496654
0.0384347
0.0219282
0.03002
0.000212152
0.000158184
0.000147722
0.000221664
0.00024769
0.000168151
0.0145206
0.000177866
0.0190845
0.000146525
0.000154928
0.000183427
0.0478224
0.000151158
0.000148505
0.0520271
0.000220604
0.000305807
0.0276473
0.000153711
0.073303
0.0461226
0.0472558
0.0729706
0.000158818
0.0599647
0.00022619
0.000148979
0.000167044
0.000148954
0.0325456
0.000153548
0.0425856
0.000149306
0.0236114
0.000119894
0.000152746
0.000193337
0.00974112
0.000152415
0.000148601
0.000147087
0.000149205
0.000164746
0.000149011
0.000147623
0.000180401
0.000161201
0.000167634
0.0266017
0.000202111
0.000154518
0.000155631
0.000162756
0.0532123
0.000130781
0.000514529
0.0567612
0.000180646
0.00324384
0.000161734
0.000190789
0.000149248
0.000156946
0.000149017
0.00014554
0.000149608
0.000148205
0.000216117
0.000215983
0.000149816
0.0214395
0.000172206
0.000144038
0.0202878
0.000147092
0.0405768
0.000158049
0.000151476
0.000149341
0.000263173
0.000155491
0.0322726
0.000148531
0.0195761
0.000191715
0.00014723
0.000149191
0.000159776
0.000145609
0.0450391
0.00702013
0.000151651
0.000159174
0.000166948
0.00018915
0.000148169
0.000180131
0.000201869
0.000146031
0.0111941
0.00014725
0.000159554
0.0532603
0.000148201
0.000149479
0.000147853
0.00017923
0.000166625
0.0196678
0.000151671
0.000135126
0.000152786
0.000147105
0.0496865
0.0185798
0.0413331
0.0148886
0.000171466
0.000182634
0.0179705
0.000167478
0.000148182
0.000147728
0.0168374
0.0763767
0.0404272
0.000147969
0.00014972
0.000160101
0.000147131
0.0608645
0.000151286
0.00470633
0.000156987
0.000156847
0.000148175
0.0316233
0.0596424
0.0001601
0.0097739
0.0103708
0.000146911
0.000162665
0.0158482
0.000149125
0.0376388
0.00018471
0.00014886
0.000154754
0.000147478
0.0700391
0.0656541
0.000358104
0.000159917
0.000180238
0.0347616
0.00018379
0.000145288
0.0501453
0.000150421
0.000148102
0.00219901
0.000162258
0.000159189
0.0049694
0.000149158
0.000153429
0.000148558
0.000147557
0.0501786
0.0225456
0.000148204
0.000159219
0.000208162
0.000242519
0.0417228
0.0238904
0.000213036
0.0161302
0.000148177
0.0167688
0.000155011
0.000148183
0.000203948
0.000145968
0.000208186
0.000198626
0.000167722
0.000145087
0.0465409
0.00016564
0.000160329
0.00015215
0.000397564
0.000165562
0.000148555
0.0432577
0.000153644
0.000154778
0.000180373
0.0206359
0.000148144
0.000149163
0.000149911
0.000158729
0.000151627
0.00028894
0.0119425
0.000165238
0.000148822
0.00018568
0.000162777
0.000155013
0.000231571
0.0132567
0.0271431
0.000147927
0.0216441
0.000273642
0.000158261
0.000147818
0.000146448
0.000148809
0.0319324
0.000149103
0.000143944
0.000146472
0.000166779
0.0261698
0.000170383
0.000149817
0.000196517
0.000134153
0.00705523
0.000145838
0.000233852
0.000151423
0.000145071
0.000150144
0.000169839
0.000171246
0.0213546
0.00023648
0.000146652
0.0178355
0.000149851
0.000149854
0.00435027
0.000205197
0.000148825
0.0438175
0.000157401
0.000272703
0.0607972
0.000189153
0.000150482
0.000148186
0.0178481
0.000146177
0.000152046
0.000159487
0.000147204
0.00172909
0.000157956
0.000150536
0.00383514
0.0791712
0.000184265
0.000205909
0.000224468
0.000148174
0.0486004
0.000152428
0.000149884
0.00018433
0.000159824
0.000172771
0.000203238
0.0785399
0.000169565
0.000148757
0.0205467
0.000170995
0.0507686
0.00014936
0.000142119
0.000148357
0.000147531
0.0676252
0.000163892
0.0592222
0.000144415
0.000151879
0.000197282
0.0600098
0.0476816
0.000151919