/*--------------------------------*- C++ -*----------------------------------*\
| =========                 |                                                 |
| \\      /  F ield         | OpenFOAM: The Open Source CFD Toolbox           |
|  \\    /   O peration     | Version:  v2012                                 |
|   \\  /    A nd           | Website:  www.openfoam.com                      |
|    \\/     M anipulation  |                                                 |
\*---------------------------------------------------------------------------*/
FoamFile
{
    version     2.0;
    format      ascii;
    class       volScalarField;
    location    "300";
    object      omega;
}
// * * * * * * * * * * * * * * * * * * * * * * * * * * * * * * * * * * * * * //

dimensions      [0 0 -1 0 0 0 0];


internalField   nonuniform List<scalar> 
37809
(
0.150053
7.06086
0.0256467
0.0283357
4.60803
0.061813
0.251111
3.97388
38.0953
6.57076
0.0837674
0.0253073
0.0282497
0.0282902
11.3808
0.0286117
0.0254432
3.38085
0.0253951
0.163257
0.0667976
0.0660174
4.32325
0.025306
0.0618833
6.74562
2.74839
0.0255686
0.0256371
3.92875
0.131328
9.16934
0.025311
1.86689
0.0251708
0.0254514
0.0248409
4.82264
0.0671597
0.122345
6.57035
9.66375
7.59759
9.2898
0.0252374
0.0309675
0.128883
5.19605
1.74996
0.0537078
0.025406
0.0253238
0.0251915
0.0257325
9.02418
0.0251967
0.0360951
0.0282392
0.0649294
0.984148
7.63686
0.0270107
0.0281726
0.0802497
0.130955
0.0623381
9.55998
0.0254501
0.0268235
3.05603
0.0276602
36.3698
0.025333
0.0282342
0.0255635
0.0248524
0.120081
0.19009
0.145057
0.237526
0.0252322
0.0256433
4.67062
0.0340651
0.0251406
10.2882
0.0264208
2.01055
0.0665906
0.0366239
4.74896
9.03206
0.0899395
9.60003
0.0265233
4.75419
0.0253403
0.0254416
8.88242
0.0251242
6.08177
0.0254464
0.0784257
3.45436
3.36127
0.0256076
4.12791
5.5339
0.224796
0.0253059
0.159346
0.0338025
0.152021
0.0271296
0.0357146
0.0659946
0.0254918
0.0253408
0.351645
7.45281
0.0256776
0.0256125
0.0408116
4.50999
8.57381
0.0254836
0.126364
0.0252926
0.035694
0.0270733
0.387407
0.184341
9.36677
0.0252463
0.286124
0.0253034
0.0254075
0.0271119
22.4245
4.96971
0.0251559
4.77621
39.8987
6.38265
0.0253331
9.61762
0.0275766
0.0268725
4.67419
0.0254365
9.49336
0.0270589
0.043883
0.363272
0.132753
0.0254532
4.29655
0.349957
0.0257686
28.65
0.0357293
0.213585
5.59133
7.71025
0.0263052
0.0247189
0.0253088
14.9209
0.0691786
0.124826
0.380603
0.0251338
5.49227
0.0267677
0.0269933
0.0295655
3.34846
0.0365742
4.42349
0.0865973
7.32878
0.0256358
0.0251949
0.0256489
0.0247083
0.224221
0.0256425
0.032234
2.14274
20.1089
0.0537253
0.0253405
0.0254081
7.23631
0.239035
1.86322
0.0253233
0.0246151
0.0251751
0.0277748
33.9463
0.0888793
8.91897
0.0870618
7.39288
0.0247145
0.0269375
0.0744387
0.0253113
0.0948698
0.0747736
7.2184
0.0251454
0.025337
0.0252811
1.44787
0.0658918
0.025118
0.0251424
0.175075
9.91329
2.81816
0.025612
0.025654
0.0252368
3.63273
4.35812
0.122772
0.0327233
4.69112
0.0256196
0.217021
0.194391
0.0268309
0.403844
1.58646
0.0251156
3.65892
0.0262652
0.137611
5.06612
0.0251401
1.67185
3.62748
0.0252364
0.0253645
0.0256539
0.0247149
0.126426
0.0247065
0.0254674
0.025319
0.0253989
4.52565
0.0253322
0.0253269
0.0246106
0.0254027
3.34813
5.2624
0.336432
0.0254144
27.6329
0.0256264
10.3149
0.0825005
0.13471
0.0395524
0.0253292
1.64366
9.40815
0.0252808
4.67523
1.73718
0.0253248
0.13979
1.60191
0.0254619
0.875222
0.0253966
0.0253419
14.5294
12.2887
0.0252925
0.144202
0.0253611
0.0253266
0.0254183
0.025323
3.59313
0.0253461
0.0446289
36.4077
0.0251907
0.0252872
0.0319176
0.179512
7.00809
0.0253275
29.9661
0.0436331
12.4454
0.0248596
0.312919
8.73613
0.0342646
0.0256394
0.0277103
6.2326
0.0251433
0.120346
4.62525
9.72909
0.0614193
0.0256696
4.36961
0.0270246
0.0254086
25.4399
36.1392
0.0786656
2.88544
0.050223
0.0276181
8.13873
0.0654605
9.57204
0.025328
0.0256398
0.256958
0.0251213
0.0248585
0.0253426
6.04239
0.0248577
0.0252396
0.048438
0.0253975
0.025371
0.0799733
0.025263
0.0282769
5.03301
2.95289
0.0307442
0.259095
27.2618
0.0254666
10.4171
0.0276193
2.70787
0.262875
0.0253066
0.0254448
16.3667
5.93358
0.0247125
0.175344
0.0253225
4.39974
3.8395
0.0298
8.14513
7.24542
12.5183
3.66057
0.0484014
0.0289298
0.028112
0.0252796
0.0283115
0.0871344
0.0638207
32.9845
0.0750911
0.0249649
0.08006
0.0247059
9.25315
5.74718
0.0253256
0.0269951
7.706
0.0412136
4.01527
0.0473011
5.83726
0.039591
25.2981
0.0248841
0.0254017
8.45955
0.025646
0.025441
0.0293196
0.0693871
8.06258
1.24095
0.0321909
0.0256463
4.51437
0.0927632
0.0248804
0.0253622
0.0252405
0.10956
0.025149
3.65222
5.24115
4.86878
0.0690809
0.0327684
0.0775354
0.0256398
0.0248402
0.722445
1.3619
11.1179
0.0256648
0.0253616
5.56572
0.0664016
0.392082
0.29974
0.0254123
4.20807
0.0256696
0.0366072
0.032874
19.2424
0.0251551
0.0826556
0.0282893
0.0270361
5.12409
0.025607
9.11308
4.76029
0.059
0.0251281
0.0261729
0.563629
0.0552637
0.0517799
0.0253356
0.0250622
4.76642
0.29615
0.0484082
0.207559
0.0415774
0.0249619
0.0271253
0.0253995
0.0253632
0.0252967
0.0248456
0.0253729
8.8787
0.0252581
0.0256407
0.0296404
0.222991
3.47501
8.75808
7.7065
0.0272988
0.037171
4.36998
0.0253515
0.0338258
0.0251518
0.0254661
0.0251985
0.0603987
0.0251446
0.056842
8.53702
0.0408424
0.025404
0.0252724
0.0253229
0.0315624
0.0247104
12.2892
0.0253458
0.0459934
0.268052
6.05349
0.0253729
7.8683
0.0481351
0.0856972
0.0254477
0.0799757
4.53341
0.0247081
0.0420929
0.0588552
0.0469882
0.154944
0.337793
4.9111
9.76587
0.0289684
0.0348323
0.0659674
10.7669
0.0253959
0.0254065
0.0248358
0.0251413
4.46424
0.034864
0.0267498
1.21351
7.20805
0.0257952
17.3672
0.0292241
5.3981
0.21058
0.0254623
8.72037
0.0269065
0.0268554
0.33571
3.93276
0.0522061
0.171416
8.53486
0.0262777
0.317763
0.0619597
0.0256697
0.024849
0.0251406
3.68506
0.0253487
0.0254125
0.116716
0.026839
4.43852
0.215806
6.24738
0.0255567
0.025348
25.5263
0.138263
0.0256763
0.0305772
0.0496044
0.0254609
0.138311
4.9743
0.0321472
0.0253938
0.192388
1.63026
0.039551
0.152306
9.71821
0.109513
0.0248486
10.059
0.0330836
0.0825128
0.0254243
6.05185
0.304716
0.0256706
10.8286
0.0253362
0.0256193
0.0251171
0.0254008
4.13746
11.8413
0.0248641
0.0247094
0.0292517
0.0388348
0.0671862
0.209388
8.38027
8.719
3.67994
13.6448
7.62749
3.64769
0.0253472
0.0253321
0.0279252
10.8379
0.0256769
0.0253971
0.0248721
4.99945
10.998
0.0252527
0.0253808
0.025672
7.75089
0.0476134
2.71783
0.0256642
0.0951629
0.0273755
0.0825077
0.0774534
0.0251802
7.78022
0.025374
0.157353
0.0253777
0.0258415
0.0254647
4.75151
3.63509
4.03176
0.025467
4.28128
3.70838
0.0263054
7.85332
0.142114
0.118744
0.0253386
0.0253247
0.0253227
2.05562
7.35414
0.0508065
4.13707
0.0255749
0.025334
0.0430099
0.0375657
0.0251389
4.52284
0.0294239
0.142105
0.196236
38.6885
8.25258
3.25006
0.346527
0.0253365
0.0248569
0.0284292
0.0254068
0.036795
5.88906
0.0253257
34.6832
0.230125
4.31823
0.0283664
5.06631
0.0471266
8.15687
0.0270094
0.0254169
0.0352757
0.0253519
0.028149
0.398646
1.04663
16.8704
0.312041
5.8626
4.73699
0.0460966
0.0253381
10.0076
0.0247174
4.28145
6.19735
0.0253417
0.0305671
0.287942
3.66223
0.0261218
0.0256554
4.60655
37.068
4.20289
0.0253157
21.5354
0.0253176
0.335214
0.0464992
0.0260702
0.0808306
5.48442
0.0254036
0.0253905
0.0253123
0.0251341
0.239636
4.05255
4.37259
6.46561
0.0253683
9.64776
0.036475
0.133066
2.39231
0.0280317
9.54123
0.0262558
0.0265521
4.449
1.08344
0.133767
6.04127
4.05736
0.0591785
10.5538
0.180055
0.0255665
4.46405
0.0339387
0.0417695
0.0320539
0.0318362
0.0468552
0.0272211
0.0372638
0.172164
0.034881
0.0293871
0.0298898
0.0826458
0.0276788
0.025305
0.0255303
0.025313
0.0256127
0.349926
2.4564
0.0256876
0.0251499
0.0506277
4.41102
0.0256019
0.0290895
0.0638428
0.268582
0.0256456
0.0255454
0.0277017
0.0797264
0.0272255
0.0252275
0.0251638
11.3099
4.05549
1.23031
0.0352705
0.0256392
0.0253734
0.0343148
0.025398
0.0253044
0.0304686
5.27153
0.0662752
3.93641
0.0253485
0.0293269
0.0873786
4.00015
0.0801964
28.0882
1.53054
9.30028
0.0248379
0.0253815
4.1823
0.170619
0.0469991
0.0781841
4.8247
8.18824
0.265192
0.0257205
0.206699
4.27426
0.0304758
7.72124
0.079134
2.18733
12.5775
0.298133
0.0773931
0.0262867
4.01095
0.0251505
3.80603
0.0306377
0.0251319
0.0253788
0.0248522
11.7567
0.0248623
0.115925
0.0253236
0.0390286
0.309454
0.035302
0.0253263
4.50273
0.159582
0.0253524
0.0253922
10.1961
0.0636604
0.0340716
0.161532
0.0288427
0.0287959
0.0249654
0.21491
4.24039
4.18566
4.54623
0.161929
0.115781
0.0644661
0.3479
0.0268397
5.30085
12.0812
0.22235
0.0252975
0.0287307
0.222162
0.0255685
4.21159
5.14012
0.216094
0.0254026
0.0776197
0.0252973
0.0519837
7.65239
0.0253082
0.331059
7.51705
0.0253656
0.0401159
0.045769
0.0246826
0.0397221
4.14034
0.0480185
0.0440009
8.0678
0.0780296
0.0261696
0.0280762
0.025163
0.037569
0.0249675
0.0254024
5.59932
0.0443255
0.0283095
0.0262067
0.0248529
0.0262583
0.0247629
0.19019
0.250628
0.0267953
0.311737
7.80909
0.0251097
0.190616
0.0253031
0.0293611
0.0256392
0.0256148
4.12642
0.0304154
26.5163
0.0253888
0.0260674
1.03756
5.25926
0.0254665
0.0342219
4.72375
10.0535
0.0256463
14.5859
0.0319762
0.0525804
0.229955
0.0281683
35.5741
0.0316553
0.0253204
0.0252328
0.0251671
0.0260791
0.0267803
9.47568
0.1172
0.0343011
2.47448
0.102569
3.88283
0.0397076
0.0255518
0.0506061
4.69234
0.0335845
0.0467497
0.031609
9.92943
0.353328
0.0280968
0.0399381
0.0262959
4.42673
0.0254617
0.241448
0.0251038
0.0344699
0.0275213
8.74888
0.0288138
0.104724
0.0344984
0.0768026
0.0248401
0.242677
0.15859
0.0400002
0.0246859
0.07955
5.23233
0.725888
0.0249132
0.028345
6.76128
3.27489
5.17883
0.0253909
0.0559556
0.0256447
0.0547449
0.338647
1.24437
0.0295509
0.156953
0.0375117
0.0253315
0.0256231
0.131407
0.025329
0.0253128
0.0262391
0.152906
1.71563
0.0399126
0.0250645
0.0247736
0.0248374
0.0332058
0.0254006
0.107331
6.28549
0.0248439
7.96823
0.0254123
12.3634
4.90262
0.0442178
0.0279807
0.0495905
0.0253444
4.68295
0.025021
0.22898
0.0286001
0.0253538
0.234507
0.0493066
0.0252449
5.72918
0.0604612
0.0296834
0.026979
4.47942
0.0801837
8.55598
0.0253773
0.0660241
0.710978
7.22918
0.025139
0.029974
0.02513
10.6366
3.89033
3.69623
4.22835
0.0256768
0.0394712
0.0264583
4.7081
1.17218
0.026439
0.118408
0.0253276
0.0340019
0.0251317
0.0253313
0.0251979
0.0273031
9.2161
0.0253299
0.0461483
0.219114
0.0253334
0.0256713
0.0448385
5.00769
0.0306778
0.118243
0.0252173
3.88677
3.73151
0.0253651
0.321071
0.0495815
0.0461361
5.09754
0.0373397
0.025388
0.297859
0.178468
0.0263729
1.33434
0.118049
0.212136
0.0297786
0.0247094
0.238387
0.0848753
0.282654
0.0251344
8.2602
0.0459909
0.400444
0.0362352
0.0249236
0.0256783
0.0251329
0.0253949
0.0255808
0.0270944
8.06652
0.0350537
0.0256158
0.031807
0.0319578
0.025258
4.41488
0.0322595
0.152437
0.0362918
0.0262499
4.30939
0.112791
0.0793871
5.09742
4.65159
0.0250985
0.0608963
0.1309
0.102149
0.119571
2.90515
0.0247089
0.0253631
6.47296
0.0255301
5.01523
0.20249
0.124624
0.0320306
0.0319524
0.0252484
0.0251508
0.0253202
0.0253355
0.0254268
0.0253391
11.6319
0.0253596
5.26287
0.0257778
0.0638768
4.22859
0.0256731
0.0254076
0.206545
22.2397
0.165687
0.0256439
7.60174
0.0256385
0.0253621
0.0262383
1.47646
1.35614
0.256882
10.1533
3.97317
0.0329341
0.12251
0.0250205
0.0253986
9.15761
5.41052
0.157472
0.0401787
0.0262634
15.4374
0.117988
7.05404
0.0251741
0.228125
0.0261922
0.0269125
0.033672
0.156351
37.7084
0.028834
0.388411
4.09875
29.2474
0.025345
0.0295327
6.30633
0.0270143
6.48273
0.0281077
0.065931
0.046538
0.0624683
8.42853
0.0250977
0.0253081
0.0461423
0.0825201
8.39915
0.025628
5.90482
0.0262581
9.42249
4.69754
0.160649
0.0253965
0.025259
0.155835
6.35288
0.024741
4.94029
0.0262771
4.20235
0.0298115
0.0316361
0.025361
0.0474262
0.070374
0.0299266
0.0313401
0.0251296
4.85501
0.0414053
0.0247551
0.0419668
8.86571
5.40928
0.0298189
5.52247
4.67809
0.060142
0.246394
0.0341489
0.194226
0.0252349
0.120117
0.0262083
7.3662
0.0255385
0.0254914
3.29968
0.28953
0.0271603
1.90945
0.0247423
0.025418
6.47115
0.0251534
1.42656
0.050123
0.0253357
6.04575
0.342538
0.155232
0.0253895
0.0358744
0.151932
0.0255435
0.0283424
7.27886
4.63807
0.0473368
0.112841
0.025404
0.0296526
0.151156
4.59511
3.69439
0.061526
0.0357772
0.0262798
1.75499
0.151263
0.0603768
4.52004
0.0252201
0.131809
0.155132
0.0249212
0.0255194
0.154907
0.0256618
8.63563
0.278542
7.52237
0.0252895
0.0255426
4.74368
0.0255748
12.806
8.12056
4.41498
0.119541
0.0252628
0.0268715
3.81163
0.0337689
0.0252386
0.0327159
0.0261993
4.50412
12.3709
0.0296577
0.0255405
0.0253873
0.0250976
4.89827
0.797805
0.39415
5.09643
0.0253215
0.0253076
21.7807
0.025294
0.0830975
0.0315692
9.6984
9.25815
0.0526763
4.72417
7.63759
0.0251553
0.0403279
0.122154
0.0296693
0.0256453
0.0336068
0.0295353
0.0782661
1.14058
11.3956
0.0252862
0.0252522
4.30097
5.45547
7.46104
0.300638
0.0338077
4.13637
0.0247678
0.233947
4.29798
0.172206
0.0254012
0.0847696
0.024783
0.0254104
0.0251712
0.0251393
0.0261229
0.035501
0.0469402
9.69811
0.0253342
0.024686
3.97244
0.281768
0.0614601
4.30146
6.7747
6.69514
0.0253995
0.0256696
9.98035
0.0477036
0.0929365
0.026356
0.0252843
0.0254626
0.0249229
0.0263155
0.0800259
5.33256
0.0254882
0.0259499
0.0339754
0.0259297
4.46768
0.0500781
0.111093
7.04636
0.0911708
0.0253664
4.71401
8.45458
0.099999
6.36559
0.0278397
0.0436484
11.5855
0.15282
9.99888
0.0301671
0.025365
11.2467
0.119332
0.0256295
0.0254247
0.0470563
8.75322
0.0252049
0.0248793
0.0256237
0.0248807
0.0250679
4.58502
0.279857
0.0252769
0.0308616
0.0823988
0.0253614
0.0295506
0.0256241
0.0247174
0.0253798
0.0435602
0.0303655
0.0254977
0.0307089
0.0256303
9.96245
0.0267639
7.6007
0.560619
4.50766
0.089219
0.0246898
0.02563
0.0251718
0.21689
0.0251383
0.0248904
3.53596
11.5466
0.311781
0.0249467
0.127175
0.591506
0.025495
3.84807
0.0280194
6.85875
0.0253424
0.260234
13.4998
0.0258407
0.0253954
4.46147
5.06618
0.0783129
3.88029
0.875011
12.1765
9.86781
6.33665
0.0253541
4.69968
9.03372
5.23673
0.0256533
1.36845
0.0252872
0.02465
4.39795
0.0256451
0.0914876
3.37209
0.0249542
11.0978
0.0952074
5.07314
0.037229
0.0261148
0.0535893
0.0251395
0.0254218
0.05512
0.0371037
4.58693
0.0249954
6.15769
6.3866
0.0566211
5.07405
0.0469017
0.025327
9.24765
0.0253799
4.66835
8.17461
4.28088
5.21869
4.72705
0.0795723
0.186327
0.0279507
5.21437
0.0255741
0.0254645
0.102364
0.0255381
0.0514919
9.28239
0.0256191
1.3238
0.0282541
0.0261718
3.64402
0.0280784
0.0253783
0.0435847
3.28135
0.0281351
0.111917
0.0256111
4.2666
0.0253166
3.60168
0.025253
28.6551
0.0891942
0.528873
7.7681
0.0264379
0.19172
0.0255799
0.832216
0.0260042
0.0249635
0.179729
0.0253451
0.0256653
4.14792
0.0250823
3.65735
0.0252814
0.0250675
0.0254123
0.0450997
0.31738
0.0252446
0.332319
0.0253591
0.025177
0.0283772
0.0404387
0.0755132
0.144033
4.84617
0.0321168
0.02563
0.0256679
0.0253891
0.0281067
4.36808
0.0251345
0.0258284
5.27194
0.025612
0.0321541
0.0253426
0.0255431
4.41769
0.0249768
0.0273213
0.0252972
0.0252536
0.025543
8.32633
0.0262106
26.4173
6.54821
0.0556456
10.3414
0.0349736
0.0256246
3.12929
8.01846
0.0250642
0.0252874
0.0556816
0.064544
0.0255726
0.0843724
0.0256583
0.0256775
0.0251512
8.18809
0.025466
0.187486
0.0302679
1.73452
6.01529
0.0258495
4.11864
0.0253988
11.1887
0.257062
0.151191
0.0601291
0.115574
0.0261803
10.0784
0.0781346
0.0250242
0.0251487
0.0256838
0.315677
0.0755685
0.179274
0.260949
0.025639
0.0251469
4.13599
0.0253737
11.1917
0.0454982
24.4166
0.0664815
0.0282008
0.0304985
0.0404186
0.0254613
0.0257458
0.0252695
0.0254184
0.0253235
1.37206
0.0376855
0.0728703
0.316055
0.0260003
4.27516
0.0668564
0.0271639
6.51372
0.0268017
0.217309
0.122569
0.0291031
4.07734
0.692457
0.0253822
5.55106
0.0250849
5.41933
0.0254603
0.0254255
5.26582
0.0871718
0.0253415
0.0306268
0.028029
0.512238
0.0407849
4.77692
0.0254627
0.232658
24.844
0.0576674
0.0253347
0.044994
7.31749
0.0350573
0.0264242
3.6865
0.0256642
14.4926
6.104
0.0624134
0.0253425
0.0251275
9.45457
0.332393
1.35357
0.0448303
5.16431
0.0407871
0.715577
0.0617799
5.79153
0.0454952
19.6336
0.154649
1.37905
0.0253645
0.0250619
0.121716
0.0440227
1.32939
33.2459
0.057565
24.7251
9.98183
0.0364453
0.0272039
1.59229
0.025091
0.07704
0.026367
0.0249565
38.4811
0.0250559
0.0652888
0.0253625
0.0256396
0.0253271
9.829
4.13454
0.532201
0.0252124
4.28431
0.041313
8.94222
0.333873
6.71748
0.0253715
10.9758
0.165247
0.0250726
0.061391
0.026333
0.0247816
0.025578
0.0267946
0.025404
0.0266426
0.0253749
0.0252433
0.0262001
0.0426356
4.21413
0.0253691
0.0829281
5.44724
0.159957
0.0316353
0.0250825
0.336916
4.94454
0.0296573
0.0248025
0.123675
0.0253315
0.084095
0.0252921
0.370328
0.0804087
0.0251028
4.49151
0.463164
0.0457512
0.0305348
9.71547
0.0898963
6.78141
7.38421
0.026203
2.86239
0.025198
0.0935528
0.0250984
4.36321
0.0252423
0.0347574
8.79045
0.0266523
0.0253555
4.84676
0.026979
3.52094
0.0264999
0.0798668
4.12206
0.033044
0.025181
5.61956
0.487454
0.0293035
4.24689
10.4093
0.0253578
0.36783
0.0568512
0.0260959
0.0254001
0.662319
8.39185
7.08767
0.0260692
0.0263053
9.19312
0.0254663
0.0476732
9.32034
4.85444
0.0251677
0.0256307
4.08777
3.47075
0.0252808
0.216763
12.441
3.61499
7.45484
0.025301
0.0260812
0.0256205
0.371308
0.0283691
4.25245
0.0479379
0.0254215
0.066218
0.0251779
0.114223
0.0253616
5.89445
0.0548103
0.0271718
10.3793
0.0472614
0.0664952
2.06661
0.0252415
0.16537
0.0273931
0.346161
0.084374
4.15355
0.0540181
10.1738
0.0267693
0.0259418
0.313587
0.0728541
0.0249156
0.084596
0.136318
0.0251411
0.0594592
9.87839
0.0256243
0.025213
0.0256773
0.0255741
5.85693
0.0254654
0.259447
0.229165
7.01229
0.191246
1.53235
0.0331089
0.24139
0.0288452
0.0253368
0.106025
0.0258245
0.0608353
5.7769
4.60682
0.18491
0.0751707
0.0305002
0.0253049
0.233036
0.315869
0.0304374
3.41198
0.0334422
0.130321
0.0253406
0.0251317
0.025624
0.0767482
0.114251
4.70885
7.42693
0.0284134
0.0253913
4.79372
0.0256706
0.135345
0.0250148
3.2431
30.6583
5.21719
0.118521
12.5673
34.6531
11.2234
0.0249344
23.6128
0.0250728
7.39121
1.79219
0.024918
0.0290531
4.14429
0.0256616
0.0254956
0.024889
0.051498
0.967304
0.0256713
0.0268381
0.202392
0.0253686
31.5057
0.062593
0.0251629
6.74154
28.2739
3.76585
0.293369
0.0251452
4.93028
0.0318211
0.0956029
0.025296
0.0248259
4.25006
0.0551841
7.18931
0.131014
3.01628
0.0254667
0.0471642
8.13093
0.0315657
3.84779
0.0269101
5.15807
0.0255549
0.0645569
0.0390912
8.02354
0.0251841
0.0288208
0.0435679
0.0252607
0.0253053
0.0729247
0.141436
0.173064
0.0253414
0.0253582
0.0256896
0.0262518
0.485261
0.0249739
0.0422058
0.196959
0.0256535
10.5214
5.23971
4.27346
8.47212
4.21391
0.0254647
0.060266
0.0249068
0.0316788
0.0339051
12.2186
0.0253567
0.0492427
0.0258456
0.0253404
0.0253236
0.0253379
0.0615074
0.0255271
0.0993436
22.6236
4.61142
7.36476
0.0254203
8.35156
0.0258162
12.1216
0.0607032
0.0304469
0.0290659
0.0251761
0.0249037
0.0256708
3.96921
0.0395804
0.0365481
0.168026
0.0956426
0.0252826
0.0330959
0.191306
3.90333
0.0271272
0.0271687
0.0253594
9.99301
1.61284
0.0258329
0.0250996
0.225244
0.0251808
0.0318476
1.14861
5.28933
0.0255506
0.0251765
0.0311939
0.0253751
5.00918
3.95885
5.26522
0.0255584
0.0248913
0.202897
4.67297
0.0254669
0.0251655
0.0845889
0.02543
0.0645376
0.0256756
11.3557
0.0254601
0.0249016
0.0348433
0.0251071
0.0517481
0.0478048
4.19414
8.27465
0.0327681
0.0253934
10.0929
10.5755
0.218352
0.024856
9.04429
0.0295842
0.0253477
3.99054
0.038752
0.0725901
13.5144
0.0283706
7.94398
4.84663
11.0691
0.066608
0.0281941
0.0278292
0.0298428
0.0254346
0.127949
10.1911
0.0253195
0.0254618
0.0649234
0.0253972
8.39299
9.19524
3.63657
0.0251549
0.0253686
0.0270313
0.0285563
0.0251204
0.323776
0.025353
0.0252583
3.71497
4.21611
0.0507973
0.374773
0.318126
0.0389452
0.785427
0.0312286
0.0481104
4.14825
0.137439
0.0300677
0.108697
7.84681
0.0249052
0.02521
0.0256603
16.3233
0.967832
0.0474661
0.0253458
3.68491
0.172518
0.0644076
0.0778593
9.85351
8.3848
0.0252781
0.0250999
0.0595021
3.82297
4.3513
4.95328
0.0254666
0.0251943
4.55625
0.0255701
0.0253998
0.0259125
0.0250585
0.154956
0.0256425
0.0256299
0.025352
0.0253543
5.31635
2.58347
0.0251015
0.0297707
4.25157
0.0253891
0.0269291
0.0248749
0.0283925
7.1404
2.35528
6.30159
0.0473908
0.0256397
0.025203
1.13995
0.166422
13.6398
0.206437
0.0252062
0.0252721
5.43124
0.938002
0.149622
0.905475
0.0379348
0.0253206
0.640015
5.77023
0.025301
0.0252796
6.49131
4.43982
0.0251965
4.64873
0.0253536
0.0253354
0.0253595
4.311
0.0439253
0.194701
9.46212
0.0253862
1.0646
6.56757
4.96814
0.204729
0.0253511
3.51899
4.55129
0.0281222
9.42145
0.0256563
0.0283988
0.136234
0.0248806
0.0252816
0.025625
0.234071
0.0279899
0.0423349
0.121482
0.0821952
0.0254599
0.033451
0.0253356
7.78955
3.68082
0.0326248
0.0834154
7.26187
0.474136
0.0250084
4.50943
0.0252133
0.025109
0.0381708
0.0279232
0.0256211
3.37035
0.0259817
0.0299052
0.0631044
0.199088
0.206743
0.0247172
4.58072
0.0360448
0.0252907
4.69316
0.0255433
0.185434
0.163925
0.0299549
3.5324
2.62741
0.0254131
0.197653
0.0259316
0.0247883
5.46491
0.124438
0.0528781
8.00978
3.86733
0.0252139
0.025271
0.0254623
0.0256405
6.02686
0.0550671
4.15628
6.4329
0.0453269
0.0411764
4.34952
0.0405835
8.41347
4.94855
2.44358
0.0859114
0.0255282
0.364664
0.0465488
4.04745
0.908324
0.0504552
4.28015
0.0254053
1.71323
0.0253965
4.20894
0.0250857
4.61893
0.0256767
0.0313554
0.025437
5.79841
0.0253541
0.0253461
0.161133
0.0253637
0.0256159
0.0290402
0.0293119
9.75056
0.0402739
18.1621
0.0251581
0.0278945
0.161136
0.0253255
7.6426
0.0253518
0.340363
27.3215
0.0250117
7.71507
0.0253562
0.0305627
0.0252931
0.025836
7.67519
0.0347356
0.0252876
10.4533
4.42808
3.55838
6.06573
4.63239
0.179387
0.0344288
0.0251144
0.931704
0.338239
0.0393806
4.89611
0.131189
9.71451
0.0248496
0.028189
0.0683014
4.09201
0.026536
0.0253722
4.26047
0.874282
1.03012
5.03818
0.027991
6.27785
4.18481
4.3043
6.30476
0.0315258
4.88809
0.27844
0.0255374
0.0473231
0.0255327
5.9773
0.0283742
4.3443
0.0255892
5.31001
1.13967
0.0277737
0.0999681
26.1629
0.0263506
0.025474
0.0252201
0.0255624
0.0606845
0.0255426
0.0251957
0.0645238
0.0398709
0.0378824
6.40978
0.132141
0.0289352
0.0298079
0.050481
4.21097
0.939056
3.84336
4.41679
0.0585864
6.66163
0.0270085
0.365152
0.0255794
0.0290259
0.0255424
0.0247907
0.0256375
0.025399
0.209752
0.208949
0.0256709
7.499
0.0451832
0.0246585
11.0012
0.0251025
4.39583
0.0311338
0.0262884
0.025595
1.37
0.0306333
5.17835
0.025462
4.05157
0.0893606
0.0252446
0.0255645
0.0356881
0.0248182
4.18283
37.8861
0.0259676
0.0380138
0.0376655
0.0845849
0.0253894
0.112494
0.131552
0.0249598
10.5845
0.0252481
0.0314355
4.33858
0.0253099
0.025671
0.0253386
0.05562
0.0578721
9.48704
0.0268959
0.27811
0.0278041
0.0252235
4.11092
9.94778
4.08892
14.073
0.114238
0.0660103
7.41749
0.0382968
0.0253387
0.0253162
11.3108
6.65442
4.44322
0.0253727
0.0256554
0.0360461
0.0252025
4.63036
0.0262957
7.19123
0.0333765
0.0330012
0.0253979
4.42267
4.67627
0.0374369
22.1206
28.0114
0.0251523
0.0501992
11.81
0.0255337
4.48159
0.0791621
0.0255177
0.0278734
0.0250618
4.55378
13.2063
1.30998
0.0400844
0.220551
4.34427
0.138162
0.0247871
4.34843
0.0261055
0.0250001
26.8003
0.0330562
0.0335906
5.69206
0.0255652
0.0271042
0.0254665
0.025299
3.7367
8.39219
0.0253988
0.0379339
0.261892
1.28807
3.35375
7.71176
0.18429
9.34102
0.0253962
9.35158
0.0282181
0.0253382
0.13828
0.0249536
0.26083
0.144432
0.03988
0.0248575
4.16424
0.0527085
0.0414716
0.0272137
3.14526
0.0562555
0.0254658
3.40736
0.0285327
0.0291468
0.0623327
4.10013
0.0253025
0.0255449
0.0258478
0.0311341
0.0268714
1.61575
4.92056
0.0420578
0.0253404
0.166233
0.0394602
0.0279623
1.51882
5.30891
4.79547
0.0253633
8.96181
1.3029
0.0306627
0.025286
0.0250968
0.025409
5.42967
0.0255268
0.0246573
0.0251011
0.0540566
4.28746
0.0466625
0.0256712
0.115655
0.272342
37.7309
0.0249985
0.277917
0.0267184
0.0248044
0.0257465
0.0546636
0.11147
7.99908
0.319342
0.0251504
7.09678
0.0256763
0.0256769
9.17419
0.233423
0.0255121
5.19254
0.0341439
1.48755
7.29497
0.0844683
0.0261307
0.025394
8.61613
0.0250733
0.0260805
0.0316307
0.0252418
12.8437
0.032416
0.0257178
7.39157
5.69665
0.0778254
0.240405
0.298123
0.0253372
4.36369
0.026356
0.0254802
0.140696
0.0357363
0.0946418
0.135241
5.12586
0.0566123
0.0254118
7.333
0.109413
4.04247
0.0253961
0.34602
0.0253464
0.0251454
12.6725
0.0379018
5.31914
0.024717
0.0270714
0.11291
5.08409
3.67434
0.0260434
5.10645
0.025066
0.0263011
0.0277682
0.0310581
0.0253835
4.99679
0.0275642
0.033957
0.025247
8.55635
0.0268383
26.1276
1.00783
0.0250701
0.186235
0.0653272
4.65781
0.0255182
0.0253066
0.0253985
6.36083
0.0252069
0.0737957
0.0252508
0.0392827
0.0251218
6.94392
0.0311026
0.0465484
9.7562
0.0248336
0.0812124
4.1487
0.317266
0.200975
0.0257396
6.13542
0.0253181
0.025544
0.02528
0.0267486
0.0495352
5.6532
0.0247576
0.0297062
4.69939
6.09658
0.0253309
0.0296322
5.35687
0.0254112
0.0284089
0.318482
0.0253295
0.0335239
0.0252892
0.02486
0.0251598
8.6778
0.0430127
0.0251608
0.0264989
0.0254726
0.0322575
0.0255385
0.0313817
0.0253041
4.3881
0.20279
0.0254949
4.65922
0.0275342
11.2102
0.0283509
0.102546
8.69268
0.0246731
0.0454245
0.0253302
0.0256758
0.0253154
0.122149
3.62456
0.0249206
6.00888
0.21852
4.13927
0.0260458
0.0248659
0.0294192
0.0802001
0.0256458
5.61527
0.025214
5.13408
0.0253103
0.0256394
0.0248242
8.89524
9.39782
5.82317
12.5742
0.0256021
0.927052
6.34714
4.18796
4.39045
0.0251417
0.0446497
0.0299285
6.18856
0.0626087
1.09636
0.0481736
6.63747
0.0255122
0.185787
0.205185
3.35368
5.02508
0.258101
0.0301062
0.104591
0.0329506
5.54197
0.342562
0.0255374
0.0451855
0.0580368
9.39342
0.0278525
4.14047
0.0250698
2.31898
0.0261429
0.0250247
0.0331938
6.48925
0.0250543
3.78669
0.0396624
0.0254869
0.0851292
0.0249994
0.0585887
6.35892
3.7911
5.4227
0.0625455
0.0330212
8.89078
7.57382
0.0256768
4.14846
9.54871
0.31643
0.102308
0.025219
0.0267581
0.0251112
0.0313177
4.13376
0.0251093
0.0262676
0.0268091
0.0248262
0.223682
0.0632609
8.99462
0.0255585
0.0253342
0.0256704
0.0247029
0.0254549
0.218419
0.131822
6.7815
0.0247761
0.0843764
0.105195
0.0252017
0.0253991
0.0250301
4.12531
0.04742
0.0302056
0.025276
0.0248019
3.70801
0.0256458
0.0261039
0.029081
8.04259
6.59978
0.0836526
0.0253348
0.026853
0.0256612
0.0248414
0.0251989
7.81116
7.82743
4.50106
0.0251825
5.32249
0.0256165
0.992746
0.0254088
0.0277222
0.607653
0.0627646
8.6974
13.2963
2.381
0.111535
0.0522516
4.09202
0.0520331
10.3912
3.80615
0.160913
13.1857
0.0250955
10.3354
0.0250827
0.0391368
1.41688
0.371083
29.0322
0.261176
0.0350758
0.0265679
35.2194
14.5649
0.153338
9.02783
0.0264127
0.0254459
3.37634
0.0320456
4.00658
3.80967
0.0264503
0.0255207
5.90555
0.0917214
0.267733
7.93959
0.0254461
0.122923
38.0578
0.0403302
0.0251771
0.0360797
6.59019
6.5566
0.0252164
1.13522
0.0252846
0.025464
8.87194
0.0885114
0.0249926
0.0251811
0.0815528
7.92683
0.0362803
0.0253277
0.140184
0.0249351
0.0255658
1.36547
0.0267012
0.0408739
9.81765
0.0251094
0.0312605
0.0254403
5.69455
4.08251
0.103814
0.0255648
0.0342549
0.0943982
0.0256302
0.0255731
0.040603
0.0297866
3.49367
0.025069
4.56898
0.026869
11.216
0.0805104
0.0253505
8.36728
1.36769
0.0254036
0.0254608
0.180444
0.0572927
4.82888
0.0305284
0.0252071
0.0279977
0.0633576
3.31119
3.72182
4.73694
0.696156
0.14915
4.43308
0.0254614
0.0330204
0.0593807
4.70968
0.0277453
0.206054
0.0254663
5.05495
0.0615336
0.0250309
0.0251351
4.31611
0.0255167
0.0268885
5.64734
0.0376509
0.0252207
0.0255346
7.23646
0.15655
4.5146
0.0417017
0.0247667
6.69306
1.31103
0.0270236
0.0339937
0.0249286
0.0252253
4.08839
5.01557
0.281362
0.3691
0.0247527
0.0247093
0.046774
29.525
0.0252251
4.19422
0.0253353
0.0266835
0.0520078
0.243813
0.0252995
4.71702
2.18164
0.191012
26.6406
0.0696865
5.66381
0.0338359
0.0253362
0.489102
0.0249389
0.0324541
1.39069
0.0249301
0.0254325
0.0249522
0.0864914
0.0276358
5.70157
0.0253408
0.0555027
0.0251707
0.0256179
3.51531
0.0310802
4.14768
0.025361
0.0424272
9.22873
5.34634
0.0254076
12.6742
8.01567
0.0246995
4.26593
0.0274355
10.9452
0.165239
0.0297099
4.10581
10.3753
0.317672
0.161097
0.0262134
0.0406362
0.041186
0.15172
0.0692111
0.0796521
0.0270659
0.0252211
0.0341282
0.0892285
0.0259394
0.0255166
0.0284018
0.147704
4.11414
5.52102
4.00772
5.59592
0.0407987
10.5504
18.2022
29.0155
8.60124
0.171617
0.0333535
0.206007
0.0291255
0.0253613
0.0547472
5.65634
0.0267409
0.0252846
3.99544
0.110718
6.60607
0.0261923
0.0255514
0.222246
0.0256295
0.026028
0.0252248
5.75709
0.0474939
0.0354821
8.10996
0.0249173
0.295041
5.84466
9.37694
0.0247831
0.025144
0.187422
0.257911
0.0247329
0.54679
0.0472819
0.556868
0.0253944
0.0250381
3.48703
5.5383
0.0634653
6.00047
0.0256842
14.3762
0.0399437
0.0250899
0.0251806
0.0783788
3.44634
4.85668
5.31966
0.180977
0.0285272
0.0562615
8.49478
6.37404
0.0249038
0.0255952
10.2107
0.0253088
4.22286
0.0581042
3.88528
0.0789109
0.0256717
0.059996
7.78666
0.0265729
0.0321883
0.0469529
0.0256301
0.752378
5.61254
5.96779
0.152917
4.23386
0.0254286
0.025287
4.38812
0.025654
4.74122
0.0255943
6.55051
0.0309348
0.0258221
1.27991
0.134755
0.0252246
3.59067
0.0256394
0.0256097
0.0252346
0.0253454
0.0251682
4.97723
0.122585
0.0373803
0.024985
0.188455
0.93193
5.95003
0.0279106
0.043032
8.48054
0.037477
8.2004
4.82757
0.0253985
0.179525
0.0890827
3.82229
0.295059
7.4331
5.45703
0.0350279
4.43201
0.02481
1.20642
0.0262254
0.0279608
0.0481537
0.277989
0.0529652
5.44069
0.0338127
0.0254642
0.202249
0.0335989
0.0852932
5.28897
0.024779
0.0246505
0.0252782
0.0287789
0.0281408
5.23852
0.0252262
4.13344
17.5037
3.99912
0.0255736
0.0487641
0.0289654
0.0254154
0.0250461
0.0251231
1.77127
24.2947
0.0256771
0.0251152
0.0250934
0.0253371
0.0650956
0.025058
1.18223
0.0325221
3.35628
0.0542354
0.0347843
4.32283
0.0634511
0.0254665
0.226044
0.0253175
3.48124
0.0253362
7.46542
0.128149
0.0256249
0.0255647
0.0249421
0.025162
0.274993
0.0253369
19.5994
0.0403941
4.14907
0.03133
3.42329
0.0254094
1.15476
0.294117
0.0251346
0.0251427
2.41192
0.726137
0.0253996
7.34552
0.0569145
32.5795
0.026283
0.0253929
0.111533
5.5419
0.144777
0.025201
0.0249808
0.0464977
4.13278
0.0247515
0.0253405
0.0253499
0.0810284
0.0255171
11.2358
4.10901
0.0634928
0.0254458
0.0255783
0.115254
0.117718
0.0254592