/*--------------------------------*- C++ -*----------------------------------*\
| =========                 |                                                 |
| \\      /  F ield         | OpenFOAM: The Open Source CFD Toolbox           |
|  \\    /   O peration     | Version:  v2012                                 |
|   \\  /    A nd           | Website:  www.openfoam.com                      |
|    \\/     M anipulation  |                                                 |
\*---------------------------------------------------------------------------*/
FoamFile
{
    version     2.0;
    format      ascii;
    class       volScalarField;
    location    "300";
    object      omega_0;
}
// * * * * * * * * * * * * * * * * * * * * * * * * * * * * * * * * * * * * * //

dimensions      [0 0 -1 0 0 0 0];


internalField   nonuniform List<scalar> 
37809
(
0.150063
7.0608
0.0256467
0.0283357
4.60836
0.0618134
0.251115
3.97388
38.0946
6.57077
0.0837665
0.0253073
0.0282497
0.0282902
11.381
0.0286117
0.0254432
3.38074
0.0253951
0.163256
0.0667989
0.06602
4.32338
0.025306
0.0618882
6.74587
2.74623
0.0255686
0.0256371
3.92876
0.131332
9.16909
0.025311
1.8669
0.0251708
0.0254514
0.0248409
4.82385
0.0671611
0.122343
6.57054
9.66401
7.59747
9.28997
0.0252374
0.0309674
0.128887
5.19601
1.74868
0.0537079
0.025406
0.0253238
0.0251915
0.0257325
9.02444
0.0251967
0.0360952
0.0282392
0.0649306
0.984534
7.63676
0.0270107
0.0281726
0.0802513
0.130959
0.0623308
9.55938
0.0254501
0.0268235
3.0552
0.0276602
36.3706
0.025333
0.0282342
0.0255635
0.0248524
0.120079
0.190104
0.145009
0.237522
0.0252322
0.0256433
4.67058
0.0340652
0.0251406
10.288
0.0264208
2.06034
0.0665918
0.036624
4.75017
9.03187
0.0899394
9.60018
0.0265232
4.7542
0.0253403
0.0254416
8.88273
0.0251242
6.08163
0.0254464
0.0784273
3.45426
3.36
0.0256076
4.12791
5.53388
0.224827
0.0253059
0.159347
0.0338025
0.152029
0.0271295
0.0357146
0.065996
0.0254918
0.0253408
0.351649
7.45291
0.0256776
0.0256125
0.0408119
4.51031
8.57393
0.0254835
0.126368
0.0252925
0.035694
0.0270733
0.387415
0.184344
9.36697
0.0252463
0.286124
0.0253034
0.0254075
0.0271119
22.4233
4.96919
0.0251558
4.77632
39.8981
6.38282
0.0253331
9.61767
0.0275766
0.0268725
4.67415
0.0254365
9.49362
0.0270589
0.0438829
0.363271
0.132751
0.0254532
4.29689
0.349963
0.0257687
28.6503
0.0357292
0.213583
5.59133
7.7103
0.0263052
0.0247189
0.0253088
14.9211
0.0691799
0.124824
0.380616
0.0251338
5.49231
0.0267677
0.0269932
0.0295655
3.34717
0.0365742
4.42377
0.0866022
7.32879
0.0256358
0.0251949
0.0256489
0.0247083
0.224226
0.0256425
0.0322341
2.14241
20.1092
0.0537254
0.0253405
0.0254081
7.23623
0.239031
1.86316
0.0253233
0.0246151
0.0251751
0.0277748
33.9459
0.0888784
8.91905
0.0870696
7.39307
0.0247145
0.0269375
0.0744388
0.0253113
0.0948717
0.0747737
7.21851
0.0251454
0.025337
0.0252811
1.47114
0.0658973
0.025118
0.0251424
0.175077
9.91345
2.81817
0.025612
0.0256541
0.0252368
3.63276
4.35806
0.122775
0.0327233
4.69106
0.0256196
0.217019
0.194396
0.0268309
0.403886
1.61213
0.0251156
3.65898
0.0262652
0.137609
5.06611
0.0251401
1.67294
3.62641
0.0252364
0.0253645
0.0256539
0.0247149
0.126424
0.0247065
0.0254674
0.025319
0.0253989
4.52588
0.0253322
0.0253269
0.0246106
0.0254027
3.34814
5.26249
0.33643
0.0254144
27.6304
0.0256264
10.3147
0.0825018
0.134714
0.0395527
0.0253292
1.64365
9.40827
0.0252808
4.67555
1.73804
0.0253248
0.139788
1.60191
0.0254619
0.875622
0.0253966
0.0253419
14.5291
12.2888
0.0252925
0.144204
0.0253611
0.0253266
0.0254183
0.025323
3.5927
0.0253461
0.0446293
36.4089
0.0251907
0.0252872
0.0319176
0.179515
7.0081
0.0253275
29.9663
0.0436334
12.4451
0.0248596
0.312931
8.73612
0.0342647
0.0256394
0.0277103
6.23278
0.0251433
0.120349
4.62549
9.72921
0.0614192
0.0256696
4.36957
0.0270246
0.0254086
25.4398
36.1384
0.078666
2.88545
0.0502231
0.0276182
8.13331
0.0654603
9.57204
0.025328
0.0256398
0.256962
0.0251213
0.0248585
0.0253426
6.04238
0.0248577
0.0252396
0.0484379
0.0253975
0.025371
0.0799725
0.025263
0.0282769
5.03301
2.95194
0.0307443
0.259097
27.2617
0.0254666
10.4174
0.0276193
2.70788
0.262875
0.0253066
0.0254448
16.3652
5.93341
0.0247125
0.175347
0.0253225
4.39989
3.8387
0.0298
8.14494
7.24536
12.5183
3.66059
0.0484014
0.0289298
0.028112
0.0252796
0.0283115
0.0871345
0.0638212
32.9833
0.0750904
0.0249649
0.0800619
0.0247059
9.25343
5.74719
0.0253256
0.0269951
7.70615
0.0412139
4.01527
0.0473009
5.83701
0.0395911
25.2982
0.0248841
0.0254017
8.45961
0.025646
0.025441
0.0293196
0.0693884
8.0628
1.24094
0.032191
0.0256463
4.51434
0.092765
0.0248804
0.0253622
0.0252405
0.109568
0.025149
3.65227
5.24112
4.86882
0.0690808
0.0327685
0.077535
0.0256398
0.0248402
0.722674
1.3619
11.1179
0.0256648
0.0253616
5.56582
0.0664028
0.392169
0.299734
0.0254123
4.20826
0.0256696
0.0366073
0.032874
19.2425
0.0251551
0.0826556
0.0282894
0.0270361
5.12415
0.025607
9.11292
4.7606
0.0589998
0.0251281
0.0261728
0.563789
0.0552637
0.0517802
0.0253356
0.0250622
4.7665
0.296145
0.0484084
0.207563
0.0415776
0.0249619
0.0271253
0.0253995
0.0253632
0.0252967
0.0248456
0.0253729
8.87853
0.0252581
0.0256406
0.0296405
0.222989
3.47383
8.75788
7.70677
0.0272988
0.0371724
4.36998
0.0253515
0.0338259
0.0251517
0.0254661
0.0251985
0.0603988
0.0251446
0.056842
8.53722
0.0408421
0.025404
0.0252724
0.0253229
0.0315624
0.0247104
12.2894
0.0253458
0.0459938
0.268054
6.05337
0.0253729
7.86845
0.048135
0.0856979
0.0254477
0.079975
4.53348
0.0247081
0.0420932
0.058855
0.0469881
0.155015
0.337795
4.91113
9.76604
0.0289684
0.0348324
0.0659687
10.7671
0.0253959
0.0254065
0.0248358
0.0251413
4.46417
0.034864
0.0267497
1.21481
7.20804
0.0257952
17.3672
0.0292241
5.3981
0.210577
0.0254623
8.72038
0.0269065
0.0268554
0.335707
3.9328
0.0522039
0.171421
8.53485
0.0262777
0.317761
0.0619592
0.0256697
0.024849
0.0251406
3.68474
0.0253487
0.0254125
0.116714
0.026839
4.43865
0.21581
6.24737
0.0255567
0.025348
25.5271
0.138265
0.0256763
0.0305773
0.0496047
0.0254609
0.138308
4.97427
0.0321472
0.0253938
0.192397
1.63029
0.039551
0.152343
9.71825
0.109517
0.0248486
10.0593
0.0330835
0.0825123
0.0254243
6.05173
0.304718
0.0256706
10.8284
0.0253362
0.0256193
0.0251171
0.0254008
4.13742
11.8418
0.0248641
0.0247094
0.0292517
0.0388348
0.0671732
0.209391
8.38044
8.71853
3.68002
13.6448
7.62765
3.64776
0.0253473
0.0253321
0.0279253
10.8375
0.0256769
0.0253971
0.0248721
4.99943
10.9977
0.0252527
0.0253808
0.025672
7.75111
0.0476135
2.71784
0.0256642
0.0951643
0.0273755
0.0825073
0.0774538
0.0251802
7.7802
0.025374
0.157356
0.0253777
0.0258415
0.0254647
4.75161
3.63509
4.03176
0.025467
4.28148
3.70839
0.0263054
7.85325
0.142117
0.118746
0.0253386
0.0253247
0.0253227
2.05646
7.35399
0.0508065
4.13703
0.0255749
0.025334
0.0430102
0.0375656
0.0251389
4.52282
0.029424
0.142108
0.196263
38.6873
8.25277
3.25004
0.346526
0.0253365
0.0248569
0.0284291
0.0254068
0.0367951
5.88919
0.0253257
34.6836
0.230121
4.31821
0.0283664
5.0663
0.0471265
8.15661
0.0270093
0.0254169
0.0352757
0.0253519
0.028149
0.398526
1.04665
16.8705
0.312048
5.86255
4.73708
0.0460968
0.0253381
10.0075
0.0247174
4.28301
6.19732
0.0253417
0.0305672
0.287938
3.66225
0.0261217
0.0256554
4.6065
37.0677
4.20285
0.0253157
21.5355
0.0253176
0.33521
0.0464993
0.0260702
0.0808287
5.48441
0.0254036
0.0253905
0.0253123
0.025134
0.239643
4.05276
4.37271
6.46575
0.0253683
9.64823
0.0364751
0.133063
2.39195
0.0280317
9.54152
0.0262558
0.0265521
4.44911
1.09927
0.133772
6.04123
4.05684
0.0591786
10.5536
0.180058
0.0255664
4.46417
0.0339389
0.0417697
0.0320539
0.0318362
0.0468551
0.0272211
0.0372637
0.172169
0.034881
0.029387
0.0298898
0.0826465
0.0276787
0.025305
0.0255303
0.025313
0.0256127
0.349931
2.45606
0.0256876
0.0251499
0.0506278
4.41095
0.0256019
0.0290896
0.0638427
0.268583
0.0256456
0.0255454
0.0277017
0.0797285
0.0272255
0.0252275
0.0251638
11.3094
4.05571
1.2309
0.0352705
0.0256392
0.0253734
0.0343148
0.025398
0.0253044
0.0304687
5.27139
0.0662765
3.93639
0.0253485
0.029327
0.0873787
4.00022
0.080196
28.0884
1.52902
9.3003
0.0248379
0.0253815
4.18227
0.170615
0.046999
0.0781834
4.82501
8.18813
0.265199
0.0257206
0.206703
4.2742
0.0304759
7.72114
0.0791339
2.18706
12.577
0.298112
0.0773927
0.0262867
4.01062
0.0251505
3.80599
0.0306378
0.0251319
0.0253788
0.0248522
11.7564
0.0248623
0.115922
0.0253236
0.0390286
0.309461
0.0353021
0.0253263
4.50274
0.159593
0.0253524
0.0253922
10.1964
0.0636615
0.0340717
0.161535
0.0288427
0.028796
0.0249654
0.214908
4.24051
4.18584
4.54624
0.161934
0.115779
0.0644666
0.347905
0.0268397
5.30085
12.0813
0.222347
0.0252975
0.0287307
0.222158
0.0255685
4.21144
5.14008
0.216088
0.0254026
0.0776199
0.0252973
0.0519838
7.65259
0.0253082
0.331067
7.51694
0.0253656
0.0401153
0.0457689
0.0246826
0.0397221
4.14059
0.0480188
0.0440007
8.06781
0.0780316
0.0261695
0.0280761
0.025163
0.037569
0.0249675
0.0254024
5.59945
0.0443259
0.0283095
0.0262067
0.0248529
0.0262583
0.0247629
0.190221
0.250622
0.0267953
0.311737
7.80926
0.0251097
0.190619
0.0253031
0.029361
0.0256392
0.0256148
4.12642
0.0304154
26.5166
0.0253888
0.0260674
1.03753
5.25929
0.0254665
0.0342221
4.72375
10.0536
0.0256463
14.586
0.0319761
0.0525805
0.229952
0.0281684
35.5747
0.0316553
0.0253204
0.0252328
0.0251671
0.0260791
0.0267802
9.4756
0.117195
0.0343012
2.54296
0.102563
3.8828
0.0397081
0.0255518
0.0506061
4.69266
0.0335846
0.0467499
0.031609
9.92899
0.353343
0.0280968
0.0399385
0.0262959
4.42666
0.0254617
0.241442
0.0251038
0.0344702
0.0275213
8.74882
0.0288137
0.104718
0.0344984
0.076803
0.0248401
0.24268
0.158595
0.04
0.0246859
0.0795506
5.2323
0.725821
0.0249132
0.028345
6.7613
3.27364
5.1784
0.0253909
0.0559556
0.0256447
0.0547448
0.338646
1.24441
0.0295508
0.156957
0.0375117
0.0253315
0.0256231
0.131411
0.025329
0.0253128
0.0262392
0.152911
1.7156
0.0399125
0.0250645
0.0247736
0.0248374
0.0332058
0.0254006
0.107334
6.28544
0.024844
7.96807
0.0254123
12.3633
4.90262
0.0442181
0.0279808
0.0495905
0.0253444
4.68293
0.025021
0.228973
0.0286002
0.0253538
0.234483
0.0493069
0.0252449
5.72971
0.0604613
0.0296833
0.026979
4.47943
0.0801844
8.55611
0.0253773
0.0660249
0.710966
7.22936
0.025139
0.029974
0.02513
10.6368
3.88959
3.69624
4.22854
0.0256768
0.0394713
0.0264583
4.70842
1.17284
0.026439
0.118405
0.0253276
0.034002
0.0251317
0.0253314
0.0251979
0.027303
9.21635
0.0253299
0.0461486
0.21912
0.0253334
0.0256713
0.0448384
5.00767
0.0306778
0.11824
0.0252173
3.88677
3.73154
0.0253651
0.321099
0.0495815
0.0461365
5.09759
0.0373396
0.025388
0.297857
0.178509
0.0263729
1.35592
0.118052
0.212133
0.0297786
0.0247094
0.23838
0.0848747
0.282645
0.0251344
8.26041
0.0459914
0.400454
0.0362351
0.0249236
0.0256783
0.0251329
0.0253949
0.0255808
0.0270944
8.06648
0.0350538
0.0256158
0.0318069
0.0319578
0.025258
4.41516
0.0322594
0.15244
0.0362917
0.0262499
4.30939
0.112795
0.0793869
5.09731
4.65183
0.0250985
0.0608962
0.130899
0.102152
0.119569
2.90515
0.0247089
0.0253631
6.47298
0.0255301
5.01516
0.202492
0.124626
0.0320306
0.0319524
0.0252484
0.0251508
0.0253202
0.0253355
0.0254268
0.0253391
11.6321
0.0253596
5.26287
0.0257778
0.0638765
4.22854
0.0256731
0.0254076
0.20655
22.2398
0.165689
0.0256439
7.60164
0.0256385
0.0253621
0.0262383
1.47449
1.35476
0.256878
10.1532
3.9729
0.0329342
0.122585
0.0250205
0.0253986
9.15754
5.4104
0.157475
0.0401784
0.0262634
15.4372
0.117982
7.05401
0.0251741
0.228127
0.0261922
0.0269125
0.033672
0.156351
37.7085
0.028834
0.388422
4.09896
29.2485
0.025345
0.0295328
6.30681
0.0270143
6.48279
0.0281078
0.0659312
0.0465382
0.0624689
8.42885
0.0250977
0.0253081
0.0461424
0.0825208
8.39855
0.025628
5.90479
0.0262581
9.42247
4.69755
0.160647
0.0253965
0.025259
0.15584
6.35292
0.024741
4.9402
0.0262772
4.20231
0.0298115
0.0316362
0.025361
0.0474263
0.0703743
0.0299266
0.0313401
0.0251296
4.85509
0.0414056
0.0247551
0.0419669
8.8657
5.40937
0.0298188
5.52234
4.67809
0.060142
0.24637
0.0341489
0.194231
0.0252349
0.120122
0.0262083
7.3661
0.0255385
0.0254914
3.29968
0.289529
0.0271603
1.90716
0.0247423
0.025418
6.47119
0.0251534
1.42662
0.050123
0.0253357
6.04584
0.342567
0.15523
0.0253895
0.0358744
0.151926
0.0255435
0.0283424
7.27896
4.63805
0.0473369
0.112844
0.025404
0.0296526
0.151159
4.59508
3.69449
0.0615256
0.0357773
0.0262798
1.80459
0.151267
0.0603773
4.52002
0.0252201
0.131812
0.155134
0.0249212
0.0255194
0.154908
0.0256618
8.63546
0.278542
7.52309
0.0252895
0.0255426
4.74371
0.0255748
12.8061
8.12056
4.41554
0.119597
0.0252628
0.0268715
3.81169
0.0337687
0.0252386
0.0327159
0.0261992
4.50404
12.3712
0.0296577
0.0255405
0.0253873
0.0250976
4.89835
0.797785
0.394154
5.09631
0.0253215
0.0253076
21.779
0.025294
0.0830982
0.0315691
9.69854
9.2585
0.052676
4.72416
7.63763
0.0251553
0.0403281
0.122156
0.0296693
0.0256453
0.0336067
0.0295353
0.0782677
1.13907
11.3956
0.0252862
0.0252522
4.3012
5.45546
7.46125
0.300636
0.033808
4.13633
0.0247678
0.234001
4.29796
0.172215
0.0254012
0.0847692
0.024783
0.0254104
0.0251712
0.0251393
0.0261229
0.035501
0.0469401
9.69838
0.0253342
0.024686
3.97244
0.281762
0.0614595
4.30141
6.77476
6.69497
0.0253995
0.0256696
9.97992
0.0477037
0.0929376
0.026356
0.0252843
0.0254626
0.0249229
0.0263155
0.0800256
5.33634
0.0254882
0.0259498
0.0339754
0.0259297
4.46794
0.0500784
0.111093
7.04634
0.0911724
0.0253664
4.71401
8.45484
0.100003
6.36527
0.0278398
0.0436486
11.5858
0.152823
9.9995
0.0301671
0.025365
11.2464
0.119325
0.0256295
0.0254247
0.0470564
8.75338
0.0252049
0.0248793
0.0256237
0.0248807
0.0250679
4.58499
0.279854
0.0252769
0.0308615
0.0823988
0.0253614
0.0295507
0.0256241
0.0247174
0.0253798
0.04356
0.0303656
0.0254977
0.030709
0.0256303
9.9627
0.0267638
7.6007
0.560626
4.50901
0.0892207
0.0246898
0.02563
0.0251718
0.216881
0.0251383
0.0248904
3.53592
11.5468
0.311821
0.0249467
0.127177
0.591331
0.025495
3.84766
0.0280194
6.8588
0.0253424
0.260231
13.4992
0.0258407
0.0253954
4.4615
5.06621
0.078314
3.88029
0.875688
12.1767
9.86758
6.33651
0.0253541
4.69968
9.03405
5.23644
0.0256533
1.36855
0.0252872
0.02465
4.39821
0.0256451
0.0914886
3.37199
0.0249542
11.0981
0.0952131
5.07309
0.0372289
0.0261149
0.0535893
0.0251395
0.0254218
0.0551205
0.0371035
4.58691
0.0249954
6.15786
6.38674
0.056621
5.074
0.0469017
0.025327
9.24756
0.0253799
4.66863
8.17463
4.28083
5.21865
4.72728
0.0795722
0.186359
0.0279508
5.21449
0.0255741
0.0254645
0.102364
0.0255381
0.051492
9.28237
0.025619
1.32391
0.0282542
0.0261718
3.64406
0.0280784
0.0253783
0.0435849
3.28176
0.028135
0.111919
0.0256111
4.26665
0.0253166
3.60163
0.025253
28.6561
0.0891949
0.528868
7.76811
0.0264379
0.191713
0.0255799
0.832234
0.0260042
0.0249635
0.179732
0.0253451
0.0256653
4.14787
0.0250823
3.65742
0.0252814
0.0250675
0.0254123
0.0451
0.317427
0.0252446
0.332328
0.0253591
0.025177
0.0283772
0.0404388
0.0755136
0.144033
4.84619
0.0321169
0.02563
0.0256679
0.0253891
0.0281066
4.36816
0.0251345
0.0258283
5.2719
0.025612
0.0321539
0.0253426
0.0255431
4.41776
0.0249768
0.0273213
0.0252972
0.0252536
0.025543
8.32623
0.0262106
26.418
6.54802
0.0556454
10.3412
0.0349736
0.0256246
3.12885
8.01826
0.0250642
0.0252874
0.0556813
0.064545
0.0255725
0.0843718
0.0256583
0.0256775
0.0251511
8.18814
0.025466
0.187492
0.030268
1.73453
6.01532
0.0258495
4.11865
0.0253988
11.1885
0.257036
0.151191
0.0601288
0.115578
0.0261803
10.079
0.078135
0.0250242
0.0251487
0.0256838
0.315693
0.0755701
0.179279
0.260942
0.025639
0.0251469
4.13594
0.0253737
11.1917
0.0454983
24.4168
0.066482
0.0282008
0.0304985
0.0404188
0.0254613
0.0257458
0.0252695
0.0254184
0.0253235
1.37209
0.037683
0.0728703
0.316052
0.0260003
4.27517
0.0668583
0.0271639
6.51352
0.0268016
0.217286
0.122596
0.0291032
4.07716
0.692376
0.0253822
5.55095
0.0250849
5.41901
0.0254603
0.0254255
5.26588
0.0871734
0.0253415
0.0306268
0.028029
0.512259
0.0407841
4.77689
0.0254627
0.232665
24.8427
0.0576671
0.0253346
0.0449942
7.31733
0.0350572
0.0264242
3.68655
0.0256642
14.4926
6.10398
0.062413
0.0253425
0.0251275
9.45442
0.332397
1.3526
0.0448303
5.16464
0.0407873
0.715535
0.0617804
5.79145
0.0454953
19.6338
0.154649
1.37912
0.0253645
0.0250619
0.121714
0.0440224
1.32937
33.2464
0.0575649
24.7252
9.98181
0.0364451
0.027204
1.59215
0.025091
0.0770416
0.026367
0.0249565
38.4819
0.0250559
0.065289
0.0253625
0.0256396
0.0253271
9.82871
4.13477
0.532304
0.0252124
4.28438
0.0413136
8.94228
0.333903
6.71747
0.0253715
10.9755
0.165231
0.0250726
0.0613906
0.0263329
0.0247816
0.025578
0.0267946
0.025404
0.0266426
0.0253749
0.0252433
0.0262001
0.0426358
4.21438
0.0253692
0.0829302
5.4472
0.159968
0.0316354
0.0250825
0.336924
4.94464
0.0296573
0.0248025
0.12368
0.0253315
0.0840963
0.0252921
0.370351
0.080409
0.0251028
4.49151
0.463131
0.0457512
0.0305349
9.71517
0.0898943
6.78132
7.38415
0.0262029
2.86239
0.025198
0.0935537
0.0250984
4.36333
0.0252423
0.0347574
8.79076
0.0266523
0.0253555
4.8466
0.026979
3.52082
0.0264999
0.0798664
4.12185
0.0330439
0.025181
5.61964
0.487557
0.0293035
4.24702
10.4089
0.0253578
0.367842
0.0568513
0.0260959
0.0254001
0.66228
8.39186
7.08744
0.0260692
0.0263053
9.19315
0.0254663
0.0476733
9.32039
4.85451
0.0251677
0.0256307
4.0878
3.47063
0.0252808
0.216766
12.4413
3.61432
7.45481
0.025301
0.0260812
0.0256205
0.371196
0.0283691
4.25246
0.0479379
0.0254215
0.0662182
0.0251779
0.114221
0.0253616
5.89472
0.0548111
0.0271718
10.3793
0.0472613
0.0664981
2.06664
0.0252415
0.16537
0.0273931
0.346158
0.0843737
4.15378
0.0540182
10.174
0.0267693
0.0259418
0.313584
0.0728539
0.0249156
0.0845952
0.136299
0.0251411
0.059459
9.87842
0.0256243
0.025213
0.0256773
0.0255741
5.85683
0.0254654
0.259444
0.229167
7.01211
0.191249
1.53236
0.0331091
0.241384
0.0288452
0.0253368
0.106027
0.0258245
0.0608355
5.77716
4.60711
0.184913
0.0751723
0.0305003
0.0253049
0.233042
0.315882
0.0304375
3.41188
0.0334422
0.130319
0.0253406
0.0251317
0.025624
0.0767503
0.114249
4.70893
7.42688
0.0284135
0.0253914
4.79365
0.0256706
0.135345
0.0250148
3.24312
30.6586
5.21714
0.118506
12.5675
34.652
11.223
0.0249344
23.6121
0.0250728
7.39119
1.79307
0.024918
0.0290531
4.14419
0.0256616
0.0254956
0.024889
0.051498
0.967262
0.0256713
0.0268381
0.202342
0.0253686
31.5046
0.062593
0.0251629
6.74167
28.2732
3.76676
0.293363
0.0251452
4.93031
0.0318211
0.0956017
0.0252959
0.0248259
4.25018
0.055184
7.18919
0.131013
3.01627
0.0254667
0.0471642
8.13068
0.0315658
3.84779
0.0269101
5.15818
0.0255549
0.0645572
0.0390908
8.02375
0.0251841
0.0288208
0.0435677
0.0252607
0.0253053
0.0729248
0.141434
0.173067
0.0253414
0.0253582
0.0256896
0.0262518
0.485287
0.0249739
0.0422061
0.196962
0.0256535
10.521
5.23958
4.27337
8.47231
4.21391
0.0254647
0.0602662
0.0249068
0.0316788
0.0339051
12.2182
0.0253567
0.0492428
0.0258456
0.0253404
0.0253236
0.0253379
0.061507
0.0255271
0.0993452
22.6218
4.61136
7.36479
0.0254203
8.35166
0.0258162
12.1213
0.060703
0.0304469
0.0290659
0.0251761
0.0249037
0.0256708
3.96941
0.0395809
0.0365481
0.168057
0.0956413
0.0252826
0.0330958
0.191309
3.90292
0.0271272
0.0271687
0.0253594
9.99324
1.61284
0.0258328
0.0250996
0.225249
0.0251808
0.0318476
1.1486
5.28918
0.0255506
0.0251765
0.0311939
0.0253751
5.00899
3.9589
5.26513
0.0255584
0.0248913
0.2029
4.67292
0.0254669
0.0251655
0.0845885
0.02543
0.0645377
0.0256756
11.3556
0.0254601
0.0249016
0.0348433
0.0251071
0.051748
0.0478049
4.19422
8.27466
0.0327681
0.0253934
10.0932
10.5755
0.218356
0.024856
9.04398
0.0295842
0.0253477
3.99057
0.0387522
0.07259
13.5167
0.0283706
7.94373
4.84671
11.0695
0.066607
0.0281941
0.0278292
0.0298428
0.0254346
0.127947
10.1912
0.0253195
0.0254618
0.0649237
0.0253972
8.39319
9.19509
3.63658
0.0251549
0.0253686
0.0270313
0.0285563
0.0251203
0.323769
0.025353
0.0252583
3.715
4.21606
0.0507974
0.374776
0.318158
0.0389436
0.785427
0.0312286
0.0481107
4.14817
0.137443
0.0300678
0.108696
7.84674
0.0249052
0.02521
0.0256603
16.3234
0.966503
0.0474662
0.0253458
3.685
0.172523
0.0644075
0.0778613
9.8532
8.38467
0.0252782
0.0250999
0.059502
3.82277
4.35141
4.95322
0.0254666
0.0251943
4.55653
0.0255701
0.0253998
0.0259125
0.0250585
0.154955
0.0256425
0.0256299
0.025352
0.0253543
5.31637
2.58477
0.0251015
0.0297707
4.25158
0.0253891
0.0269292
0.0248749
0.0283926
7.14043
2.35332
6.30159
0.0473909
0.0256397
0.025203
1.13843
0.166427
13.6488
0.206438
0.0252062
0.0252721
5.43121
0.937988
0.149621
0.905391
0.0379349
0.0253206
0.640037
5.7703
0.025301
0.0252796
6.49136
4.43976
0.0251965
4.64906
0.0253536
0.0253354
0.0253595
4.31126
0.0439252
0.194705
9.46198
0.0253862
1.06463
6.56759
4.96817
0.204734
0.0253511
3.51897
4.55128
0.0281221
9.42136
0.0256563
0.0283988
0.136233
0.0248806
0.0252816
0.025625
0.234064
0.0279899
0.042335
0.121476
0.0821965
0.0254599
0.033451
0.0253356
7.7894
3.68082
0.0326247
0.0834149
7.26213
0.474166
0.0250084
4.50973
0.0252133
0.025109
0.0381708
0.0279232
0.0256211
3.37034
0.0259817
0.0299052
0.0631045
0.19909
0.206744
0.0247172
4.58105
0.0360449
0.0252907
4.69316
0.0255433
0.185436
0.163924
0.0299549
3.53237
2.62741
0.0254131
0.197651
0.0259316
0.0247883
5.46503
0.124442
0.0528931
8.00987
3.86737
0.0252139
0.025271
0.0254623
0.0256405
6.02675
0.0550673
4.15627
6.43269
0.0453266
0.0411766
4.34973
0.0405835
8.41346
4.94853
2.44336
0.0859121
0.0255282
0.364652
0.0465487
4.04746
0.908369
0.0504552
4.28015
0.0254053
1.71331
0.0253965
4.20902
0.0250857
4.61898
0.0256767
0.0313554
0.025437
5.79843
0.0253541
0.0253461
0.161134
0.0253637
0.0256159
0.0290402
0.029312
9.75076
0.0402742
18.1623
0.0251581
0.0278945
0.161139
0.0253255
7.64266
0.0253518
0.340356
27.3224
0.0250117
7.71494
0.0253562
0.0305627
0.0252931
0.025836
7.67533
0.0347356
0.0252876
10.4532
4.42808
3.55833
6.06571
4.63238
0.179389
0.0344288
0.0251144
0.9318
0.338232
0.0393805
4.89639
0.131228
9.67292
0.0248496
0.028189
0.0683028
4.09208
0.026536
0.0253722
4.26043
0.874277
1.03012
5.03817
0.027991
6.2777
4.18483
4.30429
6.30461
0.0315259
4.88809
0.278446
0.0255374
0.047323
0.0255327
5.97733
0.0283741
4.34438
0.0255892
5.30995
1.13963
0.0277737
0.0999713
26.1633
0.0263506
0.025474
0.0252201
0.0255624
0.0606845
0.0255426
0.0251957
0.0645249
0.0398711
0.037882
6.4097
0.132144
0.0289352
0.029808
0.0504798
4.21109
0.94158
3.84336
4.417
0.0585862
6.66161
0.0270085
0.365171
0.0255794
0.0290259
0.0255424
0.0247907
0.0256375
0.025399
0.209756
0.208955
0.0256709
7.49916
0.0451833
0.0246585
11.0009
0.0251025
4.39591
0.0311339
0.0262885
0.025595
1.36999
0.0306333
5.17836
0.025462
4.05133
0.0893617
0.0252446
0.0255645
0.0356882
0.0248182
4.1829
37.8862
0.0259676
0.0380139
0.0376654
0.0845872
0.0253894
0.112493
0.131556
0.0249598
10.5848
0.0252481
0.0314356
4.33872
0.0253099
0.025671
0.0253386
0.0556197
0.0578719
9.4867
0.0268958
0.278065
0.0278041
0.0252235
4.1109
9.94781
4.08896
14.0735
0.114222
0.0660116
7.41755
0.0382967
0.0253387
0.0253162
11.311
6.65425
4.44331
0.0253727
0.0256554
0.0360459
0.0252025
4.63029
0.0262957
7.19121
0.0333765
0.033001
0.0253979
4.4226
4.6765
0.0374353
22.1216
28.0122
0.0251523
0.0501992
11.8097
0.0255337
4.48163
0.0791632
0.0255177
0.0278734
0.0250618
4.55398
13.2065
1.31186
0.0400844
0.220544
4.34421
0.138164
0.0247871
4.34853
0.0261055
0.0250001
26.8006
0.0330562
0.0335907
5.69208
0.0255652
0.0271042
0.0254665
0.025299
3.73672
8.39248
0.0253988
0.0379339
0.261885
1.28819
3.35361
7.71175
0.184292
9.34126
0.0253962
9.35181
0.0282182
0.0253382
0.138282
0.0249536
0.260824
0.144432
0.0398802
0.0248575
4.16426
0.0527087
0.0414716
0.0272136
3.14527
0.0562532
0.0254658
3.40722
0.0285326
0.0291468
0.0623338
4.09986
0.0253025
0.0255449
0.0258477
0.0311341
0.0268714
1.61569
4.92054
0.0420579
0.0253404
0.16624
0.0394602
0.0279623
1.52209
5.30975
4.79539
0.0253633
8.96175
1.30283
0.0306628
0.025286
0.0250968
0.025409
5.42975
0.0255268
0.0246573
0.0251011
0.0540567
4.28739
0.0466627
0.0256712
0.11566
0.27232
37.7307
0.0249985
0.277899
0.0267184
0.0248044
0.0257466
0.0546634
0.111471
7.99917
0.319355
0.0251504
7.0968
0.0256763
0.0256769
9.17416
0.233418
0.0255121
5.1925
0.0341439
1.48761
7.29487
0.0844706
0.0261307
0.025394
8.61645
0.0250733
0.0260805
0.0316307
0.0252418
12.8437
0.0324161
0.0257178
7.3916
5.6964
0.0778265
0.240399
0.298119
0.0253372
4.36377
0.026356
0.0254802
0.140698
0.0357364
0.0946424
0.135243
5.12573
0.0566122
0.0254118
7.333
0.109415
4.04253
0.0253961
0.346054
0.0253465
0.0251454
12.6735
0.037902
5.31914
0.024717
0.0270713
0.112914
5.08416
3.67441
0.0260434
5.10641
0.025066
0.0263011
0.0277682
0.0310581
0.0253835
4.99687
0.0275642
0.033957
0.025247
8.55624
0.0268383
26.1282
1.00781
0.0250701
0.186272
0.0653274
4.65778
0.0255182
0.0253066
0.0253985
6.36069
0.0252069
0.0737958
0.0252508
0.0392827
0.0251218
6.944
0.0311026
0.0465485
9.7559
0.0248336
0.0812123
4.14875
0.317309
0.20098
0.0257396
6.13542
0.0253181
0.025544
0.02528
0.0267485
0.0495358
5.65296
0.0247576
0.0297062
4.70002
6.09652
0.0253309
0.0296322
5.35689
0.0254112
0.0284089
0.31851
0.0253295
0.0335239
0.0252892
0.02486
0.0251598
8.67798
0.043013
0.0251608
0.0264989
0.0254726
0.0322579
0.0255385
0.0313817
0.025304
4.38801
0.202786
0.0254949
4.65943
0.0275342
11.2104
0.0283509
0.102545
8.69245
0.0246731
0.0454243
0.0253302
0.0256758
0.0253154
0.12214
3.6245
0.0249206
6.00877
0.218524
4.13928
0.0260458
0.0248659
0.0294192
0.0802023
0.0256458
5.61519
0.0252139
5.13381
0.0253103
0.0256394
0.0248242
8.8955
9.39751
5.82312
12.5744
0.025602
0.927078
6.34712
4.18803
4.39069
0.0251417
0.0446498
0.0299285
6.18855
0.0626087
1.09642
0.0481736
6.63747
0.0255122
0.18579
0.205185
3.3537
5.02503
0.258145
0.0301062
0.104596
0.0329507
5.54211
0.342638
0.0255374
0.0451859
0.0580369
9.39344
0.0278525
4.14049
0.0250698
2.31899
0.0261429
0.0250247
0.0331938
6.48897
0.0250543
3.78673
0.0396624
0.0254869
0.0851316
0.0249994
0.0585885
6.35912
3.79114
5.42242
0.0625451
0.0330213
8.89075
7.57368
0.0256768
4.14835
9.54896
0.316427
0.102314
0.025219
0.0267581
0.0251112
0.0313177
4.13379
0.0251093
0.0262676
0.0268091
0.0248262
0.223728
0.0632606
8.99501
0.0255585
0.0253342
0.0256704
0.0247029
0.0254549
0.218423
0.131827
6.78141
0.0247761
0.0843763
0.105196
0.0252017
0.0253991
0.0250301
4.12535
0.0474205
0.0302057
0.025276
0.0248019
3.70802
0.0256458
0.0261039
0.029081
8.04255
6.59978
0.0836522
0.0253348
0.026853
0.0256612
0.0248414
0.0251989
7.81134
7.82724
4.50126
0.0251825
5.32256
0.0256165
0.992739
0.0254088
0.0277221
0.607825
0.0627643
8.6972
13.2959
2.38127
0.111519
0.052252
4.09208
0.0520331
10.3907
3.80617
0.160916
13.1854
0.0250955
10.3352
0.0250828
0.0391363
1.41726
0.371567
29.0327
0.261174
0.0350759
0.0265679
35.219
14.565
0.153338
9.0279
0.0264127
0.0254459
3.37623
0.0320455
4.00651
3.8109
0.0264503
0.0255207
5.90538
0.0917196
0.267724
7.93959
0.0254461
0.122921
38.059
0.0403303
0.0251771
0.0360797
6.59025
6.55649
0.0252164
1.13535
0.0252846
0.025464
8.87199
0.0885114
0.0249926
0.0251811
0.0815527
7.92682
0.0362805
0.0253277
0.140184
0.0249351
0.0255658
1.36366
0.0267012
0.0408741
9.81766
0.0251094
0.0312605
0.0254403
5.69455
4.08253
0.103813
0.0255648
0.034255
0.0943914
0.0256302
0.0255731
0.0406031
0.0297866
3.49468
0.025069
4.56901
0.0268691
11.2164
0.080512
0.0253505
8.3672
1.36795
0.0254036
0.0254608
0.180447
0.0572928
4.82986
0.0305284
0.0252071
0.0279977
0.0633574
3.31012
3.72185
4.73693
0.696115
0.149149
4.43328
0.0254614
0.0330204
0.0593809
4.70973
0.0277453
0.206057
0.0254663
5.05494
0.0615331
0.0250309
0.0251351
4.31606
0.0255166
0.0268885
5.647
0.0376512
0.0252207
0.0255346
7.23635
0.156487
4.51465
0.0417018
0.0247667
6.6931
1.31097
0.0270235
0.0339938
0.0249286
0.0252253
4.08846
5.01552
0.281342
0.369105
0.0247527
0.0247093
0.0467741
29.5248
0.0252251
4.19421
0.0253353
0.0266835
0.0520078
0.243784
0.0252995
4.71691
2.18159
0.191039
26.6406
0.069687
5.66379
0.0338359
0.0253362
0.488514
0.0249389
0.0324542
1.39068
0.0249301
0.0254325
0.0249522
0.0864916
0.0276358
5.70172
0.0253408
0.0555024
0.0251707
0.0256179
3.51526
0.0310802
4.14766
0.025361
0.0424271
9.22861
5.34631
0.0254076
12.6743
8.01596
0.0246995
4.266
0.0274354
10.9452
0.165205
0.0297099
4.10584
10.3751
0.317681
0.1611
0.0262134
0.0406365
0.041186
0.151724
0.0692126
0.0796521
0.0270659
0.0252211
0.0341282
0.0892273
0.0259394
0.0255166
0.0284018
0.147703
4.11422
5.52072
4.00783
5.59608
0.0407987
10.5503
18.2025
29.0157
8.60146
0.171636
0.0333539
0.205969
0.0291255
0.0253613
0.054747
5.65644
0.0267409
0.0252846
3.9954
0.110719
6.60628
0.0261923
0.0255514
0.222243
0.0256295
0.026028
0.0252248
5.75677
0.0474936
0.0354821
8.10992
0.0249173
0.295038
5.84479
9.37673
0.0247831
0.025144
0.187428
0.257906
0.0247329
0.547181
0.0472818
0.556785
0.0253944
0.0250381
3.48698
5.53823
0.0634646
6.00063
0.0256842
14.3769
0.0399437
0.0250899
0.0251806
0.0783807
3.44626
4.85676
5.31977
0.180982
0.0285272
0.0562615
8.495
6.37416
0.0249038
0.0255952
10.2104
0.0253088
4.22285
0.0581043
3.88545
0.0789106
0.0256717
0.0599961
7.78672
0.0265729
0.0321883
0.0469533
0.0256301
0.75236
5.61257
5.96761
0.152917
4.23385
0.0254286
0.025287
4.3883
0.025654
4.74141
0.0255943
6.5507
0.0309348
0.0258221
1.27992
0.134757
0.0252246
3.59069
0.0256394
0.0256097
0.0252346
0.0253454
0.0251682
4.97748
0.122588
0.0373802
0.024985
0.188452
0.931422
5.95012
0.0279106
0.043032
8.48073
0.0374778
8.20034
4.82784
0.0253985
0.179527
0.0890818
3.82231
0.295055
7.43327
5.45672
0.0350279
4.43194
0.02481
1.20642
0.0262254
0.0279608
0.0481542
0.277991
0.052965
5.44037
0.0338126
0.0254642
0.202253
0.033599
0.0852922
5.28895
0.024779
0.0246505
0.0252782
0.028779
0.0281407
5.23827
0.0252262
4.13344
17.506
3.99923
0.0255736
0.0487641
0.0289654
0.0254154
0.0250461
0.0251231
1.77138
24.2924
0.0256771
0.0251152
0.0250934
0.0253371
0.0650964
0.025058
1.18221
0.0325221
3.35628
0.0542354
0.0347843
4.3229
0.0634522
0.0254665
0.226035
0.0253175
3.48116
0.0253362
7.4653
0.128154
0.0256249
0.0255647
0.0249421
0.025162
0.275042
0.0253369
19.5993
0.040394
4.14907
0.03133
3.42322
0.0254094
1.15474
0.294109
0.0251346
0.0251427
2.41184
0.726043
0.0253996
7.34543
0.0569145
32.5784
0.0262831
0.0253929
0.111531
5.54144
0.144775
0.025201
0.0249808
0.0464979
4.13274
0.0247515
0.0253405
0.0253499
0.0810289
0.0255171
11.2359
4.10901
0.0634926
0.0254458
0.0255783
0.11525
0.117722
0.0254592
0.0652367