/*--------------------------------*- C++ -*----------------------------------*\
| =========                 |                                                 |
| \\      /  F ield         | OpenFOAM: The Open Source CFD Toolbox           |
|  \\    /   O peration     | Version:  v2012                                 |
|   \\  /    A nd           | Website:  www.openfoam.com                      |
|    \\/     M anipulation  |                                                 |
\*---------------------------------------------------------------------------*/
FoamFile
{
    version     2.0;
    format      ascii;
    class       volVectorField;
    location    "300";
    object      U_0;
}
// * * * * * * * * * * * * * * * * * * * * * * * * * * * * * * * * * * * * * //

dimensions      [0 1 -1 0 0 0 0];


internalField   nonuniform List<vector> 
37809
(
(0.962996 0.371081 1.40577e-21)
(0.191044 -0.00658065 -1.16419e-20)
(0.99995 0.00126802 2.54227e-22)
(1.07175 0.0521814 -2.53701e-21)
(0.366642 -0.0587951 -3.15821e-21)
(1.10179 -0.0359663 -7.80424e-21)
(0.714377 0.416594 7.56009e-21)
(0.0675969 0.308384 4.42305e-20)
(0.0383474 0.00263622 0)
(-0.219537 -0.00821731 -4.9564e-21)
(1.16399 0.134863 -2.04883e-20)
(0.988896 0.0210084 1.64321e-21)
(0.916177 -0.0080282 0)
(0.915601 -0.00479755 0)
(-0.310392 0.00180725 6.5586e-20)
(1.00139 0.0939782 2.21485e-21)
(1.00163 0.00333678 3.72484e-22)
(0.318398 -0.0246122 0)
(1.0283 0.0401004 -2.95943e-22)
(0.770096 0.368855 0)
(0.705337 -0.0670784 -7.17259e-20)
(0.709539 -0.0615684 5.59968e-20)
(0.585281 -0.0629832 0)
(1.00414 0.00802478 4.7402e-22)
(0.839981 0.21367 8.30591e-21)
(1.18235 -0.00822517 -1.02713e-20)
(1.1072 -0.0825733 -1.63442e-20)
(0.965377 0.00825226 0)
(1.00008 0.00119341 0)
(0.0651711 0.378565 -9.95806e-20)
(1.1444 -0.0428517 0)
(-0.231646 0.00303475 0)
(1.00396 0.00783886 4.40221e-22)
(0.506218 0.617106 4.83566e-20)
(1.04434 0.00140313 0)
(1.00155 0.00316529 0)
(1.0322 0.00450722 1.65057e-21)
(1.19876 -0.0440106 1.78824e-20)
(1.13021 -0.0172827 6.35591e-21)
(1.19502 0.141522 1.64086e-20)
(0.0861029 0.0166939 4.55588e-20)
(-0.323104 -0.00157848 1.81927e-20)
(-0.0336768 0.0075343 1.77593e-20)
(-0.306733 -0.00225215 -8.0486e-20)
(1.00301 0.0293081 -2.03262e-21)
(1.0809 -0.00900332 1.18566e-20)
(1.10899 -0.0574942 -1.7355e-20)
(0.860261 -0.0805672 0)
(1.11489 -0.0821687 6.79363e-21)
(1.03633 0.203391 0)
(1.04914 0.015939 -5.72009e-21)
(0.995556 0.0136395 1.34617e-21)
(1.00759 0.00913974 -3.54287e-22)
(1.0267 0.051591 7.90446e-22)
(-0.211908 -0.0052297 0)
(1.0074 0.00880665 3.11588e-22)
(0.954493 0.137886 0)
(1.07591 0.00457794 -4.71208e-21)
(1.12658 -0.0185187 1.05636e-20)
(1.24769 -0.0218482 -1.54434e-20)
(-0.298374 -0.00226684 -3.92252e-20)
(0.931926 -0.00513184 0)
(0.918069 -0.00868276 0)
(1.14677 -0.0122832 -3.01784e-20)
(1.14346 -0.0438606 0)
(0.845447 0.218294 7.24841e-22)
(1.15523 0.0867088 1.36126e-20)
(1.02785 0.0428044 -2.04685e-21)
(1.06295 -0.00448078 -1.00365e-20)
(1.05105 -0.0734064 9.77694e-21)
(1.031 0.0796694 0)
(-0.203711 -0.00191362 0)
(0.985665 0.0221038 0)
(0.917012 -0.00370157 6.68949e-21)
(0.966127 0.00904827 0)
(1.02951 0.00683005 -4.28587e-21)
(1.1929 0.138609 -3.37618e-20)
(1.05925 0.364304 0)
(0.953913 0.365865 0)
(1.21264 -0.00390436 0)
(1.00376 0.0195633 -7.1331e-22)
(1.00007 0.00111919 0)
(0.858879 -0.082065 -8.43669e-21)
(1.09808 0.00620891 -3.84326e-20)
(1.02486 0.0275729 0)
(-0.0426478 0.00573152 -6.84727e-21)
(0.96684 0.0537375 0)
(1.3259 0.252025 1.2847e-20)
(1.11208 -0.0330646 -9.61515e-21)
(0.881903 0.0996829 -3.16458e-21)
(1.21509 -0.0404382 0)
(-0.311024 0.00377366 7.37943e-20)
(0.665985 0.137322 -8.70945e-21)
(0.609837 0.03499 0)
(0.965101 0.0544939 -1.04062e-20)
(0.750004 -0.0786837 0)
(0.984531 0.0214781 0)
(1.05003 0.0157765 5.85825e-21)
(0.0450574 -0.00535072 -1.05367e-20)
(1.01116 0.000557979 5.99819e-22)
(1.27492 0.0352374 4.3535e-20)
(1.05011 0.0151018 9.34068e-21)
(1.14499 -0.0119663 1.58881e-20)
(0.305125 -0.0221636 8.57429e-21)
(1.09467 -0.0840663 -1.87487e-20)
(1.00019 0.000247013 -2.26835e-21)
(0.072306 0.404807 -4.7895e-20)
(-0.154196 -0.00828589 0)
(1.11538 0.339115 5.16942e-21)
(0.989254 0.0205528 0)
(0.768849 0.35824 -2.24483e-20)
(1.09692 0.00594766 4.13362e-20)
(0.599566 -0.214793 -2.73194e-20)
(0.959538 0.061489 -6.77003e-21)
(0.954112 0.135015 0)
(1.12884 -0.016942 -5.60826e-21)
(0.986812 0.0391792 0)
(0.98206 0.0102439 -1.7863e-21)
(1.15168 -0.0693043 9.15847e-21)
(-0.0425408 -0.00736105 1.38185e-20)
(1.00001 3.8633e-05 -1.55698e-21)
(1.04074 0.0391423 0)
(1.11874 0.0329938 -1.73345e-20)
(0.340244 -0.0570456 0)
(-0.298367 -0.0081295 -2.20169e-20)
(0.986166 0.0383259 0)
(1.1123 -0.0562392 -1.63829e-20)
(1.0061 0.037333 1.78962e-21)
(0.883427 0.0916556 0)
(1.06261 -0.00790007 -6.47214e-21)
(1.20122 -0.0379305 2.20888e-20)
(1.10505 -0.0658443 -8.79885e-21)
(0.0137452 0.00594781 3.54855e-21)
(1.00554 0.0124371 -3.60823e-23)
(1.21522 -0.0111698 0)
(1.01067 0.000472693 0)
(1.04897 0.0165476 0)
(0.931713 -0.00728177 0)
(-0.205493 -0.000973529 -4.5122e-20)
(1.29831 0.0538091 -2.02429e-22)
(1.04378 0.00109216 1.96569e-21)
(1.10218 -0.0763723 -2.5495e-20)
(-0.152606 0.00801314 4.81496e-20)
(0.0751154 0.0131316 4.65398e-20)
(0.985906 0.0227584 0)
(1.17511 0.0877132 8.06274e-20)
(1.07314 0.0303907 1.1416e-20)
(0.940905 0.030893 4.1238e-21)
(0.845831 -0.0817652 1.54788e-20)
(1.01692 0.000220894 1.61444e-21)
(0.0718602 -0.00535568 -9.98981e-21)
(1.06205 -0.00832897 0)
(1.09105 -0.0275302 -5.8077e-21)
(1.23014 -0.00282952 2.946e-20)
(1.19928 0.0303244 -2.18182e-21)
(1.01613 0.000176599 0)
(1.14111 -0.0747816 1.17605e-20)
(1.15162 -0.0685114 -4.11705e-21)
(1.02741 0.0522634 -3.82971e-22)
(-0.288852 0.00188942 -7.741e-21)
(0.881518 0.0872638 -2.94905e-21)
(1.09575 -0.0681565 7.37822e-21)
(0.133993 0.722732 -5.23692e-20)
(-0.0367052 0.038557 -2.70083e-20)
(0.944326 0.0030705 -1.9923e-21)
(1.02405 0.00257168 -2.24345e-21)
(1.00031 0.014637 -3.02822e-21)
(0.152715 0.0835552 -2.88858e-20)
(1.13687 -0.0110978 2.00345e-23)
(1.19738 0.0347342 0)
(1.13735 -0.0777376 -2.17504e-20)
(1.01086 0.0137395 0)
(-0.0612751 -0.0118988 4.27246e-20)
(1.05576 0.0507831 5.07955e-21)
(1.06381 -0.0049528 0)
(0.954082 0.0891063 7.78921e-21)
(1.08773 -0.0839714 0)
(0.880029 0.0954827 -1.15834e-20)
(0.450203 -0.0598085 0)
(0.980164 0.293092 0)
(-0.0438108 -0.00848219 -1.58058e-20)
(1.04645 0.0336338 -5.60721e-21)
(1.00749 0.00933104 3.30163e-22)
(0.967886 0.0246832 0)
(1.02777 0.000997311 -4.6652e-23)
(1.159 -0.0541852 -2.22916e-20)
(1.04725 0.0331199 0)
(1.0962 0.0209756 -1.58559e-20)
(1.31115 0.0583894 -1.55249e-22)
(-0.325155 -0.00714092 7.3345e-20)
(1.0392 0.19946 -2.13727e-21)
(0.984767 0.0221839 0)
(0.98651 0.0331876 -8.11259e-21)
(-0.277396 0.00393457 -2.06478e-20)
(1.23094 0.179438 0)
(0.279679 -0.419184 -3.05871e-20)
(0.986923 0.0118261 0)
(1.02222 0.000389193 0)
(1.00788 0.00758078 0)
(1.03253 0.0804272 0)
(0.134841 -0.00270029 -1.66884e-20)
(1.16812 0.135777 0)
(-0.299468 0.00211783 -3.03125e-20)
(0.987741 0.293085 0)
(0.0209269 0.00706558 0)
(1.02779 0.00122744 3.14964e-21)
(1.05703 0.0516634 9.46858e-21)
(0.786152 0.225357 1.86945e-20)
(0.998845 0.0148237 2.22988e-21)
(1.10433 -0.0499347 3.73976e-23)
(0.778854 0.217561 -1.17615e-21)
(0.190226 -0.00705945 0)
(1.00829 0.00510704 -8.49766e-23)
(0.982632 0.009791 5.47792e-21)
(0.996735 0.018909 0)
(1.30515 0.225658 -4.91685e-20)
(0.722871 -0.0981807 0)
(1.0189 0.0248914 0)
(1.00838 0.00531562 1.04806e-22)
(1.10798 -0.0646916 2.56628e-20)
(0.683792 0.0447519 -2.81306e-20)
(0.0959269 -0.0323814 0)
(0.979181 0.0385512 0)
(1.04467 0.0365535 -9.76761e-23)
(1.00339 0.0195981 0)
(0.190067 -0.0284278 -6.66374e-21)
(-0.104617 -0.00356194 -2.1778e-20)
(1.11124 -0.0556099 2.31314e-20)
(0.878612 -0.0276091 -2.93764e-20)
(1.29421 0.0352632 0)
(0.970162 0.0270344 0)
(0.539965 0.199714 1.38533e-20)
(1.15392 -0.0525227 -3.52228e-20)
(0.934848 -0.00266828 4.36682e-21)
(1.14207 -0.078937 3.3638e-20)
(1.30226 0.245393 -1.43022e-20)
(1.01019 0.00852587 -6.13764e-23)
(0.184925 -0.0305058 0)
(0.94539 0.00253852 1.87536e-21)
(1.20318 0.144456 0)
(0.790033 -0.0804979 3.64124e-22)
(1.01055 0.0136796 0)
(1.24882 -0.0307621 2.8978e-20)
(1.08336 -0.084696 7.40218e-21)
(1.00343 0.0298762 1.86592e-21)
(0.992727 0.00663128 0)
(1.00003 0.00101788 0)
(1.01918 0.00118307 -8.01772e-22)
(1.19832 0.037193 -1.81739e-20)
(1.02821 0.000599183 0)
(0.996695 -0.000734405 -2.0999e-21)
(1.00381 0.00793069 -4.96287e-22)
(0.998465 0.00937133 -3.953e-21)
(0.243496 -0.0507218 0)
(0.996493 0.0351685 4.55644e-21)
(0.995469 0.0340208 0)
(1.02204 0.000329992 0)
(0.993798 2.50877e-05 -3.01533e-21)
(0.46414 0.740544 2.68143e-20)
(-0.109481 -0.010954 -1.43686e-20)
(1.22735 -0.00249098 0)
(0.986133 0.0338134 8.73939e-21)
(0.177192 0.00374666 1.41063e-20)
(1.04078 0.0402007 0)
(-0.315547 -0.00209847 4.35949e-20)
(0.956821 0.287904 8.25285e-21)
(1.10898 -0.0585602 3.50899e-20)
(1.11667 0.0333136 6.82581e-21)
(0.985811 0.00996192 0)
(0.292632 -0.396629 -8.85241e-22)
(0.00949187 0.00570934 0)
(0.996368 0.0190191 0)
(0.437552 -0.0622764 2.12807e-20)
(1.26165 -0.0192888 0)
(1.00362 0.00772022 4.78106e-22)
(1.19632 0.168042 -1.79801e-20)
(0.538317 0.606242 -5.33357e-20)
(0.997544 0.00481909 1.19553e-21)
(1.24905 -0.0247434 -1.5707e-20)
(0.994268 0.00452178 0)
(1.04663 0.0183549 2.86352e-21)
(0.00755225 0.0041436 -3.06658e-21)
(-0.305866 -0.0030836 0)
(1.00447 0.00815346 4.88864e-22)
(1.09763 -0.061131 -9.05008e-21)
(0.99262 0.00688173 0)
(0.986763 0.0227122 -1.2224e-20)
(1.00143 0.00743488 0)
(0.996262 0.0340033 -6.17205e-21)
(1.01762 -0.0759516 -1.11212e-20)
(0.999028 0.0123305 0)
(1.11234 -0.00636382 9.16147e-21)
(-0.231091 -0.00215502 0)
(1.00754 0.00863531 -1.55035e-23)
(1.00562 0.0366204 1.99377e-21)
(1.09499 0.0217022 1.98433e-20)
(1.10981 -0.0651942 0)
(-0.202995 0.00926104 9.99714e-21)
(0.997223 0.035208 3.83078e-21)
(0.274028 0.969059 -2.42297e-20)
(1.11165 -0.00517125 1.15452e-20)
(-0.24254 0.000647965 -1.1493e-20)
(1.02967 0.00717061 3.40964e-21)
(1.11503 -0.0747946 -2.28352e-20)
(-0.224875 -0.00662054 0)
(1.09951 0.00820585 4.76008e-21)
(0.999918 0.00151702 5.07393e-21)
(1.02915 0.0810816 -1.97752e-21)
(0.0595376 0.0164508 -2.49753e-20)
(1.01033 0.013161 0)
(1.09993 -0.0571006 0)
(0.266743 -0.0536837 -7.32414e-21)
(0.162417 -0.00531507 7.24651e-21)
(1.01354 0.232304 -4.59956e-21)
(1.00002 5.15967e-05 1.44659e-21)
(-0.106222 -0.000738049 0)
(0.937753 0.0301917 -1.42227e-20)
(1.02929 0.0403072 3.0406e-22)
(0.415842 -0.99387 2.98462e-20)
(-0.00266053 0.00344354 0)
(1.1615 0.017505 -4.00603e-20)
(0.0876473 -0.0228243 -3.49148e-20)
(0.907153 0.197224 5.55246e-21)
(1.02731 0.0804605 -1.3599e-21)
(1.28935 0.130712 5.28438e-20)
(0.708668 0.0487538 -4.98032e-20)
(-0.2425 -0.00548773 0)
(0.985172 0.0113779 0)
(0.999962 0.00154583 -1.11764e-21)
(1.13272 -0.068869 1.25663e-20)
(1.01009 0.00882008 -3.2548e-22)
(1.03531 -0.000677398 -5.70371e-21)
(1.0464 0.0189063 -1.37251e-20)
(-0.157637 -0.00879524 4.16032e-20)
(1.0198 0.00570095 -8.87804e-22)
(1.0058 0.0127348 6.06085e-22)
(1.09488 -0.0298837 7.16119e-21)
(1.02973 0.0394629 0)
(1.00266 0.00699429 -1.20645e-21)
(1.17262 0.0776211 -9.89404e-21)
(1.00571 0.000373957 0)
(0.916663 0.000921325 0)
(0.198755 0.735831 0)
(1.05942 -0.0738564 -5.67125e-21)
(1.08074 0.0652686 -1.30916e-20)
(1.13173 -0.06945 -1.54906e-20)
(0.257021 -0.977979 -2.19922e-20)
(0.997567 0.00455095 2.49872e-22)
(-0.0723991 -0.00575783 -3.1078e-20)
(1.07379 0.0298784 0)
(0.112854 -0.030599 0)
(0.531774 0.231789 -6.62273e-20)
(0.988949 0.0198195 1.8473e-22)
(1.02682 0.0427066 0)
(0.054827 0.00145009 -1.72649e-21)
(1.25921 0.0352018 -1.08972e-20)
(1.02823 0.000847487 6.37962e-21)
(1.10699 -0.0650866 -2.46078e-20)
(0.98747 0.0120181 0)
(0.594395 -0.0651214 -7.49189e-21)
(1.07211 -0.0844977 1.46987e-20)
(1.00609 0.103813 -1.46448e-21)
(-0.092782 0.00535615 1.61365e-20)
(0.113908 0.00685234 8.69802e-21)
(0.753859 0.103538 0)
(0.177205 -0.0262719 0)
(0.787735 0.0605835 4.56466e-20)
(0.982099 0.094271 -7.21407e-21)
(1.07674 0.0342227 -1.83584e-20)
(1.00358 0.0136238 -1.72728e-21)
(0.915395 -0.000819692 -6.77051e-21)
(0.67744 0.141798 2.50028e-20)
(1.10203 -0.0370266 -4.36912e-21)
(0.0902427 0.00207926 0)
(1.16029 0.116161 -1.2132e-21)
(1.01941 0.010973 0)
(1.11426 -0.0400478 0)
(1.0286 0.000187896 0)
(0.0583199 -0.00527627 0)
(0.26233 0.830411 2.75026e-20)
(0.987058 0.0233141 8.97912e-21)
(0.939352 0.0299974 1.14553e-20)
(0.0147397 0.00728191 -1.29666e-20)
(1.11831 0.0221252 0)
(0.04876 0.214406 0)
(1.11804 0.101656 0)
(1.2777 0.0418797 0)
(0.930737 0.152134 7.5566e-21)
(0.439516 0.996941 0)
(1.02096 0.00748773 2.32617e-21)
(0.994539 0.00460989 0)
(-0.269756 -0.00512701 0)
(0.999979 0.00138141 -1.64644e-21)
(0.994893 0.0416899 -1.343e-22)
(0.946928 0.0828628 3.21104e-22)
(1.1127 -0.0340998 0)
(-0.132314 -0.00664247 0)
(0.249222 -0.112098 9.06875e-20)
(1.09548 0.0438162 0)
(0.999946 0.00134907 -3.95221e-21)
(-0.0851177 0.000517598 0)
(1.10459 -0.049118 5.84926e-23)
(1.02075 0.00723552 9.7227e-22)
(0.981274 0.018996 0)
(1.01398 0.0005166 -1.85187e-21)
(0.857939 0.32998 -2.49721e-20)
(1.00997 0.0130864 1.24993e-22)
(0.183743 -0.0299447 0)
(0.810214 -0.0802761 -2.18402e-20)
(-0.0495115 -0.0140364 -2.55847e-20)
(0.699472 0.0508584 0)
(1.09729 0.0439536 -4.87448e-21)
(1.14035 0.168356 2.18439e-20)
(0.968999 0.0266641 -7.05799e-21)
(1.03035 0.0058252 -4.50354e-21)
(1.23952 -0.0242361 4.51995e-20)
(0.235097 -0.125049 -9.49356e-20)
(-0.26532 -0.00837091 1.00507e-19)
(1.00001 0.000811962 2.46322e-21)
(1.0029 0.00492754 8.19739e-22)
(0.0185267 0.0109639 -3.92987e-20)
(1.13557 -0.0099129 4.56829e-20)
(0.935805 0.477856 -1.06e-21)
(1.11549 -0.0741029 2.03226e-20)
(1.00144 0.00767963 -8.92644e-22)
(0.465745 -0.0584468 1.61181e-20)
(1.04375 0.0380744 -5.96502e-21)
(0.845079 0.00482974 -1.74831e-20)
(0.879265 0.0366046 0)
(0.796842 1.0129 6.38628e-21)
(1.01394 0.026547 -2.03059e-22)
(0.949043 0.291496 -2.57787e-21)
(1.07039 0.0527391 9.24706e-21)
(0.962874 0.062628 -2.57728e-21)
(-0.0248945 0.00857314 -5.97612e-20)
(0.971672 0.0286274 0)
(0.0157936 -0.00507161 1.26591e-20)
(0.468222 -0.0655991 -1.85334e-20)
(1.14413 0.0915711 2.23848e-20)
(1.00978 0.00874032 7.77884e-23)
(0.97454 0.0533137 0)
(1.09971 0.446081 0)
(1.14202 0.0618891 3.80427e-20)
(1.10377 -0.0260374 1.37757e-20)
(0.999255 0.0129128 3.71884e-21)
(1.03446 0.0175549 0)
(-0.0970351 -0.0129191 1.36231e-20)
(1.22977 0.00875811 0)
(1.10327 -0.0230245 6.36522e-21)
(1.11954 -0.0674089 -1.04824e-20)
(1.11226 0.00227876 -2.52715e-20)
(1.01955 0.0108039 7.20214e-22)
(0.960853 0.0631809 0)
(0.993596 -0.000283119 3.18257e-21)
(0.982408 0.0221498 3.79549e-21)
(1.0043 0.00796984 0)
(1.0321 0.00484384 3.18657e-21)
(1.00275 0.00477976 4.00578e-22)
(-0.313957 -0.000958829 -8.81563e-21)
(0.997952 0.0238737 2.95912e-21)
(0.978059 0.039029 1.3218e-21)
(1.00758 0.102342 9.42108e-22)
(1.2261 0.180633 -1.87639e-20)
(1.10306 -0.0844451 0)
(-0.0617007 0.00658457 0)
(0.200733 -0.00620709 1.45278e-21)
(1.06567 -0.00594704 -5.88269e-21)
(0.968006 0.14698 8.07545e-21)
(0.0902011 -0.0152122 8.23842e-21)
(0.996925 0.0117327 0)
(1.10174 0.033687 -5.3142e-21)
(1.01419 0.0261275 1.77548e-22)
(0.997728 0.00490416 6.10592e-21)
(1.01154 0.0306782 -7.87384e-22)
(1.09607 -0.0381915 1.42683e-20)
(1.01137 0.0194545 0)
(1.10024 0.166498 1.02893e-20)
(-0.316974 -0.000984739 -1.55803e-20)
(1.08569 -0.0278453 -4.59963e-21)
(0.993785 -0.000664284 2.25392e-21)
(1.00351 0.0139509 1.78503e-21)
(0.988487 0.0116863 -5.6105e-21)
(1.09265 0.045002 8.30973e-21)
(1.02866 0.000427267 3.41874e-21)
(-0.310998 -0.000834132 1.19012e-20)
(0.998811 0.0122553 -2.20949e-21)
(1.11359 -0.00654398 -9.51982e-21)
(1.13513 -0.0689161 -6.89701e-21)
(0.672876 -0.0688537 1.99411e-20)
(1.04769 0.0177332 -3.80277e-21)
(-0.134111 -0.0077853 2.0628e-20)
(1.09397 -0.0297818 -1.28791e-20)
(1.09571 -0.0491995 4.78446e-21)
(1.05063 0.014871 -1.10854e-20)
(1.17101 0.0805568 1.00374e-20)
(-0.0650906 -0.0153753 0)
(1.01933 0.00126439 -1.475e-23)
(1.11354 0.00149293 1.72493e-20)
(1.14488 0.0891782 -2.22458e-20)
(1.11536 0.102351 8.27109e-21)
(0.973888 0.372899 -4.21148e-22)
(1.23298 0.0067327 2.86791e-20)
(-0.0425745 0.00795266 8.05532e-20)
(1.10224 0.0777885 -6.60315e-20)
(0.984285 0.0953256 7.82795e-21)
(1.00689 0.134044 0)
(1.12812 -0.0186042 1.84424e-20)
(-0.248894 -0.00337837 -2.26727e-20)
(1.03108 0.038594 -2.53543e-21)
(1.03071 0.0395874 2.78371e-21)
(1.02987 0.00578409 5.58382e-21)
(1.01162 0.0191859 0)
(-0.0863504 -0.004829 -2.05438e-20)
(1.00988 0.132735 0)
(1.06358 -0.00205443 5.70381e-21)
(1.29916 0.200098 -2.54226e-20)
(-0.151778 0.0245921 0)
(0.992755 0.0531784 3.53025e-21)
(-0.137361 -0.0121132 4.24263e-20)
(0.949836 0.0825099 8.29863e-21)
(-0.137498 0.00755847 -7.98622e-20)
(1.20251 -0.0100501 -1.82183e-20)
(0.996551 0.000655464 1.25483e-21)
(-0.257929 -0.00813611 -9.17866e-20)
(1.06441 -0.00262377 6.15561e-21)
(1.00172 0.0742566 2.95503e-21)
(1.22631 -0.00563815 0)
(0.474774 -0.0528773 -3.53795e-21)
(0.761619 -0.0519598 -1.78944e-20)
(1.13338 -0.0586665 -1.92359e-20)
(-0.236545 -0.00748851 -3.67421e-20)
(0.945386 0.0062274 6.9864e-21)
(1.22338 -0.00543423 0)
(1.00917 0.236251 1.4123e-21)
(1.00001 0.000215888 0)
(1.02238 0.00665795 0)
(1.02412 0.0274648 2.38684e-21)
(1.00413 -0.0759011 0)
(0.996688 0.0116432 -2.99132e-21)
(1.00135 0.00788288 0)
(1.19329 0.131363 -6.5509e-20)
(1.00009 0.0746861 1.47062e-22)
(0.629165 -0.0662873 0)
(1.12037 -0.0683245 6.48514e-21)
(-0.150044 0.0139953 0)
(0.973637 0.0282231 1.03425e-22)
(0.980805 0.00820298 0)
(-0.212581 -0.00227612 0)
(1.09164 -0.0598391 -1.71564e-21)
(1.00001 0.000164819 0)
(1.0831 0.057316 8.0907e-21)
(1.10388 -0.0239534 -2.18754e-20)
(0.997674 0.0051273 -8.05696e-21)
(1.20201 0.14815 -1.95028e-20)
(-0.264156 -0.00257969 0)
(1.09446 0.0453529 -8.96061e-21)
(0.998276 0.00934701 3.18752e-21)
(1.10828 0.333031 -1.71225e-20)
(0.402929 -0.5136 -2.56326e-21)
(0.934912 0.152538 -1.28753e-20)
(0.982269 0.367226 5.86601e-22)
(-0.000449644 -0.00505098 -2.6189e-20)
(1.12434 -0.0474034 -8.48392e-21)
(1.02202 0.00650297 0)
(-0.314839 -0.00130193 1.36726e-19)
(1.08661 -0.0101385 -6.48162e-21)
(1.17229 0.0474966 2.61204e-21)
(0.994801 0.0407817 1.15564e-22)
(0.622774 -0.0667165 -2.00685e-20)
(1.11392 -0.0744504 9.37912e-21)
(1.00003 0.000548322 -2.59969e-21)
(-0.322828 0.00308726 -7.96613e-20)
(0.984695 0.00320236 -7.23581e-21)
(0.970392 0.028281 0)
(1.01952 0.0250884 0)
(0.993947 0.00262368 0)
(-0.182587 0.0063844 -9.45256e-20)
(-0.0901631 -0.00480107 0)
(1.02087 0.00672894 -3.05855e-21)
(1.02381 0.00233549 6.20913e-22)
(1.00601 0.0996199 0)
(0.914521 0.141013 2.76084e-21)
(0.714561 -0.097255 4.71683e-21)
(1.11438 -0.0682054 2.95362e-20)
(-0.298006 -0.00230367 7.20753e-20)
(1.17625 0.0630605 0)
(0.203165 -0.033645 1.17656e-20)
(-0.292354 0.003657 0)
(-0.298336 -0.000328513 2.33051e-20)
(0.201384 -0.0318418 2.18745e-20)
(0.980939 0.00756106 0)
(1.00348 0.00780095 0)
(1.04132 0.0778068 -8.57491e-21)
(0.203188 0.00447282 0)
(1.04475 0.0376457 -3.21172e-21)
(0.993762 0.00285955 0)
(1.02102 0.00700426 9.03613e-22)
(0.801942 -0.080253 0)
(-0.323383 -0.000849 0)
(1.00518 0.0130382 1.3151e-21)
(0.984795 0.0286705 -3.83936e-21)
(0.999979 0.000634943 2.32149e-21)
(0.0528633 -0.00623258 -1.17438e-22)
(1.07382 0.156824 0)
(0.337586 0.615466 0)
(1.04565 0.0361281 9.78129e-23)
(1.09888 -0.0513715 0)
(1.07182 0.0301677 -8.46151e-21)
(1.14474 0.169957 4.87712e-22)
(1.15956 0.0166079 3.51528e-20)
(1.00776 0.00777718 0)
(0.212374 0.00504116 1.95496e-21)
(1.04752 0.0182513 0)
(1.10569 -0.0626539 0)
(0.982968 0.0255676 0)
(0.992062 0.0544387 0)
(0.986357 0.0372024 -3.83098e-21)
(0.202203 -0.0488169 1.32971e-20)
(0.0629661 0.330842 -5.66656e-20)
(0.0604893 0.261225 0)
(0.996697 0.00081789 0)
(0.484988 -0.0595086 -1.46284e-20)
(0.162999 -0.024181 0)
(0.944343 0.00561166 2.13389e-21)
(-0.277098 0.00499756 6.02462e-20)
(1.09818 -0.0607462 2.49632e-22)
(1.09922 -0.0566677 7.4397e-21)
(1.00329 0.00758971 2.15579e-21)
(0.985871 0.0122024 -3.95558e-22)
(0.987967 0.0114984 0)
(1.2605 -0.0170153 2.21695e-20)
(0.560271 -0.0337372 -2.54366e-20)
(1.09629 -0.0311471 -2.04083e-20)
(-0.181982 0.00640899 6.90171e-20)
(1.00006 0.00330951 3.9769e-21)
(0.985746 0.00616807 0)
(1.11022 -0.00548749 -1.13958e-20)
(1.10815 0.0622221 -1.26825e-20)
(1.01616 0.0258653 2.60956e-23)
(-0.241836 -0.00317371 -2.66557e-20)
(1.02669 0.0972298 5.2878e-22)
(1.092 -0.0604896 0)
(0.502355 -0.0880408 0)
(-0.132584 -0.00199353 -4.32765e-20)
(0.079828 -0.00634634 5.32837e-23)
(0.0314216 0.0589374 1.63574e-20)
(1.14979 -0.0688548 0)
(0.984933 0.00272253 9.24765e-21)
(1.0217 0.00667608 0)
(1.07697 0.00425826 -6.54995e-21)
(0.983416 0.0297697 -8.27639e-21)
(0.872855 0.0899919 -6.18215e-21)
(0.0378928 0.0126388 0)
(0.985781 0.011441 0)
(-0.223713 0.0039064 -8.23077e-20)
(1.20891 -0.00729716 2.52747e-20)
(-0.225767 -0.00357869 0)
(1.07187 0.0512059 6.82217e-21)
(0.775506 -0.0804364 9.76503e-21)
(1.09091 0.139428 -1.46607e-20)
(0.513294 -0.898929 1.27956e-21)
(1.0637 -0.00567983 0)
(1.00134 0.00765998 9.13427e-22)
(0.860316 -0.041543 0)
(0.979641 -0.00255212 -2.19643e-21)
(1.07655 0.0353955 1.57861e-20)
(0.951873 0.480835 -3.60274e-21)
(1.21616 0.372764 -2.00833e-20)
(0.0588545 0.0728695 3.87573e-20)
(1.11717 -0.0745477 0)
(-0.234156 0.0102027 9.04626e-21)
(0.195635 -0.0491593 5.45542e-21)
(1.07975 0.145721 0)
(0.999037 0.0127821 -4.15308e-21)
(0.200593 0.00407786 0)
(1.0244 0.00253197 4.65598e-21)
(1.24075 -0.0259547 -2.57335e-20)
(-0.284631 -0.00299181 4.47776e-20)
(1.0143 0.000332749 1.24261e-22)
(1.06557 0.0833343 -2.67099e-21)
(1.11396 -0.073599 -5.4132e-21)
(0.175831 -0.0265227 -6.8821e-21)
(0.977246 0.0538153 -9.66314e-21)
(0.999969 0.00102162 1.76815e-21)
(0.867032 -0.081077 0)
(-0.174981 -0.00183173 0)
(-0.212775 0.000856307 5.19422e-20)
(0.994873 0.0328951 0)
(0.16168 0.110703 -1.80642e-21)
(1.01981 0.0394432 -1.61164e-22)
(1.13274 -0.0774657 -8.20198e-21)
(1.08508 0.141869 -1.3323e-20)
(1.05819 0.0273649 7.36767e-22)
(0.934244 0.287001 0)
(0.11769 -0.0099968 0)
(1.03203 0.0386565 0)
(0.982989 0.0272751 -9.37521e-22)
(0.994917 0.0322768 0)
(1.01867 0.0265641 0)
(1.15953 -0.0559347 0)
(0.357154 -0.0503243 -1.99856e-20)
(0.127032 -0.0422502 -2.0239e-20)
(-0.220456 -0.00614804 -1.24419e-20)
(1.00261 0.00753515 1.22758e-21)
(-0.0862057 -0.00653477 -8.73587e-21)
(1.1059 0.0622235 0)
(1.19999 0.0328267 2.2506e-20)
(1.3173 0.0898814 4.27069e-20)
(1.07744 0.0188695 0)
(-0.318197 -0.00142439 -4.4074e-20)
(0.94556 -0.000302843 -1.43464e-20)
(0.969008 0.0584827 0)
(0.653074 -0.0687887 0)
(1.29746 0.194489 -4.78944e-22)
(1.14633 -0.0429623 -1.21033e-20)
(0.974686 -0.065029 3.34483e-20)
(1.05873 -0.0852137 -7.93046e-21)
(1.06963 0.199637 1.42746e-20)
(-0.324089 0.00144631 -1.23992e-21)
(1.10875 -0.065559 -2.27805e-20)
(0.965403 0.00529243 -9.6144e-21)
(0.648572 -0.0690526 0)
(0.868942 0.0325121 2.35878e-20)
(1.10926 -0.0043295 0)
(0.894065 0.0544179 -4.06763e-20)
(0.904545 0.0696266 -7.81016e-21)
(1.08841 0.141908 1.07279e-20)
(0.957523 0.0621735 6.59198e-21)
(0.843726 0.00962147 0)
(1.13434 -0.057885 1.07695e-20)
(0.883556 0.0795179 0)
(1.07259 -0.0116437 0)
(1.08378 0.0056085 3.1329e-21)
(1.09578 -0.0482742 9.30722e-21)
(1.06851 -0.00467148 4.29132e-21)
(0.989305 0.0192599 -1.70962e-22)
(0.973046 0.0255161 5.79439e-21)
(0.994094 0.0317332 0)
(0.964141 0.00861157 -9.56793e-24)
(1.14983 -0.0694645 -1.3947e-20)
(0.467676 -0.668875 -1.45904e-20)
(1.04382 0.0391729 5.24891e-21)
(1.02952 0.0266555 1.18802e-21)
(1.01854 0.198658 0)
(-0.226838 0.007612 3.46115e-20)
(1.00023 0.000244192 2.29747e-21)
(1.00722 0.0980511 1.94222e-21)
(0.824449 0.212711 -4.06744e-20)
(1.13411 -0.0696237 0)
(0.999963 0.00138181 9.64606e-22)
(1.00713 0.0492279 6.90164e-22)
(1.06839 -0.00545346 0)
(1.13206 -0.0277577 -9.43811e-21)
(1.02856 0.0758247 -1.80469e-21)
(1.00788 0.0319205 -1.90289e-21)
(1.00907 0.0121237 0)
(-0.0728849 0.00534768 1.90788e-20)
(0.196052 -0.0426697 0)
(1.25642 -0.0219452 0)
(1.01285 0.135299 -4.44473e-23)
(0.999948 0.00153761 1.01047e-21)
(1.0026 0.00479181 -8.25819e-22)
(0.915969 0.10695 -8.39742e-21)
(0.993559 -0.000973937 1.72878e-21)
(1.00059 0.0147494 -1.46546e-21)
(1.06376 0.0831848 -5.17552e-21)
(0.0371669 -0.00883547 0)
(1.13622 -0.00802892 -4.65549e-23)
(0.872215 -0.0708987 0)
(1.00273 0.00922002 0)
(1.02507 0.0963086 0)
(0.753883 0.236927 -1.1545e-20)
(0.490256 -0.0535822 4.16228e-21)
(0.94188 0.284644 -7.20859e-21)
(-0.286264 0.000747509 -2.97042e-20)
(1.09245 -0.075423 -2.07849e-20)
(0.371866 0.919373 -1.48438e-20)
(1.03153 0.00494864 -2.12542e-21)
(1.00254 0.00484407 8.75582e-22)
(-0.20401 -0.00442136 2.46475e-20)
(1.07711 0.341545 1.70785e-20)
(1.0914 0.136415 2.50392e-22)
(1.16369 0.115469 -1.32361e-20)
(0.420568 -0.0633201 0)
(0.207684 0.00533873 -8.02526e-21)
(0.696697 0.413599 -4.57372e-20)
(1.02563 0.0517264 -2.10088e-21)
(1.15274 -0.0550192 -1.36993e-20)
(-0.212161 0.00900729 1.77477e-21)
(1.06724 0.0801394 2.65926e-21)
(0.528517 -0.021594 0)
(1.11596 0.202469 0)
(1.30907 0.062771 2.07681e-20)
(-0.207152 0.00511 4.66627e-20)
(1.18157 0.305915 -2.1982e-20)
(1.13639 0.171331 1.74193e-20)
(0.944559 0.000560047 1.7865e-20)
(0.994529 -0.0818062 0)
(1.02897 0.02687 -5.8058e-23)
(0.0478479 0.0714229 0)
(1.08355 0.0591911 4.20238e-22)
(1.00958 0.00838644 9.81578e-23)
(1.01617 0.0429364 3.54793e-22)
(1.02138 0.00648685 1.19711e-21)
(-0.32667 -0.00106325 0)
(1.03541 -0.000356251 0)
(1.19817 0.0896996 1.68117e-20)
(0.986436 0.0123592 0)
(0.917779 0.143582 2.63917e-21)
(1.20228 -0.0310061 2.54214e-20)
(1.01547 0.133876 2.29604e-22)
(0.995915 0.0135632 0)
(-0.0920351 0.00868211 2.43675e-20)
(0.584133 -0.209454 -7.11359e-21)
(1.003 0.00743194 -3.11071e-22)
(1.03234 0.0376618 0)
(0.450895 0.052131 1.95042e-20)
(1.13484 -0.00697244 -5.14746e-23)
(1.09819 0.00789176 0)
(1.09506 -0.0629566 0)
(1.08119 0.0129354 -1.05573e-20)
(0.966296 0.0875809 6.42997e-21)
(1.02376 0.0131932 0)
(1.09665 -0.0682753 -7.55464e-21)
(0.108128 -0.0396615 1.56949e-20)
(0.148018 -0.0430923 0)
(-0.0875936 0.00866808 4.76176e-20)
(1.06877 0.33913 -2.67139e-20)
(1.19944 0.0873597 1.79846e-20)
(0.829823 0.218605 2.10133e-20)
(1.18787 0.310534 0)
(0.944633 0.0366283 0)
(0.716875 -0.0772384 -1.26973e-20)
(0.0633361 0.0620618 3.02138e-20)
(1.20633 -0.00739222 -4.0854e-20)
(0.999956 0.0155801 -2.1142e-21)
(0.986454 0.0938624 7.09487e-21)
(0.490307 0.0796643 -3.70252e-20)
(1.00671 0.0500624 0)
(0.945471 -0.0813426 0)
(-0.219035 0.0117368 -9.44526e-21)
(1.23665 0.0888104 -4.65389e-20)
(0.993909 0.00192425 7.66865e-22)
(0.768 0.220662 0)
(1.01969 0.0385608 -2.29033e-22)
(0.916079 0.205066 -1.12409e-20)
(-0.299817 -0.0024865 -5.46989e-20)
(0.994074 0.0310023 -4.3962e-21)
(1.1368 -0.0784467 0)
(0.689867 -0.0281323 2.43945e-20)
(0.992121 0.00530617 -2.49079e-22)
(1.0019 0.161003 1.95179e-21)
(1.07207 0.152933 -1.26117e-20)
(1.02103 0.00146771 1.04551e-21)
(1.07168 0.125456 -1.33956e-20)
(0.218063 -0.0456117 3.30039e-21)
(1.10407 -0.0218367 -1.43019e-20)
(1.09058 -0.0283184 3.04978e-21)
(-0.212672 0.00724218 -1.01735e-20)
(1.1307 -0.0272465 0)
(0.975712 0.0544596 5.32301e-21)
(0.919679 -0.0129473 3.07858e-21)
(1.00897 0.0119046 -1.33236e-22)
(0.86792 0.0896172 0)
(1.02337 0.0132439 0)
(0.993861 0.00128598 -3.21822e-21)
(-0.172035 -0.00958937 -1.94183e-20)
(1.11379 -0.00351392 6.3148e-21)
(0.916262 0.00520694 -1.33546e-20)
(1.05153 0.043736 0)
(1.02009 0.00581333 1.27831e-21)
(1.05181 0.0447044 -4.76488e-21)
(1.03119 0.000429066 4.08729e-21)
(0.511313 -0.0802142 -3.8009e-20)
(0.472261 0.104237 0)
(0.989865 0.0718272 6.59299e-22)
(1.11589 -0.0749356 -2.89217e-21)
(0.132593 -0.00648972 -2.15702e-20)
(1.01049 0.00859596 -2.00563e-22)
(1.11092 0.324488 1.58314e-20)
(1.0014 0.0142283 -1.04047e-22)
(1.07205 -0.01233 7.43279e-21)
(1.00001 0.00154862 0)
(0.964122 0.0116927 -8.09704e-21)
(0.102568 -0.0173796 0)
(0.945785 0.0929934 0)
(-0.30379 -0.0036679 -6.8732e-22)
(0.983478 0.0279868 0)
(0.95831 0.0322249 1.05389e-20)
(1.28492 0.0324051 4.71523e-21)
(0.687272 -0.0765377 1.32407e-20)
(0.996674 0.000334314 7.46503e-21)
(1.0017 0.130138 4.07867e-22)
(-0.149086 0.0153921 -1.23491e-19)
(0.000307851 0.0484217 -9.36832e-20)
(0.999993 0.00136407 0)
(0.0443434 0.0644393 -6.56528e-20)
(1.0822 -0.0113639 -1.33863e-20)
(0.917142 0.209714 -5.82428e-21)
(1.20998 -0.00431504 -5.27536e-21)
(0.917907 -0.0120768 0)
(-0.242907 -0.00171713 0)
(0.90752 0.0699309 8.71026e-21)
(0.988555 0.0122927 5.23754e-21)
(1.00784 0.0326642 1.7322e-21)
(1.00817 0.00768591 0)
(0.958304 0.033311 -1.17336e-20)
(0.988111 0.0713496 6.29648e-22)
(0.101052 0.00489712 0)
(0.595231 0.0611048 0)
(1.10338 0.0378487 0)
(1.33032 0.169689 -2.8248e-20)
(0.834851 0.309213 0)
(0.901063 -0.0720394 1.11821e-20)
(1.06829 0.129523 4.69443e-21)
(0.998788 -0.000122174 -4.00206e-21)
(1.09529 -0.031079 1.32016e-20)
(0.387426 -0.060182 0)
(1.08979 0.0750351 -1.08699e-21)
(1.10334 -0.0209329 0)
(1.09118 0.0495491 1.26642e-20)
(-0.199298 0.00633993 -7.23187e-20)
(1.16187 -0.067678 0)
(0.968877 0.0816208 0)
(1.07082 0.127882 4.93529e-21)
(0.945517 0.00916175 0)
(-0.236527 0.0046427 -6.66853e-20)
(0.99649 0.000232456 -9.51127e-21)
(0.489194 0.067126 0)
(1.01981 0.0237393 -1.89079e-21)
(1.00339 0.132181 -8.25034e-22)
(0.954711 0.0650231 1.4841e-20)
(1.14854 0.0492647 -1.2132e-20)
(0.968005 0.0887158 -4.20139e-21)
(0.8365 0.31758 -1.16668e-21)
(0.912966 0.108555 0)
(0.922 0.275827 -9.67632e-21)
(1.03106 0.00544078 2.06768e-21)
(1.18599 -0.0363508 -2.61292e-20)
(1.13137 -0.0570451 -1.40226e-20)
(1.07556 0.125101 -3.3701e-22)
(1.02084 0.00147609 0)
(1.09666 -0.0469633 -9.69682e-21)
(0.203918 -0.010619 8.54752e-21)
(1.20438 0.362484 3.79746e-20)
(1.01497 0.00277374 -1.56346e-23)
(0.914931 0.00351955 0)
(0.200071 0.824604 -1.53826e-20)
(1.10393 -0.0848533 8.50933e-21)
(1.28438 0.0486829 1.37429e-20)
(0.978896 0.019496 -3.98412e-21)
(1.14365 0.0635307 -2.91884e-20)
(1.00005 0.00119154 0)
(1.05682 0.19381 -4.94853e-21)
(1.148 -0.0689347 9.03397e-21)
(0.299653 -0.31044 2.8874e-20)
(1.08274 0.00589483 9.19925e-21)