/*--------------------------------*- C++ -*----------------------------------*\
| =========                 |                                                 |
| \\      /  F ield         | OpenFOAM: The Open Source CFD Toolbox           |
|  \\    /   O peration     | Version:  v2012                                 |
|   \\  /    A nd           | Website:  www.openfoam.com                      |
|    \\/     M anipulation  |                                                 |
\*---------------------------------------------------------------------------*/
FoamFile
{
    version     2.0;
    format      ascii;
    class       volVectorField;
    location    "200";
    object      ddt0(U);
}
// * * * * * * * * * * * * * * * * * * * * * * * * * * * * * * * * * * * * * //

dimensions      [0 1 -2 0 0 0 0];


internalField   nonuniform List<vector> 
27802
(
(0.00770523 0.00267088 -1.35789e-21)
(-5.42141e-07 9.73204e-06 0)
(0.000916652 -0.000171661 5.19423e-21)
(3.49302e-05 -2.02159e-06 9.00106e-21)
(-0.00498419 -0.0258952 -1.61152e-21)
(-3.10108e-05 -0.000103314 0)
(0.00154667 0.000717241 0)
(-0.000113556 4.10865e-05 5.26624e-21)
(-0.0130915 0.00768026 -7.52928e-21)
(1.74865e-05 8.54677e-05 -8.73618e-21)
(2.27754e-05 -1.49736e-06 9.4932e-21)
(0.00775732 -0.000362433 -8.15934e-21)
(-0.00100201 0.00649202 0)
(0.000974132 0.0132051 -2.60015e-20)
(4.05593e-05 1.74763e-05 -1.20996e-20)
(0.00153741 0.000973848 0)
(-3.54842e-05 2.08749e-05 -2.40455e-23)
(0.00618275 -0.00428327 -1.39933e-20)
(-0.212573 -0.288395 -1.16516e-20)
(-0.0151369 -0.00714928 6.6877e-22)
(-3.07617e-06 1.12586e-05 0)
(1.86913e-05 6.07547e-06 7.75331e-21)
(0.00845905 0.00256338 1.3299e-20)
(-0.00421764 0.00158665 -4.99584e-21)
(9.57429e-06 -1.34874e-05 4.37855e-21)
(8.17767e-05 -0.000167723 -2.95601e-21)
(-7.78899e-06 -6.84979e-05 8.26914e-21)
(1.80683e-05 7.97168e-05 1.75716e-20)
(9.96884e-06 -1.04221e-05 -4.36782e-21)
(0.0723331 0.0570664 -4.09849e-21)
(2.53905e-05 -6.64659e-05 0)
(-0.0037232 -0.00233562 -7.01482e-21)
(0.00651898 0.00989383 -2.12868e-20)
(0.0254874 -0.0207715 0)
(0.0124536 0.0104902 2.46221e-20)
(2.47584e-05 -3.35616e-05 0)
(-0.018247 0.0414789 0)
(0.0624386 0.0549415 -6.13283e-21)
(2.75148e-05 -7.53988e-05 -8.78207e-21)
(-4.49931e-07 7.90939e-06 -8.0093e-21)
(3.54146e-05 3.98921e-05 1.0047e-20)
(-1.32267e-06 2.2809e-05 -1.05038e-20)
(-0.0524287 -0.0461401 1.11923e-20)
(0.00894386 0.0291154 -7.2709e-21)
(3.3971e-05 0.000345237 0)
(3.50531e-05 3.2668e-05 -1.65033e-20)
(-0.00244943 -0.0219804 0)
(4.46e-05 -0.000123097 -1.67836e-20)
(-7.68005e-05 7.94666e-05 7.71101e-22)
(-0.00602093 -0.0206572 8.86248e-21)
(-0.000319619 6.22556e-05 0)
(-2.5805e-05 0.000369717 -3.75226e-22)
(-0.023746 0.0835754 0)
(-1.6013e-05 -5.57951e-06 5.19956e-22)
(6.6853e-05 -2.14514e-05 1.06581e-20)
(-9.96339e-07 -0.000142104 3.7551e-21)
(0.0135746 0.000671114 -6.57795e-21)
(-0.000617146 0.0120703 -7.93394e-21)
(0.000674533 0.00102916 4.61159e-22)
(0.00125374 0.00242683 -6.55776e-21)
(2.34356e-05 -3.19802e-05 0)
(0.000757476 0.000818098 -2.18882e-21)
(0.0226099 0.051178 -1.0586e-22)
(0.00385793 -0.000182778 -7.4088e-23)
(0.00601765 -0.00486666 1.29469e-20)
(-0.00183982 -0.00348026 -7.27786e-21)
(0.0115248 -0.00240432 0)
(-0.000389667 -0.000360133 7.06268e-21)
(-0.00819264 -0.0411985 0)
(-0.00312336 0.0015566 -8.01133e-21)
(3.09208e-05 -1.33286e-05 0)
(-0.0071689 0.000721685 9.40223e-21)
(0.0535202 0.210545 -6.104e-22)
(-0.00736405 -0.000311693 0)
(-0.0473337 0.0360626 4.80171e-22)
(-5.2156e-05 0.000302583 -4.04335e-21)
(0.0641579 0.0456443 0)
(0.0122243 -0.00212935 0)
(-0.00725559 -0.0182345 0)
(0.0012567 0.00112001 2.08786e-20)
(-0.023686 -0.0231416 9.63183e-21)
(-0.0402228 0.021433 -3.35945e-20)
(-6.5654e-05 0.000127862 0)
(-0.00164211 0.0119243 1.55785e-20)
(3.51155e-05 0.000477738 0)
(-0.000113426 -0.000323018 -1.49282e-20)
(1.17617e-05 4.80987e-06 2.7226e-21)
(6.24579e-05 -2.81295e-05 0)
(-0.00754664 0.000474469 0)
(0.0199626 -0.0363252 -1.04377e-20)
(0.0120473 -0.00202165 -1.73132e-22)
(0.000436138 0.00101451 2.62795e-21)
(0.0441881 -0.0455929 1.54965e-20)
(0.00119833 0.00134806 -2.0864e-20)
(-1.72756e-05 -6.69779e-06 3.62943e-22)
(3.22431e-05 -0.00010462 1.4907e-20)
(0.000254978 6.8553e-05 9.33374e-21)
(-0.00548319 -0.0267985 1.15151e-20)
(3.70947e-05 2.86241e-05 0)
(-0.00171322 -0.0210444 0)
(-0.0454186 0.0149563 0)
(3.20321e-05 6.3088e-05 -1.77716e-20)
(-0.000111336 -0.000104479 0)
(1.34018e-05 1.38794e-06 0)
(0.0203901 -0.0337575 0)
(0.000316756 0.00116188 -4.01095e-21)
(-0.00288174 0.024662 0)
(-0.013315 0.00875945 8.93627e-21)
(3.62523e-05 -5.08081e-05 0)
(0.000764637 0.000104545 -3.62989e-21)
(0.000959643 -0.00144589 1.9415e-20)
(3.96379e-05 2.14034e-05 1.76391e-20)
(2.93362e-05 6.58168e-05 1.34861e-20)
(0.0605484 -0.0474666 -5.49527e-21)
(-3.78089e-06 5.74129e-05 2.00933e-21)
(-0.0228827 0.0386318 -1.09397e-20)
(-0.000319755 -0.00145833 4.32348e-21)
(6.65966e-06 5.02164e-06 -7.32463e-21)
(0.000181582 9.76037e-05 0)
(-0.0144642 -0.00544971 0)
(0.00227695 0.00712833 -2.17655e-22)
(0.011962 -0.0011218 7.19608e-22)
(0.00028528 -2.27348e-05 1.80528e-20)
(1.31307e-05 -2.64034e-07 -3.76716e-21)
(6.09967e-05 -2.99092e-05 -8.64306e-21)
(-0.00157553 -0.00741564 3.70062e-22)
(0.0475178 0.000763207 1.50149e-20)
(0.0334927 0.00827499 -4.93935e-22)
(0.00591236 0.00550034 8.76586e-21)
(0.00253722 0.00672333 9.25703e-22)
(-0.000118705 -0.000127357 1.08488e-20)
(0.000296556 -2.34827e-05 -1.52554e-20)
(-0.00166258 0.00108519 4.91038e-23)
(1.44219e-05 6.43096e-05 0)
(-7.99941e-05 0.000103698 7.66653e-22)
(-0.00023451 -0.00033636 -9.61758e-21)
(0.000390768 -0.000302483 1.05176e-20)
(-7.8972e-05 0.000192216 -1.12813e-21)
(0.0169241 -0.00462737 0)
(0.00959297 0.0106778 0)
(-0.000349261 -0.000217605 -7.49334e-21)
(-1.28004e-05 -7.85324e-05 -1.32292e-20)
(-0.000484829 -0.00715994 1.86286e-23)
(-1.04231e-05 4.11008e-05 0)
(-6.05504e-06 5.55863e-05 0)
(0.000152396 -0.000311961 8.35285e-21)
(0.000431538 -0.000235661 -1.82635e-20)
(0.000290121 0.000210255 -3.43998e-21)
(7.67398e-05 0.000366802 7.58226e-22)
(-0.00159227 0.000867502 0)
(2.12919e-05 -3.80888e-06 -1.07282e-20)
(4.70665e-05 -0.000123451 6.09846e-21)
(6.01622e-05 0.000166952 -3.52314e-21)
(-0.000452156 -0.000367261 -7.85867e-21)
(-0.0127357 -0.0056499 1.21506e-20)
(-4.1803e-05 0.000109052 -7.88986e-21)
(0.0170002 -0.0362295 8.27877e-21)
(-0.00740336 0.00530492 0)
(0.000737432 0.000108326 0)
(0.0149701 -0.0111611 7.19921e-21)
(0.0466265 0.00445708 -2.41362e-21)
(-0.00761871 1.23359e-05 0)
(-9.50153e-05 -0.000336004 1.07992e-20)
(0.00018172 0.000108029 -3.71158e-21)
(-3.29847e-05 2.07302e-05 6.2309e-24)
(-1.87298e-05 7.96602e-05 -1.46686e-21)
(6.45502e-06 2.90599e-06 3.73326e-21)
(-2.84489e-06 -0.000167318 -4.06402e-21)
(2.17733e-05 4.01534e-05 7.33231e-21)
(-0.0168957 -0.00735213 -1.2601e-20)
(1.04451e-05 2.27249e-06 2.05021e-21)
(-0.00020394 -0.00145066 -1.67757e-21)
(-5.37202e-05 -0.000159194 -2.85057e-21)
(0.00264253 0.113067 2.18457e-22)
(2.98615e-05 -8.7658e-05 2.46708e-21)
(0.00478642 -0.00777613 -3.58267e-21)
(-2.18001e-05 6.99164e-05 9.71524e-22)
(0.000274036 0.000394329 6.0557e-21)
(-5.63791e-05 0.000334343 0)
(-0.0139997 0.0450011 0)
(-0.00401151 0.00174723 -5.97366e-21)
(-0.00323761 -0.0026962 -9.05537e-21)
(-0.000655085 0.00106972 -3.0467e-21)
(0.000150373 -0.000299077 2.15035e-21)
(-4.39554e-05 -0.00018351 0)
(0.0044598 0.000442521 0)
(-4.66363e-05 8.46984e-05 0)
(-2.40686e-06 -1.39211e-06 0)
(0.0350809 8.56577e-05 0)
(0.0490491 -0.0255305 -8.34631e-22)
(-3.31897e-06 -2.00146e-06 -3.51643e-21)
(0.000972767 0.000853291 -1.9247e-21)
(0.00696477 0.00111656 0)
(1.29351e-06 9.78811e-05 5.19005e-21)
(8.20248e-06 1.5765e-05 0)
(-5.60143e-06 -1.49404e-06 1.23117e-20)
(7.30781e-06 2.87157e-05 -1.50771e-23)
(-3.4417e-05 0.000284815 0)
(4.4944e-05 5.14049e-05 6.86066e-21)
(-7.54719e-06 -9.10159e-05 2.13213e-20)
(0.0124542 0.0110016 -3.09964e-21)
(0.0868025 0.0139455 -2.05374e-21)
(0.0136342 0.0340562 -9.60154e-21)
(-0.000504963 -0.000570971 -8.61546e-21)
(4.00515e-05 -4.65863e-05 -6.33437e-21)
(0.000309929 -2.1709e-05 -8.57254e-21)
(5.89063e-05 0.000159719 2.94736e-21)
(0.00548957 -0.0409793 -5.95764e-21)
(-6.57756e-05 0.000122847 0)
(0.00149408 0.0028105 1.94565e-20)
(1.40826e-05 -1.26642e-05 -1.27593e-20)
(0.0772969 0.0131987 -1.99084e-21)
(0.00541162 -0.008188 -3.01287e-21)
(0.00025493 0.000409015 -5.26682e-21)
(0.0364692 -0.000621023 5.77958e-21)
(1.88124e-05 -3.95055e-05 5.92506e-21)
(0.0263201 0.0279012 -2.85323e-22)
(0.00094071 0.00150634 6.07766e-21)
(3.24962e-05 -0.000112078 -5.39546e-21)
(-1.73277e-05 -0.00017994 1.13579e-20)
(0.00622019 0.00549187 -7.63923e-21)
(-2.82322e-05 3.29444e-05 0)
(0.00436658 0.000769851 1.51599e-22)
(0.0249184 0.0284152 5.4203e-21)
(-3.26163e-05 -0.000189465 -1.15084e-20)
(-8.3019e-05 0.000163403 1.83566e-21)
(-6.32001e-05 0.000151146 -4.12355e-22)
(0.000907233 0.000962614 1.75676e-21)
(3.54233e-05 3.61887e-05 0)
(3.47234e-05 5.45554e-05 1.11241e-20)
(-2.62764e-05 2.22863e-05 -1.01541e-22)
(0.00203362 0.00181317 9.24561e-21)
(3.12469e-05 -9.76002e-05 -2.05258e-23)
(0.000523775 0.000725154 1.57358e-20)
(-0.198882 -0.273169 0)
(0.0107858 0.0109256 -5.0008e-21)
(2.17412e-05 8.96273e-06 0)
(0.00592994 -0.0386608 1.28622e-20)
(0.0110685 0.00919388 5.73891e-21)
(-0.00195625 0.00322006 0)
(0.000137638 0.000225769 -1.5556e-20)
(-0.0677591 0.0698233 -4.44998e-21)
(-0.0511955 0.0869894 0)
(2.65415e-05 -9.46824e-06 -2.5942e-21)
(2.733e-05 1.54992e-06 4.63531e-21)
(0.00427286 0.00887438 0)
(-5.41678e-05 0.000257583 0)
(0.0196593 0.0261588 2.82725e-22)
(0.000736054 0.00141332 1.19815e-21)
(0.000836084 -5.41803e-05 -1.49943e-20)
(0.0410643 0.0593555 0)
(1.76449e-05 0.00132342 -7.54377e-21)
(0.00750195 0.00441743 -1.10147e-20)
(0.000150126 0.000258246 0)
(3.43125e-05 -8.37415e-07 -8.63963e-21)
(9.13526e-06 4.5509e-05 -6.9454e-22)
(4.99028e-05 0.000399624 2.09045e-21)
(-0.0502604 0.0177809 2.04934e-20)
(-0.000497197 -0.00063279 7.37773e-21)
(5.57966e-06 4.53305e-05 -2.24047e-21)
(-4.40829e-05 0.00137821 7.66663e-21)
(2.55439e-05 5.96008e-05 0)
(0.00967303 -0.0004212 -2.0494e-20)
(-7.15278e-05 0.000117186 8.39102e-24)
(0.0112033 0.00744396 6.85212e-21)
(0.000281338 0.00036048 -2.18489e-20)
(0.0103433 0.011176 0)
(3.35701e-05 5.98463e-05 -3.07028e-21)
(-2.97494e-05 3.88209e-05 0)
(2.70743e-05 -8.25716e-05 -2.8983e-21)
(-0.00737999 0.00579803 -2.23119e-21)
(1.89234e-05 -8.89936e-06 0)
(0.00847227 0.0114972 0)
(-0.0678139 -0.000502003 -2.99619e-20)
(-3.28573e-07 9.68619e-05 -1.52359e-20)
(-0.0149633 -0.00495861 1.82763e-20)
(0.000228104 0.000187873 0)
(0.000857581 0.00017921 -1.52798e-20)
(0.000265253 0.000366215 1.56301e-20)
(8.75075e-06 0.000373239 0)
(0.0745542 0.00876562 0)
(0.00057892 0.000601592 6.58482e-21)
(-0.000481639 0.000613396 0)
(0.00948168 0.0197859 0)
(0.0400895 -0.0185304 6.71145e-21)
(0.0610782 0.0431458 5.8715e-21)
(-0.056041 0.00887559 -1.96981e-20)
(5.60743e-05 -0.000154482 -3.43044e-24)
(-0.000443842 9.9928e-06 -1.15563e-20)
(-3.40585e-05 -9.82434e-07 1.44574e-22)
(-3.26641e-05 4.83978e-05 0)
(0.020955 -0.0189244 1.62356e-20)
(7.50366e-06 8.56394e-05 1.0732e-21)
(0.0575585 0.0617319 2.78777e-21)
(3.12625e-06 9.68211e-05 0)
(0.0111724 -0.0145096 -7.73102e-21)
(-0.0192038 0.0405205 2.57287e-20)
(9.52839e-05 0.000510964 1.75864e-21)
(0.000779794 0.00352407 0)
(-0.0455224 0.0400817 -6.34034e-21)
(-0.00214906 -0.00332734 0)
(0.000126066 -0.000285794 0)
(0.00238983 -0.0049751 -3.4754e-21)
(0.0153109 -0.0100748 -9.2713e-21)
(-0.184638 -0.259617 4.11739e-21)
(0.017515 -0.00628618 4.68224e-21)
(2.42406e-05 5.83824e-05 -2.72836e-21)
(0.0112451 0.00587368 1.62389e-21)
(0.00444041 0.00295986 0)
(0.000243673 0.000205872 0)
(-0.00176639 -0.00124954 0)
(0.00455158 0.0013718 -2.14054e-20)
(0.00126603 -0.00334578 4.33265e-22)
(1.55397e-05 7.00856e-05 0)
(0.00817832 -0.00359448 1.18236e-20)
(1.67554e-05 -1.52859e-05 5.10305e-21)
(-0.00190919 -0.00117424 3.47658e-21)
(0.00743805 0.00324344 0)
(0.000656756 6.07601e-05 1.8158e-21)
(0.00167008 0.0141329 -1.08497e-20)
(2.36526e-05 -6.13116e-06 -2.38411e-21)
(3.79775e-05 -5.15127e-05 6.98081e-21)
(-2.48519e-05 1.06405e-05 -4.34866e-23)
(-0.000237194 -0.000303401 -1.12406e-21)
(0.00463874 0.0363245 0)
(-0.00166464 0.000491159 0)
(0.00938291 -0.000227907 1.98596e-20)
(-0.00179129 0.000257457 -6.98634e-22)
(4.08373e-05 -4.79156e-05 -7.02856e-21)
(0.000315177 0.000815248 -6.34788e-21)
(0.000594673 0.000219187 8.80866e-21)
(8.08064e-05 -0.0529402 1.31518e-20)
(-0.0444435 -0.0102957 0)
(-0.0742982 -0.00468331 -4.21085e-20)
(0.0232073 0.0298148 4.6825e-21)
(-0.0226703 0.120927 0)
(0.00138597 -0.00354378 -3.39649e-21)
(-1.2497e-05 -0.000116654 0)
(-0.00120748 0.00042523 1.67462e-20)
(1.91636e-05 -1.39538e-05 0)
(-2.62047e-05 1.75341e-05 -1.71009e-22)
(0.00686295 -0.00331393 -9.57864e-21)
(0.13798 0.0742203 0)
(-0.0082273 -0.0234269 -9.79445e-21)
(-0.00629581 -0.00779144 0)
(0.024197 -0.147691 0)
(-0.000261511 -0.0233907 1.18831e-20)
(-0.0565782 -0.0145484 -1.38365e-21)
(0.000507209 0.00155496 -1.24403e-21)
(0.029931 -0.0381526 4.10131e-21)
(-4.08166e-05 0.000177774 8.61484e-22)
(-0.00277869 -0.0194193 -6.06024e-21)
(6.21603e-05 -2.9199e-05 0)
(0.000191167 -9.03067e-05 -2.49843e-20)
(3.26242e-05 -0.000295877 -8.57598e-21)
(0.00055412 -0.000169261 1.05341e-20)
(0.00457639 0.0409694 -1.10938e-22)
(0.0267397 -0.0381417 0)
(5.25701e-06 -7.71371e-06 -4.60837e-21)
(-0.000348873 -0.000195271 6.15725e-22)
(0.0192197 0.0054337 1.21361e-20)
(0.110086 0.015595 4.58093e-21)
(-0.000431533 -0.000159033 0)
(-0.00191905 0.00255206 -2.23216e-20)
(4.89953e-06 7.87851e-06 0)
(2.68425e-05 7.01624e-06 0)
(-0.0516277 -0.0123179 1.23873e-22)
(5.58603e-05 -0.000146489 0)
(0.000542959 0.000630941 0)
(5.7602e-05 -2.37017e-05 1.22977e-20)
(-2.6915e-06 -0.000115239 -2.59029e-21)
(0.000603765 -0.0246307 -1.02866e-20)
(-0.00427883 -0.00555657 -2.17494e-21)
(-0.00538063 -0.00116495 1.25258e-20)
(0.0711626 0.0384532 7.4684e-21)
(0.0113736 0.0105932 7.67882e-22)
(-0.00422748 -0.00625996 0)
(0.0010578 -0.00121019 -1.84496e-20)
(-0.000630329 -0.00267451 3.91646e-21)
(3.96643e-05 1.00498e-05 5.49923e-21)
(-2.25249e-06 -1.32742e-06 0)
(3.75157e-06 -4.77912e-06 0)
(4.37215e-05 -0.000274017 -1.01204e-20)
(9.98772e-05 -0.00064114 1.03938e-21)
(-2.92861e-05 -3.42498e-07 5.26749e-23)
(3.04802e-05 -4.94086e-06 -3.87518e-21)
(-0.00458777 -0.0246167 -7.50556e-21)
(-0.00354659 -0.000189565 0)
(0.0167881 0.0070115 -5.40132e-21)
(0.00377176 -0.00159764 -9.14236e-21)
(0.00011371 -0.000258243 7.18455e-21)
(0.000157948 7.52047e-05 -3.76051e-21)
(0.00395311 0.00306074 0)
(0.000702975 5.03871e-05 0)
(3.78146e-05 5.87119e-05 0)
(-0.000789254 -0.0529197 -1.34779e-20)
(0.0627335 -0.101812 -1.98518e-20)
(-0.00107203 0.000475191 -1.26951e-20)
(-2.96192e-05 1.1935e-06 3.7146e-22)
(0.00697808 0.000555135 4.74281e-21)
(0.00661757 -0.00348 1.40246e-20)
(0.000844914 0.000128926 1.46979e-20)
(0.000126107 -0.000210768 -4.16781e-21)
(-0.00886103 -0.0144324 4.68291e-21)
(2.27331e-05 4.10415e-05 -1.20733e-20)
(-0.0571067 -0.0303743 0)
(-0.00283579 -0.00268145 9.80524e-21)
(0.0148182 -0.0269064 5.13058e-21)
(0.059401 0.0489273 -5.01819e-21)
(-0.00357967 -0.000110156 0)
(0.00549993 0.00243722 3.42816e-22)
(2.47237e-05 3.51336e-06 5.14479e-21)
(0.00162327 0.00695312 0)
(0.00801277 0.00378782 -9.17973e-21)
(-0.0189001 0.0852088 0)
(3.76199e-05 -0.000116759 -5.89009e-21)
(-0.000312738 -0.000298789 5.78314e-22)
(0.000373643 0.000845471 0)
(-1.17435e-05 3.49622e-05 1.90919e-21)
(-0.0507789 -0.0445255 -1.18207e-21)
(-0.040818 -0.0400017 -1.00171e-20)
(0.000327099 0.00145636 0)
(-0.00420025 -0.000231936 -1.00918e-20)
(7.45274e-05 -0.000170575 3.54271e-21)
(0.0295315 0.0225843 -1.62976e-22)
(-0.000410879 -0.000240398 -9.11087e-21)
(0.00319443 -0.000325149 1.03192e-20)
(0.00731332 0.00477805 4.33479e-21)
(0.00776638 0.0255823 7.55904e-21)
(-0.000298872 4.00911e-05 1.51797e-20)
(1.88422e-05 -1.70671e-05 0)
(-0.00273527 -0.00205143 0)
(-0.0141096 0.0783158 0)
(1.62433e-05 -9.59565e-06 0)
(-1.05445e-05 2.47866e-07 5.17786e-22)
(4.24592e-05 6.50906e-05 0)
(0.000794243 -0.00565277 8.87445e-21)
(-0.0342635 -0.0797657 1.42369e-21)
(-0.024356 -0.0796924 -1.31299e-21)
(-0.000740302 0.00113189 0)
(0.0029182 0.000745361 2.29277e-21)
(-0.00404399 -0.00263893 -5.51735e-21)
(-8.97379e-06 3.25045e-06 1.36853e-23)
(4.79268e-06 4.0612e-06 -8.91271e-21)
(0.00862749 0.00195454 0)
(2.22451e-05 -1.33858e-05 -6.00485e-21)
(8.05369e-06 -3.03166e-05 0)
(0.0028181 0.000166564 -1.09111e-20)
(0.00073674 -0.00317855 -2.51848e-21)
(-0.00783212 -0.000173393 0)
(0.13244 0.0407591 -4.91463e-21)
(-0.00590528 -0.0332273 -1.16245e-20)
(0.0164029 0.02831 0)
(-0.0199121 -0.0210005 5.95789e-23)
(-4.9623e-06 0.000117588 -1.23041e-23)
(0.00145315 0.00103526 -3.88358e-21)
(0.000459611 0.000713224 -2.90362e-20)
(-0.000285328 0.0323374 1.79635e-21)
(0.0721622 0.0369192 -9.34886e-21)
(6.14651e-05 -1.28042e-05 -1.36948e-20)
(0.000733749 0.0193482 2.01976e-20)
(0.0190111 -0.00211378 1.06454e-22)
(-0.00375154 -0.0127247 1.00738e-21)
(0.00583215 -0.0168564 0)
(-3.55296e-05 1.75889e-05 1.17945e-23)
(4.5111e-05 0.0001877 -3.14973e-21)
(0.0330866 0.00105675 2.47248e-22)
(2.64289e-05 -1.47773e-05 0)
(-2.70882e-05 0.0278113 1.99755e-21)
(9.25045e-06 -2.56526e-05 0)
(-0.00113336 -0.000521944 0)
(5.28142e-06 1.82898e-06 8.1991e-21)
(-2.21407e-05 -0.000212924 0)
(0.0176427 -0.0147399 -1.04706e-20)
(-0.0145636 0.0307813 0)
(0.117521 0.00708483 4.40559e-21)
(-0.00146299 0.00157005 -1.39579e-21)
(0.0154289 -0.000170499 -2.24745e-20)
(-2.59257e-05 1.57361e-05 -4.42791e-23)
(-0.000452734 -0.000477926 7.59933e-21)
(-0.00448907 -0.00172147 -1.03125e-20)
(-0.000439955 -0.000532295 1.4636e-20)
(0.000935738 0.00123942 0)
(0.00787862 0.00387409 0)
(0.000901163 -0.00338201 -4.98447e-22)
(-0.0324213 0.0577439 4.96763e-22)
(-0.000575266 0.000666885 1.55702e-20)
(-2.45926e-06 -8.89874e-05 0)
(-0.00473705 -0.00140689 1.49618e-20)
(1.68638e-05 -4.35932e-05 0)
(4.33022e-05 -4.12965e-05 -9.52249e-21)
(-0.0300684 -0.0248827 0)
(-9.96718e-06 -5.19383e-05 -8.55899e-21)
(0.0104338 0.00773345 -1.41958e-20)
(-0.00115473 0.00158308 1.14992e-22)
(0.00802033 -0.000881603 1.56583e-20)
(-0.0380239 -0.00654103 3.09785e-22)
(-0.0339418 -0.0128019 0)
(1.57421e-05 -1.16263e-05 8.31219e-24)
(0.0258099 -0.0265327 6.87344e-21)
(0.00769893 0.00408137 2.28547e-24)
(0.000582793 2.42492e-05 0)
(0.0812116 -0.0748827 -1.73942e-20)
(0.0159149 -0.0119304 5.64981e-21)
(-0.0381394 0.00632496 2.98967e-22)
(-0.0159365 -0.00492383 -2.02626e-20)
(5.68538e-06 2.76215e-06 1.48776e-20)
(-0.00266973 -0.00227676 9.37683e-21)
(0.00180092 -0.00372711 1.35856e-20)
(0.000181931 -7.02281e-05 1.40283e-20)
(-2.49703e-05 -0.000125191 0)
(0.0638365 0.0598979 2.60136e-21)
(-0.00610954 -0.00426333 -1.38316e-21)
(1.51296e-05 4.81337e-05 -1.5074e-20)
(-3.63302e-06 -2.91744e-06 0)
(0.0164578 -0.0256183 -2.17738e-21)
(-0.0479227 0.0232076 0)
(0.0181306 -0.00280063 0)
(-3.23065e-05 1.15333e-06 1.79799e-22)
(-0.0072487 -0.000186706 0)
(3.69275e-05 0.000198662 0)
(0.0245329 0.211376 -2.84941e-21)
(-0.000108435 1.86512e-05 0)
(-0.00457206 0.00998607 -6.15762e-21)
(-0.0684872 0.00172678 3.12519e-20)
(1.72053e-05 -2.7379e-06 -1.08732e-23)
(6.53776e-06 7.39085e-05 6.20435e-23)
(0.00018328 -0.000109862 0)
(0.0667979 0.0607743 -2.47524e-21)
(0.00748146 -0.0021116 0)
(-0.0102005 -0.000589345 0)
(0.0191212 0.247861 -8.81543e-21)
(-9.87172e-06 -0.000368786 0)
(-0.000189206 -0.000206551 9.1237e-24)
(0.00836372 -0.00120753 0)
(4.05616e-05 1.87485e-05 0)
(-0.00228232 0.00375987 0)
(1.69642e-05 3.15479e-06 0)
(1.04455e-05 6.0363e-05 1.90064e-21)
(-0.00734215 0.00844009 0)
(0.0243296 -0.0423285 0)
(-2.82254e-05 -5.68375e-07 -5.26129e-23)
(0.000669729 0.000152706 0)
(6.54559e-05 -0.000384965 -2.41282e-22)
(0.00209507 -0.00354956 -1.78535e-20)
(-7.66503e-06 -2.29486e-06 1.47759e-21)
(2.2321e-06 0.000643259 1.17629e-20)
(0.0562545 -0.0207999 -2.23545e-21)
(0.00286099 0.000984226 0)
(0.00339542 -0.0035564 6.27177e-21)
(0.00349779 -0.0741812 0)
(-0.000324125 -0.00609795 -5.12375e-23)
(0.0723312 0.0500291 7.84772e-21)
(0.00900292 -0.0513652 -2.05978e-21)
(2.28974e-05 2.58186e-05 -1.74932e-20)
(0.00712061 -0.00240377 -3.9419e-21)
(1.60934e-07 -0.000100807 5.08688e-21)
(0.0123054 -0.00540849 0)
(-0.0022282 0.00258436 2.46335e-24)
(1.73582e-05 7.7069e-06 -9.14918e-21)
(2.09946e-05 3.55503e-05 8.75838e-21)
(0.0453521 0.0591227 0)
(-1.66144e-05 -1.94574e-05 -2.90411e-23)
(1.68129e-05 1.90927e-06 0)
(1.10352e-05 6.60725e-06 2.88848e-21)
(-0.0620692 0.0102059 -3.08952e-21)
(2.10839e-05 -2.60259e-06 4.15018e-21)
(0.000128903 -0.000299559 0)
(0.0236558 -0.0275292 0)
(-0.00291108 -0.0248477 -1.6104e-21)
(-0.0147946 -0.0112528 -4.91539e-21)
(0.00174375 0.00866253 0)
(-0.00769004 -0.0431394 -9.14248e-21)
(0.000621225 9.23216e-06 0)
(-0.00482457 0.00149045 0)
(0.000269524 0.000337965 1.61848e-20)
(0.012182 0.0109023 0)
(4.25975e-05 -0.000130339 0)
(0.00467533 0.00103489 1.16055e-20)
(-0.0597893 0.0293616 0)
(0.0319194 -0.00119798 -6.55458e-21)
(0.00852851 0.0134364 -7.08784e-22)
(0.00991161 0.000293265 -6.58815e-21)
(-1.5835e-05 9.10361e-05 -9.57647e-21)
(-0.0260126 -0.0370672 0)
(6.67597e-05 -7.99478e-05 1.0605e-20)
(-1.65628e-05 0.000158461 -4.4736e-22)
(-0.0288052 -0.0426605 0)
(-0.00264644 -0.00148521 -2.15724e-20)
(0.041567 -0.0214598 0)
(-0.062251 0.0123035 1.68666e-20)
(0.0010534 -0.00602275 -7.278e-21)
(-2.63704e-06 0.000151641 1.3992e-21)
(-0.000188954 0.000689109 0)
(9.12046e-05 -0.000106582 -2.2556e-20)
(-1.12114e-05 -3.23055e-06 0)
(0.0137418 -0.0162194 7.76523e-21)
(0.0204573 -0.0104533 -1.47946e-20)
(2.60373e-06 0.000109019 -5.44327e-22)
(0.000104219 0.000849282 0)
(1.92308e-05 -4.87127e-05 2.62004e-21)
(0.00670829 -0.0206196 0)
(0.0157811 -0.002913 0)
(-9.63356e-06 8.85841e-05 1.61854e-20)
(-0.0603385 0.0303168 -4.78238e-20)
(0.00141261 0.00731309 -2.10179e-21)
(-0.000177985 0.000192035 -1.30162e-20)
(0.000268593 0.000322831 -1.127e-20)
(5.4743e-05 -6.2413e-05 4.58252e-21)
(-0.00337329 -0.0206147 0)
(0.0955999 -0.0338091 8.54945e-21)
(0.0720533 0.0198543 8.78942e-21)
(0.0203195 -0.0302054 -7.00359e-21)
(-0.0158351 0.00449497 3.13397e-20)
(-0.0245882 -0.0274034 0)
(3.98679e-05 4.9502e-05 7.1131e-21)
(0.030289 -0.000119336 0)
(9.94777e-05 0.000769448 -7.46679e-21)
(0.00913118 0.00665611 0)
(0.00795695 3.74895e-05 8.10348e-21)
(1.65144e-05 -4.92807e-05 5.21976e-21)
(0.00854577 0.00694073 0)
(0.0860332 0.00693533 -8.67354e-21)
(0.0126254 -0.0330561 5.88312e-21)
(5.48516e-07 -1.38924e-07 -2.47281e-21)
(0.140184 0.0711857 -7.10052e-22)
(-0.000861081 0.0010577 2.90078e-21)
(0.054157 -0.0246602 1.51941e-22)
(0.0109236 -0.000832338 0)
(-0.000227072 0.000614867 -6.29231e-21)
(0.0594024 0.035028 3.599e-21)
(0.0884308 0.00800113 -3.04831e-22)
(-0.00251766 -0.00132445 1.56823e-20)
(4.65647e-05 6.43796e-05 3.39862e-21)
(0.00186627 0.00110715 -8.91244e-21)
(-0.000401363 -0.00152426 0)
(0.00257529 0.00242527 9.14123e-21)
(2.94184e-05 -2.11529e-06 -1.25978e-20)
(0.00257829 0.00640882 0)
(4.69941e-05 5.4109e-05 7.42944e-21)
(1.94892e-05 3.41962e-05 -8.26478e-21)
(0.00016704 0.000185319 0)
(-0.0103794 -0.0161603 3.93433e-22)
(0.0183484 0.0108319 -1.12496e-20)
(-0.00695695 -0.0075967 6.18027e-21)
(-0.000211662 8.47505e-05 0)
(0.135271 0.0713323 2.40121e-22)
(-0.00190612 0.00229663 1.64711e-20)
(0.00455721 -0.00870969 0)
(4.74631e-05 5.42689e-05 -1.19451e-20)
(-0.00829924 -0.0118031 -1.28995e-21)
(0.00268093 -0.003593 0)
(0.00741141 -0.00773055 -3.73866e-21)
(0.00197862 -0.0615426 0)
(0.00347978 -0.00368065 1.23064e-20)
(0.0167664 0.0486037 1.67669e-22)
(2.28719e-05 5.05195e-06 4.82288e-21)
(-3.0025e-05 7.51728e-05 -1.87882e-21)
(-0.00133107 -0.00228654 -4.92549e-22)
(4.54545e-05 -0.000129129 0)
(-5.84349e-05 -4.88582e-05 8.62598e-21)
(0.0129983 -0.00785718 -9.53764e-23)
(-0.0140745 -0.0118234 1.49429e-22)
(-0.129337 -0.0263393 3.32764e-20)
(-1.75044e-05 8.2924e-07 5.00347e-22)
(-0.00938489 -0.000365685 0)
(0.000435446 -0.000523433 -1.06665e-20)
(-5.17565e-05 0.000324286 1.75172e-23)
(-0.0911461 -0.00996556 4.56749e-20)
(-2.64666e-05 7.29888e-05 1.85394e-21)
(-0.000277023 -0.000323561 8.14873e-21)
(0.00847396 0.0331887 1.00096e-20)
(-0.116301 0.0115423 -3.41098e-20)
(-0.000442474 -2.82215e-05 5.9042e-21)
(3.16068e-05 -8.53829e-06 0)
(5.00435e-06 4.32508e-06 0)
(-9.69278e-06 1.61705e-06 -1.80017e-21)
(0.00344955 -0.00189874 -4.85069e-21)
(-0.000912918 -0.00211849 0)
(0.00768218 0.0707426 -8.80488e-23)
(-0.122363 0.0172002 0)
(0.00102089 0.00110802 0)
(0.00860872 -0.0019927 0)
(-0.0106876 0.00655415 -7.57029e-21)
(0.0051808 -0.0726554 8.83401e-21)
(0.00371674 -0.00942079 0)
(0.0074477 0.0109855 -1.02406e-20)
(1.30006e-05 -5.63558e-06 3.63495e-21)
(-0.0234667 -0.0186653 -8.45934e-22)
(-1.69243e-05 4.73017e-07 0)
(0.0262203 -0.00575199 -1.85126e-22)
(0.000515055 -0.000253712 2.3209e-20)
(0.0770158 -0.0569388 -2.55592e-20)
(0.00259764 0.00104316 -8.88467e-21)
(0.00713066 0.00515859 -7.38686e-21)
(-2.36208e-05 0.000178796 4.79972e-22)
(0.000180541 0.000642642 0)
(0.00659492 -0.0193437 1.37179e-22)
(1.93941e-05 -1.83632e-07 0)
(1.18073e-05 -2.60297e-06 0)
(0.00343808 -0.0029941 -1.39899e-20)
(0.0120868 -0.00606994 4.04458e-21)
(1.76699e-05 1.47556e-05 -1.83676e-23)
(0.0118636 -0.0226948 6.09827e-21)
(2.20771e-05 2.72131e-05 0)
(-0.020178 0.0768527 -4.5997e-23)
(0.000796795 4.99614e-05 7.5259e-22)
(-0.000163632 -0.00131341 1.74705e-21)
(0.000131475 -0.00612086 -9.23702e-24)
(-0.000943144 0.00110141 3.61223e-21)
(-0.00426626 0.00118874 -1.53594e-20)
(-0.0214783 0.00244788 1.55543e-21)
(-0.0102131 -0.0138117 -1.03369e-20)
(0.000299875 -2.90454e-05 0)
(0.00204963 0.016425 -1.70332e-20)
(-0.00258138 0.00136947 8.92693e-21)
(0.0169738 0.0106996 0)
(0.0150977 -0.0846562 0)
(0.0213668 -0.012106 -7.84129e-21)
(-0.00295105 0.0021966 3.30681e-21)
(0.0795118 -0.0561312 3.3146e-22)
(2.19706e-05 -5.87107e-07 -5.64568e-21)
(0.000823711 6.86341e-05 -8.50275e-21)
(-6.9802e-05 0.000281164 0)
(0.00188275 0.00497586 0)
(-0.0128739 -0.0165476 -1.07007e-20)
(-0.000371593 -0.000365531 -8.4211e-21)
(-0.00349724 0.000998797 0)
(-0.0845058 -0.000584911 -2.51809e-20)
(0.0170924 0.00291344 0)
(0.101161 0.081492 5.88604e-22)
(0.00260925 -0.0127368 0)
(0.000171015 0.000716041 -2.34038e-20)
(0.00102345 0.0157372 1.96818e-20)
(0.142428 0.0681848 1.90401e-22)
(2.45153e-05 9.44542e-05 -2.64639e-21)
(-0.0170169 0.0253988 3.55515e-21)
(-0.0224814 0.297478 0)
(-0.0204366 -0.00956334 -1.27314e-21)
(4.55535e-06 -7.75322e-05 7.62108e-22)
(-0.00296793 -0.0139398 -4.32294e-21)
(-8.49998e-06 9.8137e-07 -6.33499e-22)
(-0.0105219 -0.020004 1.03201e-21)
(-3.13577e-05 1.7047e-05 3.71096e-23)
(-0.0117522 -0.0180807 -9.99647e-21)
(0.00756625 -0.000995729 1.53081e-20)
(3.44424e-05 -9.73779e-07 0)
(0.000176312 5.18876e-05 4.16266e-21)
(0.0842574 -0.0511317 2.3592e-20)
(0.00647504 0.00655923 5.78738e-21)
(0.000364478 -2.37227e-05 -2.00327e-21)
(0.00599374 -0.00278984 -1.89181e-20)
(1.50211e-06 -7.27857e-05 -1.44794e-21)
(-0.000334367 -0.000359575 0)
(0.00072548 -0.00244215 0)
(0.00546734 0.00237036 -1.4074e-21)
(4.51742e-05 0.00381782 7.2552e-21)
(-0.0326636 0.10487 0)
(-0.0100587 0.00286157 3.7422e-21)
(0.000888045 0.00010349 2.27237e-20)
(0.000402906 -0.000494095 6.12263e-21)
(-0.0057434 0.0114449 0)
(-0.0401151 0.0149113 -3.06815e-22)
(-0.140533 0.00093255 -1.83784e-20)
(-0.000204289 -0.00048497 0)
(-0.00077366 -0.014548 -9.87069e-21)
(0.00283238 -0.0104092 0)
(-0.00394541 -0.00145285 3.74064e-21)
(0.000245851 -0.000154923 1.6505e-20)
(3.36588e-05 9.38834e-06 0)
(-2.878e-06 -5.01486e-08 0)
(-0.000513155 0.00669988 0)
(3.271e-05 1.391e-05 0)
(-0.00443747 0.000661004 -1.44748e-20)
(1.75855e-05 1.16384e-07 4.19989e-21)
(0.11089 0.0557718 -2.57931e-21)
(0.0133735 -0.00153386 0)
(1.74998e-05 4.95396e-06 -8.54928e-21)
(-2.53673e-05 -9.77116e-05 -8.21911e-21)
(-0.000830486 -0.000409762 6.84209e-22)
(-0.11841 0.0205005 -1.63979e-20)
(-3.32344e-05 2.50465e-05 1.20958e-23)
(-0.000790836 -0.000370347 2.58939e-21)
(0.0170592 -0.001276 0)
(-0.00475271 0.00719318 -1.55239e-23)
(1.25375e-05 -7.62072e-06 4.13508e-21)
(0.0764974 -0.0667121 -4.21057e-21)
(-6.36157e-05 -0.00128141 6.73067e-21)
(-0.0436946 0.0526034 8.69906e-21)
(1.50874e-05 8.09026e-07 6.37004e-21)
(3.62819e-05 4.74991e-05 -1.39941e-20)
(0.000192637 0.000544588 0)
(0.00411593 -0.000727729 0)
(0.138933 0.0639861 2.88232e-22)
(-0.000872626 -0.00177849 1.23395e-20)
(-0.0110719 -0.039282 0)
(0.0401708 -0.00109079 -5.87863e-21)
(0.00032917 -5.12985e-05 0)
(0.0415791 0.000504128 5.64274e-21)
(-0.0396409 0.00844931 0)
(0.00780837 0.00617169 -4.90858e-21)
(0.00357014 -0.000774069 0)
(0.00612843 -0.00195113 -6.5274e-23)
(2.33704e-05 4.76644e-05 4.3101e-21)
(0.00255769 -0.00418624 9.3122e-22)
(-0.000772091 -0.00171522 0)
(0.000159749 0.000527232 1.11544e-20)
(0.00799642 -0.00211013 0)
(0.00869731 -0.0361306 -1.76452e-20)
(-0.0264921 0.143116 -2.23121e-22)
(7.81856e-05 0.000150682 -2.4095e-22)
(0.0916485 0.134036 0)
(0.0405631 0.0665542 -7.01399e-21)
(0.0283069 0.0425539 -1.80493e-23)
(-0.0270401 -0.0359103 -8.51235e-22)
(0.0185674 0.0301892 1.0793e-20)
(-0.000631003 -0.000150983 4.72377e-21)
(-0.0390398 0.0794069 -6.8733e-22)
(-0.0075497 0.0251437 7.6202e-21)
(-9.34477e-06 7.21539e-05 -5.59445e-22)
(-2.79055e-05 2.71085e-06 1.18986e-23)
(-2.26823e-06 5.66216e-06 0)
(5.68781e-05 -6.29057e-05 4.64036e-21)
(0.148384 0.0492526 -7.5811e-22)
(2.43172e-05 4.97906e-05 8.32322e-21)
(6.24701e-05 -0.000178503 -1.41213e-20)
(0.0162399 0.00826842 0)
(-0.0146345 0.00580494 -1.02715e-20)
(0.0106771 0.00553411 0)
(8.83827e-06 1.23124e-05 7.89936e-21)
(0.0003436 9.70602e-05 0)
(2.56643e-05 9.39249e-05 6.57343e-22)
(-0.000212004 0.000484603 -3.10859e-21)
(-0.0130865 0.00396398 -1.44979e-20)
(-6.4821e-06 -2.53475e-05 -2.60587e-21)
(0.0118262 -0.0316287 0)
(7.52436e-05 0.000273722 -8.31467e-21)
(0.0112511 -0.00639269 0)
(-0.000414882 -5.74409e-05 -6.38309e-22)
(-0.000388789 -0.000145567 0)
(0.0247251 -0.0161653 -4.34935e-21)
(8.39518e-05 0.000284462 0)
(-0.0159262 0.00544129 2.17094e-20)
(0.000837736 -0.000313116 4.08204e-23)