/*--------------------------------*- C++ -*----------------------------------*\
| =========                 |                                                 |
| \\      /  F ield         | OpenFOAM: The Open Source CFD Toolbox           |
|  \\    /   O peration     | Version:  v2012                                 |
|   \\  /    A nd           | Website:  www.openfoam.com                      |
|    \\/     M anipulation  |                                                 |
\*---------------------------------------------------------------------------*/
FoamFile
{
    version     2.0;
    format      ascii;
    class       volScalarField;
    location    "200";
    object      ddt0(k);
}
// * * * * * * * * * * * * * * * * * * * * * * * * * * * * * * * * * * * * * //

dimensions      [0 2 -3 0 0 0 0];


internalField   nonuniform List<scalar> 
27802
(
-7.74641e-07
2.29465e-09
-3.26181e-07
1.28565e-08
-0.000779227
-4.10639e-08
-4.20857e-07
-1.17047e-08
2.20282e-06
-1.38521e-08
3.52139e-09
-0.00217166
-0.000437007
1.83216e-07
2.44846e-09
-3.9221e-07
-5.35515e-09
-0.00228132
0.0130353
4.39645e-06
1.38884e-09
-4.86755e-09
-8.37557e-07
2.37828e-06
6.12017e-09
9.3373e-09
-4.05735e-08
-1.34047e-08
6.19046e-09
-7.60416e-05
-2.16991e-08
1.51396e-06
-0.00310284
8.22657e-06
-0.00512358
7.48547e-09
-1.01545e-05
0.00105228
-1.73107e-08
-4.97031e-08
5.29079e-09
-4.89779e-08
-0.00146064
1.44581e-05
3.96257e-08
-2.50696e-09
2.3688e-06
-1.246e-09
-4.98033e-08
6.89149e-06
1.90306e-08
3.87716e-08
0.000241346
4.22421e-09
4.32591e-08
-2.83872e-08
-0.000236729
4.69467e-07
-7.21059e-08
9.44764e-05
6.77949e-09
-9.12999e-08
-0.00340003
-1.26993e-06
-0.00237688
3.45126e-07
-0.000892866
-4.99199e-08
0.000540536
1.44974e-06
5.20429e-09
3.28737e-06
0.0145353
3.14833e-06
0.000633581
2.67357e-08
-0.000152922
-0.000819542
5.32485e-06
-1.87361e-07
-0.00101776
-0.000205888
-3.00705e-08
4.8138e-07
9.79819e-08
-2.37198e-08
4.46472e-09
4.14362e-08
3.29247e-06
7.36157e-06
-0.00427974
-3.2602e-09
-6.46115e-06
-1.1467e-07
2.17189e-09
-1.88447e-08
-1.425e-09
-0.000605847
8.74423e-09
2.20844e-06
-0.000386664
-6.91807e-09
-2.47711e-09
-2.90889e-09
-3.27327e-06
2.39477e-09
-1.29035e-06
2.16745e-06
1.36887e-08
9.2216e-10
-7.26369e-07
7.98397e-10
-1.06075e-08
0.000185841
-6.69386e-09
8.12867e-07
-2.29319e-07
-1.45387e-09
-1.14149e-08
3.57988e-06
-0.00087362
-0.00415509
9.22816e-08
4.21317e-09
3.55043e-08
3.58933e-06
-2.25983e-06
0.000360833
-0.0010724
-0.000787422
-3.78567e-09
8.85523e-08
-1.5384e-09
-1.66314e-08
-3.90734e-08
-7.87249e-08
-1.67439e-07
-6.52412e-09
-2.99835e-06
-8.67735e-07
-2.15174e-08
-4.15082e-08
3.27629e-06
-1.17304e-08
-1.05998e-08
-3.459e-08
-1.58881e-07
3.50189e-08
4.20434e-08
3.11919e-08
3.93343e-09
2.33491e-09
-7.35794e-09
-3.98892e-08
3.53221e-06
-2.6422e-08
2.75053e-05
3.42502e-06
3.74449e-09
-1.86872e-06
-2.38005e-06
3.31e-06
-2.32631e-08
-1.10248e-08
-2.48221e-09
-2.26501e-08
-8.96262e-10
-3.31857e-08
-1.18032e-08
4.20101e-06
-4.46212e-09
-2.24077e-07
-3.56994e-08
-0.0084805
-1.46361e-08
-0.00250832
-2.57797e-08
2.10271e-08
2.99788e-08
-1.06599e-05
2.363e-06
7.91422e-08
1.46745e-07
-3.24893e-08
-3.4677e-08
-4.62399e-07
-2.75659e-08
1.35643e-08
-3.22771e-06
0.00113417
-5.65641e-10
4.86016e-08
-7.35264e-07
-6.57493e-09
4.29221e-08
-4.99088e-08
4.12769e-08
2.73318e-08
4.07069e-09
-3.67671e-08
-0.00358494
-5.92225e-06
-1.03638e-05
-5.52028e-08
1.56693e-08
8.31794e-08
-9.82053e-09
0.000171654
5.67496e-08
3.83487e-05
4.444e-09
3.06871e-05
-0.00279423
2.13752e-08
-2.90961e-06
-1.66785e-08
0.000594644
-8.71904e-08
-1.38247e-08
-2.48759e-08
-0.00117193
1.33689e-08
-4.32384e-07
-3.03406e-06
-3.15691e-08
-1.28207e-08
-2.27076e-08
6.22086e-08
-1.88193e-09
-1.54414e-09
1.64917e-08
0.000145664
-1.92855e-08
2.49867e-08
0.0179795
-9.80984e-07
-1.38516e-09
-1.3724e-05
-0.00484506
-2.08023e-05
4.2952e-08
-0.0171783
-0.0200926
1.23384e-08
-5.92585e-09
-0.0029051
1.98205e-08
0.000524681
9.31243e-08
-2.71486e-07
-1.01613e-05
1.04326e-07
-6.71814e-07
4.80755e-08
-3.07796e-09
3.98066e-08
7.09691e-08
-0.00233636
-5.81632e-08
2.77189e-08
1.09589e-07
-1.9782e-08
-0.00122814
3.17566e-08
-0.00331405
1.69911e-08
-0.00315261
-4.88772e-09
9.95671e-09
-1.87521e-08
3.37405e-06
-4.95613e-09
-6.87614e-07
-0.00164284
-6.84885e-09
4.74999e-06
3.76673e-08
-1.17611e-08
1.73226e-08
7.33768e-08
5.09255e-05
1.56193e-08
3.07728e-07
-8.90623e-06
2.7048e-07
-1.94005e-05
-0.00179023
3.20661e-09
1.77684e-08
-9.90134e-09
2.69394e-08
-2.22713e-06
2.7926e-08
-9.70011e-05
2.31172e-08
-1.49825e-06
3.79367e-07
8.56016e-08
-3.66353e-05
-0.000332324
4.47925e-07
-2.72587e-08
-3.04983e-07
-1.90418e-06
0.0174448
-2.97169e-06
-2.35071e-08
-0.00341162
-4.04662e-07
3.6149e-08
-2.95664e-08
-4.34241e-07
-1.37049e-07
-1.40582e-08
-3.26753e-06
4.94186e-09
1.54964e-08
-7.16105e-07
1.60757e-08
1.22687e-07
1.50163e-08
1.47386e-08
3.4512e-09
-7.19568e-08
0.000260439
4.15347e-08
-0.0012882
6.49576e-08
1.68582e-08
5.0179e-08
-9.13559e-08
0.00288359
0.000722193
1.55707e-05
-2.79985e-06
-0.00211305
-1.58054e-07
-9.52924e-09
8.55798e-07
-1.59909e-09
2.54858e-09
-0.0024983
-0.0203143
9.55433e-06
1.81675e-06
0.0126968
2.08758e-06
-0.000214857
1.18001e-07
6.6555e-05
6.2407e-11
-0.00117217
3.74928e-08
1.09173e-08
-8.31103e-08
-1.82855e-07
-0.002814
0.000167245
6.64984e-09
-6.89721e-08
-3.00762e-06
0.00190026
-6.50083e-08
3.99141e-07
4.30116e-08
-5.12475e-09
-0.000261675
4.37174e-09
1.87289e-08
3.99397e-08
-6.25641e-09
3.00034e-06
-7.95814e-09
2.34364e-06
-0.00400458
-0.00333407
-4.59827e-07
-7.3595e-07
-5.08815e-07
2.10052e-09
1.25976e-08
4.14398e-08
-6.94715e-08
-2.57196e-08
-5.34584e-09
1.20248e-08
3.14162e-06
1.46803e-06
-1.71117e-05
-7.55335e-07
-2.90006e-08
2.71893e-08
-3.28141e-07
8.9356e-09
-5.4339e-09
0.0026557
0.00892196
8.33355e-07
-1.58761e-08
-7.53929e-07
-0.00234901
-6.12369e-09
-1.80667e-08
1.44282e-06
-1.16386e-08
-0.000234543
-1.0039e-07
1.55398e-06
-3.13113e-05
4.86376e-07
-7.72381e-05
1.61028e-08
-0.000760308
-0.00110329
0.00143578
-1.0929e-08
-8.12057e-08
4.51134e-08
-1.42682e-08
-0.000547785
-0.00148668
2.66634e-07
1.54214e-06
4.90824e-09
0.000347689
-8.32518e-09
-1.13299e-06
-0.00139
-1.51768e-05
1.3334e-08
-8.23259e-10
3.40601e-08
0.000823104
-2.38701e-08
-7.04817e-09
-7.57352e-10
-4.37825e-07
2.99741e-05
0.00229404
1.41683e-07
-2.5052e-07
1.71908e-06
1.16832e-08
-8.69297e-10
-9.08936e-07
7.31238e-09
1.47584e-08
-9.48282e-07
-3.66019e-08
1.52665e-06
-0.0246103
-0.000275583
0.000564406
-0.000931376
1.72286e-08
-5.30211e-08
3.03282e-08
0.000503106
-0.00737499
4.04887e-08
-9.45858e-06
0.000125496
-1.4521e-06
-2.9514e-06
-3.99455e-09
-2.01548e-09
0.000582135
7.33431e-09
-2.97822e-05
1.54313e-08
-7.03846e-09
-1.33404e-10
-5.12663e-08
-1.50898e-06
0.000108919
0.00341971
-1.31485e-09
-0.00043382
3.22411e-09
-3.61079e-08
1.85277e-06
-4.82854e-08
1.17105e-07
-7.52965e-07
-5.63722e-08
-0.00087354
3.6125e-07
-1.6006e-08
2.00261e-06
-1.74117e-08
1.85438e-08
0.000536454
-4.44392e-08
-0.00304694
4.03264e-08
-0.00264827
0.000177427
0.000272802
-2.52566e-08
1.19082e-05
-0.00120205
2.772e-08
0.00872436
-1.75774e-06
-0.000129406
3.25129e-06
8.63958e-09
1.18245e-08
-2.23566e-07
1.5761e-08
-3.88347e-08
-6.91627e-05
9.54681e-07
-7.63087e-09
6.49488e-10
1.38705e-06
0.000366385
-2.95169e-06
-1.63607e-08
1.54429e-06
4.18197e-10
-3.95694e-05
-2.51517e-08
-9.96093e-07
1.34014e-05
-6.19679e-09
2.82818e-08
7.63196e-09
-7.59759e-05
-0.0026036
2.2973e-06
0.0151753
-4.34212e-08
-5.32406e-08
-0.00293035
2.99552e-09
5.36502e-07
-2.26992e-08
3.28908e-08
1.52389e-05
0.00104627
-6.2814e-09
-1.40695e-07
-2.13465e-08
-2.71888e-07
1.28978e-08
5.85519e-08
0.00102512
-2.51977e-07
-4.71567e-07
0.000918878
-2.91282e-07
-2.5974e-05
0.00428719
-4.77278e-09
-0.00242613
-1.73725e-08
-2.29399e-06
-1.08707e-05
-2.80854e-09
-1.02095e-08
-6.48682e-05
-4.97415e-08
-2.59714e-08
4.93951e-09
0.000374676
6.25626e-09
-3.07023e-08
-3.29125e-06
2.84154e-06
3.65442e-06
-0.0011978
0.000833748
1.90243e-08
2.60934e-06
1.45931e-08
-0.00348929
-6.42851e-09
-4.70043e-07
0.000264923
-2.90654e-06
-0.00348689
-3.8825e-06
-5.3156e-09
-0.000976921
2.23674e-07
1.55916e-08
-0.00112264
9.94889e-07
-2.07078e-06
-0.00271478
-4.51468e-07
1.70649e-08
2.57835e-07
2.10003e-07
1.68396e-09
1.11548e-06
-2.16489e-06
2.30766e-08
2.38941e-07
3.04171e-08
6.42624e-07
5.10441e-05
-6.14901e-09
0.00176768
-0.000821052
2.4488e-08
1.49189e-08
3.16763e-08
-0.00105353
0.00767194
0.000115439
1.49173e-05
2.76472e-06
0.000697745
-1.26611e-09
-3.16345e-06
2.20205e-07
-0.00254732
-0.00228181
2.89271e-08
-1.18632e-06
-6.59145e-07
3.01056e-06
5.94139e-09
-0.0162407
1.59571e-07
0.00450422
-3.79012e-06
2.46301e-07
-5.28664e-06
0.00205424
1.02604e-06
6.65094e-09
-1.0394e-07
-2.55064e-07
-1.64833e-07
1.52476e-08
-0.00284715
7.8969e-09
-1.13011e-08
-5.46594e-09
-9.05238e-06
-0.00491186
2.1654e-06
1.68891e-08
-0.0082645
3.89685e-07
-0.00108761
3.83559e-09
-2.8706e-05
-3.7201e-07
-1.38502e-06
0.00189902
-1.425e-06
-0.00327315
-4.30264e-09
-3.11326e-08
4.85167e-07
-2.92993e-09
-4.37965e-08
-2.93146e-06
3.55756e-06
-0.000379431
-8.09789e-09
1.90767e-06
-1.19073e-07
2.76017e-08
-2.44014e-05
-2.94969e-08
-6.67654e-08
-3.25684e-06
-0.000451531
1.64774e-08
4.1154e-09
1.34057e-08
9.16693e-10
-7.79898e-07
4.08289e-07
-0.00309545
-0.00512299
9.11787e-08
-1.03e-06
1.99192e-06
0.00120383
-0.00103466
-5.80385e-07
4.20471e-09
0.000338477
6.79333e-09
0.00046677
-1.99593e-07
0.000169274
-1.9086e-07
-0.00147087
6.33112e-09
8.52702e-08
3.29074e-07
1.6887e-08
4.45827e-09
-1.43684e-06
-1.82136e-06
-2.50373e-08
-3.45312e-06
-5.55285e-09
-0.000841177
1.71533e-07
-2.01722e-07
-3.48495e-07
1.61558e-07
1.99457e-06
3.9714e-07
2.00468e-06
8.56074e-08
8.34542e-08
1.18248e-06
-0.00450866
0.000804992
-1.87986e-06
5.48863e-07
0.000310825
3.71923e-09
-7.67048e-08
2.65719e-08
-0.00282416
3.20304e-06
-2.56109e-08
1.50762e-06
3.04534e-05
-0.00532432
0.000601025
-0.00239665
5.23741e-08
1.25625e-07
-0.017356
-1.43565e-08
-0.000112142
0.0133007
-9.27194e-05
3.24252e-08
-1.85304e-06
1.3061e-08
1.27117e-06
-2.59999e-10
2.99117e-06
-0.00225374
7.83994e-09
2.0705e-08
0.000146301
-0.00163719
6.89508e-08
-2.6485e-06
2.6906e-08
-2.74389e-08
-5.58689e-07
-5.27031e-07
2.25468e-07
0.00143836
1.8018e-06
-2.24477e-07
-1.11674e-07
9.95271e-07
-0.0002509
0.00182624
-7.50356e-08
-0.00288319
-0.0010388
1.50145e-06
-1.98934e-08
2.11628e-09
2.21342e-09
-0.000497181
1.37194e-09
2.05657e-06
-1.97132e-08
0.00048069
-0.000704825
-6.0542e-10
-3.81259e-08
-1.81549e-08
-0.000369105
-4.19716e-09
-4.6799e-09
-2.9394e-06
2.43303e-05
4.05583e-09
-0.000122272
-2.14284e-07
-0.000411663
1.32371e-08
-1.23471e-10
3.59299e-08
-1.78681e-06
-0.00986118
-2.6811e-07
-6.96302e-05
-2.53786e-06
8.17574e-08
-2.9258e-06
-0.00502853
-9.24284e-07
-1.55463e-06
-2.66817e-06
1.9185e-08
-8.28256e-07
3.98317e-07
3.87207e-08
-9.65105e-07
1.65081e-05
0.00263793
4.53333e-08
-0.0348671
-1.12351e-05
-0.0012489
-3.03617e-05
-2.30276e-06
7.06317e-09
0.000814475
4.04872e-05
-6.17165e-09
-7.73242e-09
-1.58937e-09
3.25447e-08
0.000597145
2.19488e-08
-3.23795e-09
-0.00454122
9.1649e-06
-0.00319818
-3.99208e-08
2.42592e-08
-1.42422e-08
1.91027e-07
2.44015e-06
-4.50021e-08
-1.70623e-06
9.98463e-09
-2.36426e-06
-1.30082e-07
-1.34868e-07
-1.04737e-06
1.13079e-08
1.63387e-05
-3.51962e-07
4.52803e-09
0.0138559
3.94426e-09
-6.0331e-09
-0.00119879
-1.74039e-06
-6.32426e-07
-2.14861e-05
1.15282e-09
-3.91178e-09
3.64979e-07
-1.68138e-08
-1.18175e-05
4.9185e-07
0.000978894
-8.49125e-07
-1.9125e-07
2.9855e-06
-5.92212e-08
-4.05274e-07
-0.00318276
3.60084e-08
6.55008e-09
-5.50189e-07
-7.77651e-08
-6.13489e-09
-0.0047893
-4.59462e-07
-4.20603e-09
1.81981e-08
7.13386e-07
6.42119e-07
1.28757e-08
0.000105982
-1.50474e-08
1.0633e-08
3.70995e-05
-6.45197e-09
-1.9892e-08
-4.01021e-09
2.0297e-07
-3.2206e-07
3.10135e-08
-1.38784e-06
-7.20297e-07
0.00487397
2.01653e-07
-5.43857e-09
8.39507e-05
-1.07411e-08
-3.2818e-08
2.01991e-08
5.54154e-09
-3.90293e-08
-0.00119217
-1.76569e-08
-2.27779e-05
4.81455e-09
-1.34658e-06
-5.47883e-08
-1.38889e-07
-1.50774e-07
1.76847e-08
-3.05432e-07
-0.00406418
-1.10905e-05
-3.32592e-05
3.64459e-09
0.0040074
3.93009e-08
5.37901e-07
-1.88495e-08
4.57683e-09
2.84162e-08
-1.72595e-07
2.78057e-08
1.88029e-05
-5.05834e-09
4.54541e-07
-1.42923e-07
-0.000133714
-2.82798e-08
4.82495e-07
1.65109e-08
1.84613e-08
-3.34345e-06
0.00017622
0.00257956
4.17426e-09
1.04018e-08
6.05569e-07
5.4303e-09
0.00142022
-3.79104e-06
6.49253e-08
0.00030642
1.05751e-08
-0.00187909
-1.6128e-08
-1.31718e-07
8.19631e-08
-3.79439e-06
7.41162e-09
7.09506e-08
-4.99112e-05
-9.66629e-09
-6.63806e-07
6.77422e-09
0.00057661
-3.36047e-06
8.79855e-08
2.76878e-08
7.4905e-08
0.000177241
-3.6502e-06
-0.00267234
2.17958e-08
-3.84682e-06
-8.30497e-09
5.16389e-07
3.45184e-08
-8.17697e-06
-9.60406e-09
4.02225e-08
-4.43638e-08
5.39018e-08
9.59309e-07
1.63291e-08
6.11636e-08
-6.60784e-09
1.37925e-07
-3.93831e-08
-1.33834e-06
5.16323e-07
1.93809e-09
-8.48817e-07
-1.14807e-05
6.63716e-08
-4.95416e-05
-3.43743e-08
-3.90585e-05
2.86148e-08
-0.00277846
-8.8377e-06
2.19987e-07
-1.59389e-09
2.28972e-08
2.51167e-08
-6.13203e-06
-0.00328077
-1.02337e-08
-1.49847e-08
-0.00587508
-0.00217246
2.45605e-08
0.000531805
-0.000730261
-3.77436e-06
-1.23153e-08
-2.95237e-05
-1.31772e-05
-0.00258877
-2.58157e-09
0.0021894
1.46417e-08
-1.46033e-07
-1.54169e-07
5.50483e-10
-3.80211e-08
2.03455e-08
2.5979e-08
3.21356e-06
-0.00108728
-0.000304058
-1.64161e-05
7.46944e-09
3.12132e-06
1.49984e-07
5.32187e-09
4.67627e-08
-0.00105122
-6.16517e-05
1.21361e-08
-0.0116719
2.72395e-08
0.00337236
6.45183e-05
2.31833e-08
0.000577462
2.02651e-08
1.95149e-08
0.00262052
2.70386e-06
1.52546e-09
4.65683e-08
-6.02624e-08
1.15306e-08
-1.64643e-09
4.8236e-10
-0.0268256
0.010586
3.06288e-08
-8.82701e-07
9.50733e-11
1.98827e-09
0.000436743
-0.00129941
1.99484e-07
1.08727e-07
-1.86693e-06
-0.00106492
-0.0116248
5.54299e-08
8.02268e-10
-0.00535226
-2.79465e-06
3.27206e-08
-1.08754e-07
-0.00769628
-0.000773178
-0.00197451
1.35934e-06
-4.09784e-08
-0.000271595
-2.02269e-09
7.03468e-09
-1.05606e-06
-7.67561e-08
0.00021483
-6.03739e-08
-3.51561e-06
3.84176e-09
-4.30054e-10
4.11622e-08
-2.15736e-08
1.17429e-08
-0.00412119
-0.000778221
-3.149e-06
-7.04673e-07
4.08175e-06
3.87955e-06
-0.00464802
-0.00021111
-6.15938e-09
1.29365e-07
-9.05225e-08
-0.00179455
1.10651e-06
7.60248e-08
-1.49943e-08
-1.88389e-08
-1.38232e-07
1.40074e-08
-2.39254e-09
-1.34201e-09
1.51937e-08
3.87046e-07
2.99402e-08
-1.2545e-06
-0.000919029
1.38079e-06
3.03015e-07
-0.00140106
5.46253e-09
0.00104614
-7.70015e-07
-0.000234175
-1.12724e-08
0.000275407
2.93489e-05
-6.41773e-10
-2.41153e-06
-1.71746e-09
2.05305e-09
-5.37267e-07
-1.72129e-07
7.62525e-05
-1.03456e-08
6.17949e-07
3.94935e-09
5.80331e-07
3.26145e-08
2.58177e-09
2.06742e-08
8.02045e-09
-2.44705e-08
-2.45047e-06
0.000525978
3.20726e-09
-0.00111725
5.82495e-06
0.00208968
-2.79767e-09
5.6815e-09
0.000495025
2.36603e-08
-3.98755e-09
-0.000831957
1.90768e-08
6.27425e-07
-7.29085e-08
0.000142177
4.34092e-06
-0.00145737
-0.00168319
-2.28694e-08
-3.34306e-08
0.0122245
-2.11416e-09
-2.01685e-06
-5.76868e-08
5.63238e-08
1.16328e-06
-0.0254874
-0.00587877
-3.58445e-06
4.51469e-07
-3.71627e-06
-0.0376364
-0.00110544
-5.52668e-07
-1.21042e-07
-0.000963639
-4.09079e-05
-1.90411e-05
-0.00258547
0.000510166
-6.45343e-09
2.70273e-05
-8.88367e-07
2.63327e-08
7.18098e-10
2.57629e-07
-0.0125198
2.85864e-07
0.000555581
-5.9136e-05
-1.92696e-07
-5.22113e-08
-0.00222846
0.000457583
4.11484e-08
1.45013e-06
-1.73076e-09
-1.48688e-05
-0.00129645
0.000251651
3.0244e-08
1.01667e-08
-1.60641e-08
-1.10197e-06
-1.29402e-06
1.03621e-08
-8.46976e-07
-0.0211202
1.45835e-08
1.10981e-06
-3.35915e-05
1.50051e-07
-4.73779e-08
4.9153e-08
-1.16598e-09
1.75525e-07
-0.000794342
-8.15351e-07
0.00654867
6.82e-05
2.26628e-06
1.55833e-08
2.31085e-08
1.95725e-06
-3.57827e-08
-0.000458299
-0.00125533
-8.46013e-07
4.67226e-08
4.74963e-05
-0.00209723
4.32855e-07
-9.193e-07
3.0533e-10
-0.00310902
6.21604e-09
-0.00458538
0.000495594
1.82933e-08
-2.32809e-07
4.0696e-08
1.00648e-08
-1.79671e-08
-4.39522e-08
-2.84241e-09
1.89686e-08
3.45854e-06
1.76905e-08
3.89114e-08
-2.59221e-06
-2.09116e-06
-0.00108108
2.31538e-08
-2.05887e-05
1.19204e-08
1.42621e-08
-1.68301e-06
1.17837e-08
2.51987e-08
-1.57822e-08
4.33353e-08
9.47331e-09
-0.000995352
3.11398e-05
-1.05495e-09
3.93517e-07
0.000725214
-2.36119e-05
-0.00536117
-1.88901e-07
4.08022e-09
1.03352e-08
4.23152e-06
-0.000199341
1.33633e-08
-0.00121847
-7.63966e-09
-4.01039e-08
1.74612e-08
0.00238879
1.9027e-08
-6.33643e-08
-1.53674e-08
5.8587e-09
-2.32747e-05
0.00476089
2.99261e-08
-1.63963e-08
-7.67213e-07
-9.00584e-09
-0.00145544
4.13833e-06
-4.51029e-09
9.71912e-09
0.00140298
-0.000828239
-0.000923667
2.33196e-06
7.98628e-06
5.04493e-07
3.24696e-07
2.27784e-09
5.1399e-08
-0.000492427
-5.44975e-07
4.75094e-08
2.54925e-06
-7.78777e-07
8.28204e-09
-1.78858e-07
8.29972e-09
3.63927e-07
2.18582e-08
-1.06405e-08
2.37259e-08
1.914e-06
-2.33662e-07
2.77461e-08
1.5572e-06
2.72642e-06
-7.5861e-08
-4.24135e-06
-6.47052e-09
0.00570304
1.37847e-07
7.61672e-09
-2.47297e-07
-0.00346589
4.25054e-06
-1.03615e-08
-3.95085e-08
-4.33104e-07
5.78969e-07
3.79855e-09
0.000368448
1.05568e-06
-3.41659e-08
3.17975e-08
0.000487561
0.000241584
-5.90572e-08
1.32889e-08
2.31598e-06
-1.6089e-08
-1.01435e-08
1.53596e-06
0.0081934
-4.17855e-08
-2.09547e-05
-0.00401712
4.0444e-07
3.54433e-08
5.35142e-06
1.53247e-07
5.66108e-09
3.96932e-06
0.000392903
7.36397e-09
-0.00155115
6.82206e-09
-6.8301e-08
-0.0158951
-2.9565e-11
4.26449e-08
4.4413e-06
2.15126e-07
1.83414e-05
7.10529e-09
4.23059e-08
-3.44607e-08
1.3934e-08
-2.70121e-06
-0.0035613
-8.8428e-07
3.68219e-08
4.95193e-07
1.51617e-08
3.33374e-07
-0.00311386
3.32044e-07
2.1618e-09
-1.07537e-05
-0.00153898
0.00103112
3.10898e-07
-4.67624e-06
-0.00277149
-2.42611e-07
4.31459e-09
-0.00804932
-1.68601e-08
-0.000857148
4.36763e-08
-0.000119042
6.78013e-09
-6.23126e-07
-9.58459e-08
1.11506e-06
-8.23105e-09
4.69254e-08
-9.1738e-08
8.21448e-09
-0.00252273
-1.71216e-08
3.10826e-08
-1.07767e-08
-9.27096e-05
-5.97562e-05
-0.000834973
-2.25609e-07
-5.80706e-05
2.59988e-09
4.47892e-06
2.18297e-06
5.15364e-06
-0.000660883
1.36355e-05
3.84752e-08
2.65612e-08
-0.00262088
4.89687e-08
-1.72023e-07
6.13178e-07
4.60121e-08
-2.96664e-09
-0.00131016
-0.00135629
-1.29559e-06
4.24668e-09
2.13868e-08
4.61432e-07
0.000850588
-4.38553e-08
-4.41886e-08
4.68535e-08
6.55824e-08
4.0919e-08
-1.73453e-07
-0.000511915
-5.2923e-09
-7.59996e-09
-1.18765e-05
5.12363e-09
8.03759e-08
-0.00131679
-0.00143484
-1.41433e-08
1.523e-09
0.000441614
2.06035e-06
-8.26153e-08
-4.4485e-08
2.4979e-05
-5.79153e-09
-0.000618607
4.65283e-07
-0.00242142
0.000611355
-2.75708e-06
1.65009e-06
0.00182407
4.5352e-06
-3.53615e-09
-1.86045e-09
3.38466e-06
8.21132e-09
-2.30416e-06
-0.0102646
-1.39183e-07
0.0034945
-4.93162e-08
0.000132781
-0.000165464
-0.00458178
0.00291601
-3.28189e-08
1.14588e-08
1.32561e-07
-8.69715e-07
1.73678e-08
-5.19044e-08
0.000171955
-0.00548225
0.000140508
-1.66692e-06
-2.54385e-06
-1.91429e-07
1.51448e-08
0.0104937
5.01992e-09
0.00254404
-4.3282e-08
-5.53484e-08
-0.0150125
-6.8772e-08
5.61853e-08
-0.00388408
1.09655e-08
3.52169e-07
-7.03553e-07
0.000248346
-0.00468373
-3.94508e-08
2.45605e-07
-0.00142642
-7.0523e-09
-1.06653e-06
4.95528e-09
5.15751e-09
9.76683e-05
-1.46604e-06
-2.74455e-06
-3.07346e-08
4.49447e-08
7.31992e-09
-5.16389e-07
3.95918e-06
6.3103e-06
-1.44089e-08
0.00253593
-5.38324e-08
1.69209e-08
-9.34837e-06
-6.15898e-07
-2.23164e-06
1.72075e-06
-8.3749e-09
1.77791e-09
3.30301e-06
5.16689e-08
-0.00108167
-0.00146706
5.41801e-09
5.55385e-09
3.79408e-07
5.30875e-06
3.08224e-06
2.03676e-06
-4.32897e-08
1.46137e-07
-1.30033e-08
-1.3683e-05
8.85259e-07
1.63375e-06
0.00385713
-7.17457e-05
-1.43793e-08
4.62664e-07
-6.17935e-08
-1.0651e-08
1.13424e-08
-1.43751e-08
7.1409e-09
6.33928e-09
3.4097e-08
-1.49544e-09
-0.00109561
5.33891e-08
1.03554e-06
-2.02415e-08
-3.17874e-08
3.90275e-05
5.28937e-07
0.00037067
-0.00255862
8.90901e-08
-4.73757e-08
-6.2774e-09
-1.73283e-08
-9.96884e-08
-0.00232493
5.93472e-05
0.0124837
1.97066e-06
-2.90048e-08
-3.31026e-09
-3.26337e-08
0.000515944
-0.00494042
4.16423e-06
-0.0224678
-0.00416774
1.46395e-08
2.83487e-05
-4.43786e-08
5.50387e-07
5.96376e-06
1.49998e-08
-8.83569e-07
-1.10133e-08
1.04995e-06
-0.000699798
-4.95373e-08
-3.34278e-08
1.76639e-06
1.96249e-06
1.76645e-08
-2.7613e-09
3.53183e-06
-6.86702e-09
-1.41573e-08
-4.15553e-08
9.0343e-06
2.41442e-09
1.36627e-07
2.47537e-08
2.03098e-06
-0.00339075
-0.0014376
-0.000180793
-0.0122935
2.96381e-07
0.00232582
5.92894e-06
-0.00027455
1.93088e-08
-4.83877e-06
-7.66156e-08
0.00293328
-0.00122326
-7.73651e-08
-0.000241473
3.81057e-06
-6.23801e-09
2.5419e-06
-3.56402e-08
-3.52686e-07
8.67194e-05
5.09854e-07
1.27914e-08
0.000334932
-4.09804e-07
-1.71888e-08
7.57508e-07
-0.00132909
3.33789e-06
1.28737e-08
-1.28871e-09
1.32125e-08
9.20815e-09
-1.90566e-06
0.00467477
1.95715e-09
5.30018e-08
-5.03915e-05
-0.00284634
8.1007e-09
2.89105e-08
2.55359e-06
-0.000118489
3.59569e-09
-4.79019e-08
-3.39477e-08
2.17146e-06
-1.39945e-08
-1.95606e-10
-3.84879e-09
1.83844e-06
0.00479742
-0.000518925
2.31004e-06
9.2747e-09
-7.74096e-09
-2.87002e-09
-6.29922e-09
3.35556e-06
1.83022e-06
-3.5882e-09
4.41156e-06
3.17395e-06
1.37428e-08
-4.31124e-09
1.52757e-08
-1.48704e-08
-2.99077e-08
-0.00144632
-0.000114301
-0.000994123
-0.000361956
-2.56702e-06
6.18166e-08
2.22164e-08
1.75321e-08
2.30488e-07
3.06704e-06
4.24146e-06
-1.34528e-08
-4.47339e-08
8.6629e-09
9.21783e-08
-7.07592e-09
3.94594e-08
-4.6744e-08
0.00141102
4.34085e-07
2.5947e-09
6.40263e-08
-1.14956e-08
3.77589e-09
-3.11665e-08
-1.99684e-06
1.0214e-07
3.21161e-08
-6.6838e-06
7.08459e-06
0.000132893
-8.73899e-09
-2.71066e-08
2.33735e-07
0.000375526
-6.16183e-10
2.14299e-05
9.5206e-08
-0.00472697
-1.22287e-05
-2.32161e-07
-0.00643835
-3.09559e-05
3.32952e-08
2.37825e-11
6.59133e-08
2.48365e-07
5.04146e-08
0.00434319
1.58157e-08
-5.44916e-11
-1.24582e-08
3.3376e-05
-1.18022e-06
-0.00107056
-5.43681e-07
-6.43743e-06
1.78473e-07
-0.00121026
0.00409907
3.72097e-05
2.17443e-07
-4.21358e-08
1.5745e-08
-8.26057e-07
-1.82337e-08
0.000347431
0.0106117
7.99485e-09
0.000117573
-3.84895e-07
1.93064e-06
-1.03242e-09
4.23905e-08
-3.14533e-06
4.5722e-09
2.40937e-09
-4.89339e-08
1.4425e-08
2.02577e-08
-0.00271775
1.85436e-05
-6.03224e-05
1.45726e-07
-2.01488e-08
-6.65111e-07
8.24478e-09
4.12462e-08
6.29305e-09
-0.00137846
8.76175e-07
-1.78013e-09
-0.000524444
-6.12202e-05
0.00117663
0.000917642
1.37471e-07
0.000320301
-2.758e-06
0.00113332
-2.44795e-08
3.95181e-06
-1.06699e-06
2.31769e-08
1.74656e-08
-0.00150657
1.96458e-05
1.30899e-09
4.44522e-06
-3.05444e-07
-5.22114e-08
-0.0167761
-0.00165757
0.00797454
-1.52954e-05
-8.49738e-05
1.12605e-07
-1.3086e-08
9.33932e-10
-1.66396e-08
-3.48073e-06
9.70777e-08
5.31686e-08
2.74351e-06
0.000440004
0.000777972
4.03403e-06
-0.000592319
-0.000292137
1.33367e-07
6.7403e-08
-2.66525e-07
0.00166383
-1.07311e-07
6.36121e-09
4.59349e-06
-2.61433e-06
6.36051e-08
1.49593e-05
-5.43457e-07
0.0009677
2.55823e-07
0.00457333
1.24455e-07
0.0011303
0.00453795
-0.000242055
-4.60911e-07
1.58271e-06
-0.00168429
0.000289065
1.43702e-05
0.00625938
-2.03277e-08
0.00476389
0.0233973
4.50218e-07
4.19659e-09
0.000868081
-2.51179e-08
3.58597e-07
-1.24212e-06
0.000706577
-8.303e-08
-2.49262e-09
-3.45733e-09
1.20097e-06
6.3058e-07
-8.46512e-07
7.83943e-05
6.55685e-07
-3.01867e-06
-9.07474e-07
5.01298e-09
3.3391e-09
0.00035646
1.37455e-09
6.62792e-10
-0.00510255
3.46538e-06
-0.00034031
-4.16526e-08
6.317e-05
0.00031047
4.29575e-06
0.000622882
-9.18899e-09
-3.26291e-08
-0.0021445
-1.8071e-08
6.80631e-08
1.01636e-05
4.12954e-06
-0.00484019
-1.82668e-07
2.79382e-09
0.00337018
7.06581e-09
4.86144e-09
1.90484e-10
9.99086e-09
1.63876e-09
-7.44354e-10
7.61917e-09
5.50374e-07
1.45302e-07
-1.91518e-06
-5.96842e-08
-2.65062e-09
7.56209e-08
1.46705e-07
-7.18487e-07
9.30823e-07
7.09523e-09
-2.06223e-08
3.79373e-08
-0.00136614
2.03041e-08
2.94673e-08
-3.56042e-09
-0.000197603
-2.09502e-08
-0.00143533
8.505e-07
-4.69756e-08
0.00347504
-4.09278e-08
-8.89882e-10
1.2997e-08
4.9957e-08
8.90315e-10
1.6991e-08
-4.34479e-07
-5.66514e-09
-5.09838e-06
1.34501e-06
3.29759e-06
2.8806e-06
-2.46875e-08
1.34284e-06
-7.437e-07
2.28238e-06
1.06232e-08
-0.00136956
1.5373e-06
2.2214e-07
-2.88172e-08
-6.66789e-09
2.05827e-05
-0.00275121
-0.000206925
0.00017061
7.5533e-06
1.19702e-06
3.10547e-08
4.23989e-08
-6.9658e-07
2.09423e-09
-7.96687e-09
-4.31625e-10
2.19957e-08
-2.80413e-09
3.7647e-08
0.000347905
3.6256e-07
7.67362e-10
4.5681e-06
-2.3628e-06
-2.97329e-09
-1.02862e-08
-3.73116e-08
-1.49458e-08
-5.31401e-05
-3.54826e-08
-1.72619e-08
2.41364e-08
-3.50093e-06
-6.66991e-08
-5.92254e-08
-8.32133e-08
-2.82583e-06
-1.15234e-08
9.43825e-08
-3.35415e-06
-0.00767789
5.68182e-09
5.0118e-05
-4.83402e-09
-2.68387e-07
-2.79065e-08
7.70161e-08
4.49611e-07
3.52107e-08
-1.07284e-07
-1.98263e-08
5.09086e-08
-0.000469142
-0.00139942
2.57608e-08
-2.09545e-06
-6.68343e-06
1.72178e-07
1.71428e-09
7.06216e-10
3.77213e-06
-0.000327584
-2.03342e-08
-5.5348e-09
-3.15593e-08
-0.000900929
2.29535e-06
3.36832e-08
-1.4343e-08
-9.66166e-05
3.92112e-07
-6.94855e-10
-2.29537e-06
7.71152e-06
-0.000193815
-2.44982e-09
-0.0211511
-4.14928e-08
-2.72043e-08
1.1655e-09
2.35309e-06
-0.000499855
4.02218e-08
-1.78921e-08
-3.25071e-07
-4.76276e-06
1.15955e-07
-0.00425292
-0.00117379
9.15664e-07
-1.69742e-08
4.80717e-06
-9.97049e-09
1.58224e-05
4.22861e-07
-0.00316425
3.49813e-08
5.61804e-09
-1.36408e-08
0.00391651
3.86368e-06
-7.59963e-09
0.000131691
1.14456e-08
1.20139e-08
-9.8507e-05
-4.04783e-09
1.58103e-06
1.99009e-05
0.000423779
8.3808e-05
-0.000489051
-1.80507e-07
0.000153053
3.89882e-06
0.00170465
-1.76124e-06
2.27156e-06
9.47094e-09
-0.0040796
2.57264e-06
-0.000691012
-5.28091e-08
-1.00198e-07
-2.64867e-09
1.58411e-07
-3.59656e-06
0.000510054
2.19384e-08
8.97416e-08
0.000532468
-1.71355e-07
-7.88951e-09
-2.41675e-08
-2.62129e-06
-6.12955e-09
-0.000607537
-6.41062e-09
-6.6742e-10
-9.31644e-05
-0.00102789
4.83549e-05
7.21066e-08
-1.4024e-08
-2.88434e-08
-1.93509e-08
0.000237142
9.05476e-09
-1.64047e-07
-2.93414e-06
3.75331e-06
1.05378e-08
3.89087e-06
-6.75532e-07
-4.40984e-07
-5.34409e-07
-1.25926e-08
-9.6387e-06
1.4216e-06
3.48884e-08
-1.09701e-07
2.21569e-07
-4.75772e-09
6.00246e-06
-1.37667e-10
-0.000878893
-1.64502e-05
-3.47752e-07
-0.0146914
-5.79028e-07
1.7123e-06
-0.00244566
3.6748e-07
-0.00700726
1.70744e-07
7.83789e-06
-2.53478e-08
-3.69171e-09
4.05439e-09
9.79269e-10
-4.54924e-08
-4.75884e-08
5.83885e-09
-1.03449e-06
-3.33266e-06
1.85163e-08
1.72648e-06
1.82472e-09
-2.47936e-09
5.98464e-07
2.48334e-06
-1.83429e-07
-1.8489e-05
2.25655e-08
-2.36951e-09
-8.23957e-09
2.90818e-05
-0.00167999
7.74909e-09
-8.393e-09
6.21713e-09
-0.000883843
1.46126e-07
6.61411e-07
-3.03874e-06
9.46621e-08
-1.82274e-08
1.38015e-08
1.18881e-09
3.24352e-05
-1.97458e-06
3.69617e-05
-0.00106048
-5.52388e-05
2.91493e-08
-0.0088669
2.41912e-10
3.23966e-05
-1.3399e-08
0.00481656
0.000247105
-6.45104e-06
-3.11029e-08
-1.27402e-08
-0.0016846
-2.67528e-09
3.2519e-06
3.36556e-08
0.00149086
0.00170365
1.06121e-09
-2.54331e-06
-4.82857e-08
-0.000472673
9.74773e-05
-9.33589e-08
0.0019205
-1.38456e-08
-0.00093681
-1.55373e-08
-2.06927e-08
-0.000488833
4.48097e-06
-9.99034e-07
-1.34802e-08
5.49446e-06
-6.4496e-09
2.06046e-08
7.06579e-10
-3.30632e-07
-1.37435e-07
-1.87295e-06
-1.19059e-08
2.15973e-06
-1.2871e-08
-1.07465e-09
-1.59293e-07
5.79278e-08
-6.41968e-09
-1.33031e-08
-5.13347e-09
-0.00345537
-7.10305e-07
-0.00470585
1.89233e-09
0.000162528
1.5892e-07
2.219e-08
1.42028e-07
-6.23817e-08
-1.03739e-06
-6.46825e-05
1.63824e-07
-1.19859e-08
-4.14754e-09
-1.84147e-08
3.98453e-08
1.19961e-08
1.41981e-06
0.000260375
-6.1453e-08
-5.87432e-06
0.000382125
1.07976e-06
4.1979e-06
-0.000139579
-3.24549e-06
3.51506e-08
1.91128e-08
-1.10494e-05
-6.9141e-09
-0.00605954
2.63766e-08
0.000439049
1.28174e-09
-0.000432873
0.00130451
5.6716e-08
-2.77559e-06
0.00293204
7.28161e-08
0.00116929
-3.21582e-06
-1.88427e-08
0.0174774
-2.09353e-09
-6.52087e-09
1.13959e-09
0.000129158
-3.76969e-07
-2.90152e-08
-5.74975e-09
-3.55981e-05
-0.00556593
-3.36686e-08
-2.9333e-06
-0.000963135
-0.000542291
0.000644679
-2.10449e-09
-1.22819e-06
-0.00198812
5.10913e-09
-9.85481e-07
7.38556e-07
1.69142e-07
0.00116075
1.29401e-06
-0.0228812
4.70523e-08
2.48998e-06
3.94318e-09
0.000439893
-5.69356e-08
1.96091e-08
-2.72371e-06
6.15123e-08
3.98483e-07
-2.67887e-07
-1.13142e-05
-1.29343e-07
-0.000470702
-7.47101e-09
-2.13856e-08
3.88211e-05
9.35495e-06
-0.00136882
-0.00510151
0.000824633
-0.000310612
-7.23899e-07
1.91976e-08
8.29518e-09
4.38947e-07
1.07253e-05
-1.16035e-08
0.00110079
-1.47684e-08
1.633e-07
-0.00421011
-3.31058e-08
-3.71882e-07
3.07909e-09
-1.32412e-07
4.60689e-07
-0.00675451
-2.11193e-06
5.50033e-05
0.0236198
-0.00562976
-1.92348e-08
-1.00616e-07
5.89279e-08
6.09988e-09
8.25168e-09
-5.80239e-07
-2.44148e-09
1.2442e-08
4.61664e-06
3.53268e-09
9.29465e-08
1.64089e-08
-1.81528e-08
8.02099e-07
-0.00367756
-7.8807e-09
-2.89309e-07
-8.8702e-06
-8.79031e-09
3.61983e-08
-0.000291303
0.000100456
-7.42261e-07
9.37288e-09
-2.6079e-08
-1.42288e-06
1.36048e-08
1.67756e-06
-1.50147e-08
-7.79023e-06
-9.1991e-07
6.63982e-06
-0.00122073
1.01161e-08
-3.50941e-07
-3.83499e-08
-2.06757e-07
0.00133311
-1.88597e-08
-1.26027e-08
-0.000507361
-0.00657973
-2.01085e-06
9.68265e-08
-1.26123e-07
-1.14061e-05
0.000500994
-3.76007e-06
0.000608019
2.66627e-09
1.20284e-05
1.89288e-06
3.88731e-07
3.87255e-06
5.87223e-08
5.84588e-09
-1.89278e-07
-5.34464e-09
1.90329e-08
3.89351e-07
-1.20884e-06
-0.0136159
-9.81097e-05
9.82533e-09
2.3628e-07
-1.75591e-08
-2.82298e-07
-1.21455e-06
-0.00136563
-3.72941e-08
7.42607e-06
2.06023e-08
-3.48024e-06
-1.45936e-08
1.70419e-08
-4.54077e-09
1.72046e-07
-1.9894e-07
1.31498e-08
-0.000755728
4.30437e-06
4.72164e-08
8.287e-06
-2.47539e-07
-1.59813e-08
1.67739e-08
-2.49754e-09
-2.66632e-05
-1.91298e-06
-5.98396e-09
3.98918e-09
-7.84279e-06
-0.000363257
3.01712e-06
-3.14641e-07
-1.66439e-08