/*--------------------------------*- C++ -*----------------------------------*\
| =========                 |                                                 |
| \\      /  F ield         | OpenFOAM: The Open Source CFD Toolbox           |
|  \\    /   O peration     | Version:  v2012                                 |
|   \\  /    A nd           | Website:  www.openfoam.com                      |
|    \\/     M anipulation  |                                                 |
\*---------------------------------------------------------------------------*/
FoamFile
{
    version     2.0;
    format      ascii;
    class       surfaceScalarField;
    location    "200";
    object      ddtCorrDdt0(phi);
}
// * * * * * * * * * * * * * * * * * * * * * * * * * * * * * * * * * * * * * //

dimensions      [0 3 -2 0 0 0 0];
oriented        oriented;


internalField   nonuniform List<scalar> 
41383
(
0.00019519
0.000635565
-0.000830754
1.25206e-06
-3.22969e-06
1.9774e-06
0.000222645
-0.000263407
4.07582e-05
1.07827e-05
-1.51474e-05
4.36724e-06
-0.00113037
-0.000109302
0.00123941
-2.37568e-05
3.64184e-05
-1.26626e-05
0.000759598
-0.000315295
-0.000444303
-2.75088e-05
2.74567e-05
4.84542e-08
0.00227192
0.000146348
-0.00241828
-1.84655e-05
1.65194e-05
1.94416e-06
-9.50471e-06
7.96069e-06
1.54407e-06
-0.000311908
0.000311164
7.59321e-07
-0.000153962
0.000240361
0.00175467
-0.000766124
-0.000988517
5.79996e-06
9.8322e-06
-1.56313e-05
0.000305804
0.000453788
-2.3573e-06
1.72926e-05
0.000453049
-0.000316654
-0.000136374
0.0172797
0.0520357
0.00277023
-0.00128473
-0.00148547
4.89597e-06
-3.64421e-06
-9.22558e-06
5.59779e-06
3.62627e-06
-0.000707354
0.000902544
0.000308743
1.82453e-05
-0.000326981
8.08498e-06
-4.32929e-06
-3.76057e-06
-1.46e-05
-3.25005e-05
4.71014e-05
-2.36995e-05
9.21562e-06
1.44827e-05
-1.66467e-05
-1.81973e-06
5.46773e-06
2.62761e-06
0.00459915
-0.0107312
0.00613198
1.02826e-05
-1.63694e-05
6.08792e-06
-0.00165721
0.00174635
-8.91429e-05
-5.02622e-05
0.000631216
-0.000580901
0.00411849
-0.0104503
0.00633183
-0.000628013
0.000577725
8.46309e-06
-1.52453e-05
6.78414e-06
0.0103399
-0.00889368
-0.00144617
0.0293382
-0.0237296
-0.00560856
-1.30847e-05
2.33693e-05
-5.36007e-08
-5.06588e-07
5.62957e-07
-1.2437e-05
1.56576e-05
-3.21286e-06
-8.09764e-06
8.04455e-06
0.00346109
-0.000951491
-0.00990719
0.00518903
0.00471815
3.6199e-05
9.46061e-05
-0.000130806
1.73671e-05
-1.68447e-05
-5.21924e-07
0.001648
-0.00111734
-0.00053067
3.23809e-05
-2.89738e-05
-3.40843e-06
5.27179e-05
-2.97136e-05
-2.30052e-05
0.00627246
-0.00556164
-0.000710762
-1.8675e-05
-3.0946e-05
4.96212e-05
-0.000125506
0.000161704
-0.0335707
0.00335775
0.0302129
3.96063e-06
2.48243e-06
-6.44289e-06
-3.20963e-06
2.11771e-05
-1.797e-05
-5.40225e-05
1.96951e-05
3.43244e-05
-8.16794e-05
-0.000793967
0.00157772
-0.00078375
-0.000497395
4.45376e-05
0.000452853
-2.43647e-05
0.000105787
1.62309e-05
-7.76636e-06
-0.000229809
-0.000267586
-0.00798312
-0.0157889
0.023772
-0.000259893
-0.00116001
0.0014199
0.000183201
0.00026985
3.49141e-05
-0.000329774
0.000294866
-7.47777e-05
-0.000358265
0.000433039
-0.000127512
0.000137331
-9.82922e-06
0.00126908
0.00108475
-0.00235385
-0.000134616
-0.00104268
0.00117728
1.00509e-06
1.138e-05
-1.23833e-05
-0.000388558
0.00048686
-9.83063e-05
0.0241154
-0.0521042
0.0279886
0.000364622
0.000156806
-0.000521434
-0.0243758
0.0165208
0.00785504
5.45839e-05
-4.71972e-05
-7.38989e-06
0.0123278
0.0170104
-0.000521744
0.000446968
0.003824
0.00244849
0.00068661
-0.000380811
0.00139537
-0.000494243
-0.000901111
-0.0130375
0.0130766
-3.91735e-05
-2.02851e-05
6.4356e-05
-4.40702e-05
-0.00155663
0.00076268
-0.000168575
0.000130696
3.78809e-05
2.23988e-05
3.56921e-05
-5.80871e-05
-4.77392e-06
3.38331e-06
1.39357e-06
1.5245e-05
-1.84561e-05
-0.000464045
7.54848e-05
0.00326718
-0.00277111
-0.000496105
-0.000679928
0.000558041
0.000121861
0.00041099
-0.00036645
-0.016262
0.0151462
0.00111591
0.000190991
0.000495613
8.87828e-06
-4.91708e-06
-2.13836e-05
-5.89359e-06
2.72778e-05
2.78152e-05
1.87409e-05
0.000346044
-0.00147686
-9.9418e-06
0.00118316
0.000464831
-0.00318094
-0.00985681
1.18146e-05
1.60645e-06
-1.34176e-05
-3.09783e-05
2.71739e-05
3.83455e-06
5.07037e-06
-1.19973e-06
-3.87238e-06
0.00229532
0.000971859
0.00045521
-4.42188e-05
0.00766335
-0.000185403
-0.00747795
0.000520975
0.00175096
-1.48916e-05
-5.72134e-06
2.06119e-05
-9.18632e-05
0.000105237
-1.33713e-05
0.000623955
-0.000519572
-0.000104383
-1.09214e-05
1.67218e-05
-4.70002e-06
1.65072e-05
0.0021176
-0.0183795
1.21699e-05
-2.15714e-05
9.39931e-06
0.00443781
-0.00518604
0.000748305
0.000127126
-0.000256996
0.000129866
1.30995e-06
-4.07239e-06
2.7638e-06
5.20598e-06
-2.33374e-05
1.81294e-05
0.000588647
0.0021816
0.000326906
-1.55058e-05
-0.000311396
-0.000658819
-2.11113e-05
3.05628e-05
-3.48511e-07
-5.45786e-06
6.87952e-07
-6.95653e-06
1.93363e-05
-1.23754e-05
0.000894357
-0.0027124
0.00181805
0.00451207
-0.00437005
-0.000142007
-0.0156152
0.00790381
0.00771129
8.34764e-05
0.000218259
-0.000301725
0.000258714
6.81953e-05
-4.60339e-06
-2.63657e-05
2.98599e-05
7.03861e-07
-0.000814411
0.000697237
0.000117167
1.25042e-05
3.71422e-06
-1.6218e-05
3.24327e-05
-2.25054e-05
0.000112944
-9.04486e-05
0.000148552
-1.01868e-05
-0.000138373
-8.55196e-05
3.57314e-06
8.19449e-05
-0.00387257
0.00364239
0.000230156
0.00115748
0.000349979
-0.00150743
-9.50215e-05
-7.37839e-06
0.000102391
-1.12503e-05
-1.24475e-05
-0.00130574
0.00220009
3.19007e-07
1.39963e-05
-1.43176e-05
2.45528e-05
-1.23842e-05
7.462e-05
-2.23039e-05
-5.23197e-05
7.03731e-06
0.000141511
-5.20561e-06
-7.47707e-05
7.99727e-05
0.000165933
-7.1328e-05
-0.000693709
-0.000120703
-2.0895e-06
-7.41516e-06
2.95296e-05
2.84895e-06
-3.27596e-05
2.24095e-05
1.0351e-05
-0.000186171
5.86591e-05
0.00201071
-0.00142204
-3.09518e-05
4.39847e-05
-1.30417e-05
0.0114895
-0.0113
-0.000189375
0.000627875
-0.000359514
-0.00026852
-8.32256e-05
-8.63676e-06
0.00153547
-0.000879999
-0.000655548
0.0041524
0.000359667
-9.94257e-05
-3.78662e-05
6.02709e-05
-2.30032e-05
2.8208e-05
-1.51233e-05
1.27661e-05
-2.74433e-05
3.3728e-05
-6.28624e-06
-1.35833e-06
2.6696e-06
-2.98698e-05
-2.41545e-05
7.94579e-06
6.76718e-06
-1.47176e-05
0.00166946
-0.00295418
3.54573e-06
1.52537e-06
0.000255737
-0.000128614
-6.61411e-05
5.2433e-05
1.37074e-05
-0.00629065
0.0141773
-0.00788667
-5.17649e-06
-1.86879e-05
2.38699e-05
0.00038544
-0.00042883
4.33998e-05
-2.83269e-05
8.83034e-07
6.0522e-07
-4.77112e-05
4.71072e-05
-0.00012137
-4.13512e-06
0.0113999
-0.00106005
4.54657e-05
0.000263272
0.000350311
-0.000738714
0.000388413
3.63184e-05
0.000119905
-0.000156221
3.79714e-06
7.08235e-05
2.5248e-06
-6.86678e-05
0.000405535
2.59061e-05
-0.000431444
-3.05503e-05
-4.18248e-07
1.86516e-06
-1.19699e-06
-6.69222e-07
-0.00194191
-0.00142155
0.00336346
0.00572237
-0.00369637
-0.00202589
-5.34817e-07
2.07379e-06
-1.53934e-06
0.000303026
-2.94937e-05
-0.000273545
-0.000790402
0.000840731
-5.03348e-05
-2.49602e-05
7.71811e-06
1.72411e-05
4.53627e-06
-5.13575e-06
5.9925e-07
-4.69994e-07
-3.56288e-08
1.29944e-05
-8.45771e-06
-0.000103664
-1.77075e-05
2.36942e-05
-4.73556e-06
-1.89584e-05
-3.18306e-05
2.0581e-05
-0.000197916
0.000786282
-0.000588353
-0.0204613
0.00903548
0.0114257
-0.00630077
-0.00732401
0.0136248
-0.000114629
0.000115604
-9.69457e-07
-5.66759e-06
-1.49559e-05
2.06228e-05
-3.33002e-05
1.94068e-06
3.13598e-05
-2.00908e-05
-1.2669e-05
0.00305539
-0.000617259
-0.00243805
-6.48293e-05
1.44111e-05
5.0418e-05
-0.000135395
0.00011102
9.5151e-06
-3.85985e-06
-5.65465e-06
-0.00734113
0.000713051
0.00662818
0.000518681
-0.000133241
5.68829e-05
-5.62758e-05
0.00106486
-0.00300675
-1.41354e-05
-1.21488e-06
1.53488e-05
7.43159e-05
-0.0155833
0.015509
-0.000319102
0.000510091
5.68503e-06
-2.70705e-05
-7.27341e-05
5.96663e-05
1.30675e-05
0.000340781
-0.000257296
-8.55562e-06
-1.0276e-05
1.88317e-05
0.000495091
-8.95588e-05
0.00243383
0.000614547
-0.00304832
-7.0211e-05
-5.75054e-05
-2.80138e-05
6.84972e-06
0.000331638
-2.86203e-05
2.00469e-05
-2.68107e-06
1.41837e-05
-2.53617e-06
-1.16337e-05
1.3389e-05
-7.0063e-06
-6.38226e-06
-2.43118e-05
1.842e-05
-9.49142e-05
-1.61267e-05
0.000111043
-0.0379647
0.0552441
0.00186284
-0.000705321
-1.04612e-05
4.04161e-06
6.42009e-06
0.00251805
0.000537387
5.00132e-05
0.000581224
-0.00173402
0.00150805
0.000225969
9.08014e-05
-3.29144e-05
-5.78889e-05
0.0164736
-0.00851186
-0.00796166
0.0142989
0.0021748
-3.11924e-06
1.02779e-05
-7.15072e-06
1.0389e-05
-1.03048e-05
-8.26063e-08
0.000505461
-0.000455436
-0.000100612
-3.05277e-06
0.011511
-0.0114367
0.000171803
-0.000490909
0.000281511
-5.88679e-05
0.00903129
-0.00341939
-0.00561195
5.72508e-05
-0.000149269
9.20217e-05
-0.000581435
0.00100836
-0.000426921
2.6556e-05
6.42448e-05
1.307e-05
-2.28521e-06
-2.4621e-05
2.02521e-05
4.36936e-06
-0.000108359
-6.02152e-05
-0.0199999
0.0168188
-0.000131445
1.6818e-05
-1.16264e-05
-0.000102515
0.000159765
-1.335e-05
-2.62183e-07
1.36082e-05
-0.000299106
-5.39357e-05
0.000353044
-3.33446e-05
-3.14845e-05
-0.000226022
0.000636209
-0.000410209
-3.9015e-06
-4.59304e-05
4.98314e-05
0.000501021
1.57918e-05
1.17132e-05
-2.02686e-05
-1.82606e-05
0.000241499
-7.93195e-06
6.25598e-06
1.67722e-06
-0.00118342
0.00153341
0.021868
-0.00958338
-0.0122844
-6.99184e-06
-1.79686e-05
-0.000300258
-0.000586619
0.000886913
8.7155e-05
-2.15392e-05
-6.56183e-05
-8.54086e-05
0.000106743
-2.13319e-05
-5.16125e-05
-0.000138628
3.0267e-05
-0.00716715
-0.000173967
1.83617e-05
7.05414e-05
-8.89018e-05
0.000128486
7.19745e-05
-0.000200463
-0.00321337
0.00784982
-0.00463644
-0.00309899
0.00390437
-0.000805272
0.0159713
-0.00276046
-0.0132108
-0.00544319
-0.0145567
3.82015e-05
-3.49816e-05
-3.2159e-06
-7.11836e-05
5.87629e-05
1.24223e-05
-1.08214e-05
1.49444e-05
-4.12327e-06
1.05375e-05
1.38653e-05
-2.44025e-05
-0.00367471
0.0077932
7.77067e-06
-2.6937e-05
1.91658e-05
-0.000448443
-0.0153997
0.0158482
3.51704e-05
-2.73998e-05
-0.00361755
0.00519619
-0.00157861
0.00579851
-0.00136054
0.000248135
-0.000117436
-7.82938e-05
-5.71161e-05
0.0278754
-0.0172284
-0.010647
0.000243793
-0.000208871
-6.04159e-05
-7.66544e-08
6.04942e-05
0.00199467
-0.000554706
-0.00143997
5.26502e-05
0.00148275
-0.0589052
0.0209405
-0.00076002
-0.00311259
-1.71875e-05
3.83616e-06
0.000634213
-0.000314496
-0.000319692
4.24087e-05
0.000970494
-0.00101294
6.21909e-06
8.09345e-05
5.23602e-05
-0.0003286
0.000276248
-0.000398742
0.000530039
-0.000131306
-0.000235695
-8.69453e-05
0.00032265
7.43919e-07
1.17595e-05
0.0028355
-0.00258939
-0.000246123
3.63154e-06
5.88414e-06
0.00027108
-0.000218723
0.000901842
-0.000266279
7.76239e-05
-7.4727e-05
-2.89525e-06
0.00138044
0.000374238
5.64934e-06
-8.75717e-06
-2.05593e-05
1.06362e-05
-9.06694e-06
-1.56942e-06
1.40546e-06
-0.00012559
0.000124184
-0.00918521
-0.00430223
0.0134874
-0.000600615
-9.30958e-05
4.29777e-05
-0.000342087
-3.56488e-05
-0.000564969
5.83675e-06
-2.07924e-05
0.00011192
-1.23636e-05
-9.95602e-05
-0.000119548
0.000222792
-0.000103247
-0.0020198
0.00329363
-0.00127376
0.0133418
0.00565173
-0.0189935
0.0113517
-0.000687944
-0.0106638
-0.00198938
0.0044232
-0.0134497
0.00715904
0.000108831
-0.000344518
2.98142e-05
-4.99434e-05
2.01307e-05
4.76752e-05
5.1889e-05
-9.95662e-05
1.12229e-05
-7.85618e-06
-3.36631e-06
-6.30223e-06
1.16419e-05
-5.33967e-06
0.000168889
-0.000346072
0.000177221
-0.012292
-0.00463242
-0.000929295
-4.59299e-06
-0.000629136
0.000633764
0.00644719
-0.0338234
0.0273762
-0.00129684
-0.000544467
0.00184129
0.00574815
-0.0207465
0.014998
-0.000382057
0.000553859
-0.00169274
-0.00218837
0.00388105
-4.05849e-06
-5.82133e-05
6.2272e-05
0.000103696
0.000751285
-0.000855084
1.15079e-05
-1.84648e-05
4.5153e-05
-5.1895e-05
6.74278e-06
0.000105738
-5.8532e-05
-4.72078e-05
-0.00016202
0.000133996
2.80207e-05
-0.00819899
0.0186281
-0.0104292
0.00119675
-0.00288953
3.6677e-07
-2.82192e-06
2.45514e-06
5.99926e-05
-0.000162304
0.000102309
0.00332051
0.00303112
-0.00635165
-0.0231981
-0.0072563
0.0304544
0.000184316
-0.000124322
-0.000342009
4.50849e-06
0.000337504
-2.12116e-06
-3.01499e-06
3.58661e-06
-9.87404e-06
6.29072e-06
-0.0100324
0.0157805
9.31216e-06
2.88883e-05
9.84046e-05
-8.00407e-05
2.72531e-05
-1.20097e-05
4.14618e-05
-1.16463e-05
-0.0017498
0.000452954
-0.00137565
0.0010529
0.000322739
0.00036945
-0.000251165
-0.000118286
0.0313935
-0.0190657
0.000369975
0.000416297
-0.00048186
-0.000893804
0.000288864
0.000335093
0.000315068
0.000192227
-0.000507296
6.96838e-06
7.6531e-06
-1.46213e-05
7.88591e-07
1.07614e-06
7.89456e-07
-2.911e-06
5.40721e-05
5.16639e-05
-0.000217132
0.000223319
-6.18663e-06
-8.44798e-06
-3.975e-06
1.24225e-05
-1.28002e-05
1.23134e-05
4.88298e-07
0.000357305
0.00119267
-0.00155003
-0.000276441
0.00103465
-0.000758211
-0.00336999
0.0066905
-0.000690385
-4.68417e-05
0.000737229
9.38503e-05
-9.8814e-05
4.95879e-06
-2.38436e-05
5.73717e-05
-3.35324e-05
0.000830776
-0.000788381
-5.60134e-06
7.31427e-06
-2.40766e-05
1.6762e-05
0.00136288
-0.00338272
-0.022311
0.0287581
-4.60265e-05
-1.34678e-05
1.22917e-05
1.1758e-06
-0.000193933
-0.000596472
-0.000147759
1.98292e-05
7.09716e-05
2.28772e-05
0.000793896
0.00192687
-0.00272081
-4.99703e-06
1.2939e-05
-0.0248595
0.0041127
0.000567899
-0.000217591
0.00234761
-0.0025442
0.000196617
0.0140881
0.00188316
-0.000510645
0.000122403
0.000388238
0.000116341
9.39053e-05
-0.000210256
7.8092e-06
-4.22424e-06
-0.000278576
0.000263068
-0.00030868
-5.42591e-06
0.000314111
0.0362009
-0.0339114
-0.00228947
2.7701e-05
-2.20172e-05
-0.000160898
-4.7919e-07
0.0001124
-1.14833e-05
1.18006e-05
-0.0238989
-0.000960766
0.00247399
0.000987124
0.000110611
-0.00049267
-0.00141696
0.00114052
-3.96847e-05
2.50864e-05
-0.0105614
-0.00502191
4.23096e-05
0.000698518
-0.000958409
-0.000408781
0.000235206
0.000173581
-0.00601112
-0.00389606
-4.8891e-05
3.02156e-05
7.43602e-06
3.78625e-06
-0.000546193
0.000441562
0.000104625
0.0313874
0.00481349
-2.83044e-06
-4.69456e-06
7.52584e-06
-5.45683e-06
5.45654e-06
1.24727e-05
-3.03139e-05
1.78424e-05
-0.000262463
0.000473927
-0.000211452
0.0134145
-0.0348505
0.0214359
0.0291386
-0.0157241
-0.000118746
0.000155064
0.00028276
-0.000325359
4.26038e-05
-0.00150162
-0.000155589
3.6574e-06
-4.50247e-06
8.43642e-07
1.10501e-06
-2.46177e-06
4.00615e-05
-0.000747417
1.1179e-05
-7.85159e-06
-3.32612e-06
1.0336e-05
-1.10651e-05
7.28868e-07
-0.000321071
0.00101961
-0.000206195
-0.000117621
0.000323821
0.000271395
0.00076291
-0.0010343
-0.0168229
-0.00143778
-0.000349163
0.00178698
0.015399
-0.00388795
0.000273552
0.0011218
-8.72991e-06
-3.41744e-05
4.29039e-05
0.000115197
9.24382e-05
-0.000207634
8.43863e-06
-0.000103351
-0.0104833
0.00129804
0.0145765
0.016817
1.93971e-05
7.8544e-06
-0.00599588
0.00485452
0.00114139
-0.00230505
-0.00544373
0.00774883
-0.00206269
0.00226238
-0.000199737
0.00274928
-0.00325272
0.000503427
-2.09337e-07
2.65501e-05
-2.85834e-05
2.03256e-06
-0.00509331
-0.0105219
7.05439e-06
4.1288e-06
-0.00281991
1.09997e-06
9.23465e-06
0.00021094
-0.000167363
-4.35863e-05
2.14439e-06
-1.03788e-06
6.88671e-05
-2.91727e-05
-3.96984e-05
0.00196914
-0.00152944
-0.000439681
-0.011988
0.00266744
0.00932053
0.00861541
-0.0318135
3.28675e-05
0.000664366
0.000440114
-0.000469586
-1.46418e-05
8.33974e-06
-9.39645e-05
0.000110032
-1.60608e-05
0.00023768
0.000121006
-0.000358682
2.16406e-05
-0.000322184
0.000385183
-6.30084e-05
0.000320408
-0.000293136
0.0305099
-0.012733
-0.0177769
0.000253529
-0.000125041
-1.06206e-05
2.03094e-05
-9.69068e-06
-0.000161293
0.000398975
1.00653e-06
-1.51423e-05
1.4654e-05
-2.06477e-05
5.99707e-06
0.0154877
-0.000981114
-0.0145065
-6.3995e-06
1.56147e-05
-0.000605944
0.000379912
0.000485196
-0.000452326
9.94615e-06
0.000302875
-0.000312776
-0.00873206
0.0161676
-0.00743552
0.0067556
-5.11134e-06
2.2813e-06
-0.00407873
-0.00637155
-0.000313971
5.29259e-06
6.74757e-05
-6.67963e-05
-6.77354e-07
-0.0144601
-0.0139107
0.0283707
0.00085203
-0.00173202
0.0163329
-0.000165285
-0.000967037
0.000666794
2.21125e-06
-2.15356e-06
-5.89557e-08
2.17035e-05
0.000446464
-0.000337623
4.39557e-05
1.19736e-06
2.24683e-05
-4.62261e-05
-0.0169439
0.0164955
-0.00126007
0.000640454
0.000619625
2.12607e-05
-1.2961e-05
-8.30156e-06
-1.7347e-06
1.19937e-06
0.001976
0.000371667
-0.0182627
-0.00611308
0.00293742
0.000704964
-1.21933e-05
-1.27471e-06
0.000825892
-0.000554494
-1.1784e-06
2.7725e-05
-0.0401217
0.0862755
-0.0461538
-3.01868e-05
2.67701e-06
-0.00259858
0.00347309
-0.000874518
0.00127991
0.0100718
-4.24195e-06
-3.68888e-06
-5.07762e-06
-2.18596e-05
-1.75821e-05
-3.43137e-05
-0.00397159
0.00857072
0.000235594
-0.000326166
9.06212e-05
0.000999673
0.000479829
-0.00147949
0.0596163
-0.0355011
-3.66987e-05
-0.000100706
0.000137403
1.36197e-05
-8.28508e-05
6.9229e-05
0.000345272
-0.000335323
-6.27467e-06
1.61071e-05
-2.32637e-05
-0.000524891
0.000548158
2.43461e-06
-6.97939e-06
4.54577e-06
1.51743e-05
-0.00184991
-0.00317105
0.00502096
-0.000434189
0.00333668
-0.00290254
-1.14317e-05
2.98359e-06
9.93128e-05
-0.000218863
0.000138188
-0.000174887
0.000124164
0.000322305
-3.46647e-06
2.90868e-06
5.57735e-07
9.558e-05
-4.20538e-05
-5.35267e-05
0.00346701
0.00225536
-8.64974e-05
0.000369263
-0.000516911
0.000140349
0.000376562
0.00503747
-0.00379941
-0.00123825
0.000159884
-0.000469595
0.000309701
-0.00359905
-0.00713212
0.00270436
0.00107293
-0.00377735
1.17362e-05
-1.08582e-05
-8.89524e-07
-0.000110471
7.98017e-06
-1.86013e-05
-0.00216493
-0.000263717
0.00242864
-0.000991187
-0.000742835
-3.91572e-06
-5.31105e-06
-5.71931e-06
1.23251e-05
-6.60685e-06
-0.0147223
0.000147151
0.0145752
-8.78507e-06
7.23835e-06
1.54692e-06
-2.25975e-06
4.4641e-06
-1.07696e-06
0.0218737
-0.00424768
-0.017626
5.9573e-06
1.02904e-06
-6.98728e-06
-5.66184e-05
0.0051772
0.000809426
-0.00598671
0.00166181
-0.00130452
-0.000211857
0.0009608
-0.000748971
0.000136717
-0.000364603
0.000227881
0.00281025
-0.00154122
-7.25096e-06
0.000313029
-0.00039003
7.69891e-05
-7.62056e-05
3.02754e-05
-0.000156631
0.00052661
3.26191e-05
-4.53513e-06
-2.80853e-05
9.63478e-05
-0.00420787
0.0260816
0.00112159
-0.00254314
0.000546642
-0.00244938
0.00315895
-0.000709578
-9.17314e-06
-5.82638e-06
1.49998e-05
-0.00221523
0.0020752
0.000140045
1.35293e-05
-4.84426e-06
-8.68513e-06
-5.70227e-06
5.53364e-05
-4.96332e-05
0.000258768
0.000290297
-6.64709e-05
-0.000223829
0.00093126
-0.00403022
0.0164247
0.000227088
-0.00048956
4.36777e-05
-4.93797e-05
-0.000161162
0.000176745
-1.55809e-05
1.37435e-05
-2.11698e-07
4.92085e-06
-2.13302e-06
-2.78805e-06
-0.00669274
0.00307516
-0.00128111
-0.000696218
0.00197735
2.64404e-05
-0.000212818
9.84952e-05
0.000114324
1.76068e-05
-2.26033e-05
4.99463e-06
0.00165082
-0.0015207
-0.000130101
0.00275012
-0.00505513
-1.61644e-05
-0.0162241
-0.00882739
0.0250513
-0.000281493
2.9141e-06
4.17521e-05
-3.7197e-05
-4.55515e-06
-3.59624e-05
-4.02414e-05
-1.57252e-05
2.38523e-05
-8.12532e-06
-0.000752248
0.000855922
-0.0205891
0.025446
-0.0048569
-0.0128669
0.0220699
-0.00920304
0.00741077
0.00245348
-0.000878272
-0.00157521
0.0116896
-0.0126707
2.14982e-05
-1.83359e-05
-3.16162e-06
-0.00169516
0.00281674
-9.46379e-05
-0.000118178
0.000242459
-0.00055408
0.000311643
-0.000292669
-1.92152e-05
-5.04912e-07
1.811e-05
-0.00209892
0.00210723
-8.28439e-06
-0.0150572
-0.00540416
0.00187582
-0.00239845
0.000522659
3.43976e-08
-3.49619e-08
0.0011016
-0.0130797
0.0119777
5.19814e-05
-0.000170731
-0.00248398
0.00501868
-0.00253464
-0.00342908
0.000979695
-0.000145034
-1.61296e-05
0.00441275
0.00185257
-0.00626562
-0.00213066
-0.00583232
0.0079629
0.000191903
9.83956e-05
-2.55643e-05
1.00994e-05
1.54668e-05
-7.75963e-05
-0.000178829
0.000256435
3.63549e-05
-0.000293355
-6.38119e-05
-0.000315868
0.000379684
1.30346e-05
-3.48745e-06
-9.55934e-06
0.000404843
-6.63916e-05
-0.000338445
-6.08485e-06
-1.94791e-05
6.118e-06
-1.18368e-05
4.09339e-05
-8.05922e-06
-3.28778e-05
0.00588061
-0.00122686
-0.00465374
0.000467442
0.000603142
-0.00107059
0.00064118
-0.000645777
-3.95206e-05
2.11785e-05
1.83381e-05
0.00314465
-0.0139101
0.010765
-0.000349737
7.73178e-06
-0.000162066
-0.000277852
0.000439915
2.35048e-05
1.90065e-07
0.00135483
0.00452582
-0.000486052
0.000141109
0.000344946
-0.000427086
0.00097654
-0.000549451
0.00171174
0.00191713
-0.0036291
0.00194786
-0.000930432
-0.00101744
0.0105863
-0.0185695
7.97932e-06
2.40942e-06
-2.93661e-05
-2.71472e-06
3.20802e-05
0.000741993
0.000375813
-0.00111782
3.64541e-06
-2.4152e-05
2.39049e-05
2.41755e-07
0.00115249
-0.00455658
0.00340408
-0.000967826
0.000755961
-0.00135509
0.0170009
-0.0156457
1.2816e-07
-5.585e-06
0.00132856
-0.00032888
6.31691e-05
-0.000132342
6.91745e-05
1.73558e-05
3.72269e-05
0.0113044
-0.000369389
-0.0109349
-1.88777e-06
-2.7479e-05
9.05217e-05
-0.000113035
-0.010603
-0.0131563
-0.00263334
0.0157896
-2.081e-05
-5.0369e-05
-2.10811e-07
-1.01642e-05
1.03777e-05
2.23536e-06
-3.26291e-06
1.02851e-06
-4.61809e-06
-3.30341e-07
4.9516e-06
-0.000876693
0.000186307
0.000756878
-1.4888e-05
-0.0132866
0.0308023
-0.0175157
0.0164318
-0.0146899
-0.00174184
9.45348e-06
-0.000604338
0.000900814
-0.000296484
0.00151948
-0.00196394
0.000444456
0.00174785
0.00328949
0.000510673
-0.000171169
-0.000339493
-0.00136572
0.000182321
-4.89966e-06
6.48815e-06
-1.58986e-06
-0.00997299
0.0106268
-0.00065387
-6.84757e-06
7.26608e-06
-4.18115e-07
-0.00235072
0.0122511
-0.00990034
-0.000154984
0.00789172
0.00938794
-0.0172794
0.00020808
-0.00029457
-0.000256928
-0.000151849
5.12779e-05
-9.72375e-05
-0.00017093
0.000268173
0.000289336
0.0013615
-1.06838e-06
7.02638e-06
-3.09124e-06
-2.35981e-06
0.00130226
0.000645595
-0.000974805
0.00124587
-0.000271079
-7.67336e-06
6.94302e-07
-0.000655528
-0.00362611
0.00428162
1.31454e-06
1.04246e-05
-0.0313387
-0.00223195
0.00019209
-0.0003321
0.000140008
0.000161007
9.47297e-05
-0.000310125
0.000470008
0.000160949
-0.000108974
-0.00140705
0.000485791
0.00092125
0.000706594
-0.00110142
0.000394828
-0.00159384
0.00238779
-3.44003e-06
-0.00193055
0.00185662
7.39568e-05
-0.000758823
0.000624201
0.00086293
-0.000395508
-0.00144854
-0.00443356
0.00588209
0.000888474
-0.00216957
-0.000157677
0.000504496
-0.000346817
-0.00768843
0.00328352
0.0044053
-4.26952e-07
8.38789e-06
0.000202713
-6.9753e-05
-0.000132961
-3.74514e-05
-9.74614e-06
-9.69801e-05
0.000345849
-0.000248885
-0.0030422
0.002892
0.000150313
8.11371e-05
-8.73951e-05
6.26389e-06
-0.00109105
4.83681e-05
0.0106165
0.000850205
5.89523e-06
-0.000856102
0.0260073
-0.00467847
-0.0213288
0.000691625
-0.000503066
-0.000188527
0.00010773
-2.82743e-05
-7.94579e-05
-0.0005501
-0.0111905
-7.40015e-06
-1.11848e-05
1.85812e-05
-0.00615827
-0.00582971
0.00558293
0.0540332
-0.00599776
-0.0021049
0.0081026
3.06784e-05
-2.05957e-05
-1.00826e-05
-0.00229387
0.00023116
3.95399e-06
-8.27222e-07
-3.12728e-06
0.00149982
-0.00139727
-0.00010257
-1.26571e-05
-9.21143e-07
1.35781e-05
-0.00337459
0.000332373
2.32914e-05
0.000287897
-7.05394e-06
-8.09434e-06
-5.90982e-05
3.52527e-05
0.0174214
-0.00952955
0.000303065
-0.00039225
8.91894e-05
-4.01772e-05
5.65359e-06
3.45223e-05
0.00251314
-0.00147468
-0.00103847
1.78176e-05
1.28615e-05
7.0372e-05
1.07693e-05
-3.59011e-05
-0.000352678
0.000388576
-0.000227057
-0.000433271
0.000660329
0.000488354
-0.000187045
-0.000301297
-0.0363048
0.000379446
0.0359254
-0.00147909
0.000682693
0.000796408
0.00019344
8.80685e-05
0.000105593
-4.24234e-05
-0.000109451
-0.00139939
0.00150884
0.00354599
0.0127869
0.00817759
-0.0225803
0.0144026
-0.00011539
0.000180213
-6.4823e-05
0.00078601
-0.000128994
-0.00065701
-1.19767e-05
0.000522643
0.001
0.000746348
-8.6424e-05
5.06005e-05
3.58208e-05
1.35379e-05
-6.53358e-06
-7.00567e-06
1.86861e-06
-1.86888e-06
-0.000269002
0.000115026
5.29993e-06
8.23672e-06
-0.000899772
-0.000507278
-6.10214e-06
6.61894e-06
-5.17564e-07
-0.00902897
0.0281616
-0.0191327
0.000124877
0.000342647
-0.000467526
-1.40186e-06
6.99912e-06
1.78094e-05
1.86083e-05
0.000154876
-0.000118474
-3.63956e-05
-0.00899676
0.0171749
1.39585e-05
3.33424e-06
9.73e-05
5.75813e-05
0.00352532
-0.000587922
0.00128799
-0.0031379
7.92155e-07
-5.69178e-06
0.00799382
-0.00673061
-0.00126295
0.000234932
-7.39241e-05
0.00971911
0.0181563
6.26355e-06
-6.26301e-06
-9.92765e-06
7.39556e-06
-7.78715e-05
1.33586e-05
6.45137e-05
-0.000483688
-0.000914245
0.00139794
-0.00993509
-0.00015693
0.000263678
-0.00010674
0.000464201
-0.00191532
0.0014511
0.00407288
-0.00300803
6.58494e-06
-3.65267e-05
2.99419e-05
0.000691836
0.00338103
0.0146907
-0.013398
-0.00129269
-0.000270949
-0.00182795
0.000420902
-0.000904589
0.000982207
0.00153094
2.18628e-05
-1.61549e-05
-5.706e-06
0.00106424
-0.000149806
0.000127188
2.26215e-05
-1.31755e-05
-6.46948e-05
-0.000725502
0.000121159
0.00135315
0.00116496
0.00292338
-0.0503379
0.0474145
-4.0933e-05
-3.24826e-05
7.34147e-05
-0.0191662
0.00206242
0.0171035
0.00806065
0.000970554
-0.0198402
0.0153947
0.00444554
0.0163475
-0.000722768
-0.0156248
-0.00101253
0.00345832
-0.0024458
-9.95381e-05
9.671e-05
2.81079e-06
-0.00919844
-0.0271064
0.00856234
-0.00874775
2.95814e-05
-2.29482e-05
-6.63331e-06
1.09791e-05
-1.13533e-05
3.74861e-07
1.74634e-07
-2.24124e-06
2.06627e-06
-2.62592e-05
1.05378e-05
-0.014438
-0.0167416
0.0311797
3.61978e-06
1.82421e-05
3.63457e-05
3.30818e-06
-3.96518e-05
0.000399805
0.000443145
-0.000842853
-0.000590348
0.000869345
-0.000279008
0.00027027
0.000363944
2.59242e-06
3.04978e-06
-5.64173e-06
4.88316e-05
-3.57123e-05
-1.31195e-05
9.51242e-06
-1.69134e-05
0.000143881
-0.000117511
-2.6374e-05
-0.000968705
-0.00117289
0.0021416
-2.88239e-06
6.18918e-06
-3.30734e-06
0.00210917
-0.000233333
5.12806e-05
-2.98544e-05
-2.14236e-05
0.000625932
-0.00279084
-0.000207068
8.60895e-05
0.00012098
-0.000151184
-5.58828e-05
0.00186588
0.000378096
-0.00224393
1.26664e-05
3.86168e-05
-0.000879174
0.000288823
-0.000278412
1.50018e-05
1.89652e-06
8.73978e-06
-0.0361683
0.0297324
0.00643572
-1.84721e-06
-1.10746e-05
1.2923e-05
-1.76969e-05
5.50842e-06
1.21885e-05
-0.000195052
0.000331744
-0.000925122
-4.96876e-05
0.00023559
-0.000536313
0.000300717
-0.00748137
0.00804367
-0.000562302
-4.42592e-06
-1.89745e-07
1.83838e-06
9.1388e-06
0.00113392
-0.000758121
-1.83717e-05
2.63503e-05
0.009364
-0.002037
-0.00732729
0.000310731
-6.69292e-05
-0.00262257
0.000423104
-0.000744163
0.000312894
-0.000104805
-0.00551435
-0.00117839
7.46432e-05
-6.10252e-05
-4.89544e-05
-0.000379128
0.000428085
0.000289621
-0.000604104
-0.000316014
7.57071e-05
0.000240306
1.18785e-05
-8.7919e-08
-1.17877e-05
0.000379742
-0.000415648
0.000129365
-0.000244754
4.62931e-06
2.49522e-05
0.000307863
0.000360152
-0.000587222
-8.15184e-06
1.00378e-05
-1.88647e-06
1.51876e-05
2.91365e-05
-4.43277e-05
0.00046678
-0.000515773
4.89879e-05
-4.17132e-05
0.000126291
-8.45742e-05
6.85715e-05
-3.32677e-05
-3.52995e-05
-0.00183888
0.00230302
-1.86786e-05
-2.88337e-06
2.15657e-05
-3.11187e-05
3.43993e-05
-3.28781e-06
0.00103533
-0.00114022
0.000104898
1.21454e-05
-1.57061e-05
3.56158e-06
-4.56265e-05
-4.07961e-05
1.65229e-05
-3.53492e-05
1.88257e-05
0.000313676
0.00017471
-0.000361885
-3.44199e-05
-6.60825e-06
4.10278e-05
0.00254928
-0.000683384
0.000151775
0.0003351
-0.000486859
0.00952182
-0.0221256
0.012604
-1.1523e-06
-2.38483e-06
-1.5311e-05
0.00105806
-0.000351475
2.20669e-05
-5.77228e-05
3.56575e-05
4.21628e-05
-2.86369e-05
9.38301e-07
2.7695e-05
-6.8379e-06
-9.31637e-09
1.45219e-06
1.14048e-06
-0.00014606
-0.000211348
0.000357418
-2.44871e-05
6.11532e-06
0.000761636
0.00860195
9.5799e-06
-8.57349e-06
0.00165679
-0.000354543
-0.000179477
7.87711e-05
0.000265643
-0.000326479
6.08342e-05
0.000238002
2.76419e-05
2.04917e-05
0.00017357
-0.000330505
0.0129894
0.00170116
0.00283763
-0.00605099
0.000608187
0.00682211
-0.00743029
7.67471e-06
-9.52503e-06
-0.000795264
0.00349955
5.68502e-05
-5.73191e-05
4.70625e-07
0.000541788
-0.000427278
-0.000114505
8.0779e-06
3.87365e-06
-1.19523e-05
1.29385e-05
-1.55852e-06
-1.32572e-06
-1.66965e-06
2.99568e-06
-0.000172595
0.000422849
-0.000250261
-2.11872e-05
3.63717e-05
-0.00104529
2.64938e-05
-3.44371e-05
7.94348e-06
0.000700147
0.000433769
0.000173009
-0.000345603
-0.000128313
0.000244657
-9.49622e-05
-0.000145157
0.000240122
-5.13603e-05
-0.000459287
-9.98093e-06
-1.08543e-06
8.78302e-06
4.60635e-06
0.00481605
-0.0040737
-0.00074233
-0.00193961
0.0406465
-0.0387069
-0.00158864
-0.00209944
0.0036881
-4.67407e-06
7.15624e-06
-4.92446e-07
1.29678e-06
-8.052e-07
9.0568e-05
-0.000132278
4.00719e-06
-3.63984e-06
0.00533715
-0.00746769
0.00478562
-0.00788587
0.00310044
-9.55814e-05
5.30375e-05
4.25544e-05
0.00268006
0.00531406
-1.72821e-05
-0.0143417
0.00614265
1.17904e-05
6.67938e-05
0.000104636
-0.00017143
-5.25019e-05
-4.30738e-05
-0.0017368
-0.0129855
8.14222e-05
-7.78504e-05
-3.35924e-05
-0.00500824
-0.000291228
0.000196267
0.000379601
-0.000227821
-5.3336e-08
2.26274e-06
-0.0215658
0.0249235
0.00405604
-5.9162e-05
6.56472e-05
-6.48419e-06
4.1218e-05
-3.43929e-05
-6.82641e-06
0.000174676
3.65835e-05
-0.000211261
0.0136508
-0.00574696
0.00561071
-0.000433615
0.000348722
0.000437274
8.22787e-05
0.00203321
-0.00634223
0.00430909
1.3428e-05
7.83108e-06
-0.00061618
-0.000194703
0.000810901
0.00013271
8.75538e-05
-0.00022026
-0.00742338
0.0040039
3.31268e-05
-2.15224e-05
-1.16042e-05
-4.53541e-05
1.20095e-05
2.5586e-05
4.32778e-05
-0.000117077
0.000104712
-0.000910931
0.000801483
-1.48936e-05
4.91156e-06
3.98432e-05
-0.000110783
7.09415e-05
1.36153e-05
1.9511e-05
0.000298616
-0.000106529
-0.0021295
0.00033712
0.00179247
0.00140022
0.000256569
0.000518032
2.37575e-05
-6.80322e-06
-3.65649e-06
0.00258278
-0.00133814
-0.00124462
-0.0050066
-0.00247479
0.000307385
0.000311912
-0.0017497
-0.000263295
1.87834e-05
0.000244508
-0.00783825
0.0084464
-8.7827e-06
7.45621e-06
0.000532085
-0.00199561
-0.00400026
-0.000400419
0.000173614
0.000226802
-1.28664e-05
4.26472e-05
6.18299e-06
-2.94057e-05
-1.97051e-06
3.13763e-05
-0.00352803
0.00445924
-0.0233704
0.0100838
1.95209e-06
-1.27736e-05
-1.78851e-05
-7.95321e-07
-0.000953729
0.000531853
0.000421892
0.00150832
-0.00139775
-0.000110569
3.94855e-06
3.72687e-05
0.00474061
-0.00618906
2.71492e-06