/*--------------------------------*- C++ -*----------------------------------*\
| =========                 |                                                 |
| \\      /  F ield         | OpenFOAM: The Open Source CFD Toolbox           |
|  \\    /   O peration     | Version:  v2012                                 |
|   \\  /    A nd           | Website:  www.openfoam.com                      |
|    \\/     M anipulation  |                                                 |
\*---------------------------------------------------------------------------*/
FoamFile
{
    version     2.0;
    format      ascii;
    class       volScalarField;
    location    "200";
    object      k;
}
// * * * * * * * * * * * * * * * * * * * * * * * * * * * * * * * * * * * * * //

dimensions      [0 2 -2 0 0 0 0];


internalField   nonuniform List<scalar> 
27802
(
0.000185749
0.000141373
0.000150742
0.000152374
0.0296688
0.000146015
0.000152989
0.000147827
0.000184101
0.000149528
0.000138625
0.0379421
0.0355598
0.000187349
0.00014136
0.000153006
0.000127772
0.0366934
0.022942
0.000179527
0.000140302
0.000145791
0.000186566
0.000195819
0.000135592
0.000148263
0.000144762
0.000149439
0.000135556
0.000181705
0.000144711
0.000155502
0.00348035
0.000204444
0.00522556
0.000141977
0.000239285
0.0013441
0.000144668
0.000144287
0.000146889
0.000144308
0.0169277
0.000236134
0.000139831
0.000141224
0.000208849
0.000145966
0.000136962
0.000180476
0.000156008
0.000139856
0.0069583
0.000139761
0.000143173
0.000145838
0.015828
0.000185563
0.000145845
0.0217937
0.000141963
0.000145705
0.00197278
0.000154995
0.0361458
0.000188394
0.0268138
0.00014998
0.0328693
0.000155472
0.000139699
0.000201191
0.0163598
0.000200147
0.00590135
0.000156147
0.00136348
0.0247891
0.000178128
0.000152814
0.0211251
0.000169981
0.000137199
0.000185323
0.000144756
0.000152937
0.000135414
0.000143066
0.000201149
0.000165799
0.0297005
0.000145537
0.000241914
0.000152786
0.000138634
0.000145875
0.000159471
0.0305691
0.000146855
0.000206668
3.01539e-05
0.000147212
0.000152489
0.000155084
0.000210442
0.000145521
0.000291378
0.000185168
0.000142261
0.000168372
0.000152724
0.000141273
0.00014726
0.00029948
0.000135518
0.000209347
0.000158468
0.000139238
0.000156525
0.000179062
0.0381133
0.0311517
0.000167484
0.00013554
0.000143587
0.000182324
0.0002144
0.000802941
0.0367993
0.037372
0.000152516
0.000167156
0.000147854
0.000149065
0.000137225
0.000149185
0.000148928
0.000138183
0.000179617
0.000190572
0.000149601
0.000145076
0.00018194
0.000135188
0.000135492
0.000151229
0.000148899
0.000150499
0.000140122
0.000147294
0.000138996
0.000145838
0.000153144
0.000150204
0.000177229
0.000143303
0.000217526
0.000210944
0.000168222
0.000197571
0.000213627
0.000201158
0.000152872
0.000156442
0.000127948
0.000134718
0.00013943
0.000146137
0.000143892
0.000181143
0.000154358
0.000158277
0.000143794
0.00206096
0.000144867
0.0341448
0.000134556
0.0001601
0.000139583
0.000238794
0.000195851
0.00016561
0.000163338
0.00015103
0.000143759
0.000180851
0.000143262
0.000148108
0.000206658
0.000842399
0.000140214
0.000155346
0.000184951
0.000150951
0.000133479
0.000144426
0.000133469
0.000139093
0.000142099
0.000145103
0.038122
0.000287561
0.000325053
0.000156633
0.000142288
0.000167223
0.000152836
0.00073639
0.000132592
0.0234321
0.000142174
0.000141773
0.0325091
0.000159927
0.000207264
0.000141785
0.000794109
0.000152815
0.000146176
0.000143473
0.0373222
0.000128495
0.00018048
0.00020804
0.000143708
0.000137902
0.000137464
0.000155318
0.000141271
0.00014729
0.000128403
0.0187071
0.000145887
0.000164293
0.0207956
0.00019145
0.000146072
0.000131192
0.00444958
0.000154973
0.000145899
0.0237918
0.0246246
0.00014538
0.000158653
0.00248215
0.000138828
0.000645596
0.000152105
0.000150355
0.000236447
0.000164908
0.000185772
0.000146228
0.000158877
0.000133693
0.000144307
0.00196024
0.000156633
0.000133483
0.000165005
0.000146429
0.0338618
0.000132368
0.0383183
0.000160002
0.0396153
0.000147369
0.000128479
0.000144891
0.00021206
0.000140466
0.000190276
0.00665571
0.000150839
0.000216612
0.000149757
0.000168278
0.000159785
0.000144025
0.000184965
0.000164382
0.000152012
0.000205652
0.00021795
0.000282114
0.00192435
0.000147383
0.000156767
0.000141671
0.000129305
0.000194543
0.000134169
0.000326919
0.000134116
0.000177757
0.000209915
0.000145032
0.0262015
0.0036588
0.000188583
0.000150726
0.000156512
0.000197137
0.0191823
0.000179713
0.00014622
0.0374912
0.000164722
0.000149969
0.000161978
0.000180613
0.000184865
0.000149207
0.000166217
0.000142148
0.000162359
0.000185446
0.00016807
0.000188374
0.000146632
0.000142331
0.000129099
0.000139821
0.00029468
0.000146988
0.0345985
0.00014697
0.00014235
0.000163178
0.000149276
0.0202217
0.00544837
0.000237719
0.000208029
0.000576972
0.000185029
0.000142119
0.000185255
0.000140307
0.000128017
0.0364778
0.0297147
0.000186851
0.000197966
0.00465904
0.000209192
0.0035437
0.000152091
0.000138465
0.000135815
0.0333302
0.000143733
0.000149466
0.000147782
0.000149341
0.00161248
0.0002484
0.000142137
0.000140072
0.000211904
0.000774133
0.000140427
0.000169196
0.000133289
0.000147358
0.00357592
0.000147183
0.000164208
0.000142645
0.000141878
0.000209403
0.000168397
0.000195245
0.0015306
0.039075
0.000168561
0.000152605
0.000161687
0.00014125
0.000148
0.00013337
0.000147513
0.000140736
0.000140794
0.00014576
0.000214965
0.000154627
0.0002082
0.000163219
0.000142414
0.000145784
0.000164096
0.000168299
0.000141842
0.0222179
0.00323136
0.000184989
0.000143271
0.000185148
0.0367003
0.000168575
0.000142125
0.000176658
0.000143974
0.00350332
0.000165024
0.00020961
0.000288055
0.000166746
0.0225833
0.000152076
0.0374602
0.0353956
0.00560911
0.000146172
0.000140111
0.000163703
0.000135157
0.00355741
0.0182251
0.000151536
0.000156303
0.000148245
0.000866383
0.00014986
0.000153098
0.0378102
0.000225116
0.000155714
0.000140228
0.000164488
0.00506528
0.000141803
0.000147622
0.000142267
0.00018871
0.00585562
0.00490368
0.000163506
0.000176485
0.000156781
0.000141089
0.000140842
0.000186922
0.000142468
0.000136257
0.000152563
0.000184725
0.000172958
0.0127018
0.0216206
0.000533683
0.0223001
0.000134413
0.000170583
0.000163706
0.00027789
0.00234185
0.000142617
0.000203778
0.000361757
0.000173178
0.000177212
0.000128106
0.000153363
0.00088554
0.000142435
0.000297187
0.0001362
0.000159741
0.000141945
0.000147064
0.000200678
7.2531e-05
0.00125697
0.000148252
0.0165151
0.000128193
0.0001562
0.000192958
0.000156176
0.00015593
0.000186089
0.000184892
0.00536406
0.000152404
0.000149531
0.000193524
0.000141924
0.00014239
0.00411331
0.000144742
0.0391969
0.000147841
0.0370833
0.00444324
0.00399023
0.000141921
0.000209476
0.0363418
0.000167951
0.00317022
0.000198316
0.00423676
0.00021933
0.000156439
0.000164466
0.00018529
0.000149243
0.000146057
0.000329885
0.000169794
0.000139124
0.000142475
0.00020977
0.00571988
0.000179915
0.000143163
0.000172489
0.000153417
0.0066106
0.000147668
0.000178426
0.000231368
0.000140507
0.000133854
0.000149487
0.00018517
0.0367214
0.000175596
0.0131305
0.000139281
0.000148561
0.0361499
0.000141405
0.000172178
0.000141693
0.000133939
0.000240864
0.00100011
0.000141712
0.000149568
0.000139353
0.00018498
0.000142816
0.000160401
0.000737976
0.000176205
0.000185361
0.0294023
0.000189714
0.000198147
0.0124089
0.00014357
0.0370051
0.000149546
0.000174472
0.000155254
0.000147165
0.000143548
0.000284222
0.000145025
0.000141811
0.000135382
0.0042284
0.000159264
0.000150934
0.000192855
0.000214742
0.000217817
0.0409666
0.0322565
0.000168203
0.000197053
0.000159807
0.0384183
0.000146446
0.000180961
0.00418234
0.000204444
0.00410726
0.00017002
0.000150824
0.0225937
0.000173577
0.000135416
0.022033
0.000188388
0.00022164
0.00564628
0.000188923
0.000135429
0.000151803
0.000173342
0.00014348
0.000183174
0.000199895
0.000134445
0.000152693
0.000137891
0.000203215
0.000281601
0.000150801
0.00110241
0.0382007
0.000155691
0.000159686
0.000143607
0.0330251
0.00283222
0.000321635
0.000210336
0.000183895
0.00359853
0.000141711
0.000203606
0.000152306
0.0397312
0.0379922
0.000137697
0.000172781
0.000281053
0.000211097
0.00014928
0.0240482
0.000163491
0.0164209
0.000170846
0.000151523
0.000231239
0.0168815
0.000188284
0.000142451
0.000172543
0.000158848
0.000175486
0.00015641
0.00213621
0.000142461
0.00014347
0.000156243
0.000265607
0.031313
0.000198776
0.000155038
0.0177256
0.00016856
0.0317556
0.000142214
0.000174949
0.000185144
0.00019173
0.030335
0.000156217
0.00197669
0.000158053
0.00013519
0.000149552
0.000146298
0.000146613
0.00017544
0.000216811
0.00304344
0.000146028
0.00017502
0.00015394
0.000156467
0.000256131
0.000134939
0.0001494
0.00032196
0.00028637
0.000156704
0.00014014
0.000154267
0.000149625
0.000162993
0.000148502
0.00350444
0.0210443
0.00015595
0.000188276
0.000181605
0.0298504
0.0308088
0.000189062
0.000142185
0.00118129
0.000143614
0.000733065
0.000149327
0.000310245
0.000175146
0.0383757
0.000135819
0.000145858
0.000201863
0.000158289
0.000135566
0.000155714
0.000193255
0.000141715
0.000183614
0.0001436
0.00651129
0.000141104
0.000157738
0.000189659
0.000163591
0.000159712
0.000187865
0.000177226
0.000167506
0.000190408
0.000154123
0.0343106
0.0279794
0.00020093
0.000169368
0.0243471
0.000139321
0.000154197
0.000155985
0.00202728
0.000180321
0.000155478
0.000155353
0.000247823
0.0275633
0.000504772
0.0308585
0.000161718
0.000189712
0.0260329
0.000149826
0.000130716
0.00984577
0.00032374
0.000134722
0.000173863
0.000144443
0.000220844
0.00012863
0.000180271
0.0377249
0.000154263
0.000146076
0.000306939
0.0396971
0.00016739
0.000161813
0.000134461
0.000155213
0.000160787
0.000182182
0.000173149
0.00479229
0.000177612
0.000150455
0.00015373
0.000184562
0.00462243
0.0362067
0.000140405
0.00289827
0.0314907
0.000155591
0.000150587
0.000139245
0.000147917
0.0360149
0.000139188
0.000159392
0.000159079
0.000191477
0.0217079
0.00014834
0.000145714
0.00015835
0.0332342
0.000127783
0.000158236
0.000179479
0.000264721
0.000140384
0.0246709
0.000157509
0.00388605
0.000152982
0.000147441
0.000160388
0.000158087
0.0201205
0.000160348
0.0311743
0.00020963
0.000168361
0.000210214
0.0019168
0.000171402
0.000157064
0.000162067
0.000138472
0.000155964
0.000183714
0.000159985
0.000187721
0.00017656
0.00633613
0.000138589
0.0239531
0.000242663
0.000993505
0.00302794
0.000205688
0.000157576
0.00470135
0.000292841
0.000134128
0.000139372
0.000142749
0.000143747
0.000553996
0.000138609
0.000148453
0.0336853
0.000244669
0.0380342
0.000143291
0.000163142
0.000149792
0.000150836
0.000181425
0.000144433
0.000221669
0.000155684
0.00017426
0.000138496
0.000138441
0.000204885
0.000156036
0.000242979
0.00015063
0.000128695
0.0376986
0.000139503
0.000141118
0.0407649
0.000192958
0.000185707
0.000223845
0.000149646
0.000138713
0.000150089
0.000149463
0.000245846
0.000188264
0.00119821
0.000151338
0.000175053
0.000186545
0.000148325
0.000159348
0.0383446
0.000162083
0.000148555
0.000160918
0.000140419
0.000134257
0.00367772
0.000181333
0.000141998
0.000145818
0.000168506
0.000184561
0.000159488
0.0314927
0.000150328
0.000154433
0.000190897
0.00014559
0.000150647
0.000147472
0.000173837
0.000185413
0.000148626
0.000203725
0.00015328
0.0353622
0.000151109
0.00014109
0.000175958
0.000142532
0.000145781
0.000138119
0.00014377
0.000143278
0.0369818
0.000149478
0.000252762
0.000139769
0.000155893
0.000139554
0.000139883
0.000139953
0.000142315
0.000160385
0.00122472
0.000203849
0.000238588
0.000139426
0.00929838
0.000167812
0.000170649
0.000148959
0.000139608
0.000134622
0.000158263
0.000145571
0.000180044
0.000129893
0.000149392
0.000157769
0.0238822
0.000142903
0.000166493
0.000136395
0.000128521
0.000183382
0.0060506
0.0276178
0.0001429
0.000139502
0.000184233
0.000140434
0.0186969
0.000218579
0.000174038
0.0246318
0.000128373
0.000803446
0.000149102
0.000175561
0.000174273
0.000275332
0.000138096
0.000167677
0.0244046
0.000142918
0.000153029
0.000156592
0.00697477
0.000182982
0.000173246
0.00014578
0.000139927
0.000651876
0.000190485
0.00136744
0.000164473
0.000195078
0.000139189
0.000150384
0.000139605
0.000236538
0.000134423
0.000131934
0.000146764
0.000162989
0.000184313
0.000136467
0.000161682
0.000134222
0.000140686
0.000205965
0.000155424
0.000170892
0.000147939
0.000194931
0.000229665
0.000139944
0.0229342
0.000149923
0.000245775
0.000134676
0.0393175
0.000195034
0.000148693
0.000128443
0.000163325
0.000131328
0.000198514
0.00270272
0.000142694
0.000150274
0.0108826
0.00793033
0.000146094
0.027083
0.0217186
0.000220325
0.000142436
0.000261173
0.0197495
0.0391992
0.000147078
0.00674814
0.000129361
0.000144492
0.00014408
0.000141235
0.000155679
0.000138376
0.000160109
0.000200908
0.00556567
0.00636636
0.000685727
0.000150029
0.000176552
0.000179675
0.000138293
0.000139728
0.0310709
0.000276042
0.000144347
0.00538287
0.000148845
0.0330488
0.000165057
0.000138504
0.00560998
0.000131749
0.000156858
0.0279194
0.000184501
0.000140158
0.000148707
0.000137774
0.000154245
0.000147486
0.000141176
0.0335479
0.00737434
0.000160248
0.000195303
0.000148872
0.000147231
0.0329087
0.0354833
0.000148684
0.000194838
0.000172224
0.00375119
0.0123385
0.00014095
0.000141986
0.0266796
0.000175665
0.000145465
0.000172314
0.00814047
0.0237659
0.00635301
0.000157307
0.00014687
0.0013539
0.00014105
0.000159536
0.000165803
0.000171202
0.0256245
0.000141125
0.00014484
0.000139907
0.00014683
0.000193975
0.000141621
0.000140771
0.0355861
0.0180767
0.000183542
0.00018617
0.000153259
0.000154181
0.00349774
0.0263109
0.000154371
0.000165118
0.00015046
0.0395611
0.000188249
0.000179471
0.00016865
0.000168409
0.000140949
0.000145874
0.000141949
0.000144621
0.000142285
0.000187023
0.000160413
0.000155523
0.0276882
0.000192872
0.000166899
0.0352154
0.000145503
0.000564096
0.000188545
0.000202656
0.000152738
0.000362211
0.000260203
0.000134636
0.000179631
0.000144197
0.000140092
0.000182624
0.000140589
0.00313288
0.000150683
0.000151971
0.000148785
0.000169778
0.000150725
0.000142416
0.000138295
0.000140815
0.000150778
0.000172116
0.000520098
0.000139195
0.0318865
0.000175049
0.0298051
0.000151943
0.000160408
0.000857479
0.000138409
0.000139069
0.0346711
0.000138229
0.000168793
0.000148886
0.000313024
0.000217179
0.035636
0.0186267
0.000150556
0.000155853
0.0045031
0.000142616
0.000176007
0.000150498
0.000145244
0.000188275
0.0328066
0.00798922
0.000196723
0.000184338
0.000145091
0.0158056
0.0365578
0.000185508
0.000174863
0.0235001
0.000291398
0.000181652
0.00719059
0.00412968
0.000153186
0.000261951
0.000192311
0.000155794
0.000148765
0.000170767
0.0120951
0.000151532
0.00523756
0.00246492
0.000150191
0.000136948
0.00518627
0.004311
0.000140672
0.000158009
0.000151154
0.000134556
0.0351987
0.00229168
0.000150281
0.000140826
0.000149545
0.000165571
0.000191632
0.000159703
0.000153325
0.0019647
0.000145584
0.000157194
0.000262927
0.00014141
0.000152447
0.000167663
0.000137368
0.000188589
0.0239103
0.000172912
0.00474153
0.000566407
0.000179964
0.00014743
0.000163328
0.000182733
0.000145379
0.0204547
0.038833
0.000186628
0.000140624
0.000179954
0.00336804
0.000179184
0.000192781
0.000129069
0.00442222
0.000148494
0.0321799
0.0275733
0.000148911
0.000147245
0.000138417
0.000164099
0.000152188
0.000152396
0.000141762
0.000137017
0.000196853
0.000136845
0.000162271
0.000206013
0.000195017
0.0311968
0.000149079
0.000288381
0.00016389
0.000154005
0.000200273
0.000141338
0.000160286
0.00015046
0.000138377
0.000142043
0.0293336
0.00112178
0.000141792
0.000150971
0.00184755
0.000218885
0.00290696
0.000156821
0.000135266
0.000159307
0.000218692
0.000319747
0.000138411
0.00386104
0.000154547
0.000140123
0.000138175
0.00519565
0.000138313
0.000149301
0.000153007
0.000157521
0.000190778
0.0155708
0.000168127
0.000141271
0.000185477
0.000146658
0.0357096
0.0002176
0.000141759
0.000138398
0.0010555
0.0205339
0.0353952
0.000195073
0.000245667
0.000188022
0.000166217
0.000141285
0.000138476
0.00595757
0.000161411
0.000162145
0.000218981
0.000186247
0.000144945
0.000169024
0.000145467
0.000193412
0.000138333
0.000134738
0.00013756
0.000177104
0.00014687
0.000147088
0.000198991
0.000182213
0.000154252
0.000338309
0.000147856
0.0407075
0.000167874
0.00014178
0.000164342
0.0384447
0.000218118
0.000149955
0.000151349
0.000185567
0.000151658
0.000148874
0.00116931
0.00019379
0.000137719
0.000138715
0.00110816
0.0198946
0.000137963
0.000154128
0.000183772
0.000150326
0.000134746
0.000220351
0.0400261
0.000146457
0.00022431
0.0307576
0.000193625
0.000129347
0.000185914
0.000156666
0.000139715
0.000157916
0.0202952
0.00015954
0.0350779
0.000142047
0.000138032
0.0413754
0.000142176
0.000144583
0.000159148
0.000193477
0.000219674
0.000155493
0.000145318
0.000136206
0.000138404
0.000199204
0.0381465
0.000171758
0.000163535
0.000169625
0.000144866
0.000179806
0.00292559
0.000179778
0.000128774
0.000207449
0.000533659
0.00138623
0.000152026
0.00017632
0.0390458
0.000139083
0.000129782
0.0238094
0.000141207
0.0272567
0.000145598
0.000312384
0.000159162
0.00018596
0.000157674
0.000188493
0.000139973
0.000139733
0.000173352
0.000138537
0.00471361
0.000152046
0.00013098
0.000142878
0.000318768
0.000152166
0.0286481
0.000139156
0.000202688
0.000137128
0.000217642
0.000194539
0.00018682
0.0171136
0.000233443
0.000148206
0.00016281
0.0287453
0.000139132
0.000163792
0.000151152
0.000145609
0.000141222
0.00392352
0.000591475
0.000171456
0.000139958
0.000146967
0.000179495
0.00236716
0.000143787
0.000151845
0.000138604
0.00016035
0.000144605
0.000175932
0.0217355
0.000129934
0.000153823
0.000254885
0.000138468
0.000150443
0.00372999
0.0364209
0.000152845
0.000137052
0.00389834
0.000159854
0.000157606
0.000146731
0.000354289
0.000160439
0.0246013
0.000171794
0.0350367
0.0211691
0.000216031
0.000158204
0.00236737
0.000213582
0.000141526
0.000141347
0.000201765
0.000138337
0.000176894
0.00675841
0.000154546
0.00354182
0.000141754
0.000640254
0.00187164
0.00389786
0.0265823
0.000151153
0.000147436
0.000151474
0.00018899
0.000142534
0.00014883
0.00461783
0.00367377
0.0308133
0.000174147
0.000184464
0.000157069
0.000134037
0.00390539
0.000145501
0.00386575
0.000146201
0.000137331
0.0422907
0.000142059
0.000160836
0.00695176
0.000141935
0.000153306
0.000152468
0.00049847
0.00366759
0.00014643
0.000164842
0.0389715
0.000145585
0.0182478
0.000155257
0.000139891
0.000250054
0.000150215
0.000166732
0.000145018
0.000146544
0.000141897
0.000187309
0.000217027
0.000191035
0.0001417
0.00574228
0.000137352
0.000134145
0.000237174
0.000148786
0.00021218
0.000148291
0.000141205
0.000144232
0.00021429
0.000138444
0.00407508
0.0355538
0.000139833
0.000145469
0.000153703
0.000164882
0.000200327
0.000178996
0.000151836
0.000151818
0.000140067
0.000156423
0.000170193
0.000149142
0.0111588
0.000332274
0.000149195
0.000175249
0.000147326
0.000150009
0.000150975
0.000150034
0.000149059
0.000149159
0.000145704
0.000133267
0.00411068
0.000145596
0.000190159
0.000141808
0.000151148
0.000217216
0.000176715
0.000620699
0.0085317
0.000168666
0.000145049
0.000145632
0.000159205
0.000153359
0.0169248
0.000311704
0.0375463
0.000159798
0.000146194
0.000151783
0.000146729
0.000396176
0.0267967
0.000219137
0.0377938
0.035921
0.00015072
0.000235001
0.000143621
0.00017192
0.000185219
0.000142573
0.000164037
0.000146026
0.000193971
0.00679977
0.00014478
0.0001466
0.000158745
0.000199731
0.000163559
0.00014356
0.000164803
0.000146551
0.000155594
0.000147467
0.000175966
0.000147197
0.000193174
0.000146773
0.000177305
0.0336763
0.0361924
0.000788447
0.00519504
0.000152231
0.0286478
0.000273924
0.0274358
0.000149267
0.000232916
0.000139828
0.0254958
0.00642956
0.000157182
0.000519269
0.000165935
0.000149715
0.000196999
0.000149355
0.000158608
0.000226705
0.000167559
0.000137524
0.031198
0.000180985
0.000152906
0.000206256
0.0415463
0.000214582
0.000154306
0.000141757
0.000154934
0.000147099
0.000213089
0.00169348
0.000148024
0.000145879
0.00027424
0.0312508
0.000137224
0.000143454
0.000196516
0.000458425
0.000158776
0.000137681
0.000143071
0.000177255
0.000139682
0.000154866
0.000129669
0.000192661
0.0165778
0.0275422
0.000194873
0.00014184
0.000140872
0.0001436
0.000134436
0.000210569
0.000157436
0.000146184
0.00021838
0.000177356
0.000153624
0.000156488
0.000154999
0.000149914
0.000168649
0.0354896
0.000348734
0.0314949
0.0295387
0.000179106
0.00016186
0.000154395
0.000151648
0.000164626
0.000213149
0.000182489
0.000141174
0.000153757
0.000141378
0.000150483
0.000140842
0.000148095
0.000142781
0.00510322
0.000168497
0.000156382
0.000174867
0.00015036
0.000140022
0.000145137
0.000198839
0.000173941
0.000143465
0.00023346
0.000170342
0.00435296
0.000149815
0.000147968
0.000185188
0.000589751
0.000141057
0.000212395
0.000145532
0.0311156
0.000240897
0.000182645
0.00963842
0.00033424
0.000142132
0.000136097
0.000160537
0.00016676
0.000150283
0.0190711
0.000163837
0.000136132
0.00014192
0.000336102
0.000167143
0.0176081
0.000149969
0.000224978
0.000172823
0.0222177
0.00929624
0.000189262
0.000164669
0.000153963
0.00015379
0.000185984
0.000173323
0.00595489
0.0389497
0.000137497
0.000262539
0.00015897
0.000157808
0.000151297
0.00014327
0.000167554
0.000136569
0.000142816
0.000170248
0.000154191
0.000147347
0.00624539
0.000217862
0.000240635
0.000164142
0.000150283
0.00015022
0.000137464
0.000168048
0.000156823
0.0351498
0.000261341
0.000137421
0.000431704
0.000205233
0.0234408
0.00226257
0.000164324
0.00347988
0.000182505
0.00362458
0.000145158
0.000182666
0.000175995
0.000147349
0.000163522
0.00150478
0.000210536
0.000145279
0.000213045
0.000157884
0.000140396
0.00575821
0.039418
0.00675622
0.000258245
0.000348997
0.000172037
0.000134242
0.00014695
0.000134388
0.000188038
0.000140287
0.000161528
0.000201042
0.00100249
0.00123535
0.000217988
0.024065
0.0212054
0.00018385
0.000164009
0.000169103
0.0261608
0.000174319
0.000158161
0.000165666
0.000176456
0.000161199
0.000205365
0.000151696
0.025307
0.000184605
0.0104508
0.000150133
0.0263163
0.0174804
0.000222814
0.000151318
0.000174122
0.0391484
0.000316063
0.000241969
0.0035495
0.00013794
0.00889771
0.01077
0.000170892
0.000146975
0.031252
0.00016854
0.000167082
0.000166879
0.00372969
0.000171869
0.000133127
0.00013286
0.000188577
0.000170747
0.00018753
0.000256287
0.000169007
0.000201238
0.000154521
0.000135814
0.00013724
0.000157594
0.00014557
0.00014543
0.0260883
0.000208538
0.000215738
0.000146583
0.00026278
0.000427175
0.000219457
0.00341042
0.000149966
0.000142572
0.00535689
0.000142098
0.000145008
0.000203924
0.000237711
0.0321931
0.000175606
0.000137161
0.0135714
0.00015617
0.000149006
0.000145157
0.000159675
0.000132343
0.000141117
0.00015683
0.000184184
0.000149249
0.000193455
0.000137771
0.000134801
0.000173957
0.000165025
0.000184744
0.000164806
0.000150176
0.000150495
0.000138704
0.0380619
0.00015615
0.000138087
0.000141372
0.0199246
0.000151178
0.0378953
0.000168565
0.000147774
0.00568815
0.000146841
0.000152186
0.000147308
0.000145034
0.000147174
0.000163032
0.000159762
0.000142588
0.000194837
0.000154543
0.000165876
0.000164378
0.000143448
0.000202057
0.000186977
0.000159771
0.000138883
0.03584
0.000163208
0.000164591
0.000145422
0.000138331
8.70773e-05
0.00181976
0.000278514
0.000602237
0.000169889
0.000157922
0.000143331
0.000147874
0.000185046
0.000138609
0.000138747
0.000135728
0.000163636
0.000138779
0.000163862
0.00343808
0.000166661
0.000138434
0.000216036
0.00016025
0.000138746
0.000141506
0.000170418
0.000140757
0.0273628
0.000146735
0.000139643
0.00015498
0.00019732
0.000157141
0.000152634
0.000155116
0.000200081
0.000150241
0.000156619
0.00018251
0.00831798
0.000159848
0.000184595
0.000156001
0.000149315
0.000144734
0.000150677
0.000176304
0.000163573
0.000149891
0.000141987
0.000165908
0.0287098
0.022043
0.000141024
0.000195243
0.000183408
0.000141141
0.000135515
0.000145011
0.000235971
0.000235865
0.000143975
0.00014136
0.000153472
0.0247875
0.000195085
0.00015826
0.00015096
0.00689875
0.000175042
0.000156774
0.000202733
0.00019877
0.00438862
0.0001469
0.0406354
0.00014747
0.000138567
0.000135454
0.000195288
0.000294261
0.000148961
0.000152655
0.000158218
0.000175277
0.000149885
0.00561892
0.006129
0.000168778
0.000139532
0.000192181
0.000141144
0.000266833
0.000174097
0.0386741
0.000152216
0.000156659
0.000155912
0.0014524
0.000163185
0.000138679
0.000484886
0.00013829
0.000142019
0.000308269
0.000136518
0.000149264
0.000180724
0.00280759
0.00620578
0.000793337
0.000174687
0.000178126
0.000174098
0.000729799
0.000192693
0.000149461
0.000133587
0.0361535
0.000200038
0.0184285
0.000147058
0.000174676
0.000165918
0.000140538
0.000185189
0.0010703
0.000163575
0.000192423
0.00112286
0.000148863
0.000150962
0.000148022
0.000183355
0.000141316
0.0319984
0.000161084
0.000142847
0.000310474
0.0301132
0.000294502
0.000164297
0.000149175
0.000160082
0.000151184
0.000342869
0.000142445
0.000175294
0.000217977
0.000211522
0.000139702
0.000219159
0.000162069
0.000178533
0.00018579
0.000152924
0.000234917
0.000189533
0.000137479
0.000172525
0.000173294
0.000127821
0.000176893
0.000148234
0.00358314
0.000158208
0.000187675
0.0373937
0.000161009
0.00015671
0.00480883
0.000139863
0.00831997
0.000184513
0.00025889
0.000141638
0.000136532
0.000137547
0.000145747
0.000148023
0.000144216
0.000139768
0.000189498
0.000182673
0.000149579
0.000192268
0.000144464
0.000137308
0.000197993
0.000211165
0.000174742
0.000236833
0.000131317
0.000138908
0.000150149
0.000219203
0.0402942
0.000141836
0.000155584
0.000140721
0.0239274
0.000140565
0.000167854
0.000177766
0.000188318
0.000140465
0.000157364
0.000137684
0.00283427
0.000194668
0.000229621
0.000946575
0.0038383
0.000147522
0.00694916
0.000145038
0.000270952
0.000154383
0.00175167
0.000917865
0.000225235
0.000142556
0.000138116
0.00526353
0.00015185
0.000201051
0.000130689
0.00191848
0.00500181
0.000139034
0.000170997
0.000145887
0.0274103
0.00298932
0.00015319
0.0105072
0.000156198
0.031412
0.000159682
0.000201593
0.000956374
0.000183635
0.00018784
0.000149851
0.000164145
0.000150008
0.000140924
0.000148496
0.000158304
0.000175993
0.000204311
0.000150564
0.000195245
0.000138296
0.000151774
0.000149495
0.000162526
0.000141002
0.000149707
0.000144849
0.0218826
0.000186299
0.0103529
0.000137108
0.000584238
0.00013855
0.000132528
0.000141431
0.000173561
0.000188059
0.000255019
0.000138602
0.000142049
0.000158868
0.000143997
0.000159808
0.000139793
0.000194511
0.00319432
0.000173069
0.000173591
0.000732133
0.000200312
0.000210077
0.000296917
0.000182902
0.000139587
0.000128618
0.000225848
0.000140754
0.00470687
0.000163106
0.00041601
0.000149653
0.00435971
0.00556509
0.000148513
0.000163882
0.0268169
0.000148719
0.00519449
0.000182722
0.000154776
0.0354762
0.00013889
0.000142645
0.000134133
0.000385351
0.000183154
0.000145564
0.000147118
0.00267525
0.00859891
0.000147899
0.000202128
0.0240809
0.0167717
0.00238043
0.000141033
0.000165425
0.00571712
0.000159386
0.000239257
0.000184265
0.000158671
0.0149695
0.000188683
0.0385317
0.000144806
0.000217306
0.000139134
0.00475836
0.000148057
0.000138273
0.000201772
0.000166475
0.000168096
0.000138849
0.000242241
0.000175662
0.000339026
0.00014017
0.00014914
0.000275297
0.00019267
0.039134
0.0295474
0.00180591
0.0197421
0.000152757
0.000162047
0.000137934
0.000179405
0.000239918
0.000149739
0.000551008
0.000140143
0.000148049
0.00918604
0.0001352
0.000183486
0.000136013
0.000138211
0.000179762
0.00954998
0.000158998
0.000319768
0.0158169
0.00836106
0.000149322
0.000154112
0.000166843
0.000137516
0.000141768
0.000161164
0.000132907
0.000135725
0.000168009
0.000135219
0.000137897
0.000162009
0.000139384
0.000198551
0.0372679
0.000146305
0.000141599
0.000222378
0.000141901
0.000148388
0.000304835
0.000285462
0.000150891
0.000139635
0.000141849
0.000190877
0.000156622
0.000158885
0.000149408
0.000220177
0.000188865
0.000299294
0.0331943
0.000137955
0.000200999
0.000135474
0.000143117
0.0270037
0.000139494
0.000154665
0.0273683
0.00565071
0.000194238
0.000140983
0.000140966
0.0002309
0.00410108
0.000186958
0.00489562
0.000148566
0.000189696
0.000152015
0.000167558
0.000218358
0.000160217
0.000152679
0.000145263
0.00015243
0.000142506
0.000170439
0.000145052
0.00328371
0.0274415
0.000137912
0.000150163
0.000148902
0.000141706
0.00016566
0.0355447
0.000147729
0.000195709
0.000137725
0.000149578
0.000149058
0.000140973
0.000149382
0.000151879
0.000140545
0.000147426
0.0208731
0.000263175
0.00015053
0.000206984
0.000143283
0.000150318
0.000158192
0.0001348
0.000248134
0.000170582
0.000138535
0.000140767
0.000163649
0.000491324
0.000179573
0.000158351
0.000150012
0.000143545
0.000169675
0.000145585
0.000171574
0.000154567
0.00104794
0.000176985
0.000144612
0.000184716
0.00102324
0.000151891
0.000134228
0.000155023
0.0320125
0.00115371
0.000128713
0.000150022
0.000162379
0.000154867
0.000134063
0.0276914
0.000293595
0.000188315
0.000148082
0.00122173
0.000186625
0.000138725
0.00013489
0.000187007
0.00022147
0.00016199
0.000149717
0.000137032
0.000144448
0.0201644
0.000140435
0.000159952
0.0367948
0.000138029
0.000162818
0.000191671
0.029139
0.000181255
0.000194027
0.000139111
0.00014899
0.000148315
0.000176555
0.000135661
0.000145188
0.0315774
0.000140844
0.000171246
0.000136815
0.00019853
0.000362366
0.000206446
0.00534965
0.0224979
0.000172532
0.000136058
0.000135743
0.000154434
0.00463647
0.000145469
0.00022591
0.000132962
0.000162339
0.0291323
0.000170447
0.000176509
0.000140675
0.000154281
0.000168805
0.000138113
0.000142235
0.000168611
0.000239859
0.00016331
0.000170074
0.00519721
0.000223434
0.000145131
0.00022191
0.0362541
0.00518833
0.000252494
0.000193564
0.000188321
0.000155677
0.00024322
0.0233124
0.000455215
0.0302026
0.000218287
0.000141868
0.000192039
0.000157916
0.000143733
0.000204742
0.000220407
0.000166056
0.000160078
0.000167821
0.000161582
0.000185578
0.000199498
0.000149007
0.00863503
0.0207131
0.000215116
0.000365506
0.0296701
0.000252744
0.000144174
0.000385784
0.00014901
0.00373605
0.000137037
0.000179553
0.000147368
0.000139148
0.000190659
0.000220521
0.0181124
0.00109568
0.000319149
0.000142379
0.000184601
0.000138029
0.00363359
0.00475269
0.000144376
0.000146362
0.000208849