/*--------------------------------*- C++ -*----------------------------------*\
| =========                 |                                                 |
| \\      /  F ield         | OpenFOAM: The Open Source CFD Toolbox           |
|  \\    /   O peration     | Version:  v2012                                 |
|   \\  /    A nd           | Website:  www.openfoam.com                      |
|    \\/     M anipulation  |                                                 |
\*---------------------------------------------------------------------------*/
FoamFile
{
    version     2.0;
    format      ascii;
    class       volScalarField;
    location    "200";
    object      k_0;
}
// * * * * * * * * * * * * * * * * * * * * * * * * * * * * * * * * * * * * * //

dimensions      [0 2 -2 0 0 0 0];


internalField   nonuniform List<scalar> 
27802
(
0.000185755
0.000141373
0.000150744
0.000152374
0.0296752
0.000146015
0.000152993
0.000147827
0.000184083
0.000149528
0.000138625
0.0379597
0.0355633
0.000187348
0.00014136
0.000153009
0.000127772
0.0367119
0.0228371
0.000179491
0.000140302
0.000145791
0.000186573
0.0001958
0.000135592
0.000148263
0.000144762
0.000149439
0.000135556
0.000182321
0.000144712
0.000155489
0.0035053
0.000204378
0.00526679
0.000141977
0.000239367
0.00133547
0.000144668
0.000144288
0.000146889
0.000144308
0.0169395
0.000236023
0.000139831
0.000141224
0.00020883
0.000145966
0.000136962
0.00018042
0.000156008
0.000139855
0.00695644
0.000139761
0.000143172
0.000145838
0.0158299
0.00018556
0.000145846
0.0217929
0.000141963
0.000145706
0.00200005
0.000155006
0.0361651
0.000188391
0.026821
0.00014998
0.032865
0.000155461
0.000139699
0.000201164
0.0162433
0.000200121
0.00589621
0.000156146
0.0013643
0.0247957
0.000178085
0.000152816
0.0211333
0.000171457
0.000137199
0.00018532
0.000144755
0.000152937
0.000135414
0.000143066
0.000201122
0.00016574
0.0297352
0.000145537
0.000241967
0.000152787
0.000138634
0.000145875
0.000159471
0.0305741
0.000146855
0.00020665
3.3245e-05
0.000147212
0.000152489
0.000155084
0.000210469
0.000145521
0.000291399
0.000185151
0.000142261
0.000168372
0.00015273
0.000141273
0.00014726
0.000297959
0.000135518
0.000209341
0.00015847
0.000139238
0.000156525
0.000179034
0.0381204
0.0311854
0.000167484
0.00013554
0.000143587
0.000182295
0.000214418
0.000799988
0.0368079
0.0373783
0.000152516
0.000167155
0.000147854
0.000149065
0.000137225
0.000149186
0.000148929
0.000138183
0.000179641
0.000190579
0.000149602
0.000145076
0.000181913
0.000135188
0.000135492
0.000151229
0.0001489
0.000150498
0.000140121
0.000147294
0.000138996
0.000145838
0.000153144
0.000150205
0.000177201
0.000143303
0.000217303
0.000210917
0.000168222
0.000197586
0.000213646
0.000201131
0.000152872
0.000156442
0.000127948
0.000134718
0.00013943
0.000146137
0.000143893
0.00018111
0.000154358
0.000158279
0.000143794
0.00212842
0.000144867
0.0341652
0.000134557
0.000160099
0.000139582
0.00023888
0.000195831
0.00016561
0.000163337
0.00015103
0.000143759
0.000180854
0.000143263
0.000148108
0.000206684
0.000833165
0.000140214
0.000155345
0.000184957
0.000150951
0.000133479
0.000144427
0.000133468
0.000139092
0.000142099
0.000145103
0.0381509
0.00028761
0.000325155
0.000156633
0.000142288
0.000167223
0.000152836
0.000735029
0.000132592
0.0234317
0.000142174
0.000141508
0.0325318
0.000159926
0.000207288
0.000141785
0.000789327
0.000152816
0.000146176
0.000143474
0.0373317
0.000128495
0.000180483
0.000208065
0.000143708
0.000137902
0.000137464
0.000155318
0.000141271
0.00014729
0.000128403
0.0187059
0.000145887
0.000164292
0.0206502
0.000191458
0.000146072
0.000131308
0.00448863
0.000155139
0.000145898
0.0239324
0.0247888
0.00014538
0.000158653
0.00250554
0.000138828
0.000641366
0.000152104
0.000150358
0.000236529
0.000164907
0.000185778
0.000146228
0.000158877
0.000133693
0.000144306
0.00197932
0.000156633
0.000133482
0.000165004
0.000146429
0.0338717
0.000132368
0.0383451
0.000160002
0.0396407
0.000147369
0.000128479
0.000144891
0.000212033
0.000140466
0.000190281
0.00666929
0.000150839
0.000216574
0.000149757
0.000168278
0.000159785
0.000144024
0.000184579
0.000164382
0.00015201
0.000205723
0.000217948
0.00028227
0.00193903
0.000147383
0.000156767
0.000141671
0.000129305
0.000194561
0.000134169
0.000327696
0.000134116
0.000177769
0.000209912
0.000145031
0.0262017
0.00366153
0.000188579
0.000150726
0.000156515
0.000197153
0.0190407
0.000179737
0.00014622
0.0375188
0.000164726
0.000149968
0.000161979
0.000180617
0.000184866
0.000149208
0.000166244
0.000142148
0.000162358
0.000185451
0.00016807
0.000188374
0.000146632
0.000142331
0.000129099
0.000139822
0.000292627
0.000146988
0.0346089
0.000146969
0.00014235
0.000163178
0.000149277
0.0201985
0.00544262
0.000237594
0.000208052
0.000593682
0.000185031
0.000142119
0.000185248
0.000140307
0.000128017
0.036498
0.0298785
0.000186773
0.000197952
0.00455523
0.000209175
0.00354541
0.00015209
0.000137925
0.000135815
0.0333398
0.000143733
0.000149466
0.000147782
0.000149343
0.00163553
0.000247048
0.000142137
0.000140073
0.000211925
0.000758524
0.000140428
0.000169193
0.000133289
0.000147358
0.00357802
0.000147183
0.000164208
0.000142644
0.000141878
0.000209379
0.000168397
0.000195226
0.00156207
0.0391019
0.000168565
0.000152611
0.000161691
0.00014125
0.000148
0.00013337
0.000147514
0.000140737
0.000140794
0.00014576
0.00021494
0.000154615
0.000208336
0.000163225
0.000142414
0.000145784
0.000164099
0.000168299
0.000141842
0.0221965
0.00315835
0.000184982
0.000143271
0.000185154
0.0367193
0.000168575
0.000142125
0.000176646
0.000143974
0.00350517
0.000165025
0.000209598
0.000288306
0.000166742
0.0225839
0.000152076
0.0374663
0.0354045
0.00559741
0.000146172
0.000140111
0.000163703
0.000135157
0.00356173
0.0182371
0.000151534
0.000156291
0.000148245
0.000863587
0.00014986
0.000153107
0.0378215
0.000225241
0.000155714
0.000140228
0.000164488
0.00505852
0.000141803
0.000147622
0.000142267
0.000188714
0.0058558
0.00488515
0.000163505
0.000176487
0.000156767
0.000141089
0.000140842
0.00018693
0.000142468
0.000136257
0.000152571
0.000184725
0.000172946
0.0129025
0.021623
0.000529117
0.0223077
0.000134413
0.000170583
0.000163706
0.000273874
0.00240085
0.000142617
0.000203855
0.000360738
0.000173189
0.000177236
0.000128106
0.000153363
0.0008808
0.000142435
0.00029743
0.0001362
0.000159741
0.000141945
0.000147064
0.00020069
7.15732e-05
0.00122897
0.000148252
0.0165186
0.000128193
0.000156201
0.000192943
0.000156176
0.000155929
0.000186095
0.000184892
0.00537122
0.000152401
0.000149531
0.000193508
0.000141924
0.00014239
0.00410901
0.000144742
0.0392215
0.000147841
0.0371047
0.00444184
0.00398806
0.000141921
0.000209379
0.0363515
0.000167951
0.00309882
0.00019833
0.00423786
0.000219304
0.000156439
0.000164466
0.000185292
0.000149242
0.000146057
0.000330443
0.000169787
0.000139124
0.000142475
0.000209759
0.00571694
0.000179939
0.000143163
0.000172477
0.000153417
0.00661118
0.000147668
0.000178434
0.000231261
0.000140507
0.000133854
0.000149487
0.000185787
0.0367425
0.000175577
0.013008
0.000139281
0.000148562
0.0361736
0.000141405
0.000172173
0.000141693
0.000133938
0.000240712
0.000991622
0.000141712
0.000149569
0.000139353
0.000184982
0.000142816
0.000160401
0.000729646
0.000176207
0.000185365
0.0293949
0.000189716
0.000198357
0.0123743
0.00014357
0.0370248
0.000149546
0.00017449
0.000155343
0.000147165
0.000143548
0.00028471
0.000145026
0.000141811
0.000135381
0.00422536
0.000159264
0.000150934
0.000192881
0.000214718
0.000217788
0.0409762
0.0322498
0.000168203
0.000197031
0.000159807
0.0384465
0.000146446
0.000180965
0.00418021
0.000204467
0.00413534
0.000170052
0.000150824
0.0226017
0.000173575
0.000135416
0.0220421
0.00018838
0.000221657
0.00566844
0.000188927
0.000135429
0.000151801
0.00017334
0.00014348
0.000183165
0.000199912
0.000134444
0.000152691
0.00013789
0.00020321
0.000281187
0.000150801
0.00108781
0.0382073
0.00015569
0.000159686
0.000143606
0.0330337
0.00276946
0.000320686
0.000210214
0.000183872
0.00359292
0.000141711
0.000203632
0.000152305
0.0397518
0.0380106
0.000137696
0.00017279
0.000281056
0.000211071
0.00014928
0.0241785
0.00016349
0.0163844
0.000170877
0.000151521
0.000231282
0.0168647
0.000188275
0.000142451
0.000172544
0.00015885
0.000175487
0.00015641
0.00215918
0.000142461
0.00014347
0.000156243
0.000265682
0.0313527
0.000198758
0.000155038
0.0177914
0.000168557
0.0317644
0.000142214
0.00017518
0.000185147
0.000191741
0.0303197
0.000156228
0.00200308
0.000158053
0.00013519
0.000149548
0.000146298
0.000146614
0.000175463
0.000216782
0.00304687
0.000146029
0.000175005
0.000153941
0.000156467
0.000256325
0.00013494
0.000149401
0.000321988
0.000289876
0.000156704
0.00014014
0.000154267
0.000149625
0.000162999
0.000148499
0.00352954
0.0210871
0.000155949
0.000188284
0.000181589
0.0298407
0.0308172
0.000189067
0.000142185
0.00117858
0.000143613
0.000729282
0.000149328
0.000308852
0.000175148
0.0383876
0.000135819
0.000145858
0.000201861
0.000158289
0.000135566
0.000155725
0.00019327
0.000141715
0.000183641
0.0001436
0.00651822
0.000141103
0.00015774
0.000189662
0.000163589
0.000159696
0.000187838
0.000177209
0.000167505
0.000190407
0.000154113
0.034347
0.027973
0.000200945
0.000169363
0.0243447
0.000139321
0.000154198
0.000155985
0.00205001
0.000180295
0.000155478
0.000155341
0.00024757
0.0276064
0.00050004
0.030878
0.000161717
0.000189711
0.0261724
0.000149826
0.000131568
0.00973781
0.0003245
0.000134722
0.000173878
0.000144443
0.000220833
0.00012863
0.000180246
0.0377432
0.000154263
0.000146076
0.000305736
0.0397103
0.00016739
0.000161835
0.000134461
0.000155213
0.000160791
0.000182186
0.000173147
0.00478049
0.000177598
0.000150457
0.000153731
0.000184554
0.00462451
0.036192
0.000140405
0.00292155
0.0314992
0.000155579
0.000150587
0.000139245
0.000147917
0.0360189
0.000139188
0.000159375
0.000159079
0.000185674
0.0217136
0.00014834
0.000145714
0.00015835
0.0332372
0.000127783
0.000158236
0.000179502
0.000264529
0.000140384
0.0246718
0.00015751
0.00388944
0.000152982
0.000147441
0.000160388
0.000158101
0.0201986
0.00016035
0.0311749
0.000209651
0.00016836
0.000210237
0.00195732
0.00017141
0.000157076
0.000162088
0.000138471
0.000155971
0.000183711
0.000159984
0.000187729
0.000176424
0.00631499
0.000138588
0.0242362
0.000242754
0.00100302
0.00302822
0.000205706
0.000157576
0.00469466
0.000292524
0.000134128
0.000139372
0.000142749
0.000143746
0.000549085
0.000138609
0.000148453
0.033722
0.000244596
0.0380601
0.000143291
0.000163142
0.000149792
0.000150834
0.000181405
0.000144433
0.000221682
0.000155684
0.000174279
0.000138497
0.000138442
0.000204893
0.000156036
0.00024285
0.000150633
0.000128695
0.0375881
0.000139503
0.000141118
0.0407746
0.000192972
0.000185712
0.000224019
0.000149646
0.000138713
0.000150086
0.000149463
0.00024594
0.00018826
0.00119028
0.000151345
0.000175054
0.000186521
0.000148325
0.000159352
0.0383703
0.000162083
0.000148555
0.000160922
0.00014042
0.000134257
0.00371628
0.000181337
0.000141998
0.000145818
0.0001685
0.000184556
0.000159488
0.0314919
0.000150328
0.000154433
0.000190592
0.00014559
0.000150647
0.000147472
0.000173836
0.000185415
0.000148626
0.000203736
0.000153286
0.0353224
0.000151107
0.00014109
0.000175283
0.000142532
0.000145781
0.000138119
0.00014377
0.000143278
0.0369914
0.000149479
0.000252947
0.000139769
0.000155903
0.000139554
0.000139884
0.000139954
0.000142315
0.000160387
0.00125699
0.000203938
0.000238856
0.000139426
0.00926601
0.000167812
0.000170644
0.000148959
0.000139608
0.000134621
0.000158265
0.000145571
0.000179889
0.000129893
0.000149388
0.00015777
0.0238833
0.000142903
0.000166489
0.000136395
0.000128521
0.00018341
0.00604926
0.027597
0.0001429
0.000139501
0.000184228
0.000140434
0.0186852
0.000218609
0.000174037
0.0246295
0.000128373
0.000818057
0.000149102
0.000175562
0.000174273
0.000275365
0.000138096
0.000167677
0.0244051
0.000142918
0.000153035
0.000156592
0.00697015
0.000183009
0.000173245
0.00014578
0.000139927
0.000650432
0.000190514
0.00138896
0.000164473
0.000195109
0.000139189
0.000150379
0.000139605
0.000236604
0.000134423
0.000131934
0.000146764
0.000162989
0.000184306
0.000136467
0.000161682
0.000134222
0.000140685
0.000205965
0.000155435
0.000170887
0.000147939
0.000194938
0.000229759
0.000139943
0.0229348
0.000149923
0.000246091
0.000134676
0.03934
0.000195105
0.000148691
0.000128443
0.000163324
0.000131328
0.000198561
0.00272927
0.000142694
0.000150274
0.0109301
0.00794803
0.000146094
0.0270788
0.0217246
0.000220355
0.000142436
0.000261414
0.0197496
0.0392202
0.000147078
0.00673096
0.000129361
0.000144494
0.000144081
0.000141235
0.000155679
0.000138375
0.000160108
0.000200882
0.00557457
0.00636896
0.000685874
0.000150029
0.000176527
0.000179674
0.000138293
0.000139728
0.0310795
0.000276544
0.000144347
0.00547782
0.000148845
0.0330212
0.000164524
0.000138504
0.00560533
0.000131749
0.000156858
0.0278982
0.00018448
0.000140158
0.000148707
0.000137774
0.000154245
0.000147486
0.000141176
0.0337652
0.00728826
0.000160248
0.00019531
0.000148872
0.000147231
0.0329052
0.0354938
0.000148682
0.000194837
0.000172239
0.00375989
0.0124325
0.00014095
0.000141986
0.0267229
0.000175688
0.000145465
0.000172315
0.00820271
0.0237722
0.0063691
0.000157296
0.000146871
0.00135568
0.00014105
0.000159536
0.000165811
0.000171203
0.0256228
0.000141126
0.000144868
0.000139907
0.00014683
0.000193975
0.000141621
0.000140771
0.0356194
0.018083
0.000183568
0.000186176
0.000153226
0.000154149
0.00353523
0.0263126
0.000154371
0.000165116
0.00015046
0.0395756
0.000188241
0.000179471
0.00016865
0.000168409
0.00014095
0.000145874
0.000141949
0.000144621
0.000142285
0.00018702
0.000160412
0.000155533
0.0276956
0.00019286
0.000166897
0.0352267
0.000145503
0.00055548
0.000188551
0.000204587
0.000152738
0.000359936
0.000259965
0.000134636
0.000179651
0.000144197
0.000140092
0.000182629
0.000140591
0.00313228
0.000150683
0.000151966
0.000148785
0.000169773
0.000150724
0.000142416
0.000138295
0.000140815
0.000150778
0.000172136
0.000515493
0.000139195
0.0318956
0.000175002
0.0297882
0.000151943
0.000160408
0.000852893
0.000138409
0.000139069
0.0346778
0.000138229
0.000168788
0.000148887
0.000311856
0.000217144
0.0356478
0.0186403
0.000150556
0.000155853
0.00440314
0.000142616
0.000176023
0.000150498
0.000145243
0.000188266
0.0330128
0.00803758
0.000196752
0.000184334
0.00014512
0.0161107
0.0365667
0.000185512
0.000174864
0.0235079
0.00029172
0.000181807
0.00721224
0.00412556
0.000153186
0.000261732
0.000192318
0.000155794
0.000148765
0.000170765
0.0121964
0.00015153
0.00523309
0.0024654
0.000150192
0.000136949
0.00520441
0.00430727
0.000140672
0.000157998
0.000151154
0.000134677
0.0352092
0.00228974
0.000150281
0.000140826
0.000149545
0.00016558
0.000191643
0.000159703
0.000153332
0.00213005
0.000145583
0.000157185
0.000263201
0.000141408
0.000152448
0.000167662
0.000137368
0.000188588
0.0239167
0.000172919
0.00468843
0.000565864
0.000179945
0.00014743
0.000163328
0.000182718
0.00014538
0.0204584
0.0388432
0.000186635
0.000140624
0.000179576
0.00338507
0.000179181
0.000192789
0.000129069
0.00444747
0.000148494
0.032217
0.0275693
0.00014891
0.000147247
0.000138417
0.000164099
0.000152188
0.000152396
0.000141762
0.000137017
0.000196824
0.000136845
0.00016227
0.000206035
0.000195034
0.0312055
0.000149078
0.000288552
0.00016389
0.000154004
0.000200286
0.000141338
0.000160286
0.000150461
0.000138377
0.000142043
0.0293417
0.00112158
0.000141792
0.000150968
0.0018417
0.000219077
0.00295025
0.000156823
0.000135266
0.000159306
0.000218658
0.000321381
0.000138411
0.00387087
0.000154547
0.000140124
0.000138174
0.00517619
0.000138313
0.000149301
0.000153007
0.000157521
0.000190967
0.0155322
0.000168127
0.000141271
0.000185483
0.000146658
0.0357214
0.000217567
0.000141759
0.000138398
0.00104408
0.0205406
0.0354027
0.000195054
0.000245606
0.000188017
0.000166214
0.000141285
0.000138475
0.00596169
0.000161415
0.000162145
0.000218959
0.000186253
0.000144945
0.000169026
0.000145467
0.000193409
0.000138333
0.000134738
0.00013756
0.000177089
0.000146872
0.000147088
0.000198978
0.000182191
0.000154253
0.000338343
0.000147856
0.0406618
0.000167872
0.00014178
0.000164344
0.0384727
0.000218084
0.000149955
0.00015135
0.000185571
0.000151653
0.000148874
0.00116632
0.000193782
0.00013772
0.000138715
0.00110426
0.0198924
0.000137964
0.000154128
0.000183753
0.000150327
0.000134746
0.000220338
0.0399604
0.000146458
0.000224479
0.0307901
0.000193621
0.000129347
0.000185871
0.000156665
0.000139715
0.000157884
0.0202921
0.00015954
0.0350905
0.000142047
0.000138032
0.0415052
0.000142176
0.000144582
0.000159112
0.000193476
0.000219524
0.000155493
0.000145317
0.000136206
0.000138404
0.000199226
0.0381753
0.000171765
0.000163535
0.000169621
0.000144866
0.000179803
0.00295084
0.000179775
0.000128774
0.000207536
0.000545877
0.00137786
0.000152023
0.000176358
0.0390682
0.000139085
0.000129782
0.023876
0.000141207
0.0272637
0.000145597
0.000313342
0.000159162
0.000185965
0.000157674
0.000188484
0.000139973
0.000139733
0.000173352
0.000138537
0.00473414
0.000152046
0.00013098
0.000142878
0.000319418
0.000152685
0.0286549
0.000139157
0.000203162
0.000137128
0.000217605
0.000194521
0.000186778
0.0171189
0.000233334
0.000148205
0.00016281
0.0287666
0.000139131
0.000163794
0.000151147
0.000145609
0.000141222
0.00393407
0.000602235
0.000171467
0.000139958
0.000146966
0.000179492
0.00236032
0.000143788
0.000151845
0.000138604
0.00016035
0.000144605
0.000175933
0.0217396
0.000129934
0.000153823
0.000254981
0.000138468
0.000150442
0.00374024
0.0364325
0.000152845
0.000137052
0.00389474
0.000159838
0.000157606
0.000146732
0.000354079
0.000160439
0.0246064
0.000171791
0.0350563
0.0211643
0.000216053
0.00015819
0.00235262
0.000213545
0.000141526
0.000141347
0.000201737
0.000138337
0.000176912
0.0068422
0.000154547
0.00351343
0.000141755
0.000639174
0.00187302
0.00393477
0.0265587
0.000151154
0.000147435
0.000151473
0.000188997
0.000142534
0.00014883
0.00461636
0.00371803
0.0308122
0.00017416
0.000184485
0.000157071
0.000134037
0.00381959
0.000145501
0.00384506
0.000146201
0.000137331
0.0424136
0.00014206
0.000160836
0.00698325
0.000141935
0.000153304
0.000152474
0.000496454
0.00370532
0.00014643
0.00016484
0.038983
0.000145585
0.0182477
0.000155257
0.000139891
0.00024926
0.000150227
0.000166754
0.000145018
0.000146544
0.000141897
0.000187313
0.000216995
0.000190984
0.000141701
0.00572174
0.000137352
0.000134144
0.00023725
0.00014879
0.000212198
0.000148277
0.000141205
0.000144232
0.000214263
0.000138443
0.00408384
0.0355657
0.000139833
0.000145469
0.0001537
0.000164839
0.000200302
0.00017898
0.000151837
0.000151817
0.000140067
0.000156533
0.000170186
0.000149129
0.0111276
0.000332867
0.000149195
0.000175245
0.000147327
0.000150009
0.000150975
0.000150034
0.000149059
0.000149159
0.000145704
0.000133267
0.00411959
0.000145595
0.000190151
0.000141808
0.000151148
0.000216895
0.000176711
0.000617684
0.00855298
0.000168665
0.000145049
0.000145632
0.000159205
0.000153359
0.0169434
0.000311213
0.0374465
0.000159782
0.000146194
0.000151783
0.000146729
0.000391931
0.0268367
0.000219103
0.0379764
0.0359546
0.00015072
0.000234778
0.000143622
0.000171915
0.000185171
0.000142573
0.000164044
0.000146027
0.000193963
0.00680574
0.000144781
0.0001466
0.000158731
0.000199715
0.000163559
0.00014356
0.000164775
0.000146551
0.000155595
0.000147468
0.000175892
0.000147197
0.000193173
0.000146773
0.000177289
0.0337037
0.036204
0.000789931
0.00529424
0.000152228
0.0286291
0.000273876
0.027438
0.000149267
0.000232954
0.000139829
0.0254733
0.00643971
0.000157182
0.00052106
0.000165904
0.000149715
0.000196978
0.000149355
0.000158611
0.00022583
0.000167555
0.000137524
0.0311954
0.000180989
0.000152907
0.00020625
0.041557
0.000214554
0.000154306
0.000141757
0.000154934
0.000147099
0.000213104
0.00165523
0.000148024
0.000145879
0.000274596
0.0312739
0.000137224
0.000143454
0.000196496
0.000459418
0.000158776
0.000137681
0.000143071
0.000177238
0.000139682
0.000154866
0.000129669
0.000192646
0.016539
0.0275465
0.000194855
0.00014184
0.000140872
0.0001436
0.000134436
0.000210542
0.000157421
0.000146184
0.000218344
0.000177331
0.000153624
0.000156488
0.000154998
0.000149914
0.00016865
0.0355013
0.000349678
0.031503
0.0295416
0.000179127
0.00016186
0.000154395
0.000151647
0.000164624
0.000213124
0.000182455
0.000141174
0.000153757
0.000141378
0.000150482
0.000140842
0.000148095
0.000142781
0.00509167
0.000168494
0.000156382
0.000174867
0.00015036
0.000140022
0.000145137
0.000198855
0.00017394
0.000143465
0.000233514
0.000170285
0.00435184
0.000149816
0.000147969
0.000185186
0.000586798
0.000141057
0.000212221
0.000145531
0.0311539
0.000240994
0.000182647
0.00969074
0.000334498
0.000142132
0.000136097
0.000160536
0.000166758
0.000150283
0.0190381
0.000163837
0.000136132
0.00014192
0.000335821
0.000167153
0.0176168
0.000149973
0.000225031
0.000172822
0.0222275
0.00926293
0.000188938
0.000164667
0.000153963
0.00015379
0.000185991
0.000173323
0.00595209
0.0388647
0.000137497
0.000261597
0.000158973
0.000157792
0.000151297
0.00014327
0.000167579
0.000136569
0.000142816
0.000170248
0.000154191
0.000147346
0.00626767
0.000217711
0.000241128
0.000164141
0.000150283
0.000150225
0.000137464
0.000168048
0.000156823
0.035161
0.000261323
0.000137421
0.000436007
0.000205735
0.0234314
0.00225516
0.000164323
0.0034773
0.000182527
0.00361549
0.000145158
0.000182634
0.000176003
0.000147349
0.000163522
0.00151698
0.000210376
0.000145279
0.000213009
0.000157886
0.000140396
0.00589331
0.0394314
0.00669145
0.000258373
0.000349646
0.000172036
0.000134242
0.00014695
0.000134388
0.000188067
0.000140286
0.000161528
0.00020102
0.00099895
0.00122907
0.000217955
0.0240698
0.0212075
0.000183849
0.000164009
0.000169105
0.0261474
0.00017432
0.000158161
0.000165629
0.000176477
0.000161199
0.000205243
0.000151701
0.0252993
0.000184603
0.0104138
0.000150132
0.0263072
0.0174436
0.000224739
0.000151321
0.000174109
0.039162
0.000313665
0.00024185
0.00349873
0.000137941
0.00885909
0.0105798
0.000170888
0.000146975
0.0312451
0.00016854
0.000167079
0.000166889
0.00372406
0.000171869
0.000133127
0.00013286
0.000188567
0.000170742
0.000187536
0.000255641
0.000169002
0.000201263
0.000154529
0.000135814
0.00013724
0.000154688
0.00014557
0.00014543
0.0261297
0.00020851
0.000218546
0.000146583
0.000262268
0.000424661
0.000219422
0.00340544
0.000149966
0.000142572
0.00537429
0.000142098
0.000145008
0.000203841
0.000237679
0.0322322
0.000175608
0.000137161
0.013544
0.00015617
0.000149006
0.000145157
0.000159675
0.000132343
0.000141117
0.00015683
0.00018418
0.000149248
0.00019347
0.000137771
0.000134802
0.000173956
0.000165024
0.00018475
0.000164799
0.000150176
0.000150495
0.000138703
0.0380729
0.000156149
0.000138087
0.000141372
0.0199277
0.000151178
0.0379069
0.000168558
0.000147775
0.00566003
0.000146841
0.000152186
0.000147308
0.000145034
0.000147174
0.000163032
0.000159765
0.000142588
0.000194878
0.000154532
0.00016585
0.000164355
0.000143448
0.000202046
0.000186983
0.000159753
0.000138883
0.0358511
0.000163196
0.000164589
0.000145422
0.000138331
8.69051e-05
0.00184178
0.00028013
0.000600552
0.000169827
0.000157913
0.000143331
0.000147874
0.000185052
0.000138609
0.000138747
0.000135728
0.000163636
0.000138779
0.000163862
0.00343529
0.000166658
0.000138434
0.000215997
0.000160269
0.000138746
0.000141506
0.000170418
0.000140757
0.0273632
0.000146735
0.000139643
0.00015498
0.000197349
0.000157142
0.000152634
0.000155116
0.000200104
0.000150241
0.000156618
0.000182537
0.00838011
0.000159848
0.000184171
0.000156001
0.000149317
0.000144734
0.000150677
0.000176301
0.000163572
0.000149892
0.000141988
0.000165907
0.0287136
0.0220543
0.000141024
0.00019526
0.000183462
0.00014114
0.000135515
0.000145011
0.000235934
0.000238438
0.000143975
0.00014136
0.000153472
0.0247948
0.000195067
0.000158259
0.00015096
0.00689962
0.000175039
0.000156774
0.000202751
0.000198707
0.00439001
0.0001469
0.0408078
0.00014747
0.000138568
0.000135454
0.000195269
0.000298243
0.000148961
0.000152655
0.000158221
0.000175316
0.000149884
0.00565367
0.00613863
0.000168771
0.000139532
0.000192143
0.000141144
0.000266703
0.000174094
0.0386997
0.000152216
0.000156659
0.000155912
0.00142033
0.000163154
0.000138679
0.000483942
0.000138289
0.000142018
0.000309047
0.000136518
0.000149251
0.000180559
0.00280421
0.00620517
0.000797317
0.000174689
0.000176879
0.000174066
0.000715785
0.000192707
0.000149442
0.000133587
0.0361864
0.000200017
0.018434
0.000147059
0.000174677
0.000165918
0.000140537
0.000185217
0.00106618
0.000163575
0.000192422
0.00111853
0.000148865
0.000150962
0.000148022
0.000183376
0.000141316
0.0320034
0.000161084
0.000142847
0.000311238
0.0301215
0.00029411
0.000164296
0.000149176
0.000160082
0.000151184
0.000340926
0.000142445
0.000175295
0.000218
0.000211492
0.000139702
0.000219128
0.000162075
0.000178536
0.000185794
0.000152924
0.000234996
0.000189521
0.000137479
0.000172526
0.000173292
0.000127821
0.000176844
0.000148234
0.00359032
0.000158335
0.000187677
0.0375138
0.000161014
0.000156696
0.00482864
0.00013986
0.0083767
0.000184512
0.000258825
0.000141638
0.000136532
0.000137547
0.000145747
0.000148023
0.000144216
0.000139768
0.000189507
0.0001827
0.000149578
0.000192254
0.000144464
0.000137308
0.000197989
0.000211145
0.000174743
0.000236984
0.000131316
0.000138908
0.000150149
0.000218965
0.0403077
0.000141836
0.000155584
0.000140721
0.0239346
0.000140564
0.000167848
0.000177791
0.000188317
0.000140465
0.000157364
0.000137684
0.00283401
0.000194684
0.000229323
0.000955271
0.00383878
0.000147522
0.00702162
0.000145038
0.000270689
0.000154383
0.00171224
0.000915859
0.000225287
0.000142557
0.000138117
0.00527729
0.00015185
0.000201025
0.000130689
0.00190568
0.00498812
0.000139034
0.000171017
0.000145887
0.0274154
0.00298852
0.000153191
0.0104918
0.000156198
0.0314196
0.000159683
0.000201594
0.000960383
0.000183599
0.000187848
0.000149851
0.000164101
0.000150008
0.000140924
0.000148496
0.000158307
0.000175994
0.000204326
0.000150564
0.000195227
0.000138296
0.000151774
0.000149496
0.000162525
0.000141002
0.000149707
0.000144849
0.0219106
0.000186305
0.010392
0.000137108
0.000582886
0.000138549
0.000132528
0.00014143
0.000173562
0.000188068
0.000255537
0.0001386
0.000142049
0.000158868
0.000143997
0.000159807
0.000139793
0.0001945
0.00319221
0.000173069
0.000173639
0.000728943
0.000200304
0.000210043
0.000298042
0.000182929
0.000139587
0.000128617
0.000225938
0.000140754
0.00475576
0.000163106
0.000412386
0.000149653
0.00436329
0.00555445
0.000148513
0.000163905
0.0267932
0.000148718
0.00518513
0.000182748
0.000154776
0.0353359
0.00013889
0.000142645
0.000134133
0.000384304
0.000183157
0.000145564
0.000147118
0.00267554
0.00864382
0.000147899
0.000202152
0.0240888
0.016776
0.00237526
0.000141033
0.000165435
0.00573337
0.000159386
0.000239264
0.000184259
0.00015867
0.0149612
0.000188672
0.0387178
0.000144805
0.000217285
0.000139133
0.00475482
0.000148057
0.000138273
0.000201794
0.000166475
0.000168092
0.000138851
0.000242334
0.000175663
0.000342756
0.00014017
0.00014914
0.000274983
0.000192594
0.039145
0.0295887
0.00179924
0.0197446
0.000152763
0.000162047
0.000137934
0.000179401
0.000239832
0.000149739
0.000541958
0.000140143
0.000148048
0.0092202
0.0001352
0.000183489
0.000136013
0.000138212
0.000179759
0.00960482
0.000159015
0.000319323
0.0156253
0.00840651
0.000149322
0.000154113
0.000166842
0.000137516
0.000141768
0.000161169
0.000132907
0.000135725
0.000167972
0.000135218
0.000137896
0.000162009
0.000139384
0.000198545
0.0372976
0.000146305
0.000141601
0.000222451
0.000141901
0.000148388
0.000307186
0.00028461
0.000150897
0.000139635
0.00014185
0.000190889
0.000156622
0.000158872
0.000149408
0.000220242
0.000188872
0.000299239
0.0332042
0.000137955
0.000201002
0.000135474
0.000143118
0.026993
0.000139494
0.000154665
0.0273725
0.00570377
0.000194255
0.000140982
0.000140967
0.000230993
0.00409702
0.000186989
0.00489075
0.000148566
0.000189603
0.000152
0.000167555
0.000218326
0.000160216
0.000152679
0.000145265
0.00015243
0.000142506
0.000170435
0.000145061
0.00339394
0.0274423
0.000137912
0.000150161
0.000148902
0.000141708
0.00016567
0.0355557
0.000147729
0.000195648
0.000137725
0.000149606
0.000149058
0.000140973
0.000149382
0.000151877
0.000140547
0.000147426
0.0208792
0.00026314
0.000150529
0.000206917
0.000143285
0.000150318
0.000158192
0.0001348
0.000248343
0.000170598
0.000138535
0.000140767
0.000163713
0.000494259
0.000179548
0.000158353
0.000150012
0.000143545
0.000169675
0.000145588
0.000171575
0.000154565
0.0010421
0.000176901
0.000144612
0.0001847
0.00101163
0.000151895
0.000134228
0.000155024
0.0320218
0.00115195
0.000128713
0.000150049
0.000162379
0.000154867
0.000134063
0.027699
0.000294583
0.00018832
0.000148081
0.00121512
0.000186629
0.000138724
0.00013489
0.00018704
0.000221577
0.00016205
0.000149717
0.000137032
0.000144462
0.0202049
0.000140435
0.000159952
0.0368257
0.000138029
0.000162817
0.000191681
0.0291728
0.000181258
0.000194006
0.000139111
0.00014899
0.000148315
0.000176517
0.000135661
0.000145188
0.0315864
0.000140844
0.000171246
0.000136817
0.000198459
0.000361391
0.000206454
0.00558453
0.0225153
0.000172532
0.000136058
0.000135743
0.000154434
0.00465099
0.000145469
0.000227821
0.000132962
0.000162339
0.0291755
0.000170466
0.000176487
0.000140674
0.000154282
0.000168806
0.000138113
0.000142235
0.000168622
0.000239858
0.00016331
0.000170101
0.00516287
0.000223451
0.000145131
0.000221841
0.0362668
0.00518618
0.000252817
0.000193557
0.000188346
0.000155677
0.000243166
0.0233212
0.000456197
0.0301935
0.00021805
0.000141867
0.000191979
0.000157916
0.000143733
0.000204768
0.000220373
0.000166054
0.000160077
0.00016782
0.000161586
0.000185584
0.000199493
0.000149007
0.0086409
0.0207181
0.000215118
0.000365763
0.0296712
0.000254168
0.000144174
0.000384953
0.00014901
0.00373199
0.000137036
0.000179538
0.000147367
0.000139147
0.000190714
0.000220503
0.0181746
0.0010927
0.000316219
0.000142379
0.0001846
0.000138029
0.00363397
0.00486279
0.000144376
0.000146362
0.000208764
0.000190902