/*--------------------------------*- C++ -*----------------------------------*\
| =========                 |                                                 |
| \\      /  F ield         | OpenFOAM: The Open Source CFD Toolbox           |
|  \\    /   O peration     | Version:  v2012                                 |
|   \\  /    A nd           | Website:  www.openfoam.com                      |
|    \\/     M anipulation  |                                                 |
\*---------------------------------------------------------------------------*/
FoamFile
{
    version     2.0;
    format      ascii;
    class       volScalarField;
    location    "200";
    object      nut;
}
// * * * * * * * * * * * * * * * * * * * * * * * * * * * * * * * * * * * * * //

dimensions      [0 2 -1 0 0 0 0];


internalField   nonuniform List<scalar> 
27802
(
0.00104136
0.00592331
0.00590549
0.00598805
0.00946609
0.00594855
0.00584866
0.0059608
0.00149772
0.00524714
0.00583404
0.0116388
0.0111627
0.00101986
0.00582606
0.00585046
0.00578654
0.0111955
0.0131361
0.00219883
0.00590487
0.00590341
0.000979977
0.00178647
0.00580809
0.00595483
0.00592504
0.00525994
0.00580798
0.000549459
0.00587986
0.00566898
0.0012892
0.00329072
0.00169039
0.00582438
0.00281292
0.00597649
0.00588005
0.00591
0.00590853
0.00590961
0.00277121
0.00485193
0.00593433
0.00582683
0.000740484
0.00591241
0.00590168
0.00307037
0.00452796
0.00593515
0.0201809
0.00593023
0.00590348
0.00594848
0.00247059
0.00104086
0.00590859
0.00481218
0.0058236
0.00590981
0.00764002
0.00575396
0.0109786
0.00225696
0.00870174
0.00592101
0.0111403
0.00572438
0.00581914
0.00145317
0.0138186
0.00147878
0.0169034
0.00341529
0.00559015
0.00759479
0.00343634
0.00585631
0.0053501
0.00134055
0.00590456
0.00113683
0.00594903
0.00554884
0.00580762
0.00590034
0.0014445
0.000376737
0.0085846
0.0059114
0.00327432
0.0058575
0.00591965
0.00590782
0.00224871
0.00979242
0.00590717
0.000798739
0.000209986
0.00591788
0.00501592
0.00600779
0.00044086
0.00591029
0.00621145
0.00121031
0.00583514
0.00184379
0.00581256
0.0058251
0.00591978
0.0027969
0.00582211
0.000673301
0.00552073
0.00583
0.002428
0.00241962
0.0119214
0.00895141
0.00178081
0.00580894
0.00587045
0.00631151
0.00038558
0.00533516
0.0118214
0.011786
0.00497284
0.00191934
0.00587036
0.00594006
0.00590594
0.00593735
0.00594287
0.00592092
0.00176294
0.000803545
0.00593299
0.00593165
0.00626848
0.0058172
0.00582285
0.00592072
0.0059443
0.00594404
0.00593662
0.00587441
0.00584006
0.00591037
0.00376166
0.00591466
0.00278503
0.00592594
0.00336508
0.00118593
0.00240004
0.000635925
0.000388003
0.00143942
0.00553881
0.00254636
0.00578895
0.0058447
0.00583404
0.00595227
0.00584774
0.00196177
0.00598605
0.00549503
0.00594229
0.0018001
0.00588544
0.0100504
0.00584164
0.00272513
0.00593319
0.00272541
0.00178869
0.00478523
0.00296955
0.00592707
0.00594201
0.00129841
0.00592537
0.00598383
0.000406635
0.000690293
0.00588277
0.00578816
0.001101
0.00478951
0.00584203
0.00591349
0.00584242
0.00593149
0.00584573
0.00593352
0.00900676
0.00208689
0.00662211
0.00511345
0.00583713
0.00196827
0.00343449
0.000633406
0.00589777
0.00564731
0.00582331
0.000325176
0.00976257
0.00256495
0.000415246
0.00585806
0.00825725
0.0058576
0.00591502
0.00593938
0.0119284
0.00579995
0.00138565
0.000441488
0.00594243
0.00591639
0.00590879
0.00579144
0.00582824
0.00591819
0.00579601
0.00328844
0.00590749
0.00226621
0.0117387
0.000766326
0.00593897
0.00028399
0.00150202
0.00576675
0.00595836
0.00956738
0.00990148
0.00588408
0.00606422
0.000976922
0.00592733
0.00882022
0.00587286
0.00591395
0.000492705
0.00228443
0.00101759
0.00595913
0.00605768
0.00584958
0.00595156
0.00461989
0.00517956
0.0058453
0.00249192
0.00590357
0.0114553
0.00589463
0.0104608
0.00223103
0.00965046
0.00592086
0.0058005
0.00588502
0.00116168
0.00582495
0.000783615
0.00959274
0.00448975
0.000955794
0.00595488
0.00204601
0.0025882
0.00594911
0.00042372
0.00215583
0.00588464
0.00487275
0.000406333
0.0023631
0.00377448
0.00594303
0.00393877
0.0059426
0.00582089
0.00316612
0.00586331
0.00236484
0.00586323
0.00371868
0.000688726
0.00595027
0.00709729
0.00956477
0.00216371
0.00593353
0.00564149
0.000630688
0.0110482
0.0016765
0.00589928
0.0103724
0.00337673
0.00595189
0.00518597
0.00129914
0.00180778
0.00554095
0.00532448
0.00582305
0.00515086
0.00103876
0.00225056
0.000914912
0.0059056
0.00583681
0.00580952
0.00593005
0.00235913
0.0058728
0.0116461
0.00587552
0.00583864
0.00247679
0.00593747
0.00713916
0.0164093
0.0010628
0.000462691
0.000947452
0.00156964
0.00591188
0.00242619
0.00582324
0.00578708
0.0109749
0.0113181
0.00292894
0.00147511
0.00594652
0.000649504
0.00847964
0.00587389
0.00028742
0.00590542
0.0105724
0.00587393
0.00595693
0.00595782
0.0059374
0.00665437
0.000433796
0.00591937
0.00592842
0.00566797
0.00390266
0.00592743
0.00257067
0.00583673
0.00595212
0.0084863
0.00593934
0.00237994
0.00589125
0.00590784
0.000630284
0.00441894
0.00173927
0.00498948
0.0100798
0.00439312
0.00581951
0.00523035
0.00582269
0.00598008
0.00583771
0.00596029
0.00591985
0.00595276
0.00591617
0.0006866
0.00571876
0.0056632
0.00407557
0.00594438
0.0059555
0.00352671
0.00195329
0.00584304
0.0077582
0.00518783
0.00236407
0.00593511
0.00107693
0.0111229
0.00178109
0.00594172
0.00259198
0.00584904
0.00847341
0.00485639
0.000440932
0.00236263
0.00460345
0.00533632
0.00602185
0.0117559
0.0116186
0.0180607
0.00591549
0.00592906
0.00243586
0.0058178
0.00862379
0.00330004
0.00588127
0.0056817
0.00595355
0.00775909
0.00592409
0.00578022
0.01202
0.00476045
0.00395485
0.00582225
0.00491814
0.0169813
0.00585528
0.00588348
0.00585154
0.00158598
0.0112397
0.00971147
0.00292712
0.00146394
0.00564254
0.00595473
0.00585908
0.000979112
0.00583189
0.00582277
0.00580163
0.0018965
0.00328909
0.0110184
0.00714146
0.00776482
0.00623411
0.00587224
0.00186445
0.0022827
0.0027918
0.00591535
0.00589171
0.00495763
0.0044382
0.0035185
0.00204178
0.00579374
0.00396144
0.00512099
0.0058321
0.00619244
0.00582196
0.00457003
0.00587955
0.00595995
0.000550457
0.00106961
0.00427048
0.00587061
0.00294161
0.00579015
0.00429435
0.00188633
0.00503293
0.00576434
0.00100041
0.00179837
0.0155274
0.00586762
0.00594455
0.00185327
0.0058617
0.00584078
0.0130791
0.00592347
0.0107444
0.00587534
0.0110083
0.0137886
0.0127381
0.005858
0.00331326
0.0118332
0.00220848
0.0052829
0.000643157
0.0132446
0.000887829
0.00607153
0.00491927
0.00137006
0.00595787
0.00595042
0.00240066
0.00427681
0.00582605
0.00592163
0.000511839
0.0165458
0.00171473
0.00593
0.00374868
0.00373239
0.0100888
0.00596059
0.00541585
0.00104302
0.00582495
0.00585517
0.00595538
0.000648742
0.0109524
0.00318165
0.011627
0.00593171
0.00595161
0.0105996
0.00582734
0.00219618
0.0058515
0.00585627
0.00506242
0.00066204
0.00595183
0.00593395
0.00593366
0.00155112
0.00595351
0.00286588
0.000665747
0.00164399
0.00135653
0.0107928
0.00158873
0.000581368
0.00468414
0.00583683
0.0111599
0.00594519
0.0021358
0.0058266
0.00592264
0.00583988
0.00240529
0.00592772
0.00585401
0.00580723
0.0107545
0.0060877
0.00592832
0.00137468
0.000654729
0.000906085
0.0120946
0.0108907
0.00199643
0.00170184
0.00239052
0.00991472
0.0059226
0.00135219
0.0106108
0.000425279
0.00141198
0.00530365
0.00511899
0.00614031
0.0020472
0.00589672
0.00591038
0.00228355
0.000371537
0.00856572
0.00147039
0.00589549
0.00590196
0.00198163
0.00597052
0.00361389
0.000542632
0.00587157
0.00588334
0.00586226
0.000646689
0.004506
0.00568191
0.00295225
0.0118923
0.00398187
0.00289092
0.00586774
0.0104973
0.00524826
0.0036628
0.00334963
0.00151349
0.0118317
0.00583829
0.000456684
0.00589614
0.0112825
0.0115177
0.00585727
0.00223942
0.00204826
0.000499872
0.00589216
0.00926526
0.00337889
0.00658959
0.00527061
0.00590609
0.000445081
0.00690347
0.00229958
0.00585383
0.0019661
0.00548744
0.00156837
0.00603029
0.000869053
0.00585337
0.00583892
0.00305773
0.00290279
0.0076145
0.00143838
0.00409816
0.00703906
0.00268081
0.0111051
0.00584877
0.00477451
0.0014499
0.000907503
0.0106442
0.00566672
0.00760169
0.00605366
0.00585846
0.00586502
0.00592025
0.0059551
0.00439452
0.000922174
0.00247671
0.00590418
0.00273426
0.00582772
0.00349387
0.00134873
0.00585189
0.00593528
0.00733141
0.000824305
0.00411493
0.00582753
0.00605296
0.00597979
0.00408858
0.00586726
0.0104105
0.00880955
0.00576038
0.000940456
0.00167954
0.0109278
0.0107933
0.000856827
0.00589001
0.00393073
0.00594287
0.0047149
0.00593592
0.00169466
0.00171922
0.0120596
0.0059043
0.005945
0.000668303
0.00607685
0.00580891
0.00569427
0.000742442
0.00585052
0.00159403
0.00583819
0.0192448
0.00591035
0.00552878
0.00162919
0.00291491
0.00546934
0.000470877
0.00262766
0.00208344
0.000843497
0.00576795
0.00732594
0.0104011
0.000520001
0.00288326
0.00987971
0.00584774
0.00583113
0.00332169
0.000833938
0.00181662
0.0049852
0.00572083
0.00109653
0.00769179
0.0021687
0.00942822
0.00260795
0.000926168
0.00998618
0.00481112
0.00230919
0.00896625
0.00204639
0.00586477
0.0029529
0.0059733
0.00081312
0.00580246
0.00176286
0.0114913
0.00600733
0.00595902
0.00170792
0.0120331
0.00203218
0.00546574
0.00585844
0.00507743
0.00534494
0.00120454
0.00183856
0.0135974
0.00223776
0.00591489
0.005838
0.00120269
0.01411
0.0181437
0.00592524
0.00120493
0.0110456
0.00567756
0.00593969
0.00581786
0.00588662
0.0113254
0.00581759
0.00547413
0.00606998
0.000478176
0.00583922
0.00594127
0.00594436
0.0043946
0.017868
0.00578546
0.00525211
0.0017997
0.00931241
0.00585786
0.00994045
0.00559588
0.00996955
0.00593162
0.00592103
0.00263463
0.00562969
0.00789335
0.00534974
0.0110933
0.000405331
0.00202867
0.000394441
0.00446859
0.00238492
0.0056672
0.00546373
0.00584301
0.00565775
0.00232024
0.00265201
0.00106172
0.000294873
0.0157891
0.00592236
0.00899744
0.000564975
0.00473548
0.00781378
0.000507399
0.00429813
0.013508
0.00783322
0.00582818
0.00593165
0.00592087
0.00587118
0.00167917
0.00584647
0.00595392
0.008271
0.000836122
0.0106313
0.00588725
0.00225774
0.00514306
0.00592277
0.00168711
0.00591546
0.000509913
0.00304221
0.00214699
0.0059217
0.00592229
0.000439823
0.00336513
0.000834673
0.00590388
0.00579979
0.0164333
0.00581875
0.00582732
0.0121115
0.000812023
0.00123154
0.00498857
0.00600386
0.00593421
0.00584667
0.00594593
0.000677057
0.00227291
0.000875563
0.00582649
0.00171424
0.00326246
0.00595312
0.0054798
0.0106395
0.00517671
0.00596802
0.00534413
0.00592602
0.0058313
0.00131081
0.00127339
0.00595718
0.00595608
0.00451334
0.00256847
0.00262994
0.0112213
0.00475228
0.00358669
0.000539829
0.00588205
0.00593831
0.00596057
0.00177023
0.00148847
0.0059603
0.00047912
0.00582477
0.0181572
0.00591922
0.00582609
0.00060813
0.00592237
0.00594618
0.00586532
0.00592671
0.00588793
0.0119022
0.00594661
0.00069239
0.00582017
0.00570625
0.00593303
0.00591664
0.00591445
0.00583923
0.00535209
0.00313914
0.00496845
0.00451231
0.00581824
0.0036871
0.00214627
0.00251297
0.00594199
0.00581893
0.00582767
0.0051755
0.00595278
0.000401663
0.00584022
0.00586908
0.0054564
0.00606239
0.00592166
0.00472579
0.00582604
0.00579792
0.00157237
0.0151918
0.00965712
0.00596852
0.0059147
0.00251297
0.00589427
0.00760746
0.00173095
0.00189806
0.00993832
0.00579644
0.004041
0.00594159
0.00176623
0.00195483
0.00258505
0.00591796
0.00206824
0.00991354
0.005919
0.00583478
0.00604
0.0202393
0.00165823
0.00197704
0.00592762
0.0059169
0.00542731
0.00137937
0.000617419
0.00240844
0.00144327
0.00582776
0.00582124
0.00591889
0.000515441
0.00585205
0.00588598
0.00595895
0.00253221
0.00102912
0.0058273
0.00275615
0.00584714
0.00591262
0.00049753
0.00572793
0.00243967
0.00596718
0.000696114
0.00507495
0.00591675
0.0075666
0.0059274
0.0043673
0.00582766
0.011097
0.0052186
0.0058845
0.00579881
0.0021524
0.00587292
0.000289058
0.00872342
0.00593411
0.00440249
0.00323775
0.00278143
0.0059349
0.0101214
0.0058394
0.0015438
0.00591901
0.00284785
0.00386968
0.0112931
0.00593626
0.0099722
0.00582352
0.0058503
0.00584758
0.00582399
0.00504999
0.00583937
0.00257434
0.00141609
0.0158797
0.0174002
0.0039764
0.00599612
0.00301176
0.00199003
0.00592961
0.0059361
0.0108727
0.00257417
0.00595498
0.00827764
0.00596086
0.0177182
0.0003482
0.00584247
0.0166339
0.0058832
0.00605151
0.00985062
0.00140137
0.00582216
0.0059444
0.00591924
0.00360669
0.0059596
0.00582202
0.0125063
0.00708594
0.00262772
0.000651898
0.00595652
0.00596398
0.011077
0.0114896
0.00588433
0.000717433
0.00399262
0.00971109
0.0135551
0.00593475
0.00584419
0.00752826
0.00225787
0.00591972
0.00187919
0.0124413
0.00699536
0.00240108
0.00561752
0.00595734
0.00621225
0.00582139
0.00492291
0.00335943
0.00178112
0.01003
0.00591718
0.00586104
0.00582391
0.00593163
0.000750902
0.00584846
0.00584216
0.00737633
0.00400895
0.00164931
0.00120387
0.00600204
0.00601407
0.00128149
0.00738934
0.00320237
0.00233824
0.00590344
0.011964
0.00231381
0.00187323
0.002143
0.00198343
0.00589797
0.00593163
0.00584441
0.00588833
0.00597366
0.000991572
0.00267089
0.00573575
0.00912767
0.00329173
0.0046347
0.0118323
0.00590315
0.00378568
0.00122048
0.000291834
0.00350408
0.00359619
0.00470959
0.00585892
0.0017964
0.00589438
0.00582141
0.00120771
0.00590035
0.00888016
0.00592628
0.00578965
0.00600219
0.00282494
0.00594103
0.00585387
0.00583599
0.00584209
0.00592992
0.00468037
0.0016705
0.0059146
0.0111148
0.00593366
0.0104787
0.00508382
0.00218783
0.00240129
0.0058386
0.00593253
0.0112654
0.00583286
0.00448603
0.00594552
0.00515399
0.00101562
0.0119029
0.00360669
0.00593542
0.00480181
0.00606868
0.00591963
0.00201324
0.00590116
0.0059509
0.00232285
0.0122695
0.0106255
0.00131235
0.00235902
0.00580296
0.00600831
0.0117998
0.00129115
0.00175043
0.00685446
0.0024501
0.00520327
0.00378132
0.0107438
0.00347636
0.00481688
0.000823781
0.00375007
0.00595612
0.00552898
0.0132506
0.00588182
0.0157327
0.00741142
0.00591911
0.0059023
0.01499
0.0111244
0.00591251
0.00557818
0.00501731
0.000215909
0.0111603
0.00656166
0.00594786
0.0059099
0.00512479
0.00359895
0.00107035
0.00247402
0.00578353
0.00263762
0.00592524
0.00565975
0.0026277
0.00589659
0.00588083
0.00208314
0.00588809
0.0022344
0.00714892
0.00550323
0.00498297
0.0049715
0.00193812
0.00594121
0.00230543
0.00146019
0.00593877
0.00479138
0.0120688
0.00105066
0.00593457
0.000486111
0.0120524
0.00207291
0.00065775
0.00581144
0.0133415
0.00595551
0.00881204
0.0101435
0.00596616
0.00587628
0.00591364
0.00241773
0.00559181
0.00588072
0.00595586
0.00585188
0.00580834
0.0058485
0.00513562
0.000486945
0.000682275
0.0108888
0.00595931
0.00237072
0.00264785
0.00384781
0.000542048
0.00594646
0.00260064
0.00426634
0.00591389
0.00595277
0.00991844
0.00429445
0.00584038
0.00588687
0.00610281
0.00470871
0.00613543
0.00564711
0.00580684
0.0025831
0.000957259
0.00248747
0.00584444
0.00936123
0.00315749
0.00592887
0.00583007
0.0142086
0.00586979
0.00593863
0.00332417
0.00434776
0.00580009
0.00624995
0.00203548
0.00584241
0.00110058
0.00594964
0.0118979
0.000955964
0.00584068
0.00584482
0.000970836
0.00537731
0.0114959
0.00176015
0.00084644
0.00230039
0.0055785
0.00582381
0.0059174
0.0149825
0.00526416
0.00257838
0.00089973
0.00110288
0.00595911
0.00266476
0.00590258
0.00177399
0.00583531
0.00580993
0.00592536
0.00229576
0.00588281
0.00594031
0.00141177
0.00170494
0.00583107
0.00197244
0.00596068
0.0182609
0.00449687
0.00582245
0.00337145
0.0100285
0.00100731
0.00593658
0.00591916
0.00139873
0.0058638
0.00596014
0.00727289
0.00175119
0.00592439
0.00593245
0.00764768
0.00808385
0.0059265
0.00365252
0.00151915
0.00432195
0.00580937
0.000874871
0.0179039
0.00595158
0.0048356
0.00890817
0.00163254
0.00582116
0.00131246
0.00572812
0.00581915
0.00607024
0.00682357
0.00257346
0.0110888
0.00582515
0.0059248
0.0157869
0.00584893
0.00589127
0.00608461
0.00152449
0.00504506
0.00307335
0.00595346
0.00584759
0.00592308
0.000537102
0.00990823
0.00401256
0.00240704
0.00266445
0.00597797
0.00205283
0.0099922
0.0021645
0.00580358
0.00494181
0.00091391
0.0057199
0.00588539
0.00523731
0.0111114
0.00591615
0.00583575
0.00988503
0.00584056
0.0093088
0.00595558
0.00376008
0.00248397
0.00127692
0.00531657
0.00228759
0.00584462
0.00593496
0.00164878
0.00587295
0.0126975
0.00572358
0.00586336
0.00592965
0.000421152
0.000207011
0.0099868
0.00591564
0.000642036
0.0058132
0.00100274
0.00177769
0.00130398
0.00341601
0.00338695
0.00596098
0.00219887
0.00880125
0.00593193
0.00359187
0.00586554
0.00595626
0.00594744
0.00950844
0.00130753
0.00404288
0.00582053
0.00595079
0.00207261
0.00646381
0.00589885
0.00591192
0.00592142
0.0029982
0.00589068
0.00150255
0.00552897
0.00584104
0.00598605
0.00495087
0.00590311
0.00594345
0.0104387
0.0119405
0.00342736
0.00581239
0.0104166
0.00534479
0.0052825
0.00595786
0.00192332
0.00533278
0.00957814
0.00222139
0.0106058
0.00711946
0.000394101
0.00555661
0.00546908
0.00103135
0.00589929
0.00593447
0.00138855
0.00586824
0.00188236
0.0096514
0.00579628
0.00188258
0.00588602
0.00631658
0.00722226
0.00136482
0.00941172
0.00592924
0.0059589
0.00592224
0.00119704
0.00584201
0.00594593
0.0134466
0.00717653
0.0110202
0.00209007
0.00528057
0.00563052
0.00581883
0.0058382
0.00594458
0.00813265
0.00594806
0.00591065
0.0161391
0.00588401
0.00281733
0.00241955
0.00583813
0.00585746
0.00583683
0.00425745
0.00130598
0.0059558
0.00333788
0.0120773
0.00588239
0.00320421
0.00313092
0.00582029
0.00493477
0.00586019
0.00534899
0.00587869
0.00596147
0.00582293
0.000927831
0.000969464
0.0053557
0.00593775
0.014995
0.00591033
0.00582158
0.000500888
0.00585829
0.00149946
0.00589033
0.00589049
0.0059726
0.000779564
0.00591757
0.00988354
0.0113679
0.00581972
0.0059889
0.00584305
0.00596393
0.00142582
0.00205582
0.00591317
0.00591268
0.00584818
0.00595106
0.00421374
0.00590766
0.00426155
0.00393678
0.00593409
0.0017616
0.00595993
0.00593678
0.00593614
0.00594034
0.00591724
0.00591887
0.00592481
0.00581562
0.00997592
0.00594816
0.00611198
0.00585743
0.00592857
0.00498133
0.00170263
0.00460391
0.0110055
0.00195791
0.00592963
0.00587049
0.00607143
0.00585493
0.00314349
0.00367065
0.0167987
0.00534242
0.00595433
0.00519579
0.00591333
0.00352321
0.00773823
0.00099826
0.0141633
0.00919805
0.00594052
0.000803378
0.00589419
0.00235927
0.00608285
0.00585431
0.00385467
0.00593851
0.00173243
0.013002
0.0059226
0.0059106
0.00552351
0.00137932
0.00259626
0.00583527
0.00608843
0.00588621
0.00251976
0.00596074
0.00611575
0.0059075
0.00161851
0.00594781
0.00251836
0.00980594
0.0119288
0.00407942
0.00325753
0.00588672
0.00998549
0.00262264
0.00801039
0.00595895
0.00085332
0.00593073
0.0106704
0.0100897
0.00519114
0.00223548
0.00607095
0.00595126
0.00171235
0.00593557
0.00547502
0.00219872
0.00440169
0.00592653
0.0111669
0.00126892
0.00333689
0.00050723
0.0120194
0.000947589
0.00373761
0.00593938
0.00600381
0.00595493
0.000380778
0.00461052
0.00596073
0.00594443
0.000505595
0.00940857
0.00587498
0.00594754
0.00172424
0.00223241
0.00251186
0.00592517
0.00591787
0.00257413
0.00584051
0.00322112
0.00583252
0.00200912
0.00656904
0.00942781
0.00181898
0.00583681
0.00582433
0.00583641
0.00585391
0.000891678
0.00562413
0.00597385
0.000998765
0.00283064
0.00595963
0.00278652
0.00404293
0.00594196
0.00199665
0.0118935
0.00257055
0.0110679
0.00906743
0.00186348
0.00272184
0.00601092
0.00600956
0.00327529
0.000861484
0.00180261
0.005843
0.0058183
0.00593784
0.00594295
0.0058232
0.00595832
0.00594371
0.0167713
0.00441948
0.00602965
0.00168222
0.00593381
0.0058212
0.00588079
0.000582386
0.00220901
0.00586543
0.000446143
0.00602851
0.0113784
0.00595
0.00594598
0.00106734
0.00208068
0.00593786
0.00656036
0.0059442
0.0083533
0.000885113
0.0053259
0.0135044
0.00406779
0.00592601
0.00580966
0.00292363
0.00464367
0.00594718
0.0156393
0.0023271
0.00581019
0.00593499
0.00626054
0.00302213
0.00324322
0.0058684
0.00513361
0.00202988
0.00592277
0.00400611
0.000558832
0.00310157
0.00580683
0.00595942
0.00117184
0.00169726
0.0168338
0.0169599
0.00581683
0.00706703
0.00524319
0.00562082
0.00492478
0.00594694
0.00525656
0.00586723
0.00593517
0.00188752
0.00385305
0.00594363
0.0100706
0.00568171
0.00200417
0.00288987
0.00594002
0.00585187
0.00581696
0.00209838
0.00277806
0.0118053
0.00114724
0.00586189
0.000434427
0.000637102
0.00789801
0.00685059
0.0026664
0.00935394
0.00183945
0.0100817
0.00593645
0.00174671
0.00409535
0.00594484
0.00208265
0.00180386
0.00652306
0.00587347
0.00103705
0.00559641
0.00592664
0.00295772
0.0120308
0.00643785
0.000751583
0.00357315
0.00203488
0.00583259
0.00597107
0.00583607
0.00167009
0.00591515
0.00267401
0.00134368
0.0034533
0.00785112
0.000960844
0.00682618
0.00860964
0.00200574
0.00249971
0.00281927
0.0101565
0.00157309
0.00457208
0.00604318
0.00198496
0.00279635
0.00632686
0.00585451
0.00844036
0.00107871
0.00406693
0.00594164
0.0102282
0.00693097
0.000218013
0.00587424
0.00314103
0.0120292
0.000557937
0.00082418
0.00418569
0.00585303
0.00384557
0.0059332
0.00237748
0.00591108
0.0104351
0.00198026
0.00303137
0.00317742
0.0104605
0.00176225
0.0058109
0.00580416
0.00229143
0.0026698
0.00110734
0.00111673
0.00436796
0.000496997
0.00578351
0.00585057
0.00588185
0.00394844
0.00587947
0.0058771
0.00752173
0.00107625
0.000227454
0.00595374
0.00167115
0.000492967
0.000988376
0.0096278
0.00586718
0.00587207
0.0151382
0.00585307
0.00594998
0.00627108
0.0034653
0.00842414
0.00156592
0.00581452
0.005622
0.00606022
0.00594269
0.00587148
0.00603875
0.00580069
0.00582191
0.00604606
0.00117879
0.00593441
0.000739561
0.00591826
0.0058054
0.0017182
0.00251888
0.00109929
0.00559409
0.00602548
0.0059353
0.00593332
0.012038
0.00395715
0.00586664
0.0058317
0.0161734
0.00591813
0.0120402
0.00449567
0.00595997
0.00916922
0.00596041
0.00507801
0.00594319
0.0059034
0.00590581
0.00225533
0.00519507
0.00582442
0.00222402
0.00573008
0.00438023
0.00487834
0.00591403
0.000977358
0.00116103
0.00560648
0.00592988
0.0118518
0.00560901
0.00312134
0.00594066
0.00586527
0.000205958
0.00677899
0.0011039
0.00296412
0.00602962
0.00562122
0.00586215
0.0059561
0.00123074
0.00592531
0.00582167
0.00585573
0.00208089
0.00581772
0.00237801
0.00974526
0.00318563
0.00586891
0.00345775
0.00553764
0.00581767
0.00589767
0.00190461
0.00590685
0.0076511
0.00595471
0.00584114
0.00604042
0.00219044
0.00513941
0.00587467
0.005496
0.000519567
0.00593607
0.00572597
0.00161879
0.0124968
0.00608292
0.000538983
0.00286655
0.00589085
0.00587882
0.00594068
0.00174643
0.00205079
0.00592586
0.00585121
0.00204032
0.0100636
0.00587911
0.00585225
0.000694122
0.00566635
0.0059104
0.00581827
0.00588222
0.00466109
0.00188745
0.00585347
0.00583223
0.00519397
0.0079533
0.00182293
0.00609128
0.0042566
0.0102186
0.00156338
0.00440042
0.00047541
0.00616614
0.0130215
0.00595325
0.0152421
0.0059317
0.00593099
0.00581703
0.00179991
0.00281229
0.00596184
0.00342127
0.00533537
0.00526394
0.00594368
0.00969789
0.0168588
0.00444316
0.00583922
0.00640143
0.00584286
0.00200263
0.00563569
0.0106495
0.00582223
0.00323364
0.0026631
0.00390343
0.00620408
0.00582079
0.00232132
0.00593033
0.0058402
0.00368245
0.00581084
0.0059685
0.00686636
0.00821396
0.0171869
0.00410794
0.0015419
0.000356496
0.00348888
0.00393573
0.000761623
0.00598292
0.00587367
0.00918455
0.00138705
0.0040878
0.00595993
0.00169419
0.00474354
0.00592205
0.0045046
0.00735757
0.00213038
0.000773763
0.00669206
0.00589731
0.00498931
0.00594785
0.00175055
0.00595136
0.0112947
0.006085
0.00592771
0.00566127
0.0102249
0.00404049
0.00247028
0.00547881
0.0052333
0.00564674
0.00509396
0.005836
0.00184856
0.00152967
0.00100884
0.00582815
0.000946052
0.00520709
0.00575778
0.00136689
0.00352093
0.00214137
0.00223566
0.0058544
0.00172059
0.00192265
0.00578698
0.0058765
0.00595313
0.00940306
0.00433653
0.000918651
0.0145066
0.00531365
0.0056651
0.0140136
0.00592337
0.012086
0.0020241
0.0020309
0.005887
0.00581056
0.00582453
0.00588381
0.00595692
0.00591023
0.00581962
0.00083411
0.00178243
0.00593061
0.00204791
0.00593545
0.00582201
0.00105579
0.0057483
0.00171717
0.00212204
0.00587294
0.00581727
0.00571655
0.0040134
0.0119899
0.00582299
0.00291399
0.0058393
0.00737815
0.00592066
0.00441315
0.00187428
0.00225484
0.00590065
0.00444418
0.0058296
0.00809335
0.000689634
0.00711754
0.00149648
0.00990615
0.00595769
0.00988895
0.00586869
0.00454649
0.00490209
0.00453604
0.00567034
0.000460814
0.00587244
0.00585855
0.0137353
0.00584388
0.00140249
0.00585473
0.00257039
0.0122192
0.00591964
0.0053333
0.00594329
0.0114089
0.00851242
0.00586058
0.00387814
0.00293642
0.0110608
0.00488613
0.00062274
0.000539213
0.00154378
0.000953699
0.0054389
0.00603898
0.00593717
0.00584852
0.00595515
0.00556364
0.0016023
0.000459541
0.00592911
0.00184678
0.00586301
0.00441834
0.00593297
0.0025621
0.00582508
0.00561782
0.00591133
0.00821137
0.000990718
0.00549383
0.00581217
0.00457499
0.0058851
0.00584857
0.00589767
0.0016688
0.000912877
0.00540453
0.00588641
0.005866
0.00606811
0.00585292
0.00279213
0.00582931
0.000817189
0.00882085
0.00175506
0.00640096
0.00537607
0.000906185
0.00110102
0.00386566
0.00169614
0.00591964
0.00580193
0.00247271
0.00582225
0.00855687
0.0020906
0.00366452
0.00596817
0.0108142
0.0180973
0.00590387
0.00538226
0.00957646
0.00594501
0.0124469
0.00172813
0.00485251
0.0158706
0.00581704
0.00582472
0.00580448
0.0037675
0.00145539
0.0059312
0.00595372
0.00787257
0.00263972
0.00594462
0.00046679
0.00992837
0.0031277
0.00722468
0.00582096
0.0048981
0.0144675
0.00608113
0.00178221
0.00272843
0.0053734
0.00715101
0.00230405
0.0144013
0.00589727
0.000908632
0.00583987
0.0115941
0.00595727
0.00583243
0.000514257
0.00202827
0.00275948
0.00589049
0.000603579
0.00154726
0.000433587
0.00591197
0.00594789
0.00363072
0.00314137
0.012085
0.00773278
0.00578363
0.00427252
0.00582281
0.00239363
0.00582017
0.00231251
0.00351967
0.00593695
0.00361476
0.00591314
0.00590662
0.00306201
0.00586007
0.00149878
0.0058205
0.0058975
0.00224694
0.0136815
0.00557504
0.00326144
0.00845333
0.002592
0.00594609
0.00581223
0.00200944
0.00588432
0.00583492
0.00530989
0.00580711
0.00581606
0.00574863
0.00580662
0.0059132
0.00216968
0.00583797
0.00107003
0.0099866
0.00594322
0.00588293
0.00481047
0.00586271
0.00596036
0.00232765
0.0058303
0.00584256
0.00582467
0.0058925
0.000831111
0.00308056
0.00537233
0.00521125
0.00506333
0.000862681
0.00202431
0.0114604
0.00583266
0.000624633
0.00586699
0.00589123
0.0103729
0.00583976
0.00490547
0.00882363
0.00961821
0.000705081
0.00590275
0.00590047
0.000447792
0.0107981
0.00169861
0.0118624
0.00599102
0.00647991
0.00599309
0.00286186
0.000951189
0.00292859
0.0058907
0.00590025
0.00575522
0.00584246
0.00230749
0.00584218
0.00590288
0.00776915
0.00582046
0.00580787
0.00594193
0.00588292
0.00465023
0.011816
0.00595928
0.00533243
0.00585648
0.00581244
0.00564623
0.00584854
0.00595408
0.00591025
0.00590008
0.00598271
0.00545854
0.00210344
0.00594428
0.00100629
0.00588953
0.00594387
0.00607619
0.00580662
0.00557371
0.0029899
0.0059008
0.0058395
0.00608964
0.00313851
0.00214812
0.00524077
0.00594395
0.00593463
0.00195387
0.00590437
0.00184597
0.00567382
0.00494875
0.00667094
0.00587528
0.00241051
0.000764346
0.00586199
0.00584336
0.00546324
0.0110956
0.00273657
0.00580432
0.00586253
0.00236045
0.0028936
0.00588186
0.00917517
0.00384431
0.000873911
0.00594723
0.00549167
0.000969695
0.00590181
0.00580567
0.00174426
0.00209691
0.00602235
0.00595822
0.00581199
0.00587227
0.016247
0.00589622
0.00282588
0.00980913
0.00584032
0.00251827
0.00348829
0.00840895
0.00124983
0.00575545
0.00587843
0.00539316
0.00596153
0.00660158
0.00580801
0.00593797
0.0108171
0.00583812
0.00187333
0.00588224
0.00273776
0.00742154
0.000422266
0.00231809
0.00913003
0.00178165
0.00584398
0.00580836
0.00603384
0.0136508
0.00588127
0.000337492
0.00585631
0.00258803
0.00744026
0.00517584
0.00281195
0.00591218
0.00581026
0.00205584
0.00584228
0.00586489
0.0027161
0.00696006
0.00608609
0.0052458
0.00243703
0.000405919
0.00591786
0.00429954
0.0119543
0.0154707
0.00250229
0.00176281
0.00178057
0.00275503
0.00362781
0.00683393
0.0026596
0.0100916
0.00682302
0.00594202
0.00124081
0.00608149
0.00585886
0.000471766
0.000980295
0.00315673
0.00286372
0.00206347
0.00523698
0.00113663
0.000882452
0.00594361
0.0107297
0.00515298
0.000457149
0.00276892
0.0088049
0.00121167
0.00594137
0.00676585
0.00595995
0.00998953
0.00592192
0.00248626
0.00595743
0.0059315
0.00518665
0.000783066
0.017012
0.00561944
0.007452
0.00583426
0.00193563
0.0058359
0.0102885
0.00758531
0.0059447
0.00594545
0.00101553
0.000576942
0.00535367
0.00591295
0.00645198
0.00583806
0.00591656
0.00585117
0.000834084
0.00143386
0.00579615
0.00310086
0.00270801
0.00563672
0.0058483
0.00101162
0.00579728
0.00285668
0.00305693
0.00590654
0.000734263
0.00594163
0.00519003
0.00238832
0.00581459
0.00512895
0.00583191
0.00581932
0.00201644
0.00587971
0.0017902
0.00589277
0.0059358
0.00112209
0.00598749
0.00335904
0.00584533
0.00395816
0.00585981
0.00485588
0.0113098
0.0117288
0.00586069
0.00623716
0.00594028
0.00582331
0.00575949
0.00103809
0.00630747
0.00601407
0.00467094
0.00591589
0.00583498
0.00585666
0.00120029
0.00204199
0.00357146
0.0059248
0.001813
0.00513154
0.00146214
0.00593377
0.0059312
0.0187988
0.00120911
0.00595482
0.00970353
0.0033646
0.000770211
0.00582081
0.00728699
0.00441738
0.00970041
0.00407009
0.00585659
0.00580656
0.00202657
0.000508754
0.0119813
0.00772071
0.00585718
0.0059207
0.000763625
0.00558859
0.00287576
0.00205552
0.00340382
0.000888411
0.00548635
0.00594989
0.0059325
0.00700843
0.0059404
0.00151617
0.00515335
0.00910273
0.00593377
0.0112935
0.00106034
0.00591526
0.00581637
0.00732342
0.00580208
0.00048588
0.000912558
0.00579738
0.00583777
0.00588326
0.0102464
0.00591249
0.00584106
0.00594938
0.000953063
0.00935468
0.00590126
0.0059398
0.00243047
0.0100033
0.00533143
0.00531714
0.00593122
0.005019
0.00584762
0.0104624
0.00583266
0.0113475
0.00588061
0.00189275
0.000961935
0.00986321
0.00588218
0.00630067
0.00213553
0.00591968
0.0115637
0.0058304
0.00583073
0.0123391
0.00580209
0.0115517
0.0173214
0.00822169
0.00401487
0.00294114
0.005833
0.00191283
0.00192995
0.00590693
0.00634208
0.00798302
0.00863054
0.00860651
0.00178946
0.00574313
0.00232892
0.00537752
0.00599856
0.00201963
0.00595751
0.00579943
0.00949254
0.0118128
0.00590394
0.00196725
0.00594996
0.0110987
0.00714188
0.00595222
0.00585866