/*--------------------------------*- C++ -*----------------------------------*\
| =========                 |                                                 |
| \\      /  F ield         | OpenFOAM: The Open Source CFD Toolbox           |
|  \\    /   O peration     | Version:  v2012                                 |
|   \\  /    A nd           | Website:  www.openfoam.com                      |
|    \\/     M anipulation  |                                                 |
\*---------------------------------------------------------------------------*/
FoamFile
{
    version     2.0;
    format      ascii;
    class       volScalarField;
    location    "200";
    object      omega_0;
}
// * * * * * * * * * * * * * * * * * * * * * * * * * * * * * * * * * * * * * //

dimensions      [0 0 -1 0 0 0 0];


internalField   nonuniform List<scalar> 
27802
(
0.0660068
0.0238673
0.0255258
0.0254463
3.13409
0.0245463
0.0261582
0.0247999
0.0588669
0.0252062
0.0237613
3.25964
3.18522
0.0657469
0.0242634
0.026153
0.0220809
3.27724
1.74597
0.0535899
0.0237603
0.024696
0.0682689
0.109602
0.0233453
0.0248979
0.0244322
0.025179
0.0233396
0.279102
0.0246114
0.0274291
2.70596
0.0482772
3.095
0.0243763
0.0759712
0.224148
0.0246032
0.0244141
0.0248605
0.0244192
6.09844
0.0486649
0.0235631
0.0242368
0.197657
0.0246881
0.0232073
0.0400355
0.0275034
0.023564
0.344746
0.0235675
0.0242522
0.0245169
6.40684
0.0619151
0.0246836
4.52923
0.0243772
0.0246549
0.259315
0.0269383
3.29213
0.0834663
3.08164
0.0253302
2.95072
0.0271589
0.0240068
0.138441
1.18258
0.135338
0.348976
0.02764
0.245128
3.26412
0.038943
0.026094
3.94657
0.129479
0.0232361
0.0613326
0.0243326
0.0261293
0.0233167
0.024247
0.139243
0.245117
3.45834
0.0246197
0.0736407
0.026084
0.0234194
0.0246918
0.0300555
3.12165
0.0248605
0.1859
0.146214
0.0248758
0.026005
0.0258139
0.251333
0.0246217
0.0467701
0.0605786
0.02438
0.0379909
0.0262752
0.0242524
0.0248759
0.106032
0.0232764
0.111701
0.0287045
0.0238831
0.0280998
0.0524387
3.19649
3.47972
0.0376239
0.0233329
0.0244593
0.0288991
0.187691
0.149499
3.11261
3.17038
0.0260068
0.0372143
0.0251872
0.0250949
0.023235
0.0251267
0.02506
0.0233381
0.0458518
0.0758465
0.0252153
0.024458
0.0290354
0.0232393
0.023269
0.0255423
0.025049
0.0253192
0.0236029
0.0250743
0.0238004
0.0246749
0.0263645
0.0253953
0.0499249
0.0241823
0.0552837
0.177877
0.0378349
0.120173
0.181987
0.139741
0.0261069
0.0280313
0.0221021
0.0230496
0.0238994
0.0245515
0.0246065
0.0557401
0.0257863
0.0285936
0.0241984
1.17109
0.0246145
3.31128
0.023034
0.0301943
0.0235257
0.0767749
0.109484
0.0346083
0.0323731
0.0254813
0.0241937
0.0561975
0.0241778
0.0247513
0.150296
1.21465
0.0238347
0.0268384
0.0649289
0.0255686
0.022848
0.0244233
0.0228447
0.0234498
0.0243081
0.0244548
3.90952
0.137763
0.0487024
0.0277516
0.0243763
0.0372275
0.0262393
1.1628
0.0224817
4.14955
0.0244147
0.433301
3.32971
0.0300356
0.155181
0.0242034
0.0955496
0.0260884
0.0247126
0.0241563
3.12848
0.0221545
0.0554112
0.128436
0.0241834
0.0233085
0.0232643
0.0268185
0.0242391
0.0248877
0.0221537
5.68918
0.0246952
0.0334543
1.76956
0.0783424
0.0245954
0.461929
2.96689
0.0268874
0.0244863
2.48815
2.48894
0.0247074
0.0261621
2.54821
0.0234217
0.0727474
0.0258996
0.0254239
0.208034
0.0337983
0.0654199
0.0245385
0.0262273
0.0228552
0.0242469
0.426206
0.0277378
0.0228359
0.033873
0.0248035
2.95611
0.0224557
3.66217
0.0301545
3.90822
0.0248898
0.0221496
0.0246203
0.182553
0.0241145
0.0743973
0.694303
0.0255303
0.226661
0.0251486
0.0377776
0.0299623
0.0242095
0.433949
0.0335906
0.0258319
0.0415716
0.212946
0.119591
0.511231
0.0247993
0.0278823
0.0238399
0.022214
0.0440776
0.0228828
0.138796
0.0228741
0.0369685
0.114003
0.0243739
3.69196
0.382642
0.0842475
0.0254024
0.0277428
0.116587
1.73369
0.0464344
0.0247861
3.61375
0.0317292
0.0251968
0.031234
0.0554178
0.069023
0.0251239
0.0312196
0.0244112
0.0315207
0.0651326
0.0377361
0.0678414
0.0248293
0.024385
0.022222
0.0235785
0.0233132
0.025029
2.9709
0.0250142
0.0243806
0.0324279
0.0251413
2.83211
0.33173
0.145506
0.126817
0.623206
0.0695426
0.0240396
0.0701822
0.0240942
0.0221212
3.3234
2.62859
0.0431961
0.134195
0.773868
0.198874
0.417893
0.0258927
0.479545
0.0229984
3.15259
0.0244696
0.0250912
0.0248047
0.0251526
0.243429
0.570657
0.0240122
0.0236273
0.0374163
0.195071
0.0236912
0.037914
0.0228363
0.0247572
0.421375
0.024781
0.0334206
0.0242129
0.0240152
0.20037
0.0381071
0.112246
0.311863
3.87566
0.0383685
0.0262233
0.0309137
0.0242586
0.0247488
0.0228464
0.0247493
0.0237737
0.0236519
0.0246377
0.231076
0.0270377
0.0367923
0.0312872
0.0239577
0.0244788
0.0313734
0.0379492
0.0242754
2.86346
0.613068
0.0693979
0.0241395
0.0655292
3.29922
0.0381762
0.0239198
0.0506282
0.0246149
0.413449
0.0339807
0.194631
0.121991
0.0354934
4.23236
0.025254
3.18601
3.04633
0.310239
0.0247101
0.0236312
0.0328606
0.0232316
0.412549
5.5156
0.0257658
0.0275091
0.0249002
0.110788
0.0252968
0.0264869
3.14524
0.0472861
0.0273569
0.0240849
0.033445
0.298067
0.0242179
0.0250909
0.0243128
0.0839969
0.521105
0.504694
0.0324908
0.0483967
0.0277841
0.0236936
0.0240382
0.0694104
0.0244291
0.0234007
0.0262969
0.0687878
0.0427521
1.15658
3.02725
0.0688114
3.57598
0.0228896
0.0400942
0.0329317
0.0241119
0.400456
0.0242064
0.0411271
0.0810924
0.0447762
0.0480226
0.0221111
0.0264305
0.171973
0.0244226
0.0478365
0.0233942
0.0296156
0.0241421
0.0246753
0.138765
0.0704564
0.289095
0.0252536
5.61423
0.0221398
0.0275431
0.102283
0.027518
0.0270506
0.0663266
0.0692854
0.345551
0.0259735
0.0251544
0.104413
0.0242121
0.0243786
0.314412
0.0244353
3.64717
0.0251634
3.36821
0.322205
0.313209
0.0242269
0.0513812
3.07094
0.0376721
0.590859
0.124391
0.319898
0.247172
0.0257659
0.033433
0.0700985
0.0250496
0.0245457
0.137831
0.0396994
0.0238796
0.0240601
0.194789
0.345552
0.0457733
0.0241421
0.0422067
0.0264418
0.65575
0.0247741
0.0329465
0.136426
0.0241215
0.0228608
0.0251012
0.277328
3.35242
0.0464505
1.12766
0.0234808
0.0249616
3.41002
0.0242658
0.0413351
0.0242149
0.0228709
0.0479743
1.50507
0.0238098
0.0252054
0.0234852
0.0690591
0.0239885
0.0302398
1.10389
0.0478991
0.0695871
2.72387
0.0890469
0.30191
2.64832
0.0245972
3.31556
0.0251542
0.0410769
0.0266562
0.0248479
0.0245807
0.1186
0.0244657
0.0242245
0.0233126
0.393118
0.0261616
0.0254598
0.0677982
0.22741
0.240446
3.38626
2.962
0.0378947
0.115778
0.0300289
3.87403
0.0247266
0.0561581
0.394132
0.140688
2.91362
0.0320607
0.0255204
3.6771
0.0456392
0.0229646
3.72436
0.0824905
0.224208
0.659788
0.084795
0.0229717
0.0257207
0.0452614
0.0240313
0.0393959
0.12942
0.0228975
0.0259534
0.0235217
0.162631
0.0622422
0.0255201
0.372574
3.21165
0.0273745
0.02995
0.0244739
3.14605
0.531226
0.0875179
0.0518471
0.0587528
0.304046
0.0242727
0.135577
0.0258314
3.52062
3.29819
0.0235086
0.0374545
0.137112
0.253245
0.0253353
2.59891
0.0324795
2.49212
0.0324194
0.0256554
0.223177
2.4466
0.0818697
0.0243347
0.0425616
0.0289478
0.0463144
0.0259374
2.46642
0.0243383
0.0245714
0.0278636
0.0912101
3.86016
0.138182
0.0270508
2.52138
0.0372394
2.8599
0.0243151
0.0366687
0.0692672
0.0932938
2.85004
0.0275671
0.261119
0.0261086
0.023076
0.0254984
0.0247115
0.0246198
0.0351654
0.235166
1.23104
0.024733
0.045513
0.0264151
0.0278087
0.182895
0.0230592
0.0251717
0.0431665
0.350006
0.0278423
0.0240479
0.0254862
0.0250218
0.0312548
0.02531
0.337448
2.38937
0.0270728
0.0757973
0.0547152
2.7314
2.85475
0.0712316
0.0241401
0.300442
0.0241657
0.154664
0.0251565
0.181981
0.0461941
3.18173
0.0230034
0.0245346
0.155074
0.0260479
0.0233376
0.0273456
0.0963827
0.0242226
0.0564839
0.0245967
0.338388
0.0238741
0.0282707
0.0889284
0.0325577
0.0292
0.400737
0.0512516
0.037576
0.0722048
0.02672
3.89338
2.68941
0.135849
0.038107
2.46516
0.0238248
0.0264438
0.0275571
2.43951
0.0563827
0.0272029
0.0271549
0.161666
3.56243
0.231294
3.2728
0.0312438
0.0706671
2.61029
0.0252847
0.0586861
1.09706
0.158181
0.0229714
0.0454443
0.0241814
0.254671
0.0221683
0.0564177
3.28257
0.0256791
0.0245134
0.178761
3.29831
0.0372853
0.0296066
0.0229517
0.0270759
0.0300827
0.0580863
0.0426605
0.35207
0.0488714
0.0254368
0.0263327
0.0595716
0.327623
1.99738
0.0236961
2.41111
2.85133
0.0274035
0.0253526
0.0239341
0.0251277
3.17963
0.0239254
0.0291159
0.0262074
0.418318
3.71768
0.0249677
0.024513
0.0287304
1.86177
0.022087
0.0286753
0.0449872
0.028338
0.0239651
2.48229
0.0281475
0.389921
0.025791
0.0249012
0.0302861
0.028082
2.55239
0.0299733
2.81031
0.167436
0.0384296
0.168681
0.431298
0.0363371
0.0277155
0.029664
0.0236986
0.0275664
0.0661911
0.0300168
0.0744436
0.265636
0.400709
0.0234009
2.66414
0.220189
0.211441
0.387405
0.117314
0.0283082
0.347808
0.0369665
0.0230137
0.0234963
0.0241095
0.0244834
0.326259
0.0237081
0.0249337
3.77315
0.292506
3.57679
0.0243393
0.0329267
0.0252757
0.0254671
0.0547531
0.0244162
0.244083
0.0274677
0.041138
0.0233882
0.0233765
0.159853
0.0276567
0.290929
0.0255139
0.0221895
2.29438
0.0239747
0.0242167
3.36492
0.0954024
0.0697941
0.0448739
0.024925
0.0233752
0.0256707
0.0251371
0.199416
0.0828232
1.36538
0.0259746
0.0460632
0.0407261
0.0249155
0.02898
3.60315
0.0313101
0.0248918
0.0301117
0.0236955
0.0230236
2.81125
0.0563457
0.0238364
0.0244821
0.0373343
0.0686119
0.0298446
2.80667
0.0254222
0.0268415
0.355044
0.0247516
0.0253687
0.0247413
0.0435211
0.0701825
0.024936
0.152862
0.0263156
1.94652
0.0255284
0.024217
0.289716
0.0240668
0.0245167
0.0235484
0.0242579
0.0243342
3.10682
0.0251368
0.206181
0.0240146
0.0273194
0.0235215
0.0236421
0.0236629
0.0243722
0.0299671
0.391551
0.0410674
0.0530225
0.0239637
2.52042
0.0375825
0.0395232
0.0250689
0.023992
0.0231004
0.0281772
0.0244543
0.265908
0.0222411
0.0254534
0.0279221
3.93972
0.0241322
0.03523
0.0234113
0.0221668
0.0506214
0.398246
2.85975
0.0239423
0.0235856
0.0675752
0.0238255
2.45916
0.0881326
0.0457931
2.4791
0.0221469
0.200216
0.0250946
0.0476246
0.0461713
0.105631
0.0233351
0.0376327
2.46245
0.0241456
0.0262274
0.0259259
0.344511
0.049968
0.0447085
0.0245934
0.0236487
0.119329
0.0640924
2.22208
0.0336373
0.068009
0.0238838
0.0258334
0.0235863
0.212745
0.0229703
0.022415
0.0246292
0.0322317
0.0592214
0.0234186
0.0311615
0.0229552
0.0237942
0.174549
0.027135
0.0398124
0.024792
0.0855112
0.0452588
0.0236521
3.03075
0.0252931
0.0564103
0.0231097
3.54222
0.037394
0.0252685
0.0221499
0.033068
0.0223616
0.22144
0.31091
0.0240464
0.0254082
3.36275
2.85147
0.0246161
2.67476
3.71938
0.0894474
0.0240642
0.0917398
5.10403
3.47029
0.0247762
0.676302
0.0222136
0.0246975
0.0246382
0.0242506
0.0272904
0.023697
0.0301383
0.141868
0.350633
0.365887
0.172633
0.0250211
0.0485552
0.0559666
0.0233224
0.0235387
2.85803
0.107429
0.0242397
0.654128
0.0249704
1.86451
0.47105
0.0237064
0.337006
0.0223941
0.0259205
2.83427
0.0597045
0.0240731
0.0250164
0.0232756
0.0267621
0.0247476
0.0242486
2.68457
1.03891
0.0302125
0.0864797
0.0249931
0.0246866
2.97111
3.08844
0.0252677
0.0822782
0.0431339
0.386606
0.912426
0.02375
0.0242952
3.54382
0.0455992
0.024573
0.0423855
0.655882
3.39753
2.64674
0.0280021
0.0246537
0.219203
0.0242295
0.0294845
0.033142
0.0408431
2.55427
0.0238501
0.0247193
0.0240228
0.0247538
0.0805532
0.0242151
0.0240957
3.77458
4.50865
0.047942
0.070792
0.0255316
0.0256338
2.7352
3.56089
0.0268926
0.0339431
0.0254869
3.30602
0.0813513
0.0554774
0.0381955
0.0378599
0.0238986
0.0245925
0.024288
0.0245608
0.0238187
0.064839
0.030362
0.0271156
3.03367
0.0442479
0.0360101
2.97634
0.0246484
0.147151
0.0811164
0.701502
0.0262167
0.100103
0.0550613
0.0229797
0.0435094
0.0244636
0.024065
0.0591947
0.0238278
0.352729
0.0254263
0.0262485
0.0247885
0.0385739
0.0253701
0.0243285
0.0236969
0.0241035
0.0254266
0.0337011
0.319936
0.0235341
2.86916
0.0294904
2.84447
0.0258223
0.0307804
0.357613
0.0237059
0.0234418
3.0775
0.0236983
0.0376255
0.0250419
0.0604992
0.213861
2.994
5.15567
0.0253657
0.0273629
0.732502
0.0240921
0.0405691
0.0255031
0.024407
0.0810456
2.67603
0.754114
0.0691675
0.0679732
0.0250101
2.63411
3.09788
0.0696212
0.0464907
3.42474
0.11919
0.0349225
1.90333
0.384218
0.026373
0.0542168
0.0796305
0.0274326
0.0249767
0.0308859
0.914965
0.0257627
0.332772
0.332571
0.0253739
0.0232025
0.346341
0.387423
0.0237922
0.0283253
0.0256032
0.210729
3.1072
0.349203
0.0252664
0.0238288
0.0252369
0.0331353
0.0934911
0.0299785
0.026511
0.761852
0.02457
0.0277733
0.0971932
0.0239812
0.0259228
0.03747
0.0233298
0.0843966
3.34473
0.0314212
0.947698
0.113347
0.0525372
0.0248149
0.0330365
0.056464
0.0244797
4.26934
3.21706
0.0710997
0.0236957
0.372055
0.279822
0.0554299
0.0808832
0.0222095
0.332019
0.0249338
3.61403
2.71728
0.0249592
0.0250574
0.0234063
0.033546
0.0258742
0.0259146
0.023802
0.0234141
0.0338916
0.0233983
0.0314558
0.119932
0.101185
2.86536
0.025016
0.1213
0.0333617
0.0266375
0.134942
0.0237684
0.0302987
0.0254702
0.0233987
0.0238617
2.95774
0.261503
0.0242779
0.0256452
0.302553
0.0465222
0.475854
0.0277704
0.0232942
0.0297486
0.228496
0.129068
0.0236826
0.412551
0.0269716
0.0236341
0.0237003
0.3651
0.0235636
0.0251406
0.0263339
0.0282672
0.0328976
2.49128
0.0378646
0.0241803
0.0658541
0.02465
3.00141
0.227656
0.0242709
0.0236787
1.08185
3.81836
3.07875
0.110817
0.290033
0.0817284
0.0297968
0.0242599
0.0234014
0.397711
0.0306627
0.0315607
0.243473
0.0704631
0.0243233
0.0342742
0.0246446
0.109017
0.0237062
0.023191
0.0232155
0.0482074
0.0249658
0.024761
0.140941
0.0559468
0.0264535
0.171383
0.0248052
2.23034
0.0373304
0.0243506
0.0314194
3.83269
0.216561
0.0252595
0.0255694
0.0703039
0.0258631
0.0249783
0.159852
0.110652
0.0232462
0.0233824
0.144146
2.4628
0.0232791
0.0267006
0.0583398
0.0254271
0.0231946
0.251986
2.23676
0.0246082
0.0463874
3.45239
0.110444
0.0222201
0.065901
0.0273501
0.0240096
0.0260131
2.97398
0.0298957
3.16337
0.0243851
0.0232974
2.6207
0.024308
0.0245419
0.0261541
0.109287
0.0382904
0.0273924
0.0244089
0.0232927
0.0233669
0.115088
3.84914
0.0428033
0.0327521
0.0383852
0.0242333
0.0565049
0.293577
0.0563977
0.0221887
0.0420119
0.592125
0.241403
0.0258309
0.0336737
3.51322
0.0235092
0.0222391
2.40964
0.024177
2.92809
0.0244473
0.0832074
0.0296821
0.0706447
0.0282959
0.0823903
0.023949
0.023544
0.0433798
0.023589
0.371752
0.0258249
0.0223387
0.0240955
0.758804
0.742646
2.86873
0.0235235
0.27571
0.0235891
0.217067
0.109424
0.0671149
5.0095
0.0600745
0.0248626
0.0327377
3.26586
0.0234547
0.0311113
0.0257692
0.0244464
0.0237449
0.412734
0.457301
0.042408
0.0240457
0.024697
0.0560992
0.36616
0.0243755
0.0256844
0.0234073
0.0301619
0.0245481
0.0470531
3.93148
0.0222449
0.0256969
0.0514028
0.0234568
0.0253124
0.357704
3.0501
0.0262718
0.0235793
0.374096
0.0299066
0.0282779
0.0246282
0.183911
0.0300855
2.5671
0.0408757
3.30328
2.97313
0.190001
0.0284702
0.431588
0.207101
0.0239904
0.023818
0.145299
0.0235738
0.0419883
0.703513
0.026663
1.87779
0.0240839
0.100632
0.259267
2.86113
2.82428
0.0254928
0.0247421
0.025577
0.0827805
0.0243981
0.0250306
0.343339
0.513899
2.79605
0.0389496
0.0349373
0.0278963
0.0230351
0.659828
0.0244763
0.474945
0.0245797
0.0232346
2.62006
0.0241439
0.0305393
2.87456
0.0243117
0.0261726
0.026122
0.116398
2.81384
0.0245861
0.0336293
3.22626
0.0247493
5.69531
0.0272684
0.0240351
0.0449011
0.0256355
0.0311726
0.0246684
0.0245818
0.0243687
0.0672429
0.223888
0.0356684
0.0238643
0.382361
0.0232393
0.0230426
0.231348
0.0254002
0.0849631
0.025172
0.0239716
0.024149
0.227081
0.0233953
0.412379
3.12765
0.0240274
0.0242898
0.0263051
0.0276423
0.140491
0.0508933
0.0256776
0.0256767
0.0239506
0.0262855
0.040388
0.0252424
2.61746
0.0844018
0.0251251
0.0452507
0.0247195
0.0252678
0.0254331
0.0252568
0.0251906
0.0252006
0.0245922
0.0229153
0.412126
0.0244774
0.0311129
0.0242099
0.0254948
0.0385823
0.0472591
0.134131
0.776942
0.0388309
0.0244617
0.0248075
0.026222
0.0261931
5.36812
0.0848174
2.23575
0.0299095
0.0245525
0.0257704
0.0248133
0.111317
3.46275
0.219551
2.66947
3.88443
0.0253714
0.292435
0.0243666
0.041014
0.0304463
0.0243535
0.0319227
0.0245898
0.111955
0.523241
0.0244454
0.024803
0.0287386
0.144792
0.0331519
0.0246021
0.027065
0.0248973
0.027599
0.0247398
0.0287684
0.024917
0.107624
0.0246769
0.0486576
3.43385
3.03399
0.193489
1.60605
0.0258599
2.86895
0.101823
3.42522
0.0250491
0.149687
0.0235769
2.38931
0.638276
0.0280325
0.236164
0.0273289
0.0251568
0.115036
0.0251628
0.0285859
0.106398
0.0362965
0.0232048
2.79386
0.055622
0.0263104
0.176334
3.44465
0.22648
0.0267751
0.0238672
0.0258058
0.0247021
0.183871
0.360877
0.0248332
0.0245405
0.543434
3.32128
0.0233573
0.0241199
0.113963
0.205164
0.0294191
0.0232366
0.024176
0.0486493
0.0239161
0.0270914
0.0222321
0.0958832
2.52366
2.92097
0.107123
0.0243009
0.0241868
0.0246042
0.0229652
0.206007
0.0279914
0.0244706
0.218671
0.0495549
0.0257775
0.028001
0.0270293
0.0252298
0.0379978
2.98411
0.135931
2.84595
3.25776
0.0434655
0.0313262
0.0256857
0.0252344
0.0334174
0.220013
0.0577108
0.0241612
0.0264265
0.0238097
0.0253212
0.0241864
0.0248551
0.0240221
0.303957
0.0381248
0.0259355
0.0450742
0.0253396
0.0240538
0.0246798
0.124659
0.045751
0.0244594
0.223649
0.0282513
0.382503
0.0251791
0.0248855
0.0614674
0.281591
0.0237556
0.0323712
0.0244829
3.59443
0.162788
0.0342946
0.715161
0.0821536
0.0239845
0.0234261
0.0303146
0.0359105
0.0252696
1.21894
0.0333966
0.02343
0.0239124
0.0535769
0.0340793
5.42757
0.0255556
0.0438278
0.0444135
3.74637
2.32015
0.339934
0.0334781
0.0265142
0.0258063
0.0679181
0.0432035
0.353681
2.29711
0.0236378
0.0313926
0.0288133
0.028074
0.0256462
0.0240914
0.0318771
0.0232766
0.0240627
0.0396248
0.0267153
0.0247907
0.621809
0.0383651
0.11973
0.0330656
0.0253
0.0256707
0.0236316
0.0378404
0.0281271
2.97758
0.215923
0.0234431
1.00196
0.271234
2.96765
0.330027
0.0332307
0.371923
0.0454854
0.359615
0.024452
0.0604637
0.0359886
0.0247861
0.0331465
0.838489
0.0322772
0.0247349
0.205448
0.0282119
0.0236891
1.95979
3.27578
1.04826
0.213876
0.0977201
0.0430898
0.0230159
0.0246104
0.0230271
0.0506585
0.0237164
0.0310696
0.149612
0.289623
0.156936
0.226914
3.52567
2.46489
0.0663867
0.0330565
0.0343136
2.57613
0.0447619
0.0286397
0.0274103
0.0431021
0.0308099
0.0324609
0.0259112
2.99809
0.0601724
2.56859
0.0252678
2.57311
2.52223
1.03055
0.0257597
0.0442036
3.25389
0.566181
0.293528
0.84368
0.0235674
2.31275
1.80841
0.0398192
0.0248643
2.99492
0.0379409
0.0357152
0.0340712
0.356631
0.0416564
0.0229099
0.0228905
0.0822886
0.0396531
0.0754495
0.230382
0.038691
0.123984
0.0267181
0.0232138
0.0233328
0.0294126
0.024759
0.0247452
3.46828
0.193755
0.956089
0.0246203
0.156915
0.864635
0.222065
0.354254
0.0252726
0.0242797
0.354233
0.0242776
0.0243711
0.0325229
0.0651994
3.74488
0.0466553
0.0235893
2.41458
0.0257697
0.0250737
0.0247224
0.0264418
0.022815
0.0242389
0.0259392
0.0592201
0.0251497
0.0945407
0.023279
0.02322
0.0438197
0.0338583
0.065116
0.0294605
0.0249234
0.0253559
0.023377
3.16139
0.027574
0.0235377
0.024242
1.23181
0.0255449
3.14703
0.037494
0.0247945
0.618643
0.0246361
0.0259045
0.024786
0.0245679
0.0249202
0.0325134
0.029219
0.0244812
0.0506664
0.0269696
0.0329517
0.0320864
0.0242555
0.159096
0.0737349
0.0284959
0.0234208
3.02397
0.029097
0.0333971
0.0244791
0.0235848
0.420464
0.269847
0.252931
0.207045
0.0281707
0.0280932
0.0244503
0.0248273
0.0669985
0.0233926
0.0238329
0.0231786
0.0332655
0.0238546
0.0330288
0.352784
0.0353222
0.0235878
0.0529465
0.0289398
0.0238491
0.0239936
0.0397513
0.0238295
3.57646
0.0246419
0.0239068
0.0256572
0.0513762
0.0280295
0.0259817
0.0269857
0.119733
0.02531
0.0273522
0.0557438
0.667285
0.0262782
0.343915
0.0277294
0.0253471
0.0246195
0.0253636
0.046682
0.0334847
0.0252943
0.0242663
0.0356554
2.85268
3.74306
0.0240973
0.103434
0.032369
0.0238801
0.0232913
0.0246525
0.0507617
0.126462
0.0245965
0.0242377
0.026324
3.11649
0.107007
0.0259813
0.0256046
0.675488
0.045014
0.0278675
0.141477
0.032231
0.337073
0.0246756
2.66617
0.0248613
0.0233633
0.0232858
0.108488
0.105829
0.0249857
0.0262075
0.0283344
0.0333047
0.0252175
0.581543
0.36368
0.0377332
0.0238957
0.0300072
0.0241567
0.133102
0.0308854
3.63066
0.026144
0.0280349
0.0277717
0.369539
0.026306
0.0238248
0.207807
0.023319
0.0243174
0.0838688
0.0234937
0.025004
0.0263305
0.341748
0.361057
0.193523
0.045848
0.497168
0.0368169
0.182547
0.0914563
0.024977
0.0227434
3.86874
0.144209
4.50796
0.0246745
0.0451643
0.0349773
0.023731
0.0411928
0.144423
0.0332549
0.076718
0.166562
0.0252426
0.0255806
0.0248867
0.0462701
0.0237451
2.83338
0.0264723
0.0240982
0.0548488
2.94534
0.0725603
0.0333102
0.0251486
0.0298311
0.0255512
0.0668702
0.0244079
0.0461975
0.0896613
0.209665
0.0239702
0.2317
0.0311253
0.0310032
0.0705848
0.0262873
0.0816521
0.0847685
0.0234831
0.0425842
0.0452735
0.0220878
0.0300873
0.0249002
0.381332
0.0365497
0.0675793
2.57801
0.0303017
0.0276613
0.343587
0.023611
0.690103
0.0684011
0.127358
0.0240594
0.0234972
0.0236151
0.0247708
0.024849
0.0244011
0.0240167
0.0744328
0.0462194
0.0252214
0.0938753
0.0243392
0.0235843
0.135274
0.0366986
0.0458932
0.0844554
0.0223596
0.0238786
0.0253204
0.0365798
3.35987
0.0243579
0.0275301
0.0240989
3.24301
0.0237412
0.0366675
0.0491439
0.083081
0.0238051
0.028188
0.0236181
0.350172
0.102369
0.0322102
0.635235
0.387494
0.0247616
0.705505
0.0247139
0.0593988
0.0267174
0.379425
0.161045
0.193977
0.0242755
0.0235752
0.383536
0.0259846
0.143346
0.0223219
0.747402
0.408841
0.023487
0.0320643
0.0245466
2.40277
0.3511
0.0261391
2.7087
0.0279374
2.84028
0.0295691
0.151941
1.77588
0.0620075
0.0720853
0.0252832
0.0271782
0.0252659
0.0240956
0.0249357
0.0284537
0.0470084
0.151001
0.0253941
0.105712
0.0235879
0.0258171
0.0251973
0.0318664
0.024206
0.0252479
0.0245036
2.66055
0.0663635
1.88683
0.0235899
0.127134
0.0235423
0.0226599
0.0239806
0.0435576
0.0732744
0.0473246
0.0235459
0.0242157
0.0261807
0.0246026
0.0298695
0.0239811
0.0794447
0.362044
0.0429622
0.0271057
0.137609
0.148793
0.190808
0.0769565
0.0479584
0.0235802
0.0221681
0.0673079
0.0241751
0.551999
0.0329689
0.112669
0.0250752
0.403241
0.307203
0.0251553
0.0304502
2.80027
0.0250157
0.41695
0.0469808
0.0268835
2.23577
0.0238764
0.0244896
0.0231086
0.101823
0.0630141
0.024542
0.0247102
0.339785
3.25976
0.0248795
0.12932
2.42643
5.36213
0.329444
0.0242285
0.0337744
0.395519
0.0262099
0.107569
0.0675294
0.0282399
2.09325
0.0818838
2.6764
0.0245547
0.239237
0.0238247
0.410316
0.0248532
0.0237076
0.112876
0.0362683
0.0367558
0.0235716
0.239702
0.0464494
0.785915
0.0237095
0.0250745
0.0756092
0.0452047
3.23761
3.82102
0.311966
4.62103
0.0262347
0.0316683
0.0236993
0.0558716
0.0680029
0.0252216
0.150252
0.0237001
0.0250649
3.00093
0.0230714
0.064104
0.0233679
0.0234359
0.0565789
0.699413
0.0285209
0.0977571
1.86688
3.2281
0.0251127
0.0265152
0.036659
0.0233699
0.0242966
0.0303522
0.0228869
0.0233362
0.0292157
0.023287
0.0233201
0.0319074
0.0238755
0.138711
3.73103
0.0246171
0.0240692
0.0461358
0.024204
0.0248957
0.131651
0.0494151
0.0258265
0.023973
0.0240729
0.0840167
0.0279606
0.0295733
0.0252059
0.0434054
0.07295
0.147779
2.89673
0.0236521
0.147216
0.0230909
0.0242928
2.60346
0.0238869
0.0268453
3.10153
0.58936
0.0976241
0.023884
0.0238911
0.2297
0.379645
0.0503841
0.4126
0.0247982
0.029287
0.0253594
0.0362076
0.229601
0.0300874
0.0259186
0.0246222
0.0259785
0.0243914
0.0392875
0.0248367
0.562089
3.53227
0.0236944
0.0258545
0.0250596
0.0240876
0.0338687
3.00818
0.0247898
0.0367069
0.0235167
0.0257409
0.0251214
0.0241039
0.025089
0.0256974
0.0238214
0.024642
3.82387
0.125053
0.0253233
0.0995925
0.0243282
0.0252896
0.0260348
0.0232148
0.0445862
0.0384402
0.0234776
0.024106
0.026872
0.157188
0.052546
0.0283608
0.0252378
0.0241877
0.0388987
0.024659
0.0413932
0.0272415
0.21081
0.0265292
0.0246136
0.0432636
1.33352
0.0259114
0.022971
0.0269582
2.88546
0.421873
0.0221754
0.0255942
0.0319378
0.0271771
0.0227926
3.01831
0.0765451
0.0696726
0.0248992
0.221365
0.0659424
0.0235048
0.0232341
0.0495876
0.0726934
0.0268976
0.0251277
0.0235774
0.0246057
1.24188
0.0238178
0.0299456
3.75031
0.0236338
0.032123
0.0424466
3.429
0.0558654
0.0336996
0.0236647
0.0251313
0.0248787
0.0267401
0.0233575
0.0244508
2.91945
0.0241249
0.0405914
0.0232587
0.0476385
0.0484849
0.168292
2.32191
2.46646
0.0421653
0.0232818
0.0233703
0.0255946
0.339834
0.0247343
0.673878
0.0227041
0.0317502
3.71674
0.0329271
0.0480114
0.023794
0.0265532
0.0383058
0.0236403
0.0242519
0.0351326
0.0344361
0.0268334
0.0324254
2.13021
0.215574
0.0245243
0.051506
3.03282
0.335326
0.0941185
0.109795
0.0492152
0.0275576
0.0668846
3.40647
0.171405
2.99283
0.0319823
0.0238753
0.0759354
0.0259666
0.0245326
0.122948
0.224869
0.0347109
0.0300107
0.0377204
0.0308544
0.0676977
0.143538
0.0250702
0.806352
4.01974
0.252785
0.132096
3.36976
0.208955
0.0242661
0.0566402
0.0250019
0.373814
0.0231406
0.0402957
0.0247368
0.023459
0.0367681
0.254252
1.06631
0.194208
0.042475
0.024404
0.0685559
0.0236517
0.353281
0.631436
0.0242866
0.0246176
0.101844
0.332226
0.0354672
0.0245297
2.93549
0.0241188
0.0232258
0.0234661
1.92788
2.94341
0.0226984
0.0328277
0.0304475
0.0278971
0.0229844
0.21366
0.022746
0.035137
0.0302403
0.02451
0.0756117
0.0238193
2.42001
0.033138
0.0229466
0.0259134
0.0234705
0.0230818
0.0746967
0.0246836
0.108116
0.02377
0.0245184
0.0668337
3.69965
2.24343
0.0240952
0.0265838
0.0244373
3.89736
3.03313
2.90147
0.0242442
3.51857
0.0238641
0.0241045
0.0269298
0.202348
0.256698
0.0252235
0.032
0.0244108
0.0243892
0.0245974
0.0848914
0.0555495
0.0572443
0.0238145
0.0443188
0.032323
0.0583896
0.024426
0.0239113
2.07645
0.0637848
0.0250672
3.30612
0.0561136
0.0826848
0.0229817
3.29871
0.509569
3.28256
0.0269972
0.0243604
0.025907
0.0373368
0.110209
3.3426
0.48834
0.0234612
0.0245476
0.108986
0.0380039
0.027358
0.0383776
0.0610921
0.0702735
0.0289435
0.0241404
0.0253668
0.0350578
0.024188
0.0639804
0.0438585
0.537112
0.0245658
0.337513
0.0693898
0.023965
0.0233408
3.24177
0.0230252
0.132943
2.17869
0.0227609
0.0231346
0.023926
2.836
0.0231469
0.0263731
0.0241693
0.0663038
2.52577
0.0247903
0.0252908
0.120238
2.61554
0.0282178
0.0342696
0.02477
0.0282375
0.0239574
3.55486
0.0234675
0.386059
0.0240104
0.0437161
0.075229
0.286163
0.024697
0.0264417
0.0328664
0.0239559
2.87717
0.024001
0.0241126
0.523373
0.0230256
2.87067
1.0685
0.428423
0.0263345
0.0283531
0.0243013
0.0694172
0.0435122
0.0247132
0.0273755
0.419421
2.59473
3.02538
0.0455686
0.0316345
0.0655575
0.0335945
0.0249312
0.0433504
0.0250968
0.0228132
3.22414
3.43921
0.0244031
0.036522
0.0251394
3.56606
3.5854
0.0246934
0.0239253
0.203593
0.023925
2.52069
0.0949069
0.0272621
0.0429136
0.0263342
0.38224
0.0284637
3.84947
0.160264
0.0249091
0.0251997
0.0321419
2.4411
0.338989
0.0245868
2.7984
0.026369
0.0226259
0.622694
0.0286656
0.0972345
0.0241362
0.0245433
0.0247964
0.112835
0.0226666
0.0260292
0.0562214
0.0252728
2.60522
0.0451276
0.0249313
0.0856612
0.0252882
0.179767
2.38577
0.0260644
0.247938
0.0253009
0.335794
0.0247401
0.0255985
0.036313
2.48427
0.0243699
0.0247296
0.0259674
0.0995323
2.83601
0.0220918
0.0341306
0.0453919
0.0244006
0.0229369
0.024572
0.0401984
2.84801
0.0353667
2.87277
2.42629
0.191156
0.0309543
0.0236368
0.0272268
0.0242151
0.0355879
3.54784
0.0632905
0.0276666
0.0414361
0.0910918
0.0335856
0.0247725
2.78114
0.0238973
0.111165
0.642963
0.237044
0.0229861
0.0280362
0.0254284
0.0230209
0.0316627
0.0671906
0.112756
0.0303592
0.0272819
0.0245682
0.0230877
0.0243494
0.0780751
0.0253906
0.0582283
0.0239264
0.0226422
0.0235964
0.327591
0.02384
0.0237513
2.68681
0.0230647
0.0261224
0.0297128
1.08652
0.0227664
0.025564
3.14536
0.025804
3.28902
4.11833
0.0248409
0.129096
0.347519
0.0247949
0.0702682
0.0244953
0.0236305
2.55927
0.0233275
0.101791
0.0244264
0.135531
0.0230571
0.390051
0.0313077
0.844608
2.35818
0.307509
0.0239928
0.0311272
0.147343
0.02424
0.024108
3.08199
0.145629
0.293653
0.146138
0.0263295
2.89402
0.0242463
0.0242246
0.0227608
2.84186
0.0244701
0.0243866
0.146819
0.0320992
0.0292442
3.25804
0.039546
0.0283589
0.127732
0.0244568
0.0247925
0.0428672
0.0279781
0.0415856
0.0277474
3.23902
0.333621
0.0242084
0.097754
0.0228511
0.024697
2.44151
0.0243276
2.90826
0.0251503
0.188169
0.025999
0.175922
0.0313452
0.0235023
3.4518
0.127149
0.067525
0.348571
0.0383624
0.0256973
0.0246744
2.84277
0.0478164
0.0245837
0.0687124
0.0243056
0.0234311
0.0259367
3.49143
0.0255584
0.0227143
0.0431599
0.0227137
0.0251129
2.74213
0.0608968
0.0894012
0.0228873
0.0243065
3.94874
0.0279261
2.82654
0.022721
0.0246269
0.170012
0.0563343
0.0230567
0.0659294
0.0234195
0.0248932
0.0256426
0.0259797
0.125835
0.0241982
0.0655014
0.0336301
0.0264457
0.0226788
0.0344014
0.093177
0.0324052
0.294552
0.0234921
0.037119
0.234511
0.0237429
0.0676275
0.0241228
0.0457938
0.0227895
0.0383942
0.0220959
3.48955
0.272481
0.0245463
0.246468
0.0438726
2.47496
0.106832
0.204158
0.255463
0.0239902
0.0296426
0.0236229
0.023135
0.0341598
2.52269
0.0389551
0.0229308
0.0278401
0.356911
1.22613
0.211199
3.19857
0.229241
0.023303
0.0247817
0.0302943
0.0244907
0.0245702
0.209715
2.66925
0.0247263
0.0287612
0.78958
0.181205
0.0245411
2.78594
0.0423547
0.0245387
0.0561651
2.90187
0.29787
0.170033
0.0256002
0.310431
0.0239756
0.092829
0.0562541
0.0245655
0.0456655
0.100306
0.133836
0.0248982
0.0251505
0.0270196
0.45112
0.0664821
0.0324164
0.0401203
0.0397885
3.6191
0.0363435
0.0269274
0.104752
0.681679
0.122915
0.186188
0.0239422
0.0233714
0.0273389
0.0558671
0.164339
0.176607
0.576088
0.0263421
0.0417726
0.165598
3.23236
0.0803577
0.0252701
0.0652804
0.0256408
0.0304969
0.0260095
2.65168
2.66232
2.59377
0.0247625
3.18667
0.175242
0.0239666
0.107732
0.02456
0.15301
0.0326679
0.02392
0.028501
0.0235815
3.44391
5.02143
2.68636
0.0243768
2.96701
0.0271249
0.0288654
0.0252677
0.0238668
0.0317331
1.16394
0.0271701
0.0457805
0.0268046
0.031976
0.0362251
3.13592
2.52898
0.341808
0.0244395
0.02299
0.135703
0.0237515
0.0227568
3.48507
0.0256277
3.40508
0.239822
0.181982
0.0230429
0.025392
2.96717
0.0249626
0.0265418
0.0267647
0.025304
0.0288591
0.056572
0.133413
0.0236208
0.023125
0.0227889
0.0449397
0.0297593
0.308927
0.368301
0.0415574
0.0243079
3.17503
0.0247103
0.0239008
0.0233078
0.0309896
0.0245866
0.028653
0.0377898
0.223953
0.238946
0.625558
0.168352
0.137101
0.0250803
0.0274275
0.126995
0.0247178
1.16252
2.87722
2.39785
0.368477
0.0239605
0.0314456