/*--------------------------------*- C++ -*----------------------------------*\
| =========                 |                                                 |
| \\      /  F ield         | OpenFOAM: The Open Source CFD Toolbox           |
|  \\    /   O peration     | Version:  v2012                                 |
|   \\  /    A nd           | Website:  www.openfoam.com                      |
|    \\/     M anipulation  |                                                 |
\*---------------------------------------------------------------------------*/
FoamFile
{
    version     2.0;
    format      ascii;
    class       volScalarField;
    location    "200";
    object      p;
}
// * * * * * * * * * * * * * * * * * * * * * * * * * * * * * * * * * * * * * //

dimensions      [0 2 -2 0 0 0 0];


internalField   nonuniform List<scalar> 
27802
(
-0.03308
0.00198712
0.00338432
-0.0074123
-0.0819206
-0.00126191
0.0043159
-0.00142988
0.000243323
-0.0238753
0.000531042
-0.0642128
-0.0547506
-0.0113229
-0.00777461
0.00439897
2.39505e-05
-0.0718246
-0.0499223
0.00309454
0.00197269
-0.0056509
-0.0334294
-0.0658475
0.00190536
-0.0121526
-0.0020318
-0.0234606
0.00190542
-0.00288996
-0.0137374
0.00493014
-0.0596465
0.00516445
-0.0594022
-0.0099618
0.0181049
-0.0149314
-0.0135119
-0.00313803
-0.0212214
-0.00333703
-0.0947198
0.00859493
0.00246415
-0.00715786
-0.0690538
-0.0130707
0.00228682
0.00822263
-0.0215424
0.00245459
0.00458263
0.00195956
-0.000399371
-0.000808009
-0.0585851
-0.0106849
0.003109
-0.0524948
-0.0099797
0.0031169
0.00430403
0.00416958
-0.0715896
-0.0584995
-0.0656969
0.00136592
-0.0967191
0.00512109
-0.00332608
-0.064255
-0.000521291
-0.0638082
0.000192208
-0.0283186
-0.0137028
-0.0654223
0.00799926
0.00427718
-0.0776937
0.00813162
0.0023131
-0.00960692
0.00314797
-0.0159444
0.00192414
-0.000555064
-0.064084
-0.0789409
-0.0648862
0.00307212
0.000779366
0.00438453
0.00196491
-0.0138205
-0.0478666
-0.0822176
-0.0212776
-0.068146
0.00844072
-0.0210932
-0.0196723
-0.0107329
-0.0774234
0.00306382
0.00569739
0.00088882
-0.00989422
-0.0448215
0.00406131
-0.00759027
-0.0210526
0.000143467
0.0022254
0.0186163
-0.00924801
-0.000735181
-0.0427192
0.00217874
-0.0558459
-0.0636882
-0.0570103
0.00190977
-0.00933057
0.0020328
-0.0430221
0.00192023
-0.0578229
-0.0545006
-0.0192554
-0.056269
0.00304304
-0.021954
0.00230768
0.00103458
0.00235476
0.0023626
0.00398672
-0.0215254
0.000849395
-0.00185294
0.00196907
0.00220899
0.00224712
-0.0111861
0.00242108
-0.00530028
0.00248425
0.00300331
0.000434175
-0.0127914
-0.0323957
0.00157169
0.00141854
0.00169045
0.00529939
-0.0653225
-0.0449006
-0.0532549
-0.0395017
-0.0639131
-0.0155759
-0.0419647
4.22749e-05
0.00222787
-0.000662287
-0.000617867
-0.0146429
0.0039098
-0.0106146
-0.00888737
0.00241459
0.0582193
-0.0134336
-0.0697215
0.00221057
-0.0370844
0.00242738
0.0181496
-0.0662758
-0.00660931
-0.0221096
-0.011203
0.00247568
-0.0377331
0.00173036
0.00204101
-0.0411789
-0.0698641
0.00154664
-0.00135782
-0.0359318
-0.0253152
0.0019811
-0.00300218
0.00196419
0.00241625
-0.00727256
-0.00163545
-0.0549818
0.00144315
0.00598804
-0.0144347
-0.00971644
-0.0551121
-0.032002
-0.0843754
0.000245631
-0.0529923
-0.0103293
-0.0391996
-0.0681111
-0.0364665
-0.0436684
-0.0034232
0.00331975
0.00427018
-0.0139156
0.00241313
-0.0576999
0.000194773
-0.036912
-0.0105801
0.00247654
0.00233949
0.00233359
-0.00107227
-0.00714035
-0.0215602
0.000241423
-0.0517875
-0.0140995
-0.0346936
-0.0575114
-0.0218391
-0.00165716
-0.081704
-0.0581619
0.000478694
0.00179235
0.0454859
0.0500173
-0.00927028
-0.00647927
-0.059626
0.00240251
0.00336696
0.00414105
0.00327967
0.00762465
-0.0264076
-0.0295868
0.00197629
-0.0075259
0.00196599
0.00307362
0.00733011
-0.0139898
0.00195611
-0.0257371
-0.0193075
-0.0633707
0.000201217
-0.0572141
-0.0381001
-0.05612
-0.0215421
0.000151863
-0.0136514
-0.0653421
-0.00472821
-0.0196716
0.00552686
-0.0249627
-0.0641097
-0.00567173
-0.0428917
-0.0374028
0.00302803
-0.04101
-0.0364972
0.000676699
0.00784791
-0.0620314
0.0133189
0.00743127
-0.0129711
-0.0199547
0.000706765
0.000170964
0.00530311
0.00195075
0.0159454
0.00194085
0.00619609
0.0168702
0.00320626
-0.0531735
0.00219732
-0.0590132
-0.0116959
0.00432093
-0.0515931
-0.0608983
0.0036159
-0.0189891
-0.0584104
0.00311565
-0.00541799
-0.0105846
-0.0352969
-0.0523333
-0.022337
0.00611388
-0.0102035
-0.010751
-0.031807
-0.0461862
-0.0110388
-0.00931285
-0.00991608
0.000194274
0.00230094
0.00648262
0.00291709
-0.0620648
0.00293904
-0.00973549
-0.0318161
0.00298035
-0.100641
-0.00198069
0.0241976
-0.00744607
0.0576036
-0.0524069
0.0020174
-0.0656428
-0.00452155
0.000168389
-0.0649975
0.0152424
0.00860844
-0.0624978
-0.0149463
-0.0697164
4.82432e-05
0.00426664
-0.0796602
0.00196707
-0.0799101
-0.00932951
-0.00886675
0.000847158
0.0027292
0.00431526
-0.0802908
0.0017097
0.00232896
0.00447509
-0.00715115
0.0023568
-0.0164534
0.00196798
-0.00203558
0.000240353
-0.0129241
-0.0358697
-0.000636563
0.00198758
-0.0704699
-0.00287496
-0.0632408
-0.0116919
-0.0569685
-0.00230047
0.00396708
-0.00651116
-0.00787677
0.00204062
0.00197917
0.00068785
0.00226121
0.00155017
-0.00345647
-0.071146
0.00500794
0.00480893
-0.000440294
0.00287211
0.00128813
0.00310879
-0.0460023
-0.00671911
-0.101825
-0.0146349
-0.0659518
0.000829401
-0.0372495
-0.0624983
-0.0437008
0.00284495
0.00231245
-0.0148565
-0.00602632
-0.00689195
-0.0693164
0.0139544
-0.010353
-0.0539138
-0.00203691
-0.0539129
-0.056399
0.00168205
-0.0136607
0.00232556
-0.032122
0.00221225
-0.00699259
-0.0902118
0.0041501
0.00509578
-0.0124872
0.00285509
0.0010957
0.00407347
-0.0578122
0.00865299
-0.0213663
-0.00444957
-0.00785836
0.00100429
-0.00406688
0.00106531
-0.00684972
-0.055119
-0.00405013
-0.00336538
-0.0215713
-0.0370809
0.00511856
0.00178967
-0.000714681
-0.0347167
-0.00968951
0.00208044
0.00406709
-0.0533661
-0.00431543
-0.000117697
-0.0858317
0.00400167
-0.0757197
0.00194482
-0.035193
-0.0344448
0.00624489
-0.0119266
-0.000566878
0.00794561
0.0017048
0.000922743
0.00191851
2.33307e-05
-0.0309808
0.00196804
-0.00956779
0.00615233
0.0020806
-0.0141674
-0.000646763
-1.06946e-05
-0.0569852
0.00650706
-0.011151
0.00314127
-0.0606694
0.000176885
-0.0151234
-0.0625073
-0.014639
-0.000352385
-0.0309132
-0.0532019
0.00181405
0.000966791
-0.017934
-0.0628147
-0.00331042
-0.00952005
-0.000746377
-0.00222589
-0.0574071
0.00315311
-0.0639219
0.000172648
-0.00018207
-0.00398701
0.0045385
-0.0570407
-0.0474698
-0.0172985
-0.0541989
0.000442455
-0.0641227
-0.000450552
-0.00741282
-0.0514799
-0.0088154
-0.00104055
0.0148791
-0.00318882
-0.000794027
0.00152307
-0.0681546
-0.00012377
0.00445375
0.000810023
-0.00494357
-0.0308342
-0.0163398
-0.00146786
0.00691431
0.0240128
-0.00489919
0.00195175
-0.00916835
-0.00081483
-0.0642392
-0.00174693
-0.00219515
0.00225527
0.000295895
-0.0642427
-0.00775256
-0.015108
-0.00438397
0.00196462
0.000820955
-0.083982
0.00154491
0.00306545
0.0022371
-0.0507893
0.00184742
-0.0289724
-0.0662107
-0.036188
-0.0488122
-0.119419
-0.0568541
-0.00763756
-0.0949154
-0.013639
-0.0660135
-0.0176119
0.003
0.000300347
-0.00592241
-0.0137556
0.0169785
-0.00251268
-0.00429516
0.00193766
-8.87492e-05
-0.00420087
-0.0116324
0.00106458
-0.0713798
-0.0660342
-0.0540488
-0.0970546
-0.0472741
-0.0654781
-0.0390383
-0.0594896
-0.0133747
-0.0362913
0.0004737
-0.0425724
-0.0597392
0.00617768
-0.0242257
-0.0888886
-0.0600887
0.00197099
-0.0919227
-0.0614316
-0.0645393
0.0055318
-0.0551059
0.00197881
-0.000361335
-0.0593166
0.00211558
0.00623512
-0.0521152
0.00195321
-0.000886172
0.00240303
-0.0653369
0.00138994
-0.0244107
-0.0145891
-0.0521951
-0.0245342
-0.0391025
-0.0101147
-0.0807414
-0.0197931
-0.000221812
0.00543604
0.00252251
-0.000827342
-0.00706442
-0.0406904
-0.00117729
-0.0582664
-0.0637599
0.00236859
0.00626967
0.000705149
-0.0764673
0.00208877
0.0131647
-0.0207857
-0.0648088
0.00622599
-0.000352476
-0.0169349
-0.0326771
-0.0615463
-0.00718883
-0.0353032
-0.00918707
-0.0303779
-0.00855348
-0.0600174
-0.00737206
-0.0135554
-0.0390968
0.00215227
-0.0575513
-0.0627711
-0.0225703
0.0142267
-0.0165944
-0.0706241
-0.0071727
0.0023262
-0.0499736
-0.0513756
-0.113106
0.00420708
0.00431785
-0.0064406
0.00223706
0.00288598
-0.0131085
-0.0015009
0.00627529
-0.0661476
0.0280363
0.00103552
-0.00256357
-0.00804351
-0.0284197
0.026596
0.00222877
0.00108602
0.0057379
0.035856
-0.0195211
-0.0033085
0.00109953
0.00204433
-0.000841232
0.00286183
0.00402889
0.0330454
-0.000677656
-0.0418392
-0.00197276
-0.118554
-0.0738967
-0.0197121
-4.35596e-05
0.00196037
0.00120357
0.00157939
0.00265777
-0.0136765
-0.0359474
-0.0576534
0.00198284
0.00332016
-0.0641851
-0.00426491
0.00189635
0.00425124
-0.0470712
-0.00462865
0.00171607
-0.0138266
0.00464936
0.00222605
-0.00928067
-0.0563502
-0.0203548
0.00595468
-0.0618141
0.00263182
-0.0558649
-0.00950487
0.00500583
-0.0550137
-0.126591
-0.0536802
-0.0135822
-0.101383
0.000559713
-0.00439384
-0.0276762
-0.0602336
0.00351333
-0.0163259
0.00512482
0.0269449
-0.0615265
0.00341097
-0.0722374
-0.031027
-0.00927933
0.00950183
-0.0250917
0.00568933
-0.0114645
0.00278844
0.00208293
0.0012604
0.00181522
-0.0695575
7.26084e-05
0.00350746
-0.0640254
-0.00773291
0.00136131
-0.0154316
-0.0572665
-0.0525341
0.00604404
0.00207402
-0.0164266
-0.0048591
-0.032928
-0.0210526
-0.00668834
-0.00271211
0.00339179
-0.00832122
-0.00526326
0.00151851
0.010409
0.00229209
-0.0676388
-0.0728472
0.00487485
-0.00884444
-0.00236845
0.00181086
-0.0559896
-0.00222811
0.00604979
-0.00558834
0.00622912
-0.0641892
-0.00557944
-0.00146273
-0.0153363
0.0104534
3.63505e-05
-0.0156723
0.00470272
0.00102143
-3.08351e-05
-0.114307
-0.00906799
0.0031806
0.000993604
-0.0218932
-0.0329541
0.00533786
0.00995651
-0.00882389
-0.0943469
-0.0436771
-0.0539244
-0.0418318
-0.0172249
0.0057864
0.00510554
0.00597865
0.00161675
0.00431129
-0.0574959
-0.032683
-0.0427328
-0.0785764
-0.00308312
0.00242942
0.0639407
0.0114518
0.00421336
-0.00042756
-0.00638082
-0.0176217
-0.00603812
0.00600623
0.00220074
6.46885e-05
0.00130315
-0.0101005
-0.00999509
0.00167136
-0.0131414
-0.0588753
-0.0615179
-0.0590572
-0.00361988
-0.0488294
-0.0246572
-0.000655345
0.000228234
-0.00261145
-0.0751067
-0.0328438
0.00277098
0.00194205
0.00193451
-0.0585895
-0.03316
-0.0614266
0.00328679
0.000222488
7.99543e-05
-0.0028981
-0.00669749
-0.056414
-0.0477728
-0.0462832
0.0064532
0.00201759
0.000103033
0.00280899
-0.0171657
0.031021
-0.0594916
-0.084425
0.0039675
-0.035109
0.00596075
0.000280339
-0.00397636
-0.0596375
-0.0117885
-0.00235401
-0.0044233
0.00228284
0.00220756
-0.0600468
-0.0326576
0.00165347
0.000993652
-0.00876748
-0.0602745
-0.0401503
-0.0968681
-0.0270766
-0.0290643
-0.0619238
-0.018657
-0.00906168
-0.00267499
-0.021046
-0.0506104
-0.00821346
-0.0566818
0.00428896
0.036159
-0.000677998
-0.00676746
-0.0621517
0.0021979
-0.00102397
0.00240662
0.00120995
-0.00348147
-0.0588933
-0.0169782
0.0333826
-0.00338546
0.00419837
0.00226023
0.00190638
0.00192206
-0.00949394
-0.00838934
-0.0146491
0.00781908
0.00895125
-0.00289161
-0.0919138
-0.0487877
-0.0140031
-0.0212142
-0.00314307
0.00226079
-0.000977084
0.000889806
-0.0783484
3.03461e-05
0.00274814
-0.00134372
-0.0541314
0.0026009
-0.00985404
0.00211607
0.000272383
0.00376525
0.00170283
-0.109483
0.00194412
0.00208092
-0.0596925
0.0017171
-0.0357222
0.000858682
-0.0513632
-0.108874
0.000203333
0.00411361
-0.0216573
-0.044893
-0.051989
0.0166513
0.00236891
-0.0534149
-0.106824
0.00259839
0.00415462
-0.000462237
0.00367785
0.00402097
-0.0525878
-0.00663854
0.00217723
0.00242278
0.00140646
-0.0662488
-0.0354372
0.00151977
-0.00072051
0.00354997
0.00214679
0.00146874
0.00211716
0.000223078
-0.000214239
-0.0309621
-0.00640966
0.00211579
-0.0288888
0.00210986
0.0022193
-0.064881
0.00420249
-0.0146978
-0.00186313
-0.0132578
0.00716212
0.00217446
-0.0865571
0.00341469
0.0091062
0.00226215
-0.0595218
0.00784016
0.00390144
3.73455e-05
-0.0485248
0.000212009
-0.0647276
0.00375685
0.000645168
-0.0266472
-0.0589616
-0.0783375
-0.00653108
-0.130445
-0.065253
0.000999894
0.00211841
0.00138916
-0.0535497
-0.0588165
-0.0132305
-0.0237079
0.000150972
0.00189106
0.00185649
-0.00762353
-0.0157232
0.00149327
-0.0352169
-0.0633979
0.00328477
0.00271445
0.00126111
-0.00163219
0.000716003
-0.0534363
0.00220365
0.00247051
-0.0687656
0.00156087
0.00180481
-0.0152396
-0.0084235
0.029914
-0.0463222
0.0015474
-0.00126401
0.000189716
-0.00566638
-0.110445
0.00257111
-0.00425674
0.00301718
0.002278
-0.0285476
-0.002848
-0.00772199
0.0372563
-0.012573
-0.0341201
-0.0123881
-0.0122981
0.00204918
-0.0928334
-0.0767343
0.00392381
-0.00344729
0.000526201
0.00410424
-0.0206698
0.00251909
-0.00710771
-0.0623196
0.00153886
-0.00706967
-0.0368734
-0.0258128
-0.0652003
-0.0786243
0.00462872
-0.00131139
0.00381524
-0.00738746
-0.0147388
0.000713122
-0.0355131
-0.130523
0.00226621
0.00156848
-0.00325349
-0.0131954
-0.00508014
-0.00471735
-0.00278856
-0.056151
-0.067203
0.00612285
-0.0459624
0.00187245
0.00190421
-0.0605224
-0.0545019
-0.0341672
-0.0245778
0.00203549
-0.0580767
-0.0623086
-0.0529203
-0.0424602
-0.0417519
0.00217298
-0.00592922
-0.00686845
0.00264726
0.00183624
-0.00998197
-0.0347776
0.00417979
-0.065264
0.00597174
-0.00589738
-0.0659106
-0.0126974
-0.00646866
-0.0511973
-0.0655664
-0.0323803
-0.0020953
0.00203502
0.00211348
0.00686842
0.00264158
-0.00418007
-0.03409
0.00212089
-0.00258998
-0.0171883
0.00355191
0.00211723
-0.0127513
-0.00541856
-0.00697786
0.00136724
-0.00294763
-0.0128529
0.00614002
0.00396607
0.0020551
-0.0693356
0.00201555
-0.113962
-0.0201144
-0.0491716
-0.0164436
0.00142038
0.00222047
-0.0571873
0.00123885
-0.00896219
0.000780916
0.00244046
-0.063271
-0.0660921
-0.100908
-0.0129375
-0.0157383
-0.0182542
0.00134121
0.00599085
0.00191015
0.00321489
-0.0630594
0.0314039
-0.0100038
0.00144045
-0.0578392
0.00167313
0.0645638
-0.0580618
-0.0476305
-0.0445322
-0.106018
0.0158886
0.00230342
0.0312554
-0.00427677
-0.0321017
0.00216299
-0.0185694
-0.0250575
-0.0123786
0.00643099
-0.0186675
0.00423031
-0.00018659
-3.0602e-05
0.00330169
0.00227386
0.00393382
-0.00417051
0.00188635
0.00500028
-0.0225993
-0.0679728
-0.0773896
0.00107284
-0.0055855
0.00191684
-0.0260567
0.000393094
-0.0517113
-0.0400452
0.00428876
0.00502518
-0.00609085
0.00380923
0.0169085
0.00223143
-0.0122341
-0.0500289
0.00204449
-0.0584752
-0.0651305
0.00672143
-0.0145453
0.0025027
-0.000782361
-0.00367078
-0.0475513
-0.0011469
-0.00145371
-0.0594938
-0.0578526
-0.0430401
0.00249395
-0.0616226
0.0022936
-0.0625003
-0.0177385
9.13799e-05
0.00325803
-0.0121121
-0.0603658
-0.126637
-0.00343186
0.00312924
0.0024831
-0.0427849
-0.0163218
-0.0125675
0.00142833
0.00239456
0.00447747
0.00237781
-0.0112976
-0.00830683
-0.0449733
-0.0698851
-0.00822597
0.00228669
-0.0428989
-0.0265119
-0.0554447
0.00179473
-0.0359399
-0.0279442
0.0024699
0.00179037
-0.0655078
0.00207841
-0.00700729
0.00409939
-0.000159809
0.00838965
-0.0158299
-0.00910711
0.00197221
-0.0412788
-0.063031
0.0188277
0.0017214
-0.0079334
-0.0348639
0.00225115
0.00110686
-0.00573906
0.00242334
0.00309803
-0.0341516
-0.0171555
0.00231126
-0.0684225
-0.0484855
-0.0045189
-0.0353125
-0.00406475
-0.0652748
-0.0634439
-0.00678873
0.00177304
-0.0423388
-0.0683926
-0.0572894
-0.0634708
-0.0617512
-0.0593763
0.00630786
-0.00782845
0.00245796
0.00149129
-0.00644235
-0.0312968
-0.0645873
-0.0434989
0.00179592
0.00670873
-0.012448
-0.0601697
0.00129578
0.0021626
0.00203808
-0.00239835
0.00311117
-0.011543
-0.0629868
0.0015093
-0.00398562
-0.00234934
-0.00163604
0.0145495
-0.00398806
-0.00954971
0.00357072
-0.0546631
-0.0633501
-0.0193045
-0.0108302
-0.049608
0.00439768
0.00211216
0.00248842
-0.0609606
0.00199256
0.0021989
0.00291928
-0.0323707
0.00192502
-0.0275433
0.00122248
-0.0275252
0.00215067
-0.0644879
0.00665568
-0.00230149
0.00715031
-0.0629232
-0.0602542
0.000219882
0.00524961
0.000408236
-0.00337507
0.00190121
-0.0876526
-0.0410281
-0.0736732
-0.0101154
0.00194063
0.0393446
-0.0069226
-0.00982088
0.00193567
-0.0598423
0.00528263
-0.0334314
0.00178928
0.00238072
0.0023939
-0.0398757
-0.0548855
0.000158353
-0.0335076
-0.0142477
0.00206869
-0.0577461
0.00368178
-0.0572125
0.000158382
0.00807511
0.0467165
0.000553001
0.000328693
0.00652403
-0.0590398
0.00191616
0.000121018
0.036161
-0.00458939
-0.0735114
0.00172655
0.00429163
-0.0423627
-0.0472496
-0.0123937
-0.0621311
-0.000310287
0.00247912
-0.0309896
0.00243731
0.00272014
-0.0159551
0.000221814
0.00228268
0.0195659
-0.0660681
-0.0759867
0.00193391
0.00979489
0.00107931
-0.0631063
-0.0629673
0.00506336
-0.0663792
0.00392019
-0.00651776
-0.0511809
-0.0719598
0.00218784
0.00347047
0.00428067
0.00184913
0.0014049
-0.0105808
0.0472039
6.03572e-05
-0.0038967
-0.00570023
-0.0633414
0.000862361
-0.00345539
-0.007307
0.0024377
-0.0270328
-0.010088
-0.0312754
-0.0598837
7.80997e-05
-0.0110562
0.00835902
0.00206869
-0.00365838
-0.0157097
-0.0618151
-0.0334167
0.00109874
-0.00590756
0.00670695
-0.012897
-0.000432786
-0.00553507
-0.0131305
-0.134015
-0.0160423
-0.0706635
-0.0908176
-0.0380055
0.00526878
0.000519934
-0.0636355
0.00188814
0.00276742
-0.0634962
0.00241127
0.0050515
-0.0079862
-0.00801912
-0.0418244
0.00186838
0.00262778
0.00122929
-0.0597084
-0.110494
-0.00813966
-0.00411045
-0.0024996
-0.0512255
-0.00995798
0.000536465
-0.00768887
-0.0187937
-0.0981509
0.00552865
0.00728834
-0.00937253
0.00220753
-0.0208431
0.00179214
-0.00105097
-0.00223901
0.00227818
0.0422507
0.00190954
-0.0292039
-0.0700773
-0.00806336
0.000142206
0.00396714
0.00116609
-0.0594712
-0.00063211
-0.0174985
-0.0572079
-0.0185355
-0.0535355
-0.0331878
-0.00370406
0.00782711
0.00278073
0.00608976
-0.0160227
0.00204028
-0.00984708
-0.0211625
-0.0633786
0.00612978
0.0028038
-0.0033813
0.00228439
0.00221542
-0.00391764
0.00283938
-0.000255916
0.00185085
0.00171119
0.00208208
-0.0689633
0.00244699
-0.00638409
-0.0725057
-0.00363269
0.00209782
0.000430492
0.00258746
-0.0632013
-0.00195434
-0.00695815
-0.00222656
-8.86485e-05
0.00176872
-0.00254174
0.00190722
-0.0944739
0.00477349
-0.0227421
-0.0157129
0.000506584
-0.0189484
-0.00584926
-0.0164762
0.00203575
0.00211731
-0.00698571
0.00199213
-0.00681221
0.00327098
0.00209946
-0.0036188
-0.00846295
0.00602777
-0.0146284
0.0019
-0.0143405
-0.0548185
-0.00226649
-0.0111334
-0.00553662
-0.00812947
-0.128312
0.000525086
-0.001462
0.00683029
-0.000390568
-0.0196374
-0.0190998
-0.00169689
-0.0630775
-0.0635029
0.0364018
-0.0556182
-0.00582194
-0.0616204
-0.0036335
-0.0144195
0.00238212
-0.00760941
-7.97605e-05
-0.00473253
-0.0609372
-0.0102137
-0.00268893
-0.0188466
0.00566131
-0.063235
-0.0453049
-0.0134524
0.00194464
-0.011134
-0.042071
-0.000866868
0.00237927
0.0018535
-0.0594273
-0.00586761
-0.00143782
-0.0649775
-0.0622283
0.00153321
0.0475326
-4.67912e-05
-0.11076
0.0176568
-0.054689
-0.00844138
0.0304683
0.00228512
0.0264038
-0.0129968
-0.0131752
0.0076069
0.00196841
-0.0110173
-0.06582
0.00082098
-0.00480061
0.00463908
-0.00997297
0.00202642
-0.101867
-0.0315541
-0.0344964
-0.0662026
-0.0551154
-0.0672337
-0.028032
0.000241237
-0.00826881
-0.00459808
-0.0444072
-0.0141181
-0.00228043
0.0033226
0.023693
-0.0692763
0.00210302
0.00281658
-0.065207
0.00849238
-0.0417672
0.00197834
0.00268457
-0.00136323
-0.00019383
-0.0334642
0.000131386
-0.0666503
-0.0761982
-0.0883621
-0.0648356
-0.00788885
-0.00630347
-0.0136385
0.00210493
-0.067741
0.00458489
0.00202288
-0.0631634
0.000697374
0.0010197
-0.0393292
-0.0221231
-0.0161212
-0.0389494
-0.0667128
0.0196116
-0.073158
-0.0549645
0.00634054
-0.0296448
-0.00898474
0.00189015
-0.0170407
-0.0683394
0.00422186
-0.00403207
-0.0147516
0.00272876
-0.00330232
-0.00636936
-0.00886014
0.00291002
0.000601596
-0.00354273
-0.00722356
-0.0238282
-0.0168398
-0.00396718
-0.0163209
-0.0520735
-0.0530955
-0.00986555
-0.012287
0.00253928
-0.0060478
-0.0110493
-0.0154363
-0.0135033
0.00165452
0.00271453
0.00344957
0.0032688
-0.0614464
0.0334393
0.00731332
-0.0373442
0.00601725
0.0025596
0.00167357
-0.0277441
-0.00567168
-0.00477099
0.00480282
-0.0451999
0.00165222
0.000703742
0.00363534
0.00153402
-0.0713621
0.00385684
0.00661379
-0.0576012
-0.101322
-0.0363884
-0.0626877
-0.0186313
-0.0147922
0.000931355
-0.0381459
-0.0282124
0.000981606
0.0045842
0.000924451
0.00517544
-0.00455144
0.00473127
-0.0230384
0.00287824
0.00605337
0.00208375
0.000416258
-0.0341916
-0.0269957
-0.0120723
-0.0149801
0.00556456
0.00332475
-0.0230293
-0.0134376
0.00389723
0.000980026
-0.0497155
-0.0363871
-0.0668418
0.040341
0.00206028
-0.066636
0.013446
-0.0937699
-0.00198114
-0.023716
-0.00046981
0.00818075
-0.00642309
-0.00120187
0.00456021
0.00630159
-0.0117644
-0.0459206
0.0341725
0.00324804
-0.0182234
-0.0637348
-0.00560065
0.00236323
0.0512128
-0.0588552
-0.0208395
0.0345538
0.000155382
-0.0538332
0.0022021
0.00203029
0.00220998
0.00816989
0.00219584
-0.0301969
-0.0633044
0.00236283
0.0030645
-0.0631834
-0.0602397
-0.0358659
-0.054713
-0.0293464
0.00648041
-0.118463
-0.0310171
-0.0167472
0.00205803
0.0032638
-0.0286851
0.00328207
0.00358177
-0.0932475
-0.0123176
-0.0923252
-0.00154384
-0.123124
-0.0745881
-0.0696722
0.00336183
-0.00428869
-0.0586276
0.0147124
-0.0613725
-0.0148899
0.00223985
-0.0499031
-0.0390296
-0.0162318
-0.0214865
-0.0952041
-0.0403143
-0.0153706
0.00114676
-0.00657113
-0.0347498
0.00200914
0.00202142
-0.0628451
-0.0124907
-0.0465116
0.0445959
-0.00366917
-0.0403599
0.00458739
0.00209516
0.00207426
0.00603144
-0.0188685
-0.0184933
-0.0618356
-0.0662712
-0.0660458
-0.00176172
-0.00128379
-0.000634647
-0.06325
-0.00530501
-0.0208554
-0.00375123
-0.0152504
-0.00577635
0.00318012
0.00306746
0.00133173
-0.0573013
-0.0323788
0.00112193
-0.0350953
-0.000655828
0.00310926
-0.0178653
-0.00905125
0.00195483
-0.00752898
-0.00550408
-0.0099739
0.00341824
-0.0442577
0.00228878
0.0020686
-0.0238141
-0.0237501
-0.0392908
0.00611659
0.00110771
-0.0133725
0.0021908
-0.058045
-0.0211477
0.00242227
-0.00687235
0.00920887
-0.0144169
-0.0604473
-0.00787132
-0.000420601
-0.0143153
0.000158336
-0.0201172
-0.0123199
-0.00915434
0.00176715
-0.0396718
-0.00383732
-0.0112507
0.0138169
0.00494592
0.00804948
0.0078028
0.00271613
-0.0648665
-0.0467391
0.00520835
0.00239291
-0.061587
0.00584044
-0.0181955
-0.00122819
0.00237066
-0.0663099
0.00350559
0.032279
-0.0137043
0.00244115
0.00415953
-0.00988686
-0.00863773
-0.0431852
0.00237103
-0.000604768
0.00205732
-0.0466504
-0.00129688
-0.0329662
-0.00512512
-0.015599
0.00239462
0.00474057
0.00550923
-0.00119517
0.00181192
-0.0326484
0.00253406
-0.0533573
-0.00210636
-6.72501e-05
0.000730025
0.014391
-0.0136742
-0.0114105
-0.0124357
-0.041261
-0.0164943
9.04543e-05
0.00199422
-0.0296159
-0.00335015
-0.0624701
-0.0383693
0.00377709
-0.0143655
-0.00376347
-0.0154574
-0.0526788
0.0033146
-0.00574413
-0.0518255
-0.0867466
-0.109609
-0.00190165
-0.0463958
0.00436097
0.00223416
0.00218288
-0.00776486
0.00895093
0.0037248
-0.0146257
-0.00675826
-0.0150601
-0.0712278
-0.065557
-0.00350233
-0.0284642
-0.0227423
-0.0166349
-0.0177041
-0.051011
0.00314699
-0.0101073
-0.00417015
0.0513709
-0.0186075
0.00221005
0.0021659
-0.0651886
0.00304695
-0.00562014
-0.034124
-0.00397004
0.00653428
-0.00150459
-0.00980609
0.00287737
-0.00729396
-5.68528e-05
0.00270193
-0.0038884
-0.00634075
0.00416404
-0.0572489
0.00313055
-0.0366586
-0.0424115
-0.0207899
0.00133297
-0.000610388
0.00701387
0.00218146
-0.00802511
0.00290591
0.00145618
0.00130995
0.00164501
-0.00177521
0.00222393
0.00195693
-0.0393476
-0.0683882
0.00812493
-0.00821485
-0.0433222
0.00125841
0.00164551
-0.058566
-0.0630606
-0.0662249
0.000172381
-0.0303201
-0.00596495
0.00221385
0.00152961
0.00226143
-0.047561
-0.0059177
0.00205432
0.00371923
-0.0261305
-0.0151267
0.00798959
0.00163152
-0.081689
-0.00703521
0.000195704
0.00580552
-0.0654454
0.00135685
-0.028832
-0.0249263
-0.0132228
-0.0147956
0.00218056
-0.0104671
-0.0326192
-0.000707058
-0.0667893
-0.00190159
-0.0630212
-0.00559444
0.00464658
-0.0485128
-0.033081
0.0144273
-0.0647144
0.00236559
-0.0363337
-0.0605993
7.85355e-05
0.00204618
-0.0131984
0.00302656
0.00383364
-0.0183127
0.0547324
-0.00540933
0.00506906
-0.0135249
0.000233116
-0.0347254
-0.055189
-0.00559236
0.000956005
0.00142054
0.00139102
-0.0191507
-0.000196411
-0.0028461
-0.00345078
-0.0272719
0.0073835
0.00331446
-0.0670469
0.00138604
0.00145313
-0.0623723
0.00186937
-0.0386422
0.0138003
0.000165917
-0.00165369
-0.0209693
0.00593672
-0.0569005
-0.00968377
-0.0385663
-0.00305547
-0.0688104
0.00222609
-0.00915869
0.00208984
-0.0579687
0.00248644
-0.0180783
0.00155697
0.000311302
-0.0480282
0.00411983
0.0300078
0.00226652
-0.00566741
-0.0143421
-0.0176176
0.0021515
-0.0177192
-0.012023
0.0024785
-0.00860643
-0.00362557
0.00230453
0.00313727
0.00285223
-0.0633094
0.000271274
-0.0074586
-0.00133403
0.00192279
0.00623234
-0.00243327
0.0295232
-0.00164883
-0.00843899
-0.0939692
-0.0431319
-0.0746445
-0.0136992
-0.0631684
-0.07788
0.00534423
-0.0351602
-0.024576
0.00203242
-0.0110846
-0.00219422
-0.0127982
-0.00529983
-0.0294881
-0.052803
-0.0168466
-0.067304
0.00234013
-0.025674
0.00293982
-0.0306957
-0.00663754
-0.0240121
-0.00567538
-0.139013
-0.0286505
0.0351065
0.00095836
0.00234454
0.00105392
0.00157926
0.00223471
-0.0292907
-0.0363915
0.00587279
0.00110273
-0.00296628
-0.00621336
-0.014747
-0.03187
-0.00195869
0.00497152
-0.00116802
-0.0300546
0.00172151
0.00386707
-0.0639282
-0.0637382
0.00731048
0.00558842
0.00214292
0.000241591
0.0171359
-0.0062307
-0.019146
-0.0509692
-0.00385333
0.00207008
0.00306205
0.00103066
0.0036865
0.00587023
-0.112217
0.00312772
-0.00132512
0.00650296
-0.0171054
-0.0101386
-0.00167617
-0.0113688
0.00212388
0.00152352
-0.0471003
-0.00424414
0.00200865
-0.000534169
-0.0594541
-0.0160543
-0.0417909
-0.0908715
-0.0633834
-0.000844906
-0.00743689
-0.00197298
0.00117072
-0.00353748
-0.00228596
-0.0629153
0.00163708
0.0257803
-0.0644561
0.0407772
-0.00952176
-0.06509
0.000314405
0.000581319
5.24769e-05
0.00116766
-0.0220544
-0.0523827
-0.0158834
0.00158678
0.0121318
-0.0286592
0.0287906
0.00215579
-0.0181564
0.0013455
0.00826917
-0.0568994
-0.0569336
-0.000693586
-0.0578948
0.00407544
-0.038694
0.000635623
-0.061976
0.00268279
-0.0210882
-0.00498717
0.00216031
0.00361517
-0.0696168
0.00222864
-0.0479547
0.00193578
0.00165244
-0.0621234
-0.0342982
0.005399
0.00104852
-0.0439461
-0.0591311
-0.0182192
-0.0102688
-0.0520144
0.00207673
-0.00792991
-0.00498261
0.00200331
0.00208918
0.0032237
0.00199108
0.00169182
-0.0467372
7.09333e-05
-0.0628182
-0.059257
-0.00455703
0.0021148
0.00202335
-0.00310324
-0.0083609
0.00246877
0.00449729
0.00393288
-0.00224337
0.00106491
-0.0414415
-0.033839
0.00650919
-0.0257675
0.00175221
-0.0283129
-0.00106723
-0.0686732
0.00149994
-0.0620679
0.00223764
0.00210421
-0.126217
5.91976e-05
-0.0176258
-0.0839635
-0.0220999
-0.0438885
0.00221605
0.00216666
-0.0183975
-0.00613952
0.00752032
0.00145355
0.00207751
0.00229317
0.00132874
-0.0160511
-0.0632027
-0.0282381
-0.00410028
0.00207611
-0.0187551
-0.00974988
-0.0170879
0.00178274
-0.0131034
-0.0535584
0.000702654
0.00328827
-0.0218188
0.00211264
-0.00170822
-0.0616194
-0.000665034
0.00677534
0.0023526
0.00202728
-0.0243974
-0.00235267
-0.0121167
-0.00184327
0.0021223
0.0021068
-0.0665615
-0.000284836
-0.00488722
0.014972
0.00210098
-0.0097353
-0.0015268
0.00206198
0.00590717
0.000793767
0.00171884
-0.00322444
0.00195438
0.00249362
0.00153033
-0.0035203
-0.0139122
0.00105637
-0.0324383
0.00207531
-0.0364879
0.00444329
0.00026361
0.00185529
-0.0142863
0.0126727
-0.0390509
0.00373328
0.00213661
-0.0129394
-0.0681511
-0.00878172
0.000233853
0.00203565
-0.0382996
-0.0383766
0.00171176
-0.0660927
0.00641157
-0.0211987
0.00304434
0.000717686
-0.0223652
0.00019559
0.00205816
0.00852539
0.0142007
0.00197607
0.00207157
0.00106116
0.00167523
0.0133257
0.00240817
-0.0306803
-0.0561464
0.00181262
-0.0323685
0.00585775
-0.0650039
-0.0294948
0.00452642
0.00113881
-0.0258157
-0.00672314
0.00189602
0.00185969
-0.000985732
-0.0656045
-0.00372792
-0.0287047
7.73133e-05
0.00830784
0.00393845
-0.0585959
0.0647107
-0.025844
-0.028087
0.00236555
0.00183416
0.000945398
-0.0119556
-0.0181642
-0.0691408
0.00164662
-0.0321083
-0.0574689
0.00623013
-0.000122255
0.00221042
-0.0082931
-0.0411121
0.00183255
-0.00397144
0.00233976
0.00317731
-0.00837759
0.00627305
-0.0475252
-0.0379661
-0.00552356
0.00163596
-0.0668192
0.00026009
0.0159954
-0.0605581
0.0101725
-0.0381019
0.00132738
-0.114828
0.00243879
-0.097836
0.00367724
0.00280935
0.00544927
-0.00168055
-0.0127329
-0.0208875
-0.0634048
-0.0149789
-0.0294759
-0.0521463
-0.00704492
-0.041305
-0.0632761
-0.0208944
-0.0171785
-0.0628132
-0.0755883
0.00245646
-0.053634
0.0283445
0.00192319
0.00368366
-0.0089924
-0.00366773
0.0016648
0.0118301
-0.00440831
0.00220356
0.00754439
-0.0703698
-0.0126295
0.00205318
0.00408044
-0.0104336
-0.0542934
0.00161347
-0.0157568
-0.00453374
0.00203317
-0.00425724
0.0140278
-0.0631918
0.00601264
-0.00639993
-0.0909125
-0.0036037
0.00169099
0.00235006
-0.0792697
-0.0575591
0.00181954
0.0059179
-0.0336752
-0.00642687
0.00214425
-0.0631716
0.00188658
0.00195136
-0.0258271
-0.00653173
-0.00765687
0.00278492
0.0120219
-0.0315854
0.00203091
-0.0196724
0.00208291
0.00222886
0.0136853
-0.0165308
-0.0614589
0.00158832
-0.00287333
-0.039849
-0.0823716
0.00868445
-0.00248253
-0.0254412
-0.0096686
-0.148534
-0.0594725
-0.0738427
-0.00410104
-0.0681016
0.00280725
-0.00471284
0.00472955
-0.0667474
0.00447248
0.00190617
-0.0127893
-0.00240352
-0.0100823
-0.0146452
0.00507515
-0.0488382
0.00388365
0.00271265
0.00549994
0.00613749
0.00173609
-0.000978757
0.00158872
0.0368736
0.00374051
-0.0121026
-0.0697118
0.00361356
0.00631495
0.00203227
-0.0667109
-0.00226497
-0.0711475
-0.0229986
-0.00763552
0.00334383
-0.0386675
-0.0195216
-0.057389
-0.00173326
0.00240533
-0.00595811
0.020793
0.00226762
-0.0382366
-0.0397568
0.00395554
-0.018222
-0.0107099
0.00296779
-0.000934555
0.00340287
0.00299982
-0.049188
0.00633101
0.00309914
-0.00461568
-0.0134402
0.00651757
0.00238304
0.00207905
-0.0708423
0.00213955
-0.0123488
-0.0706929
0.00192318
0.00229392
0.00173317
-0.0919783
0.000939856
-0.00383406
0.00289039
-0.0196817
-0.130304