/*--------------------------------*- C++ -*----------------------------------*\
| =========                 |                                                 |
| \\      /  F ield         | OpenFOAM: The Open Source CFD Toolbox           |
|  \\    /   O peration     | Version:  v2012                                 |
|   \\  /    A nd           | Website:  www.openfoam.com                      |
|    \\/     M anipulation  |                                                 |
\*---------------------------------------------------------------------------*/
FoamFile
{
    version     2.0;
    format      ascii;
    class       surfaceScalarField;
    location    "200";
    object      phi;
}
// * * * * * * * * * * * * * * * * * * * * * * * * * * * * * * * * * * * * * //

dimensions      [0 3 -1 0 0 0 0];
oriented        oriented;


internalField   nonuniform List<scalar> 
41383
(
-0.00263796
0.105769
-0.103131
0.485464
-0.0985409
-0.386923
0.225434
-0.321077
0.0956422
0.325679
-0.456289
0.13061
0.0410176
-0.0430186
0.00200102
0.347815
-0.130537
-0.217278
0.384729
-0.0643006
-0.320428
0.187767
-0.286156
0.0983892
-0.0755438
-0.0808818
0.156426
0.106888
0.107405
-0.214293
-0.460586
0.355979
0.104607
-0.0284646
0.0258967
0.0025679
0.0187278
0.000803947
-0.0331654
0.130497
-0.0973319
0.262588
0.0755895
-0.338177
0.299407
0.0853215
-0.215676
-0.204355
0.0270097
-0.034367
0.00735726
0.0868307
-0.106133
-0.145453
0.00189442
0.143559
0.0884545
0.397009
-0.503601
0.403213
0.100388
-0.0970389
0.094401
-0.0925113
0.0268205
0.0656908
0.291536
0.124215
-0.415751
-0.300484
0.107012
0.193472
0.10707
-0.340285
0.233215
-0.104648
0.211536
0.454982
-0.163446
0.102446
-0.126006
0.0235598
0.380409
-0.163261
-0.217148
0.147283
-0.379859
0.232576
-0.0495349
0.0598221
-0.0102872
-0.0866164
-0.203906
0.290522
-0.0556066
0.00607172
-0.122767
-0.236623
0.35939
-0.202372
-0.0293675
0.23174
0.355185
-0.135865
-0.21932
0.161532
0.218877
-0.334558
0.221326
0.113232
-0.318718
0.157325
0.161393
-0.156646
-0.177912
-0.0299655
0.0288168
-0.0845645
0.28122
-0.196656
0.409146
-0.339847
-0.0692995
0.080745
-0.336954
0.256209
0.00857348
0.0660281
-0.0746016
0.244683
0.046117
-0.2908
-0.327667
0.437491
-0.109824
-0.155237
-0.0815269
0.236763
0.0238003
0.1247
-0.1485
0.34083
0.0683161
-0.0931599
0.384748
-0.291588
-0.36897
-0.0314275
0.400398
-0.21675
0.33222
-0.11547
0.0897302
-0.327834
0.238104
-0.00186189
0.149272
-0.0327107
-0.116561
-0.396134
0.365713
0.0304208
0.0125121
0.00126839
0.254441
-0.377208
-0.367126
-0.0290081
0.302996
-0.407715
0.104719
-0.112461
-0.246664
0.359124
-0.00726607
0.0342758
-0.0933296
0.0881207
0.0052089
0.00156032
-0.0187084
0.0171481
-0.0229757
-0.229211
0.252186
0.0393057
-0.0460387
0.00673299
-0.147077
0.375685
-0.228607
-0.158693
0.423458
-0.264765
0.0631812
-0.0679897
0.00480848
0.18663
-0.0898903
-0.09674
-0.0499411
-0.0245119
0.0744529
0.35133
-0.416892
0.0655618
0.0397903
0.118824
-0.158614
0.2308
0.124385
-0.0186925
0.0202529
0.112685
-0.267922
0.327882
-0.0284751
-0.0240764
0.0253297
-0.0012533
0.326269
-0.199663
-0.126606
0.422058
-0.336118
-0.08594
0.043006
0.106266
-0.0516851
-0.328237
0.379922
0.209208
-0.178546
-0.0306627
-0.348439
0.0906706
0.257768
0.110935
-0.327685
0.0663812
-0.00319993
0.00549778
-0.0695061
0.0640083
-0.0426308
0.0452538
-0.00262294
0.419778
-0.0540642
-0.0256757
0.227797
-0.202121
0.286383
0.0414998
-0.478922
0.109952
0.131783
-0.349891
0.218108
0.139796
0.0407154
0.041866
-0.000848487
-0.0989969
-0.0571911
0.0657646
0.14478
0.181489
0.268021
-0.220673
-0.0473479
0.187865
-0.0657349
-0.12213
0.416153
-0.0486672
-0.367485
0.067099
-0.0616013
0.0526075
0.36717
-0.26519
0.362866
-0.0976759
0.0466132
-0.122157
0.0979415
-0.336231
0.238289
-0.11777
0.137898
-0.0201277
0.295446
-0.000556936
-0.294889
-0.0876229
0.350211
0.192987
0.0750336
0.194439
-0.220115
0.441782
-0.0954532
-0.346329
-0.132575
0.0288503
0.103725
0.161746
-0.0322435
-0.129502
0.443858
-0.369482
-0.074376
0.116877
-0.140256
0.0233792
0.0195921
-0.165045
0.0236385
-0.0219436
-0.00169492
-0.0462164
0.00358558
0.104567
0.0120628
-0.433029
0.0845905
0.0547981
0.230161
-0.284959
0.434427
-0.145131
-0.289296
0.0967658
-0.105975
0.00920926
-0.462656
0.335632
0.127024
0.019099
0.00152166
-0.0206206
0.00236657
0.0212719
0.146189
0.0416765
0.112717
-0.00814985
0.230592
-0.36917
0.138577
-0.129284
0.233788
-0.104503
0.0943914
-0.232189
-0.0543353
0.286524
0.373209
-0.210903
-0.162306
0.350762
-0.395331
0.0445681
-0.16374
0.218178
-0.0544377
-0.0118352
0.102845
-0.0910099
0.04345
0.218425
-0.261875
0.318815
-0.211745
0.312395
0.122032
0.449198
-0.375707
-0.0734903
0.0558636
0.385918
-0.0279438
0.163953
-0.136009
0.14914
0.224069
-0.153913
-0.0908697
0.244782
0.101366
-0.441213
0.376382
-0.145789
-0.19233
-0.268255
-0.00972713
0.25441
-0.0466367
0.172931
-0.126294
0.203488
-0.226463
-0.126287
0.145879
0.346802
-0.134371
-0.212431
0.242357
0.0279379
-0.270295
-0.0544667
0.0661297
-0.011663
-0.121889
0.00411888
0.0520564
0.0164837
-0.06854
0.0897027
0.0070631
0.0164401
0.210164
-0.000956174
-0.0448458
0.161722
0.212711
-0.428387
0.30487
0.0597594
-0.364629
0.0311237
0.412734
-0.222575
0.312305
-0.20422
0.314815
-0.110595
-0.130962
0.132857
0.355664
0.060489
-0.024819
0.186565
0.398661
-0.0519845
-0.346676
-0.107142
0.00173375
0.105408
-0.329822
0.146206
0.183615
-0.00786525
-0.0262192
0.0340844
-0.0491524
0.354022
0.149979
-0.137077
-0.0129014
-0.0714539
0.412284
-0.0223449
-0.180027
-0.0450138
-0.0474975
0.0416985
0.116762
-0.15846
0.124692
-0.138004
0.0133126
-0.202154
0.17421
0.3322
0.0664607
0.103114
0.00348381
-0.106598
0.119827
0.226976
-0.496004
0.117065
0.37894
-0.0415134
-0.055134
0.0966474
0.0824704
-0.101392
0.0189218
0.323641
-0.420226
0.0965844
0.308987
-0.158101
-0.150886
-0.121963
0.115886
0.00607662
0.0855161
-0.18863
0.103114
0.54056
-0.244083
-0.296476
0.212731
0.00859522
0.288236
0.252323
0.355185
-0.426639
0.0938178
0.225516
-0.319334
0.106966
0.211849
-0.0297511
0.0366847
-0.00693366
-0.236851
0.0962496
0.140601
0.287313
-0.374079
0.0867657
0.213002
-0.102352
-0.11065
-0.325701
0.094347
0.231354
-0.110377
-0.00310289
0.11348
-0.19848
0.151844
-0.0428533
0.0789416
-0.0360883
0.388319
-0.400831
0.0125115
-0.00181146
0.0143235
0.419258
-0.410465
-0.00879336
-0.102062
0.0128404
0.0892218
0.0350586
-0.0429239
0.127427
0.022552
0.0439783
-0.0854917
0.127779
-0.372733
0.244954
0.314939
-0.448322
0.133384
0.174767
0.111616
0.32534
-0.193557
-0.223655
-0.106797
0.330452
0.0211184
-0.00201944
0.488031
-0.0948688
-0.393162
0.108783
-0.00566903
0.120842
-0.0576393
-0.0632031
0.108545
-0.0767372
0.4275
-0.412855
0.138848
0.170139
0.331887
-0.251142
0.271122
-0.223099
-0.0480227
-0.315832
0.402249
-0.0864171
-0.186048
-0.163843
0.012262
-0.133521
0.121259
0.203947
-0.117116
0.0853628
-0.097198
-0.461459
0.35835
0.103109
0.03051
-0.0733633
0.0459237
0.0138984
0.378616
0.027958
-0.406574
0.0933124
0.242176
-0.335488
-0.126516
0.0213528
0.105163
-0.0143995
-0.112116
-0.243711
0.378392
-0.134681
0.40491
-0.418379
0.0134684
0.0555026
-0.00957887
-0.0418066
0.396991
0.450595
-0.135657
0.315087
-0.140321
0.329588
-0.104153
0.106939
-0.113349
0.00640998
0.153889
-0.0644487
-0.0894408
-0.10273
0.106218
-0.00348846
-0.229445
0.322758
0.398532
-0.0728532
0.0427562
0.298664
-0.34142
0.308653
-0.360338
0.388715
-0.243935
0.0736652
0.139337
0.330993
0.104045
0.0498442
0.132676
-0.247839
0.115163
-0.019414
-0.00130924
0.0207232
-0.0792532
0.467572
-0.0275063
0.0347323
-0.00722608
0.147095
-0.156887
0.00979183
0.00342289
0.050449
0.174464
0.313567
-0.168289
0.0112536
-0.449821
0.197422
0.252399
0.00687447
0.0959706
-0.340318
0.11373
0.226588
0.185946
-0.10043
0.000569891
0.0560795
-0.0566494
0.134316
0.106377
-0.240693
-0.122574
0.121784
0.000790056
0.0100181
-0.0525463
0.3612
-0.0979719
-0.00409031
0.140503
-0.00467446
-0.135829
0.106935
-0.296571
0.189636
0.206779
0.0815275
-0.288306
-0.0189709
0.0834849
-0.0645141
0.228196
-0.110274
-0.117922
0.122269
0.266446
-0.041446
-0.170502
0.211948
0.166594
-0.151284
-0.0153098
0.342312
-0.442661
0.100349
0.271759
-0.467755
0.195996
-0.283333
0.196717
0.503495
-0.229119
-0.274375
-0.128257
-0.0646545
0.192911
0.193908
0.309587
0.0840438
0.19212
-0.276164
-0.0520602
-0.0805152
0.0535338
-0.381771
-0.0142158
0.0124044
-0.327599
0.397477
-0.0698777
-0.0775356
-0.0157941
0.0536039
-0.2101
0.156497
0.283239
-0.377776
0.0945374
-0.0410462
0.0931026
0.134353
0.0695938
0.0368362
-0.200577
-0.132779
0.265455
0.0355128
-0.0305489
-0.00496389
0.146899
0.0589869
-0.205886
-0.136501
0.270817
-0.120426
0.17697
-0.0565437
-0.102491
0.105074
-0.00258296
0.0830023
-0.0923687
0.00936636
-0.21205
0.0827655
0.357115
-0.181562
-0.175553
0.339305
0.0799534
-0.149931
0.0295053
0.100852
0.00491649
0.117749
-0.123982
0.0062339
0.0701603
-0.103326
0.169032
-0.412743
-0.227759
-0.313855
0.40651
-0.092655
-0.333678
0.450091
-0.116413
0.267354
-0.34804
0.0806858
0.411027
-0.0346454
0.00122037
-0.0206343
0.0715677
0.339459
0.300339
-0.205992
-0.0167855
0.131927
-0.115142
-0.261606
0.34299
-0.0813839
-0.0543125
-0.00860999
0.0629225
-0.357022
-0.0321805
0.389202
-0.15899
-0.000200734
0.15919
0.0249329
0.0959095
-0.0266189
-0.0805226
0.103001
-0.0199984
0.288467
0.0536161
-0.342083
-0.0751161
-0.00475522
0.0798713
0.284484
-0.423104
0.13862
-0.0614719
-0.283022
0.344494
0.0351837
-0.0329236
-0.00226003
-0.0403859
0.171018
-0.252545
-0.0605931
0.0764877
-0.0158946
0.322217
-0.199618
-0.122599
0.072123
-0.0677818
-0.00434117
0.0524961
0.240587
-0.293083
0.207059
0.108029
-0.0987159
0.0314673
0.0672486
-0.445518
0.278257
0.167261
0.0462116
-0.0347807
-0.0114308
0.248302
-0.193504
0.15445
-0.263291
0.108841
-0.00784407
-0.259181
0.267025
-0.332275
0.20175
0.130525
-0.39648
0.101403
0.295078
-0.0519152
-0.0468007
0.409907
-0.436414
0.0265072
-0.29241
0.421019
-0.128609
0.274831
0.040829
-0.31566
-0.20963
-0.0834699
0.2931
-0.402164
0.109753
-0.0112314
0.12705
-0.115818
-0.482052
0.237968
0.213446
-0.365091
0.151645
0.339827
-0.28733
-0.209283
0.167837
0.133926
0.00657698
0.417313
-0.306378
-0.0727078
0.361175
0.00399569
0.0681273
0.164338
-0.0198019
-0.144536
-0.0719895
0.061254
0.0107355
0.346271
-0.115471
0.0361474
0.000537347
0.179863
-0.0155252
0.323259
-0.0278128
0.129657
-0.17516
0.0455033
0.266862
0.0845604
-0.351422
-0.0799745
-0.41603
-0.299103
-0.182949
-0.224992
0.217148
-0.292856
-0.098309
0.391164
0.301376
0.120871
-0.422248
-0.481666
0.378316
0.103349
0.0749406
-0.0545034
-0.0204372
0.0553792
-0.308596
0.253217
-0.0836671
0.358498
-0.238209
0.0909249
0.147284
0.286145
0.065093
-0.351238
-0.254333
0.327704
-0.0733702
0.214057
-0.0671581
-0.00414058
-0.235891
-0.090871
0.326762
-0.0602271
0.0059146
0.152744
0.169473
0.00884901
0.446283
-0.388878
-0.0574044
-0.0271305
-0.0948324
0.000816678
0.0153242
-0.071895
0.35804
-0.180642
0.0307889
0.149853
-0.32821
0.12399
0.47228
-0.231693
-0.108075
0.149774
0.0917896
-0.0198167
-0.0719729
0.0761727
0.152023
0.150372
-0.0290506
-0.121321
0.0125453
0.000552569
-0.0130978
0.332915
-0.119469
-0.0239352
0.00199158
-0.0107451
-0.0084943
0.0192394
0.0326592
0.316867
-0.349526
0.188863
0.136477
0.0873412
-0.127207
0.110422
0.333217
0.115981
0.171167
0.301114
-0.00753339
-0.0224321
0.305723
-0.0986644
0.313444
-0.258064
-0.167546
-0.132938
-0.126876
-0.321447
-0.185761
0.23116
-0.34362
-0.0231726
0.0224202
0.000752395
-0.282245
0.19768
0.157441
-0.133641
0.395757
-0.111273
0.210013
-0.103139
-0.106875
-0.287736
0.320395
0.0837412
-0.326751
0.24301
0.410173
-0.410173
-0.183465
-0.135346
0.318811
0.0782746
0.00318289
-0.0814575
0.292514
0.0479888
-0.340503
-0.0708877
0.363402
0.137375
-0.0126836
0.121457
-0.116063
-0.00539349
0.264863
-0.117579
-0.477662
0.37347
0.104192
0.375862
-0.344738
-0.0098521
-0.0871868
0.389925
-0.129792
-0.260132
0.427971
-0.0407564
-0.387214
-0.115908
0.347068
0.0885393
-0.085642
-0.0028973
-0.0397732
-0.0891709
0.128944
-0.0870073
0.0500828
-0.0503803
0.000297441
0.171485
0.27911
-0.0172823
-0.00679412
-0.45871
0.301625
0.157085
-0.0106042
0.116249
-0.105645
0.128841
-0.116579
-0.0753065
0.34266
0.105633
0.240638
0.312063
0.105249
-0.0950883
-0.197895
0.292983
-0.207978
-0.209363
0.417342
0.156876
0.00143832
-0.158314
-0.0637689
-0.120393
0.184162
-0.20724
0.164303
-0.0144886
-0.149814
-0.175484
-0.287172
0.120953
0.268972
-0.340497
0.329228
0.0987427
-0.154688
0.177336
-0.0226473
0.394272
-0.0184095
-0.101562
0.315316
-0.213753
0.0767454
-0.00328723
-0.0734582
0.267675
-0.368243
0.100568
0.100754
-0.310385
-0.359252
-0.0099171
0.0123122
-0.0134862
0.340084
-0.401556
0.225834
-0.133425
-0.0924085
-0.0717416
0.000157088
0.0715845
0.123482
-0.294897
0.110633
0.184264
-0.00187747
-0.00382939
-0.350851
0.43709
-0.0862397
-0.153313
0.260248
0.24708
-0.0944702
-0.15261
0.0159445
-0.087686
0.33183
-0.204051
-0.0568766
-0.251296
0.308173
-0.415118
0.346345
0.0687735
-0.220326
-0.119959
-0.0323697
0.00486344
-0.367352
0.00809956
-0.00521979
0.0315922
-0.0263724
0.351708
-0.421377
0.0696688
-0.0634104
-0.230563
0.314305
-0.319815
0.115909
-0.0203392
0.00959402
0.121757
-0.124738
0.00298092
-0.342173
0.157237
0.184936
0.0895406
-0.0730569
-0.359138
-0.0622393
0.0517734
-0.0512035
0.365792
-0.452715
0.0869235
0.101938
0.0948589
0.00814186
0.25261
-0.0981593
0.258041
0.0897736
-0.201957
0.0737002
0.135501
0.00406128
-0.139562
0.081683
-0.355959
0.274276
0.387635
-0.0639938
0.00425271
0.0875369
0.397625
-0.0462947
0.144295
0.0738833
0.390272
0.0560109
-0.123547
0.0837734
0.164834
-0.000530765
-0.309057
0.0977899
0.211267
0.283564
-0.095797
-0.0988742
-0.207383
0.306257
-0.0182942
-0.140695
-0.250612
-0.199209
-0.527226
0.298106
-0.191953
-0.071338
0.0184985
0.0839477
0.0321211
-0.0272086
-0.00491253
-0.103908
-0.0434585
0.147366
0.0598547
0.126776
0.402032
-0.348688
-0.053344
0.214738
0.0618156
-0.276553
0.0277161
-0.0329358
-0.264809
0.340398
-0.129468
0.138237
-0.00876941
0.0943756
-0.330235
0.23586
-0.228562
-0.273603
0.420693
-0.14709
-0.0853323
0.060479
0.0248533
0.410297
-0.108921
0.0656807
-0.327287
0.338224
0.0638083
0.0908452
0.00401366
0.399095
-0.39972
0.000625036
-0.0174769
0.139732
-0.122255
0.0823597
0.000110715
0.00955177
0.111905
-0.0993933
0.0911933
0.00819993
0.0211968
0.0183547
-0.0395515
0.0953162
-0.0270167
-0.0682995
-0.0679845
-0.0580214
0.0597483
-0.0766563
0.0169079
0.071539
-0.337593
0.266054
-0.000802545
0.193118
0.0539624
-0.231196
0.0829814
0.148215
0.451716
-0.0730995
-0.259923
-0.243679
0.1764
0.112742
-0.289141
-0.0517411
-0.147881
0.199622
0.33525
-0.11757
-0.21768
-0.232376
0.312017
-0.221346
-0.377164
0.0748942
0.302269
0.370783
0.0240972
-0.39488
-0.14855
-0.0100583
0.163019
-0.152961
0.00175367
0.0731869
0.051469
-0.0597809
0.00831187
0.025414
-0.0173115
-0.00810253
-0.00757408
0.0468798
-0.00222558
-0.0849503
0.0740393
0.010911
-0.122054
-0.0348336
0.00985802
0.0262894
0.232413
-0.286029
0.0536153
0.00629228
-0.0783543
-0.298809
0.0232329
-0.0783669
0.0561776
-0.229675
0.310668
-0.0809922
-0.193682
0.180686
0.0129966
0.0332501
-0.0128495
-0.0204006
0.0998801
-0.101791
0.00191064
-0.458573
0.154817
0.303756
0.0257167
-0.0756469
-0.0092365
0.0848834
0.0614795
-0.0804504
-0.218049
0.0819581
-0.00368358
-0.28625
-0.172323
0.206995
0.0448489
-0.251844
0.0105758
0.0893043
-0.386335
0.28459
0.101745
-0.19878
0.282824
-0.00484489
-0.0785244
0.0833693
-0.264802
-0.0451901
0.221864
-0.176674
-0.108815
-0.267791
0.376606
-0.0219432
-0.0542652
0.0762084
0.135897
-0.343876
-0.00773669
0.261495
0.00913058
-0.270625
-0.00599885
-0.0179363
-0.163987
0.0370844
0.126903
-0.137782
0.0157278
0.0737198
0.212598
-0.286318
0.031623
0.0145886
-0.32932
0.204841
0.124479
-0.201356
0.297756
-0.0963993
-0.0774581
-0.137829
0.0170389
0.12079
-0.0809163
0.427261
0.0959666
-0.32933
0.233363
-0.0701265
0.0933594
-0.22739
0.1822
0.0295063
-0.0328475
0.00334116
-0.0249525
-0.00351213
-0.384051
0.275236
-0.0854566
0.20053
-0.115073
-0.156164
-0.0806868
-0.0540818
-0.0282467
0.0823285
0.442684
-0.442684
-0.00151831
-0.0481622
0.0496805
0.115963
0.0214122
-0.0781387
0.0643265
0.0138122
-0.334476
0.104801
-0.0573989
0.264394
0.0974396
-0.0129795
-0.0844602
0.00109734
-0.0641988
0.0631015
-0.0835042
0.00785728
-0.278314
0.299873
-0.0215591
0.0309165
-0.113477
0.0825603
-0.135095
0.102851
-0.0956561
-0.00984471
0.105501
0.444344
-0.175496
-0.268848
0.0538247
-0.049449
-0.00437573
-0.269246
-0.00906856
0.307948
-0.131548
0.0697703
0.0962583
-0.166029
-0.0644904
-0.327177
0.391667
-0.0015448
0.0399327
-0.0383879
-0.084869
0.0242758
0.167556
-0.153139
-0.014417
0.00196899
-0.0615336
0.0595646
0.104398
-0.11563
0.0224204
-0.0232206
0.000800278
0.369808
-0.27599
0.311106
-0.375596
-0.095529
0.0931304
0.00239857
-0.105565
0.0856559
0.0199092
0.0567066
-0.0449852
-0.0117214
0.259572
-0.344163
0.0845904
0.423654
-0.120658
0.374554
0.0303561
-0.0595916
0.364382
-0.30479
0.192924
-0.356338
0.163414
0.27853
0.12287
-0.337926
0.215056
-0.0956699
-0.191997
0.287667
0.0553807
-0.00391176
-0.0311549
-0.11494
0.146095
0.0260674
0.384105
-0.147455
0.0435473
-0.119415
-0.0867606
0.206176
0.157069
-0.117279
-0.122567
-0.0171628
0.13973
-0.371113
0.311521
-0.276691
0.044502
-0.0607265
0.110345
0.0202882
-0.130633
0.0590175
0.107576
0.13122
-0.378972
0.247753
0.0151239
-0.355591
0.340467
0.40052
0.00738631
-0.407907
-0.182604
-0.0556054
-0.168963
0.361887
-0.402822
0.13036
0.272462
-0.116993
0.101775
0.0152186
-0.156048
-0.0950033
0.0992919
-0.00428862
-0.037583
0.141584
-0.104001
0.0431465
-0.0219496
0.0212005
-0.0236272
0.00242669
-0.0975706
0.104445
-0.117681
0.389593
-0.271912
0.0362522
-0.339419
0.303167
0.401719
-0.449727
0.0480073
-0.214544
0.471832
-0.257288
-0.183135
0.184958
-0.0130993
-0.171859
0.11025
-0.100699
-0.00138435
-0.0217882
-0.290701
-0.380506
0.290282
0.0902236
-0.0824686
0.0605253
-0.0156673
0.38645
-0.339461
-0.0935679
0.345597
-0.0860243
-0.100597
0.0786615
0.0219356
-0.108405
-0.221831
-0.200057
0.0768507
0.123206
-0.21905
0.290589
0.281406
-0.374566
0.309932
-0.432522
0.12259
0.152187
-0.177007
0.0823691
0.0129471
-0.016484
0.132447
0.32822
-0.179533
-0.148687
-0.0447064
0.0563088
-0.0116024
-0.0618689
-0.118773
0.00234003
0.051542
0.0496051
-0.101147
0.167273
-0.31435
0.0283054
-0.0298502
0.0427835
-0.0387739
-0.00400964
0.0739856
-0.0788304
0.124699
-0.145305
0.0206055
-0.0453073
0.053581
-0.00827371
-0.0339243
0.389903
0.234752
-0.0741196
-0.160633
-0.0496754
0.1685
-0.0488774
0.0562718
-0.00739447
0.212621
-0.08259
-0.130031
-0.0244339
0.138134
-0.1137
0.289578
0.0861062
-0.122768
0.0457127
-0.00492981
-0.0407829
0.185436
-0.105442
-0.0799936
-0.00120217
-0.0344457
0.0356479
-0.0164074
0.134203
-0.117796
0.121702
-0.0419042
0.202031
-0.169462
-0.0325689
-0.101809
0.369484
0.188135
-0.12828
0.0611636
0.305197
-0.36636
-0.0505154
-0.285616
0.336131
-0.014777
0.171653
-0.491098
0.157471
0.333627
-0.00688074
0.0585002
-0.0516195
0.417313
-0.187025
-0.230288
0.0695094
0.143111
-0.00438367
0.0302804
-0.186327
-0.269962
-0.348106
0.0937724
0.169907
0.0150514
0.00329078
-0.0247317
0.0214409
-0.11476
0.0072232
0.107537
0.365715
-0.0964607
-0.269254
0.296607
-0.347122
-0.156076
0.131642
0.191147
-0.119234
-0.0719126
-0.00157204
-0.0994665
0.101039
-0.00906021
0.107674
-0.0986142
0.31807
-0.373759
0.0556893
0.133372
-0.0163992
-0.116973
0.276551
0.0530365
0.0631947
-0.18261
-0.133586
0.126113
0.00747245
0.0375115
-0.396649
-0.0578555
0.108044
-0.0501882
0.409718
-0.109515
-0.300203
-0.0428365
0.0574083
-0.0145718
0.0235939
-0.00239335
-0.298419
-0.0814404
-0.235802
0.226114
0.00968857
0.35806
-0.248287
-0.109773
-0.451373
0.451373
0.00518741
0.0135404
0.277177
0.0808835
0.194536
0.133684
-0.392369
0.385096
0.00727272
-0.107911
0.189961
-0.0820497
0.00148663
0.013773
-0.0152596
-0.00394684
0.40716
0.197913
-0.328449
-0.13633
0.151438
-0.0151076
0.0272494
-0.0851049
-0.428142
0.223787
-0.136992
0.000661686
0.207712
-0.0634173
-0.466653
0.193051
0.232685
-0.350366
0.0579383
-0.0140836
-0.0438547
-0.0247107
0.176898
-0.372957
0.0453583
0.377031
-0.377031
-0.157664
-0.0654354
0.0191004
-0.141487
0.122386
-0.193929
-0.156444
0.350374
-0.0461932
0.178547
-0.082849
-0.0956985
0.0373601
-0.00809612
-0.029264
0.111874
-0.0678959
0.000634222
-0.110809
0.110175
0.0283412
0.0835329
-0.302902
0.289255
0.0136464
0.107967
-0.193423
0.0768017
-0.270731
0.0933218
0.272393
0.0715614
-0.336612
0.26505
-0.0609235
-0.00237052
-0.0758691
0.0782397
0.137826
-0.118725
-0.081593
-0.0134103
0.0959562
-0.0654462
0.35677
-0.10121
-0.25556
-0.431339
0.279019
0.15232
-0.0762046
0.0769859
-0.000781316
0.0119687
0.0949701
-0.164253
0.415959
-0.251706
-0.0754175
-0.283047
0.358465
-0.105
0.0881784
0.0168212
0.173997
-0.145308
-0.0286885
0.364147
-0.0460772
0.0927816
0.270085
0.071189
0.288166
-0.359355
-0.36056
0.406548
-0.0459883
0.404182
-0.0220263
-0.382155
-0.208451
0.282171
-0.0990724
-0.0973121
0.196384
-0.278713
0.350274
-0.0923134
0.262982
-0.170669
-0.000443521
0.0325357
-0.0320921
0.0566243
-0.0492616
-0.00736266
0.00317487
0.0323379
0.395354
-0.110469
-0.284885
0.120362
-0.121684
0.00132256
0.195702
0.00632815
-0.197933
-0.0582683
0.256202
0.0302052
0.113099
-0.143304
-0.159248
-0.185636
0.344884
0.0234637
-0.0775455
0.00867004
-0.143593
0.134923
-0.0554714
-0.175725
0.498033
-0.209592
-0.288441
0.202901
0.295132
0.0104141
0.0623323
-0.0727464
-0.134535
0.143205
0.0523026
0.00432176
-0.223347
-0.0977298
0.102074
-0.41593
0.0945598
-0.146253
0.0516931
0.00872886
-0.362306
0.353577
-0.10029
-0.243314
0.343604
0.0164767
0.00893729
-0.0552042
-0.0453929
0.0889217
-0.0910899
0.00216813
0.352104
-0.305502
-0.0466013
0.34391
0.0566103
-0.00897924
-0.35158
-0.334369
-0.0219689
0.224436
-0.0313182
0.0722532
-0.099121
0.0268678
-0.0362156
-0.04132
-0.0538651
0.221287
-0.337195
0.105331
0.00491917
0.0784945
-0.277275
-0.0721738
0.286911
-0.158379
-0.0209738
0.179353
0.00130733
-0.0318562
0.117881
0.0283467
-0.146227
0.356374
0.0327573
-0.389131
0.134865
0.0562811
0.312024
0.0976935
0.358885
-0.287696
0.00494736
0.103472
-0.105044
0.393689
-0.414732
0.0210431
0.105779
0.172049
-0.277828
-0.098653
0.110704
-0.0120514
0.0751536
-0.0750501
-0.000103405
0.118481
-0.14319
0.0247087
0.0384476
-0.00108757
0.100077
-0.170023
0.0699459
0.109776
0.048544
-0.15832
-0.0459494
0.0583625
-0.012413
0.287499
-0.112753
-0.174746
-0.0064807
-0.229321
-0.314291
0.13317
0.181121
0.0924161
-0.101476
-0.00468376
-0.18543
-0.0612124
0.246642
0.0789305
-0.0685164
0.0793992
0.163865
-0.243264
0.0545917
-0.00670516
-0.0478865
-0.255332
0.257506
-0.357796
-0.0560563
0.0113499
-0.329519
0.016028
0.313491
-0.0697929
-0.272825
0.370852
-0.0980274
0.403144
-0.00142504
0.0923364
0.303018
-0.0208623
0.000102579
0.0207598
0.00908295
0.215353
0.101941
-0.029688
0.195163
-0.353856
0.250921
0.0946759
0.105963
-0.454651
-0.497238
0.200888
0.29635
-0.208364
-0.288874
0.243462
0.112622
0.0659255
-0.276671
-0.026231
0.290459
-0.0836804
0.301714
-0.215393
-0.0863211
0.264447
-0.255718
0.0794999
-0.0197516
0.120366
-0.120186
-0.000179789
-0.151468
0.0234929
0.127975
-0.151254
0.234574
-0.0833199
0.331303
0.0921552
-0.396846
0.13621
0.260636
-0.0325316
0.187789
-0.155257
-0.184954
0.290733
0.0677095
-0.476535
0.201422
0.275113
-0.35049
0.0161209
0.155308
-0.187839
-0.001071
0.0136163
0.372758
-0.35333
-0.0194282
0.0351833
0.115189
-0.420594
0.379838
-0.396917
0.0810855
0.164156
-0.210913
0.0467575
-0.388903
0.105269
0.283633
0.058793
-0.0550012
-0.00379185
0.350611
-0.382039
-0.28814
0.419982
-0.131843
0.00507566
0.0700779
0.364844
0.0450632
0.051593
-0.0504956
0.156845
-0.154067
-0.00277816
-0.0732675
0.0979465
-0.024679
0.055877
0.00206129
0.30738
-0.102763
-0.293718
0.0825336
0.00154823
0.0862952
-0.0878434
0.0231771
-0.0964446
0.141987
-0.193728
-0.335525
-0.0598055
-0.114126
0.0105697
0.00645374
0.366304
0.24033
-0.16093
-0.0221113
0.387903
0.35632
0.0284284
0.200992
-0.0141997
0.101321
-0.0871212
0.0212497
-0.256749
0.235499
0.410193
-0.32073
-0.089463
0.442995
-0.107363
0.13966
-0.149718
-0.0546244
0.0117879
0.000405487
0.177568
-0.164345
-0.0132226
0.343248
-0.261565
0.0715133
0.24407
-0.315583
-0.329636
0.432814
-0.103179
-0.092391
-0.0209577
-0.0574151
0.334203
-0.276788
0.32798
-0.407233
-0.299243
0.197681
0.0238559
0.108072
-0.0350382
-0.0985474
-0.121698
-0.298896
-0.137279
0.0196624
0.117617
0.289346
-0.346761
0.416481
-0.106548
-0.0754694
0.0731964
0.00227295
0.346678
-0.0957574
-0.0311645
-0.120304
-0.191886
-0.269573
0.0662349
0.0312557
-0.0974906
0.250889
0.101215
0.0805569
0.0460851
0.00399771
-0.335809
0.249807
0.0860016
0.241177
0.0605372
-0.260793
-0.136053
0.0308137
-0.299477
0.204389
0.33897
-0.22577
-0.113199
0.210073
0.131388
-0.0110269
-0.0895975
0.398343
-0.308745
-0.0189978
0.0804774
-0.155717
-0.247104
-0.0694979
0.41181
-0.0788455
0.178923
-0.0523811
0.0465284
0.00585267
0.0325558
0.0196137
-0.0521695
-0.200523
0.221772
0.0376522
0.00513135
-0.00388142
0.0166412
-0.0127598
-0.0117708
0.168616
-0.275903
-0.324854
-0.0792182
0.404072
0.0111543
-0.0106017
-0.0316987
0.0272286
0.00447009
-0.0318374
-0.177446
-0.277948
0.189909
-0.0703717
0.342131
0.506773
-0.216699
-0.290074
0.198871
0.307902
-0.354105
0.266482
0.00122255
0.136912
0.0505648
-0.329789
0.279224
0.129677
-0.144252
0.014575
-0.0587172
0.0700553
-0.0113381
0.041753
-0.392604
-0.402345
0.329349
0.0729962
-0.0680312
-0.352353
0.420384
-0.0462215
0.404572
-0.143526
0.0172389
0.0621067
0.0235655
-0.0856722
-0.342058
0.437754
-0.0956959
-0.432494
0.164057
0.268436
-0.00120687
-0.392885
-0.23451
-0.256588
0.155016
-0.292197
0.0678832
-0.253313
0.068485
-0.0750125
-0.0229595
-0.286047
0.0406033
-0.0367909
0.36477
-0.396316
0.049677
0.00911604
-0.125618
-0.0122109
0.295182
0.100575
-0.261727
0.333658
-0.0719311
-0.442715
0.286445
0.156269
0.166008
-0.0562321
-0.210155
-0.104136
0.369042
-0.10218
-0.047364
0.058427
-0.011063
0.0494998
0.138635
-0.141588
0.125231
0.0163572
0.0958414
-0.0296065
-0.147513
0.212087
-0.0645743
0.378694
0.0116843
-0.390378
-0.0237344
-0.0223043
0.0180778
0.0111744
-0.0292522
0.244525
0.0944441
-0.12149
0.00529805
0.116192
-0.144144
0.145583
0.300489
0.0476752
-0.348164
-0.100575
0.209903
-0.109327
0.323171
-0.419896
0.0967251
0.324161
-0.0986448
0.00981444
0.0358983
0.132571
-0.19634
0.0682617
-0.273736
0.205474
0.106942
0.00102807
-0.10797
0.0318494
-0.29382
0.26197
-0.0172059
-0.020506
0.0530617
0.0402206
0.180436
-0.220657
0.291725
-0.168855
-0.134413
-0.273302
-0.270622
-0.100956
0.371578
-0.151551
-0.00313719
-0.220268
0.077913
0.142355
0.0918156
-0.10242
0.00488058
0.0401734
-0.045054
0.102836
-0.395691
-0.323424
-0.0757695
0.399194
0.326383
0.2189
-0.250738
-0.0230199
-0.0984705
-0.283313
0.174909
-0.389403
0.114731
0.274672
0.0200439
-0.0204874
0.00218015
0.0145692
-0.0167494
-0.211642
0.139894
0.0717474
-0.00667981
0.0956016
-0.494081
0.197247
0.296834
-0.2042
-0.289881
0.0526912
0.00358065
0.0132956
-0.0143666
-0.117439
-0.0428174
0.160257
0.150346
-0.0976523
-0.0526936
-0.354949
0.200114
0.154835
-0.0239475
0.0270075
-0.00306003
0.0738558
-0.0790735
0.00521772
0.0827595
-0.0206528
0.125574
-0.0037906
0.116506
0.00906834
0.330047
-0.426898
0.096851
-0.0929002
-0.187338
0.280239
0.0882693
0.249438
-0.353087
0.103649
0.330268
0.0688272
0.0977866
-0.0119113
0.100014
-0.00180879
-0.0168996
-0.204839
0.166723
-0.133413
-0.0333095
0.0218425
-0.0240367
0.00219427
0.273299
-0.283026
-0.298632
0.184225
0.114407
0.0757085
-0.0872312
0.0115227
0.0587101
-0.0065472
-0.0521629
-0.135499
-0.0629818
0.109189
-0.310545
-0.280976
-0.107921
0.388898
-0.0681686
-0.269397
0.337565
-0.20573
0.0718306
0.133899
-0.0937634
0.343201
0.388792
-0.0936105
-2.04663e-06
-0.0994645
0.44073
-0.110683
0.340269
-0.422444
0.0821743
0.163265
0.0384714
-0.201737
-0.227678
0.299191
0.318419
0.131558
-0.449977
-0.0107699
0.135469
-0.223108
0.0691955
0.116409
0.0541595
-0.336289
0.28213
-0.147049
-0.242353
-0.0543923
-0.154976
0.209369
0.183996
-0.279665
-0.327492
0.436629
-0.109137
0.0241818
-0.020879
-0.00330278
-0.433849
0.290412
0.143438
0.00747309
0.0492335
0.12345
0.0603365
-0.183786
0.0820823
0.0882326
-0.0151763
-0.27563
-0.0812546
0.419478
0.0192725
-0.0208873
0.00161482
0.068499
-0.352158
0.283659
0.0229224
-0.121575
-0.273417
0.219082
-0.352874
0.205081
0.147793
0.0618595
-0.0575222
-0.0043373
0.0244097
-0.00256727
0.00235682
0.02646
-0.211909
0.157517
-0.132203
-0.189429
0.026384
0.377798
-0.0980213
-0.118205
0.216226
-0.151461
-0.0556224
0.336388
-0.280766
0.0725227
0.00631026
-0.0788329
-0.0570929
-0.264601
0.110747
0.153854
0.178411
-0.000843555
-0.0782132
0.0758427
-0.397172
0.0737478
-0.0748556
-0.00134904
0.000256072
0.0893682
-0.0885668
-0.000801467
-0.0843477
0.0858959
-0.0315409
0.0314915
4.94032e-05
-0.212535
0.38935
-0.0782438
-0.140437
0.109282
-0.323573
0.377224
-0.0536511
0.156858
0.016072
-0.423648
0.277655
0.145994
0.0831528
-0.0984111
0.0152583
-0.15304
-0.010947
0.129989
-0.277502
-0.195525
-0.0938759
0.289401
0.0893524
-0.189928
0.203882
0.101841
-0.379919
0.347739
-0.331486
0.419
-0.0875133
0.342232
0.160702
0.276788
-0.396159
0.120962
0.275197
0.0683082
-0.391882
-0.505003
0.205801
0.299202
0.206325
-0.166105
-0.123968
-0.0651492
0.189117
0.0521777
-0.0711755
-0.0104574
0.0285352
0.329717
-0.293465
-0.227371
-0.304115
-0.0687478
0.198135
-0.129387
-0.136957
-0.0833109
-0.0387621
-0.066803
-0.0193004
0.252491
-0.253048
0.104456
0.209032
-0.301932
0.0579809
0.168914
-0.226895
0.0557452
-0.198215
0.14247
-0.412427
0.317379
0.0950473
-0.227731
0.164838
0.0628934
0.110489
-0.114311
0.00382166
-0.315355
0.41261
-0.0972548
0.0791046
0.00901616
0.0163714
-0.294399
0.181159
-0.0244729
-0.424294
0.273954
0.15034
-0.119212
0.149418
-0.273364
-0.208301
0.0951175
0.0362709
-0.118465
0.304878
0.0142436
0.000352623
-0.0145963
0.0217641
-0.00231485
-0.0194492
-0.0944119
0.106202
-0.0117903
0.424537
0.0103594
0.31504
0.05324
-0.36828
-0.0881645
0.0945659
-0.00640139
0.0986727
-0.01552
0.24385
-0.430874
-0.110792
-0.285367
0.237
0.0414471
-0.0398711
-0.00157595
-0.0460697
0.00729584
-0.0292939
0.40761
-0.300392
-0.0863975
0.38679
0.426209
-0.297917
-0.128292
-0.0768131