/*--------------------------------*- C++ -*----------------------------------*\
| =========                 |                                                 |
| \\      /  F ield         | OpenFOAM: The Open Source CFD Toolbox           |
|  \\    /   O peration     | Version:  v2012                                 |
|   \\  /    A nd           | Website:  www.openfoam.com                      |
|    \\/     M anipulation  |                                                 |
\*---------------------------------------------------------------------------*/
FoamFile
{
    version     2.0;
    format      ascii;
    class       surfaceScalarField;
    location    "200";
    object      phi_0;
}
// * * * * * * * * * * * * * * * * * * * * * * * * * * * * * * * * * * * * * //

dimensions      [0 3 -1 0 0 0 0];
oriented        oriented;


internalField   nonuniform List<scalar> 
41383
(
-0.00263951
0.105764
-0.103124
0.485464
-0.0985409
-0.386923
0.225433
-0.321074
0.0956419
0.325679
-0.456289
0.13061
0.0410267
-0.0430177
0.00199102
0.347815
-0.130537
-0.217278
0.384723
-0.0642981
-0.320425
0.187767
-0.286156
0.0983892
-0.0755622
-0.0808829
0.156445
0.106888
0.107405
-0.214293
-0.460586
0.355979
0.104607
-0.0284621
0.0258942
0.00256789
0.018729
0.000802
-0.0331796
0.130503
-0.0973238
0.262588
0.0755894
-0.338177
0.299405
0.0853179
-0.215676
-0.204355
0.0270061
-0.0343644
0.00735835
0.0866909
-0.106554
-0.145475
0.0019047
0.143571
0.0884545
0.397009
-0.503601
0.403213
0.100388
-0.0970332
0.0943937
-0.0925138
0.0268204
0.0656934
0.291536
0.124215
-0.415751
-0.300483
0.107012
0.193472
0.10707
-0.340285
0.233215
-0.104648
0.211536
0.454982
-0.163446
0.102409
-0.125919
0.0235105
0.380409
-0.163261
-0.217148
0.147297
-0.379873
0.232577
-0.0495346
0.059817
-0.0102825
-0.08665
-0.203821
0.290471
-0.0556016
0.00606703
-0.122767
-0.236623
0.35939
-0.202456
-0.0292954
0.231751
0.354947
-0.135673
-0.219274
0.161532
0.218876
-0.334558
0.221326
0.113232
-0.318718
0.157325
0.161393
-0.156646
-0.177912
-0.0299937
0.0288248
-0.0844844
0.281178
-0.196694
0.409146
-0.339848
-0.0692985
0.0807449
-0.336954
0.256209
0.00856016
0.0660372
-0.0745973
0.244683
0.0461172
-0.2908
-0.327667
0.437491
-0.109824
-0.155287
-0.081482
0.236769
0.0238004
0.1247
-0.148501
0.340831
0.0683148
-0.0928879
0.38472
-0.291832
-0.36897
-0.0314275
0.400398
-0.21675
0.33222
-0.11547
0.0897306
-0.327834
0.238104
-0.00186123
0.149278
-0.0327235
-0.116555
-0.39613
0.365713
0.0304171
0.0125123
0.00126754
0.25444
-0.377208
-0.367124
-0.029006
0.30306
-0.407587
0.104527
-0.112458
-0.246654
0.359113
-0.00726754
0.0342736
-0.0933299
0.0881234
0.00520652
0.00156092
-0.0187055
0.0171446
-0.0229747
-0.229212
0.252186
0.0392955
-0.0460474
0.00675196
-0.147076
0.375693
-0.228617
-0.158693
0.423458
-0.264765
0.0631844
-0.0679937
0.00480928
0.186434
-0.0894698
-0.0969644
-0.049944
-0.0245131
0.0744571
0.351528
-0.417025
0.0654971
0.0397899
0.118825
-0.158614
0.230701
0.124246
-0.0186883
0.0202493
0.112654
-0.267941
0.327877
-0.0284721
-0.0240877
0.0253337
-0.001246
0.326374
-0.199768
-0.126606
0.422058
-0.336119
-0.0859396
0.0430186
0.10626
-0.0516837
-0.328238
0.379922
0.209208
-0.178546
-0.0306622
-0.348439
0.0906705
0.257768
0.110934
-0.327684
0.0663849
-0.00320055
0.00547131
-0.0694838
0.0640125
-0.0426253
0.0452492
-0.00262391
0.419774
-0.0540612
-0.0255437
0.227674
-0.202131
0.286381
0.0414959
-0.478922
0.109952
0.131783
-0.349891
0.218108
0.139795
0.0407152
0.0418632
-0.000836572
-0.0989968
-0.0572007
0.0657608
0.144805
0.181569
0.268021
-0.220673
-0.0473478
0.187865
-0.0657351
-0.12213
0.416153
-0.0486672
-0.367485
0.0670805
-0.0616092
0.0526038
0.36717
-0.265252
0.362868
-0.0976154
0.0466089
-0.122171
0.0979416
-0.336231
0.238289
-0.117769
0.137897
-0.0201276
0.295441
-0.00055272
-0.294888
-0.0876228
0.35021
0.192987
0.0750335
0.194423
-0.219966
0.441782
-0.0954531
-0.346329
-0.132611
0.0288923
0.103719
0.161745
-0.0322414
-0.129503
0.443858
-0.369482
-0.074376
0.116877
-0.140256
0.023379
0.0195874
-0.165063
0.0236359
-0.0219435
-0.0016924
-0.0462111
0.00358574
0.104567
0.0120628
-0.433029
0.0845905
0.0547981
0.230161
-0.284959
0.43442
-0.145109
-0.289311
0.0967293
-0.10594
0.00921055
-0.46253
0.335568
0.126962
0.0190983
0.00151989
-0.0206182
0.00236447
0.0212714
0.146189
0.0416767
0.112716
-0.00814986
0.230599
-0.369175
0.138576
-0.129284
0.233787
-0.104503
0.0943912
-0.232188
-0.0543362
0.286525
0.373207
-0.210903
-0.162305
0.350763
-0.395331
0.0445674
-0.163709
0.218149
-0.0544397
-0.0118446
0.102842
-0.0909977
0.0434508
0.218425
-0.261876
0.318815
-0.211745
0.312406
0.122014
0.449198
-0.375707
-0.0734902
0.0558634
0.385918
-0.0279444
0.163953
-0.136009
0.14914
0.224068
-0.153912
-0.0908691
0.244782
0.101364
-0.441212
0.376387
-0.145788
-0.19233
-0.268255
-0.00972737
0.25441
-0.0466364
0.17293
-0.126294
0.203489
-0.226464
-0.126303
0.145891
0.346803
-0.134372
-0.212431
0.242264
0.0280296
-0.270294
-0.0544718
0.0661326
-0.0116609
-0.121888
0.00411895
0.0520439
0.0164908
-0.0685348
0.0896692
0.00706005
0.0164409
0.210165
-0.000956658
-0.0448456
0.161722
0.212712
-0.428388
0.30487
0.0597591
-0.364629
0.0311237
0.412734
-0.222574
0.312305
-0.20422
0.314815
-0.110595
-0.130976
0.132881
0.355664
0.060489
-0.0248211
0.186566
0.398661
-0.0519849
-0.346676
-0.107091
0.00161872
0.105472
-0.329822
0.146207
0.183615
-0.00786835
-0.0262157
0.0340841
-0.0491522
0.354022
0.149979
-0.137077
-0.0129018
-0.0714529
0.412284
-0.022437
-0.180019
-0.0450142
-0.0474996
0.0416957
0.116767
-0.158463
0.124691
-0.138005
0.0133138
-0.202154
0.17421
0.3322
0.0664612
0.103111
0.00348361
-0.106594
0.119827
0.226976
-0.496004
0.117065
0.37894
-0.0414976
-0.0551226
0.0966202
0.0824241
-0.101362
0.0189383
0.323641
-0.420226
0.0965844
0.308984
-0.158101
-0.150884
-0.121957
0.11588
0.006077
0.0855163
-0.18863
0.103114
0.54056
-0.244083
-0.296476
0.212731
0.00859522
0.288236
0.252323
0.355186
-0.426638
0.0938176
0.225516
-0.319333
0.106966
0.211849
-0.0297495
0.0366784
-0.0069289
-0.236686
0.0961769
0.140509
0.287364
-0.374019
0.0866555
0.213003
-0.102353
-0.11065
-0.325701
0.0943471
0.231354
-0.110376
-0.0031029
0.113479
-0.19848
0.151844
-0.042878
0.0789466
-0.0360686
0.38832
-0.400831
0.0125111
-0.00181036
0.0143227
0.419258
-0.410465
-0.00879331
-0.102003
0.0128349
0.0891681
0.0350544
-0.0429228
0.127426
0.0225524
0.0439697
-0.0854673
0.127779
-0.372733
0.244954
0.314938
-0.448196
0.133259
0.174769
0.111612
0.32534
-0.193557
-0.223654
-0.106797
0.330452
0.0211157
-0.00201735
0.488031
-0.0948687
-0.393162
0.108779
-0.00566832
0.120823
-0.0576441
-0.0631784
0.108546
-0.0767367
0.4275
-0.412855
0.138846
0.170139
0.331887
-0.251142
0.271122
-0.223099
-0.0480227
-0.315832
0.402249
-0.086417
-0.186047
-0.163844
0.0122628
-0.13352
0.121258
0.204255
-0.117564
0.0853477
-0.0971922
-0.461459
0.35835
0.103109
0.0304896
-0.0733677
0.0459233
0.0138937
0.37863
0.0279458
-0.406576
0.0933116
0.242176
-0.335488
-0.126648
0.0214221
0.105226
-0.0145156
-0.112133
-0.243711
0.378392
-0.134681
0.40491
-0.418379
0.0134684
0.0554985
-0.00957517
-0.0418058
0.396991
0.450502
-0.135564
0.315086
-0.140317
0.329585
-0.104153
0.106866
-0.113321
0.00645503
0.153889
-0.0644474
-0.0894415
-0.102725
0.10621
-0.00348502
-0.229445
0.322757
0.398532
-0.0728532
0.0427564
0.298663
-0.34142
0.308654
-0.360338
0.388876
-0.244071
0.0736662
0.139337
0.330993
0.104046
0.0498429
0.132676
-0.247839
0.115163
-0.0194116
-0.00130882
0.0207204
-0.0792529
0.467573
-0.0275044
0.0347272
-0.00722276
0.147095
-0.156887
0.00979143
0.00341884
0.0504489
0.174464
0.313567
-0.168289
0.0112516
-0.449821
0.197422
0.252399
0.00688399
0.0959582
-0.340494
0.113807
0.226687
0.185946
-0.100429
0.000572301
0.0560843
-0.0566566
0.134316
0.106377
-0.240693
-0.122573
0.121783
0.000790227
0.0100186
-0.0525451
0.361199
-0.0979139
-0.00408912
0.140503
-0.00467503
-0.135828
0.106934
-0.296571
0.189638
0.206805
0.0814641
-0.288269
-0.0189457
0.0834534
-0.0645077
0.228066
-0.110251
-0.117815
0.122313
0.266564
-0.0414463
-0.170502
0.211948
0.166594
-0.151284
-0.0153099
0.342312
-0.442661
0.100349
0.271759
-0.467755
0.195996
-0.283304
0.196654
0.503495
-0.229119
-0.274375
-0.128253
-0.0645302
0.192783
0.193908
0.309587
0.0840732
0.192078
-0.276151
-0.0521072
-0.0805041
0.0535318
-0.38177
-0.0142152
0.0124049
-0.327825
0.397616
-0.069791
-0.0775375
-0.0157924
0.0536044
-0.2101
0.156496
0.283223
-0.377772
0.0945491
-0.0410467
0.0930906
0.134831
0.069424
0.0368425
-0.200551
-0.132779
0.265455
0.0355077
-0.0305464
-0.00496129
0.146898
0.0589791
-0.205877
-0.136501
0.270817
-0.120426
0.176972
-0.056546
-0.102487
0.105069
-0.00258191
0.0830042
-0.092368
0.00936375
-0.21205
0.0827654
0.357092
-0.181541
-0.175551
0.339305
0.0799534
-0.149934
0.0295071
0.100845
0.00491863
0.117748
-0.123982
0.00623392
0.0701491
-0.103329
0.169032
-0.412743
-0.227759
-0.313855
0.40651
-0.092655
-0.333678
0.450092
-0.116414
0.267428
-0.348005
0.0805767
0.411032
-0.0346446
0.00122003
-0.0206316
0.071568
0.339464
0.300339
-0.205992
-0.0167864
0.131928
-0.115141
-0.261605
0.342989
-0.0813831
-0.0542963
-0.00863663
0.0629329
-0.357131
-0.0322252
0.389356
-0.159081
-0.000195643
0.159277
0.0249489
0.0958737
-0.0265098
-0.0805808
0.103
-0.0199956
0.288467
0.0536165
-0.342084
-0.0751165
-0.00475564
0.0798721
0.284484
-0.423104
0.13862
-0.0614718
-0.283022
0.344494
0.0351823
-0.0329209
-0.00226145
-0.040287
0.171055
-0.252537
-0.0605931
0.0764928
-0.0158997
0.322168
-0.199344
-0.122824
0.0721335
-0.0677774
-0.00435606
0.0524507
0.240755
-0.293205
0.207062
0.108024
-0.0987023
0.0314851
0.0672173
-0.445518
0.278257
0.167261
0.0462107
-0.0347868
-0.0114239
0.248302
-0.193504
0.15445
-0.263291
0.108841
-0.00784493
-0.259181
0.267026
-0.332273
0.201749
0.130525
-0.396414
0.101252
0.295162
-0.051925
-0.0467774
0.409907
-0.436414
0.0265072
-0.292411
0.42102
-0.12861
0.274804
0.0408047
-0.315608
-0.209442
-0.0834115
0.292853
-0.402165
0.109754
-0.0112286
0.12705
-0.115821
-0.482052
0.237968
0.213446
-0.365091
0.151645
0.339908
-0.287458
-0.209283
0.167837
0.133925
0.00657763
0.417312
-0.306378
-0.0727082
0.361175
0.00400985
0.0681236
0.164349
-0.0198104
-0.144538
-0.0719925
0.0612561
0.0107365
0.346017
-0.115316
0.0361444
0.000533974
0.179867
-0.015518
0.323256
-0.0278155
0.129655
-0.175162
0.0455074
0.266862
0.0845603
-0.351422
-0.0799745
-0.41603
-0.299103
-0.182949
-0.224993
0.217148
-0.292854
-0.0983108
0.391165
0.301376
0.120871
-0.422248
-0.481665
0.378316
0.103349
0.0749377
-0.0545131
-0.0204246
0.0553814
-0.308605
0.253223
-0.08364
0.358444
-0.238203
0.0909253
0.147278
0.286144
0.0650938
-0.351238
-0.254333
0.327703
-0.0733699
0.21405
-0.0671517
-0.00414054
-0.235891
-0.0908708
0.326762
-0.0602382
0.00594194
0.152929
0.169239
0.00884938
0.446283
-0.388878
-0.0574044
-0.0271289
-0.0948276
0.000817859
0.015324
-0.0718955
0.35804
-0.180648
0.0307734
0.149875
-0.32821
0.12399
0.472482
-0.231727
-0.10808
0.149775
0.0917707
-0.0197961
-0.0719746
0.076059
0.152007
0.150376
-0.0290516
-0.121324
0.0125444
0.000551809
-0.0130962
0.332915
-0.119469
-0.0239329
0.00198945
-0.0107426
-0.00849428
0.0192369
0.0323648
0.317142
-0.349507
0.188863
0.136477
0.0873425
-0.127207
0.110421
0.333217
0.115981
0.171359
0.301122
-0.00755342
-0.0224403
0.305722
-0.0986605
0.313455
-0.258074
-0.167545
-0.132938
-0.126791
-0.321406
-0.185761
0.231154
-0.343613
-0.0231693
0.0224183
0.000750984
-0.282196
0.197712
0.157442
-0.133641
0.395757
-0.111273
0.210018
-0.103142
-0.106876
-0.28799
0.320355
0.0837413
-0.326751
0.24301
0.410173
-0.410173
-0.183465
-0.135346
0.31881
0.0782767
0.00317906
-0.0814557
0.292406
0.0482701
-0.340677
-0.0711232
0.36353
0.137376
-0.0126849
0.121454
-0.11606
-0.00539382
0.264875
-0.117578
-0.477662
0.37347
0.104192
0.375862
-0.344738
-0.0098524
-0.0871808
0.389925
-0.129792
-0.260132
0.427971
-0.0407563
-0.387214
-0.115905
0.347059
0.088541
-0.085641
-0.00289993
-0.0397753
-0.0891771
0.128952
-0.0868719
0.0500944
-0.0503774
0.000283006
0.17136
0.279142
-0.0172845
-0.00680323
-0.45871
0.301625
0.157085
-0.0106051
0.116249
-0.105643
0.128841
-0.116578
-0.0752217
0.342649
0.105515
0.240502
0.312063
0.105249
-0.0950398
-0.197934
0.292973
-0.20796
-0.209319
0.417279
0.156893
0.00142005
-0.158313
-0.0637912
-0.120367
0.184158
-0.20724
0.164303
-0.0144884
-0.149814
-0.175444
-0.287087
0.120953
0.268972
-0.340474
0.329228
0.0987426
-0.15469
0.177337
-0.0226469
0.394272
-0.0184095
-0.101563
0.315316
-0.213753
0.0767295
-0.00327481
-0.0734547
0.267772
-0.368264
0.100492
0.100686
-0.310128
-0.359253
-0.00992249
0.0123086
-0.0134824
0.340084
-0.401556
0.225835
-0.133426
-0.0924084
-0.0717435
0.000156114
0.0715874
0.123482
-0.294894
0.11063
0.184264
-0.00188004
-0.00382701
-0.351097
0.437193
-0.0860955
-0.153315
0.260249
0.24708
-0.0944703
-0.15261
0.0159458
-0.0876893
0.33183
-0.204051
-0.0568767
-0.251296
0.308173
-0.415244
0.346353
0.0688903
-0.220326
-0.119959
-0.0323648
0.00486036
-0.367356
0.00810323
-0.00521985
0.0315898
-0.0263699
0.351779
-0.421507
0.0697282
-0.0634646
-0.230563
0.314305
-0.319782
0.115961
-0.0203366
0.009594
0.121756
-0.124737
0.00298092
-0.34206
0.157354
0.184706
0.0895337
-0.0730429
-0.35927
-0.0622373
0.0517812
-0.0512089
0.365792
-0.452715
0.0869235
0.101938
0.0948553
0.00814459
0.252609
-0.0981593
0.258041
0.089774
-0.20182
0.073567
0.135511
0.00405615
-0.139567
0.0816829
-0.355959
0.274276
0.387635
-0.0639938
0.0042367
0.087534
0.397773
-0.0462444
0.144271
0.0738777
0.390272
0.0560109
-0.123553
0.083778
0.164834
-0.00053099
-0.308732
0.0970943
0.211638
0.283564
-0.095797
-0.0988531
-0.207411
0.306264
-0.0183042
-0.140777
-0.250612
-0.199209
-0.527226
0.298107
-0.191953
-0.0713377
0.0185303
0.0838783
0.0321192
-0.0272059
-0.00491324
-0.103916
-0.0434624
0.147378
0.0593733
0.127061
0.402032
-0.348687
-0.0533451
0.214737
0.0618163
-0.276554
0.0277133
-0.0329331
-0.264809
0.340398
-0.129468
0.138242
-0.00877386
0.0943756
-0.330235
0.23586
-0.228563
-0.273588
0.420718
-0.14713
-0.0853289
0.0604521
0.0248769
0.410297
-0.108921
0.0656799
-0.327285
0.338223
0.0638097
0.0908442
0.00401105
0.399095
-0.39972
0.000625031
-0.0174777
0.139732
-0.122255
0.0823318
9.22898e-05
0.00955246
0.111902
-0.0993891
0.0911922
0.00819687
0.0211563
0.0183854
-0.0395416
0.0953149
-0.0270129
-0.068302
-0.0679552
-0.0579639
0.0597265
-0.076665
0.0169385
0.0715389
-0.337593
0.266054
-0.000801665
0.193118
0.0539625
-0.231179
0.0829836
0.148195
0.451724
-0.0730935
-0.259923
-0.243679
0.1764
0.112742
-0.289141
-0.0516223
-0.147882
0.199504
0.33525
-0.11757
-0.21768
-0.232376
0.312017
-0.221346
-0.37734
0.0749274
0.302413
0.370783
0.0240972
-0.39488
-0.14855
-0.0101003
0.163013
-0.152912
0.00174023
0.0731975
0.0514707
-0.0597886
0.00831791
0.0254129
-0.0173085
-0.00810439
-0.00759674
0.0468922
-0.00222552
-0.0849528
0.0740424
0.0109104
-0.122053
-0.0348338
0.00985929
0.0262851
0.232413
-0.286029
0.0536155
0.00629151
-0.0783193
-0.299021
0.0232237
-0.0783463
0.0561732
-0.229655
0.310642
-0.0809866
-0.193682
0.180686
0.0129964
0.0332684
-0.0128666
-0.0204018
0.09988
-0.101791
0.00191072
-0.458573
0.154817
0.303756
0.025715
-0.0756493
-0.00923597
0.0848852
0.0614721
-0.0804178
-0.218182
0.0819563
-0.00367961
-0.28625
-0.172323
0.206997
0.0448475
-0.251844
0.0105757
0.0893043
-0.386335
0.28459
0.101745
-0.198726
0.282799
-0.00483448
-0.0785188
0.0833533
-0.264803
-0.0451884
0.221864
-0.176675
-0.108815
-0.267791
0.376606
-0.0219566
-0.0542529
0.0762095
0.135875
-0.343835
-0.00773656
0.261626
0.00920416
-0.27083
-0.00599658
-0.0179364
-0.163987
0.0370848
0.126903
-0.137781
0.0157281
0.0737199
0.212598
-0.286318
0.0316291
0.0145817
-0.329157
0.204634
0.124522
-0.201252
0.297577
-0.0963251
-0.0775183
-0.137849
0.0170461
0.120803
-0.0810105
0.427364
0.0959664
-0.329329
0.233363
-0.0701129
0.0933366
-0.227389
0.182201
0.0295044
-0.032843
0.00333863
-0.0249502
-0.00351196
-0.384051
0.275236
-0.0854396
0.200513
-0.115073
-0.156042
-0.0806434
-0.054097
-0.0282273
0.0823243
0.442684
-0.442684
-0.00152655
-0.0480568
0.0495833
0.115963
0.0214136
-0.0781188
0.0642859
0.0138329
-0.334449
0.104793
-0.0573978
0.264394
0.0974038
-0.0129942
-0.0844095
0.00111491
-0.0641519
0.063037
-0.0835058
0.00785649
-0.278314
0.299873
-0.0215592
0.0309171
-0.113475
0.0825583
-0.135095
0.102854
-0.0956556
-0.00984216
0.105498
0.444344
-0.175496
-0.268848
0.0538215
-0.0494485
-0.00437298
-0.269246
-0.0090684
0.307948
-0.131548
0.0697699
0.0962584
-0.166028
-0.0645379
-0.327167
0.391705
-0.00154859
0.0399279
-0.0383793
-0.0848742
0.024281
0.167556
-0.153139
-0.0144172
0.00194407
-0.0614214
0.0594773
0.104401
-0.11563
0.0224217
-0.0232184
0.000796729
0.369807
-0.27599
0.311095
-0.375633
-0.0955251
0.0931293
0.00239577
-0.105562
0.085648
0.0199136
0.0566929
-0.0450007
-0.0116922
0.259556
-0.344155
0.0845987
0.423568
-0.120508
0.374554
0.0303561
-0.0595914
0.364382
-0.304791
0.192918
-0.356341
0.163423
0.27853
0.12287
-0.337926
0.215056
-0.0956793
-0.19196
0.28764
0.0553886
-0.00391786
-0.0311448
-0.115077
0.146222
0.0260674
0.384105
-0.147466
0.04355
-0.119416
-0.0867596
0.206175
0.157069
-0.117279
-0.122658
-0.0171605
0.139819
-0.371113
0.311521
-0.276691
0.0445029
-0.0606409
0.11045
0.0203101
-0.130761
0.0590177
0.107577
0.13122
-0.378972
0.247753
0.0151238
-0.355591
0.340467
0.400521
0.00738631
-0.407907
-0.182597
-0.055607
-0.168969
0.361887
-0.402714
0.130111
0.272603
-0.117126
0.101893
0.0152335
-0.156049
-0.0949984
0.0992846
-0.0042862
-0.0375953
0.1416
-0.104005
0.0431325
-0.0219762
0.0211964
-0.0236259
0.00242943
-0.0975596
0.104444
-0.117681
0.389593
-0.271912
0.0363325
-0.339505
0.303172
0.401719
-0.449727
0.0480073
-0.214525
0.471733
-0.257208
-0.183134
0.184895
-0.0131756
-0.171719
0.110249
-0.100696
-0.00138226
-0.021787
-0.290701
-0.380505
0.290283
0.0902215
-0.0824709
0.0605143
-0.0156673
0.38645
-0.339461
-0.0935679
0.345586
-0.0860296
-0.100589
0.0786514
0.0219378
-0.108404
-0.221831
-0.200052
0.0768802
0.123172
-0.21905
0.290589
0.281659
-0.374547
0.309931
-0.432519
0.122589
0.152186
-0.177007
0.0823716
0.0129433
-0.0164853
0.132448
0.328231
-0.179537
-0.148694
-0.0447121
0.0563177
-0.0116057
-0.0618561
-0.118792
0.00234007
0.0515576
0.0495901
-0.101148
0.167279
-0.314355
0.0282984
-0.029847
0.0427954
-0.0387382
-0.00405715
0.0739784
-0.0788129
0.124701
-0.145309
0.0206084
-0.0452451
0.0535546
-0.00830947
-0.0339243
0.389903
0.234751
-0.074119
-0.160632
-0.0496751
0.1685
-0.0488766
0.056269
-0.00739243
0.212645
-0.0826134
-0.130032
-0.0244345
0.138135
-0.1137
0.289587
0.0861058
-0.122854
0.0457059
-0.00492987
-0.040776
0.185225
-0.105404
-0.079821
-0.00120775
-0.0344417
0.0356494
-0.0164082
0.134204
-0.117795
0.121707
-0.0418135
0.202031
-0.169462
-0.032569
-0.101759
0.369531
0.188089
-0.128715
0.0612118
0.305214
-0.366426
-0.0505156
-0.285616
0.336131
-0.0147585
0.171651
-0.491098
0.157471
0.333628
-0.00689282
0.0585115
-0.0516187
0.417313
-0.187025
-0.230288
0.0695367
0.143109
-0.00438384
0.0302781
-0.186327
-0.269962
-0.348105
0.0937721
0.169766
0.0151289
0.00328832
-0.0247285
0.0214402
-0.11476
0.00722315
0.107537
0.365695
-0.0964488
-0.269246
0.296607
-0.347122
-0.156077
0.131642
0.191147
-0.119231
-0.0719158
-0.00157022
-0.099463
0.101033
-0.00906418
0.107676
-0.0986118
0.318365
-0.373762
0.0553968
0.133384
-0.0164047
-0.11698
0.27655
0.0530358
0.0631938
-0.182609
-0.133585
0.126125
0.0074602
0.037482
-0.396752
-0.0579231
0.108226
-0.0503031
0.409719
-0.109516
-0.300202
-0.0428429
0.0574094
-0.0145665
0.023594
-0.00239757
-0.298427
-0.0814464
-0.235801
0.226113
0.00968828
0.35806
-0.248287
-0.109773
-0.451373
0.451373
0.00518959
0.0135395
0.277177
0.0808834
0.194543
0.133688
-0.392369
0.385096
0.00727273
-0.107839
0.189734
-0.0818944
0.00148562
0.0137702
-0.0152559
-0.00394683
0.40716
0.197912
-0.328449
-0.136332
0.151439
-0.0151073
0.0273205
-0.0852436
-0.428142
0.223787
-0.136993
0.00066123
0.207684
-0.0634127
-0.466664
0.193076
0.232685
-0.350366
0.0578737
-0.0140291
-0.0438446
-0.0247126
0.176899
-0.373035
0.0452107
0.377031
-0.377031
-0.157664
-0.0654354
0.019101
-0.141487
0.122386
-0.193925
-0.156437
0.350362
-0.0461127
0.178549
-0.0828511
-0.0956977
0.0373563
-0.00808065
-0.0292756
0.111841
-0.0678715
0.000634166
-0.110809
0.110174
0.0283357
0.0835055
-0.303021
0.289364
0.0136573
0.107969
-0.193409
0.0767982
-0.270724
0.0933138
0.272381
0.0715612
-0.336612
0.265051
-0.0609322
-0.00236931
-0.0758702
0.0782395
0.137826
-0.118725
-0.0815871
-0.0134113
0.0959453
-0.0654557
0.356746
-0.100802
-0.255943
-0.431339
0.27902
0.152319
-0.0760492
0.0769684
-0.000919186
0.0119037
0.094962
-0.164093
0.415834
-0.251741
-0.0755494
-0.283042
0.358592
-0.104991
0.0881503
0.0168409
0.173998
-0.145309
-0.0286885
0.364221
-0.0458561
0.0927122
0.270155
0.0711888
0.288166
-0.359355
-0.36056
0.406548
-0.0459883
0.404182
-0.0220263
-0.382155
-0.208451
0.282171
-0.0989552
-0.0971771
0.196132
-0.278713
0.350274
-0.0923137
0.262982
-0.170669
-0.000446764
0.0325321
-0.0320853
0.0566291
-0.0492687
-0.00736039
0.00317268
0.032335
0.395354
-0.110469
-0.284885
0.120361
-0.121684
0.00132266
0.195702
0.00632829
-0.197935
-0.0582674
0.256202
0.0302131
0.113108
-0.143321
-0.159248
-0.185636
0.344884
0.0234467
-0.0775437
0.00866962
-0.143593
0.134923
-0.0554765
-0.175703
0.498034
-0.209593
-0.288442
0.202902
0.295132
0.010399
0.0623292
-0.0727282
-0.134535
0.143205
0.0523097
0.0043194
-0.223344
-0.0977299
0.102074
-0.41593
0.094851
-0.146493
0.0516423
0.00872888
-0.362306
0.353577
-0.10029
-0.243314
0.343604
0.0164783
0.00893461
-0.0551967
-0.0453925
0.0889198
-0.0910855
0.00216569
0.352164
-0.305568
-0.0465966
0.34391
0.0566103
-0.00897925
-0.351581
-0.334378
-0.0219628
0.224436
-0.0313184
0.0721773
-0.0991044
0.0269271
-0.0362181
-0.0413194
-0.0538439
0.221283
-0.337189
0.105329
0.00492001
0.0785393
-0.277265
-0.0721744
0.286912
-0.158378
-0.0209707
0.179349
0.00130498
-0.0318514
0.117883
0.0283462
-0.146229
0.356374
0.0327573
-0.389131
0.134862
0.0562845
0.312023
0.0976955
0.358885
-0.287696
0.00494485
0.103469
-0.105039
0.393689
-0.414732
0.0210431
0.105779
0.172049
-0.277828
-0.0986568
0.110709
-0.0120518
0.0751539
-0.0750512
-0.00010272
0.118481
-0.14319
0.024709
0.0384624
-0.00110611
0.100077
-0.170023
0.0699457
0.109776
0.0485437
-0.15832
-0.0459578
0.0583717
-0.0124139
0.287499
-0.112753
-0.174746
-0.00648033
-0.229321
-0.314291
0.133171
0.181121
0.0924135
-0.101478
-0.00468082
-0.185429
-0.0612123
0.246642
0.0789099
-0.0685109
0.079398
0.163863
-0.243261
0.0545138
-0.00652549
-0.0479883
-0.255332
0.257506
-0.357796
-0.0560648
0.0113527
-0.329519
0.0160285
0.313491
-0.0697932
-0.272824
0.370852
-0.0980277
0.403144
-0.00142504
0.0923364
0.303018
-0.0208612
0.000104297
0.0207569
0.00908315
0.215353
0.101935
-0.0297574
0.195163
-0.353856
0.250907
0.0946789
0.105965
-0.454652
-0.49724
0.200891
0.296349
-0.208366
-0.288874
0.243462
0.112621
0.0659282
-0.276777
-0.0262446
0.290436
-0.0836315
0.301709
-0.215448
-0.0862609
0.264447
-0.255718
0.0795064
-0.01978
0.120366
-0.120186
-0.000179796
-0.151472
0.0234964
0.127976
-0.151254
0.234574
-0.0833198
0.331303
0.0921552
-0.396846
0.13621
0.260636
-0.0325302
0.187786
-0.155255
-0.184954
0.290732
0.067718
-0.476536
0.201423
0.275113
-0.350496
0.0161174
0.155306
-0.187836
-0.00106996
0.0136143
0.372759
-0.353329
-0.0194301
0.0351837
0.115192
-0.420594
0.379838
-0.396917
0.0810854
0.164117
-0.21088
0.0467637
-0.388886
0.10494
0.283946
0.0588059
-0.0549843
-0.00382164
0.350611
-0.382039
-0.28814
0.419982
-0.131843
0.00507493
0.070079
0.364844
0.0450632
0.0515501
-0.0504352
0.156807
-0.154004
-0.00280346
-0.0732667
0.097946
-0.0246793
0.0558555
0.00201821
0.30738
-0.102647
-0.293767
0.0825336
0.00154769
0.0862943
-0.087842
0.0231775
-0.0964442
0.142001
-0.193623
-0.335526
-0.0598048
-0.114126
0.0106104
0.0064561
0.366303
0.240327
-0.160929
-0.0221113
0.387903
0.356494
0.0282262
0.200959
-0.0141992
0.10132
-0.0871212
0.0212494
-0.256749
0.235499
0.410191
-0.32073
-0.0894613
0.442884
-0.107316
0.139615
-0.149715
-0.0546273
0.0117844
0.000404822
0.177552
-0.164294
-0.0132576
0.343248
-0.261565
0.0715183
0.244071
-0.31559
-0.329637
0.432814
-0.103177
-0.092331
-0.0209898
-0.0574153
0.334203
-0.276788
0.32798
-0.407233
-0.299244
0.197681
0.0238568
0.108071
-0.0350308
-0.0985539
-0.121698
-0.298896
-0.137279
0.0196633
0.117616
0.289346
-0.346762
0.416478
-0.106548
-0.0754522
0.0731938
0.00225841
0.346667
-0.0957595
-0.0311687
-0.120304
-0.191886
-0.269573
0.066214
0.0312664
-0.0974805
0.25093
0.101234
0.0805544
0.0460826
0.00401183
-0.335807
0.249807
0.0859997
0.24124
0.0604687
-0.260793
-0.136053
0.0308094
-0.299461
0.204421
0.338973
-0.225772
-0.113201
0.210073
0.131388
-0.0110269
-0.0895972
0.398343
-0.308745
-0.0189692
0.0804413
-0.155528
-0.247185
-0.0694979
0.41181
-0.0788453
0.178923
-0.0523734
0.0465241
0.00584924
0.0325436
0.019625
-0.0521686
-0.200523
0.221772
0.0376141
0.00518134
-0.00388144
0.016638
-0.0127565
-0.0117395
0.168547
-0.275903
-0.324859
-0.0792414
0.404101
0.0111525
-0.0106007
-0.0316944
0.0272265
0.00446791
-0.0318377
-0.177446
-0.277693
0.190492
-0.0703719
0.342131
0.506773
-0.216702
-0.29007
0.198875
0.307898
-0.354105
0.266482
0.00122326
0.136912
0.0505647
-0.329789
0.279224
0.129677
-0.144252
0.0145755
-0.0587204
0.0700599
-0.0113395
0.041531
-0.392628
-0.402355
0.329631
0.0727239
-0.0680621
-0.352368
0.42043
-0.0462215
0.404572
-0.143539
0.0172356
0.0621054
0.0235666
-0.085672
-0.342057
0.437754
-0.0956966
-0.432493
0.164056
0.268437
-0.00120418
-0.392921
-0.23451
-0.256588
0.154921
-0.291987
0.0678832
-0.253312
0.0686126
-0.0749755
-0.0229384
-0.286047
0.0406419
-0.0367907
0.364771
-0.396316
0.0496563
0.00914967
-0.125627
-0.0122214
0.295182
0.100575
-0.261727
0.333657
-0.0719297
-0.442715
0.286446
0.15627
0.166008
-0.0562318
-0.210155
-0.104137
0.369042
-0.10218
-0.0472914
0.0582561
-0.0109647
0.0489567
0.139132
-0.141588
0.125231
0.0163577
0.0958303
-0.0296163
-0.147513
0.212087
-0.0645739
0.378694
0.0116843
-0.390378
-0.0237502
-0.0222973
0.0180721
0.0111793
-0.0292513
0.244526
0.0944465
-0.121478
0.0052771
0.116201
-0.144155
0.145575
0.300703
0.0474593
-0.348163
-0.100823
0.210024
-0.109202
0.323172
-0.419895
0.0967233
0.324161
-0.0986446
0.00981333
0.0358925
0.132551
-0.196342
0.0682614
-0.273736
0.205475
0.10694
0.00102883
-0.107969
0.032291
-0.2941
0.261809
-0.0172027
-0.020519
0.0530626
0.0402181
0.180442
-0.22066
0.291725
-0.168855
-0.134269
-0.273317
-0.270622
-0.100956
0.371578
-0.151552
-0.00313776
-0.22026
0.0779132
0.142347
0.0918138
-0.102419
0.0049307
0.0401228
-0.0450535
0.102838
-0.395692
-0.323429
-0.0757708
0.3992
0.326383
0.2189
-0.250738
-0.0230019
-0.0984764
-0.283313
0.174909
-0.389403
0.114731
0.274672
0.0200391
-0.0204859
0.00217854
0.0145687
-0.0167472
-0.211607
0.139876
0.0717312
-0.00667684
0.0955967
-0.494075
0.197249
0.296825
-0.204204
-0.289871
0.0526902
0.00357888
0.0132949
-0.0143649
-0.11744
-0.0428171
0.160257
0.150347
-0.0976516
-0.052695
-0.35495
0.200113
0.154836
-0.0239463
0.0270041
-0.00305774
0.0738576
-0.0790749
0.0052173
0.0827591
-0.0206537
0.125574
-0.00379071
0.116505
0.00906855
0.33005
-0.426898
0.0968481
-0.0928998
-0.187339
0.280238
0.0882691
0.249437
-0.353084
0.103647
0.330268
0.0688272
0.0977799
-0.0119118
0.100012
-0.00180942
-0.0168961
-0.204764
0.166726
-0.133419
-0.0333074
0.0218395
-0.0240343
0.00219478
0.273299
-0.283026
-0.298379
0.184127
0.114252
0.0757092
-0.0872277
0.0115184
0.0587208
-0.00655167
-0.0521691
-0.135499
-0.0629816
0.10908
-0.310332
-0.280917
-0.107941
0.388858
-0.068169
-0.269396
0.337565
-0.205702
0.0718103
0.133892
-0.0937613
0.343198
0.388792
-0.0936105
-3.35184e-06
-0.0994597
0.440731
-0.110681
0.340197
-0.422552
0.0823548
0.163265
0.0384717
-0.201737
-0.227681
0.299199
0.318419
0.131558
-0.449977
-0.0107732
0.135474
-0.223107
0.069195
0.116409
0.0541595
-0.336289
0.282129
-0.14705
-0.242353
-0.0543927
-0.154976
0.209369
0.183968
-0.279647
-0.327492
0.436629
-0.109137
0.0241818
-0.0208763
-0.00330555
-0.433829
0.2904
0.143428
0.00744336
0.0492495
0.12345
0.0603367
-0.183786
0.0820821
0.0882324
-0.0151507
-0.27563
-0.0812556
0.419478
0.0192717
-0.0208849
0.00161323
0.0684989
-0.352158
0.283659
0.0229228
-0.12158
-0.273418
0.219081
-0.352732
0.205028
0.147704
0.0618641
-0.0575284
-0.00433574
0.0244076
-0.00256808
0.0023348
0.02649
-0.21191
0.157517
-0.132203
-0.189131
0.026384
0.377798
-0.0980044
-0.118198
0.216202
-0.151461
-0.0556238
0.336388
-0.280764
0.0725242
0.00631014
-0.0788343
-0.0569374
-0.26434
0.110481
0.153859
0.178364
-0.000812692
-0.0782133
0.075844
-0.397178
0.0737489
-0.0748134
-0.00123583
0.00025449
0.0893669
-0.0885628
-0.000804034
-0.0843469
0.0858946
-0.0315386
0.0315154
2.31848e-05
-0.212412
0.38937
-0.0782752
-0.140579
0.109434
-0.323658
0.37743
-0.0537719
0.156859
0.0160719
-0.423604
0.277638
0.145966
0.0831356
-0.0984034
0.0152678
-0.15304
-0.0109474
0.129988
-0.277502
-0.195548
-0.0938605
0.289408
0.089204
-0.190027
0.203885
0.101837
-0.380053
0.347828
-0.331516
0.419109
-0.0875932
0.342229
0.160702
0.276789
-0.396133
0.120718
0.275414
0.0684391
-0.392097
-0.505005
0.205805
0.2992
0.206329
-0.166111
-0.123968
-0.0651492
0.189117
0.052174
-0.0711432
-0.0104629
0.0285349
0.329821
-0.293488
-0.22737
-0.304114
-0.0687476
0.198135
-0.129387
-0.136949
-0.0833114
-0.0387644
-0.0667973
-0.0193006
0.25249
-0.253043
0.10434
0.209032
-0.301932
0.0579773
0.168919
-0.226896
0.0556336
-0.198131
0.142498
-0.412424
0.317379
0.0950442
-0.227731
0.164837
0.062894
0.110489
-0.11431
0.00382163
-0.315356
0.41261
-0.0972548
0.0791043
0.00901912
0.0163678
-0.294401
0.181239
-0.0240267
-0.424211
0.273932
0.150279
-0.11922
0.149434
-0.273364
-0.208301
0.0951172
0.036271
-0.118478
0.304879
0.0142401
0.00035249
-0.0145925
0.0217638
-0.00231703
-0.0194468
-0.0944085
0.106196
-0.0117876
0.424536
0.0103599
0.315172
0.0531118
-0.368284
-0.0881647
0.0945661
-0.00640143
0.0986636
-0.015528
0.24385
-0.430875
-0.110583
-0.285549
0.237
0.0414416
-0.0398646
-0.00157704
-0.0460768
0.00733852
-0.0292939
0.40761
-0.300391
-0.0863947
0.386785
0.426209