/*--------------------------------*- C++ -*----------------------------------*\
| =========                 |                                                 |
| \\      /  F ield         | OpenFOAM: The Open Source CFD Toolbox           |
|  \\    /   O peration     | Version:  v2012                                 |
|   \\  /    A nd           | Website:  www.openfoam.com                      |
|    \\/     M anipulation  |                                                 |
\*---------------------------------------------------------------------------*/
FoamFile
{
    version     2.0;
    format      ascii;
    class       volVectorField;
    location    "200";
    object      U;
}
// * * * * * * * * * * * * * * * * * * * * * * * * * * * * * * * * * * * * * //

dimensions      [0 1 -1 0 0 0 0];


internalField   nonuniform List<vector> 
27802
(
(1.04818 0.0685204 6.86122e-22)
(1.0042 3.49689e-05 0)
(1.0136 0.00897622 2.7589e-22)
(1.0134 0.000721432 -1.37844e-21)
(0.865741 0.0487812 1.4929e-21)
(1.0149 0.00882889 0)
(1.01253 0.00890461 0)
(1.01604 0.0106154 -1.21344e-22)
(1.01929 0.0364422 -1.54886e-22)
(1.03887 0.0105709 3.95e-21)
(1.00667 0.000560632 1.29846e-22)
(0.685884 0.0339465 5.95617e-21)
(0.462917 0.0263264 0)
(1.02239 0.0586998 3.88251e-21)
(1.01585 0.00340192 1.87525e-21)
(1.01222 0.00878768 0)
(1.00807 -0.000520451 -9.60115e-24)
(0.737408 0.0350033 1.12794e-20)
(0.789527 -0.0219602 6.52794e-21)
(1.02882 0.0277498 2.97597e-23)
(1.00443 5.7187e-05 0)
(1.01245 0.000972507 -8.94414e-22)
(1.04833 0.0702788 -6.69123e-21)
(1.08443 0.0554266 4.8064e-21)
(1.0058 0.000360272 3.1824e-22)
(1.02633 0.0132576 6.73942e-22)
(1.01483 0.00824991 -2.95249e-22)
(1.0383 0.0104318 -7.9126e-21)
(1.00573 0.000333511 -3.1746e-22)
(0.960803 0.165792 8.24071e-22)
(1.02527 0.00708282 0)
(1.01627 -0.000624456 -5.35574e-22)
(1.05769 0.0517925 1.66166e-20)
(1.03913 0.0351461 0)
(1.04326 0.0521492 -1.93822e-20)
(1.0178 0.00230594 0)
(0.964524 -0.00815378 0)
(0.931332 0.205766 3.13727e-21)
(1.02505 0.0072315 2.3101e-21)
(1.01546 0.00833586 4.4923e-22)
(1.03413 0.00376611 -4.26559e-21)
(1.01566 0.00845238 6.53048e-22)
(0.558422 -0.0366633 -1.1678e-20)
(0.977851 0.0133823 -6.96147e-22)
(1.01165 -0.000375906 0)
(1.01532 0.00360206 2.3681e-21)
(1.09828 0.0725263 0)
(1.0257 0.00975845 4.18765e-21)
(1.01038 -0.000628061 2.10083e-22)
(1.03425 0.00305269 9.50939e-22)
(1.03995 0.0258369 0)
(1.01175 -0.00048665 -1.1197e-22)
(0.935687 -0.040608 0)
(1.00382 -7.90665e-05 1.12291e-22)
(1.01256 0.00629246 -7.24208e-23)
(1.01442 0.00839839 -7.72656e-23)
(0.407637 0.00477715 4.4579e-21)
(1.02305 0.0552471 1.06561e-21)
(1.01241 0.00101337 7.91379e-23)
(0.373022 0.0083396 4.44477e-21)
(1.01773 0.00213793 0)
(1.0125 0.00112846 -3.59721e-22)
(0.956718 0.0358146 -3.58371e-22)
(1.01447 0.00661966 5.53311e-24)
(0.751718 0.0381045 -1.04794e-20)
(1.07931 0.0572044 6.17904e-21)
(0.515943 0.0130983 0)
(1.01531 0.0105049 1.35417e-22)
(0.779445 0.044114 0)
(1.01178 0.000756518 -6.1284e-22)
(1.01074 0.00169735 0)
(1.08379 0.0556406 -8.56676e-21)
(0.705096 0.0254601 -4.95129e-22)
(1.08394 0.0556192 0)
(0.97953 -0.0882767 5.5369e-23)
(1.04642 0.0251556 1.9534e-21)
(0.917137 0.202363 0)
(0.500689 0.0110673 0)
(1.03174 0.00253522 0)
(1.01209 0.0082064 1.36953e-21)
(0.552407 -0.0247755 -7.52497e-21)
(0.995988 -0.0414618 -3.19511e-21)
(1.01043 -0.000576567 0)
(1.02233 0.0536088 -2.05409e-21)
(1.01138 0.00171231 0)
(1.03342 0.0212517 4.08522e-21)
(1.00547 0.000233972 2.0561e-22)
(1.01259 0.00626615 0)
(1.08381 0.0555397 0)
(1.10665 0.108049 1.26542e-20)
(0.859907 0.0428563 1.318e-22)
(1.0123 0.000718422 4.58386e-22)
(1.06846 0.0467833 2.04248e-22)
(1.01182 0.00800919 -1.37411e-21)
(1.00421 -8.20517e-05 7.49826e-23)
(1.02634 0.00918064 -3.93681e-21)
(1.06632 0.0235016 -7.7579e-21)
(0.85129 0.0477636 -1.08033e-20)
(1.0342 0.00337353 0)
(1.09663 0.0729593 0)
(1.00365 -0.0449384 0)
(1.03426 0.00522905 7.51117e-21)
(1.03671 0.0198177 0)
(1.01551 0.00021414 0)
(1.10427 0.107559 0)
(1.01226 0.000541798 -6.92134e-22)
(0.987827 -0.00365435 0)
(1.01781 0.0366679 -6.78663e-23)
(1.01871 0.00420212 0)
(1.06363 0.0411013 2.60476e-21)
(1.0152 0.0102922 1.19748e-21)
(1.01561 0.0032774 -2.7116e-21)
(1.03425 0.00560043 -5.64228e-21)
(1.0805 0.0501441 -2.72694e-23)
(1.00675 0.000194783 2.14058e-22)
(0.981215 0.0367947 -1.95574e-21)
(1.02992 0.027968 -6.75145e-22)
(1.00802 0.000863432 1.35577e-22)
(1.06079 0.0195346 0)
(1.028 0.0287915 0)
(0.516362 0.0302689 1.55028e-22)
(0.841443 0.0427718 -5.40195e-22)
(1.07598 0.0339196 -1.724e-20)
(1.00547 0.00023731 -2.90143e-22)
(1.02026 0.00781635 1.58233e-21)
(1.02425 -0.00326373 2.31386e-22)
(1.04348 0.138958 -1.28734e-20)
(1.01385 0.038437 3.52944e-22)
(0.536179 0.0272105 -6.10195e-21)
(0.509273 0.0287408 -6.37211e-22)
(1.03635 0.0200442 -3.61108e-21)
(1.07516 0.0338576 1.45779e-20)
(1.01317 -0.00212818 4.78039e-24)
(1.0365 0.0102664 0)
(1.01054 -0.000625714 2.16084e-22)
(1.0151 0.0101142 -1.74602e-22)
(1.01377 0.00866774 4.19391e-22)
(1.01098 -0.000597431 -3.13412e-22)
(1.01901 0.0486374 0)
(1.03115 0.0734524 0)
(1.01541 0.0106672 -1.02847e-22)
(1.01485 0.00840907 4.56294e-22)
(1.02416 -0.00191966 1.83844e-23)
(1.00647 0.000120197 0)
(1.00681 0.000165321 0)
(1.02759 0.0184559 -1.60827e-21)
(1.01363 0.00855356 -7.43641e-22)
(1.02098 0.0162598 3.5782e-22)
(1.0118 -0.000311045 2.21735e-22)
(1.01336 -0.00202286 0)
(1.00672 0.000558702 -1.20901e-22)
(1.0253 0.00966696 -1.5386e-21)
(1.04947 0.0164822 2.07028e-21)
(1.01529 0.010552 -2.14127e-22)
(1.02861 0.0296814 1.65301e-22)
(1.01115 0.00414543 -2.50411e-22)
(1.05384 0.0264404 5.38234e-22)
(1.08243 0.057187 0)
(1.06387 0.0405688 0)
(1.07197 0.0908134 -6.11935e-21)
(1.03824 0.13702 2.18324e-21)
(1.0839 0.0555417 0)
(1.03301 0.0210438 -2.92754e-21)
(1.06 0.0194606 2.80342e-21)
(1.00793 -0.000478762 2.65605e-24)
(1.00842 -0.000370614 -3.29244e-22)
(1.00789 0.000798388 -5.32652e-23)
(1.01444 0.00854313 3.91376e-23)
(1.02451 0.00237236 -2.25505e-21)
(1.0284 0.026524 -6.35512e-22)
(1.01629 0.000254293 -4.60665e-22)
(1.02949 0.0277175 2.50185e-22)
(1.01118 0.00324386 -1.38094e-22)
(0.860594 0.00480992 1.04673e-22)
(1.02511 0.00775563 -6.53142e-22)
(0.795895 0.0398719 2.84403e-21)
(1.00831 -0.000385559 2.22798e-22)
(1.05562 0.0301084 -3.74648e-21)
(1.01161 -0.000539713 0)
(0.959967 -0.00411915 0)
(1.08468 0.055448 5.8373e-21)
(1.03063 0.0326875 9.06396e-22)
(1.04127 0.0358617 1.02669e-21)
(1.02746 0.0181565 -4.25452e-22)
(1.01118 0.00320751 0)
(1.05546 0.0600844 0)
(1.01109 0.00405359 0)
(1.00157 -5.0406e-05 0)
(1.04691 0.119691 0)
(1.07339 0.165976 -7.51996e-21)
(1.00519 0.000196396 -1.78831e-22)
(1.01853 0.020221 4.14744e-23)
(1.05226 0.0669738 0)
(1.04135 0.0143135 -2.37908e-21)
(1.00877 -0.000490464 0)
(1.01541 0.00838082 -7.0218e-22)
(1.00879 -0.00049976 1.40179e-24)
(1.01136 -0.000487914 0)
(1.01685 0.00587147 -9.70732e-22)
(1.01469 0.00831498 -6.32452e-22)
(0.741877 0.0531322 2.20929e-21)
(0.989258 0.149832 -3.38973e-22)
(0.974313 0.0160776 -1.71584e-21)
(1.03372 0.0266013 2.05225e-21)
(1.01869 0.00453009 1.22094e-21)
(1.07399 0.0346029 7.85865e-21)
(1.04898 0.0159308 -1.7319e-21)
(1.11735 0.0931433 7.01336e-21)
(1.01341 -0.00197448 0)
(0.383774 0.0101575 -1.31217e-20)
(1.01782 0.00130021 2.73926e-21)
(1.02508 0.17857 2.25744e-21)
(0.824039 0.0415304 2.31916e-21)
(1.05493 0.0300208 3.1473e-21)
(1.04977 0.122416 -4.69698e-21)
(1.01368 0.00586164 -3.89986e-22)
(0.989652 0.0329837 5.977e-22)
(1.0117 0.00745748 4.05629e-22)
(1.02663 0.00962708 1.43732e-21)
(1.01107 0.00307512 5.82511e-22)
(0.548025 0.0281939 5.32055e-21)
(1.00935 -0.000983026 0)
(1.0544 0.0595816 -8.41981e-23)
(1.00258 0.101853 -1.15131e-21)
(1.01117 0.00312964 -5.9023e-22)
(1.01084 -0.000614862 5.17076e-22)
(1.01058 -0.000563579 -1.07471e-22)
(1.01812 0.0199066 -3.78555e-23)
(1.01541 0.00376232 0)
(1.03478 0.00476641 -4.79223e-21)
(1.00904 -0.000904732 -4.88047e-23)
(0.361582 0.0065396 -6.12588e-21)
(1.0266 0.00900328 3.42816e-23)
(1.05335 0.0375227 -8.71819e-21)
(0.859491 0.0243335 0)
(1.03094 0.075541 1.71252e-21)
(1.00801 0.00060383 0)
(1.11808 0.0922479 -1.42096e-20)
(1.04869 0.0507688 -4.4491e-21)
(1.01518 -0.00579236 0)
(1.01221 0.00615291 -4.91607e-22)
(0.842554 -0.0801518 -1.22877e-21)
(0.818691 -0.0750129 0)
(1.01642 0.000818472 4.89655e-22)
(1.01013 0.000471226 -6.19091e-22)
(1.06382 0.0500733 0)
(1.01122 -0.000525518 0)
(0.989509 0.0240772 -5.92087e-22)
(1.01173 0.00713768 7.76063e-23)
(1.0134 0.0086967 -7.96086e-22)
(0.956817 0.123932 0)
(1.04524 0.0385533 3.08276e-21)
(1.04381 0.0678673 4.80911e-21)
(1.01222 0.00618027 0)
(1.01162 0.00040008 1.31259e-21)
(1.00917 -0.000539621 -2.39826e-22)
(1.01124 0.00175477 1.66689e-22)
(0.999757 -0.0553865 1.70509e-21)
(1.03335 0.0266399 -1.66502e-21)
(1.00896 -0.000534187 -7.41491e-22)
(1.04458 0.0386181 -3.0062e-21)
(1.03199 0.00535081 0)
(0.566528 0.0223039 1.45144e-20)
(1.01329 -0.00195002 7.18541e-24)
(0.72838 0.0437069 -4.87296e-21)
(1.0567 0.0295009 1.37542e-20)
(0.717702 0.0520216 0)
(1.0348 0.00515228 1.36612e-21)
(1.00945 -0.00100418 0)
(1.02534 0.00762813 7.67303e-22)
(1.08218 0.0574738 2.08433e-21)
(1.01281 0.0032196 0)
(1.02917 0.0716476 0)
(1.00721 -0.0746096 -1.51664e-21)
(1.04082 0.0141162 7.06062e-21)
(1.08851 0.0525015 -1.52518e-20)
(1.02094 0.0153008 0)
(1.0618 0.0414978 1.04874e-20)
(1.05593 0.0293574 -9.89113e-21)
(1.01115 0.00164074 0)
(1.03171 0.172819 0)
(1.05533 0.037338 -3.8786e-21)
(1.01592 0.0134768 0)
(0.989833 0.0155633 0)
(1.07521 0.132106 -7.51841e-21)
(0.940041 0.102934 2.41378e-21)
(1.00839 -0.0595335 -1.52545e-21)
(1.02649 0.0117688 -4.58775e-23)
(1.03872 0.0270811 3.81655e-21)
(1.0036 -6.33253e-05 5.83424e-23)
(1.01057 -0.00127995 0)
(1.03617 0.0303474 1.07561e-21)
(1.00965 -0.000613915 3.89768e-22)
(0.909622 0.0885095 1.43498e-21)
(1.00969 -0.000641737 0)
(1.02973 0.0209184 -6.18526e-22)
(0.98033 0.0409371 4.37664e-21)
(1.01147 0.00185317 1.47679e-22)
(0.397343 0.0132466 0)
(0.978722 -0.0585844 -3.02988e-22)
(1.07982 0.0569389 0)
(1.02775 0.0176154 0)
(1.01972 0.00545029 -2.75035e-22)
(1.07006 0.090213 7.86971e-21)
(0.88396 0.0528755 -6.20456e-21)
(1.02089 0.0499651 3.36157e-22)
(1.03146 0.00525391 1.03177e-21)
(0.74284 0.042958 -1.15348e-21)
(1.01316 0.0276069 0)
(1.02082 0.0155475 0)
(1.03222 0.0314973 0)
(1.05236 0.0599545 1.13991e-20)
(1.07255 0.0589316 -3.3926e-22)
(1.03705 0.0104066 0)
(1.0176 0.0177732 9.35833e-22)
(1.01768 0.00129253 -1.10245e-21)
(1.03241 0.0318211 -5.5914e-22)
(1.04671 0.0677585 0)
(1.06517 0.0399015 -1.33491e-21)
(1.02126 0.0601997 1.4735e-21)
(1.01619 0.000705338 4.6272e-22)
(1.01887 0.00440231 -1.40851e-21)
(1.00744 -0.00035722 -1.87514e-23)
(1.01287 -0.00102733 -4.21785e-22)
(0.973439 0.00271862 0)
(1.01367 -0.0020233 0)
(0.574161 0.0232664 -1.40419e-20)
(1.01401 -0.00227362 -1.65267e-22)
(1.01882 0.00473227 1.38603e-21)
(1.05051 0.0361321 3.31012e-21)
(1.01292 0.00784549 4.26917e-22)
(0.96962 0.098429 -1.95966e-20)
(1.0136 -0.0839124 0)
(1.01559 -0.0219136 -1.00758e-20)
(0.999199 0.0988083 -6.20591e-22)
(0.876141 0.0150053 0)
(1.07253 0.059527 2.65173e-21)
(1.0105 0.00302866 0)
(1.08435 0.0501966 -1.73325e-20)
(1.01248 0.00296474 0)
(1.00785 -0.000481836 -7.33571e-23)
(0.744471 0.0371008 6.81697e-21)
(0.461 0.225778 0)
(1.03681 0.000730682 -1.05096e-21)
(1.08619 0.0597308 0)
(1.11893 0.0944667 0)
(1.09882 0.0761986 -1.13224e-20)
(1.02022 -0.0790075 9.08769e-24)
(1.01152 0.0066575 -8.05784e-23)
(1.10791 0.122964 -5.95795e-21)
(1.01107 -0.000884415 3.80001e-22)
(0.802758 0.041343 5.24763e-21)
(1.02043 0.00804818 0)
(1.024 0.0155383 3.98036e-21)
(1.01429 0.0088747 -1.42724e-22)
(1.01354 0.00854408 4.88123e-22)
(0.970746 0.00377195 -4.07836e-22)
(1.10883 0.118626 0)
(1.00454 0.000118846 -2.84552e-22)
(1.01288 -0.00114414 2.28454e-22)
(1.01 0.0250335 1.26628e-21)
(1.05071 0.136962 -2.9838e-22)
(1.01307 -0.00123722 0)
(1.03564 0.0406126 5.21272e-21)
(1.00853 -0.000471566 0)
(1.00818 0.000599725 0)
(1.01987 -0.0709657 1.69399e-24)
(1.02633 0.0114383 0)
(1.0546 0.0370736 0)
(1.01243 0.00609182 -1.40686e-22)
(1.01037 0.00295043 -1.09039e-22)
(1.09994 0.0778787 9.77451e-21)
(1.0302 0.0326583 9.98867e-23)
(1.08346 0.0557831 -1.12761e-20)
(0.909412 0.184908 -2.97212e-21)
(0.726131 0.0513318 -5.70001e-22)
(1.03029 0.032632 0)
(1.01494 0.0101684 -1.13793e-21)
(1.02921 0.0304445 -4.21382e-22)
(1.01567 0.00282889 -8.89659e-22)
(1.00124 -4.13864e-05 0)
(1.00853 -0.000461183 0)
(1.01421 0.00874261 -1.24592e-22)
(1.01389 -0.000678551 4.57993e-22)
(1.00359 -8.18693e-05 1.59422e-23)
(1.01006 0.000813158 2.80059e-22)
(1.10254 0.0716703 6.98612e-21)
(1.01378 -6.12922e-05 0)
(1.00775 0.0218081 -5.25978e-22)
(1.02138 0.0307051 4.0222e-23)
(1.01154 0.000819042 8.16324e-22)
(1.0126 0.00677221 -9.12446e-23)
(1.01304 0.0266243 0)
(1.06487 0.040518 0)
(1.0161 0.00555707 0)
(0.950156 0.0928971 2.01005e-20)
(1.11259 0.115476 2.61568e-21)
(1.08463 0.0497573 1.30883e-20)
(1.00261 -5.77518e-05 1.39111e-22)
(1.05381 0.0674362 -2.70612e-21)
(0.734847 0.036264 -1.00944e-20)
(1.06268 0.0417314 -1.00935e-20)
(1.01136 0.000815877 -4.73682e-22)
(1.03443 0.03028 1.36018e-22)
(1.02487 0.00236182 3.72768e-21)
(1.02826 -0.0881423 0)
(1.03071 0.0325358 -9.81448e-22)
(1.09545 0.0977301 -4.90162e-21)
(0.930956 0.098614 -2.19841e-21)
(1.03217 0.0350098 0)
(0.39904 0.00997857 -2.26311e-22)
(1.00721 0.000405979 -2.3533e-22)
(0.502541 0.0296821 0)
(0.540278 0.0248348 6.13001e-21)
(0.895997 -0.100392 0)
(1.02638 0.00976952 1.53831e-21)
(1.01308 -0.00112116 2.19518e-22)
(1.0508 0.0368951 0)
(1.00652 0.000101088 2.15439e-22)
(1.03852 -0.0805542 8.70718e-22)
(0.56482 -0.0335643 7.71631e-21)
(1.01158 0.00630762 0)
(1.01393 -0.000913734 -7.88526e-22)
(1.02664 0.0131449 -8.03682e-22)
(0.997368 0.0372267 2.49842e-22)
(1.01537 0.0106947 -1.99215e-22)
(1.01449 0.00592811 9.06964e-22)
(0.574523 0.0293856 -3.04531e-21)
(0.982708 0.0125486 7.23724e-22)
(1.03967 0.0253795 -5.30472e-21)
(1.01232 0.00281962 0)
(1.03103 0.0325204 0)
(0.889813 -0.110271 0)
(1.01416 0.00588583 0)
(1.00088 -9.49816e-06 1.87336e-22)
(1.01676 0.00635108 0)
(1.07626 0.0627701 -7.12138e-21)
(1.06398 -0.0293568 -3.1764e-22)
(1.06893 -0.0130569 1.52167e-22)
(1.04076 0.0361683 0)
(1.05516 0.0540423 -1.29333e-21)
(1.01717 -0.00106433 -4.29129e-22)
(1.0035 -7.97965e-05 -2.88788e-25)
(1.00776 0.000652676 1.41352e-22)
(1.04986 0.0709344 0)
(1.01713 0.00105429 1.21218e-21)
(1.00676 0.000536399 0)
(1.01381 0.00545695 -9.48217e-22)
(1.07357 0.0578685 2.01505e-21)
(1.02819 0.0346219 0)
(0.76845 0.180343 1.9875e-22)
(0.960711 0.061838 1.09501e-20)
(0.984445 0.0181419 0)
(0.552763 -0.0188941 3.39363e-22)
(1.00999 -0.000706964 1.22949e-26)
(1.05355 0.0462876 2.13102e-21)
(1.05308 0.0366137 1.58515e-20)
(0.977941 -0.002183 3.91874e-22)
(0.897072 0.184623 3.72452e-21)
(1.01229 0.00598221 1.56669e-22)
(0.991451 0.00471425 1.892e-21)
(1.0233 0.018088 -4.86466e-22)
(1.03321 0.0334092 1.09244e-23)
(1.03464 0.0408853 0)
(1.00788 -0.00044701 5.07033e-24)
(1.04817 0.0178183 1.78781e-21)
(1.02148 0.0375877 -1.89885e-22)
(1.01699 0.00105765 0)
(0.984175 -0.000246064 3.70782e-22)
(1.00671 0.000517701 0)
(1.03445 0.0301812 0)
(1.00751 0.000580471 -1.30035e-22)
(1.01449 0.00889538 0)
(1.07674 0.0962784 9.76033e-21)
(0.983163 -0.0208252 0)
(1.0654 0.149676 -5.67786e-22)
(1.0127 -0.00182305 -3.15846e-22)
(0.433224 0.00486501 1.53778e-20)
(1.00774 -0.000445966 -1.89586e-23)
(1.03422 0.0260754 -1.91118e-21)
(1.08283 0.0558292 9.27738e-21)
(1.03378 0.0260593 -3.52275e-21)
(1.01731 0.0199686 0)
(1.04526 0.0688248 0)
(1.07346 0.0584669 3.90054e-22)
(0.967174 -0.0449463 4.36088e-22)
(1.01571 0.0134551 2.76927e-22)
(1.03291 0.0137702 0)
(1.08305 0.055717 -1.34935e-20)
(1.01373 0.00601077 0)
(1.01878 0.00507289 1.82216e-21)
(1.03746 -0.0438863 0)
(1.01498 0.00832858 3.66051e-22)
(0.70908 0.0430809 1.0044e-20)
(1.01251 -0.00140227 2.41475e-23)
(0.735186 0.0372131 -1.14528e-20)
(1.02267 -0.0539617 2.71161e-23)
(1.02911 -0.0466966 0)
(1.01423 0.00605158 -2.38367e-23)
(1.04552 0.0350572 4.01689e-22)
(0.551349 0.0253291 2.28359e-22)
(1.06646 0.0392204 0)
(1.09378 0.150239 2.88071e-21)
(1.07322 0.092276 -5.1133e-21)
(1.01328 -0.0514266 1.46175e-22)
(1.08904 0.0519086 1.67352e-20)
(1.00427 0.000244876 -1.63579e-22)
(1.03079 0.0324373 -1.05829e-21)
(1.07181 0.0604959 -1.0337e-20)
(1.02375 0.0151604 -2.24498e-21)
(1.01474 0.00873454 0)
(0.909663 0.100902 1.25026e-21)
(1.02986 0.0327452 6.75237e-23)
(1.0092 0.00250341 2.49915e-22)
(1.00477 0.000129612 0)
(1.09318 0.0993526 2.24192e-21)
(0.991728 -0.0851292 0)
(1.01646 0.049477 0)
(1.00302 -7.78202e-05 7.04348e-23)
(1.02867 0.0348042 0)
(1.04802 0.0181524 0)
(0.83933 0.0807484 3.52478e-21)
(1.01593 0.0104064 0)
(1.00285 -0.000907882 -5.48906e-22)
(1.01058 -0.0159957 7.60573e-21)
(1.01298 0.00323381 -5.59884e-24)
(1.00939 -0.000586368 2.17292e-23)
(1.02434 0.0155774 0)
(0.954977 0.156665 -1.46618e-22)
(0.742769 0.0374209 0)
(1.02681 0.0332494 0)
(0.701654 -0.00872247 1.77656e-22)
(1.01271 -0.000745146 0)
(1.01523 0.0101116 1.25983e-24)
(0.7613 0.0386113 0)
(1.01594 0.0036104 0)
(1.03368 0.0429118 0)
(1.01427 0.00572146 0)
(1.00937 -0.000567794 6.57552e-22)
(1.00999 -0.012525 0)
(1.10454 0.130077 0)
(1.00312 -0.000110911 -1.60283e-23)
(1.01307 0.0081197 0)
(1.01285 -0.000662161 -9.99438e-23)
(1.07088 0.0604792 1.35614e-20)
(1.00281 -6.66862e-05 3.41718e-22)
(1.04763 0.0321958 -5.39505e-21)
(1.07263 0.166299 1.72113e-20)
(1.05412 0.0536744 0)
(1.06846 0.0630185 -4.5817e-21)
(0.72342 0.049497 0)
(1.07847 0.0621757 7.80216e-23)
(0.969471 0.165366 -1.8853e-21)
(1.02806 0.130059 3.87867e-21)
(1.02263 0.00109646 5.045e-21)
(0.730173 0.0370934 2.92646e-21)
(1.03265 0.0139766 -1.63471e-21)
(1.0213 0.043415 0)
(1.01586 -0.00587321 2.76974e-23)
(1.01246 0.000932388 1.10553e-21)
(1.02301 0.00189896 -2.51099e-21)
(0.919917 0.0709226 0)
(1.01538 0.00867117 -1.05413e-23)
(1.01434 0.00590556 0)
(1.00552 0.000243739 2.24968e-22)
(0.998742 -0.093257 -1.48745e-22)
(1.00755 0.000399691 -3.67503e-22)
(1.02784 0.017977 0)
(1.04386 0.0594863 0)
(1.10216 0.0734683 1.51912e-21)
(1.09397 0.0547231 4.17742e-21)
(0.552567 0.0373366 0)
(0.799833 0.0496715 1.00986e-20)
(1.06618 0.039867 0)
(1.08419 0.0556674 0)
(1.05746 0.0288951 -1.0621e-20)
(0.737984 0.0513843 0)
(1.02635 0.0103221 0)
(1.05348 0.0605144 -6.2625e-21)
(0.986361 -0.0859771 0)
(1.05012 0.114834 5.11149e-21)
(1.05258 0.0561024 5.69365e-22)
(1.01331 0.0191403 -5.1795e-22)
(1.04011 0.0144931 4.31883e-21)
(0.584179 -0.0210244 0)
(1.07902 0.0410215 -1.03318e-20)
(1.01075 -0.000798045 -1.92408e-22)
(0.587772 -0.0231466 0)
(1.08133 0.054505 1.96227e-20)
(1.07839 0.134537 0)
(0.997613 -0.0720548 1.04944e-21)
(1.07633 0.0635983 5.86505e-21)
(1.01069 -0.000748913 5.79026e-22)
(1.01663 0.0144038 0)
(1.07825 0.0410441 2.18035e-20)
(1.00347 -2.34822e-05 0)
(1.03179 0.0235381 5.7266e-22)
(1.0688 0.0987954 1.26937e-20)
(1.00995 -0.000671297 -2.06865e-22)
(1.01727 0.0160518 0)
(1.00858 0.000666567 2.44076e-22)
(1.0914 0.0834048 0)
(1.02309 0.0145741 0)
(1.04027 0.014231 -7.30376e-21)
(0.878136 -0.220162 4.80488e-21)
(0.507959 0.0312546 1.50386e-21)
(1.04265 0.0249991 5.37008e-21)
(1.0576 0.028412 7.38365e-21)
(1.02092 0.00744223 -8.67115e-22)
(0.809504 0.0422957 0)
(1.06645 0.18319 -1.28671e-21)
(0.999819 0.114184 -2.3745e-22)
(1.04844 0.0288636 -4.09296e-22)
(1.02042 0.0321315 1.06871e-21)
(1.04139 -0.0352297 0)
(1.01615 0.00511533 -9.88149e-22)
(1.04831 0.112149 0)
(1.01746 0.015842 1.78948e-22)
(0.679407 0.039894 0)
(0.695563 0.0346864 -5.92043e-21)
(1.00839 0.000664846 4.7585e-22)
(1.00592 0.0327431 0)
(1.00054 0.147287 8.60344e-23)
(1.10613 0.0965156 -6.35282e-21)
(0.999943 -3.56834e-05 -3.2124e-22)
(0.553288 0.214848 -1.53212e-21)
(1.04013 0.0357505 -9.13148e-22)
(0.868821 0.196622 -9.78555e-22)
(1.01459 0.0205725 0)
(1.01656 0.0139929 2.04684e-23)
(0.990965 0.152625 -9.96239e-22)
(0.759481 0.216741 -2.6896e-21)
(1.08138 0.0542429 -1.42649e-20)
(1.01726 0.00656763 -4.69862e-22)
(1.05361 0.0488374 4.74653e-21)
(1.03002 0.0282437 0)
(1.04761 0.0529574 -4.34575e-21)
(1.01352 0.00063474 2.21148e-21)
(1.06858 0.0483414 0)
(1.01739 0.00650597 -1.08389e-21)
(1.02271 0.00191584 2.36948e-21)
(1.05707 0.0209599 0)
(1.03424 -0.0106849 1.1469e-22)
(0.83162 0.052831 8.4207e-21)
(1.08653 0.0591455 -5.24169e-21)
(1.04063 0.0241416 0)
(0.650686 0.207919 2.92645e-21)
(1.03593 0.0399658 -4.03881e-21)
(0.59331 0.0185917 0)
(1.01693 0.00612615 1.66753e-21)
(1.02932 -0.00915428 -3.76261e-22)
(1.06981 0.0616971 0)
(1.07157 0.0753487 2.8454e-21)
(0.813636 0.0713979 0)
(1.01848 0.00655651 9.9822e-22)
(0.960303 0.0244402 8.10746e-22)
(1.01124 0.000538909 -6.2616e-22)
(1.00895 -0.000451753 -4.51516e-22)
(1.01719 -0.00191464 -1.44047e-22)
(1.02594 0.010163 0)
(1.01542 0.00949445 -2.53225e-22)
(1.02256 0.0231804 4.15317e-25)
(1.09401 0.0556011 -1.2781e-22)
(1.02033 -0.0757839 6.80864e-21)
(1.00155 -2.79775e-05 1.78956e-22)
(1.02717 0.0338292 0)
(1.02606 0.0221496 1.5082e-21)
(1.04658 0.0257205 9.16593e-23)
(1.01929 -0.0377139 8.95798e-21)
(1.00873 -0.000427078 4.38137e-22)
(1.01519 0.0103166 1.52839e-22)
(0.977256 0.0100923 1.77743e-21)
(1.002 -0.05895 -8.89588e-21)
(1.03827 0.0269627 -1.90414e-21)
(1.01067 0.00129786 0)
(1.00227 7.29147e-05 0)
(1.00091 -2.90818e-05 -1.9053e-22)
(1.02215 0.0306232 6.58396e-23)
(1.01685 -0.00158838 0)
(0.93902 0.0125759 -3.77639e-22)
(0.911221 -0.0978857 0)
(1.01774 0.0203252 0)
(1.05905 0.0727514 0)
(1.02177 0.037935 1.44112e-22)
(0.739361 0.0561142 -1.28708e-20)
(0.588264 0.0166555 0)
(1.02994 0.0694629 2.78465e-21)
(1.00677 0.000459879 -3.28559e-24)
(1.0363 -0.0240476 -2.12011e-22)
(1.00265 -5.14255e-05 0)
(1.02908 0.0279317 2.952e-24)
(1.01367 0.00866484 1.0052e-21)
(1.09001 0.113089 3.88576e-21)
(1.05389 0.0526061 4.86171e-21)
(0.58233 0.0308407 5.0994e-21)
(1.01101 -0.000833605 2.06435e-22)
(1.01167 0.00198364 0)
(1.08951 0.0825497 -6.09382e-23)
(1.00838 0.000441644 0)
(1.0055 0.000250901 0)
(1.01757 0.00646296 -1.13356e-21)
(1.06501 0.0825218 -3.06606e-21)
(1.01447 0.00574764 2.49873e-24)
(1.03946 0.0475253 2.042e-22)
(1.02293 0.00121265 0)
(0.943394 -0.0316814 3.82354e-22)
(1.01382 0.000108576 4.24493e-22)
(1.02957 0.0272028 -2.60536e-22)
(1.07785 0.062665 2.59064e-23)
(1.03968 0.0359179 -1.08594e-21)
(1.01276 0.00944453 -1.49777e-21)
(1.08388 0.0480455 -1.20936e-21)
(1.0339 0.0293919 -4.23724e-22)
(1.07478 0.0346642 0)
(1.01789 0.0616759 2.19253e-21)
(1.01188 0.00139307 6.82881e-22)
(0.796484 0.0520002 0)
(0.722946 0.0642217 0)
(1.07079 0.10094 6.99345e-21)
(1.03349 0.0391026 -6.43992e-22)
(0.687013 0.184694 -1.94926e-21)
(1.0065 0.000491641 -8.06416e-23)
(1.02187 0.0209682 6.74859e-22)
(1.04574 0.0248919 0)
(1.07055 0.0476589 0)
(1.03575 0.0273222 -4.9101e-22)
(1.03498 0.0251002 2.23992e-21)
(1.01245 0.000161084 0)
(1.01152 -0.030739 -4.89948e-21)
(0.87758 0.0459779 0)
(0.850687 0.204333 1.15016e-22)
(0.848985 0.0429815 0)
(1.04968 0.0339694 1.1571e-20)
(1.01851 0.0601814 -2.56106e-21)
(0.517462 0.219687 7.02843e-22)
(1.04032 0.0107155 1.27472e-21)
(0.989801 -0.0221212 6.87423e-22)
(0.703987 -0.0234553 0)
(1.02781 -0.0213241 -3.99403e-22)
(1.0095 -0.000513463 2.36054e-22)
(1.0339 0.0339203 -8.20393e-23)
(1.00234 -4.70765e-05 -1.54652e-22)
(1.10079 0.063013 -9.30058e-22)
(1.00766 -0.000394932 1.48108e-23)
(1.03688 0.0279406 -5.49925e-22)
(0.701144 0.0351105 -1.12351e-20)
(1.01327 0.000676952 0)
(1.01272 0.00696907 1.08036e-22)
(1.08685 0.124354 -3.56736e-21)
(0.597409 0.0338639 -4.0499e-21)
(1.07148 0.036231 1.73234e-21)
(1.01647 0.0154051 -1.52684e-21)
(1.00928 -0.000506346 -4.4523e-22)
(1.03494 0.0247295 0)
(1.02684 0.0294187 0)
(1.04909 0.0625445 6.92005e-22)
(1.03861 0.0470571 -2.12194e-21)
(0.903798 -0.140968 0)
(1.02503 0.0356757 -1.12069e-22)
(1.01321 0.00857029 1.21347e-21)
(1.02619 0.0218416 -8.2932e-22)
(1.01985 0.0472786 0)
(1.00497 -0.0555433 -3.15337e-23)
(0.600971 -0.188061 -1.22564e-21)
(1.01345 -0.00101738 0)
(1.08159 0.0499748 8.2354e-21)
(0.59867 0.0183311 0)
(1.01539 -0.000687661 2.83645e-22)
(1.02472 0.0172596 -2.63373e-21)
(1.00985 0.0018185 0)
(1.00043 -1.07402e-05 0)
(0.470769 0.0270237 0)
(1.00972 0.00182147 0)
(1.0132 0.00900878 -1.3727e-21)
(1.00909 0.000442978 -4.71959e-22)
(0.830677 0.179907 -8.29149e-22)
(0.477918 0.00832756 0)
(1.01181 0.000810418 9.86236e-22)
(1.01488 0.00868679 2.35403e-22)
(1.03505 0.0287635 -1.65244e-22)
(0.546965 -0.201528 -1.25475e-21)
(1.00811 -0.000559 4.56659e-24)
(1.03532 0.0285858 -6.65465e-22)
(1.01485 0.0476709 0)
(1.01041 -0.0101597 1.9286e-22)
(1.00707 0.000551241 7.87371e-24)
(0.695498 0.171098 1.95876e-20)
(1.02922 0.0268628 -9.77774e-22)
(0.96704 -0.0584564 5.40435e-22)
(0.999478 -1.17279e-05 1.84028e-22)
(1.0352 0.00467089 6.16643e-21)
(1.05151 0.0316934 0)
(1.01434 0.0127895 0)
(0.607912 0.212767 -7.11112e-22)
(1.03043 0.0297108 -1.72283e-21)
(0.668776 0.0163197 0)
(1.04899 0.126937 4.77228e-21)
(1.07282 0.0369363 0)
(1.04538 0.129257 -4.37524e-21)
(0.90333 -0.222457 0)
(1.00724 0.0318753 -5.5145e-22)
(1.01442 0.0121974 0)
(1.01573 0.0152861 3.51081e-23)
(1.00819 0.00170224 1.82925e-22)
(1.01885 0.00560097 7.42635e-23)
(1.07736 0.0530304 0)
(1.05119 0.0309285 -6.00155e-21)
(1.06006 0.0715605 0)
(1.11073 0.0931802 1.94027e-20)
(0.897341 -0.0621736 1.88426e-22)
(1.01087 -0.000193969 -5.86926e-23)
(0.700943 0.0380982 0)
(0.947328 0.122464 -1.65153e-21)
(0.962912 0.0347023 3.98281e-22)
(1.04724 -0.0285945 5.31577e-23)
(0.999606 0.0906545 -1.2894e-21)
(1.03683 0.0281067 -1.37792e-21)
(0.917191 -0.150591 4.7608e-22)
(0.98787 -0.00958423 1.39812e-21)
(1.00757 -0.000267296 -1.15403e-22)
(1.00458 -8.25187e-05 4.5543e-24)
(1.00486 0.000182439 0)
(1.02107 0.00771685 -8.95624e-22)
(0.966611 0.240899 -2.33048e-21)
(1.00831 0.00174459 3.58375e-22)
(1.02742 0.0133276 3.42485e-21)
(0.805453 0.0482176 0)
(1.07844 0.0513404 8.24201e-21)
(0.730026 0.0414831 0)
(1.01524 0.00764349 -5.63082e-22)
(1.06755 0.0306208 0)
(1.03984 0.0107862 -3.07538e-22)
(1.01665 0.0134841 4.35089e-23)
(1.02218 0.0341447 -1.62452e-22)
(1.01513 0.00824533 1.22014e-22)
(1.10444 0.095216 0)
(1.05073 0.0226968 4.67134e-21)
(1.02279 0.0425365 0)
(1.01338 -0.00166699 -3.78504e-22)
(1.0135 -0.00165696 0)
(1.07677 0.107725 4.24806e-21)
(1.05112 0.0232695 0)
(1.07871 0.0506595 -1.73924e-20)
(1.01379 0.00907885 1.34521e-23)
(1.00752 -0.000383957 0)
(0.833001 -0.128918 0)
(1.0103 0.00165272 3.00379e-22)
(1.0149 0.00366484 -7.70687e-22)
(0.553517 0.036367 5.37856e-21)
(1.06598 0.0811691 1.26431e-22)
(1.06528 0.065423 9.85634e-21)
(1.00946 -0.0198311 -9.1474e-22)
(1.00138 -3.92178e-05 1.83594e-22)
(1.00495 -0.000103079 0)
(1.01692 -0.00260847 -7.7509e-22)
(1.03213 0.0138523 1.34855e-21)
(0.932569 0.065922 1.02825e-20)
(1.07999 0.0563667 9.1866e-21)
(1.10657 0.125501 7.43586e-21)
(1.01374 0.00498888 0)
(1.05299 0.0521985 -5.82036e-21)
(1.03538 0.0226989 -5.47263e-22)
(1.01509 0.00989035 1.57585e-23)
(1.02449 0.0276312 8.95661e-23)
(0.725332 0.0422829 0)
(1.03308 0.0317825 0)
(1.00806 0.000576016 -4.95051e-23)
(1.02642 0.0295149 0)
(1.01361 -0.000918606 -4.53033e-22)
(1.00775 -0.000284 5.77714e-22)
(1.05829 0.0478974 1.1394e-21)
(1.04902 0.0610777 -6.65254e-22)
(1.00298 -6.80095e-05 -3.18645e-22)
(1.01289 0.00706874 -8.1858e-24)
(1.03103 0.0354025 -4.42671e-22)
(1.07985 0.0520094 0)
(1.05864 0.0276156 8.93947e-22)
(0.683397 0.0211101 0)
(1.04268 0.0111282 5.92633e-21)
(1.04664 0.0213681 0)
(1.08399 0.0480323 0)
(1.03054 0.00329369 0)
(1.02507 0.017477 2.37103e-21)
(1.01683 0.0110269 1.46945e-22)
(1.03838 0.0480095 -3.95053e-21)
(1.0707 0.061661 -4.29523e-21)
(1.02273 0.0142241 -4.9705e-22)
(1.07449 0.105819 -3.94355e-21)
(1.01354 0.00994066 4.23629e-22)
(0.452167 -0.119783 0)
(1.01675 0.0138581 0)
(1.01487 0.00349148 -7.58636e-22)
(1.08183 0.0487693 -1.22788e-21)
(1.01067 0.00299196 0)
(1.01457 0.0084934 1.38453e-22)
(1.00869 0.000706966 0)
(1.00221 -3.14619e-05 0)
(1.01505 0.00752924 7.6172e-22)
(0.550953 0.0275316 -1.13348e-20)
(1.03195 0.014079 1.82748e-22)
(0.925969 0.06424 -8.30238e-21)
(1.01077 0.00156111 0)
(1.0169 0.00713806 0)
(1.01293 -0.000816935 0)
(1.01473 -0.00178047 5.41867e-22)
(1.01459 -0.00188412 -1.82734e-22)
(1.01862 0.00487392 -6.03402e-22)
(1.0301 0.0297047 -1.029e-21)
(0.897602 -0.218383 -9.31511e-22)
(0.991051 0.0120398 6.37554e-22)
(0.982 -0.00708643 0)
(1.01034 0.00176711 0)
(1.04876 0.135579 -1.42557e-20)
(1.06777 0.0385468 -6.58036e-21)
(1.03337 0.0406221 -3.21441e-21)
(1.03565 0.0104819 0)
(1.01057 0.00171009 0)
(1.00734 -6.40559e-05 -2.30793e-22)
(1.01906 0.0241176 5.23753e-23)
(1.01283 0.0069868 -1.44381e-22)
(1.10947 0.0955253 -6.45572e-21)
(1.01156 -0.00152296 4.29916e-24)
(1.01631 -0.00257001 6.34204e-22)
(1.01936 0.0237142 -2.80548e-22)
(0.408104 0.0111146 -4.57676e-22)
(1.01377 -7.58033e-06 0)
(1.03194 0.0345895 -8.31622e-22)
(1.00694 0.000560798 4.45869e-22)
(1.00912 -0.000929339 5.20471e-23)
(1.0225 0.0544297 0)
(0.921609 -0.0493627 -6.76006e-23)
(0.870415 0.089177 0)
(1.00303 -6.35763e-05 4.45563e-23)
(1.00419 -3.93512e-05 -1.02819e-22)
(1.07932 0.052098 0)
(1.00485 0.000135741 2.96514e-22)
(0.720902 0.218297 0)
(1.02993 0.090934 0)
(1.07054 0.0458338 -4.56458e-21)
(0.699058 0.173879 0)
(1.00914 -0.000925641 0)
(0.974818 0.0128588 3.93118e-22)
(1.03622 0.0106014 0)
(1.0638 0.0507535 0)
(1.07125 0.0459451 0)
(0.929311 0.0654103 0)
(1.01085 -0.000519949 0)
(1.07235 0.0361818 0)
(0.675482 0.18141 0)
(1.01389 0.000114435 -1.61929e-22)
(1.01339 0.00971187 -1.22118e-21)
(1.00286 0.00011365 1.60247e-22)
(0.938878 -0.0599477 3.06347e-22)
(1.02043 0.0530234 -1.75377e-22)
(1.07177 0.044278 0)
(1.01954 0.0107823 5.28586e-23)
(1.01297 -0.000463604 -6.27286e-22)
(1.00974 0.0314071 0)
(1.04094 0.0575889 2.12082e-22)
(1.09316 0.0483492 8.56735e-21)
(1.05413 0.037752 7.83087e-21)
(1.03837 0.065043 0)
(1.00926 0.00259712 -8.76152e-25)
(1.01528 -0.0018845 0)
(1.01284 -0.000738336 -5.94659e-22)
(0.962463 0.131203 3.50252e-23)
(1.00894 -0.000516175 0)
(1.01296 -0.00185048 0)
(1.01447 0.00877707 3.59965e-23)
(1.04967 0.0359696 6.14578e-21)
(1.02113 0.0481089 0)
(1.007 0.000577958 -4.86354e-22)
(1.04761 0.0341106 0)
(1.00873 -0.000504202 -4.25943e-22)