/*--------------------------------*- C++ -*----------------------------------*\
| =========                 |                                                 |
| \\      /  F ield         | OpenFOAM: The Open Source CFD Toolbox           |
|  \\    /   O peration     | Version:  v2012                                 |
|   \\  /    A nd           | Website:  www.openfoam.com                      |
|    \\/     M anipulation  |                                                 |
\*---------------------------------------------------------------------------*/
FoamFile
{
    version     2.0;
    format      ascii;
    class       volVectorField;
    location    "200";
    object      U_0;
}
// * * * * * * * * * * * * * * * * * * * * * * * * * * * * * * * * * * * * * //

dimensions      [0 1 -1 0 0 0 0];


internalField   nonuniform List<vector> 
27802
(
(1.04812 0.0684989 6.84914e-22)
(1.0042 3.48901e-05 0)
(1.01359 0.00897765 2.73865e-22)
(1.0134 0.000721448 -1.38189e-21)
(0.865781 0.0489902 1.49674e-21)
(1.0149 0.00882973 0)
(1.01252 0.00889886 0)
(1.01604 0.0106151 -1.23609e-22)
(1.01939 0.0363795 -1.58483e-22)
(1.03887 0.0105702 3.9524e-21)
(1.00667 0.000560645 1.25243e-22)
(0.685821 0.0339492 5.97556e-21)
(0.462926 0.0262738 0)
(1.02238 0.0585929 3.85349e-21)
(1.01585 0.00340178 1.87983e-21)
(1.01221 0.00877985 0)
(1.00807 -0.00052062 -9.5804e-24)
(0.737358 0.0350377 1.13135e-20)
(0.791248 -0.0196254 6.55672e-21)
(1.02895 0.0278071 2.96117e-23)
(1.00443 5.70959e-05 0)
(1.01245 0.000972458 -8.9747e-22)
(1.04826 0.0702582 -6.67859e-21)
(1.08446 0.0554137 4.81096e-21)
(1.0058 0.000360382 3.15538e-22)
(1.02632 0.0132589 6.74824e-22)
(1.01483 0.00825047 -2.9868e-22)
(1.0383 0.0104311 -7.91745e-21)
(1.00573 0.000333597 -3.14764e-22)
(0.960217 0.165334 7.68638e-22)
(1.02527 0.00708335 0)
(1.0163 -0.000605689 -5.33427e-22)
(1.05764 0.0517121 1.66532e-20)
(1.03892 0.035315 0)
(1.04316 0.0520638 -1.94235e-20)
(1.0178 0.00230621 0)
(0.96467 -0.00848941 0)
(0.930828 0.20532 3.12059e-21)
(1.02505 0.0072321 2.31301e-21)
(1.01546 0.00833579 4.52485e-22)
(1.03413 0.00376579 -4.26884e-21)
(1.01566 0.00845219 6.57284e-22)
(0.558851 -0.0362933 -1.17396e-20)
(0.977778 0.0131471 -6.96251e-22)
(1.01165 -0.000378697 0)
(1.01532 0.0036018 2.37439e-21)
(1.0983 0.072704 0)
(1.0257 0.00975944 4.19304e-21)
(1.01038 -0.000628709 2.09257e-22)
(1.0343 0.00321965 9.43831e-22)
(1.03995 0.0258363 0)
(1.01175 -0.000489642 -1.11534e-22)
(0.935878 -0.0412848 0)
(1.00382 -7.90213e-05 1.1182e-22)
(1.01256 0.00629264 -7.68601e-23)
(1.01442 0.00839954 -7.88491e-23)
(0.407528 0.00477168 4.47329e-21)
(1.02305 0.0551493 1.05781e-21)
(1.0124 0.00100508 7.8676e-23)
(0.373013 0.00831994 4.45746e-21)
(1.01773 0.00213818 0)
(1.0125 0.00112188 -3.57624e-22)
(0.956534 0.0354016 -3.58831e-22)
(1.01444 0.00662125 5.565e-24)
(0.75167 0.0381436 -1.05109e-20)
(1.07933 0.0572325 6.18344e-21)
(0.51585 0.0131176 0)
(1.01531 0.0105078 1.32121e-22)
(0.779511 0.0444463 0)
(1.01181 0.000743822 -6.10553e-22)
(1.01074 0.00169746 0)
(1.08385 0.0556346 -8.57725e-21)
(0.704658 0.023764 -4.96608e-22)
(1.084 0.0556217 0)
(0.979913 -0.0885711 5.20417e-23)
(1.04642 0.0251531 1.95388e-21)
(0.916619 0.201991 0)
(0.50059 0.0110844 0)
(1.0318 0.00268253 0)
(1.01208 0.00819738 1.36251e-21)
(0.552599 -0.0245881 -7.56221e-21)
(0.996313 -0.0416364 -3.18633e-21)
(1.01043 -0.000577606 0)
(1.02235 0.0535122 -2.03918e-21)
(1.01138 0.00170845 0)
(1.03342 0.0212543 4.08801e-21)
(1.00547 0.000233934 2.03909e-22)
(1.01259 0.00626638 0)
(1.08387 0.0555359 0)
(1.10649 0.108343 1.26534e-20)
(0.85981 0.0428723 1.32194e-22)
(1.0123 0.000710234 4.55775e-22)
(1.0681 0.0471534 1.98872e-22)
(1.01181 0.00799832 -1.36713e-21)
(1.00421 -8.19976e-05 7.4657e-23)
(1.02634 0.00918149 -3.94155e-21)
(1.06631 0.023501 -7.76034e-21)
(0.851334 0.0479798 -1.08309e-20)
(1.0342 0.0033733 0)
(1.09664 0.0731296 0)
(1.00401 -0.0450608 0)
(1.03426 0.00522853 7.51677e-21)
(1.03671 0.0198186 0)
(1.01551 0.000214129 0)
(1.1041 0.107832 0)
(1.01226 0.000532411 -6.88174e-22)
(0.987849 -0.00385383 0)
(1.01792 0.0365964 -6.39642e-23)
(1.01871 0.00420253 0)
(1.06362 0.0411005 2.60515e-21)
(1.01519 0.0103039 1.18909e-21)
(1.01561 0.00327723 -2.71828e-21)
(1.03425 0.0055999 -5.64653e-21)
(1.08001 0.0505297 -2.54983e-23)
(1.00675 0.000194319 2.12608e-22)
(0.981399 0.0364811 -1.9702e-21)
(1.02992 0.0279798 -6.75789e-22)
(1.00802 0.000863391 1.38826e-22)
(1.06078 0.0195338 0)
(1.02811 0.0288351 0)
(0.516345 0.0302112 1.55457e-22)
(0.841346 0.0427807 -5.41838e-22)
(1.07598 0.0339198 -1.7246e-20)
(1.00547 0.000237313 -2.87771e-22)
(1.02026 0.0078166 1.58538e-21)
(1.02426 -0.0032038 2.3065e-22)
(1.0431 0.138953 -1.28114e-20)
(1.01358 0.038371 3.55433e-22)
(0.536132 0.0271658 -6.1208e-21)
(0.509253 0.0286864 -6.39043e-22)
(1.03635 0.0200453 -3.61307e-21)
(1.07516 0.0338578 1.4583e-20)
(1.01319 -0.00213702 4.76874e-24)
(1.0365 0.0102658 0)
(1.01054 -0.000626558 2.15245e-22)
(1.0151 0.0101169 -1.7022e-22)
(1.01376 0.0086702 4.14969e-22)
(1.01098 -0.00059899 -3.12174e-22)
(1.01887 0.0486753 0)
(1.03107 0.0733663 0)
(1.01541 0.0106689 -9.93963e-23)
(1.01486 0.00840971 4.6179e-22)
(1.02416 -0.00186175 1.84351e-23)
(1.00647 0.000119864 0)
(1.00681 0.000164871 0)
(1.02759 0.0184584 -1.61047e-21)
(1.01363 0.00855549 -7.36106e-22)
(1.02098 0.0162581 3.59027e-22)
(1.0118 -0.000314009 2.20856e-22)
(1.01338 -0.00202992 0)
(1.00672 0.000558733 -1.15734e-22)
(1.0253 0.00966796 -1.54055e-21)
(1.04947 0.0164808 2.07108e-21)
(1.01529 0.0105549 -2.10389e-22)
(1.02871 0.0297266 1.63913e-22)
(1.01115 0.00414455 -2.47191e-22)
(1.05371 0.0267343 5.33476e-22)
(1.08249 0.057144 0)
(1.06386 0.0405679 0)
(1.07185 0.0909041 -6.1133e-21)
(1.03786 0.136985 2.17251e-21)
(1.08396 0.0555414 0)
(1.03301 0.0210465 -2.92957e-21)
(1.06 0.0194597 2.80436e-21)
(1.00793 -0.00047893 2.65076e-24)
(1.00842 -0.00037126 -3.2781e-22)
(1.00789 0.000798365 -5.4938e-23)
(1.01444 0.00854449 4.08769e-23)
(1.02451 0.00237203 -2.25763e-21)
(1.02853 0.0265828 -6.33009e-22)
(1.01629 0.000254274 -4.6142e-22)
(1.02949 0.0277292 2.5046e-22)
(1.01118 0.00324515 -1.36933e-22)
(0.860574 0.00389308 1.05065e-22)
(1.02511 0.00775633 -6.53952e-22)
(0.795856 0.0399344 2.85278e-21)
(1.00831 -0.000386127 2.21845e-22)
(1.05562 0.0301052 -3.74717e-21)
(1.01161 -0.00054242 0)
(0.960079 -0.00448312 0)
(1.08471 0.0554339 5.84278e-21)
(1.03066 0.0327092 9.06931e-22)
(1.04128 0.0358529 1.02636e-21)
(1.02746 0.018159 -4.26018e-22)
(1.01118 0.00320899 0)
(1.05542 0.060081 0)
(1.01109 0.0040529 0)
(1.00157 -5.03948e-05 0)
(1.04663 0.119691 0)
(1.07299 0.166184 -7.49178e-21)
(1.00519 0.000196412 -1.76857e-22)
(1.01852 0.0202141 4.22256e-23)
(1.0522 0.0669649 0)
(1.04135 0.0143127 -2.38036e-21)
(1.00877 -0.00049059 0)
(1.01541 0.00838084 -7.07177e-22)
(1.00879 -0.00049999 1.41029e-24)
(1.01136 -0.000490219 0)
(1.01685 0.00587106 -9.73302e-22)
(1.01469 0.00831572 -6.41345e-22)
(0.741776 0.0530431 2.21467e-21)
(0.988555 0.14972 -3.46037e-22)
(0.974202 0.0158024 -1.71408e-21)
(1.03373 0.0266058 2.05322e-21)
(1.01869 0.00453047 1.22325e-21)
(1.07399 0.0346031 7.86128e-21)
(1.04898 0.0159295 -1.73257e-21)
(1.1173 0.0934745 7.01771e-21)
(1.01341 -0.00197547 0)
(0.383762 0.0101348 -1.31596e-20)
(1.01782 0.00130031 2.74395e-21)
(1.02445 0.178465 2.23582e-21)
(0.823995 0.0415963 2.32633e-21)
(1.05493 0.0300175 3.14781e-21)
(1.04947 0.122423 -4.67821e-21)
(1.01368 0.00586196 -3.92373e-22)
(0.989438 0.0327585 5.99243e-22)
(1.01169 0.00744533 4.03652e-22)
(1.02663 0.00962798 1.43903e-21)
(1.01107 0.00307657 5.77817e-22)
(0.547975 0.0281494 5.33696e-21)
(1.00935 -0.000983292 0)
(1.05436 0.0595755 -8.41345e-23)
(1.00238 0.101624 -1.13107e-21)
(1.01117 0.00313117 -5.85473e-22)
(1.01084 -0.000616188 5.15047e-22)
(1.01058 -0.000564805 -1.07031e-22)
(1.01811 0.0198988 -3.85412e-23)
(1.01541 0.00376203 0)
(1.03478 0.00476597 -4.79574e-21)
(1.00904 -0.000904912 -4.87352e-23)
(0.361566 0.00652492 -6.14371e-21)
(1.0266 0.00900406 3.42648e-23)
(1.05334 0.0375169 -8.71788e-21)
(0.861105 0.0265476 0)
(1.03085 0.0754529 1.70449e-21)
(1.00801 0.000603757 0)
(1.11804 0.0925607 -1.42184e-20)
(1.0486 0.0506941 -4.45879e-21)
(1.0152 -0.00581846 0)
(1.01221 0.00615109 -4.85403e-22)
(0.843096 -0.0807202 -1.22237e-21)
(0.819099 -0.0757197 0)
(1.01642 0.000818548 4.90622e-22)
(1.01013 0.000471214 -6.20891e-22)
(1.06378 0.0500012 0)
(1.01123 -0.000527604 0)
(0.989349 0.0238659 -5.93616e-22)
(1.01173 0.00712627 7.72118e-23)
(1.01339 0.00869717 -7.90184e-22)
(0.956483 0.123455 0)
(1.04524 0.0385426 3.08175e-21)
(1.04375 0.0678317 4.79809e-21)
(1.01222 0.00617819 0)
(1.01162 0.000400087 1.3159e-21)
(1.00917 -0.000539988 -2.39106e-22)
(1.01124 0.00175154 1.65662e-22)
(1.00016 -0.0555319 1.69711e-21)
(1.03335 0.0266449 -1.66589e-21)
(1.00896 -0.000534552 -7.39197e-22)
(1.04458 0.0386069 -3.00497e-21)
(1.03199 0.00535032 0)
(0.56645 0.0223071 1.45649e-20)
(1.01329 -0.00195096 7.18745e-24)
(0.728289 0.0436465 -4.887e-21)
(1.0567 0.029498 1.37569e-20)
(0.717619 0.0519312 0)
(1.0348 0.0051518 1.36708e-21)
(1.00945 -0.00100449 0)
(1.02534 0.00762879 7.68255e-22)
(1.08224 0.0574268 2.08705e-21)
(1.01281 0.00321967 0)
(1.0291 0.0715545 0)
(1.00775 -0.0746083 -1.50079e-21)
(1.04082 0.0141154 7.06432e-21)
(1.08863 0.0525413 -1.52818e-20)
(1.02094 0.0152993 0)
(1.0618 0.0414964 1.04885e-20)
(1.05593 0.0293544 -9.89311e-21)
(1.01115 0.00163772 0)
(1.03111 0.17275 0)
(1.05532 0.0373332 -3.87871e-21)
(1.01592 0.0134718 0)
(0.989756 0.0154035 0)
(1.07489 0.132257 -7.50249e-21)
(0.939546 0.102586 2.42194e-21)
(1.00884 -0.0596073 -1.51731e-21)
(1.02649 0.01177 -4.58604e-23)
(1.03872 0.027081 3.81748e-21)
(1.0036 -6.33174e-05 5.82104e-23)
(1.01057 -0.00128034 0)
(1.036 0.0305011 1.07021e-21)
(1.00965 -0.000614607 3.88647e-22)
(0.909156 0.0880116 1.4372e-21)
(1.00969 -0.000642519 0)
(1.02964 0.0210361 -6.15022e-22)
(0.980484 0.0406084 4.4122e-21)
(1.01147 0.00184904 1.46821e-22)
(0.397338 0.0132181 0)
(0.979089 -0.0589102 -2.99932e-22)
(1.07984 0.0569658 0)
(1.02774 0.0176177 0)
(1.0197 0.00549061 -2.74009e-22)
(1.06994 0.090295 7.86255e-21)
(0.885459 0.0549817 -6.20723e-21)
(1.02075 0.0500165 3.34867e-22)
(1.03146 0.00525343 1.03264e-21)
(0.742749 0.0429103 -1.15694e-21)
(1.01313 0.0275832 0)
(1.02082 0.0155459 0)
(1.03223 0.0315073 0)
(1.05232 0.0599435 1.13882e-20)
(1.07254 0.0589588 -3.39372e-22)
(1.03705 0.010406 0)
(1.01754 0.0178026 9.31787e-22)
(1.01768 0.00129266 -1.10432e-21)
(1.03242 0.0318305 -5.59212e-22)
(1.04665 0.0677324 0)
(1.06516 0.039901 -1.33516e-21)
(1.02125 0.0600853 1.45993e-21)
(1.01619 0.000705387 4.63605e-22)
(1.01887 0.00440272 -1.41105e-21)
(1.00744 -0.000357306 -1.87117e-23)
(1.01287 -0.00102489 -4.20368e-22)
(0.973401 0.00242509 0)
(1.01369 -0.00202732 0)
(0.574085 0.023268 -1.40908e-20)
(1.01403 -0.00227576 -1.64393e-22)
(1.01882 0.00473266 1.38858e-21)
(1.05051 0.0361255 3.31001e-21)
(1.01291 0.00784374 4.23516e-22)
(0.96962 0.0988571 -1.96072e-20)
(1.01396 -0.0838318 0)
(1.01619 -0.0218785 -1.00341e-20)
(0.999011 0.098568 -6.03577e-22)
(0.876325 0.0140242 0)
(1.07252 0.0595558 2.65257e-21)
(1.0105 0.00302961 0)
(1.08436 0.0501932 -1.73429e-20)
(1.01248 0.00296485 0)
(1.00785 -0.000481977 -7.32106e-23)
(0.744415 0.0371273 6.84013e-21)
(0.459882 0.225184 0)
(1.03687 0.000919988 -1.04311e-21)
(1.08624 0.0597937 0)
(1.11875 0.0956725 0)
(1.09882 0.0763878 -1.1333e-20)
(1.02068 -0.0788923 1.63556e-23)
(1.01152 0.00664494 -8.01688e-23)
(1.10767 0.123273 -5.95389e-21)
(1.01107 -0.000885854 3.79082e-22)
(0.80278 0.0414997 5.26308e-21)
(1.02043 0.00804842 0)
(1.024 0.015539 3.98823e-21)
(1.01429 0.0088771 -1.39015e-22)
(1.01353 0.00854547 4.83853e-22)
(0.970708 0.00344099 -4.07471e-22)
(1.10861 0.118935 0)
(1.00454 0.000118909 -2.81833e-22)
(1.01288 -0.00114258 2.27675e-22)
(1.00985 0.02499 1.26472e-21)
(1.04982 0.136837 -2.9488e-22)
(1.01308 -0.00123595 0)
(1.03566 0.0405918 5.20609e-21)
(1.00853 -0.000471627 0)
(1.00818 0.000599669 0)
(1.02029 -0.0708682 1.04213e-24)
(1.02633 0.0114395 0)
(1.05459 0.0370685 0)
(1.01243 0.00609202 -1.45808e-22)
(1.01037 0.00295136 -1.07932e-22)
(1.09993 0.0780779 9.78389e-21)
(1.03024 0.032703 1.00219e-22)
(1.08351 0.0557924 -1.1288e-20)
(0.908838 0.184596 -2.97126e-21)
(0.72604 0.051246 -5.71364e-22)
(1.03033 0.0326824 0)
(1.01493 0.0101782 -1.12996e-21)
(1.02922 0.0304661 -4.21968e-22)
(1.01567 0.00282881 -8.91737e-22)
(1.00124 -4.13759e-05 0)
(1.00853 -0.000461143 0)
(1.01421 0.00874483 -1.20251e-22)
(1.01389 -0.000673364 4.56642e-22)
(1.00359 -8.18665e-05 1.58922e-23)
(1.01006 0.000813198 2.81651e-22)
(1.10258 0.0718693 6.99588e-21)
(1.01381 -5.98792e-05 0)
(1.00762 0.0217518 -5.2526e-22)
(1.02135 0.0307181 4.30156e-23)
(1.01154 0.000821139 8.11069e-22)
(1.0126 0.00677161 -8.97129e-23)
(1.013 0.0265997 0)
(1.06487 0.0405176 0)
(1.0161 0.00555659 0)
(0.950163 0.0933247 2.01113e-20)
(1.11209 0.116311 2.60074e-21)
(1.08464 0.0497535 1.30962e-20)
(1.00261 -5.77615e-05 1.38772e-22)
(1.05376 0.0674319 -2.70345e-21)
(0.734794 0.0362918 -1.01283e-20)
(1.06267 0.0417304 -1.00945e-20)
(1.01136 0.00081759 -4.70634e-22)
(1.0345 0.0303964 1.33983e-22)
(1.02487 0.00236149 3.73191e-21)
(1.02873 -0.0878993 0)
(1.03073 0.0325573 -9.82029e-22)
(1.09533 0.0979481 -4.90143e-21)
(0.930475 0.0982196 -2.20312e-21)
(1.03219 0.0350105 0)
(0.398997 0.00995881 -2.27023e-22)
(1.00721 0.00040595 -2.3752e-22)
(0.502528 0.0296258 0)
(0.540213 0.024804 6.15069e-21)
(0.89615 -0.101084 0)
(1.02638 0.00977046 1.54017e-21)
(1.01308 -0.00111876 2.18792e-22)
(1.0508 0.0368882 0)
(1.00652 0.000100805 2.14037e-22)
(1.03893 -0.0801966 8.77854e-22)
(0.565153 -0.0332421 7.75855e-21)
(1.01158 0.00629584 0)
(1.01396 -0.000912001 -7.85719e-22)
(1.02664 0.0131463 -8.04764e-22)
(0.997129 0.0370449 2.50686e-22)
(1.01538 0.0106966 -1.9494e-22)
(1.01447 0.00593084 9.03398e-22)
(0.574464 0.0293467 -3.05496e-21)
(0.982644 0.012342 7.23832e-22)
(1.03967 0.0253792 -5.30633e-21)
(1.01232 0.00281976 0)
(1.03106 0.0325368 0)
(0.889927 -0.110908 0)
(1.01416 0.00588591 0)
(1.00088 -9.50033e-06 1.86859e-22)
(1.01676 0.00635056 0)
(1.07625 0.0628158 -7.12455e-21)
(1.06425 -0.0287133 -3.21231e-22)
(1.06913 -0.0124133 1.54521e-22)
(1.04077 0.0361591 0)
(1.05514 0.0540363 -1.29264e-21)
(1.0172 -0.00104312 -4.27542e-22)
(1.0035 -7.98214e-05 -3.15797e-25)
(1.00776 0.000652643 1.45345e-22)
(1.04979 0.0709188 0)
(1.01712 0.0010544 1.21439e-21)
(1.00676 0.000536646 0)
(1.01379 0.00545569 -9.44446e-22)
(1.07357 0.0578943 2.01589e-21)
(1.02825 0.0346229 0)
(0.767378 0.180017 2.141e-22)
(0.960759 0.0621063 1.09725e-20)
(0.984311 0.0179131 0)
(0.552925 -0.0187237 3.41037e-22)
(1.00999 -0.000707915 2.37849e-26)
(1.05354 0.0462793 2.13047e-21)
(1.05308 0.0366079 1.58511e-20)
(0.977942 -0.0024449 3.91238e-22)
(0.896489 0.184325 3.72336e-21)
(1.01228 0.00598232 1.62373e-22)
(0.991445 0.00455781 1.89037e-21)
(1.02315 0.0181056 -4.88496e-22)
(1.03324 0.033512 1.05341e-23)
(1.03459 0.0410218 0)
(1.00788 -0.000447153 5.05973e-24)
(1.04817 0.0178167 1.78848e-21)
(1.02121 0.0375803 -1.91178e-22)
(1.01699 0.00105777 0)
(0.984174 -0.00047093 3.70108e-22)
(1.00671 0.000517911 0)
(1.03446 0.0301853 0)
(1.00751 0.000580456 -1.33707e-22)
(1.01449 0.00889711 0)
(1.0766 0.0963981 9.75083e-21)
(0.98328 -0.0210743 0)
(1.06445 0.149624 -5.62432e-22)
(1.01272 -0.00183579 -3.14172e-22)
(0.4331 0.00486631 1.54339e-20)
(1.00774 -0.000446093 -1.89193e-23)
(1.03423 0.0260793 -1.91206e-21)
(1.08287 0.0558431 9.28653e-21)
(1.03378 0.0260635 -3.52464e-21)
(1.0173 0.0199586 0)
(1.04519 0.0687937 0)
(1.07346 0.0584943 3.90185e-22)
(0.967435 -0.0454143 4.33065e-22)
(1.01571 0.0134497 2.69507e-22)
(1.03291 0.0137709 0)
(1.08309 0.0557283 -1.35069e-20)
(1.01373 0.00601113 0)
(1.01878 0.00507323 1.82562e-21)
(1.03771 -0.0436865 0)
(1.01498 0.008329 3.69572e-22)
(0.708995 0.0430182 1.00733e-20)
(1.01252 -0.00141511 2.40155e-23)
(0.735122 0.0372199 -1.14899e-20)
(1.02298 -0.0539105 2.50006e-23)
(1.02938 -0.0465945 0)
(1.01423 0.00605168 -2.38309e-23)
(1.04531 0.0352727 3.99348e-22)
(0.551287 0.0252959 2.28355e-22)
(1.06646 0.0392202 0)
(1.09313 0.150859 2.85633e-21)
(1.07309 0.092373 -5.10929e-21)
(1.01359 -0.0514794 1.44272e-22)
(1.08917 0.0519482 1.677e-20)
(1.00427 0.000244854 -1.70339e-22)
(1.03081 0.0324556 -1.05893e-21)
(1.0718 0.0605261 -1.03391e-20)
(1.02374 0.015161 -2.24941e-21)
(1.01474 0.00873555 0)
(0.909146 0.100419 1.25356e-21)
(1.02991 0.0327794 6.7642e-23)
(1.0092 0.00250302 2.56428e-22)
(1.00477 0.000129636 0)
(1.09304 0.0995604 2.24137e-21)
(0.992116 -0.0853195 0)
(1.01631 0.0495002 0)
(1.00302 -7.78297e-05 7.02704e-23)
(1.02873 0.0348054 0)
(1.04802 0.0181508 0)
(0.839128 0.0790455 3.53255e-21)
(1.01593 0.0104062 0)
(1.00289 -0.000988789 -5.4771e-22)
(1.01114 -0.0160122 7.57644e-21)
(1.01298 0.00323383 -5.59305e-24)
(1.00939 -0.000586964 2.16649e-23)
(1.02434 0.0155783 0)
(0.954435 0.156176 -1.77775e-22)
(0.742708 0.0374376 0)
(1.0269 0.0332537 0)
(0.701493 -0.010721 2.27615e-22)
(1.01271 -0.000742165 0)
(1.01523 0.0101133 1.23331e-24)
(0.761233 0.0386207 0)
(1.01594 0.00361025 0)
(1.0337 0.0428812 0)
(1.01427 0.00572144 0)
(1.00937 -0.00056828 6.55579e-22)
(1.01005 -0.0125934 0)
(1.10435 0.13042 0)
(1.00312 -0.000110906 -1.59783e-23)
(1.01306 0.00811849 0)
(1.01285 -0.000659046 -9.96445e-23)
(1.07086 0.060508 1.35641e-20)
(1.00281 -6.66676e-05 3.40354e-22)
(1.04763 0.0321905 -5.39511e-21)
(1.07218 0.166469 1.71538e-20)
(1.0541 0.0536665 0)
(1.06843 0.0630474 -4.58147e-21)
(0.723394 0.0500953 0)
(1.07847 0.062225 7.84972e-23)
(0.968885 0.164964 -1.78332e-21)
(1.02799 0.130475 3.87606e-21)
(1.02263 0.00109625 5.05128e-21)
(0.730116 0.0371125 2.93597e-21)
(1.03265 0.0139774 -1.63603e-21)
(1.0212 0.0434591 0)
(1.01588 -0.00589417 2.77365e-23)
(1.01246 0.000932326 1.10913e-21)
(1.02301 0.00189867 -2.51412e-21)
(0.919549 0.0704456 0)
(1.01538 0.00867133 -1.05228e-23)
(1.01434 0.00590554 0)
(1.00552 0.000243687 2.2314e-22)
(0.999244 -0.0933427 -1.55077e-22)
(1.00755 0.000399713 -3.69178e-22)
(1.02784 0.0179795 0)
(1.04367 0.0597097 0)
(1.10219 0.0736692 1.52084e-21)
(1.09409 0.0548138 4.18579e-21)
(0.552553 0.0372665 0)
(0.799896 0.0500194 1.01175e-20)
(1.06617 0.039867 0)
(1.08423 0.0556552 0)
(1.05746 0.0288923 -1.06233e-20)
(0.737885 0.051296 0)
(1.02635 0.0103232 0)
(1.05344 0.0605061 -6.2568e-21)
(0.986844 -0.0862173 0)
(1.04986 0.114845 5.0944e-21)
(1.05251 0.0559934 5.70433e-22)
(1.01323 0.0191382 -5.16161e-22)
(1.04011 0.0144923 4.32112e-21)
(0.584395 -0.0207222 0)
(1.07902 0.0410222 -1.0336e-20)
(1.01075 -0.000799327 -1.91928e-22)
(0.588013 -0.0228033 0)
(1.08135 0.054517 1.96378e-20)
(1.07805 0.134712 0)
(0.998115 -0.0721567 1.04124e-21)
(1.07632 0.0636471 5.86783e-21)
(1.01069 -0.00075014 5.77523e-22)
(1.01664 0.0143982 0)
(1.07825 0.041045 2.18123e-20)
(1.00347 -2.34561e-05 0)
(1.03168 0.0236698 5.69795e-22)
(1.06864 0.0988806 1.26767e-20)
(1.00995 -0.000672178 -2.0629e-22)
(1.01727 0.0160449 0)
(1.00858 0.000666965 2.42327e-22)
(1.09135 0.0835718 0)
(1.02296 0.0145981 0)
(1.04027 0.0142303 -7.30763e-21)
(0.878626 -0.220415 4.81114e-21)
(0.507949 0.0311953 1.50788e-21)
(1.04265 0.0249975 5.37149e-21)
(1.0576 0.0284094 7.38525e-21)
(1.02092 0.00744273 -8.68731e-22)
(0.809531 0.042462 0)
(1.06568 0.183477 -1.27142e-21)
(0.999235 0.114024 -2.31691e-22)
(1.04828 0.0291087 -4.06911e-22)
(1.02055 0.0320945 1.07608e-21)
(1.04159 -0.0350091 0)
(1.01615 0.00511494 -9.90839e-22)
(1.04807 0.112151 0)
(1.01746 0.0158358 1.82088e-22)
(0.679334 0.03984 0)
(0.695499 0.0346858 -5.93964e-21)
(1.00839 0.000665248 4.72395e-22)
(1.00586 0.0326872 0)
(0.999841 0.147232 5.47889e-23)
(1.10602 0.0967833 -6.35426e-21)
(0.999943 -3.56823e-05 -3.19335e-22)
(0.552153 0.214276 -1.56211e-21)
(1.04013 0.0357418 -9.12831e-22)
(0.868384 0.196824 -9.73164e-22)
(1.01451 0.0205796 0)
(1.01657 0.0139879 2.33089e-23)
(0.990483 0.152344 -9.68942e-22)
(0.758768 0.21668 -2.64351e-21)
(1.0814 0.0542536 -1.42758e-20)
(1.01726 0.00656711 -4.71132e-22)
(1.05359 0.0488285 4.74435e-21)
(1.03002 0.028256 0)
(1.04759 0.0529378 -4.34195e-21)
(1.01352 0.000634757 2.21626e-21)
(1.06856 0.0482891 0)
(1.01739 0.00650553 -1.08665e-21)
(1.02271 0.00191556 2.37243e-21)
(1.05706 0.0209584 0)
(1.03432 -0.0105545 1.13764e-22)
(0.831472 0.0527432 8.44014e-21)
(1.08658 0.0592068 -5.2484e-21)
(1.04063 0.0241409 0)
(0.649593 0.207346 2.99427e-21)
(1.03594 0.0399471 -4.03438e-21)
(0.593273 0.018662 0)
(1.01693 0.00612571 1.67201e-21)
(1.02939 -0.00905908 -3.73318e-22)
(1.06978 0.0617262 0)
(1.07151 0.0754115 2.84425e-21)
(0.813621 0.0718948 0)
(1.01845 0.00658639 9.944e-22)
(0.960166 0.0240479 8.10044e-22)
(1.01124 0.000538868 -6.28042e-22)
(1.00895 -0.000452364 -4.49623e-22)
(1.0172 -0.00189619 -1.43362e-22)
(1.02594 0.010164 0)
(1.01542 0.00949484 -2.56863e-22)
(1.02246 0.0232443 1.98936e-25)
(1.09413 0.0556965 -1.28057e-22)
(1.02137 -0.0755759 6.7489e-21)
(1.00155 -2.79844e-05 1.78495e-22)
(1.02724 0.0338318 0)
(1.02605 0.0221538 1.51095e-21)
(1.04658 0.0257179 9.16895e-23)
(1.02002 -0.0376372 8.90965e-21)
(1.00873 -0.000427671 4.36292e-22)
(1.01519 0.0103192 1.4913e-22)
(0.977186 0.00982438 1.77528e-21)
(1.00294 -0.0590475 -8.85361e-21)
(1.03828 0.0269629 -1.9047e-21)
(1.01067 0.00129793 0)
(1.00227 7.28799e-05 0)
(1.00091 -2.90952e-05 -1.89261e-22)
(1.02212 0.0306386 6.7254e-23)
(1.01686 -0.00157128 0)
(0.938956 0.0120047 -3.77193e-22)
(0.912206 -0.0980302 0)
(1.01773 0.0203162 0)
(1.05898 0.0727678 0)
(1.02185 0.0378815 1.40864e-22)
(0.739321 0.0567002 -1.28841e-20)
(0.588234 0.0167316 0)
(1.02988 0.0693739 2.77141e-21)
(1.00677 0.000459925 -4.97914e-24)
(1.03649 -0.0238975 -2.09256e-22)
(1.00265 -5.14291e-05 0)
(1.02887 0.0279792 3.91234e-24)
(1.01367 0.00866692 9.95614e-22)
(1.08939 0.113551 3.87983e-21)
(1.05387 0.0525977 4.8593e-21)
(0.582273 0.0307988 5.11563e-21)
(1.01101 -0.000835052 2.0592e-22)
(1.01167 0.00197844 0)
(1.08946 0.0827064 -6.18971e-23)
(1.00838 0.000441647 0)
(1.0055 0.000250924 0)
(1.01754 0.00648729 -1.12922e-21)
(1.06492 0.0825713 -3.06301e-21)
(1.01447 0.00574752 2.50346e-24)
(1.03936 0.0477093 2.00728e-22)
(1.02293 0.00121243 0)
(0.943556 -0.0323036 3.82955e-22)
(1.01381 0.000108199 4.2353e-22)
(1.02957 0.0272134 -2.60823e-22)
(1.07785 0.0627146 2.61338e-23)
(1.03969 0.0359089 -1.08544e-21)
(1.0128 0.0094348 -1.48801e-21)
(1.08406 0.0480253 -1.21228e-21)
(1.03398 0.0295032 -4.19213e-22)
(1.07477 0.0346645 0)
(1.01787 0.0615429 2.16963e-21)
(1.0119 0.0013819 6.80333e-22)
(0.796347 0.0519135 0)
(0.722827 0.0649051 0)
(1.07062 0.101038 6.98316e-21)
(1.03351 0.0390847 -6.43181e-22)
(0.686371 0.18515 -1.94387e-21)
(1.0065 0.000491646 -7.78995e-23)
(1.02186 0.0209677 6.77643e-22)
(1.04574 0.0248896 0)
(1.07054 0.0476182 0)
(1.03586 0.0274556 -4.85829e-22)
(1.03498 0.0251031 2.24103e-21)
(1.01248 0.000152886 0)
(1.0122 -0.0307376 -4.87541e-21)
(0.877441 0.045954 0)
(0.849869 0.203672 1.23916e-22)
(0.848964 0.0430841 0)
(1.04968 0.0339636 1.15709e-20)
(1.0185 0.060054 -2.53573e-21)
(0.516309 0.21914 7.36563e-22)
(1.04032 0.0107147 1.27544e-21)
(0.989938 -0.0223272 6.84496e-22)
(0.704163 -0.025856 0)
(1.02797 -0.0212474 -3.95931e-22)
(1.0095 -0.000512835 2.35248e-22)
(1.03392 0.034033 -8.01904e-23)
(1.00234 -4.70837e-05 -1.54062e-22)
(1.10088 0.0631746 -9.31634e-22)
(1.00766 -0.00039507 1.47774e-23)
(1.03698 0.0280864 -5.44035e-22)
(0.701083 0.0351183 -1.12719e-20)
(1.01327 0.000676959 0)
(1.01271 0.00696866 1.0634e-22)
(1.08616 0.12477 -3.55876e-21)
(0.597357 0.0338107 -4.06209e-21)
(1.07147 0.0362312 1.73287e-21)
(1.01643 0.0154279 -1.52014e-21)
(1.00928 -0.000505757 -4.43724e-22)
(1.03494 0.0247323 0)
(1.02684 0.0294384 0)
(1.04905 0.0625254 6.911e-22)
(1.03861 0.0470262 -2.11897e-21)
(0.904062 -0.14182 0)
(1.02511 0.0356521 -1.11136e-22)
(1.0132 0.00856949 1.2047e-21)
(1.02619 0.0218456 -8.30921e-22)
(1.0199 0.0471857 0)
(1.0053 -0.0556656 -2.94212e-23)
(0.602102 -0.188079 -1.15345e-21)
(1.01346 -0.00101346 0)
(1.08159 0.0500919 8.25593e-21)
(0.598648 0.0184151 0)
(1.01542 -0.00067604 2.82396e-22)
(1.02472 0.0172608 -2.63866e-21)
(1.00985 0.00181842 0)
(1.00043 -1.07398e-05 0)
(0.470774 0.0269695 0)
(1.00972 0.00182136 0)
(1.01323 0.00900332 -1.36354e-21)
(1.00909 0.000442977 -4.73625e-22)
(0.829783 0.179451 -8.35886e-22)
(0.47781 0.00833988 0)
(1.01181 0.000810378 9.89606e-22)
(1.01488 0.00868758 2.38855e-22)
(1.03506 0.0287667 -1.65293e-22)
(0.547917 -0.201705 -1.19001e-21)
(1.00811 -0.000559202 4.55616e-24)
(1.03533 0.0285887 -6.65658e-22)
(1.01471 0.0476817 0)
(1.01045 -0.010218 1.93268e-22)
(1.00707 0.000551302 5.94251e-24)
(0.69488 0.17164 1.95527e-20)
(1.02922 0.0268731 -9.78995e-22)
(0.967392 -0.0588834 5.33253e-22)
(0.999478 -1.17345e-05 1.8075e-22)
(1.0352 0.00467051 6.17087e-21)
(1.05151 0.0316889 0)
(1.01431 0.0127955 0)
(0.606788 0.212254 -7.51004e-22)
(1.03044 0.0297251 -1.72432e-21)
(0.668864 0.0166368 0)
(1.04867 0.126948 4.75326e-21)
(1.07282 0.0369367 0)
(1.04504 0.129254 -4.35454e-21)
(0.903651 -0.222525 0)
(1.00717 0.0318256 -5.49565e-22)
(1.0144 0.0122038 0)
(1.01568 0.0153021 3.47925e-23)
(1.00819 0.00170186 1.80807e-22)
(1.01883 0.00563491 7.39749e-23)
(1.07737 0.0530443 0)
(1.05119 0.0309243 -6.00223e-21)
(1.05999 0.0715778 0)
(1.11067 0.0934725 1.94141e-20)
(0.897554 -0.0633324 1.89587e-22)
(1.01087 -0.000195183 -5.8437e-23)
(0.700195 0.0370176 0)
(0.946999 0.121928 -1.68965e-21)
(0.962682 0.0343587 3.98501e-22)
(1.04746 -0.0283051 5.74261e-23)
(0.999455 0.0904109 -1.25228e-21)
(1.03683 0.0281078 -1.37823e-21)
(0.917507 -0.151238 4.8055e-22)
(0.98793 -0.00978778 1.39292e-21)
(1.00757 -0.00026788 -1.14877e-22)
(1.00458 -8.25402e-05 4.53916e-24)
(1.00486 0.000182393 0)
(1.02107 0.00771736 -8.97246e-22)
(0.965411 0.240504 -2.28523e-21)
(1.00831 0.00174419 3.54323e-22)
(1.02742 0.013329 3.42895e-21)
(0.805321 0.0481505 0)
(1.07856 0.0512932 8.25932e-21)
(0.72994 0.0414381 0)
(1.01524 0.00764339 -5.66235e-22)
(1.06755 0.03062 0)
(1.03983 0.0107854 -3.07718e-22)
(1.01666 0.0134801 4.48829e-23)
(1.02228 0.0341121 -1.65748e-22)
(1.01513 0.00824554 1.23082e-22)
(1.10435 0.0954721 0)
(1.05073 0.0226946 4.67271e-21)
(1.0227 0.0425885 0)
(1.01339 -0.00166654 -3.77825e-22)
(1.01351 -0.0016558 0)
(1.07657 0.107857 4.24216e-21)
(1.05112 0.0232672 0)
(1.07884 0.0506153 -1.74293e-20)
(1.01378 0.00908142 1.34627e-23)
(1.00753 -0.000384033 0)
(0.834632 -0.128233 0)
(1.0103 0.00165277 3.02368e-22)
(1.0149 0.00366453 -7.72871e-22)
(0.5535 0.0362979 5.39255e-21)
(1.06589 0.0812205 1.26482e-22)
(1.06524 0.0654481 9.85322e-21)
(1.00963 -0.0198756 -9.12003e-22)
(1.00138 -3.92301e-05 1.82375e-22)
(1.00495 -0.000103101 0)
(1.01693 -0.00259256 -7.70841e-22)
(1.03213 0.0138532 1.34965e-21)
(0.932572 0.0652796 1.03856e-20)
(1.08001 0.0563905 9.1934e-21)
(1.10638 0.125842 7.43088e-21)
(1.01372 0.00498866 0)
(1.05297 0.0521884 -5.81682e-21)
(1.03527 0.0228573 -5.43957e-22)
(1.01509 0.00989217 1.34871e-23)
(1.02448 0.0276434 8.95134e-23)
(0.725245 0.0422316 0)
(1.03309 0.0317894 0)
(1.00806 0.000575999 -4.99153e-23)
(1.02641 0.0295348 0)
(1.01361 -0.000914152 -4.51634e-22)
(1.00775 -0.00028461 5.75085e-22)
(1.05822 0.0478524 1.14218e-21)
(1.04898 0.0610583 -6.64383e-22)
(1.00298 -6.80461e-05 -3.17563e-22)
(1.01289 0.00706877 -8.16569e-24)
(1.03107 0.0354031 -4.42309e-22)
(1.07986 0.0520178 0)
(1.05863 0.0276133 8.94165e-22)
(0.683481 0.0214545 0)
(1.04268 0.0111273 5.92944e-21)
(1.04664 0.0213662 0)
(1.08417 0.0480228 0)
(1.03054 0.00329332 0)
(1.02507 0.0174785 2.37546e-21)
(1.01683 0.0110257 1.48205e-22)
(1.03838 0.0479765 -3.94484e-21)
(1.07068 0.0616919 -4.29594e-21)
(1.02273 0.0142242 -4.98144e-22)
(1.07429 0.105942 -3.93808e-21)
(1.01352 0.00994118 4.21129e-22)
(0.452288 -0.121235 0)
(1.01675 0.0138536 0)
(1.01487 0.00349119 -7.60807e-22)
(1.082 0.0487463 -1.23073e-21)
(1.01067 0.00299309 0)
(1.01457 0.00849449 1.41956e-22)
(1.00869 0.000707548 0)
(1.00221 -3.14647e-05 0)
(1.01505 0.00752926 7.66419e-22)
(0.550899 0.0274909 -1.13703e-20)
(1.03195 0.0140799 1.82899e-22)
(0.925985 0.0635623 -8.38389e-21)
(1.01077 0.00156121 0)
(1.01687 0.00715623 0)
(1.01293 -0.000813687 0)
(1.01473 -0.00177554 5.41074e-22)
(1.01459 -0.00188002 -1.82466e-22)
(1.01862 0.00487426 -6.04558e-22)
(1.0301 0.0297201 -1.03006e-21)
(0.897969 -0.218419 -9.34998e-22)
(0.990999 0.0118854 6.37061e-22)
(0.98206 -0.00731543 0)
(1.01034 0.00176714 0)
(1.04866 0.135977 -1.42412e-20)
(1.06776 0.0385469 -6.58205e-21)
(1.03339 0.0405986 -3.20923e-21)
(1.03565 0.0104815 0)
(1.01057 0.00171017 0)
(1.00734 -6.39889e-05 -2.296e-22)
(1.01904 0.0241131 5.32903e-23)
(1.01282 0.00698677 -1.40854e-22)
(1.10939 0.0958161 -6.45867e-21)
(1.01156 -0.0015235 4.29456e-24)
(1.01633 -0.00255771 6.30661e-22)
(1.01934 0.0237101 -2.85072e-22)
(0.408059 0.0110929 -4.59106e-22)
(1.01377 -1.88139e-06 0)
(1.03197 0.0345931 -8.31232e-22)
(1.00694 0.00056106 4.42347e-22)
(1.00912 -0.00092947 5.1973e-23)
(1.02233 0.0544965 0)
(0.92185 -0.0502561 -6.60298e-23)
(0.870387 0.0896592 0)
(1.00303 -6.35499e-05 4.4365e-23)
(1.00419 -3.93651e-05 -1.02261e-22)
(1.07933 0.0521074 0)
(1.00485 0.000135805 2.93681e-22)
(0.720149 0.218274 0)
(1.02952 0.091059 0)
(1.07054 0.0458381 -4.56588e-21)
(0.698441 0.174386 0)
(1.00914 -0.00092588 0)
(0.974713 0.0125706 3.92771e-22)
(1.03622 0.0106009 0)
(1.06379 0.0507579 0)
(1.07125 0.0459496 0)
(0.928985 0.0649684 0)
(1.01085 -0.00052161 0)
(1.07235 0.0361821 0)
(0.674813 0.181896 0)
(1.01389 0.000120252 -1.61198e-22)
(1.01338 0.00971174 -1.21386e-21)
(1.00286 0.000113651 1.66959e-22)
(0.939111 -0.0605861 3.06965e-22)
(1.02027 0.0530753 -1.74772e-22)
(1.07176 0.0442813 0)
(1.01954 0.0107814 5.28286e-23)
(1.01296 -0.000467918 -6.25945e-22)
(1.00951 0.031323 0)
(1.04076 0.0577897 2.09321e-22)
(1.0932 0.0484611 8.58843e-21)
(1.05413 0.0377465 7.83058e-21)
(1.03814 0.0652266 0)
(1.00926 0.00259671 -8.70618e-25)
(1.0153 -0.00187568 0)
(1.01284 -0.000743236 -5.93398e-22)
(0.962087 0.130746 6.05435e-23)
(1.00894 -0.000515571 0)
(1.01296 -0.00185126 0)
(1.01447 0.00877859 3.99565e-23)
(1.04967 0.0359627 6.14529e-21)
(1.02116 0.0480197 0)
(1.007 0.000578265 -4.82513e-22)