/*--------------------------------*- C++ -*----------------------------------*\
| =========                 |                                                 |
| \\      /  F ield         | OpenFOAM: The Open Source CFD Toolbox           |
|  \\    /   O peration     | Version:  v2012                                 |
|   \\  /    A nd           | Website:  www.openfoam.com                      |
|    \\/     M anipulation  |                                                 |
\*---------------------------------------------------------------------------*/
FoamFile
{
    version     2.0;
    format      ascii;
    class       volVectorField;
    location    "400";
    object      ddt0(U);
}
// * * * * * * * * * * * * * * * * * * * * * * * * * * * * * * * * * * * * * //

dimensions      [0 1 -2 0 0 0 0];


internalField   nonuniform List<vector> 
37190
(
(4.05206e-05 0.000549484 2.75304e-21)
(1.71723e-05 1.16634e-06 -2.27373e-22)
(2.76958e-05 -2.60517e-06 0)
(3.03499e-05 -1.3249e-05 0)
(0.0202432 -0.0449763 0)
(5.76024e-05 1.69109e-05 -3.35905e-21)
(0.000377534 0.00031526 1.80553e-21)
(-0.0136875 -0.00828216 -9.23615e-22)
(-6.7339e-06 9.11193e-07 0)
(0.0054736 -0.000774983 -1.42265e-23)
(-0.00734693 -7.67464e-05 4.95405e-22)
(0.0631412 0.000776768 3.36581e-21)
(0.0015836 -0.00200515 -1.51004e-21)
(5.35086e-05 0.000119135 -2.82808e-22)
(-0.00462132 0.000350915 1.69343e-21)
(0.0136571 -0.045368 0)
(2.72419e-05 -2.96586e-06 -1.26259e-21)
(-0.0324932 -0.0202182 -9.41106e-21)
(1.46234e-05 5.09923e-06 -2.57015e-21)
(9.83548e-05 4.22007e-05 -1.94243e-21)
(0.000346257 0.000105816 1.59927e-21)
(0.0353903 -0.0618317 1.83338e-20)
(3.90292e-05 2.27871e-06 -2.96103e-21)
(0.0315744 0.103905 0)
(0.0218001 -0.0402853 0)
(7.73411e-06 5.69721e-08 -1.60906e-21)
(-0.00427091 0.00208535 4.44257e-22)
(5.16921e-05 0.000207953 3.18826e-21)
(-0.00780967 0.000100783 0)
(9.73146e-06 4.46499e-05 -8.18707e-22)
(-0.0209746 0.0545233 6.99503e-22)
(0.000273576 4.38377e-05 2.94824e-21)
(-0.000728058 -0.00112925 6.26226e-21)
(0.00875735 -0.00875669 0)
(-0.000793122 -0.00149272 0)
(0.0272901 0.0550598 6.3442e-22)
(-0.00421156 0.00216627 -1.27452e-21)
(0.0405845 -0.0881091 -6.20053e-20)
(1.49099e-05 4.70487e-06 2.39829e-21)
(-0.000174126 2.51938e-05 0)
(-0.114724 0.11529 0)
(2.9043e-05 5.06204e-05 -9.77509e-24)
(0.0154897 -0.0540929 3.18367e-22)
(0.000247082 4.21156e-05 0)
(-0.00485442 0.00107183 5.1858e-22)
(0.0371321 -0.0435415 -1.21747e-20)
(-0.00469474 0.00115662 -1.3959e-21)
(0.0679064 0.00393199 0)
(1.33182e-05 1.46676e-05 -2.52161e-22)
(7.38326e-05 -0.000560819 3.95002e-21)
(0.00079239 0.00135933 -4.03326e-22)
(2.72113e-05 2.93758e-06 2.78332e-23)
(3.35326e-05 6.18614e-05 9.84909e-22)
(9.07369e-05 0.000394977 0)
(-0.000174474 0.000100709 -7.07063e-21)
(-0.000304128 -0.0160686 0)
(2.77529e-05 3.0775e-06 4.63096e-24)
(0.000283846 -5.75505e-05 0)
(-0.0248539 0.00455258 2.76713e-22)
(-0.01182 0.0519171 0)
(-0.0127111 -0.00741497 2.97448e-21)
(-0.00459395 0.000543781 -7.46339e-22)
(0.000352325 0.000130932 8.80825e-22)
(8.1593e-06 2.01564e-07 1.59499e-21)
(0.00444056 -0.026756 -1.77173e-21)
(0.0857761 -0.0461788 5.97923e-22)
(-0.0108726 0.000219947 0)
(-0.011253 -0.0370919 0)
(0.0106455 -0.0479192 -1.06091e-21)
(-0.00371183 -0.00381628 5.31263e-23)
(1.49199e-05 3.64302e-06 0)
(0.0232154 0.00317293 0)
(-0.000274769 -0.00180652 0)
(3.89096e-05 3.18828e-06 0)
(0.000794058 0.000105324 2.30082e-22)
(0.0115925 -0.0041402 1.35538e-21)
(-0.046107 0.107377 -1.90199e-22)
(-0.00719202 0.000830249 6.84586e-22)
(-0.000955499 -0.000914379 0)
(-0.00769587 0.00266144 0)
(-0.00510643 0.00111935 -1.42227e-21)
(3.18767e-05 -8.62333e-06 2.36827e-24)
(-0.00468477 -0.00322049 0)
(-0.00186319 0.00139466 -1.97098e-23)
(-0.00155456 -0.00105209 -1.16589e-22)
(-0.00164506 -0.00223489 1.47423e-21)
(-0.00537792 -0.000426438 -1.0056e-21)
(0.0469942 -0.0413385 1.25935e-20)
(0.000393825 0.000333567 0)
(-0.0860466 0.211458 2.09367e-22)
(1.37863e-05 3.85075e-06 0)
(-0.008339 -7.02156e-05 0)
(-0.000658622 -0.00129171 -8.11006e-21)
(3.78901e-06 8.04912e-07 0)
(0.00160429 -0.00494584 0)
(-0.0133705 0.0236325 0)
(0.000103446 3.41301e-05 3.43322e-21)
(0.0884045 -0.0459625 8.3876e-22)
(0.0981832 0.0457537 -1.36423e-21)
(0.000759921 1.76571e-05 0)
(-0.0382035 -0.0535734 5.70969e-21)
(0.000667235 -0.0146414 -1.68167e-22)
(1.87327e-05 6.90433e-05 -3.27075e-21)
(1.68464e-05 7.42677e-06 1.61549e-22)
(-0.00776677 4.87545e-05 -3.39842e-22)
(5.08533e-06 8.68511e-07 0)
(0.000132775 4.18484e-05 -1.03307e-20)
(0.00627838 0.000255594 -1.18883e-23)
(0.0677942 -0.0158009 3.21755e-22)
(7.86257e-05 1.33851e-05 -1.05981e-21)
(-0.0879182 0.167291 4.35751e-21)
(-0.000485974 -0.000114225 2.48929e-21)
(3.11771e-05 -9.25701e-06 -2.16144e-21)
(-0.00047382 -0.000177624 6.08146e-21)
(0.0216522 0.00196784 1.74297e-21)
(3.05822e-05 -1.37932e-05 -2.85218e-21)
(-0.0051226 0.00119098 1.66242e-21)
(-0.00482042 -0.000490769 -8.94497e-22)
(1.56982e-05 -0.000446053 6.26632e-22)
(0.000108872 0.000136196 0)
(0.0193057 -0.0149491 0)
(-0.00710064 0.000751574 5.45786e-22)
(1.21272e-05 5.94452e-05 3.53249e-21)
(0.00101334 0.00152212 3.76419e-22)
(0.0500925 -0.0450753 9.75921e-22)
(0.000416922 4.62735e-05 0)
(-0.00815376 -0.000172186 -2.87166e-22)
(1.1434e-05 5.86554e-05 -2.85834e-21)
(-0.00821435 -6.32645e-05 0)
(-0.0427417 -0.0616652 -6.01544e-22)
(-0.0037561 0.00220533 -5.41669e-22)
(2.98425e-05 -1.99303e-06 -1.53092e-21)
(4.05363e-06 5.48503e-07 0)
(0.045968 0.0461602 2.21389e-22)
(6.11939e-06 -2.92084e-07 0)
(-0.0737388 0.0897283 2.92703e-21)
(-0.000149364 -0.000994562 -1.22393e-21)
(-0.0304244 0.00458002 6.68631e-22)
(0.0390083 -0.0100957 -7.80257e-22)
(0.0235358 -0.0493148 1.84819e-20)
(-0.0156909 -0.0181634 -9.39236e-23)
(0.0183313 -0.0170748 0)
(-0.00314749 0.0132887 0)
(-0.0147532 0.0114768 0)
(0.000114684 3.18561e-05 0)
(0.000592847 -2.43489e-05 4.45052e-22)
(0.000106313 0.000141802 0)
(8.53385e-05 0.00021754 -2.27015e-21)
(0.000504305 -2.67359e-05 -2.56647e-22)
(-0.00386395 -0.00344629 -1.75653e-23)
(0.000140213 3.71995e-05 6.70812e-21)
(2.20766e-05 6.58491e-07 1.62956e-24)
(1.54664e-05 8.54196e-06 -1.00638e-22)
(0.000194076 0.000506222 -6.22932e-22)
(-0.00463146 0.000625437 0)
(3.72323e-05 2.89112e-06 0)
(0.00948643 -0.0410587 1.31199e-21)
(5.43963e-06 3.90761e-06 0)
(0.00729744 0.00300766 0)
(0.00724427 -0.0121487 0)
(0.00026158 -0.000228689 2.2841e-21)
(2.35342e-05 -0.000305941 -4.80398e-21)
(0.000633493 0.00095077 0)
(-0.000933927 -0.00108834 0)
(0.0204614 -0.0542309 4.3373e-22)
(0.000117018 0.000138265 1.39166e-21)
(0.00873781 -0.000179518 2.09248e-21)
(-0.00647613 -0.000487687 4.01059e-22)
(6.114e-05 -0.000463817 0)
(-0.00329674 -0.0100093 0)
(0.0436483 -0.0456453 0)
(-5.24958e-06 -1.35663e-07 0)
(-0.00159191 0.016118 -2.57895e-23)
(2.68014e-05 2.23898e-06 -2.51714e-21)
(0.00667218 -0.000529868 8.4432e-21)
(-0.000153465 -0.0309557 1.06157e-22)
(-0.0040056 -0.00034434 -1.38183e-21)
(0.00242252 0.000840954 -8.22253e-22)
(4.03346e-05 7.41968e-05 1.90405e-21)
(0.00634173 -0.000616364 9.04682e-21)
(0.000206465 0.000512154 7.468e-22)
(0.00531756 -0.0108811 -1.17079e-20)
(-0.0706809 0.196821 4.40192e-21)
(-0.0354905 -0.034932 3.12707e-21)
(0.000411977 7.90137e-05 3.26832e-21)
(0.00239424 0.00648895 0)
(0.000133394 8.06269e-06 0)
(0.00555482 -0.000599815 -3.77726e-21)
(0.0808808 -0.0394965 -3.04195e-22)
(0.000579685 0.000769468 1.25295e-21)
(0.000450688 -0.000112856 5.28699e-22)
(0.000793632 -0.00345155 -8.27379e-22)
(0.00572861 -0.0105081 1.06014e-20)
(4.18704e-05 6.89119e-05 -3.87665e-21)
(0.000393656 -0.000108036 0)
(-0.00457698 -0.00331672 -1.97481e-22)
(-0.0058651 -4.30109e-05 2.42794e-22)
(0.064631 0.0269299 -3.24729e-21)
(-0.0232834 -0.0102519 0)
(2.32716e-05 1.21713e-06 -4.91187e-22)
(4.75645e-06 5.23099e-07 0)
(0.000213117 0.000256155 -1.57328e-21)
(0.000121209 -1.86847e-06 -3.94107e-21)
(4.8203e-05 5.73958e-06 -2.59768e-23)
(0.0130537 -0.0664842 -2.68989e-21)
(-0.0142435 0.0674635 -1.15014e-21)
(2.68348e-05 -5.50189e-06 3.60373e-21)
(7.41499e-06 5.57587e-06 0)
(-0.00830566 4.42197e-06 1.2576e-21)
(0.000626819 0.000734199 0)
(0.000121953 -9.99103e-06 1.91942e-21)
(2.6887e-05 -6.96219e-06 4.45766e-21)
(0.0457267 -0.00578657 0)
(5.09444e-05 -1.72363e-06 -2.89075e-21)
(-0.0075458 0.0024427 0)
(6.70958e-05 0.000157808 -2.58992e-21)
(2.68029e-05 -4.1389e-06 3.55336e-21)
(0.000125896 5.65602e-06 1.56141e-23)
(0.0316118 -0.00354202 3.16353e-21)
(2.63668e-05 -5.19254e-06 -3.04449e-21)
(4.90286e-05 0.000212777 -2.53602e-21)
(2.8706e-05 -8.80237e-06 -6.28714e-21)
(0.0846846 -0.0392476 -5.79417e-22)
(-0.00501553 -2.37022e-05 -4.71831e-22)
(0.0216333 -0.0463716 -2.00951e-22)
(0.0482563 -0.037268 0)
(-0.00331155 -0.00589049 -2.2975e-22)
(-0.00575604 -0.00144473 -2.38282e-22)
(1.21623e-05 6.68461e-05 1.25161e-21)
(0.00335378 -0.00508254 4.20683e-22)
(0.00722027 0.00035561 6.20498e-21)
(-0.000115393 -0.000866364 -3.45575e-24)
(1.59246e-05 9.21167e-06 1.10883e-22)
(6.35558e-06 -4.55288e-07 -1.86641e-21)
(2.63553e-05 -6.52603e-06 -3.66915e-21)
(-0.000672268 -0.00166984 -8.89872e-22)
(-0.0256463 -0.0106032 0)
(1.84568e-05 1.74147e-05 7.29064e-23)
(2.23853e-05 -2.41874e-07 1.08117e-21)
(0.000119545 0.000677664 0)
(0.000336331 -0.000161309 -1.65341e-23)
(0.00862182 -0.000179844 3.70903e-21)
(9.97476e-05 0.000389024 1.06955e-21)
(1.14953e-05 -1.72745e-07 0)
(-0.00236966 -0.0012464 -7.6161e-23)
(0.00512275 0.00391383 -2.07954e-21)
(2.62143e-05 -4.43096e-06 -4.22516e-21)
(-0.00153041 -0.00252719 4.43592e-22)
(0.020219 0.00117404 2.3333e-21)
(2.41769e-05 9.82045e-07 -1.88246e-21)
(0.000158915 7.75261e-05 1.26163e-21)
(0.000496222 -0.0048284 1.12248e-21)
(6.94033e-05 0.000709519 0)
(0.000120964 0.000130928 0)
(0.000289881 -0.000145412 -4.5439e-22)
(7.85626e-05 0.000217154 9.97468e-22)
(1.33243e-06 5.1966e-05 1.28992e-21)
(4.94209e-05 -9.98742e-06 3.49445e-21)
(0.00124786 -0.00550543 1.54494e-21)
(2.19963e-05 7.1513e-06 -9.81234e-23)
(0.0632073 -0.0271257 -1.35564e-21)
(-0.00474749 0.00034561 0)
(0.00484288 -0.00729631 5.10478e-21)
(2.63915e-05 1.88785e-06 0)
(0.00664353 -0.0371057 0)
(0.000179747 -0.000137287 -2.48641e-21)
(2.85172e-05 1.92292e-06 0)
(-0.0107244 0.0141339 -2.78482e-23)
(-0.00028109 7.30275e-05 -3.11405e-24)
(0.0135525 -0.00268234 2.84479e-21)
(0.00456046 -0.00315605 2.87013e-22)
(1.06101e-05 6.46982e-05 3.98516e-21)
(0.106914 0.0114928 -7.8124e-22)
(0.00693742 -0.000352452 -6.5202e-22)
(0.00784034 -0.00954205 3.50804e-21)
(0.0070013 -0.00049562 -1.18492e-21)
(0.0020805 -0.00489579 0)
(0.000133411 2.73508e-05 4.16678e-21)
(0.00665288 -0.000393033 -8.93891e-21)
(8.47299e-06 7.14675e-06 -7.0335e-22)
(-0.000316215 0.00010747 0)
(0.000246156 0.00225156 1.27904e-21)
(-1.11355e-05 0.000484829 0)
(1.78603e-05 1.66743e-05 0)
(-0.00594672 -0.0207639 0)
(2.8177e-05 -8.92834e-06 4.43062e-21)
(1.17667e-05 -2.32605e-06 1.82128e-21)
(0.00241408 0.000634248 0)
(0.0250007 -0.0520418 -1.89744e-20)
(0.00130888 -0.00075156 0)
(5.77717e-05 -0.000313142 5.26255e-21)
(5.5128e-05 -1.20746e-06 4.55891e-21)
(-0.0098775 -0.00721285 0)
(-0.00597451 -0.00137026 2.8206e-22)
(1.96126e-06 5.14013e-06 3.14335e-22)
(-0.00641964 -0.000355864 -3.97751e-22)
(1.473e-05 4.95988e-06 7.77143e-22)
(2.69532e-05 1.09537e-06 0)
(0.00841859 -0.000348331 -4.32598e-21)
(2.19932e-05 8.08451e-07 4.28721e-24)
(-0.0106028 -0.0082227 0)
(0.0684361 -0.067279 5.92057e-21)
(0.011656 -0.039905 6.8684e-22)
(-0.0060085 -0.00141555 0)
(-0.000831755 0.000374215 2.74139e-21)
(0.00262466 0.00621307 0)
(0.00395211 0.0696648 8.26929e-22)
(2.60727e-05 2.19612e-05 -1.76774e-24)
(-0.00452818 0.00113246 0)
(-0.0166925 0.0480978 0)
(0.00536234 -0.028237 6.83111e-22)
(-0.00577813 -6.0229e-06 3.65501e-24)
(-0.00804033 -0.000198617 -4.70157e-22)
(0.0307614 -0.0974333 4.8005e-21)
(0.00316816 -0.00493337 -5.74946e-22)
(0.00400366 -0.00462688 5.88372e-22)
(4.93621e-05 9.43809e-06 -9.67778e-24)
(5.42279e-05 -0.00177104 0)
(0.0226612 -0.0750617 -3.96737e-22)
(0.000136853 2.15726e-05 -3.87657e-21)
(-0.0057513 0.0010814 9.92046e-24)
(-0.00572027 0.000932688 0)
(6.1154e-06 2.01651e-05 -2.65913e-21)
(0.000451405 -0.00123363 0)
(0.0476562 -0.0416126 0)
(-0.0122681 0.07798 0)
(9.20616e-05 -0.000504537 -3.01426e-21)
(-0.00903938 -0.0344924 -4.43812e-23)
(0.00868649 -0.000141568 -1.03789e-20)
(-0.000274548 0.000152568 -8.24686e-22)
(0.0613659 -0.0458313 0)
(0.0479959 -0.0463411 -1.80597e-21)
(-0.012189 0.124466 3.07118e-20)
(-0.00771991 0.00253441 0)
(3.50029e-05 6.03235e-05 -1.11407e-21)
(-0.000293548 0.000196555 7.1506e-22)
(2.82939e-05 7.058e-07 -7.11197e-22)
(2.02094e-05 -2.85635e-06 0)
(2.44152e-05 3.14725e-06 5.4449e-22)
(8.25853e-06 6.32203e-06 1.37978e-21)
(0.0114249 -0.0693879 -1.63386e-22)
(3.75106e-05 3.49376e-06 0)
(0.0592958 -0.0101698 -4.26362e-22)
(3.50822e-05 5.702e-05 0)
(0.00886454 -0.0423775 0)
(0.00405547 0.00668871 0)
(-0.00790405 -0.000194441 0)
(3.77048e-05 -0.000134237 3.20526e-22)
(0.0120954 -0.078462 0)
(-0.00380779 -0.0312174 2.25378e-23)
(-0.0302969 -0.00261018 -6.9639e-22)
(-0.00434192 -0.0108737 8.70213e-22)
(-2.43751e-05 -9.1461e-05 0)
(2.65796e-05 8.37135e-07 1.41288e-24)
(-0.0112441 -0.00219381 -2.44298e-21)
(-0.0345163 -0.0435028 7.43331e-22)
(1.43333e-05 4.50313e-06 -1.35727e-21)
(3.00812e-05 -0.000117687 -6.81304e-23)
(-0.00398799 0.00218083 -1.03768e-23)
(0.0281266 0.10476 0)
(-0.00405252 0.00210447 -9.40663e-24)
(0.00396476 -0.00612827 0)
(0.0624838 0.0163328 -7.38844e-22)
(-0.00467269 0.00105548 0)
(-0.0041173 0.00109118 1.93652e-21)
(-0.0273106 -0.0342167 0)
(4.07121e-05 7.67098e-05 0)
(0.00893383 0.0933381 1.59551e-20)
(1.68925e-06 5.88216e-06 -6.52201e-22)
(0.00324089 -0.0269986 2.28473e-21)
(3.62879e-05 5.55004e-05 0)
(-0.0166195 -0.087715 -3.15479e-22)
(0.000744792 -0.00324318 7.50418e-22)
(-0.0374877 -0.062559 -2.69535e-21)
(-0.00203541 0.00105422 0)
(1.24113e-05 3.91131e-06 1.534e-23)
(-0.0171345 -0.0177053 1.63154e-21)
(0.00600008 -0.0106078 -6.84713e-22)
(-0.0301835 -0.0682634 2.10751e-21)
(0.0129527 -3.14105e-05 -7.56935e-23)
(6.68233e-05 0.000235475 -3.81335e-21)
(-0.00506422 5.72197e-06 0)
(1.31761e-05 2.24719e-05 2.26257e-21)
(0.0717272 -0.0484391 0)
(-0.0183168 0.0216487 3.67966e-23)
(-0.0189017 -0.00523364 -3.8004e-21)
(0.000785508 0.000326988 1.45634e-22)
(-3.85352e-05 -7.52594e-05 -1.67681e-22)
(-0.000377747 0.000611349 -1.71654e-23)
(0.000600275 0.00836947 -4.06888e-21)
(-0.00680385 -0.00448181 0)
(0.0748656 -0.0309306 1.58434e-22)
(0.000756673 0.0004571 0)
(1.33955e-05 1.21711e-05 3.71498e-22)
(-0.00736074 0.000282207 0)
(-0.020366 0.0177775 -3.38088e-22)
(-0.00543331 -0.00933535 0)
(-0.00556635 0.00132743 1.32347e-21)
(-0.00707964 5.13304e-05 0)
(-1.02381e-05 2.42377e-06 2.38713e-22)
(-0.0075155 -0.000332023 -2.30994e-22)
(-0.0295269 -0.0359633 -6.02917e-22)
(2.34134e-05 0.000253207 6.82692e-24)
(0.00885318 -0.000146986 3.33292e-21)
(-0.00762438 0.00234742 8.22034e-22)
(-0.000320091 0.00071069 2.01294e-23)
(-0.000365437 -0.00407129 1.85167e-21)
(-0.00309976 -0.000378487 1.56412e-21)
(-0.00408013 0.00100613 -1.29619e-21)
(6.45919e-06 -1.51058e-05 -2.68303e-21)
(4.25111e-05 7.15182e-05 3.94974e-21)
(-2.51049e-05 -8.44171e-05 -1.93828e-23)
(0.000569702 -3.88904e-05 -4.40066e-21)
(0.00888281 8.3814e-05 0)
(0.000276002 0.000613756 0)
(-0.00299519 -0.00949025 0)
(0.00679147 -0.00457925 0)
(0.000778459 0.000353481 -2.0241e-21)
(0.00049204 -0.0194644 3.59426e-22)
(4.92583e-05 1.00645e-05 0)
(-3.3596e-05 -3.14e-05 0)
(-0.01944 -0.0824316 -1.64739e-22)
(-0.0990427 0.0946809 -3.03492e-21)
(0.000408802 -0.00112683 1.6355e-21)
(7.85459e-06 4.55923e-05 0)
(1.94364e-05 1.34962e-05 -1.02072e-23)
(-5.25951e-05 -6.71881e-05 -5.96982e-22)
(8.44585e-06 -7.75113e-07 0)
(-0.0558665 -0.0622861 -2.14508e-21)
(-0.00460127 0.000235656 -1.25188e-21)
(1.89109e-05 1.41369e-05 0)
(-0.000135599 1.73243e-05 0)
(1.00706e-05 -5.23079e-06 0)
(-0.0246495 0.00957331 -1.0472e-21)
(-0.00728848 0.000287187 1.71713e-22)
(1.70087e-05 7.18808e-05 0)
(0.000122837 0.000385627 0)
(0.000507903 -7.48234e-05 4.12196e-21)
(0.000114763 0.000395026 0)
(0.0228685 -0.0774149 0)
(2.31815e-05 1.37597e-06 2.52315e-21)
(4.29632e-05 -3.88929e-05 0)
(-0.00718846 0.00189884 -3.1883e-22)
(-0.012036 -0.00580249 -4.67721e-21)
(0.00610308 0.000389806 -3.98934e-21)
(0.0157463 -0.00314892 1.93522e-22)
(0.0504844 -0.0523388 8.78331e-22)
(0.000226782 0.000198018 -1.86325e-21)
(-5.41857e-05 -0.00178695 0)
(0.000170225 0.000144329 0)
(0.00630497 -0.000445654 -1.09502e-20)
(0.0454761 -0.0444538 -1.28996e-20)
(0.000182379 0.000662955 3.03551e-21)
(0.000147823 0.000132015 0)
(-0.00778861 -0.00024282 -1.61967e-22)
(-0.0452714 -0.0508557 -6.81122e-21)
(1.05728e-05 4.3226e-05 -1.25657e-21)
(5.55493e-06 4.6879e-06 0)
(9.46755e-05 -0.000164771 -2.6987e-23)
(0.0035128 -0.0240136 3.4242e-21)
(1.51146e-06 1.42551e-05 -2.67156e-22)
(0.000289646 0.000532319 -1.85784e-21)
(-0.00700983 -0.0222632 0)
(8.36879e-05 -4.20914e-05 2.38969e-21)
(0.000313178 0.000521864 2.26359e-21)
(7.58483e-05 -0.000141439 -7.31207e-22)
(-0.0892251 0.199591 -1.75681e-21)
(0.000189207 0.000777819 5.33734e-22)
(2.64017e-05 6.56387e-06 0)
(0.0678751 -0.0230754 2.37312e-21)
(4.47284e-05 -2.93128e-05 0)
(8.38872e-06 5.24494e-05 0)
(0.0455037 -0.0421933 -4.79854e-21)
(0.000260514 -7.03179e-05 0)
(0.00151834 -0.00184764 8.3631e-22)
(0.064199 -0.0261595 8.11552e-24)
(1.88996e-05 7.33063e-05 -2.98619e-24)
(0.000466712 0.00222973 0)
(6.7729e-06 4.36096e-05 -2.94219e-21)
(0.0132808 0.00630768 -1.78902e-21)
(0.063513 0.00324964 0)
(1.71946e-05 6.69568e-05 0)
(0.00013994 -0.000168878 -1.33227e-22)
(-0.0351376 -0.0429357 5.02728e-22)
(0.0127741 -0.00717997 5.01114e-21)
(0.000237217 0.000600401 0)
(-0.00249141 -0.00815207 0)
(7.21941e-05 0.000162259 0)
(0.00992844 -0.0518346 2.91668e-23)
(2.59268e-05 6.07383e-06 0)
(-0.00378424 -0.00541457 0)
(-0.0448058 -0.0233872 -1.62299e-21)
(0.0127729 -0.00396443 0)
(1.48808e-05 -5.45356e-06 -1.1212e-21)
(0.000187581 0.000657614 -3.22022e-21)
(-0.000228502 -0.00222658 -5.1582e-21)
(0.00295349 0.00167371 0)
(0.0132331 0.00181414 6.66492e-23)
(6.68657e-05 1.47088e-05 -4.11887e-21)
(0.0375529 -0.00679054 -9.64825e-22)
(0.00811216 -0.0948065 3.75056e-22)
(0.0312553 0.0358309 0)
(0.0207393 -0.0692098 1.36326e-21)
(-0.0663629 -0.0391142 8.39962e-21)
(0.00073565 -0.000210824 2.00405e-21)
(-0.000154814 0.000134879 2.27779e-21)
(0.000654916 -0.000179129 -5.92854e-22)
(2.58374e-05 2.66523e-07 0)
(0.000134206 6.74064e-05 2.8991e-22)
(0.000113197 -2.17834e-05 -2.04332e-21)
(0.0685642 -0.0327665 -3.51181e-21)
(3.12701e-05 5.54075e-06 9.95416e-22)
(2.48844e-05 4.30889e-06 2.10043e-21)
(-0.0160874 -0.00873986 -2.09254e-21)
(0.00899086 0.000110339 0)
(0.0113216 0.00697641 2.01953e-21)
(0.0117867 -0.00402531 -8.11461e-22)
(7.56942e-05 -4.12333e-05 0)
(1.35065e-05 5.16793e-05 3.69618e-21)
(-0.0285299 -0.0608579 -4.13316e-21)
(4.89874e-06 -0.000103256 2.29106e-21)
(0.0644092 0.00931793 0)
(0.00030467 0.000622878 -1.94818e-21)
(0.000594534 5.06882e-05 -7.94978e-22)
(1.2026e-05 4.37106e-05 0)
(0.00708542 -0.103356 -4.76752e-22)
(-0.00272728 -0.0019057 1.76315e-21)
(-0.0573004 0.040181 7.38555e-21)
(0.00127166 -0.000952461 0)
(4.57163e-05 -5.25969e-05 0)
(1.62797e-05 -4.9708e-06 1.64148e-21)
(8.98184e-05 0.00239013 -1.40746e-21)
(0.000151025 7.07492e-05 1.2264e-21)
(6.69278e-05 1.67871e-05 1.24183e-22)
(-0.0809818 0.177414 6.08252e-21)
(2.81493e-05 -7.7696e-06 4.57471e-21)
(0.000232148 0.00897688 -3.21736e-22)
(0.0830802 0.0372432 7.49499e-22)
(0.0175025 -0.0944334 0)
(0.0156972 0.00552102 5.97223e-22)
(0.00363803 0.00145918 0)
(0.0124046 0.0393309 -8.06311e-22)
(-0.00181375 -0.00162535 0)
(0.00302762 -0.0263781 -5.17008e-22)
(-0.00583868 0.00568664 -1.14765e-24)
(-0.0078424 -0.000318562 -5.58173e-22)
(0.072717 -0.0108461 0)
(5.70347e-05 1.71439e-05 -1.93474e-21)
(2.17822e-05 -1.16465e-05 0)
(4.29291e-05 -1.7377e-05 0)
(-0.00802607 -0.000178531 3.48574e-22)
(-0.0345593 -0.0379468 1.3475e-21)
(-0.029231 -0.0562673 2.30258e-21)
(2.83425e-05 -9.57618e-08 -7.69136e-24)
(-0.00754969 -7.32971e-07 -3.13672e-22)
(1.22238e-05 5.05837e-05 3.13912e-22)
(0.000180229 -9.06773e-05 0)
(0.0679034 -0.0100597 0)
(-0.00130975 -0.00223503 2.03781e-21)
(0.00882103 -0.0638219 0)
(-0.0279743 -0.0442864 -1.65954e-21)
(-0.0374349 -0.0572953 2.1386e-21)
(2.76793e-05 -8.0867e-06 -6.63714e-21)
(0.00010381 -2.15998e-05 -3.87584e-21)
(-0.0073171 -0.00406447 4.75415e-24)
(0.0572212 0.0241072 -3.33128e-22)
(-0.00517779 -0.0344235 6.88001e-23)
(-0.00552046 0.00138337 1.66434e-22)
(1.77198e-05 8.98843e-07 1.61499e-22)
(-0.00505092 -0.0023955 3.40645e-23)
(-0.0330588 -0.0453659 -8.16731e-23)
(-0.00566304 0.0130944 0)
(3.03541e-05 -2.0054e-06 0)
(0.0674518 -0.0105733 0)
(0.0124991 -0.150444 -1.94044e-21)
(-0.00582483 0.00102669 6.29557e-22)
(0.0529518 -0.121453 -2.551e-20)
(1.56593e-05 -1.61881e-06 -1.93148e-21)
(-0.0173625 -0.00715681 0)
(0.000226183 0.00030633 2.33392e-22)
(-0.000233009 0.00023481 4.78596e-22)
(-0.000102008 0.000156565 2.80894e-21)
(9.51967e-05 0.00053706 -3.33934e-21)
(1.37289e-05 6.87731e-05 0)
(-0.00483674 -0.0186174 0)
(-0.0141799 0.026411 4.40889e-22)
(0.00546107 -0.00173452 5.18207e-24)
(-0.015987 -0.0717895 3.83664e-22)
(-0.000195627 3.21953e-06 0)
(0.000210399 0.000629518 -9.09333e-22)
(-0.0796097 0.0282368 -8.96935e-21)
(6.78691e-06 4.41742e-06 0)
(0.00368315 -0.147827 -7.28328e-22)
(2.48516e-05 4.36608e-06 2.78988e-21)
(-0.00759895 0.0123329 -2.69133e-23)
(0.000382558 0.0295384 0)
(0.0149398 0.0344879 -1.63649e-21)
(-0.0196027 0.0266753 -2.51282e-21)
(0.000758788 -0.000426319 -1.67545e-21)
(3.61862e-05 8.16724e-06 3.58016e-21)
(1.26234e-05 5.6153e-05 -2.65106e-21)
(-0.00017595 5.77842e-05 0)
(2.98164e-05 7.91472e-07 0)
(-0.0630952 -0.0416745 -1.09621e-20)
(0.000284642 0.000626178 1.425e-21)
(0.000130207 0.000654527 0)
(-4.58988e-05 5.78971e-05 8.27359e-22)
(-0.00261261 -0.00448901 -7.95803e-23)
(-0.00990821 0.185571 -2.42952e-22)
(1.05623e-05 4.46566e-05 -2.2256e-21)
(6.6379e-06 1.66731e-06 9.11817e-22)
(-0.00707666 -0.000634252 1.9913e-22)
(2.36966e-05 1.29721e-06 4.13543e-21)
(8.8221e-06 -8.18659e-07 0)
(0.000171742 0.000122098 6.86124e-22)
(-0.00613986 -0.0372146 3.24157e-22)
(3.53405e-05 8.18769e-06 1.77635e-21)
(0.0714201 0.0572198 -9.3376e-22)
(1.5619e-05 -2.22363e-06 -5.94329e-22)
(0.00400927 -0.00210163 0)
(0.0200791 -0.0971045 0)
(0.00539533 0.00045319 0)
(1.42702e-05 2.76481e-06 2.85925e-21)
(-9.30361e-06 -0.000103062 0)
(-0.000236439 0.000289099 -3.8594e-22)
(-0.000367271 -0.00214727 0)
(0.00683698 -0.0282398 -9.90277e-23)
(0.000247864 0.000272658 0)
(-0.069734 0.0539046 -7.69416e-21)
(0.000526611 -0.000888513 0)
(-0.0574569 0.00266444 -7.29041e-21)
(2.46723e-05 4.54935e-06 -5.61484e-21)
(0.000964507 -0.00276831 -2.48778e-21)
(-0.00325852 5.15434e-05 -1.91615e-21)
(0.00416919 -0.00213736 1.01333e-22)
(0.0130336 -0.056948 -3.42902e-23)
(-0.00683792 0.000803623 2.96365e-22)
(0.0104402 -0.00512569 5.29119e-21)
(-0.000779745 -0.000857617 4.51167e-22)
(0.000173876 -0.000162959 6.79628e-22)
(-0.052509 -0.0124069 8.9615e-22)
(-0.00470325 3.56533e-05 0)
(0.000259893 0.000618699 1.27177e-21)
(0.0472564 -0.0614932 5.57033e-21)
(2.50729e-05 4.80027e-06 -2.28137e-21)
(0.00878571 -0.0318846 0)
(1.2118e-05 6.12325e-05 -9.51337e-22)
(-4.26103e-05 0.000285271 -6.45367e-24)
(-0.0029698 0.00320135 -5.7946e-21)
(-0.039897 0.0974234 2.9351e-24)
(1.75662e-05 7.64738e-06 -7.70368e-23)
(0.00247523 -0.00516406 -1.1304e-21)
(-0.00449146 -0.000281521 -5.27658e-22)
(-0.0456163 -0.0263487 1.81803e-21)
(-0.0510716 0.00479362 -6.22133e-21)
(-0.00525188 0.00118045 0)
(4.20531e-05 3.2741e-06 0)
(-0.0277474 0.0710459 6.10403e-22)
(-0.0128088 0.0851839 -1.2225e-20)
(1.02993e-05 -9.45618e-07 -6.00186e-22)
(0.000207293 0.000308552 0)
(-0.00576381 0.000895224 3.23747e-22)
(-0.114148 0.115601 7.70807e-21)
(0.00039538 0.000721537 -1.38239e-21)
(-0.00241363 -0.00801399 -7.60414e-22)
(0.000190796 -0.000115803 0)
(-0.000150088 -0.0029928 0)
(-5.33652e-05 0.000642152 0)
(0.0151362 -0.0995168 9.32013e-20)
(3.11809e-05 -0.00011504 -4.39161e-21)
(2.2676e-05 1.03393e-06 -4.87091e-21)
(-9.88394e-06 6.69663e-06 5.8959e-22)
(1.22586e-05 2.13145e-05 0)
(-0.00103924 -0.0042244 -2.0811e-21)
(-0.00384572 4.64892e-05 0)
(4.634e-05 4.12109e-06 0)
(2.19495e-05 -1.05172e-05 1.97378e-21)
(0.00119368 0.0152695 -3.16094e-22)
(0.0683023 -0.0210904 -4.25665e-23)
(5.40588e-05 0.00012278 -1.96881e-21)
(0.000791381 0.000922628 -6.57658e-21)
(-0.00825874 -2.64051e-05 -1.30116e-21)
(-2.13741e-06 -3.49857e-05 2.35416e-21)
(0.000149995 0.000755957 7.61716e-22)
(4.05543e-05 3.81079e-05 0)
(1.489e-05 4.63261e-06 0)
(5.50084e-05 8.11985e-06 1.05296e-21)
(0.0735375 -0.0221156 9.0345e-22)
(-0.00366837 -0.000189229 7.16394e-22)
(0.0222334 0.0352769 0)
(-7.44945e-06 1.02092e-06 -2.38283e-21)
(-0.00197981 0.00148795 2.27922e-21)
(-0.000184935 0.00208239 1.22377e-21)
(-0.000181161 -0.00194651 -2.75426e-22)
(5.3816e-06 2.02466e-05 0)
(4.70769e-05 3.51141e-06 -2.59566e-23)
(-0.0138175 -0.0790856 -2.5285e-23)
(5.53152e-05 4.38382e-06 -5.33326e-21)
(3.59376e-05 -2.00577e-05 0)
(-0.00556923 -8.99452e-05 2.33642e-22)
(1.40914e-05 5.19478e-06 1.51312e-21)
(2.24892e-05 6.38269e-06 -3.44313e-23)
(-0.00646194 -0.00601148 1.01929e-21)
(1.36749e-05 2.70268e-06 -1.51564e-21)
(0.000313926 0.000635549 0)
(1.2028e-05 3.28153e-07 1.78168e-22)
(0.0017664 -0.000172285 2.42712e-22)
(0.000156021 0.000726218 0)
(0.000424266 0.000960194 2.03498e-21)
(4.15651e-05 3.69346e-06 -1.79995e-21)
(-5.13672e-05 0.00198053 4.0155e-22)
(1.18495e-05 5.46437e-08 -9.99646e-23)
(-0.00706327 0.000433688 1.16576e-21)
(0.016496 0.000444978 0)
(9.3902e-06 -1.10611e-05 0)
(0.0791348 -0.0306265 1.69446e-21)
(0.00134611 6.89809e-05 8.13371e-22)
(2.53448e-05 5.15547e-06 0)
(-0.00667357 -0.000933302 1.71997e-22)
(-0.00524961 0.00112619 6.03402e-22)
(-0.0742001 0.0877455 9.22514e-21)
(-0.00500738 0.000240209 0)
(9.41626e-06 -1.32016e-05 9.08712e-22)
(4.20968e-05 0.000113039 0)
(2.11289e-05 5.7915e-05 0)
(-0.00551245 0.000418601 -1.41222e-21)
(0.0373474 0.0259542 4.58355e-22)
(0.00281711 -0.000235953 0)
(0.000376845 0.000644669 -1.28664e-21)
(-0.00706894 -0.0126856 -1.17863e-21)
(-0.000162457 1.52942e-05 7.80677e-22)
(-0.00542099 0.00155392 0)
(0.00015354 9.21594e-05 0)
(2.67439e-05 2.22071e-05 2.73253e-24)
(-0.00446995 -0.000177746 0)
(-0.0055698 0.00710066 0)
(0.0243628 0.0304218 0)
(-0.000214602 -0.000620175 6.08406e-21)
(0.000407497 0.000327814 0)
(1.62105e-05 7.78032e-06 5.56051e-24)
(1.57454e-05 -5.33294e-07 4.40247e-21)
(-0.00433987 -0.0115709 7.44307e-22)
(-0.0217509 0.0116553 0)
(0.000131124 0.000733663 0)
(-0.0160083 0.000660098 -8.05176e-21)
(-0.000120076 0.000182665 -2.9134e-21)
(-0.0043282 0.00111002 0)
(-0.00697599 -0.000763301 8.47115e-23)
(0.00736334 0.000343353 9.22543e-24)
(-0.0308407 -0.014226 -6.91546e-22)
(-0.0167196 0.0752807 -3.54678e-22)
(0.000478939 0.00146831 7.25599e-23)
(0.000443817 -0.00560071 -4.05174e-22)
(1.51393e-05 2.49195e-06 -2.02242e-23)
(-0.0194255 0.0778953 6.50151e-23)
(0.00198108 -0.000448981 0)
(0.0156974 -0.000464558 0)
(0.0829554 0.050381 -6.85168e-22)
(-0.00144455 -0.030438 -1.57262e-21)
(3.45543e-05 -8.70329e-06 -2.9003e-21)
(-0.00564179 -0.019658 -8.31858e-23)
(-0.000292336 0.00600545 -4.62776e-21)
(2.30777e-05 -1.2699e-06 1.79799e-21)
(2.38491e-05 -9.19053e-08 -2.31105e-24)
(0.0126326 -0.00265479 -1.49e-21)
(6.7655e-06 2.14268e-06 9.28056e-22)
(-0.00772177 0.0152463 3.92657e-22)
(2.29927e-05 2.1593e-06 0)
(-0.000366398 -0.000845838 2.79454e-21)
(0.00794968 0.0705007 -2.74527e-21)
(4.00268e-05 3.86719e-05 -1.87325e-21)
(-0.000641961 -0.00219542 0)
(0.000214022 0.00265419 8.0873e-23)
(0.00549245 -0.000866553 0)
(-1.47487e-05 -3.61051e-06 -5.53832e-22)
(2.02909e-05 0.0017231 -1.63478e-21)
(1.46827e-05 -4.76287e-07 4.88471e-21)
(1.72309e-05 -7.80234e-06 1.7428e-21)
(0.000192788 -7.45168e-05 -2.91014e-21)
(-0.00101134 0.00172983 0)
(2.94712e-05 -1.68005e-05 0)
(1.15501e-05 -3.68995e-07 -2.02605e-22)
(3.90252e-05 4.51356e-05 3.87096e-21)
(0.00370403 0.0648619 0)
(1.5412e-05 -3.28243e-06 -1.76928e-21)
(-0.00744409 0.0020047 -4.75276e-22)
(0.00813707 -0.00182012 0)
(0.00130125 0.00794351 3.02901e-21)
(0.00491542 -0.000859479 -5.28551e-21)
(0.000919607 -0.00150313 1.2444e-23)
(9.62654e-06 -1.39652e-05 -3.24001e-21)
(-0.00075841 -0.00102761 6.44375e-22)
(7.01574e-06 5.28022e-06 0)
(5.72976e-05 1.90048e-05 0)
(1.5142e-06 8.76441e-06 -3.10935e-22)
(-0.00290406 -0.0118476 -1.31397e-21)
(3.82722e-05 4.72251e-05 -6.54492e-21)
(9.45592e-05 -9.54167e-05 -4.53612e-21)
(0.000196395 -0.000132164 2.07862e-22)
(0.0137235 -0.0541673 -2.10338e-22)
(-0.00603754 -0.00109353 0)
(1.11365e-05 -3.67377e-05 -1.30335e-21)
(0.000590324 0.000103303 0)
(5.16599e-05 -1.87081e-05 2.87197e-22)
(0.0625849 -0.0314278 -2.32287e-21)
(0.000232714 0.000261696 0)
(0.0222818 -0.0896474 6.69203e-22)
(-0.00563952 0.00715732 -1.12287e-24)
(-0.0048905 -0.00295667 0)
(0.00979212 -0.00429611 0)
(3.62924e-05 -1.41233e-06 0)
(3.59462e-05 7.78913e-05 0)
(1.7657e-05 -2.13407e-06 0)
(-0.00141442 -0.030506 3.80679e-23)
(4.01683e-05 7.93889e-05 -2.77087e-21)
(0.000516602 9.13827e-06 8.57698e-22)
(0.0103376 -0.00298954 -6.95584e-22)
(-0.00700241 -0.00521944 -1.04688e-21)
(0.0204328 0.098983 1.90766e-20)
(-0.000513177 -0.00215804 1.57344e-21)
(-0.0100795 0.00581357 -4.34465e-21)
(0.000252493 0.000607126 -9.7924e-24)
(2.51071e-05 1.57513e-07 3.70046e-21)
(-0.00843251 -0.0405494 -5.57197e-22)
(0.000234753 0.000247546 0)
(-0.0463896 -0.0619574 1.16463e-21)
(0.104862 0.016548 0)
(1.00646e-05 -6.39565e-07 0)
(0.00592057 -0.00690465 0)
(1.2483e-05 3.67796e-06 3.94806e-23)
(0.00996814 -0.048506 -3.77942e-23)
(3.54028e-05 -4.82957e-06 0)
(0.0124966 -0.0770721 4.17394e-20)
(-0.00683949 0.00054273 0)
(-0.0165815 0.0088759 0)
(0.00729242 -0.0020053 -7.1369e-21)
(0.00281278 0.00346003 0)
(1.5302e-05 -3.91856e-06 0)
(8.82616e-06 2.39922e-05 0)
(-0.00396531 0.00124651 6.38166e-22)
(0.0664118 0.0335906 0)
(-0.00783747 -0.000331913 -2.70154e-22)
(0.000535222 0.000816288 4.47881e-21)
(9.25397e-05 -3.82639e-05 0)
(0.000548606 5.83856e-05 5.56062e-22)
(-0.00544691 -0.000543416 0)
(9.56394e-05 -2.9717e-05 0)