/*--------------------------------*- C++ -*----------------------------------*\
| =========                 |                                                 |
| \\      /  F ield         | OpenFOAM: The Open Source CFD Toolbox           |
|  \\    /   O peration     | Version:  v2012                                 |
|   \\  /    A nd           | Website:  www.openfoam.com                      |
|    \\/     M anipulation  |                                                 |
\*---------------------------------------------------------------------------*/
FoamFile
{
    version     2.0;
    format      ascii;
    class       volScalarField;
    location    "400";
    object      ddt0(omega);
}
// * * * * * * * * * * * * * * * * * * * * * * * * * * * * * * * * * * * * * //

dimensions      [0 0 -2 0 0 0 0];


internalField   nonuniform List<scalar> 
37190
(
-2.10577e-05
-3.01327e-08
-2.48099e-07
-8.49277e-09
-0.036927
-1.6614e-07
1.95682e-05
0.000181548
3.74879e-07
0.0544554
-0.155927
-0.132957
0.000806058
8.71484e-07
-0.00750646
-0.051941
-2.3277e-07
-0.619052
1.93859e-07
3.12387e-06
1.42714e-05
-0.0660014
7.54937e-07
0.0916279
-0.00322225
-2.51684e-07
-0.0184189
4.94193e-07
-0.0340834
1.19242e-08
0.165213
-2.05088e-06
3.87098e-05
-0.000648658
4.25775e-05
-0.0734966
-0.0200909
0.118458
2.18089e-07
-6.20787e-06
0.00963393
-2.19332e-07
-0.0382049
-1.31627e-06
0.00375003
-0.670363
0.00233002
-0.149056
-2.11837e-07
1.86429e-05
5.71152e-05
1.89154e-07
6.87897e-07
2.94037e-07
-2.09344e-06
-0.000977183
2.15556e-07
1.21003e-06
-0.0201345
0.152834
0.000187524
0.0094504
1.44013e-05
-1.24099e-07
0.0948384
-0.108182
-0.024255
-0.247259
0.158079
0.00784701
2.40341e-07
-2.69401e-06
3.29047e-05
7.35677e-07
-5.59168e-07
0.00120688
0.0440977
0.00194246
4.11438e-05
0.00617766
0.00324233
6.81586e-08
0.0186584
-0.000120658
-0.11588
8.13801e-05
0.0431341
-0.364504
2.14352e-05
-0.0921984
-4.04595e-08
-0.0673871
3.97413e-05
-8.95867e-08
-1.12383e-05
0.54329
3.32961e-06
-0.130232
0.0500925
-5.13145e-07
-0.0275967
-0.000734888
5.06355e-08
-8.95071e-08
-0.060277
-1.39416e-07
-9.5945e-07
0.0526493
0.204165
1.59159e-07
-0.138409
8.44751e-06
3.92165e-08
8.65419e-06
-0.000206939
-2.71674e-08
0.00221734
0.0639633
1.70095e-05
3.04032e-06
-0.00227377
0.00670014
-1.04288e-07
7.88983e-05
2.39282
1.67413e-05
-0.0189749
-1.38624e-07
-0.0565426
-0.0274086
-0.0198223
2.91209e-07
-3.49122e-08
0.376447
-4.84395e-07
0.544618
9.93792e-07
-0.00420345
0.141454
-0.00887311
0.0205395
-0.00294903
0.0154252
0.431085
4.11609e-06
1.27591e-05
2.87788e-06
1.54091e-06
1.13408e-05
0.00556955
-9.09001e-07
4.3878e-07
-7.08607e-08
1.26848e-05
0.00861113
6.61464e-07
0.179369
-6.27454e-08
-0.000168412
0.191855
5.49795e-06
1.03063e-05
-2.84824e-05
4.22315e-05
0.0799423
3.41846e-06
0.0251864
-0.0523739
1.32394e-05
0.00992941
2.70617
3.36081e-07
0.0342284
-1.05897e-06
0.0420761
2.3303
-0.0004897
5.37647e-05
8.06354e-07
0.0390643
1.43522e-05
-0.00066892
-0.128163
-0.320706
1.66687e-05
-0.236681
4.99302e-07
0.0410655
-0.0796463
6.68679e-05
1.09393e-05
-0.00420965
-0.000578551
8.7074e-07
9.32757e-06
0.0195156
0.00419015
-0.127593
0.0319285
9.53666e-08
-2.03085e-07
-4.21419e-05
1.20472e-06
8.43259e-07
0.0878344
0.202284
-7.03902e-08
7.48823e-08
-0.0350207
5.92351e-05
1.30296e-06
-9.5053e-08
0.609095
9.5803e-07
0.00896205
1.10354e-06
-1.52817e-08
6.91969e-07
0.607251
-6.94673e-08
3.33938e-07
-8.50149e-08
-0.112167
-0.0218035
0.106221
-0.172012
0.00216317
0.0152292
-1.89687e-07
-0.0888804
0.012704
2.07812e-06
-5.83398e-08
-4.83585e-07
-9.44508e-08
4.20205e-05
0.0357526
2.56772e-09
-7.47072e-08
7.65008e-05
8.10954e-06
0.0479629
2.77755e-07
1.21496e-08
-0.104144
0.105344
-1.20671e-08
4.68276e-05
1.98683
2.71717e-07
5.51535e-06
-0.000204333
8.71874e-05
3.55302e-06
6.80361e-06
1.59736e-06
-1.14727e-06
1.32396e-06
-0.000121669
1.0225e-07
0.411038
-0.00465169
-0.000447988
1.73099e-07
0.154017
9.86457e-06
-3.60311e-08
0.0207075
-3.97267e-06
-0.000497525
0.000208516
-2.36381e-07
-0.289573
0.0467001
-0.000624566
0.0361487
-0.000112918
-1.68733e-07
0.0495907
2.27557e-07
-2.35911e-06
0.000201968
-1.9633e-05
-3.75471e-08
-0.0120777
-9.28949e-08
2.41708e-07
3.15629e-05
-0.185987
-1.4649e-05
1.08766e-05
1.19013e-06
9.58302e-05
0.0154093
-2.73472e-07
-0.0629098
1.16938e-07
-2.69956e-07
0.0154329
4.13502e-07
1.96168e-05
-0.0646229
-0.0810287
0.0154646
1.18619e-05
0.00211932
0.0213684
2.97116e-07
0.00307882
0.0896003
0.0339259
0.00227589
-0.00306563
0.0649705
6.87984e-05
0.000239198
-8.74797e-07
-2.42447e-05
-0.0424531
-3.39601e-08
-0.00629494
-0.00856574
6.38923e-08
3.88712e-05
-0.190182
0.222497
1.71895e-05
-0.169659
0.0356736
-4.55515e-06
-0.595182
-0.591483
0.147542
0.00559244
7.41266e-07
-6.72773e-06
-5.60443e-08
5.17828e-07
-3.24456e-08
9.03918e-08
-0.0244001
6.54354e-07
0.540488
7.44494e-07
-1.31512
0.00378498
0.00398112
2.01063e-06
-0.0172208
-0.165614
-0.0052911
-0.00286836
2.04043e-07
1.61799e-07
-0.0821924
-0.339682
-4.43938e-08
1.66984e-06
-0.0199225
0.100681
-0.0180445
-0.0837906
-0.244802
0.0043821
0.00400329
-0.138159
8.37017e-07
-0.0967821
-2.86599e-07
0.149021
7.75853e-07
0.0432099
-0.00180183
0.0173962
-0.000110681
-1.28297e-07
0.0217375
0.264933
0.0111689
0.00656368
-7.61211e-06
-0.0588898
2.06197e-07
0.462226
0.0237255
-1.9473
1.76129e-05
9.24755e-07
-2.67943e-05
0.000412824
-0.00436218
-0.0710168
-2.158e-05
-2.20903e-07
0.00793682
0.00782318
-0.66997
-0.00549145
-0.198728
6.25119e-07
-0.024769
-0.245893
-4.96581e-06
0.0277698
0.00833025
-1.78959e-05
0.161894
0.150809
0.00550326
1.75315e-07
8.9566e-07
1.60774e-07
-8.22013e-06
0.0499923
4.25407e-05
0.0102879
-0.000374375
-2.18625e-05
0.168712
-8.64115e-07
5.48566e-07
0.0425586
0.241266
2.92051e-05
-1.03877e-07
8.05637e-08
8.79178e-07
-3.59953e-07
0.863607
-0.00818226
5.7116e-08
1.62875e-07
5.87596e-07
-0.0134321
0.00796108
-7.32126e-08
2.69747e-06
-5.00506e-06
2.33001e-06
0.182179
8.80822e-08
2.10902e-06
0.0139738
-0.000184011
0.00888728
0.482091
-0.646836
-4.45138e-05
3.0479e-05
5.96402e-06
0.0466897
-0.335856
-4.09344e-05
4.75413e-06
0.00535343
-0.0586716
-1.10029e-06
2.95481e-08
3.7485e-06
0.179446
9.85692e-08
-4.14588e-05
-0.0160185
2.42296e-06
-5.60168e-05
2.60782e-06
-0.113547
-0.000111435
9.94815e-09
-0.0937641
1.87882e-06
-1.79143e-07
-0.894648
1.94357e-06
-4.09468e-05
-0.408285
-2.27386e-08
0.000141432
-1.39841e-07
0.00426985
0.247322
5.41361e-08
3.58176e-06
-0.1073
-0.00082231
2.90066e-05
0.00838646
1.45151e-06
-0.0532765
1.17326e-08
-0.000460935
-0.125252
-0.000639501
-6.64499e-07
-4.06357e-05
-9.94893e-06
0.000273535
0.00734037
1.56095e-07
0.149828
-0.00631147
-0.0903671
0.00749165
-0.0903474
-6.06687e-06
-3.14166e-06
-5.94576e-06
1.70487e-07
4.66293e-06
1.86491e-06
-0.0676847
-1.14195e-06
2.47292e-08
-3.02461e-05
0.00450099
0.0030557
0.0525057
2.28362e-06
6.22272e-08
0.015306
1.84766e-06
0.14098
4.31099e-05
2.29947e-05
1.05231e-07
-0.000158377
8.3404e-05
-0.0548524
-9.11777e-06
2.49593e-06
-6.619e-07
0.000137204
5.39107e-06
-9.21304e-08
-0.145537
-9.3004e-08
0.00564912
-0.740985
0.0614375
0.0168181
0.000395687
0.02324
6.84078e-05
0.197412
-0.0051283
-0.000145236
-0.156405
-3.31529e-07
2.7576e-07
2.93493e-08
0.00117028
0.0201587
0.0177085
2.02473e-07
-0.189129
3.3526e-08
8.5345e-06
0.177022
5.18911e-05
-0.0278007
0.00820003
0.00322396
-1.01588e-07
1.65167e-06
-0.00476163
0.290401
-0.23112
-0.00783278
-1.02002e-08
0.0178547
0.0263352
0.0184175
2.60048e-07
-0.146204
-1.16027
-0.00384988
-1.19829
9.5714e-08
0.000113314
9.53456e-06
-5.94998e-06
-9.25495e-06
-2.15595e-05
-1.73342e-07
-0.695713
-0.0162188
-0.00370949
0.0321887
-4.36638e-06
-1.95978e-05
0.0510655
-8.39685e-09
-1.01779
3.49758e-07
-0.0259262
0.132637
0.0143873
0.0573612
8.16002e-07
-4.33283e-07
-1.0676e-07
-6.73856e-06
1.13101e-07
-0.0946286
4.50743e-05
6.00353e-05
-7.48294e-07
0.00023943
0.119773
5.13695e-08
-9.16012e-08
-0.0083131
3.27558e-07
-3.45984e-07
6.10319e-06
-0.0257664
-4.09397e-07
-0.820664
9.56356e-08
0.113328
0.0766866
-0.000163024
-1.36991e-07
1.74209e-06
-4.78766e-06
3.74269e-05
0.0129298
1.05947e-05
-0.0979477
-4.92873e-06
-0.0567644
3.26312e-07
0.00151707
-0.173824
0.0751528
-0.0226715
0.0124496
-0.000617471
3.18311e-06
9.52317e-07
-0.0854714
-0.0737507
3.8898e-05
-0.106198
-9.90943e-09
-0.660729
-1.28618e-07
-7.46507e-06
8.73045e-05
0.090711
-6.51768e-08
-0.000114528
0.0933277
-0.244876
-0.0688924
0.00165467
-6.20097e-07
0.131921
-0.07289
-1.74927e-07
-1.28182e-05
-0.00632106
-0.0394685
6.09593e-05
0.00491217
9.92154e-06
-3.76907e-05
-2.37483e-05
0.0734774
3.40326e-06
-1.01734e-07
-5.97786e-07
1.85939e-07
0.145876
-0.0886065
-6.54865e-07
3.12398e-07
0.0285776
-0.0637576
6.3814e-07
-2.91906e-05
-0.0446391
1.50249e-06
6.98416e-05
8.31439e-07
1.26283e-07
1.15852e-06
-0.0813989
-0.000310963
0.027908
-4.15156e-07
5.80051e-05
0.000121562
-0.111078
3.66085e-08
-4.36267e-07
0.0423747
8.50335e-07
4.34907e-08
-0.000438302
-5.13369e-09
1.17751e-07
-0.0394127
-8.16719e-08
4.76876e-05
-1.53249e-07
8.49351e-05
-7.95468e-05
-0.00024521
-7.99612e-07
0.000189153
-1.38801e-07
0.00691432
-0.000374443
-1.19939e-07
-0.090484
1.23612e-06
-1.29112e-08
-0.00332083
0.00268736
0.521039
0.000136566
-3.84678e-07
3.95285e-07
-3.72108e-07
-0.000492929
-0.160984
0.563733
5.1475e-05
-0.743598
3.61049e-07
-0.0123799
5.36654e-06
2.91287e-07
-0.000469956
-0.000109701
0.0187966
1.18386e-05
2.15416e-05
-3.07031e-07
1.10339e-07
0.000251408
0.00190617
8.62405e-05
-0.0703355
-1.03758e-05
0.00353343
-0.00397871
-0.00728049
-0.00154844
-0.0275899
4.90362e-05
-0.000284313
1.52471e-07
-0.022071
0.000108389
-0.000422403
0.10792
-0.0398237
5.16306e-07
-0.00483199
5.68835e-05
-2.06427e-07
-5.86453e-09
0.00171085
-1.02122e-07
0.0309657
3.27176e-07
2.69188e-05
-0.00789398
7.9212e-07
4.14138e-05
4.53532e-05
-0.000161082
6.82275e-07
0.000185845
-5.48432e-07
-7.88935e-08
8.77813e-06
0.000206604
-1.96896e-08
-1.00078e-08
8.31963e-07
0.663186
7.59834e-08
0.00993542
-0.000203102
0.00033542
-0.000153929
2.85215e-05
-3.6673e-07
1.58309e-07
-6.47404e-09
-1.95874e-06
-2.0311e-07
-0.00200507
8.27173e-07
4.13773e-06
7.68736e-07
-0.0584491
-0.0010448
1.6911e-06
-1.09326e-05
6.70994e-08
0.322388
9.481e-06
-0.106627
0.000396186
0.0172887
0.00249599
3.54493e-07
6.1291e-07
3.02979e-08
-0.0773902
7.36997e-07
-3.9952e-06
0.00274148
-0.00138908
-0.00952523
-2.4442e-06
0.000592303
3.70535e-05
9.53318e-09
-0.555951
9.61877e-06
1.49646
-0.171536
-1.45948e-07
-0.00045737
-1.24631e-07
-0.0511823
5.92887e-07
0.0784478
0.00728599
-0.00518408
-0.000260168
0.000660846
8.98441e-08
1.22636e-07
0.00169728
-0.548061
-0.000517973
-2.38453e-05
3.58986e-06
-9.26748e-06
0.0342337
4.08089e-06
1.6659e-07
0.0394838
-2.29453e-06
0.000260858
-3.31751e-07
-2.9249e-05
-0.000136675
1.51506e-06
-1.76393e-07
0.00863536
-7.22724e-07
0.277301
-0.00583042
0.00177142
-0.000233284
2.33257e-05
4.28163e-06
1.05356e-05
-0.00194663
0.0957338
-0.0723014
-0.0124508
4.85142e-07
-0.120283
1.49341e-07
-0.000207981
2.53647e-07
-0.0553933
0.09457
-0.0705987
0.0590218
7.09049e-06
-0.0153812
-0.0613183
-0.0385936
0.000556815
-7.82204e-06
0.0695182
-6.38061e-07
0.0145204
-0.014945
0.14348
-4.44208e-06
-0.00128137
-0.000125126
-0.064008
3.95565e-07
1.04301e-06
2.9336e-09
-6.58208e-07
1.22669e-06
6.10814e-07
1.96634e-07
7.01563e-07
4.43776e-07
0.00271297
-0.0632364
-0.000123873
-2.15707e-07
-0.0840015
1.58168e-05
6.13759e-07
4.4996e-07
-2.356e-07
-0.0372521
-1.58304
1.63119e-07
3.41934e-06
7.64763e-05
1.45614e-07
1.67887e-05
0.000380835
1.13657e-06
0.283206
-0.00193402
-0.0327112
0.00123752
9.20804e-07
2.1e-07
5.37031e-05
-0.726364
-0.0566095
-1.9002e-07
-0.000623491
0.00479975
-6.94435e-07
-0.00027583
2.61687e-05
-0.230132
-2.29596e-05
-7.48692e-07
6.32779e-05
2.53816e-07
-0.0310653
0.749896
0.000135761
-0.00226891
-0.000237025
0.00021195
4.04652e-06
0.0028574
-2.86175e-07
2.39831e-05
-0.0250358
3.06295e-05
-0.000294082
-0.166439
-0.000657172
2.58428e-07
9.30125e-08
0.199351
2.30671e-05
2.14137e-07
1.03661e-05
1.74928e-05
0.189376
-0.0178781
-1.45403e-07
0.0048602
-3.81132e-05
-0.076502
-9.07377e-07
-0.11717
0.000200477
-0.0715332
-0.0719329
0.000449363
2.08571e-07
4.39427e-07
0.00440969
3.70712e-07
4.44643e-06
1.08047e-07
-1.82838e-06
6.41742e-05
4.8506e-05
1.03371e-06
-0.000502858
-0.132134
1.35785e-07
-0.0361397
4.20982e-07
1.06868e-06
0.448791
-0.855702
0.00441989
0.0483203
4.88584e-06
0.000218201
0.000140134
5.36632e-07
0.0352118
-0.0400602
1.36219e-07
0.00734337
2.81471e-07
-9.37e-08
-6.70769e-06
1.07529e-06
-0.00159525
0.0244509
-3.61554e-07
0.00592352
-4.61144e-07
-0.249938
0.12783
-0.0330148
-0.00976295
-0.203864
-9.80364e-05
2.78275e-05
-0.00143241
1.44042e-05
1.20232e-07
0.000170731
5.32255e-06
0.00865515
-4.12356e-07
6.59706e-07
2.47197e-06
1.2896e-06
0.123422
-1.57011e-06
1.5487e-05
0.07082
1.05684e-07
0.00136324
5.76343e-08
1.2275e-07
8.31041e-07
-0.116848
-0.834483
-1.67911e-06
4.7758e-07
-0.28756
1.27105e-05
0.0179443
-0.000240295
6.2767e-07
0.0103748
-5.07116e-07
3.27206e-07
3.86329e-07
-3.07129e-07
0.0568342
0.00287305
-8.72846e-05
-0.000115834
8.82787e-05
-0.0219926
4.91897e-07
0.000326513
4.89816e-07
4.92575e-05
-1.85118e-05
1.58063e-05
1.16681e-06
0.224381
0.309896
-0.121368
-1.28261e-07
-0.000289356
2.78569e-06
-0.603151
0.000212441
4.63737e-07
-8.17679e-06
0.000174264
-2.69444e-07
-0.524645
-0.554487
1.23127e-07
-7.6763e-06
-4.02104e-07
-6.31035e-08
-2.84627e-06
6.6938e-08
4.0804e-06
3.80257e-09
2.40332e-07
3.74788e-06
5.10009e-08
-8.39637e-05
1.21542e-06
-0.155612
-2.80368e-07
1.58923e-06
0.241335
6.07748e-07
5.13408e-06
1.40145e-07
1.42166e-05
4.895e-07
-2.91081e-07
-1.0818e-07
-0.000519471
0.24055
1.56056e-07
-0.0458136
-0.0745947
0.217212
-9.88597e-07
-1.46519
1.30305e-07
-1.13162
-0.339473
0.129566
-9.13728e-05
0.0392466
0.214723
0.000224836
1.18421e-05
5.19832e-06
0.0119532
-9.28648e-07
0.00118566
-0.133861
-0.0111062
1.23658e-06
-3.61949e-07
4.03719e-07
0.00012807
-0.138075
0.1704
0.00112638
0.0157578
-5.10907e-07
3.50326
0.288083
-0.0104341
0.000115989
4.54943e-05
1.10935e-06
3.76517e-06
-0.000334853
-0.48499
2.12282e-05
-2.07012e-07
-0.000523314
-4.05954e-07
-0.0417565
-3.08715e-06
-2.96589e-07
-0.000154262
0.000153141
-4.68981e-08
-0.000304187
4.69595e-05
0.0304829
1.06636e-08
-0.190277
-1.84087e-07
0.0081972
-0.0194563
0.0140617
1.33567e-06
0.00311753
1.05491e-06
5.59479e-07
-0.000219064
0.0211506
-2.92522e-08
-1.0307e-05
-0.0201124
-7.52329e-05
-7.5843e-07
-2.9212e-07
0.00568533
-0.442393
-0.0976699
0.000400415
-0.00614615
-0.0203084
-7.07181e-05
0.176144
-2.75434e-06
-1.4568e-07
-0.100138
-0.347878
-0.0107071
-4.27198e-08
0.00440413
-0.10352
-0.0440856
-0.000285735
0.00186875
-0.00212524
-0.000171978
-9.01766e-07
-0.000184687
0.0639665
-1.91917e-06
0.000119488
2.57297e-07
0.00826621
-0.139543
1.35096e-07
-1.7185e-07
1.73548e-06
0.159268
-4.48045e-07
4.53954e-07
-1.16953e-07
-0.0379453
-0.00134084
0.000104338
0.27212
-1.12306e-07
4.25993e-07
-6.5709e-05
1.84233e-06
0.163359
-0.136922
0.000139968
0.244404
-5.88921e-08
-0.000373704
4.31326e-07
8.24841e-08
-1.04738e-06
1.47043e-06
-0.000113796
-1.61348
0.000118836
-4.66884e-05
0.288735
7.96054e-05
-0.079267
-0.138671
1.94131e-07
-6.06577e-07
-0.000244088
2.07861e-07
-0.032351
3.3016e-07
5.50639e-07
-7.26743e-07
0.000192227
2.56063e-07
5.40711e-06
-0.0566734
-0.000294407
0.041507
-4.98579e-07
-1.02186e-05
-4.18787e-07
1.92556e-05
-5.03387e-08
-0.0722902
3.33221e-05
4.79158e-06
-0.0437891
1.24233e-05
-7.37793e-07
-0.125831
-0.000944602
-1.11563e-07
-1.74187e-05
-0.0120938
3.27388e-06
4.01897e-05
7.82136e-07
0.00152284
-2.80925e-07
1.54082e-08
6.22747e-05
6.23175e-07
0.0232515
-0.000214528
1.57378e-07
-3.47244e-07
-0.0296944
-0.0321293
-3.65517e-07
-3.54721e-07
-5.40054e-06
-8.10244e-07
3.54579e-07
-2.11651e-07
4.75523e-05
0.010416
-0.0274362
-2.07913e-06
2.89433e-07
-0.000157704
0.809797
0.0100889
1.69469e-06
1.33742e-05
0.00620992
0.0070336
2.69473e-07
-0.0115615
4.84357e-07
-1.29785e-05
0.000132163
0.000216694
-5.63612e-06
1.18272e-06
2.25782e-07
-0.114807
0.000136388
-2.22707e-06
4.7e-06
-0.0161052
0.000334265
4.02499e-07
-9.09998e-08
0.188298
-6.15727e-06
5.58497e-05
-0.00036312
-4.70432e-07
5.49406e-07
-0.00276848
-5.19921e-05
1.27386e-07
0.192132
2.40082e-06
-0.0266474
6.94141e-08
-0.000187898
0.125038
3.85143e-06
0.000371618
-0.0402117
-6.11514e-07
3.83513e-07
2.43449e-07
4.97988e-06
-0.00015262
0.026547
1.03091e-07
-0.000361928
-3.83937e-06
-0.000243052
6.79469e-07
-0.000347118
4.41884e-07
0.293174
-2.21272e-06
1.81978e-07
0.0070673
-0.000140651
7.7425e-07
4.32843e-07
3.27865e-05
0.451186
8.92101e-05
1.22061e-06
-7.20065e-08
9.14739e-07
2.7558e-05
-0.0916029
2.44349e-05
0.00606921
6.56722e-05
8.15297e-05
5.56147e-08
0.0487319
2.41576e-07
0.00283352
-0.000121865
4.84945e-06
1.56423
0.00859867
-7.44778e-07
0.00176424
6.29394e-09
-0.0245605
0.00727141
6.47568e-07
-0.00296595
2.68685e-07
1.30738e-05
0.151935
0.000156585
0.00540424
0.338973
2.32089e-07
0.452279
-8.64667e-09
-1.33374e-06
0.0749008
0.0103406
-1.9235e-07
3.51399e-05
2.18122e-06
5.82723e-05
4.32618e-08
8.87029e-05
-2.07646e-08
0.000218231
1.58506e-07
3.38983e-07
-4.39627e-05
-5.08904e-06
6.48115e-05
0.209683
0.268376
2.44842e-07
1.7534e-06
-0.000443249
-0.000170901
0.000102883
-4.30167e-07
0.0186416
2.03379e-06
-5.88771e-07
0.0548175
3.14809e-08
0.39861
-1.54812e-07
8.87737e-06
0.040704
-6.23885e-07
1.87205e-06
2.14929e-06
1.16756e-06
-8.6001e-06
-0.12845
-2.32339e-06
0.0890675
-0.0364481
5.34898e-06
-1.50364
-0.0201394
1.59211e-06
-4.72091e-07
0.0535751
-0.220947
2.21019e-05
-5.26438e-06
-0.053422
-0.33831
6.55104e-07
-1.56396e-05
-2.86041e-07
8.25911e-07
0.0664539
0.517546
7.45438e-05
-0.0528888
1.35707e-05
2.39606e-07
-0.0710475
-0.00218465
-1.69967e-07
-0.0447758
0.000200707
2.07028e-05
-0.0461986
6.84472e-07
0.00060214
7.46179e-07
-2.45182e-06
3.65504e-06
-1.59653e-05
5.12559e-05
0.000173695
3.62864e-06
-1.42125e-05
-2.76969e-05
-0.0414846
1.41216e-06
-0.0851407
0.209166
0.137735
-9.03141e-08
-4.13271e-07
0.357012
-1.73829e-08
-0.105061
1.43128e-07
-0.000187255
-0.589783
-7.3439e-07
-0.057618
3.53537e-07
-0.0407319
9.28491e-05
-0.00295359
-0.0201911
-0.000293905
-6.79232e-08
0.0622104
9.72882e-08
-0.07005
-0.000100329
-0.00362505
0.000117575
-1.07633e-05
-0.0109104
-1.04768e-05
1.62103e-05
-0.000196565
-0.0734313
-9.17087e-08
6.55425e-07
1.37163
0.089452
-0.000792596
0.000446661
-7.50434e-06
2.54561e-07
-0.0803016
6.5533e-05
-0.0514279
0.154916
-0.311531
2.38082e-07
-9.21901e-07
6.76452e-08
0.00386448
4.64651e-06
-0.0947639
1.29501e-06
-1.07734e-06
-3.88485e-06
0.0107547
-0.0954267
0.000334298
-0.000263554
1.68327e-05
-1.9078e-07
-0.000181087
1.62951e-07
-0.190927
0.104107
-0.037231
1.51905e-07
1.06937e-05
-0.236943
2.33445e-05
0.00017355
4.35958e-07
1.37708e-06
5.56348e-05
-0.00716033
-4.74532e-06
0.505152
-0.0141461
-5.37386e-07
0.12162
-0.00025501
-4.8993e-07
-2.14265e-08
0.0110017
0.0168605
1.20731e-07
-0.000456361
-0.167257
-1.08336e-06
0.0316115
-0.000735493
-0.173347
-0.175881
-7.67257e-08
2.10701e-06
4.38e-07
4.21683e-07
-0.0544301
-0.000111787
1.66958e-07
0.0868263
-1.54451e-06
5.30341e-05
-4.41024e-06
-0.00238394
-0.000837998
0.000244575
3.51093e-07
5.26751e-05
0.000505704
3.23705e-05
-4.75482e-06
-2.00389e-07
6.35254e-05
-0.0566705
-1.24567e-06
-0.00339629
0.150063
-0.0175265
0.0052382
1.31597e-07
2.13094e-05
0.0784474
0.132906
1.1238e-07
1.89064e-07
0.045352
0.21499
-0.0287285
5.15985e-06
-0.00446961
-0.0146915
2.24763e-06
0.510972
0.000334799
-8.71966e-08
5.44018e-05
6.46765e-07
-0.0470144
-3.64345e-08
-0.00546342
-0.00415065
0.0167534
0.00255002
0.57217
-0.159846
0.252301
0.329489
2.57865e-06
-0.361531
-0.00826281
-5.6812e-06
4.72512e-05
-0.000190608
-0.000346257
-0.00244166
6.89106e-08
-7.19271e-05
-1.24103e-06
0.154457
-1.06135e-05
-9.27268e-08
-8.5203e-08
-2.20345e-05
-9.53382e-07
-0.0288862
-0.000694438
2.49174e-07
-7.2377e-05
7.06256e-06
6.92597e-05
2.60009e-07
-0.000342439
-9.79451e-06
0.1382
0.0200723
-1.69828e-05
-0.510763
-0.00423569
0.0110777
0.00333392
-1.54914e-05
0.0245861
2.17423e-06
0.0372426
-0.00738208
2.58495e-08
1.82922e-05
-8.56756e-07
6.12932e-08
7.79413e-06
1.01571e-05
-8.24238e-08
0.237774
9.56873e-07
-0.111467
7.62304e-06
0.0530384
-1.43484e-07
9.58465e-08
-0.00215852
-1.38401e-06
-7.01989e-07
7.03015e-07
-0.000742424
0.000328025
2.2254e-07
0.000516585
1.22074e-07
9.92833e-05
1.31144e-07
-0.742556
4.99338e-08
-1.15709e-07
-0.314094
2.25725e-07
-0.000257869
0.000115394
4.06248e-07
0.624462
-3.16835e-08
0.399538
-0.0630793
-0.0727747
3.11697e-05
-8.44248e-07
-0.000210719
0.000192413
-3.20109e-08
1.3055e-05
3.5985e-05
6.00625e-05
3.59659e-05
2.77122e-07
-0.0210159
0.189535
9.46782e-08
0.00482208
-0.329903
-1.47028e-07
2.84233e-07
2.56004e-07
0.00021299
0.235596
0.00126396
-1.39293e-06
-9.6189e-07
0.0438362
-0.000155123
-0.0108588
0.198724
-9.83744e-07
-3.5291e-07
-4.50961e-07
-0.0136105
0.209212
-7.54892e-07
1.49646e-05
0.27745
-0.395619
6.11793e-06
4.19865e-05
3.37071e-07
7.79275e-08
0.00227286
0.0734129
9.12596e-07
0.0187994
-3.34415e-07
-0.0596658
0.247899
-0.000131659
0.00125127
0.286581
2.02235e-08
-0.0118986
-2.43544e-06
-0.0280172
0.071377
-1.68846e-07
0.597367
0.00120742
-0.0162709
-0.230323
5.11577e-05
0.00817633
-0.0446441
2.35082e-06
-7.5129e-07
-0.000388847
-0.0175349
-0.0680758
-0.000201037
4.32733e-06
0.0452907
-1.0087e-06
0.0875968
0.0829623
0.000201334
-2.39451e-05
-7.41753e-06
5.33656e-07
0.0389818
1.25913e-06
-0.00917122
-0.127982
7.16644e-05
4.76341e-07
-0.0624487
-2.07292e-06
-8.52666e-06
-0.174116
-0.0572775
1.62865e-07
2.2302e-06
8.5983e-05
-0.000142936
-0.000108618
-7.37032e-08
3.08687e-05
-0.00133685
6.5486e-07
-1.1592e-07
0.000365966
-0.00266486
1.28161e-06
1.14932e-07
-0.000150586
1.87172e-07
4.10637e-05
0.21606
0.371557
-0.0256216
-0.122033
1.0903e-07
2.19861e-06
4.70665e-05
0.00042318
1.53688e-07
-0.000184981
0.00894694
0.021193
0.00580155
0.0365849
4.21649e-05
1.79598e-05
0.0186976
-3.63621e-07
-0.115387
-0.000499774
4.25624e-07
-0.188672
-3.12544e-06
6.89201e-05
-0.00314946
-0.000393581
6.99847e-06
-0.112513
7.20561e-07
1.53125e-06
2.3613e-08
1.02342e-05
7.4362e-07
6.02772e-06
1.43633e-08
-0.0314033
7.69353e-05
-3.73874e-07
1.84027e-05
1.19621e-05
0.368349
-0.00306032
-0.0310644
1.87509e-07
-4.46738e-08
0.455788
6.03693e-05
-0.093473
1.76219e-06
5.19754e-06
1.05387e-06
-2.83662e-05
-0.423451
3.23715e-07
-3.21759e-07
8.89266e-07
0.000247197
-6.30273e-07
3.1204e-05
1.07587e-07
-2.35674e-07
3.62097e-07
0.000293862
0.000108319
-0.000200855
1.47565e-07
-0.0433213
-0.000740788
0.0374705
0.246861
6.18431e-06
-0.00210362
-0.000546505
-0.00100792
-0.00209509
-5.29837e-07
0.374017
-2.22313e-07
-0.00106109
-0.100951
-2.17406e-07
2.94758e-07
-0.00524126
-3.08934e-08
0.0513815
-0.00496068
1.36636e-06
0.000136591
-7.08774e-06
2.50632e-07
-0.437885
3.27214e-08
1.04856e-07
1.9046e-08
4.37211e-07
9.06346e-06
3.8713e-07
0.10045
8.82606e-08
-0.00672611
-0.0709617
1.27862e-06
-1.80503e-07
1.29903e-06
-2.54929e-07
-1.0357e-05
0.035329
-6.02543e-06
-0.000118883
5.23455e-05
0.532438
0.00369489
2.34763e-07
-0.00199451
5.95998e-05
1.73688e-07
5.02412e-08
-0.140058
-5.12344e-08
3.76425e-07
-0.0327775
0.156244
-0.156993
2.07884e-07
0.449195
-0.177421
3.07083e-07
4.67104e-05
1.08479e-06
-1.52408e-07
4.49892e-07
8.23272e-08
0.317721
-2.48196e-07
-2.67959e-07
0.0156213
9.61843e-07
0.570576
2.30121e-07
2.5624e-06
-0.0161247
8.03903e-08
0.0415282
1.88215e-07
9.9377e-07
0.147808
2.46433e-08
-9.04225e-08
8.49578e-08
-0.159651
-0.0275215
6.77819e-07
4.16799e-08
4.50536e-07
1.53979e-05
-0.118863
-0.000412955
-3.77801e-07
-0.0916772
0.0452051
4.48598e-07
0.0443342
1.3714e-07
-0.0285171
0.0952646
4.37858e-07
1.19105e-05
-0.0216057
-8.64447e-05
-0.0309853
-5.5432e-05
0.000115662
-0.0904184
6.00455e-06
0.0813825
8.34984e-07
-0.0115859
-6.49584e-07
0.010105
2.42209e-07
5.21984e-06
1.9106e-06
-9.84846e-07
0.02195
-0.217919
0.0751347
0.000614963
1.19438e-07
-0.0110649
1.02081e-07
-3.57725e-07
6.94361e-05
4.15945e-07
0.0065212
-0.039645
2.58619e-07
6.1963e-06
-0.000183198
-0.0003172
-7.13595e-08
0.000117944
8.40956e-06
0.359283
0.184709
1.74164e-07
2.76061e-06
-3.28763e-07
2.38976e-07
-0.159575
0.000174525
0.0291115
1.31487e-06
0.228351
0.0138411
-7.41658e-08
4.16088e-07
-0.081012
0.00142863
-0.0258413
0.00167858
-0.0378296
0.000660131
-0.000128714
-0.000365717
-0.0480438
-0.024048
-0.000659087
-0.00523681
1.25657e-07
6.75491e-06
0.000125539
0.122009
9.57808e-07
-0.000412673
0.14796
-5.80886e-07
-5.56644e-07
4.51477e-07
2.04836e-05
8.73087e-08
0.0625497
0.199037
-0.0535601
8.75267e-08
0.00380322
-2.04922e-06
-0.00584917
-0.000590994
0.000168358
-0.0734361
9.46848e-08
-1.66285e-07
0.000334537
1.00972e-07
0.0431242
9.74945e-05
1.08732e-07
-4.02349e-07
-0.0369225
1.62976e-06
4.91758e-06
1.45554e-06
1.3441e-05
1.89568e-05
5.571e-05
-1.46428e-05
2.28476e-07
1.22759e-06
-0.0973803
-3.88468e-07
0.0186289
2.13323e-09
5.86933e-07
2.07751e-07
-1.68306
0.129666
-0.00233945
2.29681e-05
-1.33716e-05
8.70214e-09
-0.369479
0.0481829
-3.63381e-05
0.0122445
5.80813e-08
-1.94621e-07
0.00109442
-0.0539303
0.0285417
-0.0958609
-0.000127564
9.80103e-05
-3.5202e-07
8.04744e-05
0.0111654
-0.0513006
2.8282e-05
1.42789e-07
-0.00319575
0.0178029
1.36661e-06
-1.85952e-06
2.07522
5.04429e-06
-0.0315598
0.103858
-0.000569733
-6.54621e-07
-8.12996e-07
-8.40404e-07
0.00848183
1.81915e-06
1.3149e-07
6.84292e-06
-0.0558966
0.112263
-0.330582
0.0193093
5.17867e-07
-1.86067e-07
4.08253e-07
0.00224816
1.34303e-06
3.59154e-07
1.91504e-07
2.15548e-08
0.307004
1.67068e-07
1.46078e-07
7.56437e-08
4.73695e-05
3.97004e-07
-0.0935819
-1.6622e-07
-1.64485e-07
-0.0548353
1.42257e-07
-0.000203801
-0.0304841
0.000130028
6.06545e-07
0.208136
0.206938
-5.27744e-08
0.329138
4.37564e-07
-0.00222624
-0.00160265
-0.0010057
-0.000277414
0.000137624
-0.000169502
2.22606e-07
-1.00712e-06
-4.24024e-07
5.12627e-08
-0.000170618
-0.0825507
2.89994e-05
-0.0280995
-3.65589e-07
-0.0133319
0.301333
1.61145e-06
0.00508638
9.52758e-08
0.000280164
-2.89313e-07
-0.0036411
-4.00384e-07
-0.0468029
5.33626e-07
-1.21167e-07
-2.43953e-06
0.84823
0.00600934
5.35585e-07
0.0806017
-0.285617
4.91556e-07
0.00218763
9.22658e-06
0.00118398
0.1184
1.62446e-06
-0.0765403
-1.1797e-07
1.68144e-06
-0.0141259
0.000315157
4.07243e-09
-1.74892e-06
-2.42622e-07
1.32412e-07
1.23716e-06
0.0356242
0.217601
0.010128
-1.60333e-07
-5.89933e-07
-7.66456e-05
0.00863571
-0.114264
-0.0406534
-0.124104
-1.97993e-06
4.21764e-07
-4.35016e-08
1.2647e-05
1.66442e-07
6.19264e-07
-0.0830299
0.0681342
0.129714
9.64828e-07
-1.38313e-07
-0.14422
-2.61244e-08
2.2023e-07
2.07478e-07
3.5827e-06
0.000762028
0.420562
3.49835e-08
1.49114e-07
2.96707e-05
6.86462e-07
-0.0632933
1.09363e-05
-0.00331106
-5.86822e-07
5.62763e-05
-4.1496e-06
4.2912e-07
-0.000349924
-2.19524e-05
0.186011
-9.65686e-08
0.04469
2.04528e-06
-2.19844
-5.57053e-07
-1.90414
-1.5378e-07
-0.000285245
1.87164e-06
-6.88248e-07
1.00455e-06
8.07248e-05
0.0144696
1.43925e-06
1.28232e-07
-2.3531e-07
0.00567883
-9.03546e-05
-0.0151084
3.21576e-06
7.08738e-07
0.00037102
-0.876976
0.000555525
-0.0209842
-1.11367e-06
0.000106913
1.1326
-0.234346
-3.39407e-07
-0.00316406
4.10901e-06
-2.20412e-07
-0.133754
-2.31934e-07
0.165899
4.34756e-07
-0.0210734
6.93266e-07
-0.0310784
-0.0387165
-2.04906e-07
4.11665e-06
-2.71614e-07
7.69181e-05
0.071794
0.0214402
-0.000649273
-0.63829
3.17145e-07
-0.000163492
1.73477e-07
-0.0114304
-3.64944e-07
0.142699
-1.1465e-07
-0.00422384
1.37896e-06
2.6618e-07
3.29085e-07
-0.0107096
0.241395
-0.213824
-0.00131206
-0.000663762
0.038343
-0.00021089
0.131198
5.27221e-05
1.06475e-07
2.89406e-05
-4.27588e-07
-1.34e-06
-0.000726945
-0.170098
0.0328875
7.16632e-05
-5.60231e-07
0.0373321
3.36383e-07
-0.000112717
0.00420445
-0.0409538
-1.53374e-06
-6.07722e-07
3.94325e-08
-2.70889e-07
1.0274e-06
-0.0053173
-0.00118875
1.02206e-07
4.19209e-06
-2.27533e-05
6.04675e-06
-0.508758
-0.068
-0.118034
5.42012e-07
0.0465557
-0.0219505
0.000197896
0.554443
-5.87491e-08
6.57276e-07
-0.0779514
0.00470038
0.25887
4.41877e-07
-8.84844e-07
-4.62764e-07
-0.162237
0.0128636
-2.09642e-07
-8.60748e-06
1.19774e-08
-8.1748e-07
0.194243
0.00247834
8.52194e-08
9.1715e-07
5.70784e-05
2.7408e-07
-2.28791e-07
2.49887e-05
2.29144e-07
2.37365e-06
-1.57307e-07
-0.129128
-3.69727e-07
-0.000207767
-4.22348e-08
0.0119245
9.26529e-07
-9.77018e-05
4.71386e-07
4.79913e-07
-2.37718e-07
4.62988e-07
-0.0996387
2.34458e-06
-0.00039872
1.31083e-05
-0.022887
2.91249e-07
-0.00100647
-5.39683e-07
0.183129
4.94356e-05
-0.0126153
0.0311287
0.934374
0.0136298
0.19667
-4.52285e-07
0.158365
3.53262e-07
5.11352e-05
0.216563
-0.000245028
5.57968e-05
-0.0231694
-7.33715e-05
-1.12217e-06
1.193e-05
0.147135
9.5992e-07
3.06694e-07
2.1265e-07
5.67559e-07
-1.75686e-07
2.0664e-07
-0.146758
3.55519e-07
-2.81283e-07
9.38472e-08
0.104435
3.91005e-06
1.8076e-05
0.0180558
0.013674
-0.0188923
0.000510923
-0.0161259
-7.20371e-06
-0.642518
-1.37535e-06
9.32837e-05
8.834e-06
9.43521e-07
-2.21358e-07
0.0924146
-0.00160753
0.000171952
1.75599e-05
3.5178e-07
-2.09144e-07
0.231342
7.67039e-06
-0.042442
8.00932e-07
5.944e-07
3.99698e-05
2.28477e-06
7.3129e-08
7.66831e-06
0.000172314
1.79335e-07
1.86294e-07
-5.03382e-05
4.63301e-07
-1.93607e-06
3.94024e-06
-0.0118934
0.0333418
-5.64949e-07
0.0018795
0.072235
0.000160432
3.40848e-05
0.0399378
8.71737e-05
5.08243e-07
5.05361e-05
-0.000396005
-1.58014e-07
2.15726e-07
-5.82757e-07
0.0474642
2.06202e-07
-1.80036e-07
-4.13193e-06
6.48387e-06
3.16635e-05
-1.92643e-05
2.43243e-07
-0.0147277
-0.0463978
0.0330369
2.39695e-07
3.78873e-07
0.0399631
-0.142002
0.000125298
0.250626
-0.00450254
9.57931e-06
1.21971e-06
3.26283e-07
-0.699594
-0.074734
-3.07366e-07
4.1996e-05
-0.11713
0.112741
-0.104838
0.00228669
-3.17514e-07
0.00597386
-4.10699e-08
0.000165375
-7.22749e-07
-0.00811344
-0.000508305
-3.83754e-06
2.59958e-05
2.39491e-07
0.000553588
1.26315e-07
2.38576e-07
0.00229899
-0.0031894
-0.0696972
0.260187
-0.0544686
1.93397e-06
0.406706
-0.0190827
0.0725836
0.000811235
0.152184
0.00630143
0.0161861
-3.34737e-09
0.00500857
0.00150444
-1.9641e-06
-2.274
-8.05827e-07
0.0339065
2.05593e-06
5.28259e-05
-0.000217062
0.0132341
2.36395e-06
0.000666778
1.82194e-05