/*--------------------------------*- C++ -*----------------------------------*\
| =========                 |                                                 |
| \\      /  F ield         | OpenFOAM: The Open Source CFD Toolbox           |
|  \\    /   O peration     | Version:  v2012                                 |
|   \\  /    A nd           | Website:  www.openfoam.com                      |
|    \\/     M anipulation  |                                                 |
\*---------------------------------------------------------------------------*/
FoamFile
{
    version     2.0;
    format      ascii;
    class       surfaceScalarField;
    location    "400";
    object      ddtCorrDdt0(phi);
}
// * * * * * * * * * * * * * * * * * * * * * * * * * * * * * * * * * * * * * //

dimensions      [0 3 -2 0 0 0 0];
oriented        oriented;


internalField   nonuniform List<scalar> 
55332
(
5.44851e-05
8.36397e-05
-0.000138126
6.29545e-06
-1.42517e-06
-4.87014e-06
-7.58751e-06
-5.0737e-08
7.63749e-06
7.87288e-06
-1.05123e-05
2.63972e-06
-0.0150233
0.014371
0.000652125
-1.66996e-05
3.09637e-06
1.36029e-05
-4.40104e-05
-3.8161e-05
8.21677e-05
-0.00215516
-0.000644274
0.00279942
-2.25858e-06
2.21118e-06
4.72576e-08
-0.000202482
0.00017181
0.000196989
-5.53412e-05
-0.00014165
0.00138735
0.00498244
-0.00636981
-0.000182452
3.99646e-05
0.000142479
-3.25537e-05
2.28619e-05
9.69151e-06
-0.000153917
0.00011151
4.23787e-05
-0.00537652
-0.0106007
0.0159772
3.91488e-07
-7.98042e-06
0.00270862
-0.00720321
0.00449455
5.11715e-06
-5.81244e-06
6.96697e-07
7.399e-06
1.7126e-05
-2.45256e-05
-6.208e-05
1.10312e-05
5.10453e-05
-0.0073406
0.0186798
-0.0113391
9.06868e-07
-1.08417e-05
9.93263e-06
0.000239509
0.00734186
-0.00758087
-0.0116904
-0.00333298
2.38698e-06
-2.79524e-06
4.08209e-07
0.000243319
-0.000110087
-0.000133239
-4.52646e-05
1.43934e-05
-0.000182041
0.000224841
-4.28297e-05
1.21819e-05
-1.18429e-05
-3.42366e-07
0.00482564
0.00855199
-0.0133774
-7.36378e-06
-5.3965e-05
6.13264e-05
0.000403873
-0.000148621
-0.000255251
0.0008925
-0.0019497
0.00105721
-0.000333513
0.000476692
-0.000143181
-0.0148901
-0.00450993
0.0194001
0.000111336
0.000131981
0.0209883
-0.00599372
-0.0149947
5.26427e-06
-1.46638e-07
2.55322e-05
-4.46377e-05
1.91071e-05
-0.0168289
-0.0143398
0.0311687
-2.51566e-05
1.31396e-05
1.20167e-05
0.0108699
-0.0162465
4.75762e-05
-5.49421e-05
0.000220932
-7.22186e-05
-0.000148741
0.0200623
-0.00868867
-0.0113735
0.00012713
9.38097e-05
-0.00669007
0.00807743
7.05071e-06
-7.50394e-06
4.52226e-07
-0.000107432
9.76262e-05
9.80682e-06
-0.000424487
-0.00013514
0.000559625
-1.24673e-06
9.6608e-06
-8.41418e-06
6.74277e-06
-1.7326e-05
1.05819e-05
5.37099e-05
-6.03918e-05
6.68227e-06
-5.65053e-05
4.51106e-05
1.13961e-05
-0.00214437
-0.000547863
0.00269222
6.79314e-06
-8.03999e-06
4.38227e-05
-8.83273e-05
4.44999e-05
-0.00883404
0.00242711
0.00640693
0.0115245
-0.00669881
0.000608269
-0.00276344
-0.000121716
-2.05578e-05
0.000142257
-1.44389e-05
-4.7643e-05
-5.58649e-07
2.94507e-06
-0.000223856
-0.000631473
0.000855305
-0.00565615
-0.00585567
0.0115118
-0.00496632
0.000468255
0.00449806
-0.000243224
0.00190837
-0.00166512
-0.000483411
0.0023777
-0.00189428
0.00023086
-9.06006e-05
-0.000140264
4.86619e-06
3.98101e-07
0.00293723
-0.00546041
0.00252322
2.24881e-05
0.000419196
-0.000441687
9.03755e-06
-8.13164e-06
0.000274508
-6.56434e-05
-0.00020887
-0.00393094
-6.88983e-05
0.00399983
0.00399036
-0.0114429
0.0074527
6.28604e-05
-0.000257522
0.000194664
0.000398201
-0.00023702
-0.000161181
-0.000413965
0.000277769
0.000136206
-8.74268e-05
-7.7718e-05
0.000165079
5.57137e-06
5.12094e-06
-1.06928e-05
-0.000126398
0.000270837
-0.000144443
0.000808406
-4.24922e-05
-0.000765909
3.07939e-05
2.11009e-05
-5.1874e-05
0.000600914
-0.00028508
-0.000315837
1.35075e-05
-0.000211148
0.000197648
0.0159884
0.00407393
2.55001e-05
-6.95121e-05
-0.051577
0.0614979
-0.00992075
-5.23218e-06
1.09438e-06
4.13854e-06
0.000216028
3.87864e-05
-0.000254811
7.03599e-05
1.46946e-06
-3.51551e-07
-1.11791e-06
0.000614266
0.000210716
-0.00082498
-0.00794001
-0.000406801
0.00834666
-2.02349e-05
2.76329e-05
-0.0131948
0.00753862
0.0156703
-0.0181793
3.3054e-05
0.000241452
-0.00599946
0.00886111
-0.00286163
-0.00264205
0.000497663
1.93121e-05
-2.66224e-06
-1.66491e-05
7.10595e-06
-6.88032e-06
-2.25517e-07
-0.00021641
3.43573e-05
-1.54037e-06
-2.64942e-07
1.80505e-06
3.88597e-05
-1.93619e-06
-3.69251e-05
-7.11676e-05
0.000178497
-0.000107321
0.00390294
-0.00358542
-5.19625e-06
2.14419e-05
-1.62474e-05
-0.0484426
0.014355
0.0340878
0.000195076
-0.000108817
-8.62625e-05
-6.76947e-06
1.23405e-05
5.83815e-05
0.000136693
0.00388269
-0.000945444
1.10213e-05
-3.14852e-06
-0.000176952
8.95294e-05
0.000206516
-0.000193009
5.08465e-05
-8.87736e-05
3.79288e-05
-2.87393e-05
-1.0507e-05
3.92457e-05
0.00525851
-0.00111583
-0.00414267
0.00031264
-0.00024978
-1.47501e-05
1.45931e-05
1.52834e-07
-0.000571841
0.000147349
0.0029622
-0.0032525
0.000290242
-9.12518e-05
5.02717e-05
4.09801e-05
1.02919e-05
-0.000226744
0.000216454
-1.40454e-05
-7.0642e-07
0.000232132
-1.60993e-05
-0.00954203
0.00354261
-0.00016887
0.000112107
5.67668e-05
6.61633e-06
-1.14642e-05
4.84732e-06
1.48419e-06
-1.47014e-08
0.0199762
-0.00175272
-0.0182242
-2.68477e-06
1.69802e-06
9.86662e-07
-0.0152952
0.023442
-0.00814683
-0.000341639
0.000217704
0.000123935
0.0115312
-0.00218879
-0.0093424
-0.00556687
0.00288311
0.00268372
0.0182269
-0.0038561
-0.00162402
-1.35957e-05
0.00163758
0.00521626
4.21942e-05
-0.00404192
0.000291559
0.00375036
-0.000448667
-0.00749138
2.32905e-05
-1.97836e-06
-2.1316e-05
-5.5752e-06
0.000207819
-0.000202246
6.21888e-06
-3.49586e-05
-2.33568e-05
4.54411e-05
-2.20841e-05
0.000111692
-0.000117267
0.00016333
6.75274e-05
3.5993e-05
2.86367e-06
7.62622e-06
-1.61107e-07
-7.46542e-06
5.29041e-06
-6.20984e-06
9.19476e-07
-2.05102e-05
-5.08159e-05
7.13237e-05
4.20045e-05
-0.000163712
-7.87443e-06
1.24233e-05
-4.55053e-06
0.0019074
-0.0023908
-1.74615e-06
-5.39903e-07
2.2869e-06
-0.00203929
0.00175031
0.000288983
-1.25267e-05
0.000412031
-0.000399511
-3.30807e-06
-8.62085e-05
8.95143e-05
3.40053e-05
-6.20497e-05
2.80452e-05
9.08458e-05
0.000231428
-0.000322267
0.000249581
0.000491645
0.00208459
-0.00257621
2.35236e-05
-3.40314e-05
0.000203436
-0.000244872
4.14355e-05
0.000169718
-0.000199326
2.96089e-05
8.89095e-05
-3.80623e-05
2.3027e-05
0.000483299
-0.000506336
0.00264899
0.000313165
-1.4316e-06
-8.27312e-07
0.00138939
-0.0054313
1.11813e-06
-8.62758e-06
7.50833e-06
-0.000213241
0.000193331
-0.000788258
0.000184516
0.000603762
7.14351e-05
-0.000348506
0.000277076
0.000387616
-0.000357354
-3.02627e-05
-2.4553e-05
1.20307e-05
1.25207e-05
-0.000188088
0.000179033
4.00481e-05
-6.05585e-05
-0.00212644
0.00157586
0.000550582
-0.0558222
0.00424522
0.00293053
0.000272544
-0.00320308
-3.92658e-05
-5.19885e-05
0.000181502
-0.000181699
2.09588e-07
1.98041e-05
-3.8751e-05
1.89405e-05
-3.19519e-05
-0.000170538
-0.0052407
-0.00636193
0.0116027
0.000142086
-0.000109024
-3.30772e-05
-4.43237e-05
0.000156017
-0.000262086
0.000172966
8.91148e-05
-0.000723781
-0.00140266
-2.27953e-05
1.04455e-05
1.23458e-05
6.77566e-05
-0.000112081
-0.000241142
0.000114744
0.00011728
0.000102497
-0.000219773
0.00912243
-0.00440436
-0.00471797
-0.000887718
-0.000645195
0.0015329
-9.60531e-06
7.27642e-06
2.33046e-06
-1.73684e-06
1.96584e-07
-2.07277e-05
-1.02378e-05
3.09447e-05
4.22915e-05
-3.27539e-05
-9.54198e-06
1.52875e-05
-1.16577e-05
-3.62802e-06
-0.00152605
0.0137739
-0.0122479
-0.0191574
0.000950738
0.0182066
8.20703e-06
1.26774e-06
-9.47482e-06
1.2776e-06
-3.11777e-06
1.84031e-06
0.000200345
5.57695e-05
-0.000256118
5.82355e-05
8.38437e-05
3.04883e-05
1.18008e-05
7.88638e-06
-9.30107e-06
1.41422e-06
0.0107789
-0.0023575
-0.00842143
-9.11878e-06
-4.35059e-06
1.34684e-05
0.000208806
-0.000436223
0.000227425
-3.1845e-05
3.8412e-05
-6.56754e-06
8.95298e-07
8.62399e-06
-9.51918e-06
-1.29507e-05
-0.000338449
-0.00101172
0.00135018
9.10253e-06
-3.08822e-05
5.84213e-06
-9.17533e-06
3.33301e-06
-0.0110964
0.00019699
0.00286938
0.00768915
-0.00721226
-0.000476938
-0.000550337
0.00017171
0.000378643
2.88194e-05
0.00023459
-0.000263416
-3.81147e-06
-8.15292e-06
1.19625e-05
4.05197e-05
-0.000110907
7.03934e-05
0.000232513
-0.000187926
-0.00023419
-0.00010745
5.43084e-06
-1.40421e-07
-1.47083e-06
-1.21396e-06
9.154e-06
2.38294e-05
0.000452862
0.000937793
-0.00182553
-2.54981e-06
8.1147e-06
-5.56492e-06
8.4988e-06
-4.01428e-06
-4.48373e-06
-1.96681e-05
-5.8095e-05
7.77612e-05
-6.76688e-05
0.000135427
0.000248366
-4.49309e-05
1.54114e-06
5.21694e-05
4.90502e-06
-2.98485e-06
-1.92008e-06
-4.08699e-05
7.16603e-05
0.00014239
3.91234e-05
-3.86805e-07
9.01122e-06
0.000266409
0.0003345
-0.000549923
0.000211476
4.35843e-06
-1.03228e-05
5.96416e-06
3.73282e-05
-3.01015e-05
-7.22558e-06
0.00190167
-0.00102769
-0.000873978
4.08789e-06
6.85167e-05
-7.26069e-05
3.52761e-05
-1.17544e-05
4.50315e-05
-0.0001127
-3.69866e-05
1.36293e-05
1.78423e-05
3.06382e-06
-2.09067e-05
1.68341e-05
-1.11461e-05
-5.68564e-06
-0.000480905
0.00109517
9.86989e-06
-6.06986e-06
-3.79981e-06
0.0147214
-0.00394256
-7.11593e-05
-8.27831e-05
-0.000932005
-0.00158232
0.00251432
8.90683e-06
1.76152e-07
-9.08296e-06
0.01204
-0.0124888
-4.69754e-05
4.90238e-05
-2.0459e-06
9.39516e-06
-8.35395e-06
-1.04409e-06
-0.00185831
-0.00346005
0.00531834
-0.000105514
3.23455e-06
0.000102277
0.00284554
-0.00271483
-0.000130681
0.0012334
0.000472255
-0.00170565
0.0282823
-0.0130054
0.000191598
4.43781e-08
-0.00019162
-0.000947701
0.0018402
0.000199901
-8.29153e-06
0.000754111
-0.000543393
4.2698e-05
-6.70887e-06
-1.33245e-05
-1.81462e-06
4.13102e-06
-2.31704e-06
-0.000107783
2.26953e-06
0.000208214
-0.000316191
0.000107975
0.000121414
-6.69286e-05
-7.32211e-06
4.77229e-06
-9.02006e-05
-0.000615565
0.000705798
-3.10378e-06
8.94544e-06
-5.15225e-06
2.88394e-06
2.26853e-06
-3.92147e-06
0.00039154
0.014318
0.00390886
0.000435365
-0.000203273
-0.00023209
-3.89559e-05
7.29619e-05
3.22967e-06
-1.23487e-05
0.0017127
0.000403457
-0.00211616
-0.000188928
0.000217749
2.57146e-06
-1.25839e-06
-1.31308e-06
0.000189626
-1.99085e-05
4.85723e-06
-2.70728e-07
-4.58657e-06
-5.1637e-06
1.04825e-05
-5.31973e-06
5.92943e-06
4.00032e-07
7.22623e-06
0.00232096
-0.0247185
0.0124041
0.0123143
0.00510938
0.00693058
-0.00024345
5.4521e-05
0.000272732
-0.000121006
-0.000151729
-0.000706765
-0.00149673
0.00220351
-0.00273124
-0.00353654
0.00626779
-4.28013e-06
-5.74743e-06
1.00276e-05
-0.000189211
0.000111945
7.72669e-05
0.00409474
9.36033e-05
-0.00418841
0.000681876
-0.000905741
-0.000120278
0.000237558
0.000226265
-0.000215972
0.00040107
-0.022785
0.022384
-0.000917947
-0.00113443
0.00205238
-0.00189548
0.000977537
1.13511e-05
2.44968e-06
-1.38009e-05
-0.000601584
0.000192832
0.000408751
-0.00196578
-0.00219287
0.00415865
3.94608e-06
-0.000112544
-0.000119343
0.000231888
-8.87242e-05
-0.000135439
0.000224164
-6.98325e-06
2.1473e-06
4.83382e-06
-0.000255217
0.00010374
0.000151476
0.00916358
-0.00147448
0.00581527
-0.0249725
-1.85223e-05
0.0013479
-0.00159113
-0.000244401
-4.63974e-07
-0.000134714
2.69294e-05
0.0211363
-0.0145862
-0.00655021
0.00244915
0.000332103
-0.00278105
0.00734349
-0.011758
0.00441476
-0.000205155
1.55748e-05
-8.83405e-06
-9.60277e-05
-3.86869e-05
8.20283e-06
1.19044e-06
4.33886e-06
-7.9873e-06
3.64891e-06
6.33371e-06
1.31296e-06
-7.64735e-06
-1.74975e-06
3.02762e-06
-0.0126403
0.0235102
3.45548e-06
-1.13309e-05
-4.84066e-05
0.00297322
-0.00292492
3.68474e-06
1.18881e-05
0.00218472
-0.00223275
4.79925e-05
0.00214493
-0.0028517
-0.000203089
-3.89724e-05
0.000242062
-5.57216e-05
1.78203e-05
3.79013e-05
0.0121648
-0.0248051
0.000445933
-0.00138175
0.000935836
0.00583128
0.00569993
0.00240297
-0.0037737
0.00137073
-2.83001e-05
1.40465e-05
1.42486e-05
1.8976e-07
8.71701e-06
0.000417486
-0.000976857
0.000559373
-0.000802774
-0.00687773
0.00768053
5.46422e-06
-1.35839e-06
-4.1048e-06
-2.11556e-05
-3.45658e-05
-0.000216778
8.14482e-05
0.000135314
-0.00570922
0.00594886
-0.000105444
-0.000172802
0.000213334
-0.0103735
-0.00569284
0.016066
-6.2082e-05
8.42838e-05
6.34299e-05
-0.000147704
0.000157763
-0.00210776
0.00195
-1.32551e-05
-1.12982e-05
-0.00606057
-0.0025886
0.00864908
1.36184e-06
1.20936e-06
2.92994e-05
-0.00066077
-8.99584e-06
1.26783e-05
-0.0366828
0.0227388
0.013944
-0.000150414
-0.000111672
0.000839337
0.00246954
-0.0033084
0.000728949
7.94541e-05
-4.38096e-06
4.72895e-06
-3.47988e-07
-0.000239714
-0.00138433
0.000219537
-0.000232081
0.00559475
-0.00961483
0.00402013
-0.00552153
0.00293792
0.00258362
-6.1689e-05
-5.257e-06
6.69456e-05
-0.000202934
0.000202931
5.62325e-06
-9.87025e-06
4.24464e-06
-0.0136783
0.0203394
-0.00666106
0.00601686
0.00471134
-0.0107282
-0.000757856
-1.26983e-05
0.000770476
0.000278908
-0.000332331
5.34222e-05
-1.9522e-05
2.85407e-05
-9.01846e-06
-0.000287673
8.14891e-05
0.000206186
0.000872123
1.72897e-05
-0.000889415
-0.000693376
0.000464617
0.000228753
-0.00700621
-0.00348688
0.0104932
0.000344945
-0.000144201
-0.000200745
6.89941e-06
1.50342e-07
-0.00019444
-6.24345e-05
0.000256874
0.000397586
0.00561928
0.000261568
6.20484e-05
-0.000323669
7.89433e-05
-0.000199464
0.000120515
0.000184804
-4.28957e-05
-0.000141867
2.40596e-06
-4.40416e-06
1.99943e-06
-3.32024e-05
-0.000188411
0.000221609
-0.00244887
0.00260663
-9.11653e-05
8.11253e-05
-0.000225559
-1.88397e-05
-0.000246645
-0.000189572
-0.00026839
-1.92835e-05
0.000176175
-0.000242495
6.63209e-05
-1.95691e-05
0.000122791
-0.000103215
-5.42743e-05
0.000138576
-2.59689e-06
-3.0668e-06
5.6634e-06
-1.0765e-05
-1.42437e-05
-1.40601e-05
8.10138e-05
-0.000150466
6.94559e-05
-0.000252826
0.000284801
-3.19702e-05
4.72362e-06
-6.90228e-05
6.42978e-05
0.000377132
-0.000354115
-0.00137085
0.0020333
-0.000662445
0.000218966
0.000125982
-0.000788248
1.4382e-05
-3.03059e-06
-1.67401e-05
1.688e-05
-1.39572e-07
-0.0205172
-0.0161656
0.0127219
-0.028017
-0.000128085
-0.000127132
-3.31135e-06
-7.59776e-06
1.09075e-05
-9.06035e-06
6.61485e-06
2.44542e-06
-2.6252e-05
6.73025e-06
-3.82137e-06
1.78666e-06
2.03488e-06
-0.0034577
0.00468723
-0.00122927
-2.49067e-05
-3.65894e-06
-5.40155e-06
7.23075e-06
3.34455e-05
-4.06753e-05
-7.05266e-07
3.55261e-06
-2.84775e-06
-0.0015265
-0.00730752
-0.000254446
6.00109e-05
5.66441e-06
8.69095e-06
-1.43547e-05
-6.10207e-05
1.12038e-05
4.98179e-05
-6.21471e-05
0.000143161
-5.94792e-05
0.00102964
-0.00405472
0.00302511
-5.24706e-06
-1.8531e-05
4.08021e-06
1.44511e-05
0.000122145
0.000224962
-0.00034711
0.00134271
-0.00370041
0.00235768
-0.000173416
1.21531e-05
-0.000264015
0.000251876
0.00329671
-0.000847502
3.77533e-06
-2.45436e-05
0.000327535
-0.000305048
1.12409e-05
3.34265e-05
-4.4665e-05
5.25085e-06
0.00203312
0.0139553
3.39451e-05
3.30632e-05
-6.70034e-05
-2.5905e-05
-1.08949e-05
3.67966e-05
3.80337e-05
-0.000241123
0.00162843
0.00723266
6.90855e-06
1.09335e-05
4.75843e-07
-2.22174e-06
-7.0883e-05
-3.99067e-07
7.12826e-05
-0.000502831
0.000744187
-0.000241355
2.08369e-06
2.85514e-06
-4.93862e-06
-6.33035e-05
1.86289e-05
4.46651e-05
0.00104055
-0.00113073
1.58024e-06
-2.28836e-05
2.1302e-05
-3.38834e-05
-2.94263e-05
-5.30626e-05
0.0144157
0.0470823
-8.34077e-05
7.90583e-05
4.3537e-06
9.98276e-07
5.17525e-06
-6.17375e-06
0.0146333
-0.0171426
0.00250886
-3.42288e-06
-1.5107e-05
-1.25005e-05
1.18012e-05
-0.0190823
0.0117778
0.00730454
-2.39322e-05
6.77517e-05
-5.50104e-05
-0.000127447
0.0176044
0.00353185
-1.22752e-05
1.79402e-05
0.00025947
-5.1258e-05
-0.000823073
-0.00361321
0.00443631
0.00419852
-0.00295567
-0.00124298
7.41992e-07
1.857e-05
-7.35829e-05
7.31839e-05
-0.00773695
0.00693418
-0.000858157
-0.00265621
0.00351436
2.91013e-06
6.50706e-05
-6.79813e-05
-0.000459754
4.24932e-05
0.00041725
-4.41325e-07
-3.14038e-05
0.000452777
0.00165526
-0.00210803
-6.57739e-06
7.57552e-06
-0.000351957
-0.000198376
0.00247631
0.00114839
-0.00362471
0.00317993
-0.000334395
6.73241e-06
-4.11478e-06
-2.6193e-06
6.52345e-05
-3.12894e-05
-0.000267242
0.000708697
-0.000441451
0.000444706
-0.0012689
0.000824185
-0.00337671
-0.00214481
-1.91851e-05
5.1917e-06
1.39915e-05
-0.00282464
-0.00274225
-0.0224123
0.0345771
-0.0138788
-0.00101123
-0.00380876
0.00184299
-0.010281
0.00435646
0.00592453
-0.000111751
-0.00011856
0.000230313
-6.24788e-05
5.97397e-06
-0.000199789
8.80354e-05
8.81756e-06
-9.0844e-06
2.65649e-07
-3.4526e-05
3.14865e-05
3.03684e-06
8.33898e-06
2.21473e-05
-0.00444529
0.0190781
-8.78361e-06
9.89901e-06
-1.68392e-06
-6.43848e-06
8.12177e-06
-0.00364589
0.0030016
-0.000262532
-0.00318198
0.00235891
-0.000312428
0.000324604
1.85495e-05
-1.69704e-05
-2.90587e-06
-9.28396e-06
1.21857e-05
-0.00394726
1.06145e-05
1.11584e-05
-2.17797e-05
0.000935029
0.00326343
-6.71172e-05
-1.00446e-05
7.71571e-05
-0.00010935
9.93043e-05
1.00461e-05
-1.06615e-05
1.29483e-05
-2.28796e-06
0.0115939
-0.0340062
0.00065881
-0.000229476
-0.000429334
-0.00558535
0.0102815
-0.00469609
0.000394155
4.12085e-05
-1.83444e-05
4.36596e-06
1.39748e-05
4.34929e-06
2.38391e-06
-0.000175178
-0.000141022
4.28108e-06
3.30452e-05
-4.89374e-06
-1.42916e-05
-0.0340269
7.15855e-06
-1.02629e-05
0.00117938
-0.00325334
0.00207397
-0.0200805
-0.00380909
0.0238893
0.0194222
-0.0190212
0.00646256
-0.0011849
-0.00527764
0.00139375
-0.00094904
0.00986685
-0.0118179
0.00195108
0.000262919
-0.000496057
0.000233141
0.000556468
-0.000527138
-0.00348652
0.00152353
0.00196298
-0.000292424
0.000255001
3.74192e-05
-0.00690555
-0.00104357
0.00794917
-1.32574e-06
-1.53745e-05
-1.5512e-06
-6.15856e-06
7.71067e-06
1.02744e-05
3.76596e-06
-1.40408e-05
0.000187291
0.00520627
0.00854183
-0.0137481
-0.00117278
0.0176065
-0.0164342
-1.10477e-05
6.53684e-06
4.51083e-06
-4.81237e-05
-0.000154802
-1.00347e-05
7.12593e-06
4.10822e-05
-4.90856e-05
8.00465e-06
0.0038838
1.93081e-05
0.000664736
-0.000464434
-0.000200298
0.00896095
-0.00907232
0.00011134
0.0111894
-0.0123624
-0.00162519
0.00246414
-1.05411e-06
8.21207e-06
2.51031e-05
-1.67654e-05
-0.000453688
-0.000239702
0.0110382
0.00893769
0.00179382
0.000222846
-0.000143903
6.35814e-06
-6.27003e-08
0.000114854
-0.000255849
0.000141016
-0.0125061
0.0177124
-0.00397843
0.00426999
-2.70768e-06
9.32375e-06
-0.00741723
0.000511648
0.00728471
-0.00538653
-0.00189821
9.66905e-05
-0.000209233
0.00609231
-0.00536524
-0.000727257
3.1641e-06
-5.91137e-06
2.74723e-06
-0.000673947
-0.00297196
-4.06386e-05
-2.70335e-05
6.7673e-05
-0.000154604
5.85737e-05
-4.93213e-05
1.98951e-05
2.94268e-05
0.00011428
-3.06402e-05
6.14228e-06
-1.42955e-05
0.000535428
-0.000645698
0.000110273
0.00738091
-0.0121885
0.00480764
-0.000281979
0.000859921
-0.00057807
0.030213
-0.0171905
-0.0130225
4.53497e-05
-1.98162e-05
-6.81324e-05
7.80573e-06
6.03231e-05
0.0106217
-0.0175067
0.00688513
-7.58319e-07
-2.21046e-06
2.96939e-06
0.00485631
0.00242844
-5.52737e-06
8.52614e-06
-3.00126e-06
-0.00206651
-0.00289987
0.00272095
0.000368194
-0.00308912
0.00061501
0.0092517
0.00296394
-0.000762836
-0.00220113
-0.000231876
9.2527e-05
0.000139353
6.0627e-06
-1.0582e-05
4.51885e-06
6.37759e-07
1.39518e-05
-4.19244e-05
-2.71289e-06
-1.20741e-05
8.29706e-06
3.77534e-06
-0.00690228
-0.00337878
-6.23949e-05
3.5556e-05
-5.52246e-05
9.27253e-06
1.25525e-05
-2.18244e-05
0.00018217
-0.000151159
-3.10043e-05
0.0115865
-0.0547408
0.0431543
1.65004e-06
1.05313e-05
3.73216e-07
-2.44668e-06
2.07408e-06
-0.000179122
0.000248754
-6.96354e-05
-4.72475e-06
-5.59759e-06
-2.30476e-06
-1.51638e-06
-4.42819e-05
3.10717e-05
1.32125e-05
-0.000365572
0.00132298
-0.000957419
-3.92999e-06
9.99257e-06
-0.0169964
6.4848e-06
-3.32092e-06
7.98206e-05
0.000144676
-0.000224439
0.00416648
-0.00313688
-0.00126664
0.000296645
0.00097001
-1.45187e-06
-3.45271e-06
4.90536e-06
2.46627e-05
-7.64639e-05
-7.81419e-05
4.24172e-06
0.000414954
-0.00021845
0.00090032
3.80947e-05
-7.2569e-05
3.44746e-05
-0.0147181
0.0091327
0.000142292
9.21399e-05
-0.000234432
0.0003361
-0.00502919
0.00469309
-8.14299e-06
2.61526e-06
0.000209066
-8.85283e-05
-0.000120539
0.000117702
-0.000117737
0.000241774
-0.000161939
0.00861315
0.00034779
-0.000102277
0.000317493
-0.000215217
-0.000539248
0.00274521
-0.00220596
0.000433704
-0.000263224
-0.000170479
-7.39994e-05
8.68891e-05
-1.28904e-05
0.00412305
-0.00319431
-0.000928725
0.000184819
-3.90908e-06
-6.51133e-05
0.0106992
-0.0180397
2.96565e-07
-6.8415e-06
6.54468e-06
-0.000905784
-0.000611043
0.00151681
7.02394e-07
-1.47495e-05
1.63987e-05
-0.000107564
0.000104665
-0.000820866
0.000716196
-0.00401441
0.00800476
2.13861e-06
4.96741e-06
-0.000278074
0.00103218
0.000186951
0.00344686
-0.000970558
0.00404532
-0.00370919
0.00010057
-0.000185979
8.53716e-05
5.60517e-06
-1.51764e-05
9.57123e-06
-0.0201225
0.0210734
0.00776812
1.90492e-06
-3.55258e-06
1.64801e-06
-6.40081e-05
9.87517e-05
-3.47437e-05
-0.00021619
0.000127468
0.016983
-0.0338119
-0.000100894
7.34529e-05
2.74379e-05
-3.25984e-05
-0.000427152
-5.89247e-06
0.000136912
-0.00080641
0.000669505
9.97608e-05
-0.000160908
6.11452e-05
0.0238762
-0.00288789
1.93655e-05
-2.58574e-05
6.48817e-06
-8.80623e-06
6.63646e-06
2.16958e-06
2.29899e-06
-3.24092e-06
9.42105e-07
8.18315e-06
-2.56193e-06
-5.71241e-05
0.000233298
-0.000154638
0.000154641
1.57952e-05
-1.01901e-05
6.19446e-06
-7.74552e-06
0.00476696
-0.00337756
-0.00112632
-0.00704762
0.008174
-1.71184e-05
-1.54355e-05
-0.000231831
0.00032268
0.000239337
-3.89935e-05
1.15499e-05
-2.6727e-06
-8.87789e-06
-8.45381e-05
9.17898e-05
-7.25469e-06
1.61347e-05
-1.32464e-05
-2.89027e-06
1.53971e-07
4.70308e-06
1.08043e-05
1.28852e-06
-1.20959e-05
-0.0081325
0.000259589
-0.000188149
0.0114768
-0.0108621
3.31033e-06
-1.01105e-06
0.000231025
-0.000727035
0.000496011
0.000267863
-0.000127506
-0.000140355
5.04073e-05
-7.09478e-05
2.05524e-05
-4.45981e-06
1.00029e-05
5.79156e-06
0.0120832
0.0181298
-1.76711e-05
1.22288e-05
5.44362e-06
-4.61219e-06
1.48861e-05
-0.000401769
0.000407395
-5.62559e-06
3.3159e-06
2.14887e-06
4.5418e-06
5.32821e-06
-0.000761144
0.000240369
0.000520775
-7.39802e-07
-4.49205e-06
5.65729e-05
-6.66219e-05
-2.38327e-06
3.61057e-06
-1.22664e-06
0.000608886
-0.000693668
8.47805e-05
6.47227e-06
-6.85738e-05
6.21044e-05
-2.87188e-05
8.27195e-05
-5.39871e-05
-6.33819e-06
-8.83852e-06
0.000116502
0.000151363
1.20709e-06
-3.58993e-06
-0.000179024
-3.2814e-05
0.000211844
0.00226147
0.000811921
-0.00307337
-4.555e-06
5.55225e-06
-9.96286e-07
-0.00984879
-0.0004781
0.000406896
7.12139e-05
-6.28083e-06
-2.60712e-06
0.000202217
-0.000199608
-7.63961e-05
0.00182941
0.0073075
-0.00913696
0.000776984
0.000162154
-0.000939142
1.99158e-06
3.68523e-06
-5.67753e-06
2.47011e-05
-2.14473e-05
-3.2538e-06
-1.55308e-05
-9.62589e-06
-0.000509644
0.000107874
-0.00379321
0.0148437
-6.87383e-05
0.00011016
-4.14283e-05
-6.66276e-05
0.000102349
-3.57283e-05
-0.000154855
0.000416375
-4.83889e-05
5.56209e-05
-0.000106128
-0.000116093
0.000222218
-4.02541e-05
1.01518e-05
5.29251e-06
-9.57323e-06
6.82428e-05
-0.000416744
-0.000204091
0.00228107
-0.00207698
0.00919666
0.00228004
0.000165455
-0.000200953
3.54947e-05
5.20228e-05
-2.65239e-05
3.71325e-06
-6.47443e-06
2.75992e-06
-1.95202e-06
-3.95961e-06
0.00258781
-0.0041269
0.00153915
0.00347081
-0.00979804
0.00632723
-8.08182e-05
-3.72109e-06
0.000528433
-0.000658165
0.000129767
-3.11724e-05
-1.8149e-05
-0.000164708
8.95637e-05
7.51389e-05
-0.000221813
4.26896e-05
0.000114682
0.000117838
-0.0126034
0.00190155
0.0107018
0.0282068
-0.00216504
-0.0260418
0.00052526
-0.000660396
0.000512207
0.00138947
4.74334e-06
-5.81068e-06
1.06626e-06
0.00762247
0.0205843
0.000655958
-4.70719e-05
0.00328976
-0.00102828
-0.00113973
0.01681
0.00110963
-0.000612188
-0.000497411
-4.64233e-06
1.10107e-05
-6.36921e-06
-0.00084375
0.000228197
0.000515678
0.000776532
-0.00129221
-7.97841e-06
5.34299e-06
2.63436e-06
-2.18496e-07
5.50139e-06
-5.28489e-06
-0.0038262
-0.000104749
2.23574e-06
-1.86263e-06
-0.00583674
9.37657e-06
-4.1228e-06
-5.25442e-06
-0.000225398
1.25279e-06
0.000224146
0.00435845
-0.00708966
2.769e-06
1.33652e-05
-0.000537204
0.000541446
-0.000675112
-8.2102e-05
0.000757206
-0.000181446
-0.0011276
0.00130902
-2.07227e-06
-3.13531e-06
5.20875e-06
-0.000217758
7.99106e-05
0.000137851
-4.91115e-06
4.95563e-06
-4.43659e-08
5.07022e-06
1.69482e-06
-6.76493e-06
-3.43124e-05
-1.47732e-05
-3.25211e-05
0.000199492
-0.000166971
6.17621e-06
-1.07883e-05
2.40413e-06
2.50103e-06
-3.49475e-06
-9.75359e-06
-0.00329104
0.013369
-0.010078
3.4823e-06
3.00222e-06
0.000269397
-0.000147242
-0.000262917
0.00196594
-0.001703
0.000183277
0.000688846
-0.0010348
0.000853347
-0.000324172
0.000104572
0.000219599
5.79022e-06
-3.79882e-06
0.000173406
0.0002603
2.1023e-06
-2.86067e-06
-1.1892e-06
1.29054e-05
-1.17166e-05
1.54985e-06
1.27781e-06
-2.82817e-06
-0.00169725
0.00410022
-1.2383e-05
8.88709e-06
3.26248e-05
-2.17992e-06
-3.04492e-05
-1.54106e-05
-5.85906e-05
-0.0187719
0.0195769
-0.000804922
0.000265773
-0.000479437
0.000213663
-1.16537e-05
5.35901e-06
6.29466e-06
0.000121706
-0.000142105
2.04016e-05
-1.5281e-05
1.90469e-05
0.00104318
6.72762e-05
-2.91798e-05
0.00498325
-0.00256081
-0.00242252
-0.00208001
-0.00140651
5.64287e-05
0.000214411
-0.00378448
0.000327672
0.00345681
6.69826e-06
-1.27997e-05
6.10148e-06
2.22637e-05
-1.94176e-05
-2.84507e-06
-3.60567e-06
6.64635e-06
-3.04017e-06
0.000439808
0.00066986
8.15423e-06
-2.14088e-05
-8.42424e-05
-4.2628e-05
0.000126863
-0.00164989
-0.00213459
0.00144942
0.00116136
-0.00261078
0.00569316
-0.00933637
0.00364337
0.000385362
-0.000652603
0.00103536
-0.00332689
0.00229151
-6.18352e-05
5.79253e-05
-7.50475e-06
7.28481e-06
0.00135547
0.000552873
3.34072e-05
3.38685e-05
-2.19473e-05
-0.0034359
0.0140677
2.94572e-06
-1.04069e-06
-0.00264181
0.00170981
-3.41809e-06
-9.6286e-07
0.00154757
-0.00109478
1.12945e-05
-5.9419e-06
-5.35375e-06
-0.0129186
0.0113925
-0.000201488
-2.51592e-05
0.00022665
-0.00185098
0.000934995
0.000916006
-0.00143672
0.0011738
0.00139949
-0.00162349
0.000224002
6.24571e-06
-2.76358e-06
9.41711e-06
-5.87279e-06
-3.54642e-06
-7.58795e-05
0.000139316
-0.0141826
-8.07022e-05
-0.000211729
-6.51898e-05
0.000296621
-2.22155e-05
8.92746e-06
1.32841e-05
-2.87599e-05
-0.000289698
7.85453e-05
-2.00618e-05
-2.15521e-06
-3.79111e-06
-2.02047e-06
0.00023045
-0.00022452
5.90017e-05
-2.43349e-06
-5.65678e-05
0.00448423
-0.000903311
-0.00358094
2.71369e-06
2.22396e-06
-4.93714e-06
0.000720007
-0.000583091
-0.00059276
0.00177555
-0.00118278
-7.01423e-06
-4.63963e-06
-1.1863e-05
-0.00840459
0.0137659
-0.00536127
-1.3434e-06
-1.29046e-05
0.0188352
-0.0130198
0.00142193
0.0294726
-0.0308945
-0.000200827
0.000198215
0.00160756
-0.000998106
-0.000609455
-0.000917845
0.000926494
-8.65347e-06
6.08783e-05
-4.96733e-05
-1.97661e-05
-3.35884e-05
5.33543e-05
-2.99004e-05
-0.000150302
0.000180187
-0.00254788
-0.00209131
0.0046392
0.000155698
-0.000188892
-0.000296529
2.69684e-06
1.63155e-06
-4.32866e-06
-0.0100115
-0.0458106
6.30465e-06
-9.94698e-06
3.64219e-06
0.00202174
-0.000661764
-0.00135998
-2.76386e-06
-5.24674e-06
8.01138e-06
0.000250538
-0.00684286
0.0065924
0.00240567
-0.00134708
-0.00105864
0.00681318
-0.00163653
-0.0051767
0.00581045
-0.00475679
-0.00105356
-7.09047e-05
6.75947e-05
-0.0119661
-0.0156509
0.0276169
0.00183956
0.00497362
0.000185514
-0.000258471
7.29504e-05
-0.000156547
-0.00109503
0.00125158
-0.000851288
0.000370382
-0.0053793
0.0248015
2.82585e-05
-1.8986e-05
3.5161e-05
0.000199425
0.0197578
-0.0317239
-0.000653096
0.00015028
-1.27914e-05
5.60307e-06
7.18154e-06
0.0034307
-0.00179378
-0.0016369
0.00056133
-0.000763146
0.000201813
-0.0339663
0.00583558
0.0281309
5.67884e-06
5.39082e-06
-1.10697e-05
2.39547e-05
2.5609e-06
-2.6516e-05
3.96444e-06
-1.62393e-05
2.18154e-05
-5.07336e-06
-1.67439e-05
-1.84591e-06
2.58003e-05
-5.30038e-06
2.81623e-05
4.60388e-06
3.57745e-06
1.4908e-05
7.35519e-06
-1.59618e-05
1.81534e-05
-2.19133e-06
-0.00273825
0.00124153
-0.024706
-0.00926025
0.000575572
-1.42411e-05
5.00288e-06
-4.79476e-06
-2.07094e-07
0.000311417
0.00139966
-0.0017111
8.42829e-05
-4.42356e-05
-3.63101e-06
2.92541e-06
2.00655e-05
4.63574e-06
-4.27639e-06
-3.70204e-06
0.000834137
-0.000416645
0.00083291
0.00135175
-2.01197e-05
2.43994e-05
-4.28009e-06
3.05241e-05
0.00155455
0.00037345
-0.001928
4.67746e-06
4.73925e-06
-7.05123e-05
3.08776e-05
3.96348e-05
-6.87272e-05
0.00140288
-0.00133415
2.56045e-05
1.28072e-05
-6.82802e-06
-6.09057e-05
6.77181e-05
0.00208084
-0.00150655
-0.000574289
-0.00116606
0.000800481
0.000210564
-0.000240473
7.97472e-06
7.31444e-06
2.96554e-06
-7.58e-06
4.61448e-06
0.000287725
0.000271899
-0.000877304
-0.0002966
0.0001238
4.37536e-06
6.27754e-07
0.00123233
-0.00127114
3.88145e-05
-0.00197704
0.000369185
0.00160794
6.49086e-06
-3.78187e-06
-2.7098e-06
0.000169287
-0.00020887
3.95466e-05
0.000167607
-9.65295e-05
-7.10778e-05
0.0165869
-0.0187059
0.00211879
-2.28131e-05
-4.532e-05
4.6114e-06
1.8793e-06
-3.97575e-05
0.000209041
5.21602e-06
-3.49833e-07
-0.000263271
0.000210724
5.25358e-05
0.0118308
0.0116112
0.000212745
-0.00040285
0.000190107
0.00100098
0.00107985
0.000619096
0.00140264
0.000547898
-0.000191961
-0.000355918
1.15304e-05
-2.35936e-05
1.20607e-05
0.000253324
-0.000249894
2.45835e-06
-3.01708e-06
5.58906e-07
5.99244e-05
0.000107683
0.000187917
-0.000220883
3.2969e-05
-0.000184105
-5.18054e-05
0.000235906
0.000614429
0.000993136
-0.000555889
0.00219875
-0.00240284
-2.06602e-07
1.53185e-06
-1.32538e-06
-2.35591e-06
-2.20497e-05
2.44056e-05
0.000488206
0.00303907
-0.00352722
-2.16582e-05
-8.76931e-05
-1.75355e-06
1.54682e-06
-3.12316e-05
-4.13367e-05
-3.6911e-05
-4.19677e-05
7.8878e-05
-0.000140728
0.000133887
-8.74232e-05
-3.78862e-06
-5.0178e-06
-5.27621e-05
-7.7301e-05
6.42154e-05
1.30883e-05
-0.000137149
0.00434279
-0.00420545
-1.51926e-05
1.38489e-05
-0.000637293
0.000662623
-2.52991e-05
0.000243713
1.57588e-05
-0.0123633
0.0206327
-0.00826943
0.00582203
-0.0181853
-0.00109366
0.000937111
2.09036e-06
-1.22235e-06
-8.67982e-07
-1.89683e-06
4.5933e-06
0.000496756
-0.00163463
0.00113788
3.06584e-06
-4.96311e-06
1.28928e-05
-3.88003e-05
3.8723e-06
1.71039e-06
-5.58263e-06
-1.25661e-05
1.13766e-05
-0.000569892
0.000800918