/*--------------------------------*- C++ -*----------------------------------*\
| =========                 |                                                 |
| \\      /  F ield         | OpenFOAM: The Open Source CFD Toolbox           |
|  \\    /   O peration     | Version:  v2012                                 |
|   \\  /    A nd           | Website:  www.openfoam.com                      |
|    \\/     M anipulation  |                                                 |
\*---------------------------------------------------------------------------*/
FoamFile
{
    version     2.0;
    format      ascii;
    class       volScalarField;
    location    "400";
    object      k;
}
// * * * * * * * * * * * * * * * * * * * * * * * * * * * * * * * * * * * * * //

dimensions      [0 2 -2 0 0 0 0];


internalField   nonuniform List<scalar> 
37190
(
0.000155826
0.000143615
0.000141986
0.000140174
0.000366084
0.000145443
0.000162094
0.000192172
0.000133343
0.0136979
0.00554449
0.0191873
0.000213896
0.000150365
0.0173873
0.00345625
0.000141998
0.00463313
0.000136825
0.000151667
0.000158749
0.0184214
0.000142978
0.0406631
0.000350125
0.000151192
0.0443631
0.000154445
0.0147995
0.00014449
0.000684484
0.000151423
0.000155624
0.000193579
0.000157038
0.00559057
0.0449504
0.0180904
0.000136727
0.000154752
0.0188806
0.000130822
0.00367513
0.000151125
0.0321697
0.00111023
0.0330162
0.0214118
0.000131182
0.000160194
0.000143332
0.000127912
0.000146114
0.000161874
0.000148784
0.000195977
0.000127964
0.000151301
0.00275156
0.000587106
0.000191127
0.022129
0.000159028
0.00015108
0.00957456
0.0262606
0.0026573
0.0213694
0.0259033
0.0275341
0.000136666
0.000197847
0.000157932
0.000142824
0.000144337
0.000191189
0.0277104
0.0323431
0.000155198
0.0325341
0.0332239
0.000140214
0.0328589
0.00014318
0.0113089
0.000169809
0.0127424
0.00490662
0.000162882
0.0114828
0.000136961
0.0141935
0.000156078
0.000146306
0.000180154
0.00208764
0.000151912
0.0224544
0.0218097
0.000144176
0.02708
0.000194996
0.000146409
0.000129915
0.0128371
0.00014548
0.000149361
0.0147645
0.0206539
0.000147054
0.0134997
0.000147352
0.000140135
0.00014735
0.000196606
0.000140227
0.0344812
0.00946473
0.000158957
0.000152545
0.000210392
0.0296575
0.000145742
0.000143993
0.0132062
0.000159881
0.0171491
0.000145883
0.0118106
0.0268903
0.0446927
0.000148335
0.000146548
0.00140099
0.000148836
0.00708928
0.000147068
0.00447937
0.000248293
0.000375512
0.0304796
0.000211121
0.000343511
0.00192579
0.000152495
0.000139003
0.000152551
0.000154787
0.000138718
0.0266708
0.0001494
0.000141206
0.00012895
0.000166898
0.0237826
0.000142366
0.0261719
0.000146768
0.000172521
0.00806929
0.000151617
0.000157344
0.000152066
0.000155691
0.0261619
0.000152834
0.013794
0.0136268
0.000159163
0.0306784
0.013485
0.000133255
0.000464304
0.000138101
0.0138584
0.0045371
0.000202884
0.000179262
0.000147825
0.014225
0.000166938
0.000192798
0.0109171
0.0228554
0.000159885
0.0036126
0.000149019
0.0122279
0.0293731
0.000172739
0.000138351
0.000224781
0.000192116
0.000147639
0.000138141
0.0338283
0.0392746
0.0285905
0.0287045
0.00014913
0.000146055
0.000189588
0.000148654
0.000144595
0.0176321
0.00335327
0.000140096
0.000144131
0.0149107
0.000172364
0.000148616
0.000139688
0.00170963
0.00015023
0.0302107
0.000152239
0.000141434
0.00014888
0.00716158
0.000140193
0.000154664
0.000139681
0.0264874
0.00546383
0.0267753
0.00232543
0.000115985
0.0355139
0.000146893
0.0164303
0.0169862
0.000146587
0.000128874
0.000148601
0.000139681
0.000157497
0.029027
0.000128734
0.000148084
0.000180883
0.000137802
0.0122093
0.000161633
0.000129502
0.0122609
0.00406114
0.00014179
0.000170574
0.00554115
0.000155368
0.000153772
0.000158048
0.000181986
0.000152856
0.000137574
0.000154747
0.000137742
0.000145587
0.000180744
0.000128555
0.0011655
0.0171062
0.000171621
0.000127853
0.00151365
0.000156204
0.00014246
0.000631158
0.000138367
0.000183534
0.000158163
0.000146906
0.00794571
0.0115558
0.000193229
0.0140023
0.000180754
0.000149153
0.0117603
0.000129974
0.000138583
0.000185924
0.000155708
0.000128741
0.0281815
0.000139658
0.000149957
0.000178432
0.000453885
0.000158181
0.000157489
0.000150381
0.000188022
0.034445
0.000131363
0.0117514
0.000136519
0.000160356
0.017065
0.000141049
0.000189513
0.0188915
0.00132455
0.033791
0.000152397
0.000177734
0.0282468
0.000143078
0.0323471
0.024831
0.0104881
0.0398114
0.0198445
0.0218341
0.000158739
0.000160973
0.000145237
0.000146354
0.0246569
0.000149145
0.0417319
0.0422454
0.000143413
0.00016612
0.00184299
0.00354642
0.000159869
0.0220515
0.0122623
0.000138478
0.00130566
0.0137112
0.0301834
0.0330937
0.000146111
0.000138675
0.000142422
0.000150832
0.000141145
0.000144052
0.00373634
0.000142507
0.0179339
0.000145952
0.0151533
0.000191261
0.0229746
0.000135844
0.00383725
0.0213871
0.0043766
0.000190085
0.000153703
0.000127823
0.00323548
0.00041192
0.000137147
0.000135688
0.0448057
0.0407042
0.044191
0.0166744
0.00449925
0.0314795
0.0312522
0.0242442
0.000148021
0.0436467
0.00013129
0.0087832
0.000145941
0.00287249
0.000223058
0.0157663
0.000143358
0.000129553
0.0303637
0.00720729
0.0264259
0.000219569
0.000148347
0.00578053
0.000143047
0.00112083
0.00206011
0.00633351
0.000140263
0.00013497
0.000136354
0.000196372
0.000165864
0.0314631
0.000150895
0.000131045
0.028234
0.00213395
0.00392521
0.0407123
0.00609483
0.000133897
0.0154948
0.023211
0.000133687
0.0140766
0.0309364
0.000136427
0.00161459
0.00448076
0.0299241
0.000137235
0.000147825
0.000153489
0.000149355
0.0127277
0.000171901
0.030491
0.000173851
0.000150868
0.0027672
0.000145024
0.000134061
0.00293647
0.0130324
0.0001654
0.000144803
0.000128409
0.000134892
0.000151994
0.015957
0.0145822
0.000128427
0.000139335
0.00013751
0.00276316
0.0294548
0.000147015
0.000161453
0.000149025
0.000161764
0.0165492
0.000149283
0.000146557
0.0260715
0.000184953
0.0184252
0.00416028
0.0138557
0.000190541
0.000157996
0.000154645
0.0119997
0.00530083
0.000177023
0.000153772
0.0242204
0.0274642
0.000137512
0.000144598
0.000136429
0.00818286
0.000130927
0.000184691
0.0279344
0.000147968
0.000185423
0.000136165
0.0122486
0.00018087
0.000141054
0.0100134
0.000146396
0.000145492
0.000861373
0.000151109
0.000211271
0.00330133
0.000146989
0.000185362
0.000144813
0.000209879
0.0200434
0.000146222
0.000136673
0.000229187
0.00018548
0.000172498
0.0304584
0.000152508
0.0153024
0.000141042
0.000136011
0.0250846
0.000182773
0.000134923
0.000177054
0.000154271
0.000150292
0.000224445
0.000146253
0.000407468
0.00377593
0.00541829
0.0251682
0.0307163
0.00014672
0.000148774
0.000146483
0.000161341
0.000152964
0.000148607
0.0106878
0.000138353
0.000141048
0.000195419
0.0152886
0.000200114
0.00842007
0.000147713
0.000144737
0.0267443
0.000153823
0.0208405
0.000171631
0.000162688
0.000144191
0.0037941
0.000170628
0.023397
0.000158302
0.000147113
0.000134911
0.000186952
0.000153544
0.000146266
0.0127458
0.000139657
0.000217442
0.00107247
0.0219582
0.000272765
0.000153139
0.00026569
0.000168136
0.00753299
0.00025951
0.0214295
0.0190584
0.000145455
0.000138683
0.000134258
0.0208939
0.0034178
0.00251049
0.000127943
0.00595149
0.000144761
0.00015567
0.0207739
0.000159738
0.0226612
0.00245456
0.0150723
0.000139644
0.000148282
0.000165933
0.0010535
0.0207376
0.0417366
0.000144154
0.0353758
0.00358286
0.000393107
0.000154278
0.0168636
0.0132426
0.0409236
0.0143602
0.000135907
0.000194968
0.000159415
0.000138559
0.000154042
0.000155778
0.000146993
0.00504176
0.00278642
0.00233857
0.0037698
0.000155104
0.000177259
0.0186094
0.000134591
0.0130317
0.00013963
0.0027882
0.00504726
0.000245132
0.0182739
0.000155259
0.000142823
0.000145609
0.000154762
0.000148432
0.029798
0.00017194
0.000180872
0.000138305
0.0256026
0.0041434
0.000144404
0.000134737
0.019369
0.000156731
0.000151806
0.000154457
0.0118405
0.000142719
0.000435859
0.000135913
0.000122373
0.0151107
0.000168379
0.000137327
0.000153842
0.000138784
0.000159122
0.0110587
0.000158955
0.0236611
0.000147466
0.0347715
0.000139744
0.000216125
0.00530914
0.00013981
0.0227231
0.0255811
0.000180185
0.000147133
0.000141393
0.0251738
0.00584083
0.000172266
0.0171248
0.000141085
0.0161225
0.000146036
0.000134005
0.000168271
0.0275667
0.000129753
0.00018198
0.00832511
0.0235821
0.0332555
0.0349952
0.000142558
0.00423293
0.0434233
0.00015234
0.000153678
0.0418165
0.0212452
0.000173134
0.0293342
0.000156207
0.000156441
0.000156708
0.0168357
0.000154076
0.000146899
0.000139137
0.000143048
0.00220441
0.00586031
0.000142835
0.000138779
0.000397216
0.0326115
0.000150495
0.000152097
0.0127784
0.000142472
0.000179796
0.00014583
0.000136449
0.000149749
0.0310727
0.000201773
0.000268138
0.000138866
0.00015243
0.000187016
0.0128846
0.00014346
0.000142814
0.00371452
0.000145425
0.000134082
0.000205385
0.000137087
0.000128485
0.000181985
0.000137
0.000171698
0.000129238
0.000143028
0.000178692
0.000188148
0.000142609
0.000186189
0.000129227
0.0253037
0.000187128
0.000135276
0.0292695
0.000145812
0.000141106
0.0216701
0.0338042
0.0230245
0.000172362
0.000136015
0.000149957
0.000131089
0.000204559
0.00447592
0.00428802
0.000171206
0.00466936
0.000139607
0.0431878
0.000153669
0.00014311
0.000203166
0.000177373
0.000253349
0.000148757
0.000162863
0.000130637
0.000135993
0.000214026
0.00303267
0.000180227
0.00612486
0.000154379
0.0318029
0.0211014
0.016581
0.00444471
0.00367272
0.000143406
0.000161203
0.000136271
0.00367026
0.000143844
0.000186965
0.0242233
0.00768824
0.000141803
0.0289673
0.000169158
0.000139528
0.000151799
0.000196065
0.000134791
0.000533269
0.000133376
0.00015399
0.0284574
0.000145678
0.000159083
0.000151995
0.000161941
0.000134542
0.000185024
0.000157989
0.000137372
0.0001557
0.000190248
0.000133869
0.000129458
0.000145911
0.000878103
0.000135835
0.029203
0.000168082
0.000195614
0.000160938
0.00016914
0.000136118
0.000147567
0.000134647
0.000148385
0.000131192
0.000192802
0.000145904
0.000148906
0.000141382
0.00337218
0.000208745
0.000142791
0.000149621
0.000134477
0.00150609
0.000158383
0.0231035
0.000309906
0.0322659
0.00019176
0.000141944
0.000147653
0.000152201
0.00795544
0.000148008
0.000153549
0.000195787
0.000174032
0.042908
0.000154091
0.000176693
0.000172194
0.000158247
0.0189461
0.000158158
0.0157745
0.0105745
0.000152236
0.000172586
0.000129323
0.0149709
0.000141981
0.0172572
0.0285001
0.00775196
0.000167283
0.000158322
0.00013582
0.000143314
0.0333803
0.00146503
0.0207115
0.00015149
0.000153011
0.00014931
0.014855
0.00015296
0.000136886
0.0136638
0.000167515
0.000199676
0.000152551
0.000156616
0.000170484
0.000142492
0.000145623
0.0315349
0.000153316
0.00282808
0.00762282
0.0236011
0.000191397
0.000167283
0.000161571
0.00016071
0.0208973
0.0236173
0.0124955
0.000184139
0.000137393
0.0102043
0.000143592
0.000163414
0.000138506
0.0330105
0.00174413
0.00304872
0.0205912
0.000151339
0.00413784
0.00309124
0.014779
0.000201067
0.000179878
0.0207596
0.000138426
0.0359961
0.00426811
0.00686415
0.000152267
0.000174277
0.000144539
0.00652984
0.000128624
0.00013925
0.0001472
0.000146454
0.000139245
0.000150183
0.000142978
0.000147555
0.000145689
0.000184768
0.00657102
0.000143539
0.000137361
0.0144433
0.00016703
0.000137651
0.000149816
0.000139581
0.00715455
0.014978
0.00014942
0.000154123
0.000185278
0.000143272
0.000162658
0.000201578
0.000152062
0.00220621
0.000177074
0.0112156
0.0227272
0.000144602
0.00013649
0.000142971
0.0175773
0.0183184
0.000137329
0.000148871
0.0115907
0.000135336
0.030012
0.000163153
0.00706947
0.000177957
0.000135333
0.0293727
0.000136591
0.0212964
0.00461389
0.000185004
0.000165538
0.000164691
0.000188549
0.000152662
0.0155202
0.000132266
0.000163192
0.0153836
0.000170028
0.00019156
0.00854794
0.00017987
0.000132151
0.00013491
0.0321356
0.000162696
0.000132048
0.000159157
0.000159975
0.00324443
0.0440282
0.000148186
0.0309104
0.000175763
0.0239597
0.000153335
0.00707785
0.000184262
0.00684918
0.00700548
0.000200717
0.000132159
0.000137333
0.000223649
0.000137189
0.000153722
0.000155757
0.00014817
0.000152988
0.000182861
0.000135207
0.000192429
0.0287362
0.000136039
4.81297e-05
0.000133686
0.000137966
0.0033668
0.00106343
0.0345022
0.0129948
0.000161277
0.000174986
0.000173334
0.000133566
0.0215988
0.0154706
0.00014427
0.026093
0.000138594
0.000145707
0.000153912
0.000137719
0.000211364
0.00532599
0.000142521
0.0174945
0.000134579
0.024866
0.0239526
0.0252775
0.0423214
0.00235697
0.000157767
0.000153784
0.000180365
0.000148738
0.000143502
0.00018716
0.000149151
0.0286306
0.000134443
0.000145433
0.000143937
0.000140273
0.0182207
0.00014197
0.000166425
0.0053942
0.000146801
0.000179731
0.000135832
0.000130896
0.000149565
0.043632
0.0014139
0.000142276
0.000147052
0.0216711
0.000142207
0.0346278
0.00020992
0.000144993
0.00234556
0.000161581
0.000141215
0.000139561
0.00013224
0.0134355
0.000182934
0.000157066
0.000172826
0.000179555
0.0227856
0.000133939
0.00235389
0.000146257
0.000152314
0.000145837
0.000163044
0.000145461
0.00132124
0.00263822
0.00198743
0.000131136
0.000191738
0.000145811
0.0103616
0.00019305
0.000146506
0.000153496
0.00019071
0.000142352
0.00602048
0.00377303
0.000136002
0.000147858
0.000154571
0.000141576
0.000152788
0.000140246
0.000152496
0.000143361
0.000155103
0.000152449
0.000135888
0.000178573
0.000143428
0.00723494
0.000138455
0.000145509
0.00131952
0.000144984
0.000153368
0.000144109
0.000148498
0.000143985
0.000144104
0.000162865
0.000204454
0.00193116
0.000136194
0.00835448
0.0228221
0.0029357
0.000137741
0.0136778
0.000155466
0.0143992
0.00498937
0.00024668
0.000162694
0.0207403
0.00670034
0.000156399
0.000160054
0.000154011
0.0219707
0.000131602
0.000175958
0.0171886
0.00456235
0.000140802
0.000136002
0.000139461
0.000186839
0.024367
0.00850228
0.0319766
0.0339069
0.000135986
0.0135829
0.00225492
0.00458868
0.000181653
0.000177412
0.00014054
0.000152192
0.0401286
0.016716
0.000153419
0.000142297
0.000178014
0.000136328
0.0141161
0.000152822
0.000142457
0.000169873
0.000184117
0.000134014
0.000202822
0.000192955
0.0330022
0.000133882
0.00626723
0.000135607
0.0287261
0.0140361
0.000259732
0.000143723
0.00314502
0.000141538
0.000141931
0.000190444
0.0203582
0.000133066
0.000153431
0.0027172
0.000161911
0.000161375
0.000130517
0.000212107
0.0264755
0.0214107
0.000202447
0.0203869
0.00744771
0.000161678
0.033218
0.000150633
0.000142498
0.0224155
0.024208
0.000325279
0.000136994
0.000203329
0.0182595
0.0281689
0.00019186
0.000191294
0.00259903
0.000168526
0.00015527
0.000169136
0.0168476
0.00014193
0.000178464
0.0001498
0.0298522
0.0246994
0.00012814
0.000142208
0.000165637
0.00252556
0.000135985
0.000143855
0.000150132
0.0320191
0.00880651
0.000189291
0.0241178
0.000147661
0.000137162
0.000159643
0.000143052
0.003665
0.0110091
0.000188985
0.00314818
0.000150197
0.000174195
0.00013692
0.000136629
0.000141421
0.000140568
0.000158797
0.0130515
0.000145482
0.000159801
0.00203231
0.000168909
0.0105748
0.0158583
0.000132229
0.000141756
0.000188088
0.000133652
0.0204806
0.000132485
0.000137528
0.000134332
0.000193047
0.00013353
0.000153899
0.0286928
0.000202081
0.0333731
0.000150331
0.000153709
0.000138206
0.000140248
0.000136488
0.0321298
0.00017037
0.000153152
0.000194386
0.000157477
0.000144578
0.00191889
0.000212901
0.000136485
0.000155185
0.0414667
0.000167239
0.000192929
0.000144867
0.039918
0.000136558
0.000144558
0.000181843
0.00014211
0.0135226
0.000190449
0.00012954
0.000135912
0.0265556
0.0128615
0.000140388
0.000140301
0.000151784
0.000134219
0.000128484
0.000136453
0.000160426
0.00155715
0.000324338
0.000142236
0.000132383
0.000148657
0.00150497
0.00300788
0.000142689
0.000162327
0.00901622
0.0290966
0.00015405
0.0181043
0.000133586
0.000168512
0.000187761
0.000191875
0.000151784
0.000142929
0.000127971
0.0100435
0.000185797
0.000153189
0.000151643
0.011562
0.000151823
0.000146659
0.000132244
0.00216429
0.000146368
0.00020018
0.000209023
0.00013583
0.000143767
0.0247053
0.000179752
0.000136189
0.00656922
0.000143882
0.00939211
0.000135742
0.000185086
0.00253736
0.000148105
0.000221189
0.0222914
0.000146379
0.000146714
0.000142998
0.00016734
0.000166925
0.0119163
0.000136845
0.000189224
0.00015509
0.000190797
0.000147941
0.00020208
0.000133019
0.00203409
0.000152962
0.000143162
0.0264021
0.000166431
0.00014322
0.000133131
0.0001521
0.00240802
0.000169264
0.000149253
0.000141544
0.000143454
0.000164601
0.0124489
0.000163434
0.0254607
0.000145512
0.000178726
0.000135666
0.0261113
0.000130025
0.00390993
0.000159577
0.000148877
0.0195808
0.0302765
0.000144029
0.00021144
0.000137745
0.0159983
0.0276258
0.000134422
0.00959094
0.000137707
0.000152418
0.00173507
0.000195126
0.00366098
0.0238052
0.000130811
0.000757231
0.000141201
0.000143528
0.025126
0.0292576
0.000132347
0.000179351
0.000148256
0.000167465
0.000145111
0.00017146
0.000142125
0.000178812
0.000143205
0.000141695
0.000176371
0.000150994
0.000186812
0.000796215
0.00129253
0.000142962
0.00014062
0.000190331
0.000185678
0.0132774
0.000138162
0.0325853
0.000147993
0.000135902
0.0136583
0.000140092
0.000727302
0.000131341
0.000156825
0.0203369
0.000135708
0.000141076
0.000142518
0.000149402
0.000148632
0.027519
0.000150373
0.0135631
0.000156013
0.000156511
0.00806192
0.0071253
0.000140334
0.000150131
0.0108078
0.00569029
0.000152813
0.000151024
0.00674782
0.0248604
0.000142297
0.000167596
0.000130765
0.000143425
0.000124584
0.0213697
0.000181431
0.0201985
0.000149164
0.000153642
0.00305317
0.000204288
0.000129161
0.0327421
0.000171645
0.00018009
0.011826
0.000137259
0.000214868
0.000143022
0.00014852
0.000136648
0.000168468
0.000166999
0.00017718
0.000152612
0.000154071
0.000177845
0.0225025
0.000145562
0.0123176
0.00252947
0.0294602
0.000132973
0.00013576
0.0141976
0.000141136
0.00240714
0.000146423
0.000186261
0.000412689
0.000144781
0.00661233
0.000141574
0.0274673
0.000179874
0.000207282
0.0231918
0.000146687
0.000147111
0.0132077
0.000145792
0.00580595
0.000181595
0.000217127
0.000195095
0.000147665
0.000260107
0.000153326
0.000159434
0.000169125
0.00680768
0.000137339
0.000137238
0.0187429
0.00690375
0.000181703
0.0333999
0.000153033
0.000137281
0.0140806
0.000173677
0.0242333
0.00173644
0.0294768
0.000153734
0.000164867
0.00014987
0.0381043
0.000152963
0.00239661
0.000135342
0.000138321
0.00014741
0.0286081
0.00477923
0.000161486
0.000166605
0.000157742
0.000129157
0.000189469
0.000129744
0.0194653
0.00919821
0.0261134
0.000129607
0.000152228
0.0221159
0.000162989
0.0278903
0.000134769
0.000135379
0.000191564
0.0205876
0.000152323
0.0183065
0.0407886
0.00015815
0.0296397
0.000203024
0.000168483
0.000143922
0.0218786
0.00289863
0.000134236
0.000175827
0.0189642
0.00013832
0.0254915
0.000182952
0.0197165
0.0215605
0.000150889
0.000143288
0.000132801
0.000132696
0.013618
0.000146797
0.000136974
0.0292103
0.000141355
0.000172049
0.000150662
0.000174214
0.000182503
0.000189589
0.000140758
0.000151534
0.000196528
0.000172713
0.000147747
0.00014468
0.000183752
0.0225018
0.000143341
0.00021031
0.0236741
0.0246477
0.003144
0.000138998
0.000157912
0.0120176
0.0135782
0.000151017
0.000143096
0.0123558
0.00101579
0.0283152
0.00015436
0.00608212
0.0229079
0.000141807
0.000685204
0.000197521
0.00014925
0.000143102
0.000134043
0.0115037
0.000141156
0.0146693
0.000184631
0.0230675
0.000217142
0.01546
0.0132229
0.00205295
0.00681945
0.000143881
0.00708953
0.00025833
0.000146028
0.000170253
0.000170828
0.000202086
0.0394399
0.000140145
0.000146245
0.000141078
0.00188779
0.000138724
0.000135334
0.000154381
0.000154323
0.000161645
0.02281
0.000180424
0.000130792
0.000150612
0.00015478
0.000188815
0.000154635
0.000202577
0.000153127
0.0235017
0.0341792
0.000138516
0.0213907
0.000209979
0.0279467
0.0237018
0.000153914
0.012884
0.000143544
0.000230786
0.025186
0.000141067
0.000140603
0.000144579
0.000140111
0.000155042
0.00016066
0.000142242
0.00133297
0.000148406
0.0331744
0.000155271
0.0152079
0.000135319
0.000140155
0.00452812
0.000141353
0.000143997
0.000142828
0.000186025
0.000151411
0.000148467
0.000155618
0.000141019
0.000184376
0.000134193
0.00116435
0.000143446
0.000165542
0.0306654
0.000148352
0.000198663
0.000188006
0.000141833
0.014572
0.000136688
0.0237099
0.0325506
0.00515637
0.000180035
0.000138848
0.000190457
0.000192075
0.000143882
0.000162254
0.000167626
0.000169414
0.00015148
0.000138814
0.00269195
0.00649734
0.000144373
0.0270796
0.0106307
0.000135424
0.000138899
0.000132216
0.00018931
0.00290089
0.000220936
0.000142289
0.000138844
0.00385895
0.000168104
0.0284829
0.00763041
0.000142666
0.000152001
0.000136001
0.0227945
0.0318155
0.000136275
0.000162935
0.00256035
0.0202432
0.000161403
0.000152884
0.000133409
0.0001472
0.0390773
0.00011254
0.000143444
0.0354524
0.000138263
0.00575047
0.00993046
0.000172142
7.69044e-05
0.00259115
0.000145782
0.00826336
0.000166794
0.0141808
0.00544985
0.000135461
0.0208651
0.0354709
0.00157608
0.00728688
0.000153202
0.0265895
0.0316571
0.00016277
0.000135764
0.00288221
0.00392494
0.00455779
0.000185568
0.000148898
0.000129029
0.000142454
0.0263912
0.0245683
0.000206652
0.000156485
0.000148363
0.000142611
0.0139598
0.000138077
0.0194405
0.0100477
0.000178264
0.000142148
0.0140083
0.000142233
0.000177453
0.0240028
0.00468983
0.000150363
0.00014692
0.000143629
0.000141323
0.000173982
0.00014207
0.000171084
0.000173086
0.000145114
0.000130795
0.000196365
0.000254196
0.000138059
0.000135881
0.00014116
0.000153371
0.000155178
0.000373735
0.018934
0.0136933
0.0102476
0.000144887
0.00014222
0.000178812
0.000182371
0.000136021
0.000189869
0.0166583
0.0131757
0.000213797
0.0165824
0.000179786
0.000162202
0.035202
0.00013829
0.00187628
0.000204409
0.000132909
0.00380958
0.000150375
0.000187955
0.0222875
0.000213564
0.000161115
0.0106693
0.000142911
0.000141832
0.000130183
0.000158278
0.000142338
0.00014637
0.000141052
0.0259187
0.000158455
0.000142312
0.000161959
0.000151894
0.0027033
0.024382
0.0309783
0.000142972
0.000135699
0.0209113
0.000191151
0.0105581
0.000143416
0.000153361
0.000143925
0.000146725
0.0119352
0.000156759
0.000138555
0.000143753
0.000195562
0.000138779
0.000168413
0.000136232
0.000136685
0.000153811
0.000193885
0.000178184
0.000157613
0.000136322
0.0146722
0.000198369
0.0142799
0.0216298
0.000146324
0.000252672
0.00020469
0.000184448
0.0340257
0.000157056
0.00239278
0.000150352
0.000185418
0.0245752
0.000135462
0.000141449
0.0192684
0.000130114
0.0135918
0.0359409
0.000138856
0.000183258
0.000136088
0.0001429
0.0107491
0.000134663
0.000136092
0.000135842
0.000132211
0.000159393
0.00014534
0.025694
0.000135875
0.0294945
0.0120125
0.000147706
0.000143776
0.000139088
0.000136332
0.000153186
0.0140784
0.000135912
0.000181518
0.000158699
0.0228139
0.02464
0.000150357
0.000217391
0.000172229
0.000130612
0.000134506
0.00143663
0.000130628
0.00013348
0.0111265
0.00547195
0.0238255
0.000143988
0.020894
0.00176669
0.000131083
0.000170583
0.00014414
0.000141858
0.000132841
0.000140127
0.0237518
0.000142061
0.000144274
0.00369453
0.00015181
0.00740385
0.000160853
0.000147395
0.0235095
0.000134465
0.0122035
0.000131931
0.000150667
0.0220272
0.000141313
0.000135414
0.000142215
0.0083522
0.00233736
0.000145203
0.000141279
0.000133196
0.000159501
0.00515116
0.000201817
0.000148864
0.0106053
0.021563
0.000142936
0.0314475
0.000130531
0.000171151
0.00444083
0.00013215
0.000157114
0.0144158
0.00016255
0.0140883
0.000178232
0.000168935
0.0109234
0.000154726
0.000747754
0.000140703
0.0149593
0.000143824
0.0300412
0.000149592
0.000156498
0.000162396
0.000137952
0.0161136
0.00155391
0.0130289
0.000212756
0.000133825
0.0116738
0.000129572
0.000140136
0.0324512
0.000133299
0.0262778
0.0106783
0.000130992
0.000154073
0.000172938
0.000203204
0.000135468
0.000188688
0.000167033
0.00149979
0.0249067
0.000143027
0.000144213
0.000139911
0.000131485
0.0187004
0.00018819
0.00389994
0.000138656
0.0060984
0.0358385
0.000129417
0.000133274
0.0115933
0.000282946
0.0465616
0.000221092
0.0131841
0.000214462
0.000181346
0.000187178
0.00237366
0.0461618
0.000149338
0.000194487
0.000140208
0.000154337
0.000211712
0.0276839
0.000149993
0.000204002
0.0020592
0.000138882
0.00014808
0.000149398
0.000153876
0.000140163
0.0208418
0.000197065
0.0157702
0.00013511
0.000275373
0.000164806
0.000229082
0.000192279
0.000184283
0.0140814
0.000137101
0.000141778
0.000214298
0.00013375
0.0420441
0.00017797
0.000143226
0.000129934
0.0280835
0.000143723
0.000149183
0.000138656
0.000158256
0.000177425
0.000167641
0.000154343
0.000141397
0.000145388
0.000191233
0.000135707
0.000136584
0.000141269
0.000142794
0.000129895
0.0132123
0.000233978
0.0199749
0.000152853
0.000156639
0.000156656
0.0264821
0.0224762
0.000141965
0.0264969
0.000143132
0.00013505
0.000186211
0.0323444
0.00292067
0.0246153
0.000207001
0.000188595
0.000139986
0.000143245
0.00017775
0.0140802
0.000171833
0.000128274
0.000206131
0.035933
0.00013827
0.000137021
0.00335017
0.000148281
0.0298022
0.000220885
0.0387996
0.000135888
0.000163319
0.000141736
0.0291925
0.000150101
0.000133899
0.000154347
0.01482
0.0245157
0.0276788
0.0168729
0.000150142
0.00013502
0.000141684
0.0343161
0.000138486
0.000149226
0.000162304
0.000136572
0.000906493
0.00014128
0.000133639
0.000133686
0.000167751
0.000145132
0.0012637
0.00014552
0.000141773
0.0276429
0.000144628
0.000212092
0.014003
0.000187446
0.000149173
0.0313348
0.00400315
0.000143992
0.00120714
0.000132556
7.64318e-05
0.000196837
0.0159563
0.000190768
0.000183619
0.000197829
0.000138848
0.000131648
0.000149596
0.000133617
0.00016832
0.0128902
0.000167947
0.0238236
0.000129552
0.0434729
0.000404689
0.000147757
0.000195269
0.000136011
0.000193859
0.000151897
0.0231513
0.000129838
0.0149426
0.000133452
0.000139602
0.000164095
0.0139496
0.000311328
0.000148137
0.0218742
0.0144111
0.000134939
0.00458928
0.000167064
0.000185891
0.000685632
0.000142477
0.0287228
0.000139634
0.000142783
0.023696
0.00016689
0.000133242
0.000141944
0.00013697
0.000134129
0.000149272
0.0147734
0.000233008
0.000301033
0.000140239
0.000143971
0.000188953
0.0193022
0.00869093
0.0306338
0.00411485
0.000148787
0.000137259
0.000137583
0.000157612
0.000143021
0.000133865
0.0133238
0.0215848
0.011814
0.00014366
0.000139321
0.0136674
0.000143027
0.000138945
0.000142826
0.000152594
0.00021458
0.00725722
0.000141113
0.000134079
0.000166895
0.000142407
0.0156171
0.000159967
0.00481021
0.000146663
0.000179008
0.000141457
0.000132489
0.000202636
0.000151393
0.000465331
0.000136628
0.00772747
0.000150024
0.0131628
0.000138799
0.0136778
0.000137272
0.00019068
0.000141815
0.00013892
0.000143756
0.000208495
0.00171944
0.00014252
0.000152954
0.000135434
0.0375998
0.00017948
0.00357588
0.00015467
0.000151355
0.000167977
0.00198385
0.000184668
0.0129507
0.00014285
0.000144725
0.0152075
0.0067304
0.000129448
0.000218085
0.000152917
0.000135186
0.0133174
0.000140507
0.00390593
0.000145937
0.0151409
0.000140518
0.028688
0.016525
0.000131189
0.000145539
0.000130895
0.00014662
0.00182736
0.0150865
0.00620768
0.00306447
0.00014052
0.000198863
0.000142747
0.0230698
0.000130388
0.00220742
0.000134789
0.000223848
0.000141526
0.000138606
0.000154918
0.0173284
0.00156541
0.0109329
0.000188705
0.000179621
0.00345
0.000193191
0.0251428
0.000142504
0.000158143
0.000152067
0.000136219
0.000135256
0.000184158
0.00326382
0.0204162
0.00015845
0.000144532
0.0224511
0.000143356
0.000186964
0.000196055
0.0274123
0.000155372
0.000136437
0.000135662
0.00014661
0.000143787
0.0230053
0.000187554
0.000138088
0.000153422
0.000177745
0.000155013
0.034201
0.0127052
0.0107204
0.000143176
0.00402387
0.0240853
0.000175043
0.00709574
0.000137507
0.000139551
0.00729413
0.0380609
0.000943789
0.000138455
0.000160746
0.000131974
0.0231581
0.0370407
0.000135574
0.000154924
0.000137745
0.000144403
0.000126323
0.0364017
0.000139145
0.000137426
0.000154122
0.000143423
0.000135323
0.000162052
0.000138453
0.000150902
0.000135574
0.0264831
0.000136383
0.000190309
0.000134649
0.000131924
0.000137608
0.000165835
0.00013951
0.000139459
0.000135298
0.000143505
0.015801
0.000150922
0.000169845
0.000151299
0.013055
0.000149304
0.0190604
0.000138666
0.00691305
0.000170479
0.0433057
0.00360783
0.00354964
0.0171138
0.00510172
0.000131982
0.0391224
0.000147589
0.000155969
0.00370959
0.0001909
0.000171003
0.0459214
0.000189813
0.000162923
0.000157629
0.007454
0.000139579
0.00014343
0.000147461
0.000166342
0.000139455
0.00013198
0.00346858
0.00015017
0.00013974
0.000141227
0.0120198
0.000149107
0.000160349
0.0355974
0.0368341
0.00858307
0.000173373
0.0142682
0.000154948
0.0144565
0.000135167
0.000155393
0.00016646
0.000147651
0.00013516
0.00209414
0.0392782
0.000176577
0.000162731
0.000149336
0.000149101
0.00128714
0.000161212
0.02024
0.000149582
0.000142086
0.000141747
0.000143652
0.000145874
0.000139872
0.000159626
0.000144069
0.000146505
0.000158366
0.000151178
0.000141927
0.000148356
0.0072316
0.0256821
0.000159688
0.000190175
0.00689607
0.000186676
0.000165009
0.000293271
0.000168874
0.000139157
0.000142124
0.000204671
0.00013492
0.00013196
0.000162148
0.000224233
0.000131943
0.000137406
0.00015266
0.000151772
0.000141017
0.000158568
0.000158152
0.00864875
0.01713
0.00483427
0.000132025
0.00014042
0.010035
0.0434282
0.000185149
0.00147871
0.0376911
0.000159022
0.000148311
0.000143482
0.00984987
0.00244119
0.000139822
0.000169397
0.00151336
0.000131113
0.00983068
0.0292509
0.00015164
0.000215723
0.000159455
0.000185906
0.000142111
0.0418046
0.000205272
0.000151392
0.00014076
0.000145583
0.000178208
0.000128172
0.000132007
0.000191252
0.000222514
0.0112073
0.023734
0.0280533
0.000143544
0.0226186
0.0427394
0.00385106
0.0358988
9.49662e-05
0.0276789
0.0259729
0.000143816
0.000158396
0.000216169
0.00014225
0.0132963
0.000144606
0.0249584
0.000140954
0.000170839
0.000193072
0.0312051
0.000142099
0.000186743
0.000153871
0.000178591
0.00014305
0.000142157
0.00347168
0.0210705
0.000154664
0.00693472
0.000135998
0.000168784
0.000143318
0.000167293
0.0268941
0.000468549
0.0133188
0.0251123
0.00586332
0.000154962
0.0192828
0.000152057
0.000130146
0.0243639
0.000468975
0.00013488
0.000149744
0.00014603
0.000149391
0.000764032
0.000138173
0.0295233
0.000187041
0.000485968
0.000147959
0.000184795
0.000168224
0.0135979
0.000180139
0.000427509
0.0034696