/*--------------------------------*- C++ -*----------------------------------*\
| =========                 |                                                 |
| \\      /  F ield         | OpenFOAM: The Open Source CFD Toolbox           |
|  \\    /   O peration     | Version:  v2012                                 |
|   \\  /    A nd           | Website:  www.openfoam.com                      |
|    \\/     M anipulation  |                                                 |
\*---------------------------------------------------------------------------*/
FoamFile
{
    version     2.0;
    format      ascii;
    class       surfaceScalarField;
    location    "400";
    object      phi_0;
}
// * * * * * * * * * * * * * * * * * * * * * * * * * * * * * * * * * * * * * //

dimensions      [0 3 -1 0 0 0 0];
oriented        oriented;


internalField   nonuniform List<scalar> 
55332
(
-0.244398
0.257393
-0.0129949
0.347484
-0.0483969
-0.299087
-0.250854
-0.0334731
0.284327
0.0995487
-0.310024
0.210476
-0.275146
0.0132809
0.261866
-0.318453
0.143875
0.174579
0.0349764
-0.169834
0.134858
0.0126329
0.128757
-0.14139
0.389204
-0.323331
-0.0658726
-0.0136671
0.0139481
-0.00824832
0.00211056
0.00613776
0.0391015
0.0495267
-0.0886282
-0.0304896
-0.0390074
0.069497
-0.125598
-0.0954031
0.221001
0.00785829
-0.00599992
-0.00185837
0.347161
-0.344892
-0.00226992
0.0499399
-0.300794
-0.141072
0.175656
-0.0345841
0.234524
-0.388977
0.154452
0.17243
0.0818032
-0.254233
-0.141463
-0.0339615
0.175424
-0.222282
0.167291
0.0549914
-0.00679592
-0.259714
0.26651
0.0175098
-0.00170149
-0.0158083
-0.0317693
-0.243377
0.284958
-0.36719
0.0822315
-0.0219583
0.00546666
0.0164916
-0.0918811
0.183043
0.00698105
-0.00873071
0.00174966
0.21006
0.0639059
-0.273966
0.261269
-0.273757
0.0124884
-0.0781326
-0.155126
0.233258
-0.231384
0.272769
-0.0413855
0.16247
-0.146127
-0.0163422
-0.0381397
-0.231366
0.269505
-0.328006
0.236687
0.0913191
-0.0153677
-0.00659056
0.150543
-0.163057
0.0125144
0.367656
-0.133131
-0.15663
0.260047
-0.103417
-0.0714138
0.196475
-0.125061
-0.219027
-0.142201
0.361228
0.303239
0.0439228
0.171115
-0.249248
-0.0143669
0.00335871
0.0110082
0.220981
-0.273472
0.0524915
-0.00988683
-0.00448007
-0.0488765
0.087978
0.0600094
-0.330279
0.270269
-0.160611
-0.0723322
0.232943
0.112825
-0.318052
0.205227
0.00197605
0.343929
-0.345905
0.289201
-0.192271
-0.0969294
0.131865
0.00233151
-0.134196
0.309058
-0.137703
-0.171355
-0.164568
0.178388
-0.0138198
0.263884
-0.261908
0.227244
-0.321293
0.0940489
0.382171
-0.15239
-0.229781
-0.00153348
0.262802
-0.135839
0.148472
0.00761895
0.000549418
-0.00816836
0.0304311
-0.171894
-0.0774935
0.362452
-0.00179047
-0.00114365
0.00293412
-0.00342524
-0.0599887
0.0634139
0.242646
0.0631533
-0.3058
-0.0258209
0.00558414
0.0202367
-0.00235774
-0.00637741
0.00873515
-0.0148337
0.0185349
-0.00370118
0.263401
0.104255
0.0981391
-0.230829
0.13269
-0.324882
0.113645
0.211237
0.226262
-0.233058
0.338847
-0.0338634
-0.304983
-0.359636
0.122172
0.237464
0.0136807
0.00602003
-0.0197007
-0.0056389
0.0283326
-0.0226937
-0.222
0.287574
-0.0655735
0.0435643
-0.0218946
-0.0216697
0.00836222
0.00358978
-0.011952
0.250783
0.0685041
-0.319287
-0.00480556
-0.0166394
0.0214449
-0.419235
0.259909
0.159327
-0.0128017
-0.000276827
0.0130786
-0.128899
0.198402
-0.0695028
-0.0121759
0.043333
-0.0311571
0.306289
-0.085308
0.147869
-0.112892
-0.0441784
-0.166527
0.210705
-0.404248
0.186252
0.217997
-0.00867858
-0.00191937
0.010598
-0.269524
0.311539
0.0208542
-0.332393
0.16804
-0.14925
-0.0187905
0.211604
0.0137062
-0.22531
-0.111921
0.284352
-0.0810038
0.0775786
0.0715046
-0.119763
0.0409354
0.297911
0.046692
-0.0224248
-0.0242672
-0.0139777
-0.15059
-0.100094
0.266875
-0.16678
0.422578
-0.280307
-0.142272
0.00819176
-0.00121072
-0.344439
0.0337423
0.310696
0.329751
-0.101488
-0.228263
-0.00264566
0.00700958
-0.00436393
0.0335715
-0.0160744
-0.121272
0.284658
-0.163386
0.141882
-0.218248
0.0763664
-0.404109
0.195295
0.208813
-0.125582
0.376365
-0.220059
-0.18405
0.178437
-0.0802982
0.292911
-0.193362
0.0125406
-0.00417837
-0.0493628
0.0371869
-0.192126
-0.0334649
0.225591
-0.257063
0.13308
0.123983
0.263236
-0.160309
-0.102926
-0.0370316
0.0313927
-0.145826
-0.117787
0.263613
-0.18494
0.297765
0.00805796
-0.00619349
-0.00186446
-0.229055
0.110897
0.118158
-0.00106296
0.0105307
-0.00946777
0.107912
-0.253738
-0.00941726
0.000738681
0.0096299
0.0370621
0.0167059
-0.00503441
-0.0116715
0.242354
-0.383985
0.141631
0.352556
-0.0410173
0.329811
-0.30858
-0.0212309
-0.423749
0.275458
0.148291
-0.0505621
-0.150463
0.201025
-0.0314794
-0.231661
0.26314
-0.386948
0.155254
0.231694
-0.144979
0.091928
0.0530509
0.265872
-0.252591
0.0559308
-0.0381149
-0.0178159
0.109744
0.153491
0.252994
-0.392479
0.139485
0.243917
-0.0323135
0.235374
-0.104672
-0.130702
0.0128562
0.302941
-0.315797
-0.164677
-0.0923852
-0.212461
0.0904484
0.122013
0.272735
-0.259878
-0.0195886
0.00475481
0.241042
0.0887087
0.353846
-0.0176849
-0.336161
0.396315
-0.290153
-0.106162
0.137524
-0.117727
-0.0197966
-0.00143712
0.00905607
-0.178485
0.340763
-0.162277
-0.00888225
0.00652451
-0.0115279
-0.282664
0.294192
-0.198109
0.253096
-0.0549876
0.00180743
0.00162325
-0.00343068
0.21193
-0.318003
0.106073
-0.185764
0.0333528
0.152412
0.301519
-0.0790264
-0.222493
0.0507693
-0.00316966
-0.00456752
0.00773719
0.229296
-0.0962161
0.00858377
-0.00981068
0.00122691
-0.00953447
0.0125779
-0.00304342
-0.0344483
-0.157678
-0.0454539
0.0123012
0.0331527
0.00416965
0.00388831
0.255926
0.133278
0.367106
-0.114112
0.0957147
-0.369466
0.273752
-0.0117646
0.0119912
-0.0011886
-4.7305e-05
0.00123591
-0.0329111
0.0948381
-0.061927
0.115154
-0.163915
0.0487613
-0.165935
0.269865
-0.10393
-0.0110246
0.0120252
0.121102
0.0164224
-0.146791
-0.0107684
0.15756
0.154022
-0.198201
-0.00683375
-0.0272041
0.0340379
-0.13388
-0.0951749
0.000206492
-0.000878899
0.000672407
0.132185
-0.279459
0.147274
-0.00116635
-0.0125008
-0.00983975
-0.0549503
0.06479
0.123041
0.00257832
-0.125619
0.0184463
0.254288
-0.00780072
0.0543337
-0.046533
-0.14674
-5.1736e-05
-0.163305
0.26057
-0.0972645
0.27193
-0.253484
0.0176641
-0.0224696
-0.0133388
-0.00798119
0.02132
0.0588263
-0.0629202
0.00409391
0.0500953
-0.00084817
-0.0492471
-0.421565
0.300907
0.120658
-0.361171
0.016732
0.0188864
-0.0944929
0.0756065
0.34994
-0.266223
-0.0837163
0.32736
-0.205219
-0.122141
0.150908
-0.0314276
-0.11948
0.269146
-0.3474
0.078254
0.373424
-0.0285451
-0.344879
0.320536
-0.353389
0.0328524
-0.00783842
-0.00247531
0.0103137
0.153294
-0.0302533
0.280971
0.0689687
0.366055
-0.335915
-0.0301402
0.19408
-0.00483982
-0.18924
-0.180536
-0.0917402
0.272277
-0.0303823
0.0453236
-0.0149413
0.0693955
0.127784
-0.19718
-0.026942
0.369177
-0.342235
-0.134038
-0.00156654
-0.00859794
0.0101645
0.346482
0.0862983
0.292289
-0.303799
0.0115101
-0.0698284
-0.00824832
-0.00954708
0.153284
-0.0939845
-0.0592991
0.0569953
-0.0734262
0.0164308
0.00370567
-0.0250145
0.0213088
-0.280223
0.195262
0.0849603
0.0159856
-0.0123655
-0.00362016
0.00886597
-0.00736878
0.239001
-0.27048
0.238622
0.157692
-0.199947
-0.223802
0.33751
-0.253641
0.0222749
0.00126349
0.0488318
-0.365699
0.319593
0.0461061
0.386544
-0.176345
-0.210199
-0.137761
0.0630251
0.0747361
0.00675843
0.265172
0.0101682
-0.00158442
0.169085
-0.0372201
0.424849
-0.259955
-0.164894
-0.00223864
-0.0105631
0.000522588
-0.000316095
0.0293351
0.339842
-0.180689
0.0517895
-0.00164285
7.63061e-05
0.20657
-0.437792
0.231222
0.161663
-0.218384
0.056722
0.0881642
-0.337926
0.249762
-0.135241
0.100225
0.0350156
0.115983
0.113313
0.305259
-0.2985
-0.0919902
-0.120471
0.249939
-0.349435
0.0994964
0.340135
-0.183632
-0.156503
0.137976
0.0300643
0.426125
-0.167118
-0.259006
0.189845
0.00423452
0.00394138
0.00391691
-0.321217
0.0982234
0.222994
0.348495
-0.0161305
-0.332365
0.223076
0.0208406
-0.249143
0.120283
0.128859
0.324066
-0.313898
-0.0101688
0.366626
-0.137347
-0.229279
0.248729
0.101871
-0.3506
0.242466
-0.202487
-0.0399786
0.354786
-0.119082
-0.235704
0.223471
-0.0976275
0.00999186
0.000462512
-0.0104544
0.058953
0.103517
0.0115856
-0.00159379
-0.0324712
-0.116779
0.349772
-0.10873
-0.000178959
0.0950532
0.227955
-0.323009
0.343349
-0.0946203
0.11078
0.00461946
-0.115399
-0.0577683
-0.18663
-0.322218
-0.0434814
0.0312697
-0.0192596
-0.0120101
-0.0155409
0.30783
-0.415331
0.295826
0.119505
-0.051902
0.167056
0.00154457
0.264328
0.288502
-0.231673
-0.0568292
-0.220378
0.034614
0.0457656
-0.226302
0.0137655
-0.144572
0.130807
0.0196685
-0.0159629
0.113028
-0.328029
0.215002
-0.0113173
0.00178278
0.239104
0.0936761
-0.33278
-0.194538
0.390053
-0.195515
0.000876284
0.0250329
0.328813
-0.122074
-0.168798
0.207827
-0.039029
-0.00924459
0.232321
0.0198313
-0.000162732
-0.296245
0.249255
0.0469903
0.253123
-0.38533
0.132208
0.0388595
-0.0246242
-0.0142353
0.117322
-0.296955
0.179633
0.0126321
-0.00904897
-0.00358312
-0.0662365
0.0689983
-0.00276177
0.000713168
-0.00250364
0.0107275
-0.0240663
-0.0111629
0.0100999
0.191446
-0.150383
-0.041063
-0.356473
0.11018
0.246293
-0.234395
-0.122078
0.16677
0.10611
-0.27288
0.127217
-0.375118
0.247901
0.00090637
0.00626313
-0.0071695
0.0703133
0.00766007
0.0128661
-0.0205262
0.00682994
0.0152787
-0.0221086
-0.182697
0.311146
-0.128449
-0.0864236
-0.111157
0.197581
0.0966041
0.0566796
0.398719
-0.129573
-0.195059
-0.0181396
-0.00768129
-0.00998664
0.000175964
0.25031
0.093039
0.216207
-0.241179
0.0249728
-0.000238166
0.00234595
-0.00210778
0.00885092
-0.00191405
-0.00693688
0.013182
0.20067
0.0885312
0.336408
-0.0860977
0.29204
0.0320259
0.251743
-0.388031
0.136288
0.219668
0.107949
-0.327616
0.0393953
0.281141
0.332915
-0.0296767
0.113752
-0.292238
-0.0132064
0.021728
-0.00852162
0.296497
-0.0958276
0.0185323
-0.0024901
-0.0160422
0.36133
-0.108208
0.00977473
0.00271302
-0.0124877
-0.0207658
-0.260265
0.281031
0.295549
0.0373666
0.0241109
-0.00514008
-0.0189708
-0.162469
-0.224479
-0.348807
0.124439
0.224368
0.0939786
-0.227794
0.133815
0.0177924
0.330703
-0.010629
0.0785755
-0.0679465
-0.131505
0.148839
-0.0173339
0.376126
-0.190552
-0.185574
0.243309
-0.264075
0.020356
-0.0133806
-0.00697549
0.00343865
0.0140711
0.00498834
0.00871648
0.00726916
-0.102569
-0.0903086
0.192878
0.00274527
-0.00772866
-0.00251969
0.0102484
0.0282519
0.00285225
-0.0311042
-0.271088
0.105154
0.0230618
-0.0332363
0.0101745
0.314998
-0.20197
0.000795551
-0.0019392
0.0906139
0.205883
0.0715843
-0.28895
0.217366
-0.0632223
0.0554216
0.00243764
0.000107229
-0.00254487
-0.249624
-0.169612
-0.259347
0.383122
-0.123774
0.0353061
0.0206247
0.00271308
-0.000905653
-0.0447997
0.00676566
0.038034
-0.427818
0.202581
0.225238
0.163546
-0.344102
0.180556
0.00756939
-0.00756939
-0.135341
-0.184824
0.320165
-0.213869
0.192121
0.0217485
-0.361646
0.154193
0.207453
0.00508039
-0.00187529
-0.0032051
0.376608
-0.309826
-0.0667827
0.377613
-0.216489
-0.161124
0.398051
-0.364633
-0.0334176
0.0787806
-0.125274
0.0464935
0.079561
-0.0114969
-0.0680641
-0.0524431
-0.0109545
0.0633976
0.351219
-0.281821
-0.069398
0.340725
-0.280715
0.0103958
0.00332624
-0.0137221
-0.245811
-0.115836
-0.000942508
0.000219477
0.000723031
-0.00326309
0.0150953
-0.0118322
-0.00682302
0.00162583
0.00519719
-0.274008
0.395133
-0.121126
0.00253731
0.00923821
-0.0117755
0.0286732
-0.000421299
-0.21826
-0.143916
-0.00876404
-0.0012226
0.0319089
0.0134147
0.0554523
0.342598
0.0460525
0.00207674
-0.0481292
0.013752
-0.0516762
0.0379243
0.00203775
-0.00976641
-0.353023
0.232837
0.120186
0.10656
0.229884
-0.135905
0.187109
-0.273427
0.0863175
-0.00882628
0.00984536
-0.00101909
0.151599
-0.120421
-0.0311779
-0.0201772
-0.0252768
-0.229006
0.176107
0.0528984
0.299106
0.0521135
-0.0011886
0.293028
-0.126258
0.383191
-0.126431
-0.25676
-0.240533
0.312117
-0.189504
0.138942
0.0936681
-0.180092
-0.354176
0.199833
0.154343
-0.234777
0.318598
-0.0838209
0.152019
0.225594
-0.438119
0.188741
0.249378
-0.00100156
0.00105966
-5.81016e-05
0.000965438
0.0658661
-0.300643
-0.0888343
-0.244596
0.33343
-0.219757
0.369203
-0.149446
0.200816
0.181355
0.013903
-0.00350717
0.302165
-0.167899
-0.134266
-0.119811
0.161544
-0.0417336
-0.108117
0.295227
0.0492741
-0.0103104
0.0089786
0.0013318
-0.214995
-0.191359
-0.128882
0.320241
-0.0216835
-0.0202201
0.0419037
-0.221368
0.280901
-0.0595331
-0.00754201
0.00366147
-0.00867071
0.00500925
0.00252034
-0.00275851
0.0822141
-0.0633277
-0.148735
-0.176147
-0.121724
0.210578
-0.0888538
0.000966668
0.160693
0.145596
0.129779
-0.0843077
-0.0454714
-0.223741
0.113923
0.109818
-0.00304207
0.0128168
-0.0323078
0.00988297
0.381977
-0.132038
0.241677
-0.253205
-0.0157736
-0.304934
0.320708
-0.00121622
0.00308429
-0.00186807
0.41322
-0.291556
-0.121664
-0.0680688
0.112105
-0.044036
0.010666
0.0206037
0.152047
-0.267058
0.115011
-0.106738
0.0386687
-0.276039
-0.219813
0.0532862
-0.0618955
-0.0374825
0.0993779
-0.0560841
0.254256
-0.198172
0.21311
-0.197233
-0.0158774
0.115902
-0.30726
0.113439
0.152578
-0.235972
0.27169
-0.0357186
-0.0287207
0.255964
0.03473
-0.0652196
0.221792
-0.00558524
0.156593
0.145572
-0.0296892
0.140469
-0.242143
-0.0955335
0.337677
0.0259854
-0.00851145
-0.017474
-0.262068
0.161974
-0.356047
0.0511127
0.0177904
-0.149296
0.0694296
-0.243685
0.174256
0.142377
-0.0584422
-0.0839352
-0.0227988
0.0406705
-0.0178717
0.188809
-0.119413
0.0038578
-0.00153996
-0.00231784
-0.293738
0.237654
-0.0185036
0.0754989
-0.0039748
-0.0318149
0.0357897
0.197636
0.0448302
0.352918
-0.313117
-0.039801
0.0592887
0.0704904
0.383356
-0.168047
-0.21531
0.253554
-0.380262
0.126709
-0.187801
-0.240018
-0.294452
0.133091
0.161361
-0.0683586
-0.0766204
0.321011
-0.0254624
-0.123205
-0.204801
0.00652662
-0.00562025
0.0305683
0.0108018
-0.0413701
-0.0504976
-0.201464
0.251961
0.125058
0.184
-0.283991
0.233493
0.351717
-0.357438
0.00572073
-0.161303
0.250434
-0.0891311
0.139643
0.141328
0.00318165
0.209929
-0.225775
0.32149
-0.131251
-0.204728
0.335979
0.229079
-0.100322
-0.00912601
-0.271486
0.0293429
-0.0102448
0.0139063
0.266473
-0.114425
-0.278041
0.162223
0.115818
-0.0351698
0.287331
-0.190691
-0.0966397
0.0130612
0.0129242
-0.114028
0.137253
-0.0232253
-0.205281
0.168919
0.036362
0.116198
0.176683
-0.292882
0.319326
0.00168521
-0.137083
-0.0512952
0.188379
0.115394
-0.0765401
-0.0388539
0.108625
0.179877
-0.135426
-0.149804
0.28523
0.308554
0.0443642
0.105414
-0.100794
-0.0750541
0.236717
-0.14708
-0.147372
-0.077931
0.325108
-0.340649
0.370425
-0.132714
-0.237712
-0.122003
-0.0951068
0.217109
0.130567
0.0608792
0.41268
-0.21237
-0.20031
0.359368
-0.105814
0.288868
-0.0112129
-0.277655
0.0491076
0.14809
-0.197198
0.0022009
-0.00140534
0.329235
-0.321173
-0.00806234
0.0151871
-0.0122232
-0.0029639
-0.0754407
-0.00219792
0.0776387
-0.106457
-0.211997
-0.223149
-0.113227
0.336376
0.340596
-0.0895503
-0.251045
-0.00844986
-0.311071
0.0483204
0.26275
0.312437
-0.33045
0.0180125
-0.391019
0.21585
0.175169
0.00174456
0.00582484
-0.172764
-0.105277
0.126994
-0.274052
0.147058
0.0207114
0.01286
-0.195773
-0.055449
0.251222
0.0601948
0.0152134
-0.0754082
0.0452571
0.26718
0.000369764
0.00206788
0.0492188
0.275889
0.264691
-0.125048
0.0242246
0.0553365
0.279186
0.0506249
0.00597133
-0.0184203
0.0151572
0.363204
-0.0157196
0.00070557
0.0215004
-0.0222059
0.0157134
-0.326784
-0.12636
-0.266118
-0.0698137
0.312168
-0.0849916
0.00955089
-0.00602868
-0.000811104
0.00683979
-0.0101652
0.0178253
-0.00120354
-0.000382978
0.00158652
0.23798
-0.374801
0.136822
0.0983853
0.130694
-0.184507
0.0788373
0.105669
0.235135
0.101273
0.0943055
0.137297
-0.231602
0.0630298
0.194363
0.156869
0.0383931
-0.000582231
0.000439275
0.000142956
-0.383518
0.130773
0.252744
0.0908039
0.214497
-0.305301
-0.0907634
-0.224075
0.314839
-0.251359
0.0947291
-0.0790938
0.11903
-0.0399358
-0.162022
0.174171
-0.0121492
0.149924
-0.365969
0.216045
-0.0120787
0.00605002
-0.162912
0.343281
-0.180369
0.361542
-0.118895
0.0765452
-0.119686
0.0431404
0.261813
0.0270551
-0.0295169
-0.0506263
0.0801432
-0.2617
0.22034
0.0413602
0.0944141
-0.268454
0.17404
-0.264093
0.146306
0.164342
0.0957051
-0.408778
0.272408
0.136371
0.0441615
-0.0135932
0.0375718
-0.0858858
-0.0518754
-0.350614
0.123399
0.227215
-0.0140624
-0.00413028
0.0181926
0.275229
-0.0981739
-0.177056
0.314998
-0.104938
0.156412
-0.388121
0.231709
0.00910208
-0.014302
0.0051999
-0.189163
-0.24863
-0.222173
-0.215946
-0.136686
0.205171
-0.0684842
0.000872606
0.000962714
-0.00183532
-0.166579
0.260993
-0.205143
0.410396
-0.172417
0.0473107
0.0150177
-0.0623284
-0.00914478
-0.00116562
-0.256164
0.0760998
0.180064
-0.161994
-0.18648
0.348474
0.0595368
-0.0979323
0.333067
0.315993
-0.202348
-0.00212699
0.00284015
-0.0353155
-0.143572
0.178888
0.0804117
0.0349822
-0.206482
0.332874
-0.126392
-0.00924079
0.0425241
-0.0332833
-0.310684
0.147772
0.0153085
0.0509266
-0.066235
-0.00502024
0.00502024
0.0621905
-0.0148797
-0.0268812
0.0870761
0.0108627
-0.040818
0.0299553
0.0618545
0.17143
-0.233285
-0.220229
0.325822
-0.105593
-0.379769
0.182436
0.197333
-0.0414641
0.0402772
0.00118689
-0.00682302
-0.161113
0.0406914
-0.0645504
-0.157732
0.0918951
-0.302799
0.210904
-0.0247062
0.0182709
0.00643531
0.257527
-0.149615
-0.401748
0.183488
-0.177495
0.229298
-0.0518029
0.0240588
-0.0103781
0.253681
0.168897
-0.125978
0.0935073
-0.0356108
-0.0299946
0.0260198
-0.0313386
0.0220979
-0.009026
0.013021
-0.00399503
0.152697
-0.365434
0.212737
-0.110015
-0.237385
0.013192
0.209089
-0.347852
0.138763
0.100983
0.14682
-0.247803
0.0203329
-0.013503
-0.157522
0.0861082
-0.091656
-0.0421793
0.133835
-0.0390281
0.0162293
-0.122149
0.33821
-0.128299
-0.209911
0.20792
0.0260252
-0.233946
0.000451746
0.150091
0.287669
-0.0916111
-0.196058
-0.395775
0.281669
0.114106
-0.131701
0.353884
-0.222183
0.188247
-0.323588
0.0478519
-0.00179945
0.00612141
-0.00612141
0.344333
-0.191636
0.100735
-0.323885
0.106333
0.260773
-0.00595237
-0.0470995
0.0530519
0.0933503
-0.218948
0.0494112
0.252108
-0.0093961
0.00155768
0.15419
-0.349277
0.195088
-0.104342
-0.0111859
0.115528
0.0905083
-0.236272
0.145763
-0.0858911
0.324995
0.155753
0.0853976
-0.241151
-0.0583954
-0.0832408
0.0503297
0.316062
-0.0542486
-0.358458
0.226757
-0.263813
0.323602
-0.0597895
-0.0214283
-0.0872338
0.108662
-0.0108511
-0.00378224
0.0146333
0.127428
0.204685
0.139649
-0.310699
0.219936
-0.327204
0.21295
0.114254
0.0885113
0.252084
0.0745577
-0.083123
0.00856524
0.11858
0.257546
0.277368
0.148757
0.0847406
-0.0715911
-0.0131495
-0.113942
-0.290307
0.131766
0.00548661
-0.208647
0.305033
-0.0963865
0.290646
-0.386185
0.0955384
-0.111867
0.0434571
0.06841
-0.106156
0.0674161
0.0387401
-0.127802
-0.237632
-0.109735
0.0883063
0.0988122
-0.307459
0.00906466
0.00133738
-0.010402
0.133897
0.0594366
-0.193333
-0.382361
0.163971
0.218391
-0.0659048
-0.390575
0.326425
0.0641493
-0.201843
-0.00270447
-0.0110693
0.0137737
0.00351458
-0.0394687
0.00063316
0.0388356
-0.150811
-0.0293235
0.180135
-0.233298
0.369612
-0.136314
0.143769
0.0766825
-0.220451
0.199396
-0.418424
0.0919279
-0.0173702
-0.203015
0.302313
0.00226883
0.000126727
-0.00239556
0.0476635
0.0948517
-0.142515
-0.000395209
-0.0005473
0.244959
-0.333793
0.00557994
0.0141358
-0.0197158
-0.157411
-0.0609738
0.300647
-0.183325
-0.0018341
0.0966722
-0.265302
-0.0666779
0.331979
0.0671238
0.248938
0.142486
0.161887
-0.304373
0.11768
0.0301889
0.0632567
-0.330089
0.266833
-0.116927
-0.257874
-0.347853
0.112907
0.234945
0.0666681
0.26731
-0.333978
0.019577
-0.123919
-4.4413e-05
-0.000747908
0.000792321
0.223356
-0.12905
0.0111472
-0.00780908
-0.00333807
0.0140285
-0.00492646
0.00411967
0.0047463
0.381274
-0.186365
-0.194909
0.0650363
-0.278255
0.213219
-0.0731533
-0.244898
0.296785
-0.208621
0.266364
-0.386428
0.120064
0.281454
-0.216418
0.378906
-0.0882599
0.210884
-0.0769876
-0.0448227
0.116327
0.000873141
-0.000852503
-2.06385e-05
-0.201991
0.323296
-0.121305
-0.000297234
-0.0189624
-0.239531
0.151265
0.088266
-0.346303
0.242909
0.103394
-0.00996781
0.23837
-0.228402
-0.293711
-0.0659246
0.37319
-0.216778
0.240265
0.396517
-0.138804
-0.257713
0.250882
-0.301229
0.0503477
0.0186323
0.0202272
-0.145616
0.236124
0.232997
0.0829958
-0.314428
0.326622
-0.0121936
0.0191987
-0.210856
0.191658
0.088361
0.234494
-0.322855
0.0281745
-0.115424
0.0872497
-0.337805
0.334816
0.00298827
0.124533
0.216617
-0.34115
-0.145802
-0.12825
-0.0945036
-0.0218412
0.116345
0.342163
-0.253652
0.19878
0.226069
-0.270179
0.0339077
-0.218451
0.0261572
0.192293
0.152286
0.258111
-0.0325471
0.0108636
0.0376562
0.178965
-0.216621
0.135641
-0.0568609
-0.205538
0.224737
-0.0652655
-0.107695
0.17296
0.109764
-0.343061
-0.296214
0.075985
0.383983
-0.234058
-0.104439
0.251873
-0.147434
0.391044
-0.323828
-0.0672162
-0.281859
-0.0669478
-0.228052
-0.0421279
0.305352
-0.210508
-0.0948441
-0.255137
-0.124632
0.0646831
0.237216
-0.301899
-0.0211869
0.0773869
-0.0562001
-0.126028
0.349482
-0.223455
0.174287
-0.245079
0.0707921
-0.329776
0.240225
-0.024024
0.143241
-0.178557
-0.00587571
-0.0007568
0.00663251
-0.0432237
0.372459
0.00591996
-0.0225594
-0.386492
0.179472
0.20702
0.160469
-0.348843
0.188374
0.238071
-0.022938
-0.215133
-0.165012
0.376436
-0.211424
-4.72387e-05
0.00092038
-0.220123
-0.0509652
-0.14684
-0.100477
0.247317
-0.210431
-0.176061
-0.332268
0.0935757
0.238693
-0.0127227
-0.0117057
0.0244284
0.224099
0.159258
0.0649467
0.188478
-0.253424
-0.110307
-0.0508062
-0.300057
0.290089
-0.0213052
0.0268893
0.182588
-0.0393473
-0.00159208
0.000590523
0.106934
0.305419
-0.0963297
-0.266451
-0.054767
-0.290596
0.0312485
0.00334901
0.000508788
0.327544
-0.202146
-0.125399
0.0270634
0.123844
0.0111268
0.00100486
-0.0121317
0.0814395
-0.0101664
-0.0712731
-0.164524
0.20218
0.369289
-0.124111
-0.245179
0.399171
-0.246885
0.175949
0.135109
-0.311058
0.00835421
-0.0108739
-0.197676
0.0048502
0.0103369
-0.296595
0.217568
-0.180658
0.000871669
0.179786
-0.0991398
0.0497506
-0.0064176
-0.217391
0.0367335
-0.139217
-0.24976
0.0102992
-0.00942295
-0.0477914
0.138865
-0.0910731
-0.227499
0.0867358
0.140764
0.216768
0.126214
-0.342982
0.0843969
0.253813
-0.265209
0.0872886
0.177921
-0.325368
0.19934
-0.150654
0.0140402
0.0653492
-0.0793895
0.28666
-0.0567763
0.102733
0.295985
-0.341082
0.106882
0.2342
0.0115948
-0.0142993
0.18052
-0.109278
-0.0712428
0.167357
0.0175977
-0.184954
0.117269
0.0442755
-0.157761
0.0733295
0.0844315
-0.000310352
0.00965462
-0.00934427
-0.00286627
0.00809447
-0.0052282
-0.00749379
0.0100311
0.0732437
0.367257
-0.239319
-0.127938
0.20788
-0.0538577
0.137266
-0.265046
0.12778
0.0678759
0.191578
-0.259454
-0.219807
-0.111454
0.331261
-0.00676303
-0.0425094
0.0492724
0.266749
-0.288552
0.0218028
0.0867704
-0.278605
0.191835
0.00192413
0.00160956
-0.00353369
-0.0657961
0.277726
0.39204
-0.235743
-0.156297
0.282304
-0.195534
-0.00703557
0.0100335
-0.00299798
-0.134178
0.0536985
0.0804798
-0.0366466
0.174623
0.194591
-0.0640244
-0.309064
-0.0415498
-0.00956886
-0.0154456
0.219976
0.172064
-0.00227464
0.00105842
0.248688
-0.208042
-0.040646
-0.130947
0.335187
-0.20424
-0.340349
9.27683e-05
0.340256
0.109184
-0.251063
0.141879
0.0572941
0.288038
-0.345332
0.369107
-0.239199
-0.129908
0.283563
-0.12697
0.273907
0.00845682
-0.282364
0.312766
0.0563409
-0.236907
0.141504
-0.136867
0.325114
-0.0482828
0.286354
-0.218449
0.316116
-0.0976671
-0.118364
-0.266966
-0.124076
0.23326
-0.00817041
-0.332178
0.357799
-0.332228
-0.0255717
0.00361104
-0.000903019
-0.00270802
0.0758119
0.0452897
-0.357186
0.137429
-0.0787926
0.222561
-0.226529
-0.119774
-0.0662386
0.0556096
0.019316
-0.000783746
0.0831457
0.143765
-0.226911
0.096978
0.0201468
-0.158386
0.13824
0.307629
-0.131679
-0.113253
0.174031
-0.0607777
-0.121445
0.0750766
0.0463684
-0.0799828
0.207767
-0.0423001
0.057171
-0.0148708
-0.306181
-0.03813
0.344311
-0.000602484
0.00147509
-0.0135816
0.0132712
0.161202
0.166157
0.0916412
-0.351034
0.259393
0.30069
-0.0954632
-0.0237953
-0.00540757
0.0141241
0.320016
0.0377839
-0.420638
0.212338
0.2083
-0.00188607
0.00104494
0.000841123
0.386655
-0.329744
-0.0569112
-0.0387236
0.030392
0.00833154
0.196469
-0.0270729
-0.169396
0.18951
-0.223082
0.0335721
-0.12184
0.0427466
0.323691
0.0629636
-0.0124745
-0.026249
0.358899
-0.0954983
4.58712e-05
0.0118606
-0.0119065
0.0451662
-0.195629
-0.0541499
-0.079662
0.133812
-0.327996
0.0218153
-0.165395
0.233271
0.0901602
-0.132502
0.0423416
0.129735
-0.230769
0.101034
0.0088357
-0.00870299
0.388255
-0.110642
-0.277613
0.172617
0.0238519
-0.00745654
0.00870813
-0.00125159
-0.141263
-0.0310367
0.1723
0.0966608
0.0838597
-0.00772247
-0.269572
0.00427055
0.229954
0.116863
-0.346817
0.0485384
-0.324312
0.275773
-0.00896455
0.0100088
-0.0010443
-0.0712463
-0.134035
-0.116694
0.346649
-0.171849
0.0282773
-0.0896359
-0.100525
0.190161
0.0158631
-0.0581632
0.00332535
-0.177046
-0.218729
0.00209818
0.0127112
0.0920124
-0.104724
0.00162139
-0.035568
0.0339467
0.224503
0.0621567
-0.0152865
0.00948444
0.00580208
0.095871
-0.12556
0.0993482
0.126912
-0.22626
0.249368
-0.15002
-0.0787672
-0.0554111
0.1286
-0.320313
0.191713
0.214288
0.152969
0.0754699
0.0216169
-0.0970867
0.356999
-0.142711
-0.106948
-0.116793
0.231582
0.114813
-0.346395
-0.251501
0.147063
0.0307662
-0.294579
0.13254
0.0361825
-0.168722
0.0144615
-0.23095
-0.0137103
-0.132417
0.0489562
0.00987008
0.221158
-0.361036
0.139878
-0.102707
0.023034
0.0796732
-0.161519
0.390091
-0.228572
0.155258
-0.316939
0.161681
-0.00038956
0.00265839
-0.0682518
-0.205221
0.0213764
0.0272166
0.00957498
0.00437314
0.157694
-0.0404258
-0.222533
0.302162
-0.0796296
0.0306671
-0.181478
0.0875509
-0.335704
0.248153
-0.202428
0.128518
0.0739099
0.157735
-0.145782
-0.0119527
-0.171695
0.287893
-0.0136739
0.0106318
0.111971
-0.331778
-0.17761
0.321485
-0.228451
0.0816102
0.315698
-0.16044
-0.0691426
0.0479558
0.256238
-0.0315209
0.36108
-0.156395
0.00090193
-0.00787977
0.00697784
0.197408
-0.331607
0.134199
0.00773367
-0.00554534
-0.00218833
0.00560056
-0.00846684
0.0196281
0.00121203
-0.0208401
-0.0128403
-0.304942
0.269555
0.0353866
-0.015618
0.217031
-0.201413
0.00597185
0.24491
0.205396
-0.336343
0.238547
-0.285353
0.0468065
0.290806
-0.153541
0.11629
-0.0108762
0.175141
-0.295048
0.119907
-0.0261689
0.318249
-0.120841
-0.21057
-0.116634
0.117669
0.197131
-0.3148
0.134755
-0.352611
0.217856
-0.135994
-0.205332
0.360293
-0.15496
-0.0625534
0.138365
-0.00588059
0.00588059
0.176351
-0.297623
0.423035
-0.243563
0.163603
-0.402113
0.23851
0.162423
0.250796
0.253458
-0.0977054
0.0305659
0.00808751
-0.149159
-0.33859
0.133257
0.113416
0.171242
0.00610987
-0.000464214
-0.00564566
0.240519
-0.313672
0.0171819
-0.0164763
-0.0365777
0.0713077
0.292159
-0.23181
-0.0603493
0.251929
-0.00376602
-0.248163
-0.356473
-0.00904683
0.36552
-0.311589
0.357172
-0.0455827
0.209811
0.133469
0.232363
0.155892
0.224807
-0.120034
-0.104774
0.101957
0.259373
0.227146
-0.242764
-0.206897
0.00878797
0.317097
-0.113115
-0.203982
-0.0169741
0.0170199
0.221672
0.297186
-0.202528
-0.0912988
0.293827
-0.289722
-0.0247063
0.321131
-0.193914
-0.164053
0.0507998
-0.34237
0.0555462
0.286824
-0.0405487
-0.0164448
0.0569935
0.324044
-0.279688
-0.0443561
0.000455065
0.0781204
0.149402
0.241642
0.0926858
-0.0343245
-0.0583613
-0.240198
-0.150376
-0.00312292
-0.0022197
0.00534262
-0.135058
0.0788688
0.0561893
-0.309442
0.106913
-0.0433331
-0.173855
0.217188
0.00201628
-0.0965199
0.289704
-0.125953
-0.16375
-0.000125149
-0.000457082
0.0872705
0.0883854
-0.151439
0.372597
0.126203
-0.332685
0.299197
-0.0824296
-0.170137
0.308458
-0.138321
0.271801
-0.221128
-0.050673
0.267337
-0.198833
0.170197
0.0651769
-0.177072
-0.117785
0.294858
-0.0108769
0.25562
-0.244744
-0.0798239
0.209559
0.403376
-0.239773
-0.0445595
-0.0673076
0.135521
-0.338555
0.203034
-0.00526548
0.000245243
0.118077
0.20335
-0.321427
-0.0800844
-0.262286
-0.305758
0.0609629
0.244795
0.0468667
0.245292
-0.273943
0.150109
0.123833
0.291
-0.114317
0.274092
-0.0355451
0.163476
0.100759
-0.264235
-0.408157
0.294187
0.11397
0.284974
-0.295851
-0.0947347
0.0647679
0.0299667
0.0142908
0.0400871
-0.0543779
0.335952
-0.0695875
-0.169352
0.224796
-0.0554432
-0.00361443
-0.0167016
0.020316
-0.0425929
0.119138
-0.231906
-0.117529
0.00106384
-0.00226738
0.315554
-0.0839717
0.0108093
-0.0164409
0.00563154
-0.104721
0.28005
-0.175329
0.239847
-0.201581
-0.0382662
-0.242971
0.205759
0.0372123
0.00591144
0.000392645
-0.00630408
-0.00327153
0.00013726
0.00313427
0.120391
-0.182857
0.134169
0.048688
-0.0838365
0.197759
-0.0353738
-0.126648
-0.369154
0.160699
0.208456
0.175528
0.247507
0.0170923
-0.0150348
-0.00205754
0.417434
-0.224807
-0.192627
-0.153931
0.368607
-0.214677
0.382074
-0.320277
-0.0617966
-0.133709
0.34352
-0.124426
-0.0301768
0.00121039
0.0289664
-0.00150454
0.00312779
-0.0223341
0.0353921
-0.013058
0.0116107
0.00822051
0.326907
0.0551662
0.00333107
0.000838577
-0.278436
0.31553
-0.0370939
0.216932
0.200502
-0.0439138
0.176453
-0.146484
0.188483
-0.0419985
-0.348405
0.194474
-0.216593
0.0106816
-0.0248735
0.0141919
-0.00942184
-0.0152844
-0.179136
0.278208
-0.0990724
0.178052
0.111651
0.238373
-0.176519
0.230941
-0.360744
0.129804
0.00656808
-0.0121538
0.0055857
0.21647
0.0553307
-0.265794
0.139841
-0.0385747
-0.226634
0.0794614
-0.133611
0.196217
-0.330841
0.134623
0.048538
0.0183973
-0.0669353
0.116435
-0.0696875
-0.046748
-0.0588219
0.110731
-0.0519094
0.327551
-0.131334
0.00136838
0.00475303
0.38033
-0.16389
-0.216441
0.0104837
0.00341933
-0.158866
0.136342
0.0225242
0.224879
0.35509
-0.219569
-0.414275
0.163949
0.250326
0.370251
-0.159014
-0.211237
0.125554
0.0987187
-0.0687508
-0.0299679
0.00168356
0.00422788
0.408794
-0.116542
-0.292252
-0.1568
0.241079
-0.0842792
-0.245412
-0.138106
-0.180587
0.192015
-0.0114278
-0.317274
-0.0391993
0.323502
-0.260245
-0.0583111
0.210788
-0.152476
-0.0189846
0.0082941
0.0106905
0.0139597
-0.0175742
-0.0677465
0.00295928
-0.011086
-0.00420055
0.0297699
-0.210357
0.00225183
-0.0112164
-0.308413
0.25199
0.0564228
0.227862
0.133218
-0.135476
0.0553492
0.0801272
-0.00135525
0.00908892
0.159025
0.023838
-0.182862
-0.186003
0.372255
0.252061
-0.00220556
0.0192979
-0.000734037
-0.0257091
0.0264432
0.0587967