/*--------------------------------*- C++ -*----------------------------------*\
| =========                 |                                                 |
| \\      /  F ield         | OpenFOAM: The Open Source CFD Toolbox           |
|  \\    /   O peration     | Version:  v2012                                 |
|   \\  /    A nd           | Website:  www.openfoam.com                      |
|    \\/     M anipulation  |                                                 |
\*---------------------------------------------------------------------------*/
FoamFile
{
    version     2.0;
    format      ascii;
    class       volVectorField;
    location    "200";
    object      ddt0(U);
}
// * * * * * * * * * * * * * * * * * * * * * * * * * * * * * * * * * * * * * //

dimensions      [0 1 -2 0 0 0 0];


internalField   nonuniform List<vector> 
37190
(
(-2.68355e-05 3.64551e-05 -4.56352e-21)
(-0.00885745 0.00088728 -6.26994e-22)
(-1.63781e-05 -0.000133591 4.60073e-21)
(-0.000889731 0.000470054 -8.41581e-22)
(0.0128612 -0.000920585 1.45523e-20)
(-0.000115864 7.27762e-05 1.62586e-24)
(-0.000532343 0.000338263 6.97351e-21)
(-0.000271998 8.01948e-05 -1.24959e-20)
(-0.000886617 0.000391179 2.46134e-21)
(0.00383286 -0.00759892 1.00058e-20)
(-5.63892e-05 3.3853e-05 -4.68779e-21)
(-8.1979e-06 -3.35853e-05 1.09621e-20)
(-0.000391965 6.05544e-05 6.97597e-21)
(-2.15076e-05 -9.18636e-06 -3.06306e-21)
(-0.0127717 -0.0115115 6.40896e-21)
(-0.000177552 0.000142787 -3.63019e-24)
(-0.000238099 0.000242339 -1.72305e-21)
(0.000152318 0.000235748 -1.83222e-23)
(-0.00761903 -0.0099406 8.13126e-22)
(-0.0118155 0.00610516 -7.46557e-21)
(-0.000319898 -3.18152e-05 0)
(-2.63463e-05 3.06621e-05 5.63208e-21)
(0.000717037 0.002643 6.25154e-21)
(-4.26789e-05 -0.0005257 -1.58111e-21)
(-0.000207119 0.000307242 -1.28368e-26)
(-0.00017992 0.000136913 -3.49842e-24)
(-0.000308191 0.000140429 5.01915e-21)
(-0.000598121 -0.00184552 -1.14393e-20)
(-0.000468792 0.00164205 -4.23625e-21)
(0.00182949 4.52214e-05 -2.49669e-21)
(0.00579608 0.0060653 -2.1301e-23)
(-6.30924e-05 5.14358e-05 2.37053e-24)
(0.00126273 -0.00251239 8.20676e-21)
(-0.00154059 -0.00870068 0)
(-0.00289942 -0.00228909 -1.02307e-20)
(-0.00107548 -0.00149909 1.07285e-20)
(9.04279e-07 -8.58895e-05 3.10849e-21)
(-5.05986e-05 -0.000512327 0)
(-0.000176391 -0.000261873 9.19317e-21)
(-0.00011784 0.000181485 3.34308e-21)
(0.00674611 -0.0032784 -3.84577e-21)
(0.00415634 0.00201422 3.64911e-21)
(-0.000186217 0.000330751 0)
(-0.00255621 0.000897697 -1.44688e-20)
(-2.33383e-05 0.000132327 3.03573e-21)
(0.0014531 0.00163401 4.96223e-21)
(0.00127235 0.000888938 0)
(-0.00245968 0.000187194 0)
(-1.27314e-05 -0.000142276 0)
(0.0128198 -0.00092581 -1.4021e-20)
(-7.21593e-05 0.000390633 4.85295e-21)
(-0.000143349 0.000227929 0)
(0.000108779 -0.00105374 -6.40623e-21)
(-0.000425174 0.000465283 2.09909e-21)
(-1.88317e-05 0.000139117 -2.45776e-21)
(-0.000139296 -0.000105631 -2.04221e-21)
(0.00387183 -0.00729401 -1.25079e-20)
(-2.06306e-06 -7.98911e-05 2.81282e-21)
(-0.00302599 -0.00428731 9.33701e-21)
(-1.58759e-05 -2.15631e-05 -2.98384e-21)
(-0.00346505 -0.00394659 -1.03017e-20)
(-0.00104924 -0.00155687 -6.79377e-21)
(3.19975e-05 -6.09015e-05 9.69722e-22)
(-0.00779047 0.000680523 1.13058e-20)
(-0.000260777 0.000201992 -4.32372e-21)
(-0.000196695 0.000318915 0)
(-8.68418e-05 -6.17737e-05 0)
(0.00109828 0.000720878 -4.46915e-21)
(-0.00043111 0.000944988 6.66382e-24)
(2.89039e-05 -5.84721e-05 0)
(-1.74087e-05 0.000134513 1.04079e-20)
(-2.93354e-05 0.000297809 1.21393e-21)
(-0.000435205 -0.00016642 -1.23388e-21)
(-0.000128575 0.000106085 0)
(-0.000119805 0.000232492 0)
(-0.000205306 -8.70204e-06 -2.41902e-21)
(0.00316646 0.00648046 -2.24428e-21)
(-0.000400189 -4.53529e-05 2.12503e-21)
(-0.00294513 0.00300075 -5.95969e-21)
(-0.000422618 -5.19615e-05 -5.11632e-21)
(-2.9471e-05 3.44258e-06 2.6657e-23)
(-0.000445259 0.000182704 0)
(-0.000124632 0.00010641 0)
(-0.000926942 0.00111385 0)
(-0.00359305 -0.000358021 0)
(-0.000234214 0.000243779 0)
(-0.00318804 -0.0079257 6.9026e-21)
(0.00201109 8.71507e-05 7.87923e-21)
(-0.0121749 -0.0112992 -1.49308e-21)
(-6.44096e-05 5.30746e-05 -2.85049e-21)
(0.00318137 0.00620963 1.55663e-23)
(0.00150907 -0.00275748 -4.50236e-21)
(-0.000193056 0.000323901 -3.7185e-21)
(-0.000130774 8.66848e-05 3.30802e-21)
(-8.1863e-05 6.81575e-05 0)
(-0.00020454 0.000313267 -3.65778e-21)
(-0.00255953 0.00277781 8.59218e-21)
(-5.56423e-05 -1.11396e-05 1.826e-22)
(-0.000850107 0.000445139 1.68192e-21)
(-0.00777352 -0.00384563 0)
(-0.000181871 0.000334942 -3.74545e-21)
(-0.00148998 0.00019567 0)
(-0.00134482 0.00660198 9.81548e-21)
(-0.0070217 -0.00288202 0)
(-3.79178e-05 0.000176713 6.91584e-21)
(-0.000227552 8.39063e-05 -3.90483e-23)
(0.00697613 0.00384737 -2.56254e-21)
(-2.68628e-05 0.000121574 -4.43146e-21)
(-8.63993e-05 -5.64835e-05 0)
(-0.000565887 -0.00431811 7.02383e-21)
(0.00494845 0.00379836 0)
(-0.00953944 -0.0104208 0)
(-0.000171942 -0.000321174 -6.4674e-21)
(-8.57781e-06 -9.43959e-05 -2.09281e-21)
(-0.000153651 -0.000100574 7.48598e-21)
(-4.49683e-05 6.56764e-05 0)
(-0.000386047 -3.74548e-05 0)
(-0.000182407 -0.000254751 -3.63663e-21)
(-0.000117749 0.000182431 0)
(-0.000281177 -0.000121899 -6.30591e-21)
(-9.76586e-05 0.000178891 0)
(-0.0153522 -0.00317738 0)
(-2.25498e-05 0.000102979 0)
(-2.72646e-05 0.000292278 -4.54493e-21)
(-6.35638e-05 2.43547e-06 4.07646e-21)
(-0.0160669 -0.00781179 2.24946e-22)
(-1.14204e-05 -8.75655e-05 0)
(-6.20336e-05 -8.62917e-06 -6.60237e-21)
(0.013745 -0.00539001 0)
(-0.000431141 0.000880286 4.44459e-21)
(-6.2649e-05 -1.039e-05 8.13029e-21)
(-0.00737022 0.00332457 -4.62004e-21)
(-0.000336447 -0.000321306 0)
(-0.00021722 0.000295679 5.09524e-21)
(-0.00181994 0.00635421 5.88111e-21)
(-0.000125715 -0.000126857 1.51507e-21)
(-0.000821632 -1.36991e-05 -5.76571e-21)
(0.00122988 0.000666905 0)
(0.00137253 0.00150093 0)
(-0.000148212 0.000362834 -4.8733e-21)
(-0.000419943 -0.000331958 0)
(-0.00065984 -0.00186728 4.42226e-21)
(-0.000855834 0.000402534 6.84178e-21)
(-0.00021331 0.000299459 -7.82991e-21)
(-7.98247e-05 5.81735e-05 -3.03803e-21)
(-0.000203736 -1.31268e-05 4.7248e-21)
(0.00418422 0.00771127 0)
(-0.000293539 -8.06838e-05 -6.27699e-21)
(0.0012371 0.000279258 2.34098e-21)
(-3.3195e-05 -2.59996e-05 0)
(-7.04874e-05 -6.44893e-06 0)
(-0.000456282 0.000281661 0)
(-0.00578376 -0.00129598 1.00534e-20)
(-4.22113e-05 2.51436e-05 1.25945e-20)
(-0.00391435 -0.00392884 -2.66207e-21)
(-3.52027e-05 -6.04152e-05 0)
(-0.00223188 0.00313195 -1.69384e-21)
(-5.54598e-05 2.90563e-05 1.07173e-20)
(0.00687384 0.00395281 0)
(-0.000770888 -6.14036e-05 2.10045e-21)
(-0.000772114 -0.000347056 2.57213e-24)
(-2.25635e-05 0.000164895 0)
(-0.00238419 -0.00155405 -4.65899e-21)
(-0.00811276 -0.00783968 0)
(-0.000448109 0.000286524 0)
(-0.000276202 -0.000121932 -3.81589e-22)
(0.00412606 -0.00102256 -8.97892e-21)
(-0.0015614 0.00179574 0)
(-0.013724 -0.0068175 1.48881e-20)
(0.00295634 -0.00701413 6.08975e-21)
(-0.000126341 -0.000124546 3.06022e-21)
(-0.00845865 -0.00822268 7.49141e-21)
(-2.19234e-05 0.000176563 0)
(-0.0003723 -9.99214e-05 0)
(-0.0153587 -0.00335815 0)
(-0.000608149 -0.00426192 0)
(-0.000173485 9.79234e-05 9.87901e-21)
(-0.000227925 0.000265026 3.95421e-21)
(-0.00106684 -0.000113038 0)
(-4.91572e-05 -0.000562596 0)
(-0.00246945 0.000838241 8.0619e-21)
(-3.60325e-05 0.000191618 0)
(-3.7968e-05 0.000183919 0)
(-6.76672e-05 -4.40589e-05 0)
(0.00570162 0.003866 -4.73121e-21)
(-8.62452e-06 0.000189398 -2.5125e-21)
(0.00156967 -0.00185401 0)
(-0.000593768 -0.000131615 0)
(0.000682007 0.00233116 2.08998e-21)
(-0.00104543 0.00418247 -1.88113e-22)
(-2.56629e-05 0.000127895 0)
(0.000126956 8.02845e-05 -1.93633e-21)
(-2.0556e-05 -7.56582e-05 3.89227e-21)
(-2.97837e-06 -0.000392981 7.25027e-21)
(0.00198154 -0.0129977 -7.51605e-21)
(-0.000346782 -0.000330856 -8.81051e-21)
(-0.000132501 0.000184992 0)
(-0.000324281 0.000190176 1.09952e-21)
(-0.00688162 -0.00429766 -8.87193e-21)
(-0.00584055 -0.00862691 -5.71271e-21)
(-0.0020933 -0.000121394 1.06432e-21)
(-5.81615e-05 -3.96065e-05 0)
(-6.91248e-05 -8.99449e-06 3.68042e-21)
(-1.08199e-05 0.000157514 0)
(-0.00720542 -0.00733587 2.83104e-23)
(-0.000406937 -3.65537e-05 -3.94981e-21)
(-0.000535299 0.000314473 0)
(-0.000109857 0.000369489 2.43989e-21)
(-9.67126e-05 0.000170747 0)
(-0.00252695 -0.0076583 -6.82712e-21)
(-4.88516e-05 2.22799e-05 -7.46608e-21)
(-0.0135865 -0.00652528 8.30683e-21)
(-5.95843e-05 -4.09737e-05 -3.32784e-21)
(-0.000453213 -8.66834e-05 1.76262e-21)
(-0.00702325 0.00359474 1.52411e-21)
(0.000113031 0.0015239 0)
(0.00124972 0.000166153 -3.12885e-21)
(0.00100565 -0.000103229 0)
(-0.00126209 -0.00884352 2.04429e-21)
(-4.15395e-05 8.65187e-05 4.35443e-21)
(-0.00392776 -0.0042574 -5.31006e-21)
(-7.93906e-06 -3.02987e-05 -1.29089e-20)
(-1.60629e-05 7.23159e-05 7.56948e-22)
(-0.000293947 0.000786694 0)
(0.00687298 0.00309247 0)
(-1.31926e-05 3.99746e-05 -1.12876e-21)
(-0.00464348 0.00255417 0)
(-8.35666e-05 6.95697e-05 -4.29209e-21)
(-0.000528048 -0.00010603 3.90168e-21)
(0.00258778 0.000276664 -5.71713e-21)
(-0.000174878 0.000341422 -3.35786e-21)
(-6.10125e-05 0.000149094 -1.28638e-20)
(-1.56142e-05 -2.04388e-05 -4.95563e-24)
(-0.00170333 -0.00758586 -4.41017e-21)
(-0.000612564 0.000103884 0)
(-0.00231019 0.000268777 6.85032e-21)
(-0.00128648 0.000988282 0)
(0.00198066 -0.000715806 5.94026e-21)
(2.2196e-05 -4.99513e-05 1.11398e-21)
(-0.000159935 -0.000112402 -6.47361e-21)
(-0.00108866 2.93041e-05 2.75134e-21)
(-7.29319e-06 0.000185063 -1.10147e-21)
(-0.007524 -0.00709544 -8.04453e-21)
(-0.00014861 0.00022179 1.91336e-21)
(-0.000168935 0.00012391 0)
(0.00247629 0.00939776 5.01355e-21)
(-5.64055e-05 -1.87227e-05 -2.92468e-21)
(0.0130197 -0.000779131 0)
(0.00137095 -0.002558 8.55787e-21)
(-0.000548401 0.00121148 2.28988e-22)
(-0.000149403 -0.000128159 -5.47904e-21)
(-0.00072218 -0.00198136 0)
(-5.99098e-05 0.000141486 1.09449e-20)
(-0.000429297 0.000197465 5.57293e-21)
(-0.000388745 -7.62783e-05 -5.03539e-21)
(-2.11336e-05 0.00013501 -5.01252e-21)
(0.000102364 4.74697e-05 0)
(-1.07852e-05 0.000207026 4.81541e-21)
(-0.000798229 -1.85425e-05 9.07498e-21)
(-5.39415e-05 -1.9147e-05 -3.03352e-21)
(0.0129672 -0.000756476 3.50095e-21)
(-0.000472239 -0.000303485 6.76225e-21)
(-3.18744e-05 -2.55955e-05 -3.92595e-22)
(0.00644352 0.00584857 -3.33841e-21)
(-0.000232564 -0.000128072 0)
(-8.29027e-05 -5.54835e-05 8.99354e-22)
(-4.25355e-05 -3.2672e-06 0)
(-0.000170929 0.000345906 3.45538e-21)
(0.00652805 0.00341072 0)
(-4.6229e-06 -7.64478e-05 -3.07977e-21)
(-0.0055384 -0.00152597 8.08431e-21)
(0.00202943 -0.00133374 1.21153e-21)
(-0.000873421 -0.00884431 -4.10693e-21)
(-0.000405373 0.000484304 2.16921e-22)
(0.000991307 0.000446742 -4.94594e-21)
(-3.4333e-06 -0.000174644 3.39697e-21)
(-0.000119804 -9.18716e-05 4.43926e-21)
(0.00960937 0.00193021 3.18828e-21)
(-0.000467538 -0.000843579 7.2098e-21)
(-0.000419397 -0.000350394 5.21018e-21)
(-0.000493999 0.00164225 -4.89179e-21)
(-3.40287e-05 0.000298231 -1.19372e-20)
(-9.27394e-05 -0.00100651 3.14387e-21)
(0.00692458 -0.00306254 -3.61101e-21)
(-0.000225783 -0.000126465 -6.05961e-21)
(-0.000419828 -0.000138156 0)
(-2.72157e-05 -0.000208163 9.28063e-21)
(-3.26327e-05 0.000290884 7.02345e-21)
(-0.000559902 0.000292832 6.97165e-23)
(-2.03407e-05 0.000149646 5.21199e-21)
(2.30526e-05 -0.000299841 -9.39067e-21)
(-0.00242868 -0.00296831 1.83718e-21)
(-0.000288393 0.000765039 0)
(-0.00036143 0.000130428 4.55663e-21)
(0.00104513 0.000437058 8.25722e-21)
(-1.76282e-05 3.48723e-05 -1.64082e-23)
(-0.000150469 -0.000116762 0)
(0.00597127 0.00357114 0)
(-0.000926077 -0.000344287 0)
(-6.8038e-06 -7.03101e-05 0)
(-0.00226649 0.00286239 0)
(0.000172174 0.0083879 -4.05563e-21)
(-0.000110392 0.000397464 1.63092e-21)
(0.000261258 -0.00649552 -1.4346e-20)
(-6.752e-05 -5.53727e-05 3.48458e-22)
(-1.58945e-05 -7.68663e-05 -9.9999e-21)
(-8.39449e-05 -6.05219e-05 -2.43878e-22)
(-9.74563e-06 0.000205242 -2.31e-21)
(-0.0017502 0.00134474 0)
(-0.000365923 -0.000101455 1.8736e-21)
(5.85127e-07 3.0677e-06 2.0366e-21)
(0.00521778 0.00499214 1.17828e-20)
(-0.000600071 0.000106346 -7.18052e-21)
(-0.00151968 0.000158089 -3.66874e-21)
(0.00190478 -0.000603888 7.01056e-21)
(0.000942586 0.000558652 -4.58481e-21)
(-0.000454732 0.000183441 -7.42854e-21)
(0.0157998 -0.00535839 0)
(-0.000796514 0.000234162 -8.13026e-21)
(-1.36895e-05 -8.38405e-05 0)
(-1.16335e-05 3.7759e-05 5.31328e-24)
(-0.000237463 0.000490735 0)
(-0.000613865 -0.00859362 0)
(-0.000166946 -0.000140234 0)
(0.00328475 0.00706519 -2.58519e-21)
(-0.000908174 -0.00656286 -9.17059e-21)
(-0.000117395 0.000285727 -5.91109e-21)
(-0.00717753 -0.00426646 1.35908e-20)
(-4.18035e-05 -9.05184e-06 0)
(-0.00432088 -0.00280681 -4.36024e-21)
(-0.000631542 -5.62664e-05 0)
(-0.000916096 -0.000408244 -2.57587e-21)
(-0.000169263 5.93372e-07 -3.50433e-24)
(0.00617389 9.27267e-05 0)
(-0.00559538 -0.00142148 -1.28696e-20)
(0.00926285 0.0021494 3.96184e-22)
(0.0107155 -0.0103304 0)
(-0.000550113 0.000762196 -4.19712e-21)
(-0.00023653 -9.44923e-05 6.40697e-21)
(-0.00760318 0.000467454 -5.92717e-21)
(-0.000240705 0.000173009 8.18585e-21)
(4.60528e-05 -0.00640758 1.18818e-20)
(-0.000155754 -0.000105472 0)
(-0.000133078 -0.000107973 0)
(0.00751848 0.00352811 -3.34107e-22)
(-0.00203187 -0.00010403 1.20148e-21)
(0.00261776 -0.00713529 -1.20588e-20)
(-2.13294e-07 2.6288e-06 -2.17544e-21)
(-7.73945e-05 3.55732e-05 4.33899e-21)
(-2.63604e-05 -3.15855e-05 -1.05625e-20)
(-2.83296e-05 0.000183846 4.66952e-24)
(0.00868779 0.00811512 2.58399e-21)
(-0.000140373 9.19918e-05 -5.57005e-21)
(3.59191e-06 -0.000184016 0)
(-0.000417928 0.000167665 3.26133e-22)
(-0.00316035 0.00927595 0)
(-7.15118e-05 -5.41634e-05 5.97067e-21)
(-0.0114378 -0.0108288 6.08284e-21)
(-0.000582301 -0.000461358 8.43043e-21)
(-0.000267761 8.36507e-05 9.671e-21)
(-0.000706177 6.90351e-06 -3.84908e-21)
(-0.00408647 0.00265679 6.6749e-21)
(-0.000560563 -0.000320827 5.14755e-21)
(0.00714765 0.00379109 0)
(-0.000435266 6.70866e-05 5.5528e-21)
(1.88456e-06 0.000755405 1.00561e-20)
(-5.57162e-05 0.000144981 0)
(-4.30694e-05 -1.30741e-05 0)
(-0.00229334 -0.00264416 -3.94443e-21)
(-0.000457422 -8.99372e-05 -5.93803e-21)
(-0.000237921 0.000170563 -6.26696e-21)
(-0.000269199 0.000763275 -2.34623e-21)
(-0.000432001 5.69423e-05 8.25937e-21)
(-0.000179788 0.0082268 3.60776e-21)
(-0.000296 -8.32786e-05 0)
(0.00133303 -0.00202782 -1.09711e-20)
(-0.000482016 0.00126131 -5.16037e-21)
(-0.0011746 0.00435487 -3.0259e-21)
(-0.000211225 0.00114172 0)
(-0.00373056 0.00245746 -8.23076e-21)
(-0.0115091 -0.00251504 0)
(0.000509645 -0.00147988 -9.17367e-21)
(-0.0187638 -0.0121717 0)
(-0.000541685 -0.000130355 -5.00337e-21)
(-0.000549561 0.000266051 0)
(-0.0125252 -0.0107431 0)
(-0.000333334 0.000214485 -6.31366e-21)
(-0.000519077 -0.00010381 -6.81301e-24)
(-0.00227487 0.00016209 0)
(-0.000238774 0.000500964 -3.09999e-21)
(3.17004e-05 -0.000300686 8.90819e-21)
(0.00185574 -0.00460296 0)
(-0.000408035 -5.67413e-05 -1.44137e-21)
(-0.000159034 -0.000107926 -4.16712e-21)
(-0.000231226 0.000269642 -9.41881e-21)
(-7.60179e-05 -4.05678e-05 0)
(0.00343338 -0.0107381 -8.62344e-21)
(-0.000397613 6.07341e-05 -3.20009e-21)
(6.80398e-07 -2.0585e-06 -4.06098e-24)
(0.000950323 -0.000202452 0)
(-4.20937e-05 -1.09315e-05 0)
(0.00210281 0.00664509 6.27911e-21)
(-0.000308782 5.46728e-05 0)
(-0.000100633 0.000188909 6.61659e-21)
(-0.000236721 0.000262333 4.39526e-21)
(-4.13959e-05 -1.12198e-05 -1.04226e-21)
(-3.48116e-05 4.58757e-06 -2.34391e-21)
(0.0127098 -0.00102381 -9.93003e-21)
(-0.000232352 -9.37877e-05 -1.22321e-20)
(-4.24562e-05 -8.9081e-06 0)
(-0.000196949 3.14091e-05 -2.34034e-21)
(-0.00447781 -0.0146773 4.71319e-21)
(0.00092257 0.000714922 9.68189e-24)
(-2.67327e-05 -0.000202322 -5.40859e-21)
(-0.000166061 5.03978e-06 -5.26937e-21)
(-4.5204e-05 6.8786e-07 -1.78912e-21)
(-0.000913257 -0.000233481 8.33192e-21)
(-6.29143e-05 8.39301e-06 0)
(-1.07262e-05 -6.07358e-05 0)
(-4.76413e-05 2.33251e-05 -4.83081e-21)
(0.00200542 0.00685764 -4.80608e-21)
(0.000478714 -0.0015889 9.80894e-21)
(-0.0137204 -0.010972 -7.55103e-22)
(-7.74491e-05 3.37383e-05 -9.77641e-21)
(-8.85823e-06 -6.68919e-05 0)
(0.000858619 -0.000175211 0)
(0.00586729 0.00400649 5.0103e-21)
(1.33293e-07 -3.63161e-07 -4.34255e-21)
(-0.00029419 1.7645e-05 3.03307e-21)
(-9.92292e-05 0.000107177 4.00154e-21)
(-0.00101165 0.00135901 -1.52172e-21)
(-4.09101e-05 -6.66626e-06 -6.69859e-21)
(-0.000313296 4.88968e-05 3.63282e-24)
(-0.000994657 0.000286215 0)
(-4.5056e-05 0.000357302 9.94601e-21)
(-0.00514987 -0.00178623 -8.97229e-24)
(-4.59987e-05 -1.87252e-06 0)
(-0.000123806 -0.00106278 0)
(-0.000224052 7.90766e-05 2.97391e-22)
(-0.000135901 -0.000136214 0)
(-0.000210343 0.000236423 -5.31498e-21)
(-6.91092e-05 -4.4618e-05 0)
(-0.00698432 0.000446666 5.67071e-21)
(-0.000229483 0.000256983 -6.82394e-21)
(-0.000163143 -0.000144558 -2.04778e-21)
(-0.000879936 -0.00657228 -9.68195e-21)
(-0.0183452 -0.0124325 -1.15036e-20)
(-3.4798e-05 -9.9636e-06 -7.41653e-21)
(0.00433665 0.00728667 -4.97385e-21)
(-0.000220117 5.65848e-05 0)
(-0.000836045 -0.000202147 0)
(-0.00042554 -0.00650306 -1.11335e-20)
(-4.55003e-05 6.94411e-05 -6.79926e-21)
(0.0125805 -0.00117053 6.6402e-21)
(-5.82944e-05 -1.64306e-05 -6.24123e-21)
(-0.00750351 -0.000958656 0)
(-2.26264e-05 -6.87488e-05 -4.10524e-21)
(-3.95382e-06 2.72653e-05 0)
(-0.000377216 -6.40411e-05 7.72508e-21)
(-2.83288e-05 -3.08749e-05 7.76852e-21)
(-0.00827561 0.000708766 0)
(-0.000695201 -0.000650729 -8.80502e-21)
(-2.95885e-06 -1.52095e-06 0)
(-0.0123393 -0.0109608 -3.5681e-23)
(0.00104638 0.000846611 9.05099e-21)
(-4.30236e-05 -8.7602e-06 -3.23462e-22)
(0.00239123 -0.00681573 0)
(-0.00458432 0.00924758 4.42815e-21)
(-0.000210592 -0.000108488 3.64562e-21)
(-9.18057e-05 -9.86747e-05 5.51554e-21)
(-0.000881643 -0.000231797 -8.47974e-21)
(0.00557451 0.00428299 4.9541e-21)
(-0.00750954 -0.00374446 0)
(0.000197291 0.0033427 -8.05992e-21)
(0.00111925 -0.00651815 -2.73079e-24)
(0.0033776 0.00684352 0)
(-0.00068849 3.88588e-06 3.89363e-21)
(0.00375427 0.00637481 -2.52626e-21)
(-6.91879e-05 0.000386739 -4.9063e-21)
(-0.000115232 6.82035e-05 -5.82474e-21)
(-2.65155e-05 -5.98841e-05 0)
(-0.000211469 -0.000145653 4.02684e-21)
(-0.00907236 -0.00836555 7.69604e-21)
(-0.00705225 -0.0107143 -1.09564e-20)
(-0.000101041 -0.00012425 4.59295e-21)
(-0.000451996 -0.000867056 -4.78541e-21)
(0.000420711 9.07895e-05 0)
(-1.78614e-05 7.64772e-05 0)
(0.00252484 0.000322807 0)
(-0.000530553 -0.000132791 4.34484e-21)
(-0.000151477 -0.000249639 7.48969e-21)
(-0.000406793 0.000172717 -3.48245e-22)
(-0.000136 -0.000138537 -3.58406e-21)
(0.00489396 -0.00475332 -1.46838e-20)
(-0.000842507 0.00151632 6.12757e-21)
(-0.000426306 0.000475864 0)
(-0.00016343 -0.000143633 1.73336e-21)
(-0.000108767 -0.000122481 -5.02646e-21)
(-0.0023239 0.00324148 0)
(-0.00263486 -0.00146347 6.03581e-21)
(-0.000302696 8.21792e-05 4.91624e-22)
(-9.67785e-07 1.32197e-06 2.25538e-21)
(-0.000216338 -0.000144671 -1.06378e-23)
(-0.00794085 -0.0101479 4.86778e-21)
(-0.000400169 -5.25872e-05 -4.34972e-21)
(0.00372866 0.00238295 6.57293e-21)
(-0.00487574 -0.0104392 -1.0124e-20)
(0.0121681 -0.00953101 5.55823e-21)
(0.00726491 0.0057551 3.98639e-21)
(-4.34293e-05 0.00035347 -8.11609e-21)
(-0.00136712 -0.00683418 8.37258e-21)
(-5.70942e-07 6.0772e-07 3.67108e-21)
(0.00155837 -0.00160417 -5.92067e-21)
(1.6769e-05 -0.000206124 0)
(-0.00151128 0.000674065 -4.84735e-21)
(0.000266927 0.00266116 1.02277e-20)
(-0.000685395 -0.000624287 9.03816e-21)
(-6.03449e-07 -0.000175694 -2.39853e-23)
(-4.07863e-05 -8.6296e-06 7.03619e-21)
(0.000529148 0.0008453 0)
(-0.000359809 -6.88252e-05 0)
(-0.00255157 -1.93272e-05 -8.01701e-21)
(-0.00722891 0.00883677 8.20918e-21)
(-0.00125339 -4.6425e-05 0)
(-0.000165793 0.000124926 4.35561e-22)
(-0.000406539 -4.87282e-05 -3.71334e-24)
(-0.000644544 -5.29333e-05 0)
(-0.00023457 0.000249894 7.61166e-21)
(-0.00152559 0.000712104 5.00904e-21)
(-3.29605e-08 -2.1707e-06 0)
(-0.000987671 0.000260465 0)
(-3.06613e-05 -5.23209e-05 -2.76033e-21)
(-0.00205478 -0.00894615 0)
(-7.38264e-05 1.57085e-05 4.97576e-21)
(-2.08787e-05 0.000156727 -4.67513e-23)
(-0.00700709 -0.00278093 4.22473e-21)
(-6.08421e-05 5.07321e-05 0)
(-3.81074e-05 0.000179058 0)
(-0.000135751 0.00018563 -1.02208e-20)
(-0.000186221 0.000340165 8.00244e-21)
(-1.15434e-08 -2.06233e-06 5.44184e-22)
(4.06543e-07 -4.61723e-06 0)
(-0.000556406 0.000784913 3.15743e-21)
(-0.000342715 -6.8683e-05 0)
(-0.0129457 -0.00421144 0)
(-4.15927e-05 2.30038e-05 0)
(3.96718e-05 -0.000575235 1.55265e-20)
(-0.00109201 -0.000386198 -6.20466e-21)
(-0.000409086 0.000501227 -1.13061e-21)
(-9.36338e-05 2.95287e-05 0)
(-4.70121e-05 1.30175e-05 0)
(-7.78342e-05 -0.000532992 7.67274e-21)
(-0.000476885 0.000147768 -4.63534e-21)
(0.0131497 -0.000411745 0)
(-0.00252597 -0.00249527 -1.9454e-21)
(-4.79143e-05 2.17541e-05 4.906e-21)
(-0.000179075 -0.0003074 1.42948e-20)
(-0.000488293 -0.00268451 -5.29603e-21)
(-0.00570403 -0.00841017 0)
(-4.24132e-05 -1.11025e-05 0)
(-1.48039e-05 -4.14098e-05 -5.38301e-21)
(0.00247208 -0.00027146 -1.0645e-20)
(-0.00380426 -0.00839728 0)
(-0.00851329 -0.00110897 1.76052e-21)
(0.0130724 -0.000587312 -3.46013e-21)
(-0.000220906 4.82638e-05 0)
(-0.000409084 -3.31642e-05 -3.54809e-21)
(-1.80525e-05 5.39705e-05 -7.22997e-21)
(-0.013433 -0.00389226 1.45064e-21)
(0.000716935 0.00892544 3.99726e-21)
(-0.000161937 -0.000624793 0)
(-0.000297757 8.93393e-05 -4.67079e-22)
(-0.00331186 -0.0144842 -5.14847e-21)
(-2.22549e-05 0.000820543 3.56612e-21)
(-0.000121463 -0.000133197 0)
(0.00111115 -0.000126251 -4.41446e-21)
(0.0131394 -0.000627431 -3.79992e-21)
(-0.0129648 -0.0111059 0)
(-0.000163834 -0.000138638 -5.26622e-21)
(-0.00112208 -0.000356738 6.43475e-21)
(-0.000983406 -0.000244045 -7.39674e-21)
(-0.000159171 -8.34515e-05 1.2936e-20)
(-0.000174236 -0.000274421 2.09768e-21)
(-9.37554e-05 0.000160217 3.43175e-21)
(0.00340892 0.00653954 4.83955e-21)
(-0.00698886 -0.0103151 -2.34468e-21)
(-8.87897e-05 -9.4912e-05 0)
(0.00930605 0.00821955 -2.25558e-21)
(-0.0147245 -0.0130467 7.60588e-21)
(-2.28555e-07 1.41809e-05 5.65713e-21)
(-0.00042169 0.000720354 0)
(-6.30507e-05 -2.02475e-05 3.07633e-21)
(-0.0022267 -0.00250351 -3.00851e-21)
(-0.000543021 -0.000127157 5.17434e-21)
(-5.30991e-05 8.85099e-05 2.97955e-21)
(-0.00287718 6.379e-05 0)
(-0.0112767 -0.0107137 0)
(-0.000568994 -0.000113695 -5.57265e-21)
(-0.00221943 0.00185774 -4.57484e-21)
(-6.31758e-05 -1.96325e-05 -3.87857e-21)
(-0.000226693 0.000199649 6.21256e-21)
(-0.00014851 -0.000619067 -4.08663e-21)
(-0.000400385 0.000165205 6.85109e-22)
(-0.000365989 -6.7117e-05 -2.43784e-21)
(-0.00123455 0.000646511 -5.03296e-21)
(-6.29144e-05 2.56021e-06 -3.60979e-21)
(-0.00090298 -0.00037811 0)
(-9.08411e-06 0.000142926 0)
(-0.00950767 -0.00873103 0)
(-0.00031698 -0.000128948 -6.41337e-22)
(-7.34199e-05 5.34925e-05 8.11466e-21)
(-0.00141696 0.000674165 -5.71218e-21)
(-2.15875e-05 -3.61313e-05 4.68426e-21)
(0.00620704 0.00422718 -4.98219e-21)
(0.00086356 0.000332249 0)
(-4.05305e-05 -1.14438e-05 0)
(-0.00903603 0.000992555 0)
(-1.47046e-05 -5.12239e-05 -6.23455e-24)
(-0.000198033 4.04456e-05 -2.23451e-22)
(-7.27104e-05 -0.000527337 7.12744e-21)
(-4.08483e-05 -1.32087e-05 -3.69603e-21)
(-0.000454626 -0.000521064 1.63292e-21)
(-0.00040803 -4.57714e-05 -5.41405e-21)
(-7.3256e-05 5.45557e-05 -1.03509e-20)
(-0.000568215 0.000240226 -1.15319e-21)
(-0.000104811 0.000107986 -6.50391e-21)
(4.44312e-05 -0.0021831 1.85787e-21)
(-0.0143762 -0.0134652 -1.31215e-21)
(-5.46181e-05 -1.7885e-05 -3.92897e-21)
(-9.00959e-05 0.00010198 4.00665e-21)
(-0.00884523 -0.0102424 -3.32832e-21)
(1.45657e-07 -1.48077e-07 1.75098e-24)
(-1.3008e-05 -5.69362e-05 -3.22134e-21)
(0.000930784 0.000905564 -1.31181e-20)
(-0.000377664 0.000543544 -3.06282e-22)
(-0.000155846 0.000467701 -1.88932e-21)
(-0.000773653 -0.000613971 -3.95929e-21)
(-0.00028788 9.68001e-05 0)
(-0.000128959 9.43886e-05 -1.24159e-20)
(-0.000130029 0.000383556 3.89456e-21)
(-0.00640921 -0.0108907 1.1103e-20)
(0.00271388 -0.00363447 0)
(-0.000180619 -0.00660337 9.25418e-21)
(-0.000394596 -0.00407136 0)
(2.5011e-05 -5.26905e-05 -5.81907e-24)
(-0.00116654 -0.00771794 1.0661e-23)
(-6.81266e-05 0.000376872 4.926e-21)
(-0.000319726 -0.000116514 -3.63836e-21)
(0.00776452 0.0054041 -6.98468e-24)
(-0.00546083 -0.00187785 2.24406e-21)
(-0.00101233 0.000222332 -5.57331e-21)
(-5.69903e-05 -1.7126e-05 0)
(-0.00565063 -0.00173152 0)
(-0.000222478 0.000291843 0)
(-0.00606038 -0.000508278 4.09363e-21)
(-0.00044272 -0.00469509 0)
(-0.000442813 0.000309946 7.14601e-21)
(0.0039623 -0.0024776 2.59467e-21)
(-0.000224841 6.99295e-05 0)
(0.000923735 0.000384525 0)
(-0.000883939 0.0010588 2.34232e-21)
(-0.000314766 -0.000118158 0)
(-0.000407839 -5.17836e-05 -5.36261e-21)
(-0.000771209 -7.40873e-05 5.19475e-24)
(-0.000831024 -3.12049e-05 -4.44299e-21)
(-0.000467798 -0.000369463 1.13061e-20)
(2.1272e-05 -4.07296e-05 -2.12782e-21)
(-0.00105259 -0.00304078 0)
(-6.31166e-05 -2.82795e-06 6.78117e-21)
(-0.00244322 -0.00264387 -2.00418e-21)
(-0.000827588 0.000366191 0)
(-0.000104078 0.000110318 0)
(-0.000736775 -0.000596601 -6.90753e-21)
(0.0106805 0.00135984 7.29599e-21)
(-3.18094e-05 0.000201535 -5.82598e-21)
(-4.16754e-05 1.87857e-05 -4.01619e-23)
(-0.00715097 -0.00420432 0)
(-0.000122325 0.000255439 -4.3942e-21)
(-0.000128008 -9.74735e-05 0)
(-0.000397345 0.00124114 0)
(0.000403122 0.000162605 -3.22545e-21)
(-0.0122013 -0.00434483 -1.07435e-20)
(-0.000535026 -0.000112216 -5.48579e-21)
(-4.48327e-06 -1.19925e-05 0)
(-0.00117176 -0.00408263 0)
(-0.00259684 -0.00113562 0)
(-0.00345516 -0.000280289 0)
(-0.000232155 0.000256885 -4.3685e-21)
(-0.000562894 -9.75224e-05 -7.28577e-21)
(-0.00124415 0.000581352 0)
(-0.000306056 -0.000119297 -3.28637e-21)
(-0.00242433 0.00344653 5.20081e-21)
(-5.7343e-05 0.000152017 8.11509e-22)
(0.000427614 0.0001401 -1.01181e-20)
(-0.000147685 0.00022474 -2.09625e-21)
(0.00507327 -0.0109868 -5.53715e-21)
(-7.11019e-05 0.000381829 4.92652e-21)
(-0.000482114 -9.49186e-05 -1.68862e-21)
(0.00460179 -0.00463174 0)
(4.7169e-06 -9.26167e-05 0)
(-0.000389066 0.0010811 5.18323e-21)
(2.8779e-06 -9.22696e-05 -5.63916e-24)
(-0.000139845 0.000181131 5.77546e-24)
(0.00636135 -0.00615987 -5.52433e-21)
(-0.000152909 -8.58798e-05 -5.38108e-21)
(0.001155 0.00057855 -7.48051e-21)
(-5.54379e-05 7.46376e-05 0)
(0.00640726 1.03444e-05 4.4182e-21)
(-0.000137643 9.52995e-05 6.27722e-21)
(-5.4414e-05 8.35094e-05 -1.80089e-21)
(-0.00130589 0.000856283 -2.74925e-22)
(-1.96672e-05 -9.68954e-06 -9.86421e-22)
(0.00299277 0.00608642 -6.71438e-21)
(-0.000127262 -0.000102848 0)
(-0.00047968 0.000153944 1.97856e-21)
(-2.03264e-05 0.000171141 4.66408e-23)
(2.15193e-07 -4.7854e-07 3.7816e-21)
(-0.00530074 -0.00229618 1.40391e-20)
(-0.000504352 0.000983033 4.47851e-21)
(-0.019011 -0.0100419 2.90792e-21)
(0.00153562 0.00690332 -4.84087e-21)
(0.0011781 0.000533756 5.45173e-21)
(-0.00413965 -0.0110118 1.57469e-20)
(0.000605754 -0.00331739 -2.28623e-22)
(-0.000131863 -0.000125799 0)
(-0.000217371 -0.000140011 5.29191e-21)
(0.00251357 -0.000332141 0)
(-0.0126137 -0.010993 0)
(-8.95154e-05 9.76641e-05 -1.55249e-21)
(0.000409041 0.000105622 -2.11466e-22)
(0.00115163 -0.00387695 -8.81688e-21)
(0.00152946 -0.00194134 -6.46137e-21)
(-0.000499992 -9.74442e-05 8.90969e-21)
(-0.000460002 -0.000760369 -1.72776e-21)
(-0.00315629 -0.0061456 -7.85937e-21)
(-0.000117163 -9.44785e-05 -5.44462e-21)
(0.000223484 0.000200688 -1.05483e-23)
(-0.00168076 -0.00392302 0)
(-0.00101706 0.000245009 6.10038e-21)
(-0.00249196 0.00025573 0)
(-0.00294428 -0.00603391 -8.51919e-24)
(4.53118e-05 -0.000567971 -1.22519e-20)
(-0.000358352 -0.000102931 8.9868e-21)
(-2.32913e-05 -5.3794e-05 0)
(-0.00794383 -0.00979657 2.82756e-21)
(-0.0089798 0.000540356 2.7532e-21)
(-1.6002e-05 -3.81088e-05 9.13858e-21)
(-0.00065178 0.00115434 -1.29128e-21)
(-0.0060947 -0.00385556 4.40288e-21)
(-0.000484874 -0.000297188 -8.81654e-25)
(0.000988813 0.000382568 1.49044e-21)
(-0.00115203 -0.00149393 -2.64951e-21)
(0.0109887 0.00117533 -8.97976e-21)
(-0.000104272 0.000205072 -7.32578e-21)
(-0.000357587 0.00119035 0)
(-0.000939885 0.0010905 0)
(-0.00275861 0.00365974 -9.04173e-25)
(-0.000409741 -5.27997e-05 1.3144e-21)
(-8.67833e-05 8.20725e-05 8.66195e-21)
(-0.00343606 0.00469363 -7.99893e-22)
(-0.00300284 -0.00240667 0)
(-0.000591603 0.000124756 -4.08025e-21)
(-3.50075e-05 0.000181862 -1.39096e-21)
(-0.0008036 -0.000352513 5.47902e-21)
(-4.44778e-06 -1.16796e-05 0)
(-0.00130727 0.000944481 -4.54602e-21)
(-0.000108898 0.000398039 2.84938e-21)
(-0.00023381 -0.000102753 5.05594e-21)
(-0.000307349 -3.60343e-05 0)
(-6.92728e-05 0.00026648 3.91277e-21)
(-0.000310741 -9.61596e-05 -7.21654e-21)
(-2.26892e-05 -0.00216392 0)
(-0.00091069 -0.000307973 0)
(6.64235e-05 -0.000568853 1.75395e-21)
(-0.000974802 -0.000641482 1.99322e-21)
(-0.000335322 -1.77995e-05 -1.45883e-23)
(-0.00145205 0.000912203 0)
(0.00101338 3.50121e-05 1.92802e-21)
(4.75592e-06 -0.000191788 0)
(-0.000308455 -0.000118655 0)
(-7.17323e-05 0.00027091 2.12254e-21)
(-4.31352e-05 8.05367e-05 0)
(0.00163321 0.00673815 -1.23464e-21)
(0.00483374 0.00405718 0)
(-0.00106703 0.000356889 -2.74698e-21)
(-6.36796e-05 0.00014691 0)
(-0.000125 0.000387107 -7.3253e-21)
(-0.000127397 0.000174703 0)
(-0.000283449 -0.000114853 0)
(0.013157 -7.08579e-05 -3.84951e-21)
(-4.24497e-05 2.07343e-05 -8.80711e-21)
(-0.000402299 -9.78839e-05 2.9985e-21)
(-0.000705153 -2.62952e-05 1.00313e-20)
(-1.35573e-05 5.23161e-05 -4.96642e-21)
(-0.000141288 -0.000124131 -5.44105e-21)
(-9.94072e-05 -0.000122118 -3.40383e-21)
(-0.000219006 -0.000136623 -1.3695e-21)
(-0.000371373 0.00053245 1.15786e-21)
(-7.37872e-05 0.00026334 5.84598e-21)
(0.000122215 -0.00103702 1.22153e-20)
(-0.000433012 -0.000764582 0)
(2.57177e-07 -3.21202e-07 1.68922e-21)
(-8.46069e-05 7.40247e-05 0)
(0.0046041 0.0069832 1.0234e-20)
(0.00579019 0.00616225 -7.63404e-21)
(9.50302e-06 -4.93648e-06 0)
(9.81598e-06 -0.000100209 -3.1836e-21)
(1.82618e-05 -0.000213186 2.60332e-21)
(0.000154065 -0.00109713 3.78581e-21)
(0.000120353 -0.00107336 0)