/*--------------------------------*- C++ -*----------------------------------*\
| =========                 |                                                 |
| \\      /  F ield         | OpenFOAM: The Open Source CFD Toolbox           |
|  \\    /   O peration     | Version:  v2012                                 |
|   \\  /    A nd           | Website:  www.openfoam.com                      |
|    \\/     M anipulation  |                                                 |
\*---------------------------------------------------------------------------*/
FoamFile
{
    version     2.0;
    format      ascii;
    class       volScalarField;
    location    "200";
    object      ddt0(omega);
}
// * * * * * * * * * * * * * * * * * * * * * * * * * * * * * * * * * * * * * //

dimensions      [0 0 -2 0 0 0 0];


internalField   nonuniform List<scalar> 
37190
(
1.58466e-07
0.0425981
-8.54237e-07
-3.32555e-05
-0.025343
7.05511e-07
8.72497e-05
1.01284e-05
-0.000133497
-0.000784988
-7.83605e-07
-5.15565e-07
-1.14865e-06
1.92232e-07
-0.0420054
3.39035e-06
1.21051e-05
0.000424579
-0.101076
-0.14906
2.78213e-06
1.44965e-07
-0.00148016
-9.61899e-07
1.14553e-05
3.62373e-06
0.000104117
-0.000329367
0.00609511
-0.0338642
0.0601087
-2.64439e-07
-0.000687425
-0.000660485
-0.00054723
-0.000316121
-3.3552e-07
-1.20798e-06
-3.89027e-06
-2.33067e-06
-0.000919477
-0.0377537
1.02024e-05
0.000326328
5.32246e-07
0.00190514
-0.0145183
-0.00888425
-7.74554e-07
-0.0283652
2.60562e-07
-8.21302e-07
3.6165e-06
-1.25036e-05
-1.66258e-07
-2.23604e-06
-0.000870989
-3.58877e-07
-0.0101366
-2.34656e-07
-0.00456094
-0.000315821
5.54843e-07
0.0596989
1.30763e-05
1.08867e-05
8.00745e-07
0.00122915
-0.000803449
5.12713e-07
-2.07391e-07
-9.50528e-07
-2.04948e-05
7.10398e-07
-2.60814e-06
5.00588e-06
0.0411945
3.78665e-05
-0.0157992
-2.09279e-05
-7.62461e-08
-1.00387e-06
5.68984e-07
0.00376302
-0.00780837
1.21262e-05
-0.0907749
-0.0276791
-0.0443732
-2.88397e-07
0.0296935
-0.000834112
1.07731e-05
1.14166e-06
-2.25413e-06
1.13084e-05
-0.0198779
-3.03464e-07
2.78691e-05
-0.0833874
1.01281e-05
0.0038271
0.0807454
-0.0948911
6.16592e-07
7.60377e-06
-0.0205782
-5.2425e-08
7.53069e-07
-0.0442427
0.036279
-0.0921081
-4.47394e-06
-6.47622e-07
-2.8978e-06
8.28482e-07
2.68168e-05
-3.929e-06
-2.3555e-06
-3.57429e-06
-3.14112e-06
0.0131297
5.10903e-07
-8.63112e-07
5.395e-07
-0.0751495
-6.89985e-07
3.97678e-07
-0.017013
-1.29076e-05
3.51862e-07
0.0402463
-1.3886e-05
1.19763e-05
0.0694507
7.87069e-07
-8.11529e-05
0.00124453
0.00178188
6.24497e-06
-2.26991e-05
-0.000347365
-0.000120614
1.24594e-05
-1.99914e-06
4.61821e-06
0.0933823
1.03341e-06
0.0011015
-7.78014e-07
-5.25564e-07
-1.1085e-05
0.000214712
1.20657e-07
-0.00427446
1.90105e-07
-0.0149896
-6.49492e-07
-0.0191615
-2.10057e-05
-7.835e-05
-8.63465e-07
0.0257721
-0.0737334
1.15603e-06
-2.72582e-06
0.0272994
0.000754225
-0.0575346
-0.000873597
8.32171e-07
-0.0811491
-8.60611e-07
-1.71996e-05
0.00971678
-0.00110949
3.40517e-06
1.18324e-05
-4.59851e-05
-1.19762e-06
0.000275434
4.51971e-07
5.30576e-07
-1.09727e-06
-0.00493781
-1.96777e-07
-0.000513784
-3.58513e-05
0.0039201
0.00222558
-7.80487e-08
0.000370458
-8.48118e-07
-1.07214e-07
-0.018796
-1.53072e-05
-7.79285e-07
0.000101308
-0.0775685
-0.0759651
-0.000356419
-8.8813e-07
-3.89872e-07
-2.83038e-07
-0.0620106
2.23303e-05
7.34819e-05
6.07522e-07
-3.14391e-06
-0.0867301
-1.37113e-07
-0.0500764
-8.90589e-07
-8.82106e-07
0.0469779
0.01434
0.00110907
0.00102258
-0.000634459
1.69815e-07
-0.0103975
-5.0414e-07
-2.62266e-07
-0.000832412
-0.0249814
5.99334e-08
-0.0168691
-2.26444e-06
-5.15006e-05
0.00367672
9.75942e-06
-2.3213e-06
-1.86138e-07
-0.0882144
-2.78927e-05
4.1118e-05
-0.00234431
0.0232715
4.24682e-07
-2.89984e-06
-5.50655e-05
-1.70349e-07
-0.0566577
-8.37948e-08
2.92126e-06
-0.480823
-1.40878e-07
-0.0251461
-0.00072498
0.000527858
9.71562e-07
-0.000386879
-2.27539e-06
-7.68143e-06
-2.22119e-05
4.62249e-07
0.000361401
-1.41447e-07
-0.000355023
-1.0011e-07
-0.0274826
-2.84456e-05
-7.90444e-07
0.0579552
-5.17043e-06
7.04507e-07
3.10943e-07
1.00082e-05
-0.0192744
-4.64733e-07
-0.0450295
-0.017056
-0.000589026
-1.18044e-05
-0.00489773
-5.54866e-07
1.29953e-06
-0.0286397
-6.3916e-05
-2.24134e-05
0.00243568
-1.22515e-06
0.000558371
-0.0009113
-4.95579e-06
-1.86906e-05
-8.70355e-07
-1.15455e-06
5.62708e-05
4.51524e-07
3.48235e-07
-0.000734089
-0.000919145
6.35058e-05
-0.0053492
2.39136e-08
1.44676e-06
-0.01181
-9.15107e-05
-4.86788e-07
-0.0192866
-0.0168164
6.39915e-06
-0.00131645
-1.24579e-06
-7.78036e-07
7.44076e-07
-1.77897e-07
0.0163714
-1.50439e-05
-3.92728e-08
0.00638596
2.51402e-05
0.0036041
0.0273902
0.00251857
1.10793e-06
0.118057
0.000240991
-7.33456e-07
8.96167e-08
2.08434e-06
-0.00091867
3.45623e-07
0.102756
-0.00128262
0.00023365
-0.077371
-5.79763e-08
-0.0279931
-4.71615e-05
-0.000100189
3.25215e-06
-0.129972
4.96627e-05
-0.0273498
0.450842
-4.74146e-05
-6.7685e-06
0.0607394
1.04245e-05
-0.0013608
-2.92374e-06
-2.21039e-06
-0.0244042
0.000268959
-0.000931598
-2.71346e-08
-1.4407e-06
-8.21222e-07
-1.72132e-08
0.060342
1.52883e-06
-3.73669e-07
4.62452e-06
-0.519362
5.81441e-07
-0.0901188
5.36663e-06
9.70541e-06
-0.000127591
-0.0176173
1.8836e-05
-0.0212435
-1.12928e-05
0.000536465
-2.09295e-06
2.50245e-07
-0.000704577
-2.28589e-05
1.0257e-05
0.000541204
-1.06986e-05
-0.00498492
2.07207e-08
-0.000504171
0.00059958
0.00218347
0.000628857
-0.0216701
-0.0610672
0.000815781
0.0141518
-0.000111263
5.30323e-05
-0.0907937
9.90001e-05
-3.11522e-05
3.68051e-06
-1.88459e-07
5.19529e-07
-0.00138069
-2.42706e-05
-2.93614e-06
1.29979e-05
5.47357e-07
0.884925
-8.53408e-06
-1.00868e-08
0.000954177
2.36537e-07
0.0469806
8.14811e-06
-3.13902e-06
1.2559e-05
-2.75382e-08
-5.98444e-08
-0.025136
-6.617e-06
2.11757e-07
5.01155e-06
0.0859967
0.00353549
-1.18713e-06
3.14142e-06
4.1172e-07
-7.93985e-05
6.13158e-07
-5.87009e-07
-3.64185e-07
0.0557147
0.000662252
-0.079059
-1.55353e-06
-5.66764e-07
0.000883001
-0.007119
-6.66649e-12
7.00045e-06
-5.79227e-07
-0.00795381
1.727e-07
8.31062e-06
-0.000118096
-8.32756e-07
-0.0437587
3.15134e-07
0.000825055
7.31761e-06
-8.34344e-07
8.29016e-06
-1.09335e-06
0.0664621
1.15562e-05
-2.26212e-07
-0.0624566
0.0229479
2.81865e-07
0.093266
6.76405e-06
-6.92585e-05
-0.00129649
8.51143e-07
-0.029339
-2.51085e-07
-0.0805874
-8.81203e-07
-4.38128e-08
-1.96155e-05
-8.2612e-07
0.0529923
-8.53052e-05
-1.36187e-07
0.324425
0.00122309
-7.60839e-08
-0.00110309
-0.372644
1.92427e-06
-7.22009e-07
-7.41298e-05
-0.000364061
-0.0878276
0.00214282
-0.0504281
0.0975175
-0.00016911
0.0422548
6.93766e-09
7.09443e-07
-9.18032e-07
-2.71833e-06
-0.0837673
0.578749
5.01011e-07
-6.34981e-05
-0.00770825
-3.70926e-07
0.00329874
-5.70292e-05
-2.77306e-06
-5.21777e-06
-6.75826e-07
-0.00114047
0.000659129
-1.28231e-05
-3.29176e-08
7.26361e-07
0.00154448
0.0277948
9.78836e-06
-4.05898e-09
-3.01495e-06
0.00612662
2.64874e-05
-0.0322305
-0.150687
0.283973
0.0561652
-8.10155e-07
-0.0675805
-1.69012e-09
-0.00604136
2.99641e-08
-0.011029
0.0620434
-8.07711e-05
-5.22073e-07
2.19041e-07
-0.0106342
-1.73779e-05
-4.57928e-05
-0.199614
-0.511039
2.67081e-06
-2.33844e-05
-6.60576e-05
1.17026e-05
-0.00905719
-2.48519e-10
-0.000544436
1.4716e-07
-0.00601492
-1.09894e-06
4.6629e-07
-0.0951944
-3.2277e-07
5.79362e-07
-6.32682e-07
1.1134e-05
1.08069e-10
-5.87866e-09
-6.54946e-05
-3.7174e-06
-0.000706346
1.07574e-07
1.29583e-06
-0.000128946
-1.26769e-05
4.65103e-07
-2.97208e-07
-1.11493e-06
-4.85412e-06
-0.0261285
-0.000662239
-7.27744e-08
-4.31207e-06
0.00145666
-0.0734419
-5.45609e-08
-6.78525e-07
0.026668
-0.0995918
-0.078245
-0.0267679
6.78664e-06
2.50372e-05
2.19621e-07
0.00484051
-0.0653602
-8.86061e-06
9.17388e-06
0.0604471
0.000539425
3.93211e-07
0.00105768
-0.0245406
-0.0737738
5.07586e-07
-0.000118028
-8.2817e-05
-3.08197e-06
-3.84015e-06
-3.11909e-06
0.0453736
0.0156547
-6.66194e-07
0.0525108
0.0133585
-5.27796e-08
-7.49944e-05
4.53344e-08
-0.000637903
-2.96339e-05
5.76615e-07
-0.0027657
-0.0953995
-3.16726e-05
0.18526
5.68054e-08
9.48016e-06
-7.14326e-06
3.13675e-06
-1.77298e-05
0.000143459
-6.35583e-07
-9.78897e-05
-2.80849e-07
-0.0902864
8.33398e-05
-1.16035e-06
0.00416084
3.34103e-08
-0.0117564
-0.00616652
1.2323e-07
0.0379678
-6.66797e-07
5.0447e-06
-1.33481e-06
1.23658e-07
5.62093e-05
-2.29868e-05
-1.17256e-06
4.24254e-05
-2.80705e-07
-0.000381126
0.0204835
-1.60146e-07
-2.65511e-06
-0.0924369
-1.76429e-08
-6.55949e-07
0.00122326
-9.37551e-06
6.47819e-06
0.00033225
1.10765e-05
9.75024e-07
7.89211e-06
-0.200662
-0.0133591
-0.00123258
-0.0129115
4.6159e-07
-0.000739444
-4.82267e-07
-9.31423e-06
0.0524633
-6.62809e-05
0.000520126
-2.10381e-07
8.96482e-05
1.19311e-05
-0.441675
-0.00122683
-4.54417e-06
0.000274807
7.25255e-06
-0.00579767
-0.00576203
-8.84882e-06
-2.41226e-05
-3.89149e-05
-0.000108989
-3.02782e-05
4.04754e-07
-0.000776724
-5.99992e-07
-0.000664398
-5.51113e-05
-3.54417e-07
0.000194418
-0.0337845
1.73977e-07
1.1302e-07
-0.0819096
-2.2836e-06
1.32233e-06
0.000599378
0.00654778
-0.00302254
-2.99947e-05
-3.81873e-07
-0.0110072
-0.000354292
-0.0582834
1.21594e-05
-3.1055e-05
9.80809e-05
-7.4698e-06
0.00159479
-2.1549e-06
-0.00522692
-3.24658e-07
0.578225
-1.61412e-07
-2.9671e-06
-0.00124642
-1.8844e-07
0.00114385
-2.14357e-07
-1.01577e-07
0.830605
-3.22841e-06
-0.00356236
9.12162e-07
-0.0969891
1.31223e-06
8.9426e-07
0.014904
2.03833e-07
0.024743
1.29909e-06
-5.6073e-06
4.58997e-07
4.75734e-11
-0.000169745
-3.41022e-05
0.0322353
0.0595785
-0.00418949
0.776569
-0.000894287
-1.19054e-06
-4.16724e-06
0.0243976
-0.0819522
-2.6272e-06
-0.00558883
-0.0133482
-0.000515354
-8.8846e-05
-5.30293e-05
-0.0231228
1.25764e-06
0.000442438
-0.00596179
0.000484912
-0.00768492
-0.0321813
2.373e-06
-1.33046e-05
-8.65523e-07
-0.00514721
0.0397293
-6.83908e-07
0.0078053
-0.0529489
-2.95881e-05
-0.00615913
-0.000314427
-0.036473
-3.12465e-06
0.000607588
0.00542201
0.00167991
-2.4381e-05
-1.8397e-06
0.0215502
-0.000604662
-0.000155008
1.64734e-07
-0.000130283
-4.07522e-07
-0.0022123
6.3305e-06
-6.76695e-06
3.40009e-06
-2.40994e-06
-1.31474e-05
-0.000389543
-8.96812e-05
3.07914e-06
2.05756e-05
2.32503e-06
-0.0180729
-0.110454
-3.67527e-07
-1.13437e-05
-2.53117e-06
1.87171e-07
0.0519675
0.0339215
3.15711e-05
-2.35034e-06
6.93116e-06
-1.17341e-06
-2.45711e-06
-0.0256712
1.2722e-07
-2.49906e-05
1.26587e-05
-9.7887e-08
1.15644e-06
5.60755e-07
-4.37162e-06
-9.52558e-06
-2.56724e-06
8.37864e-06
-5.0827e-05
4.99921e-11
-1.77521e-06
0.0850602
0.0620164
-8.3253e-08
-2.64465e-08
2.24256e-08
7.88743e-06
4.75041e-06
0.0544208
-0.000556376
1.21842e-05
-1.09084e-06
0.000278885
0.0291336
6.48425e-06
4.11006e-08
3.51336e-07
5.65698e-07
-8.32705e-05
-2.73612e-07
-1.76636e-06
0.0054407
-1.23505e-07
-0.0249888
0.0207175
-7.88158e-06
-1.52873e-05
-3.44242e-05
-0.0625185
-0.000164801
-0.00991195
0.000271319
-0.0730573
-1.03097e-05
5.49412e-07
-1.94212e-06
-0.00634121
4.43893e-05
1.6929e-07
0.253283
4.60866e-07
3.82934e-07
8.34944e-05
0.40914
-0.000172635
-7.85624e-05
-2.3012e-06
-0.000316859
-5.54931e-05
-0.0860415
8.2127e-07
0.000106078
7.57865e-06
-0.100918
4.59579e-06
2.40951e-06
-0.0536064
-2.3257e-06
-0.0241686
-0.0449902
6.02518e-07
-5.05109e-08
-0.22279
-2.716e-07
2.10503e-08
-0.0288154
4.7004e-07
-0.0752572
-2.00754e-07
-0.0499543
5.54778e-05
0.00156425
0.0380043
-4.67357e-08
4.76937e-07
-9.52764e-08
1.31219e-08
-1.19539e-06
-5.29187e-05
-3.10932e-06
1.79389e-07
-5.6785e-05
-0.108082
2.19859e-07
-2.19206e-06
-2.44606e-05
9.00245e-07
-4.12865e-08
4.40923e-06
0.0316725
-1.86884e-06
1.48432e-07
0.000421631
-1.01516e-07
4.01928e-07
0.0186585
-4.33951e-05
3.1759e-06
-6.86524e-05
1.8457e-07
-4.30961e-05
7.39793e-06
3.40378e-07
-0.000825573
0.0850741
-2.61256e-05
0.000415345
2.37994e-06
8.85011e-08
-0.0207647
4.86588e-07
-0.000122657
2.96828e-09
-2.03106e-05
-2.40105e-06
-1.64509e-08
-0.000612233
9.16446e-05
1.62469e-07
1.54886e-06
-0.0011319
0.0179429
-1.99675e-05
7.93951e-06
-2.00629e-06
-0.0171851
-7.50456e-07
-0.0256729
1.30021e-06
7.34791e-06
2.81476e-07
8.79311e-05
1.5188e-06
-0.0806631
8.64739e-07
-8.88857e-09
1.49143e-05
3.22271e-06
0.00800881
-0.0105645
6.17753e-07
-1.97449e-05
-1.51616e-05
-1.47942
-1.82691e-06
0.020238
3.07071e-05
4.27169e-05
2.57193e-06
9.91167e-06
-1.22272e-06
0.0714028
7.63072e-06
-2.30357e-06
4.37468e-08
-7.19217e-05
-0.0031519
-1.26732e-08
3.50027e-06
2.75013e-07
-2.56895e-05
-0.00730123
-0.0160427
1.1758e-05
-0.0258023
-2.41194e-05
1.8441e-08
-0.00126653
-1.73573e-06
0.0361086
-2.93529e-08
0.00230926
7.78757e-06
2.07286e-07
-0.0210968
-6.69517e-07
0.000202572
2.56725e-05
-0.0245214
7.86597e-07
-0.00525028
-1.14956e-06
-0.0712625
0.0014169
1.35283e-06
7.6385e-06
-0.000107165
-0.145582
-3.15404e-06
-7.08299e-05
8.33738e-06
0.0945531
-1.16924e-07
0.000653809
-7.44564e-08
1.07727e-05
1.07772e-05
-9.39454e-05
-3.16779e-06
-0.000784268
-0.00715515
-3.78584e-07
-2.26561e-07
2.0088e-07
0.0440286
-3.00745e-09
1.13327e-05
-0.00113776
-0.000921613
-3.94492e-06
-0.0665278
-1.16007e-05
0.0398251
-2.03232e-08
-1.00496e-07
-9.39223e-05
-2.88543e-07
0.0126453
4.61766e-07
1.20227e-05
-1.99843e-06
0.138045
0.0656063
1.53847e-07
-8.58026e-05
-2.97954e-05
-0.000389632
1.64088e-06
0.237325
-1.96326e-06
1.40825e-10
0.0106701
0.0140614
-2.33064e-05
-4.13955e-08
-2.77031e-05
-2.15996e-05
-1.67692e-07
4.27122e-06
-7.18848e-07
4.86135e-05
0.0228038
-1.35516e-06
6.33556e-07
2.52741e-06
5.14856e-05
-1.49336e-05
-0.0919522
0.0619173
-0.106921
0.000131772
1.69926e-07
-0.0998045
-7.79598e-05
-1.76735e-08
-3.10841e-06
-0.000136815
-2.2552e-06
-2.54505e-05
-3.23718e-08
0.367405
7.82941e-07
-1.95068e-06
-2.62119e-06
-0.0338928
-0.00746011
-0.00983962
-0.0235955
0.00910773
-3.21556e-06
0.0297566
-1.04327e-07
0.00381182
6.85936e-06
-8.27649e-05
-0.011348
0.0150662
-0.0494849
-3.5868e-07
-2.08405e-08
-0.00533552
0.0323453
-4.87998e-09
-1.63791e-05
-6.09219e-05
-2.59758e-06
-1.29802e-05
0.00387639
0.0225615
0.00118615
-6.92972e-08
-4.25724e-07
-1.26225e-05
-0.15086
4.29944e-07
-0.0136079
-3.30037e-06
7.27243e-05
0.000663788
9.25737e-07
-0.00779985
0.0824049
-4.41945e-07
-2.09638e-06
-4.83902e-08
-3.46551e-07
-0.101587
-2.36647e-06
-8.14513e-07
-0.0794317
1.34001e-07
8.07161e-06
-1.18553e-06
-0.0154794
-1.28988e-05
-2.543e-05
0.048853
-9.87856e-07
3.14132e-06
-0.0229862
-4.29242e-06
-2.61509e-07
2.91954e-06
0.00317889
-0.0241063
-2.54507e-09
4.20205e-08
1.41773e-06
-8.04956e-05
0.134821
-7.9047e-09
-0.0448804
-3.44237e-05
-9.56863e-06
-0.00262771
-1.16189e-05
-8.43448e-05
-2.47276e-08
-0.000772408
-0.000127802
0.0294443
-4.27269e-07
-3.96956e-06
-2.66039e-07
6.30351e-07
1.24582e-05
-1.56935e-07
1.73878e-05
-0.000814768
0.00219334
1.87568e-06
-0.924106
-2.69086e-08
0.00167988
-4.32777e-08
-0.0880296
-0.0239972
-4.23694e-05
3.65983e-07
-4.00483e-07
-1.66232e-06
2.36395e-07
-1.61603e-05
8.29714e-09
0.0209567
-0.00639888
-0.0754798
-1.68684e-05
0.0522079
-0.000820519
8.30154e-07
-0.0163584
0.00138727
8.36847e-07
-0.000957196
-5.73445e-05
-0.0171708
-7.62003e-06
1.23098e-05
0.0209232
-1.83926e-06
-2.44599e-06
-2.92147e-05
2.39593e-07
8.72103e-07
0.0655842
-0.000139095
-1.39879e-06
1.12423e-07
1.10534e-06
-0.00891195
-5.65455e-08
-2.36638e-06
3.32586e-08
4.14244e-07
-0.000100186
5.07551e-07
8.76282e-07
-0.0590263
-2.42966e-06
6.67052e-07
-0.041385
-0.00518151
0.100321
0.0544048
8.43027e-06
0.019294
-0.000890763
-2.70995e-05
-0.043771
-0.00138688
-2.30278e-05
-6.78784e-07
-1.67927e-06
-2.16351e-05
-0.0759774
-0.0530397
7.16764e-06
-1.78324e-08
-1.1539e-06
3.10622e-06
-0.0209777
0.00100512
-8.08169e-07
-1.4678e-07
-2.22229e-05
-8.18106e-07
-0.00061343
-3.35737e-07
-0.231577
0.000702718
3.12218e-07
-4.65705e-05
-8.73464e-07
-1.51458e-06
-3.1868e-06
9.00215e-06
-2.83995e-05
-0.0382853
0.00201352
-3.70081e-08
-7.42228e-07
-0.12145
1.16497e-05
0.0495413
-3.39325e-07
-2.57096e-08
9.28607e-07
0.00200894
1.41425e-06
-3.9135e-05
-0.00897327
-9.98918e-09
0.000221936
-0.0786252
0.250543
2.57921e-08
-5.44926e-07
-1.01868e-05
-2.28995e-07
5.72794e-07
0.0147477
0.164292
6.72927e-06
-0.00400162
-0.000319939
0.00403848
-0.00455304
-6.84209e-06
-2.60845e-06
-0.0102752
-0.000588183
0.000465702
-3.63773e-05
2.13675e-06
3.83039e-07
0.00374681
2.26319e-07
1.93675e-07
-0.00109971
9.21278e-08
-0.0317709
-7.14504e-05
-1.48717e-05
0.047508
1.36979e-05
-1.86758e-07
-0.00116421
-1.95026e-05
-0.00029714
4.24788e-08
-5.78723e-08
-8.07956e-05
-5.58466e-07
0.00143105
8.63292e-07
-6.35398e-07
-1.84696e-07
4.39407e-07
5.56987e-07
1.00741e-07
4.47976e-07
0.0230393
0.00806592
-6.79366e-07
-0.000797352
-3.10402e-05
-4.16384e-05
0.0465693
6.69904e-06
-6.5427e-06
-0.0578032
0.000755316
0.000560576
8.64462e-07
-1.27013e-06
-2.10408e-06
0.0310894
1.68522
-2.13133e-07
-6.01207e-05
-3.06909e-07
-0.00072742
-0.0254925
-0.00808894
-0.00160498
-3.13991e-06
-1.73562e-06
-2.23718e-05
0.0127777
-1.83552e-05
4.62357e-07
-4.42165e-05
-0.00117116
0.000557529
-3.12166e-06
9.49363e-06
-3.18772e-05
5.30171e-07
-0.0947666
-0.00428711
-1.18196e-06
1.30176e-05
-2.14207e-05
3.45985e-07
-0.0232131
-6.05426e-08
-9.87912e-07
-4.8188e-10
-0.00966381
-0.0289789
4.24223e-08
0.000507474
1.86616e-07
-0.252842
-1.17134e-05
-0.00604833
6.88557e-07
-0.087239
-6.72146e-06
1.49168e-06
4.39501e-07
0.000871344
-0.0172441
-3.09463e-06
-0.00873275
5.88836e-07
-0.00958377
-0.073978
0.0667894
0.00641047
-2.00932e-05
3.58414e-07
8.99128e-06
0.00224665
-0.000617907
-1.71474e-06
0.00198922
5.01864e-07
-2.83294e-07
-0.000778212
-3.31321e-06
3.9826e-07
1.08946e-05
1.21289e-06
0.0197526
2.84655e-07
-0.0883983
-0.00305252
0.0130919
-1.57331e-06
-0.000406987
0.0732717
1.09273e-05
-0.00252906
1.41517e-07
-9.02094e-08
-0.0263198
-3.19218e-08
6.47521e-07
-9.48785e-06
7.76764e-06
-2.23765e-06
-2.17422e-06
0.0262534
1.40108e-10
0.0137206
-1.78557e-05
5.68717e-07
-1.34571e-05
-0.439879
1.91733e-07
0.0177647
-3.33656e-06
5.79719e-05
-9.88897e-06
9.20282e-07
3.67578e-07
0.000293842
-0.0659939
0.000253871
-2.7458e-07
-5.12694e-05
0.0705416
-2.58204e-06
-0.000878012
8.18596e-06
-3.82732e-07
0.0193846
-3.19696e-05
6.7224e-07
0.0139665
-0.0346973
-9.55114e-06
-7.32427e-05
-0.0414414
-0.00112977
3.59068e-07
-9.4492e-08
8.20309e-06
-3.2683e-06
1.01805e-05
-2.57946e-05
-8.25476e-08
5.13857e-08
9.79815e-07
-2.39074e-06
-1.81672e-06
5.91574e-05
-7.85136e-11
0.0132396
0.0539433
-0.120688
-0.000548853
0.0178266
-1.36979e-05
-0.00114309
-1.28545e-06
-1.15683e-06
-2.63875e-07
-0.00439887
-8.32059e-07
-0.00105251
-2.64578e-05
2.81152e-05
1.31185e-05
1.31793e-06
-0.0266907
-1.252e-05
-7.1651e-08
-8.52144e-08
-2.89321e-08
-1.19283e-05
7.41633e-08
-2.98132e-06
-0.0676652
-9.37319e-07
0.0184951
1.16636e-06
5.4374e-07
-6.88255e-05
-0.0693455
-2.75445e-07
0.000891792
0.803023
-0.00010153
0.00282265
-0.000289553
-1.59714e-06
5.46439e-08
2.51633e-06
-0.00057123
0.0244356
7.46116e-07
6.35673e-06
-2.39248e-06
-2.07872e-07
2.8959e-06
-0.0779159
1.32974e-07
-0.0963941
-0.0996921
-0.000724941
7.81372e-06
3.36621e-06
-0.000769498
-0.000608931
-1.8787e-06
-6.69077e-06
0.000737942
-1.7278e-06
5.3257e-07
6.24999e-05
1.00089e-05
0.00263008
1.60851e-08
1.19245e-06
-0.000150206
8.85691e-06
-2.75902e-06
0.0118699
0.000889124
-0.000810344
-7.63378e-08
7.52568e-07
8.68288e-08
-2.9187e-06
0.00686791
4.67075e-06
-1.85694e-07
0.014775
5.38973e-07
0.000189701
-0.0196564
0.0178292
-0.0578324
0.00095778
-0.10298
0.00124628
0.000150661
0.0398081
5.73541e-07
0.0394241
-0.0374633
-7.70733e-08
-3.44719e-05
-0.0658247
5.67641e-07
-3.02556e-06
3.29471e-08
-2.59036e-07
-9.00009e-07
0.000690145
-0.00136166
1.17916e-05
-0.00125972
0.0459012
-2.7706e-07
-0.0237697
0.0645377
-0.000151561
5.43235e-08
-2.26056e-06
1.2189e-05
-3.66421e-07
4.29177e-05
-2.18456e-05
-0.00011704
-2.6901e-05
-0.0156654
-1.19181e-06
-0.0174117
1.22627e-05
-0.000787973
-2.81776e-06
-3.79626e-07
-9.6551e-11
0.00115032
-0.000463454
-1.70786e-06
0.0318544
6.54424e-07
0.0329254
-9.23648e-05
1.48264e-05
-0.00499649
4.70287e-07
-0.000115162
-2.48409e-07
-1.00053e-05
-5.62702e-07
-7.13952e-08
-0.000143646
-2.78766e-05
-8.75187e-06
-0.104298
-3.03319e-07
-1.0409e-06
4.24974e-06
-8.68532e-08
-4.17695e-08
1.05668e-05
1.13979e-05
-0.102913
2.82929e-06
5.48679e-07
-7.06452e-08
1.83631e-06
-0.561023
-0.00726574
0.166039
-4.74023e-05
3.37771e-06
8.32745e-07
-1.51982e-06
-1.53308e-08
-5.54111e-07
3.06976e-07
-1.47277e-05
-0.101976
-0.00283767
-8.94448e-05
-3.08524e-05
-0.679174
0.0876894
-4.28723e-10
-4.14845e-07
-0.138011
1.11712e-08
-2.11814e-07
-0.00012697
-0.000134359
-0.000208433
-1.49029e-06
1.14332e-07
-4.29385e-06
-1.30412e-06
5.47872e-07
-6.36532e-06
-0.000683659
-1.51481e-06
-5.93229e-07
-4.94476e-07
-5.42843e-08
0.00118609
4.55729e-05
-9.07495e-06
-0.0954788
1.79315e-06
1.39957e-08
1.98761e-07
-6.06519e-06
-5.42818e-05
-2.34235e-07
-1.70158e-06
-6.67118e-05
-0.0131218
0.102889
-1.63097e-07
2.57895e-07
0.583341
-0.024396
0.0111738
0.0316126
0.00156212
-2.75627e-06
3.56724e-05
-0.0953656
8.52584e-07
0.00414173
1.73529e-06
-0.0306999
-0.00122597
-1.32422e-05
-7.21034e-07
-0.000410091
-0.0768128
-2.72312e-05
-0.00129017
0.00138882
0.00010004
-2.26325e-05
1.15754e-05
-0.131252
-0.041312
-0.0102885
-2.86235e-05
-1.89146e-07
-0.0932152
0.0013718
-0.000134309
-9.4984e-05
-0.0589885
-4.42427e-07
1.11674e-06
4.64593e-06
0.0198007
0.000434494
-0.143974
4.14507e-06
-1.34493e-05
-1.67834e-07
-1.47283e-06
-2.38233e-07
-2.33365e-07
-0.128983
-6.43159e-07
-7.26257e-07
0.000225318
-0.0536987
7.89678e-06
-2.09449e-06
0.0151418
0.03524
-0.0444704
-0.0240125
-0.108338
-0.00104792
1.57924e-07
0.00036118
0.80285
-0.027771
-1.86932e-07
-1.17389e-05
6.72716e-07
-1.81667e-05
-2.27084e-08
1.29873e-09
5.63509e-07
0.0159229
8.68224e-07
0.0568492
0.0307952
4.20512e-07
-4.79145e-08
0.000662495
-5.92012e-05
-2.03459e-07
-0.00949049
-8.50659e-07
0.00141332
-4.54993e-05
0.00127115
-2.15884e-05
-0.000110053
-7.50409e-05
-1.52333e-07
-4.178e-05
0.000165838
-0.0723519
-2.87266e-07
0.0212457
3.85113e-06
2.9778e-07
-6.988e-07
0.00103899
0.00480818
-0.0763541
-1.329e-07
1.11875e-05
1.51828e-06
-0.000150258
3.96359e-06
7.32393e-05
-1.18606e-06
0.0888123
4.31077e-07
-4.58613e-07
-0.061263
-0.101758
-6.62461e-07
2.70772e-05
-0.0171052
-0.0686416
0.0780259
-0.0788301
0.0533492
2.40985e-07
8.01615e-06
-1.85698e-08
-1.3764e-06
0.000696463
-7.24669e-05
-7.202e-05
-0.0574584
-1.88864e-07
7.71387e-06
0.00673537
-0.0814562
-4.06704e-05
-1.90399e-06
-1.23147e-05
-4.29617e-07
4.41245e-06
-0.000372504
-1.89345e-08
0.00526049
4.71599e-06
9.24848e-05
-1.93905e-06
0.178153
-0.000653999
-7.30899e-07
-9.44725e-07
1.357e-06
0.00149264
-0.000808813
1.10318e-05
-2.45329e-06
-0.000200689
1.15825e-07
1.04727e-05
-2.29524e-05
0.00149959
-1.62416e-05
5.21874e-05
-6.97012e-07
1.40606e-08
5.22133e-06
-1.29181e-05
-0.000864321
-0.000670029
7.79966e-06
-8.18569e-07
-3.80694e-05
0.012661
-0.0624381
2.5684e-07
-2.11346e-05
1.30658e-07
0.024416
-1.22989e-05
9.02907e-06
-2.24936e-05
-0.000383738
-0.0143441
6.94064e-06
-6.39757e-05
3.78241e-07
-0.0129317
-8.50706e-05
-8.23095e-07
-0.248139
-4.23717e-05
2.6061e-06
-4.19058e-05
-0.245364
-1.1763e-05
0.0028186
-0.337857
5.73687e-06
-3.6237e-07
-0.0538965
-6.9097e-07
6.92607e-07
-1.60121e-06
0.618067
7.30573e-06
-7.15364e-07
-0.000417645
-2.86484e-05
-1.08027e-06
-1.84807e-05
-3.22937e-06
-3.37189e-07
-0.00920543
0.000498635
-0.000746658
4.68415e-05
-0.000154295
4.24753e-07
-0.0475003
0.000561029
-3.44256e-05
-0.00249521
5.93229e-07
3.84612e-06
-7.66529e-05
0.000351408
1.27726e-07
0.0376241
-0.000862559
-7.82085e-06
0.0457964
-0.022491
-8.80103e-07
-0.0010582
0.00776048
0.0804611
-2.52717e-06
-1.5423e-05
5.32776e-07
-3.81853e-05
-1.5236e-07
-0.00342404
8.22917e-05
1.80795e-08
3.48329e-07
2.34125e-07
-0.00069794
-0.000165621
0.00266409
-0.0295295
-0.0247455
-7.59108e-07
-0.000274222
-7.31846e-07
-4.63238e-08
-1.61185e-07
0.0932859
7.85297e-06
1.2086e-05
-6.43951e-07
-5.10427e-06
-1.14694e-06
-1.03928e-05
-0.0413593
2.09079e-07
-0.00139154
0.0137637
-0.0015857
0.030065
0.0292699
-5.27763e-05
-0.000753342
-3.18537e-06
-0.213689
1.69006e-07
-6.85883e-07
-1.40055e-06
-2.47114e-06
0.00465489
-2.90964e-06
-0.00117386
5.11446e-07
-0.000185983
1.12444e-05
-2.55225e-05
-1.20031e-05
-2.15891e-06
6.51867e-06
-4.69888e-07
3.3029e-06
-0.0449603
6.17946e-07
8.20124e-05
-1.19256e-05
1.2738e-05
0.00275031
3.12963e-08
7.08894e-06
-0.000936446
-0.00268149
-0.0191051
0.0665758
-0.000353829
3.54473e-06
1.13942e-06
-1.95957e-06
7.43065e-05
0.00485584
-3.45955e-05
0.039492
8.68023e-07
-4.62199e-09
0.000122046
5.08985e-07
-0.324394
0.0253249
-0.0876208
-2.65531e-07
-3.84802e-08
-3.24336e-07
-2.44207e-07
0.0371111
4.62885e-06
-3.52345e-08
-9.3447e-05
0.0188419
-2.07843e-06
3.31771e-06
3.72456e-08
-0.0481263
6.33369e-06
-2.28354e-05
0.0513759
-0.351731
-0.000848411
-0.0772872
0.0275234
-0.00268422
-3.14149e-06
-0.00745611
2.45596e-07
5.41499e-07
-0.000175851
0.0510308
-0.00142204
0.0645601
-6.23735e-07
-2.68683e-06
-7.80168e-07
-0.000391155
-0.131263
-2.81507e-05
-0.0245229
4.24859e-07
0.0881096
0.0196502
8.62052e-07
-0.00106673
2.38554e-06
-8.54105e-06
-5.57214e-06
2.51334e-07
0.0251574
-0.0159885
-3.49217e-08
-3.15506e-06
-0.15428
8.08657e-06
-6.91115e-06
-0.0573267
0.00105184
1.07499e-07
-2.28899e-06
2.13336e-06
6.2511e-07
-0.044434
-2.02276e-05
-2.52261e-06
1.19417e-07
0.0455122
1.36591e-06
-5.39586e-08
0.015292
-1.67742e-06
0.000372925
0.00278748
-5.64779e-05
9.74676e-07
2.35886e-06
-0.0144447
2.28898e-07
-1.35882e-05
6.9525e-05
-0.000320274
-1.04862e-09
-0.00126671
-0.000170784
0.111948
0.0283293
-1.76881e-05
-0.0402034
3.91472e-08
4.49993e-06
-1.41398e-07
-1.22054e-07
6.55539e-06
-2.99362e-05
-0.00071525
6.51989e-08
-6.06831e-05
5.41622e-06
-0.00301555
0.0523637
-1.2e-07
4.84411e-07
0.0302479
-0.034501
7.50953e-06
-2.43941e-07
1.1096e-05
-1.41184e-07
1.1346e-05
-2.07787e-07
0.0340761
-0.000324745
-2.94924e-07
-0.0727083
-0.0200475
-1.43935e-06
6.79161e-08
0.0167034
-7.9771e-05
2.54799e-07
0.0166414
0.0596334
2.82435e-07
-9.73657e-07
0.0330228
-0.0312053
-0.000798864
4.42636e-06
-0.000866631
0.0293616
-6.55898e-05
-8.84435e-07
-0.00016042
3.55706e-07
0.100573
6.91957e-06
1.00366e-05
-0.0564018
-0.0144159
-1.86231e-07
1.00712e-07
-0.0186636
0.0839752
1.23339e-06
8.23418e-06
1.82263e-06
2.87999e-07
-1.19675e-06
-0.000180533
0.0154984
1.47785e-05
-0.0013076
0.0408886
-6.6839e-05
-7.15073e-08
1.0413e-07
1.24085e-07
-0.00797804
-0.0486584
-1.16035e-06
0.00100431
-3.31863e-06
0.091468
0.000566075
1.84244e-06
2.32948e-07
7.59128e-09
0.00213118
0.0584952
3.42699e-07
1.5361e-06
-2.44754e-07
-1.17338e-06
0.0014029
0.000540253
7.38236e-06
6.72255e-07
8.89181e-07
-0.0436276
-0.00371375
1.11874e-05
-4.62637e-05
-5.84316e-06
0.0171166
1.08759e-06
0.000193477
-0.0570535
-5.92445e-05
2.13231e-07
2.30169e-05
-0.000320254
-3.45728e-07
4.12619e-08
0.0907403
-0.00086406
-0.00374196
-0.000577575
-1.03006e-05
-0.0149814
2.57316e-06
4.43819e-05
2.16205e-07
2.51824e-05
-1.43577e-06
5.53462e-05
3.26565e-06
-0.0667253
1.74788e-07
-1.43961e-06
-0.25058
-8.98624e-05
-0.00108163
1.93515e-07
1.45664e-06
0.00231914
0.00185652
-0.000218803
1.06595e-05
-0.00315465
0.00270469
0.00192538
6.69825e-05
-0.0255483
0.015184
0.0285084
-1.42452e-08
-6.12207e-07
-2.6323e-07
-0.000533908
0.00144297
1.50414e-07
6.56524e-06
-0.0298119
-0.0412474
-1.21317e-09
-0.0194945
-1.30771e-05
-0.000338118
2.76392e-05
-1.5392e-07
-2.86403e-07
0.000844577
1.46408e-05
0.00169833
5.24088e-06
-1.94204e-07
-0.0255989
-0.0456162
2.73074e-07
-0.000345138
-2.17365e-07
5.7429e-07
-2.20455e-05
-0.0276686
-2.74879e-05
5.40848e-07
1.15259e-05
0.627139
0.0371326
-6.84439e-05
0.0941223
-2.61108e-05
-0.029711
8.8949e-06
2.71561e-08
4.62983e-07
2.5117e-07
-0.00207724
0.000336461
5.68968e-08
-6.41814e-05
-2.20471e-05
0.0300405
-0.00143862
2.67399e-07
8.51866e-07
-6.88344e-06
-2.01712e-05
-0.017914
-0.0307841
6.24966e-06
-0.0694732
0.000187167
-1.4766e-06
-7.88678e-05
9.61289e-08
-1.16173e-06
2.57104e-06
4.05516e-06
-1.38738e-05
0.00011322
1.4692e-07
-1.99999e-06
1.2026e-05
0.00631518
-1.85576e-06
-3.11357e-06
0.0997064
0.00180973
0.0115353
-2.96843e-06
-0.00217992
4.86334e-08
-0.0221823
-0.0102714
-0.0792849
-1.33234e-05
-1.06439e-05
2.71098e-06
1.13976e-06
0.00408612
-0.0719449
0.0187545
-2.03976e-05
-9.95999e-09
-0.000127581
-8.96171e-07
-1.59279e-06
-0.0514317
4.25887e-06
0.000530577
-6.50925e-07
-6.87338e-06
-4.90638e-05
-0.0109802
-1.14969e-06
-2.70554e-05
0.0349746
-1.61127e-06
3.94584e-06
-9.63752e-05
6.88904e-06
0.0141418
-1.23398e-06
1.28699e-06
9.98638e-08
-1.71174e-05
3.85421e-07
-2.09669e-07
-0.0326943
-0.0624587
0.0487679
-6.57841e-05
-0.000932541
-0.0546103
1.55418e-05
0.0206729
5.70553e-08
3.02387e-07
-5.83596e-05
3.50457e-05
0.000986962
0.0235653
-0.0439612
-6.42673e-06
-1.6714e-06
2.57455e-05
-2.78961e-06
-5.99406e-06
0.0285291
-0.00925899
0.00145132
-0.035071
1.07247e-05
0.0181783
-0.000418287
7.07662e-07
-0.00464692
-5.56708e-05
1.01024e-05
2.91248e-07
0.104672
-4.06184e-08
0.00984693
0.000232082
0.0295942
-1.49037e-06
0.000230389
-0.0083673
6.27312e-05
2.49007e-06
-0.0139711
1.39105e-06
3.17208e-07
-1.27583e-05
1.48601e-07
-0.0271875
0.0760829
-0.000489198
-2.94174e-06
-0.0155125
1.99167e-06
2.51043e-06
0.0193056
-2.46102e-05
-0.000373637
-1.11003e-07
-5.76665e-08
-0.0522806
0.00212071
-0.00541882
7.36181e-07
9.26772e-06
8.48251e-05
-1.85512e-07
-6.53464e-07
5.7526e-06
-2.12506e-06
8.89915e-07
-0.000743704
-9.99648e-06
5.05539e-07
-1.22914e-05
-0.00667943
0.0261331
-0.0848812
-2.05414e-05
-0.00222028
8.11709e-05
-3.07099e-05
1.26001e-07
-2.74196e-06
-0.0256475
0.352844
-0.0298004
-2.72894e-06
6.4927e-08
-1.59517e-06
-6.55331e-05
-3.76243e-09
-2.31321e-06
0.0367495
0.37281
5.24622e-07
0.0292749
-0.082092
-1.84971e-07
1.51428e-07
-1.21108e-05
-1.68758e-06
-0.013481
0.000294971
0.00114165
-0.00107424
-3.31183e-05
-0.0429248
-0.000172263
-3.38567e-07
-2.09085e-07
0.0165185
-6.10831e-05
-0.000238241
-9.87301e-05
0.0362427
-3.6024e-07
-0.00104584
-1.62332e-06
7.58675e-07
1.77801e-06
-0.000826989
-0.000488892
2.77456e-07
3.37006e-07
-0.00220298
-2.18032e-05
-2.0802e-05
0.0204821
-0.059042
2.41439e-05
4.86816e-07
3.25717e-05
3.08321e-07
-6.20837e-06
-0.179848
0.021486
0.000235678
-0.000842734
1.2408e-05