/*--------------------------------*- C++ -*----------------------------------*\
| =========                 |                                                 |
| \\      /  F ield         | OpenFOAM: The Open Source CFD Toolbox           |
|  \\    /   O peration     | Version:  v2012                                 |
|   \\  /    A nd           | Website:  www.openfoam.com                      |
|    \\/     M anipulation  |                                                 |
\*---------------------------------------------------------------------------*/
FoamFile
{
    version     2.0;
    format      ascii;
    class       volScalarField;
    location    "200";
    object      k;
}
// * * * * * * * * * * * * * * * * * * * * * * * * * * * * * * * * * * * * * //

dimensions      [0 2 -2 0 0 0 0];


internalField   nonuniform List<scalar> 
37190
(
0.000148017
0.063101
0.000146647
0.000167969
0.040737
0.000146884
0.000175175
0.000150741
0.000167573
0.000214418
0.000147899
0.000144459
0.000154802
0.000146107
0.0555567
0.000148142
0.000151248
0.000182546
0.0605686
0.000112526
0.000151834
0.000148017
0.075898
0.000154111
0.000152008
0.000148158
0.000173838
0.000178312
0.000257981
0.048412
0.0756175
0.000146539
0.000188824
0.000214884
0.000191291
0.000178108
0.000144675
0.000154081
0.000152585
0.000147766
0.000213921
0.0363261
0.000151695
0.000190591
0.000148212
0.000203319
0.036198
0.000239644
0.000146632
0.0424574
0.000149521
0.000148102
0.000163867
0.000161343
0.00014888
0.000149783
0.00021344
0.000144696
0.0379009
0.000144885
0.0364088
0.000178136
0.000143426
0.0697139
0.000151615
0.000151859
0.00014618
0.000195279
0.00017033
0.000143447
0.000148939
0.000148745
0.000158231
0.000147161
0.000148163
0.000148455
0.0735432
0.000168295
0.0460469
0.000158369
0.000148386
0.000157795
0.00014712
0.000180328
0.000949782
0.000151179
0.0539051
0.0462247
0.056367
0.00014655
0.0714893
0.000190856
0.000151898
0.00014714
0.000147664
0.000152069
0.0440797
0.000147305
0.000167398
0.0881143
0.000151765
0.000180485
0.0750449
0.086716
0.000148372
0.000149176
0.061209
0.000148699
0.000146182
0.0675804
0.0736325
0.0593296
0.000153239
0.000145305
0.000148719
0.000148053
0.000168559
0.000152614
0.000147778
0.00015077
0.000148011
0.0338292
0.000148147
0.000148719
0.000147814
0.0495649
0.000145313
0.000147747
0.000162598
0.000168671
0.000147718
0.062729
0.000156688
0.000152192
0.0728506
0.00014715
0.000167233
0.000195703
0.000201804
0.00015051
0.000158791
0.000178642
0.000167206
0.000152175
0.000147657
0.00014843
0.0794515
0.00015097
0.000196449
0.000145585
0.000147565
0.000159153
0.000204501
0.000148043
0.0364051
0.000145394
0.0467798
0.000147894
0.0629696
0.00016707
0.000173864
0.000148338
0.0356124
0.0508462
0.000159071
0.000150602
0.0573257
0.000192292
0.0490232
0.000209815
0.000147133
0.0519148
0.000148354
0.000154338
0.0349925
0.00019373
0.000147927
0.000151529
0.000172525
0.000154968
0.000189877
0.000148468
0.00014843
0.000147117
0.0720836
0.000149016
0.000188723
0.000163379
0.0798116
0.000212107
0.000148741
0.000182033
0.00014563
0.000151289
0.000195513
0.000157103
0.000147707
0.000174493
0.0888438
0.0629066
0.000202477
0.000146529
0.000147582
0.000149071
0.0491076
0.000167161
0.000174707
0.000149437
0.000147982
0.0532929
0.000147907
0.0481588
0.000146534
0.00016383
0.0645799
0.0846358
0.000196611
0.00019445
0.00021488
0.000148337
0.0380068
0.000144432
0.000148149
0.000165847
0.0685176
0.000148058
0.0444442
0.000147624
0.000163663
0.021458
0.000151558
0.000148173
0.000144884
0.0537504
0.000161396
0.000186821
0.000184495
0.0311691
0.000143509
0.000148697
0.000171805
0.000149023
0.0482628
0.000148104
0.000147902
0.00246223
0.000147403
0.0406871
0.000189514
0.000186497
0.00014758
0.000179919
0.000148167
0.000157534
0.000156496
0.000148219
0.000181859
0.000148887
0.000166779
0.000147389
0.0422123
0.000159914
0.000145523
0.0742321
0.000152101
0.000146132
0.000148803
0.000151612
0.0695506
0.000144776
0.0688206
0.0702113
0.000214942
0.000161217
0.0178764
0.000146983
0.000146795
0.0416882
0.000164971
0.000158835
0.000262228
0.00014874
0.000189537
0.000213993
0.000151911
0.000157717
0.000148683
0.000148719
0.000174161
0.000148243
0.000149195
0.000191539
0.000165501
0.000172334
0.0175767
0.000148053
0.000147528
0.0713257
0.000169965
0.000144781
0.0444455
0.000124045
0.000151477
0.000203867
0.000147567
0.000145378
0.000146141
0.000148939
0.000257709
0.000153994
0.000149688
0.0713551
0.000161268
0.000180953
0.0282417
0.0558071
0.000157945
9.47075e-05
0.000165522
0.000145375
0.000148053
0.000159512
0.000213332
0.000148018
0.0824839
0.000204217
0.000179005
0.0888228
0.000147194
0.0886727
0.000163784
0.000169753
0.000147702
0.017461
0.000203829
0.0448095
0.000108312
0.000167368
0.000150858
0.0706431
0.000150264
0.00020358
0.000148694
0.000149706
0.0616516
0.000199441
0.000209767
0.000149694
0.000147368
0.000145361
0.000148714
0.0742694
0.000147317
0.00014686
0.000156868
0.000793199
0.000145974
0.057246
0.000176474
0.000150537
0.000164472
0.044617
0.000173272
0.0631564
0.000156247
0.000184784
0.000148195
0.000145673
0.000189916
0.000164253
0.000150172
0.000165244
0.000156136
0.000150677
0.00015103
0.00018764
0.000187197
0.000213007
0.00018711
0.0428079
0.0660161
0.000201702
0.0391079
0.000166316
0.000173621
0.0560971
0.000174545
0.00016308
0.000186192
0.000159627
0.000149144
0.000198568
0.000158582
0.000148725
0.000151945
0.000146066
0.000713591
0.000154998
0.000149808
0.000193887
0.000145685
0.0728501
0.000151844
0.000148041
0.000151969
0.00014722
0.000146938
0.0408763
0.000150771
0.000145706
0.000148333
0.000445528
0.0490418
0.000148546
0.00014765
0.000147767
0.000170225
0.000147847
0.000144865
0.000146917
0.0741708
0.000202518
0.0552037
0.000147581
0.000144861
0.000192511
0.0713334
0.000149841
0.000151137
0.000146961
0.000196977
0.000145811
0.000151904
0.000169167
0.000149075
0.0743103
0.000150644
0.000190018
0.000149053
0.000147771
0.0001498
0.000147089
0.0733595
0.000151357
0.000148051
0.0491708
0.0355156
0.000145671
0.0820721
0.00014894
0.000168828
0.00020392
0.000148064
0.042808
0.000147386
0.0801189
0.000145633
0.0001492
0.000156092
0.000145432
0.0670964
0.000166553
0.000145913
0.0073488
0.000195372
0.000147192
0.000207854
0.000662216
0.000148746
0.000147086
0.000169582
0.0721847
0.0880778
0.000207413
0.0168296
0.0828626
0.000164013
0.074633
0.00014943
0.000146859
0.000145707
0.000149221
0.0522497
0.00338305
0.000146672
0.000164965
0.00483261
0.000148154
0.0238769
0.000166033
0.000151913
0.000156619
0.00014775
0.000209155
0.000189006
0.000161375
0.000148022
0.00014676
0.000203926
0.0343271
0.000151783
0.000149366
0.000149351
0.0523745
0.00016818
0.039878
0.00488175
0.000123921
0.0724849
0.000149051
0.0500635
0.000149397
0.0692733
0.000146931
0.000184972
0.0861471
0.000166242
0.000146848
0.00014574
0.0513276
0.000155146
0.000187476
0.000107118
0.00364615
0.000147854
0.000158423
0.000164064
0.000151388
0.000185967
0.000149821
0.000169093
0.00014528
0.0223583
0.000147612
0.000148267
0.0865153
0.00014658
0.000148397
0.00014773
0.000152709
0.000149859
0.000149829
0.000167666
0.000152616
0.0377691
0.000148028
0.000154287
0.000173112
0.000161588
0.000146485
0.000147009
0.000154863
0.000158214
0.0416011
0.000190341
0.000147915
0.000153182
0.000239581
0.0630409
0.00014722
0.000144901
0.0221737
0.0553762
0.0755888
0.0419055
0.00014896
0.000166664
0.000148069
0.0365274
0.000492219
0.000157465
0.000151688
0.000267495
0.000184874
0.000147174
0.000195902
0.0403781
0.0562656
0.000147942
0.000173523
0.000171547
0.000149077
0.000152663
0.000147959
0.0745628
0.0467776
0.000147002
0.0710776
0.0431895
0.000149567
0.000165298
0.000147589
0.000189059
0.000161859
0.000148191
0.000311242
0.0570342
0.000162783
0.000620709
0.000147589
0.000150021
0.000157243
0.00015633
0.000155453
0.000182024
0.00014731
0.000169748
0.000149113
0.0531606
0.000173247
0.000147134
0.000181776
0.000145061
0.0685475
0.0146806
0.000147581
0.0614085
0.000144946
0.000148314
0.00015464
0.000147551
0.000178671
0.000158455
0.000147123
0.000172938
0.000146977
0.000181096
0.039296
0.000147369
0.000147682
0.0599751
0.000149726
0.000144948
0.000195035
0.000161841
0.000158111
0.000179691
0.00015139
0.000147138
0.000151603
0.00329541
0.0376208
0.000204083
0.0378338
0.000143479
0.000209556
0.000149297
0.000152235
0.0701179
0.000203252
0.000169571
0.000147381
0.000203869
0.000152205
0.00230216
0.000196013
0.000159295
0.0317143
0.000149062
0.0162356
0.00017757
0.000152056
0.000158481
0.000167215
0.000167601
0.000160182
0.000143461
0.000188006
0.000147322
0.000190447
0.000166255
0.000146987
0.000179358
0.0377967
0.000148601
0.000147994
0.0887694
0.000148318
0.000147003
0.000187129
0.00838267
0.0380994
0.000161849
0.00014418
0.0377126
0.000187438
0.000575554
0.000151547
0.000162825
0.000181579
0.000151755
0.000205934
0.000148205
0.00709485
0.00014811
0.000797945
0.000149387
0.0001627
0.000207707
0.000144574
0.000174847
0.00014466
0.000147727
0.000644784
0.000148945
0.0217695
0.000148091
0.019411
0.000147284
0.000148118
0.000182062
0.000146022
0.0702127
0.000147016
0.000158388
0.000148295
0.000149804
0.000202676
0.000172072
0.0297648
0.07419
0.020223
0.00288551
0.00019021
0.000147826
0.000149576
0.0254856
0.056234
0.000147673
0.0058181
0.0378187
0.00018865
0.000161391
0.000163786
0.0638693
0.000146757
0.000183038
0.0362856
0.000169609
0.000242633
0.0648958
0.000154205
0.00015361
0.000145462
0.0554161
0.0623081
0.000144897
0.000178256
0.0885218
0.000160218
0.0160311
0.000178436
0.0357195
0.000148101
0.000186954
0.00017976
0.00020823
0.000158616
0.000147292
0.0606334
0.00019202
0.000161012
0.000148594
0.000174053
0.000144195
0.000184551
0.000151626
0.000150548
0.000151374
0.000148555
0.000152798
0.000181086
0.000169934
0.000154101
0.00018168
0.000152396
0.0741161
0.0114574
0.000147046
0.00015222
0.00014857
0.000148314
0.0730985
0.0743997
0.000178272
0.000148157
0.000151415
0.000147615
0.000150793
0.0412443
0.000148007
0.000156996
0.000164884
0.000148106
0.000147405
0.00014661
0.000149624
0.000161655
0.000148535
0.000163545
0.000163418
0.000149808
0.000147291
0.0823656
0.075926
0.000151818
0.00014448
0.00014712
0.000165028
0.000164315
0.0862633
0.000188112
0.000151624
0.000148332
0.000179875
0.0603625
0.000150658
0.000148673
0.000145465
0.000148191
0.00016466
0.000149153
0.000148458
0.000176025
0.000147654
0.0414608
0.0387574
0.000151914
0.000155759
0.000158383
0.000237479
0.000172165
0.000219468
0.000180486
0.065989
0.00015194
0.000147847
0.000162445
0.0133305
0.000172635
0.000148036
9.42817e-05
0.000146002
0.000145492
0.000175291
0.000648538
0.000172851
0.000171323
0.000148136
0.000178442
0.000166671
0.0151872
0.000146211
0.000189167
0.000157621
0.000183614
0.000154328
0.000147827
0.0683087
0.000149943
0.0400459
0.0334568
0.000148145
0.000149647
0.0112979
0.000147678
0.000146883
0.0430952
0.000145564
0.0513983
0.000148106
0.067497
0.000172482
0.000202346
0.07369
0.000149147
0.000148321
0.000149238
0.000147479
0.00014746
0.000160943
0.00014922
0.000147642
0.000166008
0.00779914
0.000147653
0.000147635
0.000157578
0.000148122
0.000149702
0.000148113
0.0635112
0.000148819
0.000146089
0.000168717
0.000147904
0.000147236
0.040803
0.000164916
0.00015162
0.000167175
0.00014607
0.000164957
0.000157359
0.000149634
0.000169994
0.0786664
0.000163408
0.000182765
0.00015716
0.000145251
0.042772
0.000145565
0.0238732
0.000147027
0.000158235
0.000148197
0.000148368
0.000190826
0.00017352
0.00014838
0.000147024
0.000195116
0.0710863
0.000158053
0.000151752
0.000148439
0.0001787
0.000145387
0.0844914
0.000147178
0.000151164
0.000149374
0.000179544
0.000147037
0.0694144
0.00015068
0.000152559
0.000151718
0.000147907
0.000182264
0.000258748
0.000149566
0.000158082
0.000155831
0.000421757
0.000148251
0.0852619
0.0457887
0.000177448
0.000148506
0.000150497
0.000147888
0.0759464
0.000149935
0.000148594
0.000147468
0.000169445
0.0435887
0.00014976
0.000148709
0.000152833
0.000156718
0.0144394
0.0394528
0.000153106
0.0413425
0.000158522
0.000148002
0.000195897
0.000152578
0.0654468
0.00014926
0.00023733
0.000151837
0.00014961
0.0725941
0.000146973
0.000178238
0.000178316
0.0836227
0.000148033
0.000182061
0.000155129
0.0662461
0.000244454
0.000146745
0.00014917
0.000161208
0.0111405
0.000178899
0.000172573
0.000149743
0.0796636
0.00014497
0.000192054
0.000148732
0.000152496
0.0001508
0.000169258
0.00015212
0.000192271
0.0364875
0.000146724
0.000146901
0.000145694
0.0757142
0.000149824
0.000152866
0.000167318
0.000207162
0.000159637
0.0640768
0.000153886
0.0744413
0.000149361
0.000145007
0.000163028
0.00014812
0.0342281
0.000147102
0.000154458
0.000148232
0.00236979
0.0751677
0.000148526
0.000176157
0.000163369
0.000179884
0.000147334
0.000158635
0.00014879
0.000145068
0.0349633
0.0338189
0.000177804
0.000149619
0.000187296
0.000157237
0.000149182
0.000154455
0.000152823
0.00017678
0.0264037
0.000147375
0.000147876
0.000148576
0.00018762
0.00016232
0.0542788
0.07403
0.0208078
0.000174087
0.000145344
0.0599224
0.000175308
0.000149416
0.00014811
0.000165497
0.000148608
0.000163154
0.00014864
0.000193983
0.00015737
0.000150731
0.000154296
0.0459621
0.0131387
0.000239256
0.0447496
0.0723377
0.000149182
0.0267287
0.00015099
0.0327293
0.000149636
0.000170142
0.0382894
0.0368312
0.00551828
0.00014674
0.00014875
0.0369737
0.0735962
0.000149721
0.000154039
0.000166655
0.000150716
0.00015438
0.000117158
0.034039
0.000166192
0.000147239
0.000147342
0.000154275
8.81825e-05
0.000148188
0.0377939
0.00015749
0.000178532
0.000192008
0.000146845
0.0697068
0.0782742
0.000144243
0.000148172
0.000148678
0.000146934
0.086109
0.000148425
0.000145445
0.052212
0.000147581
0.000157741
0.000148087
0.0442442
0.000155488
0.000161105
0.0757986
0.000148348
0.000147931
0.0404526
0.000157858
0.000147334
0.000147576
0.000177587
0.0396393
0.000149755
0.000145203
0.000147248
0.000174448
0.00133035
0.000148342
0.0619394
0.000163369
0.000151946
0.00025308
0.000155135
0.00017198
0.000150982
0.000211461
0.00017317
0.0744242
0.000144238
0.000151038
0.000149211
0.000147573
0.000151752
0.000146953
0.000155635
0.00019165
0.000212815
0.000147346
0.000529541
0.000149312
0.000208283
0.000148752
0.0601208
0.039785
0.000164883
0.000146479
0.000147375
0.000147605
0.000145029
0.000153866
0.00014812
0.0373868
0.000233164
0.0495906
0.000173343
0.000114392
0.000191056
0.000148029
0.0297307
0.000198773
0.000148051
0.000212621
0.000158076
0.038725
0.000151678
0.000151772
0.0721173
0.000152447
0.000147758
0.000162003
0.000148569
0.00014815
0.0741873
0.000172741
0.000147353
0.000148044
0.000147513
0.0361286
0.000148703
0.000148108
0.000147903
0.000143512
0.000192893
0.000145587
0.0001463
0.0487173
0.000148157
0.000147925
0.0757346
0.0488936
0.00615736
0.0729439
0.000155851
0.0292801
0.000170325
0.000163032
0.0512283
0.000198475
0.00016904
0.000149049
0.000150592
0.000169081
0.0169279
0.0475042
0.000150627
0.000148646
0.000147979
0.00014763
0.000183277
0.000176074
0.000148006
0.000149207
0.000173316
0.000145343
0.000214133
0.000148032
0.000409726
0.000191288
0.000146985
0.000166565
0.000154117
0.000157953
0.000156642
0.000155575
0.000163577
0.0479631
0.00021101
0.000146955
0.000149089
3.30017e-05
0.000151481
0.0749283
0.000147475
0.000149682
0.000148099
0.000205168
0.000146745
0.000163907
0.0364113
0.000149812
0.000178256
0.0615763
0.000124692
0.000147962
0.000144552
0.000155658
0.000147325
0.000147591
0.0479103
0.0053804
0.000150526
0.0235831
0.000226908
0.00017422
0.000189594
0.000151548
0.000147776
0.000186842
0.000170826
0.000189392
0.000169621
0.000148647
0.000146817
0.00013777
0.000145003
0.000147478
0.000193632
0.000147517
0.0868446
0.000168276
0.000153887
0.0731223
0.000155032
0.000145606
0.000206955
0.000156136
0.000186678
0.000147875
0.000148389
0.000169636
0.000148056
0.000200226
0.000146276
0.000146912
0.00014818
0.000148452
0.000146038
0.000147488
0.000146985
0.000184371
0.03018
0.000147008
0.000188681
0.000160432
0.000160778
0.0671605
0.000149561
0.000151588
0.0114071
0.000166229
0.000170057
0.000155177
0.000147356
0.000153104
0.000711735
0.00170102
0.000144921
0.000167655
0.000144083
0.000191469
0.0344021
0.0364637
0.000177783
0.000148028
0.000154178
0.000158368
0.0721392
0.000156012
0.000148155
0.000172924
0.000175281
0.0193892
0.000148051
0.000152681
0.000168192
0.000148171
1.99714e-05
0.0219938
0.000147675
0.000152446
0.00015654
0.000145074
0.0887882
0.000149562
0.000147972
0.000149831
0.0583933
0.0533439
0.000147805
0.000217377
0.000148501
0.00031487
0.000153993
0.069584
0.00014796
0.0601126
0.000151555
0.00014751
0.000148351
0.000201736
0.000186927
0.00016332
0.00024483
0.000143639
0.0149149
0.0584291
0.073823
0.000173425
0.000158267
0.000143509
0.00014977
0.0369086
0.000172255
0.000148245
0.000205354
0.000146444
0.000147494
0.000190104
0.000150819
0.000145939
0.000150662
0.00014722
3.11134e-05
0.00014807
0.0623169
0.000191099
0.0498535
0.000147928
0.00021272
0.0774505
0.000150709
0.0438392
0.000148595
0.000151242
0.0690052
0.000149658
0.00014615
0.000159579
0.000151698
0.000148391
0.000154312
0.0737094
0.000149866
0.050086
0.000157464
0.000146006
0.000156534
0.000165096
0.000145326
0.0443589
0.000152367
0.000170104
0.000152154
0.000147608
0.000149564
0.000266189
0.0786754
0.000179077
0.000144051
0.000165402
0.0774332
0.000148546
0.000185828
0.000162261
0.000146949
0.000487609
0.000163577
0.000148191
0.0459338
0.0533232
0.00015225
0.000168132
0.0456017
0.000208178
0.000147336
0.00014808
0.000150016
0.000157776
0.000154254
0.000203343
0.000149502
0.000148045
0.000146823
0.000147633
0.000148395
0.000177718
0.000149842
0.0604255
0.0756842
0.00946523
0.0001865
0.0609617
0.000153148
0.000204488
0.000147607
0.0001474
0.000146539
0.0165017
0.000147484
0.000209304
0.000163473
0.000166734
0.000152451
0.000193313
0.0448004
0.000153654
0.000148825
0.000144551
0.000147818
0.000168997
0.000148102
0.000147771
0.00451048
0.000147595
0.0629619
0.00014676
0.000149887
0.000166957
0.0737463
0.00014902
0.000170582
0.0006556
0.000169756
0.000214876
0.000170128
0.000150558
0.000148673
0.000157155
0.000187999
0.0351457
0.000150548
0.000150519
0.000148126
0.000149108
0.000150874
0.0225698
0.000147641
0.0122811
0.0864483
0.000170054
0.000164442
0.000157924
0.000208356
0.0001907
0.000148244
0.000150596
0.000218678
0.000148483
0.000148198
0.000176322
0.000156115
0.000213042
0.000148708
0.000147491
0.00017088
0.000149893
0.000148493
0.0526001
0.0321378
0.000206864
0.000147812
0.000147903
0.000146157
0.000148701
0.0628976
0.00014823
0.000146551
0.0587868
0.000146474
0.000196343
0.000233333
0.0418334
0.0625625
0.000201277
0.05584
0.00019885
0.00021568
0.0618656
0.000143684
0.0625267
0.000128354
0.000147471
0.000159272
0.0662232
0.000148402
0.000147783
0.000147816
0.000146553
0.000145629
0.000218677
0.000205931
0.000154596
0.000206623
0.0639406
0.00014662
0.0367136
0.0739463
0.000171348
0.000150018
0.000148314
0.000154013
0.000153763
0.000154838
0.000158413
0.000168597
0.000204553
0.000197596
0.000147502
0.0567949
0.000154797
0.000205328
0.000148456
0.00014732
0.000149855
0.000201609
0.000165793
0.00014758
0.0574365
0.000147904
0.0202013
0.000182011
0.000166427
0.000239675
0.000152994
0.000172927
0.000147383
0.000155476
0.000146837
0.000148725
0.000169617
0.000163098
0.000156173
3.94336e-05
0.000147706
0.00014745
0.000148583
0.00014877
0.0001487
0.000150313
0.000151499
0.0575744
0.000151919
0.000146491
0.000148294
0.000163382
0.0008333
0.000230646
0.0129345
0.000164974
0.000150699
0.000144835
0.000155318
0.000147008
0.000144522
0.000148524
0.000157729
0.0737511
0.000205005
0.000166432
0.000161588
0.000936794
0.00775115
0.00014982
0.000146985
5.05106e-05
0.000148673
0.000147407
0.000166255
0.000172419
0.000170253
0.000150579
0.0001462
0.000151257
0.000149143
0.000148217
0.000150765
0.000168968
0.000152238
0.000146898
0.000146946
0.0001496
0.000195825
0.000174699
0.000168777
0.0631012
0.000147011
0.000144159
0.00015107
0.000150591
0.000166166
0.000147411
0.000150101
0.000167864
0.000221894
0.0163609
0.000149113
0.000145958
0.00101852
0.044843
0.00017366
0.0564137
0.000203881
0.000147696
0.000162074
0.0871241
0.000148052
0.000249287
0.000147008
0.0394588
0.000196386
0.000152864
0.00014708
0.000196742
0.0617709
0.000172616
0.000196513
0.000197904
0.000173784
0.000158846
0.000165115
0.000112768
0.0508726
0.0718496
0.000160813
0.000146508
0.0615487
0.000198728
0.000172802
0.000167354
0.0621293
0.00014918
0.000146715
0.000148222
0.0396631
0.000183619
0.000961333
0.000154629
0.00018548
0.000148874
0.000148913
0.000151274
0.000143992
0.000429198
0.000154435
0.000146943
0.000178499
0.0619888
0.000149517
0.000159156
0.0296731
0.0730676
0.0684063
0.0452309
0.0588389
0.000207485
0.000146161
0.000182011
0.00429061
0.0617163
0.000143964
0.000154276
0.000146711
0.000155642
0.00014728
0.000144123
0.000147874
0.000203189
0.000148026
0.0728243
0.0691748
0.000147565
0.000148683
0.000188909
0.000164297
0.000147063
0.000119091
0.000147653
0.000198351
0.000173626
0.000202497
0.000156423
0.000173694
0.000167035
0.000146922
0.00016819
0.00017959
0.0491103
0.000147049
0.0242455
0.000151255
0.000147586
0.000154636
0.000193591
0.000176574
0.0568364
0.000148832
0.000150573
0.000148225
0.00019269
0.000154774
0.000163907
0.000147421
0.008177
0.000143473
0.000144438
0.0683692
0.0863811
0.000148083
0.0622142
0.0437366
0.0504646
0.0779788
0.0568083
0.0866735
0.000148231
0.000149406
0.000148153
0.000147987
0.0468452
0.000169027
0.000171802
0.0557598
0.000148666
0.000149595
0.000186107
0.0633965
0.000168839
0.000150303
0.000156401
0.000147312
0.000148545
0.000192003
0.000149734
0.000207415
0.00014832
0.000173642
0.000152062
0.0184564
0.00021351
0.000145449
0.000148021
0.000148204
0.000204828
0.000188129
0.000150521
0.00014808
0.0001794
0.000148444
0.000153255
0.000156511
0.000204615
0.000162018
0.000174219
0.000145503
0.000147726
0.000151208
0.000162073
0.000189474
0.000188545
0.000149734
0.000150506
0.000169443
0.0349743
0.0683095
0.000145023
0.000158369
0.000144904
0.0615383
0.00015286
0.00014992
0.000154145
0.000191962
0.0481025
0.000155852
0.000162147
0.000146125
0.0626861
0.000175164
0.000147241
4.82782e-05
0.000162398
0.000159471
0.000165618
7.61472e-05
0.000162049
0.000248558
0.00902351
0.000156122
0.000146984
6.40327e-05
0.000146977
0.000146157
0.00014733
0.00127173
0.000149971
0.000145563
0.000181415
0.00016316
0.000149005
0.000155964
0.000148234
0.000146929
0.0383713
0.000170462
0.000212733
0.000175233
0.000175891
0.000148194
0.0523418
0.000186158
0.000178424
0.0183597
0.000146898
0.000148655
0.000168846
0.000181837
0.000148131
0.0749945
0.000206938
0.000162519
0.0642576
0.0446355
0.000145472
0.000209912
0.000186281
0.0740714
0.000152798
0.000164628
0.000145972
0.000164191
0.000146651
0.000178099
0.000195889
0.000148061
0.000146153
0.000145419
0.00018817
0.000173054
0.000172975
0.0433604
0.0408429
0.000145373
0.0277435
0.000149209
0.000148667
0.000146636
9.52843e-05
0.000149335
0.000151628
0.000148123
0.000177462
0.000149028
0.000152157
0.0696312
0.000148052
0.000205018
0.0436289
0.000117325
0.0641315
0.0319834
0.000158497
0.000190744
0.000148239
0.000491437
0.000144947
0.000147516
0.000147586
0.000148101
0.0619252
0.000148872
0.000207716
0.000145592
0.000173648
0.000150633
0.000162416
0.000152795
0.000150117
0.000155946
0.000144422
0.000147731
0.064731
0.000148766
0.000167397
0.000155968
0.000152049
0.000172749
0.000148628
0.000149969
0.000190752
0.0330714
0.0748208
0.0743309
0.0690046
0.000184543
0.000147468
0.000148279
0.000173117
0.0289761
0.000178782
0.00050824
0.000147834
0.000147302
0.000175574
0.000146003
0.00669284
0.0343008
0.0702488
0.000146627
0.000149637
0.000144749
0.000146462
0.0611695
0.00014825
0.000149695
0.000164066
0.0611602
0.000150143
0.000147814
0.000147294
0.0675223
0.000149895
0.000155642
0.0655122
0.00031027
0.000189791
0.052065
0.0200832
0.0447177
0.000148164
0.0465677
0.000149268
0.000147851
0.00017913
0.0660985
0.00020379
0.0693809
0.00014548
0.000147593
0.00014726
0.000181086
0.00110913
0.000162636
0.0347146
0.000157382
0.0766313
0.0721932
0.000148165
0.000194045
0.000155304
0.00015518
0.000166157
0.000145791
0.0324831
0.0410188
0.00014968
0.000148148
8.56996e-05
0.000150058
0.000150509
0.0573663
0.000201011
0.000148477
0.000148182
0.000148853
0.000148147
0.074854
0.000158122
0.000147655
0.000146139
0.0637178
0.000146789
0.000148778
0.0373854
0.000147326
0.000196354
0.000482484
0.000158013
0.000152766
0.00016256
0.0674243
0.000145012
0.000153241
0.026636
0.000178756
0.000148714
0.000197006
0.000173896
0.000106008
0.0646722
0.00015509
0.0443756
0.000148055
0.000148138
0.000148989
0.000148079
0.000154266
0.000163738
0.000203643
0.000147195
0.000166447
0.000154135
0.000238273
0.000163172
0.000148864
0.000143507
0.0699719
0.0470184
0.000165995
0.000146482
0.000166474
0.00014746
0.000158316
0.00014779
0.0745476
0.000178151
0.00014671
0.0782851
0.0609753
0.000147238
0.000148529
0.0374391
0.000166921
0.000146183
0.0593981
0.0727834
0.000146158
0.000147613
0.000518559
0.0458377
0.000211055
0.000148145
0.000205116
0.0546013
0.000164996
0.000145535
0.000171925
0.000143521
0.0805937
0.00015052
0.0001561
0.056256
0.0401259
0.000148871
0.000148648
0.0403454
0.0746799
0.000147379
0.000149654
0.000148869
0.000148223
0.00014741
0.000174502
0.0338467
0.000151819
0.000206345
0.000107908
0.000165064
0.000149528
0.000148646
0.000145015
0.0684512
0.0619952
0.000169661
0.000194077
0.000152307
0.0771373
0.000191048
0.000158136
0.000148573
0.000148707
0.000212356
0.0717336
0.000145917
0.000159322
0.000144834
0.000147345
0.0315085
0.000189703
0.000156313
0.000146828
0.000146672
0.0606747
0.000328409
0.000150639
0.000162961
0.000170547
0.0429218
0.000152892
0.000177907
0.0891404
0.000166606
0.000147701
0.000168724
0.000178861
0.000146867
0.000147803
0.079285
0.000192075
0.0370769
0.000186491
0.000152397
0.0357446
0.000151566
0.000188671
0.000146007
0.000159164
0.000148111
0.000162235
0.000147796
0.0702033
0.000146553
0.000148305
0.0013243
0.000171108
0.000205179
0.000148062
0.000147395
0.0714939
0.000206068
0.000186062
0.000154273
0.000209643
0.000218208
0.00020841
0.000169971
0.0417337
0.0381602
0.0659886
0.000148091
0.000145497
0.000147604
0.000172035
0.000201786
0.000147669
0.000156829
0.0413564
0.049468
0.000149862
0.0393327
0.0001569
0.000178679
0.000168665
0.000148966
0.000146746
0.000176941
0.000156666
0.000200714
0.000152844
0.000148908
0.0507922
0.0698951
0.000145978
0.00017874
0.000148954
0.000148348
0.000155592
0.030305
0.000164888
0.000147873
0.000150684
0.00211427
0.0646908
0.000168937
0.0802075
0.000165795
0.0639346
0.000149835
0.000148682
0.000147785
0.00014805
0.000204151
0.000181843
0.000148053
0.000166302
0.000156181
0.00857893
0.000204778
0.000147704
0.000148199
0.000150549
0.000158185
0.0459799
0.0425696
0.000156304
0.0592944
0.000192776
0.000147621
0.00016759
0.000146547
0.000147093
0.000157193
0.000150625
0.00015698
0.000166575
0.000145836
0.000147694
0.00015189
0.0821146
0.000148037
0.00015056
0.0807588
0.000209203
0.000181503
0.000147943
0.0720851
0.000148562
0.000193411
0.069596
0.0793362
0.000155593
0.000161641
0.000151193
0.00015098
0.0205736
0.0607346
0.040758
0.000158185
0.000145175
0.000170967
0.000150639
0.000147981
0.0459671
0.000162991
0.000164853
0.000146844
0.000154366
0.000159359
0.000238653
0.000147078
0.000168567
0.0142576
0.000148288
0.000151296
0.000172916
0.000151147
0.0349219
0.000147528
0.000150015
0.000147371
0.000157383
0.000145223
0.000145089
0.0718462
0.0486267
0.0647828
0.000168218
0.0002128
0.0892195
0.000154254
0.000175934
0.000148681
0.000147695
0.000164354
0.000161826
0.000200882
0.078301
0.065184
0.000151582
0.000147279
0.000174806
0.000147653
0.000159328
0.031321
0.036429
0.0476145
0.0507029
0.00015141
0.0793368
0.000181378
0.00014671
0.0254526
0.000168695
0.000154518
0.000148095
0.0808878
0.000148944
0.000178178
0.000180724
0.0562068
0.00014902
0.000180423
0.0383827
0.000178627
0.00015423
0.0488552
0.000147073
0.000145096
0.000152558
0.000147692
0.0601799
0.0771524
0.000209324
0.00014885
0.0169476
0.000150923
0.000162484
0.000239003
0.000161076
0.000179477
0.00014389
0.000148747
0.0538319
0.000207801
0.0246963
0.000146887
0.000152414
0.000166637
0.000147376
0.000144786
0.000151034
0.000149562
0.00014633
0.000210095
0.00016103
0.00015264
0.000155166
0.000175187
0.0617394
0.0584815
0.000158276
0.000460553
0.000176778
0.000157898
0.000147676
0.000152673
0.0409882
0.00637388
0.0435662
0.000158999
0.000148636
0.000149954
0.000159938
0.000149833
0.000148125
0.0641361
0.00104044
0.000146226
0.0301623
0.0887228
0.000144143
0.000145088
0.000152537
0.000150399
0.000215715
0.000180877
0.000201597
0.000208425
0.000194441
0.0535174
0.000170486
0.000146831
0.000148898
0.0338625
0.0001671
0.0001721
0.000165797
0.0715756
0.000146892
0.000211465
0.000150611
0.000148013
0.000152214
0.000188525
0.000187744
0.000147729
0.000148058
0.0714503
0.000159039
0.000158414
0.0695351
0.0491519
0.000171765
0.000148124
0.000176411
0.000145083
0.000151629
0.0087539
0.057771
0.000178935
0.000189085
0.000151866
0.000174171
0.000163768
0.000210584
0.069285
0.000171194
0.000145162
0.06718
0.000152586
0.000150459
0.000147874
0.000146499
0.0470634
0.000176452
0.000145965
0.000206867
0.000211031
0.000170893
0.0455436
0.000194113
0.000147357
0.000159479
0.0371615
0.0331862
0.000173107
0.000172959
0.000151748
0.0126184
0.00014708
0.0331833
0.00014634
0.000147361
0.00021817
0.000168089
0.000151857
0.000147728
0.000147321
0.0380399
0.000186182
0.000147042
0.000148162
0.000187372
0.000150416
0.000145878
0.000146961
0.046954
0.000193215
0.000151318
0.0597157
0.000147301
0.000159009
0.000148157
0.0651864
0.000177284
0.000172397
0.000150371
0.000185375
0.000147078
0.0760997
0.00014827
0.0001469
0.000158435
0.00808804
0.061844
0.000164784
0.000168059
0.000147712
0.000158851
0.000157644
0.0395319
0.000149713
0.000145768
0.0420208
0.000174786
0.000150613
0.000146971
0.000241846
0.000152585
0.015653
0.000185216
0.000145922
0.000150649
6.99209e-05
0.0669046
0.0351294
0.000186265
0.000147313
0.000148321
0.000154676
0.000184009
0.000148347
0.000175552
0.000162033
0.000197237
0.000172392
0.064311
0.000150454
0.0782567
0.000149923