/*--------------------------------*- C++ -*----------------------------------*\
| =========                 |                                                 |
| \\      /  F ield         | OpenFOAM: The Open Source CFD Toolbox           |
|  \\    /   O peration     | Version:  v2012                                 |
|   \\  /    A nd           | Website:  www.openfoam.com                      |
|    \\/     M anipulation  |                                                 |
\*---------------------------------------------------------------------------*/
FoamFile
{
    version     2.0;
    format      ascii;
    class       volScalarField;
    location    "200";
    object      k_0;
}
// * * * * * * * * * * * * * * * * * * * * * * * * * * * * * * * * * * * * * //

dimensions      [0 2 -2 0 0 0 0];


internalField   nonuniform List<scalar> 
37190
(
0.000148017
0.0630985
0.000146647
0.000167969
0.0407393
0.000146884
0.000175175
0.000150741
0.000167573
0.000214438
0.000147899
0.000144459
0.000154802
0.000146107
0.0555396
0.000148142
0.000151248
0.000182545
0.0605593
0.000114102
0.000151834
0.000148017
0.075896
0.00015411
0.000152008
0.000148158
0.000173838
0.000178314
0.000257986
0.0484134
0.075629
0.000146539
0.000188829
0.000214903
0.000191294
0.000178109
0.000144675
0.000154081
0.000152585
0.000147767
0.00021394
0.036325
0.000151695
0.00019059
0.000148212
0.000203315
0.0361988
0.000239656
0.000146632
0.0424597
0.000149521
0.000148102
0.000163866
0.000161343
0.00014888
0.000149783
0.000213459
0.000144696
0.0379013
0.000144885
0.0364094
0.000178137
0.000143426
0.069711
0.000151615
0.000151858
0.00014618
0.000195277
0.00017033
0.000143447
0.000148939
0.000148745
0.000158231
0.000147161
0.000148163
0.000148454
0.0735473
0.000168295
0.0460452
0.00015837
0.000148386
0.000157795
0.00014712
0.000180324
0.000949699
0.000151178
0.0539012
0.0462259
0.0563508
0.00014655
0.0714928
0.000190861
0.000151897
0.00014714
0.000147664
0.000152069
0.0440779
0.000147305
0.000167398
0.0881123
0.000151765
0.000180477
0.0750459
0.0867164
0.000148372
0.000149176
0.0612114
0.000148699
0.000146182
0.0675818
0.0736428
0.0593179
0.000153239
0.000145305
0.000148719
0.000148053
0.000168559
0.000152614
0.000147778
0.00015077
0.000148011
0.0338279
0.000148147
0.00014872
0.000147814
0.0495468
0.000145313
0.000147747
0.000163191
0.000168671
0.000147718
0.062727
0.000156688
0.000152192
0.0728513
0.00014715
0.000167233
0.000195701
0.0002018
0.000150509
0.000158791
0.000178644
0.000167206
0.000152174
0.000147657
0.000148429
0.079459
0.00015097
0.000196446
0.000145585
0.000147565
0.000159153
0.000204501
0.000148043
0.0364056
0.000145394
0.0467781
0.000147894
0.0629724
0.00016707
0.000173864
0.000148338
0.0356121
0.0508405
0.000159071
0.000150602
0.0573405
0.000192289
0.0490136
0.000209831
0.000147133
0.0519082
0.000148354
0.000154338
0.0349909
0.000193737
0.000147927
0.000151528
0.000172525
0.000154967
0.000189876
0.000148468
0.00014843
0.000147117
0.0720894
0.000149016
0.000188726
0.000163379
0.0798099
0.000212099
0.000148741
0.000182032
0.00014563
0.000151289
0.000195721
0.000157103
0.000147707
0.000174492
0.0888411
0.0629001
0.000202476
0.000146529
0.000147582
0.000149071
0.0491033
0.000167161
0.000174706
0.000149437
0.000147982
0.0532896
0.000147908
0.0481504
0.000146534
0.00016383
0.0645779
0.0846336
0.000196608
0.000194448
0.000214899
0.000148337
0.038007
0.000144432
0.000148149
0.000165847
0.0685222
0.000148058
0.0444421
0.000147624
0.000163663
0.0214586
0.000151558
0.000148173
0.000144884
0.0537474
0.000161396
0.000186821
0.000184496
0.0311694
0.000143509
0.000148697
0.000171805
0.000149023
0.0482588
0.000148104
0.000147901
0.00247048
0.000147403
0.0406894
0.000189519
0.000186496
0.00014758
0.000179922
0.000148167
0.000157534
0.000156496
0.000148219
0.000181859
0.000148887
0.000166779
0.000147389
0.0422145
0.000159914
0.000145523
0.0742453
0.000152101
0.000146132
0.000148803
0.000151611
0.0695555
0.000144776
0.0688101
0.0702167
0.000214961
0.000161217
0.0178767
0.000146983
0.000146795
0.0416887
0.000164971
0.000158835
0.000262232
0.00014874
0.000189536
0.000214011
0.000151911
0.000157717
0.000148683
0.000148719
0.00017416
0.000148243
0.000149195
0.000191543
0.000165502
0.000172334
0.017577
0.000148053
0.000147528
0.0713312
0.000169965
0.000144781
0.0444437
0.000122831
0.000151477
0.000203879
0.000147567
0.000145378
0.000146141
0.000148939
0.000257772
0.000153994
0.000149688
0.0713599
0.000161268
0.000180951
0.028242
0.0558079
0.000157945
9.53022e-05
0.000165522
0.000145375
0.000148053
0.000159512
0.00021335
0.000148018
0.0824884
0.000204229
0.000179005
0.0888199
0.000147194
0.0886677
0.000163784
0.000169753
0.000147702
0.0174854
0.000203829
0.0448103
0.000108145
0.000167369
0.000150858
0.07064
0.000150264
0.000203592
0.000148694
0.000149706
0.0616543
0.000199439
0.000209783
0.000149694
0.000147368
0.000145361
0.000148714
0.074285
0.000147317
0.00014686
0.000156868
0.000795857
0.000145974
0.0572316
0.000176474
0.000150537
0.000164472
0.044615
0.000173272
0.0631593
0.000156247
0.000184783
0.000148195
0.000145673
0.00018992
0.000164254
0.000150172
0.000165244
0.000156136
0.000150575
0.000151029
0.000187643
0.000187195
0.000212998
0.000187108
0.0428059
0.0660073
0.000201701
0.0390762
0.000166317
0.000173621
0.0560814
0.000174545
0.00016308
0.000186191
0.000159627
0.000149144
0.000198578
0.000158582
0.000148725
0.000151945
0.000146066
0.000706707
0.000154998
0.000149808
0.000193885
0.000145685
0.0728533
0.000151844
0.000148042
0.000151968
0.00014722
0.000146938
0.0408786
0.000150771
0.000145706
0.000148332
0.000445093
0.0490423
0.000148546
0.00014765
0.000147767
0.000170225
0.000147847
0.000144865
0.000146917
0.0741742
0.000202517
0.0551861
0.000147581
0.000144861
0.000192509
0.0713388
0.000149841
0.000151136
0.000146961
0.00019698
0.000145811
0.000151904
0.000169167
0.000149075
0.0743011
0.000150644
0.000190017
0.000149052
0.000147771
0.0001498
0.000147089
0.0733563
0.000151356
0.000148051
0.0491693
0.0354833
0.000145671
0.0820783
0.000148939
0.000168828
0.000203932
0.000148063
0.0428103
0.000147386
0.0801182
0.000145633
0.0001492
0.000156092
0.000145432
0.0670937
0.000166553
0.000145913
0.00731901
0.000195369
0.000147192
0.00020787
0.000664015
0.000148746
0.000147086
0.000169582
0.0721903
0.0880766
0.000207406
0.0168495
0.0828671
0.000164013
0.0746382
0.00014943
0.000146859
0.000145707
0.000149221
0.0522423
0.0033605
0.000146672
0.000164965
0.00483267
0.000148154
0.0238774
0.000166033
0.000151913
0.000156619
0.00014775
0.000209172
0.000189004
0.000161375
0.000148022
0.000146759
0.00020392
0.0343268
0.000151783
0.000149366
0.000149351
0.0523659
0.00016818
0.039877
0.00488976
0.000123879
0.0725001
0.000149051
0.0500615
0.000149397
0.069279
0.000146931
0.000184986
0.0861456
0.000166243
0.000146848
0.00014574
0.0513286
0.000155147
0.000187476
0.000107197
0.00366004
0.000147854
0.000158423
0.000164064
0.000151387
0.000185965
0.000149821
0.000169093
0.00014528
0.0223691
0.000147612
0.000148267
0.0865158
0.00014658
0.000148397
0.00014773
0.000152708
0.000149859
0.000149829
0.000167666
0.000152616
0.0377673
0.000148028
0.000154287
0.000173112
0.000161588
0.000146485
0.000147009
0.000154863
0.000158214
0.0416033
0.000190344
0.000147915
0.000153182
0.000239583
0.0630348
0.00014722
0.000144901
0.0221742
0.0553714
0.0755864
0.0419078
0.000148959
0.000166665
0.000148069
0.0365259
0.00049276
0.000157465
0.000151688
0.000267231
0.000184873
0.000147174
0.0001959
0.0403803
0.0562488
0.000147942
0.000173523
0.000171547
0.000149078
0.000152662
0.000147959
0.0745676
0.0467719
0.000147002
0.0710951
0.0431665
0.000149567
0.000165298
0.000147589
0.000189063
0.000161859
0.000148191
0.000311256
0.0570201
0.000162783
0.000620702
0.000147589
0.00015002
0.000157242
0.00015633
0.000155453
0.000182024
0.00014731
0.000169748
0.000149113
0.0531519
0.000173247
0.000147134
0.00018177
0.000145061
0.0685518
0.0146808
0.000147581
0.0614061
0.000144946
0.000148313
0.00015464
0.000147551
0.000178671
0.000158456
0.000147123
0.000172938
0.000146977
0.000181098
0.039273
0.000147369
0.000147683
0.0599645
0.000149726
0.000144948
0.000195032
0.000161841
0.000158111
0.000179691
0.000151389
0.000147138
0.000151603
0.00330056
0.0376221
0.000204095
0.0378346
0.000143479
0.000209569
0.000149297
0.000152236
0.0701348
0.000203253
0.000169571
0.000147381
0.000203869
0.000152204
0.00231081
0.000196021
0.000159295
0.0317163
0.000149062
0.0162359
0.000177571
0.000152056
0.000158482
0.000167216
0.000167602
0.000160182
0.000143461
0.000188011
0.000147322
0.000190451
0.000166256
0.000146987
0.000179358
0.0377973
0.000148601
0.000147994
0.0887674
0.000148318
0.000147003
0.000187127
0.00838275
0.0380977
0.000161849
0.00014418
0.0377133
0.000187439
0.000575547
0.000151547
0.000162825
0.000181578
0.000151755
0.000205928
0.000148205
0.00709494
0.00014811
0.000791158
0.000149387
0.000162701
0.000207722
0.000144574
0.000174846
0.00014466
0.000147727
0.000638686
0.000148946
0.0217698
0.000148091
0.0194371
0.000147284
0.000148118
0.000182057
0.000146022
0.0702158
0.000147016
0.000158388
0.000148295
0.000149804
0.000202678
0.000172072
0.0297291
0.0741931
0.0202234
0.00286798
0.000190216
0.000147826
0.000149576
0.025486
0.0562182
0.000147673
0.00581817
0.0378197
0.000188654
0.000161392
0.000163786
0.0638683
0.000146756
0.000183037
0.0362865
0.000169609
0.000242641
0.0648946
0.000154205
0.000153611
0.000145462
0.0554072
0.0623056
0.000144897
0.000178249
0.0885167
0.000160218
0.0160314
0.000178438
0.0357201
0.000148102
0.000186953
0.000179759
0.000208222
0.000158617
0.000147292
0.0606325
0.000192023
0.000161012
0.000148594
0.000174054
0.000144195
0.000184551
0.000151626
0.000150549
0.000151374
0.000148555
0.000152799
0.000181088
0.000169935
0.0001541
0.00018168
0.000152396
0.0741108
0.0114593
0.000147046
0.00015222
0.00014857
0.000148314
0.0731014
0.0744092
0.000178271
0.000148157
0.000151415
0.000147616
0.000150793
0.0412464
0.000148007
0.000156996
0.000164884
0.000148106
0.000147405
0.00014661
0.000149625
0.000161655
0.000148535
0.000163545
0.000163418
0.000149808
0.000147291
0.0823717
0.0759374
0.000151818
0.00014448
0.00014712
0.000165028
0.000164315
0.0862619
0.000188115
0.000151623
0.000148332
0.000179875
0.0603767
0.000150658
0.000148673
0.000145465
0.000148191
0.00016466
0.000149153
0.000148458
0.000176025
0.000147654
0.0414631
0.0387568
0.000151914
0.00015576
0.000158383
0.000237589
0.000172166
0.000219132
0.000180485
0.0659926
0.00015194
0.000147847
0.000162445
0.0133307
0.000172635
0.000148036
9.45487e-05
0.000146002
0.000145492
0.00017529
0.000648628
0.000172852
0.000171323
0.000148136
0.000178443
0.000166672
0.0152071
0.000146211
0.000189166
0.000157621
0.000183604
0.000154327
0.000147827
0.068311
0.000149943
0.0400481
0.0334555
0.000148145
0.000149647
0.0112997
0.000147678
0.000146883
0.0430976
0.000145564
0.051396
0.000148106
0.0674983
0.000172482
0.000202341
0.0736945
0.000149147
0.000148321
0.000149238
0.000147479
0.00014746
0.000160944
0.00014922
0.000147642
0.000166008
0.00780181
0.000147653
0.000147636
0.000157579
0.000148122
0.000149702
0.000148112
0.0635105
0.000148819
0.000146089
0.000168717
0.000147904
0.000147236
0.0408023
0.000164916
0.00015162
0.000167175
0.00014607
0.000164957
0.000157359
0.000149634
0.000169994
0.0786768
0.000163408
0.000182764
0.00015716
0.000145251
0.0427698
0.000145565
0.0238831
0.000147027
0.000158235
0.000148197
0.000148368
0.000190829
0.00017352
0.00014838
0.000147023
0.000195123
0.0710904
0.000158053
0.000151751
0.000148439
0.000178994
0.000145387
0.0844854
0.000147178
0.000151164
0.000149374
0.000179544
0.000147036
0.0694164
0.00015068
0.000152559
0.000151718
0.000147907
0.000182248
0.000258759
0.000149566
0.000158082
0.000155831
0.000422065
0.000148251
0.0852599
0.0457863
0.000177448
0.000148506
0.000150497
0.000147889
0.0759602
0.000149935
0.000148594
0.000147468
0.000169445
0.0435862
0.00014976
0.000148708
0.000152833
0.000156718
0.0144396
0.0394537
0.000153106
0.0413446
0.000158523
0.000148002
0.000195906
0.000152578
0.0654466
0.00014926
0.00023729
0.000151837
0.00014961
0.0725882
0.000146973
0.000178238
0.000178315
0.0836167
0.000148033
0.000182065
0.000155129
0.0662498
0.000244456
0.000146745
0.00014917
0.000161208
0.0111573
0.000178899
0.000172573
0.000149743
0.0796715
0.00014497
0.000192052
0.000148732
0.000152495
0.0001508
0.000169258
0.00015212
0.000192275
0.0364884
0.000146724
0.000146901
0.000145694
0.0757232
0.000149824
0.000152866
0.000167318
0.000207174
0.000159637
0.0640674
0.000153887
0.0744512
0.000149361
0.000145007
0.000163028
0.00014812
0.0342283
0.000147102
0.000154458
0.000148232
0.00236763
0.0751826
0.000148526
0.000176158
0.000163369
0.000179886
0.000147334
0.00015852
0.00014879
0.000145068
0.0349615
0.0338175
0.000177804
0.000149619
0.000187296
0.000157237
0.000149182
0.000154455
0.000152823
0.00017678
0.0264042
0.000147375
0.000147876
0.000148576
0.00018762
0.000162321
0.0542753
0.0740327
0.0208346
0.000174087
0.000145344
0.059912
0.000175308
0.000149416
0.000148111
0.000165497
0.000148608
0.000163154
0.00014864
0.000193413
0.00015737
0.000150731
0.000154296
0.0459559
0.0131389
0.000239269
0.0447436
0.072343
0.000149182
0.0267291
0.00015099
0.0327298
0.000149635
0.000170143
0.0382893
0.0368314
0.00559785
0.00014674
0.00014875
0.0369739
0.0736062
0.000149721
0.000154039
0.000166655
0.000150716
0.000154381
0.000117149
0.0340043
0.000166192
0.000147239
0.000147342
0.000154276
8.96594e-05
0.000148188
0.0377948
0.00015749
0.000178532
0.000192006
0.000146845
0.0697055
0.0782852
0.000144243
0.000148172
0.000148678
0.000146934
0.0861103
0.000148425
0.000145445
0.0522096
0.000147581
0.000157741
0.000148087
0.0442452
0.000155488
0.000161105
0.0758082
0.000148348
0.000147931
0.0404545
0.000157858
0.000147334
0.000147576
0.000177583
0.0396413
0.000149755
0.000145203
0.000147248
0.000174449
0.00133055
0.000148342
0.0619404
0.000163369
0.000151947
0.000253048
0.000155135
0.00017198
0.000150982
0.000211479
0.00017317
0.0744302
0.000144238
0.000151038
0.000149211
0.000147573
0.000151751
0.000146953
0.000155635
0.000191656
0.000212806
0.000147345
0.000529532
0.000149312
0.000208276
0.000148752
0.0601229
0.0397872
0.000164883
0.000146479
0.000147375
0.000147605
0.000145029
0.000153867
0.00014812
0.0373868
0.000233565
0.0495718
0.000173344
0.000114903
0.000191061
0.000148029
0.0297357
0.000198769
0.000148051
0.000212638
0.000158076
0.038727
0.000151679
0.000151772
0.0721218
0.000152447
0.000147759
0.000162003
0.000148569
0.00014815
0.0742027
0.000172742
0.000147353
0.000148044
0.000147513
0.0361302
0.000148703
0.000148108
0.000147903
0.000143512
0.000192894
0.000145587
0.0001463
0.0487128
0.000148158
0.000147925
0.0757258
0.0488944
0.00612938
0.0729464
0.000155851
0.0292805
0.000170325
0.000163032
0.0512299
0.000198485
0.000169041
0.000149049
0.000150592
0.000169081
0.0169288
0.0474793
0.000150627
0.000148646
0.000147979
0.000147629
0.000183293
0.000176074
0.000148006
0.000149207
0.000173316
0.000145343
0.000214138
0.000148032
0.000409657
0.000191285
0.000146984
0.000166566
0.000154117
0.000157953
0.000156642
0.000155575
0.000163577
0.0479647
0.000211002
0.000146955
0.000149089
3.31064e-05
0.000151481
0.0749249
0.000147475
0.000149682
0.000148099
0.000205163
0.000146745
0.000163907
0.0364125
0.000149812
0.000178255
0.0615676
0.000124846
0.000147962
0.000144552
0.000155657
0.000147325
0.000147591
0.0479033
0.00537546
0.000150526
0.0235835
0.000226909
0.000174218
0.000189595
0.000151548
0.000147776
0.000187057
0.000170827
0.000189391
0.000169621
0.000148646
0.000146817
0.000138017
0.000145003
0.000147478
0.000193639
0.000147517
0.0868387
0.000168276
0.000153888
0.0731192
0.000155031
0.000145606
0.000206967
0.000156137
0.000186679
0.000147875
0.000148389
0.000169637
0.000148056
0.000200225
0.000146275
0.000146912
0.00014818
0.000148452
0.000146038
0.000147488
0.000146985
0.000184362
0.0301805
0.000147008
0.000188685
0.000160432
0.000160779
0.0671793
0.000149561
0.000151588
0.0114168
0.000166228
0.000170057
0.000155177
0.000147356
0.000153104
0.000711691
0.00170128
0.000144921
0.000167655
0.000144083
0.000191472
0.0343993
0.0364647
0.000177778
0.000148028
0.000154178
0.000158369
0.0721442
0.000156012
0.000148155
0.000172925
0.000175281
0.0193959
0.000148051
0.00015268
0.000168192
0.000148171
2.01324e-05
0.0219942
0.000147675
0.000152446
0.000156541
0.000145074
0.0887835
0.000149562
0.000147972
0.000149831
0.0583945
0.0533249
0.000147805
0.000217371
0.000148501
0.00031635
0.000153993
0.0695884
0.00014796
0.0601147
0.000151555
0.00014751
0.000148351
0.000201734
0.000187379
0.000163321
0.000244839
0.000143639
0.0149211
0.0584155
0.0738248
0.000173423
0.000158267
0.000143509
0.00014977
0.0369071
0.000172255
0.000148245
0.000205348
0.000146444
0.000147494
0.000190109
0.000150819
0.000145939
0.000150662
0.000147219
3.12456e-05
0.00014807
0.0623096
0.0001911
0.0498482
0.000147928
0.000212724
0.0774608
0.000150709
0.0438398
0.000148595
0.000151241
0.06901
0.000149659
0.00014615
0.000159579
0.000151698
0.000148391
0.000154312
0.0737149
0.000149866
0.0500837
0.000157464
0.000146006
0.000156534
0.000166422
0.000145326
0.0443515
0.000152367
0.000170105
0.000152154
0.000147608
0.000149564
0.000266689
0.0786665
0.000179076
0.000144051
0.000165403
0.0774429
0.000148546
0.000185829
0.000162261
0.000146949
0.000487567
0.000163578
0.000148191
0.0459324
0.0533123
0.00015225
0.000168132
0.0455744
0.000208194
0.000147336
0.00014808
0.000150016
0.000157775
0.000154254
0.000203345
0.000149502
0.000148045
0.000146823
0.000147633
0.000148396
0.000177718
0.000149842
0.060424
0.0756808
0.00948047
0.000186501
0.06096
0.000153149
0.0002045
0.000147607
0.0001474
0.000146539
0.0165021
0.000147484
0.000209317
0.000163473
0.000166734
0.000152451
0.000193313
0.0447949
0.000153654
0.000148825
0.000144551
0.000147818
0.000168997
0.000148102
0.000147772
0.00451325
0.000147595
0.0629601
0.00014676
0.000149887
0.000166957
0.073736
0.00014902
0.000170582
0.000649272
0.000169757
0.000214868
0.000170128
0.000150558
0.000148673
0.000157155
0.000188003
0.0351457
0.000150548
0.000150519
0.000148126
0.000149108
0.000150874
0.0225967
0.000147641
0.0122996
0.0864492
0.000170054
0.000164442
0.000157924
0.000208365
0.000190703
0.000148244
0.000150596
0.000218669
0.000148483
0.000148198
0.000176321
0.000156115
0.000213035
0.000148708
0.000147491
0.00017088
0.000149893
0.000148493
0.0525982
0.0321395
0.000206872
0.000147812
0.000147903
0.000146157
0.000148701
0.0628962
0.00014823
0.000146551
0.0587853
0.000146474
0.000196342
0.000233453
0.0418327
0.062554
0.000201275
0.0558344
0.000198848
0.000215676
0.0618631
0.000143684
0.0625247
0.00012832
0.000147471
0.000159272
0.0662248
0.000148402
0.000147783
0.000147816
0.000146553
0.000145629
0.00021867
0.000205946
0.000154596
0.000206638
0.063938
0.00014662
0.036711
0.0739486
0.000171349
0.000150018
0.000148314
0.000154013
0.000153763
0.000154838
0.000158413
0.000168597
0.000204551
0.000197605
0.000147502
0.0567951
0.000154797
0.000205336
0.000148456
0.00014732
0.000149855
0.000201605
0.000165793
0.000147581
0.0574546
0.000147904
0.0201853
0.00018201
0.000166427
0.000239813
0.000152994
0.000172928
0.000147383
0.000155476
0.000146837
0.000148725
0.000169617
0.000163099
0.000156173
3.95839e-05
0.000147706
0.00014745
0.000148583
0.00014877
0.0001487
0.000150312
0.000151499
0.0575719
0.000151919
0.000146491
0.000148294
0.000163382
0.000840609
0.000230652
0.0129025
0.000164974
0.000150699
0.000144835
0.000155318
0.000147008
0.000144522
0.000148524
0.000157729
0.0737537
0.000205005
0.000166433
0.000161588
0.000945031
0.00774719
0.00014982
0.000146985
5.06966e-05
0.000148673
0.000147407
0.000166256
0.00017242
0.000170253
0.000150579
0.0001462
0.000151257
0.000149143
0.000148217
0.000150765
0.000168968
0.000152238
0.000146898
0.000146946
0.0001496
0.000195823
0.000174699
0.000168777
0.0631031
0.000147011
0.000144159
0.000151069
0.000150591
0.000166167
0.000147411
0.0001501
0.000167864
0.000221906
0.016328
0.000149113
0.000145958
0.00101345
0.0448422
0.000173656
0.0564325
0.000203875
0.000147696
0.000162074
0.0871243
0.000148052
0.000249284
0.000147007
0.0394602
0.000196394
0.000152864
0.00014708
0.000196741
0.0617734
0.000172616
0.000196522
0.000197901
0.000173784
0.000158846
0.000165115
0.000112903
0.0508632
0.0718482
0.000160813
0.000146508
0.0615506
0.000198725
0.000172802
0.000167354
0.0621221
0.00014918
0.000146715
0.000148222
0.0396625
0.000183618
0.00096273
0.000154629
0.00018548
0.000148874
0.000148913
0.000151273
0.000143993
0.000429287
0.000154435
0.000146943
0.000178498
0.0619815
0.000149516
0.000159156
0.0296707
0.073078
0.0684088
0.0452238
0.0588358
0.000207496
0.000146161
0.000182011
0.00428857
0.0617187
0.000143964
0.000154276
0.000146711
0.000155642
0.00014728
0.000144123
0.000147874
0.000203181
0.000148026
0.0728265
0.0691861
0.000147565
0.000148683
0.000188907
0.000164298
0.000147063
0.000118814
0.000147653
0.000198348
0.000173626
0.000202492
0.000156424
0.000173695
0.000167035
0.000146922
0.00016819
0.00017959
0.0490917
0.000147049
0.0242463
0.000151255
0.000147586
0.000154635
0.000193589
0.000176573
0.0568386
0.000148832
0.000150572
0.000148225
0.000192691
0.000154774
0.000163907
0.000147421
0.00817019
0.000143473
0.000144438
0.0683736
0.0863824
0.000148083
0.0622154
0.0437311
0.0504633
0.0779886
0.0568103
0.0866714
0.000148231
0.000149406
0.000148153
0.000147987
0.0468429
0.000169028
0.000171803
0.0557618
0.000148666
0.000149595
0.000186102
0.063399
0.000168839
0.000150303
0.000156401
0.000147312
0.000148544
0.000192005
0.000149734
0.000207406
0.00014832
0.000173641
0.000152062
0.0184526
0.000213527
0.000145449
0.000148021
0.000148203
0.000204824
0.000188134
0.00015052
0.00014808
0.000179401
0.000148444
0.000153255
0.000156512
0.000204612
0.000162018
0.00017422
0.000145503
0.000147726
0.000151208
0.000162073
0.000189479
0.000188549
0.000149733
0.000150506
0.000169443
0.0349724
0.0683138
0.000145023
0.000158369
0.000144904
0.0615497
0.00015286
0.00014992
0.000154145
0.000191964
0.0481012
0.000155852
0.000162147
0.000146125
0.0626875
0.000175165
0.000147241
4.82549e-05
0.000162398
0.000159471
0.000165618
7.74655e-05
0.000162049
0.000248555
0.00904387
0.000156122
0.000146984
6.40682e-05
0.000146977
0.000146157
0.00014733
0.00126303
0.000149971
0.000145563
0.000181417
0.00016316
0.000149005
0.000155965
0.000148234
0.000146929
0.038371
0.000170463
0.000212735
0.000175233
0.000175891
0.000148194
0.0523295
0.000186156
0.000178424
0.0183601
0.000146898
0.000148655
0.000168846
0.000181836
0.000148131
0.0750037
0.000206947
0.00016252
0.0642555
0.0446294
0.000145472
0.000209925
0.000186276
0.0740687
0.000152798
0.000164628
0.000145972
0.000164191
0.000146651
0.000178097
0.000195888
0.000148061
0.000146153
0.000145419
0.000188174
0.000173055
0.000172973
0.0433627
0.0408447
0.000145373
0.0277581
0.000149209
0.000148667
0.000146636
9.58097e-05
0.000149335
0.000151628
0.000148123
0.000177462
0.000149028
0.000152157
0.0696352
0.000148052
0.000205032
0.0436275
0.000117149
0.0641312
0.0319835
0.000158497
0.000190749
0.000148239
0.000493154
0.000144947
0.000147516
0.000147586
0.000148101
0.061924
0.000148872
0.000207732
0.000145592
0.000173649
0.000150633
0.000162416
0.000152795
0.000150117
0.000155946
0.000144422
0.00014773
0.0647317
0.000148766
0.000167397
0.000155968
0.000152049
0.000172749
0.000148628
0.000149969
0.000190758
0.0330733
0.0748194
0.0743276
0.0690039
0.000184543
0.000147468
0.000148279
0.000173117
0.0289782
0.000178782
0.000507994
0.000147834
0.000147302
0.000175574
0.000146003
0.00671063
0.0343008
0.0702511
0.000146627
0.000149637
0.000144749
0.000146462
0.0611671
0.000148249
0.000149695
0.000164067
0.0611687
0.000150143
0.000147814
0.000147294
0.0675248
0.000149894
0.000155642
0.0655097
0.000312179
0.000189796
0.0520633
0.0200838
0.0447152
0.000148164
0.0465685
0.000149268
0.00014785
0.000179131
0.0660958
0.000203803
0.0693792
0.00014548
0.000147594
0.00014726
0.000181088
0.00111065
0.000162636
0.0347166
0.000157382
0.0766285
0.0721982
0.000148165
0.000194052
0.000155304
0.00015518
0.000166157
0.000145791
0.0324478
0.0410162
0.00014968
0.000148148
8.61502e-05
0.000150058
0.000150509
0.0573692
0.000201007
0.000148477
0.000148182
0.000148853
0.000148147
0.0748536
0.000158122
0.000147655
0.000146139
0.0637154
0.000146789
0.000148778
0.0373514
0.000147326
0.000196352
0.000482491
0.000158013
0.000152766
0.00016256
0.067426
0.000145012
0.000153242
0.0266366
0.000178757
0.000148714
0.000197015
0.000173897
0.000106345
0.0646724
0.00015509
0.0443689
0.000148055
0.000148137
0.000148989
0.000148079
0.000154266
0.000163738
0.00020365
0.000147195
0.000166447
0.000154135
0.000238299
0.000163598
0.000148864
0.000143507
0.0699745
0.0470198
0.000165995
0.000146482
0.000166474
0.00014746
0.000158316
0.00014779
0.0745534
0.000178152
0.00014671
0.0782848
0.0609752
0.000147238
0.000148529
0.0374064
0.000166921
0.000146183
0.0593972
0.0727852
0.000146158
0.000147613
0.000518419
0.045831
0.000211065
0.000148144
0.000205124
0.0546197
0.000164996
0.000145535
0.000171925
0.000143521
0.0806009
0.00015052
0.0001561
0.0562588
0.0401268
0.000148871
0.000148648
0.0403429
0.0746774
0.000147379
0.000149654
0.000148868
0.000148223
0.00014741
0.000174503
0.0338452
0.000151819
0.00020636
0.000108287
0.000165064
0.000149528
0.000148646
0.000145015
0.0684552
0.0619881
0.000169661
0.000194075
0.000152307
0.0771348
0.000191047
0.000158136
0.000148573
0.000148707
0.000212348
0.0717512
0.000145917
0.000159322
0.000144834
0.000147345
0.0315104
0.000189703
0.000156312
0.000146828
0.000146672
0.0606757
0.000328424
0.000150638
0.000162961
0.000170547
0.042921
0.000152892
0.000177907
0.089136
0.000166606
0.000147701
0.000168724
0.000178863
0.000146867
0.000147803
0.0792933
0.000192081
0.0370769
0.000186494
0.000152398
0.0357454
0.000151566
0.000188671
0.000146007
0.000159164
0.000148111
0.000162235
0.000147796
0.0702046
0.000146553
0.000148305
0.00124981
0.000171108
0.00020519
0.000148062
0.000147395
0.0714989
0.000206061
0.000186063
0.000154272
0.000209645
0.000218201
0.000208403
0.000169971
0.0417361
0.0381274
0.0660016
0.000148091
0.000145497
0.000147604
0.000172035
0.000201781
0.000147669
0.000156829
0.0413554
0.0494697
0.000149862
0.0393346
0.0001569
0.00017868
0.000168665
0.000148966
0.000146746
0.00017694
0.000156666
0.000200709
0.000152844
0.000148908
0.0507936
0.0698993
0.000145978
0.000178742
0.000148954
0.000148348
0.000155592
0.0303022
0.000164888
0.000147872
0.000150684
0.00210302
0.0646901
0.000168937
0.0802161
0.000165795
0.0639347
0.000149835
0.000148682
0.000147785
0.00014805
0.000204153
0.000181842
0.000148053
0.000166302
0.000156181
0.00857834
0.000204777
0.000147704
0.000148199
0.000150549
0.000158185
0.0459784
0.0425711
0.000156304
0.0592969
0.000192776
0.000147621
0.00016759
0.000146547
0.000147093
0.000157193
0.000150625
0.00015698
0.000166575
0.000145836
0.000147694
0.000151889
0.0821125
0.000148037
0.00015056
0.080766
0.000209196
0.000181491
0.000147943
0.0720835
0.000148562
0.000193705
0.0696006
0.0793356
0.000155593
0.000161641
0.000151193
0.00015098
0.0205741
0.0607368
0.0407572
0.000158186
0.000145175
0.000170967
0.000150639
0.000147981
0.0459442
0.000162991
0.000164852
0.000146844
0.000154366
0.000159359
0.0002387
0.000147078
0.000168567
0.014256
0.000148288
0.000151296
0.000172916
0.000151147
0.0349199
0.000147528
0.000150015
0.000147371
0.000157382
0.000145223
0.000145089
0.0718457
0.0486052
0.0647803
0.000168218
0.000212819
0.0892153
0.000154254
0.000175928
0.000148681
0.000147695
0.000164354
0.000161826
0.00020088
0.0782978
0.0651864
0.000151582
0.000147279
0.000174806
0.000147654
0.000159328
0.0312856
0.0364304
0.0476121
0.0506907
0.000151409
0.0793337
0.000181381
0.00014671
0.0254531
0.000168695
0.000154518
0.000148095
0.0808938
0.000148944
0.000178173
0.000180724
0.0562242
0.00014902
0.000180422
0.0383822
0.000178627
0.00015423
0.048854
0.000147073
0.000145096
0.000152558
0.000147692
0.0601719
0.0771645
0.000209332
0.00014885
0.0169516
0.000150923
0.000162484
0.000238481
0.000161076
0.00017948
0.00014389
0.000148747
0.0538338
0.000207794
0.0247091
0.000146887
0.000152414
0.000166637
0.000147376
0.000144786
0.000151034
0.000149562
0.000146329
0.000210107
0.00016103
0.000152639
0.000155166
0.000175196
0.0617514
0.0584835
0.000158276
0.000460591
0.000176778
0.000157898
0.000147676
0.000152673
0.0409899
0.00634458
0.0435685
0.000158999
0.000148636
0.000149953
0.000159938
0.000149833
0.000148126
0.0641352
0.00153723
0.000146226
0.0301265
0.088721
0.000144143
0.000145088
0.000152537
0.000150399
0.000215389
0.000180876
0.000201592
0.000208441
0.000194442
0.0535019
0.000170486
0.000146831
0.000148898
0.0338608
0.0001671
0.0001721
0.000165797
0.0715787
0.000146892
0.000211481
0.000150611
0.000148013
0.000152214
0.00018853
0.000187747
0.000147729
0.000148058
0.0714555
0.000159039
0.000158414
0.0695415
0.0491415
0.000171766
0.000148124
0.000176411
0.000145083
0.000151629
0.00876776
0.0577808
0.000178934
0.00018909
0.000151866
0.000174171
0.000163769
0.000210601
0.0692854
0.000171195
0.000145162
0.0671809
0.000152587
0.000150459
0.000147874
0.000146499
0.0470421
0.000176452
0.000145965
0.000206861
0.000211022
0.000170894
0.0455411
0.000194114
0.000147357
0.000159479
0.0371614
0.0331879
0.000173108
0.000172959
0.000151748
0.0126123
0.00014708
0.0331835
0.00014634
0.000147361
0.000218162
0.000168089
0.000151857
0.000147728
0.000147321
0.0380399
0.000186181
0.000147042
0.000148162
0.000187376
0.000150416
0.000145918
0.000146961
0.0469526
0.000193219
0.000151318
0.059704
0.000147301
0.000159008
0.000148157
0.0651838
0.000177284
0.000172398
0.000150371
0.000185371
0.000147078
0.0760964
0.00014827
0.0001469
0.000158435
0.00808817
0.0618445
0.000164784
0.000168059
0.000147712
0.000158851
0.000157644
0.0395337
0.000149712
0.000145768
0.0420231
0.000174777
0.000150614
0.000146971
0.00024185
0.000152585
0.0156766
0.000185218
0.000145922
0.000150649
7.00431e-05
0.0669032
0.0351295
0.000186264
0.000147313
0.000148321
0.000154676
0.000184009
0.000148347
0.000175553
0.000162033
0.000197246