/*--------------------------------*- C++ -*----------------------------------*\
| =========                 |                                                 |
| \\      /  F ield         | OpenFOAM: The Open Source CFD Toolbox           |
|  \\    /   O peration     | Version:  v2012                                 |
|   \\  /    A nd           | Website:  www.openfoam.com                      |
|    \\/     M anipulation  |                                                 |
\*---------------------------------------------------------------------------*/
FoamFile
{
    version     2.0;
    format      ascii;
    class       volScalarField;
    location    "200";
    object      p;
}
// * * * * * * * * * * * * * * * * * * * * * * * * * * * * * * * * * * * * * //

dimensions      [0 2 -2 0 0 0 0];


internalField   nonuniform List<scalar> 
37190
(
0.0321624
-0.275356
-0.0213812
0.021655
-0.118108
0.00117893
-0.131074
0.0197735
0.00394602
-0.0844393
0.0303707
-0.0132316
0.0191122
-0.00660213
-0.0954861
0.0109893
0.0491593
-0.169704
-0.0945401
-0.171109
0.0027795
0.0325924
-0.274016
-0.0461574
0.0664226
0.010729
-0.132618
-0.0860285
0.139672
-0.401101
-0.16206
0.000407331
-0.0749159
-0.100291
-0.11349
-0.0940377
-0.0155512
-0.0462465
-0.0458833
0.0192125
-0.0711597
-0.181944
0.0682262
-0.14402
0.028343
-0.21431
-0.407014
-0.266316
-0.0213349
-0.120121
0.0588735
0.0216732
-0.0583026
0.118851
0.0157912
-0.0338544
-0.0838966
-0.0154102
-0.0811239
-0.0105203
-0.079314
-0.0934921
-0.0123058
-0.278768
0.044229
0.0676667
-0.00562571
-0.205852
0.22981
-0.0122387
0.0155817
0.0500189
-0.0710088
0.00403383
0.0282905
0.000980213
-0.172082
-0.108584
-0.211714
-0.0726351
0.00573635
0.0448198
0.0040056
0.0559591
-0.361594
0.0483305
-0.0858445
-0.402163
-0.0939609
0.000396663
-0.172784
-0.0757094
0.0690989
0.00263419
0.0229823
0.0677126
-0.209112
0.00734071
0.0218878
-0.370777
0.069259
-0.131383
-0.206942
-0.374607
0.0231204
0.0124579
-0.160407
0.0125243
-0.00542533
-0.117693
-0.148853
-0.0921642
-0.047864
-0.0175288
-0.0247039
0.0262972
-0.110795
-0.0461857
0.0197427
-0.0163102
0.0293543
-0.0645831
0.029382
0.0498598
0.0157684
-0.0663244
-0.0173278
0.013032
-0.0713516
0.215365
0.0132536
-0.246917
-0.0622018
0.0652167
-0.204294
-0.0105041
-0.063773
-0.20903
-0.212603
0.0617159
-0.0695793
-0.0870172
0.00978619
0.0669699
0.022883
0.000513581
-0.185243
-0.00635056
-0.214937
-0.0158936
0.0164498
0.0666714
-0.133298
0.00705774
-0.081007
-0.0101305
-0.206959
0.0302486
-0.159437
-0.0682789
-0.130075
0.0428465
-0.365445
-0.0760238
0.0696217
-0.0155166
-0.13475
-0.161258
-0.0666207
-0.0854453
-0.0100615
-0.076383
0.0432913
-0.0314061
-0.0636005
-0.0934476
0.00646579
0.0545118
-0.10586
-0.0483108
-0.142568
0.0222752
0.0221326
-0.0203403
-0.148583
0.0235747
-0.0692269
-0.0887194
-0.271141
-0.191939
0.0132011
-0.171229
-0.0181164
-0.0369829
-0.0947058
-0.0633603
0.0148218
-0.133611
-0.355106
-0.101585
-0.226946
-0.0182873
0.0162579
0.0208406
-0.0757377
-0.104195
-0.129069
0.053278
0.0286922
-0.086287
0.0300541
-0.0638302
-0.0181035
-0.0848217
-0.245854
-0.27979
-0.215975
-0.214147
-0.0994677
0.0107398
-0.0792563
-0.0130129
0.0381731
0.233611
-0.145625
0.0332103
-0.221808
0.0216865
-0.0705013
-0.407281
0.0690929
0.0373077
-0.0103085
-0.0889881
-0.00194254
-0.13315
-0.0571782
-0.391988
-0.0120218
-0.0235603
-0.0895069
0.0236597
-0.074739
0.0200786
0.00820873
-0.189216
0.00826024
-0.121404
-0.0748638
-0.16205
-0.0103269
-0.0883868
0.0373281
0.0499465
-0.0549416
0.0287084
-0.169827
0.023627
-0.0608124
0.00746617
-0.122471
-0.0739478
-0.0157568
-0.157368
-0.0449144
-0.0053748
-0.00455783
0.0701647
-0.146479
-0.0155949
-0.319147
-0.12904
-0.0983123
0.127627
-0.406188
-0.0222253
-0.00706795
-0.156153
-0.0759772
-0.0699497
0.124439
0.0498454
-0.210583
-0.0703844
-0.0441881
-0.0695467
-0.0277575
0.0495406
-0.126541
0.0283864
-0.0285345
-0.107213
0.228977
-0.125745
-0.406248
0.034048
-0.00898546
-0.147921
-0.0992839
-0.01545
-0.209715
-0.222463
0.0797041
-0.0929865
-0.0226772
-0.01737
-0.00558
0.0237135
-0.203543
-0.0303121
0.0203314
-0.157112
0.000772001
-0.137748
-0.391586
-0.400981
0.0435002
-0.0711914
-0.00563072
-0.0175379
0.033578
0.153329
-0.0976116
-0.0125682
-0.220143
-0.0975156
-0.153849
-0.358231
0.00407938
-0.32021
-0.0518639
-0.0975934
-0.000638418
-0.148491
-0.132105
-0.157254
-0.0790629
0.155873
-0.0360609
-0.281396
0.0301562
-0.0935967
-0.0241867
-0.0334881
-0.147294
-0.219514
-0.0864316
0.020511
0.0135058
-0.0159112
0.0184817
-0.188354
0.00350029
-0.0219149
0.0438577
-0.188952
-0.00541365
-0.0851004
-0.1508
0.0195263
-0.0424708
-0.218207
-0.131138
-0.149185
0.0159905
-0.168529
0.038175
-0.00435802
-0.106924
-0.0861637
0.0290745
0.232021
0.0146196
-0.219067
-0.00744025
-0.0709896
-0.164294
-0.191721
-0.168742
-0.21642
-0.366222
-0.243578
-0.079658
-0.0867986
-0.125262
-0.0842449
-0.133939
-0.0687162
-0.131038
0.156971
-0.0281411
-0.082837
-0.0678854
-0.0241176
0.0584811
-0.00474738
-0.0778978
0.0191247
0.0191948
-0.213682
-0.00441562
-0.178803
0.0188815
0.0294511
0.0574261
0.0041758
0.00202705
-0.120987
-0.0357492
-0.00427754
0.00352662
-0.104481
-0.40862
-0.0272953
-0.000490415
-0.00264897
-0.101951
0.015882
-0.0154965
0.00293177
-0.181719
-0.247367
-0.0860706
0.0201413
-0.0156285
-0.209994
-0.150174
0.00746195
0.0113585
0.00473643
0.00414428
-0.00431021
0.0180099
-0.0349503
0.0545892
-0.31611
-0.00425221
-0.213291
0.01125
-0.016449
0.0345161
-0.020076
-0.281474
0.0515222
-0.0142818
-0.0887489
-0.0800308
-0.00518661
-0.218448
0.0085064
-0.0999943
-0.0955466
0.0258767
-0.119169
0.00870461
-0.393366
-0.0179367
0.00848829
-0.0586126
-0.0160742
-0.278407
-0.0855781
-0.0096064
-0.07646
-0.205668
0.00430087
-0.0865292
-0.191169
-0.00836509
-0.0164213
-0.100782
-0.151627
-0.370021
-0.199359
-0.129722
-0.214618
-0.0401109
-0.167836
0.0580645
0.000884838
-0.0180179
-0.0194875
-0.0752907
-0.0770458
-0.0109224
-0.0755871
-0.400776
0.0383918
-0.407615
-0.0856885
-0.0432476
0.0458249
-0.0158894
-0.0768808
-0.163421
0.122579
-0.0136157
-0.0100394
-0.173782
-0.364992
0.0238271
0.00722175
-0.0200478
-0.105859
-0.10846
-0.182259
-0.121779
-0.078477
-0.156256
0.0543311
-0.0862188
0.00724515
-0.131479
-0.0219671
-0.108309
-0.261997
-0.0851738
-0.0218426
-0.00445497
-0.405129
-0.0558263
-0.130068
-0.189812
-0.148029
0.00801544
-0.0687603
-0.0515832
0.0503631
-0.109263
0.00887224
-0.0372683
-0.00990105
-0.123595
0.020668
0.0280611
-0.378487
0.000554831
0.0227965
0.0144313
0.0799027
0.00880561
0.0192243
0.156759
-0.00779089
-0.0661739
0.00683448
-0.0439425
-0.103814
0.131591
-0.00159947
0.003663
-0.0489419
0.0315435
-0.125948
-0.109484
0.0300587
-0.0482783
-0.291247
-0.10321
0.00434991
-0.0150812
-0.397045
-0.0861677
-0.386644
-0.124112
0.00766822
-0.102605
0.031842
-0.0648236
-0.22437
-0.0570053
0.0248024
-0.104184
-0.168563
-0.011886
-0.217456
-0.12342
-0.0878529
-0.0121844
-0.10527
-0.103901
-0.0278167
-0.0464404
0.0286153
-0.171659
-0.109987
-0.0163295
-0.191448
-0.0911686
0.0136026
0.183007
0.0120961
-0.106744
-0.0843596
0.0148841
-0.31264
-0.0901054
-0.0873588
-0.305218
0.0123967
0.031538
-0.0562235
0.0445956
-0.0571285
-0.138031
0.00907155
-0.0976615
0.0207718
-0.0760498
-0.133106
0.00793678
-0.0894705
-0.00971018
-0.15313
-0.405269
0.0049131
-0.271792
-0.0154705
0.00433942
-0.0482369
0.00491378
-0.162702
-0.0700139
0.00763395
-0.122969
0.00401042
-0.0795337
-0.0939238
0.00754591
0.0226931
-0.093176
0.0139546
-0.0156654
-0.202405
0.150473
0.15013
-0.16731
0.0249698
0.00304438
0.0779021
-0.121439
-0.0902668
-0.0947193
-0.0851257
-0.012101
-0.099107
0.0561715
-0.0246626
-0.157695
-0.129567
-0.0466824
0.00833028
-0.130818
0.0650739
-0.147833
-0.0934933
0.0760263
-0.0928073
0.0104114
-0.405836
0.0728717
-0.0239531
-0.0684298
-0.0725954
-0.0684745
-0.0733778
-0.0117254
-0.0949539
0.00930056
-0.108257
0.0149234
0.00440598
-0.165398
-0.151018
0.0209103
0.0066307
-0.359212
0.0314518
-0.00743293
-0.166086
-0.40023
-0.0671813
-0.0839579
-0.0111436
-0.0833838
-0.118036
-0.354097
0.0532291
-0.0877798
-0.135903
-0.0218683
-0.175164
0.0381094
-0.400609
0.0207464
-0.0792517
0.0570205
-0.074135
-0.0769222
-0.0152375
0.264676
-0.0153808
0.0133286
-0.0713894
-0.0273028
-0.407253
0.0196378
-0.145364
0.00360504
0.0198382
-0.0572896
-0.00680136
-0.176168
-0.00792189
0.0336988
0.0277795
0.00747459
-0.126844
0.20279
-0.0733011
-0.184474
-0.408113
-0.0781888
-0.0830882
-0.0177842
-0.0230681
-0.397484
-0.0867895
0.022212
-0.400411
-0.0875512
-0.0700106
-0.0587922
-0.0750151
-0.110427
-0.00724811
-0.172639
-0.0822624
-0.0442097
-0.270351
-0.111364
-0.0433165
-0.0275059
-0.0171034
-0.106959
-0.278965
-0.0148421
0.155376
-0.339
-0.0750196
-0.406364
-0.0954401
-0.149796
0.0302577
-0.165705
0.0534658
-0.175159
-0.0693528
0.0119862
-0.211474
-0.113668
0.00690164
0.0187455
-0.131822
-0.0110178
-0.060049
0.0812113
-0.0331043
0.00187956
0.0441433
-0.0412052
-0.0801326
-0.099766
-0.0425227
-0.175018
0.00488538
-0.288545
-0.365011
-0.0222936
-0.0310675
0.0439534
0.0106154
-0.182477
-0.149123
-0.128063
0.0369183
0.0768511
0.013617
-0.0141365
-0.129193
0.00687278
-0.0513859
-0.0513423
0.0368914
-0.00983786
-0.0105778
-0.0238934
0.146936
0.0432092
-0.0573818
-0.0737961
0.00744204
0.012047
-0.217949
-0.163211
-0.0110551
-0.015208
-0.0223251
-0.058401
-0.0586107
-0.265459
-0.0715995
0.0423791
0.0424327
-0.15651
-0.136787
0.063239
0.0184963
-0.00919687
0.0283886
-0.048014
0.0204864
0.0329588
-0.116579
-0.014076
-0.117927
-0.357089
-0.0223667
-0.061536
0.0261454
-0.219126
-0.0798402
-0.16682
-0.149751
-0.124393
-0.0299606
0.0136746
-0.0717951
-0.404525
-0.121746
0.0328781
-0.0919447
-0.0046606
-0.00900817
-0.131198
-0.294319
-0.0804058
-0.0838837
0.0363901
-0.0962077
0.00992787
-0.131284
-0.0055751
-0.135954
-0.0486604
-0.217633
-0.0416878
0.00858006
-0.119887
-0.0345933
-0.124963
-0.183284
0.0287509
0.0195779
-0.364444
-0.0145997
-0.0131493
-0.117364
-0.00820694
-0.0841367
0.0366836
-0.114839
-0.126252
-0.178608
-0.169212
0.00841758
0.0274699
0.0500647
0.00902247
-0.0223861
-0.0571064
-0.0292304
0.0126855
-0.0931839
-0.235349
0.0127498
0.0220436
-0.0548698
0.0203843
0.0193726
0.00213386
-0.211708
0.0462085
-0.00313833
-0.0279449
0.0297632
-0.011849
-0.355203
0.181842
0.00318058
-0.00692519
-0.00338288
-0.0927134
-0.0482649
-0.0100529
-0.056801
-0.183583
0.116797
-0.170252
0.0451375
-0.0101811
-0.220124
-0.00805136
-0.120732
0.0023236
-0.0714029
0.0289557
0.00672554
-0.110749
-0.13034
0.0110231
-0.0068323
-0.093353
-0.165149
-0.0698846
0.0219181
-0.0193842
-0.166938
-0.015287
-0.315416
0.00261988
0.0123885
0.0528635
-0.166712
-0.00723778
-0.383942
-0.0336311
0.000231766
0.0400312
0.00696152
-0.0527343
-0.256458
0.0601204
-0.0712308
-0.0616476
-0.222321
0.0286331
-0.276879
-0.266457
-0.155138
-0.00696202
0.0206109
-0.0178649
-0.17417
0.0393481
0.0391512
0.00932843
-0.10128
-0.269063
0.0142072
-0.00452635
-0.0413964
-0.050024
-0.405569
-0.407004
0.0804371
-0.127593
-0.069521
0.00540189
-0.0858538
-0.0436154
-0.206561
0.00821718
-0.218226
0.020846
0.0610385
-0.292542
-0.0221884
-0.159433
-0.127741
-0.312461
0.0265604
-0.1006
-0.0490191
-0.125098
-0.295326
-0.00627631
0.0115031
0.00408108
-0.128603
-0.164993
-0.105352
0.0306504
-0.18553
-0.0102362
-0.157033
0.0127691
0.08033
0.0210888
0.221833
-0.0439462
-0.10742
-0.0839544
0.00150238
0.0035251
-0.00423069
-0.149828
0.0141901
0.0807753
-0.0456373
-0.0999102
0.000921088
-0.366993
-0.0524083
-0.150767
0.00819948
-0.0102482
-0.062057
0.0372646
-0.404467
-0.00203512
0.0887764
0.0280662
-0.105115
-0.186562
0.0145751
-0.0669918
0.046525
-0.0894396
-0.00795524
-0.0934383
0.0454793
-0.00990207
-0.0619683
-0.0621427
-0.123982
0.0136541
-0.130889
-0.0535172
0.0235685
-0.0423792
0.000247093
-0.128564
-0.397954
0.0133047
0.0150567
-0.00709621
-0.134031
-0.083643
-0.0875224
-0.187482
-0.148961
-0.136473
-0.0101184
-0.0918078
-0.0668289
0.00826626
0.029945
-0.00287936
0.0389874
0.113655
0.0107881
-0.0936767
-0.0514785
-0.0130308
-0.0478134
-0.0669773
-0.405238
-0.273001
-0.0640909
-0.156173
-0.0287849
-0.390496
-0.0358621
-0.403838
0.0364085
-0.0739611
-0.078782
-0.403555
-0.24311
0.00166623
0.0252107
-0.0792937
-0.145598
0.00936779
-0.0391749
-0.0945731
-0.0143999
-0.0546591
-0.130518
-0.0746734
0.230326
-0.0134987
0.00916817
-0.0541979
-0.170051
0.0290018
-0.086254
-0.0539459
-0.130566
-0.157484
0.000410779
-0.348264
-0.184243
-0.0108471
0.0269558
0.0108466
0.00315863
-0.373512
-0.0215485
-0.0158753
-0.0886989
0.00536311
0.0482845
0.0220573
-0.406335
-0.0599842
-0.068637
-0.150799
0.042942
0.00769948
-0.102755
0.147517
0.00765298
0.000297784
-0.0964543
-0.128656
0.00946503
-0.0102129
0.0030331
-0.0673532
-0.338925
0.00676553
-0.38259
-0.0889951
-0.0407865
-0.204538
-0.0588922
-0.105009
-0.0354284
-0.0852428
-0.103348
-0.159612
-0.0107244
-0.0399499
0.0204433
-0.0112775
0.0418363
-0.0134683
0.0672547
-0.0732027
-0.193746
-0.00651042
-0.24013
0.00827526
-0.173978
0.0223637
-0.114894
-0.126747
-0.0931027
-0.00151138
0.00942694
0.0148575
-0.00736872
-0.0377408
0.00584179
-0.379448
-0.164294
-0.066902
-0.116915
-0.0876343
-0.07485
0.0174959
-0.241721
-0.218565
0.0177428
-0.0957713
-0.0236583
-0.104537
-0.0414196
0.0454247
-0.164716
-0.0428996
0.0199274
-0.0852352
0.0201589
0.0256161
-0.172306
-0.101797
0.0128407
0.0331802
-0.00989605
-0.090736
0.0129615
0.0354912
0.00513298
-0.0114589
-0.129646
-0.00755261
-0.00539779
-0.0750699
0.0276652
0.0149347
-0.312391
-0.403619
-0.246241
-0.186273
0.110741
-0.397802
0.237121
0.0503135
-0.401874
-0.0837287
-0.0643563
0.0546829
-0.036889
-0.0637132
-0.395203
-0.0713
0.0601969
0.0124667
0.0332975
0.000249759
-0.074849
0.0811101
0.0339602
0.0234767
-0.117246
-0.0161015
-0.124749
-0.0146066
0.0374804
-0.159647
-0.0219454
-0.0972703
-0.0455277
-0.0212285
0.0684175
0.109316
0.125569
-0.403559
-0.186974
0.00204814
0.0552147
-0.12918
0.0240471
-0.300696
0.0103983
0.0222295
0.0201791
-0.217244
-0.00586576
-0.0557207
-0.0869727
0.0209843
-0.153013
-0.0997388
-0.070494
0.00528531
-0.0135483
-0.0583068
0.00728479
-0.0118618
-0.107636
-0.104341
0.0588325
-0.407838
-0.284727
-0.0237303
-0.18636
-0.0408643
0.0204384
-0.0952551
0.0282207
-0.20978
0.0885897
-0.00818881
-0.01162
-0.0787653
-0.00752549
0.00104915
-0.0944289
0.00386931
-0.316997
0.116624
-0.0283996
-0.30421
0.0611437
-0.00974441
-0.100619
-0.0599138
-0.117612
0.00502032
0.00587279
-0.0650816
-0.0152347
-0.0133122
-0.00551784
0.00396956
0.0218501
0.0201307
-0.00487661
0.00373626
-0.0219035
-0.0869288
-0.402865
0.00481222
-0.0959169
-0.0745639
-0.0668027
-0.15818
0.0354567
-0.0420247
-0.120527
-0.0502338
0.0828477
0.0203067
0.0126707
-0.0447689
-0.35483
-0.329782
-0.0105008
0.128766
-0.0113684
-0.108353
-0.237588
-0.0854201
-0.0966656
0.0288023
-0.0469927
-0.0692336
-0.157563
-0.0603529
0.0293484
-0.111944
-0.113058
-0.117849
0.0288556
0.081211
0.17018
0.0290758
-0.115531
-0.407844
0.014586
0.0543343
-0.0561137
-0.0112639
-0.317274
0.0141613
0.0328628
0.0103735
-0.403677
-0.0946004
0.0045519
-0.146923
0.0143352
-0.119986
-0.0528896
-0.153819
0.0150269
-0.114273
-0.0412819
-0.0083348
0.0272065
-0.244802
-0.0704782
-0.0747078
-0.245599
-0.0132218
-0.116215
-0.0913968
-0.19441
0.209799
-0.07231
-0.0117551
0.0276225
-0.0666895
0.210864
0.0397314
-0.196535
-0.0105085
0.010015
-0.0757177
-0.0156862
-0.0101749
0.0252971
0.00310193
-0.103961
0.0314853
-0.100592
-0.192501
-0.111074
-0.0194626
-0.123949
-0.168263
0.024893
-0.404704
0.0182183
-0.0364064
-0.149355
0.0139293
-0.00478952
0.052298
0.0796506
-0.0209232
-0.0482149
-0.161579
0.0105236
-0.114074
-0.0684225
-0.00525283
-0.0612115
-0.147023
-0.00988372
-0.108474
-0.00707427
-0.0714303
-0.0424853
-0.0109857
0.0598434
-0.270464
-0.340607
-0.155678
-0.0113101
0.082524
-0.165495
0.0431399
-0.191008
0.196579
0.00334485
-0.0708282
-0.0642283
0.0281023
-0.32502
-0.375541
-0.0432945
0.150449
-0.0718849
-0.0892964
-0.00288109
0.0355484
0.0391895
-0.0544467
0.0947875
-0.128037
0.0225701
0.0337207
8.19847e-05
0.0217465
-0.0187089
-0.128948
0.00750357
-0.336676
-0.299384
-0.124319
-0.194069
-0.334312
-0.0450019
-0.0966578
0.0206462
-0.0224292
0.000161575
-0.408702
0.0113847
-0.100082
0.12295
-0.103681
0.0527436
-0.133573
-0.063946
-0.0500546
0.0249948
-0.0153634
0.0143918
-0.0762641
0.00673551
0.0234325
-0.114762
0.0195009
-0.333037
-0.00780502
-0.0101119
0.147911
-0.338427
0.0206856
0.0116672
-0.0697239
-0.0964349
-0.217183
0.22178
-0.0364705
0.0200478
-0.0507999
-0.0724171
-0.381153
-0.0332423
0.0608239
0.0360516
0.0234956
-0.00149362
-0.14923
0.00529668
-0.127993
-0.371904
-0.0545585
-0.0579574
0.105705
-0.109903
-0.112021
-0.0196246
-0.0339721
-0.152958
0.0335517
0.0286799
-0.130105
0.103209
-0.214692
0.0254123
-0.00920591
-0.0888965
0.035315
0.0415044
-0.115403
-0.0881108
-0.110915
0.0256062
-0.0114189
-0.00272902
-0.0228751
-0.345994
0.00350669
0.000183218
-0.334889
-0.0019858
-0.212928
-0.0710276
-0.3522
-0.382159
-0.241315
-0.0858145
-0.224851
-0.145704
-0.275799
-0.0132545
-0.240499
-0.131495
0.00954114
0.00194144
-0.38364
0.0236515
0.023614
0.0252582
0.000329622
-0.0176542
-0.151664
-0.0780071
0.089817
-0.0893229
-0.271741
0.000647123
-0.236045
-0.190342
-0.0800917
-0.0106631
0.0308883
0.0935963
-0.0450869
-0.00468145
-0.0703765
-0.0715495
-0.21545
0.0162696
-0.0226869
-0.377128
0.0620624
-0.110712
0.0407933
0.00811663
0.00901877
-0.163019
-0.0476295
0.0204847
-0.141366
0.015173
-0.363227
-0.178947
-0.102037
-0.185548
-0.04202
-0.111938
0.0095917
-0.0573823
0.00292499
0.0111211
-0.0626266
-0.090379
-0.0564652
-0.121278
0.0137269
0.0111657
-0.00196955
0.011182
0.00641409
0.0299542
0.030008
-0.0938319
0.00365223
-0.0103744
0.00563012
-0.0751968
-0.173619
-0.206395
-0.0814212
0.0793833
-0.00132873
-0.0169443
0.0655897
0.00228637
-0.0133058
0.0202288
-0.0618198
-0.384915
-0.222318
-0.0563045
-0.0828097
-0.175216
-0.105552
0.00909424
-0.0149391
-0.148671
0.0259649
0.00899406
0.0207957
-0.099638
0.0355064
-0.0366593
-0.00257202
-0.040951
0.0534997
0.0146518
-0.0362441
-0.0248256
-0.0422741
0.00384229
0.00431359
0.0224002
-0.211898
-0.140572
0.207589
-0.110676
-0.00475135
-0.0138859
-0.0111929
-0.0352751
0.144044
0.00942043
-0.0349156
0.167227
-0.194671
-0.0820245
0.0235585
-0.00533437
-0.0925183
-0.185155
0.20356
-0.141712
-0.175093
0.0227621
-0.0129565
-0.375664
0.0187502
-0.29068
-0.00513152
-0.140771
-0.0784192
-0.0423585
0.00578918
-0.214062
-0.394938
-0.12727
-0.0866627
-0.21229
-0.132357
-0.070076
-0.0580724
-0.161094
-0.37221
-0.345845
-0.0800525
0.000133285
-0.111438
-0.218847
-0.101075
-0.0438752
-0.376142
0.0497024
-0.00797211
0.00277114
-0.353234
-0.16563
-0.114165
0.0211272
-0.1302
0.0222562
0.0492813
-0.0371105
-0.0114074
-0.158884
0.0253351
-0.0167126
-0.158874
-0.102687
0.0112319
0.139452
-0.282472
-0.227567
-0.120207
-0.0607821
-0.0953389
-0.105301
-0.00283943
-0.172231
-0.35637
-0.393019
-0.0115263
0.00168912
-0.0102113
-0.0577037
0.00490286
-0.0137071
0.0134864
-0.0415576
0.0189786
-0.190385
-0.221106
-0.0121044
-0.0270462
-0.164054
-0.0757435
-0.0223171
-0.191158
0.0139124
-0.215245
-0.134202
-0.164667
-0.0571113
-0.121835
-0.0670512
-0.0219577
-0.0660988
-0.168437
-0.0683071
0.00385625
-0.3924
0.0790571
-0.012655
-0.0477429
-0.205441
0.0549837
-0.110018
0.0223901
0.0290781
0.0185725
-0.127935
-0.00560557
-0.0730479
-0.0219094
-0.104647
-0.0119065
-0.0135824
-0.129595
-0.380698
0.0210798
-0.395704
-0.0585624
-0.0890062
-0.171776
-0.112916
-0.268797
0.0107046
0.0121869
0.00552037
-0.024351
-0.262638
-0.0927778
-0.114486
-0.399563
-0.026903
0.0117116
-0.130605
-0.39547
-0.0657076
-0.0362832
-0.0602611
-0.0150861
-0.00144598
-0.11949
0.0167831
-0.0530817
0.00189244
-0.130952
-0.00767581
-0.366267
-0.0964271
-0.0154208
0.0343843
0.0185976
-0.239366
-0.0898979
0.0295906
0.0345566
-0.0699836
0.0111171
0.0840682
-0.058488
-0.238537
0.126212
-0.137565
-0.0150607
0.00244897
0.00614194
0.16358
-0.0831657
-0.105422
0.0348398
-0.0350848
-0.0659844
-0.0605032
-0.128765
-0.00739834
-0.0722926
-0.00822504
-0.130872
-0.0300938
0.0307664
0.00548693
-0.120471
-0.200851
0.104236
-0.0109552
-0.00368063
-0.402647
-0.0675743
0.00925815
-0.161947
-0.0728843
0.150325
0.189335
-0.172557
0.167145
-0.295124
-0.148775
0.12605
-0.0146776
-0.114545
0.00459491
-0.00497024
0.0128542
-0.0860529
0.0429841
-0.0152922
-0.0811808
-0.090442
0.052783
-0.0595312
0.0338433
0.00387697
-0.0768084
-0.0665576
-0.269855
-0.125883
0.274572
0.0290108
-0.366518
-0.166738
-0.122998
-0.408396
0.00160658
-0.00383061
-0.089577
-0.171214
0.0197772
-0.153355
-0.109731
-0.0848925
-0.242288
-0.0598833
-0.0169465
-0.102158
-0.130436
-0.258012
-0.0442528
0.175377
-0.00523545
0.141242
0.000578621
0.169096
-0.233728
0.00572118
-0.00338658
-0.00990517
-0.102905
-0.0772463
0.176878
-0.115068
-0.101369
-0.0155229
-0.125496
0.0540224
0.00635644
0.000371387
-0.0886404
0.0119253
0.0291528
0.0374256
-0.123433
0.0530765
-0.0418052
-0.124151
0.031231
-0.0755876
-0.327602
-0.114679
-0.205364
-0.381829
0.0285907
-0.073142
0.0334019
-0.121755
-0.00802757
0.0153045
0.0201745
0.0351225
-0.347729
-0.0265946
-0.0874092
-0.00774027
-0.0782029
0.026751
0.0567743
-0.0288651
-0.0355699
0.127535
-0.0133904
-0.00129719
-0.377353
-0.0116354
-0.0125624
-0.0592699
0.060443
-0.0146352
0.026195
0.0442198
-0.0836727
-0.091806
-0.346719
-0.284022
-0.266192
-0.1304
-0.0101894
-0.0202806
-0.128694
-0.0919378
-0.124521
-0.1827
-0.0110691
0.00487521
0.254549
-0.00482866
-0.138769
-0.381485
-0.384906
0.000805807
0.0223817
-0.0105962
-0.000299346
-0.278402
0.00203391
0.0168263
-0.0554108
-0.129182
-0.0359916
-0.00301208
-0.0134704
-0.402376
0.0441283
-0.0413951
-0.262737
-0.149183
-0.0812285
-0.0891448
-0.396858
-0.264431
0.0317784
-0.404756
-0.00218433
0.013141
-0.0692056
-0.27693
-0.0757822
-0.236849
-0.0147319
0.0192805
0.00908113
-0.0787209
-0.11623
0.0588691
-0.130445
-0.0520071
-0.260661
-0.241836
0.0252617
-0.0987183
0.0627629
-0.0564264
-0.10159
-0.00491271
-0.0733484
-0.242729
0.0220928
0.0313329
-0.130431
0.0430523
-0.0322349
-0.127203
-0.159873
0.0117889
0.0276138
0.0318512
0.0148309
-0.358221
-0.0702285
0.0221917
-0.00296317
-0.264199
-0.00660742
0.0251889
-0.073713
0.0127434
-0.23559
-0.342795
-0.01822
-0.0406164
-0.0574326
-0.399646
-0.00748845
-0.0452989
-0.407481
-0.0985016
0.0249785
-0.079119
-0.0759544
-0.0895224
-0.19849
-0.0546843
-0.370007
0.033901
0.00280627
0.0116031
0.0357039
0.110517
0.140735
-0.111538
0.00301258
0.0574429
0.108503
-0.0965198
-0.273263
0.0114765
-0.0122547
-0.179399
-0.403187
-0.0934417
-0.000152767
-0.10319
0.00965618
0.153795
0.0142724
-0.163208
-0.0924456
0.0012764
-0.388924
-0.371109
0.00969997
0.0118707
-0.077824
0.0500507
-0.00298698
-0.209603
-0.193216
-0.00326251
0.0202719
-0.104156
-0.0602358
-0.11132
0.0014425
-0.111782
-0.140482
-0.0842153
-0.0174408
-0.0806242
-0.0114774
-0.193482
0.0578234
0.105448
-0.126764
-0.407224
0.0179338
0.0208251
-0.236872
-0.254084
-0.00917936
0.0270551
0.0326342
0.0108865
-0.021839
0.102437
-0.0609545
0.0375809
-0.0901471
-0.0942096
-0.0844636
0.0137643
0.0203279
-0.00781093
-0.155131
-0.105452
-0.0353662
-0.20879
-0.00828563
-0.253856
-0.21258
0.105898
0.0206926
0.0251925
-0.189227
-0.17314
-0.00433328
0.146336
-0.0103604
0.0121076
-0.0905086
-0.212315
0.115025
-0.0103848
-0.00124279
-0.384176
-0.321709
0.0278532
-0.0731277
-0.0637205
-0.34978
-0.0412145
-0.156619
-0.341482
0.0620476
0.0166485
-0.111255
-0.09773
0.00249518
0.0245705
-0.185131
-0.0740127
-0.0774086
-0.103444
-0.0264866
-0.407801
0.00180746
-0.133923
-0.00365167
0.0173901
-0.024934
-0.0187731
-0.00234322
-0.376312
-0.000459934
0.041536
-0.240366
-0.102471
-0.103701
0.032269
-0.0082478
-0.154569
-0.185628
-0.12085
0.0934282
-0.118545
-0.239574
-0.186003
-0.101884
-0.115744
-0.0746345
-0.214731
0.00538445
-0.0146127
0.017044
0.192049
-0.17363
0.00573141
0.108306
-0.184718
-0.402983
0.0209517
-0.102031
-0.0602767
-0.0924178
-0.111319
0.012173
0.00146227
-0.123194
0.0712854
-0.194735
0.0972431
0.0224044
-0.404669
-0.124845
-0.0037486
-0.0916863
0.022294
0.0235037
-0.0417434
-0.236844
0.014355
0.0129848
0.040104
-0.0861875
-0.212765
0.103693
-0.195647
-0.0912096
-0.371433
0.0313121
0.0251954
0.0131608
0.0316132
-0.225146
-0.172646
0.0333741
0.149865
-0.0531409
-0.109994
-0.231397
0.0085145
0.0250717
-0.0330459
-0.0668617
-0.2033
-0.141049
0.113279
-0.399431
-0.138328
0.0145664
0.137684
-0.000386916
0.00734394
0.0485463
-3.29779e-05
-0.0612312
-0.0547396
-0.00692685
0.0241032
0.0613074
-0.276346
-0.0210706
-0.0162029
-0.197535
-0.179225
-0.0845802
0.0289845
-0.269767
0.0125571
-0.0880027
-0.152026
-0.380112
-0.0604274
-0.0692936
-0.0334696
-0.0052056
-0.406886
-0.395165
-0.350692
-0.0707239
-0.0104795
-0.0957169
-0.0355756
-0.0195614
-0.0633685
-0.0577527
0.227714
-0.0162661
1.53597e-05
-0.042266
-0.089118
0.00700441
-0.0822611
-0.11006
0.0410193
0.00319505
-0.105953
0.0706893
-0.0597987
-0.0224596
-0.00811039
0.00366446
-0.0663329
-0.0066114
-0.0112094
-0.358426
-0.0689739
-0.26634
0.125306
-0.0824299
-0.338834
0.0562064
-0.0684277
0.0249921
0.0131217
-0.0751464
-0.0169442
-0.238803
-0.318404
-0.403779
-0.0416026
0.0105971
-0.123793
0.0205528
0.0727219
-0.0742047
-0.0891661
-0.259182
-0.364722
0.0266942
-0.319409
-0.0819652
-0.000473241
-0.407922
0.199617
0.0944527
0.00959724
-0.2008
0.00762634
0.150299
-0.173515
-0.135905
-0.0166752
-0.171453
-0.075923
-0.130168
-0.0431992
-0.198054
0.00119765
-0.0071227
-0.0336582
0.00580931
-0.106058
-0.173041
-0.11126
-0.0262971
-0.23934
-0.00394864
0.194609
-0.265374
0.0555495
-0.087422
-0.0114958
0.018208
-0.401234
-0.19953
-0.124612
-0.0215609
0.0834376
-0.0279608
0.00792123
-0.013911
0.00612644
-0.0327427
-0.00514791
-0.101079
0.128381
-0.0102532
-0.0590616
-0.051828
-0.135371
-0.112198
-0.0675768
-0.33496
-0.132213
-0.0184746
0.00538716
-0.00419307
-0.100184
-0.0797612
-0.113703
0.0769486
0.0258247
-0.0343153
0.0389606
0.0169686
0.0264246
-0.2169
-0.348963
-0.00365599
-0.0703653
-0.362479
-0.0131423
-0.00768765
-0.0315364
-0.0361904
-0.167812
-0.151671
-0.161499
-0.0883763
-0.132053
-0.356327
-0.0797028
0.00226542
0.0171979
-0.0599269
0.046708
0.171821
0.0255847
-0.177261
0.00355746
-0.0990227
-0.0370219
0.02651
0.00490545
-0.0919144
-0.0701657
0.00843633
0.030935
-0.152608
-0.0659726
-0.0690639
-0.238317
-0.0657081
-0.0908825
0.0190729
-0.149644
-0.00734942
-0.0422646
-0.128394
-0.128616
-0.14617
-0.0929095
0.0392717
-0.122209
-0.0362826
-0.0720246
-0.203094
-0.0896468
-0.0109667
-0.375768
-0.0270038
0.000118688
0.0124929
-0.00113739
-0.0639279
-0.146374
-0.00488518
-0.177951
-0.165112
0.00446666
-0.26042
-0.130464
0.00713914
0.0559229
-0.0761281
-0.0900625
-0.0798269
-0.129663
-0.0435832
-0.107119
0.00107883
-0.391116
-0.00943287
0.0132867
-0.238795
-0.106903
-0.0434425
0.00464203
0.00315958
-0.383887
-0.171439
-0.00536973
0.028767
-0.0898784
0.0565605
-0.192018
-0.00315476
-0.199585
-0.112804
-0.0110756
-0.0960174
0.00302566
-0.0666521
0.0284546
-0.280043
0.053881
-0.104657
-0.0345851
-0.118856
-0.0221681
-0.304113
-0.0262118
0.00394973
-0.0693872
-0.402688
-0.376551
0.01695
0.142572
0.0164068
0.137972
-0.0674976
-0.100569
0.0294242
-0.0052424
-0.114147
-0.0426742
-0.0180689
0.00479065
-0.025637
-0.00494566
-0.143705
-0.116398
-0.00424525
-0.0175766
-0.12031
-0.347234
-0.38379
-0.171789
-0.00702245
0.0420802
-0.0418428
-0.12846
0.0381884
-0.064989
-0.0576201
-0.0838036
-0.0991051
-0.121586
-0.0369456
-0.382633
0.0561697
-0.37756
-0.0516124
-0.203134
-0.0221112
-0.21304
-0.0169696
-0.157971
-0.005164
-0.147114
-0.37873
-0.00122702
0.0162254
0.0362082
-0.196591
-0.00164632
-0.12592
0.0116691
-0.275817
-0.0397923
-0.217275
-0.00348229
-0.00514127
-0.0494804
-0.00477381
-0.0181583
-0.152624
-0.122319
-0.235609
-0.126089
-0.349138
0.0173421
-0.105585
-0.00426522
-0.0165992
-0.0656798
0.0134744
0.0422816
-0.0113078
0.00706833
-0.355438
-0.38707
0.123988
-0.171494
0.0335822
-0.0585288
-0.0464263
-0.280266
0.0272244
0.00359077
-0.0305069
-0.0171831
0.0078617
-0.375504
-0.284732
-0.218766
0.0741005
0.00300365
-0.0109718
-0.0817099
-0.0691502
-0.359502
-0.187586
0.0211069
0.075239
0.0259776
-0.0128612
-0.0304108
-0.160966
-0.0840139
-0.00709571
-0.0572332
-0.186984
-0.0432615
0.0775421
-0.0535312
-0.0841286
-0.196819
-0.0317273
-0.0726523
-0.0696145
-0.0138517
-0.0884165
-0.0106733
0.010185
-0.110074
-0.0303868
-0.103656
-0.171167
0.00910789
-0.00970817
0.00314784
-0.171758
-0.0565481
-0.0312701
0.0100596
0.00440988
0.00332735
-0.119389
0.0371852
-0.0454652
0.017829
0.00553895
-0.129527
-0.104961
-0.11081
-0.0801482
-0.16066
-0.309739
-0.00820942
0.0200198
0.139763
-0.0446647
-0.219913
-0.0253428
-0.00681934
-0.210297
-0.0365166
-0.407127
-0.00634733
-0.207352
-0.229785
-0.399646
-0.136684
-0.199856
0.072132
0.0460318
-0.0132311
-0.120898
0.0356153
-0.0326137
-0.0811129
0.0156661
-0.34701
0.0794173
-0.100208
-0.120448
-0.0555265
0.0176811
-0.405452
-0.146
-0.0714252
-0.0357188
-0.300799
-0.268293
-0.0126546
0.00510917
-0.0146847
-0.00485731
-0.191951
-0.0812268
-0.0703982
-0.0726181
-0.011942
-0.335802
-0.383781
-0.157963
-0.0892264
-0.40777
0.00671216
-0.147358
-0.194499
0.00434512
-0.158232
-0.403606
-0.0115944
-0.0558119
-0.0969496
0.0375866
-0.149798
-0.0911631
0.0391753
0.00507427
-0.197117
-0.391244
-0.396541
0.0134314
0.0167571
-0.408431
-0.268672
0.00659989
-0.0520439
-0.211284
-0.149814
-0.0698695
0.112873
0.00821836
-0.160165
-0.00676356
0.0219721
-0.0766347
0.0177941
-0.267078
0.0187574
0.00436216
0.0481565
0.0385141
0.0211043
-0.0900445
0.073106
0.0034787
-0.0717206
0.0342586
-0.0576441
-0.361236
-0.123142
0.0212648
0.0163486
-0.145778
-0.0613587
0.0023612
0.0249216
0.00435628
0.0407872
0.0117812
0.0603749
-0.295656
-0.163953
-0.147856
0.00123452
-0.0763367
-0.212528
-0.0153858
-0.187182
-0.295794
-0.0697872
-0.227725
-0.177055
0.036755
-0.0426265
0.0442964
-0.245414
-0.00379306
-0.0253813
0.00315548
-0.368545
0.0599031
-0.122072
0.00166195
-0.333107
0.00364721
-0.00384881
-0.0126458
-0.127818
-0.148252
-0.00384135
0.0127464
0.0482409
-0.0886033
0.0809045
-0.160234
-0.0876745
-0.0381535
-0.0345951
-0.0663863
-0.332178
-0.120655
0.0427006
-0.0195376
-0.141335
-0.000838118
-0.120671
-0.384649
-0.0888234
-0.000792536
0.020655
-0.0112786