/*--------------------------------*- C++ -*----------------------------------*\
| =========                 |                                                 |
| \\      /  F ield         | OpenFOAM: The Open Source CFD Toolbox           |
|  \\    /   O peration     | Version:  v2012                                 |
|   \\  /    A nd           | Website:  www.openfoam.com                      |
|    \\/     M anipulation  |                                                 |
\*---------------------------------------------------------------------------*/
FoamFile
{
    version     2.0;
    format      ascii;
    class       surfaceScalarField;
    location    "200";
    object      phi;
}
// * * * * * * * * * * * * * * * * * * * * * * * * * * * * * * * * * * * * * //

dimensions      [0 3 -1 0 0 0 0];
oriented        oriented;


internalField   nonuniform List<scalar> 
55428
(
0.141728
0.0626502
-0.204378
-0.000699069
0.00203185
-0.00133278
0.273343
-0.169352
-0.103991
-0.00983554
-0.0476926
0.0575281
-0.00348418
0.00302015
0.000464033
0.118043
-0.236807
0.118764
-0.0402593
0.0903451
-0.0500858
-0.0959719
-0.0382741
0.134246
-0.0673879
0.0126784
0.0547095
0.0397744
0.0141065
-0.0538808
-0.244674
0.0754684
0.169206
-0.11603
-0.207233
0.323263
0.0745374
-0.125446
0.0509089
0.349328
-0.360489
0.0111607
-0.0247554
0.00495185
0.0198035
0.191942
-0.064047
-0.127895
-0.126245
0.0109778
0.115267
-0.0580818
0.0948945
-0.0368127
0.0170679
-0.0208962
0.00382828
0.0615941
-0.0455793
-0.0160148
-0.0930072
-0.0452079
0.138215
-0.0546698
0.196398
0.00757835
0.0210424
-0.0286207
-0.168659
0.139835
0.0288232
-0.0565589
0.117894
-0.0613355
0.0620593
0.129882
0.0544172
-0.10247
0.0480524
-0.0813949
-0.00885041
0.0902453
0.0291512
0.00385135
-0.0330025
0.000963888
0.00112543
-0.00208932
0.00793059
-0.021547
0.0136164
0.0777437
-0.25423
0.176486
0.0276497
0.053986
-0.0816357
0.0636783
-0.0126829
-0.0509954
0.0331382
0.0438645
-0.0770027
0.101744
-0.0704884
-0.031256
-0.328961
0.245578
0.0833831
-0.110234
-0.0584245
-0.163338
0.164202
-0.000864424
-0.0658433
-0.101073
0.166916
0.0610782
-0.0154381
-0.04564
-0.000122859
0.00244815
-0.00232529
0.110128
-0.0470115
-0.0631166
-0.0106218
0.0599227
-0.049301
0.136558
0.108187
-0.244745
-0.0464161
-0.0245251
0.0709412
0.00166027
-0.00245743
0.000797162
-0.0553319
0.0707708
-0.0154389
0.135243
0.1381
-0.00254435
-0.000939837
-0.15982
0.107286
0.0525338
-0.178208
0.056177
0.122031
0.0695364
0.0489757
-0.118512
0.0208706
-0.0681843
0.0473137
-0.130554
-0.142233
0.272787
0.125756
0.0484104
-0.174166
0.0604595
-0.0206851
-0.234351
-0.0946096
0.00612204
-0.00607259
-4.94466e-05
-0.0999715
-0.184313
0.284285
0.00642476
-0.000302718
0.0861473
0.015597
-0.344529
0.0359695
-0.00137754
0.00145632
-7.87818e-05
0.0755553
0.0436267
-0.119182
-0.050913
0.112718
-0.0618048
-0.164933
-0.0244542
0.189388
-0.0553949
0.0791316
-0.0237368
-0.028164
-0.00935902
0.0375231
-0.283285
-0.0612441
0.178291
-0.308845
-0.116333
-0.0261377
0.142471
0.0815122
-0.138996
0.0574841
-0.120668
0.238061
-0.117393
0.0712883
0.0932171
-0.164505
0.0593697
0.0918902
-0.15126
0.00351508
0.0072941
-0.0108092
0.0811752
-0.111999
0.0308235
-0.00189773
0.0029233
-0.00102558
0.075268
-0.137734
0.0624657
-0.354027
0.355175
-0.00114848
0.105729
-0.0657161
-0.0400125
-0.229747
0.109079
0.0123645
0.0302446
-0.0426092
-0.0618839
0.0631805
-0.00129668
-0.125791
-0.000454114
-0.010538
-0.00253714
0.0130751
-0.00126948
0.00223337
0.000859085
-0.0256145
0.282503
-0.20476
-0.00419688
0.00771196
0.0791986
-0.0305989
-0.0485997
0.0592152
-0.229983
0.139611
0.0903719
-0.19955
0.124691
0.0748589
0.0561589
-0.00272704
0.000829311
-0.12887
-0.14044
0.269309
0.0481264
-0.057962
-0.0191103
0.00150602
0.0176043
-0.104331
0.0573195
0.0748755
-0.0351851
-0.0396903
0.00208256
-0.00774884
0.00566629
-0.0193772
0.00972095
0.00965623
-0.0629501
0.230465
-0.167515
0.0879483
0.0587574
-0.146706
0.00163603
-0.00407841
0.00244238
-0.197736
0.340193
-0.142457
0.102022
-0.266955
-0.0155965
0.023603
-0.0080065
-0.0146291
0.0228601
-0.00823105
-0.0179793
-0.00250832
0.0204877
-0.177729
0.0757534
0.101976
-0.271548
0.230968
0.0405805
-0.22417
0.17749
0.0466806
-0.0966428
0.246609
-0.149967
0.00512631
0.0760489
-0.0438469
-0.119491
-0.16601
0.100167
-0.0517906
-0.0834805
0.135271
-0.106175
0.214955
-0.10878
0.00819932
0.00119107
-0.00939039
-0.111387
-0.126695
0.238082
-0.176006
-0.271061
0.18509
0.085971
-0.0245068
0.0218106
0.00269622
-0.222632
-0.0489157
0.159908
-0.275654
0.115746
0.00728159
0.045032
-0.0523136
0.0133509
0.034022
-0.047373
0.297859
-0.137951
-0.00128926
0.000435506
0.000853749
0.0349521
0.102841
-0.137793
-0.0421722
0.0951142
-0.0529419
0.00529492
-0.00321236
-0.230633
0.1896
0.0410337
-0.0329399
0.0849428
-0.0520029
0.0202824
-0.0756773
-0.0750955
0.0286794
0.0734774
0.0511832
-0.124661
0.143484
-0.118988
-0.0244968
0.0313102
-0.112705
-0.0141537
-0.0532342
0.0757221
-0.135996
-0.0635539
-0.0984628
0.157832
-0.0170156
0.0135817
0.0034339
0.15238
-0.0983145
-0.0540655
-0.0796706
0.044122
0.0355486
0.203514
-0.291521
0.0880065
-0.143059
-0.0533654
0.196424
-0.0859151
0.0164984
0.0694167
0.0476862
0.0247684
-0.0724547
0.215421
0.114489
-0.32991
0.00439488
0.00202988
0.169364
-0.295975
0.126611
0.00229141
-0.000122857
-0.00216856
-0.0939478
-0.150726
0.0050028
-0.00336677
0.0997575
-0.0626389
-0.0371185
-0.0488551
0.0888103
-0.0399552
0.152899
0.0379488
-0.190848
-0.00852953
0.0069873
0.00154224
-0.00269022
0.0109258
-0.00823555
-0.00101558
-0.0848995
0.0854679
-0.137258
-0.0204884
0.0332794
-0.012791
-0.0324807
0.0821611
-0.0496804
0.000461642
0.0160404
-0.0165021
-0.0750833
0.0332724
0.0418109
-0.0538565
-0.176777
0.0108736
-0.0135638
0.00757874
0.14532
-0.0599069
0.12747
-0.0675635
0.00944497
-0.00124565
-0.0783275
0.0103144
0.0680131
-0.21863
0.13734
0.0812909
0.0670603
0.0449474
-0.112008
0.0611473
-0.0855907
0.0244435
-0.109428
-0.0333972
0.142825
-0.0685143
0.0578925
0.221613
-0.304641
0.0830279
0.24733
-0.0257168
-0.239123
0.136176
0.102947
0.0127909
-0.00865365
-0.00413726
-0.108948
0.266582
-0.157634
-0.107812
-0.123653
0.0666057
0.0570471
-0.0188375
0.0264158
0.0685102
-0.0689211
0.000410982
0.222966
0.0811653
-0.304132
-0.0887988
0.0771184
0.0116804
-0.288638
0.180874
0.107764
0.131975
-0.187727
0.0557517
-0.069651
0.0287441
0.0409068
0.133446
-0.0984942
0.188956
-0.110823
-0.0781322
0.110345
-0.0506377
-0.0597073
-0.019205
0.00285746
0.0163475
-0.0260032
0.0133755
0.0126277
-0.0402141
0.0675832
-0.0273691
-0.256216
0.124461
0.131754
0.0908826
-0.233941
-0.383452
0.232235
0.151217
0.0126785
-0.0034368
-0.00924167
0.0362531
-0.0916765
0.0554234
0.0368112
-0.0770705
-0.168284
0.10843
0.0598543
-0.196031
0.0898563
-0.0121018
0.00156379
-0.166083
-0.00549792
0.171581
0.0132734
-0.0128117
-0.161266
-0.09495
-0.0204224
0.0944946
-0.0740721
-0.00137028
8.10275e-05
0.0195774
-0.00449201
-0.0150853
-0.0496958
-0.0299748
-0.0731714
0.0214046
0.0517668
0.053354
0.0103243
0.344189
-0.171891
-0.172298
0.00728263
-0.00288775
-0.285503
0.169472
0.112272
-0.194305
-0.0548837
0.0476963
0.00718747
-0.0108481
0.00863419
0.00221391
0.105919
0.100631
-0.20655
-0.00294772
0.00350693
-0.000559211
-0.142877
0.18406
-0.0411832
-0.0227632
0.095221
-0.0724578
0.00158492
-0.0068669
0.00528198
-0.038571
-0.06576
-0.180462
0.00606149
0.174401
0.19139
-0.291361
0.00998214
0.000864405
-0.0108465
-0.101897
0.0809177
0.0209794
0.0490462
0.0335543
-0.0826005
0.0453456
-0.0566171
0.0112715
-0.000784175
-0.00669804
0.00748222
0.229923
0.0294076
-0.25933
0.229278
-0.117983
-0.111294
-0.0886306
0.0734734
0.0151572
-0.280148
0.1712
0.010171
0.00250743
-0.0881046
0.170157
-0.0820525
-0.10094
0.209666
-0.108725
-0.00432176
0.0388882
-0.0345665
0.156682
0.119521
-0.276203
-0.00332771
0.000783363
-0.0517529
0.0794026
-0.0364111
0.0829991
-0.046588
-0.115232
0.230323
-0.115091
-0.0985976
0.0584812
0.0401164
0.0101427
-0.190605
0.109308
-0.0502844
-0.0590237
0.137677
-0.0803145
-0.0573621
-0.332458
0.18799
0.144468
-0.0667609
-0.0220379
-0.117549
-0.14331
0.260858
-0.0936575
0.0607176
0.148446
0.13252
-0.280966
-0.00231673
-0.00101098
-0.051695
0.124879
-0.0731839
-0.0644292
0.267944
-0.0132434
0.021174
-0.0251106
-0.104401
0.129511
0.131502
-0.258186
0.126684
-0.200868
-0.150148
0.351016
0.0640469
-0.102618
-0.00354085
-0.00730725
-0.330709
0.0963581
0.00930638
-0.0377695
0.0284632
-0.00135951
-0.0145306
0.0158901
0.0281542
0.0251998
0.0432486
0.0476438
-0.0908925
-0.00653124
0.00415713
0.0023741
0.155891
-0.266502
0.110611
0.141122
-0.249446
0.108323
-0.00070034
0.000104723
0.000595617
0.116464
-0.0509157
-0.0655481
0.0312505
0.112234
-0.00256615
0.0317173
-0.150759
0.0102306
0.140529
-0.040683
0.0689284
-0.0282455
0.00703452
-0.143015
0.117905
-0.100226
0.149656
-0.0494294
-0.0455984
-0.129231
0.174829
-0.176897
-0.0769856
0.113797
-0.194095
-0.138363
0.153558
-0.180745
0.0271864
0.0483719
-0.0923849
0.044013
-0.0405505
-0.0143333
0.106299
-0.0499598
-0.0563395
-0.00211232
-0.00441891
-0.105395
-0.105164
0.210559
-0.233597
0.112346
0.121251
0.00925006
0.0850265
-0.123688
0.0386613
-0.233917
-0.0967926
-0.000435623
0.041816
0.0173358
-0.0591519
0.0887025
0.0386124
-0.127315
-0.069403
0.0624947
0.00690827
0.133819
-0.229709
0.0958899
0.302821
-0.0979284
-0.204892
0.233524
0.149033
0.0593661
-0.051492
-0.00787406
-0.122967
0.0630602
-0.0687228
0.292693
-0.223971
0.00775125
-0.0111299
0.0033786
-0.0637268
-0.0381703
0.0566244
0.0182511
-0.00715021
0.00636604
-0.00661497
-0.00297317
0.00958814
0.0808474
0.0248812
0.0411668
-0.0338852
-0.0444117
0.0791985
-0.0347868
0.0801883
0.206361
0.0535869
0.0199247
-0.0735116
0.0591502
-0.030996
-0.0903983
0.201717
-0.111319
0.00716632
-0.0142351
0.00706882
0.0693642
-0.0154481
-0.0539162
0.0389854
-0.086707
0.0477216
-0.0147211
-0.0044839
-0.246145
-0.0283263
0.274471
-0.00391696
0.0183871
-0.0144701
-0.0301461
0.0854809
-0.0553348
-0.115278
0.0911507
0.0241277
-0.099678
0.199511
-0.0998333
0.0520244
-0.0370871
-0.0149373
0.0679195
-0.0202333
-0.000750488
5.01477e-05
0.0378598
0.014764
-0.0526238
0.0378364
0.00157526
-0.0394117
0.0907851
0.0599565
-0.150742
-0.00171239
0.000334858
-0.0552075
0.126725
-0.0715174
-0.05917
-0.010233
-0.149939
-0.0742311
-0.0711836
0.196939
-0.00603434
0.00494569
0.00108866
0.021337
-0.0615511
-0.0222854
-0.0527979
-0.275805
0.207083
-0.139825
0.24524
-0.105415
-0.164532
0.281875
-0.117343
0.32005
-0.160106
-0.159944
-0.00783073
0.0226719
-0.0148412
-0.13605
-0.058537
0.194587
-0.24389
0.0939056
0.149985
-0.104798
0.0577487
0.0470495
-0.0482258
0.0439041
-0.157065
-0.107727
0.264792
-0.00487753
0.0216212
-0.0167437
0.0170694
0.061918
-0.0789874
-0.155674
0.0597021
-0.0469258
0.102328
-0.0554018
-0.00268234
0.00337435
-0.00069201
-0.0297578
0.0858389
-0.0560811
-0.00103154
0.0584358
-0.107532
0.0490963
0.0896108
-0.0333853
-0.0562255
0.160358
0.0416902
-0.202049
-0.216074
0.341459
-0.125386
-0.0333303
-0.0500163
0.0833466
0.0647455
-0.0851679
-0.13954
0.0843324
-0.052154
-0.0418274
0.100263
-0.0204411
0.0622571
0.118041
0.0343389
-0.0600029
0.0898475
-0.0298447
-0.0686318
0.0322207
0.0684767
3.34535e-05
-0.0307642
0.0819204
-0.0511562
-0.0032772
0.000594864
-0.0460514
0.020688
0.0253634
-0.0469217
0.0718809
-0.0249593
-0.0115689
0.0368489
-0.02528
0.0321034
-0.0815108
0.0494074
0.00853626
-0.0855219
0.0155258
-0.0214816
0.00595581
0.0719195
0.0384255
-0.0785419
0.0557787
-0.0366306
0.0856768
-0.00249897
0.0560858
0.195711
-0.0421528
-0.0771656
0.0628123
0.0143533
0.134425
-0.0854911
-0.0489334
0.0793385
0.0813174
0.00836938
-0.0896868
0.162802
-0.280372
0.11757
-0.0501005
0.0127844
0.0373161
-0.007776
0.0823134
-0.440975
0.319321
0.121654
-0.0230628
-0.0501086
-0.201595
-0.135264
0.336859
-0.00896255
0.0080703
0.00089225
0.156091
-0.094339
-0.0617523
0.114338
0.100617
0.114837
-0.0335193
0.0136898
-0.259835
-0.140309
0.32415
-0.183841
0.0018826
0.00113755
0.159946
-0.0691605
0.140275
-0.341869
-0.145309
-0.0431238
0.188433
0.0348207
0.0189266
-0.0537473
-0.00667222
5.7246e-05
-0.193229
0.14763
-0.202732
0.103054
0.387925
-0.200154
-0.187771
-0.049324
0.102256
-0.0529324
-0.111834
-0.159226
0.329148
-0.22257
-0.106578
-0.201496
-0.113364
0.31486
-0.00703365
-0.0019289
0.0276356
-0.0745573
-0.00852379
0.0240496
0.15032
-0.249044
0.0987242
0.0952311
-0.0746201
0.0515573
-0.0114237
0.00277001
0.129689
0.24291
-0.372599
-0.0612238
0.13563
-0.0744065
0.13188
0.0889709
-0.220851
0.0484343
-0.0458993
-0.00253494
0.207122
-0.362571
0.155449
0.0630655
0.0930258
0.0564904
-0.0797793
0.0232889
-0.129995
-0.00586297
0.135858
0.0302714
-0.020965
-0.285977
0.0851093
-0.0686682
0.0279853
0.121462
0.0424613
-0.163923
-0.212728
0.177653
0.0350758
0.102889
-0.162286
0.0593968
-0.121083
-0.11804
-0.0028309
0.00111851
0.095598
0.0359303
-0.131528
-0.207866
0.132785
0.0750805
0.00435384
-0.00721793
0.00286409
-0.037739
0.0261702
0.248438
-0.383917
0.135478
-0.00853415
0.0157005
0.142076
-0.148932
0.00685549
0.0538121
-0.106999
0.0531866
0.0756861
-0.0560328
-0.0196533
-0.256528
0.159886
0.00317472
-0.00129212
-0.118311
0.265658
-0.147347
0.0161175
-0.0260909
0.0099734
-0.189703
-0.0989351
0.383155
-0.212344
-0.170812
0.159459
-0.108392
-0.0510671
-0.273832
0.1093
0.000349196
0.00110712
-0.0965692
0.121489
-0.0249199
0.384158
-0.170535
-0.213623
-0.0082249
-0.0342764
0.0425013
0.0574371
0.0216946
-0.275541
0.291241
-0.0156994
-0.0697097
0.0474243
-0.0138409
-0.034385
-0.0546125
-0.121286
0.175898
0.110273
-0.216517
0.106244
-0.106153
0.0568291
-0.00856316
-0.00286049
0.00153804
-0.0206483
0.002489
0.0550253
-0.0575143
-0.0506159
0.0325549
0.018061
-0.00594892
0.0160993
-0.0101503
-0.0946343
0.0477086
-0.00701193
0.0109352
-0.00392327
-0.102939
-0.056881
0.241316
-0.123273
-0.117077
0.26711
-0.150033
0.0557833
-0.183569
0.127786
-0.00344007
0.0143137
-0.0459552
0.0377303
-0.105044
-0.12485
0.229895
0.0817201
0.0347437
-0.00234814
0.183658
-0.0713866
0.00668892
-0.00510399
-0.0566149
0.0887183
0.0829859
-0.189244
0.106258
-0.0536538
-0.0511444
-0.0494372
-0.163291
-0.00847905
-0.0453111
0.0537901
-0.0838016
0.0668199
0.0169817
0.0641192
-0.115499
-0.0923671
0.125507
0.0999018
-0.225409
0.0260703
-0.0730204
0.0469501
-0.00799129
-0.000538243
-0.141773
0.0764963
0.0652766
-0.331395
0.27234
0.059055
0.16376
-0.107976
0.0165632
-0.0370833
0.0205201
-0.0339685
-0.0780302
0.00188387
-0.00200673
0.0429054
0.00936298
-0.0522683
-0.014931
0.0527908
0.0141255
-0.0273689
0.0194754
-0.14947
-0.00377445
0.00812828
0.011279
-0.342674
-0.0188471
0.0174875
0.0930036
-0.23425
0.141247
-0.0331427
-0.0232621
0.0564049
-0.0177366
0.00394642
0.0137902
0.00252909
-0.0990983
-0.0879993
0.347396
0.00081333
-0.00590116
0.00508783
0.0817307
-0.143632
0.0619013
-0.0843598
0.0715267
0.0128331
-0.0511978
0.037357
0.0350915
0.0181226
-0.0532141
-0.201235
0.100295
0.146675
-0.087016
-0.0596591
-0.0779473
0.0478013
0.106576
-0.0573089
0.0241661
-0.278631
-0.0662278
0.344859
0.0733081
-0.0168177
0.301892
-0.210232
-0.0916596
0.0445607
-0.0365701
-0.00799063
0.229099
-0.114373
-0.114726
-0.299068
0.104972
-0.0112977
-0.00807952
0.0340669
-0.288297
-0.256017
0.193067
0.0970772
0.0918785
0.124412
-0.0619916
-0.0624205
-0.29459
0.0159588
-0.195356
-0.245619
0.0556874
-0.017851
-0.0699092
-0.0542783
0.124187
0.00914143
-0.00889231
-0.000249122
0.188966
0.0850943
-0.27406
0.113631
0.048936
-0.162567
-0.0645232
0.105977
-0.0414538
0.0653142
-0.0176704
-0.124635
0.265967
-0.141333
-0.339967
0.181526
0.158442
0.0338365
0.090399
-0.124236
-0.0290798
0.0878444
-0.0587646
0.00262229
-0.00173807
-0.000884229
0.0826244
-0.0501736
-0.0324509
-0.181716
0.0156335
-0.0702909
-0.107438
-0.0445543
-0.0214733
0.0660276
-0.0117122
-0.014291
-0.303868
-0.203587
0.259015
-0.0554277
0.00107206
-0.00745627
0.00638421
0.0120781
-0.0146152
-0.0158589
0.0319764
0.00302808
-0.00196254
-0.00106554
0.148375
-0.00629885
0.101196
-0.0649426
-0.146966
0.264088
-0.117122
0.00935522
-0.000213786
-0.0446141
0.0619499
0.0761272
-0.134923
0.0587955
-0.0688669
-0.072906
-0.0153337
0.0501544
0.0170634
0.0725474
-0.0987518
-0.110229
0.208981
-0.0494902
0.0708948
0.000711343
0.0172471
-0.0221246
-0.199148
0.10875
0.0412132
-0.105736
0.0322815
0.0567658
-0.0890473
-0.0156388
0.150497
-0.134859
0.0921622
0.0720398
-0.10181
-0.0942213
0.0103294
-0.00303535
0.0382993
-0.0277089
-0.0105904
0.227108
-0.116835
-0.0273984
0.0195677
-0.00718241
0.0319403
-0.0247578
-0.405731
0.281922
0.123808
-0.050352
0.0132505
0.0371014
-0.0794619
-0.169861
0.249323
0.0478816
-0.0812119
-0.143466
0.0658812
0.0775848
-0.140465
0.282245
-0.14178
-0.0073232
0.0587435
-0.0514204
0.0138589
-0.0213877
0.00752878
-0.135618
0.0811734
0.0544449
-0.056086
0.00950325
0.0465827
-0.216919
0.137458
-0.0792048
0.142617
-0.0634127
-0.0652932
0.14142
-0.105093
0.0514387
-0.030021
0.111752
0.0460377
0.0418087
-0.0878464
-0.305955
0.208922
0.0970336
-0.0302519
-0.199744
-0.183707
-0.0160542
0.0126141
0.0443253
-0.0909564
0.046631
0.110503
0.116783
-0.227286
0.0696452
-0.0574165
-0.0122287
0.0844727
-0.30166
0.217187
-0.00923013
0.00682703
0.0024031
-0.00592464
0.00404568
0.00187896
0.177457
0.17533
-0.352787
-0.00177291
0.00107384
0.285861
-0.0665297
-0.219331
-0.172409
0.0270996
-0.0986021
0.132439
-0.120899
0.298356
-0.0501567
0.0818959
-0.0317392
0.08537
0.0613051
0.253447
-0.142944
-0.096131
0.104667
-0.27484
0.0686955
0.206145
-0.0998854
0.0836554
0.01623
-0.0392895
0.0321071
0.270943
-0.122497
-0.0677548
0.165667
-0.0979125
0.0213752
-0.00430721
-0.197443
0.395865
-0.198423
0.0632915
0.0818712
-0.0244342
-0.0534173
-0.00871282
0.0621301
-0.0747304
0.0464648
0.0282656
0.0425743
-0.0733597
0.0307854
0.145264
-0.0765694
-0.0686942
-0.113355
-0.116627
-0.112796
0.0717651
0.0410309
-0.0172999
0.0602052
-0.00445046
0.0057596
-0.00130914
0.0165161
0.00640502
-0.00557464
-0.000830383
-0.0517121
0.281635
-0.0723357
0.0261338
0.0462018
0.156599
-0.0929172
-0.0636821
-0.0492908
0.12548
-0.0761896
-0.0111723
0.0252977
-0.0481181
0.0678715
-0.0197534
-0.0598471
0.0734567
-0.0136095
0.252051
-0.0953692
0.0198014
0.0908473
0.00426682
-0.0164512
0.0515427
-0.0118001
-0.0490807
0.0608808
0.0716654
-0.0919589
0.0202934
0.0039147
-0.000127833
-0.00378687
-0.00461469
0.126076
-0.00600536
0.00376569
0.00223967
-0.0429202
0.0527922
-0.00987201
-0.130889
0.0815978
-0.0715065
0.13758
-0.0660732
0.0406178
0.0591397
0.0548967
0.0300461
-0.0675271
0.129659
-0.0621321
-0.220479
-0.0602133
0.280692
-0.0385136
0.0843219
-0.0458083
-0.175038
-0.130917
0.0326081
0.0772018
-0.0603618
-0.01684
-0.213656
-0.0611845
0.0741103
-0.031536
-9.65049e-05
-0.000543386
0.00063989
-0.290356
0.155052
0.135303
0.296587
-0.107622
0.0169469
-0.00518265
-0.0117642
0.0862746
0.0717508
-0.158025
0.241776
-0.168758
-0.0730181
-0.0745162
0.00588444
-0.00186265
-0.00203671
0.00389937
0.00921333
-0.00808417
-0.00112916
-0.0933399
-0.0501261
-0.0993005
-0.207814
0.307114
0.00622946
-0.00561221
-0.000617252
-0.0476527
-0.0363413
0.083994
-0.0113206
-0.0505633
0.102991
-0.0985068
-0.0371115
-0.0438871
0.0899248
0.039864
0.0912388
-0.131103
-0.0453081
0.0713784
0.170501
0.00245592
-0.00431857
-0.162965
0.0748601
-0.0353364
0.0536603
-0.105746
0.00275153
0.102995
-0.0589037
0.0504247
-0.14227
0.253212
-0.110942
0.00332879
0.0286656
-0.0319944
0.103307
-0.221948
0.135837
0.0861113
0.0596452
-0.0436501
-0.0159951
-0.15322
0.137581
0.00235338
-0.00455673
0.00220335
-0.215349
0.00837986
0.206969
0.0387001
0.0133243
0.0482167
-0.184267
0.0513726
-0.266721
-0.052999
0.0595173
-0.0065183
0.312734
0.0365939
-0.00661211
0.00241523
0.191231
0.0505444
-0.0762513
0.0471715
-0.161124
-0.137943
-0.21122
0.340909
-0.048097
-0.0196944
0.0677914
-0.000693872
0.0398332
-0.0391394
-0.031079
0.0421601
-0.0110811
0.00952616
-0.00653815
-0.00298801
-0.00218189
0.00453526
-0.0331708
-0.0413842
-0.0409944
0.0823786
-0.0949804
-0.0998681
0.194848
0.165912
-0.0276995
-0.138213
0.00814531
-0.00707326
-0.00762269
-0.189943
0.122188
-0.00438896
0.00204082
0.00592684
-0.00488822
-0.00103862
-0.0391722
-0.0686398
-0.0393557
0.0840337
-0.0446779
0.0585871
0.0588042
-0.117391
0.0157558
0.00508259
-0.0208384
0.252811
-0.111688
0.0306592
-0.088741
0.00623497
-5.5117e-06
0.013461
0.00653277
-0.0618647
0.0220967
-0.00634095
0.155702
-0.042071
0.059177
-0.124053
0.0648759
-0.272447
0.122102
0.150345
0.0287547
-0.0121915
-0.00133729
-0.000890623
0.00222791
0.0554932
-0.25908
-0.0463585
0.0140063
0.0323522
-0.0114096
0.0211975
-0.00978788
-0.108614
0.056919
-0.00184823
-0.114551
0.0440629
-0.000632265
0.00053576
0.189619
-0.00503564
-0.184583
-0.057939
-0.0165772
-0.0291927
0.0415572
0.0666114
-0.0209135
-0.0456979
0.062918
-0.232748
0.181683
0.0510649
-0.00133714
0.000967359
0.000369781
0.0753406
-0.0422024
0.0947964
-0.0586711
-0.0361254
-0.311
0.0932843
0.217715
0.0357169
-0.0845721
-0.309056
0.209755
-0.00998714
0.0553328
-0.0149955
0.103698
0.170161
-0.125879
-0.0442812
0.0891292
-0.158986
0.0698568
0.116983
-0.179081
0.0620974
0.14024
-0.0329211
-0.107319
-0.0703396
-0.0295458
-0.0646445
-0.0590433
-0.098091
0.15543
-0.0573385
0.0750598
-0.0120595
-0.0630003
-0.0738814
0.133358
-0.059477
-0.0345469
0.0282332
0.00631364
-0.0444465
0.0125738
0.0318727
0.234812
-0.140906
-0.0573443
-0.106204
0.163549
-0.0310662
0.14805
0.221375
0.122814
0.00249252
-0.0206454
0.00601636
0.100397
-0.0596294
-0.0407672
-0.16678
0.172842
-0.0733553
-0.0394408
0.12775
-0.219494
0.0917442
-0.147315
0.0712317
0.0760829
0.00195777
-0.00116138
-0.000796395
0.300515
-0.0488706
0.101508
-0.0526374
-0.0903881
0.0326264
0.0577617
0.219031
-0.107253
0.120371
-0.226495
0.106123
-0.233271
0.128226
0.151827
0.0140856
-0.0683631
0.0149458
0.146793
-0.177859
-0.0511702
0.120707
-0.0547159
0.113303
-0.0407261
0.283636
-0.0654988
-0.167249
0.0110524
-0.0170013
-0.0164961
-0.00505091
0.399506
-0.192152
-0.207355
-0.161449
-0.0971474
0.258597
0.23695
-0.143947
-0.0297888
0.108379
-0.0785898
0.112196
-0.0632203
-0.0123234
-0.00541313
-0.0901256
0.0301228
0.138241
-0.0626858
0.128903
0.0469197
-0.175823
0.0867656
-0.0477802
0.00823766
-0.0287261
0.130894
-0.0574163
0.181366
0.138684
-0.303987
0.109427
0.194559
0.237504
-0.100946
-0.0596161
-0.030772
-0.359711
0.159967
-0.046529
-0.107347
0.153876
-0.00343653
0.0534707
-0.0500342
0.212958
-0.0496028
-0.163356
0.0023486
0.000826121
-0.00644492
-0.00129253
0.00773745
-0.0910245
0.163803
-0.0639566
-0.0998466
-0.0456992
-0.0480379
0.0937372
0.0625035
-0.0185095
-0.043994
0.0320026
-0.1066
0.0745971
0.0292137
-0.0654807
0.036267
-0.038203
-0.0361829
0.0743859
-0.0152269
0.00736577
0.00786117
0.089189
-0.146533
-0.170703
0.288913
-0.118211
0.00149318
-0.107239
-0.00560903
0.00360658
0.00200245
-0.0910572
-0.00507379
0.101162
-0.223251
0.122089
-0.0569702
0.014386
0.0425842
0.10518
0.170892
-0.276072
-0.219757
-0.0842293
0.0710344
0.0193107
-0.0215878
-0.0344982
0.101721
-0.0697179
-0.0240553
-0.0645753
0.0181065
-0.184887
-0.0678696
-0.0466817
0.0630481
-0.0323469
-0.018269
0.1502
-0.174654
0.0506935
0.0272251
-0.0779187
-0.0356928
-0.0810922
0.116785
0.0501405
0.012363
-0.106045
0.156988
-0.0509424
-0.103646
-0.0975895
-0.0210398
0.00544338
-0.108937
0.157348
0.000659758
-0.00084328
0.00329143
-0.125172
-0.113443
0.238615
-0.100608
-0.194207
0.294814
-0.0104965
-0.03395
0.174904
0.0380544
0.083043
0.126373
-0.209416
0.00337722
-0.00102863
-0.0810594
-0.161643
0.242703
-0.00906942
0.00529498
0.234105
-0.115723
-0.118382
0.0143509
0.00925204
0.0585513
0.047748
-0.0229516
-0.0505522
0.0735038
0.00331752
0.258169
0.124987
-0.312484
0.151359
-0.16613
0.10432
0.0618102
-0.215572
0.140193
0.075379
0.228068
-0.0942488
0.0537865
-0.0931422
-0.23163
0.0867216
0.144908
-0.302568
0.0856482
0.0510337
-0.117632
0.0665978
0.0603455
-0.0421737
-0.0181718
-0.181781
-0.120787
0.0750999
-0.217977
-0.0256265
-0.0693305
0.094957
0.154659
-0.236407
0.0817481
0.218713
-0.114644
0.196491
-0.0818463
-0.00211996
0.000782816
-0.157691
0.0194574
0.138234
0.309316
-0.239399
-0.0699172
-0.0316656
-0.0481137
0.160154
-0.165652
-0.20112
0.102369
-0.00741576
0.000970837
-0.0139623
-0.0363896
0.0393319
-0.132339
0.07684
-0.0574226
-0.0194174
0.253778
0.0555386
-0.121247
0.0627468
0.0584999
-0.122268
0.086575
0.341758
-0.0463137
-0.295444
-0.05936
0.0711665
-0.0118065
0.0183212
0.000629041
-0.0189502
-0.0345205
-0.0227029
0.0572234
0.0379313
0.0569632
-0.0509101
0.108659
0.194547
0.107345
0.000426625
-0.254032
0.172973
0.0125116
0.0320491
0.145422
-0.326605
0.181184
0.128034
-0.0527663
0.16954
-0.0982513
0.154352
-0.354484
0.200132
-0.0782332
0.0280596
0.0955822
-0.041165
-0.327133
0.155242
0.274631
-0.104239
-0.170392
-0.0615455
0.0497454
0.00682167
-0.00944497
0.0026233
0.13186
-0.0503474
0.155098
-0.0786013
-0.186177
0.113371
0.0728061
0.0445324
-0.0153187
-0.193635
0.289815
-0.0961797
0.0260231
-0.0213051
-0.00471798
-0.0536453
0.193256
-0.133005
0.0717813
-0.106807
-0.0614774
-0.0552961
-0.0209149
0.076211
0.105874
-5.98658e-05
-0.00231866
0.00237853
-0.0581233
-0.0940024
0.152126
0.0619501
-0.146699
0.0847489
-0.0603599
0.123872
-0.0635119
-0.121419
-0.0972114
-0.0629861
-0.0507913
0.0641171
-0.0133259
0.124258
0.0214469
-0.145705
-0.0660767
0.126952
-0.0608754
0.0790982
0.0847049
-0.00987718
-0.0352548
0.045132
0.0274932
-0.126204
0.0987112
0.00471042
0.0148669
0.00433303
-0.00483763
0.000504601
-0.0566603
0.0737297
0.0709388
0.101949
-0.172888
-0.10027
-0.0554039
-0.187444
0.0924632
0.0126956
0.00878775
-0.0214833
0.154934
-0.076791
-0.0781429
0.127925
0.00278738
-0.130712
-0.109943
-0.105629
-0.052341
0.00493605
-0.000603024
-0.387139
0.189696
-0.173238
0.0665831
0.106655
-0.0867219
0.157523
-0.0708014
-0.108035
0.0591643
-0.00215895
0.000813225
0.000847041
-0.117294
0.0381822
0.0791114
-0.00147225
0.00237506
-0.000902807
0.0505638
0.351839
-0.117329
-0.23451
-0.0458261
0.0743574
-0.0285313
0.0988375
0.058033
-0.15687
0.00270409
-0.00110492
-0.00159917
-0.37713
0.15017
0.226959
-0.0606802
0.0402392
0.0607586
0.119403
0.0048552
-0.00969747
-0.0248494
-0.121147
-0.145355
0.100459
-0.067936
-0.0325225
0.0760113
0.0243853
0.00746708
0.018556
0.206244
0.0403649
0.0463831
0.0504147
-0.159842
-0.00696197
-0.00826497
-0.0663404
0.021786
-0.250334
0.14028
0.110054
0.13041
0.0310696
0.0561827
-0.0236279
-0.0766375
0.0264808
0.0748799
-0.0137327
0.0776268
0.0600334
-0.13766
-0.0112801
-0.00573544
-0.125178
0.27354
-0.148363
-0.0881261
0.0211024
0.0670237
0.111493
-0.309229
0.119166
-0.0558911
-0.0632748
-0.127048
0.0887736
0.0424939
-0.0291429
-0.072938
0.155924
0.0778044
-0.0294326
0.000792809
-0.295063
0.0445587
0.250505
-0.112729
-0.118602
0.231331
-0.351338
-0.0160253
0.0152212
0.000804114
-0.216202
-0.170937
0.0688657
0.0555465
-0.0448542
-0.0326847
0.077539
-0.0718422
0.0159634
0.0558789
-0.0471526
-0.0482995
0.0954521
-0.0210496
-0.0250019
-0.090796
0.137671
-0.0468753
-0.0135442
-0.0071013
-0.38567
0.22458
0.16109
-0.244324
0.119146
0.0448185
-0.101874
0.057055
0.0770281
0.157077
-0.00142091
-0.00151839
0.0029393
0.21771
0.150317
-0.368027
0.0978572
-0.0374311
-0.0604261
-0.10787
0.135363
0.0419119
-0.0229853
0.0218478
0.000824127
0.152548
-0.266351
0.113803
-0.033374
0.0883631
-0.0549891
-0.0783361
0.0138125
0.0645236
-0.0569621
-0.0416355
0.113674
-0.225447
0.111773
-0.035517
-0.0214532
-0.00957635
-0.148115
0.269569
-0.185096
-0.00813278
0.00962434
-0.00149156
0.00131219
-0.0904274
-0.00750596
0.0979334
-0.175267
-0.230463
-0.0542489
-0.0301109
0.0758815
-0.35755
0.263236
0.0943138
-0.166029
0.0599843
0.12127
-0.0593197
-0.0462013
-0.0492007
0.095402
0.00193939
0.00620592
0.0884724
-0.228298
-0.278229
0.125977
0.152252
0.157312
-0.086373
0.0851338
-0.0515795
-0.0503697
-0.0571745
0.107544
-0.00211962
0.00902514
-0.00591105
-0.00311409
0.0531702
-0.0242061
-0.0289641
0.0940617
-0.0497364
-0.124279
0.293643
0.0033958
-0.102351
0.0689771
-0.300589
-0.0850814
0.0244861
0.165133
0.0304504
-0.0748621
-0.00428499
0.13221
0.0285987
-0.0631192
-0.404701
0.149702
0.254999
-0.0554158
0.0198987
0.0744961
-0.134649
0.0601533
-0.10084
-0.0464748
-0.170346
0.0717435
0.00082727
0.0111309
-0.0119582
-0.00156335
0.0413249
0.0294459
0.0116682
-0.00670361
-0.00496457
0.011158
-0.00340679
-0.0811325
0.00108932
-0.00823953
0.147885
0.0238949
-0.17178
-0.00108221
0.00619573
-0.00511352
-0.0753832
0.146463
-0.0710794
-0.0641569
0.0850768
-0.02092
-0.00603618
0.00743265
-0.00139647
-0.00270168
0.00128077
-0.0664298
0.0235786
0.0428513
-0.260151
-0.0349123
0.311464
-0.175584
-0.13588
0.00124645
0.010731
0.0121291
-0.29296
-0.0623681
0.355328
-0.135178
0.0332419
0.101936
0.110669
-0.0596353
0.120614
-0.0493823
0.0859745
-0.125297
0.0393223
-0.0632794
0.0289264
0.034353
0.00702157
0.0282166
-0.0352381
0.0440132
0.00368303
-0.105191
-0.10293
0.208121
-0.298139
0.123101
-0.045171
0.131145
0.0071987
0.0543954
0.247065
-0.0590749
-0.00537458
0.00661138
-0.00123681
0.0407609
0.0838083
-0.124569
-0.0417345
0.0957884
-0.0540539
-0.0591787
-0.0289475
0.129907
0.111409
9.82613e-06
0.00048619
-0.000496016
0.00487237
0.0134488
-0.107797
-0.201259
-0.0687354
-0.0940004
0.162736
-0.234807
-0.169894
0.0658603
-0.267356
0.0123369
-0.00261599
-0.202186
0.0980484
0.104137
-0.112089
-0.161743
-0.00820502
0.290457
-0.041306
-0.249151
0.043592
-0.140305
-0.0379033
-0.00140453
0.00311233
-0.0017078
-0.0672542
-0.0661481
0.133402
-0.0888177
-0.00307361
0.0918913
-0.00138543
-0.0146399
0.166852
0.0882467
-0.00261494
0.00438208
-0.00176714
-0.0468128
-0.0279176
-0.268414
0.139544
0.111158
-0.213126
0.101968
-0.0304347
0.0578052
-0.0273705
0.00048552
-0.301003
0.00804228
0.310771
-0.116224
-0.154724
0.20294
0.0448181
-0.101528
0.0567096
-0.0573884
0.0468919
0.344191
-0.189839
0.000297297
0.000857295
-0.00115459
-0.0424795
0.0553337
-0.1506
0.0952659
0.0394765
0.0198896
0.0908744
-0.158129
0.0794523
-0.0471708
0.0270642
0.120821
0.0661497
-0.0328773
0.0632088
0.0427682
-0.0087172
0.0126089
-0.00389172
-0.313556
0.205759
0.0466375
-0.176538
0.1299
-0.191039
-0.168672
0.247507
-0.138316
-0.109191
0.0778812
0.193711
-0.110668
-0.0586406
-0.0417816
0.100422
-0.0179282
-0.0585865
0.0765147
-0.0357404
-0.0331808
0.236269
-0.131056