/*--------------------------------*- C++ -*----------------------------------*\
| =========                 |                                                 |
| \\      /  F ield         | OpenFOAM: The Open Source CFD Toolbox           |
|  \\    /   O peration     | Version:  v2012                                 |
|   \\  /    A nd           | Website:  www.openfoam.com                      |
|    \\/     M anipulation  |                                                 |
\*---------------------------------------------------------------------------*/
FoamFile
{
    version     2.0;
    format      ascii;
    class       volScalarField;
    location    "100";
    object      ddt0(omega);
}
// * * * * * * * * * * * * * * * * * * * * * * * * * * * * * * * * * * * * * //

dimensions      [0 0 -2 0 0 0 0];


internalField   nonuniform List<scalar> 
13851
(
6.76737e-05
-0.34498
-0.00108409
4.38778e-05
0.0012987
0.488026
3.3269e-06
-0.000654032
1.67813e-06
-0.00709768
0.00830583
0.167617
-0.205682
-0.53459
-7.41423e-07
0.00016234
9.53512e-06
-0.000333047
-0.461555
1.00373e-06
3.46216e-05
-0.000591309
-3.27437e-06
6.6729e-07
-4.07303e-06
-0.000665383
1.54697e-05
-1.54257
5.22174e-05
-3.08684e-05
0.699542
7.2614e-06
-0.00114925
0.0166026
8.48676e-07
0.000948012
0.135449
0.0359328
-0.00790755
0.121485
-2.44921e-06
1.92985e-06
1.54905
-0.000242848
0.0182726
0.76861
-0.0347548
0.281865
1.61207e-05
0.0388856
0.00116118
-0.000405769
-0.742392
-9.85797e-07
2.59582e-07
2.33663e-06
4.90583e-07
-1.04333
-2.7973e-05
2.16293e-06
0.0480816
0.260324
-0.00218268
0.00199409
-0.085154
0.000162286
0.589326
-0.056613
0.000116517
-0.000343172
-0.141659
0.55641
-0.714709
-9.73827e-07
4.52864e-07
3.56732e-07
-0.000814801
-0.266888
0.000287279
-0.101003
2.60078e-07
0.0176664
-4.05241e-07
2.88984
-0.00112817
0.269182
0.0955385
0.298752
6.13233e-06
-3.24274e-05
0.00179898
-0.00823781
-0.0481776
8.44263e-07
1.08304e-05
8.296e-08
0.00193389
-0.0773247
0.0259642
-1.21862e-07
1.38924
0.000660563
2.12192e-06
1.26308e-05
-6.15805e-06
0.0498306
0.000872697
5.89516e-07
0.172875
0.448837
-1.3734e-06
-5.33346e-05
-0.000957216
5.96508e-07
-1.18396e-06
-0.676299
0.0022608
1.34298e-06
8.50106e-07
1.57976e-06
0.134006
1.31889e-05
-0.129348
-0.429749
0.211962
-0.000872523
0.121732
0.00046119
2.26475e-05
0.000735814
-2.16154e-06
5.85301e-07
-0.102966
-9.83367e-07
-0.581122
2.7029e-07
1.10796e-06
0.607418
-0.315493
0.750155
1.26484
-2.84866e-08
-6.42132e-05
-2.50608e-06
-5.74309e-07
-0.00372481
0.000628029
0.00553398
2.88588e-06
0.0252373
-0.00051406
5.21257e-08
-0.338837
4.10529e-07
2.89253e-06
-1.14697e-06
-2.26499e-06
-8.71183e-06
-0.000280379
0.00104727
-4.14823e-06
3.22188e-05
-1.18994
3.15422e-07
0.000131604
-2.57988e-06
0.00972007
0.000117335
1.80874e-05
-3.25261
-0.337842
-5.89847e-07
-2.69952e-06
0.717662
1.08062e-07
0.342595
0.000397263
-3.9627e-05
-0.675918
3.34993e-07
1.31526e-05
0.426741
-1.13002e-06
-9.48973e-05
-3.91097e-07
-9.23622e-07
0.000175495
1.04153e-06
0.0018149
-0.0177544
-0.0508196
-0.930506
3.3726e-05
6.54968e-05
0.39497
1.05903e-06
-2.84942e-05
-0.0592992
-3.12028e-05
-3.55715e-07
-0.000765743
0.781596
6.07622e-07
1.36761e-06
-0.0054615
-1.43711e-06
1.01378
9.25772e-06
0.0573411
-1.14431e-06
0.0422694
1.96761e-06
-0.12693
-1.12033e-06
-3.5665e-06
0.00356888
-0.00032385
0.415071
-7.20653e-07
0.0675441
7.44276e-06
6.23005e-07
0.0968104
0.000688631
0.0796509
-3.43943e-06
-8.65708e-06
-7.31247e-06
-1.17784
-1.20248e-06
-0.000790887
1.82565
-4.32298e-07
5.8022e-05
0.00085034
0.0021003
1.08496
-0.128772
-3.26905e-06
1.68152e-06
0.591285
-0.0387368
3.15989e-05
-0.00691632
-1.59839e-06
0.125176
0.00064543
0.0951954
-7.50252e-07
4.8212e-05
0.00238103
-0.0125705
-6.88572e-06
-2.41191e-07
0.000541174
-0.817012
-0.0120085
0.464279
1.53335
-1.03794e-07
-3.34438e-06
-0.000285943
-0.171043
1.53101e-05
-0.159603
-4.84457e-08
-6.53401e-06
1.17539e-06
0.0520734
0.0145846
0.00172691
1.9261e-06
-0.117393
0.00022861
0.000274366
7.87633e-07
0.00672189
0.071004
-0.00453918
0.00628905
2.75012e-05
-1.28788e-06
-8.66319e-06
0.000499863
-0.122635
0.207534
-6.03749e-07
1.85286e-07
-0.0890195
0.0280235
-0.00151529
-2.03785e-05
1.38212e-06
0.000115255
0.0318297
-0.307098
0.000110865
-0.546277
9.43532e-07
0.123705
2.46703e-05
1.02755e-05
0.00896173
2.49245e-06
0.0768577
0.145008
-6.61215e-08
0.000352487
-8.01263e-06
-1.76831e-05
-0.799015
0.000115163
-4.90482e-06
0.0828932
4.90967e-07
4.97411e-05
-0.00209284
-0.00466709
-0.0017626
-7.78739e-07
0.000623244
-6.94593e-07
-0.264413
0.0110348
-3.80766e-06
-2.31882e-06
-0.00155367
-6.45288e-06
5.25307e-06
3.9223e-07
2.37764e-06
-3.96299e-06
0.00787814
0.226613
-1.78113
-0.00083295
0.00269144
0.261671
-7.41512e-07
4.98428e-05
0.00175234
-0.0207286
0.00809063
0.000566708
-0.757618
0.00027349
-0.0803482
0.152539
-6.83087e-07
-0.141926
-0.113595
0.870631
5.72649e-06
0.0139437
-1.31642
-2.98415e-06
0.0202864
-2.03002e-06
-7.51491e-07
-2.28884e-06
-6.25594e-08
-1.4963e-06
0.139405
-0.0417984
3.51789e-06
0.00032311
-7.72858e-07
-1.99927
0.000501728
-0.034721
-3.28398
3.72002e-06
0.00127278
-1.48972e-05
0.0993724
9.32076e-08
1.12797e-06
-0.00136587
2.32077
9.62968e-07
-1.24971
-0.0248285
0.000241758
-1.14843
-0.0145421
-0.0264836
0.000381924
8.83527e-07
-3.40792e-07
-0.000653087
0.000623346
-0.614254
0.000122578
0.0502029
0.148249
-1.38745e-06
1.76969e-07
-1.9356
-0.040937
1.71541
0.0426598
-0.00714286
-1.52832e-05
-2.4915e-06
0.19436
-7.11967e-07
0.000100609
7.26843e-05
1.14405e-06
-8.58681e-06
6.85759e-07
-2.42871e-06
0.00174922
0.00728517
-0.791536
-0.000483641
0.000665454
0.00350323
0.0208471
8.74516e-05
0.903987
9.97551e-06
0.00423834
1.25114e-06
9.8289e-07
-1.25104e-06
0.287995
0.10278
0.000893015
0.0021293
-0.865909
-0.00382841
0.0546234
-4.63215e-07
0.00083411
3.46431e-07
0.0490096
-1.90822e-06
0.800255
-0.00360118
-0.00156105
0.0132316
-7.34956e-05
0.0542392
0.00802339
2.29775
-4.15779e-07
-4.17887e-05
0.000391785
0.0299813
-4.34261e-07
-2.31114e-06
-0.000397905
0.000336991
-0.000859354
0.19106
-2.33654e-06
-2.35991e-06
0.884217
0.000166384
-1.21594e-06
0.367244
8.78476e-07
6.39338e-05
1.50084e-06
0.00198938
-5.32995e-06
-1.32654e-06
-4.74709e-05
0.0818216
-5.15062e-07
0.000171368
2.97601e-07
-0.000130854
0.0847481
2.08101e-07
3.70204e-06
1.20483e-07
1.32669e-07
0.0946438
-6.64499e-06
0.253808
-1.20131e-06
-2.18214e-06
0.326382
-0.0156163
-1.84122e-06
-5.0678e-05
8.9328e-05
-0.0877092
1.2938
-2.31887e-06
-0.0149073
-6.83226e-07
0.0013024
4.61373e-07
-0.913247
1.15839e-06
-0.623325
-0.00277484
1.30028e-06
-0.000953553
-0.450246
-0.000809702
-0.0400284
1.01074e-06
-0.172282
-3.08556e-07
-6.00059e-07
4.60568e-07
2.35575e-06
0.00459057
0.00107365
-0.00162076
-0.306385
-0.00209073
-4.85776e-06
0.0815323
0.106125
6.98316e-06
2.39489e-05
-0.152499
-0.374686
0.00242185
-1.38316e-06
-0.844936
1.58905
0.445686
0.000158342
-0.00361477
0.279852
0.0614207
-0.567341
-0.0508982
0.367205
-1.16059e-05
0.197216
0.0432138
1.09446e-06
0.0680323
0.0010674
-0.104889
8.34345e-07
1.20556e-06
-1.86952e-06
-2.51478e-06
0.00167836
0.0015068
0.296835
0.2309
-2.2539e-08
1.01933
-0.0440529
0.0765497
0.0663181
0.000166713
-9.33823e-07
1.44708e-06
-0.052415
0.0909984
4.67788e-06
-0.000559961
3.50922e-05
2.19752e-06
0.0193533
-0.38325
0.270897
0.00039845
0.0147431
0.128108
-1.18877e-06
1.58934e-06
0.124213
0.146288
-0.00164904
0.000134487
-0.00622039
6.65641e-07
-1.06802e-06
0.945013
2.41721e-06
4.32312e-07
-2.56272e-07
2.65776e-07
-0.00412982
0.0017149
0.00115333
2.38421e-06
-1.37605
-0.128654
1.28023e-06
-6.92451e-07
1.63038e-05
-8.04154e-07
2.16856
0.0290594
-0.0295178
0.19155
-0.109308
9.98023e-05
-0.189727
0.0155025
0.000294599
0.000102918
-8.37711e-07
-0.0018848
-0.000102895
0.0565413
-0.0932814
-0.000516545
-3.42748e-05
1.60586e-06
0.000358245
8.83599e-05
-0.05766
0.00143935
-8.64969e-07
-0.000980471
-4.5794e-07
6.13831e-06
0.00137695
1.63016e-06
1.09776e-06
0.000253049
-4.04157e-06
0.00176447
0.207348
0.00144237
0.000451643
-0.00224356
1.96472e-06
0.530976
0.00384032
0.132414
1.37322e-06
-3.3019e-07
0.229777
-4.02426e-05
-1.57059
0.149211
0.0392
0.263295
-1.35182e-07
0.415691
3.80054e-05
3.0226e-07
1.33679e-06
6.57211e-08
0.000400671
-0.000621731
0.00166875
1.91465e-06
0.316162
-0.00320147
0.445718
1.11822e-06
1.34538e-06
-8.99698e-07
-0.00273296
0.541173
0.000341336
5.06253e-06
9.03616e-05
-1.73443e-06
2.92562e-08
-1.44668e-06
-0.0163898
-0.195832
-4.14855e-06
1.70072e-06
2.65839e-06
-2.42436e-06
0.693864
-1.07503
0.000283307
-0.176974
-0.234252
1.52117e-06
-0.00101591
2.25153
0.000147424
0.364342
-1.01913e-06
-0.000293671
0.000380821
-0.000398527
-0.124434
-1.88945e-06
0.075296
-4.35311e-06
4.70732e-05
0.0580506
4.0624e-06
-1.5804e-05
-0.0101423
-8.15561e-07
1.53512e-05
-0.109241
0.0853659
0.0012024
-0.215509
0.0138253
-8.59329e-07
1.35371e-06
0.0888572
0.00143701
0.00389048
0.149527
-2.03874e-06
3.9071e-06
1.02772e-06
-0.0600553
0.212772
4.68647e-05
2.56991e-07
0.0700383
1.36444e-05
-4.57497e-07
5.31999
-0.812262
-0.00837186
9.7966e-07
-3.5097e-06
-0.195179
-0.37288
-0.00203576
6.66984e-05
0.0206185
-1.19842e-06
0.00238293
0.00627685
-0.0016887
3.01442e-05
0.269889
0.000645421
0.000135916
0.0726368
-7.8705e-07
7.3617e-07
-7.60628e-06
1.92127e-06
4.19983
-6.51144e-05
0.000390372
0.000599701
0.0807544
1.33745e-06
-0.195852
-1.29466e-07
0.000515949
1.85947e-06
2.04779e-06
1.92008e-07
0.140878
-2.05342e-06
2.21309e-07
0.131418
1.94796e-06
-0.111845
-5.93174e-06
-1.9772e-05
0.000583385
0.725617
-0.101526
3.59872e-07
-0.105247
-0.0964083
-7.2777e-06
0.0733478
4.62625e-05
1.59106e-06
0.0410778
3.162
0.0341854
6.48815e-05
-3.2773e-08
9.52261e-07
0.0440455
-0.0018131
0.00137548
9.19056e-05
0.0382635
-1.23914e-06
-1.87821e-05
-0.00089643
-0.010912
0.00160784
-0.124958
-3.59534e-06
0.00149904
0.000871966
-0.0057571
2.70086e-05
0.652831
-0.154818
2.36176e-06
5.41746
0.123737
0.128529
-0.359852
0.0722823
0.0110803
-0.000413966
2.02079e-06
-0.000592427
-1.19481
4.99015
1.62856e-06
-2.30351e-06
0.000977416
0.0349776
-6.15307e-07
-0.492102
-2.02514e-06
2.50438e-06
1.70884
-0.20872
0.0137543
4.28153e-07
-5.1034e-07
-0.418669
-0.01617
-0.00100886
-2.64324e-05
-1.41619
0.289689
1.10362
0.000629342
0.000297518
-3.39704e-06
1.00371e-06
-0.469684
0.000143829
-0.0963196
0.0077829
0.000125251
6.9345
-0.0263437
-0.0955191
-2.06852e-06
7.06984e-05
1.12607e-06
0.000395335
-1.234e-05
-0.0698336
2.89681e-06
0.0827692
-5.7988e-07
0.000732713
-1.00097e-06
-0.00331202
0.0001088
7.28191e-05
-0.138294
0.00034344
0.00222389
2.76818e-07
0.000823823
0.323702
-0.000246181
8.46034e-07
-0.279821
1.02866e-05
-0.483058
-0.0157364
5.68139e-07
0.0710127
1.86254
-0.0763562
0.0280809
0.000452597
-1.18934e-06
-0.0296474
1.86041e-06
-0.6072
0.0646042
-7.97771e-08
1.14627e-05
0.11298
-0.109678
0.391145
-3.4942e-06
7.62289e-07
1.07247
0.0575937
0.000628353
5.1882e-05
1.19148e-05
-0.0023619
-0.0339994
0.000963006
1.21753e-07
-0.000537659
-4.79736e-07
3.36384e-07
-0.0652217
-2.19327e-06
0.533266
0.0377362
3.13116e-06
-6.68766e-05
-1.32156e-06
-7.23337e-06
-0.157619
-1.02339
-2.31484e-05
0.675322
-1.11306e-06
-3.85377e-05
-5.54337e-07
-2.40856e-07
4.87115e-06
3.22224e-06
-0.0433765
-2.05021e-06
0.000497593
-2.34391e-06
7.93348e-05
-0.0785792
-0.633173
1.03031e-06
0.066835
-0.000871438
-0.0748381
-0.000108635
-0.000153625
-0.197331
8.28154e-06
0.001479
0.139347
-0.408488
-0.429828
-0.000275494
0.0153143
3.2482e-07
0.000304125
0.000663851
0.454689
5.10495e-07
0.280548
1.5998e-06
6.92036e-07
-0.686463
0.000387466
-0.518282
3.55781e-05
8.3889e-07
0.00882797
1.23814e-06
-3.34665e-07
0.000155818
-1.01798e-06
-0.0398755
-5.77925e-07
-0.0129769
-0.213069
-0.00382421
0.335092
6.46613e-07
-3.66996e-07
-0.00380288
-3.05442e-06
8.74335e-07
0.000704308
6.06812e-06
-3.22901e-06
1.02457e-06
-5.07495e-06
-0.168142
-0.246919
-0.000894792
0.0223996
-0.0201203
-9.02197e-07
0.0384322
-2.49501e-05
-1.05455e-06
0.0416977
0.00517562
-0.102095
5.18049e-07
-0.018117
-0.0776818
-1.28967
-3.77069e-07
-0.106273
-4.16441e-05
1.21204e-05
0.00025614
-1.20645e-06
0.106682
0.0682268
0.014736
4.17497e-06
6.30317e-07
0.0776566
-1.58918e-07
0.904702
-0.00461866
-0.204242
-0.693299
-0.00448239
-1.53931e-06
1.14678e-06
0.0030692
-0.000175158
1.4897e-05
0.00347135
-0.000282413
6.54637e-06
2.75795e-05
-0.277694
-2.92222e-06
-0.419884
-0.642214
-0.568817
-0.0045496
8.67145e-07
4.04203e-06
-1.58979e-07
-0.0634448
0.0757169
-4.22715e-07
-6.4452e-08
4.16125e-06
0.00105095
-1.30384e-06
4.02483e-06
2.54028e-07
2.81234e-05
0.158332
0.00201488
-0.000759593
1.83888e-07
0.000205924
0.0680025
6.92809e-06
2.50614
0.22415
0.000450451
1.99822e-06
0.000399825
1.18084e-06
-3.77707e-06
-1.31992e-07
-0.317536
-0.00136792
0.100525
1.42367e-05
0.0353305
1.14938e-06
-4.55733e-06
-5.59608e-07
0.0382868
-0.0403569
-3.25333e-06
-3.77119e-06
0.00839332
0.012021
-1.45335e-08
-0.291971
0.000356125
0.661823
-0.00426099
-0.0125647
-0.000923426
0.000787112
0.361516
-0.0045555
0.0524582
0.681179
-8.03598e-07
-0.00649908
-1.37722e-06
9.79759e-07
2.58951e-05
-4.52772e-06
0.0114646
-1.01931e-05
-8.78241e-06
0.0201428
-0.00589174
0.296708
-8.59195e-07
1.00935e-05
6.75702e-05
3.39143e-06
-0.000807539
0.889795
0.0184689
-0.088662
2.30812e-07
1.45054e-05
-9.33858e-05
-0.259044
0.0687187
0.00279211
4.16527e-06
5.19531e-06
-0.632631
-0.000942697
0.553146
0.131131
0.0668069
1.2647e-06
-0.238527
-0.000472552
0.000127012
-5.03484e-06
0.0745826
-0.0434023
0.00163838
0.940908
2.11881e-06
-0.000334176
1.54651e-06
-0.462404
0.00499561
-0.0225832
0.0167378
2.24265e-05
-0.00198146
-3.35071e-06
0.0453366
-0.0134966
-2.50576e-06
-2.4605
0.0680794
-1.9714
0.146315
-1.40632e-07
1.70533e-06
-0.165488
0.0780346
-0.57837
-2.37159e-07
2.31631e-06
3.73404e-06
-0.132917
-0.00398478
-2.02974e-06
0.0155334
-0.00173332
0.702171
-0.387478
0.00383038
-6.30469e-07
0.0195917
1.18349e-05
3.81798e-06
-0.00204927
0.337537
3.1315e-06
2.27105e-06
-0.742345
0.0439884
-0.000622258
3.56639e-08
0.37867
-1.2678e-06
-0.0411289
2.0225e-07
-0.297719
3.5814e-07
0.000497939
-0.114182
0.0772688
1.51202e-07
12.2721
0.0255142
0.226017
-0.900966
0.872662
0.0948238
-9.35278e-07
0.320505
-1.73049e-07
-8.58144e-07
4.84484e-06
-0.0785466
1.88508e-06
0.115304
2.1429e-06
0.000128277
-0.627935
-0.00226437
0.811828
-5.06152e-06
-0.0112115
3.7811e-07
9.47708e-05
0.391546
0.635958
2.48276e-07
0.00119812
-0.0625903
-2.22741e-06
-1.9287e-06
0.0381564
7.63071e-05
0.000216704
-0.00107609
0.618686
0.120213
0.430319
0.231843
0.122102
0.00354399
0.0881292
-0.13955
0.00117736
7.59831e-07
-0.00138019
-1.32156e-06
5.89474e-07
-0.190432
0.0525158
-2.41818e-05
-0.354748
0.0298758
-0.374489
0.0316847
0.0357255
-2.6007e-06
0.0645778
0.0100028
-0.00013377
9.01914e-07
0.135263
-0.0229405
-0.295536
-0.00534967
0.00118792
0.0818963
0.12786
7.88157e-05
7.70776e-08
-1.48184e-06
0.0285021
1.45349e-06
-0.0182205
-9.97551e-07
-2.01326e-07
-3.16058e-05
0.0356705
-0.00243266
-0.170507
1.11367e-06
-0.118894
1.55568e-05
0.000204274
3.52628e-07
-1.63557e-06
-0.995029
0.000114356
0.0277619
-0.871546
0.0166925
-0.000788589
5.64319e-07
0.000513123
5.23021e-06
-0.00320327
-1.02027e-05
-5.16695e-06
5.10051e-07
9.72992e-08
-0.00153277
2.92685e-06
-0.00016176
-5.64577e-05
-0.00016209
-0.00344034
-0.146752
-2.97484e-06
0.000487933
-6.68098e-06
-0.00977134
0.00280945
0.161872
-0.0123191
8.95231e-05
1.43789e-05
-1.24263e-06
0.104081
-2.12871e-06
0.0860367
4.44645e-09
2.62088e-06
-2.30653e-05
0.0859468
-4.3652e-06
0.000137737
-0.00159135
-4.21923e-06
-0.000151869
0.051469
-0.0950309
0.000119157
4.51536e-07
-0.00173388
7.05169e-07
-3.36707e-06
-0.00411967
0.0886525
-5.1692e-06
0.000299836
-0.103322
-0.023841
8.7513e-07
-4.82603e-07
0.075999
-3.85624e-06
0.0206673
-0.0207167
0.0150548
-4.74487e-07
0.00466257
1.57395e-06
0.0905279
-0.00262725
-0.000514243
-0.000768338
0.196289
8.47281e-06
0.00778017
0.454745
-9.55133e-07
0.0642479
0.000505974
1.08352e-07
-0.849424
-3.02034e-06
9.76997e-07
-1.90811e-06
-0.00583763
0.0361675
-0.00095907
-6.0325e-06
7.41729e-06
5.31923e-05
-0.0950624
-0.0188401
0.000264268
-0.0467597
5.83523e-06
-0.00277114
0.00611957
-0.52707
-0.00222455
0.0333535
1.79577e-06
0.000590387
-8.90449e-07
-0.290246
0.00115055
1.52942e-06
-0.129434
-0.00920314
-0.00013249
0.00441612
-1.49861e-06
-3.85806e-06
-0.00142117
-0.000124551
0.166221
0.00124596
-0.00171833
-0.00249412
0.00371003
0.204889
0.00258677
0.010228
-3.1578e-06
-2.27573e-06
-0.0259196
0.149389
-0.460695
0.316701
-8.68477e-08
-1.26453
-0.0529987
3.5564e-06
2.29729e-05
-7.02892e-08
0.000330536
0.000851032
0.0226172
-0.936743
-0.0143299
3.15324e-06
0.487994
-0.505674
-5.93399e-07
0.207212
-0.0523138
-0.222315
1.17689e-05
0.000159722
-1.11079e-06
6.05343e-07
-3.99727e-06
4.55496e-05
0.0279722
-0.617812
-1.0929
0.543282
1.1131e-05
0.000594246
-0.000682575
-2.18733e-06
7.33122e-07
-2.1785e-07
0.0285655
-5.01819e-08
-0.020405
0.000996856
-0.00274463
0.00358566
-0.0346531
-0.228133
-0.0821571
0.000300073
-1.9431e-06
-4.08879e-05
-0.260315
-0.682258
1.30674e-05
1.2579e-07
1.29149e-07
-0.000794718
-2.7991e-05
-0.00197902
0.123961
9.65715e-06
-1.66062e-06
-0.00222551
-0.0108744
-0.19292
-0.602182
2.38906e-07
0.00145504
-6.40026e-07
0.0124565
-1.24827e-06
0.0983512
-0.000123313
9.69796e-06
-0.000617204
-7.70225e-08
-0.00123207
-7.47164e-06
0.000417685
-1.40768
-0.0148501
7.4503e-06
-6.38809e-05
-2.70026e-06
-0.166292
-1.15617
-2.04302e-07
4.08239e-06
-0.0102367
1.23844e-06
0.0204079
-6.14549e-06
-0.000814471
-0.00210486
-0.622327
0.00130497
-2.02226e-05
2.74784e-06
0.00024756
0.124745
-1.35212e-06
-0.142705
-0.121113
-0.484942
-0.0309724
0.000647068
-0.375927
1.91154e-05
0.0712391
7.96765e-07
-0.0246957
-0.0336663
3.40201
-0.237917
0.100155
0.000670455
0.100861
2.436e-06
-0.25272
0.038418
0.134982
-1.38093
0.000118021
0.248469
0.541001
0.000743136
-1.12422e-05
8.6646e-07
0.0349656
4.69696e-05
0.000241777
-3.78256e-08
-1.78326e-06
-5.92512e-08
4.20309e-06
-0.0267643
-0.0314378
6.34515e-05
-0.624025
-0.585086
0.000275925
1.10142e-06
-2.72281e-06
-0.00137033
0.0883775
-0.0407965
5.61203e-05
5.10029e-06
-0.0860887
-0.00233845
0.000392742
-0.272082
6.73333e-05
0.0379602
5.65778e-05
-0.00050656
1.00604e-06
-3.29874e-07
0.00112687
-0.0397166
-0.00629322
0.0648091
-0.00112926
-0.903799
6.56027e-05
8.67122e-06
-4.62718e-06
-1.06218
-0.0386716
-0.291751
-0.00166628
7.93789e-06
1.08157e-06
1.2284e-07
-1.82762e-07
2.08258e-07
-0.317055
1.80871e-05
-0.771442
0.000404323
0.348683
1.10544
0.132596
0.0298692
2.13359e-05
-0.748489
0.000994973
-0.383711
0.0487898
-5.55462e-07
-0.0235601
-1.00554e-05
2.62519
9.82842
0.000552226
-0.024994
0.143689
4.94167e-07
0.00542309
1.22445e-06
-0.0062046
-0.0440419
7.08751e-06
2.84064e-06
-0.0161844
-0.0493429
0.00151986
-0.0337682
-0.00132832
-0.000848375
2.41369e-07
0.137582
0.0820309
-0.00636835
6.8922e-05
0.0238611
-0.512001
2.64607e-06
-1.9379e-06
7.98488e-06
0.128752
0.0880918
-1.0391e-06
-0.0783662
5.17766e-06
-1.27906e-06
3.85232e-06
0.583224
0.129286
0.0194398
-0.375374
-1.52967e-05
-5.9104e-06
2.3204e-07
9.18267
-9.91461e-07
-0.329478
9.10837e-05
-0.375026
5.15601e-06
-1.6699e-06
0.00202639
-0.26587
0.0145603
0.000139242
0.160862
9.56123e-06
-3.57049e-06
-2.05365e-06
-0.000525617
0.00118852
0.00114508
0.000693739
-0.0630303
1.28469e-05
0.000559626
1.68877
0.471508
2.76237e-06
0.00198146
0.0751543
1.72328e-05
-0.0506257
0.000288819
1.25958
-4.91772e-06
-0.005705
-3.08756e-06
-0.41314
-0.233772
0.121605
0.0632776
-3.50394e-05
0.000208863
-3.52658e-06
-0.0697382
-2.80988e-06
2.29439e-08
0.29395
-0.00488479
0.329405
0.25666
3.92733e-05
-9.90787e-06
-1.82661e-06
-0.113658
-0.000512991
-0.0001217
-0.00324242
8.44064e-05
0.000353506
2.27391e-06
-0.545063
-2.90094e-07
-0.0194019
-0.00136611
-0.000627061
0.0214057
-0.00166377
0.00280578
3.33713e-06
-0.0724671
-0.441592
-8.74383e-09
-5.3183e-07
-4.20762e-06
5.50352e-06
-0.000443344
1.58499e-07
-0.224891
0.000540024
0.00781682
-0.000483396
-1.60387e-06
-4.55763e-06
1.68548e-08
-0.0303576
-3.73107e-06
-2.94658e-06
-0.00164509
1.69874e-05
-0.358524
0.0416759
-0.000539516
0.000109407
-3.89846e-05
-6.68958e-06
4.40561e-06
0.00505008
4.31516e-06
1.75349e-05
-0.81682
0.0892725
-0.0787692
-6.97299e-06
0.859625
0.0412903
5.51254e-06
0.0632714
0.027821
-1.16339e-06
1.31779e-05
-3.37435e-07
0.159788
-0.0931927
0.265428
3.30857e-06
6.14311e-06
7.82961e-05
2.724e-06
0.000347753
-1.75432e-06
-0.0336542
-1.07406
0.00774728
-3.25071e-07
1.58339e-05
1.25251e-05
-0.0730915
-2.20937e-06
-0.321358
-0.964652
0.145507
-0.440247
-0.423957
0.276061
5.23055e-06
0.0521476
-0.130666
8.95121e-06
-1.8122e-06
-9.75454e-07
0.0695451
-0.0426659
0.543118
-2.53109e-06
0.0378017
-3.69648e-06
-0.00209974
-4.65076e-06
-1.49133e-06
7.72996e-06
-1.37727e-07
-0.0239772
8.33085e-06
0.156412
-0.622739
-0.371315
-0.000917866
0.000281383
-0.157244
0.121705
1.00027e-06
8.21389
-1.10827e-06
1.75251e-06
9.02023e-07
-0.0149072
4.28942e-07
-1.42124
-0.000388565
0.144051
0.00107056
-0.948491
-0.965447
0.280282
2.8931e-07
-0.00133385
-0.00390311
-0.0559427
2.2737e-06
-9.13952e-08
-2.05697e-06
-0.190705
-2.80378e-06
-0.00155295
-1.52416
0.000295699
-0.000934353
2.7791e-06
0.0990297
6.20425e-07
0.0873884
2.85325e-07
2.62051
8.05652e-05
-3.20948e-06
-1.49122
-0.501115
-1.06157e-06
-7.56172e-05
2.27736e-05
1.41573
0.0165804
-0.0763334
0.128868
-3.88961e-06
-0.000721545
-0.332094
-7.75221e-05
-0.0252556
9.89058e-05
0.000355878
8.5458e-05
-0.917094
-0.263447
-3.72307e-06
0.00455219
4.66984e-07
-1.4991e-05
0.0727267
-1.41189
0.00102173
-0.014915
0.111021
2.97378e-06
-0.00342011
-0.00173697
6.01067e-05
9.51193e-06
0.129492
-1.49439e-06
-4.52107
0.0682537
0.000727367
-7.87348e-07
-0.000768745
-0.017448
0.000128973
0.837327
3.2121e-06
4.83386e-06
0.598472
0.092283
2.32228e-05
0.134923
0.0565978
-1.41573
9.89552e-07
0.117444
0.260384
-0.118259
-7.90608e-07
-0.000336293
-3.70174e-07
0.125161
0.00619576
0.0552053
0.220301
-6.19987e-06
-1.05397e-06
-1.07969e-06
-0.101438
0.593452
1.07414
-0.72197
3.85986e-07
-0.957318
0.0336711
-0.00177451
0.171812
0.004793
0.000404707
-3.74983
1.23419e-05
2.07339e-05
0.215096
0.0483424
0.00037085
-0.15255
-4.71857e-07
-2.19707e-06
0.604893
-0.214691
0.0196204
-0.237051
0.000206653
-4.42521e-06
-1.78091e-07
-0.0476461
-0.454848
-6.00786e-07
0.000244778
-0.0207628
-1.74199e-06
-1.33035e-08
-0.0304328
-0.0365763
-3.51113e-06
1.99198e-07
8.59184e-06
-6.14402e-06
-0.0382592
5.03136e-06
-2.77507e-06
6.7899e-05
-1.90462
-0.157508
-0.0252271
0.434701
-4.03712e-06
8.50176e-06
0.0141349
0.0661395
0.000121795
0.838434
-6.21045e-07
-6.66338e-05
-1.803e-05
0.000114269
-0.00268114
-3.0384e-06
0.0214687
0.00061258
-9.2918e-07
-3.36736e-07
0.195625
-0.316362
-0.0920909
-1.74139e-06
5.81396e-06
0.0476676
-0.0119221
1.48189e-05
2.47222e-06
1.12707e-06
0.00103059
1.02009e-06
4.5797e-07
-4.09585e-06
3.36456e-07
0.0414201
0.128324
-6.43931e-06
1.18379e-05
3.87997e-06
-2.58224e-07
0.964398
-0.28557
0.00108865
-0.0772217
-0.00323186
-3.42242e-06
-1.36412e-07
-3.85216e-06
1.82917e-07
-3.96436e-06
2.43184e-06
-0.00634834
0.0663506
3.41796e-05
0.00169244
-0.121393
0.0852371
-1.71689e-06
-1.70717e-08
1.45644e-05
0.377699
-1.45393e-07
0.829662
0.00409784
-0.00292189
-0.000467519
-0.413989
-3.5098e-06
0.0258194
-1.67768e-07
-3.60832e-06
-3.56151e-06
1.1915e-06
0.000443448
-0.0458653
0.0204365
-0.000413912
-0.103686
-0.697779
0.0182823
6.20787e-05
-0.157533
-0.305398
0.00125
0.202606
-0.0324644
-0.000802069
0.129138
4.44951e-06
-6.43328e-06
0.297018
-1.87658e-07
1.08585e-05
0.979787
-0.0667809
-1.38162
-0.0327998
-1.82553e-06
0.00290033
5.66267e-07
-0.039499
-3.66708e-06
-0.115782
0.147088
0.0552539
0.88965
3.72207e-06
-1.724e-06
0.000944621
-0.543968
0.0584798
0.00144469
0.188317
-1.00667e-06
0.563505
0.035878
0.246285
-3.41984e-05
3.3304e-06
-1.13524e-06
-2.80357e-05
-1.21731e-06
3.8137e-06
9.04295e-06
0.0278278
0.0013214
0.0159188
-0.0730682
0.547823
-4.95777e-05
9.18339e-07
-7.01515e-07
1.55906e-05
-1.23966e-07
4.15252e-06
-0.38065
0.146855
-0.0496224
0.0555954
1.36764e-05
-0.623624
0.00665064
0.127622
0.0548135
-1.06994e-06
3.76861e-06
-0.0401128
5.16991e-06
-1.02829e-06
-0.153153
0.0511302
0.35307
-7.65172e-08
-2.93682e-06
2.78574e-06
-0.000298357
0.236917
-1.61192e-06
3.929e-05
-0.0429754
-2.87166e-06
-0.0158673
-0.000281333
0.65606
-2.88988e-06
-0.011299
-0.664504
0.000732929
-0.0552492
0.000536968
0.0349183
-1.28285e-06
4.1309e-05
2.13547e-06
0.00010874
1.43213
-4.07862e-06
-1.00335
1.4132e-05
9.57012e-08
3.90236e-07
0.0972711
0.000427734
0.000923216
-0.168138
7.79904e-08
0.00123215
-0.709292
-0.00154885
-2.18138e-05
6.12463e-07
3.73433e-06
0.00191388
2.85441e-06
1.41245e-06
0.0523752
-0.00911236
0.134167
-0.0633198
-0.388793
-1.01368
2.44506e-06
0.024751
0.00171552
-2.04139e-06
-1.91892e-06
1.33871e-06
1.66344e-06
-0.0444341
-0.00627404
-7.26836e-06
-0.736154
0.0764275
5.80224e-05
3.3281e-05
3.59734e-06
0.575174
-0.0208406
0.046356
-1.02903
0.0633698
1.15395e-06
-0.0439168
0.00185432
0.0030504
0.215032
-7.40395e-07
-0.00198406
-1.46542
0.000513219
-0.696971
5.15587e-07
-0.140754
-1.28462
0.0941485
-0.000122272
6.21506e-06
-0.390671
-0.00221583
0.0778048
0.132338
0.0294662
-0.000695651
0.146703
-2.38764e-06
-9.2742e-05
0.000431065
-0.0608427
-0.00613979
0.0316928
9.64408e-07
0.00218958
-0.00662904
4.89289e-07
-0.033725
-1.12119e-06
-0.00176321
-0.123379
-1.10684e-06
0.133501
0.407092
0.107972
0.206154
0.667144
-0.308445
-4.61668e-07
-0.0392344
2.88622e-05
9.81607e-06
0.000193769
5.67692e-06
0.0720938
1.1203e-05
-1.67935e-07
8.67299e-06
2.81639e-06
0.166421
-3.95056e-06
-0.00076785
0.00591078
-5.83272e-07
0.0248828
0.00195891
5.0513e-05
-0.888625
-0.00383126
-7.68398e-07
1.26761
-4.42085e-06
0.088181
-0.0175056
1.56732e-06
-0.00203168
-3.37735e-06
-0.0265577
0.0686659
0.00128925
0.927346
0.000206747
1.30348e-06
0.788236
1.67116e-05
-1.54913e-06
0.254333
0.000129074
-8.89982e-07
-1.557e-06
0.00668477
-4.56926e-06
-0.196501
-0.0410681
-0.0732361
0.137713
0.00026733
-0.00121414
3.43238e-07
-0.0157926
-0.162768
-0.0534712
-6.2006e-07
-2.19394e-06
0.00152418
0.000235921
-0.0476837
-8.63806e-07
-0.0110766
3.16502e-06
-1.42115
6.9662e-07
-0.121901
-0.014293
-0.000710835
0.0349921
-0.343921
0.022026
0.0562819
1.59306e-06
0.113945
0.16465
-0.0794123
3.75634e-07
0.0590094
-0.17337
-0.0390774
-0.00110522
-0.582234
0.387811
-0.002859
0.000130193
-0.000102446
3.03831e-08
0.000603084
0.000189978
-3.57858e-07
0.000432685
0.458537
0.0120463
-0.300406
0.595355
-6.4106e-07
1.89838e-06
0.00122027
-7.04375e-07
0.621591
-2.45978e-06
-1.7012e-06
-0.00117997
-0.0297674
-0.000439062
0.0020173
6.11694e-07
-0.00552677
-0.621176
0.0752208
-0.745105
2.23535e-05
0.0728865
-5.41999e-05
5.19098e-07
1.2761e-05
-0.0324203
-0.0254343
-0.0731155
-0.0290012
2.44548e-06
-2.83438e-06
-4.10411e-07
5.4276e-06
2.00525e-05
0.820919
0.301312
-6.62428e-07
-0.0340696
-0.241011
-0.0756346
2.72581
-2.36388e-06
-5.69083e-05
-0.459594
-1.69509e-06
0.0115115
-5.97597e-06
1.00682e-05
0.30519
0.0741604
-2.19972e-06
0.000136211
-4.27195e-05
-0.00265166
-0.205097
0.0933223
0.00986331
-2.26184e-06
-0.000519045
0.0645752
-0.000149606
-0.00180263
-0.0114692
0.300321
0.0297459
0.0311564
-1.96103e-06
0.109206
3.06314e-07
4.12225e-05
1.40347e-06
-0.000498768
0.00860767
-0.275436
0.0721448
0.902186
-0.000656635
8.19413e-08
1.25128e-07
-1.65581e-06
-2.71266e-07
0.000316509
0.0110469
0.0575798
-0.000177643
-0.136463
1.00615e-07
-0.0010574
-6.04049e-07
0.0973111
0.063349
-1.26582e-06
0.00733567
0.00149406
-2.71454
0.0125261
0.00605376
0.0357821
2.88929e-05
-0.26766
-0.0129725
0.0855723
0.0101175
-4.25737e-05
-0.00127658
-2.9641e-06
0.0490102
-0.643416
-0.000406901
-0.245341
-0.00217169
-0.23746
-0.00124643
-0.00781446
0.00148443
-2.26628e-07
-0.00207463
-0.0024006
9.44008e-06
-0.0016044
-8.72167e-05
-1.33898e-05
-0.593668
-0.00148759
-1.32379e-05
0.000152497
-9.7128e-05
0.00050439
6.36242e-05
0.0776141
0.00146203
0.168062
5.63153
-6.32756e-07
0.0630968
8.01118e-07
3.1706e-05
-2.00593e-06
0.0664701
0.000709958
0.054314
1.58171
-0.00127184
-0.00608842
-0.000770079
-0.367468
-0.00259718
0.849064
3.19245e-06
0.000229043
-1.33487e-06
0.0568397
0.0399474
1.8348e-06
-7.20625e-07
0.000824865
1.59406e-05
2.03545e-05
0.000329312
0.000182769
-5.05435e-06
0.000875067
1.22498
1.17679
-0.0847729
0.000255799
-1.23234e-07
-0.152165
7.1765e-05
0.00037516
-0.176689
0.000162871
-2.40669
-1.52079e-06
5.71052e-06
7.51802e-05
0.000741794
-2.17936e-06
0.0480794
0.0824879
0.160913
0.00124838
-0.0301819
-0.0243623
1.98339e-05
-0.296325
0.000478648
-0.0251832
4.75298
0.00054572
6.78502e-06
0.000183587
-0.000749934
-0.000213262
-0.032527
0.0166759
0.0798322
-1.39458e-07
-0.0378337
0.0519634
-0.471323
1.19958e-06
0.000322305
-2.59985e-06
0.000122221
0.200048
5.52015e-05
-2.41447e-05
-9.63127e-07
-1.06911e-07
-0.0670677
-0.0596756
3.5679e-06
0.0203219
-0.0245146
1.13002e-07
-0.00189336
0.0527178
0.00316713
0.00117996
-1.49037e-06
-8.00285e-06
-0.0111559
-1.84811e-06
-2.33266e-06
0.923795
-4.73306e-05
0.0515545
-7.44183e-05
5.21777e-06
0.023806
0.00116933
0.00204079
2.80303e-08
-0.123637
7.1799e-05
-3.68173e-06
0.274315
0.000240462
-8.88621e-07
-0.00397367
1.07657e-05
-0.000230424
-1.49573e-06
-0.492961
1.88168e-06
0.0104534
0.22006
0.00168372
3.35197e-06
0.0656585
4.43064e-05
-0.0239922
-0.0132555
0.00561719
0.00352223
0.0917571
2.65717e-07
0.00149699
2.13537e-05
-1.06084e-06
-0.0881086
1.29581
1.96462e-05
-0.0377105
-0.00134039
0.00155501
0.0140454
1.79441e-05
-0.113418
0.208373
-0.141702
-0.298022
-1.40561
0.020054
-1.91778e-06
0.0131949
0.00103588
-0.445325
-1.45986
0.10511
0.145675
0.11459
-8.35885e-08
-0.311999
-6.38117e-07
1.00176e-05
-3.31303e-06
0.161079
-0.0167197
-0.0329662
3.8084e-07
-3.24907
-1.36182e-05
-0.0674918
5.968e-06
-0.00321585
5.59824e-05
-0.000100702
-0.000571439
0.000882568
4.70554e-06
0.0436963
-0.0233337
1.46829e-07
1.55832
-0.031599
-0.00315989
-6.38728e-07
-6.27577e-05
-1.18552e-08
-2.87778e-06
0.000232274
0.0179675
0.131211
-0.0133089
0.000785551
0.0454412
-5.25484e-05
-0.371848
0.000599766
0.418958
0.000377244
0.000466719
-0.124079
0.000521273
0.243788
-0.71513
-0.0797489
-2.98211e-05
-1.13338e-06
0.0504668
3.68144e-05
3.87668e-06
0.000596182