/*--------------------------------*- C++ -*----------------------------------*\
| =========                 |                                                 |
| \\      /  F ield         | OpenFOAM: The Open Source CFD Toolbox           |
|  \\    /   O peration     | Version:  v2012                                 |
|   \\  /    A nd           | Website:  www.openfoam.com                      |
|    \\/     M anipulation  |                                                 |
\*---------------------------------------------------------------------------*/
FoamFile
{
    version     2.0;
    format      ascii;
    class       volScalarField;
    location    "100";
    object      ddt0(k);
}
// * * * * * * * * * * * * * * * * * * * * * * * * * * * * * * * * * * * * * //

dimensions      [0 2 -3 0 0 0 0];


internalField   nonuniform List<scalar> 
13851
(
9.138e-07
-0.017208
-2.9571e-06
5.89411e-07
-2.26094e-07
0.00460345
4.34656e-08
-9.61279e-07
2.56415e-08
-6.83043e-06
0.000687981
0.00644093
-0.00694188
-0.0119421
-1.07722e-08
5.556e-07
1.18841e-07
-2.07724e-06
-0.00143727
1.36015e-08
4.66304e-07
-2.77583e-06
-6.73836e-08
8.18279e-09
-9.06385e-08
-1.1032e-06
-3.11025e-08
-4.78924e-05
8.11545e-07
-3.73121e-07
0.00682439
9.69302e-08
-3.02707e-06
0.000820086
8.29547e-09
-9.6285e-08
0.000178255
3.67371e-05
-8.46799e-06
0.00368014
-3.29514e-08
1.87641e-08
0.00196219
-2.63095e-05
0.00104344
0.0035357
-0.00171785
0.003779
-3.76943e-08
0.000233997
1.83116e-06
3.15592e-06
-0.00413101
-1.84148e-08
-1.55172e-08
2.77823e-08
7.94904e-09
0.00964783
-4.55876e-07
2.48765e-08
1.52308e-05
0.0147667
-4.66324e-06
8.96262e-07
0.00434057
2.0733e-06
0.000279689
-0.00320512
-5.25234e-08
-1.92156e-06
0.000456208
0.00330904
-0.0235328
-1.87513e-08
7.43416e-09
1.7474e-08
-2.4291e-06
0.000301363
-2.43797e-07
0.000357197
4.45987e-09
0.000979094
-6.81892e-09
-0.00205334
-8.22276e-06
0.00303111
0.000466201
0.0168991
3.80282e-09
-8.4577e-08
3.64839e-07
3.0653e-05
-0.00247924
-5.1642e-08
-1.24357e-09
-6.49959e-09
3.11614e-08
-0.00245888
0.000256778
-7.41579e-09
-0.0158205
3.31058e-07
9.37804e-08
-2.91635e-08
-1.1333e-07
0.000233949
5.50749e-07
1.58418e-08
0.00574899
0.00556289
-1.8942e-08
-1.03568e-07
9.38018e-06
2.31121e-09
-1.51004e-08
-0.0103909
-0.00332813
1.47532e-08
6.37692e-09
1.54745e-08
0.00360656
-3.11116e-08
-0.00712846
-0.00540032
0.0029316
-7.09368e-07
0.00173587
-7.01335e-08
2.8546e-07
1.82411e-06
-3.11135e-08
6.0015e-09
0.000585177
-1.39821e-08
-0.00942353
2.56805e-09
1.38108e-08
0.00254499
0.00788716
0.0172992
-0.0158595
5.20376e-09
-2.13526e-07
-3.88779e-08
9.21945e-08
-0.000197905
4.16031e-05
1.85226e-06
3.83996e-08
0.00151562
-3.31305e-07
-1.63558e-09
-0.00829129
7.54038e-09
1.77607e-08
9.26247e-08
-3.15725e-08
-1.50314e-07
3.14687e-06
1.781e-06
-1.07504e-07
-7.17554e-08
0.00620724
5.45722e-10
1.12904e-06
-4.10099e-08
6.00828e-05
-5.08932e-08
2.13478e-07
0.00264735
0.000310173
-4.86203e-09
-3.88538e-08
0.0162206
1.03422e-10
0.00463286
-6.75813e-08
-2.92125e-07
-0.00138614
2.11681e-08
1.34913e-07
0.00357932
-1.44759e-08
-2.58986e-06
5.27581e-09
-1.2829e-08
2.09955e-06
1.87145e-08
-1.31705e-07
-1.39826e-05
-0.00258503
-0.00288624
-7.08088e-08
-1.13467e-07
0.0179455
1.99815e-08
2.15998e-07
-0.00081752
-8.25465e-08
3.15361e-09
-1.47936e-07
0.00669073
3.90964e-09
1.83155e-08
-4.58931e-06
-2.01457e-08
-0.00247757
7.64195e-08
0.000263508
-1.47487e-08
-0.000982988
1.07594e-07
-0.00409187
-7.19122e-10
-3.39684e-08
0.00119265
-4.26908e-06
0.00318172
-1.02841e-08
0.000170677
7.55344e-08
3.84847e-09
-0.0045204
2.7387e-06
0.000947181
-4.44684e-08
-9.59302e-08
-1.29519e-07
-0.00160493
-8.98827e-09
-9.62182e-07
0.0182209
-2.36531e-09
-4.93066e-09
1.25268e-06
1.69086e-06
-0.00218469
-0.00211118
-4.46205e-08
2.18487e-08
0.00490103
-0.00109472
2.37693e-07
-6.04271e-06
-5.43811e-08
0.000382307
1.71943e-07
0.00260853
1.01976e-07
3.00102e-07
1.01438e-05
-7.39444e-05
-3.05014e-08
1.01234e-07
4.51156e-07
-0.013303
-2.13713e-05
0.00268591
0.000994594
-9.95543e-10
-4.70735e-08
-1.5251e-06
-0.00435524
4.53432e-08
-0.00449742
2.11047e-08
-3.51263e-08
-4.59984e-08
-0.00511126
3.85451e-05
8.6519e-06
2.11992e-08
-0.000576767
-2.02348e-07
6.4886e-07
7.96487e-09
0.000308984
0.000558358
0.00303502
0.000716287
2.27573e-07
-3.84162e-08
-1.26925e-07
3.73183e-07
-0.00201226
0.00427508
-1.62237e-09
2.97532e-09
0.000434578
0.00147059
2.80076e-06
-3.11384e-07
1.64212e-08
-8.9618e-08
0.00181494
-0.00496744
9.17483e-07
0.00304487
1.22705e-08
0.000309928
-7.55907e-08
1.34148e-07
0.00266341
2.11559e-08
0.000367706
-0.00214637
-1.99695e-09
1.86359e-07
-6.04586e-08
-2.95586e-07
0.011067
9.81422e-07
-3.28446e-08
-0.00435784
-7.68871e-09
3.04315e-07
-3.02085e-06
0.00369492
-9.52333e-07
-1.02482e-08
4.03993e-07
-9.20318e-09
0.00132698
1.82743e-05
-5.74009e-08
-3.34349e-09
-7.14448e-07
-8.36304e-08
4.32284e-09
4.90308e-09
2.37937e-08
-2.45185e-08
0.000620522
-0.00409438
0.00207167
-2.2975e-06
0.00327883
0.00407861
-1.00415e-08
-1.35928e-07
3.28789e-06
-9.4358e-06
1.01389e-05
3.04948e-06
-0.00139069
3.36263e-06
0.000127967
-0.00107323
-1.05083e-08
-0.000968661
-0.00109275
0.00296189
9.82241e-10
1.36266e-05
0.000174559
-4.49985e-08
0.00497134
-2.47863e-09
-1.00083e-08
-5.26588e-08
1.35833e-08
-2.43533e-08
-0.0013821
-0.00207288
4.81533e-08
1.30244e-07
-3.24839e-08
-0.00115903
1.40471e-06
0.000907201
0.00286636
5.13133e-08
-3.44774e-06
-4.20682e-08
0.00485569
1.29976e-09
1.48e-08
-5.21088e-06
-0.0167868
1.51387e-08
0.0143233
4.29644e-05
2.78637e-06
-0.000453686
-0.00058922
-0.00110936
-1.01255e-06
1.02899e-08
-1.64509e-08
-1.89959e-06
4.70496e-07
-0.0130028
-3.456e-08
0.00107651
-0.001836
-3.87718e-08
1.74901e-09
0.00167134
0.000547873
0.0120723
-0.00371058
-4.56811e-05
-4.32004e-08
-3.0925e-08
0.00434908
-4.3144e-10
5.18731e-07
-2.28551e-06
1.47549e-08
-1.34624e-07
9.10106e-09
-4.11139e-08
1.07127e-06
1.25637e-05
0.00137587
-1.8575e-06
5.8091e-07
1.07084e-05
0.00112735
4.26578e-07
0.00285907
1.25072e-07
0.00127384
1.43588e-08
1.36305e-08
-2.39424e-08
0.000552444
0.0031848
2.72661e-06
1.20648e-06
0.00171809
0.000137453
0.000256792
-1.19624e-08
1.20425e-06
7.74637e-09
0.00151204
-5.10532e-08
0.00677991
0.000106011
-2.81945e-06
0.000178865
-2.70395e-07
0.000245135
0.00028593
-0.0117411
3.93462e-09
-1.04607e-07
-2.10883e-07
0.000302448
-5.33465e-09
-1.77352e-08
-2.37503e-07
3.19622e-06
-3.02441e-06
-0.00731646
-4.46724e-08
1.31912e-08
-0.00397778
1.32262e-06
-3.1196e-08
0.0208649
1.17569e-08
8.60655e-07
1.9333e-08
4.4547e-06
-1.6564e-07
-2.20564e-08
-1.02819e-07
-0.00490848
-1.04932e-08
-6.79346e-09
2.98244e-09
-7.48889e-07
0.000989233
-2.11953e-09
4.95438e-08
8.8489e-10
9.61708e-10
0.00315223
-3.88684e-08
0.00146192
-1.5335e-08
-2.98352e-08
-0.00859513
0.000265839
-2.47839e-08
3.19998e-06
4.43357e-07
-0.00257928
0.000593672
1.5027e-08
-0.000506475
-1.55243e-08
-1.03453e-06
4.71699e-09
-0.00168084
1.97453e-08
-0.00489397
1.58368e-05
7.71258e-09
-1.03726e-06
0.000320903
-1.11637e-06
-0.00205608
2.57925e-09
-0.00496252
-4.58606e-09
-5.88015e-09
7.94504e-09
3.15776e-08
0.000577443
1.33789e-06
1.12893e-06
2.33301e-05
-6.3663e-06
-1.22131e-07
-0.0041453
0.00320404
1.20751e-07
-7.90457e-08
-0.00397807
-0.0056961
-0.00102726
-1.6645e-08
-0.000416078
0.00136227
0.0056942
1.36326e-06
-2.37857e-05
0.00366584
0.000344145
-0.0117784
-0.0012943
0.0103487
-1.99833e-07
0.00994188
0.00136585
1.47561e-08
0.000419308
1.38012e-06
0.000363257
1.09712e-07
1.5528e-08
-2.64093e-08
-3.2426e-08
1.44217e-07
3.125e-06
0.0146369
-0.00416864
9.91908e-10
-0.00228429
-0.000137265
0.000410325
0.0019404
-1.11285e-08
-2.04052e-08
2.17025e-08
-0.000890493
-0.00412135
1.62102e-08
-4.04439e-08
8.52916e-07
3.33941e-08
6.53511e-05
-0.00501289
-0.000745434
2.9255e-06
0.000601915
0.00181224
-1.89663e-08
1.8409e-08
0.0108597
-0.00174293
-1.06912e-06
-1.54897e-08
-6.45814e-06
2.56417e-08
-1.50742e-08
0.00867564
3.73801e-08
1.0892e-07
1.61151e-08
2.83125e-09
0.0011141
5.27581e-07
5.38532e-06
3.21361e-08
0.0177355
-0.00459143
1.48397e-08
-1.28448e-08
4.98627e-08
-2.17477e-08
-0.0133301
0.00102241
-0.000672727
0.00439962
-0.0032898
-4.0931e-08
0.000412964
0.000331728
4.15727e-06
-7.08771e-08
-1.99725e-08
-2.5597e-06
5.61098e-08
-0.00555826
-0.00052103
5.27923e-09
-7.09038e-09
2.1922e-08
1.15054e-06
4.28908e-07
-0.0032688
1.70462e-06
-1.33107e-08
-2.74088e-06
-1.14173e-09
-5.59195e-08
2.52737e-06
1.99177e-08
1.62257e-08
6.42721e-07
-5.4652e-08
-4.75188e-07
0.000430032
2.75235e-06
1.1991e-06
-1.50945e-06
2.2749e-08
0.00193675
1.43311e-05
0.00273448
7.91833e-08
-1.27241e-08
0.00527727
-5.06295e-07
-0.000536169
-0.000585568
0.00186498
0.0158206
4.69417e-09
0.00449261
4.29146e-07
4.37617e-09
1.98943e-08
2.63379e-09
2.12391e-06
-2.06088e-06
4.8595e-06
3.01455e-08
0.00309086
-1.00352e-05
0.00282393
1.43426e-08
2.32417e-08
-8.29671e-09
2.68911e-06
0.019553
2.95099e-07
-5.76269e-08
5.59655e-07
-2.75172e-08
-5.3115e-09
-2.76477e-08
-1.63972e-05
0.00155631
-5.63715e-08
2.69108e-08
3.45383e-08
-3.06607e-08
0.000712509
0.000917336
7.96905e-07
-0.00092529
-0.00552151
1.90957e-08
1.71806e-06
-0.0130801
-4.11734e-08
0.0069513
-3.09366e-09
-1.68096e-06
2.96566e-07
-1.62154e-06
-0.00423077
-2.20541e-08
0.00129405
-7.95654e-08
-5.24988e-08
5.95163e-05
1.97312e-08
-2.31342e-07
-2.74476e-05
-8.07566e-09
1.32145e-07
-0.00155805
-0.0050485
1.39311e-06
-0.00418037
0.000545442
4.48788e-09
1.99949e-08
-0.00817345
3.73954e-07
4.98984e-06
-0.00077933
-3.25542e-08
2.10291e-08
1.51425e-08
-0.00170967
-5.44695e-05
4.492e-07
5.57254e-08
0.00120298
-5.35768e-09
6.40072e-10
-0.00706826
-0.0143432
-0.00121581
1.24083e-09
-4.93998e-08
0.000364258
-0.00166191
-1.44407e-06
2.97491e-07
0.00219403
-1.68314e-08
0.00147301
6.37948e-07
-3.24305e-06
2.4187e-07
0.00236189
1.27394e-06
1.08613e-06
-7.59689e-05
-1.22415e-08
7.23247e-09
-1.86673e-07
2.32523e-08
-0.00620345
8.96131e-08
3.31117e-06
3.53406e-06
0.000837439
1.78995e-08
-0.00426176
-2.98282e-09
5.1881e-07
2.34424e-08
2.63908e-08
1.71853e-09
-0.00206154
-3.08385e-08
3.39009e-10
0.0021717
2.32764e-08
0.000267988
-1.2001e-07
4.78661e-07
1.09155e-06
0.000382447
-0.00501462
6.6408e-09
0.00150914
-0.00157173
-3.37206e-08
-0.00315874
-5.3523e-08
2.0892e-08
0.000176342
-0.00217976
0.0109939
3.76203e-07
-2.85415e-10
2.0464e-08
0.00135836
-3.70684e-06
4.58507e-06
8.02721e-07
0.000168862
-2.11435e-08
4.22041e-07
-4.40915e-07
-5.74029e-05
-3.44144e-07
-0.00268903
-4.7528e-08
-9.30336e-07
2.20801e-06
0.00432106
2.86707e-07
-0.000571266
-1.2558e-05
3.02211e-08
-0.00453765
0.00032074
0.00423228
-0.012828
-0.00351572
0.000246893
-2.9773e-07
2.21751e-08
-1.51252e-06
0.011569
-0.00446956
2.15204e-08
-3.84466e-08
1.40281e-06
0.0011944
-1.72215e-08
-0.0026775
-3.46437e-08
3.40822e-08
-0.00562678
0.000346935
0.000577353
5.34921e-09
-6.57239e-09
-0.00175957
-1.0536e-05
-3.73191e-08
1.07925e-06
0.00225712
-0.00101596
0.0132617
4.16406e-07
1.16171e-07
-2.53772e-08
1.20461e-08
-0.0207488
6.83707e-08
0.000526323
2.03494e-05
-3.06457e-08
-0.0071686
0.00386419
3.9727e-05
-2.65753e-08
-5.76012e-08
1.42847e-08
1.1194e-06
-1.73236e-07
0.00767148
-1.43564e-08
0.000828941
-1.45951e-08
1.069e-06
-1.33843e-08
1.6478e-07
-3.80637e-08
-4.95108e-08
-0.00171911
1.80972e-07
5.05153e-06
5.28271e-09
1.27221e-06
0.00490333
-6.57741e-06
9.99618e-08
0.000298826
5.19363e-09
-0.0201011
-0.000643991
1.28652e-08
-0.000563174
-0.0170847
0.000178039
0.00125955
6.94296e-06
-9.22286e-09
-0.00107059
-1.70468e-08
-0.00968622
0.00033926
-2.97021e-09
-1.84075e-08
0.000403894
-0.00405923
0.0031661
-5.06853e-08
1.25787e-08
0.00448034
0.000164502
3.44499e-06
3.51008e-07
8.38816e-07
0.000186222
-0.00401147
2.41534e-06
-2.41286e-09
-4.66357e-07
-6.01905e-09
-2.94214e-09
-0.00145998
-2.29559e-08
0.0101669
0.00123371
4.36856e-08
-4.17508e-07
-3.27138e-09
-1.5938e-07
0.000576122
0.00160877
-8.84596e-08
6.70197e-05
-1.76141e-08
-8.19977e-08
7.5251e-10
-3.63999e-09
5.61708e-08
4.40832e-08
0.000489257
-2.61071e-08
3.85604e-07
-3.093e-08
4.12064e-07
-0.00224445
-0.000566177
7.25216e-09
0.00899366
2.34162e-06
6.35274e-05
-1.66387e-08
-1.58041e-07
0.000472591
-6.35645e-08
4.01232e-07
0.00674629
-0.00848272
-0.00432603
-5.82072e-07
0.00107879
7.131e-08
1.25528e-07
3.0677e-07
0.00251213
4.38672e-09
0.0112783
2.3173e-08
7.09389e-09
-0.0162467
1.67395e-06
-0.00500947
2.60128e-07
1.25927e-08
1.03396e-05
1.52801e-08
-4.70483e-09
7.62412e-07
-9.01922e-09
-1.16948e-05
-1.10566e-08
-8.13571e-06
-0.0048477
-2.28687e-06
0.00336052
6.02782e-09
-7.32753e-09
-4.45123e-06
-3.95798e-08
1.02321e-08
1.63726e-06
2.90556e-08
-5.04021e-08
7.82081e-08
-7.54203e-08
0.000134737
-0.00114937
-3.47262e-06
-0.00369696
-4.51598e-05
-1.31848e-08
0.00205503
-3.45069e-09
-1.71855e-08
0.00149576
7.66993e-06
-0.00254759
8.96553e-09
-0.000700875
-0.00281456
0.00397259
-3.45777e-09
-0.00711932
1.17246e-07
-1.07194e-08
1.15285e-06
-1.80442e-08
0.00770041
0.000157713
0.00188163
3.57313e-08
6.94673e-09
0.0013568
-2.38114e-09
0.00118562
2.82134e-05
-0.0151004
-0.000827697
0.000269061
-2.40009e-08
1.44719e-08
-8.81678e-07
-2.8719e-06
-3.89539e-08
-1.25062e-06
-6.41526e-07
1.93354e-08
7.3763e-07
-0.00911579
-4.04828e-08
0.00054473
-0.000862527
-0.00899268
1.02831e-06
8.38875e-09
3.82087e-08
1.6301e-08
-0.00436797
0.00244938
-4.87604e-09
-4.25688e-09
3.97102e-08
2.11265e-06
-1.18472e-08
4.74342e-08
1.86871e-10
-1.30605e-07
-5.9125e-05
2.97586e-06
-2.79813e-06
8.82814e-10
6.62746e-08
-0.00296501
1.96827e-09
-0.00762543
0.00727881
1.24103e-06
3.49179e-08
2.12104e-07
1.5181e-08
-6.1571e-08
-4.30754e-09
0.0003338
-5.56797e-07
0.00351374
-3.83669e-08
0.00141408
1.27466e-08
-8.99783e-08
8.16192e-09
0.00094693
-0.000785479
-9.89982e-08
-1.52043e-07
1.18999e-05
0.00051085
-1.10078e-09
-0.0202547
2.59013e-06
0.00505856
-4.04238e-06
-0.00374559
-5.3744e-07
1.71349e-06
0.000573009
-0.000203883
0.00236435
0.00812841
-1.27804e-08
-1.73871e-05
-1.86703e-08
1.12967e-07
-6.81936e-08
-5.37537e-08
-4.44932e-06
1.38112e-07
-3.56009e-08
0.000651797
1.94229e-06
0.00400073
-1.10311e-08
-1.79688e-08
6.35074e-07
3.84623e-08
-1.9255e-06
0.00438723
0.00091622
0.0161193
3.07669e-09
-6.29074e-08
7.14062e-07
-0.00338416
-0.00443683
-1.31102e-06
3.03167e-08
4.2912e-08
-0.000229461
-9.94775e-07
0.0106309
0.000232729
0.000356432
2.43645e-08
0.000146367
-1.64434e-06
-3.42425e-07
-5.78166e-08
-0.00211649
-0.00291732
2.47194e-06
0.00457702
9.34112e-08
-4.17043e-06
2.01594e-08
-0.00345367
7.18029e-06
3.01023e-05
0.00139631
-6.62393e-08
5.72273e-07
3.33887e-08
-0.00210568
-9.82747e-06
-4.87922e-08
-0.0181827
-6.70001e-05
-0.0154458
0.00420111
-9.32923e-09
2.31643e-08
0.000493815
-0.00180337
-0.0031088
-1.0389e-08
2.85964e-08
5.16505e-08
0.000153158
-2.71687e-06
-1.87369e-08
9.77961e-05
-3.68871e-06
-0.00380255
-7.24869e-05
0.0017711
-4.82149e-09
0.00196831
-1.66407e-08
5.04458e-08
1.31557e-06
0.0210518
4.397e-08
3.29156e-08
1.41615e-05
-0.00322356
-1.55477e-06
8.93556e-10
0.0130043
-1.12493e-08
-0.00105183
3.0137e-09
-0.00554953
4.82463e-09
4.03338e-07
0.0111275
-0.00496135
1.31217e-08
-0.00586969
0.00103533
0.00342996
-0.00283241
0.00206216
0.000494552
-1.12716e-08
0.00746861
-3.53097e-09
-1.10686e-08
1.92452e-08
-0.00168845
2.43339e-08
0.000240353
3.25921e-08
1.23563e-06
0.000894417
-2.70481e-06
0.00715092
6.53159e-08
-1.26721e-05
5.23579e-09
-5.36756e-08
0.000696896
-0.00966411
1.90893e-09
1.35268e-06
-0.00290826
-4.69548e-09
-2.93288e-08
-0.000423251
-1.04444e-07
8.47173e-07
1.70404e-06
0.0140452
0.00148421
0.000567299
0.00415932
0.000670876
0.00112483
0.002824
-0.0121265
8.92313e-07
3.11501e-09
5.32834e-07
-1.66864e-08
1.12665e-08
-0.000333025
-0.000164118
-3.82829e-07
-0.00549611
4.71726e-05
0.000417914
0.000167098
0.000169387
-3.73353e-08
0.000139364
0.000142108
-2.88333e-07
1.45123e-08
-0.00261325
-0.00244651
-0.0175428
-0.00243332
2.77081e-06
0.00107787
-0.00178986
-6.11963e-08
-6.26442e-09
-1.79731e-08
0.00161362
1.85351e-08
-1.9493e-05
-2.63534e-08
5.99785e-09
-4.49212e-07
-0.00460631
0.00333709
-0.00894318
2.25223e-08
0.000432592
1.19849e-07
1.88914e-06
5.87172e-09
-2.99011e-08
0.00971019
5.27428e-07
0.000388795
-0.0278581
9.51121e-05
2.08603e-07
6.80949e-09
1.2788e-06
4.96346e-08
-1.80417e-06
-3.28378e-07
5.11662e-08
-4.25946e-09
-2.46741e-09
7.80448e-07
-2.32689e-09
-3.76916e-08
-5.44e-07
8.61735e-09
-0.000154518
0.000575777
-4.30633e-08
4.73074e-08
-1.15178e-07
-4.03871e-05
8.29666e-06
0.0010377
-8.74211e-06
-4.18344e-08
-3.44219e-08
-2.33529e-08
0.000712062
-3.05208e-08
0.000726616
-3.25428e-10
2.76296e-08
2.51277e-07
-0.00382777
-2.60451e-08
1.73371e-06
3.55951e-06
-7.93846e-08
-1.34436e-07
-0.00400579
-0.00284744
-8.38044e-08
5.01523e-09
6.95157e-05
-6.84493e-11
-1.8443e-08
2.99169e-06
0.0007597
-1.07031e-07
2.10394e-06
0.0015384
0.000861995
7.60164e-09
3.42031e-09
0.000768791
3.05754e-08
9.61529e-05
-3.89543e-05
0.00504997
-5.44282e-09
1.44247e-05
2.22467e-08
0.000783474
-2.30277e-06
-7.58217e-07
1.11192e-06
-0.00794585
-9.91646e-09
0.00341955
0.01154
5.66406e-09
-0.00370132
1.34229e-06
1.51863e-08
0.00853482
-4.29215e-08
1.06945e-08
-2.37433e-08
7.1319e-07
0.000239516
4.64866e-07
6.6313e-08
1.54019e-10
-5.4259e-08
-0.00469128
-6.14656e-05
0.00278344
-0.00200418
5.93117e-09
-2.24533e-06
2.62979e-06
-0.00367474
-3.86319e-06
0.00137505
2.15384e-08
9.8579e-06
-1.2184e-08
-0.0052542
3.2605e-06
2.0046e-08
0.000124394
-1.25296e-05
-1.70997e-07
1.67445e-05
-2.7908e-08
-6.87079e-08
-1.34408e-06
1.00064e-09
0.00249888
5.30311e-07
-2.54463e-06
-1.35203e-06
1.77974e-06
0.0116077
0.00012211
0.00170562
-5.06547e-08
-3.11536e-08
3.7088e-07
-0.00617528
-0.00313655
0.00198296
-6.12837e-09
0.00199833
-0.00253645
2.04072e-08
-7.30111e-08
-1.67106e-09
1.10324e-07
1.61295e-06
0.000107964
-0.00128134
-5.30362e-05
8.31456e-09
0.00669684
0.000410229
-7.03443e-09
0.000697085
0.00619148
-0.00302818
-1.88641e-08
4.06725e-07
-1.23882e-08
8.69913e-09
3.02238e-07
2.97867e-07
0.00139144
0.000887449
0.00241317
-0.00177192
-1.51039e-08
1.69884e-06
2.89216e-07
-3.99327e-08
3.79967e-09
-1.46382e-09
-0.00599519
4.41098e-09
-0.000677309
2.55755e-06
-5.70113e-06
4.84135e-06
-7.3617e-06
0.000263155
0.000153774
8.4269e-08
-4.53426e-08
4.61926e-06
-0.000355655
-0.000657877
1.34064e-08
2.23633e-09
3.62878e-09
-1.98304e-06
1.00744e-07
-1.05921e-06
0.00712522
-1.12415e-08
-2.48302e-08
-1.72088e-06
7.13574e-05
0.000521666
-0.0126966
2.38019e-09
1.17817e-06
-5.70123e-09
0.00249587
-1.48091e-08
0.000997315
-2.41819e-07
-1.01774e-08
-1.34309e-06
-8.10868e-09
-2.16184e-05
-1.10359e-07
-1.17954e-08
0.00963906
-0.00290533
1.24102e-08
-3.59423e-08
-3.72339e-08
-0.000123535
0.00224883
-4.33167e-09
6.32536e-08
-0.000744292
1.18513e-08
0.000530272
-1.16271e-07
-3.1719e-06
-3.01149e-06
-0.0144822
4.55649e-06
-4.09798e-07
3.61702e-08
3.97437e-07
-0.00271518
-1.50556e-08
-0.00205051
-0.00280455
-0.00918176
-6.73714e-05
1.85374e-06
0.000196587
-4.27253e-08
-7.66598e-05
1.09871e-08
-0.000738717
-0.00125085
-0.00508997
-0.0021278
0.00695325
3.06873e-06
0.000567603
3.64027e-08
0.000468055
0.00158521
-0.00264869
0.00966863
5.39916e-07
0.0110008
0.00819674
2.00938e-06
-2.58031e-07
1.11761e-08
0.000524438
3.04564e-07
4.06697e-07
-3.10573e-09
1.26608e-08
-2.99692e-09
5.62244e-08
-0.00269099
7.70402e-07
3.33936e-07
0.000435321
-0.00440249
1.95262e-06
1.28556e-08
-4.12918e-08
-6.41852e-06
0.000970781
-5.06815e-05
3.83733e-07
6.42301e-08
-0.00348163
-3.49815e-06
3.22374e-08
-0.00418455
3.49166e-07
0.000287835
-5.2077e-08
-2.2389e-06
1.20575e-08
-5.99679e-09
1.01694e-06
-0.00124044
2.13662e-05
0.00053255
-2.59153e-06
0.00997602
-1.19594e-06
5.42676e-08
-9.01391e-08
0.00327849
-0.00559054
-0.00530516
-1.07281e-05
-7.35874e-09
1.37607e-08
3.84521e-09
-2.15923e-09
4.07376e-09
-0.00112298
2.10958e-07
-0.00437279
1.1457e-06
0.00319445
0.00404781
2.4502e-06
0.000122021
-6.55789e-08
-0.00268037
2.45452e-06
-0.0148263
0.000665187
-5.18029e-09
-1.98375e-05
-6.01989e-09
-0.0111298
-0.00710498
1.49896e-06
-5.78163e-05
0.00378758
-2.39064e-09
2.94193e-06
-1.89381e-08
-0.000377893
-0.00219126
4.09652e-08
3.70775e-08
-0.000481575
-7.29875e-05
2.66611e-06
-0.000115413
1.14525e-06
-4.59631e-06
2.62136e-09
0.00017003
0.000742276
-4.50515e-06
-6.37621e-08
-0.00347451
-0.01161
3.94239e-08
-2.61529e-08
4.47748e-08
-0.00308336
-0.00452716
-1.24486e-08
0.000488342
-2.9383e-09
-1.61705e-08
3.54319e-08
-0.00293353
-8.52079e-05
0.000119552
-0.00279798
-3.09342e-07
5.60423e-08
8.54939e-09
-0.00921027
-2.98592e-08
0.00777644
1.14952e-06
-0.0199901
4.43591e-08
-1.92878e-08
2.76561e-06
-0.000179238
0.000431508
5.29533e-07
0.00509388
8.76705e-08
-4.79435e-08
-2.51965e-08
-8.71608e-07
1.33071e-07
8.0764e-07
-9.81583e-08
-0.00424361
-6.09704e-09
1.1789e-06
0.0177618
0.00985749
-3.38703e-08
0.000381953
0.000348372
-4.24028e-08
-0.00166485
4.31503e-07
-0.0174005
-6.82563e-08
-3.32372e-06
7.52486e-09
-0.0114313
0.000492731
0.000121795
-0.00109114
-4.73413e-07
9.45849e-08
-1.69765e-07
0.000350084
-4.2923e-08
1.92706e-10
0.00558545
-6.06104e-06
-0.00819393
0.000551846
6.70302e-08
9.96908e-08
-2.59819e-08
0.0194824
-1.64775e-07
4.55508e-08
-2.11333e-06
7.27056e-07
5.57144e-08
2.98388e-08
-0.00991254
-1.82589e-08
-0.000861004
0.000442916
-1.01574e-06
2.69741e-05
-1.36239e-06
0.00278
4.40136e-08
0.0133382
0.00182381
1.14315e-09
-5.30593e-09
3.09793e-08
3.97443e-08
-6.4203e-07
6.05464e-09
-0.00309959
1.11395e-06
0.0014871
2.4982e-05
-5.8349e-09
-1.90909e-08
7.12403e-10
0.000468308
-4.85694e-08
-3.63794e-08
7.56631e-06
-4.09422e-08
-0.0145239
-0.00152158
-2.52844e-07
1.34617e-06
1.50705e-07
5.6365e-08
-1.66857e-09
4.1265e-05
4.69929e-08
-4.19545e-08
0.00269465
0.00117877
-1.86118e-05
5.13646e-08
-0.00546424
0.00507612
3.2543e-08
0.00138685
-0.00565406
-1.4595e-08
-3.44269e-08
-3.87375e-09
0.00252732
-0.00178451
0.0046872
6.79978e-08
7.55874e-08
9.86638e-07
3.41294e-08
3.02379e-06
-1.05744e-08
-8.13172e-05
0.000993355
0.000403951
-3.17028e-09
-3.58537e-08
-2.91919e-08
-0.00162147
-6.21772e-08
-0.000267643
0.00467633
0.000962198
-0.00826912
0.00307928
0.011554
5.22405e-07
0.00126248
-0.00194295
-1.0016e-08
-2.49872e-08
-1.19851e-08
-0.0015855
-0.00265411
-0.00398879
-5.2866e-08
0.000833109
-5.25081e-08
3.0089e-06
-4.11375e-08
5.69503e-08
-1.06687e-08
-1.28795e-09
-0.00300923
-6.31322e-09
0.0048835
-0.0151441
0.000446669
-1.13544e-06
1.89037e-07
-0.000497128
-0.00314054
1.49867e-08
-0.00577153
-1.87765e-08
1.45274e-08
9.91798e-09
5.78994e-06
-4.61572e-09
0.00777525
-1.41195e-07
0.00110697
1.67978e-06
0.00569922
0.00128488
0.00079084
3.5831e-09
-7.63479e-07
-3.97842e-06
-0.00163847
-5.33654e-08
6.42413e-09
-4.71075e-08
-0.00864139
-2.47294e-08
0.00110407
0.00477641
4.83549e-12
-1.91383e-06
-4.2626e-08
0.00221377
5.17346e-09
0.00111252
2.80472e-09
-0.002545
-4.2921e-08
-4.30605e-08
0.00575051
-0.000396335
-1.41955e-08
7.39264e-09
2.07292e-07
-0.00523307
9.47318e-05
0.00977952
0.000798631
-2.91926e-08
4.01419e-07
0.00011776
-3.76575e-07
-2.56754e-05
8.02147e-07
7.12029e-07
-7.04669e-08
0.00627488
-0.000530841
-5.23982e-08
0.000434573
9.0707e-09
-4.52165e-07
-0.00487959
0.00190587
3.90882e-06
-0.000318417
-6.43018e-05
3.91684e-08
0.00121171
-1.10136e-06
-7.3828e-08
-9.54345e-09
0.000946831
-1.58685e-08
0.00447821
0.000271804
-3.39133e-06
-1.0669e-08
-2.41371e-06
0.00011256
-3.71103e-07
0.00975542
4.68002e-10
7.37667e-08
0.00241154
-0.00103138
-6.00325e-08
-0.0022325
0.00544788
0.00654126
8.57412e-09
-0.0007738
0.00617623
-0.00426773
-1.13459e-08
2.55123e-06
-1.03881e-08
-0.00134511
2.17746e-05
0.00206246
0.00175629
-3.97853e-08
-2.97525e-08
-1.47392e-08
-0.0028225
0.00367576
-0.0139496
0.000511533
7.10507e-09
0.00201181
-0.00428626
7.20602e-08
-0.00412059
-0.000102259
-4.86015e-07
0.00487111
-3.31024e-08
-6.01277e-08
0.00264881
-0.00509343
-1.09652e-06
-0.00342315
2.07948e-08
-2.92797e-08
-0.00358069
-0.000479758
0.00396898
0.00046831
6.81948e-07
-2.92273e-08
-3.99629e-09
-0.00291269
-0.00178265
-4.81654e-09
9.52023e-08
-0.000429199
-2.31946e-08
7.36368e-09
-0.00649217
0.0017114
5.99462e-08
4.24621e-10
-7.934e-09
-2.02301e-07
-0.000845076
3.90398e-08
2.225e-08
4.16795e-07
-0.00800134
0.00492584
0.000205577
0.00742263
-5.5124e-08
1.30581e-07
-0.00102499
-0.00370511
8.6312e-07
0.00359809
-8.8706e-09
-3.01625e-07
-3.42997e-07
-2.53274e-06
-2.88635e-06
3.85306e-09
0.00975509
2.06535e-06
-6.42366e-09
7.80563e-09
0.00594933
0.00334347
0.00013056
-1.99847e-08
9.02703e-08
-0.00267785
4.06978e-05
-2.77148e-08
-3.91056e-08
1.44703e-08
0.000948676
1.12678e-08
-3.60071e-09
1.03406e-07
7.62554e-10
-0.000640528
0.000722798
-4.98262e-08
1.56335e-07
6.33258e-08
-1.85248e-09
0.00571179
-0.00425977
1.68977e-06
-0.00498216
5.53248e-05
-1.22223e-08
-2.19307e-09
-4.98731e-08
-2.51309e-09
-3.85384e-08
1.99974e-08
-4.10515e-06
-0.00428285
5.93695e-07
2.01902e-06
-3.53955e-06
0.000465342
-1.76672e-08
-1.61329e-09
-3.81063e-08
-0.000354169
-4.12884e-09
0.00116738
-6.12817e-05
-3.67445e-06
4.84975e-07
0.000349066
-2.88911e-08
0.000169896
-9.2081e-10
-1.0893e-08
-3.96717e-08
6.12641e-09
2.55312e-06
-0.00681405
2.71436e-05
-5.60715e-07
-7.9381e-05
-0.0122602
0.00244026
-8.15371e-08
-0.000417323
-0.00404784
1.40743e-06
0.00226857
-0.00619798
1.28814e-06
0.00207623
2.94527e-08
-4.73914e-08
-0.00835593
-3.25895e-09
1.35165e-07
-0.00363815
-0.000221873
-0.0522091
-1.77119e-05
-2.58425e-08
9.37287e-06
8.69988e-09
-9.09391e-05
-2.72585e-08
-0.000775172
-0.00791448
-0.00557587
0.01432
5.32211e-08
-2.50728e-08
1.62728e-06
-0.0111502
-0.000329209
-2.14825e-06
-1.42879e-05
-1.26608e-08
0.000625333
0.000588533
0.0083985
-4.87547e-07
4.80114e-08
-8.49734e-10
-3.92618e-07
-1.04478e-08
3.91229e-08
1.28099e-07
-0.000576523
2.05976e-06
0.000252627
-0.00101034
0.0051663
-4.95199e-07
1.2731e-08
-1.1942e-08
2.10409e-07
-5.27656e-10
3.80298e-08
-0.00480292
0.00560865
-0.000475407
0.000579498
-3.21316e-08
-0.00029524
2.78097e-06
-0.00220482
0.000694418
-9.65428e-09
4.29131e-08
-0.00115909
6.70761e-08
-1.55955e-08
-0.00440997
-0.000474309
0.000474762
-2.71586e-09
-4.25199e-08
-8.50005e-07
-2.02682e-07
0.00842551
-2.73818e-08
6.16809e-07
7.37541e-05
-7.46595e-08
-0.000221161
-1.66662e-07
-0.00294135
-2.02617e-08
-6.69739e-05
-0.0162947
1.94366e-06
-0.00359428
2.98803e-06
0.000478749
-3.38987e-08
3.96202e-07
3.17399e-08
3.60544e-07
0.00193663
-7.99917e-08
0.00403489
2.05744e-07
-6.06634e-10
5.14943e-09
6.56496e-05
1.11379e-07
3.13136e-06
-0.00179855
2.703e-09
2.80439e-06
0.00770034
-6.40718e-07
-4.82829e-08
2.60855e-07
4.68944e-08
-1.31524e-07
-2.97743e-08
2.28752e-08
0.00156036
0.00150392
-0.00094189
-5.5596e-05
-0.000346127
0.00210274
2.35731e-07
0.00186996
8.02732e-07
-3.01789e-08
-2.85406e-08
1.39082e-08
1.852e-08
-0.00218052
-0.00311267
-2.60511e-08
0.00185405
0.00141913
-5.34198e-08
4.83043e-07
2.69966e-08
0.00507178
-0.0067306
-0.000289993
-0.0420354
-0.000191184
1.29436e-08
-2.02232e-05
8.96564e-07
0.000795546
0.00344009
-1.00591e-08
-1.35059e-06
0.00897342
1.63249e-06
-0.0179869
2.26787e-08
-0.000812455
0.00630976
0.000670175
1.2993e-07
2.57576e-07
0.000424451
-1.68795e-06
0.000903756
0.000125128
-0.000827741
1.78596e-06
0.000225343
-3.69356e-08
-7.79583e-07
1.03175e-07
0.000539978
0.000187549
0.000561744
9.5441e-09
-1.5173e-06
-4.80582e-06
4.17088e-09
-0.00581066
-1.56679e-08
7.11677e-07
0.000223061
-1.46928e-08
0.00419346
-2.07058e-05
0.000845957
0.0021648
0.00336778
-0.00372294
1.70254e-09
-0.00145685
1.53147e-07
4.03134e-08
-1.81313e-07
5.62774e-08
0.000570156
1.00173e-08
3.57535e-08
1.07428e-07
2.07833e-08
0.00689562
7.51368e-08
1.7205e-06
0.00134097
-4.08497e-09
0.000581337
1.34705e-06
4.31289e-07
0.00395328
4.07299e-06
-1.05566e-08
0.00732716
7.20669e-09
0.00120472
-0.000183856
-2.19853e-08
-1.55853e-06
7.98687e-08
6.31459e-05
5.18742e-05
1.73932e-06
0.00752954
2.08054e-06
1.73095e-08
-0.00443039
-4.67957e-08
-1.14009e-08
0.000350798
2.01033e-10
-1.05257e-08
-1.64318e-08
1.81366e-06
1.01164e-08
0.000120999
-2.44813e-06
-0.000210456
-0.013767
2.27123e-07
-2.16612e-06
8.57849e-09
0.00079559
0.00054721
-0.00684783
-1.16001e-08
-5.08144e-08
-3.10131e-07
9.14046e-07
-0.00159594
-2.49295e-09
-2.62392e-05
-6.46075e-09
-0.0249395
5.54057e-09
-0.000668903
-3.35675e-05
7.51739e-07
0.000583014
-0.0146327
-0.00573056
-4.86503e-05
1.23484e-08
-9.16486e-05
-9.79082e-05
0.000553499
6.1525e-10
3.64785e-07
0.000516528
-0.000295476
-3.31471e-07
-0.00112579
0.012626
0.00217587
3.71331e-08
8.30569e-06
1.49017e-09
2.84198e-07
4.93542e-08
-5.62695e-09
8.08746e-07
-0.0112147
0.000111401
0.000789627
0.00131166
-7.39617e-09
2.82744e-08
5.55106e-06
-7.80711e-09
0.018022
-3.87402e-08
-2.39716e-08
0.00378315
-3.77476e-06
-2.91036e-06
1.66611e-06
5.67355e-09
-5.00694e-06
-0.0036666
0.000431871
-0.00363798
-5.16211e-08
0.000257021
-8.41479e-07
6.0785e-09
-2.99875e-08
-5.24982e-05
-8.5157e-05
-1.97147e-05
-1.0225e-07
1.31612e-09
-3.78203e-08
-6.2461e-09
3.32709e-08
-6.6187e-08
-0.0112859
8.27708e-05
1.40068e-07
-0.00538896
0.000150407
-0.00104042
0.000839649
-3.11305e-08
-9.66554e-08
-0.00226082
-1.94433e-08
4.23396e-05
2.48301e-08
2.45416e-08
0.013971
0.000505461
-3.42688e-08
1.78838e-08
4.70586e-08
-3.15573e-06
-0.00417612
0.00898438
0.00106341
2.13952e-08
-3.66784e-07
6.84184e-05
1.64244e-07
-1.19833e-06
-7.72985e-05
0.00309445
0.00509799
0.00192155
-3.28646e-08
-0.000895062
-3.81534e-08
6.44636e-07
2.02051e-08
-1.71984e-06
0.00401701
0.000335652
0.0023495
-0.00235514
-1.57709e-06
-7.95602e-10
4.62694e-10
-2.16454e-08
-7.52553e-09
-6.04313e-08
0.00229532
0.0016307
5.18637e-08
-0.00297731
1.4311e-08
-1.74813e-06
-6.99112e-09
0.000864107
0.000115176
3.36325e-08
7.46367e-07
2.53381e-06
-0.00397774
0.000558538
5.20951e-07
0.00292617
2.28053e-07
-0.00717346
1.24905e-06
0.0014649
0.000599995
-6.771e-07
-1.85456e-06
-3.69408e-08
-0.00602385
-0.00381791
-6.71562e-07
0.00766293
-4.14582e-06
0.00792865
-2.40789e-06
5.66689e-06
-2.61469e-07
-2.14999e-09
-1.37292e-06
-1.50862e-06
3.14384e-08
-1.91873e-06
-7.16418e-08
1.78517e-07
0.00382879
4.14674e-07
-2.51912e-07
5.5276e-07
-3.03786e-07
1.67443e-06
5.83416e-07
0.0106112
1.22212e-06
0.00136541
-0.00699759
-9.87348e-09
0.000579808
1.10494e-08
3.20751e-07
6.30048e-08
0.000471113
1.76135e-06
0.00104147
0.00589133
-2.04649e-06
-9.90423e-06
4.89378e-07
-0.00654117
-1.70193e-06
0.00691448