/*--------------------------------*- C++ -*----------------------------------*\
| =========                 |                                                 |
| \\      /  F ield         | OpenFOAM: The Open Source CFD Toolbox           |
|  \\    /   O peration     | Version:  v2012                                 |
|   \\  /    A nd           | Website:  www.openfoam.com                      |
|    \\/     M anipulation  |                                                 |
\*---------------------------------------------------------------------------*/
FoamFile
{
    version     2.0;
    format      ascii;
    class       volVectorField;
    location    "100";
    object      ddtCorrDdt0(U);
}
// * * * * * * * * * * * * * * * * * * * * * * * * * * * * * * * * * * * * * //

dimensions      [0 1 -2 0 0 0 0];


internalField   nonuniform List<vector> 
13851
(
(-0.00140335 -0.00109115 0)
(0.0811398 0.0560163 -3.57957e-20)
(0.020687 0.0220632 -4.56636e-21)
(-0.0013958 -0.000282136 0)
(-0.0091986 0.0125965 0)
(-0.00987062 0.10161 0)
(0.000106037 0.000196388 0)
(0.00945736 0.00519097 -2.4191e-21)
(2.42736e-05 4.9309e-05 -9.73816e-22)
(0.0492271 -0.0181443 -4.47824e-21)
(-0.00416691 0.106683 0)
(0.134183 -0.0358648 3.4698e-20)
(-0.0208191 -0.0275433 7.68619e-21)
(0.144078 -0.0167692 -6.17999e-21)
(7.5159e-05 6.60617e-06 -1.7496e-23)
(0.0018812 -0.00689024 -1.21365e-23)
(0.00113831 -0.000475974 4.04798e-22)
(0.00535506 0.00459796 -1.02202e-20)
(-0.0632705 0.00577348 1.30686e-20)
(2.143e-05 5.02977e-05 1.89652e-21)
(-0.00109727 -0.000215108 1.28811e-21)
(0.0161965 0.0223239 -1.6818e-21)
(-6.81562e-05 4.0997e-06 -3.51001e-22)
(3.40471e-05 -1.46521e-06 1.60662e-21)
(-5.94025e-05 2.17082e-06 0)
(0.0108838 0.00474167 1.96619e-22)
(0.000644632 0.000562984 0)
(-0.00999856 0.0219476 -1.47788e-20)
(-0.000974278 -0.00109126 9.6411e-23)
(-0.000295669 0.00137323 -1.40683e-21)
(0.00234131 0.128116 0)
(0.0012907 -0.00049482 0)
(0.0221664 0.0190125 7.80305e-21)
(0.00475893 0.235184 0)
(3.33813e-05 -5.18043e-07 -2.53016e-21)
(0.00935971 -0.0098401 1.54556e-21)
(0.0226249 -0.0179103 6.03543e-21)
(-0.021034 0.0716266 0)
(0.0562787 -0.017592 1.78363e-21)
(0.0210286 0.1995 -3.88943e-22)
(0.00011988 7.80049e-06 4.46606e-22)
(-7.08078e-05 7.53676e-05 1.60388e-22)
(-0.0769678 0.063091 1.20152e-20)
(-0.00870538 0.085189 0)
(-0.000652312 0.117429 0)
(-0.0793083 -0.279408 1.61993e-21)
(0.00258681 0.0673081 -9.70123e-22)
(-0.0563468 -0.201675 2.19231e-21)
(0.000655655 0.0006299 1.07098e-21)
(0.0249258 -0.0222125 1.16732e-22)
(-0.00566174 -0.000551201 -1.08256e-20)
(-0.0185116 -0.00748162 -1.3002e-20)
(0.0214489 -0.0274367 0)
(7.52537e-05 5.5272e-06 -8.39384e-22)
(0.000107441 4.58721e-06 0)
(-6.63366e-05 8.35638e-05 0)
(-1.01016e-05 -9.16004e-06 6.49911e-24)
(0.0225149 -0.096616 4.50499e-20)
(-6.88032e-05 0.00125142 -2.27513e-21)
(0.000157045 9.11213e-05 -2.10739e-22)
(-0.0130547 0.0780088 0)
(-0.274799 0.0292641 -1.51493e-20)
(0.0403544 -0.00874077 -3.29208e-21)
(-0.0149053 0.0109846 -6.83091e-22)
(-0.211323 0.0608625 8.98696e-22)
(-0.00396285 -0.00120909 4.76828e-22)
(0.0201268 -0.0190466 0)
(0.00715068 0.0038423 -1.3421e-21)
(0.00034924 0.00222449 -1.76497e-22)
(0.00606188 0.00370749 5.62163e-21)
(-0.0381827 -0.00134188 -3.65225e-21)
(-6.60032e-05 -0.0141934 0)
(0.106383 0.0459866 7.06327e-20)
(7.73214e-05 5.6791e-06 6.52208e-22)
(0.000118972 7.30959e-06 9.60497e-22)
(-2.83941e-05 8.29688e-05 -1.40539e-21)
(0.0140864 0.020413 0)
(0.0168168 -0.010792 -3.73689e-21)
(5.70089e-05 0.00604859 6.45955e-21)
(-0.0402255 -0.000480678 -7.05854e-22)
(0.00023671 2.99857e-05 -5.65543e-22)
(-0.00620244 -0.0258646 -1.64816e-22)
(0.000125811 0.000106386 -2.50353e-21)
(-0.0607483 -0.274068 0)
(0.0436277 -0.0029737 8.18382e-21)
(0.154452 -0.0811769 -2.96852e-20)
(0.02559 0.0429833 1.14738e-21)
(0.0407186 -0.284124 -2.41826e-19)
(0.0012274 0.000318541 0)
(-0.000323107 -4.76505e-05 0)
(0.00832105 -0.00998149 0)
(-0.0106224 -0.017972 0)
(0.00834185 -0.0493401 -4.37729e-21)
(0.00152944 0.000945088 0)
(0.00111591 0.000346353 -2.11142e-22)
(-4.49213e-06 1.14742e-07 3.54842e-22)
(-0.0109861 0.0116313 0)
(-0.0417059 -0.0995359 -1.04352e-20)
(0.0262976 -0.0270798 -1.6132e-22)
(-7.03071e-07 -1.57077e-06 0)
(0.0625624 -0.108191 6.60247e-21)
(-0.00237171 0.00392048 3.31524e-21)
(0.000494364 -0.000530128 0)
(0.000179318 0.000912279 -2.60001e-22)
(-5.30692e-05 -4.84608e-06 0)
(0.0446701 0.0144228 -3.88784e-21)
(-0.00364082 0.00283986 0)
(-5.179e-05 -1.20361e-05 -1.00018e-22)
(-0.0178202 -0.00838954 0)
(-0.0421627 0.106642 -4.49378e-21)
(4.21339e-06 -6.74688e-06 9.23706e-22)
(-0.0003733 -0.000130256 0)
(-0.00919248 -0.0152071 8.95765e-23)
(2.26509e-05 -3.5369e-08 0)
(4.26501e-06 -8.84913e-06 0)
(0.0592263 0.00578922 -6.71018e-21)
(-0.0461111 -0.0899553 3.14707e-21)
(-7.20527e-05 4.17943e-05 0)
(7.31349e-05 -2.11726e-06 -2.20933e-24)
(0.000122798 -4.10301e-07 1.07275e-21)
(-0.0664271 0.0540076 -3.73695e-21)
(0.000206215 0.000873315 3.7224e-22)
(-0.0233721 -0.0295574 0)
(0.0442055 0.0596756 9.87862e-21)
(-0.0688041 -0.173186 -2.36452e-21)
(-0.000927421 0.00118346 -3.85944e-22)
(-0.0783954 -0.11162 5.64593e-22)
(-0.00140253 0.00523895 -1.06836e-21)
(-0.000977342 0.000128806 1.4635e-21)
(-0.0284729 0.0262158 1.87801e-20)
(0.000121071 1.69084e-05 1.18632e-21)
(6.77912e-05 -5.4583e-05 1.11855e-21)
(-0.0378687 -0.00194631 2.63494e-21)
(0.000117331 9.26782e-05 1.95647e-21)
(0.0670888 0.0184738 -1.47895e-20)
(7.30225e-05 -1.51056e-05 2.13903e-21)
(-7.3242e-05 3.87129e-05 -3.3972e-22)
(0.00303649 -0.0172791 -3.64118e-22)
(-0.0548126 0.227855 0)
(0.0415465 0.285877 8.23562e-21)
(0.02933 -0.142309 -1.84513e-21)
(0.000110056 3.59745e-06 -1.7286e-21)
(-0.000916482 -0.00172828 -3.16433e-21)
(-7.21828e-05 -0.000102181 0)
(0.000230717 -0.000284087 -9.58773e-22)
(-0.0145869 0.0460787 3.61276e-22)
(0.000840898 -0.00280119 1.31927e-22)
(-0.0277564 0.0310418 -2.89172e-20)
(0.000104549 0.00017816 1.78975e-22)
(0.00593757 0.138118 1.30513e-21)
(0.00185991 -0.000829151 7.54368e-21)
(0.000124241 7.59894e-07 -2.00895e-21)
(0.141271 -0.0280181 7.72353e-21)
(-1.49946e-05 -1.20833e-05 1.33671e-21)
(0.000526442 -6.57783e-06 0)
(0.000143897 -0.000206581 3.02773e-21)
(5.42665e-05 -1.60774e-05 0)
(-0.000100691 0.000595868 3.7816e-21)
(-0.0203737 -0.00687189 1.29563e-20)
(-0.0059106 0.000210477 1.0624e-20)
(-8.82284e-06 -0.000165284 1.12384e-24)
(0.000699722 0.00130085 0)
(0.0252849 -0.0584593 -2.23218e-20)
(6.30516e-05 -6.4946e-05 -1.2371e-21)
(-0.00420206 0.00118172 0)
(-8.6708e-05 -3.49263e-05 4.66134e-22)
(0.00147956 -0.00362542 -1.28499e-22)
(0.000178845 0.00221951 -1.04005e-22)
(-0.000804087 0.000173131 0)
(0.00341462 -0.135408 0)
(0.0171109 -0.00733267 4.52993e-21)
(-1.6057e-05 -2.096e-05 0)
(5.75991e-05 -4.82282e-05 4.95507e-21)
(0.0453247 0.275136 -9.15524e-21)
(6.1553e-05 -6.27084e-05 0)
(-0.0411088 -0.266903 9.59147e-22)
(-0.000799869 0.005271 -3.14148e-21)
(0.00103652 -0.00168334 0)
(-0.0594335 -0.00182293 1.83194e-20)
(-4.35709e-05 -4.45502e-05 0)
(0.00156784 -0.000700163 -6.6124e-22)
(-0.0045809 -0.0152349 0)
(0.00010801 6.57506e-05 0)
(0.0144115 0.025511 4.34638e-21)
(-0.00010572 -3.04215e-05 2.08956e-24)
(-3.89496e-05 2.26635e-06 0)
(-0.00372107 -0.00215206 0)
(0.000109117 5.28175e-06 -5.35702e-22)
(-0.0115929 0.0190209 0)
(0.00601547 -0.0678714 2.78159e-20)
(0.00172204 0.0215791 2.94958e-21)
(0.0323733 -0.0310871 0)
(-0.00061433 -0.00011534 1.1546e-21)
(0.000971199 0.00255303 7.3984e-22)
(-0.275817 0.0770752 6.68231e-21)
(0.000488867 -5.46258e-05 -9.82057e-24)
(-0.000843476 -0.00123523 -3.19687e-21)
(0.0514505 -0.0187199 6.81632e-21)
(0.000640746 -0.00160575 0)
(-3.75362e-05 6.65531e-05 1.40451e-21)
(-0.00120994 0.000936162 3.87554e-22)
(-0.102577 -0.246566 -7.78167e-20)
(8.78726e-05 -1.57485e-06 2.11935e-21)
(0.000174725 -4.2173e-05 0)
(0.0180405 -0.0405423 -3.08718e-21)
(0.000110829 6.50856e-05 -1.9556e-21)
(-0.126399 0.208659 1.56561e-20)
(0.00124141 -0.000209266 6.78283e-22)
(-0.0196001 -0.0101048 3.23924e-21)
(-3.69703e-05 -0.000132299 4.41742e-23)
(-0.000352252 -0.0222496 3.87354e-21)
(0.000419123 -0.000475039 0)
(0.0100677 -0.0385717 -8.1027e-22)
(-5.93481e-05 -8.77523e-05 4.25449e-23)
(-9.32684e-05 -5.03325e-05 0)
(0.019497 0.0829416 -1.23288e-21)
(0.0390722 0.00895935 -7.43646e-21)
(-0.0713725 -0.286353 -1.66739e-21)
(7.7285e-05 4.88201e-06 9.97341e-22)
(-0.0176392 -0.0115198 -3.22926e-21)
(0.00135705 -0.000246569 -1.32995e-21)
(0.000249773 2.66514e-05 7.7498e-22)
(0.00913169 -0.0476598 0)
(-0.0259181 0.00450415 -3.84299e-22)
(-0.0163201 -0.0124836 0)
(-3.93729e-05 -4.92248e-06 -8.35105e-22)
(0.00180574 0.00146109 0)
(-3.92589e-05 -6.456e-07 -1.35216e-22)
(0.0470832 -0.105518 -1.11392e-20)
(-5.99335e-05 -0.000100237 -1.77739e-22)
(0.0110672 0.00318893 5.9362e-22)
(-0.0314896 0.257291 -6.26856e-21)
(-1.75063e-05 -8.96574e-06 4.16401e-22)
(-0.00051727 6.00248e-06 0)
(-0.00357507 -0.000166771 -5.27944e-21)
(-0.00136904 0.0287583 -3.9547e-21)
(-0.0837209 0.20531 3.74314e-20)
(-0.200321 0.0270511 -1.10335e-21)
(-8.34886e-05 -9.21647e-05 0)
(0.000179208 -1.76172e-05 7.08359e-22)
(0.0364196 0.0993995 0)
(-0.0265019 -0.100465 0)
(0.000171675 -0.000319659 0)
(0.0222831 -0.0445819 3.44477e-21)
(-6.43281e-05 -7.20949e-06 1.58322e-22)
(-0.0177146 -0.0128448 -2.93033e-21)
(-0.00264262 0.00449149 0)
(0.00342638 0.144175 -1.69661e-20)
(3.99901e-05 -0.000204084 1.81866e-21)
(0.000381835 -0.00153766 0)
(0.00276058 0.0113196 2.72117e-21)
(-0.0408222 -0.115992 0)
(0.000194983 0.000100468 0)
(7.95287e-05 -0.000292283 -9.65062e-22)
(-0.00186325 0.00113895 5.54175e-21)
(0.071473 -0.0839819 0)
(-0.00296244 -0.0642928 -2.75955e-20)
(-0.000430662 -0.018449 1.44001e-21)
(0.115674 -0.0255566 1.29973e-21)
(8.56629e-05 3.18102e-05 0)
(-8.63195e-05 -7.42872e-05 0)
(0.00557581 0.00150382 0)
(-0.0505977 0.323621 0)
(-0.0002296 0.000209317 7.04385e-22)
(-0.0618261 0.0167899 0)
(0.000473977 -7.08873e-05 -1.72062e-21)
(0.00019402 9.43707e-05 -1.15653e-21)
(0.00144611 0.000847267 0)
(0.00981662 -0.0462374 0)
(-0.00841076 0.0125291 -5.69542e-22)
(0.00489337 0.0105811 -7.61431e-23)
(0.000526686 -3.84055e-05 -1.28537e-21)
(-0.0864477 0.210774 -3.51167e-21)
(0.000462724 0.0055036 5.64578e-21)
(0.000833239 -0.00659883 -7.64453e-21)
(6.81442e-05 -5.81148e-05 -2.43457e-21)
(-0.00121224 -0.00523401 2.10449e-22)
(0.0164939 0.0101513 1.65359e-21)
(-0.023424 -0.00354144 0)
(0.00729446 0.113904 -1.11393e-21)
(0.000155825 -0.00034643 0)
(-5.63848e-05 -0.000117003 0)
(-6.38956e-05 -7.88587e-06 0)
(-0.00161788 0.00133294 -1.81877e-21)
(-0.0326798 0.369811 0)
(-0.0107111 -0.328745 -5.79323e-21)
(2.19374e-06 4.74464e-05 -2.22499e-21)
(6.62288e-05 4.82013e-05 -1.11406e-22)
(-0.065822 0.246824 1.85095e-21)
(-0.00667854 0.0123331 7.77519e-22)
(-0.0327615 0.0337344 -2.04844e-20)
(-0.00010849 0.000993981 2.97878e-21)
(0.000166516 7.93983e-05 0)
(0.000301373 0.00280828 0)
(-0.0125403 -0.011752 -3.37973e-22)
(-0.0566959 0.00958597 -2.46424e-20)
(-0.00319018 -0.000117414 0)
(0.172511 -0.109305 3.57019e-21)
(7.23867e-05 -4.26657e-05 -1.30577e-21)
(-0.0153141 -0.0142722 2.79064e-21)
(0.000693527 0.00122924 -1.81381e-21)
(0.00104196 -0.000575124 6.6355e-22)
(-0.021219 -0.00648003 -9.19983e-22)
(0.000310052 -0.000129395 1.28771e-21)
(0.0453761 0.0265059 0)
(0.00618463 -0.0305573 -1.50356e-21)
(5.51573e-06 4.92617e-05 0)
(-0.00105169 0.00203192 2.70807e-21)
(0.00169718 0.000898914 0)
(3.94966e-05 0.000896426 -1.29144e-21)
(-0.0880557 0.246525 -1.59447e-21)
(-0.00353078 -7.16496e-05 -8.14325e-21)
(0.000186252 0.000171267 -2.76215e-21)
(-0.00293142 -0.0630011 -3.12077e-21)
(-8.17854e-05 5.66359e-05 -2.02009e-22)
(0.000614783 -0.00169961 -9.91318e-22)
(-0.00208993 0.000485019 1.58346e-21)
(-0.023031 -0.00446848 6.19474e-22)
(0.00434555 -0.006566 0)
(7.9401e-05 3.99913e-06 0)
(-0.00275383 0.00259929 0)
(8.2789e-05 8.00722e-06 0)
(0.0933086 -0.0305309 -1.66824e-23)
(-0.00130656 0.0184173 2.93061e-21)
(-7.28214e-05 -3.58474e-06 1.87789e-22)
(-2.93914e-06 -7.64999e-05 3.71883e-21)
(0.00335905 -0.00672243 0)
(0.00171266 0.00127933 1.94073e-21)
(0.000500776 7.60497e-05 -3.34242e-22)
(6.18798e-05 5.04126e-05 -7.8142e-23)
(0.000296495 -0.000131526 0)
(0.000179877 0.000176001 2.39057e-21)
(-0.00193653 0.112809 6.65689e-22)
(0.146898 -0.0300903 0)
(-0.0614563 -0.132384 -8.26686e-20)
(0.0122987 -0.00240544 -2.97759e-21)
(-0.0206966 -0.00733871 4.46049e-22)
(-0.0654602 0.152574 0)
(7.42546e-05 5.59799e-06 -4.13096e-22)
(0.00112255 0.00279775 8.54938e-22)
(-0.0324496 0.0392545 2.06496e-20)
(-0.00295302 -0.0244781 -4.29412e-21)
(0.00760554 0.0541302 -7.63406e-22)
(-0.0130486 -0.00697713 0)
(-0.0656926 0.0121728 -6.69298e-21)
(-0.00589823 -0.000278994 0)
(-0.01363 0.417548 3.78969e-20)
(-0.0023994 -0.0223532 0)
(7.59687e-05 8.68015e-06 0)
(-0.00790862 -0.0198757 -2.29707e-22)
(-0.0141988 -0.0208463 2.05272e-23)
(0.0605592 0.0909437 0)
(0.000484708 9.93585e-05 3.37668e-22)
(0.0107078 0.0631514 1.71843e-21)
(0.0645123 -0.120062 1.59368e-20)
(5.97508e-05 -6.74792e-05 -1.67432e-21)
(-0.0128991 0.412388 -2.96559e-20)
(-1.41839e-05 -3.77119e-05 4.031e-21)
(8.06083e-05 7.91554e-06 1.56186e-22)
(-7.27701e-05 -1.37806e-05 -2.17617e-22)
(-4.97214e-05 -3.16113e-05 4.84432e-23)
(5.84841e-05 -1.32945e-05 -1.44964e-21)
(3.28424e-05 -0.0236965 -4.89736e-21)
(0.0175951 -0.14238 0)
(0.000197522 4.28323e-05 8.61822e-22)
(-0.000837126 0.00208523 3.46618e-22)
(-8.693e-05 6.57711e-05 0)
(0.206893 -0.0886308 0)
(-0.00260485 -0.0136193 -1.00897e-20)
(-0.00397786 -0.344211 3.54235e-21)
(-0.0447417 -0.152294 6.24234e-20)
(0.00020485 2.21955e-05 9.26502e-22)
(0.0443607 0.0102831 1.76201e-20)
(0.00199884 0.000636333 5.5577e-22)
(-0.00636699 -0.344752 -3.39885e-21)
(0.000120438 5.32597e-05 -7.45487e-22)
(-7.57882e-05 4.22502e-05 0)
(-0.0124733 0.00554407 0)
(0.0952164 -0.136478 8.37625e-21)
(0.000114559 5.47211e-06 0)
(-0.166813 0.327075 0)
(-0.00791051 -0.0243728 0)
(-0.013593 -0.00848469 0)
(0.0808977 -0.138146 0)
(-0.0407569 -0.0372565 -6.21866e-22)
(-0.0339733 -0.0456033 1.02834e-21)
(0.00687608 0.000308433 4.07026e-21)
(7.18567e-05 2.03863e-05 1.30789e-21)
(7.79743e-05 7.99241e-06 -6.51194e-22)
(0.010012 -0.00264958 0)
(-0.00251402 0.00223956 0)
(0.154608 -0.00188126 6.8255e-21)
(4.04794e-06 0.00204628 0)
(-0.01352 -0.0137322 -1.60713e-21)
(0.00385056 -0.0274019 -1.5766e-21)
(-8.92217e-05 4.18548e-05 2.67567e-22)
(8.76019e-05 4.01614e-05 -5.32257e-22)
(-0.0301704 -0.140218 1.9683e-20)
(-0.0391121 -0.00134782 0)
(0.0484928 0.185943 9.26253e-21)
(-0.0335685 -0.0790682 0)
(-0.0145873 0.00732376 -1.40941e-21)
(0.00213419 0.000799333 0)
(-2.78598e-05 -4.4106e-06 1.42424e-22)
(-0.0637574 0.140155 0)
(1.72423e-05 -9.96231e-05 9.87425e-22)
(0.00251011 -0.0060525 3.41598e-21)
(0.00560755 9.80095e-05 -6.78003e-21)
(0.000129481 6.21209e-05 0)
(-5.02226e-05 -3.40851e-06 -3.10787e-23)
(1.19015e-05 5.87492e-05 -2.84738e-21)
(-8.92761e-05 -1.21364e-05 2.88786e-22)
(-0.0141386 0.00892994 1.34149e-21)
(-0.0185677 0.041015 -7.28858e-21)
(0.0791552 -0.0753196 -6.88004e-21)
(0.00803637 0.00195142 -2.81634e-21)
(-0.00325693 0.00244953 0)
(-0.0184642 0.0129889 -2.98531e-21)
(-0.059164 -0.0952752 -2.55919e-21)
(7.39891e-05 -0.00214183 -2.92006e-23)
(0.0632238 0.0925559 0)
(0.000916976 -0.000550109 2.18019e-21)
(0.0302094 0.0699657 1.25757e-21)
(-6.85123e-05 3.67186e-05 2.83681e-22)
(1.55426e-05 5.72639e-05 5.49646e-22)
(-3.64234e-05 1.80622e-06 0)
(-0.0152811 0.0996569 0)
(-0.00470851 -0.208511 1.60563e-21)
(-0.0263065 0.0102584 -1.4887e-20)
(-0.0180585 0.00813003 2.08029e-21)
(0.107327 -0.0591934 5.56994e-21)
(-0.00347783 0.242019 -1.59917e-21)
(0.0312897 0.0318778 -1.61539e-21)
(0.000127744 -4.09491e-07 1.91775e-21)
(-0.00321687 -0.00061704 0)
(0.000121917 5.57971e-05 7.49402e-22)
(-0.0657052 -0.09135 3.6451e-21)
(-5.40843e-05 6.51717e-06 0)
(0.0772142 0.0774034 -7.08201e-21)
(-0.0430408 -0.0363808 0)
(0.0245086 0.0117925 -1.8971e-22)
(-0.0132262 -0.0106835 0)
(0.000362802 -0.00207497 1.97523e-21)
(0.0170218 -0.00621433 -1.53898e-21)
(-0.0332086 -0.0644409 -2.22982e-21)
(0.131437 -0.129898 1.83002e-20)
(-0.000100092 -3.95408e-05 -3.02933e-23)
(0.00246418 0.00119951 0)
(-0.00060939 0.00602225 -3.58608e-21)
(-0.00596634 0.0186996 6.13105e-22)
(8.65084e-06 -8.29476e-05 4.64752e-22)
(0.000174699 0.000212317 3.94591e-21)
(0.00134652 -0.00050052 4.91581e-21)
(-0.0165276 -0.0065604 0)
(0.0131998 0.00543075 0)
(0.0455015 -0.151016 0)
(-4.23345e-05 -5.4381e-06 1.80299e-21)
(-1.23537e-05 -0.00012339 4.02485e-21)
(-0.113235 -0.100348 3.23098e-22)
(-0.00483997 0.00199697 2.38517e-21)
(-6.34791e-05 -0.000108732 6.70689e-23)
(0.00903544 -0.331198 0)
(7.31646e-05 1.37335e-05 -2.7431e-21)
(-0.00156835 -0.000725504 -6.78048e-22)
(3.46863e-05 -1.78561e-05 1.01019e-21)
(-0.0216558 0.00170156 -4.29303e-21)
(0.000156819 0.000512845 -2.30597e-21)
(-4.54543e-05 -0.000129565 -4.70131e-23)
(-1.9909e-05 -0.00185725 1.82612e-21)
(-0.00684034 -0.0609981 -1.49821e-21)
(0.000126693 0.000107094 0)
(-0.000164529 0.00228321 0)
(7.54933e-05 -1.15158e-05 -2.78079e-21)
(0.0114743 0.000464358 1.64321e-21)
(0.0330983 0.0142511 1.08403e-21)
(1.93296e-05 4.31184e-07 0)
(0.000124653 2.82333e-05 1.70552e-21)
(3.74978e-05 5.68654e-07 0)
(3.54838e-05 -1.13472e-06 -2.50313e-21)
(0.00144243 -0.276651 1.2311e-20)
(0.000204073 5.82788e-05 0)
(0.027382 0.0611069 4.37769e-23)
(0.000103825 5.17538e-05 -3.79321e-22)
(-3.65534e-05 -7.38016e-06 5.35864e-22)
(0.0644075 -0.0805837 4.90667e-21)
(-0.0148166 -0.0091907 -1.21945e-21)
(0.000110859 4.60681e-05 -4.05701e-22)
(0.0134094 -0.00107162 0)
(0.000451743 -0.00226124 -4.95848e-21)
(0.000339809 -0.10081 -1.21518e-21)
(-0.0785899 -0.27917 0)
(1.36708e-05 -0.000165165 0)
(0.00382486 -0.165205 -2.21975e-21)
(0.000119863 4.33379e-05 0)
(-0.00481874 0.0187461 0)
(0.000146645 4.35349e-05 0)
(0.00236212 -0.213741 -1.39502e-20)
(-6.58014e-05 2.20116e-05 2.50558e-22)
(0.0207154 -0.032193 -1.16047e-20)
(-0.0209033 -0.0664918 4.01603e-20)
(-7.59909e-05 7.02268e-05 -1.82148e-22)
(0.0123348 -0.00455594 -3.55019e-21)
(-0.0394568 -0.134872 9.87761e-21)
(0.0125357 0.00254739 -8.76881e-22)
(0.00289154 -0.0956699 -1.76365e-21)
(6.95777e-05 -1.41169e-06 2.1698e-21)
(-0.0152958 0.193585 -1.72399e-20)
(0.000111287 1.68311e-06 -2.20519e-22)
(3.33874e-05 -5.41151e-05 1.20996e-21)
(6.47934e-05 -7.19971e-05 -1.21362e-21)
(0.000104838 0.000145731 0)
(-0.0374284 -0.00182631 0)
(-0.00519067 0.00158325 6.60064e-22)
(-0.00702588 -0.01197 -7.01402e-21)
(-0.0453165 -0.0227622 1.09115e-21)
(0.0387478 0.00313886 -1.28125e-20)
(1.23764e-05 -0.000182214 0)
(-0.0808995 -0.0120128 0)
(-0.0123525 -0.205076 2.78665e-22)
(0.00167461 -0.000542548 7.21698e-22)
(0.000779877 0.00132887 -2.5884e-23)
(0.0136762 -0.0784332 1.40182e-21)
(0.0226392 0.0589185 -5.30533e-21)
(0.00226519 -0.0237258 0)
(8.77682e-05 1.74559e-06 0)
(0.00302426 -0.239533 -6.29708e-21)
(-0.0660347 -0.284778 -1.01275e-21)
(-0.0915214 -0.256889 2.11034e-20)
(-0.00427816 0.00037289 5.89221e-21)
(0.0137368 -0.00643615 7.04038e-21)
(0.0139185 -0.0619297 -2.74524e-21)
(0.019933 -0.00127474 -1.27987e-22)
(0.0603101 -0.100434 8.66948e-21)
(0.0379686 -0.00366901 6.58841e-21)
(0.0250314 0.11855 6.2314e-20)
(-0.000117603 0.000717189 -3.79711e-21)
(0.00985128 0.127211 -6.48495e-20)
(-0.000671589 -0.0297659 7.15899e-23)
(-6.49309e-05 2.6011e-05 2.82354e-22)
(0.0165116 0.00446867 -5.26425e-22)
(-0.00516968 0.0008195 0)
(-0.0121286 -0.00672263 -2.11986e-21)
(-5.32927e-05 -0.000215108 1.10272e-21)
(0.00015116 3.67925e-05 -1.00032e-21)
(5.10397e-05 -6.73013e-06 3.0162e-21)
(0.000153118 -0.000103692 1.86157e-21)
(-0.0114847 0.0161027 0)
(-0.0114674 0.0189724 3.41377e-21)
(0.0226331 -0.270878 2.14316e-19)
(0.0444922 -0.182954 -1.03808e-19)
(2.23614e-05 -6.45835e-06 -1.06434e-21)
(-0.114709 -0.0577315 1.61362e-21)
(0.00692099 -0.017582 -1.82243e-21)
(0.0755452 -0.00763966 -2.01041e-21)
(-0.0158733 -0.155373 3.88142e-23)
(-1.68761e-06 0.00233859 1.09223e-22)
(-7.64382e-05 -9.04455e-05 -6.14806e-23)
(2.00535e-05 5.3537e-05 0)
(-0.00220359 -0.0157948 0)
(-0.0797356 -0.0239279 0)
(0.000559405 1.30935e-05 1.37514e-22)
(0.00160381 -0.00375741 -2.70621e-21)
(0.00530343 -0.0131831 0)
(-6.00352e-05 7.71875e-05 0)
(-0.0264184 0.0224929 -2.59538e-21)
(-0.0212943 0.0324408 5.73886e-21)
(0.0730979 0.073889 -1.37061e-20)
(-0.0168831 -0.00315783 -2.92385e-22)
(-0.036766 -0.00219938 0)
(-0.00148965 -0.0274298 -2.25876e-21)
(0.000119491 3.83995e-05 1.65609e-21)
(0.000126421 8.61576e-05 0)
(-0.0940491 -0.374524 -3.94424e-20)
(0.0041027 -0.0279859 -1.7751e-21)
(0.00157196 -0.00958199 -4.10072e-21)
(-5.60066e-06 0.00193803 5.63929e-21)
(0.0440951 -0.0160806 0)
(-4.6845e-05 -2.29766e-05 5.6855e-23)
(0.000121394 -1.26947e-05 1.25313e-21)
(0.0484046 0.100397 0)
(-5.87271e-05 6.70947e-05 2.80715e-22)
(-9.8112e-05 -0.000116111 -1.08213e-21)
(-4.72406e-05 -6.92337e-05 0)
(6.70461e-05 9.87181e-06 -1.22515e-21)
(-0.000584628 -0.0301245 6.68171e-22)
(-0.0132266 0.0124331 9.56292e-21)
(-0.0129859 0.00724124 0)
(-5.39811e-05 5.28684e-05 -2.76052e-22)
(-0.232798 0.353964 2.53658e-21)
(0.0503746 -0.0666675 -9.93927e-21)
(7.44842e-05 -1.03472e-06 0)
(-4.4112e-05 -1.7397e-05 0)
(-0.000275871 0.000161043 -7.63677e-22)
(7.72184e-05 6.61254e-06 1.30286e-21)
(0.0789152 -0.207422 0)
(0.0137822 0.0812999 -1.51323e-20)
(0.00489587 0.0283132 2.22296e-20)
(-0.0887178 -0.244846 0)
(-0.00507093 0.253957 1.8436e-20)
(0.00014659 0.00181191 -3.06321e-21)
(-0.0105115 -0.0048066 -4.01746e-21)
(-0.020432 -0.00864789 2.11604e-21)
(-0.00696791 -0.00101305 1.6337e-23)
(0.00041807 0.0024014 3.14798e-21)
(-7.95973e-05 -8.0505e-05 6.19422e-23)
(-0.00180353 0.0010696 0)
(0.00530734 -0.00533888 -4.75773e-21)
(-0.0182291 -0.0565078 1.31242e-20)
(-0.0158923 0.408708 0)
(0.000922425 -0.00368254 -3.05525e-21)
(0.00281841 -6.29162e-05 0)
(2.89096e-05 3.45863e-05 -1.61602e-21)
(-0.00103943 -0.00731663 -6.95258e-21)
(-0.00172548 0.000728315 0)
(0.00656977 -0.0644652 2.1721e-21)
(-0.00763437 0.00231632 0)
(0.000101778 5.30267e-05 1.80543e-21)
(0.0132921 -0.000171307 2.95902e-21)
(1.36054e-05 -7.74561e-05 9.83645e-22)
(0.0011942 0.000921791 5.66003e-22)
(-0.0281103 0.0133459 2.73281e-20)
(0.00014849 7.46465e-05 5.86874e-22)
(0.000124167 5.38715e-05 2.44683e-21)
(-0.000531854 -0.0140827 0)
(0.000165504 2.65726e-05 3.43632e-22)
(-0.00926699 0.0149685 -7.85166e-21)
(0.00163616 0.0943667 0)
(-0.0233522 0.00463506 -2.14258e-21)
(-0.00343029 -0.00768107 -3.70994e-21)
(0.002699 -0.00976019 0)
(3.16804e-05 2.82656e-05 1.62137e-21)
(0.112739 0.0760356 3.35416e-21)
(1.77929e-05 0.0143905 -1.07809e-22)
(-0.0681609 -0.253917 0)
(0.000424095 -0.000408543 -2.79761e-23)
(-1.2376e-05 1.57189e-06 1.33616e-21)
(-0.0142726 -0.0106287 -1.0614e-21)
(0.00134081 0.000599442 -4.85607e-21)
(0.0991447 -0.156419 0)
(-0.00815678 -0.018781 3.21949e-21)
(-0.0604957 -0.279713 -3.89732e-21)
(-0.0340757 -0.357751 -7.78992e-20)
(2.05114e-05 -8.95339e-05 -5.24146e-22)
(-0.00693112 -0.0123596 0)
(0.000205739 -0.000406043 0)
(7.04199e-05 2.06074e-05 1.37416e-21)
(-6.35291e-05 1.33202e-05 -1.385e-22)
(6.64749e-05 9.23063e-06 3.69976e-21)
(0.000313938 -0.00116133 0)
(0.00945847 0.000757939 3.23913e-21)
(-0.018082 0.00325932 7.07638e-21)
(-5.36675e-05 4.19957e-05 2.70477e-22)
(5.35696e-05 0.161682 -1.54019e-20)
(-0.0116729 -0.0723898 -4.18577e-20)
(-0.00488775 0.174301 0)
(5.91364e-05 4.79181e-05 0)
(-6.75312e-05 -1.47609e-05 -9.46154e-23)
(-7.49549e-05 7.1546e-06 -1.21935e-21)
(-0.0262059 0.0433642 0)
(-0.283351 0.167446 1.5023e-21)
(-0.000800792 0.000509094 -8.26368e-21)
(0.00129192 0.000968208 -1.42338e-21)
(0.000268626 -0.000431472 0)
(-2.72533e-05 -7.23521e-06 1.02609e-21)
(2.21807e-05 -5.88799e-06 -5.30478e-22)
(3.81465e-05 5.94693e-06 -4.36841e-21)
(-0.00796991 -0.0257863 -6.74333e-21)
(0.0466449 0.227294 0)
(0.000161147 2.8813e-05 -3.4791e-22)
(-5.10902e-05 2.23357e-05 0)
(9.65143e-05 0.000172936 0)
(4.64952e-05 -1.00203e-05 3.1864e-21)
(0.128516 0.0325841 -2.90294e-21)
(0.0344019 -0.0290866 2.41947e-21)
(6.00364e-05 -0.0077312 2.99969e-21)
(-0.0659635 -0.113491 0)
(-0.0074565 0.124735 5.83841e-22)
(0.000125543 5.40347e-05 -7.74082e-22)
(-0.00829972 -0.0108741 4.22851e-21)
(0.131081 -0.107412 -3.55779e-20)
(0.000242174 0.00256754 0)
(0.114293 0.0168768 1.02405e-20)
(0.000236268 1.78561e-05 7.83306e-22)
(0.0053497 0.00252959 -3.30615e-21)
(-0.000989588 0.000628104 7.4275e-21)
(0.0066344 0.000893321 0)
(0.0267472 -0.052113 -8.33921e-22)
(0.000108068 4.90762e-05 3.98247e-22)
(0.0165807 0.00188516 -1.67314e-21)
(-5.10093e-05 4.58358e-06 0)
(-3.48646e-05 0.00153206 -1.40273e-21)
(-0.0131094 -0.0125567 -3.91669e-21)
(9.76417e-06 0.000131754 4.55167e-21)
(0.00114793 -0.000195012 -5.39088e-21)
(0.0395641 -0.0212132 4.76375e-21)
(3.28156e-05 -6.2205e-05 -2.4537e-21)
(0.00137291 -0.00067454 0)
(-0.0577359 0.302628 -5.42563e-21)
(0.124044 0.165524 1.8532e-21)
(-0.00741614 0.00336085 4.23228e-22)
(-0.0647323 0.0279816 0)
(-0.0471641 -0.0365961 -9.36165e-22)
(-5.24503e-05 -7.3798e-05 -8.88886e-23)
(6.2759e-05 4.52508e-05 0)
(0.051771 -0.0992575 1.50617e-20)
(0.00552151 -0.0120096 -1.18913e-21)
(-0.00511799 0.0343753 -3.83087e-21)
(-0.00546389 -0.0203547 -5.32939e-21)
(-5.25396e-06 -0.000107553 -7.59226e-22)
(5.75233e-05 6.38045e-06 0)
(-6.90867e-05 3.27702e-05 2.13992e-23)
(-0.00745964 0.300464 0)
(0.0127099 -0.0252917 0)
(-0.0019592 0.000290096 -4.01759e-21)
(-8.50114e-05 -6.58978e-05 0)
(0.0310704 0.0283367 1.11713e-21)
(0.000806164 0.000395442 0)
(-7.49709e-05 8.57001e-06 9.09179e-22)
(-0.112184 -0.0753407 -1.92992e-20)
(0.0867821 -0.0816289 -5.62552e-22)
(0.0172715 -0.0395758 0)
(-7.75374e-05 7.1142e-05 -7.05488e-24)
(0.000158229 1.95428e-05 6.09458e-22)
(-0.002173 -0.00619913 3.0994e-21)
(0.0047777 0.0145375 0)
(0.00702445 -0.00926193 0)
(-0.00126152 0.000708505 0)
(-0.00703869 -0.022798 1.48061e-22)
(0.000114723 7.7883e-05 1.44935e-21)
(0.0281423 0.0550863 1.26597e-21)
(0.0359484 0.0528715 3.77747e-21)
(0.0276921 0.0143597 -3.62185e-21)
(0.000378897 -0.00109585 2.59693e-21)
(-0.0724589 -0.280729 -3.02611e-22)
(0.00756425 0.00399067 -9.84152e-21)
(0.000629951 0.00296931 0)
(0.0192377 -0.0180162 -2.95932e-21)
(-1.24629e-05 1.4079e-06 1.36955e-21)
(5.83297e-05 -2.22764e-06 2.06612e-21)
(8.56211e-05 0.000575505 2.33124e-21)
(3.21154e-05 1.16584e-05 -1.43469e-23)
(-0.125068 -0.143994 0)
(0.00453644 -0.00270214 -1.79606e-21)
(-0.01605 -0.005252 -9.65342e-21)
(-0.0125853 0.00406773 -4.17802e-22)
(0.0211656 0.0154383 -2.70511e-21)
(2.45458e-05 4.48917e-05 -1.14455e-21)
(-0.0649914 0.292676 3.53321e-21)
(4.78227e-05 -1.24566e-05 0)
(0.00813708 0.00230543 -1.69903e-21)
(-6.41259e-05 1.04213e-05 -3.68435e-22)
(0.000128228 4.11349e-05 -3.21472e-25)
(9.75387e-05 -1.98517e-05 0)
(0.00624074 -0.0309448 3.7258e-21)
(5.84156e-05 -2.32892e-05 -3.00269e-21)
(-8.29173e-05 2.51936e-05 3.08791e-23)
(-0.0805491 -0.105002 2.64289e-21)
(0.000130891 0.000101173 -2.13773e-22)
(-0.00391585 -0.00871208 2.74441e-21)
(-6.29272e-05 1.20982e-06 0)
(-0.00155298 -0.000673259 3.1741e-21)
(-0.00235468 -0.00168124 0)
(0.139188 0.021534 0)
(0.0422903 -0.0764614 5.41861e-21)
(2.77924e-05 7.19814e-06 9.96936e-22)
(-0.0898713 0.179133 1.87042e-21)
(-0.0774604 -0.102132 -6.64496e-22)
(0.000202508 6.69067e-05 -1.74092e-23)
(0.0107405 -0.0316211 -3.24117e-21)
(-1.80241e-05 0.00151007 -2.52869e-23)
(3.38778e-05 -1.35377e-05 0)
(0.0138075 0.0134148 -6.26533e-22)
(-0.0834596 0.0258706 0)
(-0.0686611 0.169939 -1.1386e-21)
(-0.000380056 -0.00162665 3.75442e-21)
(2.33069e-05 -9.80282e-06 0)
(-5.155e-05 1.08607e-05 1.09958e-22)
(-0.0289745 -0.137139 -2.88427e-21)
(0.0354329 0.0154889 3.02167e-21)
(-0.0421908 -0.0208895 0)
(-0.00290973 0.000220435 0)
(0.0168541 0.0101665 0)
(8.41438e-05 3.1569e-06 -6.41962e-23)
(-0.00155252 -0.000190832 0)
(0.00317318 -0.0018754 -6.17804e-21)
(0.0045896 -0.209958 -4.3736e-21)
(-0.00921098 0.0199918 2.00169e-21)
(-0.0277566 0.38389 0)
(0.000152092 2.1916e-05 -1.54479e-21)
(-0.00704445 0.0182893 -2.07301e-21)
(-0.00639165 -0.00285197 0)
(-0.0241918 -0.00369843 -7.41475e-22)
(-0.00189069 0.000701966 0)
(-0.13551 0.229477 9.22506e-22)
(-0.0503599 -0.018578 -1.46133e-20)
(0.000125797 0.000130545 -1.3112e-22)
(0.0795011 -0.221185 0)
(0.0890664 0.0582345 -2.89728e-20)
(-0.175226 0.00826975 0)
(0.143472 0.132861 0)
(0.00550027 -0.0614573 -5.18774e-21)
(-0.0402332 -0.104846 8.29693e-23)
(0.00918067 -0.00761413 -5.75216e-21)
(3.46003e-05 6.39169e-06 -1.05923e-21)
(0.00895497 -0.00415209 -3.85396e-21)
(0.0431578 -0.139079 -4.10042e-20)
(0.0228666 -0.250995 -6.92562e-21)
(-1.25433e-05 9.68549e-05 0)
(-4.16798e-05 -1.20053e-06 -1.37346e-23)
(-0.00424326 -0.000107865 -1.30665e-22)
(-0.024711 -0.0305812 0)
(-8.47572e-05 1.16346e-05 0)
(0.018841 -0.00486828 1.80276e-20)
(-8.09199e-06 -9.4141e-05 7.68002e-22)
(0.000180078 0.000123512 0)
(-0.125435 -0.131329 -1.32804e-21)
(0.00277274 -0.00723154 2.63226e-21)
(-0.043881 -0.0492236 1.1515e-21)
(7.25021e-05 2.458e-05 0)
(7.57206e-05 1.65993e-05 -7.46273e-22)
(0.00805567 0.00392765 -1.25767e-20)
(-0.0100349 -0.0246296 7.7933e-21)
(0.00103838 -0.00858454 3.7975e-21)
(-0.00249095 -0.00177585 3.96986e-21)
(-0.096628 -0.121444 0)
(0.061724 0.0784054 6.46948e-21)
(-0.225723 0.162858 0)
(-0.00338772 0.00343026 1.04697e-21)
(-0.000722891 0.00225416 -5.26579e-21)
(0.000170061 0.000198711 -1.53986e-21)
(0.000141299 5.80449e-05 0)
(0.117198 0.0437019 2.47362e-20)
(-0.000129443 0.000946145 0)
(-0.0394022 -0.00114538 0)
(-0.0134095 0.0133806 -9.41344e-21)
(0.000151104 0.00205548 0)
(-0.0699579 -0.194966 -5.85808e-21)
(-0.175084 -0.0241422 0)
(0.00851682 -0.0146457 2.1518e-21)
(0.000115446 1.36877e-05 0)
(0.000208341 0.00167541 -2.85493e-21)
(7.41764e-05 -1.37373e-05 0)
(-0.00215133 -0.00844388 1.14176e-20)
(0.00110816 -0.000356395 -3.19996e-21)
(0.0973291 0.0971597 0)
(6.0803e-05 1.693e-06 -5.91166e-22)
(-0.0306944 -0.00488303 2.26385e-21)
(-8.4239e-05 3.78667e-07 1.49982e-22)
(-0.00255964 -0.00133773 3.4214e-21)
(0.000120067 2.13785e-05 2.37718e-21)
(0.0493387 0.0632654 -1.01645e-20)
(7.64436e-05 0.00186163 -4.01816e-21)
(0.000291045 0.00167082 -2.96937e-22)
(-0.0511505 -0.110089 6.2165e-21)