/*--------------------------------*- C++ -*----------------------------------*\
| =========                 |                                                 |
| \\      /  F ield         | OpenFOAM: The Open Source CFD Toolbox           |
|  \\    /   O peration     | Version:  v2012                                 |
|   \\  /    A nd           | Website:  www.openfoam.com                      |
|    \\/     M anipulation  |                                                 |
\*---------------------------------------------------------------------------*/
FoamFile
{
    version     2.0;
    format      ascii;
    class       volScalarField;
    location    "100";
    object      k;
}
// * * * * * * * * * * * * * * * * * * * * * * * * * * * * * * * * * * * * * //

dimensions      [0 2 -2 0 0 0 0];


internalField   nonuniform List<scalar> 
13851
(
0.000153122
0.0124281
0.000192357
0.000151874
0.000188179
0.00333929
0.000145296
0.000177857
0.000137055
0.000210107
0.0058317
0.00512987
0.00913323
0.0285855
0.000142819
0.000169273
0.000156617
0.000163293
0.000982674
0.000136972
0.000151362
0.000190924
0.000143147
0.000148406
0.000144755
0.000178973
0.000154849
0.00568606
0.000152729
0.000154955
0.00400716
0.000157249
0.000191784
0.00801545
0.000148493
0.000216188
4.78281e-05
0.00020739
0.000215378
0.0073577
0.000143211
0.000129505
0.0108158
0.00634618
0.00662457
0.0337517
0.00742339
0.00407692
0.000155302
0.000441473
0.00018827
0.000205607
0.0227678
0.000144672
0.000151783
0.000129576
0.000141368
0.0149284
0.000154504
0.000145883
0.00017199
0.0320246
0.000211073
0.000192028
0.0260369
0.000157681
3.4039e-05
0.00633898
0.000167114
0.000163288
0.0158073
0.00424667
0.00883881
0.000145575
0.000139643
0.000139673
0.000190062
0.0159053
0.000176839
0.0183967
0.000148109
0.0068933
0.000142632
0.0301025
0.000210708
0.00353439
0.000408381
0.0253215
0.00015732
0.000139241
0.000216299
0.000157974
0.00532103
0.00016075
0.000156917
0.000146917
0.000188871
0.0293859
0.000427161
0.000146961
0.0184537
0.000178551
0.00014973
0.000153867
0.000142779
0.000295691
0.0001812
0.000128489
0.0145441
0.00463845
0.000148762
0.000139684
0.000195536
0.000151315
0.00014872
0.00277116
0.03003
0.000128712
0.000152696
0.000154298
0.0108869
0.00015367
0.0125736
0.00396369
0.00360075
0.000143677
0.00309061
0.000177702
0.000150694
0.000204336
0.000142966
0.000137084
0.0188656
0.000142605
0.00469867
0.000138803
0.000128806
0.0030412
0.0286991
0.0359344
0.0181319
0.000152303
0.000149692
0.000133086
0.000153057
0.00643101
0.000211929
0.000204593
0.000145121
0.00604567
0.00019022
0.0001516
0.0272791
0.00014186
0.000152035
0.000152868
0.000140322
0.00015259
0.00020535
0.000187688
0.000130332
0.000160282
0.0187349
0.000136955
0.000160747
0.000131217
0.00024324
0.000167502
0.000150311
0.0215674
0.0139166
0.000134322
0.000140509
0.0357859
0.000136857
0.00509075
0.000176831
0.000149416
0.000920908
0.000128701
0.000158667
0.00432269
0.000142509
0.00019209
0.000129217
0.000143794
0.000158754
0.000147454
0.000191405
0.000234653
0.00687282
0.023999
0.000141094
0.000167399
0.0307571
0.00015162
0.000148369
0.00422019
0.000148563
0.000139988
0.000144834
0.0344238
0.000158256
0.000141787
0.000206476
0.000142637
0.0177296
0.000156841
0.0278578
0.000129098
0.0296595
0.000149269
0.0053006
0.000128256
0.000132291
0.00501232
0.000202791
0.0331015
0.000142211
0.0288008
0.000157162
0.000148454
0.0282806
0.000203076
0.0356796
0.000144903
0.00016324
0.00014492
0.0264664
0.000128291
0.000177945
0.00577039
0.000134247
0.000140578
0.000185783
0.000179214
0.0177101
0.0313544
0.000132921
0.000141911
0.00267309
0.006108
0.000133998
0.000212106
0.000138319
0.0351872
0.000179101
0.00506538
0.000153098
0.000158437
0.000184071
0.00666343
0.000148489
0.000153277
0.000179657
0.00338988
0.000231446
0.00310102
0.0056452
0.000143048
0.000132458
0.000162097
0.0134778
0.000136469
0.0083108
0.000151598
0.00014831
0.000160056
0.0263568
0.000949474
0.000180994
0.000152051
0.0135308
0.000175348
0.000168184
0.000137196
0.00675441
0.00108791
0.0384144
0.00545305
0.000133985
0.000128718
0.000142277
0.000178394
0.014024
0.00747517
0.000138294
0.000142973
0.0137856
0.00642974
0.000210418
0.000153857
0.000146027
0.00016932
0.00692357
0.00584732
0.000160128
0.0028113
0.0001374
0.0349779
0.000159751
0.000156387
0.0368022
0.000146424
0.00035305
0.0311748
0.000138038
0.00017414
0.000160955
0.000153375
0.0265453
0.000160439
0.000148151
0.0293116
0.000129995
0.000158902
0.000149956
0.0361063
0.000203992
0.000142216
0.000179483
0.000142475
0.0116905
0.00026099
0.000142627
0.000143203
0.000203161
0.000162417
0.000151741
0.000142991
0.000146218
0.000147936
0.00586893
0.0238708
0.0246374
0.000170958
0.03449
0.0259952
0.000142422
0.00016806
0.000211956
0.000202761
0.000202762
0.000201546
0.000838527
0.000163081
0.01281
0.0325337
0.000143027
0.00085594
0.00109813
0.00128369
0.000151711
0.00021036
0.0253621
0.000140824
0.0116868
0.000143123
0.000142558
0.000137031
0.000128489
0.000139593
0.0319077
0.00853909
0.000143136
0.000172949
0.000130577
0.00244433
0.000176719
0.0103586
0.0227658
0.000143319
0.000210805
0.000161231
0.00909061
0.000142158
0.000128855
0.000188625
0.0139419
0.000143349
0.023852
0.000156737
0.000204449
0.0208469
0.00580189
0.00564575
0.000163473
0.000137639
0.000149077
0.000168605
0.000179202
0.0287747
0.000167428
0.0342457
0.031513
0.000130689
0.000143143
0.023983
0.0205087
0.00358807
0.0300338
0.000219022
0.000162104
0.000146942
0.0239623
0.000135458
0.000168366
0.000159537
0.000144606
0.000143652
0.000137754
0.000131091
0.000191262
0.000196153
0.0155296
0.000165065
0.000180886
0.000194307
0.00655575
0.000160087
0.00108286
0.000155849
0.00449621
0.000128696
0.000137532
0.0001458
0.000408253
0.00645648
0.000201849
0.00018871
0.0124021
0.00804778
0.00031656
0.000157
0.000186388
0.000141916
0.00653791
0.000141903
0.00315427
0.00539122
0.000191174
0.0251472
0.000149945
0.000794069
0.0053384
0.0158956
0.000128287
0.000163811
0.000177504
0.00129925
0.000135007
0.000148039
0.000188655
0.000204034
0.000171108
0.0258083
0.000144723
0.000143842
0.0203213
0.000161477
0.000128529
0.0173414
0.000137544
0.000152864
0.000135775
0.000177824
0.000151569
0.000128844
0.000149048
0.0288389
0.000142761
0.000169316
0.000138156
0.000174859
0.00226027
0.000152208
0.00014305
0.000151475
0.000151391
0.0069202
0.000148144
0.000944129
0.000142467
0.00014495
0.0258288
0.0238278
0.000142893
0.000178943
0.000160316
0.00552497
0.0323755
0.000143917
0.0090058
0.000142428
0.000188622
0.000145118
0.0275467
0.000129545
0.0223827
0.000239191
0.000129633
0.000177316
0.0252611
0.00017941
0.00827442
0.00015259
0.00782672
0.000155517
0.00013641
0.000137287
0.000144602
0.0247206
0.000185216
0.000206698
6.96576e-05
0.000202479
0.00013075
0.0257909
0.00626309
0.000158879
0.000160625
0.00366623
0.00449478
0.0262915
0.000151458
0.0271389
0.0331462
0.0336251
0.000161329
0.000186353
0.00360258
0.000966428
0.00649584
0.00438127
0.0108474
0.000153015
0.0128461
0.00432449
0.000128773
0.000827075
0.000185966
0.0194894
0.000153498
0.000141414
0.000140047
0.000142216
0.000190691
0.000173625
0.0255114
0.0261799
0.000137673
0.0172146
0.02365
0.000377838
0.00556941
0.000168781
0.000128153
0.00013728
0.00102291
0.0275803
0.000152269
0.000195412
0.000215986
0.000129451
0.00027471
0.00372532
0.000108264
0.000200334
0.0259012
0.00457517
0.000142679
0.00014474
0.0113361
0.031429
0.000206094
0.000167221
0.000219594
0.000128652
0.000140495
0.00462973
0.00012919
0.000153306
0.000128569
0.000137658
0.00507949
0.000190745
0.000175586
0.000129092
0.0217416
0.00503508
0.000137632
0.00013929
0.000136777
0.00014826
0.0110471
0.00452148
0.00441475
0.0321693
0.00874104
0.000165654
0.0158105
0.0254865
0.000166454
0.000167588
0.000128122
0.00014874
0.000170481
0.0270904
0.0135372
0.000194934
0.000162762
0.000136542
0.000168853
0.000148422
0.00771243
0.000187324
0.000142348
0.000171386
0.000135008
0.000159614
0.000202975
0.00014553
0.000141669
0.000176896
0.000145543
0.00018872
0.000327822
0.000201756
0.000169435
0.000207362
0.000136374
0.000646172
0.000200699
0.0313898
0.000148989
0.000147367
0.0114051
0.000154236
0.0202431
0.0332621
0.0315617
0.0123265
0.000135438
0.00538114
0.000134881
0.000137621
0.000129477
0.000137727
0.000148196
0.000166803
0.000174839
0.000128879
0.0228341
0.000244472
0.0238126
0.000139368
0.000130564
0.000138823
0.000208201
0.0288794
0.000180396
0.000160008
0.000135295
0.00014552
0.000143857
0.000141035
0.000221489
0.0163356
0.000145264
0.000128771
0.000144739
0.000140917
0.000249228
0.0223062
0.000169639
0.0283533
0.00645248
0.000141456
0.000206016
0.0166417
0.000168778
0.00658146
0.000148056
0.000162163
0.000179838
0.000163453
0.00544488
0.000142764
0.0032081
0.000142431
0.000163256
0.0276292
0.000140646
0.000152681
0.000219996
0.000136503
0.000157798
0.0139435
0.0400834
0.000186508
0.00550449
0.00703691
0.000128389
0.000139125
0.0266643
0.000213234
0.000184065
0.0330031
0.000136185
0.000164905
0.0001289
0.00944125
9.42523e-05
0.000157734
0.000147636
0.00269273
0.000155282
0.000138565
0.0145023
0.00466809
0.0268566
0.000129847
0.000145091
0.0160663
0.0158688
0.000211328
0.000147199
0.0145271
0.000142707
0.00390566
0.000212361
0.000193163
0.000156991
0.0325464
0.000170111
0.000151259
7.37592e-05
0.000146653
0.000158205
0.000152008
0.000136193
0.0183543
0.000167145
0.000201137
0.000173614
0.0015282
0.000136767
0.01354
0.000151397
0.000169341
0.000131447
0.000141051
0.000143315
0.0310995
0.000139807
0.000129161
0.0039775
0.000144963
0.0197671
0.000143932
0.000148914
0.00018827
0.000132876
0.00579432
0.000139058
0.0135881
0.0294646
0.00014832
0.028106
0.000162921
0.000135909
0.000374685
0.0114889
0.0105763
0.000158735
0.000138722
0.000128598
0.00546853
0.00019675
0.000207308
0.000159324
0.000353385
0.000149119
0.000148008
0.000194954
0.0085129
0.000190737
0.0135339
0.000144866
0.000188982
0.00019238
0.0347866
0.000157401
0.0206857
7.1332e-05
0.000145116
0.0274038
0.000305548
0.0293909
0.0391878
0.0295223
0.00781162
0.000176813
0.00013606
0.000168057
0.0133217
0.0274803
0.000142603
0.000145517
0.000186364
0.0074565
0.000129714
0.0205647
0.000135949
0.000143198
0.0209465
0.0158426
0.00752379
0.000137551
0.00014268
0.0182285
0.000227699
0.000203909
0.000154732
0.0259298
0.000156189
0.0276223
0.00018073
0.000172425
0.000148195
0.000144964
0.011652
0.000178348
0.0194637
0.000279495
0.000167015
0.0192537
0.0291684
0.021261
0.000143401
0.000164045
0.000137522
0.000170322
0.000152432
0.0105219
0.000165137
0.0339835
0.000129623
0.000187534
0.000140885
0.000217341
0.000166265
0.000163636
0.0284638
0.000174271
0.000181266
0.000149148
0.000187375
0.00616033
0.000221786
0.000153493
0.0143056
0.000135918
0.0375321
0.00875951
0.000146301
0.0317376
0.0161145
0.0212158
0.00759989
0.000243198
0.0001424
0.0257362
0.000166028
0.00296948
0.0283921
0.000139383
0.000151227
0.00052119
0.00656231
0.0217543
0.000145072
0.000138434
0.00266522
0.027659
0.000200403
0.000157871
0.000151499
0.00884138
0.0288914
0.000193069
0.000129218
0.000176937
0.000136612
0.00015574
0.00318109
0.000147358
0.00630841
0.00609284
0.000143345
0.000150666
0.000142655
0.000152137
0.0162536
0.0244971
0.000163246
0.0204275
0.000140831
0.000163412
0.000141953
0.000136732
0.000145675
0.000143175
0.0218213
0.000142927
0.000179825
0.000143493
0.000159005
0.00332995
0.0142572
0.000152773
0.0128112
0.000212912
4.31335e-05
0.000167839
0.000167713
0.0170016
0.000159563
0.000175131
0.00915705
0.00590905
0.0237013
0.000173464
0.00564767
0.000148433
0.000172851
0.00017917
0.0219379
0.000142464
0.0266819
0.000138937
0.000139565
0.0312074
0.0001436
0.00398562
0.000157518
0.000137406
0.000223592
0.000137524
0.000142724
0.000137142
0.000147608
0.000221815
0.000139564
0.000234643
0.0277076
0.000200133
0.0387748
0.000144744
0.000151562
0.000153523
0.000142395
0.000137319
0.000191445
0.000148258
0.000138871
0.000147893
0.00014489
0.0195271
0.0161118
0.000219087
0.0297486
0.00019014
0.000140466
0.00214097
0.000162465
0.000139408
0.00567839
0.000268524
0.00514462
0.000140185
0.00719158
0.00761535
0.0203721
0.000134509
0.0117394
0.000166135
0.000154695
0.000138458
0.000136199
0.0171142
0.000268888
0.00746106
0.000140125
0.000142228
0.00302495
0.000146441
0.000322906
0.00841361
0.0141596
0.000428997
0.00786709
0.000144921
0.000142835
0.000207523
0.000174723
0.000153988
0.000222618
0.000174697
0.000148503
0.000150645
0.0188576
0.000139155
0.0189915
0.000565881
0.00421193
0.000235096
0.000151124
0.000134119
0.000146957
0.0076445
0.00649345
0.000134506
0.000154003
0.000139831
0.000190078
0.000130396
0.000139389
0.000148694
0.000166615
0.00010486
0.000176893
0.000169257
0.000143686
0.000179883
0.0160898
0.000149637
0.0229865
0.0158568
0.000192112
0.000131643
0.000174941
0.000141388
0.000143
0.000146524
0.0158533
0.000204171
0.00742207
0.00015408
0.00339394
0.000141837
0.000143633
0.000146526
0.00154736
0.00265726
0.000129999
0.000166245
0.000200319
0.0252524
0.000152106
0.00970094
0.00014941
0.0173497
0.000198681
0.0232607
0.000195419
0.000191358
0.000253048
0.0248796
0.00784732
0.0346807
0.000141314
0.000251613
0.000130262
0.000153693
0.000158216
0.000145932
0.0251871
0.000164206
0.000160765
0.00831449
0.000217217
0.00570592
0.000142339
0.000153831
0.000158549
0.000134878
0.000170903
0.00265567
0.00874713
0.0151024
0.000138933
0.000159626
0.000156795
0.00341222
0.0295654
0.000206788
0.000133982
0.00014777
0.0279763
0.00017845
0.00753439
0.0302467
0.000427364
0.000131431
0.00196291
0.000170429
0.000174896
0.000161994
0.0291439
0.00879935
0.00020143
0.00144563
0.000150079
0.000167262
0.000143231
0.0227143
0.000187096
0.0239494
0.0031973
0.000158041
0.000210043
0.000151556
0.0280762
0.000210171
0.00013917
0.00247569
0.0285665
0.00288019
0.0101511
0.000144988
0.000143083
0.0163816
0.0189867
0.0288642
0.000154051
0.000144746
0.000143327
0.0199115
0.000209045
0.000147513
0.000276299
0.000197658
0.0193898
0.00149647
0.00870669
0.000143022
0.0115572
0.000156
0.000142819
0.000208857
0.0307206
0.00014539
0.000138892
0.0116298
0.0268593
0.000142534
0.000138804
0.0266347
0.000138229
0.00191479
0.000138936
0.00514277
0.000143067
0.000180317
0.0151827
0.0289901
0.000150891
0.00705286
0.00585143
0.0215228
0.00201896
0.0171747
0.000533627
0.000140897
0.0122518
0.000152377
0.000142471
0.000134702
0.00462694
0.000141256
7.76665e-05
0.00013908
0.000152717
0.0152081
0.000191537
0.00425073
0.000152051
0.000167969
0.000137192
0.000165878
0.0012783
0.0245001
0.000138467
0.000185629
0.00589201
0.000146153
0.000136381
0.0269518
0.000167746
0.000171424
0.000206156
0.0406807
0.00298743
0.00108282
0.00857409
0.000708682
0.00512009
0.00638226
0.0156426
0.000185274
0.000132934
0.00020581
0.000140822
0.000140722
0.018199
0.0273604
0.000153022
0.0254816
0.000257026
0.0182431
0.000330011
0.000270949
0.000141951
0.00027507
0.000291686
0.000140364
0.00015122
0.030466
0.0278837
0.0126226
0.0245102
0.000175355
0.0364068
0.0310051
0.000165378
0.000145899
0.000140424
0.00716761
0.00013965
0.000215275
0.000151319
0.000149266
0.00015356
0.0167086
0.0316444
0.0186965
0.000147672
0.00240159
0.000156691
0.000162898
0.000139337
0.000139067
0.0144374
0.000160714
0.0259672
0.00821908
0.000241487
0.000202656
0.000143346
0.000177878
0.000146119
0.000208641
0.000148681
0.000151782
0.000147254
0.000151516
0.000211754
0.000149453
0.000170373
0.000140885
0.000171229
0.000179253
0.0171171
0.000140729
0.000177358
0.000146385
0.000238133
0.000170866
0.029465
0.00026361
0.000164883
0.000154002
0.000151783
0.000515725
0.000142425
0.00169304
0.000142839
0.00014056
0.000147615
0.0296193
0.000160049
0.000155911
0.000192756
0.000144326
0.000186008
0.0297084
0.0080532
0.000168891
0.000143255
0.000246992
0.000133267
0.00014126
0.000235639
0.0338179
0.000142749
0.000163714
0.00392989
0.00312389
0.000147822
0.000149147
0.0327371
0.000151223
0.000351811
0.000191637
0.0309664
0.000143286
0.000197151
0.000141703
0.0356797
0.000206005
0.000175197
0.000203451
0.0219916
0.00015042
0.0258128
0.0073314
0.00014624
0.0199326
0.00019219
0.000151528
0.0117251
0.000144679
0.000142869
0.000135595
0.000215639
0.000361271
0.000213567
0.000151894
0.000149868
0.000163024
0.00596217
0.000109615
0.0301556
0.00672719
0.000148943
0.000206357
0.000204413
0.0255712
0.000198454
0.00791124
0.000139781
0.000190303
0.000136387
0.00925592
0.000172353
0.000141641
0.0189706
0.000252677
0.000167204
0.000198104
0.000129156
0.0001434
0.000189304
0.000169809
0.00366755
0.000185045
0.000190255
0.000197636
0.000199412
0.0107331
0.000232493
0.0302309
0.000140952
0.000138746
0.000241484
0.0254656
0.0237213
0.00106292
0.000150482
0.0161729
0.00615387
0.000140898
0.000158648
0.000137925
0.000172983
0.00018778
0.000343007
0.0230003
0.000118741
0.000151335
0.0291358
0.0133924
0.000142934
0.000754581
0.0305169
0.0231212
0.000154274
0.00019023
0.000128227
0.000157313
0.00014027
0.000157578
0.0333175
0.0262577
0.0170385
0.0263964
0.000151007
0.00017009
0.000192586
0.000140155
0.000147412
0.000136238
0.0254988
0.000139319
0.0248646
0.00017293
0.000201688
0.000214456
0.000226165
0.0172115
0.00342093
0.000172498
0.000130885
0.000150544
0.00205925
0.000599413
0.000156364
0.00013765
0.00013658
0.000186791
0.000165254
0.000210158
0.017356
0.000150805
0.000135798
0.000203724
0.000206538
0.015888
0.00632849
0.000138906
0.000186924
0.000145751
0.0383537
0.000132355
0.0364299
0.000139419
0.000150581
0.000173596
0.000148103
0.000244266
0.000163725
0.000176827
0.0136489
0.0285226
0.000157284
0.000164302
0.000141796
0.00266294
0.0208314
0.000146087
0.000132809
0.0052205
0.000128513
0.0259435
0.000144351
0.000171436
0.000192506
0.00694871
0.00017331
0.000150108
0.000144911
0.000188608
0.0299034
0.000140936
0.0100524
0.0246951
0.0088527
0.000300813
0.000169069
0.0193243
0.000156827
0.000148061
0.000141825
0.00682289
0.00666657
0.0236982
0.0300278
0.0179466
0.000144535
0.000552731
0.000138834
0.0128125
0.00551597
0.0305518
0.0153955
0.00016048
0.0108538
0.00836609
0.000170765
0.000151898
0.000145425
0.0266444
0.000158289
0.000188334
0.000154272
0.00014665
0.00013673
0.000145468
0.0304582
0.000236031
0.000166476
0.0269779
0.00513342
0.000141664
0.000142272
0.000136405
0.000172245
0.0359195
0.000210199
0.000157963
0.000165479
0.00505172
0.000194901
0.000175196
0.0187659
0.000165394
0.0313244
0.000163268
0.000165455
0.000141963
0.000153912
0.000186173
0.00831183
0.00647418
0.029127
0.000190052
0.0274365
0.000156833
0.000155729
0.000144739
0.0162372
0.0267016
0.00598255
0.000267745
0.000153709
0.000143401
0.00014047
0.00014282
0.000136425
0.0192557
0.000163826
0.023843
0.000167865
0.0300855
0.00165378
0.0344521
0.000314317
0.000158042
0.0282389
0.000176467
0.022928
0.0295334
0.000136291
0.000249471
0.000160462
0.0116694
0.0111898
0.000171111
0.000239602
0.00598969
0.000153877
0.000193545
0.000164456
0.0293308
0.00851065
0.000154819
0.000144915
0.00648873
0.000304306
0.000203541
0.00172952
0.000205751
0.000173685
0.000141379
0.000288972
0.0328889
0.00020134
0.000164235
0.0303673
0.0349258
0.000139029
0.00014305
0.000155323
0.0298742
0.0291465
0.000142342
0.0202205
0.000149117
0.000140686
0.000146208
0.0252935
0.000131679
0.000341939
0.022324
0.000152359
0.000151687
0.000139466
0.0154345
0.000150543
0.0282773
0.000153901
0.0103377
0.000147697
0.000140862
0.000201436
0.0178325
0.00549528
0.000172261
0.0216257
0.000132946
0.000144588
0.000143173
0.000176829
0.000184321
0.000184524
0.000170044
0.0207165
0.000155518
0.000202525
0.00602782
0.00739338
0.0001444
0.0245998
0.0296723
0.000156181
0.00833327
0.000186715
0.0151001
0.000145738
0.000204082
0.000141851
0.0254961
0.0147479
0.000371221
0.030549
0.000154175
0.000177995
0.000150909
0.0208462
0.000131519
0.000137791
0.00552313
0.000208493
0.0241093
0.00102101
0.000186085
0.000162736
0.000135433
0.0206908
0.000172687
0.000140505
0.000209437
0.000136436
0.000174365
0.000143379
0.00864801
0.000152629
0.00650613
0.00591051
0.000174736
0.000270014
0.000190639
0.0385261
0.00014351
0.0125846
0.0264181
0.000137338
0.00014282
0.000152105
0.000147899
0.000173489
0.000142055
0.00267125
0.000190477
0.00396508
0.000256628
0.000145491
0.000148281
0.00013574
0.00504784
0.000144821
0.000142793
0.000214347
0.000154255
0.0155426
0.0288667
0.000194853
0.000154814
0.000169338
0.000151502
0.00014911
0.000218995
0.000133446
0.000154598
0.0174012
0.0373485
0.000106121
0.000151341
0.0241891
0.0092654
0.000148064
0.00262656
0.0249911
0.000142439
0.000153595
0.000141948
0.00748663
0.0265121
0.00362713
0.000133294
0.000154994
0.000151995
0.000144985
0.00020424
0.000145839
0.000257176
0.0148056
0.0280562
0.000136188
0.000154415
0.000153237
0.0287861
0.000129151
0.0264493
0.0154647
0.000730804
0.00519214
0.0270403
0.0109029
0.000150835
0.00308133
0.00390129
0.000150316
0.000135227
0.000138501
0.0298325
0.0216991
0.0283744
0.000142637
0.032551
0.000145634
0.000212175
0.00013654
0.00015298
0.000150169
0.000136071
0.0269728
0.000150455
0.0214362
0.0330216
0.0276234
0.000180022
0.000179993
0.0273443
0.0295005
0.000146704
0.00779838
0.000135743
0.000128886
0.000142083
0.000212172
0.000138409
0.0170259
0.000171934
0.00166243
0.000171175
0.0164536
0.0239156
0.00157039
0.000135843
0.000193773
0.000200605
0.0274928
0.000144517
0.000130236
0.000156205
0.0214756
0.000146243
0.00492412
0.0214379
0.000173076
0.000185956
0.00014466
0.00358616
0.000147441
0.0368296
0.00013326
0.0145453
0.000164579
0.000144453
0.0204421
0.029195
0.000132852
0.000186712
0.000156145
0.0255656
0.000290821
0.0257152
0.00132759
0.000147665
0.000195085
0.0287155
0.000140572
0.000208348
0.000151047
0.000190864
0.000165986
0.0125848
0.0223246
0.000144713
0.0248359
0.000150644
0.00017522
0.0293575
0.0239803
0.00017015
0.0247096
0.00012574
0.000145044
0.00491924
0.000206046
0.000164352
0.000150328
0.0305067
0.000133134
0.0118752
0.000706253
0.000203635
0.000142238
0.0001688
0.0240158
0.000175555
0.0282916
0.000149286
0.00015451
0.000823821
0.0305154
0.000158009
0.0307375
0.0102237
0.0166593
0.000146402
0.0299697
0.0136975
0.027541
0.000142744
0.00014677
0.000143699
0.0316201
0.00022748
0.0039648
0.00329604
0.000147987
0.000134898
0.000142534
0.0278001
0.00446211
0.0212332
0.0248861
0.00013929
0.0264496
0.0257919
0.000207132
0.0223219
0.025043
0.000168188
0.012817
0.000153198
0.000157444
0.00623714
0.0205485
0.000150071
0.0251475
0.000147188
0.000143112
0.0196139
0.0221985
0.0241104
0.0136242
0.000166696
0.000147894
0.000157488
0.0218886
0.0294816
0.000140981
0.000176494
0.00852907
0.000143289
0.000145096
0.0216879
0.0307932
0.000152564
0.000143043
0.000150028
0.000151363
0.00315203
0.000147827
0.000142215
0.000158261
0.00107147
0.0289759
0.00016308
0.0296541
0.000144928
0.00015614
0.0272374
0.0275047
0.000160822
0.00103827
0.000142088
0.000169559
0.000150078
0.000156734
0.000192786
0.000141767
0.0127708
0.000167938
0.000139236
0.000155447
0.0173036
0.0255951
0.0210113
0.000143439
0.000166387
0.0274227
0.00938223
0.000154796
0.000144007
0.000143457
0.00495884
0.000145339
0.00014631
0.00016184
0.000142686
0.0277332
0.000437435
0.000147564
0.000155439
0.000132558
0.000145739
0.00281356
0.0026435
0.000187024
0.0246974
0.000231538
0.000148375
0.000141928
0.000144495
0.000143283
0.000147249
0.0001602
0.000219847
0.0299699
0.00014958
0.000197902
0.020949
0.000865816
0.000142256
0.000137926
0.000153354
0.0205269
0.000142711
0.000421872
9.41773e-05
0.000200351
0.0001461
0.0136716
0.000133082
0.000296687
0.000134767
0.000133369
0.000146491
0.000139265
0.000212927
0.0149179
0.000261882
0.000173134
0.000265399
0.00424769
0.00955474
0.000165492
0.0223998
0.0251466
0.000197196
0.0213118
0.0216958
0.000202122
0.0039641
0.000147968
0.000138486
0.0266703
0.000140049
0.000155645
0.0185038
0.000293691
0.00823278
0.000268027
0.000138033
0.000164963
0.00014477
0.000225103
0.000136285
0.000663556
0.0260406
0.027209
0.0075922
0.000144854
0.000133514
0.000188642
0.0268099
0.0281897
0.000205159
0.00011108
0.000138537
0.000545498
0.027859
0.00886886
0.000154488
0.000145214
0.000132586
0.000153563
0.000144973
0.000143806
0.000155141
0.0267393
0.000189289
0.0251211
0.00375523
0.00483874
0.000216523
0.000141733
0.000139716
0.000145867
0.000135948
0.000147615
0.00139266
0.019891
0.00172611
0.0331748
0.000153127
0.0231613
0.000206764
0.0304723
0.0303568
0.000145274
0.000139103
0.00508678
0.000144919
0.000133002
0.00630659
0.0279575
0.000911903
0.000143422
0.000144896
0.000154858
0.000173736
0.0138753
0.00013593
0.00015629
6.41433e-05
0.000136176
0.00828309
0.000173369
0.0197024
0.000147753
0.000145729
0.0291809
0.000171912
0.0212577
0.000200139
0.0264837
0.000132741
0.000157171
0.000138605
0.000164884
0.03106
0.000144035
0.0185719
0.000145137
0.000144465
0.000143091
0.0338694
0.00017502
0.000199013
0.00345857
0.000136768
0.000182762
0.00885212
0.000192232
0.00013879
0.000151915
0.000145032
0.000186773
0.000143637
0.000140001
0.0372359
0.027518
0.0325128
0.000279319
0.000235484
0.0184012
0.000188694
0.0343771
0.000203056
0.000132089
0.000140386
0.000128624
0.000146646
0.0226229
0.0238151
0.000135654
0.0180066
0.037899
0.000162441
0.000148956
0.000168513
0.0290983
0.0217964
0.0271638
0.0166773
0.0283829
0.000128624
0.00019879
0.000194967
0.00534431
0.00771479
0.000142383
0.000206253
0.00940144
0.000168457
0.0316397
0.000147976
0.000731689
0.0131238
0.0335708
0.000190204
0.000166678
0.0155113
0.000206208
0.0346364
0.0346639
0.0275057
0.000201814
0.0267047
0.000145194
0.000159899
0.000176789
0.0215452
0.0061151
0.0265946
0.00014823
0.00020317
0.000215681
0.000149075
0.021772
0.000142443
0.000206897
0.0196325
0.00014246
0.0188674
0.0210483
0.0359278
0.0296011
0.00441739
0.00176615
0.000141597
0.0233847
0.000144683
0.000139767
0.000173301
0.000154702
0.0304002
0.000155037
0.000167853
0.000155352
0.000139173
0.0188638
0.000152363
0.000203123
0.00435948
0.000136179
0.0273778
0.000195008
0.000149161
0.0123404
0.000207286
0.000142224
0.00213499
0.000149456
0.0372302
0.00419982
0.000135898
0.000202565
0.000152547
0.0251907
0.0287478
0.000187855
0.00401813
0.000160559
0.000143545
0.019201
0.00015466
0.000143777
0.000766147
0.000172325
0.000138485
0.000139056
0.000204912
0.000151935
0.0193631
0.000191614
0.000258083
0.0141189
0.000180402
0.000187574
0.00014212
0.0263098
0.0168738
0.0269016
0.000142821
0.00013466
0.000186645
0.000165885
0.00787039
0.000144026
0.00865723
0.000143119
0.00710101
0.000146431
0.000626557
0.000227766
0.000202442
0.0274688
0.0137815
0.0256003
0.0274983
0.000128932
9.68977e-05
7.32603e-05
0.0201226
0.000140609
0.000170711
0.0161772
0.0310716
0.000202919
0.00086476
0.00947223
0.0287441
0.000175824
0.000218446
0.000135953
0.000177033
0.000173874
0.000142146
0.000188375
0.0217255
0.000294298
0.0299017
0.000597977
0.000140862
0.000138425
0.000174358
0.000142243
0.0106333
0.000136177
0.000138279
0.0335791
0.000235923
0.000169596
0.000195354
0.000149804
0.00020347
0.0262901
0.0299151
0.027175
0.000157234
0.0293832
0.000151189
0.000135857
0.000152762
0.0238106
0.000186427
0.000210341
0.000238786
0.000150423
0.000138997
0.000142253
0.000148031
0.00015926
0.0234189
0.000117882
0.000163208
0.0218199
0.0190209
0.00429248
0.0320533
0.000143377
0.000164056
0.000752356
0.000143011
0.000231184
0.000160185
0.000154935
0.0316002
0.0301722
0.000136192
0.000171766
0.00016439
0.000193846
0.0283127
0.016014
0.029136
0.000146344
0.000192641
0.032092
0.00019241
0.000202673
0.0042432
0.029865
0.0275546
0.036056
0.000135768
0.0249216
0.000135358
0.000152018
0.000142711
0.000185288
0.0274835
0.0139247
0.00814279
0.0299342
0.000183834
0.000132496
0.000137795
0.000145021
0.000154876
0.000174871
0.0314612
0.0379528
0.000190909
0.00336032
0.000146748
0.000184411
0.000136616
0.0355464
0.000297305
0.000145798
0.000217247
0.000195747
0.000984831
0.0251856
0.000206248
0.014002
0.000156736
0.0279436
0.000224164
0.0056921
0.00498179
0.000150742
0.000185026
0.000144416
0.0255248
0.025835
0.000173888
0.0282067
0.000223941
0.0289026
0.00018925
0.00025801
0.000177483
0.000138487
0.000203861
0.000195483
0.00015539
0.000185758
0.000165891
0.000168305
0.00801323
0.000212402
0.000152891
0.000165638
0.000170161
0.000167465
0.000149796
0.0127118
0.00019802
0.00248726
0.0171097
0.000143288
0.0293043
0.00014327
0.000157106
0.000153709
0.0289337
0.000175094
0.035988
0.034513
0.000186763
0.000219685
0.000203731
0.0150231
0.000207638
0.00250156
0.000161666
0.000175958
0.000140229
0.0321
0.00720943
0.000160656
0.000144066
0.000173969
0.000158409
0.000155892
0.000178212
0.000171862
0.000145924
0.000169576
0.0339296
0.0207236
0.0176522
0.000173163
0.000130142
0.0172749
0.000166133
0.000186117
0.00673652
0.000174189
0.00133238
0.00013328
0.000165459
0.000156518
0.000168403
0.000141654
0.0308726
0.00321686
0.0180254
0.000173717
0.0221737
0.000232209
0.000157928
0.0147909
0.000186688
0.000237652
0.025246
0.000185642
0.000155141
0.000172459
0.000188542
0.000156412
6.87026e-05
0.0260444
0.00830269
0.000138556
0.000217914
0.000153908
0.0241196
0.000141726
0.000175237
0.000141955
0.000166124
0.020983
0.000164325
0.000163556
0.000138601
0.000138399
0.000302421
0.0235012
0.000144316
0.000317606
0.000239419
0.000132645
0.000163313
0.0322088
0.000199612
0.000196334
0.000142871
0.000160714
0.000228252
0.000145016
0.000140699
0.0189661
0.000163722
0.0307958
0.000193116
0.00015892
0.0258392
0.000207415
0.000212828
0.000138923
0.0043902
0.000163363
0.000159754
0.0257117
0.000172657
0.000146065
0.000200832
0.000156037
0.000160934
0.000133013
0.0237866
0.000143028
0.000234651
0.0146007
0.000194955
0.000139455
0.000856525
0.000164495
0.0300044
0.000247713
0.0249421
0.000201604
0.0325074
0.000136854
0.00018866
0.0001575
0.000140549
0.00718195
0.00132536
0.000156382
0.00992189
0.000158959
0.000186663
0.0253541
0.00015843
0.00339398
0.00234022
0.0287866
0.0176541
0.00156784
0.00030228
0.000137857
0.000254239
0.000171636
0.00252269
0.0101853
0.0351207
0.0130163
0.0340782
0.000138177
0.0292634
0.000142744
0.000150531
0.00014556
0.00606863
0.000226291
0.000380464
0.000140272
0.0125236
0.000160955
0.0213092
0.00013987
0.000197153
0.000163953
0.000188208
0.000176601
0.00019706
0.000152069
0.000175283
0.000246613
0.000139161
0.0132509
0.000229919
0.000230564
0.00015408
0.000164756