/*--------------------------------*- C++ -*----------------------------------*\
| =========                 |                                                 |
| \\      /  F ield         | OpenFOAM: The Open Source CFD Toolbox           |
|  \\    /   O peration     | Version:  v2012                                 |
|   \\  /    A nd           | Website:  www.openfoam.com                      |
|    \\/     M anipulation  |                                                 |
\*---------------------------------------------------------------------------*/
FoamFile
{
    version     2.0;
    format      ascii;
    class       volScalarField;
    location    "100";
    object      k_0;
}
// * * * * * * * * * * * * * * * * * * * * * * * * * * * * * * * * * * * * * //

dimensions      [0 2 -2 0 0 0 0];


internalField   nonuniform List<scalar> 
13851
(
0.000153109
0.0126783
0.000192399
0.000151866
0.000188182
0.003273
0.000145295
0.00017787
0.000137055
0.000210205
0.00582185
0.00503616
0.00923297
0.0287548
0.000142819
0.000169265
0.000156615
0.000163323
0.00100313
0.000136972
0.000151355
0.000190964
0.000143148
0.000148406
0.000144756
0.000178989
0.000154849
0.00568679
0.000152717
0.00015496
0.00390842
0.000157248
0.000191827
0.0080041
0.000148493
0.000216191
4.4778e-05
0.000206861
0.0002155
0.00730589
0.000143212
0.000129505
0.010789
0.00634671
0.00660991
0.0337012
0.00744838
0.00402225
0.000155303
0.000438074
0.000188244
0.000205562
0.0228272
0.000144672
0.000151783
0.000129576
0.000141368
0.0147902
0.00015451
0.000145883
0.000171767
0.0318138
0.000211141
0.000192015
0.0259753
0.000157651
2.95727e-05
0.00638479
0.000167115
0.000163316
0.0158008
0.00419848
0.00917713
0.000145575
0.000139642
0.000139673
0.000190097
0.0159008
0.000176842
0.0183916
0.000148108
0.00687916
0.000142632
0.0301327
0.000210826
0.00349084
0.000401596
0.0250829
0.000157319
0.000139242
0.000216295
0.000157532
0.00535595
0.000160751
0.000156917
0.000146917
0.000188871
0.0294213
0.000423438
0.000146961
0.0186823
0.000178546
0.000149728
0.000153867
0.000142781
0.000292273
0.000181192
0.000128489
0.014461
0.00455844
0.000148762
0.000139685
0.0001954
0.000151315
0.00014872
0.00291934
0.0300778
0.000128712
0.000152696
0.000154298
0.0108345
0.00015367
0.0126761
0.00403995
0.00355818
0.000143686
0.0030652
0.000177703
0.00015069
0.00020431
0.000142966
0.000137084
0.0188572
0.000142606
0.00483465
0.000138803
0.000128806
0.00300439
0.0285871
0.0356863
0.0183597
0.000152303
0.000149695
0.000133087
0.000153056
0.00643378
0.000211331
0.000204566
0.00014512
0.00602404
0.000190225
0.0001516
0.0273963
0.00014186
0.000152035
0.000152866
0.000140323
0.000152592
0.000205305
0.000187663
0.000130333
0.000160283
0.0186466
0.000136955
0.00016073
0.000131218
0.000242381
0.000167503
0.000150308
0.0215292
0.0139121
0.000134322
0.000140509
0.0355551
0.000136857
0.00502415
0.000176832
0.00014942
0.000940591
0.000128701
0.000158665
0.00427088
0.000142509
0.000192127
0.000129217
0.000143795
0.000158724
0.000147454
0.000191407
0.00023485
0.00691008
0.024041
0.000141095
0.000167401
0.0304996
0.00015162
0.000148366
0.00423022
0.000148564
0.000139988
0.000144836
0.034328
0.000158256
0.000141787
0.000206542
0.000142638
0.0177615
0.00015684
0.0278539
0.000129098
0.0296731
0.000149267
0.00535898
0.000128256
0.000132291
0.00499523
0.000202852
0.0330555
0.000142211
0.0287982
0.000157161
0.000148454
0.0283454
0.000203036
0.0356657
0.000144904
0.000163241
0.000144922
0.0264899
0.000128291
0.000177959
0.00550391
0.000134247
0.000140579
0.000185765
0.000179189
0.0177371
0.0313864
0.000132922
0.00014191
0.00260188
0.00612416
0.000133995
0.000212193
0.00013832
0.0351814
0.000179098
0.00502738
0.000153097
0.000158433
0.000183926
0.00666493
0.000148489
0.000153275
0.000179651
0.00358018
0.000231754
0.00306215
0.00563091
0.000143048
0.000132458
0.000162119
0.013542
0.000136469
0.00837593
0.000151598
0.000148311
0.000160056
0.0264301
0.000948997
0.00018087
0.00015205
0.01354
0.000175351
0.000168175
0.000137196
0.00674996
0.00107985
0.0383706
0.00544278
0.000133982
0.000128718
0.000142279
0.000178389
0.0140535
0.00741499
0.000138294
0.000142973
0.0137813
0.00640856
0.000210378
0.000153862
0.000146027
0.000169322
0.00689731
0.00591887
0.000160115
0.00276783
0.0001374
0.0349731
0.000159752
0.000156385
0.0367635
0.000146423
0.00034767
0.0312053
0.000138038
0.000174137
0.000160956
0.00015338
0.0263886
0.000160425
0.000148151
0.0293742
0.000129995
0.000158898
0.000149998
0.0360528
0.000204006
0.000142216
0.000179477
0.000142475
0.0116713
0.000260741
0.000142627
0.000143203
0.000203172
0.000162418
0.000151741
0.000142991
0.000146218
0.000147937
0.00586012
0.0239304
0.0246083
0.000170991
0.0344424
0.0259363
0.000142422
0.000168062
0.000211908
0.000202892
0.000202614
0.000201502
0.000858333
0.000163032
0.0128114
0.0325489
0.000143027
0.000869729
0.00111372
0.00124165
0.000151711
0.000210161
0.0253603
0.000140824
0.0116183
0.000143123
0.000142558
0.000137032
0.000128488
0.000139594
0.0319272
0.00856949
0.000143135
0.000172947
0.000130577
0.00244879
0.000176699
0.0103467
0.0227248
0.000143318
0.000210853
0.000161231
0.00902237
0.000142158
0.000128854
0.000188699
0.0141817
0.000143349
0.023648
0.000156105
0.00020441
0.020853
0.00581051
0.00566202
0.000163488
0.000137639
0.000149077
0.000168632
0.000179196
0.0289589
0.000167429
0.0342297
0.0315391
0.00013069
0.000143143
0.0239596
0.0205008
0.00341065
0.030087
0.000219698
0.000162104
0.000146943
0.0239001
0.000135458
0.000168359
0.00015957
0.000144606
0.000143654
0.000137754
0.000131091
0.000191246
0.000195972
0.0155097
0.000165092
0.000180878
0.000194155
0.00653979
0.000160081
0.00104103
0.000155847
0.00447794
0.000128696
0.000137532
0.0001458
0.000400335
0.00641054
0.00020181
0.000188698
0.0123772
0.00804591
0.000312812
0.000157001
0.000186371
0.000141916
0.00651625
0.000141904
0.00305591
0.00538948
0.000191215
0.0251445
0.000149949
0.000790527
0.00533401
0.0160653
0.000128287
0.000163812
0.000177507
0.00129496
0.000135007
0.000148039
0.000188659
0.000203988
0.000171152
0.0259181
0.000144724
0.000143842
0.0203782
0.000161457
0.000128529
0.0170397
0.000137544
0.000152852
0.000135775
0.00017776
0.000151572
0.000128844
0.000149049
0.0289095
0.000142761
0.000169316
0.000138156
0.000174871
0.00224597
0.000152208
0.000143049
0.000151475
0.00015139
0.0068763
0.000148144
0.000922965
0.000142467
0.00014495
0.0259523
0.0238239
0.000142893
0.000178897
0.00016031
0.00556257
0.0323675
0.000143917
0.00901343
0.000142428
0.000188637
0.000145118
0.0275713
0.000129544
0.0224527
0.000238973
0.000129633
0.000177327
0.0252566
0.000179426
0.00830437
0.00015259
0.00789837
0.000155518
0.00013641
0.000137287
0.000144602
0.0247123
0.000185196
0.000206683
6.92598e-05
0.000202569
0.000130751
0.0258511
0.00621674
0.000158878
0.000160626
0.00372373
0.00457728
0.0263056
0.000151458
0.0271452
0.0331272
0.0335437
0.00016131
0.00018669
0.00354858
0.000961441
0.00666603
0.00439844
0.0106997
0.000153018
0.0127036
0.00430488
0.000128772
0.000821006
0.000185946
0.0194841
0.000153497
0.000141413
0.000140047
0.000142217
0.000190688
0.00017358
0.0253017
0.026242
0.000137673
0.0172465
0.0236518
0.000371726
0.00554106
0.000168781
0.000128153
0.00013728
0.00103555
0.02764
0.000152269
0.000195413
0.000215974
0.00012945
0.000273773
0.00379622
0.000119385
0.000200293
0.0258925
0.00454903
0.00014268
0.000144739
0.0111808
0.0314538
0.00020611
0.000167221
0.000219681
0.000128651
0.000140495
0.00450441
0.000129189
0.000153305
0.000128569
0.000137657
0.00506249
0.000190737
0.000175509
0.000129092
0.0214875
0.00510057
0.000137632
0.00013929
0.000136776
0.000148261
0.0112333
0.00450615
0.00442325
0.0321061
0.00878895
0.000165655
0.0158045
0.0254817
0.000166394
0.000167589
0.000128123
0.000148775
0.00017048
0.0271704
0.0135455
0.000194934
0.000162762
0.000136541
0.000168837
0.000148416
0.00775977
0.0001873
0.000142348
0.000171426
0.000135008
0.000159615
0.000202939
0.00014553
0.000141669
0.000176887
0.000145544
0.000188727
0.000321586
0.000201716
0.000169418
0.000207384
0.000136373
0.000617314
0.000200494
0.0313504
0.000148988
0.000147367
0.0113288
0.000154243
0.0202503
0.0332703
0.0315347
0.0120964
0.000135438
0.0053163
0.000134874
0.000137621
0.000129477
0.000137727
0.000148166
0.000166833
0.00017477
0.000128878
0.0227896
0.000244626
0.0237714
0.000139368
0.000130564
0.000138823
0.000208161
0.0285975
0.000180392
0.000160009
0.000135287
0.00014552
0.000143857
0.000141035
0.000221727
0.0163115
0.000145265
0.000128771
0.000144739
0.000140917
0.000238851
0.0222938
0.000169627
0.0283666
0.00653185
0.000141456
0.000205991
0.0168307
0.000168779
0.00648115
0.000148056
0.000162187
0.000179834
0.000163477
0.00550564
0.000142764
0.00318859
0.000142432
0.000163257
0.0276282
0.000140645
0.000152684
0.000220381
0.000136503
0.000157796
0.0139661
0.0401629
0.000186488
0.00556518
0.00702939
0.000128389
0.000139125
0.0267813
0.00021323
0.000183992
0.033014
0.000136186
0.000164905
0.0001289
0.00946626
9.49739e-05
0.000157728
0.000147635
0.00267536
0.000155282
0.000138565
0.0146055
0.00487829
0.0268739
0.000129847
0.000145092
0.016061
0.015893
0.000211349
0.000147195
0.014495
0.000142708
0.0038845
0.000212357
0.00019321
0.000156987
0.0325123
0.000170092
0.000151244
7.46134e-05
0.000146653
0.000158205
0.000152011
0.000136192
0.018444
0.000167144
0.000201089
0.000173564
0.0015161
0.000136767
0.0136031
0.000151397
0.000169333
0.000131447
0.00014105
0.000143315
0.0311289
0.000139807
0.000129161
0.00394585
0.000144963
0.0197631
0.000143933
0.000148907
0.000188254
0.000127011
0.00586616
0.000139058
0.0135699
0.0294872
0.00014832
0.0281511
0.000162922
0.000135909
0.000372143
0.0115205
0.0104201
0.00015873
0.000138722
0.000128598
0.00544853
0.000196803
0.000207243
0.000159312
0.000350948
0.000149119
0.000148002
0.00019496
0.00851399
0.000190742
0.0135735
0.000144867
0.000188995
0.000192348
0.0347241
0.000157397
0.020693
7.14343e-05
0.000145115
0.0274714
0.000300744
0.0293296
0.0393768
0.0295727
0.00780823
0.000176817
0.00013606
0.000168079
0.0131556
0.0275465
0.000142602
0.000145518
0.000186344
0.00743958
0.000129715
0.020603
0.00013595
0.000143198
0.0210276
0.0158375
0.00751565
0.000137551
0.00014268
0.018254
0.000227851
0.00020391
0.000154717
0.0258973
0.000170563
0.0274295
0.000180724
0.000172423
0.000148195
0.000144963
0.0119556
0.000178347
0.0194561
0.000279215
0.000167015
0.0193573
0.0291139
0.0212603
0.000143401
0.000164046
0.000137522
0.000170306
0.000152435
0.01041
0.000165137
0.0339715
0.000129623
0.000187519
0.000140885
0.000217365
0.000166266
0.000163637
0.0284886
0.000174269
0.000181193
0.000149148
0.000187357
0.00609024
0.00022188
0.000153491
0.0143012
0.000135918
0.0378242
0.00876926
0.000146301
0.0317452
0.0163606
0.0212131
0.00758229
0.000243096
0.000142401
0.0257513
0.000166028
0.00310739
0.0283871
0.000139383
0.000151228
0.000515416
0.00662093
0.0217083
0.000145073
0.000138434
0.00259964
0.0276565
0.000200354
0.000157866
0.000151487
0.00883889
0.0289493
0.000193035
0.000129218
0.000176944
0.000136612
0.00015574
0.00320225
0.000147358
0.00616178
0.00607506
0.000143345
0.000150672
0.000142655
0.00015214
0.0162453
0.0244741
0.000163247
0.0204239
0.000140832
0.000163413
0.000141953
0.000136732
0.000145674
0.000143174
0.0218142
0.000142927
0.000179819
0.000143493
0.000158999
0.00336242
0.0142657
0.000152773
0.0126824
0.000212881
4.22495e-05
0.000167839
0.000167715
0.0169948
0.000159563
0.000175123
0.00905947
0.00603048
0.0237632
0.000173472
0.00563225
0.000148432
0.00017285
0.000179166
0.021901
0.000142464
0.0265189
0.000138937
0.000139565
0.0314394
0.000143576
0.00405721
0.000157515
0.000137406
0.000223462
0.000137524
0.000142724
0.000137131
0.000147608
0.000222005
0.000139565
0.000234757
0.0277775
0.000200167
0.0387307
0.000144744
0.000151562
0.000153584
0.000142396
0.000137319
0.000191422
0.000148257
0.000138871
0.000147892
0.000144891
0.019525
0.0161262
0.000219136
0.0298018
0.00019079
0.000140466
0.00211095
0.000162465
0.000139408
0.00565642
0.000268435
0.0051809
0.000140185
0.00720176
0.00765632
0.020315
0.000134509
0.0118421
0.000166133
0.000154696
0.000138442
0.000136199
0.0170052
0.000266526
0.00743547
0.000140124
0.000142227
0.00300503
0.000146441
0.000305566
0.00841347
0.0143755
0.000440684
0.00786351
0.000144921
0.000142835
0.000207534
0.000174766
0.000153989
0.000222641
0.000174707
0.000148503
0.000150634
0.0189873
0.000139156
0.0189835
0.000578084
0.00434148
0.000235083
0.000151124
0.000134118
0.000146957
0.0077076
0.00645813
0.000134506
0.000154003
0.00013983
0.000190047
0.000130396
0.000139389
0.000148694
0.000166617
0.000105661
0.000176849
0.000169297
0.000143686
0.000179882
0.0161333
0.000149637
0.0230981
0.0157528
0.000192094
0.000131642
0.000174938
0.000141388
0.000143
0.000146524
0.0158484
0.000204179
0.00737175
0.000154081
0.00337357
0.000141836
0.000143634
0.000146526
0.00153194
0.00266733
0.00013
0.000166248
0.000200146
0.025245
0.000152106
0.00999304
0.000149372
0.0172726
0.000198739
0.023314
0.000195426
0.000191333
0.000244677
0.0248824
0.00781433
0.0345645
0.000141315
0.000251865
0.000130263
0.000153692
0.000158216
0.000145933
0.025187
0.000164205
0.000160765
0.00830539
0.00021719
0.00564884
0.000142339
0.000153832
0.00015854
0.000134877
0.000170931
0.00259111
0.00873515
0.0148744
0.000138933
0.000159627
0.000156785
0.00345847
0.0296291
0.000206805
0.000133982
0.000147769
0.0279797
0.000178464
0.00738109
0.0302438
0.00042217
0.000131431
0.00196061
0.000170453
0.000174901
0.000161995
0.0291739
0.00884183
0.000201395
0.00137867
0.000150077
0.000167321
0.000143231
0.0227636
0.000186992
0.0239489
0.00317727
0.000158042
0.000210036
0.000151555
0.0281059
0.000210324
0.000139171
0.00272772
0.0285673
0.0030953
0.0100901
0.000144988
0.000143083
0.0163745
0.0190135
0.0289093
0.000154051
0.000144746
0.000143327
0.0199092
0.000209084
0.000147513
0.000274905
0.000197711
0.0194443
0.00149718
0.00868329
0.000143022
0.0115284
0.000156001
0.000142819
0.000208838
0.030421
0.000145389
0.000138892
0.0116299
0.0269052
0.000142556
0.000138804
0.0264456
0.000138229
0.00192985
0.000138936
0.00522226
0.000143067
0.000180311
0.0150267
0.0290616
0.000150891
0.00713643
0.00583631
0.0214742
0.00205941
0.0171417
0.000526479
0.000140897
0.0121447
0.000152377
0.000142471
0.000134702
0.00465049
0.000141255
7.38002e-05
0.000139079
0.0001527
0.0151951
0.000191576
0.00414717
0.00015205
0.000168145
0.000137192
0.000165879
0.00126831
0.0246398
0.000138467
0.000185609
0.00593346
0.000146153
0.000136382
0.0269577
0.000167748
0.000171412
0.000206132
0.0404838
0.00296507
0.00107462
0.00851395
0.000699
0.00510405
0.00634129
0.0158152
0.000185261
0.000132934
0.000205803
0.000140822
0.000140722
0.0182018
0.0273626
0.000153027
0.0255587
0.000256284
0.018237
0.000327517
0.000268449
0.000141951
0.000272979
0.000289634
0.000140368
0.000151219
0.0305033
0.0279187
0.0128758
0.0245446
0.000175315
0.0363911
0.0310305
0.000165379
0.000145899
0.000140424
0.00714438
0.00013965
0.000215557
0.00015132
0.000149266
0.000153566
0.0167754
0.0315959
0.0188231
0.000147671
0.00239524
0.00015669
0.00016287
0.000139337
0.000139068
0.0142984
0.000160706
0.0259616
0.00862032
0.000240121
0.000202653
0.000143346
0.000177859
0.000146118
0.000208668
0.000148686
0.000151781
0.000147254
0.000151516
0.000211744
0.000149453
0.000170373
0.000140892
0.000171229
0.000180805
0.0171088
0.000140729
0.000177357
0.000146386
0.000238716
0.000170748
0.0294508
0.000263744
0.000164883
0.000154003
0.000151784
0.000505369
0.000142426
0.00168253
0.000142839
0.00014056
0.000147612
0.0296742
0.000160049
0.000155886
0.000192703
0.000144327
0.00018601
0.029766
0.0080949
0.000168892
0.000143255
0.000245991
0.000133267
0.00014126
0.000235598
0.0338068
0.00014275
0.000163684
0.00390919
0.0031115
0.000147822
0.000149147
0.0327259
0.000151223
0.00035042
0.000192199
0.0308934
0.000143286
0.000196948
0.000141703
0.0356679
0.000206038
0.000175208
0.000203435
0.0221049
0.000150421
0.025763
0.00716497
0.00014624
0.0199868
0.000192171
0.000151528
0.011602
0.00014468
0.000142869
0.000135596
0.000215629
0.000357791
0.00021356
0.000151893
0.000149868
0.000163025
0.00602943
0.000110468
0.030115
0.00675619
0.000148943
0.00020639
0.000204375
0.0256238
0.000198509
0.00789178
0.000139781
0.000190159
0.000136387
0.0093332
0.000172306
0.000141641
0.0189664
0.000252854
0.000167206
0.000197864
0.000129156
0.000143401
0.000189324
0.000169809
0.00363131
0.000185037
0.000190292
0.000197655
0.000199387
0.0105664
0.000230777
0.0302058
0.000140952
0.000138746
0.000241478
0.0255539
0.023766
0.00103407
0.000150482
0.0161439
0.00619009
0.000140898
0.000158649
0.000137925
0.000172981
0.000187757
0.000341445
0.0230194
0.000119493
0.000151335
0.0290411
0.0133864
0.000142934
0.000744593
0.0304294
0.0231642
0.000154274
0.000190224
0.000128228
0.000157313
0.000140265
0.000157574
0.0332969
0.026245
0.0170039
0.0264241
0.000151007
0.000170065
0.000192582
0.000140156
0.000147412
0.000136238
0.0255851
0.000139319
0.0248736
0.000172893
0.00020177
0.000214385
0.000226276
0.0172077
0.00341821
0.000172496
0.000130886
0.000150476
0.00206391
0.00060866
0.000156364
0.00013765
0.00013658
0.000186819
0.000165253
0.000210174
0.0172553
0.000150806
0.000135799
0.000203749
0.00020549
0.0158805
0.00651219
0.000138906
0.000186906
0.000145751
0.0383174
0.000132355
0.0364153
0.000139423
0.000150581
0.000173616
0.000148103
0.000244595
0.000163726
0.000176827
0.0135094
0.0285643
0.000157284
0.000164302
0.000141797
0.00266429
0.0207986
0.000146087
0.000132808
0.00523017
0.000128513
0.0259359
0.000144352
0.000171482
0.000192549
0.00715908
0.000173245
0.000150114
0.00014491
0.000188602
0.0299421
0.000140937
0.0100826
0.0247352
0.00898663
0.000301786
0.000169042
0.0193213
0.000156828
0.000149169
0.000141825
0.00683367
0.00668473
0.0237717
0.0300586
0.0178482
0.000144491
0.000544492
0.000138833
0.0128057
0.00549284
0.0305896
0.0152571
0.000160473
0.0106958
0.0082495
0.000170736
0.000151902
0.000145425
0.0266368
0.000158285
0.000188328
0.000154272
0.00014665
0.00013673
0.000145467
0.0304971
0.00023603
0.000166471
0.0269721
0.00519646
0.000141636
0.000142271
0.000136405
0.000172335
0.0359054
0.000211018
0.000157958
0.000165478
0.00509774
0.000194951
0.000175196
0.018826
0.000165389
0.0313197
0.000163269
0.000165487
0.000141963
0.000153912
0.000186159
0.00833019
0.00647425
0.0291193
0.000190089
0.0272959
0.000156851
0.000155728
0.00014474
0.01619
0.0267813
0.00605887
0.000267869
0.000153709
0.000143401
0.00014047
0.00014282
0.000136425
0.0192707
0.000163823
0.0239058
0.000167849
0.0300403
0.0015945
0.0344517
0.000312565
0.000158043
0.028278
0.000176432
0.0231412
0.0295238
0.000136291
0.000249629
0.000160462
0.0118398
0.011293
0.00017109
0.000240346
0.00593509
0.000153877
0.000193502
0.000164456
0.0293358
0.0085427
0.000154819
0.000144914
0.00649564
0.000305349
0.000203503
0.00172955
0.000205735
0.00017375
0.000141379
0.000286523
0.0328781
0.000201405
0.000164236
0.0304174
0.0350968
0.000139028
0.00014305
0.000155322
0.0299183
0.0292116
0.000142342
0.0202135
0.000149117
0.000140687
0.000146208
0.0253375
0.000132873
0.000340212
0.0223636
0.000152363
0.000151686
0.000139466
0.015568
0.000150544
0.0281677
0.000153884
0.0106268
0.000147697
0.000140862
0.000201396
0.017833
0.00548869
0.000172254
0.0215528
0.000132944
0.000144589
0.000143173
0.000176841
0.000184318
0.000184513
0.000170044
0.020777
0.000155518
0.000202509
0.0057688
0.0072511
0.0001444
0.0245942
0.0296672
0.000156182
0.00835774
0.000186708
0.0153473
0.000145739
0.00020413
0.000141851
0.0256625
0.0147408
0.000369441
0.0305642
0.000154182
0.000177994
0.000150911
0.0208411
0.000131519
0.000137791
0.00544232
0.00020858
0.0242272
0.00101308
0.000186084
0.000162734
0.000135433
0.0204227
0.00017269
0.000140504
0.000209467
0.000136426
0.000174364
0.000143378
0.00879249
0.00015263
0.00651849
0.00590426
0.00017475
0.000269626
0.000190659
0.0384857
0.000143509
0.0123953
0.0263943
0.000137338
0.000142821
0.000152105
0.000147899
0.000173498
0.000142055
0.00271611
0.000190462
0.00394376
0.000256294
0.000145491
0.000148281
0.00013574
0.00504046
0.000144822
0.000142793
0.000214239
0.000154256
0.0157522
0.0288881
0.000194857
0.000154794
0.000169336
0.000151502
0.00014911
0.000218438
0.000133445
0.000154599
0.0173628
0.0373313
0.000106398
0.00015134
0.0242676
0.00919512
0.000148064
0.0026066
0.0250722
0.000142439
0.000153596
0.000141948
0.00744979
0.0265372
0.00355846
0.000133293
0.000154993
0.00015198
0.000144985
0.000204197
0.000145839
0.000258277
0.0147915
0.0280497
0.000136188
0.000154415
0.000153238
0.028809
0.000129152
0.0264524
0.0153972
0.000716901
0.00531078
0.0269976
0.0107371
0.000150827
0.00306153
0.00392958
0.000150316
0.000135227
0.000138501
0.0298548
0.0217364
0.0284318
0.000142638
0.0325385
0.000145635
0.000212131
0.000136541
0.000152979
0.00015017
0.000136071
0.0270157
0.000150455
0.0213652
0.0332394
0.0276165
0.000180039
0.000179991
0.0273509
0.0295453
0.000146703
0.00788083
0.000135743
0.000128886
0.000142083
0.000212078
0.000138409
0.0169129
0.000171936
0.00164642
0.00017115
0.016372
0.0238969
0.0015594
0.000135843
0.000193785
0.000200662
0.0275159
0.000144518
0.000130236
0.000156205
0.0215982
0.000146243
0.00490834
0.02137
0.000173076
0.000185983
0.00014466
0.00355413
0.000147441
0.0368135
0.00013326
0.0145818
0.00016458
0.000144453
0.0203599
0.0292008
0.000132853
0.000186712
0.000156142
0.0256408
0.00028946
0.0255803
0.00131601
0.000147666
0.000195079
0.0287137
0.000140578
0.000208685
0.000151035
0.000190854
0.000165987
0.0124935
0.0223321
0.000144714
0.0248296
0.000150644
0.000175226
0.0294278
0.0239539
0.000170094
0.024714
0.000126573
0.000145043
0.00490192
0.000206062
0.000164353
0.000150328
0.0304932
0.000133134
0.0118099
0.000702304
0.000203684
0.000142238
0.000168835
0.024014
0.00017556
0.0281501
0.000149286
0.000154509
0.000788386
0.0305304
0.00015801
0.0307693
0.0101489
0.016566
0.000146401
0.0299814
0.013609
0.027602
0.000142744
0.000146733
0.000143699
0.0316391
0.000227169
0.00393485
0.00327082
0.000147988
0.000134898
0.000142534
0.0278402
0.00441011
0.021435
0.0248786
0.00013929
0.0264206
0.0258532
0.000207132
0.0223807
0.0250444
0.000168195
0.0127491
0.000153198
0.000157445
0.00619844
0.0206223
0.000150089
0.025196
0.000147188
0.000143112
0.0196658
0.0222052
0.0240527
0.0136175
0.000166687
0.000147895
0.000157488
0.0219298
0.0295075
0.000140981
0.000176493
0.00853566
0.00014329
0.000145096
0.0217812
0.0307709
0.000152563
0.000143043
0.000150029
0.000151366
0.00316349
0.000147826
0.000142215
0.000158255
0.00118311
0.0289072
0.000160112
0.0295465
0.000144929
0.000156139
0.0272519
0.0275576
0.00016081
0.00098504
0.000142088
0.000169563
0.000150083
0.000156773
0.000192828
0.000141767
0.0126367
0.000167908
0.000139236
0.000155447
0.0172186
0.0255494
0.0210093
0.000143439
0.000166385
0.0274607
0.0093822
0.000154797
0.000144007
0.000143457
0.0049452
0.000145338
0.00014631
0.000161838
0.000142686
0.0277422
0.000426778
0.000147564
0.000155437
0.000132557
0.000145739
0.00272968
0.00270504
0.000187
0.024769
0.000230756
0.000148375
0.000141928
0.000144495
0.000143283
0.00014725
0.000160199
0.000219907
0.0300318
0.000149572
0.000197873
0.0209489
0.000859061
0.000142257
0.000137926
0.000153355
0.0205321
0.000142711
0.000404601
9.50767e-05
0.000200402
0.000146093
0.0136665
0.000133083
0.000294215
0.000134767
0.000133369
0.000146492
0.000139265
0.000212898
0.0150162
0.000261488
0.000173142
0.000266568
0.00442483
0.00952096
0.000165493
0.0224056
0.0252047
0.000197176
0.02128
0.0217848
0.000202104
0.00393454
0.000147968
0.000138486
0.0267946
0.000140049
0.000155643
0.018552
0.000296811
0.00896963
0.000268257
0.000138034
0.000164828
0.00014477
0.000226334
0.000136285
0.000674641
0.0261537
0.0272894
0.00738473
0.000144853
0.000133514
0.000188619
0.0269669
0.0281943
0.00020519
0.00011119
0.000138537
0.000536403
0.0278506
0.00874797
0.000154495
0.000145213
0.000132586
0.000153569
0.000144974
0.000143805
0.000155139
0.0267474
0.00018926
0.0251174
0.00376996
0.00476427
0.000216532
0.000141733
0.000139717
0.000145864
0.000135948
0.000147615
0.00146116
0.0198115
0.00173066
0.033166
0.000153128
0.0231645
0.000206726
0.0305036
0.0303467
0.000145274
0.000139102
0.00510381
0.000144918
0.000133002
0.00637007
0.0279642
0.000905143
0.000143422
0.000144897
0.000154871
0.000173739
0.0137545
0.00013593
0.000156281
6.31194e-05
0.000136177
0.00828652
0.000173371
0.019745
0.000147753
0.000146654
0.0294122
0.000171884
0.0213087
0.000200097
0.0264767
0.000132742
0.000157166
0.000138605
0.000164879
0.0310343
0.000144036
0.0185144
0.000145134
0.000144465
0.000143091
0.033868
0.000175018
0.000198968
0.00348154
0.000136768
0.000182722
0.00873976
0.000192241
0.00013879
0.000151911
0.000145031
0.000186774
0.000143638
0.000140001
0.0372132
0.0274957
0.032526
0.000280101
0.000240369
0.0183698
0.000188691
0.0343497
0.000203044
0.00013209
0.000140387
0.000128624
0.000146646
0.0226536
0.0238592
0.000135654
0.0179796
0.0378784
0.000162442
0.000148949
0.000168513
0.0290225
0.0218932
0.0271678
0.0172812
0.0283855
0.000128624
0.00019908
0.000194954
0.00533296
0.00766459
0.000142383
0.000206272
0.00927088
0.000168433
0.0318969
0.000147975
0.000743317
0.0130317
0.033561
0.000190202
0.000166674
0.0155051
0.000206233
0.0346234
0.0346619
0.0275174
0.000201788
0.0267021
0.000145194
0.00015991
0.000176788
0.0215374
0.00611246
0.0265864
0.00014823
0.000203192
0.000215749
0.000149074
0.0218554
0.000142443
0.000206887
0.0196292
0.000142461
0.0188088
0.0210491
0.0359154
0.0295704
0.00436908
0.00182
0.000141597
0.0234049
0.000144681
0.000139766
0.000173303
0.000154702
0.0303919
0.000155037
0.000167853
0.000155351
0.000139172
0.0187646
0.000152362
0.000203099
0.00434025
0.000136179
0.0273695
0.000194988
0.000149155
0.012283
0.000207228
0.000142224
0.0020271
0.000149456
0.0372126
0.00420254
0.000135899
0.000202588
0.000152546
0.0251891
0.0287469
0.00018783
0.00390947
0.000160529
0.000143545
0.0192655
0.00015466
0.000143777
0.000761083
0.000172325
0.000138485
0.000139056
0.000204886
0.000151935
0.0193613
0.000191585
0.000261051
0.0143166
0.000180399
0.000187605
0.00014212
0.0262976
0.0168659
0.0269993
0.000142821
0.000134661
0.00018665
0.000165872
0.00789388
0.000144026
0.00865814
0.000143119
0.00745861
0.000146431
0.00063612
0.000228288
0.000202432
0.0274604
0.0139975
0.0256826
0.0274988
0.000128931
9.82053e-05
7.46646e-05
0.0201146
0.000140609
0.0001707
0.0161697
0.0310762
0.000202924
0.00088118
0.00929127
0.0287122
0.000175824
0.000218337
0.000135953
0.000177028
0.000173873
0.000142146
0.000188364
0.0218876
0.000292649
0.0298902
0.000580464
0.000140862
0.000138425
0.000174278
0.000142243
0.0103737
0.000136178
0.000138279
0.0335243
0.00023597
0.000169638
0.00019533
0.000149804
0.000203542
0.0263428
0.0299088
0.0272275
0.000157235
0.0293794
0.000151201
0.000135857
0.000152762
0.0238112
0.000187566
0.000210634
0.000238787
0.000150423
0.000138998
0.000142253
0.00014803
0.00015926
0.0235821
0.000116501
0.000163206
0.021897
0.0190186
0.00430778
0.0320429
0.000143378
0.000164058
0.000784489
0.000143011
0.000230576
0.000160184
0.000154935
0.0314
0.0301648
0.000136193
0.000171765
0.000164389
0.000193892
0.0283724
0.0158868
0.02912
0.000146344
0.000192646
0.0320905
0.000192408
0.00020269
0.00424437
0.0298209
0.0274809
0.036028
0.000135769
0.0249353
0.000135359
0.000152008
0.000142711
0.000185312
0.0274253
0.0139198
0.0081099
0.0299687
0.000183856
0.000132496
0.000137795
0.000145021
0.000154876
0.000174872
0.0314276
0.0379292
0.000190908
0.00340226
0.000146747
0.000184436
0.000136616
0.0355338
0.000295647
0.000145798
0.000217235
0.000195711
0.00104544
0.0251776
0.000206241
0.0139596
0.000156732
0.028046
0.000224151
0.00567064
0.00497293
0.000150752
0.000185053
0.000144416
0.0256116
0.0258898
0.000173898
0.0280986
0.000224
0.0287896
0.000189285
0.000257927
0.000177486
0.000138487
0.000203881
0.000195505
0.00015539
0.000185785
0.000165892
0.000168302
0.00795675
0.000212396
0.000152895
0.00016563
0.000170165
0.000167441
0.000149788
0.0125595
0.000198002
0.00246754
0.0172116
0.000143288
0.0292959
0.00014327
0.000157102
0.000153708
0.0289268
0.000175069
0.035973
0.0344291
0.000186793
0.000219839
0.000203724
0.0151101
0.000207662
0.00240147
0.000161665
0.000175957
0.000140229
0.032089
0.00718458
0.000160656
0.000144066
0.000173939
0.000158409
0.00015589
0.000178209
0.000171862
0.000145925
0.000169541
0.0338276
0.0209002
0.0175402
0.000173164
0.000130142
0.0172524
0.000166134
0.000186111
0.00687679
0.000174188
0.00147656
0.00013328
0.000165458
0.000156504
0.000168366
0.000141655
0.0308628
0.00319742
0.0179659
0.000173675
0.0222438
0.00023226
0.000157929
0.0147904
0.000186679
0.00023769
0.0253132
0.000185674
0.00015514
0.000172458
0.000188574
0.000156441
6.7795e-05
0.0260364
0.00825385
0.000138556
0.000218238
0.000154819
0.0246161
0.000141726
0.000175238
0.000141954
0.000166116
0.0208914
0.000164321
0.000163555
0.000138601
0.000138399
0.000304947
0.0235045
0.000144316
0.000322598
0.000239433
0.000132645
0.000163226
0.0321978
0.000199598
0.000196294
0.000142871
0.000160713
0.000228411
0.000145016
0.000140699
0.019022
0.000163722
0.0307857
0.00019311
0.00015892
0.0257731
0.000207455
0.000212792
0.000138923
0.00445159
0.000163363
0.000159754
0.025661
0.000172657
0.000146065
0.000200897
0.000156036
0.00016095
0.000133013
0.0239649
0.000143027
0.000234431
0.0145318
0.000194948
0.000139455
0.000855201
0.000164497
0.0299968
0.000247893
0.0249351
0.000201639
0.0324986
0.000136854
0.000188632
0.0001575
0.000140549
0.00722741
0.00127111
0.000156383
0.00997264
0.000158904
0.000186652
0.0253464
0.000158431
0.00341671
0.00231288
0.0287087
0.0178285
0.00168874
0.00030122
0.000137858
0.000253908
0.000171596
0.00260312
0.010939
0.03511
0.012868
0.0340782
0.000138177
0.0293017
0.000142744
0.000150532
0.00014556
0.00600924
0.000226651
0.000382404
0.000140272
0.0125257
0.000160955
0.0213057
0.000139871
0.000197189
0.000163954
0.000188209
0.000176612
0.000197015
0.000152069
0.000174984
0.000246731
0.000139161
0.0134806
0.000229965
0.000230541
0.00015408
0.000164756
0.000144674
0.000141001