/*--------------------------------*- C++ -*----------------------------------*\
| =========                 |                                                 |
| \\      /  F ield         | OpenFOAM: The Open Source CFD Toolbox           |
|  \\    /   O peration     | Version:  v2012                                 |
|   \\  /    A nd           | Website:  www.openfoam.com                      |
|    \\/     M anipulation  |                                                 |
\*---------------------------------------------------------------------------*/
FoamFile
{
    version     2.0;
    format      ascii;
    class       volScalarField;
    location    "100";
    object      nut;
}
// * * * * * * * * * * * * * * * * * * * * * * * * * * * * * * * * * * * * * //

dimensions      [0 2 -1 0 0 0 0];


internalField   nonuniform List<scalar> 
13851
(
0.00580698
0.0105399
0.000646964
0.0058349
0.00195366
0.00661346
0.00587592
0.00123473
0.00584371
0.000589634
0.0173655
0.00323421
0.00338064
0.0101941
0.00583234
0.00176402
0.00348707
0.00493431
0.0011158
0.00583998
0.00585082
0.000712564
0.00598041
0.00601198
0.00598832
0.0011221
0.00326438
0.000327661
0.0058316
0.00574352
0.00707915
0.00322905
0.000683443
0.0143695
0.00601876
0.00114725
0.000171357
0.000546352
0.00066697
0.013715
0.00589799
0.00580444
0.0019441
0.0180834
0.0185268
0.00596154
0.0194855
0.00769076
0.00317484
0.00668711
0.0024341
0.00144381
0.00400212
0.00587511
0.00601966
0.00580772
0.00595976
0.00342798
0.00577089
0.00589504
0.000340145
0.00723355
0.00208581
0.0019844
0.0147456
0.00563167
5.13746e-05
0.0172514
0.00237778
0.00469385
0.00213724
0.00185949
0.0079501
0.00588725
0.00582551
0.00590128
0.000764075
0.00298382
0.00213332
0.00272933
0.00594038
0.0225876
0.00584388
0.00456293
0.00207679
0.00251813
0.00452046
0.014869
0.00290784
0.00592252
0.00119036
0.00454513
0.0151844
0.0026673
0.00356504
0.00600779
0.00204557
0.00828424
0.00655157
0.00599293
0.00449449
0.00299276
0.00594979
0.00272244
0.00601265
0.00459971
0.00308527
0.00578803
0.00442476
0.0074849
0.00601004
0.00592275
0.00539883
0.00596304
0.00601794
0.00567317
0.00975648
0.00578557
0.00604053
0.00605617
0.00196564
0.00296438
0.0045629
0.00836266
0.00716229
0.00588483
0.00663338
0.0023427
0.00586711
0.000734846
0.00589249
0.00581522
0.00315242
0.00584215
0.00773969
0.0058509
0.00578638
0.00145246
0.0115611
0.0148015
0.00428087
0.00603653
0.0058715
0.00587689
0.00540488
0.0180796
0.00534169
0.000655485
0.00587318
0.0174699
0.00168419
0.00602862
0.00928238
0.00597611
0.00410902
0.00586487
0.00587096
0.00586706
0.00144581
0.00246006
0.00584898
0.00269654
0.00431517
0.0058149
0.0052849
0.00583693
0.00536689
0.00241471
0.00587931
0.00294241
0.00212007
0.00580529
0.00587378
0.014513
0.00581232
0.00837014
0.00233429
0.0058825
0.000788816
0.00579569
0.00307755
0.00168841
0.0058375
0.000672158
0.00582257
0.00598151
0.00561813
0.00596693
0.00124379
0.000968872
0.0184945
0.00501168
0.00591405
0.00226992
0.00711679
0.00517953
0.00588516
0.0101321
0.00589498
0.00590646
0.0058926
0.00523802
0.00607236
0.00584379
0.00074595
0.00583997
0.00640223
0.0035118
0.00887131
0.00581316
0.00743855
0.00595277
0.0118373
0.0057881
0.00586296
0.0152768
0.00169754
0.00599874
0.00582336
0.00930508
0.00336132
0.00594459
0.00906643
0.00138855
0.00957981
0.00597568
0.00231773
0.00603937
0.00659685
0.00579079
0.0012023
0.00533284
0.00580337
0.00591841
0.00268665
0.0015647
0.00640857
0.0175841
0.0058749
0.00584523
0.00646938
0.0131438
0.00590982
0.000769286
0.00596963
0.0103512
0.00306685
0.0113849
0.00585455
0.00355094
0.00560992
0.0139349
0.00595271
0.00584212
0.00301846
0.00548057
0.00098793
0.00137857
0.000242161
0.0058319
0.00586506
0.00523145
0.0148549
0.00591716
0.0033684
0.00501228
0.00595348
0.00270306
0.00837211
0.00543098
0.00563271
0.00455323
0.0143705
0.00210146
0.00192907
0.00581782
0.0223199
0.0062377
0.00898706
0.0165567
0.00590599
0.00580628
0.0060157
0.00310103
0.0149655
0.00968649
0.0058674
0.00582439
0.0144969
0.0219
0.000634565
0.00580842
0.00589969
0.00237224
0.0228072
0.00257866
0.00536151
0.00213537
0.00582069
0.0101701
0.00262008
0.00367915
0.00852799
0.00594713
0.0045469
0.00987302
0.00586157
0.00255028
0.00240547
0.00583204
0.0104154
0.00533885
0.0059528
0.00986303
0.00581291
0.00365468
0.00581577
0.00822407
0.00155453
0.00582391
0.00324405
0.00582425
0.001319
0.00514697
0.00597247
0.00593193
0.00143705
0.00252427
0.00479198
0.00582396
0.00594383
0.00595369
0.0173757
0.00617457
0.0047121
0.00294491
0.00852131
0.010171
0.00582668
0.00228754
0.000576626
0.00444578
0.00145407
0.00161736
0.000695136
0.00570536
0.0129833
0.00991337
0.00583755
0.00563966
0.00582882
0.00128046
0.00469234
0.00128373
0.00616317
0.00587966
0.0117762
0.00593215
0.00582348
0.00595217
0.00578894
0.00585366
0.00947151
0.0182885
0.00586966
0.00265857
0.00582701
0.00166706
0.00128866
0.0126108
0.00420332
0.00587492
0.00212478
0.00248484
0.0111442
0.00587809
0.00578628
0.00551086
0.00299747
0.00589636
0.00869183
0.00388804
0.00152657
0.0030623
0.0163859
0.0160545
0.0057278
0.00581764
0.0059432
0.00341633
0.00319186
0.0102741
0.00227214
0.00914396
0.00980906
0.0058284
0.0058338
0.0034219
0.00408413
0.00439901
0.00938364
0.00499436
0.00240256
0.00600578
0.00950527
0.00581952
0.00166557
0.00573556
0.00586752
0.00602972
0.00585649
0.00583494
0.00203082
0.001414
0.0029754
0.00391811
0.00311005
0.00391591
0.0138276
0.0036509
0.0010887
0.00377968
0.0138822
0.00578573
0.00585175
0.00600517
0.000521433
0.0138548
0.00127626
0.00402112
0.00177764
0.0144026
0.00447023
0.00610537
0.00263092
0.00587342
0.0139224
0.00598973
0.0022827
0.0128792
0.000686325
0.00776282
0.00587235
0.0062954
0.0127874
0.00357422
0.00579751
0.00228401
0.00236614
0.00635548
0.00581098
0.00595541
0.00170103
0.00152704
0.00262925
0.0142055
0.00599313
0.00594293
0.00563287
0.00517766
0.00580165
0.0112087
0.00581653
0.00580715
0.0058182
0.00143838
0.00590531
0.00580605
0.00588195
0.00941313
0.00584637
0.00245664
0.00583629
0.00549219
0.00862489
0.00595649
0.00590626
0.00598184
0.00598235
0.00926789
0.00595141
0.00496504
0.00583568
0.00598295
0.0082184
0.0070353
0.00584324
0.00545764
0.00316925
0.0123653
0.00581316
0.0059416
0.0189808
0.00588243
0.00123535
0.00588046
0.00721644
0.00581299
0.00344998
0.00104707
0.00580582
0.00542244
0.00690803
0.00110873
0.0199547
0.00606249
0.0116
0.00608227
0.00581065
0.00582124
0.00586246
0.00615174
0.00268343
0.00147744
0.000171689
0.00186539
0.00585667
0.0085131
0.013741
0.00293066
0.00238248
0.00944698
0.00855704
0.0071372
0.00598053
0.00705519
0.00473168
0.00537693
0.00524052
0.0054193
0.00825819
0.00646097
0.00840581
0.0103928
0.00562771
0.00584643
0.00634649
0.00177757
0.00579007
0.00568039
0.00261907
0.00463665
0.00583171
0.00582969
0.00586547
0.00586575
0.00144516
0.00173697
0.0150391
0.0146766
0.00584608
0.00455228
0.00752254
0.00444068
0.0129715
0.00240214
0.00579151
0.00584781
0.00602209
0.0090087
0.00430478
0.00179146
0.00121102
0.0058061
0.00415741
0.00763975
0.000407614
0.00162647
0.00680749
0.00185741
0.00588759
0.00586927
0.0079955
0.00995329
0.00147826
0.00229497
0.0021853
0.00579293
0.00583183
0.00281639
0.00579994
0.00584419
0.00579389
0.00581144
0.00201906
0.00178218
0.00417788
0.00579892
0.00724382
0.0113441
0.00582077
0.00593148
0.0059163
0.00593168
0.00206698
0.01065
0.0104868
0.00614795
0.0122994
0.00223104
0.00271393
0.00773254
0.00569583
0.0023848
0.00579197
0.00583617
0.00156197
0.00866858
0.0139541
0.00178557
0.00231816
0.00583215
0.00187722
0.00585497
0.0189584
0.00244557
0.00583283
0.0028658
0.00581027
0.00303368
0.00106029
0.00588758
0.00586914
0.00133501
0.0058991
0.00161012
0.000522809
0.00153437
0.00190151
0.00136705
0.00582758
0.00269732
0.00555782
0.00670946
0.0059587
0.00601267
0.00368043
0.00582029
0.00250429
0.0101623
0.00704536
0.00855968
0.00581837
0.00198189
0.0059061
0.00581328
0.00581402
0.00581278
0.00575676
0.00367477
0.00174956
0.00579392
0.00955313
0.00111497
0.0096561
0.00585595
0.00584731
0.00595137
0.000578152
0.00707055
0.00247653
0.00269685
0.00590948
0.00598622
0.00595653
0.00588933
0.00102324
0.00899575
0.00589348
0.00579284
0.0058645
0.00588501
0.000505189
0.00503704
0.00180129
0.00865209
0.0101991
0.00586466
0.00149023
0.00386458
0.00238086
0.00402842
0.00594263
0.00537015
0.00233826
0.00471994
0.0120064
0.00584105
0.00789072
0.00600862
0.00205084
0.00901713
0.00592453
0.00588727
0.00231648
0.00581315
0.00331175
0.0148644
0.0138612
0.00249518
0.0024984
0.0186544
0.00578979
0.00585108
0.00867048
0.00125116
0.0013992
0.00997419
0.00584516
0.00612521
0.0057909
0.0130092
0.000158236
0.00554973
0.00595318
0.00919066
0.00343898
0.00595104
0.00273361
0.00695375
0.00948344
0.00581078
0.00588832
0.00297527
0.00187258
0.00132779
0.00587183
0.00453336
0.0058427
0.012113
0.000456016
0.000631498
0.00418076
0.00715995
0.00570226
0.00581936
0.000282986
0.00600034
0.00607147
0.00589122
0.005826
0.00395825
0.00183009
0.00161035
0.00438658
0.0068625
0.00583526
0.0150052
0.00604361
0.00570831
0.00586003
0.00585757
0.00590859
0.0100097
0.00585788
0.00578888
0.00720122
0.0058735
0.00497284
0.00600714
0.00586462
0.00250112
0.000289181
0.0138655
0.00588509
0.0142005
0.00814089
0.00595076
0.00845212
0.0021082
0.00582171
0.00547685
0.00217809
0.0112993
0.00419452
0.00586795
0.00578893
0.0128959
0.000543261
0.00111679
0.00541384
0.00559365
0.00594418
0.00586951
0.00157867
0.0160661
0.00118312
0.0142576
0.00588394
0.00131266
0.0021363
0.0077076
0.00557199
0.00849317
0.000243861
0.00587562
0.00277485
0.00232978
0.0083774
0.0132624
0.010217
0.0176548
0.00123549
0.00582256
0.00345033
0.00301195
0.00335313
0.0059281
0.00599128
0.00261078
0.0232405
0.00580165
0.00332512
0.00584048
0.00586588
0.00545305
0.00298239
0.0194478
0.00581437
0.00582419
0.0028125
0.000672184
0.00159365
0.00578632
0.00494968
0.000460561
0.00748272
0.00311813
0.00261869
0.00595406
0.00587596
0.00991717
0.00204402
0.00337265
0.00486887
0.00249411
0.0033045
0.00702209
0.0061293
0.00585028
0.00230519
0.00582049
0.00177511
0.00589785
0.00582664
0.00499982
0.010318
0.00579781
0.00255151
0.00584447
0.000497463
0.00244271
0.00238062
0.0091294
0.00281089
0.00132239
0.00601625
0.00255741
0.00907865
0.00177285
0.00583358
0.00219413
0.00591168
0.0126586
0.0187004
0.00593093
0.00879281
0.00371122
0.00583476
0.0174821
0.00501732
0.00591911
0.00905958
0.00615275
0.00603166
0.00899161
0.00585318
0.00395857
0.000734474
0.0135793
0.00983556
0.00589587
0.00591827
0.0028237
0.00893399
0.00161471
0.00454406
0.00584118
0.0188526
0.00782228
0.00207373
0.00578978
0.00109509
0.00581255
0.00606771
0.0111824
0.00599108
0.00345029
0.0135125
0.00587046
0.00586355
0.00592419
0.00588377
0.00272166
0.00617747
0.00231211
0.00798535
0.00584218
0.0022758
0.00591233
0.00581267
0.00592844
0.00586784
0.00552225
0.00584447
0.00305374
0.00585364
0.00404098
0.0111212
0.00165855
0.00606804
0.00897295
0.00101527
0.000149774
0.00160104
0.00185177
0.00217885
0.00258693
0.00165389
0.00523026
0.00857651
0.00457581
0.00145405
0.0168885
0.00596004
0.0023005
0.00329997
0.00948652
0.00594009
0.0127097
0.00584818
0.00585927
0.0109364
0.00596065
0.00171426
0.00386805
0.00582117
0.00428477
0.00582096
0.00582396
0.00589856
0.00593489
0.00101148
0.00585607
0.000733649
0.0077128
0.000796517
0.0139713
0.00587176
0.00604447
0.00575313
0.00587094
0.00581844
0.00223242
0.00593043
0.00587427
0.00595014
0.00599912
0.00505087
0.00887358
0.00198008
0.0103848
0.000923616
0.00583326
0.00679341
0.00224436
0.00585077
0.01455
0.00452936
0.0107695
0.00583401
0.0192621
0.0149696
0.00466877
0.00580276
0.00425374
0.00214232
0.00338614
0.00588447
0.00584226
0.00845249
0.00219616
0.00976367
0.00591645
0.00583889
0.00644597
0.00593166
0.000486568
0.0183554
0.0110623
0.00048553
0.0163561
0.00599172
0.00587108
0.00171824
0.00546225
0.00305868
0.000510323
0.00146396
0.00593229
0.00584677
0.0104374
0.00588247
0.00543457
0.000442982
0.00727381
0.000728413
0.00597248
0.00588367
0.00595615
0.0184749
0.0141447
0.0058033
0.00599585
0.00591208
0.00228743
0.00581142
0.00590264
0.00594655
0.00226228
0.000206706
0.00163051
0.00300872
0.00591308
0.00205045
0.00602261
0.00449988
0.00208315
0.0067706
0.00220422
0.00583589
0.00235506
0.00583117
0.00598856
0.00595347
0.00307504
0.00147814
0.0148678
0.00305753
0.0108483
0.00583266
0.00601371
0.00595277
0.00601814
0.00433042
0.00583839
0.00228841
0.00139079
0.0071695
0.00599968
0.00818009
0.00575668
0.00560039
0.000574469
0.00669272
0.00154548
0.00223268
0.000365273
0.00810142
0.0163097
0.00463331
0.00597582
0.000816805
0.00580947
0.00582073
0.00240756
0.00591567
0.0080354
0.00218046
0.00262536
0.018291
0.00106129
0.00849583
0.00582406
0.00364375
0.00549541
0.00589588
0.00322865
0.00287506
0.0120942
0.0108038
0.00581521
0.00261252
0.00575757
0.00770423
0.00980326
0.00159989
0.005884
0.00592488
0.00740659
0.00110566
0.00430833
0.0108203
0.00567911
0.00583191
0.00118668
0.00329064
0.00205804
0.00244469
0.00852017
0.0205145
0.000855225
0.00323693
0.00594587
0.00550714
0.00586393
0.00488517
0.00138209
0.00745155
0.010282
0.00259007
0.00136969
0.00514298
0.00772923
0.000939008
0.00595479
0.00233875
0.00943125
0.00355217
0.00334791
0.00590069
0.00587566
0.00286827
0.00704703
0.00790204
0.00603236
0.00586696
0.00587264
0.00528384
0.00128948
0.00593645
0.00457327
0.000547202
0.00801368
0.000993774
0.010841
0.00583565
0.00379823
0.0028761
0.00590229
0.00140122
0.00731991
0.00587877
0.00585003
0.00104665
0.00784659
0.00587259
0.00581493
0.0129592
0.00595536
0.00950996
0.00581445
0.00910484
0.00587792
0.00272881
0.0113454
0.00910332
0.00511828
0.000669588
0.0133725
0.00939169
0.0010325
0.00575041
0.00545045
0.00583292
0.00552442
0.00599509
0.00582424
0.00589598
0.0101512
0.00586148
0.000282468
0.00585299
0.00581316
0.00305943
0.000654579
0.00275042
0.00589261
0.00516233
0.00581881
0.00249634
0.000726346
0.00738362
0.00584511
0.00262153
0.0152586
0.00594711
0.00584832
0.00914045
0.0023457
0.00153148
0.00148308
0.0153704
0.00468238
0.000816257
0.00298998
0.00547998
0.0156637
0.01401
0.0116583
0.00263003
0.0058875
0.00151524
0.00583393
0.00584565
0.010139
0.00910791
0.0058677
0.00827645
0.00218496
0.00478906
0.00439433
0.00451914
0.00586553
0.00205775
0.00711421
0.00591392
0.00508628
0.00943911
0.0100718
0.0104525
0.0066465
0.00154992
0.0107732
0.00917394
0.00240334
0.00591437
0.00586273
0.0232034
0.00583248
0.000729339
0.00600658
0.00594605
0.00584739
0.00609344
0.00725745
0.00440221
0.00595014
0.0013142
0.00561952
0.00508522
0.0058199
0.00595781
0.00329093
0.00341337
0.00782287
0.00755227
0.0044402
0.00163962
0.00583079
0.00122374
0.00593736
0.00112843
0.00589159
0.00576604
0.00595174
0.00603786
0.00130694
0.00593925
0.00151439
0.00590664
0.00144201
0.000292218
0.00291999
0.00587442
0.00277802
0.00604744
0.00262005
0.00554126
0.0107299
0.000901038
0.0022225
0.00336469
0.00598276
0.00598298
0.00587958
0.00758168
0.00582377
0.00592153
0.00588828
0.0100388
0.00278046
0.00567626
0.00541359
0.00599245
0.00182341
0.0100175
0.0033641
0.00235867
0.00586184
0.00650983
0.00590122
0.00592269
0.000955564
0.0103408
0.0059943
0.00490591
0.00440616
0.00153839
0.00593806
0.00594648
0.00995733
0.00568729
0.00674888
0.000940242
0.00715203
0.00588415
0.00528262
0.0058392
0.00996502
0.00118429
0.00131102
0.00160522
0.00534022
0.0047969
0.0062248
0.00408656
0.00595454
0.00720402
0.00220256
0.00598903
0.00267425
0.00587868
0.00593058
0.00583098
0.001169
0.005839
0.00127048
0.00589939
0.00453514
0.00255646
0.0141509
0.000395084
0.00706281
0.0167921
0.00593947
0.00115148
0.000613743
0.00627876
0.000587963
0.0240507
0.00583328
0.00558711
0.0058454
0.0101751
0.00185488
0.00583856
0.0105402
0.000824845
0.00187246
0.00558685
0.00581588
0.00598455
0.00080449
0.00177559
0.00700621
0.0026335
0.00067812
0.000779831
0.000817426
0.00576884
0.00258833
0.00744842
0.00588118
0.00586509
0.000795273
0.00752841
0.00504686
0.00522423
0.00603025
0.00363586
0.0157906
0.00592503
0.00255227
0.0058109
0.0025519
0.00248805
0.00530299
0.00495202
0.000542557
0.00497003
0.00798726
0.00205447
0.00583232
0.00241627
0.0121689
0.00657142
0.00352174
0.00234279
0.0057903
0.00608475
0.00593195
0.00489532
0.00807205
0.00676127
0.0024352
0.00356814
0.00409362
0.00191556
0.000874746
0.00596991
0.00596055
0.00584028
0.00795476
0.00583056
0.00677015
0.00176398
0.00207142
0.00051551
0.000690133
0.00359583
0.00144955
0.00252527
0.00583302
0.00585081
0.00100267
0.000588853
0.00335496
0.0058108
0.00586747
0.000852463
0.00202984
0.00130238
0.00848982
0.00374372
0.0058349
0.00124845
0.00618479
0.00246833
0.00830723
0.00581608
0.00245259
0.00594759
0.00954636
0.00585953
0.0107284
0.00591755
0.00420427
0.00312932
0.00592553
0.00267614
0.00220742
0.00290713
0.00303119
0.0102815
0.00293285
0.00215688
0.00586067
0.00120001
0.0048089
0.00599954
0.00585987
0.0138393
0.00578484
0.00663602
0.00602501
0.00262289
0.000654563
0.00867782
0.00188289
0.00587787
0.00586521
0.00230384
0.009072
0.00583465
0.0105913
0.00742493
0.0101339
0.0012648
0.00227551
0.00546783
0.00250361
0.000488148
0.00583145
0.0170427
0.0168038
0.00515151
0.00815617
0.00891809
0.00600082
0.00563642
0.00585166
0.00152584
0.0141656
0.00982149
0.00346529
0.0036397
0.00584588
0.00912108
0.00188872
0.00590546
0.00588659
0.00779987
0.00389613
0.00221079
0.00600928
0.00595598
0.00581201
0.0059174
0.00908779
0.00104229
0.00206576
0.00702405
0.00228828
0.00595966
0.00584097
0.00585532
0.00552883
0.010702
0.000867892
0.00551855
0.00618279
0.00684978
0.000588615
0.00242632
0.00236739
0.00217034
0.00785357
0.0023842
0.00401379
0.00583496
0.00600298
0.00249907
0.0158117
0.0165751
0.00898638
0.000772443
0.00741814
0.00577406
0.00325129
0.00597673
0.00228289
0.00840841
0.00985529
0.00444885
0.00375522
0.00586651
0.00586892
0.00582434
0.00584336
0.00449874
0.00228388
0.00434429
0.00219584
0.00986112
0.00148172
0.0101214
0.00524033
0.00267874
0.00762496
0.00148406
0.0157407
0.00863574
0.00581031
0.00542517
0.00256182
0.00206087
0.00138889
0.00177977
0.00415252
0.0124195
0.0060558
0.00156502
0.00612605
0.00691705
0.0182222
0.00364651
0.00586755
0.016561
0.00118855
0.00120519
0.00460332
0.00151066
0.00550569
0.00592331
0.0008563
0.0100698
0.000589228
0.00232611
0.00948063
0.0120695
0.00585476
0.00584208
0.00351329
0.00936311
0.00968057
0.00583225
0.00472592
0.00593748
0.00586745
0.00594178
0.00305554
0.000421777
0.00646579
0.00452175
0.00589168
0.00590572
0.00583399
0.00181482
0.00599591
0.00884727
0.00576195
0.00884689
0.00592682
0.0058358
0.00106753
0.00306944
0.0143716
0.00155159
0.00916518
0.005901
0.00588477
0.00584455
0.00136361
0.00270707
0.00270072
0.00219252
0.00606981
0.00330007
0.00070538
0.00550866
0.00432919
0.00594758
0.00719431
0.00943712
0.00256687
0.0134894
0.0022599
0.00329753
0.00590881
0.000734385
0.00593394
0.0167554
0.00196755
0.00183363
0.00870644
0.00583097
0.00209423
0.00593136
0.00527389
0.00584349
0.00581093
0.0104151
0.000594468
0.00680902
0.000644187
0.00197327
0.0022997
0.00582833
0.0135919
0.00316985
0.00592105
0.00134028
0.00590198
0.00254885
0.00586856
0.00998809
0.0060286
0.0181441
0.0155651
0.00311631
0.00227848
0.000780976
0.00999
0.00591605
0.00951298
0.0143612
0.00584098
0.00584879
0.00588714
0.00592859
0.00141997
0.00589741
0.00723993
0.00232786
0.0123637
0.00283203
0.00594632
0.00594911
0.00584647
0.0019177
0.00588923
0.00588701
0.000960366
0.00304408
0.0125518
0.00761529
0.00167034
0.00573612
0.00179125
0.00591032
0.00594101
0.0053181
0.00587215
0.00309643
0.00373997
0.0106469
0.000295988
0.00591567
0.00654378
0.00969652
0.00592994
0.00897085
0.00765931
0.00583153
0.00343713
0.00582271
0.00263842
0.0065982
0.00874071
0.00587048
0.00385664
0.00581021
0.00587148
0.00146128
0.00594272
0.00522941
0.00199197
0.00695014
0.00581471
0.00327183
0.00320266
0.00805349
0.00581936
0.00640209
0.00283974
0.00606693
0.00813911
0.0042094
0.00563274
0.00588255
0.00789925
0.00873541
0.00438942
0.00582357
0.00582436
0.00860469
0.00618635
0.00740431
0.00598053
0.00870286
0.00590963
0.000489822
0.00589628
0.00585238
0.0048225
0.00581191
0.00762078
0.00423926
0.0107732
0.0114503
0.00650825
0.00102787
0.0023454
0.00630332
0.0091212
0.00599247
0.000975845
0.00584349
0.00578736
0.00583594
0.00535705
0.00592326
0.00379075
0.00356278
0.0068844
0.00213682
0.00308209
0.00581301
0.0025154
0.00580873
0.000826666
0.000604551
0.00679396
0.00594798
0.0058483
0.00607744
0.0118939
0.00595994
0.0134186
0.00491943
0.00254584
0.000860688
0.00594481
0.0101338
0.00593055
0.010799
0.00579919
0.00330972
0.00227951
0.00587446
0.00467843
0.00793181
0.00580551
0.00186154
0.00458138
0.00644841
0.00640425
0.0145035
0.00680002
0.00594077
0.000870643
0.00786946
0.00592099
0.00481627
0.00582052
0.00230646
0.00235461
0.00219167
0.00755152
0.00588195
0.00718551
0.00535977
0.00187945
0.00891466
0.00570338
0.00224593
0.00814585
0.000497923
0.00586916
0.0133651
0.00135364
0.00233717
0.00428151
0.0105544
0.00581012
0.00201007
0.00642424
0.000483104
0.00582263
0.00307608
0.00737584
0.00190223
0.00796921
0.00594202
0.0040019
0.0028876
0.0102082
0.00225225
0.00935232
0.0102601
0.00370433
0.00594894
0.0106382
0.00589452
0.00889051
0.0058303
0.00586608
0.00593226
0.00923754
0.00535834
0.0107876
0.00941376
0.00594842
0.00588387
0.00583081
0.00838392
0.0018752
0.00555315
0.00612461
0.00582917
0.00642081
0.00791992
0.00147622
0.00641174
0.00807433
0.00269385
0.0021751
0.00358441
0.00263585
0.00235747
0.00726699
0.00576075
0.00682429
0.00595389
0.00584847
0.00838554
0.00734961
0.0061084
0.00151955
0.00222498
0.00594259
0.00610683
0.00609922
0.00802677
0.0058322
0.00211186
0.0137226
0.00584557
0.00590292
0.00657324
0.0116997
0.00587273
0.00583115
0.00468116
0.00592099
0.00646884
0.00593092
0.00593646
0.004928
0.00169277
0.0111345
0.00238338
0.00754566
0.00588787
0.00567062
0.00952911
0.00838737
0.00523058
0.00301096
0.00582271
0.00198079
0.0058739
0.00564173
0.000641638
0.00593135
0.013439
0.00254452
0.00588876
0.00570801
0.00712479
0.0140702
0.00580179
0.00584848
0.00619517
0.00775295
0.0128893
0.00319466
0.00594474
0.00583321
0.0152443
0.00590935
0.00599842
0.00244324
0.00584729
0.00950747
0.00462838
0.00594128
0.00429368
0.00585517
0.00593876
0.00268076
0.00721614
0.00248341
0.00710475
0.00284758
0.00594664
0.00582205
0.00587784
0.00592312
0.00593239
0.00612727
0.000932183
0.00905331
0.00586488
0.00159242
0.00598305
0.00639568
0.00587712
0.00581134
0.00334478
0.00902505
0.00591084
0.000634906
0.000316726
0.00213826
0.00588704
0.00215157
0.00588101
0.00572812
0.00585193
0.00588588
0.00595614
0.00590771
0.00529528
0.00532845
0.00241574
0.00145916
0.00102609
0.00665923
0.00997376
0.00234541
0.00730773
0.00718963
0.0010202
0.00943397
0.00690232
0.00164861
0.0103791
0.00593469
0.00592537
0.0140486
0.00584968
0.00389144
0.00701917
0.00440801
0.00463144
0.000993991
0.00584843
0.00575094
0.00589629
0.00484305
0.00589306
0.00362339
0.00816185
0.00837924
0.00777334
0.00590309
0.00581931
0.0024362
0.0097363
0.00948405
0.0004796
0.000201038
0.00582584
0.000521701
0.00764799
0.0098985
0.00578067
0.00591052
0.00589594
0.00585366
0.00593601
0.00592236
0.00411045
0.00915888
0.00231275
0.00766514
0.008482
0.0025398
0.00109042
0.00582942
0.00594973
0.00589017
0.00587729
0.00592805
0.0050742
0.00873369
0.00473626
0.00908985
0.00320105
0.0054989
0.000520098
0.00913778
0.00900385
0.00592937
0.00589868
0.0133557
0.00590971
0.00580895
0.0112273
0.00949321
0.000729843
0.00586442
0.00589326
0.00579788
0.00139883
0.0061814
0.00584649
0.00576497
0.000255213
0.00594855
0.0145551
0.0012665
0.00847151
0.00593899
0.000678125
0.0103708
0.0018156
0.00609955
0.00165544
0.00785628
0.00586931
0.00561759
0.00584747
0.00217529
0.00405952
0.00598776
0.00423648
0.00590293
0.00596283
0.00582923
0.00940674
0.00264395
0.0016598
0.00815071
0.00586927
0.00111563
0.00201424
0.000802819
0.00592519
0.00586343
0.00591732
0.00161528
0.00594487
0.00590914
0.0100371
0.00671794
0.00954278
0.001055
0.000450409
0.00418342
0.00207733
0.00835236
0.00060561
0.00585578
0.00596706
0.00578542
0.00595111
0.00613126
0.0066948
0.00590336
0.0037661
0.0105975
0.00240086
0.00587312
0.00619006
0.00960764
0.00656022
0.00912667
0.00972347
0.00945889
0.00578771
0.000611108
0.00120459
0.0144516
0.00276052
0.00583663
0.00140784
0.00206338
0.00224259
0.0110414
0.00596501
0.00480928
0.00285395
0.0103396
0.00202608
0.00186203
0.00296082
0.00126185
0.01047
0.0102801
0.00952607
0.00164687
0.00976191
0.00590131
0.00571088
0.00289412
0.00519934
0.0159812
0.00761802
0.00603355
0.000503119
0.000928753
0.0060314
0.00679841
0.00583213
0.00147965
0.00501008
0.00582908
0.00933945
0.00908493
0.0106497
0.0107361
0.00264515
0.00594538
0.00590504
0.00610122
0.00590886
0.00593163
0.00222808
0.00373191
0.00941321
0.00349641
0.00620879
0.00385455
0.00590302
0.00822802
0.00588183
0.00160782
0.0119363
0.00581076
0.00721372
0.00146193
0.00585527
0.00230388
0.000937411
0.00582221
0.00387156
0.0059491
0.0104862
0.00896496
0.00590611
0.00133507
0.00587299
0.00624703
0.00940313
0.0024347
0.00432011
0.0055666
0.00583492
0.00784512
0.00308405
0.00593597
0.000643754
0.00201856
0.00582094
0.00588374
0.000558548
0.00589484
0.00504524
0.000755215
0.00403978
0.00299843
0.00221777
0.000768664
0.005916
0.00643887
0.00269074
0.00868304
0.00583221
0.00588085
0.00246064
0.00228503
0.0153388
0.00593833
0.0139769
0.00593881
0.00520063
0.00601466
0.00374218
0.000458447
0.00164461
0.00758813
0.0113824
0.00830294
0.00906411
0.00578792
0.000222054
0.00014468
0.00442481
0.00594037
0.000298164
0.00269628
0.00831589
0.0016155
0.000746855
0.011165
0.00685379
0.00202399
0.000977113
0.00581169
0.0030254
0.00214093
0.00583072
0.00249622
0.00556748
0.00559652
0.00773201
0.000559295
0.00582926
0.00584469
0.00445099
0.00583303
0.00910267
0.00584826
0.00585333
0.00806094
0.000672357
0.00275448
0.00179314
0.00602768
0.000546897
0.0067947
0.00943744
0.00720353
0.00272361
0.00941753
0.00585519
0.00586346
0.00324921
0.00748356
0.000640523
0.000553
0.00103893
0.00534013
0.00587258
0.00583372
0.00593222
0.00287209
0.00618293
0.000164434
0.0022962
0.00679674
0.00493494
0.00908847
0.00326165
0.00585233
0.00223423
0.00356786
0.00584032
0.00520417
0.00264663
0.00357945
0.00692274
0.00943261
0.00585173
0.00203717
0.00210283
0.00064527
0.00947933
0.00824053
0.00706949
0.00595837
0.00165881
0.00889594
0.002058
0.00138461
0.00901243
0.0102575
0.00670967
0.00955191
0.00583766
0.009074
0.00589341
0.00584963
0.00585201
0.000953645
0.00645662
0.00207847
0.0135097
0.00740293
0.000987435
0.00580214
0.0058114
0.00589874
0.00605941
0.00248953
0.00755311
0.0103101
0.00187323
0.00680792
0.00595353
0.000934808
0.00581321
0.0106499
0.00218029
0.00595597
0.000504092
0.00178771
0.00157083
0.00686605
0.000492568
0.00261071
0.0041744
0.00937608
0.000763197
0.00217818
0.0132031
0.00586454
0.000874162
0.00588217
0.00760288
0.005544
0.00135558
0.0110914
0.000726423
0.0117896
0.000737103
0.000901919
0.00162716
0.00581278
0.0012903
0.000754044
0.00350677
0.000815597
0.00203156
0.00170512
0.00183846
0.00129749
0.0058556
0.00215344
0.00200231
0.00242856
0.00584373
0.00681255
0.000862381
0.0079217
0.00143928
0.00585994
0.0089495
0.00583097
0.00574155
0.0058202
0.00902061
0.00148379
0.0106267
0.00410901
0.000788494
0.00273777
0.00159971
0.0081642
0.00131386
0.00351943
0.00612675
0.0021534
0.00593286
0.00955238
0.0136157
0.00610773
0.00600026
0.00154499
0.00291555
0.00503431
0.00229733
0.00215735
0.00591377
0.00233815
0.00490677
0.00577845
0.0101361
0.00241942
0.00581571
0.00951614
0.00232557
0.00236521
0.00874237
0.00205633
0.00110099
0.00581307
0.0061635
0.00574388
0.00257041
0.00585288
0.00895838
0.00945567
0.00720627
0.00179433
0.00679053
0.000670797
0.00271938
0.00811795
0.00260254
0.000674237
0.0041053
0.00166219
0.0037386
0.00213003
0.000783112
0.00574249
0.000273954
0.00676069
0.0182728
0.00581456
0.000697231
0.00038262
0.0130271
0.00583183
0.00245199
0.00593569
0.00228062
0.0088007
0.00223176
0.00232248
0.00582381
0.00582216
0.00116339
0.00755615
0.00593269
0.00109828
0.000732447
0.00580601
0.00596138
0.00950148
0.000654154
0.00178104
0.00584546
0.00262975
0.000725687
0.00599066
0.00587069
0.0074032
0.00224782
0.00903158
0.00209533
0.00251869
0.00641829
0.000475466
0.000512437
0.00582276
0.0104522
0.00235988
0.00274254
0.0147762
0.00244176
0.00594396
0.000540681
0.00339578
0.00568786
0.00584073
0.0161345
0.00586015
0.0014806
0.0060513
0.000933878
0.00590662
0.000743622
0.0023807
0.00807735
0.00059525
0.0070987
0.000493816
0.0101067
0.00581156
0.00233118
0.00279215
0.00582729
0.0144646
0.00120588
0.00267862
0.0110817
0.00595709
0.00245633
0.00709356
0.00264174
0.0081207
0.00404088
0.0109281
0.00962941
0.0028048
0.00500865
0.00584576
0.00177414
0.00189298
0.00584473
0.00577688
0.010597
0.00691901
0.00974431
0.00581991
0.0176723
0.00582951
0.00429866
0.00590901
0.0124214
0.0005336
0.00211781
0.0058544
0.00131598
0.00254223
0.00579962
0.0059338
0.000742019
0.0023938
0.00182405
0.00118366
0.00177378
0.00398679
0.000427632
0.00083635
0.00582597
0.0027042
0.00102878
0.00276832
0.00602549
0.00203897
0.00589346
0.00588529
0.00218592
0.00568482
0.00719795
0.000859022
0.00212199
0.00892934
0.00591349
0.0129055
0.0026853
0.00405201
0.00281702
0.00287524
0.0124113
0.0030846
0.00639572
0.00226756
0.00456101
0.00581485
0.00595567
0.00879596
0.0023322
0.00415468
0.00536834
0.00265691
0.00590478
0.00442576
0.0105513
0.00596949
0.00132701
0.00846004
0.00165763
0.00240829
0.0134498
0.0153948
0.0101786
0.0121229
0.0142499
0.000798614
0.00237699
0.00589603
0.00266716
0.00588847
0.00583326
0.00206624
0.0125712
0.00320925
0.00584185
0.0101446
0.000642576
0.0059195
0.00534441
0.00132124
0.00585616
0.00586421
0.0148524
0.00251252
0.00214292
0.00141773
0.00591457
0.00121479
0.00268477
0.00255575
0.000915786
0.000595421
0.00097492
0.00618949
0.0079928
0.00578767
0.00486717
0.000522162
0.00116676
0.000639333
0.00978113
0.00237301
0.004858
0.00247103
0.0026391
0.00318137
0.000851405
0.00585844
0.00582989
0.00589025
0.00364662
0.00898511
0.0058839
0.0017693
0.00572297
0.00324929
0.00572145
0.00101153
0.00342648
0.000687872
0.00590556
0.00570327
0.00460995
0.00591508
0.00866575
0.00347835
0.00591141
0.00437053
0.00512431
0.00593278