/*--------------------------------*- C++ -*----------------------------------*\
| =========                 |                                                 |
| \\      /  F ield         | OpenFOAM: The Open Source CFD Toolbox           |
|  \\    /   O peration     | Version:  v2012                                 |
|   \\  /    A nd           | Website:  www.openfoam.com                      |
|    \\/     M anipulation  |                                                 |
\*---------------------------------------------------------------------------*/
FoamFile
{
    version     2.0;
    format      ascii;
    class       volScalarField;
    location    "100";
    object      p;
}
// * * * * * * * * * * * * * * * * * * * * * * * * * * * * * * * * * * * * * //

dimensions      [0 2 -2 0 0 0 0];


internalField   nonuniform List<scalar> 
13851
(
0.00725922
-0.027801
-0.0233675
0.00702159
-0.0318522
-0.00145321
-0.0127439
-0.0174555
0.00375125
0.000735185
-0.0158623
-0.0174584
-0.0181613
-0.0854149
-0.00615574
0.000747987
-0.0129184
0.00876675
-0.0269477
0.00374149
0.00675047
-0.0250874
0.0015321
0.00338073
0.00159901
-0.0158554
-0.0239558
-0.141525
0.0069818
0.00305082
-0.00375824
-0.0130444
-0.0214524
-0.0332683
0.00336992
-0.0489994
-0.0454274
-0.0475898
-9.95707e-05
-0.0349817
0.00211776
0.000736889
-0.110805
-0.0163201
-0.0162569
-0.0242865
-0.0125986
-0.0218974
-0.024665
0.00607016
-0.0390571
-0.0343801
-0.18101
-0.00586166
-0.000150486
0.000708978
0.00286036
-0.235204
0.00281524
-0.012589
-0.0497014
-0.0318506
0.0108014
-0.0327348
0.0113085
0.00862113
-0.0449643
-0.0116565
-0.0326522
0.00870064
-0.0356885
-0.0476307
-0.0221336
-0.00603666
0.000569146
0.00406251
-0.0252534
-0.0512064
-0.0290087
-0.0392793
-0.0133229
0.0013234
-0.00553405
-0.0369988
0.010421
-0.0102061
0.00584672
0.0156592
-0.0195546
0.00272306
-0.0486788
0.00874048
-0.0113263
-0.0226726
-0.0203256
0.00309379
-0.0322645
-0.0102252
0.00475105
0.00306191
-0.191553
-0.0342907
0.00387909
-0.0312982
0.000307313
0.00609622
-0.0363713
0.000454966
-0.0478891
0.00156324
0.0032119
0.00274583
0.00881236
0.00337031
0.00325719
-0.0254367
-0.0112961
0.000734845
0.00273476
0.000366365
-0.1081
-0.0303635
-0.0177564
-0.0300411
-0.0123403
0.00160089
-0.0122792
-0.0313439
0.00658476
-0.0339514
0.00197629
0.00333379
-0.0368254
-0.00566539
-0.0270441
0.00303469
0.000731187
-0.0456963
-0.0895487
-0.0104911
-0.197874
0.000235169
0.00499008
0.00119387
-0.00728597
-0.01135
0.000195638
-0.0344781
-0.0122628
-0.0185274
-0.0532677
0.000717503
-0.0912545
0.00286798
-0.0156774
-0.00677769
0.00384384
0.000245635
-0.0338513
-0.0382968
0.000113866
-0.0298917
-0.224659
0.00335776
0.00601722
0.00104827
0.000433916
-0.0338536
0.00633904
0.00574393
-0.0500624
0.003263
0.00381812
-0.017982
0.00332582
-0.0237955
-0.0306156
0.00511514
-0.0255259
0.000404963
-0.012196
-0.0439413
-0.00595305
-0.0264983
7.4687e-05
0.00229002
0.00873703
0.000416072
-0.0320337
0.028836
-0.0102055
-0.187286
0.00274642
-0.0288728
-0.0413014
-0.0144458
0.00491067
-0.0191244
0.005066
0.00410369
0.00166866
0.00206805
0.00219277
-0.00220062
0.0170174
-0.00614592
-0.118529
-0.015101
-0.0368241
0.00021534
-0.0361633
0.00362775
-0.0257073
0.000278187
0.00106933
-0.00845157
0.00917237
-0.0402501
-0.00603265
-0.0371058
-0.0149555
-0.0138905
-0.0328634
-0.0322059
-0.0363365
0.0021191
-0.0234167
0.000343274
-0.172413
0.000241671
-0.014253
-0.0229096
0.00324802
0.00270894
-0.0406952
0.0126504
-0.121292
0.013659
0.00112682
-0.00237718
-0.00398795
0.00842488
0.000160011
0.0183413
0.000340937
-0.0363834
-0.0336425
-0.0299203
-0.00552702
-0.00523285
0.00522397
0.00593029
-0.00754347
-0.00614144
-0.0412327
0.0121785
0.0292532
-0.0446448
-0.102172
-0.00775929
0.00110499
0.00837293
-0.0569986
0.00168827
-0.0250976
-0.0138118
-0.00776315
-0.0227314
-0.0320416
0.00123595
0.00473962
-0.0149775
-0.0356179
-0.0287422
0.00126573
0.00336991
0.000418322
0.00111771
-0.0427531
-0.0174163
0.000113739
0.000133564
0.000162493
-0.0411786
-0.0597427
-0.0342304
0.00394897
-0.00690439
-0.0383604
-0.00108234
-0.034984
0.00211981
-0.0126102
-0.03156
0.000168587
-0.0262063
0.00395134
0.0042926
0.00340357
-0.0354647
-0.0297861
-0.0117795
-0.0413016
0.000337144
0.00457885
-0.0401918
0.00389659
-0.0385892
-0.0215971
0.00197601
-0.0965335
0.00465107
-0.00615163
-0.028994
0.000851983
-0.00559603
0.00162137
-0.0447537
-0.049748
-0.00614917
-0.0367586
-0.00668937
-0.0882118
0.00487327
0.00180502
0.0046169
-0.0486792
-0.0232479
-0.0168117
-0.00684607
7.45843e-05
-0.00578816
-0.0176375
-0.136879
0.019654
0.0102563
-0.040222
-0.0838011
-0.00600976
-0.0282917
-0.0359562
0.00955811
0.0110951
-0.0364099
-0.0261658
0.0064982
-0.0638261
-0.0375424
-0.00620329
0.0035341
0.0042145
-0.0635156
-0.0173803
0.0107731
-0.181689
0.00390331
-0.0616955
0.00461648
-0.00665281
0.000300818
0.000419127
0.00355712
-0.0368195
-0.0049853
-0.00270212
-0.0383997
0.000840781
0.00491749
0.00934611
-0.0604487
0.0127287
-0.00245715
0.0079085
-0.0195775
-0.0528925
0.00208364
0.000756068
0.00684868
-0.212972
0.000579037
-0.106019
0.0100786
-0.0361709
0.0135777
0.00288577
0.00239604
0.00531278
0.00311203
-0.00618091
0.00978624
-0.0377057
-0.0798704
-0.0354311
-0.0380043
-0.0377872
0.000910847
-0.00802912
0.0156414
-0.037352
-0.0200741
-0.014416
0.0067383
-0.0199493
0.00271048
-0.0792153
0.00348376
-0.000693971
0.00516504
-0.0108045
0.000222792
0.00386165
0.000999061
-0.0330768
0.0146633
-0.0767606
0.00910192
-0.0370903
0.0102232
0.00579848
-0.00304781
-0.0630872
-0.0115397
-0.00575734
0.000687319
0.00382517
0.00235362
-0.0578904
-0.0287419
-0.032262
0.00989133
-0.0844674
-0.0382984
0.00545465
0.000659241
-0.0417357
0.00196024
0.00181767
0.000533124
-0.0571476
-0.0127875
-0.0173483
-0.0381701
0.00506045
0.00268271
-0.0170844
-0.21022
0.000120271
-0.0204699
-0.0298366
0.0013189
0.00340782
-0.00505955
-0.0532324
-0.0349667
0.0100074
-0.0257046
0.00213514
0.00477119
-0.101078
0.00708149
0.000138652
0.00355206
0.00313514
0.00720317
0.00354797
0.0163866
0.00035462
0.000197685
0.00505332
-0.0246235
-0.00561814
-0.0354298
0.00302977
0.00756252
0.00105248
0.00338261
0.0032714
0.00338707
0.00322726
-0.0188946
-0.00860878
0.00337629
-0.00609041
0.00268209
-0.130839
-0.0375976
-0.00665926
0.00758834
-0.00371408
0.00439576
-0.0380476
0.0047475
-0.00172302
0.00195521
-0.0306315
-0.0112131
-0.13788
0.000602069
-0.172851
0.0324979
0.000786589
0.00780012
-0.00776651
-0.0133775
-0.0136382
0.00265175
-0.04472
-0.00025341
0.00342077
0.00347702
-0.0113615
-0.0386508
-0.0375224
-0.0393158
-0.0262727
0.0109504
0.000145236
-0.0160816
-0.0230516
-0.0132381
-0.0289637
0.0090889
-0.0328609
-0.0341861
-0.00524896
-0.142172
-0.0226034
-0.00937029
0.00551026
0.00781091
-0.0385516
0.00168098
0.0158295
-0.0232442
-0.0750399
0.000879655
-0.0831564
-0.0365834
0.000618115
0.00190147
-0.0382847
-0.0370691
-0.00476048
-0.00323425
0.00375586
0.000184042
-0.0320984
0.0134677
0.0205477
-0.0282134
0.00333068
-0.102844
-0.0469105
0.0028334
-0.0213391
-0.0343064
9.53651e-05
0.00378859
0.00120228
-0.0134421
-0.0165076
-0.0496269
-0.0451887
0.000661901
0.0100228
-0.033432
-0.0519324
-0.0346452
-0.0385564
-0.0385233
0.00209956
-0.0111688
-0.0418212
-0.0391366
-0.0453214
-0.036455
0.0104061
0.000437113
-6.6134e-05
-0.0652315
0.000638169
-0.0041775
0.000356627
0.0027233
-0.0356743
-0.0325809
0.00980879
0.000596991
-0.113707
-0.0147737
0.0033168
0.00271692
0.00171906
-0.00616007
-0.232806
-0.0288059
-0.0263518
-0.019207
-0.0454819
-0.0360632
-0.0368817
-0.0357205
0.00682256
-0.0318918
5.9159e-05
0.00155613
-0.00370904
-0.0192633
-0.0626165
-0.048696
-0.0149679
0.00367523
0.00365492
0.00455673
-0.0125097
-0.0360116
-0.00592835
0.010081
0.00340992
-0.0243425
-0.0320781
-0.0120821
0.00208626
0.00778135
-0.00911799
-0.0316164
-0.0564895
-0.0324982
0.00622834
-0.0460399
0.00364572
-0.00475512
0.00533305
-0.0313824
0.00323401
0.00313429
-0.0485044
0.00460714
0.00229252
-0.0366872
-0.0697914
-0.00198794
0.00348526
-0.0495381
0.000129731
0.00286948
0.000550221
0.00273048
0.000101497
0.00945624
0.0145462
0.000580179
-0.104913
0.0323673
-0.109784
0.00378941
0.000403826
0.00156454
-0.0365721
-0.0696062
-0.0460329
-0.0240954
0.000159176
0.00276036
0.00330641
0.00411826
-0.0362896
-0.0444254
-0.00888061
0.000521685
-0.0116282
0.00402857
-0.0379186
-0.200907
0.00277993
-0.00119106
-0.0395419
0.00197894
-0.038655
-0.200845
-0.0323508
-0.0247235
-0.0127213
0.00829285
-0.0452733
0.00862227
-0.0237986
-0.00646338
-0.0351436
0.000570688
-0.0432298
-0.0381089
0.00404874
0.00434524
0.0121008
0.00344822
-0.0120635
-0.0330536
-0.0307306
-0.035396
-0.0290496
-0.00295731
0.000339554
0.00371003
-0.127646
-0.0457493
0.0125573
-0.0361477
0.00349282
-0.00619192
0.000676699
-0.0502752
-0.0403353
0.00244419
0.00451201
-0.00115864
-0.0213737
0.00151344
-0.0959999
0.00546717
-0.0508017
0.000792012
-0.00910542
-0.0408019
-0.186559
-0.0489422
0.00455789
-0.0379136
-0.00600324
-0.00496726
-0.0379137
-0.0181924
-0.00615954
-0.0543662
0.00578242
0.00417294
-0.0447661
0.00310341
0.00222657
0.000529868
0.00362236
-0.0925697
-0.00793353
-0.0351651
0.0096724
0.00100376
0.00370287
-0.0315702
0.00320727
0.00549324
0.000532246
0.0019961
0.00167781
-0.0387723
0.00364166
0.000894339
0.00164723
-0.0116337
-0.0411136
0.000860856
0.00482653
-0.043796
-0.0349933
-0.00647919
0.00336637
-0.00976698
0.00129568
-0.00832351
-0.0367159
-0.0422324
0.00357415
0.00336184
-0.109038
-0.00765823
-0.00247813
0.00334409
0.000510151
-0.0142438
-0.0182515
0.0260498
0.00374995
0.00271371
-0.0054704
0.00470433
-0.05366
-0.0176985
-0.0317243
-0.0628765
-0.00886491
-0.0310878
-0.0395352
-0.0446232
0.00294413
-0.0952737
-0.0260269
-0.0120518
-0.00836782
-0.000438889
-0.0113182
-0.0321701
-0.0345333
0.00160892
-0.00192018
0.00359574
0.00997187
-0.246178
-0.0250082
0.0045792
0.00250634
-0.0399358
0.00187979
0.000943508
-0.191449
0.00346657
-0.00385194
-0.094002
-0.042991
-0.00302027
0.00291815
-0.0066517
-0.191774
-0.03599
-0.045644
0.00647726
0.0151812
-0.0532292
-0.0641805
-0.0355236
-0.0373202
-0.00539672
-0.0112473
-0.0238885
-0.0497648
-0.0384102
0.00625972
-0.0344586
-0.0772424
-0.0041406
-0.0476587
-0.00779676
-0.0364055
0.00333167
0.00540173
0.00448694
-0.0423206
-0.00607874
-0.0380169
0.000967081
-0.0433096
0.000765951
-0.0435346
-0.036818
-0.035119
-0.00448814
-0.0411298
0.0175025
0.00324895
-0.0421732
-0.0304976
0.00868739
-0.00288334
-0.0440843
0.00167005
-0.0237613
-0.000102796
-0.00445902
-0.0393024
-0.197472
-0.0421949
0.00171308
0.00569472
0.00444046
-0.0527889
-0.00604427
-0.033311
-0.0359878
0.00369006
-0.0228128
-0.0539452
-0.0177907
-0.0778214
-0.00684901
0.00292959
-0.026675
-0.0365924
-0.0338045
-0.00272089
0.00623506
0.00106138
-0.0903987
-0.0390429
0.00092092
-0.00278232
0.00340129
0.00224898
0.00102467
0.00277899
-0.074639
-0.00202543
-0.00362373
0.00504634
0.00453247
8.23656e-05
-0.0335407
-0.00166281
-0.0214536
-0.100718
0.000585206
-0.0193169
0.0043817
0.00338869
-0.00117571
-0.00327582
-0.0343303
-0.00656234
-0.0440218
-0.00772136
-0.00326261
0.00141676
-0.166697
0.00271308
-0.0378876
0.0277196
-0.0309947
-0.0085954
-0.0152432
-0.0362582
-0.0251391
0.0124637
-0.0363148
-0.0350518
-0.147295
-0.0194699
-0.0174053
0.00296863
-0.0405414
-0.0352425
-0.0838614
0.00336163
-0.0454917
0.00371392
0.00378645
-0.0718354
0.00182068
-0.0202586
-0.00628945
0.00346485
0.0100764
0.00339117
-0.00678056
0.000182941
-0.0123471
-0.0458808
0.00367833
-0.0348727
-0.101092
0.0169391
-0.0415692
-0.0108435
0.00321557
0.00187881
0.000408124
0.0033516
-0.0423181
-0.0178049
0.00403774
0.00448823
0.00187507
-0.0502406
-0.0350812
0.0100099
-0.0183684
-0.0382407
7.35745e-05
-0.0100289
-0.0159718
0.00357499
-0.016527
0.00756174
-0.0239226
0.000365017
-0.0122882
-0.0157544
-0.200865
0.0033113
-0.0181376
-0.0078291
-0.0208189
0.00019225
0.00353328
-0.0836087
0.00162718
-0.0249967
0.00400646
-0.0047501
-0.00605913
-0.00483902
-0.0470617
0.0017135
-0.000773602
-0.0241434
-0.031369
0.00246383
-0.00118236
0.00898634
0.00742769
-0.0294076
-0.0425745
-0.0202951
-0.0184244
0.0061373
-0.0181282
0.00406272
-0.0716089
-0.0300192
-0.0347115
-0.029616
-0.00620644
0.00160532
0.00430347
-0.00467519
-0.00991139
0.00330566
0.00320451
0.00396251
-0.0389159
0.0011453
0.00392089
-0.0138595
-0.0267567
-0.0402283
0.0138932
0.00960506
0.001492
-0.0501994
-0.0299407
-0.0220798
-0.00426291
-0.0844348
-0.044033
0.00134503
-0.0395019
-0.0031031
0.00182827
0.00409053
-0.055055
-0.0475533
-0.031347
-0.0302421
-0.00262917
-0.00425024
0.000362505
0.00148273
-0.00538644
-0.00517017
0.000129537
-0.0257166
0.0146862
-0.0351421
0.00337173
-0.0138872
0.000147257
-0.129969
-0.00744421
-0.0351616
-0.0529309
-0.0415914
-0.0611815
-0.0453393
-0.030078
0.00597261
0.00275772
0.0118574
0.00110565
-0.00345455
-0.0310345
-0.0069768
-0.0410346
-0.0089771
-0.0203818
0.00257236
-0.0307198
-0.015542
-0.00634351
-0.0205127
0.0028205
0.00166301
0.0102842
-0.0269593
-0.0414216
-0.0657627
0.00106375
-0.0260163
0.00673099
-0.0333827
-0.01535
0.00827949
0.00156581
-0.0170436
-0.129447
-0.0116376
-0.0632761
-0.0275808
0.00452345
0.00130111
-0.0353212
0.0105545
-0.0275905
-0.0220953
-0.0362569
-0.00591814
-0.0329795
-0.00101199
0.00385388
0.00704256
-0.00442604
-0.132747
0.0144919
-0.0420967
-0.00178704
-0.030214
-0.0410992
-0.0120078
-0.035439
-0.0341976
0.00124173
0.0457178
-0.0387588
0.0427741
-0.0418668
-0.00219694
-0.00116161
-0.0349095
-0.0329489
-0.117679
-0.00273162
-0.0114884
-0.00304642
-0.0452068
-0.0494938
-0.0117708
0.00622977
-0.0212083
-0.11623
-0.0349759
-0.0421411
-0.00775099
-0.0377235
-0.0211268
0.0033374
-0.0390247
-0.0556274
-0.012997
0.00379413
-0.15589
-0.0362901
0.00167946
0.00144365
-0.0347221
0.00128292
0.000731684
0.000998511
-0.036241
-0.000620662
-0.0435173
-0.0604358
-0.0186105
-0.0143749
-0.113375
-0.00397215
-0.105513
-0.0211901
-0.124841
0.00399822
-0.00106854
-0.0826451
0.00341317
-0.00651568
0.00162142
-0.0211683
0.00209393
-0.047032
0.00379528
0.00432147
-0.0804707
-0.0105225
-0.0658441
-0.0082128
0.00168928
0.00343392
-0.0341212
-0.0388449
-0.145752
0.00308935
-0.0367586
-0.0170406
0.0018669
0.00352828
-0.0444893
-0.0299649
0.00395253
-0.0377201
0.00615677
-0.00144273
-0.0400325
-0.0441088
0.00406088
-0.0128558
-0.0106492
0.00552268
-0.0353287
0.000386093
-0.0418184
-0.000664695
0.000267519
-0.0316141
-0.0407583
0.00378083
-0.0875675
0.00124776
-0.0699796
0.00578004
0.00375333
0.000886404
-0.00260234
0.00616961
0.00248286
-0.0148624
-0.040203
-0.0400147
-0.020646
-0.0347482
0.0136304
-0.0401814
-0.0369575
-0.0329935
-0.00272963
0.00336652
0.00110093
0.00189155
-0.0368615
-0.00159291
-0.0139385
0.00401208
-0.0224846
-0.0407033
-0.181833
0.00479949
-0.035893
0.00252267
0.00783893
0.000660122
0.0012124
-0.237337
-0.00208415
-0.0355626
-0.0189394
0.00815962
-0.0448795
-0.0064873
0.0109555
-0.00116695
-0.0527523
0.00513334
-0.00952903
0.00457585
0.000992284
-0.040706
-0.0155123
-0.0062578
0.00246049
-0.00472952
-0.0495515
-0.0337769
0.00376664
-0.0323106
0.000435503
0.011948
0.00151568
-0.0367246
0.01379
-0.0369026
-0.0234699
-0.00598637
0.00514207
0.0015782
0.000656208
-0.00682034
0.00408576
0.00481677
-0.0327472
-0.0199365
0.00824489
0.00746144
0.00137827
-0.0528358
-0.0214873
-0.0302659
-0.0304339
-0.00498466
0.00465934
0.000325693
0.00433434
-0.0297242
-0.0375113
0.000915495
0.00883058
0.0293651
-0.0381537
-0.013466
-0.0134062
-0.0399948
-0.011826
0.00515209
-0.0374822
-0.0449953
-0.000343814
0.00144376
-0.00265958
-0.0346723
-0.0540365
-0.0147519
-0.042129
-0.168491
-0.0194264
-0.0397412
-0.0585957
0.00383185
-0.0238461
-0.0431754
-0.00431647
-0.249233
-0.00900203
0.00461752
0.00344156
-0.0307229
0.00452594
-0.044085
-0.00746188
-0.0228633
-0.041348
-0.0101693
-0.0409985
-0.0394407
-0.0195834
-0.0169065
-0.0528256
-0.0355115
-0.127402
-0.0041998
0.000915878
0.00179814
0.00747777
0.00356212
0.00945462
0.0133465
-0.00254592
-0.0287018
0.00586043
-0.0140486
0.00413073
0.000181912
0.00130169
0.0101735
-0.00701724
-0.0013627
-0.0340034
-0.0147578
0.0184399
-0.0340571
-0.0596457
0.0148851
-0.0377379
0.00388242
0.00402601
-0.0387659
-0.130399
-0.123561
0.00232767
0.00339088
-0.0731513
-0.0156943
0.00409348
-0.0289791
0.00233147
-0.0365417
-0.0399565
0.00167822
-0.194687
-0.0417842
-0.0157127
-0.0308379
-0.0584103
-0.0075757
0.0245735
-0.0847528
-0.112974
-0.0211765
-0.0467765
0.000193946
-0.00292348
0.00255602
-0.00191269
-0.0377173
0.00304249
-0.194745
0.0168898
-0.0221821
0.00846495
0.0172725
0.00128998
0.000226191
0.00356523
-0.0213708
0.00230472
-0.0360514
0.0121015
0.0106252
-0.0418508
-0.0452338
-0.044583
-0.0355875
-0.0353886
0.000951224
0.00236741
-0.0342977
-0.0307939
-0.020159
0.0026394
0.00314131
-0.0206803
-0.00886767
-0.0454891
-0.0879046
-0.0243528
0.00347125
-0.054226
0.00508002
-0.0332712
-0.025197
0.00146843
-0.0347494
0.00363961
-0.0454387
0.00118949
-0.0380269
0.00161652
-0.0237852
0.0108717
-0.00625643
0.0134
-0.0243217
-0.0328218
-0.241254
-0.0358186
-0.0185279
-0.0146142
0.00067928
-0.0349046
-0.19068
0.00327876
0.00147548
-0.0161108
0.000581948
-0.0391875
0.000593174
0.0100665
-0.0131877
0.00512353
0.013966
0.00637275
-0.0122316
-0.0466534
-0.0377587
-0.000876251
0.0108117
-0.109186
-0.0203986
0.0219646
0.00935761
-0.0682594
-0.0363786
-0.0326638
-0.00441483
-0.0230032
-0.0186043
-0.0737132
-0.093454
-0.0877535
0.00177981
0.00366087
0.00385848
-0.0326302
-0.0213423
-0.0399047
-0.236162
-0.00115605
-0.065876
-0.0480179
0.0106055
0.00300668
-0.0115909
-0.035239
-0.00403344
-0.0476441
0.00317832
0.0020532
0.00334344
-0.00332014
-0.000498453
-0.0426619
-0.00424775
-0.13634
-0.0210684
0.00172355
-0.00457751
0.00344258
0.00816652
-0.0376278
-0.0479168
-0.000243197
-0.000553796
-0.000603068
-0.0168774
-0.032391
-0.18458
-0.00428668
-0.0356067
-0.041182
0.00901007
-0.00436185
0.0032466
-0.034164
-0.0201803
-0.0249054
-0.0356591
-0.0206606
-0.069811
0.00548332
-0.0163746
0.00179149
-0.214757
-0.116708
-0.0358201
0.00561626
-0.0195417
-0.00477036
0.00239924
-0.00687853
0.00359685
-0.113375
-0.00779228
-0.169546
0.00528749
-0.0317844
-0.044009
-0.0361726
0.00516023
-0.0282228
-0.128746
0.0127361
-0.00491348
-0.0391433
0.00342235
0.00720779
-0.0179612
-0.233563
-0.0997175
0.00782273
0.00785127
-0.035664
0.00257182
0.0107032
-0.00593035
-0.0711461
-0.0117691
-0.0163405
-0.0121181
-0.0215502
0.016917
-0.0320517
-0.0327193
-0.0402491
0.0078947
0.00334226
0.0216065
-0.0375658
-0.00188563
-0.0344468
-0.00468858
-0.0704103
0.00386443
-0.0073791
-0.0168882
-0.0374474
-0.0275368
-0.00602342
-0.0346088
-0.0169042
0.00346149
-0.000307622
0.0137625
-0.0404557
0.00446424
-0.120073
0.00324105
-0.00878669
0.0023721
-0.0664926
-0.00126583
-0.0631085
0.00758461
-0.0252467
-0.0165898
-0.000473276
-0.0325489
-0.111799
-0.0159812
0.0029144
-0.0987983
7.745e-05
-0.00695071
-0.007616
-0.0176509
-0.0333438
-0.0346443
0.0119589
-0.0345917
-0.0209069
-0.034614
-0.0187821
-0.0492398
0.00492137
-0.0352692
-0.0357642
-0.0352703
-0.0426237
-0.0475349
-0.208769
-0.00772886
0.0190369
0.00438089
-0.0170264
-0.0336637
0.0217626
-0.0363148
0.00488802
-0.0484451
0.00229346
-0.0370719
0.00107846
0.00249185
-0.0416845
0.00529123
-0.147081
-0.0375803
-0.0506062
-0.0121966
0.00340915
-0.0729099
0.0111671
0.00253507
-0.0515382
0.000146269
-0.0332043
-0.00420712
-0.0188573
-0.000450564
-0.0126683
-0.0229716
0.0117532
-0.000800418
0.00853465
-0.0393037
0.003417
-0.0550049
-0.0512956
0.00338057
-0.00543419
-0.00373185
-0.0167216
-0.0147585
0.00236753
0.00813774
-0.0441851
-0.00403636
0.0133394
0.00338713
-0.0111579
0.00329865
-0.0384381
-0.00712236
0.00172212
-0.0308399
-0.0283468
-0.0345493
-0.0366024
-0.0509741
0.00791789
-0.00397636
-0.00740608
-0.0162497
0.00835543
0.00155314
-0.0271946
-0.199879
-0.038119
-0.0317587
-0.00672903
-0.0927872
0.00728119
-0.017645
-0.000623058
-0.0295172
-0.00636535
-0.0236905
-0.00554209
-0.0397078
-0.119272
-0.0226395
0.00149364
-0.0138157
0.00618286
-0.0119629
-0.0329489
0.00152936
0.00644706
-0.163067
-0.0362276
0.00353112
-0.0242323
-0.0296971
-0.0769082
0.000103517
-0.128971
-0.224626
0.0023636
-0.0345301
0.0200686
-0.0719386
0.00623501
-0.0221529
0.00575367
-0.0216714
0.00338564
0.00278046
-0.0353997
-0.10857
-0.0805494
0.00163307
-0.0366578
-0.00669872
-0.0385059
0.00270538
-0.00304875
-0.0195174
0.00350245
-0.109177
-0.0236773
-0.0566741
-0.0753653
-0.123009
-0.0104455
-0.0480613
-0.114888
-0.0374012
0.00287303
-0.120003
0.00334356
0.000749607
-0.00463783
0.00191743
0.0028728
-0.224539
0.0110284
0.000673134
0.0128386
-0.216232
-0.169804
0.0277247
0.00347502
0.0163369
0.0016904
-0.104783
0.00491813
9.65993e-05
-0.00170446
-0.00423589
0.00516699
-0.0111093
-0.208702
-0.0328058
-0.0188312
0.00498312
-0.00753774
-0.0130042
-0.0394531
0.00293658
-0.104208
-0.0386179
-0.00871196
-0.209219
-0.112743
0.00266304
-0.0518222
-0.00539413
-0.0810261
0.00525313
0.00575397
0.00223673
-0.0110078
0.0196506
0.00579232
0.00283408
0.00190198
0.00603137
-0.0458965
-0.032218
-0.24379
-0.0560114
-0.00841514
-0.0347723
-0.0146493
-0.025704
-0.0117852
-0.194422
0.0129895
-0.0480487
-0.0405771
-0.0124294
-0.0123905
-0.0499471
-0.0325011
-0.0223799
-0.0253435
0.00272041
-0.2739
0.00351345
-0.0288682
-0.00610724
0.00980578
-0.0402783
-0.0268144
-0.0522091
-0.0155881
-0.0134616
-0.000211913
-0.0157298
-0.0351197
-0.0369086
-0.0558432
-0.221229
0.000938652
-0.0237926
-0.0779145
-0.0998473
-0.00715141
0.00225968
0.00438873
-0.0361506
0.00373174
-0.0107288
-0.00413682
-0.00942004
0.00209919
-0.00666865
-0.0962332
-0.0505671
-0.169705
-0.156393
0.00215939
0.0113237
-0.0358056
-0.0424585
-0.104378
-0.0429787
0.0114379
-0.263094
-0.0229275
-0.0346494
-0.040173
-0.0159956
0.00148624
-0.0984746
0.00426986
-0.00680219
-0.110876
-0.0610466
-0.0407696
-0.0327511
0.000710088
-0.0107972
-0.000560414
-0.0348547
-0.107342
-0.00148512
-0.0479861
-0.0433522
-0.00792539
-0.00503784
-0.0251413
-0.081368
-0.00370249
-0.00772634
-0.0209353
0.00249803
-0.00717331
-0.0161932
0.00439994
-0.00096252
0.0464427
-0.0768147
0.00766573
-0.0217365
-0.00821547
0.0017054
-0.0492707
-0.0358528
0.00713642
-0.00587238
-0.00583239
-0.0231019
0.00636708
0.00146235
-0.00618816
0.00440349
-0.0523401
0.00966103
0.00403334
0.00139693
-0.0768909
-0.0584149
-0.0443902
-0.00819219
-0.0016822
-0.0360455
-0.0464493
-0.0229355
0.00483052
-0.00832364
-0.0111547
-0.00473421
0.00334391
-0.0120357
-0.00514877
-0.0451012
0.00415437
-0.00911447
-0.00864325
0.00143417
0.000963812
-0.0312881
0.0066912
-0.0367735
-0.105958
0.014317
-0.0117233
-0.00544276
-0.0081614
0.00417547
-0.0106578
0.000322572
0.027373
-0.00899904
0.00597221
-0.0329602
-0.0512324
0.00226731
0.00171753
0.00242127
-0.0257643
-0.111107
0.0040237
-0.0478276
-0.0421741
0.0119232
0.00350561
-0.0524592
0.00105473
0.00633823
0.00268768
0.00109745
0.00520007
0.0038059
0.00847661
-0.0167164
0.00295088
-0.0134697
0.0211334
0.0144358
0.0063059
-0.0309951
-0.060094
-0.118016
-0.032893
-0.107876
-0.0286989
-0.0414678
-0.00737614
-0.0157217
0.0028022
-0.00765181
0.00295345
-0.0104825
-0.117327
0.00476335
0.00760701
0.021502
0.0038815
0.00235485
-0.00494573
0.00737416
0.00265818
0.00374869
-0.131578
-0.0141394
-0.0597924
-0.00357865
0.00273199
-0.0405518
-0.065334
-0.0414705
-0.0321434
-0.0414078
0.00288143
-0.0441967
-0.039431
-0.00493441
0.00332447
-0.00362661
5.98056e-05
0.0045369
0.00320897
0.0036261
-0.0103474
-0.0467535
-0.0372303
-0.0369383
0.00697256
-0.0738057
-0.0502536
-0.00431268
0.0027043
0.00418628
0.00272991
-0.0151696
0.00471588
-0.0995414
-0.0329544
-0.0351362
-0.028644
-0.164889
-0.0389901
-0.0374872
-0.0393453
0.000832209
0.00387845
0.00316032
-0.0022413
0.00268076
-0.0370493
-0.0432101
-0.0386911
-0.00532731
-0.00643155
0.00528748
-0.00553132
-0.0873658
0.00338096
0.00756685
-0.0290063
0.000217681
-0.0485449
-0.0038089
-0.101667
-0.0116011
-0.0405238
-0.0577388
0.0100354
-0.0350287
-0.0358992
-0.0349982
0.00121599
-0.000549797
0.00378971
-0.00306893
0.0165257
0.00180022
-0.21352
0.00418992
0.00319889
-0.00760238
-0.0366812
-0.0342529
-0.0337859
-0.0269437
0.00314313
0.0169505
-0.266871
0.0126205
0.0027811
0.00645269
-0.00093302
0.0104153
0.00477736
0.00407571
-0.0385005
-0.037143
-0.0355285
0.0136099
-0.0248267
-0.202245
-0.0487527
-0.0381309
-0.0364742
0.00113216
0.00134034
0.000633005
0.000750461
-0.0353671
-0.0351686
0.00197642
-0.196253
-0.0386795
-0.0382755
0.00586026
-0.00468144
-0.0512324
-0.0216832
-0.0425292
0.0373846
-0.0398902
0.000566083
-0.0264969
-0.0325528
-0.0114636
-0.0412978
-0.00566034
-0.0472125
-0.2599
0.00741875
-0.0618717
0.00204752
0.00375607
-0.236945
-0.0367986
-0.0488265
-0.00541879
-0.0609687
-0.0517516
-0.0384998
-0.0361378
-0.0472782
-0.0399018
-0.036933
-0.00616867
0.00734644
-0.0345871
-0.0345037
-0.0219567
-0.0356066
0.0032844
-0.0342028
0.0268488
0.00330407
-0.0316453
-0.00629991
-0.0408684
-0.0431503
-0.00648308
-0.0896899
-0.112069
-0.0374743
-0.0435198
-0.0697813
0.00631452
0.00429742
-0.0354204
0.0041373
0.00311744
-0.0291453
-0.0153114
-0.0360161
-0.0193054
-0.00248338
-0.0122222
0.00384402
-0.0952284
-0.00495614
-0.0405358
-0.00915442
0.00345539
-0.0414158
-0.0325264
0.00578566
-0.253489
-0.0327463
-0.00600081
-0.0211953
-0.0113124
-0.0379254
0.00547449
0.00195036
-0.0531391
-0.00564871
-0.0360283
-0.0374883
-0.0373987
-0.0339396
0.00922383
-0.00857101
-0.114712
-0.0281544
0.00452218
-0.0384286
-0.048771
0.00257117
0.00401943
-0.03807
-0.00312941
-0.0536347
-0.0263784
0.0052101
-0.217773
-0.0473058
-0.0178902
0.00444082
-0.0363991
-0.0338109
-0.116813
-0.00736055
0.0020565
-0.0325596
0.00146206
-0.00699711
0.00453777
-0.0458044
0.00468768
0.0468677
0.00334971
0.00490528
-0.0420334
-0.0431163
-0.0387802
-0.0205993
-0.0249941
-0.0392175
0.000768086
-0.0390665
-0.039183
-0.0347164
0.00311237
-0.0504561
-0.0341227
-0.0805148
-0.0467755
-0.0295957
-0.0472987
-0.0382476
-0.0488392
-0.0298986
0.00349588
-0.0356629
-0.0471146
-0.005488
-0.0454826
-0.165292
0.00572691
-0.0993217
-0.0496834
-0.00146553
0.00378734
0.00856334
-0.00563884
-0.0655168
0.00344869
0.00393526
-0.0429317
-0.0421314
0.0101682
-0.0328771
0.00342257
-0.00231699
-0.136414
-0.0357988
-0.143232
-0.0348405
-0.0359193
0.00655393
0.00291818
-0.0277021
-0.0441527
-0.0510209
-0.0276351
-0.0412997
-0.0156316
0.0040611
-0.00550806
-0.016247
-0.0274244
-0.15619
-0.0416426
-0.0099909
-0.0331003
-0.0587637
0.00733122
0.000800444
-0.00738115
-0.0184874
0.0162198
-0.00744253
0.00152289
-0.0167234
-0.0182881
-0.0182154
-0.0356517
0.00340567
-0.0473922
-0.0114374
-0.00873043
-0.0885418
-0.0700439
-0.0363437
0.00525805
-0.0520222
-0.035246
-0.0478472
-0.0509119
0.00443636
-0.0431893
-0.0438979
-0.0388218
0.00342869
-0.032663
0.00212241
0.00660766
-0.00441759
-0.0215112
-0.041242
-0.0415972
-0.0438069
-0.0658813
-0.0207551
0.00254745
0.00257644
-0.00576042
0.00148523
-0.0312694
-0.0382945
-0.0388496
-0.0499853
-0.0132351
0.00129056
-0.0180035
0.00344165
-0.0376796
0.0220888
0.00509503
-0.0318253
-0.0333475
0.0236631
-0.0353118
-0.0389113
-0.106342
-0.005198
-0.104483
-0.0337347
-0.0371963
-0.0205983
0.00648128
-0.0150013
-0.00652723
-0.016516
-0.146534
-0.0174622
-0.0869492
-0.0307478
-0.0895303
-0.0187146
0.0175276
0.0116225
0.00176124
-0.0519675
0.014186
-0.0178269
-0.0116114
-0.0129073
-0.00505683
-0.278939
-0.0423952
0.00132108
-0.000500897
-0.0242653
0.00798047
0.00592565
-0.0591596
-0.0337816
-0.00141066
-0.0513579
-0.00552844
-0.0359782
-0.0079528
0.00756298
-0.00157997
-0.035509
0.0104497
-0.0426175
0.00649757
-0.0154971
0.0135509
-0.0438174
-0.0337029
-0.0478255
-0.0321089
0.000858117
-0.0467212
0.00336457
-0.0396726
-0.0358296
0.00141411
0.00230502
0.0112101
-0.0254408
-0.0046124
-0.0461983
-0.0453161
-0.00748897
0.0109405
0.0145801
-0.165522
0.0237336
-0.0309758
0.00087111
-0.0428266
-0.0302649
-0.0464419
-0.00433127
-0.048402
0.0158719
0.00273641
-0.00422181
0.00788969
0.0109473
-0.000138865
-0.0419914
-0.00276857
-0.0669811
0.0135067
-0.0341692
-0.0436309
-0.0271227
-0.0395645
-0.0454234
-0.0408388
-0.0573794
0.0101081
-0.0147747
-0.0466189
-0.021206
0.00714327
-0.0301864
-0.0393355
-0.00756144
0.00177292
-0.0469865
-0.0317925
0.0332699
-0.00399042
-0.0305462
0.00435499
-0.0017401
-0.092919
-0.00549255
-0.0111781
0.00261432
0.00231972
0.0213969
-0.0502497
0.00377114
0.0237609
-0.0382913
0.00256265
0.00411577
-0.0414147
-0.0347103
-0.0340076
-0.00624623
-0.0147408
0.0120564
0.00256592
0.0036204
-0.120629
-0.0153379
-0.0401459
-0.046825
-0.0221594
-0.0427409
-0.0287172
-0.038191
0.00214653
-0.00961393
-0.0370577
-0.0187173
-0.0264976
-0.0317283
0.00130757
-0.00837867
-0.0181025
0.00729644
0.00204992
-0.028946
-0.00430414
0.022031
-0.0694966
-0.0327349
0.00388102
-0.0473672
-0.0305221
-0.0484818
-0.0282104
-0.0350488
-0.0318438
-0.0363408
0.00327506
-0.0359434
-0.0285558
-0.000846211
-0.00950545
-0.0388465
-0.0328546
0.00784146
0.00403405
-0.0336186
-0.0349013
-0.0266058
0.00653967
-0.00930985
-0.0681688
-0.0243332
0.0444118
0.00144635
0.00386528
0.0249975
0.0121982
-0.0350808
0.0187178
-0.0370509
-0.0641578
-0.0368399
0.00242369
-0.0176403
-0.00715936
-0.0217171
-0.0062495
-0.027922
-0.0360074
0.0286304
0.00304225
-0.0513146
-0.0159224
-0.0401759
0.0030761
0.0122538
-0.031251
-0.0519806
-0.0112493
-0.0349687
-0.0171394
-0.0475521
0.016433
0.0021029
-0.213254
-0.0443446
0.014177
-0.00450339
-0.0127281
-0.00240942
0.00400537
-0.0484799
0.00313556
-0.0988055
-0.0349393
-0.0403741
0.00381048
0.00279645
-0.0196989
-0.0443769
-0.0425818
0.00517269
0.00701381
-0.00620748
0.00866781
0.00257563
0.0178357
-0.0334511
0.00299187
0.00187791
-0.022577
-0.0290723
-0.0125159
0.00997262
0.00318233
0.00272732
0.000355958
-0.0375517
0.00339499
-0.0139504
-0.0364197
-0.0371526
-0.0320469
0.041592
0.0326493
-0.0378699
-0.0470272
-0.0379069
-0.00784904
-0.0181602
-0.00494295
-0.0341854
-0.00628066
0.00214202
-0.263726
-0.0346146
0.00985661
0.00381683
0.0110734
0.00819884
0.00314526
0.00191154
-0.0231625
-9.76125e-05
-0.00432365
-0.0353518
-0.0286196
-0.0455137
0.00805074
0.00343612
0.0351482
-0.0391428
0.000949749
0.0102731
0.00430002
0.0171544
0.0450399
-0.0554112
0.00610955
0.0129171
-0.0441465
-0.0537988
-0.00111131
-0.0232491
-0.0424132
0.00105685
-0.0420411