/*--------------------------------*- C++ -*----------------------------------*\
| =========                 |                                                 |
| \\      /  F ield         | OpenFOAM: The Open Source CFD Toolbox           |
|  \\    /   O peration     | Version:  v2012                                 |
|   \\  /    A nd           | Website:  www.openfoam.com                      |
|    \\/     M anipulation  |                                                 |
\*---------------------------------------------------------------------------*/
FoamFile
{
    version     2.0;
    format      ascii;
    class       surfaceScalarField;
    location    "100";
    object      phi;
}
// * * * * * * * * * * * * * * * * * * * * * * * * * * * * * * * * * * * * * //

dimensions      [0 3 -1 0 0 0 0];
oriented        oriented;


internalField   nonuniform List<scalar> 
20537
(
-0.375586
0.5062
-0.130614
-0.207486
-0.0449571
0.252443
-0.189935
0.164254
0.0256815
-0.0188469
-0.302099
0.320946
-0.149629
0.165112
-0.015483
0.312162
-0.495525
0.183363
0.19745
0.20182
-0.39927
0.246025
-0.0915543
-0.154471
-0.455176
-0.0946629
0.549839
-0.0152655
0.194047
-0.178782
0.610603
-0.224639
-0.385964
0.0603763
-0.15933
0.0989534
0.085546
0.0169992
-0.102545
-0.0457822
0.00279326
0.0429889
0.675804
-0.545231
-0.130574
0.274016
-0.283654
0.00963848
-0.046265
0.281591
-0.235326
0.440846
-0.250635
-0.190211
-0.14404
0.145022
-0.000982148
0.083101
-0.538277
0.346563
-0.36541
-0.0849912
-0.104944
-0.364901
0.58609
-0.221189
-0.690569
0.0985477
0.592022
-0.550805
0.185904
0.214918
0.0311073
-0.0866897
-0.181045
0.267735
-0.00930159
-0.0029273
0.00756307
-0.383149
0.226917
-0.351052
0.124135
0.490361
-0.178199
0.230208
-0.276473
-0.0269487
0.191202
0.448774
-0.487049
0.0382751
-0.602276
-0.0882937
0.112687
-0.128236
0.015549
0.000114186
0.0885104
-0.0886245
0.218631
-0.135577
-0.0830543
0.146566
-0.161832
-0.0134047
0.462178
0.0447973
0.33648
-0.381277
0.49026
-0.665758
0.175498
0.00396421
-0.00546564
0.00150143
0.294599
-0.579762
0.285163
0.555448
-0.260849
0.00134032
-0.00036543
-0.00097489
-0.554267
0.283419
0.270848
0.220924
-0.469394
0.248469
0.173037
-0.259727
0.321113
0.220887
-0.542
0.163911
-0.018855
-0.145056
0.146102
-0.0746144
-0.0714875
0.00484675
-0.0167381
0.0118914
-0.734034
0.373922
0.360113
0.65504
-0.535754
-0.119286
0.664832
-0.174572
0.653399
-0.296182
-0.357217
-0.00917452
-0.0101859
0.0193604
-0.182419
0.409335
0.283821
0.0954746
-0.379296
0.0537801
0.164851
0.0683897
-0.0550041
-0.0133856
-0.393499
0.303993
0.0895056
-0.143806
0.130416
0.0133897
-0.189709
0.32026
-0.130551
-0.446185
0.146879
0.299307
0.0713012
-0.071187
-0.568055
0.323219
-0.213518
0.216312
-0.00279427
0.194977
0.245869
0.0154492
-0.0190317
0.00358251
0.0909628
-0.0795277
-0.0114351
0.0681973
-0.275683
-0.291875
-0.442159
0.281202
-0.584841
0.303639
-0.528079
0.433
0.0950784
-0.139091
0.0540996
-0.0272128
0.000928907
0.0262839
-0.00242674
-0.174594
0.17702
0.0179389
-0.0013807
-0.171168
0.431317
-0.260149
0.430628
0.0519957
-0.482623
-0.433482
-0.0509918
0.484474
0.00136322
-0.00894979
0.00758658
-0.330214
-0.0632851
0.145268
-0.0848916
0.487901
-0.156848
-0.331053
0.021887
0.127573
-0.14946
-0.262116
0.32244
-0.0603243
-0.360581
-0.247826
0.608407
0.0199786
0.0927087
-0.08008
-0.312144
0.392224
-0.170042
-0.0914821
0.251453
-0.159971
-0.0292422
-0.232873
0.563766
-0.551914
-0.0118526
0.0294076
-0.179037
0.0101936
0.0309006
-0.0410942
-0.168686
0.489799
-0.0245948
0.588361
0.0172334
-0.0349133
0.0176799
0.176439
-0.173437
-0.00300196
0.075519
-0.380933
0.305414
0.266872
-0.0170477
-0.458511
-0.099575
0.558086
-0.501587
0.405642
0.0959447
-0.181681
0.178246
0.0034351
0.525286
-0.684114
0.158828
0.0691932
0.0122448
-0.182183
-0.313342
-0.54116
-0.0193954
0.560556
0.272748
-0.633329
0.309209
-0.389289
-0.651688
0.651688
-0.0721725
-0.468988
0.327985
0.0106541
-0.0493523
0.059546
0.0728938
-0.473432
0.400539
-0.57321
0.57509
-0.00188027
-0.192505
0.561914
-0.369409
0.00198441
0.0019798
0.236459
0.0304133
0.0940913
-0.00854522
0.268929
0.463697
-0.242773
-0.775523
0.349085
0.426438
0.243392
0.220306
0.158432
-0.188643
0.0302116
0.0323188
0.314245
0.174987
-0.0828511
-0.0921354
0.424306
-0.379508
0.555858
-0.161859
-0.393999
0.0205737
-0.00512449
-0.551079
0.117597
0.335129
-0.571826
0.606404
-0.0345778
0.557108
-0.484214
-0.0729273
0.0920558
-0.0191285
0.0356687
-0.034375
-0.00129363
-0.016226
-0.0242589
0.0404849
-0.00785419
0.0250876
0.376491
0.27855
0.165502
-0.561418
0.395916
0.719909
-0.383352
-0.336558
0.409752
-0.083682
-0.32607
-0.265367
-0.314394
-0.444198
0.617762
-0.173564
0.0408481
0.134138
-0.267632
0.465082
0.195136
0.360312
-0.00289905
0.130246
-0.422177
0.615091
-0.192914
0.00070807
-0.0464902
0.310253
0.343146
0.363239
-0.207105
-0.156134
0.302897
0.106855
-0.496397
0.188273
0.308124
0.232788
0.127923
-0.360711
0.0134262
0.132676
0.00335026
0.160561
-0.353874
-0.247427
0.601302
-0.0771742
0.225995
-0.148821
0.00855026
-0.0177248
0.164457
0.391401
0.268945
-0.369068
0.100123
0.642457
-0.231104
-0.411352
-0.685895
0.241697
0.00543373
-0.218952
-0.317157
0.349476
0.0335786
0.000131295
-0.0337099
0.000294833
-0.0275076
0.240916
-0.545411
0.304495
-0.174575
-0.321822
0.0213777
-0.0376037
0.565545
-0.401089
-0.229189
-0.240205
0.184713
-0.0262809
0.532743
-0.508234
-0.0245085
-0.0286152
-0.115425
-0.520685
0.669148
-0.148463
-0.268791
0.054641
0.21415
0.0180355
-0.129921
-0.36175
0.49167
0.0556749
-0.160619
-0.364221
-0.236082
0.600303
-0.449402
0.61576
-0.166357
-0.173965
-0.27222
0.356221
-0.548726
-0.171081
0.162561
0.00851989
0.211683
0.0109595
-0.222643
-0.231049
0.018212
-0.0133653
0.267329
-0.543004
0.275674
0.186933
-0.21024
0.0233075
0.0562931
0.0120966
0.399948
-0.177888
-0.22206
0.539845
-0.374343
-0.027312
0.456303
-0.428991
0.458578
0.0741647
-0.428027
-0.100052
-0.306784
-0.46874
-0.00786026
0.0127121
-0.00485181
-0.580031
0.0840848
0.495946
-0.539008
0.146433
0.392574
-0.015563
0.203301
-0.187738
-0.49172
0.361799
-0.05189
-0.0375284
0.0894184
0.1493
0.13914
-0.288441
0.0314751
-0.00180334
-0.0296718
0.129104
0.44359
-0.572693
-0.0168596
-0.0359041
0.0527637
-0.352917
0.428436
-0.443144
0.0222128
0.420931
0.452968
-0.637267
0.184299
-0.721386
0.430893
0.290494
0.639139
-0.238701
-0.400438
-0.139096
0.39927
-0.260174
0.00673549
-0.00539517
-0.108603
-0.409819
0.518423
0.0338911
-0.00241596
0.264593
-0.115293
0.194105
-0.365273
-0.00316855
0.0487745
-0.045606
-0.0648854
0.144957
-0.0800718
-0.000979644
0.0376438
-0.0366642
-0.600062
0.581369
0.0186925
-0.0480015
-0.190217
0.238218
-0.527589
0.0690779
0.00415528
-0.0139803
0.00982499
0.674994
-0.222026
0.221107
-0.00618933
0.392979
-0.338718
-0.0542603
-0.284791
0.525707
0.540077
-0.155322
0.146511
0.00881114
-0.0660891
-0.25284
0.318929
0.0346042
-0.0864942
0.0523435
-0.242052
0.281637
0.438272
-0.454871
-0.0841365
0.124947
0.365414
0.327648
-0.459455
0.131807
0.576408
0.0579347
-0.634342
-0.180172
0.164609
0.458073
-0.557648
0.0299757
0.00519089
-0.0351666
0.194714
-0.0182748
0.453017
-0.461453
0.00843652
-0.394022
0.29266
0.101362
-0.221299
-0.123155
0.344454
0.664919
-0.391181
-0.273739
0.464433
-0.136785
-0.24523
-0.106976
0.352206
-0.0911248
-0.031556
-0.119958
0.151514
0.346328
-0.118121
-0.228207
0.234417
-0.0227336
0.0111048
0.080951
0.00594096
-0.019375
0.0134341
-0.189057
-0.346886
0.535943
-0.439749
-0.445364
0.349224
0.0961409
0.443716
-0.0822765
-0.36144
-0.631795
0.209203
0.422592
-0.129297
0.113898
0.0153991
0.18817
0.211778
-0.36646
0.12123
-0.206732
0.11525
0.0507767
-0.0539452
0.4132
0.157233
-0.570433
0.299094
0.365825
0.185352
0.550284
-0.129813
-0.42047
0.1768
-0.179227
0.251637
0.0223788
-0.534246
0.372386
0.579464
-0.148837
0.606167
-0.182859
-0.423308
-0.00280825
0.0386702
-0.0358619
0.12454
0.486063
0.0246515
0.551756
0.081024
-0.560098
0.479074
-0.504426
0.601164
-0.0967376
-0.151492
0.119936
-0.0243115
0.468028
0.39941
-0.234768
-0.164642
0.0341934
0.453569
-0.487762
-0.382873
0.497466
-0.114594
0.125901
0.424383
-0.630915
0.232259
0.398656
0.14893
-0.108082
0.149107
-0.331526
-0.104466
0.388287
-0.219527
0.216605
0.00292257
-0.421868
-0.209047
-0.02968
-0.0996168
0.0687097
0.170357
-0.239067
0.157022
-0.0117541
0.434066
-0.569925
0.135859
0.0378382
-0.0078625
0.105812
-0.182986
0.0785869
0.203004
-0.0155963
-0.0284551
0.0440514
-0.141604
0.365588
-0.223984
-0.37498
-0.126607
-0.0430795
0.040155
0.00292453
0.481181
-0.446988
-0.0157152
-0.145358
0.161073
0.225799
0.0256542
-0.222732
0.371839
0.0390018
-0.00333317
0.220034
-0.151324
0.385302
-0.360929
-0.0243726
0.0482174
-0.0590198
0.0108023
0.653265
-0.258927
-0.394338
0.0559197
-0.277219
0.737052
-0.371778
-0.365274
-0.0500092
0.047201
0.124187
-0.0144115
-0.109776
-0.507869
0.399266
-0.191336
0.0468737
0.144462
-0.262044
0.490198
-0.228154
0.0308286
-0.0248876
0.00568721
0.45537
-0.461058
-0.455848
0.644917
-0.189069
0.609411
-0.250001
-0.35941
0.125084
-0.000896806
0.198613
-0.246615
-0.323178
0.0735174
0.249661
0.10807
-0.368716
0.227111
0.326627
0.0586751
0.414521
-0.63916
0.047424
-0.012218
-0.0363839
0.00310287
0.033281
0.0779694
-0.37977
0.301801
0.0421028
-0.0576992
0.0137631
-0.100767
0.0870043
0.383929
-0.018609
0.205542
0.131125
0.0178051
0.530501
-0.32669
-0.20381
0.0371784
0.231358
-0.268536
-0.000396276
0.113738
-0.113341
0.115342
-0.240058
0.516115
-0.276057
0.331855
0.0101719
-0.342027
-0.00724115
-0.0345293
0.0417704
0.0394124
-0.584643
0.644599
-0.0685805
-0.576019
0.156751
0.487848
0.208976
-0.0629201
-0.146056
-0.109745
-0.213433
-0.225283
0.262461
0.0148782
-0.0107229
-0.493106
0.318531
-0.0262795
0.358134
0.358306
0.251105
-0.501059
0.239015
-0.113348
0.571421
-0.0551214
0.580407
-0.183563
0.552196
-0.368633
0.0390273
-0.0462684
0.610809
-0.215217
-0.395592
0.315034
-0.441958
0.126924
0.178434
-0.194149
-0.656238
0.359702
0.296536
0.127725
0.0292971
-0.293511
0.229687
0.0638237
0.259278
-0.363348
0.0342765
-0.000697896
-0.119385
0.434419
-0.248487
0.109391
-0.0298845
-0.197192
0.227076
-0.205195
0.464473
0.0868567
-0.446507
0.359651
0.159468
-0.6329
0.194401
0.222045
-0.416446
-0.0228146
-0.0147527
0.0375673
0.637424
0.0284292
0.0105727
0.218356
-0.102476
0.10208
-0.0236299
0.0237612
-0.661866
0.130636
0.53123
-0.149064
-0.512802
-0.0192647
-0.335936
0.355201
0.631456
-0.154714
-0.476743
0.514849
-0.528723
0.0138743
0.385311
-0.307342
-0.0869624
-0.104373
0.040359
-0.0375658
-0.255932
0.216382
0.0395502
-0.0474293
0.0464496
0.0462314
-0.0101121
-0.0361193
-0.399034
-0.257205
0.232635
-0.421692
-0.00210741
0.00464742
-0.0195644
0.014917
0.0852308
0.307748
-0.0504773
0.00112491
0.446076
-0.251675
-0.214482
0.184598
0.501741
-0.535326
0.0335857
-0.103945
0.117708
-0.435805
0.516399
-0.0805942
-0.108473
-0.175182
0.365848
-0.385113
-0.447148
0.34104
0.106109
0.0536599
0.094828
0.386353
0.319759
0.322698
-0.123881
-0.0199246
0.237653
0.0745665
-0.312219
-0.012576
-0.015415
0.0279911
0.350063
0.00907794
-0.359141
-0.134807
-0.445572
0.0163271
0.429245
0.262984
0.201449
-0.32721
0.0905424
0.236667
0.182637
0.0263394
0.285164
-0.206577
0.176965
0.462174
0.122869
0.434239
0.495581
-0.400753
0.0934681
-0.542871
0.153799
-0.174
0.0202014
0.168326
-0.475669
0.307343
0.12853
-0.121309
-0.00722129
-0.0482598
-0.397312
0.0182525
-0.244287
-0.242762
0.112921
0.139737
-0.0600449
-0.095277
0.443681
-0.356824
0.449789
-0.186805
0.661732
-0.501073
-0.160658
-0.184506
-0.01447
0.198976
-0.376792
0.499274
-0.122482
0.0139186
0.172944
-0.186862
-0.0239497
-0.00407283
0.0280226
0.58864
-0.130061
-0.635728
0.212359
0.423369
-0.550621
0.173828
0.0521835
-0.0294047
0.306927
-0.671148
-0.228154
0.223367
0.00478724
0.0101192
0.566528
-0.153328
-0.487042
0.543489
-0.0564467
-0.401856
0.105136
0.29672
0.131031
0.0275998
-0.102214
0.0724907
-0.361161
0.28867
0.0758762
-0.121553
0.0456766
-0.547242
-0.05282
-0.562239
0.312238
0.00231038
-0.00994917
0.00763878
-0.0770444
0.345989
-0.458745
0.539769
0.1271
-0.105212
0.463702
0.167754
0.204101
-0.157136
-0.376325
0.53346
0.120711
0.180165
-0.300876
-0.125275
-0.243394
0.368669
-0.430995
0.458406
0.130234
-0.0111023
0.0593197
0.378912
-0.429903
0.203491
-0.19786
-0.00563151
-0.0791816
-0.492644
0.267508
-0.380815
0.113307
-0.645617
0.194537
0.45108
0.562882
-0.562882
0.516646
-0.156317
-0.360329
-0.55314
0.134373
0.517315
-0.118587
0.400825
-0.282238
0.259554
0.108703
-0.368256
0.362918
-0.519766
0.116005
-0.477755
-0.166549
0.66829
0.0339287
-0.0301275
-0.00380118
0.00226398
-0.0262137
0.141052
0.32112
-0.462172
0.39751
-0.130002
-0.28476
-0.0424494
-0.267492
-0.191963
-0.00434656
0.00570978
-0.36396
-0.198279
0.232685
0.378124
-0.0754643
-0.371043
-0.156685
0.00309365
0.153591
-0.333078
-0.0650641
0.398142
-0.00993855
-0.00240876
0.0123473
-0.133724
0.546686
-0.412962
-0.0177347
0.000996612
-0.217577
0.220632
-0.00305512
-0.214309
-0.451449
0.222734
0.174776
0.0417336
-0.0153182
-0.0264154
0.207397
0.0137101
-0.466368
0.427874
0.0384936
-0.518437
-0.0547724
0.292051
-0.502033
0.209982
-0.571488
0.035734
-0.169283
0.577642
-0.40836
-0.578429
0.187647
0.390782
-0.44824
0.338089
0.110151
0.0234353
-0.0187879
-0.157528
0.156285
0.00124254
0.12697
-0.0188731
-0.108096
0.0965566
-0.0873881
-0.00916845
0.0690557
0.327035
-0.68091
-0.0912254
-0.00447858
0.0957039
0.495248
-0.326922
-0.0562721
-0.212519
0.00571066
0.220285
-0.473017
0.205525
-0.225269
0.494198
-0.0670052
0.0501456
-0.515826
-0.00990984
0.525736
-0.0148246
0.00488608
-0.00471199
-0.00467541
-0.00318485
-0.149034
-0.134002
0.356736
0.556297
-0.203836
-0.468623
-0.167105
0.265752
0.0805764
0.411295
-0.438607
-0.185733
0.00242687
0.183306
0.352797
-0.120009
-0.162826
-0.0229064
0.0772351
-0.0076141
-0.069621
-0.538963
0.405239
0.137544
-0.154177
0.00305766
-0.0233659
0.0203082
0.376964
-0.0843034
0.33321
0.171338
-0.504548
-0.353662
0.541935
0.336224
0.120333
-0.456557
-0.0140467
-0.157034
0.246154
0.0630336
-0.309188
-0.00484198
0.132415
0.116523
-0.0406465
-0.437243
0.595899
-0.158657
-0.00608963
0.00840001
0.00175751
-0.029612
0.0278545
0.481965
-0.430339
-0.0516267
0.252997
0.242251
0.208925
0.580861
-0.479874
-0.100987
0.400918
0.466908
0.0695084
-0.536416
-0.0926787
0.00145335
-0.224971
0.0178659
0.119243
-0.119547
0.000303153
-0.0858304
0.101779
-0.0159488
0.212519
0.452313
-0.380941
0.453372
-0.0724308
-0.271456
0.478949
-0.207493
-0.228164
0.165244
-0.142406
0.145841
-0.00343539
0.00197741
0.0214579
-0.00684065
0.0756816
-0.0688409
0.348841
-0.107088
-0.340061
-0.126525
0.159286
-0.032761
0.00315181
-0.0965664
-0.0100033
0.10657
-0.119166
-0.136767
0.373689
-0.069696
-0.575807
0.313665
0.195225
-0.508889
-0.182079
0.696281
-0.483762
0.284379
0.092585
0.182769
0.486379
-0.160725
-0.394959
0.555685
0.0794507
-0.0022156
0.159824
-0.469228
0.420968
0.296088
0.400193
0.0421485
-0.0137193
0.435021
0.0212825
0.63058
-0.18388
-0.446699
-0.415614
0.564498
-0.148884
-0.0936105
-0.538185
0.554261
-0.0317373
0.00892274
0.449409
0.00360737
0.00626579
-0.0109355
0.00626011
0.489914
-0.197863
-0.0490393
-0.164158
0.213197
-0.0179242
0.0209818
-0.0223707
0.0205673
0.144771
-0.384829
0.0222007
0.194111
0.0604122
0.520449
0.430268
-0.231123
0.0145687
0.216554
0.00489174
-0.0678845
0.0629927
-0.359295
0.369467
0.000100455
0.119143
-0.27455
0.0366229
0.237927
0.0814407
-0.477791
0.39635
-0.309648
0.238654
0.070994
0.131788
-0.525936
0.394148
-0.0512531
-0.415115
0.13518
-0.143442
0.00826254
-0.371033
0.487038
-0.307695
-0.0720757
0.022817
-0.509859
0.14724
-0.226458
0.079218
0.119321
0.0092091
0.410191
-0.314716
0.10389
0.339791
-0.110799
-0.182712
0.0620987
-0.316886
0.254788
0.151066
0.168929
-0.0151306
0.0432553
-0.108141
-0.298197
0.0704475
0.22775
0.0117439
-0.10831
0.470489
-0.389049
0.083513
-0.385683
0.30217
-0.385494
-0.0119734
0.00103788
0.13391
-0.486827
-0.633027
0.290552
0.342475
-0.00405688
0.0732501
-0.207801
0.422682
-0.21488
-0.00247456
-0.0211553
0.0338227
-0.0378247
0.00400203
-0.00286092
-0.00738384
0.0102448
-0.00605437
0.133154
0.0810713
-0.516876
-0.0835845
-0.46336
0.488011
0.339092
-0.536489
0.197397
0.123454
0.423232
0.380273
-0.540998
-0.615481
0.27404
0.34144
-0.0251757
0.375239
-0.221511
0.342222
0.704086
-0.407999
-0.11577
-0.00833264
0.124102
0.0168402
0.00578475
-0.121555
0.160576
-0.543028
0.382452
0.138475
-0.559777
0.421302
0.628172
-0.145691
-0.48248
0.00449154
0.126633
0.0102851
-0.0746164
0.0643314
0.109474
-0.150785
0.0413108
-0.059492
0.128779
-0.592138
-0.452425
-0.0829019
-0.135526
-0.453575
0.5891
-0.254905
0.425045
-0.17014
0.0592543
-0.0828495
0.0235952
0.0980483
-0.0599323
-0.038116
-0.252622
0.314721
0.241441
0.462646
-0.136257
-0.311983
-0.469895
0.214991
0.191819
-0.170788
-0.0210311
-0.00705679
0.0190702
-0.0120134
-0.0580107
0.0457015
-0.0566575
0.010956
-0.257826
-0.244206
0.456399
-0.352509
0.133117
-0.0061476
0.0374308
-0.197327
0.0036089
-0.162939
0.116147
0.315169
-0.250388
0.150862
-0.0413873
0.358301
0.433507
-0.350668
0.297833
0.389297
0.272435
0.130339
0.0533375
0.027461
-0.0315338
0.152489
-0.544943
0.392453
0.388991
-0.112842
-0.276149
0.29687
0.0768192
-0.567402
0.39812
0.284849
-0.338699
0.464601
-0.0423632
0.0390955
0.00326779
-0.00293468
0.138114
0.127106
-0.0132086
-0.425608
0.556244
-0.454499
0.559827
-0.399251
0.0123008
0.0216279
-0.0985417
0.0127113
-0.311842
0.245753
-0.00716197
0.0409846
0.165782
-0.585658
0.419876
-0.0086123
-0.482662
0.491275
-0.416094
0.345258
0.144656
0.0761435
0.00777872
-0.0839222
0.339886
-0.113139
-0.226747
-0.416859
0.0962981
0.320561
-0.200082
-0.445535
0.0713645
0.219679
-0.291043
0.410836
0.217335
-0.00210012
-0.00634413
0.00844425
0.125191
-0.243312
0.0344503
-0.0335871
-0.000863271
0.438956
0.0881179
-0.34074
-0.00117675
0.0225552
-0.0213784
-0.01748
-0.00141966
0.0188997
-0.0746172
0.0945958
-0.380778
0.512565
0.060295
-0.0708865
0.0105916
-0.18928
0.63442
-0.457455
-0.0153307
0.173305
-0.157975
0.189587
-0.175669
-0.132553
0.319997
-0.187444
0.00387457
0.573485
-0.23048
-0.343005
-0.592001
0.373237
0.218765
-0.0134326
0.101943
-0.148139
-0.484888
-0.580031
-0.361221
0.235946
0.119985
0.350504
0.00784272
-0.00994284
-0.205338
0.0420602
0.163278
-0.114806
-0.35437
-0.114858
0.431116
-0.613975
-0.39469
-0.420976
0.565747
-0.0599965
-0.505751
0.237548
-0.40768
0.531134
-0.12444
-0.352152
0.476592
-0.615674
0.24391
0.371764
-0.00347579
0.0436308
-0.537225
-0.520614
0.0168188
0.503795
-0.194365
0.432091
-0.237726
-0.439749
0.332661
0.0236593
-0.024836
-0.547521
0.00346766
0.544053
0.524317
-0.377483
-0.146833
0.0816642
0.041152
-0.122816
0.030049
0.16177
-0.101045
0.484993
-0.383948
0.18832
0.340049
-0.528369
0.280666
-0.410479
-0.00307432
0.0487758
-0.106906
-0.0553857
0.00461553
0.0507702
0.190996
-0.0606565
-0.500165
0.343029
0.586374
-0.411895
-0.174479
-0.00311101
-0.00235463
-0.257625
0.538291
0.0942279
-0.3272
0.232972
-0.572768
-0.442673
-0.297623
-0.167787
-0.0152661
0.183053
-0.137201
0.256448
-0.119247
-0.193829
0.364187
0.41586
0.170514
-0.498249
-0.0175774
0.385692
0.138625
0.0955304
0.0226533
-0.447697
0.368376
0.0793211
0.00843563
0.154125
-0.383607
-0.299315
0.387433
-0.148249
0.105042
-0.135037
0.0299944
-0.0101262
0.118143
0.221743
-0.0840909
0.0312247
0.0528662
0.00724636
0.0893102
-0.366386
-0.0733625
0.00236726
-0.0110403
0.00867301
0.356665
-0.273152
-0.0694809
0.0562523
0.0132286
-0.0433519
0.000988686
-0.0220507
-0.0273294
0.0493801
0.566638
-0.256299
-0.310339
-0.219594
-0.0110892
0.230684
-0.38018
0.299209
0.0861024
-0.019463
0.00927708
-0.00658253
-0.530174
0.141857
0.388317
0.587484
-0.595904
0.00842057
-0.00376388
0.150275
-0.364034
0.554125
-0.190092
-0.415605
0.563553
-0.147948
-0.0111552
-0.00928338
0.0204386
-0.397692
0.563474
0.342395
-0.452097
0.109703
-0.00210645
0.0233657
-0.00112585
-0.0222399
0.0279673
-0.453575
0.479724
-0.140632
-0.497148
-0.00391119
-0.00264056
-0.0148395
0.0833115
-0.0240572
0.108425
-0.118428
-0.187431
-0.299837
0.487268
-0.043491
0.0465939
-0.107123
-0.121041
-0.0789323
0.0892174
0.010323
0.167923
0.176057
0.00237743
-0.0752296
0.0684347
-0.401512
-0.175818
0.244015
-0.00625891
0.147475
-0.141216
-0.0113172
-0.00824724
0.505648
-0.0595715
-0.00256975
1.4742e-06
-0.00994432
-0.0169368
-0.0525441
0.0244375
-0.02268
0.319213
0.114674
-0.433887
0.20095
-0.0211862
-0.179763
0.473995
0.156585
-0.0595432
0.2763
0.11269
0.131659
-0.110843
-0.0208162
0.653152
-0.653152
-0.0204468
-0.00816392
0.0286107
-0.54036
0.124754
0.123818
-0.042154
-0.430192
0.534109
-0.103917
-0.134582
-0.0499811
0.184563
-0.168205
0.196184
0.00476545
-0.0257569
0.0354718
-0.161001
0.125529
-0.156331
0.336496
-0.482957
0.61733
0.0637733
0.170221
0.373674
-0.0405522
-0.333122
-0.369735
0.109516
0.260219
-0.000485836
0.0238515
-0.371166
0.580369
0.589706
-0.357021
-0.437661
0.151935
0.285726
-0.0478937
0.0119896
0.00265403
-0.00227788
0.0259372
0.346099
0.220538
0.101594
0.404054
0.0201299
0.388778
-0.408908
0.000570465
0.0338799
0.124327
0.528825
0.332207
-0.321553
0.00120564
-0.0274766
0.0262709
0.384147
-0.558679
0.174532
0.08545
0.195907
-0.281357
-0.12022
0.463559
-0.0285379
-0.0748722
0.0177852
0.057087
-0.270008
0.3922
-0.122192
0.217316
-0.513498
0.0836256
0.143462
-0.227088
0.0064153
0.0274758
0.121735
0.0241062
0.320076
-0.225848
0.477685
-0.152003
-0.325682
0.251956
0.33775
0.0125073
-0.00360017
-0.0089071
-0.0149747
0.120017
-0.532674
0.0120599
0.0387024
-0.258297
-0.563943
0.393621
0.170322
0.41137
-0.327285
-0.419635
0.576386
0.0212317
-0.473656
0.16649
-0.179413
0.0129235
0.143738
0.30605
0.450287
-0.107893
-0.103012
0.378436
-0.233298
-0.0183039
0.0145163
0.00378757
0.0359412
0.00579238
-0.00978501
-0.218369
-0.0464869
-0.037604
0.0455493
-0.475742
0.206952
0.0164152
-0.0768318
0.46561
-0.403846
-0.160098
-0.15086
0.429473
-0.278612
0.33665
0.113637
0.0210099
-0.00213889
-0.018871
-0.147634
0.468754
0.108092
0.0427695
0.433321
-0.114108
-0.236658
-0.568699
0.0119192
0.00170457
-0.0136237
0.207104
0.367986
0.00771203
-0.134237
0.107794
-0.244995
0.0357302
-0.109394
0.0736639
-0.242712
0.0373737
0.19845
-0.00301946
-0.19543
-0.0041147
-0.199659
-0.0267991
-0.320507
0.0676677
0.135268
-0.277717
0.42109
-0.143373
-0.0100699
-0.00556395
0.0156338
-0.138736
0.177373
-0.0386379
0.609657
0.417994
-0.284084
0.19957
-0.164099
-0.163114
-0.0436475
-0.315211
0.503531
0.0176627
0.0139027
-0.0315654
0.409453
0.150374
-0.15888
0.0407847
-0.000425658
-0.193567
0.61208
-0.418513
-0.109557
0.0809419
-0.255708
-0.144363
-0.364614
-0.0959304
-0.491024
-0.00612426
-0.123506
0.511188
-0.387682
0.383073
-0.266925
0.0776929
-0.0911256
-0.407998
-0.150681
0.0631063
0.0202051
0.00227342
0.0102338
0.226391
-0.0188036
-0.207588
0.0354305
0.00366499
0.409474
-0.0216519
0.587399
0.221339
-0.593118
0.444691
-0.108466
-0.398386
0.135539
-0.111447
-0.024092
-0.0987032
-0.231064
0.329767
0.337545
-0.513721
0.176176
-0.0923711
-0.324488
0.10766
-0.563507
0.0253664
0.049123
0.0489254
0.310389
-0.0543486
0.0038713
-0.0104654
-0.0777088
0.0881742
0.433166
-0.119501
0.00497015
0.399065
-0.404035
-0.101858
-0.172693
0.144198
-0.208445
0.513108
-0.304663
0.364101
-0.459178
0.0950765
-0.455615
0.429941
0.0256737
-0.420631
-0.164211
-0.282518
0.565938
0.411335
0.0522232
-0.0130995
0.0100757
0.00302374
0.406234
0.0943725
-0.500607
0.018484
0.0756072
-0.213687
0.255747
-0.206679
0.278044
-0.57546
0.451954
0.423244
-0.59313
0.169886
-0.188665
0.0866239
0.102041
0.287598
0.0690677
-0.353355
0.554239
-0.401749
0.351341
0.125436
-0.476776
-0.215629
0.459021
-0.290923
-0.146738
-0.185258
0.593349
-0.341394
-0.108176
-0.130754
0.23893
-0.0092128
0.107729
-0.0985163
0.303467
-0.436579
0.133112
0.483313
0.104171
-0.0932926
0.445328
-0.352035
0.382423
-0.170111
-0.212312
-0.199874
-0.180941
-0.299885
0.0688824
0.231003
-0.149913
-0.192271
0.0535359
-0.341457
0.242754
0.332125
0.14556
0.0529423
0.0416344
-0.0945768
-0.146825
0.484371
-0.0341775
0.0187625
-0.10615
0.0912765
0.0148734
0.0295619
0.302645
0.124079
-0.116291
-0.00778762
0.453467
-0.462079
0.673133
-0.245943
-0.42719
0.125086
0.319177
-0.444263
0.38388
0.0259773
-0.409858
-0.177196
-0.314569
0.491765
0.500086
-0.0938523
-0.495561
0.495561
0.168567
0.385671
0.119243
-0.138098
0.571855
-0.145688
-0.426167
0.554999
-0.386431
0.378135
-0.18403
0.210212
-0.200902
-0.00931003
-0.0122653
0.0884088
-0.0743531
0.33287
-0.26038
-0.143423
-0.472251
0.137112
-0.143371
0.117563
-0.0150654
-0.102498
-0.087859
0.32576
-0.0135148
0.139299
-0.139304
4.60521e-06
0.135713
-0.0294441
-0.106269
0.580745
-0.17364
-0.407105
-0.151348
0.00599004
0.473609
-0.140399
0.353765
0.291151
-0.32465
0.449736
0.0249728
-0.0246408
-0.000332004
0.0147018
0.110382
-0.132183
-0.343485
-0.0634263
0.434338
-0.364174
-0.132856
0.497031
-0.380907
-0.146682
-0.43317
0.123597
0.309573
-0.38324
0.38821
-0.355362
0.191756
0.163606
-0.541914
0.294487
0.196405
0.0138069
0.329167
-0.0915142
-0.0211486
0.019701
0.00144757
0.00974178
0.55314
0.229186
-0.0799059
-0.14928
-0.354063
-0.261417
0.0784
-0.0395083
-0.0388917
0.182394
0.00906342
-0.191457
0.00783571
0.055197
-0.0630327
0.118125
-0.0225943
0.00582084
0.129719
0.0138739
0.155056
-0.00303132
-0.0265806
0.427483
-0.124016
0.00869284
0.00401923
-0.582163
0.206471
-0.208675
0.00220382
0.165883
0.405972
-0.0853563
0.221548
0.0280016
-0.249549
0.213864
-0.370983
0.157119
0.0284859
-0.00345557
-0.0250303
-0.0684655
0.267456
-0.19899
0.0286071
0.33705
-0.0151659
0.128431
-0.113265
0.16062
-0.517246
0.391455
0.125791
-0.0802482
0.288832
-0.208584
-0.306968
0.656495
-0.261545
-0.394951
0.388541
-0.089332
0.218809
-0.135183
0.0579563
-0.416838
-0.0751848
0.245954
-0.17077
-0.224276
0.487949
-0.263673
-0.242749
0.0430897
0.269207
-0.456638
-0.496725
-0.0581283
0.0592532
0.133937
0.266698
0.406435
0.365505
-0.113216
-0.252289
-0.0084144
-0.00641023
0.211946
-0.0045492
0.178095
-0.147344
-0.0307515
0.0889442
-0.00620058
-0.0827436
-0.517419
0.399898
0.117521
0.397247
0.183498
0.0871453
-0.0709233
-0.0162221
0.292401
0.0961402
0.1756
0.00119986
0.224267
-0.0532261
0.00691622
0.0463099
-0.00255314
0.386434
0.0380839
-0.120935
-0.0125727
0.371339
-0.358766
-0.380325
-0.000607888
-0.400615
0.200741
-0.453755
0.346898
0.106857
0.00262828
0.00912982
-0.0117581
-0.237275
0.026208
-0.17719
0.626157
-0.448967
0.0834911
0.138057
-0.00172512
0.0945517
-0.0928266
0.12354
-0.30615
0.18261
-0.00844249
-0.0447837
-0.0201592
0.0832655
-0.503181
0.564445
-0.0612639
-0.17562
0.0128355
0.162785
0.0310687
-0.00360768
-0.169564
-0.00605627
-0.0787946
0.0675545
0.0112401
-0.503009
0.043262
0.459747
0.341392
-0.434685
-0.017827
-0.000672769
0.0184998
0.00861323
0.10895
0.0126764
-0.0150716
0.00239524
0.121096
-0.555674
0.434579
-0.0986961
0.436785
-0.105308
0.0046325
-0.0273125
-0.127553
0.0529362
0.276365
0.106708
0.428289
-0.0641876
0.0133659
-0.181153
0.120477
-0.00427114
-0.116206
-0.0730511
-0.0110088
0.08406
-0.369837
0.0652974
0.389433
-0.45473
-0.0102949
0.0705899
0.209382
-0.00862094
-0.200761
0.20244
0.314206
0.0871421
-0.106015
-0.0183233
-0.142601
0.344422
-0.569131
0.411279
0.157853
-0.00259469
0.0145139
-0.04755
-0.217213
0.566298
-0.113375
0.559404
-0.446028
-0.0188938
0.0365565
-0.527916
0.0247343
0.629943
-0.163035
-0.473065
0.248789
0.221123
0.329023
-0.445026
0.116004
0.147823
-0.0397304
0.148085
-0.22327
-0.0532366
-0.104764
-0.237352
0.342116
0.000421402
0.00541569
-0.00583709
0.413021
-0.269282
0.12759
-0.00660723
-0.120983
0.0910731
-0.100286
0.0408717
-0.515827
0.412863
0.102965
0.367479
0.131836
-0.499315
-0.0121056
0.151405
-0.204655
-0.358227
-0.0270479
0.410553
-0.0850661
-0.370548
0.331959
-0.0115328
-0.0770917
-0.159679
-0.216925
-0.375077
0.000210793
-0.0250984
-0.182383
0.200883
-0.0185001
-0.0155895
0.366487
-0.219518
-0.146969
0.596998
-0.142549
-0.454448
0.560033
0.203282
-0.205852
-0.0769148
0.0700741
-0.00871169
-0.0214158
0.206384
0.400019
0.00420778
0.152077
0.249844
-0.525939
0.276094
-0.104396
-0.329311
0.433707
-0.162414
0.0293977
-0.032429
-0.0205591
-0.189681
-0.289706
0.231696
0.109844
0.0232727
-0.188356
-0.167006
-0.0691361
-0.0676898
-0.109689
-0.406138
0.301274
-0.539974
-0.474819
0.0379234
-0.146099
0.152598
-0.155533
0.540102
-0.401627
-0.00424774
-0.0992517
0.103499
-0.490786
0.357771
0.133015
0.172235
-0.592866
-0.06102
-0.0123289
0.0733489
0.0279367
-0.0313923
-0.161732
-0.230927
0.392659
-0.0107746
0.0466893
-0.342203
0.29727
0.0449322
0.0289279
-0.0287171
0.134866
0.347099
0.00174671
0.403896
-0.342436
0.454666
-0.11223
-0.0546049
0.17444
-0.611127
0.436687
0.328733
-0.500176
0.171443
-0.326824
-0.040442
0.0433665
0.0384123
0.00763636
-0.0460486
0.144615
0.0845716
0.0528276
-0.0612701
0.0842132
-0.316346
0.232133
0.0302492
-0.00133693
-0.0289122
0.0459435
0.205301
-0.00201948
0.43031
-0.309214
-0.140473
-0.352237
0.492709
-0.369872
-0.501034
0.374424
0.12661
-0.0529031
-0.0299463
0.606717
-0.438247
-0.16847
0.256952
0.0219726
-0.278925
-0.369533
0.114049
-0.09865
-0.0107505
0.0528533
0.000365137
0.0139596
-0.0143247
0.116488
-0.440953
0.324466
-0.0661419
0.082888
-0.0167461
-0.225581
0.343724
0.249205
-0.32625
-0.205351
0.50899
-0.311618
-0.216298
0.01466
0.00470038
0.309562
-0.0728944
0.023599
-0.0223934
0.0185522
-0.19437
0.348464
0.0798249
0.113189
-0.00476336
0.399183
0.223799
0.252339
-0.0226521
-0.387108
0.236248
-0.00824541
0.0976214
-0.089376
-0.276932
-0.231302
0.331343
-0.202177
-0.129166
0.435664
0.335218
0.279874
-0.0819684
0.0802433
-0.233142
-0.0961303
0.329273
0.230163
-0.12942
-0.100742
-0.145714
0.474447
-0.000959888
-0.157104
0.017794
-0.015994
-0.00180007
0.325498
-0.482845
0.157347
-0.1318
-0.0568437
-0.470108
0.0892011
0.355578
-0.058708
-0.173911
-0.412285
0.586196
-0.00221744
0.0911616
0.0327088
0.173763
-0.185344
-0.199436
-0.0853865
0.284822
0.0945555
-0.487047
0.392492
-0.141626
0.487719
-0.346093
0.625653
0.32484
0.172627
0.39611
-0.5322
0.136091
0.162362
0.0219553
-0.044006
0.248375
-0.219768
-0.27428
0.421159
0.540203
-0.230994
0.563166
-0.0316984
-0.531467
0.133379
0.000402435
-0.00608315
-0.0482654
0.112041
0.196046
0.341096
-0.442248
0.101152
0.557089
-0.382649
0.426754
-0.149455
0.508013
-0.358557
0.108913
-0.024147