/*--------------------------------*- C++ -*----------------------------------*\
| =========                 |                                                 |
| \\      /  F ield         | OpenFOAM: The Open Source CFD Toolbox           |
|  \\    /   O peration     | Version:  v2012                                 |
|   \\  /    A nd           | Website:  www.openfoam.com                      |
|    \\/     M anipulation  |                                                 |
\*---------------------------------------------------------------------------*/
FoamFile
{
    version     2.0;
    format      ascii;
    class       volVectorField;
    location    "100";
    object      U;
}
// * * * * * * * * * * * * * * * * * * * * * * * * * * * * * * * * * * * * * //

dimensions      [0 1 -1 0 0 0 0];


internalField   nonuniform List<vector> 
13851
(
(1.01217 -0.00699438 0)
(0.75169 0.332548 1.01711e-20)
(1.05967 -0.0894819 6.39015e-21)
(1.01295 -0.00635 0)
(1.07162 -0.0561699 0)
(1.09979 -0.002907 0)
(1.02907 -0.0035124 0)
(1.04462 -0.0623521 5.29269e-21)
(1.00877 -8.77777e-05 5.74792e-22)
(0.992795 -0.116308 -1.97836e-22)
(0.988913 0.0619804 0)
(0.741905 -0.361605 -7.48984e-21)
(1.0016 -0.0264893 -2.70809e-21)
(0.218034 0.354569 -1.85596e-20)
(1.01777 -0.000757795 1.95914e-23)
(1.01727 -0.0384932 7.86319e-25)
(1.03543 -0.0279297 1.98211e-21)
(1.01917 -0.0232709 4.51778e-21)
(1.08062 -0.020457 -4.64377e-21)
(1.00861 -0.000109179 -1.14606e-21)
(1.01311 -0.00655193 -1.57544e-21)
(1.06256 -0.0846011 2.14532e-21)
(1.00552 0.000109239 2.44937e-22)
(1.00329 -9.9745e-06 -9.32051e-22)
(1.00453 1.2152e-05 0)
(1.04232 -0.0641982 -5.15544e-22)
(1.04755 -0.0224043 0)
(0.0455424 -0.214686 2.68829e-20)
(1.01229 -0.00759989 -1.17232e-22)
(1.0204 -0.0190274 2.75585e-22)
(1.10928 -0.0256616 0)
(1.03575 -0.029195 0)
(1.05488 -0.0895535 -1.10096e-20)
(0.933164 -0.0700425 0)
(1.00396 -1.04292e-06 1.46779e-21)
(1.07463 -0.0717305 -6.33782e-21)
(1.07002 -0.0814395 -3.00267e-20)
(1.12182 -0.0659137 0)
(0.99246 -0.125353 -4.42326e-23)
(0.945922 -0.125439 3.34806e-21)
(1.01307 -0.00614844 -1.28128e-22)
(1.01198 0.00120096 -1.08549e-22)
(-0.0702647 -0.0315922 3.09179e-20)
(0.918636 0.124292 0)
(0.897625 0.0978649 0)
(-0.0289955 -0.0223178 -5.13125e-22)
(0.859577 0.149029 -1.67408e-21)
(0.843647 0.176365 3.84759e-21)
(1.04853 -0.0231045 -9.95956e-21)
(0.998134 -0.0280021 -2.3937e-21)
(1.07037 -0.0519739 2.04095e-20)
(1.06631 -0.0493966 1.39658e-20)
(-0.032969 -0.350007 0)
(1.01731 -0.000663951 -1.95399e-21)
(1.00927 -0.000637984 0)
(1.01224 0.00124478 0)
(1.00546 0.000136932 5.07418e-24)
(0.0152496 -0.29543 -9.15825e-20)
(1.02028 -0.0186246 4.0766e-22)
(1.02951 -0.00616588 -2.03766e-21)
(1.12704 -0.0728736 0)
(0.524501 0.160458 2.1629e-21)
(1.00104 -0.0624928 4.02263e-21)
(1.07359 -0.0530023 6.39579e-22)
(0.973264 0.160879 3.60798e-21)
(1.01168 -0.0036794 -2.67581e-21)
(1.08034 -0.0841689 0)
(0.858662 0.164518 -8.80058e-22)
(1.06086 -0.0397538 5.73919e-22)
(1.01807 -0.0235476 -2.63009e-21)
(0.356153 -0.00667722 1.95622e-20)
(1.05675 -0.0903601 0)
(0.762863 0.325042 -1.70386e-20)
(1.01728 -0.000689394 1.77977e-21)
(1.01045 -0.00107581 -6.86641e-23)
(1.01065 2.67449e-05 8.65535e-22)
(1.06149 -0.0818843 0)
(0.516203 -0.0128238 2.054e-20)
(1.06081 -0.0523817 -1.08273e-20)
(0.328118 -0.010489 4.9266e-21)
(1.0319 -0.0103798 -4.63146e-21)
(0.859759 0.0655837 1.0277e-22)
(1.01906 -0.00500288 -3.44681e-21)
(-0.0339463 -0.106337 0)
(1.00824 -0.0669222 -5.37876e-21)
(0.763278 -0.353583 5.16282e-21)
(1.06162 -0.0249965 -2.48252e-21)
(0.595799 0.0188515 -8.12427e-21)
(1.04351 -0.0287035 0)
(1.01398 0.00214453 0)
(1.07368 -0.0703778 0)
(0.996571 0.0114201 0)
(0.863365 0.159444 -1.3192e-21)
(1.04797 -0.0341234 0)
(1.04421 -0.0278067 3.17172e-21)
(1.00368 6.22247e-05 -2.46953e-22)
(1.07209 -0.0549029 0)
(0.62834 -0.0265911 2.8239e-21)
(0.990628 -0.0313601 2.16896e-21)
(1.00298 6.77488e-05 0)
(0.193642 0.368257 1.88682e-20)
(1.06595 -0.0496389 -6.17506e-21)
(1.01477 -0.0111224 0)
(1.05513 -0.0146573 1.66664e-21)
(1.007 0.000101318 0)
(1.04105 -0.0479539 1.28649e-21)
(1.06814 -0.0500815 0)
(1.01152 0.00089944 6.71519e-23)
(0.970412 -0.0896395 0)
(1.09429 0.0238885 5.49492e-22)
(1.00262 3.70448e-05 -5.80324e-22)
(1.01417 0.00225105 0)
(1.00001 0.00979738 -9.59812e-23)
(1.00051 5.3963e-05 0)
(1.00327 3.97449e-05 0)
(0.870994 0.269816 5.45288e-21)
(0.665232 -0.0251231 -9.25261e-22)
(1.01072 0.000706494 0)
(1.0039 -0.000168333 -8.91833e-24)
(1.00749 -0.000416996 -6.50149e-23)
(-0.0520352 -0.0430168 3.02162e-22)
(1.05397 -0.0150744 -2.56004e-21)
(0.969963 -0.0250464 0)
(0.878446 0.26996 -1.44451e-20)
(0.854514 0.16899 -4.14732e-21)
(1.0189 0.00378508 2.35559e-22)
(0.877178 0.202384 -5.71279e-21)
(1.06349 -0.0509717 1.76906e-21)
(1.01341 -0.00626912 -1.88146e-21)
(1.08668 -0.0496624 -1.19829e-20)
(1.01296 -0.0059704 -2.981e-22)
(1.00735 -0.000734413 -5.28152e-22)
(0.377334 -0.012724 -1.34968e-20)
(1.0191 -0.00471921 2.78075e-21)
(0.859734 0.263775 1.1198e-20)
(1.00702 -0.000345823 -9.3089e-22)
(1.01068 0.000641704 2.30631e-22)
(1.06195 -0.0870526 2.29754e-21)
(0.114827 0.283494 0)
(0.221195 0.170951 4.27555e-21)
(0.132992 0.351415 -2.20486e-21)
(1.00885 -0.000606663 6.26801e-23)
(1.01263 0.00138208 1.84524e-21)
(1.01433 0.00192525 0)
(1.02864 -0.0210436 -6.16742e-22)
(0.911011 0.150829 5.26586e-21)
(1.01878 0.0012803 -1.61843e-22)
(1.08983 -0.051272 1.87085e-20)
(1.02833 -0.00343897 5.00997e-21)
(0.900285 0.0509342 5.65616e-21)
(1.08189 -0.054532 -2.77667e-20)
(1.00795 -0.000543672 2.11183e-22)
(0.237886 0.351937 -2.77284e-20)
(1.00546 0.000118301 -9.62813e-22)
(1.03725 -0.0188968 0)
(1.02797 -0.0206032 2.9032e-21)
(1.00993 -0.00213046 0)
(1.02138 -0.0179725 -2.36346e-22)
(1.06682 -0.0482757 -1.39163e-20)
(1.07 -0.0518163 -1.89526e-20)
(1.01489 0.00182885 -7.43083e-25)
(1.05588 -0.030749 0)
(0.00055832 -0.321938 4.53316e-20)
(1.00726 -0.000663758 5.84128e-22)
(1.01949 -0.0208042 0)
(1.01304 0.00165517 -3.2009e-22)
(1.01841 0.000447189 1.60826e-22)
(1.0622 -0.0398537 3.15732e-22)
(1.01343 -0.00644654 0)
(0.428453 -0.016559 0)
(0.499556 -0.00899841 -2.47127e-20)
(1.00705 0.000292615 0)
(1.01001 -0.00225926 -2.41049e-21)
(0.203651 0.199517 -4.73828e-21)
(1.00709 -0.000598744 0)
(0.829457 0.117431 6.57955e-21)
(1.06235 -0.0509588 5.35848e-21)
(1.01269 -0.00128321 0)
(1.07278 -0.0192455 -6.64954e-21)
(1.01218 0.00108158 0)
(1.03494 -0.031121 -2.22805e-21)
(1.04407 -0.0884927 0)
(1.01908 -0.00409083 0)
(1.06709 -0.0848894 -5.05775e-21)
(1.01114 0.000493289 -1.07486e-24)
(1.00478 7.23258e-05 0)
(1.01071 -0.00420313 0)
(1.00951 -0.000710096 3.80672e-23)
(1.07634 -0.0579564 0)
(0.930368 -0.0439589 -9.47144e-21)
(0.861204 0.166595 1.73838e-21)
(-0.0429055 -0.34489 0)
(1.01483 0.00262539 -1.13615e-21)
(1.05704 -0.0419738 -2.29477e-21)
(0.607579 0.14201 -1.04993e-21)
(1.03561 -0.0182686 1.88038e-23)
(1.01284 0.00117372 1.83434e-21)
(0.90531 -0.230309 -4.07852e-21)
(1.01261 -0.000775763 0)
(1.01072 2.17718e-05 -8.64998e-22)
(1.01868 0.00415622 -2.36541e-22)
(0.0842587 0.0632022 -2.45225e-21)
(1.00165 -6.93015e-05 -6.96326e-22)
(1.01543 -0.00551785 0)
(0.965622 -0.0652136 1.13781e-21)
(1.01948 -0.0043222 -3.35321e-21)
(0.632882 -0.107885 -6.48936e-22)
(1.03825 -0.0284102 4.56884e-21)
(0.518702 -0.0266709 -1.18965e-20)
(1.0134 0.00144305 -2.95096e-23)
(0.773901 -0.0607055 -1.42696e-20)
(1.01478 -0.0107425 0)
(0.875556 -0.25644 -4.53985e-21)
(1.01193 0.00102197 -2.75416e-23)
(1.01402 0.00188632 0)
(1.03357 -0.0135954 -1.09169e-21)
(1.0239 -0.0613043 1.24042e-21)
(-0.0718836 -0.0129786 5.2961e-22)
(1.01778 -0.00157468 2.41992e-21)
(0.534223 -0.0292366 1.18089e-20)
(1.03796 -0.0291827 -8.34462e-21)
(1.03272 -0.0107753 6.59637e-21)
(0.776785 -0.0488301 0)
(1.07291 -0.0464085 1.79344e-23)
(0.669353 -0.0591045 0)
(1.00401 6.56086e-05 6.09416e-22)
(1.04953 -0.0382014 0)
(1.00587 4.14205e-05 8.28009e-23)
(-0.112555 -0.263235 4.12929e-20)
(1.01218 0.0011044 1.18058e-22)
(1.03925 -0.0631195 -3.39602e-21)
(1.16125 -0.0692748 5.84319e-21)
(1.00695 0.000278014 -2.88997e-22)
(1.01469 0.00248148 0)
(1.07119 -0.0509771 1.10054e-20)
(1.04049 -0.0191058 1.55575e-21)
(0.698257 -0.10851 -4.16438e-20)
(0.90462 0.187434 -4.38503e-21)
(1.01438 0.00195152 0)
(1.01574 -0.00566592 2.9127e-22)
(1.10195 -0.0503776 0)
(0.92381 0.0269826 0)
(1.01728 0.00201643 0)
(0.958675 -0.0701881 -1.26937e-21)
(1.00831 0.000163395 -1.01082e-22)
(0.613149 -0.049419 1.26889e-20)
(1.06581 -0.0504378 0)
(0.886638 -0.214002 -5.87286e-21)
(1.02679 -0.0207127 1.28209e-21)
(1.02701 -0.0282482 0)
(1.02726 -0.00265068 -1.12168e-21)
(0.918059 0.0509034 0)
(1.02614 -0.0133105 0)
(1.02747 -0.0211669 -6.49678e-22)
(1.07123 -0.0475393 -1.36417e-20)
(0.860024 -0.0659498 0)
(0.936176 -0.0332825 9.4151e-21)
(1.05105 -0.0858137 -9.46944e-21)
(0.550265 -0.0445168 9.11447e-22)
(1.02066 -0.00188753 0)
(1.014 0.00188017 0)
(1.016 -0.0219088 0)
(1.01 0.0692361 0)
(1.01527 0.00237993 -4.8762e-22)
(1.03622 -0.00842389 0)
(1.03493 -0.0183544 -7.92283e-21)
(1.02623 -0.0128443 -1.66602e-21)
(1.04783 -0.033176 0)
(0.813859 -0.0479629 0)
(1.03294 0.0118631 4.57621e-22)
(1.02647 -0.00537163 -1.28497e-23)
(1.03646 -0.0191155 -8.3022e-21)
(1.07661 0.0763083 3.07885e-21)
(1.05983 -0.0512237 -1.05728e-20)
(1.01701 -0.0362531 7.52647e-22)
(1.0075 -0.000799553 1.14087e-21)
(0.852902 0.0696947 -5.20215e-22)
(1.03259 -0.0131178 -6.15096e-22)
(0.673934 -0.067891 0)
(0.996865 0.027014 -6.25192e-21)
(1.01745 0.00210621 0)
(1.01313 0.00140687 0)
(1.00734 0.000106089 0)
(1.07111 -0.0467583 4.60509e-21)
(1.00211 0.00717624 0)
(0.825816 0.0164209 9.95156e-21)
(1.00965 -9.13455e-05 1.3212e-21)
(1.01878 -0.000535747 -6.86355e-22)
(1.08366 0.0332985 -4.94768e-21)
(0.895528 0.0634152 -9.21328e-23)
(1.09374 -0.0480698 1.2034e-20)
(1.0205 -0.018412 -5.33741e-22)
(1.02969 -0.00663166 0)
(1.06047 -0.0431625 0)
(0.896773 0.0645676 -8.34141e-23)
(1.04949 -0.0129919 7.51738e-21)
(1.01999 -0.0222054 0)
(0.745671 -0.333346 -1.37158e-22)
(1.00772 -0.000926831 6.10461e-22)
(0.635748 -0.0516718 -1.20363e-20)
(1.05559 -0.0299479 9.35549e-21)
(1.03416 -0.0274991 1.91077e-21)
(0.692209 -0.0694751 1.19566e-20)
(1.01682 -0.0103285 -2.14144e-23)
(1.05291 -0.04641 0)
(0.706588 -0.0461667 4.96537e-21)
(1.00939 -0.000105678 0)
(1.06816 -0.0445278 -6.93059e-21)
(1.04687 -0.0348747 0)
(1.0203 -0.0179742 2.20881e-22)
(0.140788 0.26824 -1.85778e-20)
(1.01949 -0.0219508 2.10034e-21)
(1.02456 -0.0129735 -2.60929e-21)
(0.734245 -0.0457045 3.08766e-21)
(1.01222 0.00136507 1.38953e-22)
(1.02734 -0.0292307 -5.34112e-22)
(1.01872 0.00522071 -9.99004e-22)
(0.726769 -0.0724047 -1.09024e-20)
(1.07622 -0.0642454 0)
(1.01802 -0.00174311 0)
(1.068 -0.0487574 0)
(1.01857 -0.00128759 0)
(0.558198 -0.0602174 -1.04564e-20)
(1.03428 0.00067023 -1.15714e-21)
(1.00547 0.000102963 -1.34153e-22)
(1.01113 -0.00231607 -2.01514e-21)
(1.07528 -0.063094 0)
(1.0491 -0.036738 -1.05551e-20)
(1.03831 -0.0179135 -5.53871e-21)
(1.01867 -0.00040538 -6.80149e-22)
(1.01693 -0.0102257 0)
(1.02401 -0.0127587 2.25827e-21)
(0.95764 0.0730834 4.5587e-21)
(0.392678 0.337251 0)
(0.445852 0.0369965 -6.61967e-21)
(1.00992 -0.0281784 1.93562e-21)
(0.74163 -0.0729971 -4.86886e-21)
(0.954224 -0.0144681 0)
(1.01766 -0.000736259 -1.0042e-21)
(1.05661 -0.0432255 -2.36179e-21)
(1.09788 -0.0493178 -1.21324e-20)
(0.987662 0.0024131 2.61917e-21)
(1.06296 -0.0242246 8.38643e-22)
(1.0673 -0.0518314 0)
(1.08141 -0.0174365 2.57566e-21)
(1.01411 0.00481796 0)
(0.901406 -0.00809915 5.35343e-20)
(0.680948 -0.047612 0)
(1.01778 -0.000620376 0)
(0.999412 0.00918931 1.01316e-21)
(1.00157 0.0157069 -7.53099e-22)
(1.12938 -0.175304 0)
(1.03887 -0.0175544 5.59824e-21)
(1.07209 -0.023996 -7.193e-21)
(-0.11854 -0.260714 -5.22309e-20)
(1.01019 -0.00236368 8.23819e-22)
(0.884123 -0.0829519 -3.05907e-20)
(1.01113 -0.00222087 -2.14641e-21)
(1.01845 -0.00119739 6.01669e-22)
(1.00903 0.000207579 1.38058e-22)
(1.01171 0.000950042 -3.22874e-23)
(1.00946 -0.00199636 6.45136e-22)
(0.715449 -0.0509543 1.58837e-20)
(0.871348 -0.10399 0)
(1.01746 -0.0075701 4.14695e-22)
(1.06776 -0.0434379 -5.04575e-22)
(1.01301 0.00157301 0)
(0.710599 -0.336222 0)
(1.00382 -0.0341696 3.45932e-21)
(0.887 0.0374194 -3.905e-21)
(0.462146 0.00397068 2.8742e-21)
(1.01738 -0.00780034 3.68817e-22)
(1.02983 -0.0671176 -5.26625e-21)
(1.04434 -0.0357764 -4.53722e-21)
(0.865084 0.0674845 -8.83539e-22)
(1.01233 -0.0052954 2.12398e-22)
(1.0107 0.000757303 0)
(1.02041 0.0123633 0)
(0.29818 0.361728 2.5018e-20)
(1.00999 -0.000872005 0)
(0.198255 0.21826 0)
(0.988481 0.00852311 0)
(1.06631 -0.0517958 0)
(0.323185 -0.0331573 0)
(0.994848 0.0558167 -8.58444e-22)
(0.985547 0.0407336 -3.87102e-22)
(1.01689 -0.00806165 -1.60535e-21)
(1.0077 -0.00102135 -5.64484e-22)
(1.01667 -0.000404618 -2.15301e-21)
(1.0099 -0.0254313 0)
(1.06857 -0.0482853 0)
(0.244861 0.345731 2.04915e-20)
(1.06392 -0.0388704 0)
(0.713136 -0.0627667 9.53398e-21)
(0.702227 -0.0473312 5.13399e-21)
(1.01292 0.00158804 -1.86533e-22)
(1.02109 -0.00195117 -3.14782e-21)
(0.404568 0.0160614 3.76004e-21)
(0.367161 -0.0121223 0)
(1.16037 -0.102952 -8.04282e-21)
(0.692896 -0.0315134 0)
(1.02303 0.0148375 7.78176e-22)
(1.04501 -0.0370958 0)
(1.00331 4.00498e-05 -1.03853e-22)
(0.990353 -0.0268439 0)
(1.00793 0.000173784 -6.61559e-22)
(1.01935 -0.0392574 2.84777e-22)
(1.01589 -0.00690714 2.7526e-21)
(1.02644 -0.00461787 0)
(1.00641 4.18212e-05 1.81232e-23)
(1.0093 -8.41908e-05 1.74107e-21)
(1.01309 0.00165945 -1.98184e-22)
(1.0724 -0.0526955 -1.4237e-21)
(1.04908 -0.00290765 6.1399e-21)
(0.560336 -0.0826893 -3.35168e-20)
(1.01555 -0.0245852 1.74262e-21)
(1.06842 -0.0495415 0)
(1.02582 0.0131514 -4.86634e-21)
(0.940632 0.0850821 -1.65219e-21)
(1.02461 -0.0290215 3.30784e-23)
(1.12182 -0.192088 0)
(1.03377 -0.0264855 5.31547e-21)
(1.02853 -0.0360338 1.11364e-21)
(1.01074 0.000604228 -1.92773e-22)
(1.00908 -9.99015e-05 -3.32363e-22)
(1.00393 2.96909e-05 0)
(1.14748 -0.0777475 0)
(0.874838 0.110227 6.2248e-21)
(1.07624 -0.0473633 1.04152e-20)
(1.02116 0.0123228 3.18439e-21)
(0.561663 -0.0856065 2.60432e-20)
(0.943966 -0.00846633 1.07757e-20)
(1.05267 -0.0313155 1.62921e-21)
(1.00672 -0.000433606 -2.01595e-22)
(1.07193 -0.0511923 0)
(1.0122 -0.00509924 -2.13514e-22)
(0.941751 0.11582 1.85114e-21)
(1.007 9.65884e-05 0)
(1.06586 -0.249422 -2.05315e-20)
(0.907742 0.216412 0)
(1.0446 -0.0897068 3.69375e-22)
(0.52012 -0.0223056 0)
(1.01233 -0.000270875 -1.02655e-21)
(1.01626 -0.0161018 1.09719e-21)
(0.887715 0.218109 3.4693e-21)
(0.449954 0.330431 5.96657e-20)
(1.01136 0.000543808 1.91032e-23)
(1.04605 -0.0398252 0)
(1.06204 -0.0522131 5.89264e-21)
(1.03928 0.0105131 -4.92505e-22)
(1.00734 0.000168232 -3.08368e-22)
(1.02333 -0.0129511 2.86273e-21)
(1.08193 -0.0530184 -1.77243e-20)
(1.06697 -0.0500743 0)
(1.01874 -0.0312025 0)
(0.498288 -0.351732 0)
(1.00461 0.000105136 -1.31754e-21)
(1.01131 -0.00239439 -2.23608e-21)
(-0.104087 -0.122616 -8.86474e-22)
(1.01956 -0.0199186 -8.34935e-22)
(1.01289 0.0013442 -4.599e-23)
(0.576647 0.0294746 0)
(1.00761 -0.000967813 1.18308e-21)
(1.01252 -0.00656225 1.1574e-21)
(1.00767 -4.36187e-05 -6.24756e-22)
(1.014 -0.00663479 2.23335e-21)
(1.02055 -0.0166049 9.18006e-23)
(1.01315 0.00139501 3.14062e-23)
(1.01241 0.000212052 -9.94406e-22)
(0.757105 -0.0436089 1.07603e-21)
(1.01941 -0.00534674 0)
(1.06419 -0.0412449 0)
(1.0073 -0.000408297 1.2101e-21)
(1.01528 -0.0163089 -1.258e-21)
(1.02695 -0.0385518 -2.51962e-22)
(1.0002 1.79496e-05 0)
(1.01198 -0.00511903 -7.39639e-22)
(1.00106 7.59188e-05 0)
(1.00101 1.66675e-05 1.45385e-21)
(0.817704 -0.0262084 3.63053e-21)
(1.02696 -0.0124422 0)
(1.07791 -0.0263244 -5.31346e-22)
(1.01908 -0.00379442 -6.74718e-22)
(1.00415 0.000103275 -3.93736e-22)
(0.12048 0.347064 -2.8025e-20)
(0.505614 -0.0199113 4.15008e-21)
(1.02031 -0.00453912 -8.54288e-22)
(1.01359 -0.0185457 0)
(1.02529 -0.0301326 -1.77069e-21)
(0.914985 -0.0109068 -2.73894e-21)
(-0.0504342 -0.07805 0)
(1.01131 -0.00253197 0)
(0.8688 -0.0525659 -1.91748e-21)
(1.01259 -0.00552231 0)
(1.07256 -0.0621523 0)
(1.02742 -0.00582119 0)
(-0.166799 -0.140579 2.59045e-20)
(1.01055 0.000432324 -1.68851e-22)
(-0.0389434 -0.339761 4.71718e-20)
(0.936615 -0.0108123 -1.35576e-20)
(1.01198 0.0012435 1.22618e-22)
(1.00971 -0.0172147 2.25408e-21)
(0.537 -0.0394742 -2.58851e-21)
(1.03715 -0.0653304 7.64173e-21)
(0.861185 -0.151274 4.15676e-21)
(1.00493 -0.000209557 -8.35683e-22)
(0.901908 0.204015 1.98112e-20)
(1.00831 -0.000518188 -8.81636e-24)
(1.00688 -0.000334476 -6.019e-22)
(1.00771 -0.000831743 5.83929e-22)
(1.02684 -0.00313517 0)
(0.39033 -0.0188997 0)
(1.06944 -0.0512135 -1.19953e-21)
(1.06569 -0.0562944 1.27765e-20)
(1.06314 -0.0342109 2.34271e-22)
(1.01523 -0.0598524 6.2806e-21)
(1.01516 0.00183221 0)
(0.874295 0.00594262 0)
(0.866553 0.120581 1.75575e-20)
(1.03622 -0.0316538 2.43235e-21)
(1.05511 -0.0315867 1.18855e-22)
(0.931981 -0.0185436 3.16298e-21)
(0.877698 0.276973 7.16333e-21)
(0.822806 -0.0628093 0)
(1.01526 -0.000425014 0)
(-0.171674 -0.11921 1.22997e-20)
(-0.0109032 -0.0513831 -5.21539e-22)
(0.0265351 0.0745535 -2.89447e-21)
(1.01927 -0.0212807 -1.52003e-21)
(1.00752 -0.0187866 -4.43138e-21)
(0.901714 0.284294 2.55571e-20)
(1.02112 -0.0190637 -1.30257e-23)
(0.84877 -0.0412151 2.53832e-21)
(0.890944 -0.245903 -8.14815e-22)
(1.01121 -0.241531 -3.10992e-20)
(1.02107 -0.0181397 1.24735e-22)
(0.995952 -0.225102 3.17328e-20)
(1.0347 -0.0705006 -2.30637e-22)
(1.01073 0.000502057 -1.92599e-22)
(1.02735 -0.0133508 2.40156e-22)
(1.06992 -0.0512944 0)
(0.483715 -0.0125645 7.03615e-21)
(1.02621 -0.0210865 5.57064e-22)
(1.01553 -0.00395776 -6.4901e-22)
(1.00974 -0.00204612 -1.45171e-21)
(1.01399 -0.00613701 -8.12635e-23)
(1.07465 -0.0567505 0)
(1.03102 -0.011624 -1.73127e-21)
(0.60879 0.0568606 7.20093e-21)
(0.506877 -0.336768 1.12074e-20)
(1.00669 -0.000126183 5.49574e-22)
(-0.0908687 -0.100162 2.12537e-20)
(0.555848 -0.0235983 8.86837e-21)
(1.03281 -0.0867426 7.16199e-22)
(0.868698 0.176458 -4.01085e-21)
(1.06294 -0.0411475 -3.315e-22)
(1.01242 0.00119576 3.04518e-23)
(1.00901 -8.01138e-05 0)
(1.00969 -0.000928681 0)
(0.837088 0.00818045 0)
(1.03814 -0.0194819 1.77609e-21)
(1.07737 -0.0582225 8.89058e-21)
(1.06941 -0.0673608 0)
(1.01224 0.00120608 0)
(1.03582 0.0219435 -3.04787e-21)
(0.892767 0.284954 -8.38777e-21)
(1.11713 -0.163686 3.04271e-20)
(1.06864 -0.0501268 -5.71589e-22)
(0.401681 -0.0210955 0)
(1.03419 -0.0742497 8.45733e-21)
(1.0127 -0.00572069 -5.20178e-22)
(1.0269 -0.00439648 0)
(0.682104 0.155363 9.67707e-21)
(0.690445 -0.0462966 5.83924e-21)
(1.07074 -0.0623329 1.13738e-20)
(1.06474 -0.0379739 -1.91723e-20)
(0.99115 -0.0682051 0)
(1.01195 0.00102424 -3.8195e-23)
(1.0122 -0.00367228 1.28185e-23)
(1.0642 -0.241905 0)
(1.01195 0.00111949 -1.90309e-22)
(1.0256 -0.0206151 -4.92379e-22)
(1.01217 0.00108 0)
(1.00761 -0.000833042 4.66439e-22)
(1.02061 -0.0698701 -2.19691e-21)
(1.0735 -0.0543651 -9.08799e-21)
(1.02021 0.00699004 0)
(1.01198 0.00109169 1.88193e-22)
(0.262576 0.189871 -2.23228e-20)
(0.891707 -0.213183 8.81657e-21)
(1.00785 -0.00106288 0)
(1.00612 0.000194287 0)
(1.01527 0.00247336 5.33994e-22)
(1.01725 -0.000515048 4.08792e-21)
(0.297136 0.347846 0)
(0.886055 -0.244787 4.41291e-22)
(0.880476 -0.260274 5.7113e-21)
(0.00562725 0.116658 0)
(0.883268 0.154171 -1.95763e-20)
(1.06387 -0.0361905 1.10443e-20)
(0.465026 -0.00825199 1.23408e-20)
(0.497772 -0.0219512 -7.42682e-21)
(1.01309 0.00596766 -3.59858e-23)
(1.06026 -0.0408388 -9.59125e-21)
(1.01255 0.00124089 -3.06804e-23)
(1.01928 0.00493364 0)
(1.02229 -0.0457653 -1.79346e-21)
(0.803415 -0.0348652 -6.93177e-21)
(0.940425 -0.034039 0)
(1.07652 -0.0573804 9.17663e-21)
(1.0391 -0.038397 0)
(1.0083 -9.05074e-05 9.66608e-22)
(1.01435 -0.0333539 1.44838e-21)
(1.01521 0.00231212 0)
(0.86164 -0.169549 -6.87846e-21)
(1.06947 -0.0519681 0)
(1.01871 -0.00355731 3.25056e-21)
(1.01242 -0.0298768 -1.92356e-21)
(1.00723 0.000130161 -6.31473e-22)
(1.04946 -0.0317753 -3.21905e-21)
(1.07834 -0.0467754 -1.8951e-20)
(1.02873 -0.00593748 5.69998e-21)
(1.01196 -0.00490651 -7.40274e-22)
(1.00429 -0.0375797 0)
(1.02577 -0.00847777 9.04959e-22)
(1.07279 -0.0573536 8.23196e-21)
(1.14526 -0.0889878 0)
(1.07261 -0.0476365 1.90178e-21)
(1.01208 -0.0297992 9.27567e-22)
(1.07101 -0.0636506 0)
(1.00811 -9.71218e-05 -9.72996e-22)
(1.11818 -0.101844 1.32158e-21)
(1.02962 -0.000497058 3.9568e-23)
(-0.0277853 0.120752 0)
(1.0151 -0.0108648 3.15237e-24)
(1.00355 4.47551e-05 -9.24996e-22)
(0.996361 -0.08895 1.0846e-20)
(1.01736 -0.0168381 1.76968e-21)
(0.309397 -0.0601443 0)
(0.648289 -0.0465052 -1.11723e-20)
(-0.124169 -0.0326679 2.03053e-20)
(0.587713 0.0888383 2.66936e-22)
(1.00779 0.000128431 3.4255e-22)
(1.0414 -0.0908742 0)
(1.01784 0.00211625 0)
(1.00753 -0.000907421 -5.47435e-22)
(1.01056 0.000410865 9.39669e-23)
(1.00762 -0.000924197 -1.42205e-21)
(1.01935 0.00215487 0)
(1.01391 -0.0257798 -1.65353e-21)
(1.01657 -0.00912407 -3.46033e-21)
(1.01173 0.00101574 -1.84392e-22)
(0.959592 -0.0874627 1.56828e-20)
(0.928399 -0.020499 1.41283e-20)
(0.93593 -0.0667207 0)
(1.00937 -0.00168084 0)
(1.01042 0.00035764 6.38182e-23)
(1.00692 0.000202488 8.52944e-22)
(1.099 -0.0554082 0)
(0.669315 0.126001 -3.23997e-21)
(1.07534 -0.04701 2.51393e-20)
(1.04924 -0.0325236 9.5458e-21)
(1.01804 0.00200123 0)
(1.00385 8.19417e-05 -7.44633e-22)
(1.00549 -6.12554e-05 2.76438e-22)
(1.01031 -0.00212071 2.22254e-21)
(1.05007 -0.056831 1.27282e-20)
(0.459996 -0.247076 0)
(1.02528 -0.00816203 -9.16225e-22)
(1.01175 0.000995173 0)
(1.02721 -0.00281711 0)
(1.01022 -0.0021667 -1.62116e-21)
(1.05858 -0.233084 -7.90749e-21)
(-0.0263448 -0.347246 -5.42326e-21)
(1.01464 -0.0355029 -1.23574e-22)
(0.589768 -0.0124978 0)
(0.891693 0.249907 -1.00996e-21)
(1.01182 -0.00471272 2.22052e-22)
(1.06596 -0.0552739 -7.5746e-21)
(0.397248 0.344579 -1.18337e-19)
(1.06102 -0.0420781 0)
(0.75429 -0.361069 -5.95613e-21)
(1.0312 -0.0105472 4.32674e-21)
(1.01714 -0.0222926 1.57626e-21)
(1.07453 -0.0466779 -2.25969e-20)
(1.01493 -0.0227832 0)
(0.877429 -0.246463 8.93888e-21)
(1.01989 -0.00428808 7.31942e-22)
(0.893062 0.292686 -1.13255e-21)
(1.00685 7.13846e-05 0)
(1.07029 -0.0285595 6.15608e-21)
(0.540396 -0.0270794 1.38726e-20)
(1.01161 0.000139124 -3.1542e-21)
(1.01603 -0.0146105 2.13299e-21)
(0.983745 -0.0613187 7.03032e-21)
(1.00705 -0.000375103 1.22231e-21)
(1.0347 -0.0298798 0)
(1.0619 0.0224341 2.36951e-20)
(0.198404 0.295048 5.43327e-21)
(1.06923 -0.0521459 -6.51785e-22)
(1.06533 -0.0119604 0)
(0.992115 0.0788193 -1.05068e-21)
(1.01192 0.00101106 6.05278e-23)
(1.00917 -0.00161619 0)
(0.0748291 0.337552 -7.58496e-20)
(1.07019 -0.06729 3.86576e-21)
(1.04539 -0.0156182 1.48792e-21)
(0.669446 -0.0483853 1.83769e-20)
(1.00929 0.000529339 5.7231e-22)
(1.01372 -9.99346e-05 0)
(1.01067 0.000528527 -1.5689e-23)
(0.89336 0.0757387 0)
(1.06848 -0.0749737 0)
(1.02115 -0.0218348 5.13687e-22)
(1.01334 -0.00733487 0)
(1.03577 -0.0347663 1.43082e-23)
(1.04488 -0.0242691 0)
(1.00721 0.000220438 -6.3014e-22)
(-0.0875665 -0.104278 -4.66527e-20)
(0.8535 -0.0859905 -5.29616e-23)
(0.61365 -0.0424172 0)
(1.01225 0.00133406 5.1661e-24)
(1.02537 -0.00776359 1.70122e-21)
(0.484873 -0.0100279 -1.08716e-20)
(0.0257596 -0.376335 0)
(1.07328 -0.0685684 0)
(1.01487 0.00177517 0)
(0.949055 -0.0752196 1.89227e-22)
(1.01953 -0.00470351 2.44266e-21)
(1.03954 -0.0307245 5.86796e-22)
(1.09089 -0.118606 -3.5672e-21)
(1.04636 -0.0946895 6.05065e-21)
(1.02803 -0.0267082 1.79687e-21)
(-0.100149 -0.0402299 5.18825e-22)
(1.02043 -0.00849466 3.95772e-21)
(1.01847 -5.50376e-05 0)
(1.06487 -0.0786501 1.43615e-20)
(1.00368 5.88911e-05 -9.2902e-22)
(1.00088 -2.76694e-05 -6.48964e-22)
(1.02072 -0.0171115 -9.28063e-23)
(1.00805 -7.25858e-05 4.62915e-24)
(-0.0974742 -0.126568 0)
(1.02894 -0.0432411 -2.11111e-21)
(1.06797 -0.0503468 1.11117e-20)
(1.01716 0.00646482 -1.67062e-21)
(1.03645 -0.0176642 3.46681e-22)
(1.00838 -0.00011302 6.59352e-22)
(1.02757 0.0705585 -1.92517e-20)
(1.00403 -8.69859e-05 0)
(1.01893 -0.00940462 5.95566e-22)
(1.01017 0.000339937 2.45295e-22)
(1.01146 -0.00435597 6.57675e-25)
(1.00843 -0.000628873 0)
(0.691713 -0.045198 -1.24302e-20)
(1.00964 -0.002085 1.44028e-21)
(1.01076 0.000936677 -2.12437e-23)
(0.907102 0.13315 -3.63806e-23)
(1.02765 -0.00457972 -1.77528e-21)
(0.504873 -0.0143261 -1.01041e-20)
(1.00574 7.08813e-05 0)
(1.0136 0.00207638 -1.95647e-21)
(1.07336 -0.0523097 0)
(1.04322 -0.250824 0)
(0.899465 -0.1593 2.68131e-21)
(1.00627 -8.2893e-05 -5.61297e-22)
(1.08046 0.0590018 -2.81756e-21)
(0.617688 -0.00250565 -8.63266e-24)
(1.02686 -0.0129057 -2.72748e-23)
(0.79205 -0.0524563 8.46419e-21)
(1.06911 -0.0284452 1.12355e-22)
(1.00783 -4.56628e-05 0)
(1.03183 -0.0118149 8.36164e-22)
(-0.080578 -0.0515886 0)
(1.09855 0.0309594 1.26272e-21)
(1.02429 -0.0268876 5.2775e-22)
(1.00645 -0.000111911 0)
(1.01152 0.000919482 -7.38257e-23)
(0.876195 0.186485 6.36446e-21)
(1.04496 -0.106041 -6.36364e-21)
(0.988398 0.0106482 0)
(1.02035 -0.0219323 0)
(1.02909 -0.0157021 0)
(1.01636 -0.000458588 -1.31191e-22)
(1.01405 0.00208101 0)
(1.08182 -0.0584586 2.28763e-20)
(0.854384 -0.0616975 1.04439e-20)
(1.07575 -0.0600269 -2.00261e-21)
(0.957327 0.0386597 0)
(1.02487 -0.0074375 -4.3676e-21)
(1.07351 -0.0604446 2.07182e-21)
(1.07 -0.0530559 0)
(0.751584 -0.075771 1.2361e-20)
(1.02099 -0.021275 0)
(0.494224 -0.0999869 2.89423e-20)
(1.06421 -0.0332638 8.37651e-21)
(1.02816 -0.00429764 -1.59911e-21)
(0.099999 -0.0857488 0)
(1.09222 -0.0869957 2.23034e-22)
(0.697433 0.0898116 0)
(0.222362 0.308859 0)
(0.690337 -0.0509613 8.21607e-21)
(0.933847 0.0660542 1.61288e-22)
(1.01771 -0.0536953 -1.0503e-21)
(1.00788 -7.42556e-05 6.39944e-22)
(1.00818 -0.0235807 3.84588e-21)
(-0.0110161 -0.271641 8.09474e-20)
(0.0279861 -0.11068 4.79285e-21)
(1.01111 -0.00181221 0)
(1.00371 7.12303e-05 1.5281e-23)
(1.07077 -0.0512715 -2.04252e-22)
(0.965636 0.0406925 0)
(1.01147 0.00119586 0)
(-0.0110763 -0.377076 -4.80862e-20)
(1.00904 0.000512302 -5.7759e-22)
(1.01853 -0.00730215 0)
(-0.108003 -0.126948 -1.93178e-20)
(0.493263 -0.010668 -9.51676e-21)
(0.978775 0.0808609 1.29278e-21)
(1.00755 -0.000928579 0)
(1.01852 -0.00100921 -3.09452e-21)
(0.0225034 -0.375181 2.96815e-20)
(1.05172 -0.0559319 -1.45765e-20)
(1.07183 -0.0613394 -1.03089e-20)
(1.01196 0.000805181 -2.30186e-21)
(0.522078 0.0375884 0)
(1.12162 -0.149853 -1.23308e-20)
(0.7559 0.0961997 0)
(1.06742 -0.0501598 -1.94112e-21)
(1.06665 -0.0433738 1.44338e-20)
(1.0238 -0.0131366 -1.20556e-21)
(1.0273 -0.00533867 0)
(0.757617 0.303023 -6.51906e-21)
(1.07865 -0.0441521 0)
(0.358902 -0.0120871 0)
(1.02884 0.0136936 4.27046e-21)
(1.06268 -0.0386412 0)
(-0.0705054 -0.143289 -2.71552e-20)
(0.649754 0.0923043 0)
(0.53933 -0.018836 -1.08464e-20)
(1.02207 -0.00482828 0)
(1.06362 -0.0336758 1.12172e-20)
(1.00776 -0.0010014 0)
(1.01196 -0.0321093 -2.54349e-21)
(1.01563 -0.0141067 1.49731e-21)
(0.685838 -0.35029 0)
(1.00898 -0.000119344 -1.5906e-21)
(0.489268 -0.0392341 -1.69231e-20)
(1.01125 0.00114074 -1.02829e-22)
(1.07294 -0.0518712 -8.41065e-21)
(1.01213 -0.00435621 -2.2135e-22)
(1.09944 -0.136035 1.86309e-20)
(1.06481 -0.0369267 1.37812e-20)
(1.06227 -0.0338156 1.00428e-21)
(0.598349 -0.0245351 -1.5895e-21)
(1.07035 -0.0434423 1.34497e-23)
(1.01509 -0.0018742 6.64477e-21)
(1.00299 9.66547e-06 -4.97857e-22)
(1.07222 -0.051721 0)
(0.829962 0.105115 -7.44073e-21)
(1.02021 -0.0817688 2.02853e-21)
(1.02449 -0.0204362 -4.6643e-23)
(0.483483 -0.00934149 0)
(1.01492 0.00226077 -2.47719e-22)
(0.272445 0.302958 0)
(0.881325 -0.0317813 4.04536e-23)
(1.02159 -0.0109099 0)
(0.742304 -0.0576922 8.01412e-21)
(0.262901 0.365082 2.2531e-20)
(0.518633 -0.0169029 8.02264e-21)
(0.951208 0.0904896 -2.7055e-22)
(1.02987 0.0093196 -2.50859e-21)
(1.01085 -0.00211133 1.25815e-22)
(0.60474 -0.044448 0)
(1.01324 -0.000240873 2.59865e-21)
(0.875763 0.284113 -5.3087e-21)
(0.510569 -0.0277492 0)
(1.00935 -0.00178431 6.97124e-22)
(1.04454 -0.0133438 7.23167e-21)
(1.14285 -0.0680318 0)
(0.874093 -0.200491 -1.58494e-20)
(0.423207 -0.080395 -4.88552e-21)
(1.02308 -0.00878417 0)
(1.00628 0.000128076 -1.14551e-21)
(0.84142 0.370097 0)
(0.528194 -0.0267184 0)
(1.06917 -0.0491283 -1.70631e-20)
(1.0246 -0.0258617 -7.25086e-22)
(1.01219 -0.000444341 7.71978e-22)
(0.88663 0.0154974 -3.97429e-23)
(-0.136 -0.126164 3.10749e-20)
(1.06968 -0.0529491 0)
(1.01078 0.000963303 1.12893e-23)
(1.01913 -0.0565791 1.09978e-21)
(1.00702 -0.000455246 1.79743e-21)
(1.00412 -9.97126e-05 9.78815e-22)
(0.998849 0.0259958 -8.32051e-23)
(1.00303 5.14637e-05 1.00711e-21)
(1.0801 -0.213307 1.2154e-20)
(0.970562 0.139176 6.2853e-22)
(1.01846 -0.00757359 2.39615e-22)
(1.01231 0.000930124 -5.32265e-22)
(1.01101 -0.00210736 9.62204e-22)
(1.02122 -0.0174326 0)
(0.41343 -0.00991874 -4.29302e-21)
(0.5188 -0.026263 1.03446e-22)
(1.0471 -0.0387814 0)
(0.486423 -0.083187 -1.83637e-20)
(1.01218 -0.00426532 2.76146e-22)
(1.04452 -0.0394083 1.16564e-21)
(1.01072 -0.00200252 0)
(1.00709 -0.000517563 -1.18775e-23)
(1.01789 -0.0101832 0)
(1.01801 -0.00745011 -2.28601e-22)
(0.457862 -0.0158772 -9.45194e-21)
(1.02037 -0.00483927 0)
(1.0735 -0.0469184 -7.16184e-22)
(1.02215 -0.00517618 1.09923e-21)
(1.02494 -0.0278267 8.24373e-22)
(0.990784 0.0256954 2.1557e-22)
(0.0797955 -0.318368 2.20063e-20)
(1.0045 -0.000194637 1.0795e-21)
(0.637868 0.0818189 -9.95927e-21)
(0.980418 0.0125422 3.28892e-21)
(1.05832 -0.0441953 0)
(1.03025 -0.0447535 1.72747e-21)
(1.03961 -0.0461781 0)
(0.353745 -0.00911524 -5.10502e-21)
(1.05045 -0.0312514 -2.99091e-21)
(1.03621 -0.0164059 1.70542e-21)
(0.690355 -0.362013 -7.90854e-21)
(0.908999 0.279622 -2.10754e-20)
(-0.0522923 -0.273278 -3.71256e-20)
(1.04682 -0.0553145 0)
(0.931378 0.036779 -5.0023e-21)
(1.01505 -0.0103604 4.54405e-22)
(1.06965 -0.0425174 6.67912e-21)
(1.06689 -0.0494866 9.83645e-21)
(0.423167 -0.0694323 0)
(1.00557 -2.65346e-05 1.18868e-21)
(0.218637 0.111686 -2.45697e-20)
(1.00907 -0.0015418 -7.06472e-22)
(1.00946 -0.00175998 0)
(0.212229 0.34845 0)
(1.01753 0.0041097 -8.4464e-22)
(1.05023 -0.0168991 -6.1146e-21)
(1.02814 -0.0275449 -2.18195e-21)
(1.00779 -0.000909622 -6.24596e-22)
(1.02757 0.0204401 2.06734e-21)