/*--------------------------------*- C++ -*----------------------------------*\
| =========                 |                                                 |
| \\      /  F ield         | OpenFOAM: The Open Source CFD Toolbox           |
|  \\    /   O peration     | Version:  v2012                                 |
|   \\  /    A nd           | Website:  www.openfoam.com                      |
|    \\/     M anipulation  |                                                 |
\*---------------------------------------------------------------------------*/
FoamFile
{
    version     2.0;
    format      ascii;
    class       volScalarField;
    location    "300";
    object      ddt0(k);
}
// * * * * * * * * * * * * * * * * * * * * * * * * * * * * * * * * * * * * * //

dimensions      [0 2 -3 0 0 0 0];


internalField   nonuniform List<scalar> 
27915
(
-1.26561e-07
-3.08742e-07
-0.000225626
-1.64167e-10
5.17189e-08
5.96237e-08
-3.14102e-08
-0.00036533
2.97512e-08
-2.13797e-05
1.92702e-07
0.0131767
0.00260824
-3.30697e-08
6.64331e-07
4.53015e-09
-0.00190162
2.68425e-09
1.1853e-06
-0.000362059
-0.00110336
-4.12964e-08
-0.0155601
1.55985e-08
4.46353e-09
2.31867e-09
0.000301276
5.20063e-08
-2.50351e-05
8.23449e-10
-9.20198e-09
7.30087e-07
1.42658e-08
5.398e-10
0.000206623
-4.98231e-10
1.59071e-08
2.52099e-09
-3.86837e-06
-3.7902e-08
4.50483e-07
1.63354e-08
-3.07595e-06
-4.38998e-09
0.00497221
-3.78874e-08
6.61598e-09
-1.37096e-06
-3.83033e-10
-2.47638e-08
-0.000391078
-7.43273e-07
0.00241374
2.16076e-09
4.03719e-09
7.60451e-09
-2.21969e-09
0.00331832
0.00312187
-8.58898e-09
-0.00152923
-6.16663e-07
0.0036272
-3.9749e-05
2.34433e-09
-3.41913e-06
0.013819
-0.000379917
0.000141024
-1.75185e-09
3.41454e-05
1.84239e-08
3.54686e-10
-0.00269418
5.18601e-05
0.000132661
-6.9482e-10
-5.51713e-09
0.00064579
-9.32567e-05
5.52425e-08
-6.1079e-08
3.04917e-08
-0.000423224
-0.00752772
0.00469967
2.57103e-09
-2.52055e-05
0.000533388
-1.44205e-05
1.34969e-08
-0.0025027
-2.99137e-08
-0.002368
-8.65473e-05
-0.0002582
-9.22978e-06
-0.000159867
-6.1407e-07
6.67724e-09
3.0941e-08
1.49003e-09
-0.000146034
-3.79624e-07
9.82492e-07
-5.69282e-08
-0.00117715
1.99219e-06
1.63299e-09
-0.000268686
0.00113662
4.07278e-07
-0.000549121
8.97561e-05
1.86419e-06
-1.97528e-07
-0.00366765
7.76584e-07
-3.45576e-07
1.33544e-09
8.55009e-09
-0.000306559
1.59956e-08
-3.9758e-08
2.14158e-08
0.0052955
0.0126292
-5.0822e-05
1.36215e-08
3.29668e-09
-7.19036e-07
0.000688409
-0.00275511
-0.000101299
0.00646668
1.66956e-06
0.00592964
2.26353e-09
2.5923e-08
-3.36864e-09
-2.46771e-09
5.39715e-09
9.22803e-09
-0.00100961
0.000862789
-0.000406681
8.85784e-05
-1.28716e-06
0.000174636
2.35485e-08
-0.00637819
2.39555e-09
-1.15035e-05
0.000180563
3.15005e-05
-0.000581794
-0.000817718
2.08039e-08
6.06675e-09
3.78187e-09
-1.30275e-05
9.75038e-05
-3.7587e-08
6.33867e-05
-0.000617591
8.67183e-09
-2.08792e-05
-0.00707719
2.82288e-05
9.34541e-09
1.40325e-06
-5.14536e-09
1.96581e-08
-1.54645e-06
-2.7346e-08
0.000147279
-0.000266776
-2.68369e-07
1.03e-08
-1.61329e-05
-0.000680109
-1.15761e-05
6.72936e-09
-0.000443069
1.35312e-06
0.000156159
1.23806e-08
3.63552e-09
-0.000155909
2.84141e-09
-0.00187994
4.67646e-07
9.47665e-05
-2.56881e-07
-2.67499e-08
8.34375e-09
0.000124793
0.000257771
1.49793e-08
4.00754e-08
0.00256084
-0.00958061
2.15835e-08
8.43174e-09
-2.34077e-05
0.000100676
-8.91162e-07
-1.08131e-05
-0.002336
3.85932e-08
3.49991e-08
0.00471847
1.92877e-08
4.42098e-10
2.10058e-08
4.99964e-10
-7.07673e-06
4.0226e-05
1.22282e-08
-4.89456e-08
2.29076e-08
1.16931e-06
4.52586e-09
2.62986e-09
0.000150626
6.65497e-05
-5.51815e-09
0.0124331
1.86565e-08
-6.52925e-09
0.000149268
1.24325e-05
0.0046425
-0.00828393
-0.00141417
-1.89608e-06
0.000833283
-1.11207e-09
7.00173e-09
-3.27818e-08
0.0101523
1.84264e-07
2.42766e-05
-0.0115785
1.33957e-08
1.15386e-08
-2.78699e-05
-1.98274e-05
1.30891e-06
6.44003e-05
6.69078e-09
-0.00063284
-4.09015e-08
-1.04537e-08
-4.09027e-08
-3.39729e-06
-1.01099e-07
-3.66078e-08
3.35405e-08
-0.0010093
2.03169e-05
-1.17542e-07
8.62634e-06
-6.32523e-06
1.46004e-05
1.43362e-05
-2.63344e-09
-0.00183985
-0.000648524
0.00114115
1.67029e-07
0.000182537
0.00018338
8.73394e-05
1.14731e-06
-2.24196e-09
-5.06574e-07
1.60935e-07
3.29767e-09
-2.97539e-08
1.76973e-08
6.21567e-09
-3.0443e-09
9.56862e-06
-0.000100542
-0.000308471
-0.000695612
0.0165253
1.67352e-09
-0.00143766
6.00746e-06
8.65013e-09
6.96235e-05
1.80263e-09
-4.44109e-07
-1.14114e-07
-0.00140718
0.00762314
-1.18982e-06
4.81079e-11
-0.000296538
-1.13515e-05
3.42379e-08
1.50836e-08
0.000703071
0.000819815
4.84182e-08
2.16258e-08
0.000642881
3.71517e-07
0.0160192
1.1417e-08
0.000235406
-2.96952e-08
0.0123918
1.89128e-08
5.65974e-09
-0.000468583
-7.74728e-05
0.000163942
9.56932e-06
-1.66453e-08
-1.38915e-09
2.68405e-08
1.00443e-05
-7.80306e-06
-0.000113706
-4.02786e-05
1.51225e-08
2.54885e-08
-3.96941e-09
1.26486e-05
2.61118e-08
3.43913e-08
0.00213745
-2.37713e-08
-2.72398e-06
-4.41689e-09
0.00258461
0.000104534
4.16551e-10
-0.000843742
-8.71322e-05
0.00220459
-2.27533e-08
2.95892e-07
1.13304e-08
0.0137564
-0.000315168
1.14655e-08
2.67712e-08
-3.3186e-08
0.00485093
1.08286e-05
-3.21703e-08
-2.36667e-05
-9.68708e-06
4.97715e-09
-2.9684e-08
0.000231737
-2.60637e-08
2.42717e-07
7.11338e-08
-7.21771e-10
3.13172e-07
-0.000178462
2.17809e-06
6.4174e-09
-5.76871e-09
-1.43044e-08
-1.97955e-05
-2.54621e-08
-4.79498e-07
2.58316e-09
-0.000583117
-2.78895e-08
-1.11443e-08
8.41037e-07
2.86311e-06
-3.8612e-08
1.21543e-07
1.08273e-06
-1.03417e-06
-0.00904291
-0.00111273
6.46401e-09
-0.00250414
1.04162e-06
2.13969e-09
-0.00116145
9.14266e-09
0.000187624
-0.000421376
-1.35222e-09
-4.2974e-05
-1.74354e-07
2.17767e-06
1.85257e-09
8.08692e-09
0.00382957
-3.18702e-08
-7.46227e-07
-0.000127366
4.88638e-10
-0.00351901
2.3491e-06
-1.73807e-06
-2.41664e-09
0.00592797
-9.38506e-07
-0.000189197
3.31397e-06
-9.77818e-10
8.34874e-09
0.013851
2.424e-08
1.58008e-06
3.57907e-07
-1.84842e-07
3.67125e-06
3.44495e-06
3.93916e-09
2.45759e-08
-0.00173063
0.000188716
5.97013e-07
8.57942e-09
0.000928943
-0.00128717
-9.94237e-08
-0.000602525
3.91021e-07
-3.05136e-06
2.41358e-08
2.00712e-08
-2.92448e-08
1.47678e-08
4.29185e-09
-0.000209408
1.08886e-06
0.00127951
-8.36144e-06
-6.15982e-07
-8.41235e-07
1.35922e-08
2.38104e-06
-0.00010967
2.3718e-09
-1.92418e-05
-3.08467e-08
0.00857918
-0.00091042
-2.48227e-09
5.55559e-09
0.00109456
-0.00116975
0.000367795
3.65841e-07
3.18342e-08
-9.75153e-05
-1.90449e-09
5.60064e-09
-0.00254657
1.43207e-06
2.68879e-05
-0.00104634
1.79358e-08
-4.88384e-09
-0.00173231
0.000716706
-4.77083e-09
2.53297e-08
-0.000354076
-1.74442e-08
3.6415e-05
1.02946e-06
-5.77264e-09
-4.73995e-09
-6.84664e-06
-1.64808e-06
-0.000675156
-3.8131e-07
-0.000658026
0.00605685
-0.000684035
-2.73107e-08
-8.67329e-07
-0.000186117
-1.80656e-05
2.44125e-08
-0.00020059
0.00096596
1.46518e-05
3.12944e-07
5.19687e-06
1.50638e-07
4.28721e-06
0.00108137
-0.0012428
-9.69475e-05
-4.37166e-09
3.34372e-07
-5.74869e-05
-0.00396111
0.000166303
-3.43702e-05
3.23749e-09
4.83588e-07
-8.588e-05
-0.00088648
1.20927e-08
-6.52142e-07
1.04992e-06
0.000178735
-9.04813e-05
-0.000935697
-0.000518151
1.45139e-08
-4.37922e-07
1.31288e-07
6.26653e-09
-2.25345e-09
-3.6841e-08
3.78421e-05
-1.38317e-08
0.00169096
9.57195e-10
-0.000582504
0.000550277
-0.000123421
5.60843e-09
0.00122794
0.000153051
-1.00225e-06
-1.09276e-06
8.26657e-07
-0.000293948
2.63908e-08
-1.3275e-07
1.48336e-08
-4.99767e-09
-2.20652e-05
-1.1875e-09
0.00313223
-8.92828e-08
0.000212075
-2.21685e-08
-0.000564287
3.48411e-09
-0.00283683
-7.69965e-09
-1.38475e-08
2.3587e-06
0.0159199
-4.39979e-06
1.83945e-05
-4.91105e-05
-0.00163865
1.57261e-05
5.958e-09
-0.000117731
1.09125e-05
-7.04757e-08
2.57394e-08
-1.28508e-09
-1.37911e-08
-0.000162168
1.25495e-08
-0.000525696
1.26629e-08
-2.5693e-07
0.000975838
-1.58778e-06
-0.00176613
8.45777e-09
-0.00195881
-0.000837632
0.00012357
0.000440873
2.46675e-08
1.33748e-08
-2.95265e-07
6.77738e-07
-0.000552929
0.00798474
7.50949e-09
-0.000126718
-1.05808e-09
1.48489e-08
6.64616e-06
1.89222e-09
1.10613e-08
0.00595158
7.45008e-07
-0.00821035
2.0808e-08
-0.000333651
-1.05336e-05
-2.82746e-08
2.9525e-09
-0.000673086
2.47053e-08
-4.11914e-09
8.7807e-09
0.00088665
-4.85051e-09
-0.000858868
-5.00627e-09
2.96238e-09
0.000116628
0.00303309
-3.90594e-09
-0.000183561
0.00204526
-5.00106e-08
1.3472e-08
-4.16182e-09
7.19357e-05
3.11929e-08
-0.00223913
4.65056e-09
1.31009e-08
2.74929e-09
3.27138e-07
2.04341e-08
-8.42508e-08
4.68627e-08
-2.84958e-06
4.32899e-09
-1.34053e-09
5.19959e-06
-0.00109701
9.71451e-07
-7.80411e-07
0.00101405
0.000208223
-9.93637e-05
-3.42759e-09
-0.000880011
-0.000578607
0.000174612
9.48174e-09
-0.000411814
1.3309e-08
1.97455e-08
-6.59129e-09
-0.00096183
2.5731e-10
-2.58692e-08
5.56496e-08
9.59957e-06
-1.81013e-05
-0.000151797
-0.0011186
-0.000604085
7.82212e-08
0.000635844
0.00394343
-0.00111992
-7.99063e-10
-1.82471e-09
-0.00281749
1.03888e-08
0.00397781
1.27011e-06
8.79948e-09
0.0015088
1.51455e-06
3.85593e-09
2.14881e-08
-1.69692e-09
3.2736e-08
2.22034e-08
1.62979e-09
1.38985e-09
3.27977e-09
1.11884e-08
0.0124448
7.50799e-09
-0.000122025
1.46942e-08
3.35466e-08
-0.000514896
-5.25509e-08
-1.13623e-07
-0.00208707
0.00209029
-4.66961e-10
2.19738e-08
3.25321e-09
1.17801e-06
-0.000191735
1.19881e-08
8.3215e-09
-1.5864e-07
-1.57432e-09
0.000474742
0.000793947
0.000144639
3.06782e-08
-0.000583368
0.00156324
-2.1573e-07
1.85211e-08
-1.1569e-05
3.38109e-08
-0.000630597
1.06819e-06
5.55127e-08
5.87222e-08
7.06541e-09
-1.60457e-09
4.97446e-09
7.08933e-07
-0.00195737
0.00812232
1.67694e-06
-6.21021e-09
-1.60823e-08
-0.00039877
2.04745e-05
9.02741e-09
0.00104819
-6.45832e-09
0.00288305
1.2765e-06
0.00946478
-8.28504e-09
-6.62125e-06
0.000165993
1.81104e-08
4.11261e-07
-0.00475666
6.26357e-09
7.16602e-07
-0.000121877
-4.1654e-08
-2.17993e-09
-0.000545976
-1.94665e-05
-5.7471e-09
3.93834e-09
0.00229037
-0.00616231
8.01152e-06
6.33396e-07
6.50847e-09
3.34465e-09
-0.00128433
-9.1156e-10
9.84573e-09
-4.37283e-08
5.17756e-09
1.47396e-08
2.23872e-08
0.00171456
4.24561e-07
0.000458095
-7.40998e-09
0.000310274
-4.29047e-08
0.000162206
2.2158e-08
0.0061623
2.13362e-08
-0.000258533
2.58007e-08
-0.000597276
-0.000138007
-0.0001013
8.30205e-07
4.15716e-06
0.000156419
-0.000274552
7.8138e-10
0.00219413
4.03583e-09
-7.24395e-09
-0.000344038
2.93391e-10
1.49034e-08
3.17243e-08
-1.82802e-09
0.00595993
7.4287e-09
4.80586e-09
2.24845e-08
-2.44522e-07
-1.21285e-08
-6.79874e-08
-8.48204e-10
-0.00124385
-0.000346251
-4.7165e-10
-4.94902e-09
-0.0026391
9.2323e-07
1.90434e-08
2.58653e-08
-6.0888e-09
-0.00479635
-0.000111383
4.12921e-08
-1.9464e-09
3.90907e-09
-2.02385e-09
0.00100777
9.86323e-09
1.4713e-06
-7.10612e-07
5.2036e-09
-6.8956e-08
-0.000174049
-0.00928944
-4.37227e-09
8.66001e-09
-0.000334974
0.000138
-0.00166469
9.5481e-07
1.0731e-08
0.000691925
-3.29526e-06
-0.000197767
1.20787e-08
1.74998e-07
4.45536e-07
8.96189e-07
-1.08188e-08
0.000406337
0.000168583
2.7225e-06
-7.00053e-08
0.00976854
1.91001e-07
6.33265e-08
1.00004e-08
0.011253
6.4052e-08
1.4337e-06
-0.000350322
-3.83401e-09
-0.000316747
-0.00880297
-0.000713675
0.000237089
0.000399795
4.05192e-08
2.39812e-11
4.2723e-07
-2.1477e-05
-0.00112621
6.7306e-11
-0.00942712
9.8427e-09
-3.30025e-09
-1.49393e-05
-1.5651e-08
7.41781e-07
1.49933e-09
0.000362696
5.34388e-06
5.2074e-09
-4.06325e-08
5.67121e-05
0.000401646
6.512e-06
0.000859084
-0.00729566
-0.000259114
5.47067e-07
3.15586e-09
-1.45795e-08
-3.1327e-09
-7.30618e-08
-0.00011862
0.000360458
-5.24491e-09
9.27963e-07
-1.23129e-08
0.00266585
0.000544355
-0.000151738
-6.38511e-09
-2.05644e-08
-2.21569e-08
1.11793e-08
2.57501e-09
-0.00668858
-5.11596e-05
-0.000477723
7.61421e-08
7.40427e-07
-0.000304256
-3.25573e-06
0.000924149
-1.04833e-08
3.20831e-09
-3.49589e-07
-3.09506e-09
1.97469e-07
-0.000122489
8.33627e-08
-1.15567e-08
-1.96932e-08
3.17303e-05
1.86428e-08
-9.91122e-09
3.19599e-09
0.00130778
1.18216e-08
-0.0109676
-3.4535e-08
0.0010716
8.71685e-07
3.09394e-08
4.46606e-09
0.000285006
-8.15837e-08
-0.000386744
-1.4294e-09
1.8818e-07
-1.35978e-07
9.19658e-06
0.00401489
5.86259e-08
-3.63567e-09
-2.51335e-09
8.50325e-06
1.87735e-08
-0.00452288
1.85168e-08
5.68006e-08
-3.41297e-08
0.000150123
0.000959591
0.000418689
1.31053e-09
0.00350971
9.38121e-09
4.32143e-12
9.92546e-09
1.2789e-07
-1.23357e-08
-8.57885e-05
2.04742e-07
-0.000695051
4.7446e-09
-3.52863e-08
6.32489e-09
6.58626e-09
1.24199e-08
-0.00404917
-2.64243e-09
6.06657e-09
-0.000353983
0.000178479
-3.28936e-08
-2.1982e-08
-1.85434e-08
0.000157995
2.12859e-07
0.000136271
-3.00022e-07
0.000745767
1.48848e-06
8.3858e-09
-1.19984e-08
1.89728e-06
0.000198965
6.21874e-06
2.40561e-09
0.00215325
0.00424533
-0.00181023
3.3346e-08
2.33738e-07
3.15949e-09
-1.328e-07
1.84342e-07
4.66161e-09
-0.000337659
-1.18198e-09
2.22593e-07
-0.00516382
1.52228e-09
1.85278e-08
-0.000336955
-0.00144857
0.000715061
-0.00063163
0.00160643
5.11134e-09
1.46853e-05
0.000169514
0.0013381
-8.40406e-06
1.94125e-05
-0.000405474
-0.000383418
0.000187
-2.16722e-08
-0.000321247
0.00455894
-5.85411e-09
2.80235e-08
5.40365e-08
-1.21487e-07
-5.00026e-05
2.11651e-07
-2.10754e-08
-9.945e-08
0.000767226
-2.15673e-09
-3.09373e-08
-4.50279e-06
3.36175e-06
6.97282e-09
-0.000325323
6.18877e-09
1.47687e-06
8.97737e-09
0.00271694
-4.50668e-07
-0.000125897
4.26605e-09
-4.89333e-07
7.49089e-09
-6.88953e-05
-2.03152e-08
1.90187e-08
-2.12582e-08
-1.19252e-08
3.87946e-08
-7.74766e-06
5.63389e-05
4.70207e-06
-0.000132913
1.20144e-08
0.00330281
0.00267194
9.28104e-10
-5.01028e-08
-0.000385535
-1.55677e-08
1.35759e-05
9.14295e-09
2.60564e-08
1.95107e-08
2.40873e-05
-0.000112659
8.34462e-09
2.02717e-08
0.00111861
-8.35585e-09
1.23241e-08
-3.69472e-09
6.89803e-07
1.77408e-05
2.03135e-07
0.000500941
4.39655e-09
5.38798e-09
4.54006e-09
-4.38684e-09
-4.03903e-09
1.47188e-08
2.55179e-08
-5.11876e-08
4.28879e-09
2.26923e-09
2.75216e-09
-3.94488e-08
2.51155e-08
-4.96793e-05
4.41152e-09
-8.23794e-05
-0.000664025
3.60888e-07
-7.11143e-07
-4.23759e-09
-0.000768031
-0.000444718
3.05865e-08
-4.00984e-08
1.7498e-07
-5.57052e-05
0.00410107
-1.09118e-08
-1.16393e-05
2.54462e-05
-2.1305e-08
0.00362244
3.81045e-08
-0.00531485
3.20279e-09
2.84995e-06
8.40771e-09
0.0041425
1.04851e-08
1.40968e-06
0.00392701
-4.9551e-09
-0.000244804
-1.1386e-06
6.05573e-06
-2.39785e-09
1.34797e-07
1.31192e-06
-0.000693723
1.79795e-06
4.84378e-09
0.00517067
8.94176e-08
-1.45495e-08
-1.6257e-08
5.00851e-06
-8.5898e-08
3.34733e-07
-2.96689e-09
0.000157317
4.0457e-07
2.73907e-07
8.61795e-06
0.00304376
-1.30457e-09
-0.00184903
1.27125e-08
-3.23385e-08
-1.39647e-08
-0.000636269
7.74422e-09
-1.75635e-08
-8.81718e-07
6.34376e-09
0.000997652
0.000195156
-5.35146e-09
1.1051e-08
2.20316e-08
-3.11631e-07
2.46633e-09
3.02524e-05
-4.45401e-09
-4.06477e-07
6.48619e-09
3.67937e-07
-4.83662e-09
-0.000540924
0.00145624
-0.00243584
-0.000216684
-0.000389529
-1.76691e-07
-4.35629e-05
0.000966507
-2.76697e-05
-6.85487e-08
1.6802e-05
-5.47121e-09
0.000614636
2.6719e-08
7.13901e-09
-3.27281e-07
2.03728e-08
5.49259e-08
-0.00288529
6.49845e-09
0.00282644
1.37191e-08
-0.000368367
0.00540948
1.70023e-08
-0.000154451
0.00119741
-3.75012e-08
2.6162e-08
-7.06447e-07
-3.50054e-10
-5.90428e-09
-0.000564751
1.23979e-05
0.0024993
-2.15633e-08
-0.000816805
2.31459e-08
0.00099006
0.00241883
0.000805805
0.00313237
-1.51273e-05
5.39533e-07
-0.000619271
-0.0122612
1.51612e-05
4.09378e-05
0.000269158
8.72641e-09
-1.36736e-08
0.00441066
7.26547e-06
-1.94682e-08
-1.3406e-08
2.07888e-08
-6.15084e-09
0.000757523
3.149e-07
0.000504434
0.00397004
1.22677e-08
1.00373e-07
-6.79305e-09
4.45125e-09
8.37006e-06
5.86048e-08
6.36471e-05
8.37688e-09
-4.40266e-09
-8.44971e-07
0.000896884
-0.00182261
4.86119e-07
-1.06647e-05
7.13789e-09
6.60868e-07
0.00201709
1.22517e-06
6.55968e-06
2.95758e-05
-3.10029e-06
1.78953e-06
0.00104284
-4.91682e-08
1.91269e-08
2.43826e-06
6.1297e-09
-3.31788e-09
3.79526e-06
-6.59426e-06
7.77482e-09
2.37476e-08
-6.02326e-09
-1.39267e-08
-0.000252158
7.97576e-08
-0.000151177
-0.00129243
1.59263e-07
9.19266e-07
0.00132509
-0.00104311
-1.7783e-08
1.74982e-07
2.81367e-07
-3.20262e-09
8.34199e-09
-0.00154741
1.70372e-07
9.05944e-09
0.00285079
1.21115e-08
0.00158041
-1.90611e-08
1.63572e-09
6.9235e-09
-8.5584e-07
0.00945976
1.46123e-08
-1.49524e-05
-0.00068877
1.17585e-08
6.50357e-07
-0.00124548
-0.000639885
-2.83828e-08
9.98794e-08
-1.56973e-05
-0.00147058
0.0129771
-2.06402e-07
3.32482e-09
-3.49641e-08
3.53131e-05
-0.000171972
-0.000131751
1.74851e-06
0.000446166
-4.95837e-09
-0.00206483
8.02872e-06
-8.36492e-08
-9.84131e-07
-0.000145377
1.02245e-08
0.00235226
2.23928e-07
-2.05584e-07
8.67795e-06
-0.00163833
9.80563e-09
-0.00126699
6.95514e-09
-0.000147879
3.12892e-07
0.000861952
3.69631e-09
-3.00831e-06
0.00174874
1.06714e-08
-9.1675e-08
-5.98069e-05
-0.000255469
0.0024258
-2.03588e-05
2.43565e-05
-7.63238e-09
7.98042e-07
-0.00108828
-2.18372e-07
2.6531e-09
-1.1922e-10
-0.0135608
-2.39258e-05
0.00368011
5.0994e-06
6.67548e-10
1.75966e-08
-8.97201e-09
-3.73323e-08
4.51014e-06
8.67748e-05
1.19646e-06
-3.44641e-08
5.02554e-09
-0.00133051
2.22021e-08
-1.14327e-05
0.000963742
-4.27723e-08
-2.27981e-07
-6.16679e-09
0.00160244
-8.53559e-08
-1.39225e-08
2.14276e-07
3.27841e-07
5.01432e-09
-0.000128959
1.23181e-05
8.88877e-09
-4.35619e-07
-0.000669237
5.20327e-07
0.00108357
1.88332e-07
-0.00057804
-0.000901293
5.28723e-09
-8.08001e-09
4.77277e-08
-0.000167668
-0.00164269
2.17549e-06
-0.000342641
0.000594506
-5.35998e-10
-1.35438e-08
3.77609e-08
2.04151e-08
-0.000355978
1.91987e-06
-1.17649e-07
-1.8779e-06
2.56566e-06
-7.58905e-07
1.18563e-08
2.54588e-07
0.000547921
1.11971e-08
-1.09328e-08
7.92244e-08
1.17553e-08
-5.59835e-08
-1.63558e-08
4.31346e-06
-2.03419e-10
0.00381564
6.56338e-07
-2.34867e-07
3.06517e-09
-7.62575e-07
-0.00126964
9.15251e-09
-7.73817e-05
5.35638e-06
1.91965e-05
2.53024e-06
0.00261163
-0.00189168
7.23196e-09
-0.00170674
-0.00129782
5.61929e-09
5.34254e-08
-0.0014526
6.0748e-07
0.000103338
-8.02124e-09
-1.93878e-08
1.42169e-05
9.37577e-08
2.2352e-06
-0.000101848
-7.54985e-07
0.00142934
-9.28359e-10
0.00969224
-0.000534164
5.50513e-07
0.000241828
1.37203e-05
0.00613131
4.20902e-06
-0.00131621
-7.12401e-08
0.00110572
5.24495e-05
8.82998e-06
-0.00654801
-0.000214659
0.000789903
-5.0725e-09
8.27936e-07
-4.277e-09
-0.0142184
7.78455e-07
0.00114475
-1.00177e-08
-0.00119128
-1.30768e-08
-1.79569e-08
-1.03255e-07
1.6389e-07
-9.79896e-08
7.83058e-09
-2.03591e-09
-3.2934e-08
2.85036e-05
-6.63746e-09
-0.000887133
1.01886e-07
-0.00181784
2.04137e-08
4.48811e-09
-0.00134959
-8.99969e-09
0.00017049
-1.61977e-06
8.1259e-08
0.00326504
-1.77509e-07
0.0045849
6.46757e-08
0.00644982
-1.26499e-07
-1.76655e-09
2.64545e-09
2.23089e-08
-0.00266314
-0.00016481
0.000999241
3.41993e-11
-5.72743e-09
0.00436099
-1.21656e-07
-0.00188429
7.94778e-09
2.82322e-07
9.12729e-09
1.8518e-06
7.98774e-05
-0.012057
1.31417e-08
9.18114e-08
-0.00155178
-1.64885e-08
0.000704831
-0.000112202
-6.29921e-07
-1.74274e-06
3.88635e-08
1.53901e-07
0.000394519
1.97676e-06
0.00368394
-2.56633e-06
2.34383e-07
-0.00545016
-0.00506266
-8.43076e-09
2.37166e-09
7.52926e-09
1.02481e-08
3.24489e-06
-0.00268638
-0.000672397
-4.94661e-09
-1.28517e-08
-4.22932e-08
-1.80101e-07
-1.82486e-08
-1.79918e-08
-1.33407e-05
8.5525e-07
1.75959e-09
-5.06422e-05
0.00115552
1.25309e-05
-0.00497544
-0.000194062
-4.75381e-09
-2.75796e-05
-0.00034122
-0.000546037
-0.00212949
2.21268e-08
2.5348e-05
-1.12739e-05
1.6095e-08
0.004785
-0.00056045
-6.0798e-09
-0.000122655
8.82654e-09
-2.10942e-09
0.000393973
-5.02503e-07
-0.00050074
-0.00132641
8.04316e-09
-0.000372214
4.26353e-07
-5.92955e-07
-0.00154162
-0.00330064
-1.20279e-08
-5.42593e-09
-2.61905e-09
1.19252e-08
-3.95108e-09
-0.000152188
-8.56581e-08
-1.23825e-08
1.26448e-05
0.00637257
6.72308e-05
-3.13253e-06
9.251e-08
0.000568913
-3.06696e-05
-0.000548047
1.32398e-08
-9.00682e-09
4.95576e-09
5.63458e-09
-2.32809e-05
1.76914e-06
-5.10772e-09
-1.46863e-07
0.00101854
-1.78216e-08
-1.99748e-08
2.83485e-08
2.89181e-09
0.00822437
-0.0152727
-3.84931e-09
2.03144e-08
1.25104e-08
3.84542e-08
-2.32099e-08
-1.94043e-09
-2.22749e-08
-1.8586e-08
0.000820408
7.66132e-09
7.08101e-05
-8.48277e-09
0.00425612
-1.21025e-08
-0.00370764
-0.00044607
0.00349147
0.000596498
0.00502492
-3.39276e-07
0.00123944
-0.00107451
7.7541e-07
-0.000250399
1.04288e-06
0.00012725
0.000315628
-0.00116375
7.02934e-09
0.000761556
-1.89798e-09
2.35378e-05
0.000454712
9.9762e-07
-9.06003e-08
1.5016e-08
-5.48276e-08
6.73795e-08
-0.00914666
-0.000270492
3.77987e-08
0.00376331
-1.15537e-05
-0.000151393
2.74446e-09
-1.8469e-06
4.73484e-07
4.03594e-06
-8.38404e-05
-0.000705673
-1.22856e-05
-2.16757e-08
-1.40175e-06
-1.57702e-05
6.32532e-05
7.21305e-09
1.69396e-08
1.16578e-08
0.00183514
0.000566333
7.20903e-09
-5.49543e-09
1.65945e-07
-1.49372e-09
-0.0032403
0.00104428
2.02371e-06
-0.0163805
9.91133e-09
0.000101878
-0.0296387
-0.00137416
-6.42041e-09
-1.01906e-07
1.22504e-05
0.00719405
2.78448e-09
0.00419562
0.00302079
7.45476e-10
-4.68487e-07
0.00612864
-2.06534e-06
-0.000515547
-0.000707834
3.0772e-08
-2.3848e-09
-5.10454e-09
1.58972e-08
-1.86766e-09
-7.63367e-09
-9.06861e-07
-2.538e-08
-5.24926e-09
1.31037e-08
-4.53204e-08
2.12115e-08
0.000137604
1.68989e-08
-0.000642859
-1.79271e-07
-2.97082e-06
8.07445e-09
-6.33382e-09
0.00144149
-7.11609e-07
-3.73453e-08
2.10805e-07
1.02333e-07
-1.69916e-10
0.00028098
0.00339977
0.000171021
0.000460892
-0.0042245
0.000804828
-0.00106479
-7.39979e-06
2.95939e-07
-1.47987e-08
5.57239e-09
-4.10855e-05
5.86182e-09
1.84914e-08
2.25447e-08
2.00094e-08
-3.84672e-09
-2.85864e-08
-2.33647e-08
-1.96331e-07
-0.00183478
1.01026e-06
2.58482e-09
3.8997e-09
-4.55881e-09
-0.00176018
-1.63352e-06
-3.15619e-08
6.42172e-06
4.80204e-07
-0.00122173
4.67102e-09
2.21134e-06
-6.27253e-08
2.40255e-08
1.25177e-08
4.40805e-05
0.000118647
-1.74455e-09
2.55471e-09
-4.1185e-08
-0.00149088
-1.91412e-08
-9.51626e-07
1.21562e-07
3.2223e-06
0.00650247
1.12064e-06
2.31957e-07
4.39585e-07
-6.01062e-09
0.00175816
-1.59327e-08
0.000126001
0.000108708
-0.0019334
0.00625294
-0.000693768
-4.9047e-09
6.67249e-08
-3.37626e-08
-0.000801866
1.40696e-08
-0.00133745
4.10803e-07
-3.78113e-09
0.000907788
4.3626e-05
1.03647e-09
-4.84103e-10
2.44534e-06
-0.000427188
-0.00217485
6.7395e-07
-0.000493013
1.00182e-08
-6.50877e-05
6.33901e-06
4.08946e-07
2.21067e-07
0.002481
-2.15213e-08
-0.00141617
1.85771e-09
-0.000137891
-0.00185862
2.29746e-05
-1.12584e-09
1.56266e-06
4.94453e-08
-3.19542e-09
8.28777e-09
-8.07074e-07
3.90622e-08
-0.000222639
-6.35421e-07
4.09239e-08
9.2648e-10
-0.000775136
-1.24206e-08
0.00366293
0.0071778
-6.52958e-06
-0.0015044
3.22855e-06
-7.79543e-07
3.1008e-07
-8.41263e-07
-1.05312e-08
-0.00129672
0.000539657
0.00195401
-3.59081e-05
-0.000117646
-6.99397e-07
-0.0078841
5.48766e-09
-0.00206069
0.00113021
-0.00147778
3.70745e-09
0.00502962
0.000418085
0.000329819
-1.45867e-07
1.80164e-07
0.00372303
-8.71774e-09
-0.000448934
1.00878e-07
-2.29676e-06
1.1542e-08
1.02175e-07
-5.81147e-09
-1.70585e-09
5.39202e-09
7.51812e-08
1.39636e-09
-0.00152777
1.25533e-09
8.10628e-09
-0.00316431
-6.71595e-09
8.86844e-08
-3.69083e-09
-6.06676e-08
-0.00181682
-5.31502e-07
3.8304e-07
1.01729e-08
-2.33671e-09
-0.000735924
-1.01069e-10
-1.26685e-08
1.88014e-07
-0.00050766
-6.5086e-09
5.21352e-08
-1.08673e-08
6.96978e-08
7.48889e-08
1.37703e-08
-0.000533735
-1.26369e-07
-0.000357059
2.26575e-09
1.01357e-06
2.26192e-09
-1.77671e-05
-0.000114565
4.37676e-09
0.00641844
3.19436e-05
7.88654e-09
-0.0003703
2.14008e-08
-5.91704e-09
3.56266e-07
-1.91891e-07
5.04165e-09
-5.29972e-09
5.99037e-07
-9.3494e-09
-2.46069e-07
-1.61394e-08
8.16395e-07
5.63437e-09
-8.59652e-07
9.78723e-10
-0.0020186
2.32138e-06
6.31536e-10
-0.000278627
5.08684e-09
1.65441e-09
8.36464e-06
-9.59666e-06
0.00197075
5.31975e-07
0.00210153
-0.000606152
1.04747e-07
2.48367e-08
1.06938e-06
-0.000765189
3.28652e-08
6.66403e-06
4.58425e-07
-3.12992e-08
0.00966954
4.95352e-06
-8.17212e-06
4.64015e-07
-0.000370889
5.22959e-09
-1.20998e-05
3.4598e-07
1.32176e-05
0.00872822
0.00313815
-2.82538e-08
-1.80633e-08
-0.000313484
-3.77183e-09
-8.70208e-06
0.00424914
8.5132e-09
2.15758e-06
1.71142e-05
-5.38894e-08
5.98986e-05
-7.20491e-09
0.00545396
0.0020035
-2.05198e-09
-1.24984e-05
-2.03508e-08
-2.48853e-09
8.78233e-08
0.000108672
-3.44734e-11
1.07268e-09
-0.00150385
-6.67369e-09
-1.53463e-05
-0.000479357
-6.74211e-09
0.000221573
3.61982e-09
-2.85652e-07
4.34691e-09
4.62319e-09
1.11634e-05
4.29294e-08
2.57421e-06
1.21016e-09
1.43292e-08
3.2239e-07
-0.00057401
1.74131e-06
-0.000108925
-0.00114564
0.000494213
-1.95896e-08
-1.12408e-08
-8.73472e-06
1.00407e-07
-1.52471e-08
0.00159007
-7.92381e-07
1.39338e-08
-1.73474e-07
6.26283e-09
-6.05902e-06
-2.85467e-07
9.12167e-09
-0.00074331
-1.53461e-05
-1.12714e-08
5.73409e-09
0.00365763
-0.00495426
2.69841e-08
6.65501e-09
-1.39301e-05
1.18149e-06
-0.00206423
-3.74408e-10
-0.00465145
1.76481e-07
3.20066e-06
-0.00048372
0.00382228
6.64006e-09
0.000432714
-1.56461e-08
-0.000942736
-8.26115e-09
0.00111108
-0.000639758
1.51399e-08
-0.000478007
3.77276e-07
6.6881e-09
4.63943e-06
0.000176356
-0.0126903
0.000902686
-7.56181e-08
8.26278e-06
8.64775e-06
-5.03069e-06
9.05199e-08
-2.87873e-07
-2.77107e-07
-0.000498749
-0.000113493
-0.00460354
-0.000255403
-3.93036e-09
6.81955e-08
-0.0147917
3.06066e-09
3.6127e-09
1.79117e-07
-0.000410041
-5.00307e-06
0.00313088
-0.0284005
-0.000989858
-1.19124e-07
-0.00259331
2.62349e-07
8.60993e-07
0.00115405
0.00118743
0.00196127
1.95788e-06
-2.54541e-10
-6.95281e-05
2.99835e-09
0.00135582
-4.37904e-08
1.35121e-09
6.01704e-07
-0.00112823
-0.00156152
0.000124009
9.67488e-08
-0.000593667
-1.15887e-08
5.29961e-09
-5.67378e-09
7.81736e-07
-0.0100849
-1.59635e-05
-0.000330866
-0.0018798
-2.87913e-05
-0.00138324
3.66178e-10
-0.000209174
1.75037e-09
-9.5723e-05
0.000220892
-8.03811e-08
1.78632e-07
3.80466e-05
-8.30815e-07
-1.0041e-08
-1.12206e-08
0.000155243
1.1372e-10
-6.87581e-08
2.19071e-06
-0.000487968
-6.87205e-10
3.51915e-07
-2.19163e-06
0.00195408
-0.000240645
-1.33305e-08
2.73424e-08
0.000121002
-1.50713e-09
-0.00100649
-1.49977e-09
0.000302757
-4.70189e-07
5.00263e-08
2.61276e-08
4.71263e-09
-0.000410793
4.40883e-08
1.23856e-07
-5.28153e-07
-1.77359e-05
4.94965e-06
-0.00745282
0.00231679
-1.99108e-08
-0.0022784
-3.00003e-09
5.0349e-08
-1.41638e-07
0.00162331
2.40157e-08
5.30073e-08
-0.00180664
1.48917e-06
-0.000417387
-8.23146e-08
-0.0134838
-0.00768547
-1.79382e-09
0.000172921
9.69535e-07
-9.81338e-05
0.000632489
-0.000265126
6.12224e-09
-0.000411283
-0.0237405
0.0072316
0.000543403
0.00311133
-7.91841e-08
0.00365066
2.37863e-05
0.00145239
7.62911e-07
9.23018e-10
-3.70893e-08
3.79115e-06
-3.41746e-09
0.00822784
-1.72956e-07
1.05407e-11
-2.62827e-09
6.65199e-06
0.000219953
2.47981e-07
-0.00163545
6.87512e-07
-0.0017482
0.00114485
-0.0106173
-2.86871e-07
0.000423347
4.99256e-09
0.00147235
8.0457e-05
0.000105681
3.74765e-09
1.27705e-06
2.08823e-09
0.00356901
1.88873e-06
-3.13801e-05
4.5868e-06
-0.001368
-8.10624e-07
-0.00388307
-1.93625e-08
0.0114859
-0.0020346
2.09502e-09
2.54451e-07
-0.0059103
-1.27079e-07
-2.77749e-08
5.17522e-07
0.000686555
1.38721e-09
9.47788e-09
-2.87545e-09
-0.000158237
5.96606e-08
6.89188e-07
1.67133e-05
1.89998e-06
1.45345e-06
-4.58032e-09
-3.22772e-08
-8.90281e-09
1.23726e-07
0.000616588
3.0554e-09
-2.47804e-09
-1.38924e-08
4.20872e-07
4.66976e-10
-0.00176859
2.64056e-07
0.00114401
-0.000429652
-7.94252e-09
-1.77768e-06
-1.9693e-05
2.00379e-08
-3.73279e-08
1.10799e-06
0.00205815
2.16418e-08
-0.000156081
0.00989763
0.000410731
0.00245834
-7.21985e-05
7.54512e-07
-2.92353e-08
0.00116466
-4.61003e-08
1.27632e-06
-3.89473e-08
0.00014653
4.04102e-08
-0.00860999
5.46564e-10
0.00130084
-4.79014e-08
-0.0111695
7.4204e-09
2.43079e-08
1.13349e-05
-9.77554e-09
-4.42494e-09
2.15027e-08
-1.88793e-05
-4.96263e-08
0.000525023
-6.63871e-09
-0.000104932
0.00876937
1.9607e-05
0.00375898
1.15148e-08
1.80546e-08
-0.00163236
-0.00198847
2.40394e-08
-8.89915e-08
1.27846e-06
1.27025e-06
4.01648e-09
0.00665472
4.12142e-06
1.74579e-08
0.00854608
-0.000149429
-3.26754e-07
0.000225232
4.81826e-08
0.000198164
-0.0103649
-2.43481e-08
-2.60248e-09
0.000936427
5.36786e-09
0.0038556
1.35675e-06
-0.000486626
0.00619319
2.11876e-08
8.92124e-06
6.6346e-09
1.58277e-06
-1.50789e-08
4.73857e-08
-0.000190542
5.87828e-09
0.00975769
-5.3554e-09
5.7143e-08
1.55756e-05
-1.16733e-08
-0.00127104
-8.14699e-05
0.00365353
2.00695e-05
0.00244532
2.32964e-08
3.76755e-07
-0.000603172
-0.00057975
3.19274e-09
-2.98867e-05
-1.47178e-08
-4.39834e-08
0.00428725
0.000432197
1.69033e-08
2.34615e-07
-1.10394e-07
-8.93609e-09
0.000173157
7.62388e-09
-0.00201823
2.25953e-07
-0.00847462
5.91227e-07
2.83881e-06
2.42381e-09
0.000815026
-0.000683659
-1.47687e-05
5.86298e-07
0.00352266
-1.40562e-09
-0.00114127
0.00705049
-5.68743e-08
3.58355e-06
4.93906e-06
6.25419e-08
-7.15489e-08
3.31667e-07
-6.55059e-05
-0.00558651
-0.00215523
7.81241e-10
6.13453e-05
3.34292e-08
0.000103623
7.03097e-07
3.05817e-07
-0.000943656
-2.49562e-08
0.00134094
5.97991e-07
-1.38458e-08
-0.000953698
-0.00152521
0.000100676
1.00119e-05
-3.73372e-08
1.81778e-06
0.000390388
-8.90431e-07
0.000304458
0.00740496
-0.000246692
0.0011399
2.35963e-08
1.93621e-09
-9.27151e-09
-2.20878e-08
6.91935e-07
5.19709e-09
1.48776e-08
4.65843e-08
-9.80912e-07
0.00603457
-0.0136619
7.67937e-09
2.92855e-05
-4.86345e-06
-0.000861787
-2.00496e-09
-9.61326e-05
-8.26285e-07
-0.0122472
0.00263375
-4.14602e-09
-0.00427592
-0.000806678
-2.09972e-08
1.99634e-08
-0.00150789
-0.000471948
0.000680467
1.54272e-05
4.18484e-09
-4.38219e-07
1.12746e-05
-4.87758e-07
3.81228e-08
0.00157365
-4.71733e-08
-5.3706e-06
0.000438525
0.00184978
3.09579e-08
-0.000833795
-6.15731e-07
4.85087e-08
-8.78683e-05
2.93744e-10
-2.12783e-09
-3.76523e-08
0.000720157
-0.000258705
1.41962e-05
-5.46109e-08
-0.000886809
-4.67198e-10
0.000196325
0.000292505
-2.08513e-08
5.55929e-08
1.23096e-07
-3.50752e-05
-0.00237322
-0.000465937
-1.85039e-07
0.00593361
-0.00963059