/*--------------------------------*- C++ -*----------------------------------*\
| =========                 |                                                 |
| \\      /  F ield         | OpenFOAM: The Open Source CFD Toolbox           |
|  \\    /   O peration     | Version:  v2012                                 |
|   \\  /    A nd           | Website:  www.openfoam.com                      |
|    \\/     M anipulation  |                                                 |
\*---------------------------------------------------------------------------*/
FoamFile
{
    version     2.0;
    format      ascii;
    class       volScalarField;
    location    "300";
    object      ddt0(omega);
}
// * * * * * * * * * * * * * * * * * * * * * * * * * * * * * * * * * * * * * //

dimensions      [0 0 -2 0 0 0 0];


internalField   nonuniform List<scalar> 
27915
(
-2.72439e-05
0.000285829
0.000846734
5.81093e-08
4.97826e-06
-8.61832e-06
-2.14328e-06
-0.00934065
2.37275e-06
0.0520532
-2.38095e-05
0.0022029
-0.0145676
-2.29116e-06
1.41915e-05
3.30141e-07
-0.40353
1.97995e-07
-0.000176999
-0.00919863
-0.0325362
-4.37951e-06
0.160054
1.28443e-06
3.04218e-07
1.69816e-07
-0.0742928
4.49542e-06
-0.0251573
1.9085e-06
-6.63759e-07
4.99995e-05
1.07858e-06
6.88393e-08
0.032657
-2.71622e-09
1.93948e-06
1.92177e-07
0.000898976
-3.40659e-06
3.33151e-05
1.98062e-06
-0.0970321
-3.43437e-07
0.0250651
-3.61064e-06
5.44238e-07
-0.0002339
6.07955e-09
-2.4132e-06
-0.00608331
-0.00218992
-0.0489617
-9.28098e-07
1.30333e-05
5.75933e-07
-1.64574e-07
0.0325012
0.131501
-6.85515e-07
-0.915349
-7.24676e-05
-0.0378785
-0.0979718
2.41266e-08
0.00113685
0.164704
-0.00587008
0.0297358
-7.99624e-08
0.00861618
1.62388e-06
4.24261e-08
-0.119702
0.0464282
0.0297053
2.35924e-06
-3.41368e-07
0.712979
-0.012155
-6.69326e-06
-5.63676e-06
3.09513e-06
-0.0212186
0.567708
-0.0243963
2.07525e-07
-0.105658
-0.143341
-0.0051539
1.79556e-07
-0.111246
-2.40345e-06
-0.141555
-0.0229408
0.00559747
-0.00495697
0.0531203
-6.72977e-05
5.66947e-07
3.50638e-05
1.32312e-07
0.0517035
-2.42314e-05
8.10552e-05
-5.17661e-06
-0.0383822
0.000119136
1.3739e-07
0.03171
0.025673
3.22041e-05
-0.179681
0.0341715
1.38457e-05
-0.00172174
-0.00845995
4.33324e-05
-2.35028e-05
3.27842e-07
2.23825e-07
-0.100706
1.16336e-06
-3.25326e-06
2.37095e-06
-0.074637
0.331953
0.0195194
1.05282e-06
4.75226e-07
-8.14662e-05
-0.0576249
-0.151009
-0.158453
0.231752
0.00131327
0.00012172
1.85138e-07
2.57089e-06
-1.08845e-06
-7.56385e-07
1.1843e-05
9.45811e-07
-0.0796012
0.0149238
-0.00312417
-0.0293301
-0.000228476
0.0385657
4.31644e-07
-0.0835569
2.04153e-07
0.0262864
-0.0958857
-0.0803442
-0.00435493
0.0158497
2.04885e-06
8.69244e-07
3.36924e-09
0.00682779
0.258893
-2.99713e-06
0.0240798
-0.0403168
6.42594e-07
0.0145996
-0.104361
0.0496094
1.43266e-06
0.000204703
-6.14669e-07
2.27787e-06
-0.000233889
-1.91285e-06
-0.85538
0.0298642
-1.70931e-05
1.35854e-06
0.0389775
-0.227009
-0.0086372
9.18586e-07
0.000561427
0.00127832
0.0505313
1.48928e-06
5.25246e-07
-0.0157965
2.62853e-07
0.00458757
2.99465e-05
0.130526
-1.92524e-05
-1.89268e-06
6.60109e-07
0.0427532
0.0453028
1.70402e-06
-1.83996e-06
-0.114782
-0.10806
2.14905e-06
1.25615e-06
-0.495853
-0.0306626
-0.000307765
0.000160974
0.239167
3.05962e-06
-2.47031e-06
0.156414
2.31261e-06
9.98105e-08
2.58686e-06
-4.57109e-07
-0.000171591
-0.0731375
1.34804e-06
-4.04409e-06
1.88079e-06
0.000918877
1.29198e-05
4.41955e-07
0.0419824
0.0248739
-4.1912e-07
-0.0458498
2.14375e-06
-6.3059e-07
-0.0530087
0.00305404
0.139979
-0.11392
-0.0344429
-0.00016165
0.0209358
-6.40396e-07
1.06581e-06
-2.49134e-06
-0.0308386
1.70695e-05
0.00631616
-0.160399
1.10296e-06
1.37951e-06
-0.0941542
-0.0491568
9.80732e-05
0.135185
1.4798e-05
0.00439227
-2.89964e-06
-7.96796e-07
-3.60308e-06
-0.00558138
-2.61768e-05
-2.58227e-06
-9.90587e-05
-0.0522392
0.0142253
0.000384904
0.0016387
0.00435764
0.000917077
-0.0176934
-1.99238e-07
0.0110632
0.00656451
0.00226357
3.00034e-05
0.0278567
0.309064
0.327752
9.3678e-05
-1.6574e-07
-3.12145e-05
1.51457e-05
1.84645e-07
-2.26665e-06
1.81183e-06
5.82601e-07
-2.71322e-07
0.00240798
-0.0591257
0.0297794
-0.0980867
0.435309
2.9173e-06
0.0304757
0.00930486
7.2752e-07
0.700905
5.48606e-08
-2.85272e-05
0.000429837
-0.0904565
-0.0340853
-0.000244771
2.0059e-07
-0.175032
-0.000804459
2.94041e-06
1.7033e-06
-0.0322614
0.275166
-4.01439e-06
1.91057e-06
0.361982
6.80424e-05
-0.00807298
9.64645e-07
0.0735395
-1.97018e-06
-0.0354446
2.24051e-06
4.47836e-07
-0.0181222
0.0258105
-0.0567816
-0.000123019
-1.07602e-06
-1.13255e-07
2.33076e-06
0.00221857
-0.000552487
-0.185285
-0.0233647
1.14402e-06
1.93737e-06
-3.05106e-07
0.00179665
2.42573e-06
2.87926e-06
0.0403628
-1.58692e-06
9.40638e-05
-2.46437e-07
0.0590378
0.264519
2.6023e-06
-0.266021
0.0296679
0.334721
-1.66462e-06
6.15354e-05
9.28382e-07
0.315336
0.0325708
9.62869e-07
2.32792e-06
-2.51851e-06
-0.0827328
0.00210273
-5.36975e-05
-0.0770009
0.00214982
3.84489e-07
-2.36418e-06
0.017328
0.000107886
3.94002e-05
6.72993e-06
1.0992e-07
-8.85207e-06
-1.25798
0.000178064
4.84175e-07
-4.28248e-07
-1.01746e-06
-0.0190439
-1.70436e-06
9.49134e-05
3.67512e-08
0.0175957
-1.9965e-06
-7.88922e-07
0.000444083
0.000264297
-2.56718e-06
-2.49803e-06
0.000330652
-8.40342e-05
0.0500492
0.00446687
-9.9143e-05
-0.12771
0.000172269
-6.31622e-07
-0.0954086
6.96458e-07
-0.104301
0.0341974
-1.11541e-07
0.0540478
0.000274592
0.00018057
8.63299e-07
9.86784e-07
0.152505
-2.53776e-06
-8.2256e-05
-0.020605
1.31701e-06
-0.326071
0.000411507
-0.00186633
-1.77843e-07
0.218105
-0.000242085
-0.0127101
0.000270674
-5.49307e-08
1.14617e-06
-0.00102502
2.16267e-06
6.26696e-05
1.55977e-05
0.000309477
0.00058939
0.000559178
4.14583e-07
3.11333e-05
0.0159756
-1.49775
3.02578e-05
6.95203e-07
0.239404
0.036567
-1.04349e-05
0.0280869
4.4608e-06
0.000780347
1.346e-06
1.49785e-06
-2.20038e-06
1.11326e-06
2.22107e-07
-0.00947723
0.000309468
0.00600528
-0.00395533
-0.000702893
-0.000183829
1.59349e-06
0.000278956
-0.0178262
1.24403e-06
-0.100618
-1.9504e-06
0.039844
0.00624657
-1.98969e-07
5.15345e-07
0.0297746
-0.0315052
0.0547978
-2.34453e-05
3.1194e-05
-0.0205433
-1.35939e-07
1.57247e-06
-0.497513
9.05583e-05
-0.0312417
-0.0210082
2.18661e-06
-3.74174e-07
-0.561552
0.112022
-3.53967e-07
3.02347e-05
-0.104385
-1.40482e-06
0.0160353
0.000156707
-4.33952e-07
-3.64374e-07
-0.0014758
-8.19032e-05
-0.0143197
-8.60026e-06
0.0232884
0.516441
-0.475434
-1.18196e-06
-8.79794e-05
-0.0700433
-0.0108448
1.89411e-06
-0.0114618
-0.00100751
-0.00223095
3.44714e-05
-0.0172352
-2.88061e-05
0.000795202
0.0341899
0.0208701
-0.0199154
-3.43072e-07
2.00962e-05
-0.501551
0.0528217
-2.61509
-0.022391
2.09697e-07
7.87024e-05
0.0454968
-0.0694955
8.9061e-07
-0.000382595
0.000368017
0.0256345
0.0295873
-0.0398564
-0.00015771
1.01497e-06
0.000125103
4.68654e-06
3.58285e-07
-1.90072e-07
-3.00198e-06
-0.0807268
-8.94966e-07
0.149535
-8.06082e-07
0.0243855
-0.0122418
-0.0183212
5.21598e-07
0.0610099
-0.00281722
-0.00099115
-0.000221476
-0.0167996
0.0140955
3.22923e-06
0.000287636
1.1281e-06
-3.67203e-07
-0.0029919
4.00792e-08
0.0189583
-7.27532e-06
0.00606974
-1.88696e-06
0.0277418
3.82587e-07
-0.127875
-5.57975e-07
-2.58028e-06
0.00021748
0.0388738
-0.000852205
0.00410808
-0.0599456
0.0200769
0.0148622
4.46984e-07
0.0330265
0.0494238
0.00054425
4.80959e-06
5.33664e-08
-2.39719e-06
-0.434491
8.75434e-07
0.028686
1.23116e-06
0.000447888
0.0680856
-8.74521e-05
0.0155111
6.18009e-07
-0.113028
-0.216295
0.0799327
0.0278937
1.82184e-06
1.41585e-06
0.000348261
4.61561e-05
0.0249339
0.480433
1.36585e-06
-0.0171355
-6.67128e-08
1.48516e-06
0.0166597
3.71267e-07
8.61513e-07
0.0137545
5.25046e-05
0.577368
1.55295e-06
-0.0288181
-0.0045213
-2.13353e-06
2.54483e-07
0.0192783
2.07833e-06
-3.05122e-07
6.3253e-07
0.0122929
-3.79842e-07
-0.0463745
-1.39549e-06
9.75803e-09
-0.0370537
0.371324
-3.06273e-07
-0.0168513
0.341678
-0.03217
1.12923e-06
-3.04781e-07
-1.04644
3.50019e-05
-0.131542
3.87221e-07
3.19838e-06
2.39823e-07
-8.19258e-06
1.76974e-06
-4.20115e-06
-8.59476e-06
-0.000195905
2.91988e-07
4.60656e-08
0.0114438
-0.0388524
0.0168577
-0.000122846
0.0571647
-0.13813
0.0363912
-2.43801e-07
0.00428649
-0.121633
-0.0482467
7.31864e-07
-0.0214083
1.22332e-06
1.42131e-06
-5.06634e-07
-0.0230592
-4.18853e-07
-1.82635e-06
5.87243e-05
0.0143617
0.00165346
-0.177839
0.0860725
0.0271501
6.77452e-06
-0.0675919
0.105323
0.853583
-3.31086e-08
1.49811e-06
-0.14504
7.60152e-07
0.444673
-0.000108679
1.28369e-06
-0.00522682
-9.18305e-05
1.2438e-05
-1.56734e-05
-1.38848e-07
3.48836e-06
1.51878e-06
4.04091e-08
1.47248e-07
4.28358e-07
8.28235e-07
0.0465247
5.70926e-07
0.0461226
3.43704e-06
-1.49517e-05
-0.129416
-4.68682e-06
-1.00709e-05
-0.768845
-0.00494255
-6.48621e-09
1.62284e-06
7.52613e-07
3.02125e-05
-0.105993
8.56739e-07
6.41108e-07
0.00165635
-1.3168e-07
-0.42067
0.010985
0.0372139
2.57473e-06
-0.566051
-0.00207592
7.46069e-06
2.18412e-06
0.00863847
2.92816e-06
0.00816085
9.05799e-05
-4.03086e-06
6.34406e-05
5.32343e-07
6.63674e-07
3.90606e-07
0.000241374
-0.00100443
0.0281055
0.000308039
-4.45988e-07
-1.4767e-06
0.0565624
0.0238061
7.41966e-07
-0.7927
-4.7094e-07
-0.0514518
-0.000507572
0.629727
2.83177e-06
-0.0032562
-0.0453976
1.99205e-06
0.000335993
-0.269599
4.83185e-07
0.00023087
0.0374408
-3.88756e-06
-4.55075e-07
-0.0073093
0.0124687
1.40703e-06
3.11546e-07
0.016098
-0.198299
0.0200753
0.000479112
1.16746e-05
2.35704e-07
0.0131619
-1.62373e-07
7.90553e-07
-3.91134e-06
4.45478e-07
1.1852e-06
-2.98038e-06
0.0269115
-1.72283e-05
0.0860443
-5.65105e-07
0.0237921
-3.8752e-06
-0.0196467
2.31173e-06
-0.0450867
1.75602e-06
0.00743862
2.89577e-05
-0.00430375
-0.101623
0.153091
-0.00166527
0.000592853
0.0265487
-0.0538002
7.12551e-08
-0.00895487
3.69511e-07
3.40568e-06
-0.234242
2.88645e-08
1.11946e-06
-1.93914e-07
-6.36276e-08
-0.0742152
5.78083e-07
7.44326e-07
2.30474e-05
-0.000170862
-8.93187e-07
5.82544e-05
2.22162e-07
0.0382692
-0.0112402
3.18663e-10
-3.70811e-07
0.0362504
0.000769319
1.66408e-06
3.06495e-05
-4.65688e-07
0.0414813
0.143097
-8.19809e-06
-3.05869e-07
3.64877e-07
-4.03993e-06
0.195882
7.37467e-07
0.00125002
-0.000175194
5.39332e-07
-6.41105e-06
-0.015467
0.0771722
-3.23836e-07
7.28074e-07
0.0296728
0.0349887
-0.0967193
0.000404475
8.70614e-07
0.822104
0.00012093
-0.541077
8.79988e-07
0.000185438
-6.18725e-05
7.34287e-05
-7.91891e-07
-0.303929
0.0227975
0.000515812
-1.97003e-06
0.180609
0.000200919
-6.14234e-06
7.40785e-07
0.508273
1.76143e-05
-3.8697e-05
-0.102235
1.69041e-06
0.026565
0.0120149
-0.197391
0.158963
0.244144
4.68365e-06
-4.88143e-08
4.82416e-05
0.0415875
0.024751
1.05029e-08
-2.1533
1.21858e-06
2.069e-06
0.012661
-1.12189e-06
0.000616503
1.19525e-07
-0.285895
0.00109488
3.80177e-07
-3.54702e-06
-0.0262457
0.197053
0.000926593
0.220713
-0.260327
-0.296514
0.000467325
2.16296e-06
-9.66422e-07
-2.57712e-07
5.10181e-07
-0.0220848
1.6205
-4.07219e-07
0.000140057
-3.73497e-06
0.091932
-0.0214912
-0.0162834
-4.20857e-07
0.000128746
-1.89683e-05
1.4172e-06
7.20506e-07
0.0637948
0.0059835
0.04026
-3.04467e-06
0.000336234
0.040213
4.66529e-05
0.658195
-8.00385e-07
6.25459e-07
-7.94793e-05
-1.00744e-06
0.00020613
-2.85302
0.000181276
-2.72872e-06
8.96121e-05
-0.032539
2.26268e-06
-7.00458e-07
2.324e-07
0.114203
1.72393e-06
-1.68412
-4.36676e-06
1.07704
0.000446602
2.69396e-06
3.50426e-07
0.0220348
-2.27243e-05
-0.0854909
-9.32106e-08
1.82442e-05
0.00121343
0.00354168
-0.584361
8.4677e-06
-2.76938e-07
5.43584e-07
1.71222e-05
2.17003e-06
-0.102115
2.04023e-06
4.98419e-06
-2.8762e-06
0.0224688
0.0386422
-0.116716
4.10843e-06
0.106888
1.34125e-05
1.47822e-06
1.44306e-06
-4.30705e-05
-3.60979e-06
-0.0186259
8.27868e-07
-0.149273
1.55194e-06
-3.02166e-06
1.0584e-06
4.82927e-07
8.95106e-07
-0.0450505
-1.85249e-07
4.5227e-07
0.0459511
-0.00935135
-2.78784e-06
-1.89257e-05
-4.57261e-06
0.0125116
7.33005e-06
-0.0769048
-6.20969e-05
1.00633
0.000100099
1.35203e-06
-3.35e-06
0.000363009
0.0445816
-0.0477187
1.86209e-07
0.0788003
0.396718
-0.0896789
3.32942e-05
7.13888e-06
9.43322e-06
-0.000325768
5.74563e-06
2.45342e-06
-0.174848
-5.91382e-08
1.89283e-05
-0.0945281
3e-06
1.90005e-05
0.0561052
-0.0791046
-0.0808429
0.0265199
0.0386201
4.10656e-07
-0.057237
0.0364737
0.0824233
-0.00223541
0.00321757
-0.0289921
-0.104776
0.114668
-1.80461e-05
0.0291055
0.395594
-5.82334e-07
2.57558e-08
-3.20135e-06
0.00027907
0.0445474
5.54914e-05
-2.10814e-06
-9.69758e-06
0.0579101
-1.77409e-07
-2.29217e-06
-0.00384416
0.0010041
9.68337e-07
-0.833624
5.04466e-07
-0.000372053
6.61618e-07
0.175012
-0.000453844
-0.0577632
-1.79359e-06
-0.000714701
1.23923e-05
0.0279604
-3.38457e-06
2.13993e-06
-1.6593e-06
-8.77451e-07
5.16022e-05
-0.00518719
0.0161347
0.000846551
-0.0163516
8.76936e-07
0.102785
0.200558
1.46606e-07
-2.98401e-06
-0.0664958
-1.09679e-06
-0.00179894
1.60937e-05
1.84326e-06
1.55282e-06
0.00686323
-0.0420058
1.23749e-05
2.02894e-05
0.0171477
-1.04105e-06
1.1081e-06
-2.68952e-07
0.00032852
-0.00341945
1.97999e-05
0.310028
3.37461e-07
4.35182e-07
3.12424e-07
-3.64503e-07
-5.93409e-06
1.12638e-06
4.03572e-06
3.29522e-06
3.20541e-07
-3.24141e-07
1.78994e-07
-5.07655e-05
2.24169e-06
0.0745057
-1.91471e-05
0.0549873
0.00552635
4.73709e-05
-0.000477424
6.38927e-06
-0.412823
-3.12342
3.32684e-05
-4.49395e-06
0.000181984
-0.0174771
0.0132392
3.06402e-06
0.0316075
-0.0425527
-3.76864e-06
0.00634895
5.19587e-05
-0.170384
7.24571e-06
0.000435547
7.11746e-07
0.0499716
1.24021e-06
0.000604765
-0.462835
-3.51488e-07
-0.323751
-0.000119474
0.00181906
-1.85567e-07
2.98193e-06
0.000283355
0.0236664
0.000198799
4.19784e-07
-0.0299581
2.08492e-05
6.85449e-07
-1.16609e-06
0.000734214
4.39702e-06
8.26847e-06
-2.1179e-07
0.036071
0.000336161
0.000240997
0.00208067
-0.22635
1.09064e-09
-0.154902
1.32784e-06
-6.97454e-06
-1.02158e-06
0.0228855
9.11444e-07
-3.10356e-07
-0.000186344
2.68391e-06
0.0173247
0.0409339
-4.05236e-07
1.70434e-06
2.30018e-06
-0.000188074
1.90661e-07
-0.0930835
-3.12947e-07
0.000185097
4.36509e-07
0.000150944
-3.6974e-07
0.0144331
-0.0191757
-0.124581
0.0293266
-0.0561693
-2.55143e-05
-0.0123607
-0.078804
0.0393639
-2.44472e-05
0.00163346
-4.10593e-07
-0.514226
4.15806e-06
5.28868e-07
-0.000543564
-1.81031e-05
6.17557e-05
-0.136245
9.2515e-07
-0.171199
6.51085e-06
0.0334686
0.123395
1.90606e-06
-0.0506485
0.0492478
-2.93788e-06
2.87353e-05
-9.14753e-05
-1.69535e-08
2.82452e-06
-0.00738838
-0.0195554
-0.00145966
-2.26248e-06
-0.146541
1.78352e-06
0.0196217
0.465207
0.173145
1.03205
0.00056987
-0.000204697
0.00599154
0.0345144
0.00537129
0.017811
0.390223
6.51107e-07
-1.03199e-06
0.136999
0.000227963
-1.35392e-06
-1.00455e-06
2.10305e-06
1.2841e-07
0.156206
3.73921e-06
0.574807
-0.0489278
6.03103e-07
1.29495e-05
-3.78253e-08
3.96256e-07
0.00159909
6.25856e-05
0.0166121
6.05175e-07
-3.01668e-07
-0.000214347
0.0766453
-0.00339656
3.09573e-05
-0.00416983
5.26043e-07
0.000178812
0.171007
0.000194225
0.00162275
0.0115365
-6.75616e-05
0.00351463
0.00910351
-4.33354e-06
2.03072e-06
0.000241375
3.62312e-07
-2.59018e-07
-0.00379732
-0.0323592
1.31297e-06
1.78454e-06
5.6362e-07
-1.06518e-06
-0.0052649
0.00017452
-0.0448742
-0.05667
-1.305e-05
0.000449134
0.0555472
0.00735657
-4.81294e-06
1.10818e-05
-8.61017e-05
-2.41927e-07
1.37436e-06
0.0237993
9.86659e-06
6.82238e-07
0.317028
1.11496e-06
0.0275984
-1.36494e-06
-4.15513e-07
1.39785e-06
-0.000226782
0.0295397
1.16538e-06
0.0733631
-0.180778
1.36135e-06
0.000452212
-0.0640629
0.00280305
-6.55854e-06
1.21933e-05
-0.00270428
0.027056
0.25559
2.87653e-05
9.8556e-06
-2.67416e-06
0.00324092
-0.115251
0.0417949
0.000178941
-0.0670853
-3.78104e-07
-0.14643
0.00163684
0.000710138
-0.000215486
-0.0945371
8.07034e-07
0.0417051
1.37689e-05
-2.74509e-05
0.00170782
0.0160948
1.18299e-06
-1.04826
9.68037e-07
-0.0439776
2.22049e-05
0.0755133
3.50379e-07
-4.94319e-05
-0.0545623
8.09825e-07
-6.47138e-06
-0.0843205
0.0365261
0.192633
-0.0693223
0.00542889
-8.17787e-06
0.000103735
-0.114477
-1.54755e-05
6.5252e-10
7.67347e-06
0.0529886
0.00088356
1.05975
1.33179e-05
3.96897e-07
1.8551e-06
2.41602e-06
-2.44152e-06
0.000780691
0.0170291
0.0010501
-5.46699e-05
3.90612e-07
-0.0426649
2.32284e-06
0.00154484
0.0232914
0.000468495
-1.54857e-05
-4.64043e-07
0.0554593
-6.62792e-06
-7.0215e-06
1.67527e-05
0.000305367
3.88769e-07
-0.0290193
0.00253724
1.15827e-06
0.000187224
-0.363383
0.000430973
0.152684
1.02152e-05
-0.00234389
-0.115501
4.23624e-07
2.03172e-07
4.34322e-06
-0.0931891
0.24049
0.000179324
-0.983819
0.103256
1.78085e-06
-9.96999e-07
-1.17441e-05
3.7316e-06
0.018937
-0.00754617
-9.06328e-06
0.000996298
0.000423238
-0.00015712
1.43005e-06
1.70871e-05
-0.0542315
1.01959e-06
-1.66602e-06
-1.11082e-05
8.44678e-07
5.54942e-06
-1.17724e-06
0.00082034
4.89247e-09
0.0840366
0.000366753
-1.24249e-05
5.64316e-07
-8.72071e-05
0.720913
6.60165e-07
0.0294631
0.000929321
0.00578139
0.000398106
-0.0397845
-0.0347211
5.37929e-07
-0.0794696
-0.0469673
7.93376e-07
5.91884e-05
-0.555052
0.000443169
-0.0352749
-5.93572e-07
-1.49073e-06
-0.00112021
9.72809e-06
0.000284635
-0.169336
-0.000347035
-0.0249029
-8.95696e-08
-0.0208712
0.00394754
-2.58143e-05
-0.138878
0.00611652
-0.0370239
0.00116061
0.0334056
6.05573e-05
0.0472432
-0.0223206
-0.0107983
0.014007
-0.0866655
0.138403
-3.84058e-07
-0.000632365
-3.06158e-06
-0.218357
0.000434295
0.0998859
-6.70348e-07
-0.0141568
-1.00129e-06
-1.22529e-06
-3.42213e-05
0.000175832
-2.5211e-05
1.50267e-06
4.35599e-08
-2.15756e-06
0.011403
3.70209e-06
-0.162844
1.92806e-05
-0.122519
2.50839e-06
3.86693e-07
-0.30911
-1.36262e-06
0.0401596
-0.000517098
1.3957e-05
1.55204
-0.000223392
0.078119
-3.47081e-06
0.245782
-3.44737e-06
2.30012e-06
2.02561e-07
-1.28242e-05
0.234913
-0.0777611
0.0352341
2.37773e-07
-2.80094e-07
-0.394807
-1.42431e-05
0.00600204
6.07032e-07
1.0183e-06
6.75127e-07
0.000253041
0.0172766
-0.973447
1.31451e-06
9.38515e-06
-0.0666922
-1.09898e-06
0.193072
-0.00419971
-8.68263e-05
0.074714
-2.03896e-06
0.000164015
0.0241125
0.000339264
0.0940084
0.000907554
1.7616e-05
0.0217223
-0.0425002
-6.37693e-07
2.03712e-07
1.00292e-06
8.60842e-07
0.00554416
-0.1582
-0.0796381
-2.73762e-07
-2.22827e-05
-2.96849e-06
-1.97872e-05
-2.68499e-06
-1.83817e-05
-0.103913
7.93987e-05
1.0814e-07
-0.0570416
-0.0443251
-0.00011652
-0.165982
-0.0319155
-3.38647e-07
0.00920526
0.0145767
-0.00209226
-0.0883844
3.91266e-06
0.00155012
-0.00541112
1.64958e-06
0.412527
-0.327796
-4.0052e-07
0.054337
1.4871e-06
-1.55047e-07
-0.0203613
-0.000238995
-0.102608
-0.0572704
7.1796e-07
-0.0109902
-0.00014436
-4.21951e-05
0.0182884
0.190482
-8.81532e-07
-4.17723e-07
-1.95485e-07
1.35133e-06
6.14563e-06
-0.264253
2.26436e-06
-9.20848e-07
0.00434725
-0.0367707
0.0191889
-0.000242928
0.000112773
0.103747
-0.00711995
0.0476225
1.70642e-06
-6.63826e-07
7.96048e-07
1.02657e-06
-0.00398685
0.000143619
-2.24985e-07
0.000389297
0.0410044
-2.07917e-05
-1.45211e-06
2.77837e-05
1.60011e-06
0.491069
-0.20482
5.31811e-07
2.33933e-06
9.81234e-07
5.10227e-06
2.80954e-06
-1.43823e-07
-2.89656e-06
-1.43135e-06
0.0343985
5.7022e-07
-0.00876581
-6.14354e-07
0.227824
-5.04158e-06
0.901108
-0.0429853
0.776074
0.0158288
0.172392
-0.000442869
-1.4838
-0.0196653
0.000447303
-0.070218
0.000117011
0.0540967
0.0741089
-0.979943
5.27451e-07
0.0339366
-1.26023e-07
-0.0995403
0.0589193
-0.00198589
-5.76873e-06
-1.58112e-05
-5.12098e-06
1.22397e-05
-0.306335
-0.585814
5.91238e-06
0.132607
-0.0353028
0.0552191
2.21348e-07
-0.00110114
0.000472019
0.000348193
-0.0782683
0.0314715
0.00276316
-1.79288e-06
-0.00110101
0.00245639
0.0198078
5.59675e-07
1.21871e-06
1.41408e-06
0.00716227
0.0497078
9.49963e-07
-6.9954e-07
0.000158596
-1.10567e-07
-0.110782
0.0706419
0.000237679
-1.5101
7.26159e-07
0.0123457
-0.958614
-0.459102
4.74503e-06
-0.000204174
0.00804535
0.227545
5.03802e-07
0.135103
0.0442667
7.26745e-06
-9.32845e-05
-0.143602
-0.000404563
0.0278981
-0.1349
3.42441e-06
-1.56325e-07
-8.56102e-06
2.02287e-06
-1.32157e-07
-1.11195e-06
-0.000386305
-1.91822e-06
-4.03658e-07
1.82172e-06
3.04321e-08
1.56756e-06
-0.0332079
2.05259e-06
0.0258727
-2.00577e-05
-0.000302546
6.36167e-07
-6.00205e-06
0.0211849
-0.000121737
-1.13946e-05
2.39966e-05
-1.58963e-06
-5.43933e-05
0.444574
0.309754
-0.048122
0.320615
-0.018815
0.200108
-0.0152367
-0.00481158
1.219e-05
-1.03993e-06
5.14284e-07
-0.146029
4.25931e-07
2.19988e-06
1.80764e-06
2.1975e-06
-2.93365e-07
-2.13845e-06
-2.53674e-06
-1.18402e-05
0.00441807
0.000208535
7.19739e-07
3.19725e-07
-2.12018e-06
-0.105844
-0.000499707
-1.08177e-05
0.000762563
3.50259e-05
-0.0415103
3.4272e-07
0.000234165
-7.58302e-06
3.00103e-05
2.65677e-06
0.01813
-0.302583
-0.000551276
3.17185e-07
9.63761e-07
-0.122986
-1.83995e-06
-0.000931622
3.88401e-05
0.00350668
0.252271
0.000355255
-0.000146018
0.000437231
-6.68953e-07
0.0796143
-2.23784e-06
0.0108
0.00475565
-0.0570416
-0.0118664
-0.266326
-3.79321e-07
1.04736e-05
-3.11955e-06
-0.155771
1.46336e-06
-0.377008
-2.73482e-05
1.93322e-06
-0.0051764
-0.0587276
1.10959e-07
1.84932e-07
-0.0176185
0.746228
-0.133557
4.9883e-05
2.6287
9.36743e-07
-0.137136
5.26139e-05
1.88682e-05
2.92301e-05
-0.137836
-8.01681e-06
0.0151857
2.38012e-07
-0.10597
0.00685445
-0.0587877
8.80029e-06
0.000124725
3.86181e-06
-1.56386e-06
1.10539e-06
-9.06618e-05
4.87404e-06
-0.00984396
-0.000367831
4.68832e-06
1.74478e-07
0.0183854
-9.34158e-07
-0.790789
0.037269
-0.00338647
-0.0576989
0.00151976
-0.00147562
2.35702e-05
-0.000146389
-7.77823e-07
-0.0708273
-0.165763
0.0158348
-0.144578
0.00399287
-0.000753093
0.397471
5.3087e-07
-0.039102
-0.0886953
-0.311325
1.4899e-06
0.40582
1.01895
0.0643808
-1.34662e-05
0.00018835
0.465992
-5.86901e-07
-0.00224116
7.29213e-06
-0.000313476
1.71623e-06
0.000159697
-4.12128e-07
-9.81304e-08
6.03168e-07
-6.92547e-06
5.08506e-07
-0.0756953
3.30777e-07
7.95719e-07
-0.129642
-5.01251e-07
-5.76328e-06
-2.10715e-05
-5.95907e-06
-1.56211
-0.000116028
2.70886e-05
7.97783e-07
2.13695e-06
-0.236145
-2.0395e-08
-9.35145e-07
0.000194697
0.148826
4.33524e-06
0.000697384
-7.52527e-07
0.000834047
1.78964e-06
1.44281e-06
-0.121289
0.000368131
-0.0118132
3.58631e-07
0.000357146
5.81612e-06
-0.0142409
0.0336337
1.80074e-07
-0.0925212
0.00641709
7.36693e-07
-0.775836
2.15746e-05
-1.39305e-07
0.000307975
5.63024e-06
3.71895e-07
-2.72207e-07
0.00048603
1.53192e-06
-8.88301e-05
-2.89178e-05
0.000466249
4.59707e-07
-0.000426209
-4.13235e-05
-0.00832495
0.000177048
6.36974e-08
-0.101846
3.29186e-07
1.07246e-07
0.0072391
0.035849
0.089556
-0.000102274
0.0941512
-0.208525
-1.42269e-05
-8.41283e-07
0.000368392
-0.1742
5.40592e-06
0.00167847
3.15515e-05
-2.7134e-06
0.323915
0.000743747
-0.00036865
-1.0008e-06
0.0305371
4.93921e-07
-0.000256255
2.64068e-05
0.0036427
-0.00765018
0.28723
-5.27973e-06
3.66192e-06
0.0383596
-4.38795e-06
-0.0269004
0.303701
6.76995e-07
-0.000288661
0.00359849
-1.08218e-05
0.556852
-2.63466e-07
0.177072
1.09804
-2.4345e-07
0.000181001
-2.3505e-06
-1.5965e-07
-3.88903e-06
0.0144397
3.57332e-08
6.74707e-07
0.00865567
-4.96719e-07
0.0331458
0.0427673
-5.64184e-07
0.0372104
2.73261e-07
-1.93077e-05
3.34792e-07
3.58158e-07
-0.00519044
-1.00095e-06
0.000593004
6.96334e-07
1.55902e-06
0.000435932
0.0333877
0.000307603
-0.0630382
0.531788
-0.0173461
-2.92004e-05
-2.13817e-06
0.00204703
3.40228e-05
-1.71639e-06
0.903022
0.000368607
1.68973e-05
4.95818e-09
7.33105e-07
-0.00847206
0.000319538
6.48766e-07
0.0206983
-0.00114188
-6.93384e-07
4.33088e-07
0.236841
0.852725
3.02254e-06
8.41088e-07
0.000348311
0.000306913
-0.0185457
-2.5186e-08
1.08576
2.28457e-05
0.000629732
-0.0067869
0.451153
-0.000509797
0.0626892
-1.20985e-06
-2.66573
3.0254e-06
0.00147322
-0.0156705
1.70089e-06
0.0024241
2.69154e-05
5.4364e-07
0.000970574
0.12192
-0.311808
0.205757
-1.24915e-06
0.00299564
0.00132635
-6.62828e-05
6.6479e-06
-7.56132e-05
-1.97328e-05
-0.0119646
0.0522306
1.03557
-0.00873947
-4.03167e-06
-0.000474585
-0.0844629
6.83037e-06
2.76429e-07
2.59176e-05
0.0487568
9.5289e-05
-0.11781
-0.449729
-0.0125242
-2.9229e-05
-0.447022
-2.75986e-05
0.000434782
0.125103
0.0239785
0.0668471
0.000174271
-6.98694e-09
-0.00797312
2.5796e-07
0.00268368
-3.60768e-06
1.31773e-07
0.000136735
-0.0321619
-0.628217
-0.0344799
0.000104272
-0.123577
-8.57939e-07
-5.4059e-05
-3.81403e-07
0.000287896
-0.0710493
-0.0107176
-0.0757552
-0.0245766
-0.0321406
-0.0511935
2.29471e-07
-0.0133717
3.06746e-07
-0.00047037
0.0455214
-1.94794e-05
9.68525e-06
-0.030106
0.000344626
-6.45272e-07
-8.45808e-07
-0.0422195
-1.63391e-09
-6.3792e-06
0.000356494
-0.189298
6.00919e-08
0.000498429
-0.000362971
0.316834
-0.105912
-1.09578e-06
2.23202e-06
0.0280939
-1.00619e-07
-0.656159
6.4716e-06
-0.029974
-9.86341e-05
-1.22749e-05
2.1143e-06
4.1077e-07
0.161353
6.2254e-05
0.000186057
-3.74265e-05
-0.20192
0.00161491
-0.461195
0.112298
-5.01593e-06
-0.118199
-2.2834e-07
5.27016e-05
-7.10518e-06
-0.030654
1.72017e-06
5.08735e-06
0.0111125
-5.76722e-05
0.0017765
-2.53402e-05
-0.0485329
-1.25714
6.13221e-06
0.0655094
0.000163992
-0.0117755
0.0173458
0.00792484
8.44122e-07
-0.0994006
-0.255352
0.762525
-0.0119637
1.35163
-1.86009e-05
-0.243996
-0.0169717
0.0711652
0.000110955
-2.14874e-05
-2.49477e-06
0.000565415
-2.68645e-07
0.499455
-3.88288e-05
2.98688e-07
5.61443e-06
0.00637627
0.0474249
-9.07615e-06
-0.127773
0.000376545
-0.207083
0.136897
-0.339944
-1.82945e-05
-0.0151221
3.90797e-07
0.0746006
0.0156595
-0.660324
2.68943e-07
0.000170737
1.66834e-07
-0.671354
-0.000260583
0.00428138
0.00023818
-1.24223
-0.000313879
-0.118492
-1.389e-06
0.706287
-0.152249
-9.33399e-09
0.000288859
-0.158133
1.45792e-05
-2.44236e-06
2.69593e-05
0.0191533
1.13947e-07
7.36954e-07
-2.14142e-07
-0.0592517
-3.22482e-06
0.000432209
0.0130037
0.000157115
0.000206191
-3.09075e-07
-8.42411e-06
1.15692e-06
0.00664873
-0.407729
2.10055e-07
7.78114e-06
-1.0593e-06
0.000412007
5.51115e-07
-0.133698
2.1301e-05
-0.00275473
-0.202812
-1.54555e-06
-0.000407486
-0.00193703
1.9783e-06
-2.88664e-06
-0.000175662
0.0969767
1.61269e-06
-0.00247305
0.172113
0.0138754
-0.282813
-0.0148243
4.00238e-05
-3.2716e-06
-0.0377244
-3.82982e-06
6.35302e-05
-2.9263e-06
-0.0951905
3.2359e-06
-0.10705
5.74322e-06
1.5884
-3.64703e-06
0.38033
7.33952e-07
2.50585e-06
0.0012524
8.36608e-07
-4.69971e-07
1.51455e-05
-0.0153845
-4.04766e-06
0.010334
3.31788e-06
0.0423611
0.0399381
0.65233
-0.886027
8.83617e-07
2.00403e-05
0.0139936
-0.000479782
1.84249e-06
7.89527e-05
0.000616172
-0.00648477
6.63827e-07
0.251338
0.000538102
1.72959e-06
-0.118
0.0159596
-2.25821e-05
0.0492804
-0.000163661
0.0646564
-0.944312
-2.03756e-06
1.23882e-05
0.0163777
4.01365e-07
-0.280881
0.000139882
-0.102209
0.225483
1.70823e-05
0.00460238
5.88399e-07
-0.000890788
-1.11725e-06
-3.51484e-06
0.0153201
6.52953e-07
0.137087
2.81353e-06
5.67495e-06
0.00338327
-1.07369e-06
0.0342783
-0.00605554
-0.818887
-0.00186953
0.349813
2.37373e-06
-3.45167e-05
0.0101053
0.00523701
2.69874e-07
0.00256188
-1.2021e-06
-3.53338e-06
-0.580067
0.0161585
2.12313e-06
0.000111343
-8.6693e-06
-6.67335e-07
0.0514921
1.39057e-06
-0.12194
1.85848e-06
0.102228
0.000497955
0.00622803
1.51361e-07
0.0450749
-1.80603
-0.0039993
5.81762e-05
0.431433
-9.51281e-08
0.0232439
0.769473
-5.93532e-06
0.000780103
0.000246575
6.92451e-05
-2.48761e-05
3.96428e-05
0.553024
-0.118133
-0.255583
6.7208e-08
-0.0265004
3.94872e-06
-0.0240659
0.000447189
0.000671113
-0.0092665
-2.80951e-06
0.0570994
0.000446514
-1.09273e-05
0.0745785
-0.178861
0.0205302
0.00345364
-4.0981e-06
-0.00110368
0.0130541
-0.000162359
0.0620178
0.515699
-0.0133446
-0.0332451
5.45758e-05
1.59992e-07
1.49479e-06
7.19681e-06
-3.786e-05
2.24437e-07
1.58551e-05
6.16636e-06
0.000596886
0.0869157
-1.06586
1.01012e-06
-0.0547907
-0.00234044
-0.14322
5.04335e-06
-0.0447945
-3.95776e-05
-0.0483545
-0.275467
-3.19146e-07
-0.182895
0.0201487
-1.62622e-06
2.40324e-06
0.00898247
-0.0142817
0.0341923
0.0063245
3.20159e-07
-2.96238e-05
0.005944
-0.00027711
-3.04494e-06
0.049423
-3.8211e-06
-0.00252019
-0.117348
-0.0420253
3.64841e-06
-0.0340467
-9.45594e-05
-1.3625e-05
1.2271
5.57083e-08
-1.67177e-07
-1.00231e-05
0.0199548
0.00135203
0.00453702
8.88297e-06
-0.144022
1.72773e-06
0.0390376
-0.0270831
-5.20904e-06
-2.22342e-05
-1.27436e-05
0.033751
-0.111162
0.052571
-2.85979e-05
0.283391
0.866639
0.0867828
4.49374e-07
0.0360431
5.60428e-06
-2.39865e-06
-7.95791e-08
0.0354255
6.80509e-05
-0.902687
0.000418527
0.0646455
0.0184931
7.18212e-06
0.0266994
0.000100937
5.18855e-08
-0.0856838
-1.13116e-05
0.033224
-0.104088
1.10155e-05
1.48684e-06
7.53516e-07
0.0155379
0.228642
0.0904333
0.000186099
0.000229904
0.0781068
0.134313
0.0562466
-0.0141999
-0.00719411
-2.10071e-06
0.282887
3.54926e-06
3.28571e-07
0.00549296
0.0203657
-1.65795e-05
-1.69437e-06
0.329713
-0.00476084
6.18084e-07
-0.00426223
4.79622e-06
-0.00303074
1.51123e-07
-0.159568
-0.0787146
0.00704569
1.7261e-07
-3.61849e-05
0.0304574
0.0359802
0.00807518
-0.00583063
-0.136671
0.0118374
-0.174827
0.0184131
0.308517
1.84953e-05
0.272095
-0.113671
-0.000459656
-4.50018e-07
1.55684e-07
0.0151079
-1.02389e-06
3.9293e-06
-0.0115459
4.38002e-07
0.03551
3.27216e-07
-0.128344
0.214667
0.063225
3.23336e-06
-3.96784e-06
0.0233257
3.34753e-08
0.0727071
-5.2255e-06
-0.0236277
0.0432078
0.00309289
0.000224332
-0.000278946
1.90866
0.000294614
1.76357e-06
1.49276e-06
0.0107827
0.343501
0.0586692
-0.136462
3.60274e-05
6.30578e-05
5.78325e-07
0.000500817
-5.45398e-06
0.00306217
0.00149568
-0.000192391
-1.91472e-05
-5.23451e-05
0.00016391
3.97075e-05
0.0493929
-0.177954
-9.73895e-07
-3.74142e-06
-7.74996e-07
-0.00774156
3.07177e-06
0.115148
0.000539726
-0.0693246
6.77761e-07
0.0682521
0.0221412
-3.45693e-07
4.67961e-07
0.000895423
0.000295316
0.000190216
0.0390718
3.43237e-07
-0.0498407
0.176924
-3.32534e-07
0.0189549
0.0519343
0.000199567
-8.80166e-05
0.0305656
-0.00868888
-0.100852
0.05829
0.0598201
-3.5547e-06
-0.0142914
-3.69926e-06
6.64642e-08
-0.0154411
0.0592556
-0.00851584
0.1188
-0.000125708
-0.572827
-6.16618e-05
2.4366e-07
-8.74888e-07
0.0198658
2.13118e-07
0.000183324
0.01592
0.022302
-5.93843e-07
-1.16317e-07
0.05699
1.47749e-05
0.0293331
1.47028e-06
1.33395e-05