/*--------------------------------*- C++ -*----------------------------------*\
| =========                 |                                                 |
| \\      /  F ield         | OpenFOAM: The Open Source CFD Toolbox           |
|  \\    /   O peration     | Version:  v2012                                 |
|   \\  /    A nd           | Website:  www.openfoam.com                      |
|    \\/     M anipulation  |                                                 |
\*---------------------------------------------------------------------------*/
FoamFile
{
    version     2.0;
    format      ascii;
    class       surfaceScalarField;
    location    "300";
    object      ddtCorrDdt0(phi);
}
// * * * * * * * * * * * * * * * * * * * * * * * * * * * * * * * * * * * * * //

dimensions      [0 3 -2 0 0 0 0];
oriented        oriented;


internalField   nonuniform List<scalar> 
41499
(
0.000144509
-0.00017857
3.4063e-05
-0.000687789
0.000492505
0.000195284
-6.6734e-05
0.000108495
-4.17573e-05
1.62938e-05
-1.82686e-05
1.9745e-06
-3.48315e-05
-1.53783e-05
5.02162e-05
-0.000105314
0.000151318
-4.59976e-05
-4.67485e-07
3.2383e-06
-2.77046e-06
1.29844e-05
2.10519e-05
-3.40289e-05
5.70255e-05
-2.80823e-05
-2.89483e-05
-2.72752e-05
0.000318491
-0.000291216
-0.000474238
0.000428661
4.55857e-05
-0.0133081
-0.00306915
-0.0323795
0.00879057
0.0235888
-7.60694e-08
-3.91285e-07
9.2917e-05
-0.00044886
0.00035595
-1.12941e-05
1.55916e-05
-4.29845e-06
0.00750339
-0.00944735
0.00194393
-3.65493e-05
3.22288e-05
4.32699e-06
-0.000222249
6.89151e-05
0.000153335
-1.1833e-05
2.48217e-05
0.0247393
-0.0388913
0.014152
9.49761e-05
-8.79825e-05
-6.99734e-06
0.0238533
-0.00597877
1.3037e-05
-3.49623e-05
2.19208e-05
-1.68875e-05
5.5932e-06
-1.64993e-05
1.25512e-05
3.95128e-06
0.00114612
0.00292493
-0.00407083
4.43995e-06
-3.92796e-05
-6.27058e-05
5.39886e-05
8.7203e-06
1.41953e-05
-3.14088e-05
1.72231e-05
6.96491e-06
-2.31937e-05
1.62281e-05
-0.00013499
-0.000508337
0.000643332
-4.22587e-07
-8.52585e-06
8.948e-06
-7.41275e-06
1.12849e-05
-3.87198e-06
0.000522202
0.0013638
-0.00188598
-1.018e-05
2.768e-06
-1.12566e-05
6.17656e-06
5.07868e-06
-4.38737e-06
-1.2111e-05
-0.00514215
0.00170057
0.00344155
-2.48681e-05
4.16092e-06
2.07067e-05
0.000100407
0.000201009
-0.000301414
-7.32132e-06
-3.93467e-06
0.000772141
-0.000540087
-0.000232038
8.13784e-06
-1.51453e-05
7.00707e-06
0.0320123
-0.00835595
-0.0236564
-1.35469e-05
-1.13211e-05
-7.76884e-06
-1.01236e-05
1.78928e-05
0.00067083
-0.00185908
0.00118825
-1.36113e-05
7.10293e-06
6.50942e-06
1.40532e-05
-3.88471e-05
2.47911e-05
4.0165e-05
-5.19961e-05
-0.000797379
0.00297158
-0.00217418
-0.00130202
-0.000140318
0.0014425
-3.05605e-05
-2.17888e-06
3.27392e-05
-4.82989e-05
3.00872e-05
1.82131e-05
9.78084e-06
-1.75509e-05
6.64917e-06
1.28422e-06
-7.93504e-06
0.0201355
0.0162602
-0.0363959
0.0233845
-0.00324899
2.12349e-05
-1.42702e-05
-0.00918919
0.000909162
0.00828003
0.000404453
-0.000539663
0.000135214
0.0293593
0.00265306
0.00027344
-0.000273439
1.03014e-05
-1.26945e-06
-9.03102e-06
-0.00266652
-0.00247565
-0.0225331
2.75784e-06
3.74049e-05
-0.00102846
0.00155071
6.58543e-06
-1.09224e-05
4.33432e-06
0.00390271
-0.00157928
-0.0023235
3.20181e-05
-1.89837e-05
-3.21869e-05
-4.35929e-06
0.000663535
0.00600194
-0.00666528
-0.000291262
0.000350436
-5.91738e-05
-0.00785126
0.00130171
0.00654949
3.02342e-05
-1.60372e-05
8.26115e-06
-4.1652e-06
-4.0955e-06
0.00125008
0.00130146
-0.00255163
0.00183367
0.00627308
-0.00810673
-0.000135442
3.01284e-05
5.78271e-05
-6.96799e-05
1.18534e-05
-5.24192e-05
-7.97791e-05
0.0001322
-0.000164902
0.000113154
5.17442e-05
-0.00649749
0.00568686
0.00081037
0.0130141
-0.0579497
0.0449352
9.49426e-06
5.92007e-07
-1.00856e-05
0.00057095
0.0002012
-0.000354477
0.00813758
-0.00778312
-0.00367088
0.00550456
-3.65965e-05
4.11712e-05
-4.57475e-06
-0.0125352
0.0131988
2.72089e-05
-1.31564e-05
0.00859962
-0.00539065
-0.00320891
1.70107e-06
-5.72105e-06
4.02252e-06
6.54769e-05
-0.000132209
0.00474916
0.00363868
-0.00838785
-0.000227283
-8.71281e-05
0.000314411
-0.000168416
0.000572871
-3.09436e-08
-3.18627e-06
3.21767e-06
5.85468e-05
-6.58467e-05
7.301e-06
-1.61397e-05
1.17529e-05
-0.000279084
5.1801e-05
0.000728023
-0.000389278
-0.000338683
-8.07111e-05
-0.000498042
0.000578764
6.5496e-05
-7.66939e-06
0.00710469
-0.00287153
-0.00423353
-0.00449288
0.00279423
0.00169871
-1.45041e-05
-1.63518e-06
-0.000133862
-6.69622e-05
0.000200855
0.000690892
-0.0031407
0.00244982
-0.000216728
0.000317133
-0.0107309
0.00390355
0.00682739
0.0178329
-0.0122176
-0.00561535
-0.000978351
-0.00351452
-0.00370622
0.00290888
-0.0133939
0.00950931
0.00388465
-0.000587842
0.000452854
0.000253513
0.000474494
-8.63631e-06
-4.97449e-06
-2.95975e-05
-6.99927e-06
-0.00429597
-0.00643493
-9.92405e-06
9.5003e-06
8.43576e-05
1.0618e-05
-6.33917e-06
3.54133e-06
2.79794e-06
-0.0217626
0.0350301
-0.0132676
0.0160071
-0.0287312
0.012724
-1.63343e-06
-0.00017248
2.03653e-05
1.35134e-06
-2.17186e-05
4.53528e-05
-5.86562e-05
1.33058e-05
-0.00042108
0.00054337
-0.000122289
-0.00306762
0.00421407
0.00675057
0.0018491
-0.000130023
-0.00041005
0.00946244
0.00766257
-0.017125
-0.00100731
-0.00173024
0.00273744
0.00212295
-0.0131423
0.0110192
1.17469e-05
-9.78649e-06
-1.95653e-06
7.41923e-06
-4.98658e-05
4.2442e-05
2.60416e-05
-2.15611e-05
-4.47976e-06
1.16307e-05
-1.16263e-05
-2.29688e-05
-2.53292e-05
-5.79722e-06
1.23015e-05
-6.50452e-06
-0.00115261
0.000608656
0.000543958
-0.000566878
0.00332325
-0.00275617
-4.21387e-05
4.48923e-05
0.00020143
6.34039e-06
-0.000207775
0.00157015
-0.000899327
-0.00463852
-0.00321277
-0.000118322
6.59038e-05
-0.00322655
-0.0101673
8.03665e-06
3.71205e-06
0.00535374
-0.00287641
-0.00247752
0.000728796
0.00175372
-0.0024825
-0.0055122
0.00633372
-0.000821515
0.000410583
-0.000204389
-0.000206195
0.000921696
-0.000229983
-0.000691633
-1.34663e-06
1.27793e-06
6.8706e-08
1.16654e-06
2.4057e-07
-1.40685e-06
8.38645e-06
3.04384e-06
-1.1419e-05
0.000436077
0.00226435
-0.00270041
-0.000146448
-0.000206644
0.000353081
2.14849e-05
4.64645e-06
-2.61276e-05
-0.00712634
0.00359158
0.00353477
-0.00125413
-0.00155962
0.00281371
8.50469e-06
-1.86535e-05
1.01409e-05
0.00205244
0.00330131
0.0165886
-0.00749615
-0.00909244
-0.000327679
3.64186e-05
7.66424e-06
-8.18079e-06
5.17875e-07
0.00143057
0.000333733
-0.00176431
3.50523e-05
-3.57764e-05
7.25408e-07
-3.22809e-06
-3.11061e-06
-0.00132305
-0.00053604
1.47404e-06
4.30459e-06
-5.77795e-06
-0.000244638
0.000815735
-0.00057102
-0.000180758
4.6901e-05
0.000587083
-0.000333563
-8.54864e-07
-8.19592e-07
1.67491e-06
0.000265462
-0.0004119
0.00637438
-0.00672877
0.0050029
-0.00418602
-0.000816875
9.05156e-06
-9.55789e-06
5.07469e-07
-7.55214e-05
3.33791e-05
-0.00322399
0.00221664
0.00719098
0.00583409
-0.0130251
-4.76083e-06
1.76347e-06
2.99803e-06
3.21726e-06
2.50345e-06
-5.72093e-06
-1.60915e-05
3.59495e-05
-1.98551e-05
-1.22082e-06
1.07152e-05
0.000258399
-0.00010048
-0.000157895
0.000761794
-0.000900426
0.000138634
0.00280307
0.000124841
-0.00292789
0.000426859
0.000160212
5.27954e-06
-6.42871e-06
1.14896e-06
-2.06357e-05
1.36885e-05
6.94931e-06
0.0123351
-0.00514413
-0.00630548
-0.000820858
4.47886e-06
-8.1797e-06
3.70215e-06
0.000120805
-1.12326e-05
-0.000109575
0.000348256
-0.00165033
-0.0145887
0.0113621
-1.13634e-06
-2.10147e-07
2.43798e-06
-4.77378e-06
2.33609e-06
-0.000408782
0.000164161
2.75498e-05
0.000173881
-0.000665608
0.00143283
-0.000767272
-0.00488879
0.00102891
0.00385985
-0.00239309
-0.00210853
0.00450168
1.3504e-05
4.35153e-05
-0.000122587
3.77127e-05
8.48732e-05
-0.0097306
0.0211654
-0.0114347
-9.14898e-06
6.6356e-06
2.5121e-06
6.87978e-06
-7.0618e-06
1.82231e-07
2.88637e-06
-5.54138e-06
2.6555e-06
-1.01343e-05
-7.86362e-07
1.0934e-05
-0.00303658
-0.00185229
-0.00623245
0.000720247
5.26197e-05
-7.26873e-06
6.65103e-05
-1.01471e-06
1.83119e-05
-2.99445e-05
1.16296e-05
-0.00179221
0.000833025
0.000959226
5.00373e-05
-1.99491e-05
4.31238e-06
-1.09508e-06
6.99153e-05
-8.95799e-06
-6.09632e-05
0.00630888
0.011524
-1.04845e-05
1.64518e-05
-5.96691e-06
0.0748062
0.00238082
-0.077187
7.09363e-05
-6.35229e-05
1.2977e-05
-1.82266e-06
-1.1153e-05
-0.000241443
0.000324299
-8.28599e-05
-0.000272085
0.00289997
-0.00262791
0.00800219
-0.0177328
0.00635327
0.0102353
0.0005732
0.0241661
0.00156078
-0.000444404
-0.00111637
-0.017478
0.0120452
0.00543267
-1.06148e-05
4.86754e-07
1.14286e-05
-2.37687e-06
-7.80383e-06
-5.36261e-07
8.34591e-06
0.0793859
-0.00457964
-0.000168944
0.000143934
2.50105e-05
0.00363061
-0.00513731
-0.00945132
-7.32381e-07
2.1097e-05
-2.15141e-06
1.29682e-06
-0.00135763
0.00208644
0.00014318
-0.000143226
7.146e-05
0.000608385
-0.000679836
-0.000635336
0.00343838
5.32204e-05
-4.76653e-05
-5.55594e-06
0.000135195
-0.000145076
9.87216e-06
7.71038e-06
-2.28508e-06
-5.42425e-06
-1.9674e-05
-3.51907e-06
1.21896e-05
5.43191e-05
-0.00530603
0.0100552
0.000145345
-8.28551e-07
7.71732e-05
-7.56267e-05
-1.54314e-06
-0.000390219
-0.000141139
0.000531366
0.00378224
0.00332236
-0.000334488
0.000278906
5.55865e-05
0.000537634
-0.000551647
1.40067e-05
0.00123592
0.00479357
-0.00602943
0.00541448
0.00589936
-0.0113138
-0.00567218
0.00690808
-0.00038899
3.2405e-05
0.00035659
-1.65152e-05
9.02353e-06
7.49295e-06
0.000124499
0.000133914
0.000121371
1.38088e-05
0.00357559
-0.00338025
-0.00019523
1.39682e-05
0.000647487
-0.000661472
5.68939e-05
-0.000377701
0.000406642
-1.27793e-06
-0.000405359
0.000750253
-0.000678781
-3.22682e-06
-1.3288e-05
0.000772361
-0.000641302
-0.000131018
-0.000121105
-4.7842e-05
-3.9208e-06
-1.12583e-05
1.51784e-05
0.000100179
-1.58202e-05
2.75291e-06
-2.3628e-07
5.42396e-06
-5.186e-06
5.5428e-06
2.71932e-06
0.00315362
-0.00025366
0.0459543
-0.0363083
-0.00964613
8.66952e-05
-0.000170773
8.40665e-05
-0.00105158
0.00184634
-0.000794658
-0.0593589
-0.00566689
0.0650257
9.73813e-06
2.05005e-05
2.80408e-05
-0.000164876
0.000136912
-0.00514882
-0.00334218
0.00849099
3.37677e-05
-3.09339e-05
-2.83461e-06
-0.000584341
1.32413e-05
-2.79474e-06
-1.04465e-05
0.000383081
0.000592128
-5.44889e-05
0.0509876
-0.0197376
-0.0312504
-0.0211347
0.0182466
0.00288814
0.000514135
0.00105601
-1.45664e-06
8.33695e-06
0.0123043
-0.00082549
-0.0114788
-0.00336436
0.000327631
2.45205e-05
-3.31274e-05
8.60897e-06
6.05277e-06
-1.57345e-06
-0.0371592
0.050173
-0.000818331
0.00363918
-0.0028208
1.26058e-05
0.000108198
5.119e-06
-3.34566e-06
-1.77342e-06
0.00232376
-0.00107367
0.000635829
0.000307347
-0.000943178
-0.0513781
0.070454
-0.019076
2.3573e-05
-1.86455e-05
-4.9264e-06
0.00260092
-0.00325551
0.000654624
5.39591e-05
2.32143e-05
0.0280078
8.24141e-06
-4.19371e-06
-4.04646e-06
-1.35407e-06
3.23573e-06
-1.88125e-06
-3.63606e-06
-0.000161258
-0.000209535
0.000180326
-0.000344448
0.000103009
-0.00218608
-0.0013179
0.00350396
-8.39608e-06
4.1825e-06
4.21418e-06
1.86682e-05
-1.22067e-05
-6.46112e-06
2.44053e-05
-6.88482e-06
-1.75233e-05
0.00723273
-0.00243913
-0.00240674
-0.000957656
0.000682739
-0.000203418
-0.000479312
-3.24977e-05
-3.02099e-05
2.18045e-05
-1.53528e-05
-6.45186e-06
1.33709e-05
-2.08334e-05
7.46654e-06
1.88196e-05
-5.26159e-06
-1.35582e-05
0.000967533
-1.87423e-05
2.7736e-05
-8.99335e-06
-1.58424e-05
4.03617e-05
0.0326841
-0.0138721
-2.12727e-06
-1.08005e-06
3.20796e-06
0.00659262
-0.00315081
-0.00344179
-4.06655e-06
-1.05253e-05
1.45916e-05
-0.0137322
-0.00374585
-0.000254466
0.000661099
2.94619e-05
-1.97233e-05
0.00125633
0.000412906
-0.00166919
-0.000204715
-4.82231e-06
0.00166955
0.000382098
-0.00205156
1.62526e-06
-3.7522e-06
-0.000170316
-0.000363413
0.000533729
1.70634e-05
6.51103e-06
-0.0106191
0.0266262
-9.40699e-05
2.75725e-05
6.19334e-06
1.98225e-05
4.57952e-06
-1.68546e-07
-7.63409e-06
-0.0295527
0.00779021
0.00382733
0.00340538
-0.000330239
8.51885e-05
0.000245049
0.000340634
-0.00137923
0.00103852
-0.000342179
-0.00288907
0.00323125
-1.9803e-05
1.80802e-05
1.72078e-06
-2.33704e-05
2.44589e-05
-1.08813e-06
0.00410259
-0.00535674
-0.000330115
0.000123831
0.000206288
0.000649791
2.99898e-05
3.47019e-05
-6.46933e-05
2.63039e-06
1.72665e-07
-2.80275e-06
0.000419205
-0.000278202
-0.000141002
-0.000948659
0.000308571
0.000640091
0.000358164
-0.00135532
0.000997158
-1.75665e-05
5.0082e-07
1.70655e-05
2.14565e-05
-1.47121e-05
-6.74475e-06
-7.20906e-06
1.58189e-05
-8.61181e-06
-5.05039e-06
-8.56757e-05
9.07227e-05
2.0611e-06
3.70401e-06
-5.7649e-06
-0.000443262
0.000703115
-0.000259873
1.39411e-05
-6.9972e-07
-3.00688e-05
0.000101841
-7.177e-05
3.53545e-06
4.28592e-08
1.29351e-05
-0.000142654
8.14385e-06
0.000134509
-0.00137971
-0.000395609
0.00177533
-4.52866e-06
1.22392e-05
0.000241103
-6.12794e-05
-0.000179819
-0.00064628
8.99705e-05
0.000556318
0.00072029
-0.000685575
-3.47134e-05
-0.00742634
0.00236439
0.00506196
-0.000645587
0.00103621
-0.000390585
-0.000501063
0.000110848
-0.00988946
-0.011956
-6.78098e-05
-0.000578454
-3.55588e-06
-0.0004533
0.00082651
-0.000373191
-1.9494e-05
1.18399e-05
7.65371e-06
0.00190628
-0.00256487
0.000658607
-9.34605e-05
0.000196273
-0.000102818
-2.06707e-05
8.11974e-06
1.25511e-05
-0.000295065
0.00026779
0.000458603
4.41198e-05
-0.000502729
0.00107568
-0.000717528
4.22015e-07
6.23976e-06
-6.65937e-06
-1.71941e-06
2.34958e-06
-6.29967e-07
-0.00241542
0.0105529
-2.56907e-05
2.32222e-06
-0.000589495
-2.6925e-05
2.24891e-05
4.43421e-06
2.30853e-05
-1.02199e-05
-1.28652e-05
-0.0125457
0.00520316
0.00734251
-0.00104782
0.00147991
-0.000432121
1.92291e-05
-0.00305112
0.00303187
-2.38856e-06
9.03881e-06
-0.00754973
0.0170122
0.000502282
-0.00116792
-5.27979e-05
3.671e-05
0.000639489
-0.00201921
-8.3583e-06
-1.23126e-05
9.93879e-07
-3.28099e-06
2.28702e-06
-0.0124401
9.98781e-06
-2.87324e-05
0.00332027
-0.00288775
-0.000432463
-0.000238736
0.00080628
-0.000567528
-3.18202e-05
0.000490423
0.000879899
-0.00192771
0.00239229
0.00420033
-5.7573e-06
8.17014e-06
-2.41125e-06
-1.90026e-06
5.97486e-05
-5.78499e-05
0.000125432
-0.000173245
4.78118e-05
0.00177063
0.00163667
-0.00340717
0.00113094
-0.000995171
-0.000135756
-1.21793e-05
-5.38673e-06
-0.00290295
0.00208467
3.32072e-05
-5.63268e-05
2.31199e-05
-0.000210003
1.73104e-05
0.000192697
-4.21081e-05
0.000679438
-0.000637295
0.000892202
0.01266
-0.00994429
-0.00271582
3.55212e-05
5.69411e-05
-9.24616e-05
5.15467e-06
8.46774e-06
-1.36225e-05
-1.62723e-06
1.45945e-06
1.39111e-05
6.80873e-06
-2.07197e-05
-1.27173e-05
1.21873e-05
5.30596e-07
0.00604363
0.000229464
0.000184784
-0.000395163
0.000210362
0.00306231
0.000513241
0.00260958
0.00422373
-0.00683328
-0.00184885
0.00240823
-0.000559368
-0.000924453
0.00127003
-0.000345524
-1.31664e-06
-3.44354e-06
-0.00153004
0.000150875
0.00137914
1.412e-05
-1.24169e-05
1.5236e-05
7.84977e-06
0.000624235
0.00014797
-0.000772196
6.21618e-06
-9.36542e-07
-0.0302505
0.000975242
0.0292749
-0.000247193
0.00116892
1.2196e-05
-6.73826e-06
-5.45873e-06
1.94003e-06
-1.46558e-05
0.00272301
-0.00203225
-0.0272785
-0.0116128
-0.000649296
0.00325025
0.000158901
0.000260303
-9.41182e-05
3.57904e-05
5.83292e-05
-9.47628e-06
3.75736e-06
1.54415e-05
-6.65891e-06
7.08308e-06
0.0106478
-0.00314444
-0.00186303
0.000730286
0.00113276
1.07599e-05
0.000102968
-0.000113724
-0.000447404
0.000204524
0.000242877
3.87021e-06
-9.83572e-07
-1.62078e-05
5.7234e-06
-0.00768517
-0.00150404
0.00199866
0.0129235
-0.0149222
-6.43403e-06
1.45716e-05
6.2202e-06
5.23273e-05
-0.00321181
0.00709773
-0.00388593
-1.62835e-05
4.02603e-05
-2.39743e-05
0.00179349
0.00475034
-0.00654382
-5.22956e-07
0.00143109
1.4955e-05
-8.66112e-06
-6.29324e-06
-6.67086e-06
1.92291e-05
-1.25584e-05
-0.00363426
0.00376283
-0.000128624
0.00137143
-0.000713803
-0.000657622
0.0316438
-0.0111964
-0.0204474
-0.00067868
-0.000103876
0.000782553
0.00119884
-0.00225039
-0.0102534
0.0321349
-0.0218821
0.00164145
-0.00124996
-0.000391582
6.81266e-05
3.20547e-05
0.000691825
2.84638e-05
-0.00549048
0.00227866
0.00331036
0.00169255
-1.63302e-06
1.40435e-05
-1.24083e-05
0.00830399
0.0233398
-0.0053875
0.0191697
-0.0137822
-6.46396e-05
0.000688876
-0.000905051
0.000579684
0.000325383
-0.000124191
0.000134947
-0.000294898
-0.000179339
-0.00233908
0.00159212
0.000746971
0.000633625
0.00208926
-0.000213953
0.000502528
-0.00028859
-3.81607e-05
3.43116e-05
3.84767e-06
1.21488e-05
0.000239159
0.000567117
4.19083e-05
-0.000296361
-0.00339216
0.00111636
0.0022758
0.00325077
-0.00148005
6.85674e-05
-1.45766e-05
1.49512e-06
1.4798e-05
-0.000597699
-0.000196925
0.000223273
-2.63479e-05
-0.0186738
7.93276e-06
-1.67175e-05
8.78555e-06
0.00148036
-0.000427848
-0.00105247
-0.000223683
0.000408449
-6.59716e-05
4.60614e-05
-0.000196198
-0.000436401
0.000252582
0.00018382
0.000388604
0.000266163
-0.000654849
1.26964e-05
-1.65871e-05
3.88948e-06
-0.000639763
0.000196496
5.71093e-05
0.000183996
-9.65864e-06
3.9025e-06
6.7827e-06
5.41262e-06
-4.20558e-06
0.000596804
0.00170389
-0.00230072
-3.33498e-06
-5.06106e-06
-0.000776305
-0.0140041
-2.97471e-05
-8.14677e-07
2.54839e-05
-8.11671e-05
5.5695e-05
-0.0348733
0.00249362
2.58073e-05
1.01427e-05
4.26231e-06
-4.49807e-06
-0.00257635
0.00895048
-0.000102978
-0.000278586
0.000781991
0.00160838
-0.00239037
0.00132962
-0.000815486
-0.00112641
0.00154553
-0.000419083
5.17285e-05
-0.000136538
8.48105e-05
5.15686e-05
1.93649e-05
-0.000330149
0.000402268
-7.21188e-05
1.85312e-05
-4.62088e-06
7.30692e-06
1.41494e-05
-0.00617131
0.00250043
-1.20478e-05
6.14382e-06
5.90106e-06
0.0250508
-0.000243359
0.000130296
0.000113064
-0.00600279
0.0180481
-2.92114e-05
1.29287e-05
-5.49423e-05
-5.71527e-05
0.000112099
1.44807e-05
2.77977e-06
-1.72601e-05
-0.00952072
-0.000368818
6.52239e-06
1.55114e-05
-3.8691e-05
2.31785e-05
-0.000132939
0.00152146
-0.00138852
0.011095
-0.000811436
-0.00282289
-0.0012947
0.00384061
-0.00254589
0.0140772
0.031877
0.000188438
-0.000188068
-2.77681e-07
0.00301309
-0.00816193
-1.6962e-05
2.9803e-06
1.398e-05
-0.000226286
-9.18717e-06
-0.000610128
5.84823e-05
-7.8868e-05
-3.9453e-05
-4.98294e-06
-7.06067e-06
-1.8362e-05
3.38699e-05
0.000396881
-0.000354962
-4.69104e-06
1.73861e-05
0.000813931
-0.000856016
6.56574e-06
-2.17668e-05
1.52015e-05
-0.000200183
-0.000487607
-0.00265067
-0.000638613
0.00328935
0.00073184
0.000639585
0.000111228
-0.000211665
2.20863e-06
-9.58751e-06
7.3793e-06
-0.00643919
-0.00966051
0.0160997
-0.000282218
0.00153857
0.00193427
-0.00232008
0.000385774
-0.0304835
0.020431
0.0100526
1.04322e-05
-1.2064e-05
-2.8397e-06
2.45691e-06
3.83215e-07
0.000536623
3.34265e-06
0.000473255
-0.000476597
-9.18624e-05
3.69249e-05
-0.0435376
0.033284
-6.20489e-06
6.67089e-06
-4.65016e-07
-1.23521e-05
-1.89634e-06
-8.28171e-06
-6.66468e-07
5.41803e-07
1.24869e-07
8.24829e-05
-8.24825e-05
-2.13483e-06
1.27695e-06
8.58233e-07
2.08227e-05
-7.23025e-06
-1.35915e-05
-0.00797705
0.0101
-0.000584498
-0.00353023
-0.00296744
-1.10253e-05
2.43972e-05
-0.000838791
0.000897862
-5.91396e-05
-0.00656713
0.0102058
8.14712e-07
-2.44438e-06
-6.29729e-06
9.78041e-06
-3.4834e-06
0.000958101
-0.00118805
2.82985e-05
-1.35678e-05
7.59218e-06
5.97532e-06
3.47179e-06
7.13328e-06
-1.06045e-05
-0.00930094
0.0276443
5.844e-06
1.33854e-05
-0.000242844
-0.000193552
2.22839e-06
9.40776e-06
9.51624e-06
0.000268659
-0.000283134
1.44729e-05
-0.00647369
-0.0244498
0.0309235
-8.07951e-06
-5.48819e-06
-3.1658e-05
-0.000312152
0.00034381
0.000570929
0.00109862
-7.08181e-05
6.57646e-05
-7.39011e-06
-7.60442e-06
-1.07499e-05
1.83543e-05
-0.000240827
-0.000707809
5.56381e-06
-7.14103e-05
-0.0114477
0.0050085
-2.12861e-06
-2.91003e-06
5.03901e-06
6.83184e-05
-3.79622e-05
-3.03544e-05
3.67836e-06
-9.97412e-06
-0.000133998
0.000226917
1.61078e-05
1.59082e-05
-0.000155543
0.000338528
-0.000182987
-8.54979e-05
-4.99417e-05
0.000796304
0.000764487
9.87252e-06
-1.37925e-05
-1.25494e-07
2.75632e-06
-0.0098323
0.00617208
0.00366024
-0.000565605
-0.00058699
-0.000275648
-5.88403e-05
-0.000899768
-2.46392e-05
-0.00309857
0.00044791
0.00218902
-0.000282682
2.70754e-05
7.06409e-06
-1.46691e-05
-0.0167183
-0.0137652
0.0056104
0.00148732
0.0173327
-0.0166564
-0.000676419
-1.24521e-05
-7.04239e-06
-0.0171404
-0.00153332
2.04131e-05
-1.3847e-05
-8.20619e-06
1.33598e-05
-4.64313e-06
5.90885e-06
-1.26597e-06
-0.000194821
2.62429e-06
-8.91857e-05
6.47924e-05
2.43941e-05
-0.00681922
0.000330093
0.0123298
0.000553019
0.000129734
-0.00238755
-0.00178192
0.00416953
-6.63786e-05
7.38926e-05
-4.39029e-05
-0.0024708
0.000240697
0.00223009
0.00646331
-0.0088787
-0.000839826
0.00279478
-0.00195491
-3.44637e-06
-5.29057e-06
8.73725e-06
1.4996e-05
-2.65831e-05
1.15862e-05
-0.00359448
-0.00895119
1.07963e-05
-8.58649e-06
-0.0444683
0.0379947
-4.43788e-06
-0.00021781
6.14726e-06
1.51725e-06
0.027275
-0.0261431
-0.00113217
0.00234195
2.1076e-05
2.8961e-05
0.000141231
-0.000162038
2.08205e-05
1.20871e-05
-5.30519e-06
7.90733e-05
-2.75047e-05
1.91868e-05
2.1984e-05
-7.65278e-06
6.37738e-06
-5.38914e-06
8.22713e-06
-2.838e-06
-5.34154e-07
-1.60045e-06
-9.52196e-06
1.7453e-05
-0.0633611
1.69958e-05
-5.15664e-06
-0.000212654
0.0002239
-1.1256e-05
2.34662e-05
4.48535e-05
3.31909e-05
0.000108044
0.00742001
-0.00180959
5.86823e-05
-4.11044e-05
-1.75755e-05
-0.000152493
0.000518858
-0.000366363
-0.0215337
0.00922343
0.0123102
0.0216816
0.00559357
9.08415e-06
-2.49846e-06
1.01772e-06
-1.4178e-05
1.31604e-05
1.66847e-05
-1.75139e-05
8.29309e-07
-5.32788e-05
-0.000395578
0.000548947
0.000958652
-0.00150766
7.72608e-06
1.12378e-05
-1.89671e-05
1.55799e-05
-7.07753e-06
-0.00314224
0.00280007
3.36327e-06
8.72296e-06
0.012408
-0.00707462
-0.00533327
0.00276466
-0.00333142
-9.07918e-06
3.52306e-05
-2.80577e-05
-7.17447e-06
0.000126479
0.00151493
0.00224519
0.0015404
-0.00378575
-0.000929583
0.000250902
-5.15747e-06
-3.99075e-06
-0.0054548
0.0108693
3.08361e-05
4.39387e-06
-0.000119792
2.8218e-05
9.15583e-05
0.000669546
-0.000133938
3.10805e-05
0.000102858
-3.61143e-05
-5.30689e-05
1.23481e-05
4.64674e-06
1.84607e-05
-1.3225e-05
-5.23407e-06
-1.46346e-05
-5.16885e-06
-7.37936e-06
-5.04457e-05
5.78283e-05
-0.000136537
0.000261023
-0.00178817
-0.0284628
-0.00125347
-0.000337875
0.00159132
-4.41896e-06
-2.24258e-07
7.60477e-05
-2.2086e-05
0.000259215
-0.00011773
-0.000141489
-6.00688e-05
4.6465e-05
6.8847e-06
1.01797e-05
-0.000769285
-0.010642
0.0114113
-7.49608e-06
-6.92497e-06
1.44211e-05
-0.0207217
-0.0204956
0.0412175
0.000217108
-0.000148191
0.011922
-0.039267
0.027345
-2.96712e-05
1.32755e-05
1.64007e-05
-0.00482577
0.00743537
-0.0018919
0.00248868
-6.14693e-06
3.27274e-06
2.87454e-06
2.50732e-05
1.28256e-05
-3.7897e-05
0.00168058
-0.00407364
-2.84073e-06
2.81022e-06
-5.07648e-05
4.33849e-05
-0.00023437
7.02381e-07
2.60426e-05
-2.67435e-05
2.18661e-05
-2.46667e-05
2.79823e-06
0.0005184
-0.000428912
-8.94848e-05
-4.98877e-05
-0.000339103
9.00004e-05
-6.14125e-05
-2.85854e-05
8.62034e-06
5.8623e-07
-9.20644e-06
-0.00179178
0.00616809
-0.00437618
-0.00812018
0.00682289
0.0012973
0.0129599
-0.00621818
-0.00674173
0.000165551
7.56146e-05
-0.000241161
3.27932e-05
2.04277e-05
-1.21424e-05
1.42245e-05
-2.08182e-06
0.000381402
-0.00993275
0.00955143
-1.10931e-05
-7.17648e-06
-1.155e-05
-9.08435e-06
2.81684e-05
-2.74639e-05
-5.081e-06
8.46392e-06
-3.38289e-06
3.63318e-05
-7.89978e-06
-2.84311e-05
1.75747e-05
9.16141e-05
-0.000109189
-0.0113632
0.0117446
0.000389983
-0.000560305
0.0108038
-0.00880516
-4.59005e-06
1.75593e-05
-1.297e-05
0.00230979
-0.000945995
5.09109e-05
-4.58962e-05
-5.01072e-06
-0.000350816
3.22746e-06
1.89179e-06
0.0166161
-0.0373382
-1.38381e-05
0.000117205
-5.31758e-05
5.93971e-05
0.000176794
0.000233803
0.000383533
-7.2551e-05
-0.000310972
0.000218557
5.49137e-05
-0.00145944
0.00189553
-0.00270196
0.0017608
0.000941157
4.10787e-05
0.00189319
0.000200235
-0.00103942
1.05327e-05
-1.02586e-06
-9.5078e-06
-0.00608291
0.0042912
-9.0591e-06
7.27624e-06
1.78305e-06
-1.45563e-05
-1.5113e-05
0.00557097
0.00673327
1.02551e-05
-1.199e-05
1.73516e-06
1.3588e-05
8.21575e-06
-4.41962e-05
-7.83902e-05
-4.77891e-06
-0.00652452
-0.0146101
-2.35572e-06
-8.30687e-07
-1.28407e-07
1.29516e-06
5.82543e-05
-6.44731e-06
0.000612003
0.00010112
-0.000713112
3.80724e-05
3.79785e-05
0.000820977
0.000343581
-0.00116456
-7.88088e-06
-2.11496e-06
3.53226e-05
-1.20054e-05
3.30604e-05
-2.7746e-06
-3.17486e-06
5.95081e-06
-6.26609e-06
-8.87871e-06
0.00380669
-0.00719889
0.000488978
-0.000556773
8.82087e-06
2.7512e-05
5.0427e-05
-8.82262e-06
-1.14804e-05
2.03026e-05
0.00793854
-0.00702238
-0.000916137
-0.000117588
-0.000155852
-0.000114651
2.91545e-05
2.86628e-06
7.41433e-06
1.20648e-06
7.92349e-05
-6.16599e-05
-0.0029457
4.28316e-05
1.86558e-05
-3.9321e-06
-1.47238e-05
-0.000835147
-0.000957051
-0.00107373
0.00144411
-0.000370389
5.30756e-07
3.09537e-07
-8.40183e-07
-0.000237014
-3.70498e-05
0.000274061
1.23039e-05
-5.6215e-06
-6.68059e-06
-0.00611587
0.00493923
0.00117658
-8.96818e-06
1.43384e-05
-5.37086e-06
1.51331e-05
-8.24794e-06
0.000747505
0.000630536
-0.00137799
5.2296e-05
-6.23537e-06
0.0120178
-0.0216783
0.00020418
-0.000427886
1.53683e-05
-7.64917e-06
-0.0038124
0.00472622
-0.000913795
0.00338545
-0.00154426
-0.00184121
0.0112994
-0.012069
-1.04059e-05
-6.31021e-06
6.15277e-05
-1.13121e-05
1.48414e-05
0.000746956
-0.000540482
4.24509e-05
1.30461e-05
-1.6397e-05
3.34669e-06
-0.0026085
0.00249267
0.000115936
3.12666e-05
0.000992573
0.000705779
-0.00169837
-0.000392558
0.00564642
-0.0491841
-2.44596e-05
-3.93529e-05
6.3814e-05
4.12353e-05
-0.000136517
9.52855e-05
1.42412e-05
4.41485e-06
0.0379274
-0.0260054
0.000313253
-0.000154871
-0.000158379
0.00017637
0.000103642
-0.000280007
-0.000347719
-0.000300722
0.000648526
5.03467e-05
3.96556e-05
-0.000667051
0.00141456
-0.00989725
0.00247093
-0.0139848
0.00882981
0.00515507
0.00543961
0.00661862
-0.0120583
-0.00876585
0.0142054
4.10142e-05
3.80583e-05
-2.02314e-06
1.22784e-05
-0.000158152
0.000737843
9.43374e-05
-8.517e-05
-0.00038169
0.000167735
-9.85616e-06
6.41003e-06
0.00818037
-0.00527978
-0.00290051
-1.74729e-08
-8.01797e-07
1.72762e-05
-3.51862e-05
1.7908e-05
0.00312597
0.00983381
3.29792e-06
-3.82896e-06
5.31142e-07
-0.000203416
0.000692403
2.80486e-06
-8.19354e-06
-0.000947614
-0.00166081
-0.00099876
-0.0013403
1.56114e-05
-1.12991e-06
4.51747e-05
5.73672e-06
-0.000173545
0.000153186
2.03574e-05
-0.00184215
0.0019864
-0.000144271
-0.00225912
-0.000442831
-0.000921998
0.00277867
-0.00185662
-0.0044353
-0.000506738
9.79481e-05
-8.45783e-05
0.000250129
2.72842e-05
4.07925e-06
-7.80718e-07
4.79027e-06
-8.62665e-06
3.83557e-06
0.00035119
-0.000522087
0.000170897
-0.00858387
0.0145695
-0.00598574
0.00183985
-0.000538498
1.01861e-05
-0.000206599
0.000757445
-0.000550853
1.75628e-06
5.25831e-06
-7.01424e-06
-0.000754083
0.00610379
-0.00534993
0.00579616
0.0268881
-1.49179e-05
-1.20051e-05
1.23305e-05
-2.11539e-05
-6.92982e-05
-0.000260813
2.27574e-06
7.50569e-05
-7.73382e-05
2.13594e-06
-1.14187e-06
1.43252e-05
2.35963e-06
0.00348073
0.000190981
1.82975e-05
-0.000209275
7.70419e-05
-0.000170506
5.54982e-05
9.58231e-05
-6.76459e-06
6.69577e-05
-6.01955e-05
-8.26296e-05
0.000210107
-0.000127467
0.00137082
0.00201465
0.00234089
-0.000415948
-0.00192491
1.11805e-05
-4.96224e-06
-6.21578e-06
1.67535e-05
-1.67535e-05
-0.00048243
-0.000590948
0.00107338
-2.86106e-06
-8.76066e-06
2.04562e-05
-4.49155e-05
-8.43958e-05
-0.00120444
0.00128879
0.000108115
0.000121857
-0.000229964
3.37374e-06
6.46485e-06
-9.83827e-06
0.00024633
-0.000122499
0.000383759
-0.000351352
4.63224e-06
3.60899e-06
4.22485e-06
6.95626e-06
9.56909e-07
-1.30996e-05
0.0253784
-0.00748938
-0.0178891
5.1253e-06
-2.4492e-07
-4.87979e-06
0.0051667
0.00301361
1.03661e-05
-4.96618e-05
3.9296e-05
-0.00585666
0.00204434
-0.000189393
0.000393564
9.79104e-06
-3.78737e-05
1.02083e-07
-1.70663e-05
0.00102264
0.00128715
-0.000104197
-1.47895e-05
0.000118991
0.000151402
0.000232136
-1.53795e-06
8.67037e-06
-7.13045e-06
0.000157633
4.98788e-05
-0.000207511
-0.000149962
-0.00328865
0.0034386
-0.00230653
0.00147135
0.0013632
0.00645301
-0.00781625
-1.09064e-05
8.89672e-05
-7.80582e-05
9.11223e-06
-4.32065e-06
7.22097e-06
1.12408e-05
-0.00457215
0.00442217
-2.06308e-06
2.51783e-06
-4.54672e-07
0.00733049
-0.0052736
-0.00205694
-2.60548e-06
-8.28107e-05
7.19055e-05
-1.67039e-05
1.70871e-05
-3.84101e-07
-3.98383e-05
2.34133e-05
-0.00172431
0.00235787
-0.00420095
3.23905e-05
-2.66632e-05
-5.74026e-06
0.0207157
-0.0127135
5.30839e-05
-2.46983e-05
-2.83847e-05
2.46109e-05
-9.61524e-06
-6.54838e-06
-1.63298e-06
0.000496691
-6.80309e-05
-8.107e-06
9.86326e-06
-0.0113521
0.00276824
-0.000545188
0.000691855
-0.000146669
-0.00162142
-9.9583e-07
0.00162241
-2.57818e-05
1.01691e-05
1.56127e-05
-1.2543e-05
-1.07053e-06
3.50875e-06
1.55322e-05
-3.98837e-07
-1.35482e-05
3.14378e-06
0.00215126
1.3821e-05
-1.03673e-05
-3.45439e-06
-4.19445e-06
-0.000208245
0.000125623
0.00471896
-0.0218593
3.74339e-05
7.74247e-06
-6.78049e-05
7.00863e-05
-3.00336e-05
3.01043e-06
2.7023e-05
-0.00241547
-0.014241
3.40671e-05
-0.000579263
0.0114522
0.0048508
-0.016303
0.000341928
-0.000824356
-0.000210811
-0.000102227
-9.45235e-06
3.65536e-06
-4.73324e-06
0.000681321
-0.00193479
0.00809616
-0.00618159
-0.00191467
0.000644126
-9.10987e-05
-1.6114e-05
1.70705e-05
0.0139092
0.0171454
-0.0310547
-0.0375734
0.0427437
-0.00517041
0.0146792
-2.53685e-05
-6.87499e-05
0.000278632
-0.000120998
-4.5655e-05
1.96622e-05
2.59929e-05
0.000115627
0.00275057
-0.00286624
0.000315793
-0.000184001
-0.000131791
8.08911e-05
-3.05383e-05
-0.000394796
-0.000111947
-7.86761e-06
6.33144e-06
0.00033875
-2.99524e-05
-0.000308794
0.0064639
0.000866536
1.34604e-06
3.10521e-05
5.26583e-05
5.59645e-06
0.000128715
0.0001305
0.0328145
-0.0207967
-0.000485642
-0.00198518
0.00126139
-0.000447402
-0.00262235
0.00295532
-0.000332968
1.40199e-05
-1.67293e-06
-0.0059098
0.00279895
0.00311082
0.000354696
0.00352392
-0.00387862
-0.0194095
0.0333187
-0.00373006
-0.0013221
0.00505217
-0.00913394
0.00232426
0.00680968
-4.45344e-05
0.000157673
-0.000103117
-0.000291657
-0.00239836
0.0024394
-2.19115e-05
-4.37453e-05
6.56432e-05
-0.00019755
2.67651e-05
0.0117728
-0.0493461
-3.05403e-05
3.47373e-05
-4.19222e-06
-0.000123975
-0.000121333
-0.00036197
0.000141541
-0.000407756