/*--------------------------------*- C++ -*----------------------------------*\
| =========                 |                                                 |
| \\      /  F ield         | OpenFOAM: The Open Source CFD Toolbox           |
|  \\    /   O peration     | Version:  v2012                                 |
|   \\  /    A nd           | Website:  www.openfoam.com                      |
|    \\/     M anipulation  |                                                 |
\*---------------------------------------------------------------------------*/
FoamFile
{
    version     2.0;
    format      ascii;
    class       volVectorField;
    location    "300";
    object      ddtCorrDdt0(U);
}
// * * * * * * * * * * * * * * * * * * * * * * * * * * * * * * * * * * * * * //

dimensions      [0 1 -2 0 0 0 0];


internalField   nonuniform List<vector> 
27915
(
(-0.000128988 0.000722976 5.40555e-21)
(0.00280376 0.00461091 -7.63054e-21)
(-0.00247848 -0.00128603 0)
(3.97071e-05 2.25522e-05 1.30482e-21)
(4.84977e-06 -0.000166468 1.2133e-22)
(-0.000558686 -0.000466679 3.27479e-21)
(-2.68032e-06 -7.43517e-06 1.98947e-22)
(-0.00034145 -0.000794136 -3.46167e-21)
(-4.89362e-05 -0.00011353 0)
(-0.00660961 -0.00272405 -4.92401e-21)
(8.93418e-06 -0.00283221 1.75089e-21)
(-0.134964 -0.105409 0)
(-0.0130241 0.0765248 1.1707e-21)
(2.05447e-06 -2.01853e-06 -1.47673e-22)
(0.000805999 0.000558353 4.44281e-23)
(4.29744e-05 3.19195e-06 -1.89908e-21)
(0.0336496 -0.0626768 2.48846e-21)
(9.77922e-05 6.2751e-05 -6.31658e-22)
(-0.00245601 -0.000963009 0)
(-0.000348923 -0.000720369 -1.09962e-21)
(-0.027028 0.087431 1.28738e-21)
(0.000260228 0.000216061 0)
(0.109543 0.067193 3.94412e-21)
(8.9148e-05 4.10719e-05 4.72794e-21)
(4.30849e-05 4.65157e-06 1.72221e-21)
(2.95412e-05 -1.90983e-05 -2.26538e-21)
(0.0511312 0.00711831 -2.05536e-21)
(-8.99813e-06 -0.000154689 5.46969e-22)
(-0.00161518 -0.000296764 0)
(0.000134577 -9.16994e-05 -1.7827e-24)
(5.08675e-05 3.94065e-05 0)
(-0.00411615 -0.000459148 0)
(2.10426e-05 -1.64055e-05 -4.4784e-22)
(2.11857e-05 1.4567e-05 -4.51618e-22)
(-0.0119487 0.0308723 -7.21304e-23)
(2.00646e-05 1.3505e-05 0)
(2.24641e-05 -2.73537e-06 1.03379e-21)
(3.01693e-05 -1.68907e-05 2.42945e-21)
(0.0128397 0.0163445 1.62939e-21)
(4.40811e-05 4.32166e-05 -1.15384e-21)
(-0.000976297 -0.000640935 1.8848e-21)
(2.36908e-05 -2.59898e-06 -1.1328e-21)
(-0.00941625 0.00283903 0)
(3.66938e-05 -3.04381e-06 -1.94924e-21)
(0.00437463 0.167826 -1.52055e-20)
(3.93131e-05 4.61519e-05 -6.0924e-22)
(5.17447e-05 -4.0982e-06 -1.35507e-21)
(0.00745824 0.00204421 1.50804e-21)
(2.74077e-05 -2.79173e-06 -8.62023e-22)
(-8.79482e-05 5.02743e-05 -1.68336e-21)
(-0.000725609 -0.000774235 0)
(0.000512879 -0.0270996 -1.38145e-22)
(-0.0304543 0.00678619 1.43704e-20)
(6.86845e-05 -0.000156287 0)
(0.000214397 4.39679e-05 1.69644e-21)
(5.14759e-05 -2.90776e-06 0)
(2.37212e-05 3.72668e-06 0)
(0.00395228 0.0817369 7.58221e-22)
(0.0143315 0.0696523 -4.81834e-22)
(4.8927e-05 3.687e-05 1.84678e-21)
(-0.0160168 -0.0608488 0)
(0.000281617 0.00242939 3.52937e-21)
(-0.0126682 0.172295 7.62257e-21)
(0.0063079 -6.26005e-05 0)
(2.56476e-05 2.98397e-06 -3.726e-21)
(0.012685 0.0185983 -9.44711e-22)
(-0.133506 -0.113675 -3.5523e-21)
(-0.000748324 -0.000733561 -8.30222e-21)
(-0.0128662 0.0278205 -5.40883e-21)
(2.36774e-05 4.73417e-07 0)
(0.0102031 -0.000342154 -1.93951e-21)
(9.19702e-05 3.62585e-05 -3.01658e-21)
(9.55841e-05 6.52433e-05 1.59366e-21)
(-0.0120627 0.0197724 0)
(-0.00771903 -0.00237845 0)
(0.0176818 -0.00271574 3.80157e-21)
(0.000118503 -9.31305e-05 1.5968e-21)
(1.24974e-05 1.1837e-05 -6.6075e-22)
(0.00851663 -0.066821 1.67098e-21)
(-0.0163637 0.0090545 -1.81167e-21)
(-0.000507983 -0.000417892 2.79756e-21)
(0.000147438 0.000153678 1.31814e-21)
(0.000472217 -0.000493264 0)
(-0.000344112 -0.00366971 -8.82455e-21)
(0.0444954 0.0517956 0)
(-0.0630103 0.168653 0)
(2.26461e-05 1.18492e-05 0)
(-0.00902222 0.00236518 -5.63085e-21)
(0.0270015 0.113686 7.04733e-22)
(-0.0128098 0.00818825 -2.59419e-21)
(-8.10605e-05 -0.000101489 -1.9186e-21)
(-0.018608 0.037024 -5.03399e-22)
(-6.93475e-05 3.59335e-05 2.87278e-22)
(0.0714529 0.00992112 -3.15384e-21)
(-0.000147035 -0.000168916 -3.32196e-21)
(-0.00259293 -0.00141947 0)
(0.0313731 -0.0280645 1.00789e-21)
(-0.00528826 -0.003057 2.20152e-21)
(0.000526492 0.00234268 -1.53725e-21)
(7.62564e-06 -1.10766e-06 -3.46983e-23)
(0.000260212 0.00029134 0)
(2.935e-05 -1.76954e-05 -1.47669e-22)
(-0.00533343 -0.00298182 1.32922e-21)
(0.00160562 2.34769e-05 -1.46058e-21)
(-0.00183421 -0.00176994 0)
(0.000167918 0.000148316 1.07134e-21)
(0.0551632 0.03744 -3.11039e-23)
(-0.0160699 -0.0166616 6.11267e-22)
(3.00639e-05 -1.56165e-05 -5.3045e-22)
(-0.00400519 -0.00242346 2.72762e-21)
(0.00928305 0.0362119 -3.47617e-21)
(-0.00082396 -0.00068503 3.61728e-23)
(-0.00453245 -0.0220865 -6.50495e-24)
(0.0516279 0.00939572 5.76069e-21)
(-0.016147 -0.0146022 3.0789e-22)
(-0.00223276 -0.0270222 1.05742e-22)
(0.0643446 -0.0789865 0)
(-0.00375768 -0.000287617 0)
(0.00155859 -0.000199907 7.18202e-22)
(2.79093e-05 -3.41255e-06 -1.64257e-21)
(-6.36528e-05 -9.34019e-05 -1.52754e-21)
(-0.00516967 -0.0197219 -7.67994e-22)
(2.14397e-05 -1.40079e-05 0)
(0.000282217 0.000198188 2.41756e-21)
(1.17854e-05 -1.22034e-06 0)
(-0.0582662 0.153182 -3.23645e-21)
(-0.0762134 0.103169 -9.09723e-23)
(0.00469238 -0.000558909 0)
(6.85853e-05 3.98378e-05 0)
(0.000133057 5.17054e-06 -5.55697e-22)
(0.00103502 0.00246211 0)
(0.0476376 0.00495011 5.37017e-22)
(0.0738415 0.00682084 0)
(-0.00841708 0.00323296 0)
(0.00426261 -0.135168 2.67674e-22)
(-0.00430592 0.0182396 -3.69227e-21)
(-0.0821874 -0.0154647 -1.82639e-22)
(2.50802e-05 2.58489e-06 8.23887e-22)
(0.000135329 -5.93491e-05 -6.60373e-22)
(-4.86259e-05 -6.75596e-05 8.36316e-22)
(2.3239e-05 5.71971e-07 0)
(0.000220867 6.81409e-05 -1.97341e-21)
(2.65035e-05 -4.20169e-07 -1.17667e-21)
(-0.00266798 0.013593 0)
(0.0109406 0.0440203 0)
(-0.000993453 -0.000806379 4.72492e-21)
(-0.00613418 -0.000336894 -9.12952e-21)
(0.00670197 0.00174858 1.3935e-21)
(0.0192031 0.000589593 0)
(0.000528397 -0.000449025 2.41646e-21)
(0.0713573 -0.0716974 0)
(2.52514e-05 8.14438e-07 -8.37468e-22)
(0.0339123 -0.00977385 9.77166e-22)
(-0.027357 -0.0468835 0)
(0.0226914 -0.0481279 0)
(-0.00763373 0.00103761 0)
(-0.00334838 0.0154208 4.52514e-22)
(2.82903e-06 4.98316e-07 -3.04692e-24)
(-3.32024e-06 -7.60851e-07 0)
(2.42758e-05 1.14079e-06 2.60436e-22)
(0.023147 0.0102607 -1.94992e-21)
(-0.00933386 -0.00670922 1.32069e-21)
(3.45004e-05 5.36175e-05 1.14918e-21)
(-0.00404785 0.0145541 -3.72664e-21)
(0.00355657 0.00950489 -1.3431e-22)
(2.52541e-05 4.8941e-05 0)
(0.0343829 -0.0128128 1.80555e-22)
(0.0691998 -0.0483444 -2.19167e-22)
(-0.00723573 -0.00252079 2.50732e-21)
(1.88896e-05 -1.51393e-06 -9.59594e-22)
(-0.00311709 0.00592793 1.50944e-21)
(9.72739e-05 7.17326e-05 4.57378e-21)
(1.23202e-05 -1.02079e-06 0)
(0.00748705 0.00288384 0)
(3.83333e-06 -1.3472e-05 -8.19719e-23)
(0.0010571 -0.0153298 -1.19319e-20)
(-0.00390644 -0.00232572 1.71633e-21)
(0.001271 -0.000251193 4.3176e-23)
(2.00236e-06 -3.30321e-06 1.40095e-23)
(-0.0147839 -0.00571116 0)
(0.0355636 0.11604 5.60216e-21)
(-0.0110836 0.00066117 1.55339e-21)
(2.56299e-05 -7.62113e-07 0)
(-0.00125061 -0.000832402 0)
(-0.00270599 0.0190607 0)
(0.0357125 0.0369369 2.2824e-21)
(9.38764e-06 -3.54792e-06 0)
(-1.22411e-05 -1.16271e-06 0)
(-0.000753899 -0.000495136 -2.42166e-21)
(2.32685e-05 1.08657e-05 -1.2961e-21)
(0.00411084 -0.00181656 0)
(-0.00199288 -0.00458669 7.51058e-22)
(0.0301788 0.0093319 -2.79896e-22)
(0.00122264 -0.000416302 -7.56997e-22)
(3.02684e-06 -1.35024e-05 -3.76414e-24)
(4.14543e-05 2.15793e-07 -1.43919e-21)
(0.0403263 0.0327159 -3.0141e-21)
(-0.00331588 0.0178892 -1.20245e-22)
(1.80962e-05 4.58516e-07 -8.64176e-22)
(0.000142429 -0.000617094 0)
(-0.0304953 0.0151303 -1.18088e-20)
(0.0721056 -0.075361 3.10447e-21)
(3.58859e-06 6.82323e-07 0)
(1.00807e-05 -1.74409e-06 -6.58514e-22)
(0.00149492 -0.0134478 1.37493e-22)
(-0.00639043 -0.000455176 6.63379e-21)
(0.0101526 -0.00307317 2.09693e-21)
(-0.00202104 -0.0111966 1.80407e-21)
(0.0769282 -0.00278203 0)
(-5.62231e-05 -0.000128435 0)
(0.000353515 -0.000594149 -9.99533e-22)
(0.013507 -0.131696 -2.14314e-21)
(2.01993e-05 4.45728e-08 0)
(2.03397e-05 5.74389e-06 4.0002e-21)
(1.28845e-05 -5.48345e-07 -8.92442e-23)
(2.70879e-05 2.61083e-07 1.95258e-23)
(-0.00297634 -0.00989194 -1.7904e-21)
(0.0174084 -0.0468622 1.59976e-21)
(0.000144921 -1.46253e-05 2.83447e-22)
(0.000159781 0.000121507 0)
(8.24481e-05 2.04497e-05 -8.99959e-22)
(0.0019758 0.00281557 3.21142e-23)
(0.000228927 2.47036e-05 -9.38573e-22)
(-1.12764e-05 -7.48848e-07 0)
(-0.00202718 -0.000427028 0)
(0.0495755 0.00308802 0)
(3.79539e-05 -1.13642e-05 0)
(-0.102902 0.280718 -2.94421e-20)
(0.000163573 -6.32485e-05 -6.4845e-22)
(8.47638e-06 -3.29566e-05 -5.40221e-22)
(-0.00897737 -0.000380445 2.69831e-21)
(0.007532 -0.00187409 4.08258e-21)
(0.00826728 -0.12453 3.12342e-21)
(0.0776076 -0.0380686 0)
(-0.0332258 0.0743311 -1.52855e-21)
(-0.00201201 -0.00237712 3.95308e-23)
(-0.00389837 -0.106898 -2.58452e-21)
(2.68734e-05 1.7727e-06 0)
(2.75973e-05 -1.72435e-07 0)
(1.88474e-05 1.99101e-05 0)
(-0.103328 0.268547 -1.0843e-20)
(-0.000177627 -0.000534519 0)
(0.00931499 -0.00197464 -1.55576e-21)
(0.077349 -0.0676866 -7.32466e-21)
(6.61013e-05 3.88991e-05 3.23485e-21)
(3.26623e-06 -3.64223e-06 0)
(-0.0254902 -0.046438 0)
(0.00329819 -0.000163525 -3.6418e-21)
(-0.00279643 -0.00138943 9.98927e-22)
(0.0318316 0.00806932 0)
(0.000199768 0.000141173 7.29036e-21)
(-0.00319937 -2.89963e-05 0)
(1.7192e-05 -5.0435e-06 0)
(5.2464e-05 3.87434e-05 0)
(0.000170774 0.000111022 0)
(0.0279845 -0.0317993 0)
(-0.000152948 0.000634493 -5.53116e-21)
(0.000176791 8.79514e-05 -8.60929e-23)
(0.00178017 -0.00305041 -4.18426e-21)
(0.0544213 0.0349852 -7.23161e-23)
(-0.00728738 -0.0017464 0)
(0.00153165 0.00555768 -4.07886e-21)
(-0.0212587 0.0180167 3.37401e-22)
(-0.0241833 0.030563 2.62659e-21)
(-0.0246208 0.0173188 9.80688e-24)
(-0.00129269 -0.00580877 0)
(3.23748e-05 -2.01371e-05 4.55462e-22)
(0.00380702 -0.00156534 -6.48389e-21)
(-0.00304123 9.62331e-05 0)
(0.0194461 0.0391667 0)
(-0.00039853 0.00196055 1.40786e-21)
(-0.00178359 -0.000513781 0)
(-0.00443497 -0.0101198 1.18533e-21)
(0.0101616 -0.00355562 1.16465e-20)
(-0.00242708 -0.00140348 -1.3698e-21)
(3.2981e-05 -2.05518e-05 0)
(0.00186794 0.000454045 -6.40129e-22)
(-0.000146762 -0.000481298 -1.7616e-21)
(2.33558e-05 -3.50918e-05 0)
(0.000265997 0.000169239 -3.77972e-21)
(0.000128999 -3.42615e-05 0)
(6.49421e-06 1.2421e-05 0)
(1.25832e-05 1.34621e-05 5.13063e-22)
(0.00664034 -0.00293575 2.33573e-21)
(-0.0790741 0.108556 0)
(-0.00357183 -0.00227273 7.73098e-21)
(-0.0316024 -0.0320231 1.06792e-20)
(-0.0888445 0.226764 -2.49607e-20)
(0.000114941 -0.000121185 -1.59191e-21)
(0.0020922 -0.00234049 0)
(0.0150279 0.0379818 0)
(9.37158e-05 5.52515e-05 6.67673e-22)
(-0.00917826 -0.0105594 -1.36917e-21)
(3.45671e-05 -1.59712e-06 0)
(0.00191657 0.00019029 -1.89961e-22)
(0.0014902 0.00506484 0)
(-0.0710078 0.124451 1.36175e-21)
(-0.108589 0.0388249 2.19734e-21)
(0.00670921 0.000819092 -1.31846e-21)
(2.07705e-05 4.93834e-06 -2.32519e-21)
(-0.0653344 0.0148357 2.1092e-21)
(-0.00150744 -0.00836478 4.75413e-23)
(-2.16162e-05 -9.70776e-05 1.24339e-21)
(1.7763e-05 3.12058e-07 5.7537e-22)
(-0.0716695 0.154739 -3.24275e-22)
(-0.00900735 -0.0829332 -1.80206e-21)
(0.000132551 -0.00068651 0)
(1.11116e-05 7.58848e-07 0)
(0.0135739 -0.0640183 5.8919e-21)
(-0.00109485 0.00230892 -5.19324e-24)
(-0.103578 0.261648 -2.04186e-20)
(3.78822e-05 5.66123e-05 -1.59726e-21)
(-0.00661299 0.0463968 -6.72507e-21)
(0.000185645 6.76973e-05 -1.27269e-21)
(-0.107821 0.266814 2.67852e-20)
(1.79596e-05 -1.46578e-06 -1.10967e-21)
(7.97701e-06 2.3798e-08 -1.60698e-23)
(-0.00144878 -0.00323259 0)
(0.0058167 -0.000528359 0)
(-0.00905426 -0.000584228 0)
(0.0058921 -0.00540497 9.9677e-22)
(-5.10918e-06 -1.80592e-05 0)
(3.52739e-05 -2.16817e-05 -2.89798e-21)
(8.08836e-05 -1.58586e-06 0)
(-0.0175041 0.0143689 -1.74274e-21)
(-0.00232736 -0.00741761 0)
(-0.00840003 0.00541116 0)
(-0.00148959 -0.000374985 -3.04945e-21)
(5.88916e-05 1.25122e-05 3.5197e-21)
(-4.90151e-06 -5.15675e-05 -1.30276e-22)
(4.19095e-05 -1.90075e-05 1.12375e-21)
(0.00709611 -0.00464801 -2.47793e-21)
(8.91779e-05 6.08962e-06 0)
(-3.83879e-05 -0.000106179 -1.56773e-21)
(0.00217666 0.145422 1.04827e-20)
(8.43887e-06 -1.87599e-06 0)
(0.0113531 -0.0375613 0)
(1.72353e-05 -3.70352e-05 0)
(-0.00751577 -0.10374 6.21767e-22)
(0.0135729 -0.00851064 -1.20921e-20)
(9.73902e-05 -0.000125033 2.96196e-21)
(-0.019231 -0.0342042 0)
(0.00589506 -0.000469378 -1.21259e-22)
(-0.0265471 0.0190926 1.88325e-21)
(7.11752e-06 -3.40687e-06 0)
(0.000603667 -0.00116375 0)
(3.90513e-05 5.46709e-05 -1.4843e-21)
(-0.0916321 0.111991 4.46995e-22)
(-0.00359739 -0.00239332 -6.00931e-21)
(9.5933e-05 4.99808e-05 -5.26545e-22)
(7.7088e-05 -9.05146e-06 -1.09423e-21)
(1.08763e-05 1.47937e-05 0)
(-0.0480317 0.150753 2.20657e-21)
(-0.017785 0.0112959 2.59117e-22)
(0.00194844 -0.000977849 0)
(-0.00411546 0.0162456 -7.9867e-21)
(-0.00414979 0.00845178 6.78444e-22)
(4.41523e-05 1.95632e-05 2.53467e-21)
(5.13957e-05 4.61047e-05 -8.48044e-22)
(0.0001405 -0.00848096 -2.02286e-22)
(0.00220938 0.00120649 4.62045e-21)
(-0.000778601 0.00192878 -2.21487e-21)
(-6.30116e-05 -0.000242357 -1.00435e-21)
(5.57216e-06 -5.57261e-06 -1.75357e-22)
(0.000707943 -0.000503755 -8.65637e-22)
(-0.0129295 -0.0226432 -6.52495e-21)
(-0.00560681 -0.000967456 0)
(1.44643e-05 -4.26681e-05 -1.98942e-23)
(4.97747e-05 4.02564e-05 2.68532e-22)
(3.49878e-05 1.45329e-05 1.42546e-24)
(-0.00265239 -0.000536974 2.97781e-21)
(6.68463e-06 -1.01188e-05 -1.37355e-22)
(0.00502014 0.00266353 0)
(3.45177e-05 -7.66304e-07 1.2831e-22)
(-0.00173106 -0.000966353 -3.01803e-21)
(6.4459e-06 -8.90448e-06 -9.07692e-23)
(7.62291e-06 -3.07142e-05 0)
(-0.00121153 0.000987109 1.35756e-23)
(-0.0071571 0.000589724 1.77989e-21)
(2.54246e-05 1.07959e-06 -1.96253e-24)
(-0.000882106 -0.000767252 0)
(-0.00297913 0.00582056 -9.34706e-21)
(0.00212163 0.00304485 -1.74714e-21)
(0.0327378 0.014692 -8.81849e-21)
(-0.0022051 0.0122857 6.40873e-21)
(0.00194388 -0.00270863 1.09876e-21)
(-0.00781224 -0.0543599 0)
(-0.00292314 0.00622583 1.03693e-20)
(-6.38691e-05 -7.46243e-05 -8.89347e-22)
(-0.00221609 0.0105512 -6.7611e-21)
(3.29873e-05 4.15036e-05 -5.44115e-21)
(-0.00762811 -0.0671103 0)
(-0.0027558 -0.00230496 0)
(3.62323e-05 -2.50076e-05 -1.66011e-21)
(-0.0060906 -0.00286172 -3.73277e-21)
(0.00210681 0.00399251 6.45727e-21)
(-0.00495145 -0.000841375 1.05597e-21)
(2.22945e-05 1.70976e-06 -2.22617e-22)
(4.62995e-06 -2.09423e-06 1.80165e-22)
(0.0245869 0.120096 0)
(4.4255e-05 4.50185e-05 1.35825e-22)
(0.000766183 0.0026141 -9.60399e-22)
(0.000636565 -0.000191277 6.28797e-21)
(4.55636e-05 6.63019e-05 -3.56422e-21)
(-0.0637826 0.00258228 -3.08459e-21)
(0.00331885 0.00141006 0)
(0.0171096 -0.0191943 5.30887e-22)
(2.40562e-05 3.55401e-06 1.72167e-21)
(-0.000321418 -0.133414 -1.12898e-22)
(0.0107458 -0.0024634 -3.23564e-21)
(-0.00104822 -0.00064058 2.32171e-21)
(-0.00805772 0.000991279 -1.64878e-21)
(3.66234e-05 -2.32807e-05 1.29701e-21)
(-5.96038e-06 -3.67757e-06 4.84197e-25)
(-0.134233 -0.0866163 -2.64756e-20)
(8.82658e-05 1.44421e-05 -6.79075e-24)
(-0.0129543 -0.0117221 -1.54919e-21)
(-0.00199242 0.000793119 1.49541e-21)
(0.00203892 0.00361741 2.98263e-21)
(0.00398803 0.00197558 1.30416e-21)
(0.0122696 -0.0405216 -1.3122e-21)
(1.92535e-05 1.34368e-06 7.30019e-22)
(0.000268717 0.00024723 -6.13042e-21)
(0.00255753 -0.000145379 0)
(0.0751537 -0.0500465 -8.42486e-21)
(-0.00275552 0.00129437 -1.87612e-22)
(1.71363e-05 -4.01816e-05 1.76702e-22)
(-0.00705508 -0.0800995 0)
(0.000454439 -0.000774958 0)
(0.000407507 0.000480338 6.58098e-22)
(-0.00627863 0.0127766 0)
(-0.00252029 0.000851556 0)
(0.0431085 -0.0078557 -2.18609e-21)
(0.000326438 -0.000394835 1.92654e-21)
(2.28905e-05 -3.43074e-05 -1.31117e-21)
(7.27092e-06 2.92097e-06 0)
(6.00625e-05 2.39372e-05 1.79728e-21)
(3.57182e-05 2.8107e-06 2.98576e-21)
(-0.01879 0.00610196 0)
(-0.00283789 0.00332157 3.11074e-21)
(0.0201713 0.0367922 0)
(0.0199822 -0.0239078 -1.03547e-21)
(0.00644706 -0.0143199 0)
(0.00950865 -0.000245125 7.49369e-22)
(1.04782e-05 -3.36804e-06 -2.60699e-22)
(0.00362974 -0.000566511 -2.10718e-21)
(-0.000248459 -0.0002753 0)
(4.58185e-05 6.16756e-05 -1.8458e-21)
(-0.00905697 0.00707031 0)
(4.58691e-06 -1.55253e-05 0)
(-0.0925291 0.136524 0)
(-0.00272443 0.014789 3.74354e-21)
(2.68941e-05 -6.94764e-06 -1.50754e-21)
(3.49075e-05 2.82113e-06 2.59267e-23)
(0.00615363 0.0351353 4.34224e-21)
(-0.0237846 0.0991721 -5.95479e-22)
(-0.00342606 0.0459833 1.37838e-20)
(0.000699779 -0.000708418 1.56225e-21)
(0.000527813 7.25041e-05 0)
(-4.52691e-05 -0.00021322 -8.58595e-24)
(3.45673e-05 -2.17934e-05 2.0489e-21)
(2.44323e-05 7.76353e-07 6.3225e-21)
(0.0496284 -0.0649395 -1.32086e-21)
(-1.79125e-05 0.00412316 -1.08026e-21)
(-0.00351903 -0.000460926 5.73753e-21)
(0.00256842 -0.00519261 -6.91397e-21)
(1.0707e-05 -2.79123e-07 -2.46186e-22)
(3.79291e-05 -1.1547e-05 2.27553e-21)
(-0.0280829 -0.0557122 -1.58131e-21)
(0.0346051 -0.00465644 2.11631e-21)
(3.67545e-05 -2.18006e-06 2.0827e-21)
(0.00024651 0.000271486 0)
(-0.0155599 -0.00830834 0)
(8.16602e-05 4.94114e-05 2.02968e-21)
(-0.00671646 0.0154173 -1.5108e-21)
(-0.00242572 0.00523589 -1.31716e-23)
(3.71031e-05 -3.50128e-06 2.18573e-21)
(4.01321e-05 -1.71475e-05 0)
(-0.00837613 -0.00916706 0)
(0.000853503 0.00634178 0)
(-0.0144404 -0.0768682 0)
(-0.00180475 0.00372062 1.16189e-21)
(-0.0358039 -0.0299966 9.791e-21)
(0.0148749 0.0998919 -3.02807e-22)
(-0.0065731 -0.0431119 2.93356e-21)
(0.000278659 0.000149809 3.96527e-21)
(0.00202103 0.00260065 0)
(-0.013998 -0.00713315 2.98233e-22)
(-0.0118326 -0.00139254 0)
(9.82293e-06 -3.79909e-05 9.58266e-22)
(-0.0126919 -0.0894258 2.57328e-21)
(0.025958 0.0404527 1.01033e-22)
(-0.00864475 0.00667375 0)
(-0.00154058 0.00161545 2.03976e-24)
(-0.00373975 -0.000681667 0)
(1.10713e-05 -0.00257504 -4.69403e-21)
(0.00222656 0.00368726 3.94755e-21)
(0.00460113 0.0333174 0)
(-0.00255956 0.00674855 0)
(-0.000912216 -0.000393023 -2.59421e-21)
(4.10573e-05 -1.86234e-05 0)
(-0.00187372 0.000448948 4.91169e-22)
(0.00601559 -0.00984829 -2.64169e-21)
(-0.0113728 0.00641911 2.36219e-21)
(0.0644885 -0.0478003 -1.43409e-21)
(-0.00182289 -0.000403293 -1.31949e-21)
(4.05215e-05 2.15718e-05 -1.29445e-21)
(-0.00155082 0.00220296 7.24983e-22)
(0.0065269 -0.000289942 2.00267e-22)
(-0.077082 -0.0612211 0)
(4.45891e-05 -6.3054e-06 0)
(0.00864223 -0.00654696 -1.71498e-21)
(-0.00244238 0.00338098 4.99489e-21)
(-0.00147632 -0.000447129 0)
(0.00629448 -0.00059169 0)
(0.00217562 -0.00553991 -1.96325e-21)
(-0.010029 0.00455112 2.79006e-21)
(1.49672e-05 -4.27725e-05 -6.75248e-22)
(0.00447826 0.00275241 4.15595e-23)
(-0.000798913 -0.000891419 -1.58457e-21)
(1.84364e-05 5.18043e-07 -7.80211e-22)
(2.69041e-05 -4.5868e-06 -8.29285e-22)
(4.49851e-05 5.52505e-05 0)
(-0.00969535 -0.0631898 -2.95821e-21)
(-5.90318e-06 -1.62952e-05 0)
(0.00932661 -0.0430453 1.51728e-22)
(5.37242e-05 -0.000141259 0)
(-0.00173774 -0.00129662 2.19441e-22)
(-0.0154646 0.0813262 -8.7108e-22)
(-0.00070345 -0.000420863 0)
(6.12157e-06 1.37586e-05 1.27097e-24)
(0.0455261 0.122276 -4.00347e-22)
(-0.0100662 -0.000761934 6.11154e-21)
(0.00980202 -0.0160344 -3.56176e-22)
(0.0060651 0.000440772 0)
(-0.000498385 0.0164607 -1.59822e-21)
(-0.00283829 -0.0016975 3.77704e-21)
(0.000172 -9.91166e-05 1.31744e-21)
(0.00158448 0.00317493 3.28509e-21)
(5.81727e-05 2.28248e-05 -1.85193e-21)
(4.96871e-05 4.19111e-05 0)
(-0.0102885 0.0101258 4.0997e-23)
(2.40727e-05 8.60326e-07 0)
(-0.00417184 0.0752389 -8.2107e-22)
(0.00014097 0.000543923 0)
(0.00254515 -0.117447 4.13135e-21)
(6.9171e-05 4.92791e-05 -1.17204e-21)
(-0.0018447 -0.00158317 0)
(2.09081e-05 -3.78413e-05 0)
(0.00540987 -0.0252996 -4.10161e-21)
(4.83082e-05 3.74776e-05 -2.53798e-22)
(0.000106471 9.73749e-05 1.21538e-21)
(-0.00897377 0.00101562 6.62802e-22)
(-0.106073 0.242932 5.3848e-21)
(-0.00932531 -0.00738235 0)
(0.00107711 0.0102288 1.21832e-21)
(-0.0809704 0.084361 -2.40476e-21)
(0.00335423 -0.00247305 0)
(0.019253 0.039953 -4.18797e-22)
(4.704e-05 2.00687e-05 -2.86051e-21)
(0.0067193 -0.000485434 -5.57489e-23)
(-0.0071117 -0.00257534 5.38885e-21)
(0.00102181 0.0058238 4.31826e-21)
(0.000512854 -0.000390685 -2.89152e-21)
(2.35744e-05 3.11299e-07 0)
(0.000113653 0.000100006 -1.65585e-21)
(0.00300253 -0.0111438 -1.2825e-22)
(1.24719e-05 -4.48437e-05 1.37816e-21)
(-0.00626886 0.0136555 0)
(3.39701e-05 8.04445e-05 0)
(0.00240938 0.00496208 6.93541e-21)
(-0.0177154 -0.0684774 -2.01148e-20)
(0.00105877 0.00575668 4.16678e-21)
(0.0037296 -0.00207312 0)
(2.33066e-05 -1.21974e-05 -4.56828e-22)
(0.00590851 0.0413232 -9.78492e-22)
(-0.0176682 -0.0370534 0)
(0.00574366 0.0242267 4.87665e-21)
(-0.0236128 -0.0987206 7.86601e-22)
(6.3741e-06 -4.0261e-05 5.22119e-22)
(6.01031e-06 1.50056e-06 -8.4764e-23)
(0.00265874 0.00410427 -4.90305e-21)
(-0.00339423 0.00045022 2.57198e-21)
(-0.0018368 -0.0014817 0)
(-0.0152513 0.129893 7.58887e-22)
(1.60434e-05 1.16469e-07 -1.25669e-22)
(-0.000947603 -0.000478222 0)
(1.96801e-05 1.27149e-05 -6.03893e-22)
(-1.77692e-06 5.22978e-07 4.55989e-23)
(-0.00203353 -7.26296e-05 0)
(4.18555e-06 -1.71105e-06 0)
(3.10247e-05 5.52137e-05 -6.24024e-21)
(-0.0860171 -0.0104855 1.08917e-20)
(-0.00376033 0.000279968 0)
(0.0283215 0.0613532 2.27431e-21)
(-1.50296e-05 -5.64734e-05 0)
(-0.0207747 3.73042e-05 8.02658e-21)
(0.0356869 -0.0288863 -9.74465e-22)
(7.41153e-07 -3.31696e-06 6.53344e-22)
(2.38844e-05 8.21699e-06 -3.22139e-23)
(-0.00327499 0.0167677 -3.90282e-22)
(8.36515e-05 1.34863e-05 -9.4447e-22)
(2.78928e-05 -1.135e-05 -1.52258e-21)
(2.46032e-05 -4.14712e-07 -8.39648e-22)
(-0.0518363 0.0737753 -4.06498e-21)
(3.94477e-05 -1.56818e-05 2.07732e-21)
(0.00181318 -0.00571621 -1.7364e-21)
(3.23415e-05 2.78944e-07 0)
(2.72005e-05 3.8122e-06 1.38171e-21)
(-0.00782881 -0.000374654 -5.00397e-21)
(-0.0490443 -0.10778 9.67127e-22)
(2.80736e-05 -1.33017e-05 1.35237e-21)
(0.000326438 -0.00622041 -6.20389e-21)
(-0.0280393 0.00715409 -2.5807e-21)
(-0.00244932 -0.000360479 1.12329e-23)
(9.02263e-05 4.71316e-05 -1.004e-21)
(4.30634e-05 -2.07135e-05 -3.03812e-21)
(-0.0173598 -0.0180175 8.17019e-21)
(0.000249173 0.000309073 0)
(0.00710506 0.0266483 -6.05813e-22)
(7.00896e-06 -8.8111e-06 -2.68706e-23)
(0.000205946 3.13505e-05 2.56922e-21)
(2.34407e-05 9.0037e-06 -2.53268e-22)
(0.000621823 0.000507371 -3.90695e-23)
(8.99261e-05 2.91723e-05 -1.92316e-21)
(0.00022413 0.000922897 0)
(-0.00056265 -0.000322834 -2.72607e-21)
(-0.001992 -0.00298138 -2.67815e-23)
(2.39949e-05 -3.43565e-05 -7.22066e-22)
(5.02522e-06 -4.16127e-06 -1.65007e-22)
(0.0258831 0.0342223 0)
(-0.00220902 0.0136998 0)
(-0.00706047 -0.00189224 -8.02913e-22)
(0.00871426 1.36336e-05 7.60985e-24)
(-0.0196435 -0.0667991 8.09734e-21)
(-0.00614584 -0.068613 -1.82762e-22)
(0.00631527 -0.000409936 6.35675e-23)
(4.34111e-05 -2.18212e-05 1.88892e-21)
(-0.0255426 -0.0843543 0)
(-0.0154634 -0.0127531 -1.96421e-22)
(0.0316905 -0.0719399 0)
(3.23388e-05 4.5477e-05 2.88369e-21)
(-0.0508039 -0.0586897 5.33296e-21)
(3.57064e-05 7.46817e-05 0)
(2.06029e-05 -3.71738e-05 -1.3877e-21)
(-7.83057e-06 -1.35367e-05 0)
(0.00230808 -0.00542942 8.93806e-21)
(2.64077e-05 2.03373e-06 0)
(8.13018e-06 -5.62256e-06 0)
(0.000462851 0.000267063 -3.39724e-21)
(0.0240273 0.0384086 3.18951e-22)
(0.0402573 -0.0117979 -1.88719e-21)
(-0.00854685 0.00477997 3.39733e-21)
(0.0588706 0.0362487 2.49417e-21)
(-0.00173287 -0.00137949 0)
(-9.57032e-05 -0.000253693 0)
(-0.0270206 -0.0538636 -1.15174e-20)
(0.00913759 0.118104 8.41878e-21)
(0.0575715 -0.00125204 -1.8295e-21)
(1.21034e-05 -1.79163e-05 2.02193e-22)
(4.76777e-05 7.92883e-05 5.92377e-21)
(-0.0698232 0.00893083 7.04497e-21)
(2.33058e-05 -1.13345e-05 6.80309e-22)
(-0.0600976 -0.16836 7.07733e-22)
(-0.00245501 -0.000707299 0)
(1.7982e-05 -1.95724e-06 0)
(0.00941975 0.0705592 2.15136e-20)
(-0.0130854 -0.0134768 1.15923e-21)
(0.000226602 3.7479e-06 -1.13885e-21)
(-0.000745712 0.000121937 -1.31653e-21)
(2.64943e-05 -2.76929e-06 7.88568e-24)
(0.000140042 -0.000120666 0)
(-8.3042e-05 -0.000121193 2.06344e-21)
(2.60006e-05 3.75328e-06 1.59299e-21)
(1.55153e-05 -1.5882e-05 0)
(4.19386e-06 -2.04475e-06 -2.65022e-23)
(4.38696e-05 -8.08513e-06 0)
(-0.132723 -0.232229 2.257e-21)
(3.46285e-05 3.52015e-05 2.68854e-21)
(0.0073672 -0.000361016 0)
(0.000201799 1.34815e-05 2.27354e-21)
(-0.000758669 1.34401e-05 1.48664e-21)
(-0.0131283 -0.0144462 -2.39348e-22)
(7.56569e-05 0.000141809 1.38681e-21)
(0.000101412 -0.00121332 0)
(0.04922 -0.0756586 6.64923e-22)
(0.0139743 0.0653162 -2.11655e-20)
(2.31026e-05 8.17417e-07 1.6105e-21)
(3.66391e-05 -1.10886e-05 0)
(4.40921e-05 6.92541e-08 0)
(0.000858052 0.000772367 2.28876e-24)
(-0.0017816 0.0189554 2.16032e-21)
(5.53714e-05 9.57796e-08 -7.38236e-22)
(2.43629e-05 5.03276e-05 -4.26308e-22)
(-0.00235747 0.00866677 -2.65011e-21)
(2.70479e-05 -8.63862e-07 2.58514e-21)
(-0.0276276 0.172094 2.28165e-20)
(0.0154087 0.0457207 -2.34654e-21)
(-0.0017033 -0.000357899 0)
(3.78904e-07 -9.4226e-05 -8.11865e-22)
(-0.00686246 -0.0458567 -2.89867e-21)
(0.031769 0.0205427 0)
(-0.00223103 0.00386155 -3.72529e-21)
(1.93405e-05 1.52632e-07 0)
(-0.0295016 0.0273804 -1.50631e-21)
(-4.38519e-08 -0.000103467 1.22902e-23)
(-0.00242677 -0.000216186 0)
(-0.00220564 -0.00182929 0)
(3.82741e-05 -0.000789985 -1.08e-21)
(0.000445139 0.000291642 7.22635e-21)
(3.49987e-05 3.13581e-05 -2.58946e-21)
(4.91615e-05 3.95519e-05 1.98272e-21)
(4.28065e-05 2.02866e-05 -3.09183e-21)
(-0.00020084 -0.000712153 -3.07717e-21)
(0.00416867 -0.00124961 6.27047e-21)
(-0.0847649 0.136461 0)
(0.00213885 0.00380955 0)
(-8.2687e-06 -1.04686e-05 7.87594e-24)
(0.0001621 5.15153e-05 1.2866e-21)
(-0.00318501 -0.00338209 0)
(0.00186388 -0.000404072 -2.3385e-21)
(4.02767e-05 4.62919e-05 2.41506e-23)
(-0.049271 0.208043 5.52752e-21)
(1.96559e-05 -3.18155e-05 0)
(0.048432 -0.12548 0)
(-0.0027102 -0.0010922 -4.12754e-21)
(-0.0593682 0.11903 -5.28903e-22)
(8.7241e-05 6.09656e-05 2.84596e-21)
(0.0168741 -0.0259934 0)
(-0.0115215 -0.0638018 0)
(1.24944e-05 -2.69858e-06 -1.96938e-22)
(-0.00013582 0.000325954 1.2469e-22)
(0.0892202 -0.0182861 0)
(7.82419e-06 -1.72947e-06 0)
(-0.000323295 -0.000704664 -7.16844e-21)
(0.00769245 -0.00047888 0)
(-4.19069e-05 8.22369e-05 7.87162e-22)
(5.45734e-05 -0.000105148 2.80999e-21)
(-0.00962883 0.000214197 -2.99848e-21)
(-0.00129009 -0.00538019 -2.72763e-21)
(0.000246383 9.07765e-05 2.38961e-21)
(1.60352e-05 1.66371e-05 -9.21062e-22)
(-0.0188535 0.0848859 5.48821e-22)
(0.0858715 0.0104687 3.21804e-21)
(0.0589245 -0.000513849 0)
(-0.000990401 0.00214804 5.95228e-21)
(0.000201004 0.000120286 -5.66289e-21)
(4.13296e-05 -1.11769e-05 2.0661e-21)
(-0.0715072 -0.0111438 -1.89867e-21)
(4.05764e-05 2.27654e-05 -1.71714e-21)
(4.05988e-05 7.52231e-07 1.71728e-21)
(-1.88418e-05 9.05711e-05 1.44324e-24)
(1.85578e-05 -2.18706e-06 -4.00854e-23)
(-4.95496e-05 -7.02912e-05 -3.49628e-22)
(-0.000379181 0.000120887 9.01798e-22)
(-0.0745541 -0.020051 1.93504e-21)
(0.000868587 -0.00109413 0)
(0.0319263 -0.00731995 -5.29168e-21)
(4.16125e-05 2.85043e-05 -3.63091e-21)
(-0.0100608 0.0314771 0)
(9.13071e-05 0.000107476 2.17187e-21)
(-0.0100006 -0.000596109 -2.23699e-21)
(1.09948e-05 2.33609e-07 3.44638e-23)
(0.0443534 -0.137335 0)
(8.51542e-05 2.7952e-05 9.38616e-22)
(-0.00277134 -0.0015404 -4.11713e-21)
(0.000229438 0.00027539 2.39934e-21)
(-0.0066966 0.000582135 7.12713e-21)
(-0.000923102 -0.0059 3.30453e-21)
(0.00911983 -0.000169539 0)
(0.0206704 0.00885593 2.24751e-21)
(0.000534606 0.00592608 8.51894e-24)
(0.00810428 0.0231266 -4.80958e-21)
(-0.0228071 0.000390703 -1.1569e-20)
(3.14298e-05 1.21156e-05 2.50675e-21)
(-0.0196552 0.0743144 -2.96804e-21)
(1.71671e-05 1.19571e-05 -1.04123e-22)
(9.04779e-05 6.77786e-05 -5.62402e-21)
(-0.0661343 0.00636817 -2.01888e-21)
(4.35408e-05 1.73269e-05 0)
(5.80652e-05 7.6769e-06 -1.71282e-21)
(0.000342738 -0.000519702 2.03894e-21)
(2.3663e-05 6.12982e-07 0)
(-0.109067 0.0449316 0)
(7.54363e-06 2.1879e-06 6.94244e-23)
(-2.96393e-06 -7.83677e-07 3.71227e-25)
(0.000209029 0.000265758 0)
(0.00473749 -0.00281209 0)
(0.000161381 3.30736e-05 6.42813e-22)
(-0.00275956 0.00473407 4.42423e-21)
(6.50892e-05 -0.000117288 -1.44575e-21)
(0.000132096 -0.000629228 0)
(-4.47464e-05 -0.000818898 0)
(9.33235e-06 -1.17838e-05 0)
(3.69648e-05 -6.36729e-06 0)
(-0.0296189 -0.0143123 -9.06864e-22)
(-0.00240352 0.00674354 -4.33316e-21)
(-5.14642e-05 -8.03493e-05 0)
(0.000252667 0.000247396 5.27043e-21)
(4.43265e-05 3.40474e-05 -3.41565e-21)
(0.0736577 0.0286358 -2.44285e-21)
(0.00897337 -0.000124638 0)
(-0.000519092 -0.000255293 2.61984e-21)
(0.000100917 6.90884e-05 -4.34696e-21)
(1.60514e-05 1.59082e-05 -2.66903e-22)
(-0.000317826 0.000121225 2.68501e-21)
(-0.0138757 -0.0893679 1.1482e-21)
(5.27018e-05 1.8213e-05 2.52901e-21)
(0.00190619 0.00355152 -1.90836e-23)
(0.00511658 -0.00240879 0)
(-1.1631e-06 1.56035e-06 0)
(-6.4859e-05 0.000818561 -6.29265e-22)
(0.000159149 -0.000341802 5.94069e-21)
(0.108544 0.0015249 -1.99998e-21)
(3.67831e-05 1.90397e-06 -1.11031e-21)
(4.11087e-05 3.94169e-05 3.08262e-21)
(-0.00444443 0.0187549 3.61038e-21)
(-0.00139086 -0.000308089 1.16872e-21)
(0.0132369 0.0550801 -9.72575e-22)
(-0.00230409 0.00384181 -2.81951e-21)
(5.47637e-05 -2.91297e-06 2.04302e-21)
(-0.0459519 0.0716259 -9.56745e-22)
(0.00758988 0.0118731 9.47586e-22)
(-0.0493419 0.202797 0)
(4.47746e-05 -1.06763e-06 -8.29618e-22)
(0.000310978 0.000405074 0)
(-0.00218531 -0.00503497 0)
(-0.0017022 -0.00150726 1.17748e-21)
(4.04744e-05 -1.57005e-05 -5.76477e-22)
(-0.00383841 -0.0736387 1.35707e-21)
(-0.00120252 -0.000389199 -9.47489e-22)
(0.00365891 -0.0029418 -9.53633e-22)
(6.14177e-05 0.000981743 0)
(-0.0385463 0.156426 -4.1819e-22)
(0.000285721 0.000417476 2.17986e-21)
(0.000323141 0.000250721 0)
(5.31652e-05 1.39558e-05 -8.89889e-22)
(-0.0917431 0.123587 1.1088e-21)
(0.000734551 -0.000830957 0)
(-0.0035272 0.000262386 0)