/*--------------------------------*- C++ -*----------------------------------*\
| =========                 |                                                 |
| \\      /  F ield         | OpenFOAM: The Open Source CFD Toolbox           |
|  \\    /   O peration     | Version:  v2012                                 |
|   \\  /    A nd           | Website:  www.openfoam.com                      |
|    \\/     M anipulation  |                                                 |
\*---------------------------------------------------------------------------*/
FoamFile
{
    version     2.0;
    format      ascii;
    class       volScalarField;
    location    "300";
    object      k;
}
// * * * * * * * * * * * * * * * * * * * * * * * * * * * * * * * * * * * * * //

dimensions      [0 2 -2 0 0 0 0];


internalField   nonuniform List<scalar> 
27915
(
0.000157969
0.000192361
0.0268159
0.000139296
0.000145512
0.000162308
0.00013273
0.0236127
0.000144571
0.0404935
0.000174494
0.0303114
0.0051871
0.000132642
0.000138056
0.000139073
0.00189099
0.000147317
0.000204545
0.0236623
0.00556233
0.000152391
0.0274952
0.000146448
0.000139084
0.000136554
0.0196331
0.000145355
0.0127159
0.000157026
0.000143976
0.000172595
0.000135822
0.00013545
0.0286583
0.000135487
0.000152351
0.000136552
0.000186608
0.000145719
0.000154485
0.000151881
0.000181391
0.000140105
0.0196278
0.000145962
0.000141759
0.000171827
0.000148421
0.000141798
0.0254384
0.000205368
0.0188619
0.000157191
0.000158077
0.000141721
0.000142668
0.00421601
0.00341243
0.000143813
0.000745037
0.000163431
0.0182629
0.00581412
0.000145482
0.000187322
0.0289741
0.0254027
0.0288038
0.000143607
0.000218289
0.000146664
0.000147372
0.00434197
0.0393044
0.000349048
0.000156793
0.000133931
0.00911865
0.000486748
0.000161823
0.000147477
0.000165287
0.0205605
0.0198264
0.011299
0.000135022
0.000226428
0.0393976
0.000328714
0.0001485
0.00472221
0.000141512
0.024379
0.0120767
0.0283474
0.000240771
0.0392954
0.000163151
0.000128847
0.000162001
0.000136411
0.0388358
0.000149444
0.000158953
0.000147441
0.023733
0.00019939
0.00013641
0.0342415
0.0240693
0.000154308
0.000389259
0.000285036
0.000197924
0.000204564
0.0389254
0.000171697
0.000149402
0.000148522
0.000148259
0.000380784
0.000135978
0.000152346
0.000146004
0.0160322
0.0102191
0.0144879
0.000144541
0.000142865
0.000163564
0.0177284
0.024691
0.000438813
0.0293591
0.000183473
0.0376284
0.000135098
0.000143103
0.000147801
0.000169266
0.000158208
0.000155034
0.00543658
0.0266293
0.0268287
0.0130988
0.000170806
0.000397856
0.000165548
0.0389811
0.00013491
0.000139405
0.0145315
3.95392e-05
0.0290556
0.0176254
0.000139939
0.000143107
0.000150998
0.000160503
0.00970372
0.000140048
0.00045148
0.00235292
0.000144408
0.000133752
0.0233529
0.0401907
0.000152196
0.000161682
0.000147773
0.000145886
0.000172543
0.000132003
0.0101067
0.0336901
0.000148677
0.000140351
0.00475806
0.0388322
0.000193921
0.000156165
0.0281561
0.00018341
0.000296628
0.000142684
0.000141224
0.0187156
0.000134966
0.0250103
0.000178693
0.000277816
0.000148651
0.000129544
0.000146824
0.000284484
0.000714056
0.000150484
0.000163515
0.0186994
0.0389371
0.000139538
0.000148137
0.0108462
0.0147938
0.000193933
0.000205473
0.0118149
0.000144899
0.000164744
0.0324855
0.000149907
0.000144455
0.000146674
0.000157834
0.000197964
9.73136e-05
0.00014303
0.000147112
0.000146027
0.000160296
0.000158479
0.000142579
0.0114446
0.000271739
0.000140327
0.0106126
0.000143513
0.000135542
0.0130634
0.000183585
0.0337028
0.0228911
0.00539061
0.000149532
0.0276723
0.000158304
0.000156318
0.000139274
0.0120072
0.000152295
0.000203045
0.0375305
0.00014433
0.000139994
0.0139177
0.00556724
0.000159486
0.000178722
0.000157695
0.0309849
0.000130815
0.000144146
0.000147083
0.000240822
0.000157754
0.000143889
0.000178831
0.0237331
0.0296737
0.000194449
0.000210303
0.000242403
0.000212477
0.000464207
0.000138148
0.0260993
0.0314936
0.0242158
0.000148164
0.013522
0.0141079
0.00432458
0.000159152
0.000138172
0.000150187
0.00015195
0.000137487
0.000151927
0.000142884
0.000129173
0.000133804
0.000176182
0.0123788
0.033828
0.00986682
0.00839156
0.000157152
0.0315863
0.000208691
0.00014693
0.0106577
0.000146914
0.000150192
0.000193481
0.0113083
0.0342418
0.00017055
0.000146694
0.000192032
0.00017758
0.000141548
0.000150544
0.011872
0.0167473
0.000163943
0.000140883
0.010209
0.000149792
0.0103584
0.000147186
0.0264703
0.000143834
0.0123953
0.000148902
0.00012889
0.0225479
0.0158989
0.0160792
0.000180548
0.000128664
0.000138356
0.000146315
0.00019738
0.000176792
0.00029345
0.0139821
0.000143047
0.000137745
0.000140626
0.000188558
0.000146782
0.00014169
0.0212847
0.000131332
0.0002189
0.000137654
0.0308179
0.00382451
0.000157008
0.00784687
0.0135722
0.020699
0.000131225
0.000141179
0.00014701
0.0119227
0.0344605
0.000146887
0.000146188
0.000139429
0.0154479
0.00019524
0.000176488
0.000159205
0.000199988
0.000141341
0.000139473
0.00227492
0.000183504
0.000148612
0.000149998
0.000133799
0.000140085
0.00311406
0.000164113
0.000138473
0.000143613
0.000139691
0.0165297
0.000131628
0.00019024
0.000149703
0.0325043
0.000131906
0.000135607
0.000192919
0.000166014
0.00013089
0.000165129
0.000201721
0.000165701
0.0168649
0.0165761
0.000178838
0.00615083
0.000201606
0.000148082
0.00663096
0.00014505
0.0117381
0.0347405
0.00013854
0.0413923
0.000191176
0.000163083
0.000159278
0.000143414
0.0397367
0.000139571
0.000163859
0.0117856
0.000148879
0.00414757
0.000152545
0.000208084
0.000142674
0.028956
0.000194364
0.0211011
0.00016802
0.000138555
0.000138754
0.0318316
0.000146599
0.000193573
0.000149336
0.000190493
0.000157002
0.000205682
0.000144808
0.000161383
0.0267109
0.0099553
0.000151876
0.000138411
0.0164982
0.0322809
0.000144162
0.0273637
0.000150597
0.000255908
0.000163053
0.00013912
0.000139197
0.000143269
0.000156287
0.000615736
0.000199199
0.0230602
0.000217009
0.00019657
0.00019328
0.000142742
0.000151337
0.0143522
0.000148682
0.000204698
0.00012973
0.0170148
0.0152145
0.000137725
0.00015833
0.0238606
0.00550806
0.027023
0.000140494
0.000165971
0.0124164
0.000138313
0.000168254
0.00322365
0.000154917
0.0144243
0.0203019
0.000147016
0.000140273
0.000861197
0.00106202
0.000140142
0.000161118
0.000399602
0.000139686
0.000381516
0.000160527
0.00014031
0.000140482
0.000186406
0.000170375
0.00680628
0.00016816
0.00920041
0.00352303
0.00569727
0.000151886
0.000164764
0.000315685
0.00020408
0.000137396
0.00688865
0.00274133
0.000194201
0.000149154
0.0179176
0.000173351
0.000158991
0.0217922
0.0254865
0.0159674
0.000140573
0.000148737
0.0100977
0.0185392
0.00962131
0.0146994
0.000139231
0.000150444
0.0133979
0.0204441
0.000140096
0.000192891
0.000197983
0.0140274
0.0157806
0.0130087
0.0299822
0.00013893
0.000189957
0.000165409
0.00014703
0.000137671
0.000139967
0.0119171
0.000128498
0.00259084
0.000156785
0.0333824
0.00569105
0.0168804
0.000129206
0.0393699
0.0225601
0.00019959
0.000169536
0.000158689
0.030479
0.000143735
0.000189441
0.000143177
0.000143529
0.000286681
0.000145231
0.00438137
0.00014419
0.0264459
0.000139609
0.0338582
0.000137827
0.00549599
0.000143671
0.00014956
0.000179833
0.0109986
0.000182974
0.00020538
0.0126385
0.0288242
0.000215574
0.000140709
0.0150464
0.0398228
0.000195186
0.000165249
0.000145611
0.000149578
0.0107189
0.000138923
0.0267245
0.000147489
0.000192882
0.0167299
0.000169564
0.0272057
0.000135127
0.00368348
0.00858228
0.0021489
0.0123769
0.000137355
0.000142548
0.000191498
0.000170102
0.0334553
0.00483621
0.000151338
0.0178319
0.000135586
0.000143177
0.00578833
0.000139665
0.000145387
0.0371033
0.000170979
0.0196139
0.000137907
0.0200199
0.000248496
0.000139379
0.00013488
0.0178879
0.000146178
0.000137955
0.000135172
0.00239325
0.000140426
0.01052
0.000170751
0.000147836
0.013834
0.00212072
0.000137994
0.00515123
0.0203595
0.0127717
0.000146537
0.000140796
0.00383224
0.000162007
0.00326963
0.000128705
0.000150107
0.000134895
0.000137151
0.000146543
0.000145362
0.000161417
0.000151676
0.000137539
0.000133503
0.000216173
0.00877113
0.0307051
0.00019261
0.0169717
0.0110097
0.012674
0.000140861
0.0126054
0.000593517
0.000320324
0.000145186
0.01927
0.00014751
0.000139048
0.000128011
0.0178535
0.000156976
0.000131583
0.000167527
0.000216296
0.000254986
0.000400678
0.015346
0.0338684
0.000150132
0.0156642
0.040102
0.0120669
0.0001321
0.000149199
0.00531595
0.000135274
0.00273043
0.000203399
0.000152058
0.00411486
0.000195009
0.000158437
0.000160957
0.000137586
0.000143569
0.000148732
0.000143337
0.000132263
0.000140348
0.000139964
0.0131375
0.000145015
0.0126419
0.00015004
0.000161305
0.000583228
0.000141568
0.000142894
0.000561638
0.00370384
0.000145104
0.000139329
0.000148755
0.000139205
0.00118836
0.000142432
0.000144352
0.000191293
0.000137563
0.0208171
0.0263761
0.011756
0.000143924
0.00630497
0.0172478
0.000168883
0.000149776
0.000256837
0.000144278
0.0315317
0.000159287
0.000164362
0.000167838
0.000144878
0.000148891
0.000141406
0.000196207
0.0234135
0.0165103
0.000154935
0.000127964
0.000143443
0.0391713
0.0133962
0.000146828
0.0122741
0.000137176
0.0110809
0.00020648
0.00587346
0.000152833
0.000216897
0.0128724
0.000143837
0.000186697
0.0129369
0.000128852
0.000196167
0.0150896
0.000141589
0.000155972
0.0270286
0.000229295
0.00015098
0.00013331
0.0301329
0.0284967
0.00026441
0.000192142
0.00015762
0.00013882
0.0217235
0.00013944
0.000148178
0.000141449
0.000132646
0.000141028
0.000150676
0.0301033
0.000141678
0.000811065
0.000143192
0.0290439
0.000141069
0.0194341
0.000141429
0.0110325
0.000146157
0.0290318
0.000160747
0.0291819
0.00133007
0.00642455
0.000213301
0.000165737
0.00155284
0.0189909
0.000143587
0.0300677
0.00013296
0.000152973
0.000302988
0.000146208
0.000142958
0.000164168
0.000144033
0.0329366
0.000128936
0.000143734
0.000159739
0.000185836
0.000143361
0.000170369
0.000156354
0.0325676
0.0223057
0.000132364
0.000140165
0.0189356
0.000201514
0.000141266
0.000161077
0.000143268
0.0236952
0.00725557
0.000160961
0.000147701
0.000133233
0.000150318
0.0164597
0.000142098
0.00016784
0.000168412
0.000137366
0.000145159
0.0161644
0.0147323
0.000140147
0.00014681
0.0218558
0.0120363
0.0040217
0.00019781
0.000142488
0.0184854
0.000179252
0.0123411
0.000140157
0.000177972
0.000179733
0.000157987
0.000141214
0.0093758
0.01429
0.000156905
0.000145587
0.00734327
0.000178327
0.000135134
0.000142056
0.00784533
0.000156274
0.000204627
0.0185033
0.000150961
0.0188617
0.0159199
0.0247644
0.000329774
0.000403681
0.000143797
0.000145994
0.000149724
0.0132303
0.0276805
0.000132185
0.0242457
0.000141421
0.000149995
0.000259396
0.000130773
0.000200331
0.000132284
0.00999014
0.000164724
0.000137996
0.000140794
0.0150904
0.0100027
0.000172397
0.0117806
0.0137448
0.0147077
0.000191254
0.000157364
0.000130682
0.000143135
0.000142909
0.000289765
0.00751715
0.000140271
0.000145089
0.00015098
0.0302076
0.0186493
0.0133864
0.000143377
0.000184042
0.000158139
0.000139662
0.000148173
0.0179064
0.027454
0.0357075
0.000162902
0.000194158
0.0357833
0.000178993
0.00999487
0.000136774
0.000169704
0.000164966
0.000169624
0.000178719
0.00252746
0.000183738
0.000150753
0.000182628
0.000375842
0.000149034
0.000136719
0.000138802
0.00249108
0.000148875
0.0273217
0.000132659
0.018145
0.000196822
0.000144433
0.000140759
0.0294461
0.000156806
0.00402779
0.000142866
0.000138862
0.000217904
0.000187448
0.0138999
0.000139118
0.000143082
0.00014884
0.000221527
0.000143981
0.0295186
0.000143703
0.000138946
0.000145151
0.0139741
0.0212623
0.0002827
0.000157444
0.0311354
0.000158929
0.000148986
0.000152197
0.000175323
0.000150889
0.000275587
0.000149508
0.00986054
0.000148597
0.000145374
0.000148455
0.000146772
0.000140271
0.0020687
0.000139979
0.000128885
0.0367959
0.0189828
0.000140553
0.00015847
0.000150336
0.000332402
0.000148924
0.000902861
0.00016421
0.00890829
0.000158142
0.000156601
0.000150876
0.000156909
0.000414981
0.000186541
0.000138695
0.00584762
0.00301908
0.0116062
0.000166207
0.000139254
0.00015692
0.000173885
0.000166956
0.000150531
0.0165783
0.00014301
0.000140067
0.0296325
0.00015741
0.000159136
0.0391201
0.00433456
0.0158354
0.0235267
0.0156054
0.000144838
0.0234028
0.00040622
0.00432135
0.000198918
0.000263185
0.0195073
0.0179483
0.00138881
0.000157237
0.0338009
0.00339736
0.000147243
0.000164432
0.000163987
0.000190212
0.00713574
0.000140536
0.000147559
0.000144328
0.00778624
0.000139941
0.000140312
0.000279432
0.000218898
0.000140951
0.00647101
0.000146509
0.000206049
0.000140149
0.00379898
0.000192274
0.00151322
0.000145225
0.000194989
0.000158768
0.0156418
0.000150716
0.000149954
0.000146529
0.000141975
0.000173504
0.000233298
0.000268121
0.000187772
0.0132031
0.000140489
0.0303004
0.00332568
0.000129815
0.000132362
0.0113843
0.000139642
0.000253231
0.000158182
0.000162837
0.000137458
0.000215003
0.000233468
0.000158462
0.000163598
0.0250686
0.000149761
0.000147283
0.000136129
0.000193123
0.000266149
0.000152748
0.00959961
0.000143449
0.000128826
0.000144702
0.00014301
0.000155755
0.000143003
0.000149201
0.000145964
0.000133035
0.000158362
0.000129743
0.000176545
0.000163884
0.00668488
0.000161194
0.0416409
0.0314873
0.000166447
0.000193257
0.000154504
0.0064364
0.0100742
0.000161488
0.000145373
0.000177859
0.000205455
0.0216616
0.000162191
0.0137068
0.00641453
0.00015076
0.0320748
0.000173911
0.0276147
0.000154143
0.000153593
0.000147169
0.00579014
0.000155255
0.000202868
0.0142029
0.000127871
0.000445646
0.000165968
0.000187893
0.000137762
0.000135293
0.000202249
0.0217729
0.000161385
0.000129014
0.0110199
0.000156778
0.000151406
0.000145501
0.00017532
0.000146298
0.000165343
0.000130049
0.000357334
0.000186193
0.000184636
0.00020129
0.0177901
0.000129996
0.00125728
0.000147703
0.00015188
0.000142101
0.0334214
0.000151239
0.000151436
0.000168205
0.000150497
0.0263809
0.00053674
0.000140251
0.000152486
0.000141704
0.000186734
0.000138699
0.0112587
0.000136104
0.000190397
0.000145044
0.000144117
0.00014295
0.0319187
0.0177547
0.00182591
0.0337917
0.0237461
0.000151116
0.0207277
0.0163062
0.01079
0.000157538
0.000204724
0.000137213
0.0191207
0.000149188
0.000135064
0.000150354
0.000161415
0.000173099
0.00570459
0.000141042
0.0180801
0.000162155
0.034589
0.0225013
0.000155249
0.00258005
0.00402921
0.000139859
0.000160848
0.000165142
0.000140845
0.000151365
0.027549
0.000233066
0.0323382
0.000147781
0.00952976
0.00014517
0.00263199
0.0174187
0.0127199
0.0236669
0.000225055
0.000152209
0.0310651
0.025396
0.000206889
0.000450326
0.0157677
0.000139843
0.000137145
0.0394255
0.000182048
0.000131034
0.000144057
0.000141696
0.000149332
0.000628825
0.000140449
0.00766708
0.0321841
0.000142332
0.000151742
0.000149275
0.000128925
0.000169511
0.000167309
0.000254655
0.000135056
0.000142893
0.000168874
0.00143621
0.0199736
0.000177811
0.000222722
0.000144137
0.000149085
0.00282218
0.000146674
0.000198445
0.000293543
0.000176559
0.000227651
0.0168937
0.000141284
0.000153528
0.000178218
0.000150701
0.000142431
0.000254909
0.000129145
0.000151376
0.000145122
0.000146686
0.000144182
0.00315536
0.000183194
0.000294064
0.00237439
0.000150786
0.000193807
0.00383421
0.0173092
0.000150604
0.000152116
0.00015266
0.000142426
0.000152323
0.0301295
0.000147079
0.000139839
0.0171639
0.000147277
0.0188404
0.000130998
0.000142286
0.000158376
0.000193439
0.00825955
0.000142199
8.70858e-05
0.00298816
0.000147877
0.000191289
0.00739803
0.030919
0.000151725
0.000151547
0.000195648
0.0311139
0.0109171
0.000169552
0.000156989
0.000139473
0.00337724
0.000963077
0.0150214
0.000148657
0.0150966
0.000140327
0.00242665
0.000182628
0.000197836
0.000169227
0.0136226
0.00014553
0.025194
0.000152525
0.000151121
0.000182933
0.0289352
0.000151418
0.000251395
0.000140782
0.000281992
0.00015333
0.00239678
0.000140654
0.000176229
0.00620171
0.000145232
0.000144542
0.000311815
0.0351036
0.00296664
0.000221735
0.000220159
0.000155498
0.000148889
0.00578317
0.000150556
0.000147435
0.000157104
0.0253092
0.0258954
0.0244718
0.000170463
0.00014579
0.000155193
0.000152966
0.000131395
0.000184436
0.0304514
0.000205661
0.000176063
0.000139098
0.00701814
0.000142608
0.000243203
0.0167015
0.000196389
0.000150493
0.000137503
0.0128094
0.000143995
0.000175283
0.000167325
0.000183752
0.000139117
0.00531588
0.000186818
0.000147998
0.000190592
0.0126329
0.000190472
0.0174036
0.000146945
0.029936
0.0049668
0.000128772
0.000146706
0.000137954
0.0202517
0.0137435
0.000180662
0.00532702
0.00524479
0.000149413
0.000144029
0.000139862
0.000149657
0.0310602
0.000637616
0.000146535
0.000183904
0.000156822
0.000167742
0.000143805
0.000152816
0.00128599
0.000150074
0.000150951
0.00015077
0.000140326
0.000145106
0.000139562
0.000183965
0.000143538
0.00563229
0.000192173
0.0001426
0.000170777
0.000164507
0.0113468
0.000140011
0.0132018
0.000161917
0.000266365
0.000154132
0.00636191
0.0206175
0.000144241
0.00235678
0.00333272
0.000141624
0.000166733
0.000802498
0.000190342
0.014469
0.000143285
0.000146509
0.000290937
0.000150687
0.000177469
0.000554335
0.000192026
0.0211848
0.000143226
0.00943609
0.0309277
0.000142531
0.0255714
0.000241715
0.0351802
0.000189882
0.0315512
0.000141791
0.00309147
0.0148305
0.0224969
0.0168275
0.00136866
0.00135067
0.00014301
0.000156348
0.000155304
0.0230625
0.000192029
0.00199413
0.00013429
0.0127994
0.000144058
0.000136022
0.00014438
0.000176789
0.000157086
0.000152203
0.000142976
0.000132914
0.000248476
0.000152318
0.00276516
0.000147515
0.00603004
0.000137916
0.000128736
0.0224874
0.000149978
0.000945927
0.000206045
0.00015297
0.0250469
0.000186386
0.0148274
0.000164596
0.0342977
0.000143502
0.000150241
0.000137189
0.000160191
0.0124477
0.0109787
0.00203224
0.000153724
0.000133991
0.0146048
0.000145661
0.0240773
0.000144233
0.000145327
0.000142484
0.000162555
0.00028619
0.0262388
0.000147747
0.000150562
0.00446039
0.000128684
0.0112801
0.0042637
0.000164277
0.000133728
0.000164562
0.000176848
0.0291094
0.000150523
0.023036
0.000184016
0.000144839
0.0175892
0.00232045
0.000142605
0.000144658
0.000143018
0.00014947
0.000202013
0.00298792
0.00668224
0.000135628
0.000140909
0.000144153
0.000148391
0.000147706
0.000157658
0.000319501
0.000144232
0.000144519
0.00504259
0.021536
0.000198047
0.00498548
0.00372182
0.000140841
0.000248015
0.0312116
0.0294028
0.00305688
0.000149583
0.000221898
0.000220631
0.000142632
0.00407086
0.00683851
0.000130269
0.0419731
0.000151484
0.000143219
0.00221078
0.000142929
0.00372538
0.00266497
0.000139766
0.0229103
0.000171055
0.000153879
0.0259456
0.0199441
0.00014131
0.000140256
0.000142832
0.000147928
0.000154348
0.011503
0.000147528
0.000139622
0.000251781
0.0161264
0.000283186
0.000184473
0.000142336
0.00107748
0.000214714
0.0367503
0.000141401
0.00013966
0.000149638
0.00015117
0.000251547
0.000161364
0.000130191
0.000192779
0.00240596
0.000145485
0.000137682
0.000165424
0.00014877
0.00524612
0.0232671
0.000155583
0.000154418
0.000135671
0.000148913
0.000151593
0.000142326
0.000147383
0.000146585
0.00289605
0.000144195
0.00029538
0.000142325
0.0046955
0.000152357
0.0291409
0.0209711
0.0239915
0.00283029
0.0274687
0.000191264
0.000242704
0.00415719
0.000192092
0.0130781
0.000153071
0.000530109
0.0263903
0.000243426
0.000135028
0.00249919
0.000142722
0.000148847
0.0267669
0.00021305
0.000144949
0.000140552
0.000144328
0.000152699
0.0288501
0.00783948
0.000149694
0.0294178
0.000177023
0.0402167
0.000137108
0.000208557
0.00019116
0.000169353
0.000257159
0.0344361
0.000158932
0.000146792
0.000203866
0.000224219
0.0314742
0.000142541
0.000136046
0.000148646
0.0182286
0.00234629
0.000144903
0.000147962
0.000143342
0.00014229
0.0131193
0.0018985
0.000176008
0.00326723
0.000142433
0.0287475
0.00546236
0.000394665
0.000153698
0.000186341
0.00027294
0.0243348
0.000137066
0.0267731
0.0325513
0.000157393
0.000147633
0.0282276
0.000163726
0.0337624
0.0103337
0.000148059
0.000140876
0.00015588
0.000149765
0.000143258
0.00015434
0.000194021
0.000139881
0.00014247
0.000152452
0.000152146
0.000139094
0.0159157
0.000158923
0.0337622
0.000146198
0.000183406
0.000140799
0.000155317
0.0209859
0.000161547
0.00014544
0.000153948
0.000167243
0.00017526
0.0163028
0.00317319
0.0132647
0.0156888
0.024122
0.0140018
0.00416532
0.000207306
0.000167125
0.000137007
0.000145065
0.00101217
0.000142804
0.000154115
0.000136954
0.000145141
0.000140095
0.0001397
0.000146751
0.000143235
0.0222351
0.000150866
0.000149426
0.000140101
0.000155395
0.00244629
0.00015943
0.000177126
0.000190898
0.000154864
0.00339377
0.000141557
0.000162521
0.000141793
0.000161394
0.000146364
0.000499319
0.010884
0.000194794
0.000151364
0.000142373
0.00619675
0.000147366
0.00019966
0.000142813
0.000217779
0.0266293
0.000196639
0.000154308
0.000189451
0.000147534
0.0030937
0.000176193
0.000298488
0.000230472
0.00672051
0.036947
0.0237208
0.000142397
0.000139488
0.000145666
0.00975491
0.000142586
0.000428002
0.000182877
0.000149968
0.0250834
0.0131601
0.000140634
0.000136522
0.000230171
0.00783548
0.00289807
0.000143132
0.00639841
0.000131547
0.000260791
0.000178136
0.0001682
0.000156003
0.0160648
0.000141363
0.0226665
0.000169973
0.0137451
0.0256831
0.000170498
0.000156782
0.000160914
0.000138568
0.000164722
0.000141816
0.000165394
0.00014883
0.0225148
0.000142374
0.000148886
0.000136868
0.0329979
0.000139369
0.014892
0.0128616
0.0002108
0.0111676
0.00018468
0.000212876
0.00014985
0.000162878
0.000141275
0.0102714
0.0189439
0.0307391
0.00020099
0.00327837
0.000197508
0.0216801
0.000129367
0.0164824
0.0164272
0.000601475
0.000148632
0.00456409
0.0062341
0.00068577
0.000145392
0.000177751
0.00209692
0.000134196
0.0249396
0.000150707
0.000178433
0.000152582
0.000181483
0.000127883
0.000132395
0.000129324
0.000166726
0.000146761
0.00210844
0.000147779
0.000139038
0.00389392
0.000143062
0.000164088
0.000161371
0.000144496
0.011267
0.000166251
0.000150103
0.000142497
0.000150087
0.0086897
0.000142655
0.00013947
0.000178325
0.0130339
0.000153469
0.000198488
0.00013433
0.000198675
0.000151247
0.000151451
0.00441373
0.000169083
0.0219382
0.000147844
0.000196128
0.000153426
0.019799
0.015242
0.000148837
0.0351816
0.000228009
0.000139246
0.00683658
0.000163351
0.000158476
0.000184588
0.000148929
0.00014159
0.00015519
0.000195764
0.000153143
0.000185578
0.000174359
0.000196701
0.000132704
0.000193521
0.00014513
0.0215252
0.000188207
0.000142549
0.0175364
0.00014153
0.000139003
0.000205727
0.0113023
0.00342129
0.000207811
0.00352883
0.000344291
0.000142977
0.000145629
0.000197155
0.00300629
0.000150588
0.000190531
0.000150485
0.00014532
0.0258406
0.000178929
0.000211991
0.000182457
0.0341078
0.000129532
0.0001741
0.000153625
0.000193229
0.00934479
0.00240921
0.000144965
0.000151091
0.0354575
0.000155525
0.0122988
0.00313566
0.000144536
0.000188123
0.000212183
0.00013771
0.016404
0.000154475
0.0358813
0.0172293
0.000147138
0.000174101
0.000146879
0.000142663
0.000163779
0.0294923
0.00013243
0.000156314
0.028342
0.000145718
9.4516e-05
0.0360784
0.000145521
0.0138676
0.000144177
0.000151503
0.000134978
0.000141158
0.000170844
0.000150862
0.000194006
0.000155734
0.000145284
0.000190415
0.0346528
0.000153574
0.000862828
0.0137611
0.00114477
0.000147086
0.000151133
0.000238015
0.000142331
0.000148166
0.0176847
0.000199152
0.000158497
0.000146577
0.000154196
0.000195278
0.000151292
0.00014245
0.0333306
0.000242762
0.000130504
0.000141366
0.0044259
0.0175474
0.000147924
0.000152363
0.000215257
0.00019764
0.019515
0.000137387
0.0189501
0.00015411
0.000155915
0.0256149
0.0020103
0.000193925
0.00527414
0.000141895
0.0105389
0.000153074
0.00248481
0.00460299
0.000144729
0.0289417
0.000150248
0.000136086
0.000162369
0.000796784
0.00780029
0.0131595
0.000144651
0.000220106
0.000187196
0.000160551
0.000150485
0.000148048
0.000149355
0.0245006
0.0393581
0.0162899
0.0231955
0.000155587
0.000174818
0.0123361
0.000157218
0.000141013
0.000155592
0.0372115
0.000160342
0.0156988
0.0122534
0.0111376
0.000158487
0.0141694
0.000169339
0.000192957
0.00630665
0.0172982
0.0145968
0.000192816
0.000144476
0.0231064
0.000136837
0.0216311
0.000136247
0.000140752
0.000148152
0.00444152
0.000436387
0.0149909
0.00017064
0.0104077
0.000143941
0.000174733
0.000136651
0.000195249
0.0113536
0.000220091
0.0194926
0.0195555
0.0050156
0.00477914
0.000149244
0.0180023
0.000147888
0.0258958
0.000482983
0.000156055
0.000144148
0.00200062
0.000198567
0.000130479
0.000144118
0.0163142
0.000137328
0.000147742
0.000194943
0.000247099
0.000133089
0.000194888
0.000178313
0.00120665
0.0133573
0.000145659
0.000139304
0.000389128
0.000144339
0.000524585
0.000174465
0.0128645
0.000165397
0.000168006
0.000139648
0.000128812
0.01949
0.000173503
0.000181607
0.000153338
0.00781275
0.000215751
0.00120364
0.00368045
0.000150745
0.00166284
0.0001427
0.000166898
0.000158884
0.0253373
0.000136979
0.000138323
0.0259557
0.000202444
0.0259585
0.000158009
0.0230253
0.00206205
0.000153549
0.0120634
0.000149898
0.000248579
0.00428026
0.0179286
0.000143045
0.00629685
0.0158277
0.0315424
0.0129778
0.0240005
0.000155657
0.0154588
0.00017252
0.00396953
0.000182402
0.000161622
0.000130543
0.000184094
0.000140716
0.00466173
0.000160949
0.000149858
0.000150166
0.000210465
0.00049015
0.000142155
0.00185137
0.000192119
0.00103926
0.0175806
0.0113937
0.00014961
0.013302
0.000132583
0.00277623
0.0300079
0.0149404
0.000143925
0.000201849
0.000143499
0.0147771
0.000159373
0.00325958
0.000176439
0.0230598
0.000192765
0.0298911
0.0001376
0.00607642
0.00130627
0.000147331
0.000183802
0.0312946
0.000147186
0.000145188
0.000168645
0.00290467
0.000143403
0.000142415
0.000140789
0.00178023
0.00016547
0.00019109
0.00021117
0.000161292
0.000150689
0.000127834
0.000137186
0.000135798
0.000271615
0.0127102
0.000141418
0.000156323
0.000144822
0.000188675
0.000149701
0.00146615
0.000149797
0.0233351
0.00213798
0.000147664
0.000209018
0.000207026
0.000140012
0.000131445
0.00020485
0.0186925
0.000139455
0.00318669
0.0269294
0.0210131
0.0193019
0.0193786
0.000182991
0.000146905
0.0251013
0.000143936
0.000201734
0.000135296
0.0131279
0.000138021
0.00865517
0.000153476
0.027285
0.000136189
0.0191806
0.000130762
0.000147614
0.000203636
0.000152428
0.000136924
0.000165681
0.0189931
0.000144101
0.0141349
0.000152589
0.0128044
0.0127338
0.0119519
0.0153926
0.000145559
0.000159074
0.0252845
0.0225902
0.000145117
0.000160441
0.00017016
0.000274897
0.000147718
0.0331724
0.000183416
0.000137552
0.0287333
0.0247396
0.000151804
0.0134406
0.000184595
0.000322875
0.0303279
0.000144833
0.000142278
0.0017014
0.000142866
0.0152923
0.00014883
0.0113463
0.0308363
0.000137671
0.000207656
0.000130037
0.000205356
0.000145446
0.000164976
0.0306644
0.000145112
0.0124212
0.00015123
0.000146007
0.000241436
0.000147464
0.0319419
0.00337378
0.015974
0.000221984
0.00168165
0.000154005
0.000142572
0.0318641
0.031323
0.000136897
0.00325204
0.000146816
0.000131756
0.0149982
0.00276853
0.000158872
0.000139952
0.00014445
0.000134622
0.0120152
0.000144545
0.00165047
0.000166836
0.0281641
0.00019572
0.000204448
0.000141384
0.00273247
0.0113241
0.000215473
0.000147502
0.00204594
0.000128375
0.0242049
0.0310238
0.000137227
0.000181648
0.000172254
0.000166672
0.000157003
0.000159606
0.0086329
0.0300966
0.00128283
0.000143012
0.0127065
0.000148363
0.0178758
0.000191126
0.000199311
0.0251574
0.000144644
0.00352766
0.000190318
0.000155901
0.0128449
0.0194159
0.0315999
0.000203123
0.000146951
0.000205419
0.00461657
0.00016748
0.000526472
0.0346125
0.0204285
0.0121765
0.000138521
0.00013504
0.000152825
0.000155106
0.000143252
0.000144118
0.000158194
0.000149428
0.000175492
0.0207308
0.00230782
0.000156789
0.0128055
0.000182284
0.00578436
0.000152602
0.000224558
0.00019338
0.023429
0.0188316
0.000140089
0.0258001
0.0329221
0.000146531
0.000149627
0.0217992
0.0235115
0.00271498
0.000206419
0.000141096
0.000152697
0.00326568
0.000141503
0.000163653
0.0275935
0.000136603
0.000198076
0.0194738
0.0283315
0.000147907
0.00281097
0.000164639
0.000168782
0.0176018
0.000128434
0.000140721
0.000137563
0.00302023
0.0269552
0.00019861
0.000145618
0.00152377
0.000149257
0.000441554
0.00376822
0.000150856
0.000137989
0.000143489
0.0348604
0.00257935
0.0378211
0.000145791
0.0394376
0.018715
0.000433886
0.000141424
0.000299161
0.000145937
0.000136512
0.000140734
0.0123928
0.000189898
0.00113362
0.000171127
0.0420802
0.000141989
0.000146806
0.028738
0.000159858
0.000143017
0.00933504
0.000160649
0.0345325
0.00268517
0.000146594
0.000136828
0.000145359
0.0326993
0.000740287
0.0116527
0.000191515
0.000186218
0.00875179
0.00141607
0.0044894
0.00640248
0.000236143
0.000144865
0.0013144
0.000137853
0.000132529
0.000204888
0.018416
0.000140195
0.000146713
0.00355192
0.000262536
0.000158162
0.0181069
0.000148759
0.000203292
0.000147628
0.0080793
0.0229328
0.000227039
0.000139045
0.000146038
0.0308048
0.0213432
0.0312986
0.000244607
0.0307915
0.0250127
0.0336217
0.00441785
0.0232134
0.000146223
0.00264427
0.0295102
0.000196116
0.000140982
0.000152049
0.0318084
0.000147625
0.000137778
0.0218271
0.000143708
0.0237033
0.000128725
0.0177178
0.0143177
0.0134139
0.000138082
0.000144828
0.000155292
0.000130018
0.00212345
0.000152289
0.00374108
0.0187735
0.000254526
0.000188682
0.000185459
0.0059721
0.000198023
0.00014498
0.00015018
0.000235077
0.000763697
0.00335496
0.00209293
0.000169614
0.000165972
0.000128945
0.000196466
0.000147927
0.00425225
0.000183105
0.000203316
0.000145163
0.000161366
0.00020179
0.000173361
0.0368638
0.0175323
0.000137143
0.00014979
0.000142475
0.0196539
0.000144508
0.0181473
0.000159177
0.0288142
0.000135203
0.0255262
0.0138311
0.000131921
0.000142549
0.000186765
0.000191018
0.000177384
0.000334591
0.000136833
0.0139161
0.00925204
0.000140115
0.0161227
0.000255563
0.000190022
0.000164032
0.0343135
0.0257377
0.016149
0.00413714
0.00944044
0.000136087
0.00576355
0.000143032
0.000134573
0.0193701
0.000374829
0.0251082
0.000500721
0.00328124
0.000464014
0.000154536
0.000146247
0.000139293
0.0306577
0.000134895
0.000186951
0.00601213
0.0289164
0.000128063
0.000136071
0.040229
0.000158666
0.0277328
0.000148812
0.000151729
0.00014922
0.000137307
0.000186571
0.0035001
0.00105045
0.0291545
0.00020274
0.000621412
0.00331953
0.000292733
0.0332399
0.000139488