/*--------------------------------*- C++ -*----------------------------------*\
| =========                 |                                                 |
| \\      /  F ield         | OpenFOAM: The Open Source CFD Toolbox           |
|  \\    /   O peration     | Version:  v2012                                 |
|   \\  /    A nd           | Website:  www.openfoam.com                      |
|    \\/     M anipulation  |                                                 |
\*---------------------------------------------------------------------------*/
FoamFile
{
    version     2.0;
    format      ascii;
    class       volScalarField;
    location    "300";
    object      k_0;
}
// * * * * * * * * * * * * * * * * * * * * * * * * * * * * * * * * * * * * * //

dimensions      [0 2 -2 0 0 0 0];


internalField   nonuniform List<scalar> 
27915
(
0.00015797
0.000192363
0.0268177
0.000139296
0.000145511
0.000162308
0.00013273
0.0236156
0.000144571
0.0404936
0.000174493
0.0302051
0.00516624
0.000132643
0.000138051
0.000139073
0.00190623
0.000147317
0.000204535
0.0236652
0.00557131
0.000152392
0.0276215
0.000146448
0.000139084
0.000136554
0.0196306
0.000145354
0.0127161
0.000157026
0.000143976
0.000172589
0.000135822
0.00013545
0.0286566
0.000135487
0.000152351
0.000136552
0.000186639
0.00014572
0.000154481
0.000151881
0.000181414
0.000140105
0.0195873
0.000145962
0.000141759
0.000171838
0.000148421
0.000141798
0.0254415
0.000205374
0.0188423
0.000157191
0.000158077
0.000141721
0.000142668
0.00418924
0.00338719
0.000143813
0.000757272
0.000163436
0.0182334
0.00581444
0.000145482
0.000187349
0.0288626
0.0254058
0.0288027
0.000143607
0.000218012
0.000146664
0.000147372
0.00436379
0.039304
0.000347971
0.000156793
0.000133931
0.00911348
0.000487473
0.000161822
0.000147477
0.000165287
0.0205639
0.0198872
0.011262
0.000135022
0.000226631
0.0393938
0.000328836
0.0001485
0.00474244
0.000141512
0.0243981
0.0120774
0.0283495
0.000240847
0.0392966
0.000163156
0.000128847
0.000162001
0.000136411
0.038837
0.000149447
0.000158945
0.000147442
0.0237425
0.000199374
0.00013641
0.0342437
0.0240601
0.000154304
0.000393641
0.000284302
0.000197909
0.000204566
0.0389553
0.000171691
0.000149405
0.000148522
0.000148259
0.000383235
0.000135978
0.000152346
0.000146004
0.0159894
0.0101168
0.0144883
0.000144541
0.000142865
0.00016357
0.0177228
0.0247131
0.000439622
0.0293067
0.000183459
0.0375808
0.000135098
0.000143103
0.000147801
0.000169266
0.000158208
0.000155034
0.00544475
0.0266224
0.026832
0.0130981
0.000170817
0.000396439
0.000165548
0.0390334
0.00013491
0.000139498
0.0145301
3.92845e-05
0.0290603
0.017632
0.000139939
0.000143107
0.000150998
0.000160608
0.00970294
0.000140048
0.000450978
0.00235773
0.000144408
0.000133921
0.0234097
0.0401905
0.000152196
0.000161671
0.000147773
0.000145886
0.000172555
0.000132003
0.0101055
0.0336923
0.000148679
0.000140351
0.0047582
0.0388383
0.000194012
0.000156165
0.0281597
0.000183398
0.000295356
0.000142684
0.000141224
0.0187169
0.000134966
0.0250255
0.000178689
0.00027705
0.000148653
0.000129544
0.000146824
0.000283467
0.000711981
0.000150484
0.000163515
0.0186786
0.0390143
0.000139537
0.000148137
0.0108464
0.014793
0.000193941
0.000205562
0.0118337
0.000144898
0.000164744
0.0324472
0.000149907
0.000144455
0.000146673
0.000157834
0.000198022
9.69914e-05
0.00014303
0.000147113
0.000146027
0.000160287
0.000158479
0.000142579
0.0114433
0.000271197
0.000140327
0.0105128
0.000143513
0.000135542
0.0130622
0.000183484
0.0336652
0.0229574
0.00540209
0.000149547
0.0276655
0.000158305
0.000156318
0.000139274
0.0119261
0.000152294
0.000202848
0.0376242
0.00014433
0.000139994
0.0139179
0.0055674
0.000159476
0.000178201
0.000157695
0.03099
0.000130815
0.000144146
0.000147083
0.00024085
0.000157755
0.00014389
0.000178831
0.0237414
0.0296735
0.00019445
0.000210233
0.000242458
0.000212358
0.000464106
0.000138148
0.0261142
0.0314989
0.0242066
0.000148163
0.0135205
0.0141064
0.00432387
0.000159143
0.000138172
0.000150191
0.000151949
0.000137487
0.000151927
0.000142884
0.000129173
0.000133804
0.000176105
0.0123796
0.0338305
0.00987244
0.00825773
0.000157152
0.0315979
0.000208641
0.00014693
0.0106572
0.000146914
0.000150196
0.000193482
0.01132
0.0341805
0.00017056
0.000146694
0.000194416
0.000177672
0.000141548
0.000150544
0.0118666
0.0167407
0.000163943
0.000140883
0.0102038
0.000149789
0.0102292
0.000147186
0.0264684
0.000143834
0.0122962
0.000148902
0.00012889
0.0225517
0.0158995
0.0160779
0.00018047
0.000128664
0.000138356
0.000146315
0.000197299
0.000176855
0.000294376
0.0139824
0.000143047
0.000137745
0.000140626
0.000188455
0.000146782
0.00014169
0.0212671
0.000131332
0.000218922
0.000137654
0.0307968
0.00382365
0.000157008
0.00785368
0.0135729
0.0206811
0.000131225
0.000141177
0.00014701
0.0118113
0.034463
0.000146887
0.000146187
0.000139429
0.0154087
0.000195153
0.000176488
0.000159395
0.000200068
0.000141341
0.000139473
0.00227301
0.000183504
0.00014861
0.000149997
0.000133799
0.000140082
0.00311548
0.000164095
0.000138473
0.000143613
0.000139691
0.0165298
0.000131628
0.000190244
0.000149703
0.032509
0.000131906
0.000135607
0.000192912
0.000165991
0.00013089
0.000165128
0.000201712
0.000165709
0.0169381
0.0165851
0.000178838
0.00617112
0.000201597
0.000148081
0.00664042
0.00014505
0.0117366
0.0347439
0.00013854
0.0413926
0.000191178
0.000163065
0.000159278
0.000143414
0.0397062
0.000139571
0.000163865
0.0117867
0.000148879
0.00417628
0.000152526
0.000208098
0.000142674
0.0289081
0.000194371
0.0211026
0.000167994
0.000138555
0.000138754
0.0317199
0.000146599
0.00019356
0.000149333
0.000190495
0.000156972
0.000205656
0.000144808
0.000161383
0.0267249
0.0099537
0.000151871
0.000138411
0.0164907
0.0322913
0.000144162
0.0273686
0.000150593
0.000255928
0.000163053
0.000139119
0.000139197
0.000143269
0.000156287
0.00061751
0.00019919
0.0230499
0.000217076
0.000196575
0.000193286
0.000142742
0.000151317
0.014353
0.000148682
0.000204854
0.000129731
0.0169456
0.0152219
0.000137725
0.00015833
0.0238518
0.00551757
0.02702
0.000140491
0.00016597
0.0124172
0.000138313
0.000168254
0.00324406
0.000154906
0.014424
0.0203102
0.000147016
0.000140273
0.000875076
0.0010562
0.000140142
0.000161117
0.000402445
0.000139686
0.000381227
0.000160518
0.00014031
0.000140482
0.000186461
0.000170388
0.00681179
0.000168163
0.00920573
0.00347384
0.00570278
0.000151886
0.000164771
0.000317178
0.000204224
0.000137396
0.00689043
0.00273351
0.000194083
0.000149151
0.0179176
0.00017335
0.000158956
0.0217835
0.0254965
0.0159682
0.000140573
0.000148734
0.0100982
0.0185714
0.00961991
0.0146996
0.000139231
0.00015044
0.0133986
0.0204513
0.000140096
0.000192897
0.000197975
0.0140259
0.0157814
0.0130162
0.0299864
0.00013893
0.00018996
0.000165408
0.00014703
0.000137671
0.000139968
0.0119168
0.000128498
0.00257703
0.000156785
0.0333871
0.00568681
0.0168814
0.000129206
0.0393605
0.0225588
0.000199598
0.000169545
0.000158683
0.0304814
0.000143735
0.000189442
0.000143177
0.000143529
0.00028686
0.000145231
0.00435613
0.00014419
0.026444
0.000139609
0.0338627
0.000137827
0.00551901
0.000143671
0.00014956
0.000179814
0.0108702
0.00018301
0.000205231
0.0126391
0.0288374
0.000215446
0.000140709
0.0150474
0.0398227
0.000195186
0.000165249
0.000145611
0.000149578
0.0107202
0.000138922
0.0267288
0.000147489
0.000192884
0.016722
0.000169577
0.0272199
0.000135127
0.00369934
0.00858904
0.00214792
0.0123735
0.000137355
0.000142548
0.0001915
0.000170097
0.0334598
0.00477145
0.000151338
0.0178329
0.000135586
0.000143177
0.00578827
0.000139665
0.000145387
0.0370556
0.000170973
0.0196803
0.000137907
0.0200226
0.000248585
0.000139379
0.00013488
0.0178934
0.000146178
0.000137955
0.000135172
0.00238523
0.000140426
0.0105269
0.000170751
0.000147836
0.0138331
0.00209599
0.000137994
0.00515262
0.0203429
0.0127717
0.000146537
0.000140796
0.00383165
0.000162006
0.00328775
0.000128705
0.000150107
0.000134895
0.000137149
0.000146543
0.000145363
0.000161416
0.000151699
0.000137539
0.000133503
0.00021613
0.00878001
0.0307051
0.000192616
0.0169635
0.011008
0.0126748
0.000140861
0.0126126
0.000598172
0.000318913
0.000145186
0.0192734
0.00014751
0.000139048
0.000128011
0.0178612
0.000156976
0.000131583
0.000167527
0.000216217
0.000255132
0.000401902
0.0153551
0.0338732
0.000150131
0.0156591
0.0400705
0.0120759
0.0001321
0.000149199
0.00533907
0.000135274
0.00269811
0.000203389
0.000152058
0.00410281
0.000194996
0.000158437
0.000160957
0.000137586
0.000143569
0.000148731
0.000143337
0.000132263
0.000140348
0.000139964
0.0130373
0.000145015
0.0126429
0.00015004
0.000161305
0.000587373
0.000141568
0.000142895
0.000578013
0.00368703
0.000145104
0.000139329
0.000148755
0.000139196
0.00118992
0.000142432
0.000144351
0.000191297
0.000137563
0.020813
0.0263696
0.0117549
0.000143924
0.00630967
0.0172351
0.000168884
0.000149776
0.00025693
0.000144278
0.0315368
0.000159279
0.000164362
0.000167838
0.000144878
0.000148891
0.000141406
0.000196202
0.0234293
0.0164447
0.000154921
0.000127964
0.000143443
0.0391745
0.0133961
0.000146828
0.0122651
0.000137176
0.0110585
0.000206469
0.00579692
0.000152833
0.000216951
0.0128711
0.000143837
0.000186694
0.0129748
0.000128852
0.000196161
0.0150906
0.000141589
0.000155972
0.027033
0.000229466
0.00015098
0.00013331
0.0301143
0.0285463
0.000264341
0.000192136
0.00015762
0.00013882
0.0217346
0.00013944
0.000148178
0.000141449
0.000132646
0.000141028
0.000150676
0.0300901
0.000141675
0.000807345
0.000143192
0.0290414
0.000141069
0.0194328
0.000141429
0.0109848
0.000146157
0.0290339
0.000160747
0.0291867
0.00133116
0.00642537
0.000213295
0.000165703
0.0015516
0.0189931
0.000143587
0.03005
0.00013296
0.000152973
0.000305773
0.000146208
0.000142958
0.000164168
0.000144033
0.0328887
0.000128936
0.000143734
0.000159739
0.000185838
0.000143361
0.000170369
0.000156354
0.0325776
0.0223085
0.000132364
0.000140165
0.0189571
0.000201507
0.000141266
0.000161077
0.000143268
0.023734
0.00725647
0.000160961
0.000147701
0.000133233
0.000150318
0.0164515
0.000142098
0.000167828
0.000168418
0.000137366
0.000145159
0.0161658
0.0148069
0.000140147
0.00014681
0.0218586
0.0120352
0.00403519
0.000197803
0.000142488
0.0184797
0.000179278
0.0123421
0.000140157
0.00017797
0.000179729
0.00015798
0.000141214
0.0093725
0.0142886
0.000156883
0.000145587
0.00726435
0.000178325
0.000135134
0.000142056
0.00775431
0.000156273
0.000204615
0.0185061
0.000150962
0.0188643
0.0159909
0.0247699
0.000327836
0.000400412
0.000143796
0.000145994
0.000149721
0.0132304
0.0276896
0.000132185
0.0243217
0.000141421
0.000149995
0.000259512
0.000130773
0.000200325
0.000132284
0.00998719
0.000164681
0.000137996
0.000140795
0.0150899
0.0099995
0.000172344
0.0117738
0.0138032
0.0147098
0.00019125
0.000157364
0.000130682
0.000143135
0.00014291
0.000290715
0.00751428
0.000140271
0.000145081
0.000150981
0.0301863
0.0186446
0.0133877
0.000143377
0.000184042
0.000158139
0.000139662
0.000148173
0.0179608
0.0274544
0.0357113
0.000162901
0.000194152
0.0357857
0.000179019
0.00998746
0.000136774
0.000169704
0.000164969
0.000169624
0.000178717
0.00252843
0.000183738
0.000150753
0.000182628
0.000375595
0.000149033
0.000136719
0.000138802
0.00248039
0.000148875
0.0274103
0.000132659
0.0181363
0.000196815
0.000144433
0.000140759
0.0294438
0.000156807
0.00403086
0.000142866
0.000138861
0.000217907
0.000187375
0.0138674
0.000139118
0.000143082
0.00014884
0.00022146
0.000143981
0.0295551
0.000143703
0.000138945
0.000145152
0.0139729
0.0212546
0.000279316
0.000157444
0.0311068
0.000158929
0.000148986
0.000152197
0.000175322
0.000150889
0.000276273
0.000149506
0.00986615
0.000148597
0.000145374
0.000148455
0.000146772
0.000140271
0.0020998
0.000139979
0.000128885
0.0367987
0.0189815
0.000140553
0.00015847
0.000150336
0.00033115
0.000148922
0.000901669
0.000164212
0.00890232
0.00015813
0.000156601
0.000150876
0.000156894
0.000413368
0.000186489
0.000138695
0.00583014
0.00298472
0.011621
0.000166207
0.000139252
0.00015692
0.000173886
0.000166954
0.000150531
0.0165811
0.00014301
0.000140066
0.0296741
0.00015741
0.000159136
0.0391228
0.00434629
0.0158296
0.0235318
0.0155925
0.000144838
0.0234026
0.000404851
0.00431033
0.000198986
0.000263028
0.0195106
0.0179514
0.00138732
0.000157237
0.0338035
0.00336051
0.000147243
0.000164432
0.000163987
0.000190213
0.00713615
0.000140534
0.00014756
0.000144329
0.00778008
0.000139941
0.000140313
0.000279472
0.000218871
0.000140951
0.00647361
0.000146509
0.000206037
0.000140149
0.00377709
0.000192278
0.00151421
0.000145225
0.000194993
0.000158768
0.0156424
0.000150716
0.000149954
0.000146529
0.000141975
0.000173503
0.00023336
0.000267666
0.000187734
0.0132042
0.000140489
0.0302739
0.00330406
0.000129815
0.000132363
0.0113875
0.000139642
0.000253126
0.000158182
0.000162837
0.000137458
0.000214808
0.000234369
0.000158462
0.000163597
0.0250595
0.000149761
0.000147283
0.000136129
0.000193118
0.000266013
0.000152746
0.0095956
0.000143449
0.000128826
0.000144702
0.00014301
0.000155755
0.000143003
0.000149201
0.000145964
0.000133035
0.000158361
0.000129743
0.000176546
0.000163884
0.00668528
0.000161194
0.0416415
0.0314926
0.000166444
0.000193263
0.000154504
0.0064426
0.0100777
0.000161487
0.000145373
0.000177858
0.000205899
0.0216284
0.000162191
0.0137069
0.00641433
0.00015076
0.0320455
0.00017391
0.0276575
0.000154143
0.00015357
0.000147169
0.00575683
0.000155255
0.000202857
0.0141712
0.000127871
0.000447613
0.000165977
0.000187844
0.000137762
0.000135292
0.000202238
0.0217785
0.00016137
0.000129014
0.0109795
0.000156777
0.000151406
0.000145501
0.00017528
0.000146299
0.000165341
0.000130049
0.000356059
0.00018619
0.000184634
0.00020122
0.0177654
0.000129996
0.0012721
0.000147703
0.000151881
0.000142101
0.0334265
0.000151239
0.000151436
0.000168212
0.000150497
0.0263728
0.000535153
0.000140251
0.000152486
0.000141704
0.000186736
0.000138699
0.0112585
0.000136104
0.0001904
0.000145044
0.000144114
0.00014295
0.0319231
0.0177429
0.00184564
0.0337934
0.0237492
0.000151118
0.020728
0.0162983
0.0107902
0.000157538
0.00020459
0.000137213
0.0191154
0.000149187
0.000135064
0.000150356
0.000161415
0.000173098
0.00572807
0.000141042
0.0180572
0.000162155
0.0345919
0.0224577
0.000155248
0.00258128
0.00401951
0.000139859
0.000160848
0.000165147
0.000140845
0.000151365
0.0275536
0.000232946
0.0323179
0.000147781
0.00953636
0.00014517
0.00262398
0.0173991
0.0127135
0.0236416
0.000225171
0.000152205
0.0310701
0.0254953
0.000206767
0.00045
0.0157656
0.000139843
0.000137145
0.03939
0.000181989
0.000131034
0.000144057
0.000141696
0.000149332
0.000622674
0.000140447
0.00766305
0.0321521
0.000142332
0.000151741
0.000149275
0.000128925
0.000169443
0.000167308
0.000254139
0.000135056
0.000142893
0.000168881
0.00142896
0.0199885
0.000177807
0.000222808
0.000144137
0.00014908
0.00280578
0.000146664
0.000198392
0.000293308
0.000176584
0.000227637
0.0168852
0.000141284
0.000153528
0.000178198
0.0001507
0.000142431
0.000254881
0.000129198
0.000151376
0.000145122
0.000146686
0.000144182
0.00315742
0.000183194
0.000295277
0.00238486
0.000150785
0.0001938
0.00382354
0.0173177
0.000150604
0.000152115
0.000152657
0.000142426
0.000152323
0.0301419
0.000147078
0.000139839
0.0171408
0.000147277
0.0188276
0.000130998
0.000142286
0.000158376
0.000193446
0.00818343
0.000142198
8.72064e-05
0.00299369
0.000147877
0.000191284
0.00740811
0.0309242
0.000151726
0.000151546
0.000195775
0.0311257
0.0108121
0.000169554
0.000156989
0.000139474
0.00337698
0.000964444
0.0150225
0.000148643
0.015093
0.000140327
0.00244298
0.000182563
0.000197836
0.000169235
0.0136238
0.00014553
0.0251748
0.000152523
0.000151123
0.000182862
0.0289484
0.000151417
0.000261169
0.000140782
0.000283178
0.000153327
0.00238969
0.000140654
0.000176253
0.00618806
0.000145232
0.000144542
0.000312297
0.0351056
0.00294691
0.000221894
0.000219963
0.000155498
0.000148883
0.0057919
0.000150558
0.000147435
0.000157104
0.0254186
0.0258956
0.024442
0.000170421
0.00014579
0.000155193
0.000152966
0.000131396
0.0001844
0.0304507
0.000205653
0.000176063
0.000139098
0.00702904
0.000142607
0.000243297
0.0166937
0.000196389
0.000150495
0.000137503
0.0127965
0.000143996
0.000175283
0.000167324
0.00018375
0.000139117
0.00531681
0.000186718
0.000147998
0.000190596
0.0126377
0.000190468
0.0173948
0.000146944
0.0299407
0.00497409
0.000128772
0.000146706
0.000137954
0.020253
0.0137569
0.000180644
0.00532977
0.00524001
0.000149413
0.000144029
0.000139862
0.000149657
0.0310631
0.000637626
0.000146536
0.000183919
0.000156801
0.000167748
0.000143805
0.000152814
0.00128147
0.000150074
0.000150951
0.000150769
0.000140326
0.000145107
0.000139562
0.00018393
0.000143538
0.00560174
0.000192168
0.000142602
0.000170777
0.000164513
0.011357
0.000140011
0.0132024
0.000161874
0.000266212
0.000154112
0.00634138
0.0206328
0.000144241
0.00237063
0.00334319
0.000141624
0.000166732
0.000814123
0.000190337
0.0144682
0.000143285
0.000146509
0.000290828
0.000150686
0.000177451
0.00055517
0.000192032
0.0211732
0.000143226
0.00935801
0.030932
0.000142526
0.0255692
0.0002416
0.035131
0.000189849
0.0315618
0.000141791
0.0030825
0.0148301
0.0224968
0.0168803
0.0013704
0.00134427
0.00014301
0.000156341
0.000155304
0.0231771
0.000192022
0.00198485
0.00013429
0.0128091
0.000144058
0.000136022
0.000144381
0.000176788
0.000157087
0.000152203
0.000142976
0.000132914
0.000248245
0.000152318
0.00277225
0.000147514
0.00604485
0.000137916
0.000128736
0.0224981
0.000149978
0.000944559
0.000206058
0.00015297
0.0250207
0.000186388
0.0147913
0.000164595
0.0342458
0.000143503
0.000150241
0.000137189
0.000160191
0.0124692
0.0109799
0.00202418
0.000153724
0.000133991
0.0145696
0.000145662
0.0240926
0.000144233
0.000145325
0.000142484
0.00016254
0.000285542
0.0263365
0.000147747
0.000150562
0.00447294
0.000128684
0.0112745
0.00426461
0.000164282
0.000133741
0.000164562
0.000176847
0.0291062
0.000150507
0.023006
0.000184036
0.000144837
0.0176332
0.00235809
0.000142605
0.000144658
0.000143018
0.000149469
0.000201986
0.00300956
0.00668762
0.000135628
0.000140909
0.000144153
0.000148392
0.000147707
0.000157659
0.000319586
0.000144225
0.000144519
0.005043
0.0215265
0.000197947
0.00502586
0.00372338
0.000140841
0.000248242
0.0312144
0.0294072
0.00307413
0.000149583
0.000221699
0.000220721
0.000142632
0.00403216
0.00684304
0.000130269
0.0419741
0.000151484
0.000143219
0.00220741
0.000142933
0.00372939
0.00267574
0.000139766
0.0229133
0.000171052
0.000153884
0.0259581
0.0199714
0.00014131
0.000140256
0.000142832
0.000147928
0.000154348
0.0115042
0.000147529
0.000139622
0.000251679
0.016075
0.000282631
0.000184498
0.000142335
0.00107286
0.000214957
0.0367548
0.000141401
0.00013966
0.000149638
0.00015117
0.000251739
0.000161349
0.000130191
0.00019278
0.00239764
0.000145485
0.000137682
0.000165423
0.00014877
0.0051795
0.0233902
0.000155583
0.000154418
0.000135671
0.000148913
0.000151593
0.000142326
0.000147383
0.000146585
0.00288936
0.000144195
0.000294813
0.000142325
0.00466121
0.000152357
0.0291717
0.0209746
0.0239632
0.00282545
0.027428
0.000191266
0.000231354
0.00416588
0.000192086
0.0130802
0.000153062
0.000529085
0.0263877
0.000252489
0.000135028
0.00249293
0.000142722
0.000148661
0.0267633
0.000213043
0.00014495
0.000140552
0.000144328
0.000152699
0.0289247
0.00784163
0.000149694
0.0293871
0.000177116
0.0402179
0.000137108
0.000208571
0.000191156
0.00016932
0.000257839
0.0344418
0.000159031
0.000146792
0.000203877
0.000224348
0.0314737
0.000142541
0.000136046
0.000148646
0.018214
0.00234161
0.000144903
0.000147962
0.000143341
0.00014229
0.0131454
0.00189007
0.000175991
0.00339769
0.000142433
0.0287467
0.00569927
0.000405385
0.000153699
0.000186342
0.000272833
0.0242767
0.000137066
0.026739
0.0325268
0.000157393
0.000147637
0.0281781
0.000163743
0.0337666
0.0103394
0.000148059
0.000140876
0.00015588
0.000149765
0.000143258
0.00015434
0.000194028
0.000139881
0.00014247
0.000152452
0.000152146
0.000139094
0.0159146
0.000158923
0.0337674
0.0001462
0.00018343
0.000140799
0.000155318
0.0209742
0.000161553
0.00014544
0.000153947
0.000167242
0.00017526
0.0163006
0.00314567
0.0132633
0.0156851
0.0241562
0.0139953
0.00417394
0.000207365
0.000167122
0.000137007
0.000145065
0.00101232
0.000142804
0.000154115
0.000136954
0.000145141
0.000140095
0.0001397
0.000146751
0.000143236
0.0222499
0.000150858
0.000149426
0.000140101
0.000155396
0.00246025
0.000159443
0.000177126
0.000190846
0.00015486
0.00340362
0.000141557
0.000162503
0.000141793
0.000161393
0.000146364
0.000498968
0.010883
0.000194794
0.000151364
0.000142374
0.00620898
0.000147366
0.000199668
0.000142812
0.00021775
0.0265771
0.00019663
0.000154306
0.000189447
0.000147534
0.00307942
0.000176194
0.000297467
0.000229592
0.00673625
0.0368968
0.0237262
0.000142397
0.000139487
0.000145666
0.00976139
0.000142586
0.000438662
0.000182874
0.000149968
0.025076
0.0131597
0.000140634
0.000136522
0.000230134
0.00783894
0.00291558
0.000143127
0.00640238
0.000131547
0.000261321
0.000178085
0.000168196
0.000156001
0.0160447
0.000141363
0.0226779
0.000169973
0.0137462
0.0256981
0.000170316
0.000156782
0.000160901
0.000138567
0.000164722
0.000141816
0.0001654
0.000148829
0.0225166
0.000142379
0.000148886
0.000136868
0.0330042
0.000139369
0.0148624
0.012804
0.000210853
0.0111797
0.000184653
0.000212883
0.000149848
0.000162884
0.000141275
0.0102818
0.0189396
0.0307232
0.000201282
0.00327929
0.000197513
0.0217438
0.000129367
0.016499
0.0164181
0.000613277
0.000148632
0.00452343
0.00623074
0.00068309
0.000145393
0.000177749
0.00206663
0.000134196
0.0249433
0.000150706
0.000178452
0.000152582
0.000181482
0.000127883
0.000132395
0.000129324
0.000166725
0.000146761
0.00212082
0.000147779
0.000139038
0.00391953
0.000143062
0.000164087
0.000161372
0.000144497
0.0112815
0.000166255
0.0001501
0.000142497
0.000150087
0.00869563
0.000142655
0.00013947
0.000178323
0.013038
0.000153469
0.000198488
0.00013433
0.000198674
0.000151246
0.000151451
0.00441802
0.000169084
0.0219411
0.000147844
0.000196119
0.000153426
0.0197992
0.0152429
0.000148837
0.0351299
0.00022775
0.000139246
0.00683955
0.000163351
0.000158476
0.000184585
0.000148931
0.00014159
0.00015519
0.000195759
0.000153143
0.00018558
0.000174359
0.000196695
0.000132704
0.000193528
0.00014513
0.0215415
0.000188188
0.000142549
0.0175387
0.000141529
0.000139003
0.000205659
0.0113024
0.00340535
0.000207807
0.00351184
0.000349126
0.000142976
0.000145629
0.000197147
0.00301246
0.000150587
0.000190477
0.000150481
0.00014532
0.0257622
0.000178889
0.000212058
0.000182453
0.0341108
0.000129532
0.000174198
0.000153622
0.000193123
0.00927456
0.00238366
0.000144965
0.000151091
0.03546
0.000155525
0.0122989
0.00310116
0.000144536
0.000188106
0.000212045
0.000137711
0.0164035
0.000154475
0.0358372
0.017213
0.000147138
0.000174202
0.000146879
0.000142663
0.000163778
0.0294914
0.00013243
0.000156314
0.0283541
0.000145718
9.4639e-05
0.0360823
0.000145521
0.0138658
0.000144177
0.000151505
0.000134978
0.000141158
0.000170754
0.000150862
0.000193986
0.000155734
0.000145283
0.000190412
0.0346574
0.000153559
0.000863714
0.0137703
0.00114072
0.000147086
0.000151133
0.000238086
0.000142331
0.000148167
0.0176717
0.000199158
0.000158497
0.000146579
0.000154196
0.000195327
0.000151295
0.00014245
0.0333366
0.000242886
0.000130504
0.000141366
0.00439648
0.0175872
0.000147924
0.000152363
0.000215369
0.000197631
0.0195316
0.000137387
0.018988
0.000154109
0.000155889
0.0256188
0.00197913
0.000193925
0.00527068
0.000141895
0.0105465
0.000153074
0.00247586
0.00460821
0.000144729
0.0289455
0.000150245
0.000136086
0.000162332
0.000795367
0.00790323
0.0131522
0.000144651
0.00022004
0.000187127
0.000160592
0.000150484
0.00014805
0.000149357
0.0245047
0.039359
0.0163267
0.0231975
0.000155587
0.000174817
0.0124549
0.000157218
0.000141013
0.00015559
0.0372148
0.000160383
0.0156735
0.0124832
0.0111456
0.000158488
0.0141903
0.000169337
0.00019295
0.00629734
0.0172886
0.0145821
0.0001928
0.000144476
0.023107
0.000136837
0.0216201
0.000136247
0.000140752
0.000148147
0.00445068
0.000448541
0.0149899
0.000170639
0.0104125
0.000143941
0.000174733
0.000136652
0.000195243
0.0114343
0.000220218
0.0194953
0.0195707
0.00501583
0.00479035
0.000149244
0.0180039
0.000147888
0.0258965
0.00048119
0.000156056
0.000144147
0.00200026
0.000198573
0.000130479
0.000144118
0.0163129
0.000137328
0.000147743
0.000194926
0.000250971
0.000133089
0.000194885
0.000178331
0.00119075
0.0133593
0.000145659
0.000139304
0.000388143
0.000144339
0.000532645
0.000174465
0.012862
0.000165401
0.000168005
0.000139648
0.000128812
0.0194939
0.000173503
0.000181606
0.000153342
0.0078129
0.000215709
0.00126312
0.00366175
0.000150746
0.00168129
0.0001427
0.000166898
0.000158885
0.0253241
0.000136979
0.000138323
0.0259702
0.000202432
0.0259619
0.00015801
0.0231339
0.00212305
0.000153549
0.0120621
0.00014989
0.00024937
0.00427535
0.0179308
0.000143045
0.00630029
0.0160205
0.0314838
0.0129734
0.0239754
0.000155657
0.0154293
0.00017233
0.00395787
0.000182396
0.000161622
0.000130543
0.000184064
0.000140716
0.00459495
0.00016095
0.000149858
0.000150166
0.000210411
0.000488363
0.000142153
0.00186428
0.000192113
0.00105336
0.0175713
0.011479
0.000149612
0.0132986
0.000132583
0.00276424
0.0300072
0.0149391
0.000143925
0.000201839
0.000143499
0.0147483
0.000159357
0.00325983
0.000176401
0.0230705
0.000192771
0.0299224
0.0001376
0.00598329
0.0013227
0.000147331
0.0001838
0.0313423
0.000147187
0.000145188
0.000168641
0.00289909
0.000143403
0.000142415
0.000140789
0.00178137
0.00016547
0.000191084
0.000211034
0.000161277
0.000150678
0.000127834
0.000137186
0.000135798
0.000271616
0.0127044
0.000141418
0.000156323
0.000144822
0.000188672
0.000149701
0.00147896
0.000149795
0.0233258
0.00214142
0.000147664
0.000209032
0.000207185
0.000140011
0.000131445
0.000204841
0.0186763
0.000139455
0.00318796
0.0268494
0.0210097
0.0192819
0.0193792
0.000182985
0.000146905
0.0250918
0.000143936
0.000201724
0.000135296
0.0131267
0.00013802
0.00872363
0.000153476
0.0272751
0.000136189
0.019271
0.000130762
0.000147614
0.000203545
0.000152428
0.000136924
0.00016568
0.0189932
0.000144101
0.0141306
0.000152589
0.0128052
0.0126633
0.0119518
0.0153622
0.000145559
0.000159074
0.0252977
0.0226063
0.000145117
0.000160442
0.000170149
0.000274876
0.000147718
0.0331187
0.000183383
0.000137552
0.0286644
0.0247408
0.000151807
0.0134388
0.000184595
0.000321252
0.0304121
0.000144833
0.000142278
0.00169383
0.000142866
0.0152611
0.000148819
0.0113502
0.0307861
0.000137671
0.000207584
0.000130037
0.000205343
0.000145446
0.000164976
0.030666
0.000145112
0.0123424
0.00015123
0.000146006
0.000241313
0.000147465
0.0319521
0.00337445
0.0159445
0.000221808
0.00166165
0.000154004
0.000142569
0.031869
0.0313277
0.000136897
0.00325229
0.000146816
0.000131756
0.0149634
0.00276498
0.000158872
0.00013995
0.00014445
0.000134622
0.0120138
0.000144545
0.00166678
0.000166834
0.0282334
0.000195715
0.000204425
0.000141384
0.00272582
0.0113296
0.000215592
0.000147497
0.00201729
0.000128375
0.0242142
0.0309666
0.000137228
0.000181619
0.000172215
0.000166671
0.000157003
0.000159603
0.00863343
0.0301417
0.0013002
0.000143012
0.012706
0.000148362
0.017875
0.00019112
0.000199308
0.025165
0.000144644
0.00351683
0.000190313
0.000155901
0.0128526
0.0194279
0.0315991
0.000203042
0.000146951
0.000205404
0.00461361
0.000167487
0.000524
0.0345526
0.0204305
0.0121677
0.000138521
0.00013504
0.000152825
0.000155107
0.000143246
0.000144118
0.000158194
0.000149428
0.0001755
0.0206818
0.0024155
0.000156789
0.0128052
0.000182323
0.00579126
0.000152602
0.000225328
0.000193387
0.0235276
0.0188102
0.000140089
0.0258345
0.0329286
0.000146532
0.000149627
0.0218114
0.0235153
0.00270943
0.000206295
0.000141096
0.0001527
0.00326559
0.000141507
0.000163653
0.0275806
0.000136604
0.000198119
0.0194704
0.0283166
0.000147906
0.00281775
0.000164644
0.000168782
0.0176023
0.000128434
0.000140721
0.000137564
0.00301442
0.0269572
0.000198496
0.000145618
0.00153066
0.000149257
0.000439963
0.00376578
0.000150856
0.000137989
0.000143488
0.0348606
0.00259848
0.0378248
0.000145793
0.03939
0.0187931
0.000430546
0.000141424
0.000297828
0.000145936
0.000136513
0.000140734
0.0123947
0.000189902
0.00126207
0.000171097
0.0420784
0.000141976
0.000146806
0.0287348
0.000159854
0.000143017
0.00949764
0.000160649
0.0345388
0.00270459
0.000146593
0.000136828
0.000145359
0.0327048
0.000736945
0.0115169
0.000191503
0.000186206
0.00874024
0.00139183
0.00447518
0.00636245
0.000236484
0.000144865
0.0013027
0.000137853
0.000132529
0.000204885
0.0184486
0.000140195
0.000146713
0.00351369
0.00026292
0.000158162
0.0181204
0.000148759
0.000203533
0.000147628
0.00817203
0.0229311
0.000226912
0.000139045
0.000146039
0.0308162
0.0213413
0.0313034
0.000245028
0.0307005
0.025012
0.0335712
0.00441004
0.0232721
0.00014622
0.00262292
0.0295442
0.00019613
0.000140982
0.000152049
0.0318125
0.000147625
0.000137778
0.0218288
0.000143708
0.0237018
0.000128725
0.0177199
0.0143126
0.0134123
0.000138082
0.000144828
0.000155273
0.000130018
0.0021142
0.000152289
0.00375856
0.0187693
0.000254486
0.000188683
0.000185449
0.00597013
0.000198014
0.00014498
0.00015018
0.000234857
0.000757586
0.00334387
0.00209638
0.00016961
0.000165971
0.000128945
0.000196467
0.000147927
0.00425128
0.000183086
0.000203305
0.000145164
0.000161368
0.000201779
0.000173352
0.0368688
0.0175344
0.000137143
0.00014979
0.000142475
0.0196693
0.000144508
0.0180999
0.000159151
0.0288215
0.000135203
0.025508
0.0138305
0.000131921
0.000142549
0.000186727
0.000191002
0.000177383
0.000333055
0.000136833
0.0139145
0.00924862
0.000140115
0.016123
0.000255152
0.00019001
0.000164036
0.0343197
0.0257459
0.016141
0.0041252
0.0094373
0.000136088
0.00576066
0.000143033
0.000134573
0.0193689
0.00037272
0.0251025
0.000496172
0.00328286
0.000470272
0.000154543
0.000146247
0.000139293
0.0306594
0.000134895
0.00018694
0.00598613
0.028929
0.000128063
0.000136071
0.0402313
0.000158666
0.0277287
0.000148812
0.000151728
0.000149221
0.000137307
0.000186574
0.00352267
0.00103807
0.0291369
0.000202624
0.000618172
0.00332142
0.000292
0.0331861
0.000139488
0.000211993
0.000142821