/*--------------------------------*- C++ -*----------------------------------*\
| =========                 |                                                 |
| \\      /  F ield         | OpenFOAM: The Open Source CFD Toolbox           |
|  \\    /   O peration     | Version:  v2012                                 |
|   \\  /    A nd           | Website:  www.openfoam.com                      |
|    \\/     M anipulation  |                                                 |
\*---------------------------------------------------------------------------*/
FoamFile
{
    version     2.0;
    format      ascii;
    class       volScalarField;
    location    "300";
    object      nut;
}
// * * * * * * * * * * * * * * * * * * * * * * * * * * * * * * * * * * * * * //

dimensions      [0 2 -1 0 0 0 0];


internalField   nonuniform List<scalar> 
27915
(
0.00555748
0.00142223
0.00880624
0.00586341
0.00595516
0.00382114
0.00586137
0.00762115
0.00594673
0.0120404
0.00223331
0.0111294
0.0128299
0.00586021
0.00592836
0.00582332
0.00159203
0.00594929
0.00132815
0.00756918
0.0141836
0.00588676
0.0151981
0.00593835
0.00582288
0.00581685
0.00835408
0.00595393
0.00150533
0.00298201
0.00587511
0.00409308
0.00583799
0.0058158
0.0107817
0.00581562
0.00603208
0.00581612
0.0023457
0.00594791
0.00575232
0.00602183
0.000425765
0.00582786
0.0163617
0.00595216
0.00584605
0.00306943
0.00601315
0.00593731
0.00864553
0.000933052
0.00829119
0.00349665
0.0028688
0.00584437
0.00582484
0.0105424
0.00926535
0.00587112
0.000920393
0.00505389
0.0152911
0.000151132
0.00588759
0.00252893
0.0107535
0.00854112
0.010785
0.00584964
0.00603294
0.00594199
0.00594944
0.01018
0.0119849
0.00617347
0.00326744
0.00581749
0.00212493
0.00446199
0.00440254
0.00595725
0.00266053
0.00599504
0.00733031
0.0161863
0.00580905
0.000466593
0.00958283
0.00473646
0.00595685
0.0107018
0.00593237
0.0105989
0.00131806
0.0095401
0.00268049
0.0119066
0.00509702
0.00579029
0.00244293
0.00581351
0.0118851
0.0058469
0.00550754
0.00595811
0.0101221
0.00110923
0.00581288
0.0113425
0.00901707
0.00576858
0.0031869
0.00350413
0.00123738
0.000890445
0.0173934
0.00417289
0.00585105
0.00599681
0.00595714
0.00436372
0.00584087
0.00589041
0.00597577
0.0119499
0.00654203
0.00197824
0.00589779
0.00594056
0.00506683
0.0075534
0.0107546
0.000577765
0.01702
0.00259177
0.0184155
0.00581386
0.00594297
0.00595887
0.00416768
0.00283047
0.00604849
0.00230577
0.0102267
0.0092865
0.00148503
0.0034566
0.00610485
0.00247294
0.0169702
0.00581105
0.000613411
0.00670615
0.000115961
0.0106091
0.00621212
0.00593161
0.00594138
0.00597369
0.000390006
0.000652612
0.00591282
0.00467058
0.008223
0.00585637
0.000582101
0.0133481
0.0120552
0.00599755
0.00510254
0.00595326
0.00596191
0.00301959
0.0058452
0.000953633
0.0112211
0.00587285
0.00595257
0.000145794
0.00969247
0.0055532
0.00606576
0.00989893
0.00234249
0.00340948
0.00597129
0.00592369
0.00433784
0.00580919
0.00716158
0.00213624
0.000442306
0.00587512
0.00582869
0.00595148
0.00341728
0.00534901
0.00599302
0.00307186
0.00817758
0.0167127
0.00594466
0.0059918
0.0010349
0.00200106
0.00085606
0.00620419
0.00145829
0.00595187
0.00270821
0.0185943
0.00600037
0.00585309
0.00597195
0.00604596
0.00611592
0.000351451
0.00594106
0.0059583
0.00593303
0.00581256
0.00290506
0.00591749
0.00126749
0.00360949
0.00582964
0.0111319
0.00594909
0.00584224
0.00140429
0.0060519
0.0189152
0.0129549
0.0138579
0.00583679
0.0179917
0.00605014
0.00604924
0.00589494
0.0125178
0.00587246
0.00606406
0.0158923
0.00589342
0.00593825
0.00644188
0.000120682
0.00544484
0.000294309
0.00259057
0.0110754
0.00585889
0.00587856
0.00595893
0.00270938
0.0055758
0.00594867
0.00177605
0.010125
0.0093248
0.001527
0.00373576
0.00332097
0.00368497
0.000519844
0.00581875
0.00738233
0.0111879
0.00940142
0.00583068
0.00192792
0.002148
0.000105221
0.00547445
0.00581864
0.00581945
0.0058864
0.00584183
0.00590178
0.005942
0.00579299
0.00581565
0.00604272
0.017575
0.0112974
0.00316067
0.00830897
0.00353054
0.00930741
0.00202472
0.00594428
0.000962141
0.0059342
0.00582256
0.00155583
0.0167815
0.0178952
0.00329704
0.00589185
0.000596582
0.00583328
0.00592707
0.00596929
0.0169866
0.00640567
0.00298296
0.0059431
0.00321923
0.00579509
0.0103463
0.00592106
0.01018
0.00594992
0.0126118
0.00599078
0.00579001
0.00721882
0.00236386
0.00221531
0.00607558
0.00580494
0.00582054
0.00593975
0.00384568
0.00587474
0.000391658
0.00196943
0.00587061
0.00588516
0.0058307
0.0061705
0.00594652
0.00592916
0.0177585
0.00583224
0.000960757
0.00584844
0.018649
0.000145583
0.00339862
0.00216629
0.0016164
0.00870853
0.00582935
0.00588576
0.00591684
0.00747084
0.0114329
0.00594497
0.0059389
0.00589688
0.0115961
0.00379012
0.00189189
0.000279966
0.00559326
0.00582805
0.00590317
0.00809222
0.00179919
0.00582159
0.0059376
0.00584109
0.0059131
0.000469395
0.00512279
0.00586329
0.00586838
0.00586669
0.00314649
0.00583769
0.0012393
0.00597369
0.0112752
0.0058438
0.00584512
0.00194958
0.0049914
0.00586211
0.00381183
0.00128095
0.00486786
0.0136581
0.00580773
0.00169924
0.011886
0.00128216
0.00595914
0.00276116
0.00587354
0.00394394
0.0115127
0.0058243
0.0120122
0.00164046
0.00519301
0.00606434
0.00597227
0.00940051
0.00590447
0.00502081
0.00137246
0.00593793
0.00275465
0.00588786
0.000787261
0.00582501
0.0167966
0.000899912
0.00580204
0.00488847
0.00582369
0.00593219
0.0113035
0.00594392
0.0013671
0.00581696
0.00158434
0.00589636
0.000830875
0.00597546
0.00213466
0.008022
0.00248522
0.00576712
0.00586088
0.00577978
0.00984331
0.00592791
0.00914962
0.00578729
0.00375118
0.00280886
0.00587337
0.00589107
0.00587324
0.00602802
0.00449445
0.00146488
0.00897487
0.00262408
0.000904566
0.000907388
0.00596368
0.00588769
0.0022933
0.00593815
0.000421461
0.00583216
0.0116162
0.00516484
0.00581651
0.00606477
0.00885744
0.0140556
0.0104165
0.0059034
0.00244567
0.00144908
0.00582031
0.00606829
0.00178297
0.00581953
0.00200257
0.00542561
0.00594921
0.00582781
0.0011985
0.00700322
0.00582939
0.00227494
0.00285056
0.00590995
0.00480554
0.00517515
0.00583284
0.00582946
0.00514726
0.00424017
0.012683
0.00447103
0.00211478
0.00711324
0.0010723
0.00590488
0.00496323
0.00366756
0.00540009
0.00587556
0.0126718
0.0110992
0.000548779
0.00580977
0.00368175
0.00217754
0.00588668
0.00808118
0.00805863
0.0028935
0.00583051
0.00583242
0.000855608
0.016389
0.00165436
0.00226534
0.00586283
0.00578556
0.00141881
0.0183974
0.00584898
0.000894705
0.00152683
0.00208396
0.00231281
0.00407944
0.010943
0.0058719
0.0013931
0.00330229
0.00601285
0.00581575
0.00591211
0.00453247
0.00580127
0.00846276
0.00344682
0.0113897
0.0141481
0.00337542
0.0057927
0.00807065
0.00516616
0.000861754
0.00339016
0.000487727
0.0103871
0.00594777
0.00179541
0.00587162
0.00586695
0.00483746
0.00587671
0.0108996
0.00592799
0.0174596
0.00590811
0.0114415
0.00584893
0.0111104
0.00586844
0.00595218
0.00331319
0.0108544
0.00519148
0.00568585
0.017927
0.00789754
0.00194053
0.00585471
0.00205475
0.0120324
0.00155098
0.00256952
0.00588134
0.00595143
0.00102227
0.0058725
0.00898536
0.0059226
0.00146369
0.00793811
0.00434
0.0075949
0.00582217
0.0100882
0.00260961
0.00123207
0.0165147
0.00587503
0.00596197
0.00145722
0.00432272
0.0113917
0.00808906
0.00599124
0.00378874
0.00581723
0.00592905
0.000105547
0.00593532
0.00587938
0.0175925
0.00424211
0.0070325
0.00588981
0.0055386
0.00258319
0.00589365
0.00580777
0.00629392
0.00593586
0.00581999
0.00581952
0.00360409
0.00582918
0.00340569
0.0060952
0.00592467
0.001574
0.00449832
0.00581993
0.00188355
0.00860377
0.00139173
0.00593838
0.00583415
0.000620362
0.00216691
0.00954443
0.00578913
0.00594481
0.00580785
0.00592931
0.00594153
0.00590267
0.00389586
0.00582637
0.00584146
0.00583624
0.00201875
0.00343033
0.0097898
0.00105129
0.00795429
0.00318083
0.00138975
0.00583469
0.0168419
0.00396692
0.00210192
0.00587645
0.0177097
0.00592371
0.00587222
0.00578798
0.00526763
0.00603488
0.00583735
0.00230496
0.00195161
0.0038482
0.000521164
0.00356868
0.0114551
0.00593297
0.00740748
0.00993268
0.00194599
0.00579964
0.00579234
0.0034737
0.00582494
0.00496376
0.00136233
0.00600776
0.0125573
0.00117191
0.00277975
0.00478059
0.00581565
0.00594997
0.00595359
0.00585252
0.00580036
0.00594975
0.00584684
0.0109039
0.00587434
0.00132536
0.005947
0.00458906
0.00429659
0.00593832
0.00589044
0.00184857
0.0112612
0.00587589
0.00587303
0.00595079
0.00593553
0.000799139
0.00585921
0.00585435
0.00572246
0.00581527
0.00818032
0.010246
0.00135126
0.00593665
0.00120485
0.00713878
0.00438566
0.00599802
0.00319132
0.00594333
0.0111661
0.00547975
0.00288049
0.00228038
0.00587146
0.00594067
0.00582879
0.0018115
0.00668819
0.0114053
0.00581593
0.00578777
0.00594492
0.0116288
0.00169793
0.00591447
0.00365013
0.00583933
0.0145766
0.00124649
0.00694081
0.0037311
0.00265696
0.00543706
0.00597397
0.00253135
0.00154836
0.00579016
0.00181555
0.00198598
0.00593483
0.00374367
0.00981979
0.000575432
0.00592771
0.00581066
0.0137092
0.0125071
0.00197368
0.0019749
0.00288514
0.00582324
0.0100729
0.00586584
0.00597107
0.00593478
0.00580234
0.00592086
0.00590038
0.013761
0.00588351
0.0068576
0.00585603
0.0108359
0.00593295
0.00353799
0.00596528
0.0143962
0.00593398
0.00979641
0.00232289
0.0106311
0.000761492
0.000277975
0.000553265
0.00581024
0.00117474
0.00486733
0.00584568
0.0138106
0.00580378
0.00329662
0.000735316
0.00590549
0.0058694
0.00282771
0.00585599
0.0178626
0.00579108
0.00593126
0.00233439
0.00128642
0.00594586
0.00419435
0.00365786
0.00999254
0.0068518
0.00580669
0.00582799
0.0171018
0.00129097
0.00592389
0.00230149
0.00585954
0.0101999
0.000344593
0.00391521
0.00595384
0.00580841
0.00590992
0.00626109
0.00584825
0.00572716
0.00349011
0.00593004
0.00590887
0.00304841
0.00195606
0.00583128
0.0059142
0.0075873
0.00140869
0.0104765
0.00153058
0.00586149
0.00458675
0.00278418
0.00361484
0.00584919
0.00211462
0.0017968
0.00555354
0.00585001
0.00167316
0.00222376
0.00592301
0.00589686
0.0105928
0.00223116
0.00592371
0.00584813
0.00813603
0.00571522
0.00127605
0.00461587
0.00592977
0.0066991
0.0128514
0.0100603
0.00155281
0.00151772
0.00594786
0.00590083
0.00580298
0.00150367
0.00889516
0.00580018
0.00458685
0.00594619
0.00458375
0.00208029
0.00582174
0.00135254
0.00580037
0.00210058
0.00588589
0.00585256
0.00592821
0.00218839
0.00370594
0.0058101
0.00425134
0.0017388
0.00242507
0.00204879
0.00365625
0.00581876
0.00583946
0.00589188
0.00242167
0.00117207
0.00582934
0.00588908
0.00591839
0.0159048
0.0159475
0.00192911
0.00586266
0.00178222
0.00470035
0.00593485
0.00593843
0.0150792
0.00852463
0.0116165
0.0033348
0.00192669
0.0116157
0.0028845
0.00236886
0.00584155
0.00595376
0.00420591
0.00608
0.0021097
0.000161542
0.00204785
0.00592181
0.00181379
0.000429809
0.00599262
0.00584144
0.00582226
0.00816955
0.00596866
0.00510311
0.00589928
0.0045546
0.00158302
0.00594664
0.00585502
0.0107809
0.00564621
0.00172598
0.00582716
0.00591957
0.00597969
0.00552156
0.00455886
0.00593038
0.00583857
0.00594269
0.00591392
0.00593883
0.013012
0.00597195
0.00593125
0.0059388
0.00205651
0.00784884
0.00171597
0.00335299
0.0185407
0.00271798
0.00589591
0.00600512
0.0020418
0.00592055
0.00244422
0.00583741
0.00351977
0.00593485
0.00594286
0.00595595
0.00591555
0.0058511
0.00314631
0.00582985
0.0057898
0.0117189
0.0176414
0.00592584
0.0055125
0.00593836
0.00236266
0.00584971
0.00739042
0.00439025
0.00170574
0.00581478
0.00601776
0.00592032
0.00581118
0.00573061
0.00059678
0.0058203
0.0112206
0.00660146
0.0171982
0.0023887
0.00591687
0.0028682
0.00529803
0.00379305
0.00593738
0.0034376
0.00582946
0.00591977
0.0129153
0.00310243
0.00243856
0.0117278
0.0108404
0.00689501
0.00758915
0.00618861
0.00587206
0.00979516
0.00506471
0.00914056
0.00503381
0.00460983
0.00530855
0.00422524
0.000923275
0.00517097
0.0113216
0.00694282
0.00594582
0.00282491
0.00326887
0.00176511
0.000335464
0.00589431
0.0059451
0.00592415
0.00328641
0.00582936
0.00592169
0.00445421
0.00506202
0.00593561
0.000962341
0.00590922
0.0012358
0.00585608
0.00933524
0.000971175
0.000968729
0.00591043
0.000976032
0.00277899
0.00225499
0.00593445
0.0059802
0.00592464
0.00587522
0.00236166
0.00280281
0.00525216
0.00223887
0.00182824
0.00585445
0.0160049
0.008859
0.0058035
0.00589419
0.0167078
0.00586455
0.00467817
0.00281472
0.00287778
0.00587923
0.00560801
0.00380928
0.00272952
0.00252638
0.00947159
0.00595002
0.00592069
0.0058159
0.00200743
0.00454642
0.00585883
0.00312667
0.00583204
0.0057896
0.00586939
0.00583843
0.00462981
0.00586877
0.00595593
0.00588631
0.00580487
0.00605585
0.0058028
0.00190898
0.0027537
0.000292226
0.00520761
0.0118802
0.011189
0.00441927
0.000881616
0.00348857
0.00146869
0.00135752
0.00216043
0.00590357
0.00226574
0.00483899
0.0170372
0.0049348
0.00182682
0.000281874
0.00593278
0.0136175
0.00216982
0.0121544
0.00295057
0.00589523
0.00594815
0.0112161
0.0060618
0.00121416
0.00358137
0.00578695
0.000631133
0.00481434
0.00414495
0.00585007
0.00592279
0.00126337
0.00744346
0.00514692
0.00579572
0.0159554
0.00568503
0.00591863
0.00590754
0.00531478
0.00587766
0.00464379
0.00580763
0.00576508
0.00251186
0.00210923
0.00391455
0.00762682
0.00580736
0.00630859
0.00592459
0.00590107
0.00587723
0.0114135
0.00592516
0.00591622
0.00361693
0.00593933
0.00998284
0.00700311
0.00583234
0.00593659
0.00594205
0.00124156
0.00581989
0.00378889
0.00581618
0.00141098
0.00598996
0.00586655
0.00583752
0.0111372
0.007367
0.00779874
0.0111885
0.00994914
0.00581409
0.00515838
0.00671072
0.00100224
0.0055907
0.00529723
0.00583921
0.00726872
0.00595658
0.00581544
0.00584367
0.0049058
0.00230025
0.0113681
0.00592934
0.00783714
0.00507777
0.0114765
0.0175158
0.00603525
0.00134316
0.0124824
0.00590823
0.00240151
0.00478091
0.00585426
0.00418099
0.0100113
0.000501541
0.0189689
0.00594754
0.00308312
0.00591614
0.0106375
0.00377106
0.0050272
0.00847382
0.000815107
0.00588543
0.0110647
0.0143097
0.00533101
0.00471113
0.00643699
0.00584769
0.00584319
0.0195136
0.00526052
0.00582615
0.0058712
0.0059339
0.00593964
0.00476063
0.00591327
0.00199359
0.0130723
0.00594063
0.00590082
0.00594207
0.00579485
0.00590259
0.00225055
0.00592437
0.00581753
0.0058518
0.00347922
0.00719149
0.0179546
0.0022084
0.0026472
0.00585165
0.00583872
0.00850488
0.00588678
0.00398205
0.00516508
0.00284417
0.00350882
0.00798224
0.00593438
0.00600017
0.00346366
0.00599141
0.00582449
0.00319477
0.000333654
0.00599624
0.00591601
0.00595877
0.00587444
0.0109065
0.00205348
0.00397789
0.00903943
0.00581343
0.00187844
0.0122398
0.00606259
0.00593341
0.00585313
0.00576992
0.00582468
0.00599776
0.00830617
0.00589148
0.00584703
0.00374015
0.00592068
0.00739032
0.00582559
0.00594074
0.006054
0.00100979
0.0101015
0.00596786
0.000278093
0.00154494
0.00592546
0.00206155
0.00291485
0.011083
0.0059066
0.00590678
0.00505421
0.00913186
0.0069895
0.00429381
0.0028582
0.00589995
0.0113155
0.000765897
0.00191464
0.00588332
0.00719734
0.00582794
0.00832072
0.00570283
0.0012861
0.00343104
0.0047411
0.00588408
0.0160698
0.00583959
0.00581382
0.0056866
0.00847412
0.00595686
0.000879843
0.00594414
0.0038963
0.00580841
0.00832279
0.00594322
0.00340385
0.0109385
0.00587597
0.00592216
0.000472094
0.0114998
0.00870189
0.000572427
0.00561185
0.00468181
0.0058423
0.00213965
0.00589075
0.00591787
0.00290317
0.01416
0.00770931
0.00867367
0.00604489
0.00591014
0.00601093
0.00393999
0.00587483
0.00261664
0.0093731
0.00520258
0.00195324
0.00582902
0.0137388
0.0059749
0.00411328
0.00794585
0.00146773
0.00589265
0.00584587
0.00525236
0.00593178
0.00191336
0.00347073
0.00232326
0.00582876
0.00208462
0.00578451
0.00598405
0.00132718
0.0035235
0.00212528
0.00769635
0.00589351
0.0109
0.00227311
0.0057895
0.00595863
0.0059191
0.00864844
0.00273341
0.00301374
0.000723232
0.00260632
0.00534498
0.00586959
0.0059294
0.005951
0.0104284
0.000532251
0.00587097
0.00255172
0.00581934
0.00357913
0.00597241
0.00582885
0.00791768
0.00602121
0.00545631
0.00581734
0.00585092
0.00590408
0.0058589
0.00280129
0.00584552
0.0108579
0.00207036
0.00589418
0.00612541
0.00500952
0.00142857
0.00585243
0.00151577
0.00590989
0.00396066
0.00590775
0.0111549
0.0182825
0.00585448
0.00903837
0.0105666
0.00594695
0.002253
0.00110938
0.00215773
0.00183217
0.00585855
0.00592147
0.0044236
0.00592521
0.00352607
0.000483117
0.00102485
0.0115286
0.00587769
0.0132585
0.0111479
0.00587583
0.010608
0.00386815
0.0183765
0.00202201
0.00936004
0.00588941
0.0110554
0.00230818
0.0208509
0.0140578
0.00104275
0.007816
0.00585382
0.00587454
0.00406761
0.00975208
0.00203607
0.00948632
0.0058214
0.00463287
0.00586936
0.00591682
0.00587422
0.00198392
0.00562398
0.00597259
0.00593959
0.00586554
0.00376634
0.0058913
0.00135384
0.00584658
0.0114955
0.00592275
0.00578984
0.0086727
0.00594756
0.000871371
0.000721314
0.0058637
0.0073918
0.00118124
0.0168418
0.00287551
0.0180291
0.00588216
0.00442376
0.00581722
0.0043901
0.00185326
0.00496557
0.00868212
0.0059994
0.00582019
0.00452371
0.00589254
0.00721629
0.00585113
0.00587488
0.00585312
0.00505547
0.00623733
0.00447278
0.00592652
0.00592702
0.0110234
0.00580632
0.00410948
0.0128766
0.00496466
0.000390945
0.0027732
0.00237847
0.0105851
0.00588686
0.0187002
0.00238816
0.00587737
0.0150922
0.00273241
0.00587548
0.00586974
0.00596692
0.00602957
0.0022225
0.00917889
0.0024571
0.00584334
0.0059184
0.00595071
0.00583352
0.00595976
0.00493003
0.000422221
0.00589044
0.00586711
0.000185099
0.0118492
0.000713073
0.010396
0.00150198
0.00585139
0.000575299
0.0108095
0.0107528
0.0106086
0.00595298
0.001665
0.00331944
0.0059333
0.0075093
0.00151886
0.00581258
0.0116895
0.00599691
0.00583997
0.00909928
0.00587608
0.00153399
0.00971636
0.00591544
0.00726184
0.00534502
0.00576355
0.00820558
0.0169872
0.00585278
0.00583076
0.00585171
0.00592759
0.00341295
0.0036123
0.00585271
0.005866
0.00470943
0.011572
0.00354719
0.00227722
0.00588085
0.0075164
0.00467863
0.0115901
0.00595835
0.00585437
0.00595857
0.00598244
0.0031781
0.00530427
0.00581035
0.00151022
0.00968416
0.00589118
0.00585867
0.00233226
0.00593464
0.00876606
0.00982474
0.00371651
0.00603587
0.00583438
0.0059572
0.00585562
0.00583901
0.00595892
0.0059224
0.0107119
0.00584997
0.00411146
0.00588562
0.00975181
0.00532509
0.00521476
0.00628299
0.00912751
0.0119233
0.0166685
0.00103393
0.000587267
0.0124974
0.00201362
0.00444821
0.00581945
0.000612916
0.0102776
0.000984228
0.0058157
0.00971331
0.00584982
0.000375592
0.0104262
0.00123351
0.00591219
0.00592247
0.00595017
0.00587496
0.00484258
0.00152457
0.00590945
0.0179513
0.000435718
0.011918
0.00581586
0.000725403
0.00205434
0.00533404
0.00122868
0.0114245
0.000385871
0.00592971
0.000750181
0.00535591
0.00988268
0.00589538
0.00584118
0.00598381
0.0172073
0.00805504
0.00595543
0.00595539
0.00587477
0.00583862
0.0019356
0.00828666
0.00364267
0.003834
0.00585293
0.00857189
0.00530173
0.00184629
0.00341292
0.00119677
0.00359449
0.0184051
0.00591681
0.0166626
0.0189736
0.00302243
0.00584572
0.0119355
0.00566017
0.0114166
0.0038774
0.00595974
0.00585391
0.0043321
0.0059607
0.00584077
0.00409967
0.000838707
0.00590331
0.00583351
0.00600168
0.00583819
0.00586862
0.00225777
0.00606695
0.0114278
0.00587916
0.00254581
0.00585787
0.00418086
0.0081303
0.00551639
0.00588712
0.00581553
0.00280537
0.00190269
0.00662656
0.00718844
0.00591908
0.00615606
0.0105116
0.00485491
0.0126207
0.00300816
0.00464207
0.00584427
0.00598663
0.00664013
0.00590112
0.00603183
0.00590558
0.00594579
0.00583082
0.00590116
0.00595766
0.00588726
0.00694483
0.00582885
0.00595406
0.00592236
0.00398416
0.00832161
0.0056847
0.00194335
0.00525296
0.00573269
0.0106825
0.00583054
0.00508875
0.00590584
0.00245203
0.00587727
0.00475925
0.00363476
0.000974334
0.00603472
0.00589807
0.0116128
0.00594411
0.000797186
0.00590643
0.000931097
0.0191235
0.00169969
0.00574578
0.00223004
0.00595045
0.010701
0.00204683
0.00407679
0.00447783
0.013315
0.018491
0.00947523
0.00583254
0.0059333
0.00595052
0.00340359
0.00593546
0.00177753
0.00173783
0.00544701
0.00984861
0.00603505
0.00587131
0.00590043
0.000589322
0.000870862
0.00906439
0.00589432
0.000529443
0.00585653
0.000429133
0.00527142
0.00453649
0.00572295
0.0129398
0.00591141
0.00745629
0.00611327
0.00539238
0.00649902
0.000516745
0.00312765
0.005338
0.00592666
0.00610741
0.00595025
0.00492227
0.00595818
0.00662693
0.00587021
0.00595681
0.00590759
0.0112091
0.00585157
0.00436201
0.0150137
0.00266463
0.00364927
0.00247524
0.00136198
0.00587814
0.00549066
0.00585021
0.00346209
0.0172894
0.0187373
0.000335145
0.0114592
0.000792766
0.00778435
0.00579604
0.00531274
0.00615914
0.00270046
0.00593687
0.00783101
0.00147403
0.00698799
0.0058982
0.00241919
0.00588889
0.00582276
0.00879576
0.00591562
0.00260691
0.0059666
0.00223108
0.00578775
0.00581516
0.00579493
0.00274732
0.00592248
0.00843166
0.00593498
0.00589409
0.00959536
0.00585374
0.00385377
0.00525711
0.00594974
0.00199978
0.00385607
0.00585187
0.00586256
0.004386
0.00261991
0.00584961
0.0058526
0.00208058
0.00421352
0.00365661
0.00138624
0.00582333
0.00129899
0.00588291
0.00601753
0.00183601
0.00475515
0.0066747
0.00593541
0.00176646
0.00308006
0.00459239
0.00207018
0.00597188
0.0133069
0.00594826
0.00589687
0.00115291
0.00262703
0.00607678
0.00261979
0.00582309
0.00584436
0.00391628
0.00164266
0.00391684
0.00138738
0.0019387
0.0015881
0.00580327
0.000918169
0.00586914
0.0064852
0.00383435
0.00584778
0.00505783
0.00584311
0.00583225
0.00204761
0.000965804
0.0111602
0.00127143
0.0113766
0.00230606
0.00590711
0.00590138
0.00169895
0.00134028
0.00588581
0.0041297
0.00583209
0.00594415
0.0105769
0.00529751
0.00512396
0.00188045
0.0114048
0.00581245
0.00596247
0.00579752
0.000394866
0.0135875
0.00746207
0.00591581
0.00587249
0.0115861
0.00424431
0.00142934
0.00820683
0.0058589
0.00340458
0.00594414
0.00592023
0.00634111
0.00397795
0.0190695
0.00424651
0.00594557
0.00598886
0.00595674
0.00582482
0.00353523
0.00887673
0.00580699
0.00602451
0.00743495
0.00589761
0.00031633
0.0116269
0.00589355
0.00211598
0.0059038
0.00585844
0.00581097
0.00582783
0.000355169
0.00589441
0.00139638
0.00602442
0.00592569
0.00211659
0.0115184
0.00582189
0.000802627
0.00273121
0.00816595
0.0058597
0.00545036
0.00649488
0.00591384
0.0059472
0.00435617
0.000773119
0.00248024
0.00587168
0.006014
0.000749644
0.00590091
0.00596278
0.0113353
0.00399567
0.00581621
0.00583142
0.00937582
0.00608781
0.00596141
0.00599401
0.00627412
0.00163907
0.00594712
0.00581604
0.00371281
0.00581296
0.00588628
0.0091138
0.0059849
0.00092638
0.00238898
0.00586838
0.00144551
0.00403294
0.0101188
0.0112156
0.00593263
0.0102432
0.00586059
0.00583475
0.00597048
0.000661917
0.0115416
0.00447233
0.00591366
0.00520504
0.00527502
0.00589366
0.00592198
0.00584102
0.00583613
0.00851002
0.0119386
0.00519157
0.00709048
0.00403466
0.00529279
0.00930907
0.00286353
0.00582649
0.00574636
0.0116959
0.00590737
0.0122506
0.0105426
0.00413781
0.00552539
0.00256438
0.00390887
0.00195589
0.0030193
0.00805834
0.0165558
0.00137957
0.00586735
0.00650264
0.00581359
0.00854017
0.00590181
0.00587401
0.00584671
0.0110564
0.00169934
0.00193939
0.00199902
0.00395366
0.00586436
0.00206657
0.00584167
0.00185896
0.00855341
0.00142009
0.00511464
0.00595258
0.000183568
0.0115379
0.0059564
0.00399233
0.0059444
0.00797135
0.00674814
0.00569807
0.00588737
0.000956926
0.000799123
0.00581581
0.00586766
0.00242189
0.00581511
0.0059557
0.00133853
0.00182222
0.00582598
0.00170196
0.00263498
0.00517181
0.00545304
0.0059414
0.0059093
0.00659335
0.00586485
0.000871019
0.00197755
0.00505844
0.00403046
0.00250015
0.00591672
0.00579036
0.0174133
0.00225432
0.00214509
0.00578439
0.000491431
0.000912373
0.00373392
0.0115069
0.00593133
0.00729137
0.00587513
0.00228843
0.00554854
0.0152556
0.00586089
0.00592556
0.0076257
0.00132889
0.00934447
0.00555263
0.0125796
0.00342054
0.00326502
0.00152677
0.00583739
0.00475434
0.012866
0.00529197
0.00596608
0.0114364
0.0131934
0.00896398
0.0046332
0.00779145
0.00572168
0.0034533
0.000575169
0.0116475
0.00186295
0.00522806
0.00585232
0.00265174
0.00583181
0.00799723
0.00529408
0.00594429
0.00589901
0.000598104
0.00650239
0.00591088
0.00802461
0.00207361
0.00318903
0.00734995
0.00512195
0.00582409
0.00530097
0.00580232
0.0102539
0.00923482
0.00491159
0.00585104
0.00136941
0.0058417
0.00420963
0.00594299
0.0112701
0.00569534
0.00557409
0.000899874
0.0137126
0.0058557
0.00701183
0.00589984
0.00594093
0.002382
0.0138939
0.0058586
0.00594417
0.00404431
0.0121559
0.00584008
0.0058614
0.00585135
0.00839225
0.00274645
0.0021058
0.00195601
0.00526773
0.00588243
0.00578696
0.00592195
0.00591451
0.00384515
0.00349396
0.0058419
0.00325205
0.00588302
0.00229988
0.00595155
0.00251685
0.00588714
0.00918917
0.00104097
0.00596028
0.000778021
0.00601936
0.0059374
0.00587533
0.00134893
0.0173767
0.00587498
0.0110121
0.0108628
0.0202072
0.00814348
0.00458974
0.00173711
0.00595719
0.0150856
0.0059491
0.0014486
0.00588479
0.00121524
0.00592089
0.0064822
0.00331148
0.00623032
0.00590447
0.00293308
0.00584523
0.00595904
0.000897044
0.00436123
0.00587324
0.00250531
0.0042734
0.00594971
0.0061258
0.00389509
0.00134441
0.0148759
0.00120487
0.00384194
0.00588342
0.00244696
0.00786034
0.00665378
0.005917
0.00517404
0.00469584
0.00385232
0.00592953
0.0177244
0.00283345
0.00591621
0.0115635
0.0101723
0.0058475
0.00199363
0.00134931
0.00340119
0.00544869
0.00593698
0.00590268
0.00890963
0.00585807
0.00350431
0.00587262
0.00474288
0.0177225
0.00592513
0.000777672
0.00582493
0.00116146
0.00590701
0.0027628
0.0109678
0.00599558
0.0085288
0.00421522
0.00595581
0.00484214
0.00593503
0.0098655
0.011264
0.0039429
0.00166787
0.005593
0.00602039
0.00591531
0.0111646
0.011183
0.00581452
0.0111754
0.00592458
0.00588055
0.005709
0.0104541
0.00609655
0.00588934
0.00592141
0.00582371
0.00148827
0.00590243
0.00665968
0.00467897
0.00489647
0.00164444
0.00214804
0.00584176
0.00942991
0.00128068
0.00467075
0.00585226
0.0058393
0.00578844
0.00790107
0.0104891
0.00591978
0.00302829
0.00531789
0.0019848
0.00562768
0.00551397
0.000612288
0.0131802
0.00401064
0.00582956
0.00151316
0.00596072
0.00312088
0.00209934
0.00140495
0.00652795
0.00595126
0.011765
0.00215841
0.00477751
0.00363956
0.0107798
0.00982027
0.000836296
0.00595771
0.00118526
0.0128989
0.00392318
0.00601435
0.0104851
0.00556967
0.0171648
0.0059135
0.00580959
0.00400928
0.00577288
0.00587996
0.00594317
0.00251
0.0059517
0.00532749
0.0169957
0.00287624
0.00606333
0.00566363
0.00567247
0.0022801
0.00588028
0.00100618
0.000940961
0.0130239
0.00800511
0.00582918
0.011226
0.0110738
0.00592363
0.0059834
0.0071793
0.00776549
0.00941682
0.000927405
0.00582762
0.00581303
0.0113235
0.00588475
0.00292986
0.0177725
0.00590925
0.00254
0.0176565
0.0151287
0.00595911
0.0100638
0.00445154
0.00242005
0.00512304
0.00578926
0.00583017
0.00592797
0.0123459
0.00895195
0.000526228
0.00589358
0.0075039
0.00532427
0.00527623
0.00211145
0.00592887
0.00592198
0.00589876
0.0112198
0.00962502
0.011627
0.00588233
0.00993788
0.0029504
0.00481714
0.00583177
0.00491001
0.00595709
0.00590578
0.00582875
0.00419402
0.00114622
0.0016241
0.00569122
0.0193948
0.000256977
0.00586543
0.0102682
0.00521167
0.00583006
0.00710144
0.00425306
0.0113183
0.00981238
0.00588512
0.00585707
0.00588048
0.011329
0.0015445
0.0108058
0.0013391
0.00171246
0.00376611
0.00181488
0.0105528
0.0125297
0.00466249
0.00589872
0.00547497
0.00592091
0.00580106
0.00221006
0.0161998
0.00592797
0.00595672
0.00669655
0.00449725
0.00609398
0.00608659
0.00595952
0.00560965
0.0058675
0.00615896
0.0130217
0.0038337
0.00583261
0.00587934
0.00934554
0.00761415
0.0110838
0.0045291
0.011541
0.0101839
0.0132335
0.0117098
0.00863297
0.00586411
0.00668794
0.0133158
0.00515802
0.00585381
0.00589987
0.0110751
0.00593772
0.0059185
0.00628917
0.00596148
0.00832906
0.00579225
0.00413411
0.00521144
0.00215262
0.00592279
0.00595024
0.000364973
0.00583741
0.0094309
0.00533911
0.00873005
0.0174639
0.00406991
0.00172612
0.00317662
0.000885093
0.00154466
0.00591598
0.00599527
0.00371765
0.00158751
0.0115124
0.00100484
0.00439313
0.00218311
0.00579074
0.00135634
0.00589608
0.0128573
0.00535576
0.00131563
0.0058956
0.005266
0.00139136
0.00400053
0.0114805
0.00392214
0.00584262
0.00594606
0.005888
0.00639036
0.00594543
0.0172075
0.00581817
0.014068
0.00582148
0.0136427
0.00189884
0.0058006
0.00591408
0.00231569
0.00147305
0.00229911
0.00511855
0.00582064
0.00659248
0.00344205
0.00582643
0.00263737
0.00172493
0.00148356
0.00478636
0.0113553
0.00718102
0.00588487
0.0110987
0.00368803
0.00590054
0.0143804
0.00593479
0.0058155
0.00363491
0.00492787
0.00998408
0.00474479
0.0116344
0.000882804
0.00569587
0.00590495
0.0058573
0.010726
0.0058078
0.00165346
0.011608
0.00836374
0.00579162
0.00581157
0.0116852
0.00245894
0.00990556
0.00593596
0.00588876
0.00592592
0.00591281
0.0013324
0.00845411
0.00499367
0.0155071
0.00590712
0.00601679
0.0117776
0.00523699
0.018071
0.00582475
0.000818188
0.00592221
0.00585789
0.0072663
0.00042918
0.0134427
0.00452348
0.00322038
0.00155295
0.00581441
0.00162516
0.00848589
0.00582637
0.0033245
0.0050974
0.00582531
0.0059054
0.00607994
0.00225174
0.00585276
0.0114963
0.00649602
0.0119691
0.00580344
0.00118568
0.00633647
0.00904594
0.0158109
0.005789
0.00810362
0.00189122
0.004475
0.0125914
0.00596204
0.00404575
0.00586014
0.00802392
0.0011478
0.00595533
0.00278481
0.00156524
0.0136635
0.00201396
0.00592764
0.00606119
0.00592906
0.00594484
0.00590139
0.00589761
0.00592936
0.010106
0.00588634
0.00155587
0.00592156
0.00581563
0.00593018
0.0021121
0.00589265
0.00547104
0.00634376
0.00987986
0.00590422
0.00680484
0.00512392
0.015404
0.00951742
0.00292096
0.000866148
0.005887
0.00878705
0.00907154
0.0170548
0.00579392
0.00249686
0.0107229
0.00590282
0.00586201
0.00224891
0.00594505
0.00582293
0.00987395
0.00322856
0.00423565
0.0022567
0.0157447
0.00590123
0.00826532
0.00351941
0.000851591
0.00591774
0.00594866
0.00555512
0.00296748
0.005811
0.00420258
0.00654504
0.00591817
0.0037064
0.0059486
0.0191308
0.00123346
0.00476813
0.00417482
0.0118068
0.00635989
0.00593067
0.00357492
0.00590038
0.00594277
0.00701338
0.00953044
0.00116943
0.0117905
0.0108052
0.00594293
0.00228391
0.00368349
0.0112884
0.0057888
0.00593131
0.00593237
0.00518677
0.0108265
0.0109431
0.00240584
0.00213637