/*--------------------------------*- C++ -*----------------------------------*\
| =========                 |                                                 |
| \\      /  F ield         | OpenFOAM: The Open Source CFD Toolbox           |
|  \\    /   O peration     | Version:  v2012                                 |
|   \\  /    A nd           | Website:  www.openfoam.com                      |
|    \\/     M anipulation  |                                                 |
\*---------------------------------------------------------------------------*/
FoamFile
{
    version     2.0;
    format      ascii;
    class       volScalarField;
    location    "300";
    object      omega_0;
}
// * * * * * * * * * * * * * * * * * * * * * * * * * * * * * * * * * * * * * //

dimensions      [0 0 -1 0 0 0 0];


internalField   nonuniform List<scalar> 
27915
(
0.0284248
0.0991671
3.0451
0.0237569
0.0244345
0.0314305
0.0226448
3.09839
0.024311
3.36271
0.0446766
2.72353
0.404414
0.0226344
0.0232873
0.0238821
1.19103
0.0247621
0.154009
3.12621
0.392428
0.0258872
1.80784
0.0246615
0.0238858
0.0234755
2.35072
0.0244132
8.44742
0.0281442
0.024506
0.042167
0.0232652
0.0232899
2.65779
0.0232971
0.0252568
0.0234782
0.0637127
0.0244993
0.0268558
0.0252217
0.426817
0.0240406
1.19941
0.0245226
0.0242486
0.0391287
0.0246828
0.0238826
2.94242
0.121179
2.27531
0.0281607
0.0288868
0.0242491
0.024493
0.399661
0.367248
0.024495
0.816816
0.0323382
1.19465
29.6754
0.0247099
0.0665405
2.69311
2.97421
2.67049
0.0245497
0.0361129
0.0246826
0.0247708
0.42749
3.27913
0.0562988
0.0279796
0.0230222
4.28552
0.109186
0.0311
0.0247559
0.0343283
3.42976
2.70011
0.69826
0.0232435
0.48613
3.92905
0.0694434
0.0249292
0.442153
0.0238542
2.30128
9.16268
2.97135
0.0898637
3.29986
0.0320096
0.0222522
0.0320618
0.0234644
3.26718
0.0255597
0.0288602
0.0247464
2.34497
0.0971571
0.0234669
3.01862
2.6691
0.0267494
0.123594
0.0810645
0.0929259
0.117763
2.23803
0.0411455
0.0255344
0.0247668
0.0248876
0.0880724
0.0232804
0.0258634
0.0244326
1.34222
1.5594
7.32345
0.0245077
0.024049
0.0322819
2.34754
2.29707
0.760778
1.7231
0.0646991
2.0433
0.0232372
0.0240794
0.0248035
0.0278864
0.0290026
0.0256318
2.35846
2.60377
2.88903
8.8208
0.0381921
0.0648576
0.0346209
2.29772
0.0232161
0.227048
2.16007
0.341613
2.73877
2.83713
0.0235921
0.0240865
0.0252772
0.182188
14.8669
0.0236855
0.0964713
0.286452
0.0246582
0.188169
1.75038
3.33348
0.0253763
0.0316849
0.0248222
0.0244697
0.0402263
0.0225832
10.605
3.00214
0.0253161
0.0235782
32.6352
4.00822
0.0349903
0.0257453
2.84436
0.0644904
0.0865897
0.0238949
0.0238405
4.31462
0.0232332
3.32391
0.0508707
0.627054
0.0253019
0.0222253
0.0246702
0.0829008
0.133129
0.02511
0.0325938
2.28756
2.33067
0.0234727
0.0247233
10.4844
7.39326
0.0952841
0.0331172
8.09994
0.024345
0.0337621
1.7458
0.024983
0.0246801
0.0245604
0.0261058
0.03237
0.277481
0.0240748
0.0246904
0.0246125
0.0275701
0.029141
0.0240945
9.02896
0.0750816
0.0240713
0.953723
0.0241235
0.0232003
9.30297
0.0303103
1.78065
1.7679
0.38927
0.0256201
1.53788
0.0261654
0.0258409
0.0236259
0.959471
0.0259337
0.0334321
2.36285
0.02449
0.023575
2.16126
28.7743
0.0292905
0.606169
0.028745
2.7976
0.0223276
0.0245206
0.0246828
0.088929
0.0282929
0.0241885
0.0516061
2.34443
3.18212
0.112021
0.0562815
0.0729565
0.0576529
0.893104
0.0237419
3.32996
2.81491
2.57574
0.0254108
7.01354
6.56542
28.154
0.0290711
0.0237464
0.025808
0.0258137
0.023535
0.0257426
0.0240465
0.0222981
0.0230076
0.0291366
0.704821
2.99408
3.12254
1.00658
0.0281935
3.39343
0.102996
0.0247179
11.0714
0.0247571
0.0257951
0.105864
0.674589
1.91373
0.0376366
0.0248978
0.323304
0.0304491
0.0238816
0.0252197
0.699166
2.24016
0.0329318
0.0237054
3.16832
0.0258476
1.00129
0.0248581
2.59964
0.0241742
0.983131
0.0248552
0.0222608
3.12364
6.72561
7.25869
0.0297178
0.0221646
0.0237702
0.0246331
0.0494433
0.030098
0.750747
7.09974
0.0243666
0.0234055
0.0241182
0.0305431
0.0246837
0.0238971
1.19823
0.0225183
0.166417
0.0235369
1.65204
26.2682
0.0280787
3.62443
8.39636
2.37411
0.0225111
0.0239861
0.0248459
1.59336
3.01388
0.0247077
0.0246153
0.0236445
1.33283
0.0483094
0.0483731
0.569283
0.0357381
0.0242519
0.0236268
0.28098
0.063947
0.0255274
0.0252623
0.0229064
0.0236907
6.64437
0.0320344
0.023617
0.0244724
0.0238109
5.25351
0.0225479
0.086149
0.0250603
2.88268
0.0225719
0.0232
0.0989506
0.033258
0.0223281
0.0338158
0.157474
0.0340404
1.2344
2.85411
0.0517302
0.518518
0.157238
0.0248495
2.40229
0.0246956
2.97709
3.01729
0.0237865
3.44542
0.0933128
0.0314029
0.0262647
0.0240133
3.73771
0.0236381
0.0326367
8.58743
0.0250726
1.50834
0.0259051
0.144645
0.0244934
1.72216
0.0983048
3.63694
0.0343686
0.0237917
0.02339
2.81609
0.0246636
0.0817106
0.0256724
0.089316
0.0266221
0.166314
0.0242338
0.0314714
3.26896
4.01792
0.0263346
0.0236162
2.21982
3.27918
0.0243192
2.99046
0.0260219
0.0682136
0.032316
0.0236865
0.0236285
0.0243935
0.0259267
0.137079
0.13598
2.56937
0.0722348
0.0969114
0.0949766
0.0239352
0.0257016
6.25844
0.0250384
0.486497
0.022244
1.46444
2.80839
0.0236783
0.0261066
2.69361
0.392132
2.59381
0.0237991
0.0353506
8.56866
0.0237638
0.0277267
1.81202
0.0266195
7.20311
3.44711
0.0247119
0.0240695
0.723053
0.150741
0.0240405
0.0313157
0.14103
0.0236357
0.0792624
0.0310175
0.0240551
0.0240986
0.0362265
0.0401818
0.536764
0.0376111
3.74799
0.491111
5.317
0.0257221
0.0331977
0.0866406
0.037879
0.0233843
0.54372
0.246995
0.219756
0.0256727
4.86674
0.0431205
0.0270022
2.69639
3.06612
5.51855
0.02411
0.0255016
11.7777
1.13077
4.78723
6.48899
0.0237481
0.0260027
9.44268
1.1118
0.0239523
0.0889082
0.129667
6.7309
6.82291
3.18915
2.73986
0.0236602
0.0859094
0.0341513
0.0244526
0.023672
0.0236747
2.62993
0.02215
0.304927
0.027945
2.93074
0.402347
5.00112
0.0223049
4.01276
4.36692
0.108731
0.0367134
0.325501
2.93421
0.0241662
0.0849422
0.0243846
0.0244639
0.0592879
0.024713
0.401832
0.0243236
1.51464
0.02363
2.95901
0.0235645
0.495705
0.024482
0.025127
0.053752
1.01296
0.0352521
0.0360881
0.705481
3.4083
0.11097
0.0240334
7.3225
3.30922
0.115944
0.0343506
0.0247581
0.0251331
10.4889
0.0236564
2.974
0.0249027
0.101735
2.10699
0.0390708
3.36795
0.023209
0.366043
3.29048
1.74349
0.749226
0.0233795
0.0239096
0.0939052
0.0393504
2.93662
0.594012
0.0252599
4.70669
0.0233077
0.0241484
30.2165
0.0235312
0.0247283
2.10894
0.0403047
2.78436
0.0234145
3.61486
0.0962338
0.023649
0.0232241
2.84194
0.0246262
0.0237036
0.0232273
0.663918
0.0240902
3.08933
0.0280141
0.0249527
8.78941
0.468425
0.0237106
2.73501
2.36355
9.17706
0.0246762
0.024133
6.18589
0.0320888
0.343635
0.0222322
0.0252501
0.0232263
0.0231311
0.0246642
0.0246265
0.0307819
0.0260343
0.0235452
0.0228748
0.10699
2.55725
3.1363
0.0931243
2.11336
3.4624
9.11937
0.024142
0.748423
0.150602
0.152765
0.0247064
1.08827
0.0249015
0.0236789
0.0221167
3.38947
0.0260115
0.0225416
0.0372149
0.110713
0.0662483
0.770249
4.29938
2.95641
0.0253046
2.11519
3.69821
6.19393
0.0227772
0.0251504
1.53156
0.0232232
0.546475
0.149303
0.0253102
0.327729
0.085134
0.0290872
0.0304106
0.0236578
0.0241294
0.0249818
0.0244916
0.0228026
0.0235889
0.0239384
1.20449
0.0246862
9.5381
0.0252295
0.03069
0.136787
0.0238397
0.0242586
0.309933
0.328945
0.0246948
0.0237235
0.0249975
0.0234526
1.48791
0.0243091
0.0246571
0.0334151
0.0236554
2.54817
2.57418
8.69975
0.0242433
5.23758
2.41609
0.0385078
0.0249709
0.0804106
0.0242756
2.82381
0.0290676
0.0332886
0.0376178
0.0246749
0.0250629
0.0242599
0.10831
3.27271
1.44737
0.0266372
0.0221094
0.0241286
3.36802
7.88955
0.0248251
3.36907
0.0234917
0.760604
0.165652
0.841163
0.0262245
0.0711232
2.3679
0.0240773
0.0737515
8.35745
0.0222535
0.108046
7.59776
0.0238573
0.0275305
2.75252
0.398376
0.0254702
0.0229423
2.19787
2.28004
0.133804
0.0972881
0.0286744
0.023839
2.15653
0.0237715
0.024816
0.0238338
0.0228608
0.0238188
0.0255368
2.18738
0.0240807
0.117575
0.0244521
2.68016
0.0237772
5.49315
0.0237087
0.766714
0.0246305
2.96345
0.0310705
2.74498
1.74747
23.1107
0.172707
0.0285202
1.32165
3.90216
0.024563
2.17721
0.0229092
0.0262985
0.413953
0.024758
0.0243564
0.0332242
0.0245959
1.84449
0.0222646
0.0242333
0.0303028
0.0673231
0.0241111
0.0406182
0.0277196
3.25888
3.25555
0.0227951
0.0240503
1.10693
0.156089
0.0238468
0.0312717
0.0244504
2.32273
21.0543
0.0304608
0.0248076
0.0229379
0.0254349
2.19019
0.0242976
0.0292959
0.0350955
0.0231644
0.0245663
5.30268
7.53106
0.0240336
0.0248233
2.88034
8.54406
0.384663
0.129236
0.0243091
4.02356
0.0523607
3.41846
0.0239618
0.0530304
0.0524249
0.0284474
0.0241392
5.60613
6.42586
0.0264865
0.0246888
0.691825
0.0535886
0.0228125
0.0242908
0.960211
0.0273433
0.160359
4.00946
0.0254582
2.81534
1.23867
2.46319
0.211078
0.263991
0.0241762
0.0247412
0.0258009
8.79832
3.09614
0.0227898
4.33274
0.0237834
0.0253568
0.124589
0.0224628
0.14811
0.0228061
4.7582
0.0279774
0.0235787
0.0237499
6.89586
2.69751
0.0296644
2.76925
7.90692
6.06728
0.0933462
0.0282895
0.0224588
0.0245117
0.0242552
0.119832
6.40045
0.0240629
0.0246358
0.0255104
1.89854
1.16959
6.93929
0.0244559
0.0653225
0.02856
0.0235326
0.0249516
1.18699
3.2205
3.07353
0.0319621
0.10077
3.08027
0.051007
4.21395
0.023414
0.0277586
0.0323665
0.0278987
0.0543399
15.6689
0.0650183
0.0254573
0.0617382
0.874688
0.0248695
0.023405
0.02384
0.303989
0.0249429
4.55456
0.0224873
3.97521
0.12433
0.0242882
0.0240407
2.73113
0.0277721
2.33431
0.0245172
0.0234581
0.036431
0.0339199
3.05367
0.0234585
0.0245063
0.0250459
0.0374583
0.024244
2.26939
0.024063
0.023426
0.0244412
6.79491
2.70866
0.16563
0.0284184
1.67843
0.029508
0.025104
0.0253446
0.0458977
0.0254857
0.112901
0.025612
2.80268
0.0250381
0.024462
0.0249254
0.0248112
0.0239735
0.657854
0.0240108
0.0222608
3.13949
1.07611
0.0237187
0.0287476
0.0253161
0.140592
0.0254583
0.12277
0.0318497
5.21444
0.0271958
0.0260232
0.0254844
0.0269983
0.0720536
0.312962
0.0238296
0.520519
0.454128
0.675572
0.035667
0.023535
0.0282342
0.0328233
0.0355707
0.025353
4.82407
0.0245324
0.0236608
2.29512
0.0283754
0.0298367
3.33523
0.400493
2.14966
2.93472
2.52133
0.0246655
2.38968
0.0799113
0.472092
0.0395345
0.0570661
3.67493
4.24874
1.5033
0.0280528
2.98529
0.486136
0.0247641
0.0335254
0.0329561
0.0888067
21.2709
0.0238422
0.0248203
0.0243628
2.36876
0.0240063
0.0236947
0.0627653
0.0432353
0.0237467
6.73097
0.0247934
0.166736
0.0239322
0.405546
0.0842445
1.56253
0.0245711
0.0907572
0.0293508
6.9363
0.0253968
0.025075
0.0247321
0.024165
0.0445694
0.0832787
0.0509194
0.0698451
7.22187
0.023997
1.89237
0.373783
0.0223684
0.0224564
0.681914
0.0238111
0.0541456
0.0290517
0.0320951
0.0233803
0.0382832
0.0616296
0.0291774
0.0330459
2.64657
0.0251698
0.024876
0.0234064
0.0962016
0.0585688
0.0260713
3.06772
0.0245968
0.0222512
0.0246536
0.0244945
0.0273575
0.0243668
0.0250508
0.0247971
0.0229178
0.0261502
0.0223587
0.0485426
0.0330082
22.8752
0.0305707
3.50462
2.81408
0.032982
0.0890135
0.0269707
4.38576
7.4463
0.0316912
0.0246247
0.0521045
0.0425991
1.27132
0.0304342
7.50287
22.7571
0.0254113
2.35534
0.0451752
2.27337
0.0269016
0.0260502
0.024742
0.515851
0.025612
0.167081
2.97671
0.0220965
0.708696
0.0344746
0.0445734
0.0235488
0.0228427
0.160085
2.92491
0.0313541
0.0222603
0.69091
0.0275772
0.0255813
0.0246298
0.0329812
0.0248905
0.0322664
0.0223928
0.0616901
0.0724244
0.067983
0.0514041
2.33438
0.0223847
0.200554
0.0249305
0.0257378
0.0241782
2.92806
0.0255249
0.0255968
0.0353066
0.0253391
2.64248
0.0763104
0.0240471
0.0256857
0.0238476
0.0699777
0.023832
2.97226
0.023401
0.0884205
0.0242145
0.0245647
0.0244882
2.86584
2.41018
0.23514
3.01997
2.3872
0.0259916
4.01835
2.18124
10.7655
0.0281788
0.0386342
0.0234985
2.6347
0.0250458
0.0232251
0.0257338
0.0307664
0.0440657
0.502909
0.0237871
2.30835
0.0303986
3.01364
1.28363
0.0257236
1.92125
0.322394
0.0236719
0.0311606
0.0332392
0.0240585
0.0257437
2.75184
0.464855
1.70481
0.0248474
3.09213
0.024538
0.247275
4.61533
2.52883
2.78458
0.276103
0.0258636
2.80754
1.77445
0.0387652
0.0954452
2.44641
0.0239143
0.0234709
2.01931
0.0346045
0.0224907
0.0245362
0.023879
0.0251415
0.130821
0.0237515
3.84121
2.35574
0.0239591
0.0257153
0.0251218
0.0222482
0.0287052
0.0370326
0.0428496
0.0232153
0.0244186
0.0356372
0.199092
1.11248
0.0494787
0.0770445
0.0246318
0.0255324
0.330443
0.0249142
0.0497823
0.0567393
0.0476204
0.0648515
2.11633
0.0238077
0.0255873
0.0514517
0.0251528
0.0244539
0.0798208
0.387324
0.0252452
0.0245303
0.0246168
0.0245439
0.289353
0.0635919
0.0742873
0.26313
0.0259376
0.103171
0.31281
2.85503
0.0253824
0.0259888
0.0264585
0.0244521
0.0253966
3.38231
0.0249646
0.0239163
4.58658
0.0248751
2.54911
0.0224867
0.0239509
0.0261606
0.0951457
0.817466
0.0238274
0.31256
1.93561
0.0249562
0.0927852
2.53857
2.78974
0.0256875
0.0256563
0.0387318
3.40696
1.55988
0.0394874
0.0282828
0.0236398
0.298435
1.25836
7.84522
0.025266
2.09807
0.0240784
0.292802
0.0320108
0.131893
0.0361795
2.40308
0.0247329
1.56744
0.026119
0.0259937
0.0321553
3.41441
0.025419
0.294083
0.0236842
0.0727297
0.0263977
0.287356
0.0236663
0.0474836
0.567408
0.0247163
0.024407
0.661174
3.05224
0.339357
0.387917
0.0391873
0.0272215
0.0254839
2.7038
0.0255582
0.0249135
0.0282405
1.78696
3.35896
2.8128
0.0281992
0.0246677
0.0258185
0.0262616
0.0223658
0.064346
3.24867
0.0395221
0.0477385
0.023863
0.511175
0.0238678
0.0591143
2.10172
0.123354
0.0255393
0.0235214
2.43835
0.0242753
0.0468922
0.0360185
0.0653336
0.0238673
2.5503
0.0322758
0.0247321
0.0883922
3.58837
0.0896186
2.16036
0.0249333
2.74644
2.18596
0.0222423
0.0246207
0.0233066
2.34241
5.02587
0.0550461
7.37354
2.0115
0.025214
0.0245382
0.023588
0.0251482
2.88507
1.19801
0.0249594
0.0625358
0.026945
0.034738
0.0240782
0.0262171
0.162845
0.0249242
0.0255274
0.0259174
0.0239836
0.0245773
0.0238206
0.0639445
0.0245552
0.518078
0.0928182
0.0241934
0.0278801
0.0328395
7.93684
0.0239235
8.70939
0.0273901
0.0672055
0.0260866
0.570647
1.128
0.0246376
0.261398
0.315783
0.0238146
0.0364378
0.727851
0.0882106
7.89749
0.0244574
0.0247419
0.0657779
0.0254315
0.0503281
1.14876
0.0867438
1.83778
0.0243677
0.711881
2.77427
0.0242574
2.41169
0.0624377
1.91471
0.0738553
3.25976
0.024075
0.27925
6.4254
1.07902
1.19692
1.31326
0.171688
0.0244301
0.0266196
0.0271763
2.36665
0.0943101
0.209393
0.0230683
2.76286
0.024544
0.022989
0.0245789
0.0508911
0.0279317
0.0254836
0.0240716
0.0226602
0.0658802
0.0258547
2.04377
0.0252308
0.525549
0.0232858
0.0222349
2.5954
0.0252167
1.08524
0.145493
0.0260876
3.37594
0.0676989
0.879761
0.0334855
1.90038
0.0243962
0.0254347
0.0235833
0.0299217
6.71465
2.21159
0.233793
0.0256233
0.0230217
2.69622
0.0247197
3.217
0.0246504
0.0247371
0.0243433
0.0321523
0.045743
5.25279
0.0249298
0.0254027
0.405172
0.0221627
2.74334
0.331153
0.0325306
0.341458
0.0335445
0.0505681
2.74985
0.0255665
1.23109
0.0621431
0.0246433
1.16528
0.849496
0.0242713
0.0246448
0.0239685
0.0247894
0.0908496
0.326799
2.7202
0.0232106
0.0238089
0.0242245
0.0254377
0.024784
0.028286
0.757543
0.0244851
0.0246321
27.2432
1.81786
0.217267
0.480907
2.47817
0.0240697
0.431035
2.8475
2.73445
0.288869
0.0251274
0.125907
0.0664192
0.0240392
0.538784
4.50505
0.0224116
3.59024
0.0252604
0.024524
0.243117
0.0243257
2.42938
0.274742
0.0236273
3.15498
0.0320039
0.026699
3.1618
1.17253
0.024144
0.0240546
0.0244087
0.0249558
0.0269015
3.18656
0.0252068
0.0238019
0.0534286
1.39387
0.0796756
0.0548183
0.0242024
0.142509
0.0459496
3.17045
0.0237316
0.0238557
0.025113
0.025269
0.0791835
0.0304203
0.0224067
0.10195
0.248102
0.0246955
0.0235005
0.0348104
0.025068
0.594511
2.36987
0.0273385
0.0255833
0.0232538
0.0249972
0.0258885
0.024375
0.0247332
0.0247509
0.270076
0.0246489
0.0719123
0.0241818
0.47967
0.0259471
4.98422
3.3381
2.62216
0.237246
1.64654
0.0806741
0.425172
0.332804
0.0953926
2.50574
0.0263023
0.864463
2.56715
0.255173
0.0232179
0.257018
0.0243976
0.397099
2.56679
0.123868
0.024517
0.0237321
0.0242561
0.0259914
5.2623
5.14684
0.0253313
1.63768
0.406566
3.37402
0.0235749
0.151029
0.0930481
0.0317468
0.209929
3.01399
0.169538
0.0247553
0.128364
0.041844
3.18462
0.0241784
0.0232908
0.0248414
1.05929
0.290871
0.0243312
0.024845
0.0243983
0.0243705
6.77866
0.228539
0.0483165
0.864458
0.0243353
3.35359
1.03814
0.217361
0.0266027
0.0671991
0.0758668
1.32033
0.0231656
1.60568
1.71524
0.0284033
0.0252556
2.36619
0.0289292
2.95708
2.66619
0.0248432
0.0240652
0.0273877
0.0251254
0.0245273
0.0267537
0.0944552
0.0236954
0.0244227
0.0254016
0.0260604
0.0237014
7.04959
0.0261949
2.95418
0.0248673
0.053402
0.0240358
0.0271525
2.58102
0.029286
0.0247049
0.0264718
0.0360361
0.0462353
2.45664
0.438927
2.2414
2.3603
2.29495
2.4001
0.330161
0.0607515
0.0360021
0.0234429
0.0242315
0.153589
0.0241995
0.0255503
0.0231907
0.0244107
0.0240267
0.0236733
0.0246323
0.0243297
3.12694
0.025881
0.0250964
0.0236562
0.0272301
0.294806
0.0280494
0.0499125
0.0363349
0.0270139
0.31803
0.0242784
0.0319355
0.0240089
0.0314524
0.0249034
0.10477
2.99688
0.0881839
0.0250822
0.024139
0.534609
0.024792
0.108962
0.0241789
0.233868
1.39045
0.115688
0.0268571
0.0849506
0.0247937
0.288458
0.0484019
0.0731291
0.0514306
0.505196
1.99821
2.50561
0.0244142
0.0235092
0.0244795
2.86733
0.0240228
0.243816
0.0584121
0.0253445
2.54693
2.18108
0.0239528
0.0231377
0.390707
5.52438
0.320796
0.0242827
11.7391
0.0224616
0.608823
0.0337924
0.0370769
0.027259
1.24262
0.0239137
3.03979
0.0278039
2.28892
3.36426
0.330419
0.0280634
0.030144
0.0233804
0.0269709
0.0238336
0.0336018
0.024979
3.39755
0.0242566
0.0249942
0.0231681
2.94371
0.0238174
3.42035
0.856352
0.0667294
3.06071
0.0671937
0.119106
0.0254926
0.0296657
0.0241487
2.96739
1.09702
1.64039
0.600876
0.286058
0.100368
2.78187
0.0223199
3.10274
2.22737
0.225252
0.0250355
0.579567
4.22104
0.0976132
0.0246504
0.0521419
0.352308
0.0230468
2.83544
0.0254761
0.0468461
0.0255727
0.0593957
0.0220955
0.0227672
0.0223168
0.0354691
0.0247804
0.250676
0.0248996
0.0235895
0.406861
0.0244394
0.0329319
0.030696
0.0242862
5.64684
0.0334091
0.0256501
0.0243063
0.0253849
3.31871
0.0243871
0.0238304
0.0536479
3.09221
0.0265074
0.136392
0.0230675
0.136106
0.0257095
0.0251682
2.40493
0.0355549
3.28686
0.0249089
0.111026
0.026582
4.31139
7.36237
0.024923
2.6446
0.03828
0.0236136
5.93614
0.0328497
0.0260789
0.0676364
0.0255756
0.0242268
0.0271537
0.119171
0.0263155
0.0677355
0.0452428
0.123856
0.0228671
0.0910503
0.024728
3.21279
0.0459597
0.0243766
3.46797
0.0242216
0.0238335
0.100413
11.7022
0.305839
0.163447
0.309422
0.150974
0.0242043
0.0246772
0.116042
2.24442
0.0255848
0.0460345
0.0258027
0.0244476
2.44051
0.03377
0.0413758
0.0576273
2.99041
0.0222853
0.0292014
0.0264981
0.186925
0.687812
0.320539
0.0245047
0.0257286
3.06004
0.0272656
8.60475
0.379628
0.0246694
0.0460846
0.035667
0.023261
2.58244
0.0268326
1.88017
4.04848
0.0247474
0.0290694
0.0246576
0.0244923
0.0326838
3.32232
0.0228053
0.0259463
3.51805
0.024708
0.298522
3.10267
0.0246915
6.55346
0.0244211
0.0258607
0.0232282
0.0242214
0.217537
0.0255942
0.0821911
0.0258504
0.0245176
0.0899595
3.00821
0.0263762
1.07552
5.03423
0.140317
0.0251014
0.0255782
0.03663
0.0240672
0.0249136
4.05244
0.128702
0.029353
0.0249634
0.0256395
0.260564
0.0256362
0.0238898
2.94026
0.0607659
0.0224379
0.0242421
0.470149
2.87547
0.0248136
0.0254193
0.0343059
0.120578
3.20205
0.0236221
5.09531
0.0265113
0.0264827
2.81062
0.332238
0.0860901
2.20719
0.0241797
7.09724
0.026322
0.245555
0.410538
0.0243954
2.82544
0.0256368
0.0233233
0.0271875
1.20277
0.678382
2.53193
0.0244604
0.0422628
0.0354766
0.0272418
0.0254112
0.0253468
0.0255916
2.87913
3.29628
3.12938
3.27143
0.027302
0.0330332
1.32586
0.0283817
0.0242021
0.0270763
3.1812
0.027142
1.28243
1.16596
2.69177
0.0286836
5.52893
0.0349144
0.0986504
2.08777
2.14068
0.881132
0.0795001
0.0246237
3.55345
0.0235374
2.53284
0.0230856
0.0239617
0.0253382
0.401979
0.261814
7.72999
0.041405
2.63342
0.024545
0.0454342
0.0233925
0.105029
1.32796
0.155076
3.81177
3.28542
27.3231
0.414627
0.0250561
4.50932
0.0248786
3.24861
0.0712028
0.0273876
0.0244842
2.09091
0.125618
0.0224352
0.0245614
6.73648
0.0236157
0.0248069
0.0848787
0.137129
0.022844
0.114504
0.0461956
0.230743
2.27697
0.024516
0.0235737
0.0587896
0.0246109
0.607551
0.0456432
2.54341
0.0327791
0.0369287
0.0236022
0.0222459
1.11796
0.0446508
0.059814
0.0265092
14.7569
0.23646
0.3261
0.318942
0.0254151
0.229015
0.0242888
0.036542
0.0286354
1.6611
0.0233717
0.0233435
3.26986
0.152341
2.77794
0.0284569
1.83079
0.613013
0.0265979
7.90077
0.0256776
0.0523806
0.332546
3.3878
0.0239764
0.551401
1.20177
2.75163
2.80114
3.06943
0.0272049
2.78608
0.248693
0.340233
0.0573476
0.0309145
0.0223062
0.0627429
0.0241291
0.578896
0.0304019
0.0252104
0.0254561
0.197241
0.0749948
0.0240497
0.23174
0.0926464
0.327572
2.16135
2.22723
0.0256883
2.50948
0.0228501
0.270141
3.2493
3.04722
0.0245982
0.147397
0.0245646
3.22541
0.0268189
0.289188
0.0309775
3.14754
0.0896921
2.18078
0.0234985
0.860926
0.222643
0.0247994
0.0654401
2.25368
0.025123
0.0244253
0.0343857
0.238796
0.0245549
0.0242972
0.0240609
0.212593
0.0343617
0.0907409
0.107854
0.0306177
0.0256152
0.0220899
0.0231657
0.0229601
0.0705847
3.64114
0.0242076
0.027807
0.0246169
0.0820338
0.0251532
0.583603
0.0254446
2.53943
2.05547
0.0247747
0.160157
0.0344091
0.0235813
0.0223723
0.151863
1.07494
0.0237371
0.2894
2.47767
1.03976
2.37248
4.22228
0.0585871
0.0246601
1.66423
0.0241946
0.139261
0.0229908
10.8035
0.0233108
1.33609
0.0265824
4.36664
0.0230654
6.53639
0.0223707
0.0247714
0.226998
0.0260436
0.0233131
0.0349117
4.44461
0.0242198
2.30735
0.0261554
9.52381
0.855677
9.91436
4.01366
0.0247405
0.0297814
3.16472
3.22698
0.0245255
0.0310082
0.0362312
0.071408
0.0249123
1.86954
0.0619172
0.02325
2.48579
2.43191
0.0259607
6.74137
0.0627568
0.0944018
4.80746
0.024395
0.024104
0.190817
0.0243879
2.70517
0.0253419
2.39311
1.73812
0.023235
0.216227
0.0223243
0.176816
0.0246227
0.0338868
2.79574
0.0242031
1.45528
0.0257056
0.024515
0.0498346
0.0248465
3.23746
0.299569
4.05788
0.13311
0.297824
0.0255805
0.0241025
2.85395
2.8009
0.0235441
0.290979
0.0247809
0.0224055
2.63177
0.264693
0.0260593
0.0237627
0.0243945
0.0231162
8.07284
0.0244891
0.248819
0.0356565
5.37989
0.119016
0.0951287
0.0242024
0.289398
8.85696
0.0461642
0.0252038
0.346883
0.0221778
3.02684
2.73965
0.0231812
0.0599776
0.0323895
0.0367016
0.0278985
0.0289454
14.0948
2.28442
0.32193
0.0245323
8.3975
0.02489
5.72801
0.0910373
0.141858
3.58682
0.0243047
0.299382
0.0881717
0.0273854
3.52871
1.80257
3.21766
0.206377
0.0246657
0.173321
0.357804
0.0349205
0.0870331
2.84171
3.66792
0.709661
0.0234241
0.0232444
0.026199
0.0268681
0.0243631
0.0242494
0.0291853
0.0251068
0.0329361
1.21905
0.811033
0.0258585
2.26144
0.0321539
2.53805
0.0259514
0.223544
0.0976142
1.79932
2.35464
0.0240323
2.29972
2.97281
0.0247368
0.0250071
3.03633
3.0278
0.288033
0.222525
0.0242116
0.0262683
0.28835
0.024048
0.0327253
1.55219
0.0231169
0.0583864
1.10386
1.87304
0.0248202
0.279592
0.0325863
0.0377691
3.42594
0.022185
0.0241368
0.0232059
0.244473
3.01108
0.204958
0.0247078
0.20422
0.0251749
0.0833718
1.78487
0.0254443
0.0233014
0.0243254
3.10676
0.268884
3.25243
0.0247848
3.46151
6.33629
0.0893639
0.0242506
0.0606349
0.0244979
0.0231151
0.0241449
2.95462
0.0850564
0.705333
0.0300652
2.16914
0.552388
0.0250291
2.79853
0.0306723
0.0245309
1.31522
0.0302197
3.05077
0.274495
0.0249092
0.0233611
0.0247189
2.88622
0.477444
1.07769
0.076844
0.0648783
2.3232
0.779127
0.424977
0.511102
0.0507058
0.0245588
0.23779
0.0232824
0.0228456
0.0926624
1.13664
0.02365
0.0246298
0.527754
0.058416
0.0259538
2.97492
0.0249616
0.0362644
0.0251603
1.3131
1.76175
0.0591645
0.0238393
0.0248396
3.29595
2.80281
2.82374
0.0540548
2.66912
2.456
2.54204
0.377132
2.68642
0.024935
0.393175
2.21709
0.0380253
0.0240837
0.0257716
2.87195
0.0248622
0.0232792
3.47068
0.0241061
2.84557
0.0222237
4.28682
2.34693
6.23093
0.0233136
0.0243399
0.425302
0.0222732
0.224567
0.0259137
0.42872
1.07463
0.0625129
0.0821378
0.0451756
6.73202
0.128196
0.0245065
0.0250498
0.0631449
0.478267
0.290948
2.08393
0.0386087
0.0359407
0.0222674
0.123183
0.0250891
0.330704
0.0341764
0.15454
0.0246225
0.0306433
0.145029
0.0433341
3.21059
4.47154
0.0234729
0.0251915
0.0241975
3.06241
0.0243058
1.05367
0.0273542
2.04877
0.0232249
1.87049
7.2838
0.0227426
0.0241034
0.0685552
0.075466
0.0516168
0.0650482
0.0235082
2.11131
2.68651
0.0240483
6.11302
0.147735
0.0733519
0.0322282
3.02155
3.5842
2.24256
0.372296
2.55926
0.0230635
0.400908
0.0241006
0.0231404
5.32904
0.0755804
2.51489
0.104566
0.282029
0.530226
0.0271317
0.0247668
0.0237812
2.8581
0.0232266
0.0664976
0.517811
3.27901
0.0221117
0.0234139
3.44226
0.029363
2.79948
0.0250696
0.0257657
0.025181
0.0232219
0.0710388
0.414449
0.208208
1.87986
0.0343037
0.102668
0.281854
0.0557498
1.83742
0.0239476
0.194786
0.0241162
0.0243797
0.361913
14.7745
1.86833
0.0613494
0.0267093
0.140134
0.0235555
0.601377
0.204487
0.0241144
3.45504
0.0364993
0.0261523
0.0225262
4.19883
0.0528022
0.0236499
3.04215
0.43092
3.27712
0.0222883
4.79573
3.41446
0.228186
1.58399
0.0222086
4.20171
1.35798
0.262086
0.51645
3.65614
0.0269122
0.0327717
0.223297
0.080843
0.025018
0.040264
0.0734615
2.24832
0.0443419
0.0241194
0.0259953
0.023583
0.0249294
0.0271746
0.0249588
0.0240021
2.85733
0.0238492
0.129087
0.0245262
0.0235639
0.0235394
0.0442122
0.0252832
2.30039
0.201521
2.34118
0.0231674
3.49808
2.18336
2.13493
3.09229
0.0287749
0.394841
0.0252251
2.43004
2.4134
1.06625
0.0267016
0.0412959
1.80648
0.0246127
0.0259067
0.0496994
0.0236838
0.0225555
2.49316
5.26083
0.0254472
0.0511602
1.62346
0.0242562
3.51597
2.00278
0.264151
0.0239592
0.0244798
0.0751898
0.026875
0.0234091
0.0261438
2.58535
0.303429
3.67422
0.0250602
2.1927
0.165797
0.0347971
3.21103
3.4244
2.298
0.0233546
0.0710477
0.0245119
0.0241552
0.181333
2.34694
1.49581
0.326744
1.07156
0.0252458
0.0600408
4.60731
2.86069
0.0221763
0.0236428
0.0235166
3.79619
0.289902
2.59623
0.0608986
0.0895097
0.0229211
0.0509941
3.06149
2.8486
0.0243435
0.12965
0.438507
0.175803
0.0259551
0.289899
0.0251989
0.0262225
0.0234835
3.14463
0.0241614
0.0237695
0.361381
7.24918
1.48216
0.431116
0.0233163
2.27992
0.0612981
0.0250491
0.0625743
0.0499824
6.83796
0.144285
2.16147
0.0971901
0.0251288
1.13827
2.28662
0.0298515
0.0222613
0.282956
2.92539
0.0469062
0.0236669
0.0228457
0.0291059
0.0243162
3.30424
0.0246256
0.0244317
0.03772
0.024929
3.54111
0.0428274
3.47728
0.0240014
2.27731
0.0336867
1.48837
0.0583049
0.0241705
2.28428
0.0238274
0.0251579
0.028541
0.0355578
0.302147
0.0242202
0.0963716
0.113087
0.0288934
0.024205
2.73505
0.0287737
0.0609457
26.7111
0.0877149
0.520718
0.0244748
0.415187
0.0262318
0.137671
3.15002
0.147171
3.16654
0.0288125
0.0283844
0.0953162
0.116608
0.0245023
0.0242432
2.36987
0.0337093
2.97057
2.97124
1.62339
2.22003
0.0241378
0.0252117
0.0747091
2.27945
0.0261226
0.0236572
0.0230876
0.335196
0.0243078
0.0221826
0.0750436
0.0285309
0.081918
0.0231922
3.57294
0.280947
0.266128
0.688516
2.31636
0.0382135
0.0231447
5.64126
0.600541
0.185259
0.0245193
0.0243663
0.0241138
0.152326
0.279101
0.0287213
0.0243103
0.037224
3.16369
0.0231143
0.0233685
2.04757
0.0250109
0.0251699
0.1081
0.0245352
0.0303961
2.48716
0.0250014
6.71963
0.19857
0.724799
0.0248126
0.0282907
0.0627525
0.0784117
3.05556
0.0230303
0.0229999
0.0344779
2.88074
0.0244456
2.34811
0.0231371
0.0231145
0.0299222
0.0252257
0.035017
3.1452
2.87167
0.169218
3.18567
0.0271062
0.0246414
1.02846
2.70684
0.356309
4.89932
0.0238523
0.0223027
4.22921
0.0368797
0.0239671
0.503755
2.53729
0.593576
0.0381255
3.22959
0.493853
0.0278928
2.71563
0.0236043
3.62047
0.686166
2.3002
0.412443
0.184068
0.0235175
0.0295916
2.13735
0.0243489
0.0246996
0.0285677
0.0246488
0.262918
0.0235188
0.0248978
0.0223632
0.0233225
0.0249323
0.0236719
2.82262
0.0250331
0.0280257
1.29568
0.0546543
0.399915
0.0222568
0.0318084
0.0243174
1.80984
0.0429554
7.26796
8.41762
0.0237554
0.0242511
0.0240924
0.0354772
0.0239305
0.0235492
2.06572
0.0233109
2.17149
0.0232384
0.343089
0.0252177
3.21175
0.0252653
2.85619
0.023223
0.0249017
4.06182
0.0322122
0.282228
0.0358367
0.636018
0.0866311
0.514765
1.97219
0.0363265
2.2595
0.0247996
2.88332
0.0254289
0.0245683
3.52923
4.78698
0.0238865
0.0308225
0.0247477
0.397403
3.45645
2.84774
2.17302
0.892265
0.0242291
2.45841
0.0235012
2.38653
0.0257893
0.0346967
0.214138
0.0242221
0.0266173
0.0244353
0.0225988
0.0306819
3.38928
0.0235262
0.578413
0.0223802
0.0349106
0.0237589
2.35393
2.57853
0.105032
0.308992
0.024374
1.84129
0.0249285
0.0232186
0.0356843
0.0244581
0.0234652
3.16719
8.63965
0.0614545
0.0291022
3.10522
0.0634411
0.0264843
0.0334006
0.0533297
0.0238558
9.56566
0.0245284
0.030574
0.0243554
0.0281156
3.04828
0.0254617
0.0298588
0.0230961
0.0240703
0.0277437
0.196147
0.0301862
0.0242759
0.117954
0.0241422
0.0245494
0.0240916
0.0235482
0.0701699
9.1772
0.0245932
0.0233098
0.250156
0.168427
0.0247139
3.06377
0.108648
2.93562
0.0474213
0.0343248
0.0501721
4.08071
0.0241119
0.0222867
0.0241043
0.0376812
3.25293
0.0856367
0.0242303
0.231502
0.0250902
0.0240954
0.0231078
0.0234024
0.0261591
0.0550097
1.78618
0.0381799
0.0317502
0.0340252
0.0263453
0.0371487
2.38838
0.420101
0.0347513
0.0869956
0.220305
2.80711
0.0313421
0.0240833
0.0237976
0.0243128
1.15706
0.462763
0.0251122
0.0250775
0.400478
0.134568
0.287775
0.242081
0.0699525
0.0834458
0.0360187
2.54478
0.0237793
8.03412
3.59964
2.85716
0.0242724
0.0528087
0.0237446
0.0247376
0.0239476
0.0848617
0.0252673
0.0376256
0.0343002
0.278572
3.03678
0.0252854
0.0249401
0.0477361
0.0232799
0.21331
0.370682
2.45957
2.37753
0.0798365
0.0240366
0.0237017
0.0243096
0.0577874
0.0273624
0.0224519
5.43109
2.71395
0.0631246
0.026475
0.0239491
0.416822
0.702469
2.73639
0.0277524
0.0257928
0.0230431
0.205828
0.0240292
0.113246
0.0240898
4.81225
2.52663
0.0245473
0.0241475
2.09236
0.0792179
1.81123
0.0475517
3.65883
0.359775
0.335906
0.0352362
0.0697658
0.0492471
0.0474818
2.20082
0.0358877
0.0622175
2.75243
0.0273953
0.0263156
0.0248602
0.0270985
3.22032
0.0252239
0.358147
1.75716
0.123381
0.0237167
3.85852
0.0232853
10.1169
3.52616
0.0231307
2.34651
0.156483
0.0246093
0.0239572
0.0758426
3.04055
0.0595647
0.0551562
3.39375
0.0917977
0.0230923
0.0259727
2.87428
0.0228896
0.0358507
10.292