/*--------------------------------*- C++ -*----------------------------------*\
| =========                 |                                                 |
| \\      /  F ield         | OpenFOAM: The Open Source CFD Toolbox           |
|  \\    /   O peration     | Version:  v2012                                 |
|   \\  /    A nd           | Website:  www.openfoam.com                      |
|    \\/     M anipulation  |                                                 |
\*---------------------------------------------------------------------------*/
FoamFile
{
    version     2.0;
    format      ascii;
    class       surfaceScalarField;
    location    "300";
    object      phi;
}
// * * * * * * * * * * * * * * * * * * * * * * * * * * * * * * * * * * * * * //

dimensions      [0 3 -1 0 0 0 0];
oriented        oriented;


internalField   nonuniform List<scalar> 
41499
(
-0.245227
0.0109378
0.23429
-0.0800125
-0.0324661
0.112479
-0.00277478
-0.0137534
0.0165282
0.427681
-0.281395
-0.146286
0.315649
-0.334915
0.0192662
-0.00638348
-0.142512
0.148895
0.497073
-0.302148
-0.194925
-0.0246163
0.0141741
0.0104422
-0.0804614
-0.258501
0.338962
-0.010583
-0.0134547
0.0240377
-0.069054
-0.0989228
0.167977
0.0654204
-0.027789
-0.196581
0.474814
-0.278233
0.263779
0.233293
-0.193039
-0.223683
0.416723
-0.305399
0.368254
-0.0628559
-0.0392999
-0.0961465
0.135446
-0.363322
0.194541
0.168782
0.0676388
0.0177952
-0.085434
-0.0144269
-0.0101895
-0.408699
0.176335
0.232365
0.33459
-0.138107
-0.196483
0.111273
-0.0563775
0.249924
-0.37066
0.120736
-0.401248
0.0958491
-0.302279
0.407917
-0.105638
-0.0111849
0.0618609
-0.050676
0.329339
-0.0136898
0.0149302
-0.0146257
-0.000304481
0.215849
-0.220021
0.00417214
-0.138679
-0.188821
0.3275
0.00324315
0.133638
-0.136881
-0.281564
-0.111203
0.392768
-0.478077
0.369685
0.108391
-0.0523149
0.0263413
0.0259736
-0.396
-0.0820769
-0.483685
0.313166
0.170519
0.0752669
-0.377546
-0.0941483
-0.116488
0.210636
-0.194117
-0.14648
0.340597
-0.251447
0.00711868
0.244329
-0.282843
-0.200842
-0.0888648
0.0481056
0.0407592
0.197093
-0.408242
0.211148
0.06536
-0.100388
0.0350282
-0.309876
0.115759
-0.126977
-0.201182
0.328159
0.0189585
-0.19606
0.177101
-0.494102
0.294212
0.19989
0.066466
0.259488
-0.325954
-0.0278069
0.0133801
0.175055
-0.0650261
-0.110028
0.000228093
-0.00774026
0.00751217
0.0638078
-0.226901
0.163093
-0.212198
0.171599
0.040599
0.219498
-0.346476
0.231428
0.117449
-0.348877
0.45275
-0.36953
-0.0832199
0.0109112
0.441839
0.199306
-0.337985
0.117771
-0.149251
0.0314795
0.267691
-0.0376019
-0.23009
-0.0371963
0.102556
0.0073593
-0.0073593
0.365143
0.0124812
-0.377624
0.0909812
-0.18513
0.0468136
-0.0151048
-0.0127021
-0.0207295
-0.0315854
0.283551
-0.470835
0.187284
0.417043
-0.144163
-0.27288
0.335306
-0.0853824
-0.143147
-0.220175
0.385302
-0.304279
-0.0810237
0.00991824
-0.0188378
0.00891951
-0.434548
0.147291
0.287256
0.203153
0.0126958
0.290661
0.10759
-0.398251
-0.000194191
0.00212698
-0.00193279
0.102845
-0.422233
0.319388
0.17031
-0.176693
0.381735
-0.219107
-0.162628
-0.181605
0.0236423
0.157963
-0.000615908
0.0179682
-0.0173523
0.00457095
0.0297644
-0.0343354
-0.379799
0.241015
0.138784
0.494931
-0.167908
-0.327023
-0.0521853
-0.0366795
-0.0152064
0.0140423
0.00116407
0.417993
-0.315148
0.0277905
-0.229835
0.202044
0.30664
0.0786621
-0.303798
0.370264
0.0777733
-0.0267852
-0.0509881
-0.0147593
0.0167597
-0.00200038
-0.0187518
0.015977
0.202001
-0.0713609
-0.13064
0.0315616
-0.0100373
-0.0215243
0.200118
0.0675733
0.0823476
-0.401683
0.319335
0.02936
-0.195513
0.166153
-0.312506
0.387773
0.024797
0.00676456
0.462261
-0.211535
-0.250726
0.244035
0.0151032
-0.259138
0.206895
0.174839
0.0602176
-0.0587351
-0.00148252
0.0887128
-0.147468
0.0587548
-0.448894
0.136388
0.0269162
-0.0106724
-0.0162438
-0.0736066
0.028317
0.0452897
0.0500333
-0.301481
0.00306787
0.288584
-0.291652
0.353253
-0.149621
-0.203632
-0.0793485
0.168061
0.0519574
0.123097
-0.0364662
0.0396841
-0.00321791
0.157648
-0.154405
0.222708
0.239553
-0.275692
-0.21841
0.282265
-0.254475
-0.287426
0.290494
-0.447505
0.165941
0.143132
0.191458
-0.527357
0.227211
0.300145
0.175637
-0.0660948
-0.109542
-0.213623
0.167128
0.0464943
0.000901534
-0.0120914
0.093408
0.193101
-0.286509
0.320136
-0.422924
0.102788
-0.236461
0.043856
0.192605
-0.0756219
0.064437
0.041872
0.0359013
-0.00660286
0.0547085
-0.0384582
0.0457378
-0.00727957
0.230063
-0.144171
-0.0858912
-0.0215615
0.100196
-0.0786344
0.479396
-0.363126
-0.11627
-0.0988517
-0.27744
0.376292
-0.0663707
0.295338
-0.228967
0.43152
-0.43152
-0.0391333
-0.173065
-0.20974
0.456868
-0.247127
0.024144
-0.0807274
0.0565833
0.0625114
-0.0286129
-0.0338985
0.00037576
-0.0154806
-0.0119495
0.000164839
0.0117846
0.21351
-0.194551
-0.309865
-0.124682
-0.180246
-0.00135931
0.00753824
-0.0440044
0.319874
0.159521
0.154201
-0.0733074
-0.0808935
6.6981e-06
-0.00420203
0.00419533
0.0406556
0.0579762
-0.0986319
-0.0360717
0.0142416
0.0218301
-0.0535074
0.0803094
-0.026802
-0.376669
0.40994
-0.0332707
-0.429047
0.0709474
0.358099
0.315237
0.162492
-0.477729
-0.0462348
0.121019
-0.074784
-0.00484564
0.0172291
-0.0123834
0.443811
-0.318013
-0.125798
0.248032
-0.399123
0.15109
-0.407552
0.237426
0.170126
-0.225849
-0.142858
0.368708
0.0912151
0.0629859
0.0569551
0.0323535
-0.0893086
0.0224352
-0.012517
0.398644
-0.432217
0.0335727
0.0879351
-0.29334
0.205405
0.347011
-0.169438
-0.177574
-0.269871
-0.257486
-0.201828
0.0057685
0.458372
-0.204427
-0.253945
-0.0226575
0.00613444
0.0165231
0.0209386
0.00597755
0.474847
-0.25214
-0.460843
0.21307
0.247773
-0.0110008
0.00615519
-0.00339376
-0.0118126
-0.437767
0.311098
0.126669
0.357493
-0.369194
0.0117008
0.0217928
-0.0214171
0.0927352
0.137327
0.322069
-0.104146
-0.217923
-0.468133
0.327046
0.141088
-0.305904
-0.154689
0.460593
-0.0042542
-0.012922
0.0171762
0.135412
0.359519
0.0540938
-0.0416435
-0.0124503
0.055421
0.108592
-0.164013
0.126789
-0.035496
-0.0912926
0.229882
0.244965
-0.271132
-0.149357
0.420489
-0.511558
0.332108
0.17945
0.232708
0.0893609
-0.18162
0.429652
0.244989
-0.453764
0.208776
0.152925
-0.195176
0.042251
0.00690793
-0.00667983
-0.0470684
0.0546066
-0.386418
0.00974897
0.30204
-0.455718
0.153678
-0.00888494
-0.0137726
-0.0028723
-0.00907716
-0.0879772
0.144283
-0.0563063
0.256941
-0.354478
0.0975364
0.00304826
-0.0190909
0.0160426
0.256233
-0.336695
-0.151433
0.194788
-0.043355
0.0622588
-0.0141227
-0.0481361
-0.463659
0.339055
0.124604
0.256335
-0.375099
0.118764
0.26302
-0.431017
0.167997
-0.407224
0.00184409
0.40538
-0.123815
0.380756
-0.0657071
0.106363
0.397043
-0.0769066
0.414051
-0.207156
0.278653
-0.34326
0.0646071
-0.258196
-0.156716
0.414911
0.231253
-0.0596533
-0.405144
0.0992397
-0.0134241
-0.000289343
0.0137134
0.107161
0.246092
-0.175315
0.42437
-0.249055
-0.237868
0.24602
-0.00815265
0.28022
-0.379072
0.340068
-0.464125
0.124057
0.0078726
-0.0110281
0.00315549
-0.124054
0.461289
-0.337235
0.0589463
0.00331241
-0.0247711
0.0817262
-0.316028
-0.0926716
-0.197501
-0.237348
0.434848
0.00421363
-0.0538334
0.0496198
-0.405755
-0.00146916
0.43079
-0.0732973
-0.417822
0.319791
0.0980309
-0.0664977
-0.17137
-0.00351264
-0.205464
0.208977
0.292989
0.000938942
-0.0480073
-0.176179
0.269587
-0.341228
-0.119615
0.00337731
-0.00337061
0.0089283
-0.0089283
-0.183841
-0.0747279
0.258569
0.0262902
0.100498
0.226873
-0.0815106
-0.145363
-0.0274251
0.0259203
0.00150479
0.351091
0.0172888
-0.36838
-0.345156
0.156335
0.209796
0.204255
0.0668122
0.135189
-0.0102711
-0.234956
0.422966
-0.253399
-0.169567
-0.182482
0.127391
0.0550919
0.00186604
0.0583516
0.0165068
-0.0177339
0.00122708
-0.0424012
-0.0677675
0.110169
-0.247365
-0.035499
0.282864
-0.331814
0.131524
0.20029
0.0244432
-0.271808
-0.0245124
0.0716912
-0.0471788
-0.431322
0.0869101
0.344412
0.03857
0.0155238
-0.025845
-0.00158012
0.0643536
0.000219226
-0.0645728
-0.403722
0.149737
0.253985
-0.0145523
-0.00766131
0.013013
-0.00251356
-0.0104995
-0.314858
0.131016
-0.277116
-0.154206
0.419102
-0.267276
-0.151826
0.250837
-0.25435
-0.409352
0.113513
0.295839
0.33986
-0.196727
0.119603
-0.498692
0.367525
0.131167
0.453788
-0.163127
0.314861
0.146428
-0.317123
-0.0361116
0.353235
-0.0260627
0.02386
0.00220266
0.00180666
-0.00380076
0.00199409
-0.0919255
0.271055
-0.17913
0.24455
-0.0413972
0.038771
-0.0527786
0.0140076
0.133655
-0.185793
0.0521374
0.348116
-0.197448
-0.150668
0.00956777
0.397871
-0.106469
-0.291402
0.207567
0.0684283
-0.11083
-0.262199
0.383912
-0.121713
0.084813
-0.123926
0.0391127
0.0455422
0.167968
-0.152923
0.409259
-0.198745
0.0611295
0.137615
0.240374
-0.364189
0.251313
0.117726
-0.369039
0.342267
-0.0972781
-0.14838
-0.231419
0.00482691
-0.00248462
-0.00234228
0.198444
-0.0455189
0.462608
-0.349823
-0.112784
0.00234415
-0.00253834
0.127604
-0.421328
0.293724
-0.159726
-0.135578
0.295304
0.0768695
-0.257367
0.180497
0.0346374
0.0110939
-0.0457313
0.212177
0.210789
-0.226224
0.461182
-0.219627
-0.241555
-0.147793
0.435846
-0.288052
-0.0218867
0.0212708
-0.0106407
0.0107395
0.0127946
-0.00492197
-0.439207
0.137363
0.301844
0.084969
0.318392
-0.403361
0.471676
-0.132155
-0.339521
0.317964
-0.0881297
-0.229835
-0.308774
0.273275
-0.0694475
0.309821
-0.0850677
0.0615842
0.0234835
0.00388869
0.0110415
0.363138
-0.319649
-0.0434885
0.311503
0.0267468
-0.33825
0.433833
-0.264405
-0.169428
-0.124346
-0.245074
0.323111
-0.0780363
0.350167
-0.0988544
0.019915
-0.11935
-0.0561049
-0.286909
0.343014
0.0482418
-0.123807
0.0755651
-0.428597
0.181033
0.247564
0.0658766
-0.0616629
0.00425714
0.0087559
0.19691
0.0476406
-0.00280678
-0.000534566
0.00334135
-0.0109974
0.00035662
0.00780508
0.00432798
-0.0121331
0.29354
-0.349645
-0.409506
0.121917
0.287589
0.266907
-0.190037
-0.085593
-0.12803
-0.00512404
0.156292
0.191824
0.229474
0.0884897
-0.293867
-0.123955
0.0611626
0.114474
-0.271453
-0.0373209
-0.176185
0.114078
0.0621072
-0.0981604
0.0385197
0.0596407
0.424985
-0.145288
-0.279697
-0.290237
0.416154
-0.125916
-0.456628
0.236445
0.220183
-0.218008
-0.189544
-0.0793638
-0.0323789
0.111743
-0.276118
0.239019
-0.288198
0.0491794
0.469119
-0.320145
-0.148974
0.295688
-0.392494
0.0968057
0.00170731
0.000179902
-0.00188721
-0.119594
0.248334
-0.128741
-0.348826
0.352653
-0.00382732
0.189628
-0.318414
0.128785
-0.31764
0.406316
-0.0886762
0.00349255
0.0106869
-0.0141795
-0.180365
0.500655
-0.32029
-0.132823
0.112468
0.0203553
0.409347
-0.0114759
-0.00836343
-0.0197696
0.0281331
0.278007
0.38192
-0.0418519
0.0425258
0.06105
-0.103576
0.161321
0.0933211
-0.254642
-0.0869726
0.438064
-0.211261
0.163605
0.0476558
0.0945108
-0.0802763
-0.0142345
0.044756
-0.228002
0.183246
-0.15163
0.154839
-0.00320902
0.0746345
-0.0279328
-0.0467018
-0.0940298
-0.0884526
-0.258116
0.284369
0.0782748
0.016236
0.215894
0.0759572
-0.0242952
-0.0516619
-0.182975
0.325822
-0.142847
-0.00135914
0.00351172
-0.00215258
-0.00882496
-0.0170343
0.0258592
-0.376092
-0.0192471
0.395339
0.0155163
-0.0260993
-0.0398857
0.10767
-0.0677842
-0.254441
0.134847
-0.0147088
0.294768
-0.28006
-0.417651
0.426574
-0.00892287
0.0132222
0.00082012
-0.174839
-0.281789
-0.0363425
-0.0158222
0.0157775
4.47031e-05
0.172944
-0.293973
0.121029
0.181072
-0.0656487
-0.115424
-0.101206
0.405894
-0.304687
-0.0916596
-0.0402327
0.131892
-0.144628
0.376056
-0.0357641
-0.00269406
0.027875
-0.115852
0.0139324
-0.0181866
-0.0933002
0.254621
-0.00406409
-0.372028
-0.345707
0.450322
-0.104615
0.00872895
0.0688172
-0.313892
-0.0693134
0.168887
-0.099574
-0.0169986
-0.381349
0.398347
-0.111847
0.0719614
0.309165
-0.410371
-0.0688861
0.117128
-0.327329
0.417569
-0.0902397
-0.152798
0.18877
-0.0359721
0.0355561
-0.0526656
0.0171095
0.00119118
-0.000147208
-0.00104397
-0.327072
0.418063
-0.0909913
0.0367953
-0.385621
0.0031718
0.0016551
0.0446918
-0.0179615
-0.0267304
-0.424244
0.313645
0.110598
0.0625836
-0.0523567
-0.010227
-0.34407
0.319525
-0.228504
-0.0910217
0.197665
-0.0483488
-0.149316
0.451396
-0.168358
-0.283038
-0.386448
0.0925808
0.0790372
0.206972
-0.28601
-0.391327
0.336301
0.0550263
-0.288112
-0.134121
0.0517032
0.0425287
-0.0942319
-0.0134591
0.0778127
0.224718
-0.0678523
-0.156865
0.0310536
0.103815
-0.134869
-0.113605
0.140116
-0.026511
-0.23169
-0.236444
-0.418363
0.123279
0.295084
-0.0133445
-0.0014148
0.31823
-0.145285
-0.0194959
-0.0607744
0.0802703
0.194493
-0.465625
0.17144
-0.11748
-0.0539603
-0.0543916
0.000884184
0.438551
-0.157694
-0.280857
0.0356861
-0.427013
-0.0278278
-0.0457788
-0.200824
0.377159
0.0496804
-0.015043
0.390226
-0.0945378
-0.173302
0.0469377
0.126364
0.00709601
0.00966369
0.194559
-0.339685
0.324976
0.0656357
-0.104936
-0.152631
0.429839
-0.277208
-0.00369175
-0.00991301
0.0136048
-0.0410981
0.0537274
-0.0126293
0.370019
-0.106999
-0.414017
0.238702
-0.00100841
0.11878
0.128175
0.297211
-0.425386
-0.203376
0.40047
-0.156319
0.185679
-0.039769
-0.27912
0.318889
-0.399113
0.408409
-0.00929591
-0.421052
0.145957
0.275095
0.292906
-0.204971
0.405998
-0.197512
-0.208486
-0.289374
0.463393
-0.174019
0.324538
-0.0641127
-0.260425
0.0526217
-0.182424
0.129802
-0.121379
0.304825
-0.183446
-0.0585226
0.184925
-0.126403
-0.00252488
0.00433154
-0.38582
0.126667
0.259153
-0.00362838
0.00273099
0.000897392
0.134545
0.205315
0.23843
-0.193674
0.288718
-0.328487
-0.353496
-0.0842707
0.462518
-0.13449
-0.328027
-0.311178
0.189798
0.371672
0.0400577
-0.41173
0.0581962
-0.0776921
0.285173
-0.418875
0.133702
0.0107397
-0.0144315
0.0747493
-0.143803
-0.195088
0.44882
-0.253732
-0.077779
0.0499512
-0.0352987
-0.0209301
0.0562288
0.0111184
-0.0143256
0.00320714
0.144459
-0.0754687
-0.30588
0.0195973
-0.0153402
0.163415
-0.0335288
-0.129886
0.00267111
-0.00147993
-0.013052
-0.00157365
0.217255
0.210427
-0.136156
-0.00990948
0.0107017
-0.000792235
0.0160989
0.239498
-0.380667
0.141169
0.152346
-0.106477
-0.0458684
0.106152
-0.0544485
0.0145596
-0.0145953
-0.00901357
-0.0383665
-0.0141922
0.0525588
-0.00716074
-0.0268767
0.0340374
0.447802
-0.155481
-0.29232
-0.0896858
-0.043137
-0.189357
-0.021904
-0.536947
0.209618
0.288664
0.149888
0.268972
-0.00231535
-0.00141998
0.00373533
-0.300991
0.38596
0.442811
-0.288166
-0.14761
0.211418
-0.0265705
0.0259526
0.000617971
0.196497
-0.393078
-0.0154533
0.00253139
-0.126885
-0.371808
-0.00897356
0.0055798
0.00474192
0.00840142
0.147532
-0.044257
-0.103275
0.220082
-0.17454
-0.0708236
-0.0231574
0.0939811
0.00500454
0.0152785
-0.020283
0.372791
-0.0925707
0.0452623
0.0714393
-0.116702
0.27658
-0.197543
-0.0818484
0.271477
0.269188
0.148805
-0.514713
0.264781
0.249932
0.105284
-0.141838
0.404001
-0.262163
-0.0512806
-0.00255286
-0.358808
-0.0403058
0.0311409
-0.00921513
-0.0219258
-0.0822563
0.404022
-0.321766
0.0115685
-0.269684
-0.119107
0.288627
-0.272032
-0.0165948
0.0367508
-0.173537
0.136786
-0.227503
0.240609
0.0839283
-0.420893
0.145961
0.274932
-0.310943
-0.00617999
0.0271682
-0.0543941
0.0272259
0.199671
-0.0660157
-0.39841
0.21668
0.18173
-0.00978165
0.00898054
0.0396352
-0.107403
-0.0537907
-0.126455
-0.21254
-0.302173
0.0841148
0.204512
0.0119953
0.00760208
0.28665
0.161152
0.0149848
0.0475988
0.337428
-0.197855
-0.139573
-0.113665
0.0336528
-0.00121855
0.00406519
-0.00284664
0.194571
-0.141949
0.00320678
-0.0448503
-0.118176
-0.28283
0.401006
-0.395517
0.230492
0.165024
0.000447886
-0.00325467
0.0856979
0.00194394
-0.0876418
0.105213
0.120433
-0.225646
0.29173
0.170788
-0.404281
0.400606
0.00367559
0.0752038
-0.018101
-0.143994
0.162095
0.0231505
0.00799042
-0.118341
-0.26748
-0.391029
0.420467
-0.0294383
-0.0043349
-0.233299
-0.162701
0.401934
-0.397918
-0.00401637
-0.0100612
0.0100612
-0.362959
0.347133
0.015826
0.134389
0.17383
-0.308219
0.0724139
-0.0939755
0.139547
-0.0202454
0.0248164
0.415737
-0.104234
0.019757
-0.0240314
0.00427437
-0.211827
0.140467
-0.093768
-0.29268
-0.387188
0.395731
-0.00854244
0.0473493
0.0329601
0.34747
-0.416375
0.12109
0.295285
0.163472
0.26056
-0.424033
0.222737
-0.189275
0.259727
0.203666
0.0238511
-0.0622176
0.090518
0.341002
0.366987
-0.0118449
0.0119808
-0.000135836
-0.243517
0.282959
-0.0394426
-0.362262
-0.0541129
-0.072034
0.0485937
0.0234403
-0.00162825
0.00943333
0.0125586
-0.00906603
-0.214368
-0.313231
-0.0864571
0.399688
0.00135862
0.000348686
-0.122487
-0.0730253
-0.160131
-0.235385
-0.438414
0.135561
0.302853
0.338289
-0.14252
-0.195769
0.0271115
-0.4143
-0.381002
0.187962
0.0855364
0.24977
-0.404424
0.140072
0.264352
0.0169231
0.153386
0.201337
-0.398838
-0.0615948
-0.347758
0.197379
0.27174
-0.179352
-0.0234396
0.202792
-0.0436772
0.0678212
0.0190565
-0.00254972
-0.105249
-0.00835611
0.00429678
-0.00551533
-0.00256633
0.00120719
0.00168814
-0.0212822
-0.291948
-0.139391
0.244603
-0.451696
0.172576
0.0125259
-0.228611
0.216086
-0.322139
0.139163
0.151795
-0.135696
0.207346
0.130082
0.17204
0.279355
0.406203
-0.0910673
-0.315135
-0.0552904
0.213746
-0.164865
0.0485247
0.11634
0.0203188
0.0790484
0.240477
-0.0378661
-0.0472015
-0.0173018
-0.00753283
0.0248347
-0.00342003
-0.0151624
0.254181
0.00279246
0.00218173
-0.00497419
0.0124145
0.000807678
0.00667617
0.0172682
-0.0239444
-0.457155
0.167716
0.289439
-0.112899
-0.183729
0.296628
0.0315784
0.149494
0.267266
-0.385443
-0.0359371
-0.20758
-0.0275951
0.0952339
0.360278
0.0383662
0.247206
0.0874258
-0.334631
-0.148662
0.101948
0.129305
-0.197897
0.190724
0.00717253
0.447192
-0.158529
0.267075
0.105716
0.07594
-0.305775
-0.259992
0.272473
0.0859998
0.269206
-0.355206
0.0169375
-0.379896
-0.169937
0.409435
0.0778614
0.192761
0.133061
-0.00898267
0.00895331
2.93555e-05
0.110899
0.22739
-0.0336149
-0.164282
-0.287518
-0.164178
0.0921586
-0.349938
0.257779
0.422827
-0.144975
-0.277851
-0.196599
0.227757
-0.0311582
-0.0952675
0.342473
0.388734
-0.105183
0.155881
-0.405331
0.24945
0.385718
-0.404311
0.0185926
0.239721
-0.463404
-0.0992827
0.0717229
0.0275598
0.136998
0.211454
-0.348452
0.0417723
-0.267621
0.281527
0.143458
0.122223
0.32497
0.00363027
-0.00468476
0.00105449
0.0449589
0.0175525
7.26263e-06
-0.128231
-0.215372
0.343603
-0.000453736
-0.00317464
0.0896441
-0.0285844
-0.0610597
0.113251
-0.171774
-0.245341
-0.218318
-0.0806254
-0.251188
0.195064
-0.323295
0.0310859
-0.0101069
-0.020979
-0.0708225
-0.122922
0.188739
-0.065817
-0.147713
-0.0171518
0.335426
-0.142665
0.298418
-0.0638206
-0.234597
-0.342517
0.0522791
0.105978
-0.0533338
-0.0526447
-0.0164839
0.0550539
0.125672
0.0457687
-0.420475
0.282123
0.138352
0.145827
0.260376
0.461837
-0.24966
-0.022497
0.0306117
-0.00811463
-0.00967661
0.0108116
0.35086
-0.0839534
0.0155153
-0.00219943
-0.0133159
-0.423386
0.21136
0.212027
0.207673
-0.228294
0.020621
-0.0582367
0.0760319
-0.285209
0.242791
0.0424174
-0.234042
0.207669
0.026374
0.0647034
0.160014
0.00141923
-0.00373458
-0.46895
0.151382
0.317568
0.0726231
-0.124465
0.051842
0.0108302
-0.00778193
-0.347753
0.430101
0.0659452
0.0400333
-0.00873653
0.359721
-0.248166
-0.111555
-0.0679918
-0.150516
0.218508
-0.0348703
0.0273569
0.00751333
-0.0719971
0.0474847
0.358819
-0.150074
-0.208745
0.0697704
0.298373
-0.368143
0.0117452
-0.0123172
0.000571979
-0.0514765
0.0220917
0.0293848
0.219561
-0.0795989
-0.139962
0.0529591
-0.109129
0.0561696
0.0507942
0.176079
-0.208238
0.341927
-0.13369
0.0179253
0.121286
-0.139211
-0.306951
0.025556
-0.273872
-0.237685
0.0958278
0.263893
-0.294541
0.451472
-0.156932
-0.365481
0.30499
0.0604907
0.0493639
-0.251946
0.202582
0.12459
-0.106664
-0.105419
-0.304087
0.398945
-0.270769
0.146427
0.193982
-0.340408
-0.0148386
0.0411799
0.0674991
-0.336883
0.269384
0.0119158
0.27617
0.186437
0.216485
-0.00881222
-0.257723
-0.0137472
-0.189107
0.0327874
-0.0156271
-0.0204445
0.0255169
-0.0682206
0.0427037
0.00621605
0.00114324
-0.104234
0.0579988
-0.169985
-0.240492
0.410476
0.110286
-0.0245879
-0.00354891
0.0233059
0.361628
-0.159569
-0.20206
0.0136683
-0.00192309
-0.287279
0.444906
-0.157627
-0.224382
-0.0096607
-0.0983998
-0.100345
0.137598
-0.282671
0.145073
0.257727
0.105411
-0.187344
0.0359109
-0.206054
-0.0215435
0.106357
-0.390861
-0.0108218
-0.00657744
-0.422469
0.0376123
0.145898
0.0546701
0.0808099
-0.13548
0.20131
0.260528
0.0760654
-0.185321
0.109256
-0.215602
0.0340289
0.010663
0.0150278
-0.000853661
-0.442541
0.150183
0.292359
-0.228999
-0.179242
0.030805
0.13261
0.0446035
0.0336713
-0.349895
-0.0155856
0.032881
0.118161
-0.335592
0.217431
0.0289116
-0.0529694
0.0240579
-0.0034302
-0.00392909
0.178033
-0.16111
0.203865
0.308945
-0.239174
-0.205418
0.254782
-7.17899e-05
0.00324359
0.381603
-0.195524
-0.186079
0.2029
-0.461096
-0.234092
0.19643
0.0376625
-0.453172
0.180193
0.272979
0.296107
-0.434068
0.13796
0.00250884
0.0133481
-0.0158569
-0.011634
0.00365274
0.00798122
-0.238468
0.40208
-0.163612
0.269895
0.0809649
0.0482966
-0.0694523
0.0211557
-0.0143616
-0.000233752
0.389452
-0.158959
0.0625381
0.0436136
0.276221
-0.139223
0.0441852
-0.025487
-0.0186981
0.147319
-0.200845
0.053526
-0.00026693
0.0157822
-0.231138
-0.149529
0.0186526
0.109406
0.151808
-0.0963871
0.203239
-0.188136
0.194837
-0.388755
0.193919
0.00227334
-0.00261834
0.000345007
-0.0130885
0.42263
-0.137132
-0.285498
-0.108317
-0.378556
0.260215
0.0925868
-0.12793
0.0353429
0.336177
-0.363793
0.0276165
0.219079
0.162524
-0.210019
-0.0751898
0.193685
0.05629
-0.249975
-0.0516785
-0.030712
0.0823905
-0.00171469
0.0223985
-0.0206838
0.152836
0.205983
0.0726022
-0.0243056
-0.0268227
-0.124807
0.000665485
0.00213399
-0.00279948
0.198432
0.00378832
-0.20222
-0.0290838
0.227515
-0.111885
0.378959
-0.146708
0.284306
-0.130838
-0.288037
0.0111323
-0.0076078
0.0165105
-0.0518092
-0.369098
-0.0880567
0.0180968
-0.0100654
-0.00803143
0.363139
-0.150069
0.29433
-0.184789
-0.109541
0.0599525
0.159608
-0.0800026
-0.278106
0.358109
0.0986858
-0.0540823
0.325805
-0.239805
8.08568e-05
0.00219248
-0.400721
0.205633
0.324018
-0.406274
0.315202
-0.247703
0.0148709
-0.0110439
-0.00382707
-0.000466894
0.00251727
-0.00205038
0.242286
-0.412271
-0.00227138
0.00218642
8.49673e-05
-0.000803764
0.00675538
-0.0156403
0.116443
-0.0634841
-0.0299916
0.276065
-0.356067
0.139659
-0.275803
0.136144
-0.426638
0.150354
0.276284
0.0502614
0.130192
-0.180453
0.00229253
-0.000165544
0.19537
-0.110548
0.387607
-0.277059
-0.123947
0.219842
-0.0958949
0.0205877
0.00623138
-0.0268191
0.1011
-0.0811854
-0.00184068
-0.0139815
0.337736
-0.219575
0.0541908
-0.133555
-0.115788
-0.124763
0.240551
-0.382599
0.0368919
0.33679
0.0489288
0.12131
-0.0101568
-0.00839431
0.0185511
-0.0278852
0.0190602
0.0682173
-0.210729
-0.0474837
-0.0521979
0.0996816
-0.00973561
-0.0155645
0.0253001
-0.0678022
0.215121
0.00228004
-0.00143772
-0.000842322
0.38408
-0.0465359
-0.337544
0.4583
-0.4583
0.0251625
-0.209562
0.1844
-0.107061
-0.324459
0.129402
-0.0368148
4.33769e-05
0.00240421
-0.00244758
-0.0697212
0.129894
-0.0601728
0.177762
0.0604974
-0.238259
0.0873582
-0.119737
0.0248886
0.0468026
0.309078
0.152104
0.281359
0.102721
0.0955542
-0.303792
-0.282471
0.387608
-0.105137
0.382689
0.00742069
-0.39011
0.00963822
0.0084586
-0.197612
-0.213383
0.410995
0.0131838
0.0310014
0.108134
-0.0455957
-0.369617
0.111116
-0.150982
-0.247427
0.0396305
-0.0544692
0.213164
-0.236115
0.0229506
0.063781
-0.0382641
-0.145485
0.368396
-0.222911
-0.108883
0.383444
-0.274561
0.242851
0.0660395
-0.30889
-0.197412
0.400312
-0.0151257
0.00427205
0.0108536
0.395673
-0.136226
-0.259447
0.302053
-0.162394
0.236785
0.0616325
0.311543
-0.0686917
-0.324538
0.419272
-0.0947336
-0.0107891
0.0195426
-0.0087535
-0.241739
0.133567
0.262106
-0.166338
0.322558
-0.15622
0.0135622
-0.0129009
-0.0489331
-0.028846
-0.184073
0.211123
-0.131879
-0.0792441
-0.00127802
0.0602244
0.205744
-0.162836
-0.0429086
0.166976
-0.279874
-0.303355
-0.128861
0.0854495
-0.184372
-0.224191
0.100244
-0.124308
0.174569
-0.0597391
-0.241315
0.301054
0.00322295
0.000306912
-0.00352986
-0.16136
0.28877
-0.12741
-0.312818
-0.07662
0.37866
0.111701
0.158194
-0.297106
0.0659682
0.0292167
0.405335
-0.239566
-0.165769
-0.495547
0.017339
-0.0270746
0.133269
0.0185258
0.0574685
0.257733
0.0623642
-0.178152
-0.0773036
-0.194019
0.271323
-0.171745
-0.0568665
-0.297315
0.237576
-0.0919943
0.386103
-0.294109
0.211939
-0.186776
0.000347252
-0.393123
-0.345185
0.135445
-0.0464291
-0.298208
-0.122267
0.459311
-0.147464
-0.311847
-0.0806026
0.0427364
-0.320903
0.416457
0.174607
-0.298782
0.124174
-0.186281
-0.114397
0.300677
-0.298311
-0.00611889
-0.167183
0.266686
-0.375569
-0.221176
0.17653
0.0446466
-0.299049
-0.0498235
0.348872
-0.186669
0.0286068
0.158062
0.357745
-0.204908
0.0197278
-0.0129724
-0.359663
0.214177
0.303317
0.0890077
-0.392325
0.00673146
-0.0175206
0.0754105
0.135713
0.186516
-0.148904
-0.0230441
0.000547102
0.168595
0.220857
-0.00207998
0.00487244
-0.0408366
0.0558214
0.0193319
0.0678708
-0.0872027
0.190288
0.145138
-0.0638128
-0.00655353
0.0703663
0.318886
0.0640991
-0.382985
0.308129
-0.133522
0.321857
-0.23407
-0.087787
0.0908413
-0.312028
0.221186
0.0199042
-0.00193597
0.0237037
-0.00397596
0.0318763
0.0784094
-0.0675012
0.214933
-0.147432
0.0149047
0.00895537
-0.277548
0.0912675
-0.107319
0.324558
-0.217239
-0.163701
0.0755218
-0.0665849
0.00982984
-0.286648
0.408565
-0.188015
0.327644
-0.139628
-0.295647
-0.128597
0.0622398
-0.0942756
0.0320358
0.312863
0.0924718
-0.243133
0.300601
-0.117933
-0.181821
0.299754
-0.258365
0.353865
-0.0955003
-0.459415
0.252603
0.206812
-0.00365271
0.00390797
-0.000255266
0.279185
-0.167484
0.0264281
-0.0781066
-0.147366
0.355602
-0.208236
0.293963
-0.263549
-0.0304144
0.0254742
-0.137864
0.112389
-0.043332
-0.135206
0.397055
-0.261848
-0.107756
0.138809
0.166611
-0.0107266
0.0115963
-0.312664
0.172853
0.139811
-0.0640428
0.403097
0.143686
-0.315042
0.171356
-0.337537
0.273994
0.0635431
0.099003
-0.140628
0.0416254
-0.160417
0.22723
-0.143172
-0.207268
0.35044
-0.052244
0.177045
-0.124801
0.0140824
-0.0115736
0.115277
-0.330657
0.21538
-0.00756529
0.028153
0.238029
0.0559349
0.411681
-0.142998
-0.268683
0.244714
-0.442326
0.235532
-0.0177623
-0.299878
0.335152
-0.244311
-0.189127
0.107617
0.157009
0.0406563
0.318477
-0.349255
0.206083
-0.031938
-0.282237
0.314175
-0.197225
0.034389
-0.162893
0.15605
0.00684267
-0.0308007
0.0591176
-0.0649115
0.275131
-0.210219
0.334858
-0.127512
0.345332
-0.353545
0.00821217
0.0579893
-0.105473
-0.0969868
-0.215041
0.0737695
-0.279234
0.00187726
0.346708
0.307773
0.128072
0.335828
-0.14554
0.163483
0.13857
0.0809561
-0.220895
0.139939
-0.0430696
0.31449
-0.11673
-0.19776
-0.391059
0.295164
0.0958953
0.0390973
-0.326376
-0.203701
-0.218837
0.422538
0.145245
0.266437
-0.0993995
-0.0767852
-0.21205
-0.00140609
-0.00752221
-0.237309
0.193606
0.0437027
-0.0121308
0.0276471
-0.0177945
-0.0118012
0.0295957
-0.22171
-0.0499475
0.271657
0.0829992
0.0693465
-0.198223
0.191835
0.00638819
0.00224673
-0.0027813
0.00586286
-0.00319176
0.0446199
-0.298332
-0.135736
0.000486977
-0.119675
0.119188
0.291406
-0.323344
-0.0186843
0.0886789
-0.0699946
0.283594
-0.166289
-0.117305
0.00769027
-0.00135024
-0.00871093
-0.184572
-0.128092
0.0198743
-0.00620598
0.146935
-0.047932
-0.0297131
-0.0217634
0.229829
-0.0392164
-0.30166
-0.116703
-0.223089
0.025641
-0.0421902
-0.291766
0.333956
0.346157
0.110711
0.0245167
-0.0747786
0.0502619
-0.00885126
-0.00627442
0.0602624
0.352821
-0.413083
0.0307893
-0.126936
-0.0478112
-0.180191
-0.300939
0.198943
0.101996
-0.32433
-0.104266
0.436958
-0.100781
-0.0557597
-0.0676386
0.225627
-0.258739
0.0331121
0.410772
-0.133495
-0.277277
0.385383
-0.144368
-0.0572198
0.250905
-0.328654
0.17858
0.368026
-0.220307
-0.147719
0.250395
-0.35349
0.103095
-0.290104
-0.100955
0.0203835
-0.242093
0.482674
-0.262809
-0.219865
0.149446
-0.0247731
0.0973961
0.109858
0.320161
-0.182315
-0.137846
-0.000954308
-0.00669736
0.00765167
0.339676
-0.107383
0.394406
-0.287024
0.343873
-0.20554
-0.138333
-0.235499
0.237102
-0.00160224
-0.266
-0.0715373
-0.0294309
0.0210675
0.0131625
-0.333195
0.320032
-0.194109
-0.0465242
0.226467
-0.179943
0.215225
-0.0594135
-0.0953736
-0.286028
0.381401
0.16753
0.00738122
-0.348961
0.34158
-0.466643
0.255868
0.210775
0.130537
-0.0758672
0.000777778
-0.32168
0.00209174
0.0139051
0.331427
0.127586
-0.0805147
-0.0470714
0.292363
0.125206
0.409297
-0.125861
-0.283436
0.322724
-0.159241
-0.0254926
0.00572298
0.0662205
0.0234236
-0.395758
0.288375
-0.00778258
0.0229886
-0.015206
-0.0619467
-0.411471
0.147529
0.263942
-0.0045357
-0.0110975
0.0156332
0.00333001
-0.00540999
0.00243307
-0.0100409
0.185495
0.0423635
-0.227859
-0.385107
0.141898
0.243209
-0.181497
-0.241889
0.000137122
0.00349315
0.155294
0.159196
0.436906
-0.294851
-0.142055
-0.439017
0.136778
0.302239
-0.0465845
0.116067
0.0282811
-0.144348
0.265955
-0.254387
-0.157019
-0.302397
0.00595362
0.126253
0.157341
0.023011
-0.00810637
0.0670009
-0.0856852
0.208468
-0.385015
0.176548
-0.0218623
-0.0470492
0.0689115
0.272343
-0.373474
0.101131
0.0757384
-0.393752
0.0582269
-0.234357
0.17613
-0.357007
0.207352
0.149655
-0.211282
0.218975
-0.0076933
-0.0206287
0.0117081
0.061025
-0.0727331
-0.0667327
0.00205487
0.0646778
0.0530038
-0.241019
-0.00123325
-0.00256751
0.302122
-0.0739324
-0.22819
0.442459
-0.0707868
0.036494
-0.0233102
-0.00128517
-0.000986216
-0.0115135
-0.00164681
0.0131604
0.0245942
0.0490821
-0.0736763
-0.125766
-0.313251
0.00524089
0.0612527
-0.0846806
0.0234279
-0.407083
0.209672
-0.151864
-0.00306893
0.00405504
-0.000986111
-0.341534
0.0098735
0.33166
-0.30667
0.403936
-0.097266
-0.000130155
0.0583483
-0.0582182
0.355306
-0.10491
0.517419
-0.223879
0.0313937
-0.255535
0.224142
-0.192423
-0.27422
0.27796
-0.232688
-0.0452715
0.377583
-0.122757
-0.254826
-0.0891768
0.00201499
-0.00318315
0.00116816
0.0146138
0.00526045
0.358922
-0.0646836
-0.294238
-0.107886
0.250165
-0.142279
0.206551
0.0714085
0.128598
0.282174
0.115328
-0.411541
0.296212
-0.0423026
-0.105411
0.282076
-0.42624
-0.199035
0.362507
-0.201276
0.354934
-0.153657
-0.196278
-0.0378141
-0.320965
0.478165
-0.1572
-0.118242
0.181576
-0.0729842
-0.22827
0.1461
-0.349614
0.203514
-0.137268
0.40704
-0.269772
-0.0444429
0.274697
-0.385245
0.113401
0.206761
-0.268887
0.414844
-0.262182
0.19438
-0.145017
0.276541
-0.000188393
-0.00466221
0.0048506
-0.244724
0.0997057
-0.382549
0.185353