/*--------------------------------*- C++ -*----------------------------------*\
| =========                 |                                                 |
| \\      /  F ield         | OpenFOAM: The Open Source CFD Toolbox           |
|  \\    /   O peration     | Version:  v2012                                 |
|   \\  /    A nd           | Website:  www.openfoam.com                      |
|    \\/     M anipulation  |                                                 |
\*---------------------------------------------------------------------------*/
FoamFile
{
    version     2.0;
    format      ascii;
    class       volVectorField;
    location    "300";
    object      U;
}
// * * * * * * * * * * * * * * * * * * * * * * * * * * * * * * * * * * * * * //

dimensions      [0 1 -1 0 0 0 0];


internalField   nonuniform List<vector> 
27915
(
(1.0317 -0.0257194 -4.80805e-21)
(1.06899 -0.0644838 1.64021e-20)
(0.485956 -0.0171593 0)
(1.00985 -0.00230396 3.42081e-23)
(1.01336 -0.00557461 7.03566e-24)
(1.03973 -0.0319671 -4.36104e-21)
(1.0095 0.000467205 -1.74279e-22)
(0.513029 -0.0131782 5.01005e-21)
(1.01294 -0.00485589 0)
(0.524639 -0.0393819 8.92596e-21)
(1.03898 -0.0442956 -2.65105e-21)
(0.495996 -0.0512765 0)
(1.04754 0.00303264 -1.09355e-21)
(1.00952 0.000477177 1.38197e-22)
(1.01536 0.000819469 4.53877e-23)
(1.01056 -0.00252283 6.83024e-22)
(0.934209 -0.0838661 -4.28055e-21)
(1.0246 -0.0118916 5.22782e-22)
(1.07995 -0.0558107 0)
(0.510459 -0.0135746 1.59293e-21)
(1.01929 0.0537607 -1.3035e-21)
(1.0276 -0.0189212 0)
(0.610775 0.160575 2.37616e-21)
(1.0228 -0.0110011 -3.66497e-21)
(1.0106 -0.00246714 -6.19411e-22)
(1.00723 -0.000980143 -3.65259e-23)
(0.783343 -0.146331 -3.41822e-21)
(1.01327 -0.00544555 2.46637e-23)
(0.403055 -0.00438403 0)
(1.05019 -0.0242807 3.05695e-24)
(1.02321 -0.00735679 0)
(1.0311 -0.0346926 0)
(1.00794 -0.000553612 -9.46259e-23)
(1.00674 -0.000557422 -6.26534e-23)
(0.701678 -0.0346491 7.68089e-23)
(1.00672 -0.000562629 0)
(1.00266 -7.17343e-05 1.8047e-23)
(1.00719 -0.000967674 3.91713e-23)
(1.03614 -0.0463001 -2.34649e-22)
(1.01584 -0.00825798 3.64264e-22)
(1.01738 -0.0132939 1.02663e-24)
(1.00261 -6.35275e-05 1.51661e-24)
(1.08964 -0.0542185 0)
(1.01293 -0.00335685 9.88016e-22)
(0.531897 0.0155485 -1.09459e-22)
(1.01594 -0.00844123 1.61129e-22)
(1.01706 -0.00558784 8.96933e-22)
(1.02148 -0.0354654 1.89744e-23)
(1.00668 -0.00041358 1.72153e-22)
(1.0118 -0.00132735 -3.71882e-22)
(0.523194 -0.0159683 0)
(0.997454 -0.0606619 5.5752e-22)
(-0.105 0.145591 -3.56982e-20)
(1.04711 -0.0254866 0)
(1.0568 -0.0236374 -3.26307e-21)
(1.017 -0.00539529 0)
(1.01967 -0.000700206 0)
(1.047 -0.0300353 -1.18365e-21)
(1.04743 -0.0432285 1.19737e-21)
(1.02312 -0.00707224 -1.59999e-21)
(0.944482 -0.0154992 0)
(1.02899 -0.0291365 -1.90547e-21)
(0.546173 0.00261992 7.94452e-22)
(0.170063 0.00196518 0)
(1.01762 -0.000799811 2.72086e-21)
(1.03855 -0.0465214 9.58062e-23)
(0.524668 -0.0379724 2.14464e-21)
(0.521182 -0.0165083 1.20159e-20)
(0.697632 -0.0325731 8.58705e-21)
(1.01873 -0.000747345 0)
(1.01745 -0.0121581 1.29505e-22)
(1.02272 -0.0112862 2.32386e-21)
(1.02493 -0.0119047 -1.3734e-21)
(0.906778 0.167482 0)
(0.486577 -0.0354743 0)
(1.01675 -0.0212157 -2.24776e-22)
(1.04934 -0.0240732 -2.67223e-21)
(1.00679 -0.0001768 -2.39657e-22)
(-0.0186826 -0.0644922 8.40747e-21)
(1.02951 0.0182577 -1.91717e-22)
(1.03988 -0.0314729 -3.73904e-21)
(1.01562 -0.00856088 -1.82097e-22)
(1.05138 -0.0361607 0)
(0.512216 -0.00937006 1.31386e-20)
(0.406075 -0.172268 0)
(1.01913 0.0157719 0)
(1.00628 -0.00044318 0)
(1.08861 -0.0540304 9.33428e-21)
(0.205638 0.0454827 3.59024e-22)
(1.02772 0.0141832 -3.99779e-22)
(1.01825 -0.0113389 6.76376e-22)
(0.914448 0.161082 4.06609e-22)
(1.0116 -0.00133286 6.23753e-23)
(0.610287 -0.158089 -4.57851e-21)
(0.420849 -0.00480974 4.66663e-21)
(0.498906 -0.0189469 0)
(0.973136 -0.0623709 1.69799e-21)
(0.548292 -0.0392421 -3.72076e-21)
(1.02861 -0.0289156 8.17069e-22)
(1.00635 0.000302757 8.12903e-23)
(1.06945 -0.0244727 0)
(1.00704 -0.000894583 -2.65501e-24)
(0.543273 -0.0372389 -2.17859e-21)
(1.01462 -0.00477316 -5.22188e-22)
(1.01556 -0.0135501 0)
(1.01549 -0.00846513 -1.00578e-22)
(0.682427 -0.134113 -1.22096e-20)
(1.00584 -0.0335105 1.88694e-21)
(1.007 -0.000876263 -3.91094e-24)
(0.528085 -0.0290146 -4.0776e-21)
(0.86415 -0.087182 1.02509e-20)
(1.01754 -0.01365 -4.6632e-23)
(0.99067 0.00916468 -3.96301e-24)
(1.03649 -0.0703322 1.31564e-22)
(1.00888 -0.03268 4.48752e-22)
(0.996372 -0.0567883 -4.2664e-22)
(0.318628 -0.152229 0)
(1.03156 -0.0344825 0)
(1.01437 -0.00469283 2.68928e-22)
(1.00669 -0.000405509 3.76026e-22)
(1.0182 -0.0111774 5.77351e-22)
(0.994465 0.0084588 -5.09312e-22)
(1.0081 -0.000583958 0)
(1.0271 -0.0187916 -1.86918e-21)
(1.00143 3.41599e-05 0)
(0.684566 -0.0607474 3.47908e-21)
(0.997294 -0.0782425 -1.36096e-21)
(0.336794 0.00344411 0)
(1.02154 -0.00901686 0)
(1.01181 -0.00277511 -9.21208e-23)
(1.02782 -0.0291026 0)
(0.821653 -0.144925 9.64225e-23)
(0.601006 -0.160142 0)
(1.08851 -0.0545332 0)
(0.282979 -0.0706368 1.13091e-21)
(1.03948 -0.0305386 6.67343e-23)
(0.663487 0.0832231 -3.07338e-22)
(1.00574 -0.000255722 1.23918e-22)
(1.01189 -0.00265554 -1.34947e-22)
(1.01793 -0.0107111 -3.02779e-22)
(1.00783 -6.20354e-05 0)
(1.05784 -0.0234128 3.79582e-21)
(1.00341 -0.000136507 1.86983e-22)
(1.05768 -0.0606364 0)
(0.784868 -0.0802281 0)
(0.530985 -0.0176461 -6.82519e-21)
(0.346721 -0.00539165 1.37534e-20)
(1.02141 -0.0343162 -3.81299e-23)
(1.02086 -0.0224646 0)
(1.05233 -0.0364652 -4.41816e-21)
(0.350768 -0.152871 0)
(1.00574 -0.000251338 -1.25961e-22)
(1.02714 -0.116039 2.64093e-21)
(0.0314227 0.0991816 0)
(0.976819 -0.0931832 0)
(0.609895 -0.0194315 0)
(0.958523 -0.0574012 -7.44826e-22)
(1.00267 7.53939e-05 1.00709e-23)
(1.00173 4.05459e-05 0)
(1.01688 -0.000661701 -1.90416e-22)
(1.06386 -0.105695 1.0345e-20)
(0.479205 0.0193912 -1.37323e-20)
(1.01083 -0.00116483 2.26583e-22)
(1.03403 0.00458032 7.11901e-23)
(0.901631 0.174474 -3.73021e-23)
(1.02741 -0.00149647 0)
(1.02175 -0.115877 -2.12324e-22)
(0.534558 0.179818 4.39658e-24)
(0.504458 -0.038034 -4.5828e-21)
(1.00128 -5.83444e-05 -3.83249e-23)
(1.02242 -0.00826287 1.18638e-21)
(1.02569 -0.0123751 -4.05682e-21)
(1.00142 3.74037e-05 0)
(1.02261 -0.0361205 0)
(1.00887 0.000445312 8.35961e-23)
(0.424548 -0.000179884 1.67862e-20)
(0.524724 -0.0280008 -2.57981e-21)
(1.01407 -0.00430519 1.56332e-23)
(1.00279 4.56675e-05 -2.68177e-22)
(0.437669 0.0105297 0)
(0.199384 0.0583101 2.77674e-23)
(1.01862 0.012525 3.13466e-22)
(1.00416 -0.000296309 0)
(0.544502 -0.0196247 0)
(1.04016 -0.0320074 0)
(1.06215 -0.0420659 2.08804e-22)
(1.00272 2.78202e-05 0)
(1.00245 5.22917e-05 0)
(0.452519 -0.00824909 3.39366e-21)
(1.00628 -0.000439618 -1.90739e-22)
(0.878675 -0.0508287 0)
(1.03163 -0.043578 -9.03759e-22)
(1.06597 -0.118351 3.86373e-21)
(1.0139 -0.00418814 -2.79941e-22)
(1.00916 0.00081896 9.77161e-24)
(1.00929 -0.000664578 5.7288e-22)
(1.05902 -0.048628 -4.23191e-22)
(1.03757 0.00385064 -1.52076e-23)
(1.00152 -3.54853e-05 -1.0615e-22)
(1.04689 -0.0341717 0)
(-0.0986887 0.146897 2.77935e-20)
(0.390314 -0.144625 -3.71056e-21)
(1.00299 5.52012e-05 0)
(1.00149 6.24104e-07 -1.68393e-22)
(0.435814 -0.00186613 1.52621e-22)
(0.354728 -0.00619852 -9.98167e-21)
(1.04303 -0.0749687 -6.276e-21)
(1.00373 0.00262848 5.10053e-22)
(0.323312 0.162658 0)
(1.01306 -0.00495097 0)
(1.04938 -0.0356607 1.71921e-21)
(0.384047 0.0299695 3.55838e-21)
(1.00172 -1.15438e-05 0)
(1.01946 -0.000214467 -2.81188e-21)
(1.00126 6.08308e-06 -4.52741e-23)
(1.0154 -0.000324318 -1.43222e-23)
(1.00518 0.00340207 -5.11697e-22)
(0.974951 -0.0882813 -1.40379e-21)
(1.0119 -0.00276639 5.43389e-23)
(1.01533 -0.00822181 0)
(1.02169 -0.0105958 6.64962e-22)
(1.01958 -0.000153111 5.05967e-23)
(1.05661 -0.0245479 1.82067e-21)
(1.00194 9.73674e-06 0)
(0.428852 0.00714663 0)
(1.02784 -0.0703302 0)
(1.01348 -0.00361691 0)
(0.895249 -0.0542871 -3.64597e-21)
(1.01207 -0.00273956 -1.47695e-22)
(1.00815 -0.000379646 -1.43876e-22)
(0.313611 -0.00231005 -4.35058e-21)
(1.01497 -0.00912586 -3.86673e-22)
(0.403892 0.0412215 -4.18009e-21)
(0.554342 0.183391 0)
(1.01542 0.0682505 1.32729e-21)
(1.01278 0.00229652 -4.07141e-22)
(0.386323 0.0924368 -4.1711e-21)
(1.01472 -0.0003892 0)
(1.00291 -0.000125184 0)
(1.01025 -0.00116142 0)
(0.897133 -0.0243412 -3.87805e-21)
(1.0189 -0.0145988 0)
(1.01529 -0.0113097 1.43062e-22)
(0.42687 -0.143027 8.53643e-21)
(1.02126 -0.00879724 -2.49282e-21)
(1.00288 5.64872e-05 0)
(0.0312247 0.0967568 0)
(0.201492 0.000471714 2.57658e-20)
(1.01546 -0.0117419 2.74155e-22)
(1.06222 -0.121883 0)
(1.05997 -0.0210622 -1.44569e-20)
(0.613959 -0.0248313 0)
(1.01034 0.000951497 0)
(1.02357 -0.00755859 0)
(1.01522 -0.00812906 0)
(0.968525 -0.0565579 0)
(1.03211 -0.0255292 5.02614e-21)
(1.01241 -0.00314923 -1.68563e-23)
(1.04205 -0.0505109 7.33778e-21)
(0.691082 -0.135113 1.62278e-20)
(0.428897 -0.0199903 0)
(1.07282 -0.0641707 8.47942e-21)
(1.03419 0.011172 3.64561e-22)
(1.0462 0.0151422 2.26276e-21)
(1.03223 0.0147518 -1.64762e-23)
(1.08424 -0.0615641 0)
(1.00894 -0.00177793 -9.91894e-23)
(0.866488 -0.0495094 9.9355e-21)
(0.620421 -0.0261977 0)
(0.831155 -0.1015 0)
(1.01727 -0.000761013 3.86718e-22)
(0.437583 0.00893086 0)
(0.510054 0.0306827 -1.25157e-20)
(0.271847 0.00630491 -2.16419e-20)
(1.01563 -0.0123107 -4.26996e-22)
(1.00901 -0.00179112 0)
(1.01531 -0.00514718 -2.35665e-22)
(1.01905 -0.0144779 4.61221e-22)
(1.00845 -0.00131051 0)
(1.02684 -0.018179 2.97984e-21)
(1.0118 -0.00267224 0)
(1.00647 0.000316587 0)
(1.00666 -0.000166659 1.84941e-22)
(1.01353 -0.00809602 -2.78975e-22)
(0.983259 0.0894175 0)
(0.534145 -0.0275821 -1.14579e-20)
(0.0698251 0.061087 -1.70081e-20)
(1.01709 -0.0864968 -1.12598e-20)
(1.04903 -0.0249041 2.66416e-21)
(0.796663 -0.0465695 0)
(1.05948 -0.048581 0)
(1.02374 -0.0115136 -5.34491e-22)
(0.497377 0.0320203 1.43967e-20)
(1.0118 -0.000788664 0)
(1.01501 -0.00519329 -7.22174e-23)
(1.07213 -0.0633206 0)
(0.958161 0.105843 -1.07017e-21)
(0.675742 0.0892406 2.21571e-22)
(1.0201 -0.0336957 3.60771e-23)
(1.01914 -0.000233622 1.63886e-21)
(1.0324 0.0233433 1.88728e-21)
(1.00691 0.00137791 1.57112e-23)
(1.01121 -0.00189959 2.40108e-22)
(1.00072 2.5634e-05 7.39789e-23)
(1.00296 0.0495939 5.15592e-22)
(-0.0975068 0.0424278 -2.03956e-20)
(1.04637 -0.0347687 0)
(1.00277 4.66552e-05 0)
(-0.0244598 -0.0612287 2.61837e-20)
(1.018 -1.06513e-05 -4.71391e-24)
(0.962761 -0.0712217 -4.87092e-21)
(1.03478 -0.00522786 1.88449e-21)
(0.691483 -0.0415167 1.22664e-20)
(1.01236 -0.00309784 -2.41679e-22)
(0.924098 -0.0349654 7.27139e-21)
(1.00139 1.36276e-06 -1.94606e-22)
(1.00608 0.000242661 4.03341e-23)
(0.527055 -0.0112861 0)
(0.330012 0.00523691 0)
(0.33233 -0.00568251 0)
(1.01042 -0.0072676 -1.65943e-22)
(1.00792 0.000624503 0)
(1.00925 -0.00195708 7.13339e-22)
(1.02117 -0.0108823 0)
(1.03085 0.00707408 -1.70935e-21)
(1.0079 0.00217059 0)
(1.0915 -0.0550837 0)
(0.414143 -0.00545808 4.28289e-21)
(1.01903 -0.00742673 -2.47138e-21)
(1.00977 -0.000603859 -3.12095e-23)
(1.01436 -0.00387124 -6.57143e-22)
(1.01158 -0.00880972 2.95957e-22)
(1.02173 -0.0113838 0)
(1.01133 -0.00186165 -3.01738e-22)
(0.557395 -0.0818794 2.22758e-21)
(1.00845 0.000462194 0)
(0.981509 -0.0767931 0)
(1.00875 -0.00126257 0)
(0.413076 0.0828669 1.43579e-21)
(0.316818 9.37204e-05 2.16084e-20)
(1.04826 -0.0247942 -4.85992e-21)
(0.036394 0.0733257 0)
(0.316655 0.00386002 8.01882e-22)
(-0.14148 0.1487 -5.63743e-21)
(1.00826 0.000450704 0)
(1.01283 -0.000487432 0)
(1.03418 -0.00512763 1.70851e-21)
(0.97737 -0.061991 6.72444e-21)
(0.539687 -0.0289995 8.869e-21)
(1.0234 -0.0114859 4.28266e-22)
(1.02087 -0.0107221 7.39093e-22)
(1.01033 -0.00119655 0)
(0.680594 -0.0775073 -2.00404e-21)
(1.02747 0.00699155 2.19814e-22)
(1.05141 -0.0491921 0)
(1.09962 -0.0693847 1.52614e-20)
(1.02668 0.00455984 1.13378e-22)
(1.01706 -0.00344448 -1.81849e-21)
(1.01047 -0.00108999 -1.69877e-22)
(0.903238 0.174507 1.06082e-21)
(1.06236 -0.0549339 -9.75656e-21)
(1.01728 -0.000360438 -6.24616e-22)
(1.01928 -0.013198 3.75002e-22)
(1.00502 2.67215e-05 -1.79457e-22)
(1.013 -0.000600717 1.91731e-22)
(0.00357649 0.0611778 1.19899e-20)
(1.01511 -0.00802256 0)
(1.00939 -0.00151627 -2.42106e-24)
(1.02248 -0.00699962 -2.3012e-22)
(1.01021 -0.00260852 -9.8026e-25)
(0.409912 -0.00617179 -4.14577e-21)
(1.00861 0.000444282 1.49427e-22)
(1.06118 -0.0659568 0)
(1.01112 -0.000669553 -6.94816e-23)
(0.597785 -0.0274523 4.39033e-21)
(1.00886 0.000460723 9.238e-23)
(1.00828 -0.000362793 0)
(1.07775 -0.0536791 2.24891e-23)
(1.01639 -0.00568504 1.28093e-21)
(1.01051 0.000976252 1.21418e-23)
(1.03837 -0.034289 0)
(1.07999 -0.0603246 1.76404e-20)
(1.0268 -0.0304275 6.42333e-22)
(0.641584 -0.211503 1.57231e-23)
(0.968106 -0.0566578 -1.02022e-20)
(1.04337 -0.0506605 -1.95005e-21)
(0.895266 -0.167008 0)
(1.08028 -0.0607984 -1.96032e-20)
(1.01799 -0.0109243 3.21979e-22)
(1.04864 -0.0574444 1.09336e-20)
(1.02956 -0.00316071 5.61564e-21)
(-0.0219083 0.0898276 0)
(0.567171 -0.0304537 0)
(1.00944 -0.00219161 3.98412e-22)
(0.546557 -0.0421525 6.75352e-21)
(1.06929 -0.0621562 -1.37541e-20)
(1.01532 -0.00863456 5.55274e-22)
(1.01643 -8.63431e-05 1.56493e-22)
(1.00215 2.44895e-05 1.66546e-22)
(0.165399 0.0348302 0)
(1.0105 -0.00110892 2.68425e-23)
(1.02832 -0.0293075 4.65561e-22)
(0.434466 -0.00400299 -8.87123e-21)
(1.03887 -0.00735507 4.75399e-21)
(0.990321 0.0365258 -3.05186e-21)
(1.01743 -0.00369462 0)
(1.01133 -0.0868121 2.2561e-21)
(1.01957 -0.000696506 -1.26406e-21)
(0.273465 -0.0781067 -2.29645e-22)
(1.04469 -0.0766683 9.82527e-21)
(0.465051 -0.0103837 -3.25515e-21)
(1.01694 -0.00460845 -1.18657e-21)
(1.00948 -0.00218798 -3.06999e-22)
(1.00322 9.06426e-05 -5.43979e-25)
(0.485214 -0.0619435 9.48395e-21)
(1.02184 -0.0111876 1.44762e-23)
(1.0136 -0.0355515 -7.951e-22)
(1.01599 0.000829267 4.58785e-22)
(1.06872 -0.0612875 -6.36103e-21)
(1.01835 -0.00439861 -1.19917e-22)
(0.976603 -0.0784473 1.20679e-21)
(1.00436 -0.000110974 6.40934e-23)
(1.06712 -0.0250675 1.34701e-20)
(0.859824 -0.0476911 0)
(0.0184905 -0.0320592 3.99373e-20)
(1.01705 0.00175878 -5.79289e-23)
(1.00931 -0.00153905 1.96427e-23)
(-0.0886491 0.0393433 0)
(0.774223 -0.0443423 0)
(1.01391 -0.00156077 1.65048e-22)
(0.84625 -0.0484877 0)
(1.01637 0.00140618 0)
(1.01014 -0.0665361 3.39863e-22)
(1.05093 -0.0334015 -3.41623e-21)
(1.00978 -0.0017946 -1.47339e-22)
(1.01016 -0.00121212 0)
(1.01968 -0.00764422 -1.30723e-21)
(1.01446 -0.000612381 -2.10365e-21)
(1.02621 0.0211564 0)
(1.07838 -0.0574584 -5.98721e-21)
(0.849461 -0.10545 0)
(0.981399 -0.0465513 -1.4507e-21)
(1.01917 -0.0672012 0)
(1.04995 -0.0740405 -2.08943e-21)
(1.00264 2.08161e-05 -1.73028e-22)
(1.01513 -0.00412632 2.64645e-22)
(0.433731 -0.00505423 0)
(1.03806 -0.00728501 2.38019e-21)
(1.09241 -0.0571423 0)
(1.00934 0.000832065 0)
(0.782424 -0.0558202 0)
(0.98225 -0.0588075 -6.11273e-21)
(1.00832 -0.00141991 2.6257e-22)
(1.01352 -0.000495326 -2.86775e-24)
(0.870475 -0.083308 -1.09592e-20)
(1.01194 0.0534076 7.55998e-22)
(0.708702 -0.0482813 -2.51116e-20)
(1.01295 -0.00059912 -3.61875e-22)
(1.0616 -0.0349512 0)
(0.428536 -0.00510966 -1.29681e-22)
(1.00917 -0.00193222 -4.79123e-22)
(1.01344 -0.000158363 -4.47264e-21)
(0.904273 -0.0881743 2.30943e-21)
(1.02072 -0.000200212 -2.46801e-22)
(0.389622 -0.00322137 -8.06394e-21)
(0.923306 -0.0594256 1.19881e-20)
(1.00076 3.84567e-05 -1.2818e-22)
(1.01346 -0.00344293 -1.22774e-21)
(0.955488 -0.011081 -3.53458e-21)
(1.01571 -0.0513385 2.04317e-23)
(1.01294 -0.00349574 -1.05566e-21)
(1.06845 -0.0236089 0)
(1.00968 0.0197518 0)
(1.01066 -0.00106887 4.14985e-22)
(1.03548 0.00769103 -9.50134e-23)
(1.02179 -0.00889453 -2.0847e-23)
(1.01316 -0.00383718 -1.10532e-21)
(1.01399 -0.00367036 0)
(1.00549 0.00504201 0)
(1.03005 -0.0326015 0)
(0.904449 0.0415482 0)
(1.03072 -0.0310579 -5.73361e-22)
(0.0727229 0.0490468 -1.43698e-20)
(1.07231 -0.0745194 -1.43132e-21)
(0.0126196 0.0956801 -5.94275e-21)
(1.02641 -0.0180448 -3.00382e-21)
(1.02652 -0.0297709 0)
(1.01117 0.0176706 4.13833e-22)
(1.01648 0.013441 0)
(1.00946 -0.000643631 2.19193e-22)
(0.890697 0.0363806 5.38853e-22)
(1.0096 -0.0517604 2.82054e-22)
(1.08775 -0.057508 0)
(1.01705 0.000412021 5.82131e-24)
(0.402967 -0.00647241 0)
(1.03973 -0.0436394 7.15865e-21)
(1.02017 -0.00240698 -4.07225e-22)
(0.906109 -0.0851258 0)
(0.872257 -0.0488742 0)
(0.432643 -0.00588501 3.59767e-21)
(1.01418 -0.00387011 0)
(1.0155 0.000660734 1.51922e-22)
(0.428804 -0.00773583 3.97187e-21)
(0.616759 -0.203314 1.90935e-23)
(0.0485269 -0.0261549 8.61238e-21)
(0.413424 -0.00509207 1.85861e-21)
(1.00981 -0.0022545 -3.87807e-23)
(1.0179 0.000477563 2.06527e-22)
(0.304887 0.00383825 -1.24312e-21)
(0.668249 -0.173119 0)
(1.01139 -0.00387663 0)
(1.0351 -0.0708509 4.45437e-21)
(1.07789 -0.0575541 -9.8092e-21)
(0.433176 0.00897 0)
(0.324557 0.00504018 0)
(0.983206 -0.0587777 3.38397e-21)
(0.640874 -0.0223579 -3.97699e-21)
(1.00969 -0.00166187 -7.96713e-23)
(1.06219 -0.0648572 -1.06249e-22)
(1.0389 -0.0348106 2.07595e-21)
(1.00363 -0.0001007 -6.9582e-23)
(1.00826 -0.00140857 1.30792e-22)
(1.01077 -0.00114105 0)
(-0.0185038 0.0962439 9.90733e-21)
(1.00775 0.000601684 0)
(0.916079 0.166905 -1.9846e-22)
(1.04661 -0.0246669 0)
(0.599765 -0.0289992 -3.17768e-22)
(1.0422 0.0114506 8.78758e-22)
(0.440948 -0.00673401 0)
(1.00642 0.000308347 -1.2163e-24)
(0.159981 0.0612017 -3.57518e-22)
(0.342381 -0.0113275 -1.07177e-20)
(1.0168 -0.0741747 1.13618e-21)
(1.01995 -0.0325214 0)
(1.09463 -0.0741014 3.31602e-21)
(0.515704 -0.0222993 -5.49592e-21)
(1.01216 -0.00272056 2.84605e-22)
(1.06898 -0.0594396 -6.93725e-21)
(1.01949 -0.00745606 1.34698e-21)
(1.02216 -0.00689559 0)
(1.02952 0.0114687 1.18164e-24)
(1.01863 -0.000594821 0)
(1.05132 -0.0126552 1.28287e-21)
(1.01394 -0.00134102 0)
(0.369683 0.0852782 -3.38846e-22)
(1.01058 -0.00107139 -2.37702e-22)
(0.595704 -0.0302412 0)
(1.00881 -0.00139176 0)
(0.887469 -0.175044 3.66351e-21)
(1.02275 -0.00689052 2.26042e-22)
(1.02847 -0.0146666 -1.13087e-21)
(1.02771 -0.031339 -2.47699e-22)
(0.981736 -0.0581918 3.02394e-21)
(1.00771 0.0062453 0)
(1.02879 -0.00119492 1.75368e-22)
(0.980353 0.0966493 1.21765e-21)
(0.835913 -0.0491452 0)
(1.06176 -0.0521681 2.83635e-22)
(1.01238 -0.00455749 9.54042e-22)
(0.314562 0.00502946 3.49338e-22)
(0.505796 -0.0374635 -9.77076e-21)
(1.07403 -0.0639446 -8.97067e-21)
(1.05302 -0.0359057 5.28638e-21)
(1.0187 -0.00058441 0)
(1.02819 -0.0147852 1.59727e-21)
(0.448617 -0.00765523 7.43196e-23)
(1.00969 -0.00162395 1.79124e-22)
(0.857392 -0.0510075 0)
(1.03621 -0.00403455 0)
(1.07027 -0.0644709 -1.48898e-20)
(-0.0728292 0.0869963 3.59834e-20)
(1.0296 -0.0323027 -1.35202e-21)
(0.856291 -0.0498644 0)
(1.00705 -0.000474899 -9.19261e-23)
(0.898559 0.159019 1.36369e-21)
(0.0340036 0.0814904 0)
(1.08329 -0.0889699 -1.32733e-20)
(0.848096 0.0736651 2.43292e-22)
(1.00941 -0.000618343 1.2641e-22)
(1.00221 2.71266e-05 -1.78756e-22)
(1.06842 -0.0633248 1.05485e-20)
(1.03184 -0.0334189 -2.03598e-21)
(0.591383 -0.0290969 0)
(1.07188 -0.0527562 -3.3516e-21)
(1.00101 -2.14805e-05 -1.02331e-23)
(0.443558 -0.00752539 0)
(1.0068 -0.000588605 -8.01447e-23)
(1.00161 2.6214e-05 -1.82593e-22)
(0.239365 -0.00120074 0)
(1.00354 4.84866e-05 0)
(1.03078 -0.00284624 6.60102e-21)
(0.717126 0.0775059 5.74342e-21)
(1.03144 -0.0337619 0)
(0.362467 -0.170566 1.25969e-20)
(1.00992 -0.000577429 0)
(0.542989 0.00636018 -1.02781e-20)
(0.971126 -0.0687415 -1.64236e-21)
(1.01024 -0.00125403 1.18026e-22)
(1.00607 -0.00038278 -4.70333e-24)
(0.959609 -0.0592033 6.41607e-22)
(1.02157 -0.0107942 6.77166e-22)
(1.00862 -0.00168118 2.68402e-22)
(1.00689 -0.000494525 -1.5368e-22)
(0.821588 -0.191081 6.12991e-22)
(1.01382 -0.00365166 -1.15178e-21)
(1.00514 -0.059129 3.13223e-21)
(1.01161 -9.5882e-05 0)
(1.017 -0.000608367 -1.01299e-21)
(0.332585 -0.00531875 7.97694e-21)
(0.853926 0.174824 2.09897e-21)
(1.00867 -0.00169321 -2.33932e-22)
(1.04303 -0.0636772 1.24987e-20)
(-0.142173 0.143878 7.82616e-21)
(0.395349 -0.0035584 1.95973e-23)
(1.02313 -0.0110949 8.00692e-22)
(1.0146 -0.00426216 1.77227e-21)
(0.000473897 0.0514726 -1.50617e-20)
(1.07041 -0.0240711 0)
(0.899147 0.166314 1.2054e-21)
(1.00616 0.000263466 6.89129e-23)
(1.02423 -0.0154605 -1.81148e-21)
(1.00604 -0.000382721 -3.4883e-23)
(1.01503 0.000944287 -4.35289e-23)
(1.02233 -0.0111449 1.42519e-21)
(1.01508 -0.00143655 0)
(1.03916 -0.0310119 3.42999e-21)
(1.01223 0.00237225 -1.30019e-23)
(1.00853 -0.00136011 -5.81609e-23)
(1.00505 2.77257e-05 -1.82521e-22)
(1.05616 -0.0602093 0)
(1.0307 -0.0598284 0)
(0.439482 -0.0216558 1.31506e-21)
(1.05117 -0.072501 -1.95191e-23)
(-0.074461 0.0936269 -1.57529e-20)
(-0.0195049 0.0869683 9.03482e-22)
(0.307824 0.00272433 -3.99193e-22)
(1.01481 -0.00439903 -1.09582e-21)
(0.86578 0.0763254 0)
(1.00385 0.0206373 -1.14027e-22)
(0.910442 -0.0576921 0)
(1.03007 -0.00315171 -2.99557e-21)
(0.649479 -0.185948 -6.07969e-22)
(1.03608 -0.00442778 0)
(1.00974 -0.00175037 -1.6034e-22)
(1.00676 0.000423121 0)
(0.947241 -0.058665 -1.54764e-20)
(1.0155 -0.000324372 0)
(1.00861 0.000456254 0)
(1.06726 -0.0349896 7.41643e-21)
(1.06038 -0.0585253 -1.86041e-22)
(1.00317 -0.0629723 5.41194e-22)
(1.09076 -0.054669 -5.66222e-21)
(0.428102 0.168563 1.29235e-20)
(0.606463 -0.0299225 0)
(1.01911 -0.0131435 0)
(-0.0119407 0.107654 2.13648e-20)
(0.190936 0.021064 8.50443e-22)
(0.444408 0.157143 -1.73928e-20)
(1.0056 -1.04046e-05 1.7943e-22)
(1.04039 -0.00738625 -8.12517e-21)
(0.985592 0.0379646 6.41604e-21)
(1.00721 -0.000501359 1.36324e-22)
(0.838879 0.147847 1.24864e-21)
(1.07982 -0.055597 0)
(1.0018 -4.26463e-05 0)
(1.0366 -0.0252751 -1.0848e-21)
(1.01111 -0.0362857 8.59028e-22)
(1.05578 -0.0247292 2.14952e-21)
(1.03609 -0.0295632 1.46365e-21)
(1.00814 -0.0013044 -1.0648e-23)
(1.01207 -0.0026101 0)
(1.0184 -0.0116365 -7.26287e-22)
(1.01785 -0.00090934 -1.16615e-21)
(1.0057 -3.74304e-05 0)
(1.00322 3.5311e-05 -2.67463e-23)
(1.01124 -0.00373706 0)
(0.860334 0.0547972 -2.25847e-21)
(1.0294 -0.00351896 -2.75733e-21)
(0.297142 0.00443626 0)
(1.02388 -0.0152882 -1.54525e-21)
(1.03664 -0.0300104 -1.65304e-21)
(1.00164 0.0175334 -1.30504e-22)
(1.01187 -0.00122373 3.07401e-22)
(1.01273 -0.000296421 0)
(0.886183 -0.0629222 1.41007e-21)
(1.03857 -0.0330249 1.06717e-21)
(1.01841 -0.000659658 -1.17532e-21)
(1.00989 -0.00200439 0)
(1.01361 -0.000789201 0)
(1.01586 0.000783304 1.24204e-24)
(1.09144 -0.0716243 -4.14821e-21)
(1.01799 -0.0066087 5.06819e-22)
(1.02713 -0.00129429 3.95021e-22)
(1.02686 0.00254671 -4.3748e-22)
(1.00808 -0.00129396 -4.00995e-22)
(-0.057431 0.0477078 -4.43324e-20)
(0.779471 -0.0851711 6.7426e-21)
(0.424254 0.00685034 0)
(1.01283 -0.00500375 1.48749e-23)
(0.0114714 0.0998867 5.98017e-21)
(0.884695 -0.133235 0)
(1.03081 -0.0311973 1.7652e-21)
(1.00158 4.48566e-07 0)
(1.04308 0.0207779 -1.25345e-21)
(1.01295 -0.00511745 -1.45325e-23)
(0.611814 -0.0267431 0)
(1.01527 -0.0130363 0)
(1.04507 -0.0351569 1.7586e-21)
(1.06819 -0.034851 -1.58396e-20)
(1.0289 -0.00351292 2.65571e-21)
(1.03755 -0.00883237 -2.5591e-21)
(1.01729 -0.00357102 2.2167e-21)
(1.08405 -0.0537594 7.17021e-21)
(0.894895 -0.0496897 -9.44067e-21)
(0.778241 -0.0660347 0)
(1.02055 -0.00271234 0)
(1.00675 0.000421744 -2.27533e-23)
(1.01215 -0.00300438 2.44792e-22)
(0.606907 -0.0411098 0)
(0.366816 0.00516831 2.10807e-20)
(1.03364 -0.00530242 -4.36691e-23)
(0.17414 -0.0540719 -2.22828e-20)
(1.00826 -0.00112393 0)
(0.798963 -0.0715528 0)
(1.07987 -0.0559397 8.16975e-21)
(1.09026 -0.00488922 -2.78995e-21)
(1.04873 -0.0151978 -4.73619e-21)
(0.978927 -0.0416221 0)
(-0.0239272 0.0944259 0)
(1.0024 2.00867e-05 -1.34105e-22)
(1.0801 -0.0487336 -2.89145e-22)
(0.230235 0.140624 0)
(1.00624 0.000284898 0)
(1.0835 -0.0537723 1.64538e-20)
(0.306665 0.00531451 0)
(1.01173 -0.00127472 1.70596e-22)
(1.04635 -0.0233475 -4.47005e-21)
(0.589331 -0.0137792 4.18912e-21)
(1.08467 -0.0615502 5.49643e-21)
(1.02549 -0.0167893 -1.80052e-21)
(1.00637 -0.000131603 -4.05299e-22)
(0.108865 -0.111097 1.49827e-21)
(0.448194 -0.173177 3.96627e-21)
(1.01075 -0.10577 0)
(1.0757 -0.0553369 -1.21862e-20)
(1.05902 -0.0213545 1.11855e-20)
(1.01003 -0.00236823 -6.42896e-22)
(0.880516 0.0499853 -1.62491e-21)
(1.00999 -0.00237103 -4.5018e-23)
(1.00925 -0.000657732 -7.1845e-22)
(1.01167 -0.00125492 1.40292e-24)
(1.00591 -8.43012e-05 -2.37552e-23)
(1.01109 -0.00164049 -6.52429e-23)
(1.01759 -0.0113053 -9.54888e-23)
(0.812792 0.0552105 1.65753e-21)
(1.01299 -0.000807375 0)
(1.01479 -0.0436902 1.86689e-22)
(1.02223 -0.00578469 3.0914e-21)
(0.723745 -0.0411465 0)
(1.01154 -0.00118616 4.75821e-22)
(0.329961 -0.00873003 3.8355e-21)
(1.00263 3.49987e-05 1.66539e-22)
(0.791905 -0.0521171 0)
(1.02206 -0.0107754 -6.93525e-22)
(0.501934 -0.019951 5.97936e-21)
(1.06856 -0.0225264 -5.38423e-21)
(0.608304 -0.0207329 -1.01996e-20)
(1.074 -0.0602807 -6.22537e-21)
(0.253308 0.00272976 0)
(1.06025 -0.101461 -1.15091e-20)
(1.02333 -0.000787844 -1.39369e-23)
(1.0897 -0.0913152 1.29937e-20)
(0.537239 0.00874781 1.48621e-20)
(1.02445 -0.00250045 -2.22752e-21)
(0.117483 -0.119284 2.53179e-21)
(1.00598 -0.000108889 -4.8771e-23)
(1.04958 -0.0150769 9.28289e-21)
(1.02212 0.0245358 -2.45743e-21)
(1.03134 -0.00632825 0)
(1.01876 -0.00732643 1.19351e-21)
(1.04991 -0.0349342 -3.59391e-21)
(1.01879 -0.000704696 0)
(0.64648 0.09641 0)
(1.00639 0.000305974 -1.61736e-22)
(1.00143 3.0265e-05 -3.48576e-24)
(1.06761 -0.0208153 0)
(1.04481 -0.0604471 0)
(1.01209 -0.00294603 1.14685e-22)
(1.03091 -0.0313202 -1.81327e-21)
(1.04697 -0.0239049 2.34978e-21)
(0.767865 -0.0438677 0)
(0.504947 -0.0117316 0)
(1.00533 5.4602e-06 0)
(1.01312 -0.00339799 0)
(0.625294 -0.198188 1.23179e-22)
(1.08 -0.0618472 8.20594e-21)
(1.01118 -0.00169366 0)
(1.06729 -0.0238896 -1.15644e-20)
(1.0221 -0.00617091 2.87912e-21)
(0.478982 -0.16675 -1.41428e-20)
(0.235595 0.000529561 0)
(1.0391 -0.0302685 -3.39127e-21)
(1.02527 -0.0123465 3.7291e-21)
(1.00625 -0.000121679 -1.18399e-22)
(1.01754 -0.0111692 -3.4885e-22)
(-0.0822173 0.046803 1.4452e-21)
(1.01815 -0.00575607 -1.80375e-21)
(1.02059 -8.56614e-05 -2.09565e-23)
(1.01574 -0.0290913 0)
(1.00371 8.68453e-05 0)
(1.01482 -0.00116098 -1.6458e-22)
(0.45422 -0.00593729 -8.35108e-21)
(0.13326 0.142628 -9.24606e-21)
(1.01281 -0.00361736 5.43936e-22)
(1.03356 -0.00559646 -3.57675e-21)
(0.918935 -0.0591092 -6.07134e-21)
(0.419319 0.00688198 -1.56421e-20)
(0.893592 0.149467 1.35064e-21)
(1.07783 -0.0582142 5.48354e-21)
(1.018 -0.00675632 -1.38735e-21)
(0.592395 -0.0236925 2.56972e-22)
(1.03234 -0.0403869 -9.61222e-23)
(0.193035 -0.0838427 0)
(1.01152 -0.00393351 2.42739e-22)
(1.0818 -0.0401082 0)
(1.03044 -0.0439693 0)
(1.01606 -0.0134539 2.06943e-22)
(1.01437 -0.00526044 2.94694e-22)
(-0.0159044 0.0699873 -1.46723e-20)
(0.427475 0.00814324 1.26498e-20)
(1.0126 -0.00428934 1.51286e-22)
(1.01521 -0.00128108 0)
(1.05524 -0.0386706 1.85696e-21)
(1.08046 -0.0410859 -5.28278e-21)
(1.01381 0.00111904 0)
(1.01794 -0.00576906 6.25747e-22)
(1.07333 0.0176144 -5.06981e-22)
(1.0201 -0.0194958 0)
(1.07934 -0.0555576 0)
(0.51518 0.00189348 -1.06478e-20)
(1.0251 -0.0166667 -1.73462e-21)
(0.948168 -0.062779 5.7523e-21)
(0.635556 -0.205248 9.79199e-23)
(-0.0358011 -0.0120777 0)
(1.06473 -0.0941528 -3.40139e-21)
(1.0639 -0.103053 2.33938e-21)
(1.01216 -0.00258094 0)
(1.03081 -0.00624562 0)
(1.01687 0.000746133 -5.52569e-22)
(0.353508 0.00488207 -1.28473e-20)
(0.845067 -0.0463854 -3.54898e-21)
(1.00563 -1.86602e-05 8.67182e-23)
(0.26089 0.151306 -5.14397e-21)
(1.00225 7.97978e-05 1.62975e-22)
(1.04395 -0.00798069 -2.31447e-21)
(1.00317 -0.103837 3.13831e-22)
(1.00797 0.000449624 0)
(1.07913 -0.0621444 -1.37325e-21)
(1.00562 -3.0616e-05 1.17952e-22)
(-0.0181678 0.0770399 -9.62304e-23)
(1.02149 -0.00251958 4.22307e-22)
(1.009 -0.00143665 0)
(1.01133 -0.00117009 -7.26295e-23)
(0.378674 -0.00530069 -7.50413e-21)
(-0.0203185 -0.0648669 -1.67573e-20)
(1.02486 -0.000190741 -2.34518e-22)
(-0.0356261 -0.0454187 1.50645e-20)
(0.150965 0.133057 0)
(0.477446 -0.00218138 0)
(1.07514 -0.0551159 -8.72307e-21)
(1.0479 -0.0255303 5.60476e-21)
(1.00779 0.00043724 0)
(1.02294 -0.00272479 -1.1918e-21)
(1.01288 0.000523512 0)
(0.944854 -0.0681438 0)
(-0.0136195 -0.0741153 0)
(1.01331 -0.00358376 -1.12137e-21)
(1.01477 -0.00238724 0)
(1.03658 -0.0160116 -2.47621e-23)
(0.18631 -0.154861 1.15961e-21)
(0.553468 -0.0915143 -4.49914e-22)
(0.44486 -0.00482192 7.88043e-21)
(1.02225 -0.00646238 -7.06974e-22)
(1.06333 -0.0552924 9.9784e-21)
(1.03581 -0.0267311 2.58072e-21)
(1.00278 7.21651e-05 0)
(1.01392 -0.000869892 0)
(0.63055 -0.210243 -5.28108e-23)
(0.443016 -0.0177542 1.3265e-21)
(0.586696 -0.0328667 0)
(1.0402 -0.0326525 4.73798e-21)
(1.08185 -0.0528379 5.13268e-21)
(0.547844 -0.0313776 9.05156e-21)
(1.031 -0.0401737 2.00986e-23)
(-0.0231683 -0.0483891 0)
(1.00826 -0.000858669 0)
(1.00602 -0.000164509 3.41435e-24)
(1.01663 -0.0258591 -1.5937e-23)
(1.01194 -0.00019015 0)
(1.08027 -0.041686 -5.6297e-23)
(0.00240509 0.105152 1.43437e-20)
(1.06652 -0.0532844 -5.66767e-21)
(1.03719 -0.0151122 5.63708e-21)
(1.06212 -0.0538645 9.91722e-21)
(1.08426 -0.0610701 0)
(1.00146 5.58085e-06 -7.93443e-23)
(1.00819 -0.000832664 0)
(1.01005 -0.00230814 5.74217e-22)
(0.894539 0.158759 -7.07339e-21)
(1.00083 -8.4891e-06 0)
(0.221682 0.148555 -5.5567e-22)
(1.01194 0.00113164 0)
(0.59465 -0.030968 0)
(1.07724 -0.0583327 5.14344e-21)
(1.01291 -0.0049349 0)
(1.01252 -0.00463487 3.54523e-22)
(0.745433 -0.0441192 0)
(1.03236 -0.0247178 4.41203e-22)
(1.05452 -0.0604272 0)
(1.01962 -0.00052503 -1.48889e-21)
(1.01244 -0.00014349 0)
(1.00592 0.0103033 -2.72956e-22)
(1.02138 -0.00118139 6.57525e-23)
(0.218705 0.0574071 1.36249e-20)
(1.01161 -0.000230525 -2.75039e-22)
(1.02267 -0.00266316 4.80186e-22)
(1.037 -0.00898998 -1.28165e-21)
(1.00627 0.0133364 5.32615e-22)
(1.00152 2.6361e-05 -7.99218e-23)
(0.136298 -0.161712 3.98413e-21)
(1.00232 4.02763e-05 1.32932e-22)
(1.01157 -0.000163316 -4.04467e-22)
(1.01577 -0.00802516 -4.02757e-22)
(0.419927 0.00721663 -1.40722e-20)
(0.913344 -0.0815039 0)
(0.899858 -0.0658551 0)
(1.05221 -0.0242828 2.09667e-21)
(0.392869 0.0582776 5.9911e-21)
(1.05955 -0.0240823 0)