/*--------------------------------*- C++ -*----------------------------------*\
| =========                 |                                                 |
| \\      /  F ield         | OpenFOAM: The Open Source CFD Toolbox           |
|  \\    /   O peration     | Version:  v2012                                 |
|   \\  /    A nd           | Website:  www.openfoam.com                      |
|    \\/     M anipulation  |                                                 |
\*---------------------------------------------------------------------------*/
FoamFile
{
    version     2.0;
    format      ascii;
    class       volVectorField;
    location    "300";
    object      U_0;
}
// * * * * * * * * * * * * * * * * * * * * * * * * * * * * * * * * * * * * * //

dimensions      [0 1 -1 0 0 0 0];


internalField   nonuniform List<vector> 
27915
(
(1.0317 -0.0257252 -4.80276e-21)
(1.06897 -0.0645211 1.63988e-20)
(0.485977 -0.0171488 0)
(1.00985 -0.00230414 3.57975e-23)
(1.01336 -0.00557327 7.20876e-24)
(1.03973 -0.0319633 -4.35765e-21)
(1.0095 0.000467266 -1.75071e-22)
(0.513032 -0.0131717 5.01595e-21)
(1.01294 -0.00485497 0)
(0.524693 -0.03936 8.92907e-21)
(1.03897 -0.0442728 -2.64769e-21)
(0.497086 -0.0504294 0)
(1.04765 0.00241554 -1.0945e-21)
(1.00952 0.000477194 1.3881e-22)
(1.01535 0.000814938 4.52973e-23)
(1.01056 -0.00252285 6.81101e-22)
(0.933936 -0.0833613 -4.31007e-21)
(1.0246 -0.0118921 5.22239e-22)
(1.07997 -0.0558029 0)
(0.510462 -0.0135687 1.59479e-21)
(1.01951 0.053057 -1.30816e-21)
(1.0276 -0.0189229 0)
(0.609888 0.160036 2.38486e-21)
(1.02279 -0.0110015 -3.66086e-21)
(1.0106 -0.00246718 -6.17667e-22)
(1.00723 -0.00097999 -3.92074e-23)
(0.782931 -0.14639 -3.38456e-21)
(1.01327 -0.0054443 2.5436e-23)
(0.403068 -0.00438162 0)
(1.05019 -0.0242799 3.05586e-24)
(1.02321 -0.00735711 0)
(1.03114 -0.0346887 0)
(1.00794 -0.000553481 -9.52271e-23)
(1.00674 -0.00055754 -6.32312e-23)
(0.701775 -0.0348976 7.74712e-23)
(1.00672 -0.000562738 0)
(1.00266 -7.17122e-05 1.93021e-23)
(1.00719 -0.000967539 4.2047e-23)
(1.03603 -0.0464324 -2.31875e-22)
(1.01584 -0.00825833 3.62939e-22)
(1.01738 -0.0132887 3.57476e-24)
(1.00261 -6.35066e-05 1.49872e-25)
(1.08972 -0.0542412 0)
(1.01293 -0.00335682 9.86229e-22)
(0.53186 0.0141943 -8.63875e-23)
(1.01594 -0.0084416 1.60405e-22)
(1.01706 -0.00558781 8.95813e-22)
(1.02142 -0.0354821 2.32209e-23)
(1.00668 -0.000413557 1.71217e-22)
(1.0118 -0.00132775 -3.73685e-22)
(0.5232 -0.0159619 0)
(0.997449 -0.0604433 5.65158e-22)
(-0.104753 0.145538 -3.57453e-20)
(1.0471 -0.0254853 0)
(1.0568 -0.0236377 -3.26226e-21)
(1.017 -0.00539527 0)
(1.01967 -0.000700236 0)
(1.04697 -0.0306959 -1.18064e-21)
(1.04731 -0.0437924 1.19125e-21)
(1.02312 -0.00707254 -1.5987e-21)
(0.944611 -0.0150069 0)
(1.02899 -0.0291561 -1.90157e-21)
(0.546275 0.0012292 7.83356e-22)
(0.170012 0.00196568 0)
(1.01762 -0.000799835 2.71854e-21)
(1.03845 -0.0466719 9.44097e-23)
(0.525747 -0.0370572 2.1619e-21)
(0.521188 -0.0165022 1.203e-20)
(0.697737 -0.0327969 8.60324e-21)
(1.01873 -0.000747349 0)
(1.01737 -0.0121555 1.3266e-22)
(1.02272 -0.0112865 2.3212e-21)
(1.02493 -0.0119052 -1.37207e-21)
(0.906876 0.167326 0)
(0.486639 -0.0354552 0)
(1.01661 -0.0211942 -2.32216e-22)
(1.04934 -0.0240724 -2.67122e-21)
(1.00679 -0.000176895 -2.41153e-22)
(-0.0187521 -0.0639524 8.39968e-21)
(1.02964 0.0181851 -1.90357e-22)
(1.03988 -0.0314695 -3.73627e-21)
(1.01562 -0.00856212 -1.80382e-22)
(1.05137 -0.0361567 0)
(0.512219 -0.00933997 1.31526e-20)
(0.405718 -0.172689 0)
(1.01964 0.0144129 0)
(1.00628 -0.000443276 0)
(1.08869 -0.0540493 9.34284e-21)
(0.205417 0.044565 3.58415e-22)
(1.02782 0.0141176 -3.98419e-22)
(1.01825 -0.0113381 6.7416e-22)
(0.914598 0.160788 4.0848e-22)
(1.0116 -0.00133314 6.26819e-23)
(0.60971 -0.15817 -4.53116e-21)
(0.42085 -0.00480834 4.67215e-21)
(0.498927 -0.0189354 0)
(0.972882 -0.0621452 1.71272e-21)
(0.548335 -0.0392174 -3.72276e-21)
(1.02861 -0.0289345 8.15393e-22)
(1.00635 0.000302765 8.16352e-23)
(1.06945 -0.0244751 0)
(1.00704 -0.000894441 -2.83013e-24)
(0.543316 -0.0372149 -2.17984e-21)
(1.0146 -0.00477339 -5.24344e-22)
(1.01558 -0.0135357 0)
(1.01549 -0.00846633 -9.91423e-23)
(0.681983 -0.134416 -1.21788e-20)
(1.00597 -0.0333755 1.89045e-21)
(1.007 -0.000876138 -4.53884e-24)
(0.528118 -0.028995 -4.08119e-21)
(0.864075 -0.0874744 1.025e-20)
(1.01754 -0.0136445 -4.65687e-23)
(0.990706 0.00934307 -3.96692e-24)
(1.03608 -0.0704094 1.18256e-22)
(1.00901 -0.0325616 4.4914e-22)
(0.996389 -0.0565702 -4.32486e-22)
(0.318106 -0.151595 0)
(1.03159 -0.0344801 0)
(1.01436 -0.00469126 2.69998e-22)
(1.00669 -0.000405482 3.74257e-22)
(1.0182 -0.0111767 5.75619e-22)
(0.994506 0.00861812 -5.09633e-22)
(1.0081 -0.000583846 0)
(1.0271 -0.0187932 -1.86674e-21)
(1.00142 3.41698e-05 0)
(0.68504 -0.0619862 3.46847e-21)
(0.997914 -0.0790776 -1.35809e-21)
(0.336756 0.00344866 0)
(1.02154 -0.00901718 0)
(1.01181 -0.00277516 -9.28332e-23)
(1.02781 -0.0291225 0)
(0.821269 -0.144967 8.96821e-23)
(0.60041 -0.160199 0)
(1.08857 -0.054559 0)
(0.282944 -0.0695469 1.13414e-21)
(1.03952 -0.0306858 7.32485e-23)
(0.664148 0.0833527 -3.07738e-22)
(1.00574 -0.000255743 1.25076e-22)
(1.01189 -0.00265507 -1.35796e-22)
(1.01793 -0.0107106 -3.01827e-22)
(1.00783 -6.204e-05 0)
(1.05784 -0.0234133 3.79488e-21)
(1.00341 -0.000136504 1.85671e-22)
(1.0577 -0.0607459 0)
(0.78478 -0.0805836 0)
(0.530993 -0.0176394 -6.83324e-21)
(0.34677 -0.00538893 1.37638e-20)
(1.02136 -0.0343305 -3.45256e-23)
(1.02071 -0.0224699 0)
(1.05233 -0.0364616 -4.41616e-21)
(0.350191 -0.152295 0)
(1.00574 -0.000251345 -1.27138e-22)
(1.02687 -0.115962 2.61714e-21)
(0.0316544 0.0995592 0)
(0.976635 -0.0927954 0)
(0.609957 -0.0194393 0)
(0.95855 -0.0575255 -7.45813e-22)
(1.00267 7.539e-05 1.01182e-23)
(1.00173 4.0552e-05 0)
(1.01688 -0.00066171 -1.90259e-22)
(1.06367 -0.105779 1.03244e-20)
(0.479281 0.0194454 -1.37276e-20)
(1.01083 -0.00116526 2.27822e-22)
(1.03406 0.004463 7.49974e-23)
(0.901603 0.174399 -3.60528e-23)
(1.02741 -0.00149687 0)
(1.02147 -0.115774 -2.13597e-22)
(0.534 0.180211 2.97708e-24)
(0.504517 -0.0380137 -4.58421e-21)
(1.00128 -5.83321e-05 -3.95097e-23)
(1.02245 -0.00831064 1.18722e-21)
(1.02569 -0.0123757 -4.05309e-21)
(1.00142 3.7412e-05 0)
(1.02255 -0.0361439 0)
(1.00887 0.000445422 8.39901e-23)
(0.424538 -5.49235e-05 1.68053e-20)
(0.524756 -0.027982 -2.58213e-21)
(1.01406 -0.0043032 1.56958e-23)
(1.00279 4.56943e-05 -2.69597e-22)
(0.437789 0.0105758 0)
(0.199093 0.0573723 2.90462e-23)
(1.01871 0.01252 3.13069e-22)
(1.00416 -0.000296302 0)
(0.544512 -0.0196179 0)
(1.04019 -0.0321612 0)
(1.06187 -0.0423654 2.04801e-22)
(1.00272 2.7849e-05 0)
(1.00245 5.2301e-05 0)
(0.452526 -0.00824505 3.39763e-21)
(1.00628 -0.000439706 -1.92477e-22)
(0.878642 -0.0508138 0)
(1.03165 -0.0435409 -9.01956e-22)
(1.06572 -0.118427 3.85224e-21)
(1.01389 -0.00418481 -2.81066e-22)
(1.00916 0.000819069 9.79559e-24)
(1.00929 -0.00066458 5.7148e-22)
(1.0587 -0.0488936 -4.17118e-22)
(1.0376 0.00370635 -1.47094e-23)
(1.00152 -3.54891e-05 -1.07326e-22)
(1.04689 -0.0341667 0)
(-0.0984414 0.146778 2.78331e-20)
(0.38973 -0.14402 -3.74253e-21)
(1.00299 5.5196e-05 0)
(1.00149 6.38203e-07 -1.69607e-22)
(0.435801 -0.00175685 1.51569e-22)
(0.354779 -0.00619485 -9.98914e-21)
(1.04295 -0.0749442 -6.26145e-21)
(1.00374 0.0027189 5.10623e-22)
(0.322694 0.162686 0)
(1.01306 -0.00494993 0)
(1.04938 -0.0356559 1.71827e-21)
(0.383936 0.0310343 3.55107e-21)
(1.00172 -1.15442e-05 0)
(1.01946 -0.000214513 -2.80987e-21)
(1.00126 6.08756e-06 -4.55651e-23)
(1.0154 -0.000324321 -1.431e-23)
(1.0052 0.00348198 -5.12222e-22)
(0.974809 -0.0879036 -1.42432e-21)
(1.01189 -0.00276628 5.47061e-23)
(1.01533 -0.00822279 0)
(1.02168 -0.010596 6.64161e-22)
(1.01957 -0.000175907 5.03517e-23)
(1.0566 -0.0245481 1.82022e-21)
(1.00194 9.74248e-06 0)
(0.428869 0.00715013 0)
(1.02744 -0.0703563 0)
(1.01348 -0.00361682 0)
(0.89608 -0.0565531 -3.64217e-21)
(1.01207 -0.00273905 -1.48533e-22)
(1.00815 -0.000379381 -1.44711e-22)
(0.313684 -0.002307 -4.35261e-21)
(1.01491 -0.0091109 -3.93245e-22)
(0.403823 0.0422283 -4.17223e-21)
(0.553716 0.183701 0)
(1.01569 0.0676528 1.33275e-21)
(1.0128 0.00231576 -4.08942e-22)
(0.386353 0.0933029 -4.15837e-21)
(1.01472 -0.000389215 0)
(1.00291 -0.000125182 0)
(1.01025 -0.00116158 0)
(0.897967 -0.0265075 -3.88476e-21)
(1.0189 -0.0145945 0)
(1.01522 -0.011294 1.45615e-22)
(0.426244 -0.142484 8.61118e-21)
(1.02126 -0.00879755 -2.49018e-21)
(1.00288 5.65167e-05 0)
(0.0314405 0.0971296 0)
(0.201465 0.000473046 2.57453e-20)
(1.01548 -0.0117306 2.75527e-22)
(1.06196 -0.121949 0)
(1.05997 -0.0210634 -1.44539e-20)
(0.613985 -0.0248307 0)
(1.01034 0.000951537 0)
(1.02356 -0.0075589 0)
(1.01522 -0.00812996 0)
(0.968298 -0.0563019 0)
(1.03211 -0.0255343 5.02076e-21)
(1.01241 -0.00314994 -1.69707e-23)
(1.04204 -0.0504863 7.32792e-21)
(0.690643 -0.135396 1.61877e-20)
(0.428956 -0.0199762 0)
(1.07281 -0.0642155 8.4795e-21)
(1.03436 0.0110272 3.63646e-22)
(1.0464 0.0148963 2.24959e-21)
(1.03243 0.0146128 -1.66517e-23)
(1.08425 -0.0615173 0)
(1.00894 -0.00177777 -9.86925e-23)
(0.866458 -0.0494966 9.94582e-21)
(0.620446 -0.0261982 0)
(0.830998 -0.101816 0)
(1.01728 -0.000776829 3.87755e-22)
(0.437597 0.00893508 0)
(0.51009 0.0307647 -1.25104e-20)
(0.271765 0.00633368 -2.16476e-20)
(1.01565 -0.0122993 -4.2886e-22)
(1.00901 -0.00179095 0)
(1.01529 -0.00515089 -2.36612e-22)
(1.01906 -0.014474 4.58983e-22)
(1.00845 -0.00131023 0)
(1.02684 -0.0181803 2.97611e-21)
(1.0118 -0.00267197 0)
(1.00647 0.000316486 0)
(1.00666 -0.000166767 1.86097e-22)
(1.01347 -0.00807247 -2.82841e-22)
(0.983897 0.0885458 0)
(0.534174 -0.0275637 -1.14686e-20)
(0.0700811 0.0613468 -1.70275e-20)
(1.01781 -0.088332 -1.12432e-20)
(1.04903 -0.0249031 2.66315e-21)
(0.796647 -0.0465505 0)
(1.05936 -0.0488882 0)
(1.02374 -0.0115141 -5.33919e-22)
(0.497452 0.0321059 1.43916e-20)
(1.0118 -0.000788651 0)
(1.015 -0.00519488 -7.25265e-23)
(1.07211 -0.0633616 0)
(0.958734 0.104844 -1.07703e-21)
(0.676617 0.0889319 2.05012e-22)
(1.02005 -0.0337025 3.26668e-23)
(1.01914 -0.000233662 1.63769e-21)
(1.03293 0.0232258 1.8708e-21)
(1.00693 0.00144547 1.57329e-23)
(1.01121 -0.0018988 2.41578e-22)
(1.00072 2.56316e-05 7.47611e-23)
(1.00354 0.0483485 5.17883e-22)
(-0.0974382 0.0430974 -2.03776e-20)
(1.04637 -0.0347631 0)
(1.00277 4.66491e-05 0)
(-0.0245696 -0.0607113 2.61599e-20)
(1.01801 -2.92603e-05 -4.70029e-24)
(0.963601 -0.0733353 -4.86481e-21)
(1.03478 -0.00522831 1.88369e-21)
(0.691538 -0.0418905 1.22847e-20)
(1.01236 -0.00309839 -2.43358e-22)
(0.924969 -0.0371182 7.26609e-21)
(1.00139 1.37451e-06 -1.9633e-22)
(1.00608 0.00024266 4.05136e-23)
(0.527066 -0.0112597 0)
(0.329965 0.00524118 0)
(0.332403 -0.00567784 0)
(1.01037 -0.0072241 -1.67714e-22)
(1.00792 0.000624649 0)
(1.00925 -0.00195691 7.10222e-22)
(1.02117 -0.0108823 0)
(1.03099 0.00695863 -1.7048e-21)
(1.00792 0.00223051 0)
(1.09157 -0.0551271 0)
(0.414155 -0.00545504 4.28771e-21)
(1.01903 -0.00742683 -2.46845e-21)
(1.00977 -0.000603444 -3.13672e-23)
(1.01436 -0.00387109 -6.56181e-22)
(1.01152 -0.00877236 3.00059e-22)
(1.02173 -0.0113838 0)
(1.01133 -0.00186079 -3.03594e-22)
(0.557375 -0.0830557 2.21909e-21)
(1.00845 0.00046221 0)
(0.981416 -0.0764902 0)
(1.00875 -0.00126227 0)
(0.413135 0.0837074 1.43141e-21)
(0.316707 0.000162607 2.16139e-20)
(1.04826 -0.0247932 -4.85794e-21)
(0.0365497 0.0736026 0)
(0.316608 0.00386386 8.01295e-22)
(-0.141266 0.148549 -5.6375e-21)
(1.00826 0.000450733 0)
(1.01283 -0.000478048 0)
(1.03418 -0.00512807 1.70775e-21)
(0.978113 -0.062897 6.71532e-21)
(0.539717 -0.0289801 8.87732e-21)
(1.0234 -0.0114863 4.27834e-22)
(1.02087 -0.010722 7.38076e-22)
(1.01033 -0.00119666 0)
(0.680985 -0.0787268 -1.99734e-21)
(1.02762 0.00690091 2.18787e-22)
(1.05139 -0.0491843 0)
(1.09966 -0.0695158 1.52718e-20)
(1.02672 0.00449173 1.13433e-22)
(1.01706 -0.00344464 -1.81666e-21)
(1.01047 -0.00109036 -1.70789e-22)
(0.903237 0.174579 1.05889e-21)
(1.06234 -0.0549437 -9.75294e-21)
(1.01729 -0.000375987 -6.26258e-22)
(1.01929 -0.013196 3.73815e-22)
(1.00502 2.67671e-05 -1.80572e-22)
(1.01299 -0.000596663 1.93363e-22)
(0.0036812 0.0613606 1.19949e-20)
(1.01515 -0.00801458 0)
(1.00939 -0.00151592 -2.44449e-24)
(1.02248 -0.00699994 -2.29931e-22)
(1.01021 -0.00260863 -9.81784e-25)
(0.409934 -0.00616744 -4.15022e-21)
(1.00861 0.000444364 1.50114e-22)
(1.06114 -0.0659784 0)
(1.01112 -0.000669547 -6.93713e-23)
(0.597799 -0.0274443 4.39564e-21)
(1.00886 0.000460796 9.28005e-23)
(1.00828 -0.000362546 0)
(1.07776 -0.053687 2.24247e-23)
(1.01645 -0.00568959 1.28147e-21)
(1.01051 0.000976243 1.21569e-23)
(1.03838 -0.0342827 0)
(1.08002 -0.0603715 1.76485e-20)
(1.02678 -0.0304521 6.40048e-22)
(0.64132 -0.211627 8.91832e-24)
(0.968124 -0.0567566 -1.0216e-20)
(1.04336 -0.0506386 -1.94751e-21)
(0.895328 -0.166575 0)
(1.0803 -0.0608485 -1.96121e-20)
(1.01799 -0.0109237 3.20966e-22)
(1.04866 -0.0575293 1.09471e-20)
(1.02956 -0.00316105 5.61291e-21)
(-0.0218465 0.0903709 0)
(0.567193 -0.030435 0)
(1.00944 -0.00219141 3.96613e-22)
(0.546606 -0.0421295 6.7559e-21)
(1.06927 -0.0621885 -1.37517e-20)
(1.01536 -0.00862762 5.56374e-22)
(1.01643 -8.6357e-05 1.56379e-22)
(1.00215 2.45066e-05 1.67606e-22)
(0.165197 0.0338603 0)
(1.0105 -0.00110928 2.69895e-23)
(1.02832 -0.0293287 4.64493e-22)
(0.434461 -0.0040014 -8.88171e-21)
(1.03887 -0.00735561 4.75222e-21)
(0.990834 0.0365078 -3.02616e-21)
(1.0174 -0.00370607 0)
(1.01119 -0.0866577 2.22965e-21)
(1.01957 -0.000696535 -1.26315e-21)
(0.273466 -0.0770312 -2.32268e-22)
(1.0446 -0.0766487 9.80225e-21)
(0.465059 -0.0103785 -3.25896e-21)
(1.01701 -0.00461622 -1.18707e-21)
(1.00948 -0.00218779 -3.05591e-22)
(1.00322 9.06724e-05 -5.50207e-25)
(0.486297 -0.0612491 9.63106e-21)
(1.02184 -0.0111878 1.44707e-23)
(1.01371 -0.0354565 -7.99653e-22)
(1.01601 0.000822924 4.59989e-22)
(1.06871 -0.0613167 -6.35964e-21)
(1.01832 -0.00441466 -1.21932e-22)
(0.976503 -0.0781207 1.22451e-21)
(1.00436 -0.000110985 6.5043e-23)
(1.06712 -0.0250695 1.34681e-20)
(0.859804 -0.0476897 0)
(0.0178842 -0.0316555 3.99047e-20)
(1.01708 0.00174841 -5.80652e-23)
(1.00931 -0.00153873 1.98516e-23)
(-0.0885924 0.0399948 0)
(0.774219 -0.0443358 0)
(1.01391 -0.00156466 1.6564e-22)
(0.846301 -0.0485904 0)
(1.01639 0.00139938 0)
(1.00979 -0.0664736 3.47149e-22)
(1.05093 -0.0333983 -3.41467e-21)
(1.00978 -0.00179432 -1.48904e-22)
(1.01016 -0.00121215 0)
(1.01968 -0.00764442 -1.30576e-21)
(1.01446 -0.000612404 -2.10161e-21)
(1.02636 0.0211078 0)
(1.0784 -0.0574852 -5.98966e-21)
(0.849299 -0.105747 0)
(0.981237 -0.0463589 -1.46077e-21)
(1.01911 -0.0670858 0)
(1.04987 -0.0740387 -2.08571e-21)
(1.00264 2.08434e-05 -1.74175e-22)
(1.0151 -0.00412183 2.67997e-22)
(0.433734 -0.00505198 0)
(1.03806 -0.00728551 2.37927e-21)
(1.09248 -0.0571991 0)
(1.00934 0.000832191 0)
(0.783174 -0.0569238 0)
(0.982272 -0.0589267 -6.12065e-21)
(1.00832 -0.00141986 2.60897e-22)
(1.01352 -0.000495349 -2.86864e-24)
(0.870426 -0.0835913 -1.09644e-20)
(1.01213 0.0526092 7.58041e-22)
(0.708731 -0.048652 -2.5149e-20)
(1.01295 -0.000593413 -3.64862e-22)
(1.06159 -0.0349518 0)
(0.428537 -0.00510791 -1.29652e-22)
(1.00917 -0.00193205 -4.76903e-22)
(1.01344 -0.000158369 -4.46939e-21)
(0.903873 -0.0876502 2.32693e-21)
(1.02073 -0.000233502 -2.47301e-22)
(0.38965 -0.00321764 -8.07195e-21)
(0.923285 -0.0593836 1.19936e-20)
(1.00076 3.8459e-05 -1.29013e-22)
(1.01346 -0.00344283 -1.22572e-21)
(0.955714 -0.0106297 -3.53428e-21)
(1.01543 -0.0513027 1.03174e-23)
(1.01294 -0.00349573 -1.05375e-21)
(1.06845 -0.0236111 0)
(1.00981 0.0198193 0)
(1.01066 -0.00106927 4.17155e-22)
(1.03554 0.00756679 -9.44238e-23)
(1.02181 -0.00893674 -2.07616e-23)
(1.01316 -0.00383715 -1.1033e-21)
(1.01399 -0.00367022 0)
(1.00556 0.00511625 0)
(1.03005 -0.0326527 0)
(0.904564 0.042169 0)
(1.03073 -0.0310879 -5.72635e-22)
(0.0730128 0.0492901 -1.4389e-20)
(1.07219 -0.0753309 -1.4218e-21)
(0.0126728 0.0960289 -5.94634e-21)
(1.02641 -0.018046 -2.99983e-21)
(1.0265 -0.029792 0)
(1.01128 0.0177285 4.14057e-22)
(1.01658 0.0134525 0)
(1.00946 -0.000643326 2.20358e-22)
(0.890798 0.0371026 5.37775e-22)
(1.00939 -0.0520884 2.81195e-22)
(1.08782 -0.0575617 0)
(1.01706 0.000399025 5.83102e-24)
(0.402998 -0.00646689 0)
(1.03973 -0.0436186 7.14987e-21)
(1.02016 -0.0024368 -4.13391e-22)
(0.906073 -0.0853945 0)
(0.872278 -0.0489283 0)
(0.432651 -0.00588181 3.60189e-21)
(1.01418 -0.00386996 0)
(1.01552 0.000657165 1.5235e-22)
(0.428755 -0.007656 3.97547e-21)
(0.61685 -0.203371 1.74938e-23)
(0.0480099 -0.0257688 8.60693e-21)
(0.41344 -0.00508879 1.86065e-21)
(1.00981 -0.00225467 -4.03499e-23)
(1.01792 0.000459826 2.07028e-22)
(0.304834 0.0038406 -1.24228e-21)
(0.668869 -0.17263 0)
(1.01139 -0.00387658 0)
(1.03503 -0.0707983 4.4399e-21)
(1.07791 -0.0575813 -9.81248e-21)
(0.433188 0.00897368 0)
(0.324506 0.00504504 0)
(0.983189 -0.0587329 3.38552e-21)
(0.640955 -0.0223939 -3.98446e-21)
(1.00969 -0.00166153 -8.04704e-23)
(1.06215 -0.0648795 -1.06375e-22)
(1.03891 -0.0348033 2.07415e-21)
(1.00363 -0.000100704 -7.0599e-23)
(1.00826 -0.00140853 1.29865e-22)
(1.01077 -0.0011415 0)
(-0.0184251 0.0967554 9.91004e-21)
(1.00775 0.000601816 0)
(0.916004 0.167259 -1.99437e-22)
(1.04661 -0.0246657 0)
(0.59978 -0.0289886 -3.18136e-22)
(1.04232 0.010795 8.78715e-22)
(0.440954 -0.00673058 0)
(1.00642 0.000308235 -1.21979e-24)
(0.159612 0.060214 -3.55054e-22)
(0.342462 -0.0113213 -1.07213e-20)
(1.01672 -0.0740456 1.12812e-21)
(1.0199 -0.0325251 0)
(1.09464 -0.0742341 3.31728e-21)
(0.515727 -0.0222856 -5.50169e-21)
(1.01216 -0.00271976 2.86302e-22)
(1.06897 -0.0594652 -6.93608e-21)
(1.01949 -0.00745624 1.34546e-21)
(1.02216 -0.00689593 0)
(1.0296 0.0113873 1.02781e-24)
(1.01863 -0.000594827 0)
(1.05136 -0.0132626 1.2796e-21)
(1.01394 -0.00134541 0)
(0.369662 0.0862289 -3.38006e-22)
(1.01058 -0.00107179 -2.38955e-22)
(0.595719 -0.0302283 0)
(1.00881 -0.00139146 0)
(0.887425 -0.174843 3.67891e-21)
(1.02275 -0.00689082 2.25856e-22)
(1.02846 -0.0146673 -1.12985e-21)
(1.02779 -0.0313469 -2.47352e-22)
(0.982596 -0.0601541 3.01911e-21)
(1.00778 0.00630516 0)
(1.02879 -0.00127754 1.75765e-22)
(0.981007 0.0959727 1.22898e-21)
(0.835887 -0.0491251 0)
(1.06161 -0.0524914 2.83148e-22)
(1.01238 -0.00455765 9.50959e-22)
(0.314507 0.00503341 3.49105e-22)
(0.505854 -0.0374428 -9.77416e-21)
(1.07402 -0.0639916 -8.97078e-21)
(1.05302 -0.0359025 5.28399e-21)
(1.0187 -0.000584412 0)
(1.02819 -0.014786 1.59592e-21)
(0.448592 -0.00756481 7.53482e-23)
(1.00969 -0.00162359 1.80748e-22)
(0.857443 -0.0511173 0)
(1.03621 -0.0040352 0)
(1.07025 -0.064511 -1.48869e-20)
(-0.0726859 0.0875524 3.5983e-20)
(1.02959 -0.0323492 -1.34808e-21)
(0.856261 -0.0498475 0)
(1.00705 -0.000474802 -9.25621e-23)
(0.898511 0.158688 1.3673e-21)
(0.0341467 0.0817905 0)
(1.08324 -0.0891656 -1.32719e-20)
(0.848284 0.0744632 2.42638e-22)
(1.00941 -0.00061802 1.27054e-22)
(1.00221 2.71143e-05 -1.7982e-22)
(1.0684 -0.063358 1.05459e-20)
(1.03187 -0.0334224 -2.03357e-21)
(0.591398 -0.0290848 0)
(1.07201 -0.053808 -3.34186e-21)
(1.00101 -2.14813e-05 -1.03955e-23)
(0.443565 -0.0075215 0)
(1.0068 -0.000588708 -8.09056e-23)
(1.00161 2.62098e-05 -1.83501e-22)
(0.239382 -0.00120015 0)
(1.00354 4.85006e-05 0)
(1.03078 -0.00284669 6.59796e-21)
(0.717817 0.077595 5.66596e-21)
(1.03147 -0.0337641 0)
(0.362241 -0.171064 1.2559e-20)
(1.00992 -0.000576975 0)
(0.543157 0.0063609 -1.03048e-20)
(0.970837 -0.0685092 -1.65662e-21)
(1.01024 -0.001254 1.18755e-22)
(1.00607 -0.000382847 -4.74685e-24)
(0.959636 -0.0593384 6.4246e-22)
(1.02157 -0.0107943 6.76306e-22)
(1.00862 -0.00168109 2.6671e-22)
(1.00689 -0.000494523 -1.54833e-22)
(0.822011 -0.191686 6.09369e-22)
(1.01382 -0.00365153 -1.14995e-21)
(1.00513 -0.0590828 3.13354e-21)
(1.01161 -9.58844e-05 0)
(1.017 -0.000608398 -1.01214e-21)
(0.332648 -0.00531573 7.98172e-21)
(0.854324 0.175707 2.08603e-21)
(1.00867 -0.0016931 -2.32427e-22)
(1.04303 -0.063627 1.25016e-20)
(-0.141947 0.143823 7.82599e-21)
(0.395369 -0.00355548 1.95337e-23)
(1.02313 -0.0110953 7.99842e-22)
(1.0146 -0.004262 1.76963e-21)
(0.000614312 0.0516181 -1.50678e-20)
(1.07041 -0.0240736 0)
(0.89909 0.166101 1.20613e-21)
(1.00616 0.000263536 6.92129e-23)
(1.02423 -0.0154608 -1.80889e-21)
(1.00604 -0.000382794 -3.52223e-23)
(1.01503 0.000940172 -4.34582e-23)
(1.02233 -0.0111451 1.42346e-21)
(1.01508 -0.00144401 0)
(1.03916 -0.0310093 3.42728e-21)
(1.01225 0.00239637 -1.29608e-23)
(1.00853 -0.00135983 -5.90174e-23)
(1.00505 2.77598e-05 -1.83663e-22)
(1.05595 -0.0604864 0)
(1.03072 -0.0599387 0)
(0.43954 -0.0216406 1.31586e-21)
(1.0511 -0.0725014 -1.94887e-23)
(-0.0743018 0.0941686 -1.57526e-20)
(-0.0194552 0.0875235 9.03515e-22)
(0.307773 0.00272772 -3.9892e-22)
(1.01481 -0.00439886 -1.09419e-21)
(0.865983 0.0770076 0)
(1.00398 0.0207407 -1.13842e-22)
(0.910185 -0.0571124 0)
(1.03007 -0.00315208 -2.99412e-21)
(0.649887 -0.18548 -6.24428e-22)
(1.03608 -0.00442839 0)
(1.00974 -0.00175007 -1.61988e-22)
(1.00676 0.000423231 0)
(0.947223 -0.0586211 -1.54836e-20)
(1.0155 -0.000324389 0)
(1.00861 0.0004563 0)
(1.06726 -0.0349918 7.41526e-21)
(1.06018 -0.0588362 -1.85829e-22)
(1.00284 -0.0628779 5.49059e-22)
(1.09083 -0.0547074 -5.66752e-21)
(0.427626 0.168273 1.28767e-20)
(0.606477 -0.0299113 0)
(1.01911 -0.0131414 0)
(-0.0117212 0.108091 2.13942e-20)
(0.190858 0.0201108 8.45406e-22)
(0.443945 0.157157 -1.73506e-20)
(1.0056 -1.02594e-05 1.80566e-22)
(1.04039 -0.00738689 -8.12232e-21)
(0.986154 0.0378953 6.35843e-21)
(1.00721 -0.000501269 1.37266e-22)
(0.839365 0.149218 1.24251e-21)
(1.07984 -0.0555912 0)
(1.0018 -4.26306e-05 0)
(1.03652 -0.0258449 -1.09442e-21)
(1.01122 -0.0361765 8.63205e-22)
(1.05578 -0.0247292 2.14893e-21)
(1.03609 -0.0295641 1.46237e-21)
(1.00814 -0.00130438 -1.06431e-23)
(1.01207 -0.00260913 0)
(1.0184 -0.0116356 -7.23903e-22)
(1.01785 -0.000909371 -1.16516e-21)
(1.0057 -3.73019e-05 0)
(1.00322 3.53277e-05 -2.69142e-23)
(1.01124 -0.00373699 0)
(0.861407 0.0566734 -2.25969e-21)
(1.0294 -0.00351925 -2.75594e-21)
(0.297082 0.00443918 0)
(1.02388 -0.0152883 -1.54293e-21)
(1.03665 -0.0300105 -1.6516e-21)
(1.00174 0.0176504 -1.30106e-22)
(1.01187 -0.00122488 3.08808e-22)
(1.01273 -0.000286632 0)
(0.885787 -0.0623103 1.41713e-21)
(1.03846 -0.033553 1.07663e-21)
(1.01841 -0.000659665 -1.17439e-21)
(1.00989 -0.0020043 0)
(1.01361 -0.000789202 0)
(1.01586 0.000777043 1.23741e-24)
(1.09145 -0.0717772 -4.15152e-21)
(1.01799 -0.0066087 5.06206e-22)
(1.02713 -0.00129469 3.94813e-22)
(1.02688 0.00247681 -4.37816e-22)
(1.00808 -0.00129395 -3.98101e-22)
(-0.0572065 0.0463195 -4.43764e-20)
(0.779347 -0.0855405 6.74339e-21)
(0.424268 0.00685328 0)
(1.01283 -0.00500299 1.37851e-23)
(0.0115269 0.100258 5.9839e-21)
(0.884439 -0.133402 0)
(1.03083 -0.0312284 1.76305e-21)
(1.00158 4.47216e-07 0)
(1.04332 0.020558 -1.24658e-21)
(1.01295 -0.00511662 -1.4531e-23)
(0.611834 -0.026741 0)
(1.01529 -0.0130215 0)
(1.04507 -0.0351505 1.75746e-21)
(1.06819 -0.0348533 -1.58372e-20)
(1.0289 -0.00351317 2.65438e-21)
(1.03755 -0.00883269 -2.55805e-21)
(1.01729 -0.00357118 2.21447e-21)
(1.08405 -0.0537537 7.17106e-21)
(0.894861 -0.0496794 -9.45064e-21)
(0.778929 -0.0671382 0)
(1.02054 -0.00274317 0)
(1.00675 0.000421829 -2.28372e-23)
(1.01215 -0.0030048 2.4649e-22)
(0.606933 -0.0410825 0)
(0.3668 0.00517158 2.1061e-20)
(1.03364 -0.00530279 -4.36802e-23)
(0.174538 -0.0557497 -2.22955e-20)
(1.00826 -0.00112367 0)
(0.798569 -0.0705462 0)
(1.0799 -0.0559309 8.17277e-21)
(1.09075 -0.00585018 -2.80217e-21)
(1.04873 -0.0151983 -4.73482e-21)
(0.97879 -0.0414127 0)
(-0.0238337 0.0949424 0)
(1.0024 2.01086e-05 -1.34922e-22)
(1.0801 -0.0487363 -2.89163e-22)
(0.229519 0.140778 0)
(1.00624 0.000284911 0)
(1.0835 -0.0537666 1.64559e-20)
(0.306602 0.00531838 0)
(1.01173 -0.00127539 1.71422e-22)
(1.04635 -0.0233467 -4.46821e-21)
(0.589409 -0.0137801 4.19656e-21)
(1.08468 -0.0615068 5.49787e-21)
(1.02549 -0.01679 -1.79816e-21)
(1.00637 -0.000131737 -4.07853e-22)
(0.109016 -0.111786 1.51236e-21)
(0.447501 -0.173264 3.92235e-21)
(1.01027 -0.105767 0)
(1.0757 -0.0553542 -1.21884e-20)
(1.05902 -0.0213555 1.11831e-20)
(1.01003 -0.00236814 -6.40742e-22)
(0.88109 0.0500784 -1.61041e-21)
(1.00999 -0.00237122 -4.71096e-23)
(1.00925 -0.000657738 -7.168e-22)
(1.01167 -0.00125565 1.39696e-24)
(1.00591 -8.42837e-05 -2.39067e-23)
(1.01109 -0.00163992 -6.56469e-23)
(1.01759 -0.0113063 -9.43418e-23)
(0.813391 0.0553758 1.64274e-21)
(1.01298 -0.000798558 0)
(1.01453 -0.0436325 2.01936e-22)
(1.02223 -0.00578492 3.08896e-21)
(0.723827 -0.0413999 0)
(1.01154 -0.00118703 4.78035e-22)
(0.330042 -0.00872522 3.83688e-21)
(1.00263 3.49969e-05 1.67477e-22)
(0.791543 -0.0510142 0)
(1.02206 -0.0107756 -6.9269e-22)
(0.501957 -0.0199385 5.98561e-21)
(1.06856 -0.0225286 -5.38354e-21)
(0.608359 -0.020737 -1.02157e-20)
(1.074 -0.060233 -6.22779e-21)
(0.253234 0.00273113 0)
(1.06008 -0.101533 -1.14852e-20)
(1.02332 -0.000835708 -1.39435e-23)
(1.08964 -0.0915022 1.29926e-20)
(0.537423 0.00874575 1.49007e-20)
(1.02445 -0.00250055 -2.22619e-21)
(0.117641 -0.119889 2.56219e-21)
(1.00598 -0.000108986 -4.9083e-23)
(1.04958 -0.0150775 9.28013e-21)
(1.02266 0.0244867 -2.4405e-21)
(1.03134 -0.00632839 0)
(1.01876 -0.0073265 1.19208e-21)
(1.04991 -0.03493 -3.59214e-21)
(1.01879 -0.000704701 0)
(0.647358 0.0960521 0)
(1.00639 0.000305956 -1.62427e-22)
(1.00143 3.02713e-05 -3.50417e-24)
(1.06761 -0.0208175 0)
(1.04477 -0.0604245 0)
(1.01209 -0.00294631 1.1552e-22)
(1.03093 -0.0313583 -1.81151e-21)
(1.04697 -0.023904 2.34883e-21)
(0.767864 -0.0438625 0)
(0.504947 -0.0117248 0)
(1.00533 5.55588e-06 0)
(1.01312 -0.00339794 0)
(0.625532 -0.198078 1.25508e-22)
(1.08002 -0.0619016 8.20947e-21)
(1.01118 -0.00169301 0)
(1.06728 -0.0238916 -1.15627e-20)
(1.0221 -0.00617119 2.87676e-21)
(0.478388 -0.166982 -1.40875e-20)
(0.235522 0.000530567 0)
(1.03911 -0.0302664 -3.38877e-21)
(1.02527 -0.012347 3.72546e-21)
(1.00625 -0.000121808 -1.19153e-22)
(1.01754 -0.0111702 -3.45456e-22)
(-0.0821104 0.0475185 1.44406e-21)
(1.01815 -0.00575621 -1.80177e-21)
(1.02058 -0.000114398 -2.0848e-23)
(1.0157 -0.029072 0)
(1.00371 8.68329e-05 0)
(1.01482 -0.00116758 -1.65143e-22)
(0.454219 -0.00593448 -8.36103e-21)
(0.132386 0.14262 -9.21385e-21)
(1.01281 -0.00361737 5.429e-22)
(1.03356 -0.00559678 -3.57516e-21)
(0.918971 -0.0592602 -6.07958e-21)
(0.419331 0.00688452 -1.56276e-20)
(0.893485 0.149025 1.35379e-21)
(1.07785 -0.0582451 5.48554e-21)
(1.018 -0.0067563 -1.38563e-21)
(0.592768 -0.0242691 2.59421e-22)
(1.03228 -0.040483 -9.46077e-23)
(0.193437 -0.0854789 0)
(1.01152 -0.0039335 2.41832e-22)
(1.08179 -0.0401115 0)
(1.03046 -0.0439286 0)
(1.01607 -0.0134417 2.08568e-22)
(1.01437 -0.00526031 2.94149e-22)
(-0.0158739 0.0705831 -1.46692e-20)
(0.427484 0.00814644 1.26381e-20)
(1.01257 -0.00426567 1.5284e-22)
(1.01521 -0.00128901 0)
(1.05556 -0.0399345 1.8523e-21)
(1.08046 -0.0410893 -5.28266e-21)
(1.01381 0.00111701 0)
(1.01794 -0.00576917 6.25049e-22)
(1.07408 0.0166185 -5.16915e-22)
(1.02009 -0.0194891 0)
(1.07937 -0.0555596 0)
(0.515276 0.00195712 -1.06671e-20)
(1.0251 -0.0166673 -1.73213e-21)
(0.948197 -0.0629373 5.75906e-21)
(0.635348 -0.205561 9.17541e-23)
(-0.0355509 -0.0135159 0)
(1.06427 -0.094432 -3.37604e-21)
(1.06343 -0.103326 2.32144e-21)
(1.01216 -0.00257964 0)
(1.0308 -0.00624574 0)
(1.01689 0.000734548 -5.54012e-22)
(0.353482 0.00488608 -1.2836e-20)
(0.845094 -0.0464318 -3.55408e-21)
(1.00563 -1.85157e-05 8.7271e-23)
(0.260112 0.150693 -5.1155e-21)
(1.00225 7.98168e-05 1.63834e-22)
(1.04394 -0.00798152 -2.31375e-21)
(1.0027 -0.103795 3.49452e-22)
(1.00797 0.000449559 0)
(1.07914 -0.0621979 -1.37371e-21)
(1.00562 -3.04909e-05 1.18704e-22)
(-0.0181241 0.0776216 -9.58401e-23)
(1.02147 -0.00255658 4.29359e-22)
(1.009 -0.00143634 0)
(1.01132 -0.00117082 -7.29753e-23)
(0.378712 -0.00529621 -7.51084e-21)
(-0.0205164 -0.0644208 -1.6743e-20)
(1.02486 -0.00024808 -2.34993e-22)
(-0.0357173 -0.0448432 1.50515e-20)
(0.150127 0.133212 0)
(0.477461 -0.00208884 0)
(1.07515 -0.0551332 -8.72418e-21)
(1.0479 -0.0255291 5.60248e-21)
(1.00779 0.000437182 0)
(1.02294 -0.00272482 -1.19103e-21)
(1.01289 0.000533133 0)
(0.944546 -0.0677717 0)
(-0.0136756 -0.0735895 0)
(1.01331 -0.00358369 -1.11943e-21)
(1.01475 -0.00238582 0)
(1.03658 -0.0160117 -2.47535e-23)
(0.186253 -0.154281 1.1609e-21)
(0.553496 -0.0927231 -4.49676e-22)
(0.444856 -0.00481977 7.88973e-21)
(1.02225 -0.00646267 -7.06389e-22)
(1.06331 -0.055304 9.97471e-21)
(1.03581 -0.0267329 2.57866e-21)
(1.00278 7.2187e-05 0)
(1.01392 -0.000869883 0)
(0.630431 -0.210257 -4.43847e-23)
(0.443059 -0.0177413 1.32762e-21)
(0.586717 -0.0328468 0)
(1.04021 -0.0326479 4.7343e-21)
(1.08186 -0.0528355 5.13344e-21)
(0.547876 -0.031356 9.05914e-21)
(1.03094 -0.0402613 1.96669e-23)
(-0.0232055 -0.0477967 0)
(1.00826 -0.000858756 0)
(1.00602 -0.000164517 3.41466e-24)
(1.0166 -0.0258413 -1.75323e-23)
(1.01194 -0.000190151 0)
(1.08027 -0.0416893 -5.63191e-23)
(0.00242272 0.105582 1.43524e-20)
(1.06651 -0.0532965 -5.6664e-21)
(1.03719 -0.0151123 5.63419e-21)
(1.0621 -0.0538729 9.91362e-21)
(1.08427 -0.0610231 0)
(1.00146 5.59537e-06 -7.99481e-23)
(1.00819 -0.000832772 0)
(1.01005 -0.00230806 5.72288e-22)
(0.894649 0.159304 -7.05792e-21)
(1.00083 -8.47847e-06 0)
(0.220835 0.147908 -5.5273e-22)
(1.01194 0.00113111 0)
(0.595014 -0.0316247 0)
(1.07725 -0.0583638 5.14491e-21)
(1.01291 -0.00493402 0)
(1.01252 -0.00463504 3.53428e-22)
(0.745509 -0.0443543 0)
(1.03236 -0.0247219 4.40761e-22)
(1.05452 -0.0603795 0)
(1.01962 -0.000525069 -1.48783e-21)
(1.01244 -0.000139869 0)
(1.00599 0.0103826 -2.73245e-22)
(1.02136 -0.00121371 6.53968e-23)
(0.219226 0.0564796 1.36657e-20)
(1.01161 -0.000228701 -2.76513e-22)
(1.02267 -0.00266318 4.79871e-22)
(1.037 -0.00899026 -1.2811e-21)
(1.00637 0.0134169 5.3328e-22)
(1.00152 2.63663e-05 -8.03758e-23)
(0.136064 -0.162309 3.97438e-21)
(1.00232 4.02944e-05 1.33788e-22)
(1.01157 -0.000161504 -4.06712e-22)
(1.01577 -0.00802537 -4.01374e-22)
(0.419934 0.00721946 -1.40589e-20)
(0.913324 -0.0817593 0)
(0.89957 -0.0652037 0)
(1.05221 -0.0242824 2.09597e-21)
(0.392832 0.0592592 5.97789e-21)
(1.05955 -0.0240831 0)
(1.03991 -0.00676767 2.1182e-21)