/*--------------------------------*- C++ -*----------------------------------*\
| =========                 |                                                 |
| \\      /  F ield         | OpenFOAM: The Open Source CFD Toolbox           |
|  \\    /   O peration     | Version:  v2012                                 |
|   \\  /    A nd           | Website:  www.openfoam.com                      |
|    \\/     M anipulation  |                                                 |
\*---------------------------------------------------------------------------*/
FoamFile
{
    version     2.0;
    format      ascii;
    class       volVectorField;
    location    "200";
    object      ddt0(U);
}
// * * * * * * * * * * * * * * * * * * * * * * * * * * * * * * * * * * * * * //

dimensions      [0 1 -2 0 0 0 0];


internalField   nonuniform List<vector> 
13851
(
(-0.000734233 -0.00138969 0)
(0.0143483 -0.052527 -1.67603e-21)
(0.00529588 0.0129654 5.26833e-21)
(-0.000960319 -0.000846468 0)
(-0.00553759 0.0029071 0)
(-0.0424072 0.0509153 0)
(3.35642e-05 0.000106992 0)
(0.00341311 0.00329464 6.08763e-21)
(1.64025e-06 -6.77011e-05 -1.45075e-21)
(0.0272698 -0.00102847 -1.41068e-20)
(0.0156943 -0.0895489 0)
(0.0800548 0.0724302 -1.76433e-20)
(-0.00935351 -0.027586 -3.08395e-21)
(0.0771028 -0.031735 -1.03089e-20)
(3.99105e-05 1.09841e-05 -6.48814e-25)
(0.00152891 -0.00360027 -2.043e-23)
(0.000507272 -0.000249915 2.90692e-21)
(0.00235812 0.00411208 -1.04943e-20)
(-0.0273632 -0.0149175 -1.87188e-21)
(7.74963e-06 -6.92091e-05 2.93935e-21)
(-0.000795568 -0.00073601 2.79361e-21)
(0.00316839 0.0122828 1.46185e-21)
(5.78951e-07 1.49898e-06 -1.37314e-21)
(6.43977e-06 -4.34741e-06 2.8868e-21)
(6.04096e-08 1.25763e-06 0)
(0.00414615 0.00330939 -6.92645e-22)
(0.000251153 0.000339729 0)
(-0.00443173 0.0249264 -7.02172e-21)
(-0.000446809 -0.00125135 2.1454e-22)
(-0.000460527 0.000821711 -2.08189e-21)
(-0.0544192 0.0757706 0)
(0.00057475 -0.000248574 0)
(0.00664364 0.0117958 -9.0781e-21)
(-0.0222423 0.0200898 0)
(7.72804e-06 -4.97367e-06 -4.63733e-21)
(0.0067379 0.000716557 -3.37473e-21)
(0.0125929 0.00105101 -1.94384e-20)
(-0.02432 0.0259529 0)
(0.030754 0.000660914 5.77842e-21)
(-0.0284419 0.0496273 -1.04976e-21)
(3.94101e-05 -0.000112265 7.7842e-22)
(9.14685e-06 2.9728e-05 6.21419e-22)
(-0.0039653 0.0419455 2.49365e-20)
(0.0195593 -0.0742255 0)
(0.0109431 -0.100673 0)
(0.00140379 -0.149233 -5.24575e-22)
(0.00268908 -0.0593234 1.57662e-21)
(0.0494019 -0.119047 7.89936e-23)
(0.000251058 0.000365253 -7.52042e-21)
(0.0179628 0.0322003 3.41963e-21)
(-0.00107875 -0.00122985 1.08087e-20)
(-0.00376371 -0.00734333 8.9322e-21)
(0.00586816 0.00281122 0)
(4.17848e-05 5.31647e-06 -4.44162e-21)
(4.26153e-05 -4.52301e-06 0)
(1.15525e-05 2.09998e-05 0)
(-9.97639e-06 -2.44458e-06 -9.58851e-24)
(0.0134499 -0.0126723 1.258e-20)
(-0.000308893 0.000790023 -3.44823e-21)
(5.86647e-05 0.000105338 -2.48419e-21)
(-0.0226865 0.0304587 0)
(-0.114586 -0.0354647 -1.98126e-21)
(0.0272079 0.00408385 -6.3061e-21)
(-0.00742629 0.000896416 2.93316e-22)
(-0.102396 0.00450589 -1.01983e-20)
(-0.00233629 -0.00225623 3.28317e-21)
(0.00435218 0.00164459 0)
(-0.00473163 -0.00440968 1.05532e-21)
(8.33314e-05 0.000948083 3.40568e-22)
(0.00295872 0.0036984 5.79579e-21)
(-0.0128107 0.00044971 1.88247e-20)
(-0.00800217 0.0047727 0)
(0.0378479 -0.0543215 1.10153e-21)
(4.17964e-05 6.61595e-06 3.9022e-21)
(3.12374e-05 -9.23414e-06 1.7462e-21)
(-1.641e-05 -0.000145436 -1.77799e-21)
(0.00267767 0.0110987 0)
(-0.00429753 -0.00357678 1.68737e-20)
(-0.000593238 0.0022886 -6.87077e-21)
(-0.0101128 0.000757277 4.1243e-21)
(8.83817e-05 8.0528e-05 -5.55511e-21)
(0.000575702 0.110042 -1.01872e-21)
(4.62334e-05 -2.77663e-05 -8.86014e-21)
(0.0598562 -0.117229 0)
(0.0280149 0.00880428 8.66864e-21)
(0.0859283 0.0583279 1.63286e-20)
(-0.00534776 0.0353723 1.70239e-21)
(0.123087 -0.123983 1.19658e-20)
(0.00051095 0.000240258 0)
(0.00025447 -0.000262702 0)
(0.00659936 0.000228762 0)
(0.00371738 -0.0150111 0)
(-0.00570061 0.0402582 1.92594e-21)
(0.000601995 0.000539588 0)
(0.000457731 0.000253082 2.95675e-21)
(-1.40135e-06 -4.28922e-06 9.92108e-22)
(-0.00603607 0.00213871 0)
(-0.0136056 -0.0556379 1.23298e-20)
(0.0231046 0.0364689 -3.10363e-21)
(-2.5187e-06 -3.39535e-06 0)
(-0.000278603 -0.221602 7.13885e-21)
(-0.00104945 0.00108543 -3.39776e-21)
(0.000351251 -0.000203474 0)
(5.8533e-05 0.000324076 8.83813e-22)
(-2.74743e-06 -2.91295e-06 0)
(0.0176677 0.0325824 -1.88355e-21)
(-0.00122598 0.000451694 0)
(4.68603e-06 -3.21494e-05 -3.85281e-22)
(-0.0133648 0.00627819 0)
(-0.05772 0.0403583 -1.14716e-21)
(8.77774e-06 9.78525e-07 2.0905e-21)
(0.000359819 -0.000277536 0)
(0.00258149 -0.0133115 1.90126e-22)
(1.37805e-06 -1.13224e-06 0)
(8.45206e-06 2.2014e-06 0)
(0.0233757 0.0202767 3.68149e-21)
(-0.0154598 -0.0522861 -3.18369e-21)
(5.60373e-06 1.62169e-05 0)
(2.30084e-05 -5.0134e-06 -1.08678e-23)
(3.62209e-05 -3.12466e-06 1.94053e-21)
(-0.0162732 0.0465903 1.76016e-21)
(6.94543e-05 0.000322012 -1.43633e-21)
(-0.009853 -0.0291674 0)
(-0.00237582 -0.148658 -3.91507e-21)
(0.0533832 -0.109885 -8.67603e-23)
(0.000574548 -0.00191327 -1.70018e-21)
(0.0316089 -0.147785 -1.08821e-21)
(-0.000977652 0.00175657 1.04559e-21)
(-0.000823181 -0.000449589 3.13864e-21)
(-0.0168942 0.00406031 -3.81172e-21)
(4.00564e-05 -0.000105279 2.09221e-21)
(1.52613e-05 1.72125e-05 1.52605e-21)
(-0.0128324 0.000694983 -1.30078e-20)
(4.53692e-05 -2.85917e-05 7.04281e-21)
(0.0430048 0.0623374 2.77345e-21)
(1.27722e-05 -4.37672e-08 3.07749e-21)
(5.66763e-06 1.55584e-05 -1.31589e-21)
(-0.00625686 0.00295793 1.49667e-21)
(-0.0145763 0.0423754 0)
(0.0701654 0.120835 6.82899e-21)
(0.00559845 -0.231485 1.47039e-21)
(3.93204e-05 -2.25394e-06 -3.21957e-21)
(0.00126674 -0.00163785 -1.54452e-21)
(-5.19393e-05 9.50336e-05 0)
(4.57873e-05 -0.000315511 -2.33807e-21)
(0.0240812 -0.042696 2.43385e-21)
(-0.00314852 0.00704206 2.57873e-22)
(-0.0177534 0.00629263 6.01783e-21)
(3.19733e-05 0.000104839 5.91275e-21)
(0.00441674 -0.121202 1.32569e-22)
(0.00133672 0.000796695 -1.13007e-20)
(3.45481e-05 -1.08046e-06 -3.53126e-21)
(0.0733547 -0.0325882 -1.29691e-20)
(-1.04265e-05 -8.29215e-07 4.1883e-21)
(0.000203794 5.35186e-05 0)
(1.48394e-05 -0.000299699 8.36957e-21)
(3.37512e-05 -8.72112e-05 0)
(-0.000227252 0.000280162 6.30255e-21)
(-0.00486391 -0.00766578 -8.90056e-21)
(-0.00136909 -0.000992005 -1.01146e-20)
(-6.57491e-06 3.28141e-05 4.08391e-24)
(0.000254828 0.000632781 0)
(0.0123591 -0.00668401 -5.94948e-21)
(1.67985e-05 2.12232e-05 -1.68775e-21)
(-0.00266586 -9.93352e-06 0)
(-1.16667e-05 7.89267e-05 1.852e-21)
(-0.00551416 0.00803824 -2.53673e-22)
(3.1695e-05 0.000926807 1.77736e-22)
(-0.000699632 -0.000356865 0)
(-0.0129498 -0.0961802 0)
(-0.00434624 -0.00243591 -2.03549e-20)
(1.52144e-05 4.28898e-07 0)
(4.1296e-05 -7.75112e-05 5.86069e-21)
(0.0741762 0.108412 -7.56569e-21)
(1.74196e-05 2.04549e-05 0)
(0.0625244 -0.0704319 1.79971e-22)
(-0.000778521 0.00185664 3.32494e-21)
(0.00175178 0.000313377 0)
(-0.0239174 -0.0186373 -4.28561e-21)
(2.78571e-06 -4.32813e-05 0)
(0.000718357 -0.000351152 -3.82073e-21)
(-0.00977775 0.00408506 0)
(4.7255e-05 -2.614e-05 0)
(0.00177365 0.0133883 -2.62797e-21)
(-1.31109e-05 7.04942e-07 8.04388e-24)
(-6.8576e-06 -3.86942e-06 0)
(-0.00192346 -0.00277402 0)
(3.16609e-05 -9.24816e-07 -9.5815e-22)
(-0.00797251 0.00497604 0)
(0.0118724 -0.0354946 1.80809e-20)
(0.00315794 -0.0195343 -2.26181e-21)
(0.00834332 0.000466964 0)
(0.000540235 -0.00053003 8.38228e-21)
(0.000263543 0.00113077 -1.57242e-21)
(-0.12294 -0.0153787 1.01733e-21)
(0.0001921 1.15127e-05 3.44443e-23)
(0.000871246 -0.00133759 -1.77063e-21)
(-0.0146246 0.181818 1.30392e-21)
(0.00155811 -1.03932e-05 0)
(-3.5888e-06 -0.00015455 1.77688e-21)
(0.00101166 -0.00180852 1.70729e-21)
(0.0352671 -0.149057 2.83205e-20)
(2.97185e-05 -1.55817e-07 3.17952e-21)
(5.36023e-05 4.82318e-05 0)
(0.014784 -0.018702 -2.93398e-21)
(4.92645e-05 -2.56193e-05 -7.74436e-21)
(-0.140636 0.174683 -2.62305e-22)
(0.000540285 -6.45375e-05 6.33395e-21)
(-0.0122588 -0.0013322 -1.24421e-20)
(-6.97634e-06 -2.49971e-05 1.66734e-22)
(-0.0083558 -0.00383699 -1.41822e-20)
(0.000294776 -0.000187794 0)
(-0.0065454 0.198207 1.52035e-21)
(-4.60637e-06 -3.1886e-05 1.63795e-22)
(-8.25032e-06 0.000112383 0)
(-0.0104221 -0.0761379 -1.01454e-21)
(0.0212813 0.0154128 -2.92489e-21)
(-0.0422044 -0.151979 5.40537e-22)
(4.44471e-05 3.16866e-06 5.32237e-21)
(-0.0117398 -0.00175161 1.23417e-20)
(0.000596031 -8.65841e-05 -1.17614e-20)
(9.53754e-05 9.07061e-05 7.8421e-21)
(0.0014577 -0.0229871 0)
(-0.0101803 -0.00455936 -2.22498e-22)
(-0.0100636 0.00133109 0)
(-1.23504e-05 -6.48949e-07 -3.16753e-21)
(0.000675289 0.000767401 0)
(1.80353e-06 -1.51051e-06 -5.21258e-22)
(0.00804245 -0.0202074 -7.33725e-22)
(-5.73171e-06 -2.90307e-05 -6.83597e-22)
(0.00449109 0.00260277 -5.71248e-21)
(-0.070498 0.13393 2.97724e-21)
(1.53263e-05 -2.83683e-06 1.06318e-21)
(0.000372008 -0.000515917 0)
(-0.000453164 -0.000494391 5.68161e-21)
(-0.00670373 0.0161283 -3.1659e-21)
(-0.12468 0.168254 9.25341e-21)
(-0.0918722 -0.0121786 1.23834e-20)
(-3.2879e-05 0.000118335 0)
(5.21384e-05 4.94868e-05 1.71751e-21)
(-0.0288653 0.0768233 0)
(0.0537481 -0.0292785 0)
(-0.000140692 0.000258419 0)
(0.0178405 -0.0202655 3.27192e-21)
(-4.73685e-06 -5.09984e-06 6.0932e-22)
(-0.0101392 0.000141425 1.30248e-20)
(-0.0012585 0.00121131 0)
(0.00149755 0.102969 2.04989e-21)
(-5.99209e-05 -0.000315868 4.53232e-21)
(0.000212209 -0.0010145 0)
(-0.00714978 0.0065235 3.41483e-22)
(0.0559158 -0.0374676 0)
(5.74383e-05 -8.82543e-05 0)
(-2.39176e-05 -0.000338752 -2.39651e-21)
(-0.000275603 0.000295407 -6.77263e-21)
(0.0440662 -0.0512194 0)
(0.00637504 -0.0345342 -1.79513e-20)
(-0.00787944 0.00253135 -6.54905e-21)
(0.020632 -0.00155324 3.457e-22)
(3.51196e-05 4.91822e-05 0)
(-2.29791e-05 0.000103087 0)
(0.00309771 0.00222624 0)
(-0.0625422 0.068174 0)
(8.87902e-05 -0.00027256 3.17763e-21)
(-0.0293958 -0.0142468 0)
(0.00019502 -1.82713e-05 -1.07266e-20)
(6.04647e-05 -8.05324e-05 -3.73524e-21)
(0.000572875 0.000494393 0)
(0.0015889 -0.0232342 0)
(-0.00275844 -0.0132806 -8.73581e-21)
(-0.00563798 0.00828179 1.12943e-22)
(0.000213354 1.35985e-05 -1.03497e-20)
(-0.112789 0.0477353 -2.01641e-21)
(-0.00033402 0.00215155 -6.9128e-21)
(0.000965267 -0.00359595 -1.21946e-20)
(1.45018e-05 1.57613e-05 -3.25719e-21)
(0.00078447 0.116484 1.10157e-21)
(-0.0175792 -0.0131818 3.94426e-21)
(-0.00990218 0.00528557 0)
(0.00522413 -0.0976704 -2.52963e-21)
(-8.26706e-05 0.000357823 0)
(-5.41276e-06 -4.49333e-06 0)
(-6.81797e-06 -2.98581e-06 0)
(-0.000246003 0.000401786 2.26573e-21)
(-0.0584367 0.0978643 0)
(0.0621385 -0.0250702 1.15175e-21)
(1.41751e-05 -9.86409e-05 -2.92739e-21)
(2.18173e-05 2.72269e-05 -1.29931e-21)
(-0.114635 0.0830137 2.36244e-21)
(0.00759097 0.106975 4.78036e-23)
(-0.0205002 0.00610494 2.95096e-21)
(-0.00029309 0.000601122 4.51455e-21)
(6.47995e-05 0.000103232 0)
(8.03337e-06 0.00114759 0)
(0.00391628 0.109976 -4.89687e-22)
(-0.0270779 -0.016293 2.95136e-21)
(-0.00197313 -0.000586826 0)
(0.100265 0.0446829 -2.25162e-21)
(1.28307e-05 9.32802e-06 -1.70826e-21)
(-0.00991937 -0.000292447 -1.23626e-20)
(0.000255695 0.000595385 6.02027e-21)
(0.000467937 -0.000330999 3.29481e-21)
(-0.0106164 0.00447869 8.67537e-21)
(0.000133242 8.86745e-05 2.47791e-21)
(0.0114718 0.0393256 0)
(-0.00345142 -0.0110204 5.15652e-21)
(1.35385e-05 -9.11379e-05 0)
(-0.000276802 0.00070268 -3.51672e-21)
(0.000675969 0.000524206 0)
(-0.0001914 0.000576764 -2.02078e-21)
(-0.0450305 0.0491405 7.47792e-21)
(-0.00219721 -0.0006765 -1.1235e-20)
(3.9938e-05 -6.99389e-05 -7.45329e-21)
(-0.000235759 -0.0319937 4.35322e-21)
(4.74628e-06 5.85283e-05 -7.88964e-22)
(0.000320345 -0.00107285 -2.39706e-21)
(0.00229243 -0.00192381 7.74082e-21)
(-0.0114355 0.00549266 -7.51657e-21)
(0.00402042 1.2762e-06 0)
(4.49417e-05 4.10949e-06 0)
(-0.00087806 0.000582035 0)
(4.17893e-05 2.45787e-05 0)
(0.019271 -0.00370963 -3.96524e-21)
(-0.0131809 0.00692426 1.08851e-22)
(-6.17076e-06 4.39405e-06 7.29889e-22)
(3.09038e-05 -0.000187613 3.66547e-21)
(0.00378416 -0.000383047 0)
(0.000654795 0.000689082 -9.20008e-21)
(0.000195901 0.000110607 -5.85557e-21)
(1.9265e-05 2.34564e-05 -1.27273e-21)
(0.000122961 8.33018e-05 0)
(4.01071e-05 -5.96463e-05 6.45103e-21)
(0.0140806 -0.0963917 1.17511e-21)
(0.0752294 -0.0618704 0)
(-0.0402337 -0.0939073 2.12039e-20)
(0.00806275 0.00133532 -3.28816e-21)
(-0.0118279 0.00457783 -3.85057e-21)
(-0.0653661 0.0538869 0)
(4.12703e-05 9.33398e-06 -2.24775e-21)
(0.000294545 0.00123755 -1.62557e-21)
(-0.0217575 0.00855796 -2.97618e-21)
(0.0102346 -0.0144509 -1.83697e-21)
(-0.00818446 0.0314789 -1.7452e-21)
(-0.00188459 -0.00565022 0)
(-0.0300898 -0.0134235 1.1671e-21)
(-0.00302938 -0.00414151 0)
(0.0105403 0.0716057 -1.23669e-20)
(-0.0071707 -0.00555064 0)
(3.82034e-05 1.01745e-05 0)
(0.0181435 0.0195777 -5.70332e-21)
(0.021993 0.0150661 3.98904e-21)
(0.00703926 0.0557551 0)
(0.000186408 0.000127265 5.91825e-21)
(-0.00982464 0.036084 1.57416e-20)
(0.0115814 -0.0238882 1.27824e-21)
(4.53294e-05 -7.69298e-05 -1.95448e-21)
(0.0121635 0.10009 6.93616e-21)
(1.07572e-05 -0.000195592 3.79962e-21)
(3.90954e-05 2.29155e-05 1.19322e-21)
(-7.56493e-06 -6.7392e-06 -8.37539e-22)
(2.89257e-06 -3.7113e-05 1.86401e-22)
(3.51246e-05 -7.05328e-05 -1.81812e-21)
(-0.00674182 -0.0059681 1.65768e-20)
(0.00670972 0.151666 0)
(5.63843e-05 5.47652e-05 2.10619e-21)
(-0.000226735 0.000756196 -4.41268e-22)
(1.23355e-05 6.98143e-05 0)
(0.108593 0.0461789 0)
(0.000143075 -0.00767315 -1.2239e-20)
(0.0167865 -0.0529713 7.34528e-22)
(-0.0323613 -0.0935676 -1.07482e-20)
(5.97134e-05 6.11823e-05 2.17098e-21)
(0.0233975 0.0177591 1.02777e-20)
(0.000821168 0.000409176 -4.40871e-21)
(0.0298616 -0.0550503 2.14542e-21)
(3.03701e-05 -7.70847e-05 -1.26143e-21)
(4.54218e-06 2.3057e-05 0)
(-0.00902041 -0.00570211 0)
(0.014366 -0.260882 4.47397e-21)
(3.1014e-05 -4.98589e-06 0)
(-0.0763031 0.0820862 0)
(0.00787754 -0.0166501 0)
(-0.00165863 -0.00641961 0)
(0.0313584 -0.100572 0)
(0.0370875 0.0111262 9.80067e-21)
(0.0347144 0.025344 4.50494e-21)
(0.0024179 0.00622097 2.35403e-22)
(1.73481e-05 -3.06391e-05 1.78419e-21)
(3.40439e-05 6.18826e-06 -4.55973e-21)
(0.00670909 0.000655918 0)
(-0.000720524 0.000508992 0)
(0.0884968 -0.022565 1.13168e-20)
(-6.95913e-06 0.000849662 0)
(-0.0103514 0.00122616 8.74911e-21)
(-0.00473672 -0.00897769 5.32403e-21)
(7.39806e-06 7.83865e-05 1.05061e-21)
(3.53178e-05 5.31784e-05 -5.27233e-21)
(-0.0189774 -0.0971207 -1.02747e-20)
(-0.0118619 0.00093426 0)
(-0.0252772 0.121728 -5.05069e-21)
(-0.00997984 -0.0456857 0)
(-0.0112988 -0.00642569 -3.10003e-22)
(0.000866336 0.000489753 0)
(-4.6547e-06 1.89594e-06 4.70556e-22)
(-0.0579695 0.0505595 0)
(4.16779e-06 3.48724e-05 2.11831e-21)
(0.00175509 -0.00308657 6.44511e-21)
(0.00234568 0.00519443 -8.76199e-22)
(4.88988e-05 8.90637e-05 0)
(-2.72687e-06 -1.78044e-06 -1.19813e-22)
(7.93883e-06 -8.91032e-05 -4.1589e-21)
(-4.66226e-06 8.48825e-05 1.13957e-21)
(-0.00658998 0.000302713 -6.96313e-22)
(-0.0179155 0.0181119 -1.21637e-20)
(0.024831 -0.0177831 -1.97669e-20)
(0.00448141 0.00296709 -3.23823e-21)
(-0.00100442 0.000418252 0)
(-0.0152552 0.000685305 3.35304e-21)
(0.0511619 -0.0431194 8.91814e-22)
(7.35026e-05 -0.0013821 2.51538e-23)
(0.00628097 0.0581646 0)
(0.000404257 -0.000330298 9.64629e-21)
(-0.0228967 -0.069896 1.03471e-21)
(6.9255e-06 7.76386e-06 1.09559e-21)
(8.20829e-06 -8.29709e-05 7.99594e-22)
(-4.69839e-06 -2.13721e-06 0)
(-0.0270182 0.0408146 0)
(0.00752102 -0.020634 -9.6402e-22)
(-0.01194 -0.00226306 4.72718e-21)
(-0.0133587 -0.00161422 -2.20868e-21)
(0.0290184 -0.0113689 1.60493e-20)
(-0.0288026 -0.00633622 -1.70673e-21)
(0.00217237 0.0328239 -1.33157e-21)
(3.835e-05 -1.70582e-06 3.37103e-21)
(-0.000208225 -0.000570057 0)
(3.14216e-05 -7.09514e-05 1.26805e-21)
(0.0504314 -0.0493149 -9.44093e-22)
(4.78073e-06 2.55985e-07 0)
(0.00852519 0.0578202 -5.73212e-21)
(0.0292784 -0.111244 0)
(0.00904974 0.00904481 4.26528e-22)
(-0.0116847 -0.00232646 0)
(0.00187243 -0.00052091 7.27029e-22)
(-0.0217485 0.00480455 -2.63851e-21)
(0.0283194 -0.107961 -3.68554e-21)
(-0.021876 -0.222907 2.7141e-21)
(-1.2549e-05 -2.2245e-06 -1.16882e-22)
(0.000970323 0.000691891 0)
(-0.000834219 0.00217173 3.8286e-21)
(-0.00559164 -0.0161275 9.40407e-21)
(6.12998e-06 2.98473e-05 1.02099e-21)
(3.44442e-05 -3.81123e-05 9.8936e-21)
(0.00111914 0.000755411 -7.22096e-21)
(-0.00321955 -0.00658745 0)
(0.00674045 0.00629012 0)
(0.00868267 0.00328663 0)
(-1.34614e-05 -1.44655e-06 6.822e-21)
(5.00846e-05 -0.000209351 3.71221e-21)
(-0.0438885 0.0102516 -4.9746e-22)
(-0.00318371 0.000395912 3.07389e-21)
(-6.14705e-06 -3.51912e-06 2.58718e-22)
(0.106918 -0.14777 0)
(1.54356e-05 -2.4465e-05 -3.71504e-21)
(-0.000956833 -0.00121535 -1.80876e-21)
(-7.81256e-08 -1.80693e-05 1.8606e-21)
(-0.0120027 -0.00247068 -5.09489e-21)
(-5.82126e-05 0.000321864 -3.97514e-21)
(-5.31169e-06 -2.05337e-05 -1.7745e-22)
(0.00160678 -0.000800025 8.60966e-22)
(-0.0011402 -0.0331667 1.65313e-21)
(4.66841e-05 -3.15927e-05 0)
(-7.5942e-05 0.000910367 0)
(1.25952e-05 -1.32312e-06 -3.99521e-21)
(0.00711573 0.00586253 1.16614e-21)
(-0.0328937 -0.0236422 4.4781e-22)
(4.28787e-06 -1.19828e-06 0)
(6.9185e-06 7.5096e-06 2.62561e-21)
(5.00259e-06 -1.43739e-06 0)
(2.47535e-06 -1.84341e-07 -4.83218e-21)
(0.0687818 -0.0214473 2.54835e-21)
(7.17666e-05 -7.17395e-05 0)
(-0.0108419 0.04466 3.11735e-22)
(4.78526e-05 -2.24177e-05 -1.5615e-21)
(-2.88706e-06 3.58116e-06 1.78706e-21)
(-0.00401103 -0.127572 -1.37888e-20)
(-0.0122691 -0.00186744 4.36094e-21)
(5.24205e-05 -2.21289e-05 -1.78349e-21)
(0.00907579 0.0057494 0)
(0.000280821 -0.00138803 -1.09456e-20)
(0.0536833 -0.00513504 4.42924e-21)
(0.00422357 -0.12774 0)
(8.03807e-05 -0.000192394 0)
(0.0174153 0.132299 -6.04435e-20)
(3.5549e-05 -8.97914e-05 0)
(-0.00514476 0.0063567 0)
(5.75827e-05 8.55248e-05 0)
(-0.0119498 -0.0624571 4.02251e-21)
(7.60787e-06 -2.25268e-06 9.66079e-22)
(0.00510933 0.00257046 -9.5736e-22)
(-0.00239046 -0.0375858 2.71794e-20)
(7.2481e-06 4.24377e-05 -7.08087e-22)
(0.00986197 0.00308483 -2.03581e-21)
(-0.0112495 -0.0725328 -1.03154e-20)
(0.00525201 0.00256399 1.36419e-20)
(-0.00265599 0.111171 -3.47411e-21)
(2.5191e-05 -5.92037e-06 3.17749e-21)
(-0.0185624 -0.00943884 1.58149e-21)
(4.58611e-05 -3.02278e-06 -4.30971e-22)
(2.69404e-05 9.43161e-06 1.71644e-21)
(1.48958e-05 2.39448e-05 -1.58896e-21)
(3.43246e-05 9.83854e-05 0)
(-0.0112177 0.0013548 0)
(-0.00143708 -0.000337965 -6.35638e-22)
(0.00190061 -0.00570166 8.20058e-21)
(-0.00935112 -0.0213867 3.5034e-22)
(0.0231401 0.0114197 -1.0411e-20)
(-1.58189e-05 2.63948e-05 0)
(-0.0331282 -0.0301182 0)
(0.0224021 -0.030271 1.41537e-20)
(0.000758727 -0.000245051 4.1706e-21)
(0.000284825 0.000656215 7.73031e-23)
(0.0509486 0.00626334 -5.10606e-21)
(-0.0115226 -0.133007 2.1939e-21)
(-0.00909652 -0.00403235 0)
(4.55263e-05 5.82014e-08 0)
(-0.00875882 -0.0754957 6.44053e-22)
(0.0620782 -0.136266 -1.57931e-21)
(-0.0105982 -0.168585 7.98719e-21)
(-0.00264918 -0.00052003 8.13099e-21)
(0.0115796 0.00245953 3.97712e-21)
(-0.0214168 -0.275868 -7.44068e-21)
(-0.0237421 -0.00262958 4.91745e-23)
(0.0366254 -0.0581557 -1.96608e-21)
(-0.013329 0.18249 7.16485e-22)
(0.00413116 0.0648052 3.10981e-22)
(-0.000255572 0.000376327 -6.44242e-21)
(0.00362945 0.066912 -1.41195e-21)
(-0.00681274 -0.00541217 -2.03155e-22)
(7.69543e-06 -1.358e-06 1.09016e-21)
(-0.0188076 -0.00749553 -1.18673e-21)
(-0.00123634 -0.00058917 0)
(-0.0123988 -0.0015564 7.36179e-21)
(-0.000106197 -0.000335071 2.51044e-21)
(4.23148e-05 2.61403e-05 -2.75086e-21)
(3.15316e-05 -8.56957e-05 3.62528e-21)
(7.18137e-05 -2.63435e-05 3.60776e-21)
(-0.00728335 0.00379858 0)
(-0.00987236 0.00859826 3.79197e-21)
(0.107475 -0.120483 -1.06458e-20)
(0.0148295 -0.0177133 1.03741e-20)
(2.67804e-05 -6.5986e-06 -1.66992e-21)
(-0.0336111 0.026186 1.55191e-20)
(-0.00602105 -0.00588658 7.73881e-21)
(0.0463939 0.0417717 -5.65399e-22)
(0.0244542 -0.0656774 -3.4797e-21)
(-3.49616e-05 0.000949499 -1.8663e-22)
(-8.11316e-06 -1.95624e-06 -2.38751e-22)
(2.72722e-06 -7.59607e-05 0)
(-0.0127846 0.0257169 0)
(-0.0323713 -0.0347181 0)
(0.000220654 6.25911e-05 1.93944e-21)
(0.0021972 -4.97998e-05 4.03521e-21)
(0.00662961 -0.00186614 0)
(1.19374e-05 6.06392e-06 0)
(-0.0231271 0.00235986 1.70738e-21)
(-0.0343372 -0.182689 -1.49293e-21)
(0.015585 0.0488046 5.4881e-21)
(-0.00456867 -0.00517725 -4.3544e-22)
(-0.0112777 0.00145577 0)
(-0.00769348 -0.00349717 7.23033e-21)
(3.49123e-05 -9.58093e-05 2.82006e-21)
(4.58595e-05 9.65075e-05 0)
(-0.00423616 -0.205387 -1.35356e-20)
(-0.00448671 -0.00943983 5.89857e-21)
(0.00425363 -0.00198007 6.50602e-21)
(1.89024e-06 0.000808917 -9.85466e-21)
(0.0315232 -6.71176e-05 0)
(4.18683e-06 -3.81599e-05 2.19062e-22)
(5.22285e-05 -3.81341e-05 2.47519e-21)
(0.00183532 0.0617273 0)
(1.09645e-05 5.55983e-07 1.08485e-21)
(-0.000160736 -0.000300455 -2.38109e-21)
(-1.3329e-07 -4.18715e-05 0)
(2.75108e-05 -2.7464e-05 -1.73914e-21)
(-0.00745595 -0.00582255 -1.98884e-21)
(-0.0071756 0.00190667 -3.90817e-21)
(-0.0102933 -0.000353278 0)
(1.07428e-05 -1.21984e-05 -1.0647e-21)
(-0.114925 0.0942161 1.11926e-20)
(-0.00324424 0.185076 -1.44274e-22)
(1.35375e-05 -1.66152e-05 0)
(-7.94939e-07 7.13053e-06 0)
(0.000166631 -0.000235523 -3.57443e-21)
(3.73846e-05 6.27944e-06 8.74849e-21)
(0.00931818 -0.256061 0)
(-0.0050777 0.143072 -2.38139e-22)
(-0.00225033 0.173001 -2.17445e-21)
(-0.0469522 -0.17628 0)
(0.000690214 0.0168886 -1.38933e-21)
(4.96114e-05 0.000770672 5.88144e-21)
(-0.0124492 -0.00116055 1.33539e-20)
(-0.0129137 -0.00119504 -8.02246e-21)
(-0.00292971 -0.0050926 8.80665e-23)
(8.98519e-05 0.00101926 -5.93775e-21)
(-6.33301e-06 6.00204e-06 2.40543e-22)
(0.00166456 -0.00239687 0)
(0.00303569 -0.00231941 -1.14657e-20)
(-0.00450248 -0.0353632 -1.10007e-20)
(-0.0199326 0.09997 0)
(0.00197537 -0.000220004 4.40492e-21)
(0.00124096 0.000100774 0)
(8.8593e-07 -5.74143e-05 -2.58902e-21)
(0.000103994 -0.00421893 -9.9123e-21)
(-0.00102898 -0.00171842 0)
(-0.00537493 0.0868128 5.53383e-21)
(-0.00248047 -0.00068684 0)
(4.6466e-05 -2.21194e-05 7.52479e-21)
(0.00813633 0.0029091 3.2676e-21)
(4.6368e-06 2.65945e-05 2.04249e-21)
(0.000464635 0.000515251 -2.62165e-21)
(-0.0133902 -0.00142143 -8.41047e-21)
(5.28121e-05 0.000100812 7.0066e-21)
(2.78484e-05 -5.69231e-05 4.04457e-21)
(0.00124994 -0.00761203 0)
(6.93988e-05 -1.56637e-05 1.57018e-21)
(-0.00605354 0.00383865 3.6266e-21)
(-0.0196627 0.0412435 0)
(-0.00905139 -0.00389685 1.04544e-21)
(-0.0010836 -0.00474359 -5.08111e-21)
(0.00470107 -0.00161591 0)
(2.87463e-06 -5.03515e-05 2.67749e-21)
(0.0278407 0.0780139 1.3724e-22)
(-0.00974045 0.00624634 -4.05431e-24)
(-0.0499656 -0.180427 0)
(0.000278786 -0.000116177 -3.39157e-23)
(6.05819e-06 -3.07363e-06 3.55693e-21)
(-0.0124135 0.005597 7.02814e-21)
(0.000665412 0.000803782 -6.97108e-21)
(0.0499116 -0.100146 0)
(-0.00871162 -0.00353508 -1.17878e-20)
(-0.0487391 -0.13512 8.80646e-21)
(0.0867853 -0.164316 5.48681e-21)
(2.45694e-06 2.82619e-05 -1.08603e-21)
(-0.0102441 0.00542805 0)
(-0.000154756 0.000486587 0)
(2.40777e-05 -3.0231e-05 1.92269e-21)
(6.13863e-06 -6.9029e-06 -5.34205e-22)
(3.01258e-05 -2.94413e-05 5.2225e-21)
(-0.000488296 0.00281235 0)
(0.0055947 0.00256111 3.40716e-21)
(-0.0104514 -0.0011389 8.53391e-21)
(9.8695e-06 -1.54715e-05 1.0432e-21)
(-0.0333212 0.0889144 -1.90497e-21)
(0.00287287 -0.0396382 -2.83215e-20)
(-0.0443156 0.0934917 0)
(1.03652e-05 -7.09807e-05 0)
(-1.99146e-06 -1.31051e-05 -3.64158e-22)
(4.29893e-07 -8.52838e-07 -4.7777e-21)
(-0.0198041 0.0119487 0)
(-0.140197 0.0179758 1.73035e-21)
(0.000157578 0.000365436 1.15393e-20)
(0.000503619 0.00054053 7.76703e-21)
(-0.00027362 0.000500691 0)
(-6.20976e-06 2.14394e-06 3.31415e-21)
(2.53529e-05 -2.55334e-06 -8.46619e-22)
(2.39277e-05 -0.00011306 -4.7747e-21)
(0.00862357 -0.0115348 1.0416e-20)
(-0.00167563 0.159397 0)
(6.87882e-05 -1.84695e-05 -1.58973e-21)
(8.39512e-06 -2.50961e-05 0)
(2.9794e-05 9.75266e-05 0)
(3.14579e-05 -0.000104599 3.48297e-21)
(0.0355705 0.0434441 -4.84329e-21)
(0.010068 0.000464642 6.18803e-22)
(0.000705529 -0.0042845 5.01175e-21)
(-0.0243379 -0.067355 0)
(-0.0221726 -0.0506931 6.44627e-22)
(2.89645e-05 -5.08732e-05 -1.28888e-21)
(0.00108342 -0.00563446 -4.8138e-21)
(-0.00512802 -0.225537 -8.02231e-21)
(1.63103e-05 0.00105695 0)
(0.0668597 0.0778793 -1.3362e-21)
(8.87928e-05 6.24602e-05 5.62261e-21)
(0.0027749 0.00283269 -3.78353e-21)
(4.6696e-05 0.000357266 -1.03628e-20)
(0.00385757 0.00207015 0)
(-0.00857184 0.201937 -1.68084e-21)
(5.05882e-05 -2.24816e-05 1.63811e-21)
(-0.0174949 -0.266977 1.87661e-21)
(3.96164e-06 -4.86584e-07 0)
(-3.1576e-05 0.000589668 2.58014e-21)
(-0.0111362 -0.00267077 1.43071e-20)
(-0.000125272 -6.43229e-05 6.82074e-21)
(0.000690566 0.000258851 -8.48544e-21)
(0.0296367 -0.00468365 -8.94012e-21)
(2.62397e-05 1.20927e-05 -3.47077e-21)
(0.000624692 -0.000352248 0)
(-0.104814 0.0958665 -8.83763e-21)
(0.101614 0.0414156 5.64615e-21)
(-0.00265392 -0.000261292 -3.50322e-22)
(-0.0328402 -0.00872645 0)
(0.0397987 0.00540958 -1.06584e-20)
(-1.4765e-06 -3.84204e-05 -3.41674e-22)
(1.17776e-05 -6.42068e-05 0)
(-0.00427522 -0.138169 -2.92837e-20)
(0.00639243 -0.0015332 2.2288e-21)
(-0.00993594 0.0181851 -3.16414e-21)
(-0.00807957 -0.00425064 1.93829e-20)
(2.45183e-05 3.75038e-05 -1.88462e-21)
(1.99324e-05 1.70126e-06 0)
(7.58472e-06 5.83343e-06 8.40714e-23)
(0.00366234 0.0226331 0)
(0.00580239 -0.00362099 0)
(-0.0012918 -0.000209212 -6.15866e-21)
(-0.000110967 -0.00027968 0)
(-0.0285463 -0.035253 8.83665e-22)
(0.000329336 0.00027446 0)
(-8.29586e-07 -2.4517e-06 3.564e-21)
(-0.0165566 0.0264102 -3.93836e-20)
(0.0499698 -0.0526316 1.06696e-22)
(0.000402355 -0.0146247 0)
(7.65222e-06 4.85083e-05 -2.92447e-23)
(6.83603e-05 -5.76644e-06 2.90908e-21)
(-0.0102869 -0.00180259 -1.06024e-20)
(0.00398989 0.0179814 0)
(0.00589599 8.16863e-05 0)
(-0.000899827 -0.00129917 0)
(-0.0122959 -0.000778688 2.93476e-24)
(4.79395e-05 -3.04199e-05 5.68667e-21)
(-0.0225507 -0.056003 9.48234e-22)
(0.00545853 0.0305097 -1.09843e-21)
(0.0100543 0.010775 6.11407e-21)
(0.000143961 -0.000786854 6.60706e-21)
(-0.0536627 -0.137991 2.82348e-22)
(6.75003e-05 0.00813954 -9.09839e-22)
(-0.00291882 0.000938826 0)
(0.0140346 3.67958e-05 9.48091e-21)
(8.59591e-06 -2.42671e-06 3.51827e-21)
(1.67252e-05 -3.70879e-07 3.13081e-21)
(-0.000110597 0.000340844 4.01868e-21)
(1.72466e-06 -3.84155e-05 2.08325e-23)
(-0.0293644 0.00321434 0)
(0.00232222 -0.001117 -6.40968e-21)
(-0.00366314 -0.00590147 6.68435e-21)
(-0.00908327 -0.00193494 1.47914e-21)
(-0.020768 -0.0188958 -3.47042e-21)
(7.16381e-06 -6.60895e-05 -1.70134e-21)
(-0.0821879 0.0653825 6.63125e-21)
(2.0822e-05 1.39169e-06 0)
(0.0015815 0.00812201 3.02461e-23)
(5.2509e-06 -6.21561e-06 -1.41984e-21)
(2.73702e-05 -3.14035e-05 1.8986e-23)
(3.43187e-05 3.68995e-06 0)
(-0.00328565 -0.0112734 -1.2751e-20)
(3.59647e-05 -7.31639e-05 -3.60909e-21)
(-1.90617e-06 4.09235e-05 1.20419e-22)
(0.0376224 -0.0815773 1.3379e-21)
(4.70349e-05 0.00010271 -2.28866e-21)
(-0.0103093 -0.00248966 -9.77142e-21)
(-2.33325e-06 3.11156e-06 0)
(0.000228537 -0.0018796 1.96167e-21)
(0.000401733 -0.000642712 0)
(0.0334279 0.0449143 0)
(-0.0131839 0.145196 3.5295e-20)
(1.52247e-05 -1.23163e-05 1.72988e-21)
(-0.104556 0.0496497 1.69672e-21)
(-0.0300623 -0.0648156 5.6188e-22)
(6.74533e-05 -8.00618e-05 -5.82303e-23)
(-0.00276259 -0.0117608 8.9381e-21)
(-2.79258e-05 0.00058671 4.87192e-23)
(-2.9467e-07 -2.23052e-05 0)
(-0.012603 0.0116507 -7.68464e-22)
(-0.00441985 0.0356884 0)
(-0.0958101 0.0608579 -8.38137e-22)
(-0.000228035 -0.00116046 7.04771e-21)
(2.76247e-05 -3.61022e-06 0)
(6.95424e-06 -2.63862e-05 4.23567e-22)
(0.0357768 -0.0721938 1.96167e-20)
(0.0134922 0.0129204 -9.58996e-21)
(-0.0189567 -0.016766 0)
(-0.00183778 -0.000342562 0)
(-0.0103482 0.0153952 0)
(4.5878e-05 1.6125e-06 -3.13642e-22)
(-0.000185633 -0.00176036 0)
(0.00219253 0.000942837 9.74519e-21)
(0.0227275 0.0767345 8.32607e-21)
(-0.00717142 0.00593134 -7.65307e-22)
(-0.0230125 0.0701204 0)
(6.68615e-05 -8.96418e-06 -7.46049e-21)
(-0.00590136 0.00571425 7.90858e-22)
(-0.000631022 -0.00214017 0)
(-0.0122271 0.0059546 8.50686e-21)
(-0.0013068 6.77941e-05 0)
(-0.128041 0.177654 -6.39611e-21)
(-0.0118885 -0.0200024 7.57225e-21)
(4.31963e-05 0.000107793 -1.97917e-21)
(0.15366 -0.106762 0)
(0.0276368 0.0609381 1.18076e-20)
(-0.0914929 -0.0426371 0)
(0.104653 0.0274836 0)
(0.00140956 -0.028021 1.02985e-20)
(0.046138 0.00708645 -6.32665e-21)
(0.00520515 -0.00291993 -1.28718e-20)
(1.15563e-06 -3.5176e-05 -1.80178e-21)
(0.00642937 -0.000532703 -6.07658e-21)
(0.0180048 -0.0212223 -1.11885e-20)
(0.150889 -0.111446 1.09917e-20)
(-6.80092e-05 -0.000116855 0)
(1.82777e-06 7.99297e-08 -1.66806e-23)
(-0.000694071 -0.000675237 -4.50719e-23)
(0.00223941 0.0863146 0)
(-5.75832e-06 5.42145e-05 0)
(0.00564865 0.00872661 4.47699e-21)
(2.25176e-05 3.15398e-05 1.97832e-21)
(4.86746e-05 2.03736e-05 0)
(-0.0493132 0.0019622 -1.47945e-20)
(-0.00882461 -0.00229215 -9.0875e-21)
(0.036939 0.0186227 1.31098e-20)
(2.27962e-05 -2.90206e-05 0)
(3.3331e-05 2.61337e-05 -6.07291e-21)
(0.005106 0.0131422 -4.19875e-21)
(0.00618211 -0.0114855 -1.19936e-20)
(0.00365401 -0.00182104 -5.64819e-21)
(-0.000444572 -0.00284909 2.06593e-21)
(-0.0504313 -0.0853899 0)
(0.0105662 0.04789 -1.86365e-21)
(-0.122529 0.0237639 0)
(-0.00126269 0.000706214 -1.05817e-21)
(-0.000220605 0.000830007 7.31917e-21)
(3.43886e-05 -5.336e-05 -3.94265e-21)
(5.42544e-05 9.0453e-05 0)
(0.0773844 -0.0125154 3.01537e-22)
(0.000185451 0.000637596 0)
(-0.0115713 0.000898766 0)
(-0.0142497 -0.00359472 -1.41634e-21)
(3.34745e-05 0.000868044 0)
(0.00302499 -0.024411 -3.0575e-20)
(-0.0878833 -0.0539288 0)
(-0.00613477 -0.00492496 -9.15264e-21)
(5.57293e-05 2.21105e-06 0)
(7.24669e-05 0.000722691 5.87762e-21)
(1.2837e-05 -7.55166e-06 0)
(-0.000330755 -0.00497349 1.60559e-20)
(0.000698475 0.000134435 -5.07492e-21)
(0.0550279 0.100758 0)
(2.36051e-05 1.28911e-06 -3.47804e-21)
(-0.0103094 0.00221937 -1.50015e-20)
(-8.30996e-06 4.9361e-05 5.8846e-22)
(0.000184863 -0.000663045 -4.16435e-21)