/*--------------------------------*- C++ -*----------------------------------*\
| =========                 |                                                 |
| \\      /  F ield         | OpenFOAM: The Open Source CFD Toolbox           |
|  \\    /   O peration     | Version:  v2012                                 |
|   \\  /    A nd           | Website:  www.openfoam.com                      |
|    \\/     M anipulation  |                                                 |
\*---------------------------------------------------------------------------*/
FoamFile
{
    version     2.0;
    format      ascii;
    class       volScalarField;
    location    "200";
    object      ddt0(k);
}
// * * * * * * * * * * * * * * * * * * * * * * * * * * * * * * * * * * * * * //

dimensions      [0 2 -3 0 0 0 0];


internalField   nonuniform List<scalar> 
13851
(
5.62731e-07
-0.0103676
-1.56513e-06
5.07248e-07
7.64472e-07
0.00120508
7.90661e-09
-3.59489e-07
-1.26447e-08
-3.19551e-06
-0.00144274
-0.000373554
-0.00135993
-0.00724218
2.43244e-09
2.08962e-07
2.24877e-08
-1.86372e-06
-0.000287987
-4.43686e-09
4.46109e-07
-1.33321e-06
1.31863e-08
6.44227e-09
1.2274e-08
-4.04568e-07
4.61314e-09
-0.000501235
4.83189e-07
-1.55593e-07
0.00388147
1.59385e-08
-1.48927e-06
-0.00204411
7.23381e-09
-4.32617e-07
-6.14813e-05
8.64491e-06
-3.74749e-06
-0.00250716
-2.31101e-09
2.40079e-08
0.00128928
-0.00184777
-0.000952149
0.00310777
-0.00148702
-0.000904953
3.94366e-09
0.000903891
3.34676e-07
6.06155e-07
-0.00177896
-9.29963e-10
3.66492e-09
2.38772e-08
-7.49673e-10
0.000356185
-1.58511e-07
2.76599e-08
1.17384e-05
0.00685233
-3.79759e-06
1.16286e-06
-0.00197448
1.23607e-06
0.00124156
-0.00147614
3.1063e-09
-1.84953e-06
8.78547e-05
0.00295986
-0.013067
1.1039e-09
-6.05263e-10
1.06958e-08
-1.26914e-06
0.000451185
4.92351e-08
2.05402e-05
2.8903e-08
0.000959007
-1.17682e-08
0.000546494
-1.77658e-06
-3.43863e-05
0.000159286
-0.0199177
-2.8641e-09
3.80882e-08
-4.49222e-07
1.7487e-06
-0.000505242
-1.48459e-08
-2.10354e-09
9.78382e-09
9.06632e-07
-0.000903832
0.00108893
7.21926e-09
-0.00460704
1.56324e-07
1.94803e-08
1.89714e-08
-6.60754e-09
0.000204808
1.91886e-07
1.37234e-10
0.00382656
0.00171085
1.53958e-08
2.92309e-08
-1.13741e-05
9.00364e-09
1.29064e-08
0.00251839
-0.00122582
6.15977e-09
1.14333e-08
1.42851e-08
0.00231874
1.92542e-08
-0.00171095
0.00526402
-0.00138886
-2.40677e-07
0.00021518
1.05345e-07
3.35384e-07
8.387e-07
-3.66035e-09
-1.64745e-09
0.000173521
-8.70648e-09
0.00208137
6.90302e-10
6.23382e-09
0.00316487
0.00296576
0.000783157
-0.00491032
-1.30028e-08
-4.06402e-07
-7.65124e-08
2.95789e-08
-0.00237764
1.5054e-05
6.00373e-07
9.5824e-09
-0.000269109
-7.11335e-07
-3.68237e-09
-0.00723096
-9.28632e-10
5.23334e-09
3.04843e-08
1.63527e-08
-4.98557e-08
7.35533e-07
3.78257e-07
-9.97926e-08
-1.70257e-09
-0.000419772
1.77129e-09
7.68079e-07
-2.00666e-08
-6.45774e-05
3.50994e-09
2.71004e-07
0.0016792
0.000386243
6.50602e-09
2.25361e-08
0.000193048
1.60393e-09
-0.00287994
9.32696e-08
-5.17267e-07
-0.000278408
-2.63254e-09
3.11754e-08
0.00392047
-6.19651e-09
-1.41572e-06
-3.3841e-09
7.9629e-09
1.34576e-06
-6.64986e-09
5.4401e-07
-7.20516e-06
-0.00188303
-0.00173977
3.58607e-08
-7.59579e-09
0.00664246
4.64988e-09
-3.0112e-07
-0.000961367
-3.89479e-07
1.77404e-08
3.91548e-07
0.00521561
3.45359e-08
7.69976e-09
-2.0407e-06
-4.43819e-09
0.00647019
1.15143e-08
0.000548223
-3.18931e-08
0.00172271
4.53738e-08
-0.000218448
-1.17131e-08
-4.74206e-08
-0.000772513
-2.26736e-06
0.00210798
-1.44429e-09
0.000589777
6.7086e-09
2.36797e-08
-0.000396728
1.40266e-06
0.00152614
-2.39098e-09
-2.43476e-08
-3.29424e-09
-0.00152187
-1.52188e-08
-4.4543e-07
0.00856415
5.14583e-09
2.65535e-08
1.82874e-08
2.21926e-06
0.00662828
-0.00395109
-6.93697e-08
5.08431e-09
0.00294822
0.00125488
8.49501e-08
-2.57193e-06
-2.07676e-10
0.00107707
1.55968e-07
-0.00218953
4.18396e-08
1.17814e-07
3.75903e-06
0.000436947
-4.8124e-09
4.27043e-08
-1.48999e-08
-4.83265e-05
-4.39842e-06
0.00342744
0.000366093
1.00832e-08
-6.49058e-08
-1.50263e-06
-0.00637102
1.22334e-07
-0.00206581
4.6251e-09
-2.57897e-09
-1.35896e-08
-0.000453428
-7.83454e-05
3.19842e-06
4.37589e-09
6.63101e-05
3.99738e-08
2.47283e-07
-3.08676e-09
0.0013925
-0.000774681
0.00187582
-0.000750831
-3.30269e-07
-3.03333e-08
-1.14048e-08
-6.64139e-09
-0.00628391
-0.00516578
1.18666e-08
7.50865e-09
-5.28814e-05
0.00098226
-3.61994e-07
-1.31423e-07
3.01492e-08
9.75336e-09
0.000887081
-0.00128722
5.47317e-07
-0.00135831
-5.65112e-09
0.00118557
7.39973e-10
3.28486e-08
0.00196945
1.9993e-08
0.000265221
0.000552337
8.01715e-09
1.78812e-08
-1.88578e-08
-1.27146e-07
0.00413577
6.02022e-07
-1.87624e-08
-0.000809958
1.9638e-08
1.18275e-07
2.25662e-06
0.00229064
-1.61628e-06
-4.77649e-10
1.21566e-07
4.08815e-09
0.00064471
-1.10406e-05
8.42617e-09
4.00478e-08
-1.51615e-06
-2.24258e-08
5.89825e-09
6.0393e-09
2.16979e-08
-2.16366e-08
-0.00111845
-0.00995377
0.0016193
-1.78227e-06
0.00238172
0.00222342
5.82161e-10
-1.28922e-08
-2.90023e-07
-4.27016e-06
8.24782e-06
3.53486e-07
-0.000271769
-1.29097e-06
-0.0047894
0.000984026
2.3624e-09
0.000654526
0.000597594
-0.000393662
4.54205e-09
7.0437e-06
-0.00145518
2.84993e-08
-0.00318622
3.50204e-08
5.3368e-09
-5.57727e-09
-2.00001e-09
1.13421e-08
0.00109967
0.000444265
-9.67915e-09
2.62047e-08
2.48113e-08
-0.0035053
5.3701e-07
-0.0032741
0.00196635
-6.00133e-09
-1.17453e-06
-1.9605e-08
-0.00280993
-1.95577e-08
7.70102e-09
4.80945e-06
-0.000282942
-4.24052e-11
0.00567738
-3.42845e-06
-6.24423e-08
0.00041738
0.000852064
0.00106481
1.5746e-06
-5.06188e-09
1.05441e-08
-1.58892e-06
1.0064e-07
-0.00659552
3.01136e-09
0.00185412
0.000763875
1.63526e-08
1.03681e-08
0.00144539
0.00013435
0.00540983
-0.0012673
7.42696e-06
-2.0419e-08
7.79885e-09
0.00160442
-1.15435e-09
1.48593e-07
9.67773e-07
2.00972e-08
-8.59354e-09
-9.0066e-11
-1.1386e-08
1.17208e-06
6.33956e-06
0.000811419
-1.66135e-06
1.45495e-07
8.09932e-06
-0.00136293
1.89921e-07
0.00192219
2.99492e-08
-0.000275199
5.54239e-09
-3.38766e-09
9.20131e-09
2.79158e-05
-0.00195951
1.44069e-06
8.86927e-06
0.000870524
-0.00103395
8.77526e-05
-5.18457e-09
-4.15149e-09
-2.25471e-08
-0.00325682
9.21852e-09
0.0043535
-0.000879115
-1.3989e-06
0.000498729
-5.42643e-07
-0.000174832
-0.00126953
0.00127378
-2.98647e-09
-3.98946e-08
6.89302e-08
-0.000480813
2.05561e-09
-2.70417e-08
-5.97994e-07
2.03737e-07
-2.47155e-06
-0.00330776
-1.46224e-09
4.80877e-08
-2.26992e-05
8.85782e-07
-2.62585e-08
-0.00503391
-5.68693e-09
6.14039e-07
-1.16542e-08
2.19985e-06
-7.69497e-08
-2.53248e-08
-5.32907e-07
-0.00121616
-1.15011e-08
1.20179e-08
-9.28954e-11
-1.71544e-06
-8.32864e-05
1.27959e-08
-4.37954e-08
9.92573e-09
9.16779e-09
-0.0081158
4.52922e-09
0.000372972
-3.19947e-09
1.08047e-08
-0.00900818
0.000463674
-8.52626e-10
-9.65336e-07
1.71988e-07
0.00190276
0.00114748
5.18845e-08
0.00203716
-1.26879e-08
7.79379e-08
2.72309e-08
-0.00216229
5.95642e-09
-0.00171313
-2.84662e-06
2.11722e-08
-4.25974e-06
0.000238853
-4.67894e-07
-0.000701341
1.46781e-08
-7.962e-06
-5.77422e-09
5.46393e-09
-2.94828e-09
9.29015e-09
0.000209986
3.70479e-07
-7.80364e-07
-1.75503e-05
-3.3135e-06
-1.18564e-07
-0.00269987
-0.0020337
1.83217e-08
-5.07086e-09
0.00181559
0.00406221
0.00207539
-5.20218e-09
-0.00210098
0.00203694
0.00619553
8.04396e-07
-4.92591e-06
0.00263249
-0.000304298
0.000447547
-0.000989163
0.00351054
-7.39766e-08
0.00253199
0.00277061
5.0555e-09
-0.00061594
3.00296e-07
0.000398588
5.35937e-08
-4.9878e-10
1.15769e-08
2.56942e-08
8.91993e-07
3.56619e-06
-0.0174398
-0.00207899
2.22956e-09
0.00072182
0.000480161
0.000949593
-0.00196872
1.52583e-08
-1.63365e-08
-9.44814e-09
0.000473166
-0.00244997
4.78704e-09
-8.05851e-07
-2.35067e-06
2.62175e-08
-1.49868e-05
0.00331053
-0.00158814
8.64302e-07
0.000252146
0.00301708
-1.1523e-08
1.94719e-08
0.00821817
0.000673609
-1.53734e-06
1.13868e-09
-7.96102e-06
8.13287e-10
2.5161e-09
0.00478893
2.03247e-08
5.13221e-08
-7.95678e-09
-1.01883e-09
0.0028433
1.03681e-06
4.15696e-06
1.59335e-08
0.00844694
-0.000449306
-7.92327e-09
7.07309e-09
7.72567e-08
5.42877e-09
0.0010523
-0.00177121
-0.00102969
0.00573434
-0.0017292
-1.75893e-09
0.000349944
0.000477684
-1.78941e-06
1.23745e-09
-1.45463e-08
1.00693e-06
-5.05739e-08
-0.0016327
-0.00587558
-7.68274e-07
-2.43687e-08
-1.06692e-08
4.17722e-07
-9.4798e-08
-0.00118381
6.74325e-07
-3.74421e-09
-1.94054e-06
1.2298e-09
-1.11112e-08
1.29766e-06
2.63691e-08
-2.39018e-08
2.54809e-07
1.87673e-08
5.91908e-07
1.50973e-05
1.28828e-06
5.82301e-07
-1.81475e-06
-1.1651e-08
0.000859427
4.44153e-06
0.0039418
2.88815e-08
1.64749e-08
0.00379764
-3.39645e-07
-0.000785248
0.000974216
-0.000879713
0.000913152
-4.53318e-09
0.0036541
-3.35322e-07
-1.92633e-09
5.95383e-09
-9.51815e-10
-1.13162e-05
-1.66071e-06
2.55981e-06
1.13022e-08
0.00278407
-2.51911e-06
0.00352744
-1.33293e-08
3.8591e-09
1.60288e-08
-4.86161e-07
0.00998616
-1.32551e-07
-1.19648e-08
3.55081e-07
7.72983e-09
1.43608e-08
1.6839e-08
-3.90044e-05
-0.00148633
1.55227e-08
8.38365e-09
7.05533e-09
1.74614e-08
0.00171697
-0.00138903
3.11512e-07
-0.000329135
0.000809148
-2.32028e-08
-5.64896e-07
0.000508841
1.55529e-08
0.000696755
2.81408e-08
-1.61674e-06
-1.1069e-07
-1.49953e-06
-0.000254204
-1.92878e-09
0.00428795
9.39134e-09
-1.14404e-08
0.000557407
-1.89365e-08
-1.70744e-07
-7.88243e-06
7.31148e-09
2.87739e-08
-0.00211666
-0.00759751
6.57591e-07
-0.00127951
0.000868182
-8.7229e-09
-1.62482e-08
-0.00720982
-6.46418e-07
4.02875e-06
0.00105293
2.31874e-08
2.09328e-08
5.90195e-09
-0.00433206
0.000805839
3.01533e-07
6.97586e-08
-0.000484666
3.5058e-09
1.65679e-08
-0.000916386
9.64101e-06
0.000297093
2.35735e-08
1.97931e-08
0.000390063
-0.00144773
-1.80278e-06
1.38301e-07
0.00350121
-6.68882e-09
-0.000573528
-9.5898e-07
-1.63592e-06
9.3732e-08
-2.07074e-05
2.99753e-06
2.2385e-07
0.000230854
1.79592e-08
3.41742e-08
-8.3489e-08
-1.27225e-08
-0.00162047
-6.84426e-09
6.35384e-07
2.93042e-06
-0.000806541
-7.47167e-09
-0.00488641
1.40093e-08
2.65965e-06
9.10797e-09
-2.20654e-08
6.91936e-09
0.000508537
1.61043e-08
5.75692e-09
-0.00386329
1.90276e-08
0.00043054
4.13249e-09
-8.54179e-08
-2.22385e-07
0.002161
-0.000489855
2.57467e-09
0.00256552
-0.000669626
6.80017e-10
0.000794553
-9.21015e-09
-1.23043e-08
8.48364e-05
0.000501494
0.00554692
1.73513e-07
3.46956e-09
4.49366e-09
-0.00199575
-1.9143e-06
1.88409e-06
5.30517e-07
8.15264e-05
-3.70841e-09
1.52945e-08
-9.66724e-07
0.0020666
3.30011e-07
-0.0062985
1.68602e-08
2.47025e-07
2.86088e-07
0.00255332
2.53092e-07
0.00203247
-2.55784e-07
1.67891e-08
-0.00480709
0.00021025
0.00112601
-0.00946767
-0.000437806
0.00179074
-2.68092e-07
-1.23709e-08
-1.3957e-06
0.000768737
-0.00125571
-3.12475e-09
1.60168e-08
1.19677e-07
0.0002618
4.57336e-09
-0.00176264
2.55851e-08
-2.1901e-08
-0.00105548
0.000413981
0.00125054
-2.65452e-09
7.18011e-09
-0.00147791
-1.64646e-05
-1.23771e-06
3.22917e-07
0.00124375
0.000685449
0.00616616
1.80655e-07
2.54113e-08
-2.52096e-08
2.42034e-08
-0.0197003
-1.77581e-07
0.000114374
-1.66624e-05
2.72871e-09
-0.00179439
0.00128879
0.000466015
1.05095e-08
-3.06583e-09
-7.19263e-09
4.47516e-07
-1.63375e-07
-0.000485286
1.16471e-08
0.000637174
1.07628e-09
-1.17029e-07
-3.94644e-09
-9.82881e-07
-3.61212e-09
-3.3519e-10
-0.000559586
-4.97076e-09
2.57486e-06
5.45885e-09
-1.41645e-08
-0.00252138
6.81698e-08
5.97669e-08
0.000351
8.03926e-08
-0.00956592
0.00217557
-4.17384e-08
0.00157334
-0.00142886
0.00045311
0.00125106
2.06223e-06
1.69338e-08
0.000306138
1.15182e-08
0.00325279
0.000545964
-3.15469e-09
1.50223e-08
-1.81632e-05
0.00171747
0.00175561
-1.20032e-08
-2.4206e-09
0.00702645
0.000548705
9.07711e-07
1.9142e-07
1.5491e-07
0.00269512
-0.00215219
4.00935e-07
4.48363e-09
-2.73636e-07
5.79878e-09
2.71455e-08
0.00062254
4.47075e-09
0.00458572
-0.00250657
-2.15757e-08
-6.70177e-07
2.20121e-08
-6.09357e-08
0.000263012
0.000748887
-2.9536e-08
0.00275657
-8.47781e-10
-3.44306e-08
4.99711e-09
4.09619e-09
-9.96035e-12
-1.73824e-08
0.000370478
-2.71863e-09
-5.86734e-08
8.11906e-09
1.81739e-07
0.000943864
-0.00105759
9.80664e-09
0.0104976
6.96857e-07
3.82486e-05
-5.25601e-08
-8.21811e-08
9.98368e-05
-8.5479e-09
2.56427e-06
-0.000745078
-0.00140719
-0.00108164
-1.79376e-07
-0.000239603
4.3822e-08
3.90746e-09
1.45883e-07
0.00182876
1.01674e-08
0.00715867
-1.70861e-08
-9.4535e-09
-0.00744891
1.31005e-06
-0.00115076
9.95824e-08
-4.93346e-09
1.2887e-05
-7.80605e-09
6.87344e-09
-1.01886e-07
3.32491e-08
-2.6524e-06
1.63918e-09
-2.46736e-05
-0.00182007
-1.29435e-06
-0.00477826
2.40555e-08
1.86659e-08
3.04991e-06
2.48696e-08
-4.28609e-09
-1.9602e-07
7.22988e-09
4.0411e-08
8.12066e-08
6.15717e-09
0.000474138
-0.00197955
5.10806e-07
-0.00113504
-4.52511e-05
8.33033e-10
0.00331673
-1.39008e-08
6.41697e-09
-0.000376703
0.000113959
0.00222649
-1.21261e-09
-0.00164596
0.00409186
-0.000886278
3.56828e-09
-0.00197375
2.2467e-08
3.10708e-09
-1.527e-07
9.81188e-09
-0.000371568
0.000116957
-0.00786282
-3.47328e-08
-1.24059e-08
-0.00028523
-4.01932e-08
0.00235634
0.00269708
0.00141013
-0.000154933
0.0015131
1.76378e-08
2.25313e-08
9.37943e-07
-9.7662e-07
1.43183e-08
-4.49008e-06
-1.97742e-07
1.00666e-08
3.52989e-07
-0.000849415
3.45046e-08
0.000707142
0.000253293
0.00183288
-8.97425e-07
1.42007e-08
1.91988e-08
3.33695e-08
-0.000617779
-0.00234273
4.40928e-09
1.80465e-08
-4.06137e-08
3.3239e-07
-1.94314e-08
-4.71083e-08
1.8183e-08
-1.87408e-08
0.000574052
3.6936e-06
-2.38265e-06
6.22293e-09
-2.07855e-07
-0.00256753
1.54721e-08
-0.0046213
0.00231704
-3.94533e-07
-2.8864e-08
1.95639e-08
-3.19034e-10
1.05984e-08
8.73092e-09
0.00048329
-1.50639e-06
-0.000310279
1.72598e-08
-0.000101133
-8.37845e-09
-9.65317e-10
3.88506e-08
0.00649627
-0.000989665
-7.87681e-08
-3.04889e-08
9.49843e-06
0.000389262
1.19866e-08
-0.00213685
-2.29661e-05
0.00987129
-2.08195e-06
0.00116872
-9.98517e-07
2.56488e-08
8.70641e-05
0.000487827
0.000951275
0.00546213
9.55872e-09
-4.88354e-06
-1.77487e-08
6.51019e-08
6.03882e-09
-1.7532e-08
0.00050498
2.37604e-08
-1.6178e-08
0.0019911
1.09706e-06
-0.0061586
1.82414e-09
3.14636e-09
3.83098e-07
5.30233e-08
-1.56091e-06
0.00451605
-0.00454177
0.00372209
1.12828e-09
-7.43638e-09
4.74916e-07
0.0043226
-0.00146663
5.68652e-07
6.09163e-08
2.48314e-09
-0.00227951
-5.03626e-07
0.00383272
-0.000505066
0.00034018
-3.21488e-08
0.00175911
-1.21629e-06
-2.25032e-08
-1.7305e-08
0.00123583
-0.000367598
1.33674e-06
0.000851755
1.45681e-08
-1.73331e-06
-2.24268e-08
-0.000416668
5.3136e-06
0.000485241
-0.00158761
2.23912e-09
-1.15454e-06
4.89293e-09
0.00141858
-1.73753e-05
-7.32486e-09
0.000507794
0.000589656
-8.85821e-05
0.00381074
8.13547e-09
1.99228e-08
0.000317076
-0.00229346
-0.00231042
9.47442e-09
1.33739e-08
-1.51619e-08
0.000455396
-2.0103e-06
3.20838e-08
0.000110789
-1.91854e-06
0.001733
0.00139679
-0.00490166
1.06693e-08
0.00338918
5.83612e-10
-3.97613e-08
-6.72745e-07
0.0104552
8.48585e-09
-2.21507e-08
-0.00087997
0.000969686
-7.33298e-07
2.38116e-09
0.0081729
-3.73623e-09
0.000607815
7.45607e-10
0.00186008
2.96385e-08
-6.32766e-08
0.00550454
-0.00154773
4.35894e-09
-0.000291944
-0.00196553
0.00206387
-0.000514394
0.00868168
0.00012427
1.27148e-08
0.0025824
1.42414e-08
4.21498e-09
4.18173e-08
0.00215156
-2.31207e-08
-0.00122514
-2.32e-08
9.53899e-07
0.000734063
-1.36059e-06
0.00420741
1.88572e-08
2.60254e-05
-1.01986e-09
2.45407e-09
0.00260476
-0.0102537
3.92352e-10
4.27779e-07
-0.00142533
5.04407e-08
1.94738e-08
0.000502925
-3.51414e-09
2.51081e-07
-4.15287e-07
-0.00511057
-0.00148134
0.00207711
0.00375548
0.000196211
-0.000363864
-0.00245305
0.0011715
5.15757e-07
3.66007e-09
-1.16112e-06
1.17706e-08
-3.77859e-10
0.00140518
0.000546639
-2.38383e-07
-0.00562467
0.000113986
0.000639742
0.000609523
0.000212932
9.8946e-09
0.000213206
0.000312242
-4.46266e-07
5.53413e-09
0.000602551
-0.000236532
-0.00311983
0.00170963
1.38321e-06
0.000759899
0.0010806
-2.61304e-09
8.46685e-09
2.57995e-08
0.000916538
-5.88187e-09
9.1332e-07
4.66173e-09
1.52665e-08
-2.79213e-07
-0.00271164
0.00269142
-0.00133248
6.37229e-08
0.00218331
1.73946e-07
1.18202e-06
-6.66644e-10
-5.4694e-09
0.000706125
2.24824e-07
0.000469621
-0.00880034
5.24587e-05
-1.03911e-06
5.60225e-09
4.61769e-07
-8.09615e-09
-2.31883e-06
-4.00264e-07
1.10442e-08
3.32016e-08
-8.00257e-09
-1.07411e-06
1.26173e-08
-8.3349e-08
-6.74973e-07
-7.30464e-08
-2.84317e-05
0.000247593
3.24995e-08
1.17086e-07
1.30228e-09
-3.44231e-07
3.21229e-06
-0.000483749
-7.20312e-06
-1.3555e-09
6.06518e-09
-9.41916e-10
0.00156003
-1.17855e-09
-0.00026194
6.90802e-09
-5.45242e-09
-8.55917e-08
-0.0004892
-1.36939e-08
1.21639e-06
-7.05212e-06
7.65162e-10
-4.40154e-07
-0.00108341
-0.00190202
1.20177e-08
-2.05258e-08
0.000132545
8.89841e-10
4.50195e-08
-8.3627e-07
0.000677699
3.07349e-09
1.46251e-06
-2.91417e-05
0.00250677
2.99492e-08
1.6879e-08
0.000536324
5.88974e-09
0.000427545
-3.20586e-05
0.00305471
3.43271e-08
6.4696e-06
1.94212e-09
0.00143094
-2.08598e-06
-2.97256e-07
-7.9472e-07
-0.00246079
1.16337e-08
0.0032293
0.00316136
1.5327e-08
-0.00270785
-2.44038e-07
-6.19525e-09
0.00153887
1.89311e-08
-4.25399e-10
1.70659e-08
1.00253e-06
0.000699531
-1.92248e-06
2.13122e-08
1.67643e-08
-7.09059e-09
-0.00065735
-7.18332e-05
0.00274417
-0.000772283
1.49464e-08
-2.07339e-06
-5.51565e-09
-0.000295364
-1.94686e-06
0.000290993
-8.29428e-09
-1.06672e-05
5.86173e-09
-0.00138111
1.54411e-06
2.93146e-09
0.00310822
-4.61338e-06
-8.53906e-08
-2.54521e-05
-3.40776e-08
-9.04099e-10
-6.2073e-07
-5.06776e-08
-0.00289494
5.13287e-07
-1.26801e-06
-6.34475e-07
5.254e-07
0.00149691
-4.40807e-05
0.00249821
3.59147e-08
3.01333e-08
-1.06256e-05
-0.00292661
2.39941e-06
0.00118543
2.14972e-08
0.00108723
-0.0014299
-7.40708e-09
-5.9531e-12
1.33552e-09
4.27475e-08
1.20811e-07
-0.000335567
-0.00169661
-0.000110996
5.60311e-09
0.0025595
0.000470191
1.01997e-08
8.03289e-06
0.00187719
0.000401079
3.24243e-09
-4.82922e-07
-1.56984e-08
1.13405e-08
1.50321e-07
1.4061e-07
0.00210322
0.000401758
0.000222316
7.78449e-05
1.4099e-08
7.73129e-07
-1.5401e-07
-1.46418e-09
-4.71475e-09
-3.35345e-09
-0.00152156
6.15721e-09
0.00230253
1.30332e-06
-3.77087e-06
-1.00847e-06
-7.53042e-05
0.000443013
0.00262931
3.7942e-08
1.59913e-08
-6.8681e-06
0.00184452
0.000348198
1.94558e-09
-7.14162e-10
7.1791e-09
-8.67597e-07
1.48826e-08
-1.77233e-06
-0.000247777
1.67543e-08
1.68197e-08
-1.61511e-06
7.47946e-05
0.000275818
0.00172946
1.9331e-09
7.45612e-07
-4.80534e-09
0.00174283
-8.22849e-08
0.000901813
-3.27538e-07
1.64026e-08
-1.56837e-06
9.5299e-09
1.80212e-06
-2.65171e-08
9.23682e-08
0.000488104
-0.000473289
-2.93432e-09
-3.49709e-08
1.34023e-08
0.00229279
-0.00107301
2.013e-08
5.75055e-09
-0.00185507
3.04893e-09
0.000163087
1.04593e-08
-2.9357e-06
-1.52594e-06
0.00027187
2.63636e-06
-1.52045e-07
-5.55563e-10
-3.87909e-07
0.000700576
1.23702e-08
-0.00526718
-0.00773431
-0.00318082
-4.18822e-05
1.0824e-06
0.000584495
1.78183e-08
0.000274363
-7.9582e-09
-0.000112123
-0.000715008
-0.00172294
-0.00229498
-0.00139643
2.18987e-06
0.000484769
-2.32392e-08
0.000212355
-0.0001658
0.000376401
0.000205755
2.41471e-07
0.00168459
-0.0013909
1.1056e-06
-1.57174e-07
2.90308e-08
0.000415164
1.29906e-07
-4.06951e-07
1.84781e-08
4.33943e-08
3.64686e-09
-3.69537e-08
-0.00116454
-5.83148e-06
1.04745e-07
-0.00188341
-0.00108718
8.74946e-07
-1.30162e-08
3.67817e-08
-3.65601e-06
0.000789591
6.09383e-05
2.12427e-07
7.99136e-08
-0.00288462
-1.78037e-06
8.78205e-08
-0.00179334
1.12645e-07
0.00197917
-8.11501e-09
-2.14154e-06
-9.90715e-09
1.89963e-08
7.02865e-07
0.00323784
0.000334908
0.000498309
-1.28332e-06
0.00601538
2.62649e-07
7.02646e-09
1.15419e-08
0.000776743
-0.00295604
0.00212864
0.000172603
2.61339e-09
-2.38504e-08
1.88326e-09
7.78724e-09
-7.11921e-09
0.00107179
5.78668e-08
-0.00166935
5.37552e-07
0.00116496
0.00453948
0.00116996
-8.26087e-06
1.35634e-09
-0.00221085
1.03585e-06
0.00115998
0.000356793
5.1823e-09
0.000246259
-1.3205e-08
0.00271205
-0.00100307
6.57294e-07
-1.21097e-05
-0.00253112
1.67856e-08
4.13096e-06
1.54781e-08
0.000637817
0.000385603
5.35517e-09
5.34607e-09
-0.000126573
-2.27391e-05
1.3406e-06
0.00625422
-9.33039e-07
-3.25512e-06
8.96792e-09
0.00177754
0.000591085
-2.33056e-06
-1.80419e-09
-0.00128951
-0.00748491
-2.66248e-08
7.41469e-09
6.19943e-09
0.000392178
-0.00069403
-3.1661e-09
0.000351368
1.60545e-08
2.70349e-08
1.14802e-08
-0.000749159
0.000245206
0.000384239
0.000238542
-1.85172e-07
1.44707e-08
4.4239e-09
-0.00204978
2.35986e-09
0.00498527
8.10556e-07
-0.00668151
6.21367e-09
1.00511e-08
1.37764e-06
0.00140014
-0.00201418
1.97238e-07
0.00267727
-1.80266e-07
-7.90342e-09
9.22497e-09
-3.16717e-07
5.42885e-07
5.40048e-07
1.6416e-06
0.00110414
2.45164e-09
4.4364e-07
0.00406815
0.00273995
9.61069e-09
0.000440158
0.000584999
1.55074e-08
-9.13739e-05
-3.25281e-07
-0.00213639
-2.9656e-09
-1.58196e-06
3.92909e-08
0.00176163
0.000205832
1.91014e-05
0.00152906
-3.23508e-07
-1.64219e-07
-1.03251e-07
0.000414551
-4.25057e-08
2.34839e-10
-0.00230201
-2.94618e-06
-0.00396721
0.00219379
-3.77236e-07
9.1054e-09
1.92356e-08
0.00136653
-1.31419e-06
-7.24477e-08
-1.94455e-06
-9.13493e-07
5.64318e-08
-2.39935e-08
-0.0041031
5.0933e-09
-0.00211988
0.000985203
-1.17821e-06
0.00013116
-9.22933e-07
0.00179754
-4.3881e-08
0.00692012
0.000249247
1.57788e-09
-1.44293e-08
2.22197e-08
8.22547e-09
-2.58115e-07
5.54145e-09
0.000621139
-2.81329e-07
-0.00138013
-1.78139e-05
2.37736e-09
2.04539e-08
1.67433e-08
0.00281134
-6.94498e-09
4.76119e-10
-7.2274e-06
1.13617e-08
-0.00495049
0.00158898
-8.86666e-07
9.07232e-07
8.54461e-09
1.96177e-08
1.49635e-08
-8.48352e-06
4.61326e-08
9.15171e-09
-0.000144066
0.0010938
9.79139e-05
1.86234e-08
-0.00136738
-0.014663
4.56701e-09
-0.00116654
-0.000709598
-1.85407e-12
6.15034e-09
-4.37557e-09
0.00360885
-0.00113957
-0.000574554
4.01946e-08
1.33507e-08
4.23461e-07
1.24071e-08
1.06653e-06
4.77923e-08
5.76575e-05
-0.000486255
0.00235798
4.36639e-09
6.55442e-09
2.04669e-08
0.000200571
-3.93022e-08
-0.00149106
0.000724242
0.00217975
0.000147236
0.000743147
0.00250656
-1.75768e-07
-2.40961e-05
0.0004751
1.37359e-08
1.9393e-08
7.82918e-09
0.0013979
0.000673197
-0.00179916
1.41802e-08
0.00199723
-1.96781e-08
-3.06478e-07
6.65362e-08
4.21179e-08
1.13053e-08
2.73455e-09
-0.00117564
1.55085e-08
0.00333648
-0.00785549
-0.00173004
-5.31389e-07
-1.65337e-07
-0.0011912
0.000461501
1.62845e-10
-0.000263357
2.51593e-08
9.35445e-09
-1.09896e-08
0.000148886
4.54347e-08
-0.000197526
-8.81391e-07
-0.000321754
2.85783e-06
0.000255518
-0.00156835
2.8218e-05
3.89231e-10
-5.62053e-07
-1.89959e-06
-0.000838859
-2.44891e-08
-3.89166e-09
8.43071e-09
0.00184992
-5.57536e-08
7.0612e-07
-0.000890883
5.37142e-08
-7.95788e-07
1.56827e-08
-0.00114357
3.36635e-08
0.000859378
-1.95229e-09
7.3361e-06
-6.05604e-09
1.66316e-08
-0.000715934
-0.00235542
1.26075e-08
-4.22371e-07
9.14435e-08
-0.00182563
0.000295599
0.000178457
0.000193024
2.69128e-08
5.27458e-08
-2.78301e-06
3.91097e-08
0.000107096
6.38734e-07
-4.11228e-07
8.67665e-10
0.00132995
0.000328125
1.10369e-08
0.000426301
7.40414e-09
-7.7154e-08
-0.00180438
-0.00131216
2.75208e-06
0.000471041
0.000241409
2.68706e-09
0.000512399
-2.02615e-06
-4.08884e-09
1.52337e-08
0.000504679
1.05301e-08
0.00280718
0.000631509
-1.90574e-06
1.38042e-10
-1.79563e-06
0.000483812
-5.58797e-09
0.0038586
1.31961e-08
1.20951e-08
0.00036676
-0.001158
1.102e-08
0.00082229
-0.00336715
-0.000204277
3.21256e-08
-0.00146839
0.00167349
-0.00173802
8.06291e-09
-3.24857e-06
1.14402e-08
0.00118498
-5.47285e-05
-0.00119334
-0.000581967
1.22023e-08
-4.77172e-08
3.0185e-09
-0.000896709
0.00369552
-0.0102328
-0.00168378
2.96015e-09
0.000806485
0.000394891
-1.30968e-06
0.000155183
0.000498207
9.90554e-07
0.0025699
7.23936e-09
1.24542e-08
0.0035356
-0.00278676
3.11339e-07
-0.00756496
4.34852e-08
-2.62986e-10
0.000553451
0.000407312
0.00344225
0.000211202
3.0957e-07
2.41611e-08
4.1696e-09
0.00170764
-0.00250007
1.13478e-08
-1.17661e-07
-0.00244733
1.17365e-08
-3.51449e-08
-0.00107361
0.000126904
3.56001e-08
8.80513e-09
1.37744e-08
-1.22145e-07
0.000394131
1.22663e-08
4.19331e-08
2.12564e-07
8.45962e-05
0.00216676
7.19896e-05
0.00230593
8.25868e-09
1.26816e-07
0.000372296
0.000521335
7.1082e-07
0.00149759
-2.37602e-09
-5.88147e-08
-1.15281e-07
1.6561e-06
-1.44465e-06
3.14512e-08
-0.00232247
9.43943e-07
1.84654e-08
8.16382e-08
0.00136615
0.00123247
0.000467062
1.38582e-08
5.32134e-08
0.00121126
-0.00384124
3.90354e-09
-4.20505e-08
4.52734e-09
0.000378275
-3.76528e-08
1.74841e-08
1.34928e-08
-1.49822e-08
0.000487107
0.000913203
1.08077e-08
5.00376e-08
-8.72664e-09
4.36554e-08
0.00854008
0.00143989
5.38747e-07
-0.000605844
-2.45234e-05
2.24012e-08
-5.17615e-09
9.21984e-09
1.23733e-08
2.90045e-08
3.26066e-08
-2.73627e-06
-0.0016136
4.64374e-07
1.26896e-06
0.000474662
0.000476664
-9.49411e-09
1.2296e-09
1.25147e-08
0.000501704
2.4223e-08
0.00131184
-0.000164418
-5.35515e-06
-7.68704e-07
0.000425023
-4.54943e-08
0.000493218
4.02152e-09
-6.69797e-08
-6.33073e-08
-3.19468e-08
1.7631e-06
-0.00215179
7.48393e-05
-2.16071e-07
0.00141418
0.00024302
-0.0172891
-5.96755e-09
0.000443426
-0.000205417
1.15114e-06
0.00165926
-0.000637975
-6.05835e-07
-0.000744579
1.72224e-08
7.26574e-08
-0.0114143
1.58938e-08
3.7432e-08
0.00420405
7.94368e-05
-0.0126884
-1.1631e-05
2.29925e-08
-1.91996e-05
-3.45567e-08
2.52233e-05
5.2752e-08
0.000127059
-0.00584992
-0.00196571
0.00270225
-3.44233e-08
1.39583e-08
3.77325e-08
-0.00492682
0.00055735
-1.73144e-06
0.000664948
7.30393e-09
0.00155477
0.000228883
0.00294177
-2.23675e-07
-3.76124e-08
-1.46731e-07
-2.72727e-07
-1.07288e-08
-4.73003e-08
3.37757e-08
0.000468535
6.08338e-07
0.000483486
-0.000137824
0.00155162
-6.27746e-07
-7.10606e-09
1.18338e-08
1.65749e-07
2.78109e-09
1.9597e-08
0.00162639
0.00260624
0.00672849
0.00179678
2.05784e-08
-0.00135996
-9.51412e-07
0.000912598
0.000405836
4.85517e-08
-4.89512e-08
0.000718082
-1.79425e-08
1.20218e-08
0.00245229
0.000526472
0.00176653
-2.07634e-08
-1.71557e-08
-1.91988e-07
-1.45675e-07
0.00302547
3.06717e-08
1.29146e-07
1.5722e-05
-7.2645e-09
5.33505e-05
-1.72086e-07
0.000273657
3.01625e-08
-3.32056e-05
-0.00593476
9.09689e-07
0.00142029
5.99183e-07
0.000433497
-6.99464e-08
2.30445e-07
-1.84871e-08
1.26883e-07
-0.00126405
1.21036e-08
-0.000426728
9.27635e-08
7.27656e-09
7.81234e-09
0.00146319
8.47053e-08
1.07635e-06
0.00321531
7.34523e-09
1.29092e-06
0.00214664
-8.79069e-07
6.26735e-08
-2.67138e-07
1.31986e-08
6.36494e-07
-2.82882e-08
3.03731e-10
0.00160902
0.00270227
0.00118924
-6.26395e-05
-5.54541e-05
-0.000689446
-4.42162e-07
0.0021155
-8.89885e-07
-7.23091e-08
4.50085e-10
4.02252e-09
2.64454e-08
0.00196868
0.00145539
2.65038e-08
-0.000668061
0.0011934
-1.8933e-09
4.40154e-07
1.21479e-08
0.00229344
-0.0015274
0.00052841
-0.010076
0.000578268
3.72952e-09
1.11056e-06
1.0916e-06
-0.000445682
0.00367496
-7.23468e-09
-1.80731e-06
0.00136171
7.39041e-07
-0.00734128
1.95724e-08
0.000203764
0.000375415
0.000703442
-5.32743e-07
4.24952e-08
0.000533523
-2.03789e-06
0.000605785
0.00109022
0.000435472
-3.50603e-07
-0.00129652
-2.67969e-08
-1.98708e-06
9.24885e-08
0.000352221
0.000371143
0.000386925
4.03387e-09
-1.55162e-06
-2.22108e-06
4.62259e-09
-0.000239296
-3.10801e-10
-1.09157e-06
0.000442657
1.9018e-09
-0.00191529
0.00135619
0.000916204
0.000510001
0.000141782
0.000734862
6.14872e-10
0.00218307
2.08422e-08
-5.38168e-08
2.7298e-08
8.22677e-09
0.000537802
3.33527e-09
5.73936e-08
2.34835e-08
-4.84431e-08
0.00316558
3.55102e-08
-5.39051e-07
0.000479006
4.67226e-09
0.000184187
1.20553e-06
4.94147e-07
0.0020218
-4.06987e-06
-7.71607e-10
0.0069321
1.12221e-08
0.00118041
-0.00200872
5.28038e-08
-1.4498e-06
3.47034e-08
0.00251961
0.000593528
5.26435e-07
0.00950713
1.33889e-06
2.84262e-09
0.00169116
9.44524e-09
2.5197e-08
0.00176333
-8.55019e-08
7.91649e-09
2.47585e-08
-1.07537e-06
1.4975e-08
0.000490006
-1.69409e-06
5.10277e-05
-0.00123561
-1.75384e-07
-9.86286e-07
-3.15985e-09
0.00261942
0.000211128
-0.00426043
8.34547e-09
-3.40975e-08
6.83645e-07
3.71651e-07
0.00388889
2.09799e-08
-0.0027169
-4.42757e-08
4.9523e-05
1.48626e-08
7.28657e-05
-5.72464e-06
-8.31228e-07
0.000248321
-0.028572
-0.00108719
0.000555221
9.42765e-09
0.000425828
0.000571968
0.000314298
1.36219e-08
1.06809e-05
0.000303373
-0.00207311
-1.30574e-06
-0.000225137
-0.000211683
0.00274995
-1.39758e-07
-1.17732e-05
1.44109e-09
1.15345e-07
-9.06545e-08
-6.61067e-09
-3.16678e-07
-0.00331624
0.000451843
-0.00213173
0.000303892
1.04956e-08
-1.62495e-08
4.04249e-06
-6.18834e-09
-0.0013171
3.18502e-08
2.29729e-08
0.00258443
-2.2866e-05
-2.5025e-06
1.34105e-06
1.23785e-08
-2.54993e-06
-0.000683932
0.000572156
-0.00113794
1.55439e-08
0.000592588
-4.48656e-07
-1.44201e-09
1.99855e-08
0.000483653
-0.000153024
-1.47465e-06
-2.73997e-05
7.53416e-09
3.56043e-08
-7.37948e-09
1.35716e-08
-3.79724e-09
-0.00948878
0.000848359
2.49182e-08
0.0001612
0.000518556
0.000296463
-0.00141747
5.87744e-09
-4.37717e-08
5.38558e-05
8.28128e-09
-2.57104e-05
-7.17814e-09
5.03111e-09
0.00432211
0.000557555
3.3891e-08
-7.64758e-08
-6.42801e-09
-1.57825e-06
-0.00137236
-0.000483107
0.00243334
-3.89261e-08
-8.05057e-07
0.00177943
-6.05381e-07
-1.49569e-06
-0.00362908
0.0015144
0.00335016
0.00192933
2.53673e-08
-0.0020623
-5.18288e-08
4.20734e-07
-1.73773e-08
-6.60333e-07
0.00319767
0.000337215
-0.00254566
-0.00140976
-5.90273e-07
9.78294e-09
2.1209e-11
-2.90213e-08
8.34394e-09
5.16824e-08
0.00251248
0.00143984
-5.91927e-07
0.00297322
3.62946e-08
-7.18443e-07
6.47652e-09
0.000828534
1.31666e-05
-7.33429e-09
-2.91629e-06
1.34055e-06
-0.00135057
0.000330915
-1.44692e-06
0.00224459
1.03055e-07
-0.00389683
-8.31119e-06
0.00312207
-0.00132888
-3.11999e-07
-7.90387e-07
-1.30428e-08
-0.00192429
-0.00105206
-2.15468e-07
0.00283966
-8.55718e-06
0.00318127
-1.1845e-06
-9.51132e-06
9.37511e-07
3.27143e-09
-1.627e-06
-9.2901e-07
3.50582e-09
-8.80818e-07
-5.34996e-08
3.00481e-08
0.00311647
-1.49172e-06
-1.0395e-07
2.35716e-07
-6.9776e-08
9.35629e-07
5.72527e-07
0.00059863
7.33594e-07
-0.000497102
-0.00286483
-1.66763e-08
0.000473872
5.88036e-09
-1.33738e-07
5.5536e-08
0.000516233
7.64429e-07
0.000501306
0.00176388
-9.0827e-07
-6.94872e-06