/*--------------------------------*- C++ -*----------------------------------*\
| =========                 |                                                 |
| \\      /  F ield         | OpenFOAM: The Open Source CFD Toolbox           |
|  \\    /   O peration     | Version:  v2012                                 |
|   \\  /    A nd           | Website:  www.openfoam.com                      |
|    \\/     M anipulation  |                                                 |
\*---------------------------------------------------------------------------*/
FoamFile
{
    version     2.0;
    format      ascii;
    class       surfaceScalarField;
    location    "200";
    object      ddtCorrDdt0(phi);
}
// * * * * * * * * * * * * * * * * * * * * * * * * * * * * * * * * * * * * * //

dimensions      [0 3 -2 0 0 0 0];
oriented        oriented;


internalField   nonuniform List<scalar> 
20537
(
-0.000260495
-0.000452608
0.000713106
0.0181508
-0.0190684
0.000917821
-0.000294627
0.0027314
-0.00243677
-0.000478589
0.000624051
-0.000145458
0.000573954
-0.00110334
0.000529388
-0.0333497
0.0182231
0.0151265
5.41251e-05
-3.21899e-05
-2.19351e-05
0.000507806
0.000396754
-0.000904567
-3.66527e-05
4.61157e-05
-9.46137e-06
-0.00126903
0.00533629
-0.00406727
-0.0171985
0.0574775
-0.0402789
0.0240563
-0.0143231
-0.00973301
0.00148507
-0.00290999
0.00142503
-0.00854782
0.0106864
-0.00213855
2.86272e-05
-1.66838e-05
-1.1943e-05
-0.000192208
-0.000797916
0.000990122
5.44863e-05
0.000104481
-0.000158967
0.00133576
0.000473696
-0.00180946
0.00458316
-0.00300859
-0.00157445
-4.22292e-05
5.57775e-06
-0.000456128
-2.2464e-05
0.00216338
-0.002458
8.06004e-07
2.29356e-07
-1.0356e-06
-3.24639e-06
-8.4345e-07
4.09012e-06
3.10734e-07
4.95307e-07
0.0012482
-0.00074039
-0.000115584
3.13542e-05
8.42298e-05
0.00118299
0.000259889
-0.000552894
0.000292394
0.000244861
0.000138208
-0.000383065
-0.0109308
-0.0224189
0.00018644
-0.000131954
0.00236545
0.000365943
-0.00453557
0.0138492
-0.00931361
-6.70157e-06
3.45566e-06
0.000765491
-0.000758405
-7.07503e-06
-0.000210124
0.0011912
-0.000981056
-0.00664504
0.00167083
0.00497427
0.00417274
-0.00544177
0.0272827
-0.0318183
-5.95168e-05
4.71502e-05
1.23664e-05
-5.78873e-06
-1.03543e-05
1.61422e-05
-0.00288586
0.00115246
0.00173318
0.0438959
-0.00425558
-0.0396403
-0.011573
0.0554689
0.0129208
-0.00882297
-0.00409974
0.00426901
-0.0340975
0.0298284
-0.043727
-0.018924
0.0626509
-3.26334e-05
-8.29506e-05
-0.0143176
0.0175026
-0.00318493
-0.000292846
0.000251123
4.17221e-05
-6.92427e-05
-0.000701229
0.000770476
0.000395419
2.45973e-05
-0.000420047
-3.15221e-05
1.83491e-05
1.31733e-05
2.68331e-05
-2.543e-05
-1.40304e-06
9.56945e-06
-1.53574e-05
-6.80884e-06
4.99452e-06
1.81452e-06
-0.00113384
0.000340798
0.000793016
0.000279401
-3.45331e-05
-1.98001e-05
4.99675e-05
-3.01675e-05
-0.00588822
-0.000756827
-0.0140495
0.0108145
0.00323504
-0.0119442
0.00804966
0.00389462
0.00094379
-0.000811924
-0.000131841
0.0158926
-0.0325051
0.0166125
0.00123775
-0.0011173
-0.000120434
5.1163e-05
-0.000261285
0.0011074
-0.00738418
-0.000111076
-8.60966e-05
0.000197173
0.00155492
-0.00021916
-0.000529662
0.000673272
-0.000143607
-0.000908105
0.000502657
0.000405457
0.017587
0.000563736
-1.5877e-05
-1.56449e-05
4.37882e-06
-1.68107e-05
1.24316e-05
3.17462e-05
3.58912e-05
-6.76338e-05
0.00034523
0.00181814
0.000375822
-0.000289648
-8.61735e-05
0.00043528
-0.00013346
-0.000301821
-0.000545757
3.16198e-05
-4.97184e-05
4.63592e-05
3.35554e-06
-0.0507767
0.0664974
-0.0157207
-3.06303e-05
1.26492e-05
1.79817e-05
0.00812334
-0.0108146
0.00269112
-0.00582606
-0.00611812
0.0167727
0.00728354
0.00353941
-0.0154874
0.0119479
0.0370182
0.00197098
-0.0389891
-6.15732e-05
0.000165765
-0.000104191
8.61403e-05
-0.000163258
7.71169e-05
0.000185872
0.000579619
-0.00880095
0.0036507
0.00515024
0.0205279
8.34874e-05
7.78892e-05
-0.000161378
7.55561e-05
-0.000137128
-2.91188e-06
-4.26989e-07
3.33912e-06
-0.000445003
0.00101895
-0.00545477
0.00379039
0.00166424
-0.0246825
0.0103649
-1.20163e-06
-1.71035e-06
-0.0179611
0.019368
-0.0014066
-0.000311
0.000110783
0.000200216
-6.42987e-05
-0.000111273
0.000175569
7.31512e-05
-8.17473e-05
-9.55173e-07
2.73725e-06
-1.78297e-06
-0.0118947
-0.00123643
0.0131312
0.000219446
-0.00017227
-4.7176e-05
1.80539e-05
-7.9382e-07
-1.72605e-05
-0.000692003
-0.000549235
-0.00635241
0.0245755
-5.46513e-06
1.74923e-07
5.29037e-06
0.000306088
-0.000219948
-0.00399333
-0.00480762
-1.69652e-06
1.69695e-06
-2.60226e-06
-2.8629e-06
0.00788519
-0.00292819
-0.00192029
-0.00353452
1.10296e-05
-1.05847e-05
-4.44232e-07
-1.21161e-05
1.35643e-05
-1.44849e-06
-5.01384e-06
2.03727e-05
-1.53587e-05
-0.00297096
8.49675e-05
-2.5175e-05
9.83252e-05
-0.00196798
0.00345306
-0.0678255
0.00371051
-0.0474376
-0.000385131
-0.000718643
0.00110377
-0.0601899
0.0639004
0.000125542
0.000165995
-0.000291541
-0.000252998
-0.000203133
-0.0029821
0.00163724
0.00134484
-8.65855e-06
-5.08582e-05
1.26809e-05
-1.29402e-05
2.60635e-07
-0.000712243
0.000182581
-2.23066e-05
-8.32319e-06
0.0271106
-7.22348e-06
7.65843e-06
-4.34151e-07
7.03699e-06
3.9928e-06
0.000438693
-0.000712243
0.000273563
0.00667464
-0.00255321
-0.00412135
-0.00132148
-0.0161076
0.0174291
-0.00320532
-0.0147552
1.71666e-05
9.66699e-06
-0.000657744
-0.000455104
0.00111283
-2.6029e-05
5.17581e-05
-2.57303e-05
-3.57266e-05
9.97115e-05
-6.39818e-05
0.0184525
-0.0227081
-0.00302982
-0.00074146
0.00377128
-0.00150251
-0.0014796
2.78427e-05
2.62824e-05
-0.0679167
0.0563437
0.000114517
0.000119708
-1.65674e-05
2.08888e-05
-4.32116e-06
-0.00721718
-0.00133069
-3.20241e-06
-3.60635e-06
7.24129e-05
-5.71787e-05
-1.52316e-05
6.04623e-05
-9.61895e-05
-1.10934e-05
-4.02398e-05
5.13324e-05
-0.00014932
7.67317e-05
7.25804e-05
0.000883252
-0.000952492
-0.000134487
-0.000158361
-1.34542e-05
1.43741e-05
-9.19361e-07
0.000122842
-2.24404e-05
-0.000100401
-0.000477347
-0.000656514
1.50053e-05
-2.32365e-06
-0.000808894
0.00099503
-0.000186136
1.47653e-06
-4.22523e-05
4.0774e-05
0.00402856
-0.00705837
-0.00018799
7.69128e-05
6.27913e-05
-0.000315791
-0.00638292
0.00797792
-0.00159523
8.29603e-05
0.000292871
2.91069e-06
-8.86278e-06
5.95277e-06
3.25236e-05
-4.36181e-05
0.0142938
-0.0156152
1.42476e-05
7.58119e-07
0.0182456
-0.0371695
-0.000249613
0.000375155
0.000934688
-0.000733681
-0.000201012
0.00330185
0.00128138
-1.99374e-05
-5.09863e-06
2.5036e-05
-0.000163457
-6.2632e-05
0.000226091
-0.000469408
6.91436e-06
-2.55839e-05
1.86701e-05
-0.00211405
-0.000343937
4.91136e-06
2.74818e-06
-7.65952e-06
9.47262e-07
-5.14666e-06
4.19949e-06
0.00159444
-0.000356691
1.28174e-05
-1.78313e-05
0.00150439
-0.000746077
-0.000758307
-0.00416182
0.00948214
-0.00532046
-0.00311517
-2.80693e-05
0.000423542
-0.000212606
-0.00029662
0.000509225
-8.69156e-05
-0.000139254
0.000226172
-0.0134596
-0.000589851
7.34782e-05
-3.9601e-05
-3.38761e-05
9.93194e-05
-0.000757068
-0.0951868
0.0279123
0.0672744
0.000845677
8.90101e-05
-4.93831e-05
8.1129e-05
0.000654738
-0.00103987
0.0162317
-0.00525668
-0.0109761
-1.40054e-05
3.3247e-06
1.06804e-05
-3.86883e-05
3.05931e-05
8.08874e-06
0.00408551
0.000754349
-0.00483994
-2.1286e-05
2.8201e-05
0.0342321
-0.0074914
-0.026741
9.99682e-05
4.79649e-05
-0.000147932
-0.000798728
0.000167758
0.000630968
-1.55742e-05
6.34208e-06
9.23156e-06
-0.000172982
0.000630899
-0.000457911
-0.000149887
8.55863e-05
-0.0330717
0.110165
-0.0770932
1.34454e-05
6.62038e-06
-2.00661e-05
-2.38153e-06
-5.46501e-05
5.70311e-05
-0.0246668
0.0515657
-0.0268989
-0.0107445
0.0109393
-0.000194745
0.00871478
0.00420509
-6.73129e-06
-1.59057e-05
2.26374e-05
-0.000691946
-0.000106783
0.000162331
-6.23623e-05
-9.27474e-06
-4.04467e-05
-0.00189579
0.00120194
0.00069383
-2.9598e-05
-0.00123981
0.0012694
4.64977e-05
-0.000584745
0.000538248
8.12795e-06
-7.67218e-06
-4.5616e-07
0.00016029
-0.000259671
9.93802e-05
-7.55272e-07
-1.99957e-07
0.00131324
-0.00112732
-0.000185981
-4.83864e-06
1.8284e-05
0.000671201
0.000576993
-0.00425843
0.0385371
-0.0342787
-4.39766e-06
7.30854e-06
9.34807e-05
7.65235e-05
-1.61866e-05
-6.03364e-05
-0.0051526
0.00536148
-0.000208878
0.0125683
0.0216638
-0.00651384
0.0224065
4.96011e-05
-7.56304e-05
-1.32632e-05
-2.54285e-05
0.0265761
-0.037507
0.039162
-0.0279116
-0.0112504
-0.000216335
0.000136742
7.95937e-05
-0.00179922
0.00588468
2.10727e-07
2.52666e-06
-0.00051951
-4.74434e-05
0.000566942
-0.000168236
-0.000142764
0.0182797
0.0301584
-0.0484383
5.78277e-05
4.72659e-05
-0.000105093
0.000249695
-0.000257649
7.95357e-06
-0.00497379
0.00114586
0.00382794
0.0304903
0.00867166
-4.05388e-05
2.41138e-05
1.64237e-05
0.000118291
8.04118e-05
-7.40936e-06
-7.30022e-05
0.0129795
0.0101238
-0.0231033
0.00466524
-0.00882706
-0.000251949
-0.000460297
0.00030782
-0.000557034
0.000249181
-3.31623e-05
7.4464e-06
2.57154e-05
4.72193e-05
-0.00143579
0.00051257
0.000923221
-0.0460348
0.0357159
0.0103188
-2.02809e-05
-0.000142393
0.000162674
0.00279319
-0.00419997
0.00140678
3.96887e-05
3.37909e-05
-2.30965e-05
-1.74426e-05
-9.94352e-05
0.000182924
-0.000753502
-0.00114232
0.00517711
-0.00674962
0.00157251
-0.0058775
0.000903714
3.28126e-05
-0.0708614
0.0356432
0.0352182
0.000185589
0.000249692
0.00076751
-0.000959718
-1.05977e-05
-2.34199e-06
0.00907598
-0.0598527
-0.0128232
0.0125139
0.000309299
0.000389063
-0.000774479
0.000385413
-0.0478688
0.0306702
-0.000227774
1.14392e-05
-3.39735e-06
6.57159e-06
-3.17432e-06
1.25779e-06
-4.40775e-06
3.1502e-06
6.35166e-05
1.68951e-05
-0.0319964
-0.0140384
0.0241305
-0.025072
0.00094163
-6.17072e-05
4.20206e-05
1.96854e-05
4.05531e-06
1.36234e-05
-1.76786e-05
-0.0488585
-0.0220029
0.00999983
-0.056598
0.0465981
-0.00334058
0.00183809
0.000176291
0.000103107
-4.34026e-05
2.3603e-05
0.000115919
0.000109387
-0.000225305
-0.0364104
0.0464102
-0.00107144
0.00386469
6.17429e-05
-0.000463555
0.000401814
0.00396052
0.0128124
9.51455e-07
-7.83929e-06
6.88893e-06
-0.000568716
4.92044e-05
0.000151311
-2.84685e-05
-7.0495e-05
0.000174979
0.000513446
0.000221847
-0.000735297
2.60305e-05
3.69508e-05
-6.2984e-05
0.00877351
-0.0206682
0.000463522
0.000496277
-0.000959795
-2.01186e-05
-4.15886e-05
0.000148421
-4.65261e-05
-0.000101895
0.000215149
-0.00013726
0.000197499
-2.12156e-05
-0.000666121
0.00734063
-0.000396299
0.000458043
1.52563e-06
-2.36852e-05
2.2159e-05
-0.00200544
-0.000475816
0.00248122
1.3441e-05
-3.66809e-05
2.32398e-05
0.00034487
-9.51742e-05
0.00135061
2.07526e-05
-0.00137137
0.000958128
-0.000569074
0.000457559
-9.23404e-05
-0.000365231
-2.38271e-05
1.70961e-05
0.000169578
-0.000114916
-5.46612e-05
5.21983e-06
1.65142e-05
-2.17335e-05
0.00127024
-0.000962429
0.00347744
-0.00895431
0.00547688
4.8846e-06
-2.94573e-06
-1.93896e-06
1.17101e-05
6.3167e-05
-7.48824e-05
0.000481246
-2.37146e-05
0.000211991
-5.17024e-05
-4.12841e-05
-1.70999e-05
5.83871e-05
1.42676e-05
-3.15802e-05
5.76104e-05
2.17289e-05
-2.02038e-05
0.05541
0.00206751
0.00346321
-0.00919973
0.0071003
-0.00836577
0.00126516
0.00100655
-0.00339138
0.00238484
-0.000530864
0.0010443
0.00598509
0.00440982
-0.0103949
1.27503e-05
-0.000253887
0.000166972
-0.00196645
-0.00137402
0.00572936
0.000587929
-0.00631729
-0.0119935
0.00360597
0.00838747
0.00074625
-0.000488378
-0.000257871
-0.00408005
0.00292643
-0.00205094
-0.000875488
-0.0197176
0.0337723
-0.0140548
-0.000367537
0.00063173
-0.000264195
6.30318e-06
-2.29867e-05
0.00832715
0.00632747
-0.0146546
-0.00409774
0.0124249
-0.003547
0.00787576
-0.00432882
1.77937e-05
-5.90748e-05
-0.00487436
-0.00711913
0.000975586
0.000337655
-1.79445e-05
5.04685e-05
-0.0342825
0.014565
-6.51513e-05
7.68597e-05
-1.47443e-05
1.99645e-05
5.85597e-06
-5.64552e-06
2.25089e-05
-4.45529e-06
3.24076e-05
5.51392e-06
-3.79225e-05
-0.000646293
0.000278758
0.0182244
-0.0851178
0.0668934
-2.45202e-06
-2.78557e-05
3.03175e-05
3.76999e-05
0.000110721
-1.01169e-05
-2.83869e-05
3.85039e-05
0.018865
-0.0149043
6.13329e-05
0.00176194
-0.00182327
-0.0201291
-0.00777792
0.00178766
-0.00817072
-3.27992e-05
3.03546e-05
-0.00783609
-0.00290834
-0.000155652
-6.69052e-05
0.000222558
-0.0221378
0.00200879
-4.08761e-05
5.77427e-06
3.51019e-05
-8.88901e-06
-1.69568e-06
0.00133783
-0.00374604
0.00240821
-0.00588791
0.0158027
-0.00991546
1.71965e-05
0.014455
-0.0151213
0.00938006
0.000385948
0.000360307
-0.000406572
0.00838429
-0.0198238
0.00155677
0.018267
0.0069623
-0.0267861
0.00321247
-0.00298286
-0.000229624
4.42632e-06
1.34946e-05
-1.79201e-05
1.5968e-05
-1.86777e-05
2.71003e-06
0.00255545
-0.0015489
0.000130387
3.91895e-05
0.00855303
0.00213339
4.4806e-05
0.000110577
-0.000155384
0.000711825
-0.000665325
0.000113446
-0.000682711
0.000569266
-3.71866e-05
2.70693e-05
-1.45683e-05
-1.85948e-05
0.00888793
-0.000105922
0.000629165
-0.000523239
0.0281609
-0.0324192
0.00249149
-0.00441178
-0.00486903
0.00620687
-0.000241668
8.60153e-05
-3.2956e-06
2.64805e-06
6.47359e-07
0.00907241
-0.00308735
1.1227e-05
7.98197e-06
-1.92084e-05
-0.000835656
3.77384e-05
0.00197445
0.00123801
-3.21892e-05
-8.27887e-06
4.04667e-05
-5.25072e-07
-5.53753e-05
3.52573e-05
3.46116e-05
-3.31356e-05
0.00080318
0.000140611
-0.00924331
0.00454884
0.00469439
0.000101486
-0.00158975
0.00148828
0.00096724
0.00103885
-0.00200609
0.00010453
0.00602999
-0.000349458
-0.00568054
0.0406891
-0.0101988
6.90771e-05
-0.000388267
0.000319192
0.00632476
-0.00987183
6.96336e-05
-0.000140128
-0.0400724
0.0154055
5.51223e-06
1.52488e-06
-1.77999e-05
-3.75746e-05
-1.28941e-06
2.23676e-06
-0.00015613
0.00672513
-0.00656903
-0.0114809
-0.00234714
0.013828
-0.00133407
0.00161086
-0.000276803
0.000250348
0.00577963
0.00137176
0.0120502
0.00179901
0.0123129
3.80517e-06
0.000101221
-2.46982e-05
-2.17801e-06
-3.86977e-05
0.0210467
0.0196425
2.96173e-06
-2.0308e-06
-9.31041e-07
-0.00549693
0.0102692
-0.00477224
0.0572116
-0.000450001
-0.0567616
-0.00212792
0.00265588
-0.000527973
0.000655874
-9.5375e-05
-0.000560505
0.000850683
-5.01492e-06
0.014247
-0.00105895
-0.0131881
-0.00885185
0.0660634
-0.0164226
-0.00267273
-3.64339e-06
8.555e-06
-0.000107266
0.00028582
-0.000178555
-0.000383072
-0.00451575
0.00969288
9.34754e-06
7.19578e-06
-1.6543e-05
-7.77036e-06
-8.31604e-06
1.60863e-05
0.000184411
-0.00105251
0.000351283
0.00265964
-0.00343088
0.000771277
0.00174612
-0.00189507
0.000149104
6.07906e-06
2.049e-06
-4.73603e-05
0.000110523
0.00274456
-0.0023331
-0.000411606
0.00020275
-0.00101165
-1.471e-06
-1.92646e-06
0.0381049
-0.00108682
1.28575e-05
-8.43045e-06
0.000171445
1.21065e-05
-9.69117e-06
-2.41495e-06
-0.00194353
-0.00172399
0.00366751
-0.000109302
9.36377e-05
1.56565e-05
-9.00254e-06
0.00102792
-0.000177243
-0.00318675
0.00118129
2.58219e-05
-1.31727e-05
8.36628e-05
9.01151e-05
-0.000173777
-2.46612e-07
-6.97729e-06
-0.0005139
-0.00226856
0.00278246
0.0244788
-0.0174952
-0.00698362
4.18454e-06
-4.18444e-06
7.04754e-06
-3.19456e-06
-3.85199e-06
-2.53986e-06
8.93008e-07
8.0398e-07
-0.000739933
0.030477
-0.029737
4.18772e-05
-1.86101e-05
-2.3267e-05
-0.018974
0.00348663
-5.99375e-06
-1.95896e-05
-1.89015e-06
-1.40546e-06
-0.0132696
0.00791108
0.00535861
6.06474e-05
0.000595222
-3.44415e-06
2.49228e-05
-2.14779e-05
0.00384272
-0.00435664
-0.000321996
0.000391074
-0.0125269
-0.0153848
-0.00195271
0.0100756
2.54932e-05
-7.28579e-05
0.063041
-0.0448166
4.94865e-05
-4.37124e-05
0.000352128
0.000938336
-0.00129047
6.3202e-06
-3.93302e-05
3.30095e-05
0.000595405
-0.00267938
0.00208375
4.03277e-07
2.48695e-06
-2.8901e-06
0.000162362
-0.000137815
0.00544378
0.00328943
-0.00873299
-2.6046e-05
1.56919e-05
0.00111719
0.00272553
0.000815087
-0.00543286
0.00461748
0.00127092
-0.000599719
0.041945
0.0153179
-0.0572628
-1.46804e-05
2.56472e-06
-0.00548191
0.0145379
-0.00905614
-2.55136e-05
8.39689e-08
-1.03921e-05
1.68305e-05
-6.43836e-06
-1.19928e-05
1.67208e-05
-4.72715e-06
-2.46208e-05
-1.86797e-05
4.3301e-05
-0.000642783
0.000536863
0.000242471
-0.00020275
-3.97243e-05
-0.000122771
0.000648835
-0.000526079
-0.00188031
-0.00033972
0.00222004
0.00511324
-2.77328e-05
1.42788e-05
0.00620684
-0.00290641
-0.0033004
0.0047102
-0.0161912
1.35209e-05
-0.000176978
-0.00015053
0.000128089
-0.0216075
0.00908065
-0.0480008
-0.0198248
0.000617795
-0.000790774
-2.40443e-05
2.5608e-07
2.37882e-05
-0.00383511
0.0044306
-0.0107758
0.00873351
0.00749748
0.000598735
-0.0029682
0.00408537
-0.0447263
-0.0803063
0.00729546
0.00695156
0.031285
-0.0183055
-0.0784566
-0.0167302
-0.00587748
0.0105354
-0.00465791
-4.95192e-05
-9.98058e-05
0.00619117
-0.0120686
-0.000146153
-0.000552188
0.000698346
-4.78184e-06
5.18531e-06
-0.00552776
0.000107983
1.32793e-05
0.000559207
-0.000572492
-7.96152e-05
0.000126882
1.00374e-06
2.08732e-05
-2.18779e-05
-4.20589e-05
1.81788e-06
3.60113e-05
-5.12834e-06
-3.08778e-05
0.000615224
0.000889177
-0.00488613
0.00222565
0.00266048
-0.033989
0.0359598
0.00310883
-0.0013626
-1.39751e-05
1.44045e-05
-4.29035e-07
0.00191533
0.000829076
0.000344853
0.000151929
-0.000496785
0.0278057
-0.00152013
-0.0262855
-0.0349808
0.0396909
-0.000104326
-4.94813e-06
4.86269e-06
8.49922e-08
2.83163e-05
-0.0183303
0.0130414
0.00528884
0.00229671
0.00391008
-4.1757e-05
-1.54202e-05
0.000222961
-0.000232804
9.83623e-06
-0.000633201
0.000621339
1.18446e-05
4.22522e-06
5.34439e-06
0.00797468
-0.00909249
0.00111779
0.0948669
-0.0384797
-0.0563873
5.47568e-05
0.00782098
0.000883631
-0.000266776
-0.000616853
-2.17558e-06
-0.000640607
-0.000310492
-0.000403945
0.00071445
4.0828e-05
-4.5643e-05
1.3453e-05
-0.026684
-0.0244136
0.0510973
0.000576968
-0.0003096
-0.000233622
0.000543182
0.000130427
-8.56202e-05
0.0115713
-0.00352165
2.57172e-06
3.4989e-05
-1.06329e-05
-2.43631e-05
0.00503848
6.83982e-06
-2.61419e-06
7.43324e-06
-8.70493e-05
-2.31324e-05
1.80338e-05
1.13137e-05
-2.17878e-05
1.04723e-05
-0.00058834
0.000442177
-0.00125692
0.00410012
-0.00384979
-4.06362e-06
1.09038e-05
-0.00364908
0.0181038
-0.0624798
0.090392
5.73137e-06
6.59588e-06
-1.23275e-05
3.52442e-06
7.37111e-07
-4.26166e-06
0.000133867
-0.00015415
2.22712e-05
0.0109957
-0.0168838
-0.0523727
0.0706523
-0.0854444
0.0182191
-0.00948548
0.00514554
-0.0106274
-0.000173596
7.29474e-05
0.000100649
0.000532394
-0.000519114
0.00063781
-0.00047005
0.00155419
0.00137224
-0.000210872
0.000124776
-3.67492e-06
-1.27313e-06
0.00200535
-0.00043679
-0.000534327
0.000971115
0.00359426
-0.00138464
-0.00220964
0.0303884
0.00338393
-2.11654e-05
0.000244123
-0.000294092
4.94796e-06
0.000289144
-3.41621e-05
1.17445e-05
2.24182e-05
0.000345997
0.00075412
-0.00110012
-0.000904292
0.000794197
0.000110098
0.0485727
-0.00662759
-0.000374164
0.000246007
0.000128154
-2.4642e-05
1.86487e-05
-0.0013607
-0.00203066
1.44104e-05
-5.0631e-06
-6.51973e-05
-7.01882e-05
0.000135388
-0.00154242
0.000208306
3.43804e-05
1.55864e-05
-2.705e-05
2.48719e-05
0.00167621
-0.00161488
-2.82073e-06
-2.04695e-05
2.32902e-05
-0.000488117
-0.00620027
0.00604417
-0.000814293
0.000784716
0.00067785
-0.00132825
0.0006504
0.000212929
-0.000522543
-1.00984e-05
-2.40625e-05
0.0260062
-0.0175221
-0.00848363
0.0046233
0.0122968
0.00592308
-1.85529e-05
-0.000131336
-4.33681e-06
1.18839e-07
4.21766e-06
0.00039695
-0.00108895
0.000118497
0.000312389
-0.00043089
0.00368639
-0.00409294
-0.000650143
0.000434606
0.000215542
-0.0112216
0.00352819
0.00769317
0.0443469
-0.00624225
1.50578e-05
-3.83132e-06
0.000899619
-0.000126907
-0.000100866
2.62988e-05
-1.4224e-05
-1.2075e-05
-3.77481e-06
6.26214e-06
2.56435e-05
-1.43288e-05
0.000379337
0.00118387
-0.00156321
-0.00135985
0.0023271
0.00161295
-0.00355648
4.14957e-06
-8.21325e-06
-0.00367818
0.0127157
-0.00903746
0.010109
-0.0128623
0.00918413
-3.31428e-05
4.90174e-06
2.82395e-05
-7.66701e-06
3.07878e-06
4.58836e-06
3.92833e-07
-1.57206e-07
-2.35723e-07
0.00180634
-0.00377273
0.00322564
0.0141576
-0.0173832
7.00154e-05
-3.45263e-05
-3.54887e-05
-0.000164633
-0.000323058
0.000196151
3.55718e-06
-9.09169e-07
-1.80055e-06
-1.21083e-05
1.39083e-05
-6.37347e-05
2.18753e-05
4.18584e-05
-0.00053797
-0.000948625
0.00148659
-0.0134961
-0.010783
0.024279
-2.0217e-05
1.73957e-05
-1.17912e-05
1.59408e-05
-4.41643e-05
1.95435e-05
-9.93809e-06
-5.37973e-05
0.000596265
-0.009015
0.00841872
-0.000461148
-0.000121971
0.000583177
0.00111351
-0.00631841
8.88093e-05
0.00622938
-0.0141256
0.0286635
3.99651e-06
-3.10464e-05
0.000505226
-0.000627994
-0.000620066
-9.4952e-05
-0.0172854
0.00296228
3.27396e-05
1.36192e-05
0.000119131
3.32722e-06
6.66893e-05
0.00155142
0.0317081
-2.47298e-05
-0.130118
1.87602e-06
1.08571e-06
0.000113011
-0.000109343
-0.00066875
0.000573369
-4.54606e-05
8.38533e-05
-3.83929e-05
0.000280734
-0.000188441
-9.22911e-05
0.0107202
0.000851167
-1.72052e-05
6.81235e-06
0.000123808
-0.00510356
-0.043755
-0.0135331
0.00615303
0.00738024
-2.66264e-05
-0.000347538
-0.00367415
-0.000525847
-0.0219179
0.0234747
-1.65123e-05
-3.32658e-06
-2.98163e-05
-0.007229
-0.00604036
-0.000597537
-3.56666e-05
0.0021273
-0.00727993
-0.000239104
-0.000411043
2.40213e-05
-2.2474e-05
-1.5485e-06
-1.68258e-06
-6.75168e-06
8.43467e-06
7.30485e-07
-0.00358329
0.0087289
0.000352267
0.000313748
-0.000666055
-0.000442936
0.00025207
0.000190863
8.22459e-05
-0.000121254
3.90103e-05
0.0283171
-0.00383823
0.00010121
1.13258e-05
-0.000112535
-1.2477e-06
1.64055e-06
-0.00175117
0.00201636
-0.00026531
0.0246512
-0.0145275
0.000571444
0.00034891
-0.000920367
-1.26048e-05
2.85802e-06
-2.30747e-05
-0.000107532
-0.000405302
0.000512834
0.000863947
-0.000112504
-0.000751456
-0.000325634
0.000511507
-0.000177398
-0.000726884
-0.000822477
0.000847492
-2.50001e-05
5.89463e-06
-0.0250891
-0.0149832
-0.00634316
0.004057
0.00228622
0.000929852
-0.00305778
0.000235075
-5.0039e-05
-0.000185036
-0.00250712
-0.000467195
0.00251088
-0.00204369
0.00174349
-0.0016776
-6.58784e-05
-0.000110984
0.00130221
7.31101e-07
-5.06803e-06
-1.4005e-05
2.73872e-05
-0.000136696
-2.30593e-05
1.29613e-05
-0.000374338
-0.00137689
-0.000374011
-0.000182437
0.000556447
-0.000168882
0.00374957
0.000350535
-0.0025324
0.0150463
-3.04843e-05
0.0306124
1.2209e-05
-2.88011e-06
-9.32993e-06
-0.00345006
-3.98051e-06
2.06157e-07
1.40284e-05
-2.2618e-05
8.58969e-06
-2.15865e-05
1.04008e-05
1.11864e-05
0.000657449
-0.00016117
-9.65101e-06
-1.52436e-05
2.01994e-05
-4.95625e-06
0.0332951
0.00255575
-0.0358509
-3.22267e-05
-1.34173e-05
-0.00054953
0.000441997
7.10539e-07
1.22773e-06
-1.93852e-06
-0.000332569
-0.000731612
0.00106417
-4.77954e-05
9.72759e-05
-4.94851e-05
-0.00978985
0.0103861
-0.0722392
0.00785996
0.0643792
-4.01915e-06
1.08267e-05
-6.80764e-06
-0.000107812
0.0357509
-0.0066955
0.000377126
1.878e-05
-0.00024762
0.000964021
-0.000716399
-2.30369e-06
0.000115316
5.51658e-06
6.59017e-06
-0.00874999
0.00292157
0.0058284
0.00280238
-0.00165002
0.0361441
-0.036252
-0.000338366
0.000129557
0.00020881
-1.57756e-05
-1.25852e-05
-0.0438327
-0.00351968
0.00242396
0.00109574
0.00725106
-0.00558946
-0.00166159
0.000205109
-0.000668667
0.00070857
-0.00945856
-2.18043e-05
-2.23987e-06
0.000513236
-0.000845804
7.79679e-05
0.000156946
-0.0275393
-0.0105137
0.0380529
0.000807347
-0.00155342
-0.00160806
-2.00933e-05
2.29501e-05
0.00115948
0.000179214
4.24392e-05
-0.000221654
0.000521908
-9.87075e-05
-0.000344227
0.0270817
-0.0284004
0.00131873
-0.00199233
0.000112055
2.18128e-05
-5.40394e-05
-0.00142451
-0.0127136
0.0141382
0.0164925
0.00951376
0.0111861
-0.00634276
-0.00484347
-0.00462398
-0.00890914
-0.00233804
0.00130506
0.00103295
0.0276302
-0.0179996
-0.00963069
-0.000845461
-0.00070374
0.0015492
-1.75425e-05
0.00227882
0.000276648
-0.00163336
0.00197415
-0.012239
5.68997e-05
-6.1367e-05
4.46862e-06
1.23138e-06
-1.40186e-06
1.70237e-07
0.000146078
-0.000162265
-0.0473728
0.0043714
0.0430013
2.30167e-05
3.66782e-06
-2.66849e-05
0.000489218
1.06307e-06
-0.000490283
7.2723e-06
1.67486e-05
7.19931e-06
-2.24131e-05
1.52201e-05
-0.0027075
-0.000300643
-0.00016112
0.000461766
-0.00537555
-0.0165423
1.30699e-05
1.32294e-05
-2.87931e-05
1.40495e-05
0.000403413
0.000460518
0.000481673
-0.00101964
0.000236387
-0.000470039
0.00157634
-0.000911025
-0.000665312
0.000348203
-0.00871398
0.00567713
-0.00562232
0.013774
-0.0105483
0.000110948
-0.000283217
-0.00011986
0.000157562
1.39584e-05
3.94883e-05
-3.31688e-05
-0.00774611
0.0253332
-0.00010258
6.51195e-05
3.74571e-05
0.000366705
0.000262457
-0.00751753
0.0026485
0.00018749
0.000412512
-0.00178954
0.0070153
0.0041708
-8.61137e-05
0.000430971
1.8068e-05
6.37848e-06
-2.44455e-05
9.11673e-05
-0.000158984
6.78165e-05
6.91776e-06
-1.18595e-06
0.00143197
0.000174251
0.000106485
0.013348
0.00426658
-0.0176145
2.07215e-05
-2.07213e-05
0.00038006
0.000260295
-0.000640352
1.81961e-06
2.11971e-05
1.22515e-05
-6.00491e-05
-4.08716e-05
1.95186e-05
2.1351e-05
0.00374884
-0.00805815
0.00430939
-4.31685e-05
-6.71322e-05
0.0001583
0.00387917
0.000126748
-2.45686e-05
-0.000102181
0.00322557
-0.00494958
-1.58675e-06
2.47976e-06
0.00011347
0.0423761
0.0145162
-0.0091389
-0.00537725
0.000114201
-9.50713e-05
-1.91319e-05
7.46857e-05
-0.000375325
-0.000116237
-2.6156e-05
0.0273955
0.0356454
-1.66762e-05
4.89218e-06
1.17835e-05
0.000591423
3.94855e-05
0.00945249
-0.000187566
-0.000361965
0.028979
-0.00134873
-0.00111544
-0.00640207
9.68988e-05
-3.4921e-05
-6.19798e-05
0.000862849
-0.000291402
3.45522e-06
1.72663e-05
-0.00875477
0.00582655
5.38092e-05
0.000618505
-0.000672318
3.62794e-05
1.04218e-06
-3.73228e-05
9.01233e-05
-3.52755e-05
-5.48483e-05
0.000836915
0.0390065
-0.101486
0.0285255
-0.0276415
-0.000884095
-2.96972e-05
1.57309e-05
1.39659e-05
-8.60842e-07
5.85535e-06
-0.0477197
0.0178677
0.0298515
-1.35554e-07
-0.000691812
-0.00100457
0.000737807
-0.000171231
-0.000167137
-0.000378174
0.00100047
-0.000622301
0.0423369
-0.0149414
0.00506393
-0.000690272
-0.00437379
0.000366592
-0.000187379
6.79112e-06
-2.20349e-05
0.000676158
-0.00152161
-1.67506e-05
1.87763e-06
1.48729e-05
1.49408e-05
-1.16161e-05
-0.0214856
0.0173879
2.49392e-07
3.30792e-06
0.00450092
0.00652648
-0.0110274
0.0447299
-0.0236832
2.39058e-05
-1.67016e-05
0.000572811
3.17472e-05
0.000104116
0.000667209
-0.000509371
-0.00015784
-0.00577783
0.00659268
0.000166937
-0.000274205
0.0299205
-0.00283887
-2.22747e-05
-1.85997e-05
0.000135935
0.000149883
-6.96285e-05
3.47058e-05
4.74955e-07
-1.72255e-05
-6.12483e-05
5.14635e-05
9.78546e-06
8.62595e-09
2.39023e-05
-0.000627146
5.20874e-06
0.000621939
2.91615e-06
2.20068e-05
-5.29937e-05
5.63211e-05
2.28806e-05
-4.8126e-06
-0.00025871
-0.0145233
-0.000736701
8.49764e-05
0.000651648
6.91288e-06
6.65175e-06
-0.0445733
0.017889
0.00165721
0.0055939
0.00167342
-0.000246434
-0.00142701
-0.00060744
0.000233429
0.000444638
-0.000174564
-0.000270072
0.000150032
-0.000186958
0.000116771
0.0018413
0.0035202
-0.00393744
0.0308949
-0.019944
-0.0109508
-0.000277918
4.07874e-05
0.000237071
-0.000720204
0.000308097
0.000412101
-0.0125067
7.59583e-05
-9.45142e-05
3.18872e-05
9.48597e-05
0.000221731
0.000125103
-7.97926e-06
3.96037e-06
-0.0168043
0.0225774
-0.00577316
2.02196e-05
-2.35469e-05
4.11805e-05
-0.00169558
0.0102486
0.000272084
0.000551634
-0.000823722
0.00254127
0.000760643
-2.25726e-05
-1.10409e-05
0.00762523
-9.21122e-07
-1.23807e-05
-1.64119e-05
-0.000449481
8.2627e-05
0.000366854
3.7285e-05
-4.54597e-06
0.000889637
-0.00100059
-3.86105e-05
3.9652e-05
0.00155106
-0.00106941
0.00178179
0.00328203
-0.000550127
0.00455642
-0.0040064
0.0131283
-0.00697511
3.12092e-05
-2.88806e-07
1.24978e-05
0.00228183
-0.00226108
2.60202e-05
9.99266e-06
-3.70861e-06
0.000173549
2.72538e-05
-0.000200807
-5.71669e-05
2.5151e-05
3.20134e-05
3.85666e-05
-2.181e-05
-1.67571e-05
0.000152794
-7.05458e-05
3.55144e-07
4.52934e-06
-0.000375769
0.0136926
-0.0271886
0.00839812
-0.00150939
0.00400082
-0.000931678
-0.000642031
0.00157372
2.44093e-05
1.05753e-05
0.0826071
-0.0608536
-0.0217531
-6.53258e-05
-0.000228766
-3.30969e-05
-0.0184053
0.00676033
0.011645
0.0123723
-0.0195923
0.00722001
-0.0233059
-0.0487563
0.0720623
-1.84784e-05
1.66792e-06
-0.0259126
-0.00818487
-0.0392434
0.0782499
-0.000859511
0.00434561
-0.00348632
-4.3529e-06
1.06644e-05
-6.31226e-06
-0.00301778
0.00104987
-0.000562853
0.000380414
-1.07315e-06
0.000102285
0.000381811
-0.000831292
-1.12001e-05
-1.99252e-05
3.11248e-05
-0.00169057
-0.00802416
0.00971486
-0.00145252
0.0179452
-0.025812
-5.44926e-05
9.03319e-06
1.82781e-05
-6.981e-07
-1.75797e-05
-0.0481919
-0.011998
-1.88773e-05
2.20009e-06
0.00125416
0.0305875
0.0117494
-0.0131568
0.0386127
-0.0254556
0.00275661
-0.00310604
0.000349527
0.0487783
0.0226135
-0.0713917
3.83077e-07
8.48126e-07
-3.4049e-05
3.79206e-05
-3.86631e-06
0.00426012
0.0047564
-0.00901644
0.00235731
-0.00462587
-6.74361e-05
9.69641e-05
-2.95286e-05
-0.00259428
-0.000331432
-0.000388774
-3.08279e-05
-2.63393e-05
0.000430835
-0.000809009
-0.0293049
0.0147358
0.0145691
2.46159e-05
1.39498e-05
-0.00139296
-0.000196792
-0.000578566
-0.00131711
0.00189567
-0.0105794
0.00182469
-0.00207484
0.000413295
0.00166158
8.87077e-06
-1.05532e-05
-2.53998e-05
7.17262e-05
-4.63266e-05
-9.68792e-05
1.85485e-05
7.83318e-05
-0.0520415
0.0546936
-0.00265213
0.0266517
-0.0360076
0.0093559
7.76231e-06
-1.21149e-05
-6.15876e-06
6.15849e-06
-1.3862e-05
-4.06302e-05
2.92961e-05
0.000221826
-9.15081e-06
-6.64109e-06
1.57928e-05
-2.8601e-05
1.47402e-05
3.48603e-05
-4.41353e-05
0.00018605
4.47575e-05
-0.000230806
-0.000509535
0.000861803
-0.00304483
0.00272055
-6.08993e-05
-7.54777e-06
-1.40387e-05
-2.09452e-05
-8.16348e-05
-0.00429718
-0.000323062
0.00462017
-6.68371e-05
3.05869e-05
-0.00902724
-8.63724e-05
0.00934643
-0.00926005
0.000185266
-0.000141435
-4.38301e-05
-2.40296e-05
3.35978e-05
-9.56988e-06
3.48155e-05
-8.13417e-05
1.8372e-05
-1.73698e-05
4.18086e-08
-2.98785e-06
-3.86338e-05
-5.82459e-05
9.63872e-05
0.000189938
-0.000286329
0.000154304
0.000326918
-0.0142763
0.0119292
-9.26108e-05
0.00322795
-1.50749e-05
-4.15902e-06
1.92356e-05
-2.03181e-06
1.27648e-06
-6.68663e-05
1.244e-05
5.44246e-05
0.0552505
0.0273568
0.011345
-0.0489821
0.0376369
8.01251e-06
6.36148e-06
-5.54402e-06
0.000191595
-0.00145685
-0.00778653
0.000600376
-0.000577853
-2.25201e-05
1.64516e-06
2.53986e-06
-0.0211979
-0.0163907
0.0375891
0.00131366
-0.000934323
-0.0229367
-0.00521139
0.0281477
0.00396323
-0.00148824