/*--------------------------------*- C++ -*----------------------------------*\
| =========                 |                                                 |
| \\      /  F ield         | OpenFOAM: The Open Source CFD Toolbox           |
|  \\    /   O peration     | Version:  v2012                                 |
|   \\  /    A nd           | Website:  www.openfoam.com                      |
|    \\/     M anipulation  |                                                 |
\*---------------------------------------------------------------------------*/
FoamFile
{
    version     2.0;
    format      ascii;
    class       volScalarField;
    location    "200";
    object      k;
}
// * * * * * * * * * * * * * * * * * * * * * * * * * * * * * * * * * * * * * //

dimensions      [0 2 -2 0 0 0 0];


internalField   nonuniform List<scalar> 
13851
(
0.000153261
0.0155612
0.000189738
0.000152082
0.000189118
0.00179591
0.00014541
0.000176962
0.000137125
0.000199411
0.00494801
0.0196263
0.0090633
0.0264248
0.00014286
0.000168228
0.000156416
0.000161628
0.00067714
0.000137037
0.000151592
0.000188814
0.000142374
0.000149083
0.000143768
0.00017781
0.00015473
0.00358397
0.000152846
0.000154931
0.00384897
0.000157034
0.000188956
0.00316762
0.00014919
0.0002126
0.000145574
0.000199273
0.00020251
0.003811
0.000143245
0.00012959
0.0075789
0.00497775
0.00546095
0.0249075
0.00470404
0.00699523
0.000155178
0.00104682
0.000188661
0.000203119
0.014673
0.000144735
0.000152403
0.000129659
0.000141806
0.0161026
0.000154454
0.00014603
0.000190734
0.0285494
0.000195396
0.000192773
0.00824868
0.000157401
0.00105141
0.00392037
0.000167012
0.000161612
0.0158596
0.00986358
0.0120944
0.000145668
0.000139692
0.000139707
0.000188158
0.0165435
0.000176988
0.0183154
0.000148197
0.00449357
0.00014266
0.0199165
0.000196692
0.0180486
0.000333228
0.0315702
0.000157103
0.00013929
0.000212712
0.000212438
0.00356377
0.000160479
0.000156716
0.000147282
0.000189856
0.028372
0.0012297
0.000147288
0.00998475
0.000178916
0.00014968
0.000153867
0.000140318
0.000317716
0.000181698
0.000128579
0.0231566
0.00263859
0.000149296
0.000139731
0.000193191
0.000151882
0.000149295
0.00167398
0.0289858
0.000128786
0.000153677
0.000155212
0.00767999
0.000153664
0.0119513
0.00411088
0.00690671
0.000143638
0.00704278
0.000177987
0.000150893
0.000200659
0.000143001
0.00013719
0.019117
0.000142631
0.00100117
0.000138938
0.000128884
0.00828282
0.0279109
0.0397969
0.0113101
0.000152709
0.000149068
0.000133275
0.000153023
0.00422813
0.000499724
0.000200571
0.000145235
0.00568102
0.000189058
0.000152269
0.024831
0.000142372
0.000151965
0.000152841
0.000140396
0.000152595
0.000202928
0.000188275
0.000130547
0.000160128
0.016426
0.000137064
0.000160968
0.000131397
0.00064216
0.000167412
0.000150495
0.0204589
0.0144306
0.000134399
0.000140591
0.0389444
0.000136952
0.00662154
0.000177063
0.000148475
0.000686484
0.000128816
0.000158393
0.0115338
0.000142539
0.000189941
0.000129625
0.000143774
0.000158202
0.000147651
0.00019145
0.000211273
0.0041283
0.0161215
0.000140848
0.000167252
0.0280719
0.000151565
0.000148045
0.0061242
0.000147832
0.000140012
0.000144441
0.028074
0.000159718
0.000141908
0.000195769
0.000142668
0.020647
0.000156632
0.0290078
0.000129273
0.0349577
0.000149265
0.00588331
0.000128361
0.000132502
0.00450678
0.000191168
0.0252342
0.000142239
0.0300861
0.000156943
0.000148525
0.0297354
0.000201108
0.0398639
0.000144474
0.00016296
0.000141705
0.0190675
0.000128414
0.00017681
0.00433683
0.000134317
0.000140431
0.000185906
0.000175171
0.020373
0.0135376
0.000133117
0.000142029
0.0028199
0.00121152
0.000134129
0.000198883
0.00013752
0.0381347
0.000179499
0.00486485
0.000153084
0.000158249
0.000175125
0.00112733
0.00014849
0.000153255
0.000179633
0.000332737
0.000207468
0.00953292
0.00556508
0.000143117
0.000132661
0.0001606
0.0111071
0.000136394
0.00574429
0.000151544
0.000148312
0.000159794
0.02803
0.000198455
0.000173235
0.000151979
0.0154826
0.000175432
0.000167329
0.000137302
0.00436226
0.0014888
0.0433663
0.00524188
0.000134269
0.000128878
0.000139817
0.000178401
0.011491
0.00571594
0.000138341
0.000143031
0.0153824
0.00369047
0.000205632
0.000153814
0.000146172
0.000169237
0.00391177
0.0043924
0.000160216
0.0176399
0.000137509
0.0382507
0.000159597
0.000156214
0.0421098
0.000146581
0.000369204
0.0334711
0.000138089
0.000174189
0.000160671
0.00015333
0.0267682
0.000160525
0.000148139
0.0297519
0.000130094
0.000158687
0.000150509
0.0422156
0.000200982
0.000142247
0.000179745
0.000142516
0.0118829
0.0001954
0.000142381
0.000143278
0.000200396
0.000162133
0.000151682
0.000143046
0.000146387
0.000147926
0.0053472
0.0172974
0.0224429
0.000167549
0.0409181
0.0248736
0.000142453
0.000167891
0.000206543
0.000211198
0.000191714
0.000200096
0.000485926
0.000160913
0.00860508
0.0354157
0.000143072
0.00103472
0.000952465
0.00213973
0.000151654
0.000196064
0.0191058
0.000140919
0.00913299
0.000143195
0.000142601
0.000136215
0.000128585
0.000139662
0.0353811
0.00511879
0.000143259
0.000172997
0.000130694
0.0182653
0.000174609
0.0061301
0.0218109
0.000143461
0.000197322
0.000160911
0.00651122
0.000142201
0.000128925
0.000186849
0.00860281
0.000143476
0.0260541
0.000214662
0.000201811
0.0180467
0.0018923
0.00201629
0.000159722
0.000137714
0.000149267
0.000165748
0.000179422
0.0272908
0.000167349
0.0393494
0.0340801
0.000130822
0.000143217
0.0213617
0.0206644
0.00266479
0.0291601
0.000183903
0.000161768
0.000147036
0.0222614
0.000135604
0.000167448
0.000156521
0.000144728
0.000140787
0.000137807
0.000131263
0.000192269
0.000186587
0.0157566
0.000163089
0.000181291
0.000182678
0.00117874
0.000159855
0.00247338
0.00015569
0.0046722
0.000128776
0.000137585
0.000145666
0.000190976
0.00325327
0.000199888
0.000180192
0.0125292
0.00288316
0.000273694
0.000158052
0.000186411
0.000141964
0.00209282
0.000140059
0.00851935
0.00479058
0.000188215
0.0261394
0.000149044
0.00213223
0.00466368
0.0108262
0.000128551
0.000163449
0.000177733
0.000438807
0.000135124
0.000148033
0.000187635
0.000201592
0.000167872
0.02698
0.000144474
0.000143941
0.0133036
0.000161699
0.000128683
0.0342287
0.000137626
0.000153059
0.000135882
0.000175719
0.000151552
0.000129014
0.000148401
0.0289689
0.000142787
0.000169267
0.000138247
0.000166035
0.00367687
0.000152839
0.000143172
0.000152054
0.000151926
0.00335567
0.000148157
0.000594188
0.0001425
0.000145195
0.01972
0.024713
0.000142929
0.000169034
0.000160054
0.00171248
0.0217978
0.000144024
0.00472974
0.000142465
0.000188685
0.000145252
0.0205096
0.000129864
0.0142535
0.000210715
0.00012972
0.000170372
0.0242277
0.000177978
0.00505487
0.000153548
0.00215607
0.000156101
0.00013649
0.000137406
0.000144709
0.0250446
0.000185944
0.000203217
0.000112784
0.000189775
0.000130966
0.02249
0.00339167
0.000158587
0.000160453
0.00181053
0.00315001
0.0326719
0.000151703
0.0209273
0.0231081
0.0285438
0.000161463
0.000173529
0.00804232
0.00214518
0.000244763
0.00607406
0.0162389
0.000153017
0.0176557
0.0109909
0.000128903
0.00151124
0.000186577
0.0201821
0.000153491
0.000141488
0.000140117
0.000142332
0.000191109
0.000172104
0.0319159
0.0273657
0.000137804
0.0115821
0.0245697
0.00064969
0.0039991
0.00016875
0.000128278
0.000137343
0.00278959
0.0247032
0.000152192
0.000193872
0.00021246
0.000129535
0.000195519
0.0031567
3.46558e-05
0.00019933
0.0263217
0.0114743
0.000142713
0.000144864
0.0206262
0.0337791
0.000202643
0.000167146
0.000204435
0.000128757
0.000140548
0.0103231
0.000129276
0.000153306
0.000128691
0.000137716
0.0121688
0.000191529
0.000171849
0.000129182
0.0259709
0.00627288
0.000137718
0.000139663
0.000136731
0.00014842
0.0086548
0.00541734
0.00564122
0.0285066
0.00212012
0.000165556
0.0163873
0.0264298
0.00016352
0.000167479
0.000128248
0.000148645
0.000169371
0.0266567
0.00940693
0.000193481
0.00016233
0.000136622
0.000167935
0.000148481
0.00469783
0.000188326
0.000142377
0.000167963
0.000135124
0.000159378
0.000200489
0.000145673
0.000141729
0.000174641
0.000145613
0.000189301
0.000194001
0.000200189
0.00016851
0.000203474
0.000136458
0.000553597
0.000184375
0.0278452
0.000148992
0.000147802
0.0197355
0.000153877
0.0168904
0.0360053
0.0238393
0.0336717
0.000135574
0.012835
0.00013519
0.000137688
0.000129819
0.000137791
0.000175876
0.00016444
0.000173376
0.000128967
0.0228808
0.00021518
0.0238711
0.000139432
0.000131054
0.000138947
0.000203543
0.0278612
0.000180187
0.00015977
0.000135434
0.000145842
0.000144339
0.000141087
0.000115234
0.0244494
0.000145331
0.000128859
0.000144843
0.000140972
0.00168233
0.0162934
0.000168538
0.0270868
0.00218372
0.000141523
0.000202917
0.0101827
0.000168737
0.0198397
0.000148141
0.000160657
0.000179655
0.000161709
0.00610014
0.000142799
0.00689952
0.000140604
0.000163196
0.0288176
0.000140702
0.000152383
0.000204791
0.000136594
0.00015756
0.014615
0.0367085
0.000187661
0.003605
0.00214441
0.000128497
0.000139201
0.0218288
0.000209543
0.000179104
0.0359956
0.000136351
0.000165518
0.000129027
0.00309427
0.0011195
0.000157872
0.000147737
0.00357105
0.000155133
0.000138642
0.00982804
0.000327994
0.0278625
0.00012994
0.00014517
0.0167036
0.0106268
0.0002074
0.000147419
0.0233345
0.000142737
0.00408405
0.000204583
0.000189551
0.000156856
0.0237996
0.000166122
0.000150904
0.00017075
0.00014713
0.000159662
0.000151987
0.000136285
0.0115864
0.000166391
0.000199942
0.000170234
0.00224006
0.000136838
0.0134995
0.000152352
0.000165022
0.00013175
0.000141131
0.000143494
0.0332427
0.000139889
0.000129235
0.00590447
0.000145092
0.0205099
0.000142038
0.000148618
0.000187862
0.00177519
0.00500734
0.00013929
0.01438
0.0280189
0.000148328
0.031678
0.000162862
0.000136011
0.000470244
0.00829807
0.0100891
0.000158596
0.00013889
0.00012868
0.00417631
0.000192191
0.000193676
0.000159504
0.000450275
0.000149293
0.00014795
0.00019335
0.00327338
0.000190731
0.00893701
0.00014494
0.000189107
0.000192324
0.0415562
0.000157541
0.0246043
0.000106592
0.000145243
0.0186463
0.000297937
0.0279233
0.0351186
0.0302645
0.00237626
0.000174898
0.000136154
0.000165365
0.0162817
0.0183971
0.000142665
0.00014546
0.000186672
0.00384158
0.000129823
0.0136825
0.0001361
0.000143263
0.0133723
0.0165126
0.00249532
0.000137628
0.00014273
0.0122844
0.000160223
0.000200994
0.000154101
0.0247363
0.000127218
0.0273
0.000181263
0.000172443
0.000148184
0.000145096
0.00939859
0.000178065
0.019583
0.000188904
0.000166926
0.0120355
0.0275106
0.0220644
0.000143466
0.000163947
0.000137619
0.00016922
0.000152143
0.0225171
0.000165771
0.0353778
0.00012973
0.000187321
0.000140934
0.00021082
0.000166167
0.000163524
0.0273554
0.000174275
0.00017815
0.000149788
0.000187326
0.00656589
0.000207809
0.000153509
0.014811
0.000135858
0.0334981
0.00459215
0.000146307
0.0364426
0.00876117
0.0220237
0.00191939
0.00018297
0.000142438
0.0266519
0.000166711
0.00201234
0.0295378
0.000139442
0.00015122
0.000258603
0.00608082
0.0258762
0.000145081
0.000138856
0.0128245
0.0288145
0.000199497
0.000157786
0.000151552
0.00389492
0.018749
0.000193082
0.000129293
0.000175092
0.000136706
0.000156957
0.00124055
0.00014747
0.0110612
0.00320057
0.000143426
0.000149709
0.000142706
0.000152139
0.0166748
0.0235894
0.000162925
0.0243104
0.000140881
0.000163045
0.000141995
0.000136829
0.000145849
0.000143267
0.0224811
0.000142961
0.000179738
0.000143551
0.000158845
0.00162154
0.0096043
0.000153769
0.0239231
0.000196597
7.50192e-05
0.000167031
0.000167073
0.0170986
0.000159349
0.000172551
0.0218653
0.00257423
0.0155933
0.000172922
0.00565016
0.000148471
0.000172857
0.000179519
0.0257703
0.000142894
0.03172
0.000139022
0.000139619
0.0291468
0.000143277
0.00336429
0.000157365
0.00013752
0.000188826
0.000137624
0.000142775
0.000137176
0.00014771
0.000167135
0.00013962
0.000168761
0.0180919
0.000191692
0.0366842
0.000144871
0.000152512
0.000156714
0.000142502
0.000137423
0.000191027
0.000148329
0.00013898
0.000147996
0.000144353
0.0202881
0.024504
0.000204709
0.0292201
7.21369e-05
0.000140517
0.00758085
0.000162066
0.000139475
0.00323638
0.000269476
0.00423733
0.000140239
0.00489848
0.00516272
0.0190229
0.000134585
0.010481
0.000165422
0.000154557
0.000137841
0.000136384
0.0201361
0.000260303
0.00376474
0.000140188
0.000142264
0.00693183
0.000146431
0.00215923
0.00345496
0.0302858
0.000404326
0.00375132
0.000145065
0.00014301
0.000195023
0.000165899
0.000153959
0.000210006
0.000174174
0.000148569
0.000150879
0.0259427
0.000139239
0.0194704
0.00194476
0.00130501
0.000224947
0.00015137
0.000134115
0.000147035
0.00448973
0.00299267
0.000134582
0.000154868
0.000139929
0.000190346
0.000130535
0.000139503
0.000148741
0.000166389
0.000861758
0.000174329
0.000166445
0.000143894
0.000179538
0.0123374
0.000149689
0.0160164
0.0154112
0.000191366
0.000131754
0.000174988
0.000141462
0.000142692
0.000146577
0.0164737
0.000201151
0.0029048
0.00015406
0.00420341
0.000141884
0.000141038
0.000146653
0.00622388
0.0149628
0.000130218
0.000166012
0.00019112
0.0259702
0.000152725
0.0213233
0.000175972
0.0222075
0.000192629
0.0280692
0.000193759
0.000191068
0.000170031
0.0258748
0.00341018
0.029252
0.00014179
0.000230841
0.000130403
0.000153706
0.000158103
0.000145929
0.0262036
0.000163648
0.000160461
0.00280111
0.000214496
0.00531334
0.000142374
0.000153719
0.000158653
0.000134853
0.000167425
0.0129426
0.00347771
0.0179999
0.000138998
0.000159418
0.000155583
0.00422889
0.028774
0.000194243
0.000133971
0.00014785
0.0215082
0.000177011
0.0147903
0.027626
0.000650033
0.000131556
0.00584327
0.000166971
0.000174933
0.000161698
0.0334555
0.00472272
0.000198773
0.000627791
0.000150013
0.000161558
0.000143275
0.0148632
0.000181221
0.0248851
0.00247429
0.00015791
0.000206259
0.000151508
0.0329127
0.000145221
0.0001387
0.000162994
0.0298784
0.000265643
0.0189324
0.000145145
0.000143264
0.0169049
0.0150736
0.0200849
0.000154545
0.000144862
0.00014344
0.0206774
0.000204995
0.000147608
0.000270013
0.000193212
0.0198623
0.004786
0.00536199
0.000143092
0.0200083
0.000155828
0.000142967
0.000204895
0.0288861
0.000145506
0.000139
0.00790796
0.0309436
0.000141977
0.000138871
0.0329867
0.000138311
0.00279747
0.000138994
0.00255968
0.000143249
0.000180207
0.0184465
0.0284527
0.000150862
0.00632955
0.00383958
0.0217921
0.00219092
0.0215323
0.000527749
0.00014098
0.0120813
0.000153039
0.000142511
0.000134683
0.00457019
0.000141332
0.000109523
0.000139178
0.000152112
0.0157465
0.000188017
0.00840449
0.000152025
0.000188122
0.000137306
0.000165767
0.00592102
0.0167071
0.000138585
0.000186503
0.00470127
0.000146271
0.000136563
0.0280974
0.000167611
0.000170131
0.00020297
0.0410289
0.0143406
0.00449057
0.0166805
0.000717599
0.00498422
0.00335229
0.0338503
0.000186334
0.000133057
0.000202521
0.000140898
0.000140777
0.0258696
0.0285531
0.000152767
0.0247913
0.000263931
0.0188589
0.000490473
0.000313758
0.000142018
0.000297571
0.00050264
0.000140128
0.000151179
0.0331347
0.0284169
0.0220449
0.0302681
0.000173623
0.0381421
0.0346553
0.000165256
0.000146085
0.000140599
0.00416273
0.000139759
0.000133412
0.00015165
0.000149292
0.000153267
0.0133009
0.0389137
0.0180313
0.000147776
0.00693625
0.000156817
0.000163069
0.000139388
0.000138724
0.0155754
0.000160472
0.0268921
0.00491356
0.000247208
0.00020011
0.000143405
0.000175451
0.00014627
0.000204723
0.000147847
0.000151748
0.000147331
0.000152098
0.000208372
0.00014947
0.000169315
0.000140754
0.000170034
0.000208728
0.017505
0.000140864
0.000177649
0.000142724
0.000213877
0.00015084
0.0265765
0.000239735
0.000164787
0.00015391
0.000152043
0.00127869
0.000142465
0.00295135
0.000142892
0.000140602
0.000147546
0.030435
0.00015976
0.000155939
0.000186191
0.000142919
0.000185276
0.0293937
0.00512949
0.000168832
0.000143284
0.000310311
0.00013352
0.000141397
0.000225037
0.0353263
0.000141283
0.000163875
0.0003136
0.00839263
0.000147925
0.000149174
0.033858
0.000151188
0.000593414
7.60992e-05
0.0388003
0.000143466
0.000154028
0.000141806
0.0396074
0.00020263
0.00017429
0.000200849
0.0191974
0.000150424
0.0342833
0.0162551
0.000146298
0.0161886
0.000191487
0.000151814
0.0151335
0.000144761
0.000142912
0.00013574
0.000212917
0.000657351
0.000210071
0.000151882
0.000149917
0.000162954
0.00506936
3.54006e-05
0.037604
0.00519511
0.000148993
0.000202886
0.000200123
0.0170945
0.000192077
0.00390184
0.000139889
0.000187894
0.000136581
0.000553804
0.000171307
0.000141743
0.0268084
0.000231801
0.000166603
0.000186914
0.000129342
0.000142366
0.000184613
0.000168798
0.00657122
0.000186201
0.000187415
0.000190016
0.000197036
0.019269
0.000226312
0.0371854
0.000141065
0.000138936
0.000222463
0.0219372
0.0157084
0.0010774
0.0001513
0.0161938
0.00483948
0.000140943
0.000158498
0.000137978
0.000173062
0.000188027
0.000610782
0.0157698
7.63053e-05
0.00015129
0.0275195
0.0139194
0.000142999
0.000230467
0.0289874
0.0153641
0.000154151
0.000189327
0.000128348
0.000157903
0.000140041
0.000157498
0.0390835
0.0251678
0.0136651
0.0200453
0.000151009
0.000169155
0.000186533
0.000139978
0.00014771
0.000136426
0.0254048
0.000139444
0.0317466
0.000171622
0.000188816
0.000208055
0.000177713
0.0179133
0.00988334
0.000172539
0.000131026
0.000162727
0.00684237
0.00192345
0.000156178
0.000137707
0.000136841
0.000185309
0.000164636
0.000206102
0.020106
0.000150832
0.000135959
0.000200826
0.000266624
0.0163299
0.000436405
0.000138979
0.000188107
0.000145787
0.042937
0.000132536
0.038588
0.000138974
0.000150609
0.000169405
0.00014827
0.000211527
0.000163451
0.000177066
0.0169753
0.0289009
0.000157063
0.000163802
0.000141869
0.00836894
0.0193692
0.00014673
0.000132845
0.0041783
0.000128595
0.0261714
0.000142071
0.000168111
0.000188814
0.000292632
0.000172251
0.000149954
0.000144997
0.000187864
0.0329758
0.000141019
0.000551301
0.0214145
0.000568444
0.000200512
0.000168348
0.0199464
0.000156816
0.000198086
0.00014187
0.00535175
0.0052148
0.0144661
0.0203557
0.0211909
0.00014484
0.000841012
0.000138973
0.0131203
0.00327569
0.032567
0.0170191
0.000160283
0.0183523
0.00923196
0.000169824
0.000151731
0.000145569
0.0274312
0.000158122
0.000187633
0.000155182
0.000146754
0.000136825
0.000145538
0.0289314
0.000190347
0.000165728
0.0217976
0.00478944
0.000141419
0.000142315
0.000136516
0.000166406
0.0377426
0.000157154
0.000157924
0.000167474
0.0148539
0.000190772
0.000175379
0.0118703
0.000164734
0.0369873
0.000163197
0.000163423
0.000142008
0.000154769
0.000187456
0.00408137
0.00525346
0.0301366
0.000187757
0.0280942
0.00015421
0.000155551
0.000143757
0.0144584
0.0234479
0.00249169
0.000300721
0.000153593
0.000143435
0.000140581
0.000142875
0.000136614
0.0127318
0.000163289
0.0154818
0.000167117
0.0282979
0.00751433
0.0376686
0.000248999
0.000157893
0.0201469
0.000174432
0.0326778
0.0302025
0.000136369
0.000400827
0.000160138
0.0108369
0.00831446
0.000169941
0.000263471
0.00437815
0.000154941
0.000184461
0.000165119
0.0260738
0.00517296
0.000154665
0.000145017
0.00527345
0.000184887
0.000201196
0.00501956
0.000202592
0.000166508
0.000141728
0.00437668
0.0341532
0.00019401
0.000164123
0.0289737
0.0319004
0.000139158
0.000143105
0.000155157
0.0322451
0.0298089
0.000142374
0.0208293
0.000149159
0.000140876
0.00014638
0.0192723
0.000205528
0.000626298
0.0147672
0.000152167
0.000151662
0.0001396
0.0107897
0.000150809
0.0277779
0.000154082
0.0166757
0.000147788
0.000140934
0.000199195
0.0118601
0.00366035
0.000170837
0.0215317
0.000133242
0.000144606
0.000143234
0.000175952
0.000185504
0.000185654
0.000168542
0.0255074
0.000155359
0.00019872
0.00263169
0.0172456
0.000144454
0.02544
0.030937
0.000156166
0.00226777
0.000186156
0.0128409
0.000145755
0.000194215
0.000141971
0.0321331
0.0150459
0.000224148
0.0353157
0.000153786
0.000177742
0.000150808
0.0215924
0.000131719
0.000137845
0.00628186
0.000198452
0.0199575
0.00502303
0.000185409
0.000162276
0.000135567
0.023417
0.000168834
0.000140282
0.000205672
0.000136973
0.000174516
0.000143433
0.00101081
0.000153244
0.00433974
0.00493078
0.000171109
0.000280609
0.000185581
0.0432401
0.000143622
0.0187678
0.0271355
0.000137453
0.000142847
0.000152131
0.000147986
0.00017259
0.000142203
0.000441567
0.000189817
0.00338335
0.000220341
0.000145531
0.00014833
0.000135791
0.0125558
0.000144839
0.000142833
0.000146383
0.000154204
0.0203498
0.0339601
0.000193322
0.000154903
0.000168333
0.000151493
0.000149145
0.000194446
0.00013346
0.000154523
0.0139601
0.0400785
0.000296806
0.000151336
0.0152296
0.00827901
0.000148138
0.00289666
0.0263723
0.000142475
0.000153514
0.000141973
0.0158899
0.0233092
0.00817693
0.000133296
0.000154845
0.000152127
0.000145105
0.00020202
0.000145973
0.000288953
0.0105931
0.0348688
0.000136263
0.000154315
0.000153239
0.0258178
0.000129339
0.0225922
0.0147904
0.00181029
0.00189112
0.0226706
0.0173327
0.000150494
0.00823256
0.000326478
0.000150334
0.000135346
0.000138581
0.0344065
0.0143756
0.017822
0.000142111
0.0381668
0.000145626
0.000206319
0.00013662
0.000153008
0.000150181
0.000136143
0.0239282
0.000150486
0.0264355
0.0303942
0.0225893
0.000178312
0.000179705
0.0235235
0.032173
0.000147264
0.006659
0.000135814
0.000128955
0.000142125
0.000340384
0.000138584
0.017902
0.000168567
0.00364763
0.000169893
0.0147611
0.0203899
0.000222337
0.00013591
0.000187105
0.000193231
0.0242937
0.000144537
0.000130786
0.0001567
0.0289882
0.000146266
0.00440096
0.0183903
0.000173183
0.000184319
0.000144703
0.00417282
0.00014756
0.0388532
0.000133341
0.00995734
0.000164492
0.00014453
0.0185148
0.0216808
0.000132951
0.000185973
0.000156057
0.0157838
0.000485164
0.00597533
0.00363008
0.000147738
0.000187796
0.027395
0.000140611
0.000299513
0.000151319
0.00018999
0.000165857
0.0149489
0.0227144
0.000144772
0.0256429
0.000150621
0.000175142
0.028129
0.0186542
0.00016961
0.0256792
0.000178244
0.000145141
0.00444746
0.000202482
0.000164221
0.000150353
0.0284895
0.000133249
0.0131643
0.00219469
0.000197849
0.000142267
0.00016604
0.0249489
0.000175532
0.0273526
0.000149309
0.000154374
0.000402208
0.0278343
0.000157947
0.0338092
0.00881992
0.0180044
0.000146551
0.026888
0.0124481
0.0245821
0.000142799
0.000154388
0.000143874
0.0354717
0.000201673
0.00401808
0.00431568
0.000148017
0.000135139
0.000142576
0.024892
0.0100968
0.0115703
0.0209873
0.000139407
0.0255532
0.0289482
0.000203312
0.0147223
0.0260508
0.000166869
0.013853
0.000153125
0.000157386
0.0138904
0.017266
0.000145323
0.0222926
0.000147265
0.00014315
0.0200972
0.0228435
0.0328835
0.0139373
0.000165957
0.000147955
0.000158213
0.0277763
0.0207475
0.000141068
0.000176324
0.00260555
0.000143359
0.000145102
0.0225356
0.0281517
0.000152583
0.00014311
0.000150056
0.000151237
0.0069489
0.000147923
0.000142318
0.000158216
0.000252285
0.0272322
0.000312523
0.0275414
0.000144978
0.000156232
0.0283318
0.0306807
0.000161143
0.000810314
0.000142113
0.000169282
0.000149968
0.000148292
0.000188621
0.000141904
0.0125973
0.000167479
0.000139273
0.000155524
0.0156963
0.0263575
0.0218382
0.000143515
0.000168036
0.0319106
0.00400665
0.000154672
0.000144047
0.000143526
0.00525689
0.000145345
0.000146903
0.000161419
0.000142717
0.0289442
0.000657192
0.000147595
0.000155324
0.000132613
0.000145901
0.0133647
0.00101625
0.000187922
0.0161802
0.000214068
0.000148429
0.000141952
0.000144552
0.000143495
0.00014733
0.000161667
0.000202104
0.0285431
0.000149901
0.000197369
0.0217421
0.00248503
0.000142297
0.000137979
0.000153307
0.0205885
0.000142933
0.0016551
3.27856e-05
0.000187464
0.000146431
0.0142029
0.000133308
0.000492407
0.000135017
0.000133579
0.000146507
0.000139469
0.000190208
0.0133203
0.000257709
0.000172186
0.0013893
0.000265211
0.00469782
0.000165348
0.023169
0.0168132
0.000196137
0.0214579
0.0233162
0.000199936
0.00402942
0.000148065
0.000138616
0.0287012
0.000140225
0.000155506
0.0213947
0.00030394
0.0178725
0.000248015
0.000138197
0.000155401
0.000144779
0.0002741
0.000136348
0.000435983
0.0217191
0.0260381
0.013202
0.00014492
0.000133652
0.000188663
0.0270805
0.0294749
0.000199361
0.00102861
0.000138615
0.00283149
0.0282379
0.00542479
0.000154366
0.000145269
0.000132872
0.000153218
0.000144999
0.000143926
0.000155014
0.0278478
0.000189979
0.0260712
0.00023613
0.00456502
0.000212936
0.00014178
0.000140142
0.000145891
0.000136269
0.000147729
0.00140398
0.0204676
0.00543263
0.038294
0.00015312
0.0206701
0.000201921
0.0338179
0.0311467
0.000145445
0.00013925
0.00120641
0.000145066
0.00013311
0.00288018
0.0292093
0.00412033
0.000143445
0.000144901
0.000152597
0.000172297
0.0148042
0.00013601
0.000155722
7.94724e-05
0.000135714
0.00275963
0.000171958
0.0217648
0.000147835
7.05441e-05
0.02856
0.000170704
0.0266323
0.000199162
0.0273164
0.000132935
0.000157178
0.000138749
0.00016428
0.0224289
0.000143321
0.015146
0.00014515
0.00014494
0.000143157
0.0380859
0.000175191
0.000198422
0.00761104
0.000137027
0.000179187
0.0149166
0.000186367
0.000138905
0.000151354
0.000145228
0.000179187
0.00014369
0.000140023
0.0413748
0.0350744
0.0361067
0.000179967
0.000235761
0.0187482
0.000187817
0.0400778
0.000198655
0.000132296
0.000140033
0.000128703
0.000146792
0.0289717
0.029129
0.00013586
0.0136168
0.040876
0.000162361
0.000149276
0.000169399
0.0277769
0.0218231
0.0283371
0.00174703
0.0296883
0.000128733
0.000173494
0.000194492
0.00433444
0.0157261
0.000142413
0.000202816
0.0158861
0.000167729
0.0298038
0.000148031
0.000507949
0.0170632
0.0351647
0.000189188
0.000165907
0.0161236
0.00020269
0.0359509
0.0376159
0.0286655
0.000199869
0.0232626
0.000145184
0.000157025
0.000177015
0.0221687
0.00510572
0.0273149
0.000148977
0.000198277
0.000199181
0.000149762
0.024129
0.000142478
0.000203233
0.0203814
0.000142497
0.021546
0.0210538
0.0381717
0.0272151
0.00326802
0.000611611
0.00014164
0.0301189
0.000144709
0.000139883
0.000173356
0.000154554
0.0315201
0.000154882
0.000169116
0.000155204
0.000139358
0.0195738
0.000152374
0.000200758
0.00428787
0.000136254
0.0276648
0.000194916
0.000149465
0.0146348
0.000134131
0.00014225
0.00282056
0.000149464
0.0403134
0.000757611
0.000136123
0.00019993
0.000152547
0.0325417
0.0300553
0.000188577
0.0125321
0.000159681
0.000143612
0.0208801
0.000154594
0.000143934
0.00384042
0.0001722
0.000138564
0.0001391
0.000200155
0.000151963
0.0201017
0.000170823
0.000271778
0.0134121
0.000180141
0.000185581
0.000142153
0.0337892
0.0171754
0.0233331
0.000142879
0.000134901
0.000187738
0.00016527
0.00402748
0.000144195
0.00335769
0.000143193
0.000286836
0.000147127
0.000274005
0.000212887
0.000200038
0.0278819
0.00578857
0.0262516
0.0286938
0.000129
0.000628066
0.000818522
0.0206524
0.000141002
0.000190712
0.0166766
0.0213657
0.000200245
0.000372793
0.0126623
0.0363107
0.000175631
0.000160723
0.000136024
0.000177291
0.000173742
0.000142173
0.000187807
0.017959
0.000491949
0.0225963
0.00260618
0.00014094
0.000138575
0.000169994
0.000142273
0.0140359
0.000136308
0.000138453
0.0404662
0.000199181
0.000166721
0.000195508
0.000150542
0.000195645
0.0176698
0.0311383
0.0186171
0.000157191
0.0306716
0.000150633
0.000136124
0.00015276
0.0247425
0.00015421
0.000178278
0.000203003
0.000150408
0.000139172
0.000142283
0.000148121
0.000159076
0.0153536
0.00147321
0.000162715
0.0248825
0.0197385
0.000199977
0.0226944
0.00014343
0.000163647
0.000259352
0.000143071
0.000168593
0.000159855
0.000154782
0.0276491
0.0313504
0.000136286
0.000171631
0.000163851
0.000189435
0.0255391
0.0216111
0.0360426
0.000146369
0.000191308
0.0372418
0.000191266
0.000200007
0.00139853
0.0280469
0.0359799
0.041118
0.000135902
0.0211696
0.000135592
0.000152166
0.00014276
0.00018413
0.03581
0.0144231
0.00395261
0.0189302
0.000182794
0.000132569
0.00013785
0.000145019
0.000155947
0.00017503
0.0383516
0.0416111
0.00018979
0.00536234
0.000146876
0.000182944
0.000136711
0.0374931
0.000218793
0.000145871
0.000208096
0.000196002
0.00567693
0.0257665
0.000200774
0.00958791
0.000156632
0.024781
0.000179557
0.0133833
0.0034449
0.000150348
0.000183103
0.000144428
0.024667
0.0171565
0.00017319
0.0271586
0.000173154
0.0284692
0.00018699
0.000237633
0.000173642
0.00013855
0.000200879
0.000188856
0.000155221
0.000183364
0.000165299
0.00016741
0.0140209
0.000208892
0.000152859
0.000164997
0.000169864
0.000166962
0.000150122
0.0212855
0.000196213
0.00434904
0.0125606
0.000143311
0.0302494
0.000143337
0.000156334
0.00015374
0.0299944
0.000173266
0.0370855
0.0262886
0.000184588
0.000194934
0.000200942
0.0246194
0.000203715
0.0097073
0.000163488
0.000175803
0.000140223
0.0328754
0.00395009
0.000162409
0.000144052
0.000172436
0.000158217
0.000155826
0.000178018
0.00017175
0.000145926
0.000168878
0.0260613
0.0108133
0.000808722
0.000173257
0.00013025
0.0247378
0.000165979
0.000185643
0.0154525
0.000174041
0.0129565
0.000133406
0.00016635
0.000156036
0.000167976
0.000141752
0.0313818
0.00400853
0.0154142
0.000172364
0.0258702
0.000188103
0.000157768
0.0243749
0.000186271
0.000209604
0.015965
0.000178257
0.000154983
0.000172356
0.000186783
0.000154338
9.69487e-05
0.0263526
0.00342895
0.000138623
0.000170396
0.000161517
0.00223558
0.000141779
0.000175392
0.000142062
0.000165408
0.0207213
0.000163754
0.000163053
0.000138688
0.000138453
0.000124245
0.0243977
0.000144419
0.00126905
0.000222408
0.000132724
0.00016322
0.0328962
0.00019673
0.000196483
0.000142898
0.000160358
0.000209384
0.000145206
0.000140867
0.0202429
0.000163275
0.0313966
0.000191945
0.000158677
0.0344764
0.000200622
0.000206667
0.000139022
0.006228
0.000163264
0.000159456
0.0280492
0.000172694
0.00014621
0.00019429
0.000155852
0.000157369
0.00013322
0.0303697
0.00014308
0.000213592
0.0122929
0.000194026
0.00013961
0.000319947
0.000164342
0.0270696
0.000216158
0.0257085
0.000196873
0.0339457
0.000136946
0.000189618
0.000157367
0.000140608
0.0052681
0.00809383
0.000156337
0.0104587
0.000163085
0.000187912
0.0260091
0.000158253
0.000273951
0.014347
0.0273317
0.0252478
0.000290389
0.000177532
0.000138006
0.000214006
0.000170636
0.0037137
0.013705
0.0371447
0.0206733
0.0378934
0.000138228
0.0292447
0.000142799
0.000150542
0.000145553
0.00456435
0.000213955
0.000229025
0.000140454
0.0104447
0.000160599
0.0221071
0.000140022
0.000190148
0.000163801
0.000187333
0.000175236
0.00019696
0.000151997
0.000190724
0.000221648
0.000139274
0.00959921
0.000178961
0.000201533
0.000154426
0.000164203
0.000144825
0.000141076
0.00018554