/*--------------------------------*- C++ -*----------------------------------*\
| =========                 |                                                 |
| \\      /  F ield         | OpenFOAM: The Open Source CFD Toolbox           |
|  \\    /   O peration     | Version:  v2012                                 |
|   \\  /    A nd           | Website:  www.openfoam.com                      |
|    \\/     M anipulation  |                                                 |
\*---------------------------------------------------------------------------*/
FoamFile
{
    version     2.0;
    format      ascii;
    class       volScalarField;
    location    "200";
    object      k_0;
}
// * * * * * * * * * * * * * * * * * * * * * * * * * * * * * * * * * * * * * //

dimensions      [0 2 -2 0 0 0 0];


internalField   nonuniform List<scalar> 
13851
(
0.000153253
0.0157115
0.00018976
0.000152074
0.000189106
0.00177854
0.00014541
0.000176967
0.000137125
0.000199457
0.00496915
0.0196307
0.00908277
0.0265296
0.00014286
0.000168225
0.000156416
0.000161655
0.00068128
0.000137037
0.000151586
0.000188834
0.000142374
0.000149083
0.000143768
0.000177816
0.00015473
0.00359123
0.000152839
0.000154933
0.00379281
0.000157034
0.000188978
0.00319684
0.00014919
0.000212606
0.000146886
0.000199149
0.000202564
0.00384711
0.000143245
0.000129589
0.00756053
0.0050047
0.00547498
0.0248624
0.0047257
0.00700879
0.000155178
0.00103367
0.000188656
0.00020311
0.0146986
0.000144735
0.000152403
0.000129659
0.000141806
0.0160975
0.000154456
0.00014603
0.000190564
0.0284511
0.000195449
0.000192756
0.00827867
0.000157383
0.00103504
0.00394165
0.000167012
0.000161638
0.0158584
0.00982152
0.0122831
0.000145668
0.000139692
0.000139707
0.000188176
0.016537
0.000176987
0.0183152
0.000148196
0.00447972
0.00014266
0.0199093
0.000196717
0.0180479
0.000330915
0.0318637
0.000157103
0.00013929
0.000212718
0.000212415
0.00357044
0.000160479
0.000156716
0.000147282
0.000189843
0.0283851
0.00121384
0.000147288
0.0100497
0.000178914
0.00014968
0.000153867
0.000140318
0.000314723
0.000181696
0.000128579
0.0231013
0.00261394
0.000149296
0.000139731
0.000193358
0.000151882
0.000149295
0.00163709
0.0290035
0.000128786
0.000153677
0.000155212
0.00764629
0.000153664
0.0119758
0.00403421
0.00692766
0.000143641
0.00704085
0.000177986
0.000150888
0.000200647
0.000143001
0.00013719
0.0191145
0.000142631
0.000970512
0.000138938
0.000128884
0.0082371
0.0278687
0.0397885
0.0113792
0.000152709
0.000149074
0.000133276
0.000153023
0.00426254
0.000499523
0.000200562
0.000145235
0.00568506
0.000189068
0.000152269
0.024936
0.000142372
0.000151965
0.000152841
0.000140396
0.000152596
0.000202917
0.000188269
0.000130548
0.000160128
0.0164321
0.000137064
0.000160957
0.000131397
0.000643122
0.000167412
0.000150491
0.0204346
0.014425
0.000134399
0.000140591
0.0389439
0.000136952
0.00666419
0.000177062
0.000148482
0.000690483
0.000128816
0.000158393
0.0114778
0.00014254
0.000189961
0.000129625
0.000143774
0.000158183
0.000147651
0.000191442
0.000211377
0.00415563
0.0161466
0.000140848
0.000167252
0.0279776
0.000151565
0.00014805
0.00613832
0.000147838
0.000140011
0.000144435
0.0279993
0.000159718
0.000141907
0.000195799
0.000142668
0.020551
0.000156632
0.0289999
0.000129273
0.0349327
0.000149265
0.00588703
0.000128362
0.000132502
0.00451815
0.0001912
0.0252033
0.000142239
0.0300775
0.000156943
0.000148525
0.0297409
0.000201088
0.0398417
0.000144474
0.00016296
0.000141705
0.0190894
0.000128414
0.000176816
0.00421197
0.000134317
0.00014043
0.000185906
0.000175138
0.0202741
0.0135971
0.000133118
0.000142029
0.00277726
0.00119309
0.000134127
0.00019892
0.00013752
0.0381191
0.000179497
0.00489666
0.000153083
0.000158247
0.00017507
0.00112085
0.00014849
0.000153255
0.000179633
0.000333452
0.000207532
0.00948309
0.00555981
0.000143117
0.000132662
0.000160622
0.0111998
0.000136392
0.0057741
0.000151544
0.000148312
0.000159794
0.0280363
0.000199538
0.000173188
0.000151979
0.0154823
0.000175432
0.000167326
0.000137303
0.00434206
0.00150003
0.0433392
0.00525301
0.000134274
0.000128878
0.000139817
0.000178402
0.0115825
0.00579168
0.00013834
0.00014303
0.0153829
0.00367632
0.000205637
0.000153816
0.000146171
0.000169237
0.00389898
0.00441086
0.000160208
0.0176582
0.000137509
0.0382335
0.000159597
0.000156214
0.0420814
0.000146581
0.000365345
0.033463
0.000138089
0.000174189
0.000160672
0.000153331
0.0267091
0.000160516
0.000148139
0.0297635
0.000130093
0.000158685
0.000150476
0.0421825
0.000201005
0.000142247
0.000179743
0.000142516
0.0118736
0.000195558
0.00014238
0.000143277
0.000200418
0.000162133
0.000151682
0.000143046
0.000146387
0.000147927
0.00536366
0.0174421
0.0224195
0.000167575
0.0408837
0.0248415
0.000142453
0.000167891
0.000206547
0.000211263
0.000191594
0.000200091
0.00048984
0.000160932
0.00867484
0.0354014
0.000143072
0.00102522
0.000943755
0.00214597
0.000151654
0.000195962
0.0191267
0.000140919
0.00917957
0.000143194
0.0001426
0.000136215
0.000128585
0.000139662
0.0353651
0.00511288
0.000143259
0.000172997
0.000130693
0.0183133
0.000174601
0.00617792
0.0217825
0.000143461
0.000197338
0.000160911
0.0065525
0.000142201
0.000128925
0.000186779
0.00860643
0.000143476
0.0259728
0.000214711
0.000201812
0.0180407
0.00187988
0.00200079
0.000159699
0.000137714
0.000149267
0.000165771
0.00017942
0.027386
0.000167349
0.0393226
0.034069
0.000130821
0.000143216
0.0213407
0.0206625
0.00258577
0.0291784
0.000183794
0.000161768
0.000147036
0.0222384
0.000135604
0.000167446
0.000156507
0.000144728
0.000140787
0.000137807
0.000131263
0.000192252
0.000186495
0.0157449
0.000163113
0.000181289
0.00018256
0.00119738
0.000159852
0.0024469
0.000155689
0.00467636
0.000128775
0.000137585
0.000145666
0.000190582
0.00328141
0.000199868
0.000180064
0.0125166
0.00289758
0.000272419
0.000158053
0.000186411
0.000141965
0.00213971
0.000140059
0.00845632
0.00480357
0.000188235
0.0261322
0.000149052
0.00213481
0.00468229
0.0108073
0.000128551
0.000163449
0.000177731
0.000445709
0.000135124
0.000148033
0.000187644
0.000201589
0.000167908
0.0270291
0.000144474
0.000143941
0.0133038
0.000161686
0.000128683
0.0343038
0.000137626
0.00015305
0.000135883
0.000175688
0.000151553
0.000129015
0.000148408
0.0289863
0.000142788
0.000169266
0.000138247
0.00016606
0.00367821
0.000152839
0.000143172
0.000152054
0.000151926
0.00347321
0.000148157
0.000588793
0.0001425
0.000145195
0.0198502
0.0247062
0.000142929
0.000169047
0.000160051
0.00168477
0.0217812
0.000144023
0.00470056
0.000142465
0.000188684
0.000145252
0.0205407
0.000129864
0.0142781
0.000210755
0.00012972
0.000170433
0.0242242
0.000177985
0.00506521
0.000153547
0.00215566
0.000156101
0.00013649
0.000137406
0.000144708
0.0250416
0.000185939
0.000203229
0.000113037
0.000189823
0.000130968
0.0225291
0.00342103
0.000158587
0.000160453
0.0017841
0.00309049
0.0326417
0.000151703
0.0209577
0.0230794
0.0284544
0.000161452
0.000173601
0.00800564
0.00214965
0.000238497
0.00608866
0.0161882
0.000153018
0.0176191
0.0109508
0.000128903
0.00152027
0.000186573
0.0201763
0.000153491
0.000141488
0.000140117
0.000142332
0.000191096
0.000172052
0.0321724
0.0273974
0.000137804
0.0115716
0.0245628
0.000635765
0.00402764
0.00016875
0.000128278
0.000137343
0.00278283
0.0247387
0.000152192
0.000193883
0.000212494
0.000129535
0.000195733
0.00310837
5.52609e-05
0.000199318
0.0263181
0.0114304
0.000142713
0.000144863
0.0205063
0.0337693
0.000202666
0.000167146
0.000204549
0.000128757
0.000140548
0.0102538
0.000129276
0.000153305
0.000128691
0.000137716
0.0121276
0.000191514
0.000171789
0.000129181
0.0258501
0.00627947
0.000137718
0.000139663
0.00013673
0.00014842
0.00863883
0.00544317
0.0056564
0.0284233
0.00214318
0.000165556
0.0163823
0.0264229
0.000163546
0.000167479
0.000128248
0.00014863
0.000169372
0.0266802
0.00949225
0.000193492
0.00016233
0.000136622
0.000167929
0.000148482
0.00471512
0.000188316
0.000142377
0.000167991
0.000135124
0.000159378
0.000200471
0.000145673
0.000141729
0.000174637
0.000145613
0.000189293
0.000193792
0.000200171
0.000168502
0.0002035
0.000136459
0.000540996
0.000184312
0.0277879
0.000148991
0.000147802
0.0196806
0.000153882
0.0169014
0.0359911
0.0238516
0.0336614
0.000135574
0.012781
0.000135195
0.000137689
0.000129819
0.000137791
0.000176047
0.000164464
0.000173339
0.000128967
0.0228401
0.000215218
0.0238195
0.000139432
0.000131054
0.000138947
0.000203551
0.0277162
0.000180189
0.00015977
0.000135428
0.000145842
0.000144339
0.000141087
0.000115796
0.0244702
0.00014533
0.000128859
0.000144843
0.000140972
0.00165736
0.0163134
0.000168534
0.0270915
0.0021715
0.000141523
0.000202926
0.0101748
0.000168737
0.0198288
0.00014814
0.00016068
0.000179657
0.000161731
0.0061039
0.000142799
0.00683842
0.000140604
0.000163197
0.0288095
0.000140702
0.000152386
0.000204908
0.000136594
0.00015756
0.0146468
0.0368189
0.000187652
0.00362348
0.00213182
0.000128497
0.000139202
0.0219326
0.000209551
0.000179045
0.0359803
0.00013635
0.000165517
0.000129027
0.00315715
0.00110781
0.000157867
0.000147736
0.0035782
0.000155133
0.000138642
0.00984106
0.000327866
0.0278581
0.000129939
0.000145169
0.016698
0.0106477
0.000207426
0.000147418
0.0232837
0.000142737
0.00409256
0.000204598
0.000189575
0.000156855
0.0237999
0.000166079
0.000150901
0.000169017
0.00014713
0.000159661
0.000151988
0.000136285
0.0116099
0.000166392
0.000199933
0.000170192
0.00225186
0.000136838
0.0135708
0.000152351
0.000164984
0.00013175
0.000141132
0.000143494
0.0332352
0.000139889
0.000129235
0.00596113
0.000145092
0.0205037
0.000142038
0.000148619
0.000187865
0.00174372
0.00501454
0.00013929
0.0143453
0.0280286
0.000148328
0.0316664
0.000162862
0.000136011
0.000469026
0.00829081
0.0100091
0.000158593
0.00013889
0.00012868
0.00420538
0.000192219
0.000193649
0.000159496
0.000449098
0.000149293
0.00014795
0.000193364
0.00324296
0.000190726
0.00902839
0.00014494
0.000189103
0.000192319
0.0415193
0.000157537
0.0245738
0.000106598
0.000145243
0.0187177
0.000294841
0.0279071
0.0352555
0.0302707
0.00235017
0.000174902
0.000136154
0.000165385
0.0162706
0.0184164
0.000142665
0.00014546
0.00018667
0.00383781
0.000129822
0.0137079
0.000136099
0.000143263
0.0133876
0.0165066
0.00247713
0.000137628
0.00014273
0.0123057
0.000160459
0.000201012
0.000154097
0.0247183
0.000116471
0.0272107
0.000181261
0.000172442
0.000148185
0.000145096
0.00968005
0.000178068
0.0195814
0.000189149
0.000166926
0.0120615
0.0274921
0.0220576
0.000143465
0.000163947
0.000137619
0.000169214
0.000152146
0.0225235
0.000165771
0.0353686
0.00012973
0.000187323
0.000140934
0.000210845
0.000166167
0.000163524
0.0273635
0.000174275
0.000178113
0.000149788
0.000187326
0.00660322
0.000207808
0.000153508
0.0148059
0.000135857
0.0336359
0.00456126
0.000146307
0.0364197
0.00878078
0.0220171
0.00190117
0.000182939
0.000142438
0.0266474
0.000166711
0.00196469
0.0295299
0.000139442
0.00015122
0.000258877
0.00605744
0.0258503
0.000145081
0.000138856
0.012723
0.0288066
0.000199484
0.000157783
0.000151549
0.00385597
0.0187801
0.000193077
0.000129293
0.000175096
0.000136706
0.000156957
0.00123146
0.00014747
0.0109948
0.00323702
0.000143427
0.000149719
0.000142706
0.00015214
0.016671
0.0235786
0.000162926
0.0242699
0.000140881
0.000163046
0.000141995
0.000136829
0.000145849
0.000143268
0.0224758
0.000142961
0.000179739
0.000143551
0.000158842
0.00160781
0.00961963
0.000153769
0.0237708
0.000196588
7.44499e-05
0.000167032
0.000167074
0.0170972
0.000159349
0.000172514
0.0218749
0.00259245
0.0156087
0.000172924
0.00565386
0.00014847
0.000172857
0.000179517
0.0257433
0.000142894
0.0316168
0.000139022
0.000139619
0.0292541
0.000143258
0.00338082
0.000157364
0.00013752
0.000188634
0.000137624
0.000142774
0.000137177
0.00014771
0.000166815
0.00013962
0.000169116
0.0181181
0.000191711
0.0367545
0.000144871
0.000152511
0.000156669
0.000142502
0.000137423
0.00019103
0.000148329
0.000138979
0.000147995
0.000144353
0.0202812
0.0245319
0.000204701
0.0292364
7.28198e-05
0.000140517
0.00753362
0.000162066
0.000139474
0.00324124
0.000267803
0.00420508
0.000140239
0.00492248
0.00510378
0.0190356
0.000134585
0.0105094
0.000165422
0.000154557
0.000137842
0.000136384
0.0201414
0.000258579
0.00387887
0.000140189
0.000142265
0.00693633
0.000146431
0.00212505
0.0034158
0.0302647
0.00040655
0.00372923
0.000145065
0.00014301
0.000195008
0.000165913
0.000153959
0.000210071
0.000174177
0.000148569
0.000150874
0.0259541
0.000139239
0.0194602
0.00194101
0.0012775
0.000224959
0.00015137
0.000134115
0.000147034
0.00449876
0.00302627
0.000134582
0.000154867
0.00013993
0.000190342
0.000130535
0.000139503
0.000148741
0.00016639
0.000853363
0.000174275
0.000166479
0.000143893
0.000179541
0.0123747
0.000149689
0.0160827
0.0153778
0.000191371
0.000131755
0.000174988
0.000141462
0.000142692
0.000146577
0.0164667
0.000201173
0.00290864
0.00015406
0.00420502
0.000141884
0.000141038
0.000146652
0.00612931
0.014978
0.000130219
0.000166013
0.000190982
0.0259646
0.000152725
0.0213533
0.000176305
0.0220636
0.000192659
0.0280521
0.000193773
0.000191067
0.000168743
0.0258677
0.00339611
0.0291741
0.00014179
0.00023091
0.000130403
0.000153706
0.000158103
0.000145929
0.0261963
0.000163647
0.000160462
0.00277191
0.000214481
0.00540339
0.000142374
0.000153719
0.000158647
0.000134853
0.000167448
0.0128767
0.0035432
0.0179465
0.000138998
0.000159418
0.000155576
0.00416641
0.0287951
0.000194234
0.00013397
0.00014785
0.0215411
0.000177019
0.0147349
0.0276335
0.000645138
0.000131557
0.0058176
0.000166989
0.000174933
0.000161698
0.0334375
0.00472813
0.000198754
0.000615346
0.000150013
0.000161582
0.000143276
0.014869
0.000181144
0.0248781
0.00249738
0.00015791
0.000206275
0.000151508
0.032892
0.000145469
0.0001387
0.000155655
0.0298699
0.000266818
0.0188772
0.000145144
0.000143264
0.0169003
0.015107
0.0201182
0.000154544
0.000144862
0.00014344
0.0206707
0.000205024
0.000147607
0.000268378
0.00019324
0.0198356
0.0047656
0.00543369
0.000143091
0.0199591
0.000155828
0.000142967
0.000204905
0.0287349
0.000145505
0.000139001
0.00792072
0.0309294
0.000141987
0.000138871
0.0328688
0.000138311
0.00278873
0.000138994
0.00253221
0.000143248
0.000180208
0.018369
0.028475
0.000150862
0.00633331
0.00386831
0.0217619
0.00219828
0.0214051
0.000525974
0.00014098
0.0120441
0.000153039
0.000142511
0.000134683
0.00453927
0.000141332
0.000130511
0.000139178
0.000152098
0.0157359
0.000188037
0.00834353
0.000152025
0.000187742
0.000137306
0.000165767
0.00588307
0.0168552
0.000138585
0.000186497
0.00472206
0.00014627
0.000136563
0.0280901
0.000167611
0.000170128
0.000202976
0.0411047
0.0143627
0.00446027
0.0166261
0.000714791
0.00498971
0.00338798
0.0338341
0.000186327
0.000133057
0.000202538
0.000140898
0.000140777
0.0258482
0.0285451
0.000152771
0.0248734
0.000262237
0.0188496
0.0004815
0.000310636
0.000142018
0.000294404
0.000498085
0.000140134
0.000151179
0.0331258
0.0284202
0.0220894
0.0302432
0.000173603
0.0381311
0.0346396
0.000165256
0.000146085
0.000140598
0.00414957
0.000139759
0.000133406
0.00015165
0.000149291
0.000153271
0.0133402
0.0388748
0.01805
0.000147775
0.00690451
0.000156814
0.000163052
0.000139388
0.000138724
0.0155653
0.000160469
0.0268853
0.00503196
0.000246417
0.000200125
0.000143405
0.000175445
0.00014627
0.000204757
0.000147853
0.000151748
0.00014733
0.000152098
0.000208387
0.000149469
0.000169316
0.000140764
0.000170035
0.000209265
0.0175014
0.000140864
0.000177647
0.000142724
0.000213886
0.000150793
0.0265839
0.000239836
0.000164787
0.000153909
0.000152043
0.00125592
0.000142466
0.00295518
0.000142892
0.000140602
0.000147547
0.0304419
0.00015976
0.000155921
0.000186293
0.000142919
0.000185282
0.0294093
0.00515702
0.000168832
0.000143285
0.000308377
0.00013352
0.000141396
0.000225049
0.0353165
0.000141283
0.000163854
0.000314045
0.00835633
0.000147924
0.000149174
0.0338502
0.000151188
0.000587178
7.65801e-05
0.0387562
0.000143466
0.000153934
0.000141806
0.0395867
0.00020266
0.000174294
0.00020086
0.0192324
0.000150424
0.0342365
0.01621
0.000146297
0.0162279
0.00019149
0.000151814
0.0151114
0.000144761
0.000142912
0.00013574
0.000212903
0.000647149
0.000210099
0.000151882
0.000149917
0.000162954
0.00507902
3.65593e-05
0.0375643
0.00520652
0.000148993
0.000202916
0.000200122
0.0170985
0.000192106
0.00389769
0.000139889
0.000188051
0.000136581
0.000572325
0.000171285
0.000141742
0.0267623
0.00023187
0.000166604
0.000187283
0.000129342
0.000142366
0.000184622
0.000168799
0.00661402
0.000186193
0.000187433
0.000190026
0.000197028
0.0192476
0.000226945
0.0371492
0.000141065
0.000138935
0.000222615
0.021979
0.0157081
0.00106017
0.0001513
0.0161781
0.00486036
0.000140943
0.000158498
0.000137978
0.000173062
0.000188025
0.000615642
0.0157942
7.80019e-05
0.00015129
0.0274822
0.0139126
0.000142999
0.000230348
0.0289613
0.015358
0.000154151
0.000189334
0.000128348
0.000157903
0.000140038
0.000157496
0.039053
0.025162
0.013662
0.020044
0.000151008
0.000169144
0.000186535
0.000139978
0.00014771
0.000136426
0.0254267
0.000139444
0.0317132
0.000171603
0.00018887
0.00020807
0.000179055
0.0179068
0.00984518
0.000172538
0.000131026
0.000162828
0.0068154
0.00191834
0.000156178
0.000137707
0.000136841
0.000185322
0.000164636
0.000206128
0.0201094
0.000150831
0.000135959
0.000200849
0.000265526
0.0163259
0.000410908
0.000138979
0.000188097
0.000145787
0.0429118
0.000132537
0.0385749
0.000138978
0.000150608
0.000169428
0.00014827
0.000211495
0.000163451
0.000177065
0.0169682
0.0289076
0.000157063
0.000163802
0.000141869
0.0083355
0.0193845
0.00014673
0.000132845
0.00420522
0.000128595
0.0261691
0.000142071
0.000168153
0.000188836
0.000288824
0.000172213
0.000149957
0.000144997
0.00018787
0.0329655
0.000141018
0.000623243
0.021527
0.000609626
0.000201101
0.000168332
0.0199378
0.000156816
0.000194127
0.00014187
0.00535351
0.00522539
0.0144911
0.0203888
0.0212111
0.000144808
0.000834004
0.000138973
0.0131173
0.00327774
0.0325614
0.0170161
0.000160279
0.0183282
0.00925262
0.000169808
0.000151733
0.000145569
0.0274252
0.00015812
0.000187639
0.000155181
0.000146753
0.000136825
0.000145538
0.0289482
0.000190372
0.000165727
0.0218248
0.00480504
0.000141406
0.000142315
0.000136516
0.000166459
0.0377312
0.0001562
0.000157921
0.000167473
0.014896
0.000190798
0.000175378
0.0118962
0.000164732
0.0369586
0.000163197
0.000163454
0.000142008
0.000154769
0.000187446
0.0040342
0.00524898
0.0301294
0.000187775
0.0280078
0.000154206
0.000155551
0.000143757
0.0144472
0.0234903
0.00246012
0.000298175
0.000153593
0.000143436
0.000140581
0.000142875
0.000136614
0.0127161
0.000163289
0.0155058
0.000167109
0.0282811
0.00744867
0.0376517
0.000249123
0.000157893
0.0201787
0.000174417
0.0326615
0.0301974
0.000136369
0.000397198
0.000160138
0.0107972
0.0083288
0.000169931
0.000263627
0.00441483
0.00015494
0.000184401
0.000165119
0.0260644
0.00516771
0.000154665
0.000145017
0.0052754
0.000185261
0.000201177
0.00492942
0.000202606
0.000166555
0.000141728
0.00435003
0.0341447
0.000194044
0.000164123
0.0289924
0.0320088
0.000139158
0.000143104
0.000155157
0.0322393
0.0298188
0.000142374
0.0208242
0.000149159
0.000140876
0.00014638
0.0192832
0.000201921
0.000620729
0.0147634
0.00015217
0.000151662
0.0001396
0.0108201
0.000150809
0.0277065
0.000154071
0.016772
0.000147788
0.000140934
0.000199175
0.0118398
0.00368931
0.000170835
0.0214929
0.000133245
0.000144606
0.000143234
0.000175956
0.000185496
0.000185646
0.000168518
0.0254911
0.000155359
0.000198713
0.00257263
0.0172062
0.000144454
0.0254337
0.0309285
0.000156166
0.00226819
0.00018616
0.0128705
0.000145755
0.000194238
0.00014197
0.0321082
0.0150429
0.000223866
0.0352934
0.00015379
0.000177745
0.000150809
0.0215864
0.00013172
0.000137845
0.00631541
0.000198495
0.020014
0.00499128
0.000185415
0.000162276
0.000135567
0.0233995
0.000168853
0.000140283
0.0002057
0.000136986
0.000174515
0.000143434
0.00106745
0.000153244
0.00437044
0.00491674
0.000171126
0.000278657
0.000185594
0.0432141
0.000143622
0.0186698
0.0271325
0.000137453
0.000142848
0.000152131
0.000147986
0.000172594
0.000142203
0.000432506
0.000189821
0.00340351
0.000220587
0.000145531
0.00014833
0.000135791
0.012515
0.000144839
0.000142833
0.00014648
0.000154204
0.0204215
0.033937
0.000193335
0.00015489
0.000168332
0.000151493
0.000149145
0.000194554
0.000133459
0.000154523
0.0139623
0.0400627
0.000295371
0.000151336
0.0152493
0.00849257
0.000148138
0.00291369
0.0263824
0.000142475
0.000153514
0.000141974
0.0158376
0.0233256
0.00818566
0.000133295
0.000154844
0.000152121
0.000145105
0.000202004
0.000145972
0.000288093
0.0106002
0.0348346
0.000136263
0.000154315
0.000153239
0.0258148
0.00012934
0.0226137
0.01478
0.00177852
0.00188761
0.0226599
0.0172966
0.000150497
0.00823388
0.000319509
0.000150334
0.000135346
0.000138581
0.0343862
0.0143657
0.0178479
0.000142111
0.0381379
0.000145627
0.000206322
0.000136619
0.000153007
0.000150181
0.000136143
0.0239449
0.000150486
0.0263866
0.0305075
0.0226143
0.000178319
0.000179708
0.0235407
0.0321661
0.000147264
0.00666248
0.000135814
0.000128955
0.000142125
0.000338218
0.000138583
0.0179047
0.00016858
0.0036523
0.000169852
0.0147576
0.0204125
0.000221918
0.00013591
0.000187113
0.000193259
0.0243056
0.000144537
0.000130786
0.0001567
0.0289605
0.000146266
0.00440111
0.0184031
0.000173182
0.00018433
0.000144703
0.0041893
0.00014756
0.0388408
0.000133341
0.00995745
0.000164493
0.00014453
0.0185251
0.0217148
0.000132951
0.000185979
0.000156056
0.0158103
0.000480875
0.0059746
0.00362756
0.000147738
0.000187795
0.0273951
0.00014061
0.000297953
0.00015131
0.000189996
0.000165857
0.0149298
0.0227096
0.000144772
0.0256367
0.000150621
0.000175143
0.0281551
0.0186731
0.00016957
0.0256723
0.000174849
0.000145141
0.00444008
0.000202511
0.000164221
0.000150352
0.0284824
0.000133249
0.0131236
0.00218566
0.000197876
0.000142267
0.000166066
0.0249419
0.000175532
0.0272971
0.000149309
0.000154373
0.000396856
0.0278512
0.000157947
0.0337971
0.00886974
0.0180072
0.00014655
0.0269094
0.0124241
0.0246069
0.000142799
0.000154436
0.000143874
0.0354545
0.000202465
0.00403528
0.00432407
0.000148017
0.00013514
0.000142576
0.0249047
0.010042
0.0117166
0.0210115
0.000139406
0.0255416
0.0289423
0.000203331
0.0147198
0.0260436
0.000166854
0.0138159
0.000153125
0.000157385
0.0138392
0.0173064
0.000145319
0.0224027
0.000147264
0.00014315
0.0200878
0.0228375
0.0328337
0.0139342
0.000165953
0.000147955
0.000158213
0.0277514
0.0207836
0.000141068
0.000176326
0.00264013
0.000143358
0.000145102
0.022551
0.0281507
0.000152583
0.00014311
0.000150055
0.000151238
0.00694369
0.000147923
0.000142317
0.000158213
0.000250992
0.0272015
0.000311423
0.0275081
0.000144978
0.00015623
0.0283264
0.030673
0.000161132
0.000788337
0.000142113
0.000169283
0.00014997
0.000148268
0.000188642
0.000141904
0.0126327
0.000167465
0.000139272
0.000155523
0.0156768
0.0263401
0.0218314
0.000143515
0.000168035
0.0318929
0.00406244
0.000154672
0.000144047
0.000143526
0.00525157
0.000145346
0.000146903
0.000161419
0.000142717
0.028937
0.000643814
0.000147595
0.000155323
0.000132613
0.0001459
0.0132411
0.00099548
0.000187915
0.0161887
0.000214419
0.000148429
0.000141952
0.000144551
0.000143494
0.00014733
0.000161667
0.000202144
0.0285664
0.000149894
0.00019735
0.0217352
0.00247824
0.000142297
0.000137979
0.000153307
0.0205804
0.000142932
0.00163626
3.49377e-05
0.000187541
0.000146443
0.0141967
0.000133308
0.000485194
0.000135016
0.00013358
0.000146508
0.000139469
0.000190182
0.0133513
0.000256596
0.000172189
0.00136877
0.00026167
0.00494786
0.000165348
0.0231626
0.0168159
0.00019612
0.0214335
0.0233252
0.000199945
0.00404019
0.000148065
0.000138615
0.0288686
0.000140225
0.000155506
0.0213317
0.000302777
0.0180521
0.000248181
0.000138197
0.000155675
0.000144779
0.000273732
0.000136347
0.000434132
0.0218033
0.0260664
0.0131653
0.000144921
0.000133652
0.000188663
0.0271518
0.0294668
0.000199386
0.00101929
0.000138615
0.00280579
0.0282346
0.00538159
0.000154369
0.00014527
0.000132874
0.000153222
0.000144999
0.000143927
0.000155013
0.027841
0.00018997
0.0260642
0.000237926
0.00454255
0.000212945
0.000141781
0.000140142
0.000145888
0.000136269
0.000147729
0.00138028
0.0204296
0.00533544
0.0382679
0.000153119
0.0206896
0.000201934
0.0338045
0.0311409
0.000145444
0.000139251
0.001196
0.000145066
0.00013311
0.00284416
0.0292016
0.00409455
0.000143445
0.000144902
0.0001526
0.000172299
0.0147606
0.000136009
0.00015572
7.92337e-05
0.000135714
0.00275854
0.000171961
0.0217601
0.000147835
7.10886e-05
0.0286454
0.000170691
0.0266115
0.000199153
0.0273101
0.000132936
0.000157175
0.000138749
0.000164278
0.0224479
0.000143321
0.0151521
0.000145148
0.00014494
0.000143156
0.0380646
0.00017519
0.000198406
0.00756702
0.000137027
0.000179169
0.0148857
0.000186379
0.000138904
0.000151358
0.000145228
0.000179178
0.00014369
0.000140023
0.0413515
0.0350352
0.0360894
0.000180876
0.000236556
0.0187579
0.000187823
0.0400471
0.000198668
0.000132297
0.000140033
0.000128703
0.000146792
0.0289431
0.0291078
0.00013586
0.0136265
0.0408587
0.000162361
0.00014927
0.000169398
0.0277434
0.021845
0.0283294
0.0018881
0.0296799
0.000128733
0.000173478
0.000194477
0.00434109
0.0156729
0.000142413
0.000202842
0.0158664
0.000167719
0.0299094
0.000148031
0.000504967
0.0170576
0.0351545
0.000189196
0.000165906
0.0161158
0.000202719
0.0359421
0.0376001
0.0286591
0.000199874
0.0232818
0.000145184
0.000157053
0.000177013
0.0221636
0.00510075
0.0273093
0.000148977
0.000198299
0.000199213
0.000149762
0.0241323
0.000142478
0.000203249
0.0203749
0.000142497
0.0215737
0.0210325
0.0381584
0.027208
0.00326617
0.000600939
0.00014164
0.0300871
0.000144709
0.000139884
0.000173355
0.000154554
0.0315123
0.000154882
0.000169115
0.000155204
0.000139358
0.0195279
0.000152373
0.000200766
0.00428095
0.000136254
0.0276621
0.000194898
0.000149458
0.0146058
0.000134199
0.00014225
0.00271897
0.000149463
0.0402963
0.000786237
0.000136122
0.000199951
0.000152546
0.0325052
0.0300466
0.00018857
0.0123941
0.000159662
0.000143612
0.0208531
0.000154594
0.000143933
0.00381496
0.000172201
0.000138564
0.0001391
0.00020017
0.000151962
0.0200946
0.000170849
0.000271033
0.0134288
0.000180143
0.000185596
0.000142153
0.0337512
0.0171723
0.0233942
0.000142879
0.000134901
0.000187729
0.000165265
0.00397096
0.000144195
0.00339735
0.000143194
0.00028727
0.000147127
0.000272966
0.000212962
0.00020005
0.0278783
0.00619616
0.0262671
0.0286857
0.000129
0.00062188
0.000810149
0.0206479
0.000141002
0.000190559
0.0166722
0.0213956
0.000200264
0.000376043
0.0126662
0.0362708
0.000175633
0.000160884
0.000136024
0.000177289
0.000173744
0.000142174
0.000187811
0.0180061
0.000485308
0.0226271
0.00259735
0.00014094
0.000138576
0.000169936
0.000142273
0.0140572
0.000136308
0.000138453
0.0404289
0.000199484
0.000166757
0.000195489
0.000150542
0.000195682
0.0176795
0.03113
0.0186333
0.000157191
0.030663
0.000150639
0.000136124
0.000152759
0.0247354
0.000155906
0.000178298
0.000203383
0.000150408
0.000139172
0.000142283
0.000148121
0.000159076
0.0154901
0.00146114
0.000162715
0.0248799
0.0197309
0.000195655
0.0227171
0.000143429
0.000163648
0.000258614
0.000143071
0.000168959
0.000159855
0.000154782
0.0275875
0.0313424
0.000136286
0.000171632
0.000163851
0.000189458
0.0255591
0.0216183
0.0360074
0.00014637
0.00019132
0.037216
0.000191275
0.000200029
0.0014506
0.0280251
0.0359315
0.0410901
0.000135902
0.0211998
0.000135592
0.00015216
0.00014276
0.00018414
0.0357638
0.0144182
0.00398944
0.0189505
0.000182803
0.000132568
0.00013785
0.000145019
0.000155947
0.000175029
0.0383152
0.0415903
0.000189798
0.00531911
0.000146876
0.000182954
0.000136711
0.0374811
0.000218599
0.000145871
0.000208139
0.000195983
0.00569472
0.0257617
0.000200795
0.00955533
0.000156631
0.0248371
0.000179683
0.013338
0.00346381
0.000150352
0.000183115
0.000144428
0.0246947
0.0171715
0.000173193
0.0271182
0.00017327
0.0284237
0.000187008
0.000237767
0.000173628
0.00013855
0.000200903
0.00018887
0.000155221
0.000183376
0.0001653
0.00016741
0.013976
0.000208914
0.000152861
0.000164993
0.000169865
0.000166949
0.000150114
0.021277
0.000196203
0.00435625
0.0126029
0.000143311
0.0302426
0.000143337
0.000156336
0.00015374
0.029987
0.000173255
0.0370783
0.0262647
0.000184601
0.000195033
0.000200956
0.0246723
0.000203745
0.00959302
0.000163487
0.000175805
0.000140223
0.0328698
0.00398365
0.000162409
0.000144052
0.000172422
0.000158217
0.000155824
0.00017802
0.000171751
0.000145926
0.000168859
0.0260519
0.0109417
0.000820186
0.000173256
0.00013025
0.0247426
0.000165979
0.000185646
0.0154865
0.000174043
0.0129857
0.000133406
0.000166349
0.000156031
0.000167957
0.000141751
0.0313778
0.00400516
0.0154108
0.00017234
0.0258623
0.000188016
0.000157768
0.0244177
0.000186274
0.000209915
0.0159772
0.000178279
0.000154983
0.000172357
0.000186799
0.000154357
9.63552e-05
0.0263497
0.00340897
0.000138623
0.000170546
0.000157836
0.00246357
0.000141779
0.000175391
0.000142061
0.000165405
0.0206806
0.000163752
0.000163053
0.000138688
0.000138453
0.000123143
0.0243909
0.00014442
0.0012497
0.000222543
0.000132724
0.000163313
0.0328911
0.000196734
0.000196466
0.000142898
0.000160358
0.00020946
0.000145206
0.000140867
0.020174
0.000163276
0.031392
0.000191954
0.000158678
0.0344271
0.000200651
0.000206667
0.000139022
0.00623445
0.000163265
0.000159456
0.0280756
0.000172694
0.000146209
0.000194324
0.000155852
0.000157395
0.000133221
0.0303488
0.00014308
0.000213403
0.012285
0.00019402
0.000139611
0.000321745
0.000164342
0.0270357
0.000216053
0.0257026
0.000196898
0.0339363
0.000136946
0.000189607
0.000157367
0.000140608
0.00521008
0.00801805
0.000156337
0.0105807
0.000163233
0.000187901
0.0260038
0.000158253
0.000274805
0.0143319
0.0272908
0.0252839
0.000291414
0.000178175
0.000138006
0.000213926
0.000170614
0.00361987
0.0139663
0.0371325
0.0206667
0.0378738
0.000138228
0.0291833
0.000142799
0.000150542
0.000145553
0.00459699
0.000213955
0.000228992
0.000140454
0.0104635
0.000160599
0.0221007
0.000140024
0.000190168
0.000163801
0.00018734
0.000175241
0.000196945
0.000151997
0.000190596
0.000221769
0.000139274
0.00962799
0.000178658
0.000201641
0.000154426
0.000164203
0.000144825