/*--------------------------------*- C++ -*----------------------------------*\
| =========                 |                                                 |
| \\      /  F ield         | OpenFOAM: The Open Source CFD Toolbox           |
|  \\    /   O peration     | Version:  v2012                                 |
|   \\  /    A nd           | Website:  www.openfoam.com                      |
|    \\/     M anipulation  |                                                 |
\*---------------------------------------------------------------------------*/
FoamFile
{
    version     2.0;
    format      ascii;
    class       volScalarField;
    location    "200";
    object      omega_0;
}
// * * * * * * * * * * * * * * * * * * * * * * * * * * * * * * * * * * * * * //

dimensions      [0 0 -1 0 0 0 0];


internalField   nonuniform List<scalar> 
13851
(
0.0263234
1.29898
0.081382
0.026
0.083562
0.328703
0.0247356
0.048562
0.0234601
0.094024
0.325623
1.89855
2.63236
2.77271
0.0244908
0.0359528
0.0276286
0.0308142
0.846791
0.02346
0.0258456
0.0792405
0.0239139
0.0247831
0.0241355
0.0493787
0.0270239
12.654
0.0261528
0.0269491
0.522532
0.027923
0.0778314
0.362426
0.0247733
0.18719
0.683019
0.198384
0.104251
0.393843
0.0242847
0.022316
3.68037
0.328918
0.340166
4.38002
0.320824
0.631422
0.0272342
0.161064
0.0774529
0.140299
4.26795
0.0246308
0.0252981
0.0223156
0.0237744
2.71038
0.0267459
0.0247579
0.176348
3.99985
0.05302
0.0973435
1.19129
0.0278732
1.84756
0.299582
0.0364217
0.0306484
7.31203
2.95461
1.32961
0.0247385
0.0239743
0.0236703
0.0762438
5.22563
0.0497119
6.68297
0.0249442
0.275982
0.0244092
5.69057
0.0552057
1.89617
0.0753874
1.90747
0.0281261
0.0234911
0.187185
0.0377229
0.292105
0.030297
0.0279077
0.0245244
0.0859064
2.76554
0.174795
0.0245711
4.09752
0.0533884
0.0251666
0.0267795
0.0236222
0.0704417
0.0592672
0.0222046
3.50842
0.434193
0.0248351
0.0235618
0.0354108
0.0254415
0.0248061
0.389047
2.83161
0.0222509
0.0253925
0.0255938
3.75337
0.02666
2.6906
0.501983
0.622781
0.0244897
0.6377
0.0516324
0.0256646
0.140929
0.0242654
0.0235818
5.90534
0.024412
0.310495
0.0237377
0.0222642
2.84453
2.24205
2.52721
3.9872
0.0252989
0.0253893
0.0226592
0.0261258
0.311762
0.0919765
0.140871
0.0247177
0.344955
0.0802956
0.0252336
2.84596
0.0237971
0.0258439
0.0260378
0.0239073
0.0259891
0.139869
0.0763569
0.0222965
0.0302785
2.69475
0.0235611
0.0303672
0.0224907
0.116832
0.0368767
0.0255482
3.52038
6.44186
0.0231439
0.0239284
2.52083
0.0235539
0.599688
0.0499411
0.0253228
1.0462
0.022213
0.0286722
3.10015
0.0244151
0.0847804
0.0222116
0.024068
0.0280984
0.0247473
0.0944386
0.0961094
0.306214
3.33667
0.0237809
0.0364914
3.77618
0.025707
0.0251371
0.479289
0.0251371
0.0237025
0.0244803
4.96634
0.0262366
0.0242724
0.0756331
0.0244267
2.82483
0.0277688
3.13508
0.0222182
3.50677
0.025079
0.48682
0.0221646
0.0225765
0.311465
0.0531999
3.59905
0.0244231
3.09185
0.0279292
0.0249849
3.16542
0.13551
3.53608
0.0242462
0.0322265
0.0238384
2.56973
0.0221608
0.0479554
0.881638
0.0231383
0.0236931
0.0692105
0.0449844
2.87183
1.59159
0.0226388
0.0242876
0.428729
0.157994
0.022671
0.0816632
0.0231295
3.32526
0.0546905
0.449693
0.0261202
0.0284981
0.0315598
0.169604
0.0249406
0.026205
0.0552409
0.105626
0.0885769
2.889
23.6328
0.0245338
0.0225974
0.0297885
0.776174
0.0230432
2.31484
0.0256942
0.0249087
0.0298179
3.18109
0.0484827
0.0311882
0.0258359
0.915425
0.0470498
0.0350058
0.0235911
0.27293
0.2015
3.75739
0.332419
0.0226938
0.0221778
0.0235266
0.0528175
0.784433
0.544036
0.0235742
0.0245518
0.915547
0.255886
0.167289
0.0264654
0.0247627
0.0388424
0.261416
2.04877
0.0298098
1.90575
0.0236149
3.3657
0.0299086
0.0274924
3.72565
0.0246373
0.0809544
3.18629
0.0235541
0.0458972
0.0304214
0.0262782
2.26518
0.0299924
0.0248823
3.03352
0.0223686
0.0287381
0.0253363
3.81417
0.127931
0.0244218
0.0552346
0.0244657
9.5759
0.0374317
0.0238789
0.0241448
0.124916
0.0315481
0.0257736
0.0245566
0.0246164
0.0248432
0.336852
3.33109
3.39684
0.0335736
3.77645
2.55257
0.0244452
0.0371074
0.168093
0.0398803
0.0602273
0.123398
1.0181
0.0282498
0.708503
3.26949
0.0245048
0.149523
0.139027
1.25258
0.025766
0.0644659
2.57244
0.0239589
0.732583
0.0241299
0.0244833
0.0229945
0.0222017
0.0238534
3.34854
0.391904
0.0243953
0.0440671
0.0224154
1.92797
0.0423445
0.578754
3.21126
0.024406
0.0585548
0.0305261
0.596789
0.0241885
0.0222725
0.0332907
4.19872
0.0243307
2.33222
0.0404569
0.131763
5.03751
0.215661
0.236652
0.0283464
0.023665
0.025108
0.03241
0.0546178
2.68293
0.0368933
3.60914
3.22738
0.0224301
0.0245425
3.74359
5.00994
0.665081
2.89796
0.0330434
0.031126
0.0245134
2.55911
0.023288
0.0352108
0.0276685
0.0246546
0.0236817
0.0235264
0.0224763
0.0946559
0.0557847
5.5602
0.0311712
0.0584854
0.0375144
0.205632
0.0294115
1.42552
0.0272533
0.315375
0.0222479
0.0235077
0.0243024
0.61231
0.34541
0.131467
0.0361708
7.61665
0.341009
0.0611663
0.0258485
0.0707804
0.0241668
0.275995
0.0235991
1.91073
0.406022
0.0731404
3.23628
0.0254269
0.240923
0.402217
4.69376
0.0221379
0.0325076
0.0510895
0.0971638
0.0232424
0.0248531
0.0753309
0.131375
0.0349491
1.62795
0.024163
0.0242087
2.73026
0.0311448
0.0221623
1.81362
0.0236533
0.0262863
0.0233452
0.0435886
0.0256559
0.0222005
0.0252595
3.05445
0.0244212
0.0390661
0.0236813
0.0310101
0.287864
0.0256152
0.0242294
0.0254078
0.0253872
0.434491
0.024892
0.12933
0.0244156
0.0242754
3.25664
3.37923
0.0244573
0.0318046
0.0295801
0.198801
4.59662
0.0242282
0.373021
0.024216
0.083269
0.0246883
2.5555
0.0222971
4.85692
0.0898316
0.0223326
0.0318646
2.77848
0.0492676
0.348396
0.0252881
0.346469
0.0256602
0.0234827
0.023594
0.0246739
4.01152
0.0694127
0.137821
0.610759
0.0512277
0.0223387
2.87288
0.348568
0.0288346
0.0304786
0.222714
0.432939
3.51376
0.0253685
2.59317
5.42117
4.14779
0.0307201
0.0326242
0.709953
0.237629
0.0818148
0.482958
2.08258
0.0261515
2.12018
2.93562
0.0222462
0.210415
0.0712871
4.16165
0.0262874
0.0242632
0.023882
0.0242544
0.0926574
0.0414177
1.8794
1.62966
0.0235628
2.81681
3.13792
0.13495
0.376952
0.0384186
0.0221347
0.0234814
0.245138
2.90594
0.0259264
0.0959143
0.182537
0.0223008
0.0459632
0.461234
0.328111
0.122086
3.79047
2.97467
0.0242372
0.0246702
1.3395
3.17635
0.135556
0.0367616
0.0575885
0.0222143
0.0240954
2.01239
0.022279
0.0262004
0.0221971
0.0236923
2.96664
0.0930643
0.0333905
0.0222666
2.55835
0.483404
0.0236529
0.0235285
0.0230956
0.0250161
4.05354
0.470233
0.479448
3.51625
0.334672
0.0350484
5.71247
3.28774
0.028858
0.0368589
0.0221274
0.0252538
0.0373001
3.05226
0.733798
0.0944238
0.0314337
0.0234187
0.0355154
0.0252415
0.33753
0.0770889
0.0244072
0.0342678
0.0232456
0.0295825
0.135645
0.0247291
0.024143
0.0424542
0.0246779
0.0847894
0.408204
0.129806
0.0360208
0.140015
0.023408
0.202327
0.0333712
3.15348
0.0250099
0.0245909
3.39754
0.0264654
5.46396
3.24786
2.9827
1.70119
0.0232887
3.18956
0.0228517
0.023679
0.0222827
0.0236989
0.0318167
0.0319769
0.0412333
0.0222489
2.40268
0.096843
2.45794
0.0238053
0.0223556
0.023345
0.163764
3.65097
0.0565972
0.0298567
0.0228609
0.02436
0.02421
0.0239519
0.187853
1.71662
0.0246536
0.0222345
0.0246886
0.0239503
1.09136
2.9078
0.0361677
2.72328
0.351726
0.0241254
0.136407
4.58441
0.0382996
1.90034
0.0249251
0.0300076
0.0555255
0.030332
0.488566
0.0244442
0.685347
0.0235973
0.0331324
3.06841
0.0237416
0.0259148
0.0563395
0.0234894
0.0282213
0.873083
2.66706
0.0751377
1.94032
0.214324
0.0221815
0.0237843
3.10159
0.177103
0.0485976
3.28443
0.0233111
0.02704
0.0222649
0.387157
1.585
0.0283746
0.0247937
0.284772
0.0271513
0.0233088
3.90089
0.108555
2.86337
0.022351
0.0246469
5.30742
6.08034
0.159736
0.0249996
3.39037
0.0244272
0.299558
0.14417
0.0774488
0.0277571
3.2937
0.0296855
0.0258824
0.576769
0.0245014
0.0262316
0.0257893
0.0233851
3.86872
0.034436
0.123673
0.0328139
0.243527
0.0234434
0.833287
0.0251629
0.0294785
0.0224576
0.0240875
0.0242815
3.13959
0.0238731
0.0223156
0.563761
0.0246907
3.93362
0.0238577
0.0252654
0.0748399
1.23013
0.38709
0.0236535
0.913341
2.73791
0.0249226
3.3355
0.0328352
0.0233548
0.0886867
3.65603
0.824842
0.0286609
0.023659
0.02222
0.381442
0.086594
0.0646486
0.0293771
0.0863776
0.0251164
0.0251085
0.0948021
0.338639
0.0920444
0.722775
0.0246264
0.0847531
0.0897557
3.84272
0.0282092
2.32565
0.405554
0.0247076
7.5113
0.117813
2.80612
2.66683
2.95504
0.243419
0.0436452
0.0233758
0.0318545
2.72469
7.50397
0.0240574
0.0243191
0.071488
0.259753
0.0223635
4.41858
0.0232881
0.0244176
2.98911
5.22034
0.251886
0.0236627
0.0245017
4.64181
0.190402
0.126766
0.026546
2.89928
0.361527
3.11713
0.0583782
0.0432343
0.0248842
0.0246808
1.31816
0.0527667
5.71944
0.0357298
0.0364272
5.40502
2.86801
3.44356
0.0245168
0.0335389
0.0236356
0.0367442
0.0258274
1.87767
0.0270443
3.22817
0.0223625
0.0732826
0.0241096
0.16038
0.0356352
0.0331439
2.73158
0.0461251
0.0462671
0.0248973
0.0731462
0.595905
0.064679
0.0262794
6.41443
0.0229757
2.64016
0.364911
0.0246671
3.50106
4.23868
3.60816
0.223906
0.0336493
0.0240603
2.868
0.0271278
0.468073
3.14967
0.0238187
0.0257014
0.474949
0.480354
2.04369
0.0246067
0.0234355
1.38493
3.09551
0.122972
0.0282279
0.0258736
0.332576
2.76065
0.0928426
0.0223222
0.0439552
0.0235109
0.0258118
0.163065
0.0246434
2.07453
0.332535
0.0244246
0.0255599
0.0240828
0.0258408
5.88518
2.80527
0.0321147
2.39927
0.0241099
0.0321318
0.0240126
0.0235312
0.0245867
0.0244073
3.92678
0.0244576
0.0555924
0.0245181
0.0288421
0.207164
5.8147
0.0252967
1.41046
0.0686769
0.65063
0.03521
0.0355395
7.64338
0.0295973
0.0423485
1.87324
0.607793
3.77866
0.0427216
0.343723
0.024911
0.0439828
0.0547549
2.12405
0.0240326
2.10422
0.0237645
0.0238249
2.67087
0.0242288
2.19873
0.0280097
0.0236146
0.0403638
0.0236348
0.0245104
0.0231693
0.0248818
0.193318
0.0238379
0.189965
2.6087
0.0674869
2.62409
0.0246607
0.0251889
0.0264113
0.0242628
0.0236093
0.0854133
0.0250072
0.0236493
0.0248497
0.0241453
3.81688
1.68878
0.0609713
2.86793
0.22551
0.0240845
0.589195
0.0312337
0.0238333
0.309705
0.0595666
0.4414
0.024034
0.326606
0.438098
2.70143
0.0231864
2.6805
0.0336954
0.0268987
0.0233158
0.0233262
2.06735
0.099292
0.449191
0.0236884
0.0243618
0.625164
0.024687
1.33015
0.317294
1.50231
0.944307
0.348926
0.0242259
0.024342
0.0587078
0.0312904
0.0267689
0.166059
0.0445123
0.0250406
0.0257247
1.66561
0.0236631
3.46627
1.80276
0.40331
0.205598
0.0253343
0.0227908
0.0246693
0.333244
0.322556
0.0231841
0.0257748
0.0236586
0.0830954
0.0224461
0.0236236
0.0250162
0.035432
1.20071
0.0439567
0.0338608
0.0243291
0.055737
2.61097
0.0253045
7.50084
2.39901
0.0866314
0.0225649
0.0470931
0.0242534
0.0238852
0.0246089
5.05911
0.128046
0.324872
0.0268407
0.303096
0.0243218
0.0237534
0.0246289
0.577826
0.940607
0.0222799
0.0350368
0.0594975
3.51311
0.0254429
1.29317
0.0331062
2.84238
0.0805693
3.34011
0.0963272
0.0854373
0.602022
3.07591
0.329169
5.00089
0.0237063
0.151416
0.0224303
0.0263699
0.0289729
0.0246685
3.13618
0.0322532
0.0302084
0.28473
0.190267
0.523171
0.0244426
0.0265462
0.0288004
0.0228688
0.033041
1.34693
0.40867
1.14354
0.0238966
0.0296661
0.0269305
0.541921
2.9747
0.0580887
0.0227675
0.0249479
2.62402
0.0478638
2.03
2.76977
0.119361
0.0225447
2.43899
0.0324826
0.0464008
0.0311503
3.41228
0.340382
0.129958
0.242739
0.0252407
0.0299459
0.0244297
3.50313
0.0506533
3.20865
0.247056
0.0287869
0.152537
0.0256545
3.43923
0.221222
0.0233617
0.17618
3.03685
0.204702
3.31578
0.0245935
0.0243656
5.61371
2.66588
2.56215
0.0256177
0.0246805
0.0244148
3.72502
0.147819
0.0248585
0.0593165
0.0911781
2.52579
2.30491
0.52766
0.024514
3.28262
0.0274771
0.0242081
0.146965
3.84804
0.0247405
0.0237509
7.59821
3.36023
0.0241239
0.0238757
2.13916
0.0232316
0.245003
0.0238995
0.400663
0.0243537
0.0565331
1.15067
3.02466
0.0255002
7.32076
0.362785
2.3194
1.95608
2.80291
0.103792
0.0241622
2.31132
0.0255132
0.0244649
0.0228415
0.462811
0.0241054
0.538097
0.0237704
0.0260391
4.90558
0.0695232
1.96437
0.0257851
0.0316773
0.0235868
0.0351666
2.65665
3.48346
0.023702
0.0712588
0.357439
0.024587
0.0233332
2.96801
0.0369016
0.0376475
0.1369
2.65315
0.938295
2.36608
3.24596
0.138066
0.323963
0.344333
1.60802
0.0710652
0.0225934
0.13425
0.0241444
0.0240788
1.69753
3.01639
0.0260608
2.6584
0.100901
3.78576
0.10568
0.0703011
0.0242063
0.117263
0.0788855
0.0236764
0.025591
3.24998
2.8078
1.28143
3.43001
0.0411422
3.28128
3.36502
0.034611
0.024695
0.0239656
0.267593
0.0239532
0.203472
0.025251
0.025113
0.026238
2.68366
3.76024
3.08567
0.0248117
2.57848
0.0278452
0.0319877
0.023945
0.0233466
2.75088
0.0298296
3.3105
1.25391
0.0532061
0.122561
0.0245887
0.043239
0.0246234
0.147623
0.0251804
0.0257087
0.024736
0.0251761
0.164147
0.0251742
0.0373806
0.0238051
0.0380136
0.148427
5.7714
0.0239668
0.0510887
0.0240308
0.060967
0.0250545
2.74819
0.156844
0.0343281
0.0266679
0.0254153
0.196416
0.0242278
0.266971
0.0245311
0.0237376
0.0250112
3.01604
0.0297369
0.0273762
0.0338707
0.0240161
0.0688204
2.92219
2.21463
0.0383059
0.0244413
0.0505508
0.0226122
0.0238619
0.206581
3.21094
0.0237397
0.0329065
0.167056
2.7144
0.0249058
0.0250912
3.23251
0.0255642
0.0961154
0.204356
3.83463
0.024365
0.0253449
0.0242758
3.48092
0.138476
0.0442627
0.125555
3.09452
0.025448
3.69031
2.02059
0.0245578
2.743
0.0867746
0.0253479
2.81517
0.0246175
0.0240912
0.0232648
0.186064
0.111073
0.171253
0.0257285
0.0253628
0.032864
0.392167
0.38345
3.72321
0.37064
0.0250884
0.139016
0.139258
2.62619
0.0781471
0.261187
0.0239714
0.0339211
0.0233468
0.219044
0.0390422
0.0242677
1.74047
0.152625
0.0350133
0.0343795
0.022218
0.0239173
0.0569212
0.0368551
0.589828
0.0710326
0.0695747
0.0640626
0.12302
1.99099
0.0629567
3.67264
0.0239759
0.0236705
0.192274
2.96371
2.89571
0.205489
0.0250613
4.61538
0.360611
0.0237791
0.0291506
0.0237393
0.044057
0.0753515
0.119281
3.22568
0.385828
0.0256395
2.93373
6.40268
0.0245121
0.103941
2.30088
2.56652
0.0267255
0.0801673
0.022152
0.0259497
0.0236213
0.0280535
3.65308
2.75891
3.29072
5.3227
0.0256379
0.0366173
0.0580636
0.0234734
0.024774
0.023341
3.07009
0.0239049
3.52057
0.0391323
0.0485807
0.166313
0.204225
4.68638
2.85492
0.0432606
0.0224467
0.0284352
2.62527
1.61775
0.0276228
0.0236931
0.0233004
0.0661558
0.0330422
0.15193
2.10185
0.0256113
0.023285
0.128568
0.0432455
6.29655
0.411943
0.0238891
0.0769096
0.0245049
3.6903
0.0226001
3.29607
0.0235461
0.02555
0.0338086
0.0250144
0.0587806
0.0326661
0.0500371
2.74926
2.81807
0.0280631
0.0325948
0.0242005
2.75163
2.73011
0.0244235
0.0226661
0.341595
0.0222199
3.90444
0.0238244
0.035757
0.072973
0.0972741
0.0403935
0.0255164
0.0247134
0.0751974
3.30548
0.0241614
0.403526
2.89261
0.331104
0.160079
0.0359987
3.49722
0.0283205
0.290718
0.0243243
0.374022
0.370592
4.35066
2.73397
2.05805
0.024478
0.150335
0.0237365
8.20417
0.311285
3.15164
2.69979
0.0296705
2.01171
0.738093
0.0373041
0.0257151
0.0247153
3.40483
0.0283908
0.0747126
0.0257946
0.0246338
0.0235333
0.0245889
2.81021
0.184786
0.0338024
2.65962
2.15237
0.0239248
0.0243612
0.0233044
0.0304605
3.26654
0.206775
0.0282979
0.0270058
0.932113
0.0804976
0.0471792
5.93943
0.0329916
3.58547
0.033075
0.0318133
0.0243336
0.0257507
0.0750394
0.382058
0.369439
3.22258
0.0734831
2.7477
0.0270224
0.02726
0.0241784
3.08467
2.88083
0.369359
0.0670709
0.0264724
0.0244472
0.0239501
0.0245256
0.0233611
3.20769
0.0319043
4.00556
0.0348252
2.75723
1.80774
3.34318
0.0498784
0.0287706
2.53834
0.0419723
1.61214
3.39304
0.0234632
0.0676444
0.0299335
4.56928
6.01929
0.0373982
0.057568
0.426239
0.0255336
0.0533407
0.0269744
2.73936
0.395018
0.0268722
0.0247055
0.371056
0.159002
0.136866
0.735526
0.134486
0.0306611
0.0239083
1.5481
3.21323
0.0811326
0.0336162
2.85186
2.68084
0.0237566
0.0244903
0.0270874
3.22174
3.06913
0.0244087
4.244
0.0251257
0.023992
0.0246228
5.66652
0.346383
0.106337
2.97242
0.0258495
0.0256692
0.0239168
8.54421
0.0251589
2.62426
0.0266567
1.25784
0.0249286
0.0241431
0.130185
3.33745
0.3243
0.0384561
2.40168
0.0225499
0.0245713
0.0245014
0.0466991
0.0689458
0.0690408
0.0382895
3.28168
0.0272536
0.131776
0.647856
1.96584
0.0242774
3.40963
3.13295
0.0279458
0.333891
0.0705123
3.53361
0.0246661
0.0723565
0.0239133
1.63023
7.32479
0.0936356
3.48004
0.0264037
0.0522269
0.0254439
3.92283
0.0225184
0.0237164
0.581658
0.090586
3.12172
2.57849
0.0689003
0.0312579
0.023246
1.37719
0.033203
0.0236851
0.151881
0.0231796
0.0461124
0.0244364
0.263243
0.0254045
0.313324
0.356772
0.0340127
0.110266
0.0582434
3.71394
0.0242658
1.15254
1.60778
0.0235241
0.0244209
0.0258131
0.0249558
0.0418368
0.0241107
0.068736
0.0813623
0.279033
0.0635925
0.0244673
0.0249314
0.0232223
3.0106
0.0245927
0.0242595
0.198376
0.0268553
1.23861
3.4757
0.0942396
0.0269223
0.0362397
0.0256166
0.0251098
0.037211
0.0227252
0.0269771
3.0729
3.38921
0.737529
0.0255651
2.8798
0.793545
0.0249763
0.263821
3.15438
0.0244287
0.0265036
0.0243805
3.18661
2.77839
0.597055
0.0227053
0.0268959
0.0260546
0.0247022
0.137594
0.0245537
0.0489739
4.65842
3.59733
0.0234269
0.0268396
0.026497
2.69821
0.0222044
2.72659
2.89502
0.265056
0.550339
3.97918
2.06955
0.0255772
0.612199
0.0628521
0.0254503
0.0232287
0.0237859
3.44848
2.58003
3.06788
0.0238417
3.6124
0.0246435
0.169906
0.0231633
0.0261106
0.0253838
0.0234179
2.79344
0.0255173
1.86099
2.69646
2.69598
0.0493527
0.0558668
2.74805
3.25714
0.0245462
5.31548
0.0232359
0.0222739
0.0243496
0.0580292
0.0233812
2.71413
0.0327202
0.341875
0.0394867
2.87656
2.67347
0.110959
0.0233914
0.0589485
0.0790319
2.7681
0.0242971
0.0222984
0.0257894
1.75947
0.0245504
0.341764
2.62264
0.0440241
0.0633392
0.0243304
0.360125
0.0248728
3.30418
0.022985
3.21339
0.034124
0.0245961
2.63798
2.64658
0.0228903
0.0704832
0.0273576
3.27011
0.0834155
1.23341
0.347954
0.0248641
0.0591762
2.73646
0.0237273
0.0504089
0.0258792
0.0821195
0.0351689
2.8778
2.93307
0.0246079
3.44638
0.0254384
0.0465773
2.98508
2.59711
0.0380814
3.03979
0.253787
0.0247203
0.342078
0.136733
0.0336272
0.0254674
2.73897
0.0229219
3.49297
0.27772
0.113927
0.0244308
0.0330596
3.24965
0.0470521
2.94892
0.0251348
0.026705
0.165524
2.81152
0.0289653
3.29385
0.716232
2.7516
0.0246257
2.80533
2.38137
2.76631
0.0244875
0.0264658
0.0242411
3.39489
0.0387016
0.356831
0.361206
0.0248811
0.0229445
0.0244485
2.74517
3.01334
3.90251
2.69295
0.0239051
2.77424
3.2763
0.138383
2.56319
3.10513
0.0367707
3.58894
0.0263506
0.0286106
3.10816
2.8061
0.0243903
2.86232
0.0247165
0.0244729
2.45908
3.01423
3.67352
8.71933
0.0338834
0.0248937
0.0258974
3.37966
2.63211
0.02418
0.0497121
0.351168
0.0245179
0.0245813
3.0685
2.40385
0.0259521
0.0245361
0.0253757
0.025562
0.610768
0.0249347
0.0239612
0.0284713
0.155307
2.37092
0.0696602
3.06008
0.0246188
0.0274955
2.88921
3.29664
0.0307217
0.279329
0.0244045
0.0383937
0.0255293
0.0246696
0.0693348
0.0239136
0.826181
0.0352437
0.0236476
0.0271985
2.46435
1.5605
3.58399
0.0245316
0.0270809
3.3999
0.446908
0.0269774
0.0242265
0.0245984
0.33031
0.0245959
0.0244677
0.0306559
0.0244049
2.94176
0.136193
0.0248394
0.0270506
0.0226429
0.0245556
1.44328
0.143702
0.0755346
2.52639
0.0571403
0.0249589
0.0243796
0.0245874
0.0242087
0.0248287
0.0263241
0.0797267
2.94138
0.0254741
0.116815
3.47256
0.294693
0.0242088
0.0237383
0.0264618
2.32867
0.0241618
1.13053
0.456554
0.0466318
0.0248504
6.23507
0.0226432
0.0843941
0.0230515
0.0226742
0.0246071
0.0235902
0.036164
2.73396
0.0971369
0.0411023
0.940936
0.0916927
0.677697
0.0346136
3.0608
2.49255
0.115026
2.28378
3.11397
0.12162
0.356165
0.024944
0.0233873
1.87522
0.0239546
0.0271436
2.69937
0.04724
1.94754
0.15905
0.0236142
0.0281476
0.024554
0.0459736
0.0231307
0.0627299
3.07661
3.01081
0.983754
0.024544
0.0229522
0.0773344
2.57565
2.98928
0.121288
1.28502
0.0237856
2.08935
3.62352
0.704641
0.0266978
0.0245731
0.0225077
0.0262052
0.0244232
0.0242916
0.0269339
2.94203
0.0822045
3.27199
0.0637559
1.95789
0.188211
0.0243171
0.0235346
0.0247561
0.023161
0.0249123
0.204492
2.32288
0.721086
3.5781
0.0264256
2.76473
0.15633
3.33231
3.3365
0.0245153
0.0235929
0.138578
0.0245334
0.0229027
0.384043
2.96599
2.23128
0.0244587
0.0245876
0.0265606
0.0406059
2.32394
0.0232567
0.0270023
0.376094
0.0228814
0.333839
0.0401415
2.43107
0.0248873
0.334348
2.58209
0.0381551
3.33072
0.120032
3.36049
0.0226288
0.0279163
0.0237148
0.0325481
5.62518
0.0240357
2.82854
0.0245791
0.0242825
0.0245523
3.48635
0.0470377
0.119002
0.620887
0.0233264
0.0472709
2.86903
0.0586192
0.0234305
0.0258158
0.0245253
0.0476482
0.0241647
0.0236934
3.58142
3.64546
3.37251
0.174007
0.550961
2.81771
0.0752809
3.67957
0.132651
0.0225698
0.0235204
0.0222367
0.024658
3.42764
3.38516
0.0229945
3.23775
3.44597
0.0322522
0.0253399
0.0274043
2.74166
3.02825
2.99232
0.756873
3.01319
0.0222294
0.215245
0.107309
0.339955
3.19387
0.0243969
0.136978
2.85821
0.0353698
2.63051
0.0248205
0.0748353
2.85526
3.19466
0.0799942
0.0340221
5.14375
0.138124
3.2372
3.31012
2.91581
0.121554
2.75527
0.0246038
0.0276335
0.0500589
4.10383
0.364114
3.47936
0.0246721
0.120928
0.0764999
0.024815
3.15848
0.0244268
0.137834
3.87777
0.0244427
2.08605
2.34544
3.28364
2.71808
1.68307
0.0966924
0.0239824
3.4736
0.0244803
0.0235665
0.0440556
0.0268048
3.20488
0.0270123
0.0272501
0.0270351
0.0235908
2.35758
0.0258789
0.125142
0.336535
0.0234418
3.77384
0.107596
0.0254467
2.98531
0.208504
0.0244299
0.676234
0.0251261
3.43094
0.181401
0.0230241
0.123624
0.0259478
3.56546
3.05994
0.0774612
1.07094
0.0286365
0.0246061
2.56087
0.0270328
0.0242377
2.11463
0.0435828
0.0237974
0.0236379
0.138837
0.0257524
3.78725
0.219556
0.0428917
3.44602
0.0566232
0.0658523
0.0240252
3.60552
6.15992
2.9221
0.024493
0.0229157
0.0769233
0.0332893
0.374181
0.0242698
0.394645
0.024105
0.204227
0.0244194
0.0409483
0.162318
0.122077
3.60338
1.26744
3.10974
3.04239
0.0222793
1.08095
1.3796
4.50689
0.0237228
0.170754
5.8808
2.89527
0.123588
0.889234
0.839988
3.68617
0.0486586
0.195188
0.0233985
0.0505644
0.0457855
0.0243813
0.0749527
3.2142
0.0830149
2.72588
2.07775
0.0241711
0.0236956
0.0330689
0.0243883
0.951535
0.0232951
0.0236375
3.80083
0.193569
0.0354274
0.108554
0.0249601
0.0873167
2.62912
3.15385
2.54736
0.0284932
3.11326
0.0257756
0.0231952
0.0262833
3.17624
0.235637
0.222324
0.185043
0.0253936
0.0236821
0.0243871
0.0249646
0.029489
3.60332
1.81747
0.031521
3.20108
3.80319
0.0547349
6.39116
0.0245033
0.0325891
0.0759924
0.0244915
0.0328822
0.0296871
0.0269444
3.90144
3.17813
0.0232814
0.0426827
0.0324706
0.0726816
2.69778
2.00133
3.63339
0.024571
0.0876948
3.54947
0.086827
0.123292
0.261289
2.71969
3.77947
3.66247
0.0232671
2.76595
0.0229852
0.0259573
0.0243908
0.0637633
3.73793
6.57576
0.431893
3.51236
0.0599489
0.0228402
0.0237158
0.0245856
0.0256952
0.0468151
3.70746
3.54352
0.082082
0.567028
0.0246636
0.0595692
0.0235089
3.25537
0.0860103
0.0244898
0.145706
0.109173
1.65659
3.66362
0.138941
3.26729
0.0276261
2.81653
0.205852
3.04249
0.318013
0.0256697
0.0591494
0.0245528
3.02733
2.94106
0.0429195
2.30354
0.202319
2.2182
0.0699523
0.154081
0.0433232
0.0238295
0.128182
0.0627786
0.0271389
0.0588741
0.033758
0.0353478
2.98293
0.166379
0.0260922
0.0330953
0.0391544
0.0347246
0.0255925
1.95427
0.117608
0.361724
9.06801
0.0244543
3.25347
0.0245757
0.0272335
0.0263775
3.19201
0.0407762
3.29188
5.75358
0.0629659
0.0482366
0.126156
1.69112
0.141899
1.04799
0.0266014
0.0487943
0.0236257
3.30663
0.407447
0.02651
0.0240478
0.0398618
0.0288807
0.0272363
0.052554
0.0427214
0.0246761
0.0366623
5.316
4.1427
0.520282
0.0440258
0.0223835
1.70871
0.0351996
0.0690396
0.93123
0.0461544
1.89957
0.0229358
0.027018
0.0271343
0.035824
0.0242103
3.40863
0.326353
2.51559
0.0400195
3.24702
0.198594
0.028641
1.71698
0.0706124
0.19275
5.67988
0.0458879
0.0269815
0.0436652
0.0708236
0.0270604
0.401757
3.84362
0.314961
0.0238347
0.213532
0.325964
1.60447
0.0243066
0.0470966
0.0239189
0.033484
2.43919
0.0321971
0.031852
0.0238063
0.0237758
0.383986
3.10552
0.0243336
1.07551
0.197213
0.0228512
0.0279766
3.34007
0.122037
0.109768
0.0244436
0.0299783
0.109988
0.0242502
0.0239793
2.68873
0.0321509
3.37202
0.0886995
0.029075
3.72752
0.121711
0.168301
0.0238669
0.475734
0.032984
0.0294805
1.64615
0.0432715
0.0245879
0.0868829
0.0274267
0.0278888
0.0227875
1.5213
0.0244111
0.077848
2.44065
0.106559
0.0236226
0.807919
0.0336563
2.73665
0.16293
3.50337
0.113198
3.17563
0.0235561
0.0814919
0.0284304
0.0241242
0.441668
1.87814
0.027969
0.830682
0.0280214
0.0768638
3.56768
0.0289515
0.0521466
0.947788
2.43069
1.65499
0.17584
0.0384153
0.0235937
0.0813285
0.0382351
0.560747
1.9433
3.24113
1.97994
3.43096
0.0237462
1.67758
0.0244909
0.0255066
0.0246332
0.426012
0.158413
0.0977516
0.0239741
9.66481
0.0301985
3.64748
0.0235899
0.0661965
0.0332374
0.0744223
0.0448948
0.1105
0.0258725
0.17439
0.131334
0.0238953
3.85667
0.187338
0.0523086
0.0256308
0.0328501
0.0245692
0.0239649
0.0690026
0.0991302
2.62352
0.204495
0.0904621
0.914973
0.0238496
1.39458
0.0690624
1.95023
0.0332813
0.0337551
0.474617
0.0342153
0.311756
0.0688771
4.35998
0.0264358
0.0246713
3.09211
0.0346642
0.0266261
0.0304669
0.0328955
0.0232058
0.0293146
3.37341
0.0241551
0.0448062
3.37574
0.12013
0.0759489
0.869289
1.51108
3.52622
2.64336
1.31327
0.0586519
0.667526
0.0257395
0.0278135
0.0245649
0.0239351
2.83071
0.43026
0.0345923
0.0235724
0.656752
0.094387
0.0239597
0.160499
0.055782
0.0242277
0.0260178
1.56688
0.0294849
0.040381
0.039966
0.0240874
0.0990329
0.0693243
0.0324947
0.180462
0.0813296
0.406295
0.251133
2.90864
0.0262387
5.10475
0.166917
0.152617
0.0696618
1.67102
0.0796192
0.0291992
0.0528226
0.0709937
0.0265202
0.076169
0.0240441
0.024297
0.0226776
0.0274057
3.35393
0.0230925
0.111031
0.0273666
0.026725
0.0271552
0.637389
0.0264068
0.0651106
0.0245999
0.0272793
0.0278419
0.0234633
0.615245
0.0266035
0.0232427
0.0254052
0.0315304
0.0236771
1.8785
0.0301054
2.90328
1.44759
2.3909
0.0631093
0.080621
0.255674
0.0433952
0.0289878
0.0280937
1.95295
2.99344
1.70797
0.0689543
0.0345945
0.0239636
1.96717
0.0430969
3.23411
0.0243208
0.799574
0.149324
1.40212
1.22888
0.0227546
0.0245089
0.0230386
0.0319388
3.04245
0.0517798
0.870099
0.0287073
0.0319573
0.0239362
0.0249542
0.0364818
0.0266561
0.0269054
0.0236027
0.209265
0.330754
3.09878
0.0271211
0.919674
0.0234341
0.0229118
0.111517
0.0250184
0.0271191
0.0692149
0.0270977
0.0732532
0.0245176
0.0284515
0.0246336
0.0273993
3.28202
0.0239716
0.0265816
0.0256771
0.0268036
0.777223
0.0248909
0.0528333
1.51777
0.0275305
0.0325837
0.0255296
0.0258304
0.0248696
0.136226
0.0245112
0.029539
2.6745
0.0236602
0.0321598
0.0531094
0.0682198
2.78634
0.0227293
0.026743
0.0249268
0.0332208
0.103498
0.889903
3.12695
0.0229704
0.0315471
0.0946792
0.0261199
2.32083
0.0225994
0.0246673
0.549642
0.0432385
0.0266825
0.0226569
0.166931
0.123055
2.47866
0.0246716
1.68043
0.0226309
0.0233551
0.0265304
0.0821052
3.78531
0.024602
0.0238292
0.363235
0.0245229
0.0262926
0.326166
2.75833
0.0245002
0.0232433
0.024751
0.0342428
0.196584
3.28506
0.0249446
0.111866
0.0239457
0.0244078
1.97098
0.0260327
0.0248612
0.0332678
0.210375
0.138939
0.026382
0.0252771
2.51727
0.0433094
0.0254608
0.466189
2.54297
0.0245458
0.0248202
0.026235
0.0244425
0.0245337
0.0236265
0.0228806
0.0419772
0.0261491
0.0463634
0.050721
1.93696
0.831989
0.0337691
0.0227081
0.0243537
0.0253118
0.026209
0.0432639
0.0318192
1.18212
0.0265764
0.109018
0.0271739
2.7844
2.63797
0.0314448
0.0253392
0.13047
0.0268204
0.0294016
0.0244731
0.0254217
0.0241132
0.0466128
0.0443665
0.0493941
0.112415
0.0261997
0.028336
0.0253519
3.33721
3.35593
0.420051
0.0297674
0.211407
0.144456
3.00885
0.025048
0.551328
0.0688521
0.0244791
0.0249209
2.90902
0.0245747
0.0254867
0.0263173
1.10521
0.0245615
0.0248508
0.0284296
2.37209
0.0238305
0.0539445
1.0844
0.0266051
0.0245985
0.0241087
0.024509
0.0248855
0.024807
0.128369
0.0251962
0.0245697
0.0248119
0.0248285
0.0315107
0.024438
0.335632
0.0246635
0.0248035
0.0407832
0.0392815
0.0814661
2.49526
1.10538
3.39117
0.0403116
0.0236219
0.040337
1.96193
0.0228591
0.212479
0.0260693
1.02143
0.0262262
0.0461531
0.0248816
0.0244694
0.12088
0.217455
1.79391
0.30523
3.47226
0.0248428
0.023679
1.94141
0.0228297
0.0245791
3.17986
0.0239825
2.1807
0.0245338
0.1865
0.112852
0.0267575
0.552788
0.0292647
0.0808712
0.148838
0.357143
1.29636
2.9391
0.442515
2.18508
0.0246276
2.71825
0.0245281
0.024369
0.0237746
0.0249778
0.883673
0.0254791
4.47312
0.0245663
0.024463
0.0246826
0.225512
0.0244037
0.0232503
0.0607871
0.0281322
0.0292262
0.0281418
0.0312211
0.21943
2.04773
0.0998666
0.872381
0.103721
0.025459
0.563244
0.0245567
0.031555
0.0775726
2.75823
0.044416
3.4402
0.0245397
0.81418
2.32086
0.152618
3.56345
0.299533
0.0265829
0.0243797
0.0269392
0.0245173
0.0243638
2.31407
2.24538
0.0240212
1.36544
0.0245122
0.113233
0.023917
0.239971
0.029975
0.0264442
0.023366
0.587412
1.32813
0.400125
0.0234358
0.0235515
0.029311
0.0248288
0.0253393
0.524029
0.0880568
0.0497128
2.11344
0.0446446
0.0249059
0.0346534
0.0775849
0.0249715
3.13682
0.0580563
0.197336
0.0261228
0.0271699
0.0229467
0.0222051
0.0244464
0.0292118
0.0236966
2.78977
0.0410457
0.0787231
0.0242959
0.0434636
0.0244942
0.0568306
0.0420014
0.0572415
3.0904
0.0286976
0.0243912
0.0277585
0.02492
3.14849
0.080772
0.0431069
0.0576606
3.49226
2.84504
0.115388
0.0524494
0.0244739
0.0260591
0.0262635
0.0372054
0.103837
0.0290798
0.0246191
0.49541
0.288994
0.0248467
0.0263695
0.0584131
0.0253729
0.0238605
0.0417555
0.0243935
0.0249836
0.023876
0.0265619
0.0251298
0.047237
2.79243
0.0245739
0.650139
0.103671
0.113727
0.0238691
0.0242551
0.196495
0.0289197
0.0245342
0.0703344
0.0243944
0.0554765
0.0246589
0.0426647
1.72863
0.0569716
0.0256017
0.0621495
1.64461
1.22209
0.0245306
0.0384133
3.66955
0.0240608
0.0251417
0.0820727
6.12164
3.30701
0.0267909
0.0243757
0.0347057
0.0241568
0.0254275
0.0310298
0.0248443
3.53874
0.0248976
0.718501
0.0245064
0.0245792
0.0510218
0.0244496
0.0246425
0.030972
0.849564
0.0233924
0.0385942
0.0249741
0.0240181
0.0243994
0.0309205
0.0285427
0.0730935
0.0261257
0.0248337
0.0249291
0.0412315
0.025487
3.50835
0.0250997
0.114471
0.0362673
0.0254208
0.0304141
0.883674
0.0245789
0.0251529
0.0226219
0.0934032
0.322292
0.0243348
0.0384949
0.0238487
0.0373362
0.0245593
0.298115
1.65211
0.0264911
0.0279488
0.0302398
0.0356789
0.0246992
0.0236231
0.050466