/*--------------------------------*- C++ -*----------------------------------*\
| =========                 |                                                 |
| \\      /  F ield         | OpenFOAM: The Open Source CFD Toolbox           |
|  \\    /   O peration     | Version:  v2012                                 |
|   \\  /    A nd           | Website:  www.openfoam.com                      |
|    \\/     M anipulation  |                                                 |
\*---------------------------------------------------------------------------*/
FoamFile
{
    version     2.0;
    format      ascii;
    class       volScalarField;
    location    "200";
    object      omega;
}
// * * * * * * * * * * * * * * * * * * * * * * * * * * * * * * * * * * * * * //

dimensions      [0 0 -1 0 0 0 0];


internalField   nonuniform List<scalar> 
13851
(
0.026324
1.29816
0.0813867
0.0260005
0.0835672
0.331464
0.0247356
0.0485626
0.0234601
0.0939996
0.325032
1.89601
2.63095
2.77265
0.0244908
0.0359533
0.0276289
0.0308123
0.845108
0.02346
0.025846
0.0792465
0.0239139
0.0247831
0.0241355
0.0493791
0.0270241
12.6361
0.0261533
0.0269487
0.527607
0.0279233
0.0778368
0.360483
0.0247734
0.187227
0.687201
0.198378
0.104228
0.391911
0.0242847
0.022316
3.68053
0.328231
0.339771
4.4202
0.320202
0.629491
0.0272344
0.162974
0.0774525
0.140283
4.26503
0.0246308
0.0252981
0.0223156
0.0237744
2.70449
0.0267455
0.0247579
0.176386
3.99906
0.0530314
0.09735
1.188
0.0278746
1.8543
0.299002
0.0364224
0.0306464
7.31183
2.9577
1.32755
0.0247385
0.0239743
0.0236703
0.0762482
5.22454
0.0497153
6.6829
0.0249443
0.276264
0.0244092
5.75644
0.0552193
1.89384
0.0759134
1.90752
0.0281264
0.0234913
0.187207
0.0377661
0.29201
0.0302974
0.027908
0.0245245
0.0859138
2.76565
0.176861
0.0245711
4.0893
0.0533912
0.0251667
0.0267795
0.0236222
0.0710671
0.0592698
0.0222046
3.50938
0.437146
0.0248351
0.023562
0.0353823
0.0254415
0.0248061
0.395181
2.83194
0.0222509
0.0253926
0.0255939
3.75339
0.02666
2.68928
0.508239
0.620832
0.0244856
0.636788
0.0516356
0.0256648
0.14092
0.0242654
0.0235818
5.90502
0.024412
0.313734
0.0237377
0.0222642
2.84739
2.24161
2.52889
3.98033
0.0252989
0.025389
0.0226591
0.0261259
0.310886
0.0920871
0.140864
0.0247177
0.344798
0.0802852
0.0252336
2.84807
0.0237971
0.0258441
0.0260379
0.0239073
0.0259888
0.139853
0.0763559
0.0222965
0.0302787
2.6897
0.0235611
0.0303679
0.0224907
0.11683
0.0368774
0.0255484
3.50073
6.44048
0.0231439
0.0239285
2.52235
0.0235539
0.596633
0.0499443
0.0253228
1.04306
0.0222129
0.0286726
3.10246
0.0244151
0.0847889
0.0222116
0.024068
0.0280997
0.0247473
0.0944463
0.0960274
0.305438
3.33371
0.0237815
0.0364923
3.77624
0.0257071
0.0251368
0.478724
0.0251371
0.0237025
0.0244774
4.99775
0.0262367
0.0242724
0.0756075
0.0244267
2.83139
0.0277691
3.13533
0.0222182
3.5066
0.0250791
0.48654
0.0221646
0.0225764
0.311092
0.0532167
3.62153
0.0244231
3.09213
0.0279295
0.024985
3.16564
0.135501
3.53563
0.0242462
0.032227
0.0238384
2.56631
0.0221608
0.0479546
0.894639
0.0231383
0.0236935
0.0692091
0.0449984
2.88169
1.58784
0.0226387
0.0242876
0.433356
0.159169
0.0226714
0.0816289
0.0231295
3.32513
0.0546937
0.448215
0.0261202
0.0284985
0.0315626
0.169701
0.0249406
0.026205
0.0552409
0.105839
0.0885159
2.89181
23.6436
0.0245338
0.0225973
0.0297869
0.773601
0.0230434
2.31255
0.0256943
0.0249087
0.0298182
3.18108
0.0478474
0.0311898
0.025836
0.914557
0.0470531
0.0350068
0.0235911
0.273399
0.200719
3.75656
0.332103
0.0226935
0.0221777
0.0235266
0.0528175
0.781678
0.539905
0.0235742
0.0245518
0.914783
0.256204
0.167272
0.0264651
0.0247627
0.0388435
0.261707
2.04549
0.0298104
1.90229
0.0236149
3.36554
0.0299089
0.0274927
3.7249
0.0246373
0.0817142
3.1867
0.0235541
0.0458978
0.0304218
0.0262779
2.26317
0.029993
0.0248823
3.03392
0.0223686
0.0287385
0.0253382
3.81349
0.127916
0.0244218
0.0552365
0.0244657
9.57945
0.0373762
0.0238789
0.0241449
0.124903
0.0315485
0.0257738
0.0245566
0.0246164
0.0248432
0.336419
3.34482
3.37924
0.0335686
3.77588
2.55466
0.0244452
0.0371085
0.168081
0.0398422
0.0602762
0.123388
1.01468
0.0282458
0.705949
3.26971
0.0245048
0.150696
0.140162
1.25865
0.0257661
0.0645126
2.56845
0.0239589
0.730142
0.02413
0.0244833
0.0229945
0.0222017
0.0238535
3.34864
0.392112
0.0243953
0.0440681
0.0224155
1.92418
0.0423456
0.575698
3.19789
0.024406
0.0585851
0.0305265
0.593701
0.0241885
0.0222725
0.0333062
4.17482
0.0243307
2.32644
0.0404436
0.131749
4.98967
0.217555
0.238358
0.0283509
0.023665
0.025108
0.032406
0.0546192
2.68122
0.0368939
3.60865
3.22772
0.0224301
0.0245425
3.72044
5.0101
0.67778
2.89844
0.0330585
0.0311264
0.0245134
2.56091
0.023288
0.0352111
0.0276715
0.0246546
0.0236817
0.0235264
0.0224763
0.0946592
0.0558156
5.55768
0.031169
0.0584863
0.0375225
0.202606
0.029412
1.43116
0.0272535
0.315231
0.0222479
0.0235077
0.0243024
0.612294
0.343917
0.131462
0.0361842
7.615
0.340376
0.0614757
0.0258485
0.0707781
0.0241668
0.273084
0.0235991
1.91436
0.40535
0.0731402
3.23647
0.0254262
0.240798
0.401325
4.68199
0.0221379
0.032508
0.0510927
0.0958268
0.0232424
0.0248531
0.0753216
0.131358
0.0349466
1.62868
0.024163
0.0242088
2.74006
0.0311459
0.0221623
1.81684
0.0236533
0.0262869
0.0233452
0.0435981
0.0256557
0.0222005
0.0252584
3.05466
0.0244212
0.039067
0.0236813
0.0310135
0.287775
0.0256152
0.0242294
0.0254079
0.0253872
0.428434
0.024892
0.130495
0.0244156
0.0242754
3.25803
3.37936
0.0244573
0.0318052
0.0295806
0.201603
4.64862
0.0242282
0.374264
0.024216
0.0832757
0.0246883
2.55248
0.0222971
4.85396
0.0897692
0.0223327
0.031862
2.77656
0.0492669
0.347983
0.0252882
0.34661
0.0256602
0.0234827
0.023594
0.0246739
4.01174
0.0694143
0.137802
0.610516
0.0512263
0.0223387
2.87322
0.347143
0.0288349
0.0304789
0.225595
0.438474
3.51363
0.0253685
2.58961
5.47601
4.17506
0.030721
0.0326212
0.709166
0.237451
0.0824337
0.482315
2.08286
0.0261513
2.12092
2.93739
0.0222462
0.209973
0.0712882
4.16144
0.0262874
0.0242632
0.023882
0.0242544
0.0926615
0.0414261
1.87845
1.63095
0.0235628
2.82284
3.13796
0.137384
0.375604
0.0384196
0.0221347
0.0234814
0.245169
2.90624
0.0259265
0.0959019
0.182559
0.0223008
0.0458424
0.465962
0.329516
0.122074
3.79066
2.97653
0.0242371
0.0246702
1.3412
3.17676
0.135543
0.0367621
0.0575647
0.0222143
0.0240954
2.0144
0.022279
0.0262003
0.0221971
0.0236923
2.96812
0.0930681
0.0333981
0.0222666
2.55044
0.483057
0.0236529
0.0235285
0.0230957
0.0250161
4.02694
0.469176
0.478793
3.53138
0.333317
0.0350487
5.7118
3.28792
0.028853
0.0368597
0.0221274
0.0252484
0.0372998
3.05218
0.730947
0.0944136
0.031434
0.0234187
0.0355167
0.0252406
0.336891
0.0770915
0.0244071
0.0342635
0.0232457
0.0295828
0.135635
0.0247291
0.024143
0.0424536
0.0246779
0.0847981
0.408049
0.129798
0.0360225
0.140001
0.023408
0.205757
0.0333729
3.16239
0.0250101
0.024591
3.39881
0.026465
5.41972
3.24804
2.98941
1.7049
0.0232887
3.19148
0.0228505
0.023679
0.0222827
0.0236989
0.0318389
0.0319738
0.0412416
0.0222489
2.40571
0.0967564
2.46195
0.0238053
0.0223556
0.023345
0.163749
3.65479
0.0565955
0.029857
0.0228605
0.02436
0.02421
0.023952
0.187858
1.71526
0.0246536
0.0222345
0.0246886
0.0239504
1.09781
2.90433
0.0361685
2.72279
0.353066
0.0241254
0.136392
4.57096
0.0383008
1.89819
0.0249252
0.0300056
0.055524
0.03033
0.488258
0.0244442
0.68687
0.0235973
0.0331322
3.06872
0.0237416
0.0259147
0.0563033
0.0234894
0.0282216
0.871224
2.66204
0.0751387
1.9369
0.215842
0.0221815
0.0237843
3.10059
0.177134
0.0486163
3.28459
0.0233111
0.02704
0.0222649
0.383604
1.592
0.0283748
0.0247938
0.284496
0.0271515
0.0233088
3.92365
0.108799
2.86364
0.022351
0.0246469
5.30675
6.07876
0.159734
0.0249992
3.39102
0.0244271
0.299242
0.144213
0.0774541
0.0277573
3.30998
0.0296933
0.0258768
0.57996
0.0245014
0.0262316
0.025789
0.0233851
3.90266
0.034436
0.12366
0.0328197
0.242885
0.0234434
0.831266
0.0251629
0.0294852
0.0224576
0.0240875
0.0242815
3.14006
0.0238732
0.0223157
0.56096
0.0246907
3.93337
0.0238577
0.0252656
0.074835
1.23879
0.386765
0.0236535
0.912451
2.73773
0.0249226
3.33552
0.032835
0.0233548
0.088973
3.65936
0.825374
0.0286613
0.023659
0.02222
0.38008
0.0865948
0.064645
0.0293776
0.0866869
0.0251164
0.0251087
0.0947896
0.340225
0.0920492
0.720042
0.0246264
0.0847619
0.0897512
3.84215
0.0282092
2.32654
0.405429
0.0247077
7.51238
0.118942
2.80489
2.66106
2.95554
0.24505
0.0436425
0.0233758
0.0318508
2.71786
7.5486
0.0240574
0.0243191
0.0714874
0.259735
0.0223635
4.41701
0.0232881
0.0244176
3.00641
5.2196
0.253594
0.0236627
0.0245018
4.64047
0.1904
0.126755
0.0265465
2.89246
0.363056
3.12082
0.0583799
0.0432353
0.0248841
0.0246808
1.3144
0.0527645
5.71938
0.0356844
0.0364278
5.46181
2.86523
3.44337
0.0245168
0.0335391
0.0236356
0.0367454
0.0258273
1.87612
0.0270444
3.2281
0.0223625
0.0732794
0.0241096
0.16042
0.0356355
0.0331443
2.73126
0.0461253
0.046278
0.0248973
0.0731437
0.59298
0.0647284
0.0262793
6.4134
0.0229758
2.63379
0.366489
0.024667
3.50084
4.2209
3.60805
0.224427
0.0336139
0.0240603
2.86819
0.0271279
0.475163
3.14991
0.0238187
0.0257015
0.474531
0.481014
2.04344
0.0246067
0.0234355
1.38442
3.09579
0.12296
0.0282282
0.0258737
0.334254
2.76975
0.0928385
0.0223222
0.0439532
0.0235109
0.0258118
0.164441
0.0246435
2.07672
0.330622
0.0244246
0.0255593
0.0240828
0.0258406
5.8848
2.80202
0.0321152
2.39936
0.0241099
0.0321322
0.0240126
0.0235312
0.0245867
0.0244073
3.92681
0.0244576
0.0555913
0.0245181
0.0288426
0.208734
5.81488
0.0252967
1.41425
0.0686652
0.652028
0.0352101
0.0355397
7.64284
0.0295976
0.0423588
1.8712
0.606978
3.77719
0.0427225
0.343591
0.0249112
0.0439832
0.0547575
2.12345
0.0240326
2.10892
0.0237645
0.0238248
2.66719
0.0242316
2.19591
0.02801
0.0236146
0.040368
0.0236348
0.0245104
0.0231657
0.0248818
0.194074
0.0238379
0.189831
2.61465
0.0674646
2.62138
0.0246608
0.0251889
0.0264163
0.0242628
0.0236093
0.0854086
0.0250072
0.0236494
0.0248497
0.0241453
3.81634
1.68738
0.0610204
2.86831
0.225942
0.0240845
0.589592
0.0312341
0.0238333
0.309507
0.0599652
0.443212
0.024034
0.325954
0.440833
2.69447
0.0231864
2.6791
0.0336956
0.0268989
0.0233077
0.0233262
2.06818
0.0999748
0.443667
0.0236884
0.0243618
0.624373
0.0246869
1.33732
0.319363
1.50292
0.942285
0.350051
0.0242259
0.024342
0.0587513
0.0312947
0.0267689
0.166064
0.0445133
0.0250406
0.025725
1.66501
0.0236631
3.46455
1.80387
0.405848
0.20549
0.0253343
0.0227908
0.0246693
0.332885
0.320819
0.0231841
0.0257749
0.0236585
0.0830938
0.0224461
0.0236236
0.0250162
0.0354328
1.2052
0.0439693
0.0338582
0.0243291
0.0557338
2.61035
0.0253044
7.47405
2.4008
0.0866242
0.0225649
0.0470937
0.0242534
0.0238852
0.0246089
5.05782
0.128033
0.324563
0.0268407
0.302989
0.0243218
0.0237534
0.024629
0.580672
0.940143
0.0222798
0.0350376
0.0595464
3.51328
0.0254429
1.29304
0.0330619
2.83905
0.0805526
3.34003
0.0963142
0.0854335
0.602885
3.07611
0.329886
5.02255
0.0237063
0.151344
0.0224303
0.0263698
0.028973
0.0246684
3.1364
0.0322535
0.0302088
0.286301
0.19024
0.518653
0.0244427
0.0265463
0.0288007
0.0228688
0.0330359
1.34532
0.404684
1.14305
0.0238966
0.0296664
0.0269315
0.547113
2.97507
0.0581291
0.0227676
0.0249479
2.62089
0.0478623
2.03027
2.77098
0.120364
0.0225447
2.44139
0.0324782
0.0464029
0.0311507
3.41225
0.340129
0.129957
0.246402
0.0252408
0.0299456
0.0244297
3.50337
0.0506808
3.20876
0.246071
0.0287871
0.152509
0.0256546
3.43915
0.221356
0.0233617
0.174058
3.0372
0.202017
3.31692
0.0245935
0.0243657
5.61321
2.66572
2.5619
0.0256177
0.0246805
0.0244148
3.72466
0.147807
0.0248586
0.0597233
0.0911866
2.53591
2.30724
0.523837
0.024514
3.28349
0.0274773
0.0242081
0.146945
3.85022
0.0247405
0.0237509
7.59436
3.36019
0.0241227
0.0238757
2.14445
0.0232316
0.245039
0.0238995
0.403606
0.0243538
0.0565317
1.15202
3.02487
0.0255003
7.34049
0.361388
2.32201
1.95361
2.80218
0.104161
0.0241622
2.31353
0.0255132
0.0244649
0.0228415
0.464243
0.0241054
0.541275
0.0237703
0.0260364
4.90271
0.0695204
1.96798
0.0257851
0.0317432
0.0235868
0.0351672
2.66008
3.48664
0.023702
0.0712611
0.356735
0.024587
0.0233332
2.96837
0.0369026
0.0376479
0.136884
2.65191
0.937586
2.37098
3.24743
0.138825
0.323783
0.342729
1.60882
0.0710686
0.0225934
0.134236
0.0241444
0.0240788
1.69787
3.01674
0.0260605
2.6594
0.101563
3.7843
0.107387
0.070976
0.0242064
0.118445
0.0796863
0.0236747
0.0255911
3.25029
2.80804
1.28109
3.42994
0.0411468
3.28104
3.3651
0.0346115
0.024695
0.0239656
0.267858
0.0239532
0.203595
0.025251
0.0251131
0.0262377
2.68277
3.75985
3.07659
0.0248117
2.58074
0.0278451
0.0319891
0.023945
0.0233466
2.74558
0.0298302
3.31069
1.24828
0.0533881
0.12255
0.0245887
0.0432387
0.0246234
0.14761
0.0251805
0.0257088
0.024736
0.0251761
0.164149
0.0251742
0.0373801
0.0238041
0.0380129
0.148579
5.77102
0.0239668
0.0510917
0.0240308
0.0609662
0.025048
2.74964
0.156647
0.0343283
0.026668
0.0254153
0.199456
0.0242278
0.266672
0.0245311
0.0237376
0.0250112
3.01651
0.0297373
0.0273774
0.0338601
0.0240161
0.0688141
2.92262
2.21236
0.0383072
0.0244413
0.0509123
0.0226122
0.0238619
0.206476
3.21091
0.0237397
0.0329083
0.166601
2.71652
0.0249059
0.0250912
3.23251
0.0255643
0.0972264
0.204898
3.83435
0.024365
0.0253295
0.0242758
3.48053
0.138459
0.0442627
0.125539
3.08644
0.0254481
3.69024
2.02074
0.0245578
2.74277
0.0867684
0.0253479
2.80874
0.0246176
0.0240911
0.0232648
0.186061
0.112713
0.17126
0.0257285
0.0253628
0.0328639
0.391814
0.385583
3.72278
0.370226
0.0250884
0.139
0.139262
2.62538
0.0781466
0.261169
0.0239714
0.0339017
0.0233468
0.210592
0.0390476
0.0242677
1.74196
0.152517
0.0350135
0.0343116
0.0222179
0.0239173
0.0569128
0.0368549
0.587402
0.0710371
0.0695739
0.0640476
0.123026
1.9909
0.0628235
3.67224
0.023976
0.0236706
0.191961
2.9587
2.89536
0.208082
0.0250613
4.61124
0.359897
0.023779
0.0291507
0.0237393
0.0440583
0.0753488
0.118814
3.22267
0.38782
0.0256396
2.93268
6.40045
0.0245121
0.103871
2.30142
2.56756
0.0267257
0.08016
0.022152
0.0259497
0.0236217
0.0280538
3.65258
2.75715
3.28835
5.27849
0.0256379
0.0366197
0.0580555
0.0234734
0.024774
0.023341
3.06987
0.0239049
3.52047
0.0391363
0.0485784
0.166324
0.204602
4.68549
2.85639
0.0432618
0.0224467
0.0284345
2.62694
1.61873
0.027623
0.0236931
0.0233004
0.0661581
0.0330424
0.151916
2.10316
0.0256113
0.023285
0.128552
0.0434673
6.29594
0.412181
0.0238891
0.0769139
0.0245049
3.68951
0.0226001
3.29581
0.0235448
0.02555
0.0338023
0.0250144
0.0587747
0.0326666
0.0500399
2.74157
2.81837
0.0280634
0.032595
0.0242005
2.75314
2.72273
0.0244235
0.0226661
0.340665
0.0222199
3.90468
0.0238244
0.035755
0.0729697
0.0982115
0.0404002
0.0255162
0.0247134
0.0751909
3.30565
0.0241614
0.388856
2.89883
0.32239
0.160093
0.0360016
3.49573
0.0283205
0.292457
0.0243243
0.373895
0.370193
4.39992
2.73891
2.05965
0.0244819
0.151564
0.0237365
8.20316
0.311176
3.15209
2.69297
0.0296712
2.01184
0.735843
0.0373073
0.0257149
0.0247154
3.40502
0.0283911
0.0747064
0.0257946
0.0246339
0.0235333
0.0245888
2.81064
0.184622
0.0338027
2.6556
2.14977
0.0239257
0.0243612
0.0233044
0.0304541
3.26634
0.206685
0.0282982
0.0270059
0.931328
0.0804903
0.0471822
5.93822
0.032992
3.58516
0.0330749
0.031811
0.0243336
0.0257507
0.0750416
0.384559
0.369576
3.22276
0.0734856
2.74484
0.0270241
0.0272603
0.0241784
3.08088
2.87705
0.372521
0.0676062
0.0264726
0.0244472
0.0239501
0.0245256
0.0233611
3.20694
0.0319047
4.00281
0.0348268
2.75798
1.81192
3.34312
0.0499083
0.0287708
2.53672
0.0419756
1.6116
3.39318
0.0234632
0.0682775
0.0299339
4.53726
6.0537
0.0374
0.0575172
0.424353
0.0255337
0.0533766
0.0269744
2.73888
0.395172
0.0268725
0.0247055
0.370913
0.15913
0.136855
0.742931
0.134469
0.0306569
0.0239084
1.5461
3.21324
0.0811095
0.0336166
2.85235
2.6757
0.0237566
0.0244903
0.0270877
3.22205
3.06947
0.0244087
4.24392
0.0251257
0.023992
0.0246228
5.63487
0.348997
0.107328
2.97236
0.0258493
0.0256693
0.0239168
8.60823
0.025159
2.62332
0.0266575
1.25753
0.0249286
0.0241431
0.130179
3.33647
0.323254
0.038456
2.40348
0.0225496
0.0245713
0.0245015
0.0466998
0.0689505
0.0690446
0.0382949
3.28152
0.0272538
0.131776
0.657148
1.96585
0.0242774
3.40978
3.13319
0.0279457
0.333987
0.0705069
3.52203
0.0246661
0.0723287
0.0239134
1.62913
7.32397
0.0936012
3.4799
0.0264034
0.0522247
0.0254438
3.92276
0.0225184
0.0237164
0.57961
0.090571
3.11628
2.5819
0.0688947
0.0312582
0.023246
1.37449
0.0331976
0.0236845
0.151873
0.0231752
0.0461141
0.0244363
0.257074
0.0254045
0.312515
0.357253
0.0340076
0.111154
0.0582328
3.71312
0.0242658
1.15468
1.60564
0.0235241
0.0244208
0.025813
0.0249558
0.0418365
0.0241107
0.0699024
0.0813564
0.278303
0.063523
0.0244673
0.0249314
0.0232223
3.01182
0.0245927
0.0242595
0.198277
0.0268554
1.23826
3.47557
0.094227
0.0269232
0.0362396
0.0256166
0.0251099
0.0372086
0.0227252
0.0269771
3.07002
3.3888
0.739041
0.0255651
2.89653
0.786914
0.0249763
0.263165
3.1542
0.0244287
0.0265038
0.0243805
3.18789
2.77369
0.596162
0.0227053
0.0268961
0.026055
0.0247022
0.137581
0.0245538
0.0491605
4.65943
3.59711
0.0234269
0.0268397
0.026497
2.69686
0.0222044
2.72204
2.8902
0.268805
0.550672
3.9557
2.06979
0.0255771
0.61152
0.0633877
0.0254504
0.0232288
0.0237859
3.44839
2.58263
3.08836
0.0238418
3.612
0.0246435
0.169913
0.0231634
0.0261106
0.0253838
0.0234179
2.78952
0.0255173
1.86172
2.69187
2.69235
0.0493508
0.0558651
2.74433
3.25738
0.0245462
5.32434
0.0232359
0.0222739
0.0243496
0.0584288
0.0233812
2.70694
0.0327162
0.3416
0.0394934
2.87239
2.66745
0.110728
0.0233914
0.058938
0.0790215
2.76478
0.0242971
0.0222984
0.0257894
1.76047
0.0245504
0.341706
2.61725
0.0440261
0.0633426
0.0243304
0.35968
0.0248729
3.30387
0.022985
3.22288
0.0341241
0.0245961
2.63211
2.64517
0.0228903
0.0704769
0.0273578
3.29628
0.0842258
1.23474
0.347738
0.0248641
0.0591676
2.73589
0.0237273
0.0507002
0.0258797
0.0821121
0.0351697
2.87175
2.93205
0.0246079
3.44654
0.0254385
0.0465792
2.98533
2.59255
0.0380858
3.03997
0.25488
0.0247203
0.342259
0.136716
0.0336276
0.0254674
2.73988
0.0229219
3.48171
0.2784
0.113944
0.0244308
0.0330563
3.24978
0.0470555
2.95016
0.0251348
0.0267052
0.167524
2.81264
0.0289653
3.29407
0.713884
2.74374
0.0246258
2.80652
2.38318
2.76328
0.0244875
0.0264701
0.0242411
3.3949
0.0385624
0.356311
0.360969
0.0248811
0.0229445
0.0244485
2.74248
3.01596
3.90512
2.68704
0.0239051
2.77161
3.27624
0.138368
2.56832
3.10534
0.0367746
3.57656
0.0263507
0.0286106
3.10986
2.80574
0.0243951
2.86779
0.0247165
0.0244729
2.46855
3.01354
3.67371
8.7182
0.0338842
0.0248938
0.0258974
3.37959
2.63255
0.02418
0.0497105
0.349108
0.024518
0.0245813
3.06802
2.40363
0.025952
0.0245361
0.0253757
0.0255619
0.610683
0.0249347
0.0239612
0.0284716
0.155359
2.37032
0.0698691
3.05766
0.0246188
0.0274954
2.88956
3.29665
0.0307223
0.284718
0.0244045
0.0383948
0.0255291
0.0246805
0.0693279
0.0239136
0.823957
0.0352465
0.0236476
0.0271984
2.46579
1.55895
3.58379
0.0245316
0.027081
3.39986
0.443436
0.0269775
0.0242264
0.0245984
0.330429
0.0245959
0.0244677
0.0306562
0.0244049
2.94214
0.138538
0.0248394
0.0270509
0.0226429
0.0245557
1.44446
0.146963
0.0755347
2.53167
0.0570601
0.024959
0.0243796
0.0245874
0.0242087
0.0248288
0.0263242
0.0796931
2.94183
0.0254744
0.116815
3.47225
0.294961
0.0242088
0.0237383
0.0264619
2.3348
0.0241618
1.13784
0.459377
0.0466168
0.0248492
6.23335
0.0226432
0.0855617
0.0230515
0.0226741
0.0246071
0.0235902
0.0361687
2.73275
0.0976845
0.041102
0.945667
0.0911489
0.667823
0.0346142
3.06041
2.49363
0.115023
2.28668
3.11355
0.121605
0.355902
0.024944
0.0233874
1.87593
0.0239546
0.0271439
2.70529
0.0474264
1.9438
0.158848
0.0236142
0.028063
0.024554
0.0460455
0.0231308
0.0631596
3.07372
3.0107
0.980409
0.024544
0.0229522
0.0773321
2.57395
2.98966
0.121315
1.29044
0.0237856
2.09515
3.6237
0.706478
0.0266974
0.0245731
0.0225075
0.0262049
0.0244232
0.0242916
0.0269342
2.94238
0.0822052
3.27218
0.0613147
1.96059
0.188243
0.0243171
0.0235346
0.0247558
0.023161
0.0249123
0.207797
2.32452
0.729101
3.5777
0.0264256
2.75778
0.156323
3.33245
3.33661
0.0245153
0.0235928
0.140146
0.0245334
0.0229027
0.386618
2.96638
2.23629
0.0244586
0.0245876
0.0265613
0.0406047
2.32587
0.0232567
0.0270025
0.376431
0.0228814
0.333842
0.0401402
2.43842
0.0248874
0.335856
2.5788
0.038158
3.33062
0.120024
3.36068
0.0226287
0.0279165
0.0237148
0.0325487
5.60606
0.0240358
2.82499
0.024579
0.0242825
0.0245523
3.48608
0.0470399
0.118994
0.621334
0.0233264
0.047274
2.86119
0.0586072
0.0234306
0.0258156
0.0245253
0.0476667
0.0241646
0.0236934
3.58081
3.64521
3.37255
0.174397
0.549913
2.80913
0.0752737
3.67897
0.132652
0.0225698
0.0235204
0.0222367
0.0246581
3.42758
3.38509
0.0229946
3.23587
3.44546
0.0322522
0.0253403
0.0274043
2.74325
3.02771
2.99268
0.73083
3.01356
0.0222294
0.214982
0.107311
0.339653
3.19542
0.0243969
0.136966
2.84905
0.035372
2.6259
0.0248206
0.0754104
2.84589
3.19467
0.0799871
0.0340222
5.14206
0.138109
3.23711
3.31007
2.91621
0.121542
2.75635
0.0246037
0.0276311
0.0500611
4.10381
0.364264
3.47955
0.0246721
0.120952
0.0764582
0.024815
3.15814
0.0244268
0.137815
3.87747
0.0244427
2.08887
2.35098
3.28344
2.71965
1.68617
0.098296
0.0239824
3.47352
0.0244804
0.0235666
0.0440578
0.026805
3.20504
0.0270125
0.0272502
0.0270353
0.0235908
2.35939
0.0258789
0.125126
0.336734
0.0234418
3.77401
0.107598
0.0254471
2.97874
0.208494
0.0244299
0.689332
0.0251262
3.4305
0.176816
0.0230242
0.123608
0.0259478
3.56534
3.06025
0.0774627
1.07138
0.0286378
0.0246061
2.56982
0.0270328
0.0242377
2.11944
0.0435817
0.0237975
0.023638
0.138845
0.0257522
3.78657
0.219345
0.0430051
3.4333
0.0566215
0.0658529
0.0240252
3.60536
6.15943
2.91868
0.024493
0.0229156
0.0769306
0.0332902
0.37723
0.0242699
0.392338
0.0241049
0.200819
0.0244194
0.0411614
0.162433
0.122063
3.60358
1.25922
3.10954
3.04272
0.0222793
1.08511
1.38577
4.50679
0.0237228
0.171032
5.88021
2.90326
0.123578
0.886057
0.838641
3.68582
0.0486567
0.195047
0.0233985
0.0505666
0.0457842
0.0243813
0.074947
3.20628
0.0841314
2.72558
2.08357
0.0241711
0.0236956
0.0330757
0.0243883
0.948224
0.0232952
0.0236375
3.80032
0.19352
0.0354266
0.108557
0.0249602
0.087303
2.62746
3.15406
2.54537
0.0284932
3.11352
0.0257752
0.0231952
0.0262834
3.17632
0.236686
0.22197
0.184826
0.0253937
0.0236822
0.0243871
0.0249646
0.0294892
3.60484
1.8253
0.0315214
3.20081
3.8023
0.0537306
6.39351
0.0245033
0.0325895
0.0760623
0.0244915
0.0327204
0.0296875
0.0269447
3.89756
3.17831
0.0232814
0.0426816
0.0324709
0.0726751
2.69566
2.00201
3.6331
0.024571
0.0876841
3.54917
0.0868187
0.123277
0.257515
2.72105
3.77951
3.6618
0.0232672
2.7668
0.0229852
0.0259577
0.0243907
0.0637679
3.73784
6.57473
0.429746
3.54459
0.0599514
0.0228402
0.0237158
0.0245856
0.0256952
0.0468171
3.70702
3.5429
0.0820738
0.568404
0.0246636
0.0595702
0.0235089
3.25521
0.0860374
0.0244898
0.145757
0.109174
1.65586
3.66382
0.138958
3.26622
0.0276263
2.81351
0.205814
3.04405
0.317286
0.0256693
0.0591485
0.0245528
3.02705
2.93941
0.04292
2.30229
0.202209
2.21843
0.0699538
0.153897
0.043334
0.0238295
0.128165
0.0627632
0.0271391
0.0588711
0.0337582
0.0353479
2.97425
0.166385
0.0260919
0.0330959
0.0391554
0.0347269
0.025593
1.95408
0.117611
0.361502
9.08829
0.0244543
3.25365
0.0245757
0.0272335
0.0263774
3.19221
0.0407785
3.29163
5.77023
0.0629665
0.0482059
0.126143
1.68916
0.141885
1.04828
0.0266015
0.0487926
0.0236257
3.30663
0.406002
0.02651
0.0240478
0.0398651
0.0288809
0.0272365
0.0525521
0.0427207
0.0246761
0.0366662
5.31155
4.14739
0.517026
0.0440279
0.0223836
1.70779
0.0352005
0.0690355
0.930557
0.0461528
1.89505
0.0229358
0.0270181
0.0271347
0.0358275
0.0242103
3.40872
0.326487
2.51673
0.0400252
3.24685
0.198483
0.0286413
1.71491
0.0706086
0.192606
5.74662
0.045897
0.0269818
0.0436644
0.0708271
0.0270591
0.402354
3.84384
0.315789
0.0238347
0.213714
0.328731
1.57816
0.0243066
0.0470998
0.023919
0.0334846
2.44106
0.0321976
0.0318523
0.0238063
0.0237758
0.386776
3.10552
0.0243335
1.07486
0.19694
0.0228512
0.0279625
3.34007
0.122044
0.109764
0.0244435
0.0299786
0.109937
0.0242502
0.0239793
2.70072
0.0321512
3.37212
0.0886903
0.0290753
3.72763
0.12174
0.168302
0.0238669
0.475297
0.0329841
0.0294809
1.64855
0.0432733
0.0245879
0.0868757
0.027427
0.0278875
0.0227875
1.51967
0.0244111
0.0779034
2.44219
0.106567
0.0236225
0.805931
0.0336568
2.73876
0.163108
3.50353
0.113211
3.17571
0.0235561
0.0814945
0.0284306
0.0241242
0.444495
1.88079
0.0279691
0.827498
0.0280082
0.0768699
3.56787
0.0289517
0.0516989
0.947097
2.43043
1.65359
0.17514
0.0381077
0.0235937
0.0813309
0.0382397
0.568974
1.9382
3.24103
1.98013
3.43078
0.0237462
1.67679
0.0244909
0.0255067
0.0246331
0.424827
0.15844
0.0977223
0.0239741
9.64211
0.0301988
3.64741
0.0235895
0.0661783
0.0332379
0.0744153
0.0448936
0.110493
0.0258726
0.174533
0.131221
0.0238953
3.84249
0.187073
0.0522854
0.0256308
0.0328503
0.0245692
0.023965
0.0689973
0.0995136
2.63196
0.204317
0.0904577
0.912899
0.0238499
1.39401
0.0690594
1.94992
0.0332832
0.0337573
0.474731
0.0342178
0.31265
0.0691342
4.35991
0.0264354
0.0246714
3.09193
0.0346649
0.0266263
0.0304691
0.032897
0.0232059
0.0293152
3.37308
0.0241552
0.0448058
3.37574
0.120124
0.0759531
0.844002
1.4927
3.52568
2.63722
1.31195
0.058647
0.683223
0.0257395
0.0278135
0.0245649
0.0239351
2.8226
0.428591
0.034595
0.0235725
0.648058
0.0943491
0.0239577
0.160095
0.0557857
0.0242277
0.0260178
1.56769
0.0294851
0.0403805
0.0399672
0.0240868
0.0989434
0.0693247
0.0324956
0.181163
0.0813058
0.409393
0.245748
2.90814
0.0262387
5.10073
0.166931
0.152608
0.0696527
1.67039
0.0796152
0.0291997
0.0528226
0.070999
0.0265202
0.0761326
0.024044
0.024297
0.0226776
0.027406
3.35404
0.0230925
0.111025
0.0273669
0.026725
0.0271552
0.635663
0.0264069
0.065101
0.0245998
0.0272794
0.0278422
0.0234633
0.617613
0.0266037
0.0232428
0.0254052
0.0315314
0.023677
1.87253
0.0301057
2.89818
1.4469
2.39076
0.0631142
0.0805836
0.256624
0.0433957
0.0289986
0.0280937
1.95115
2.99264
1.70703
0.0689287
0.0345949
0.0239631
1.96747
0.0431022
3.23415
0.0243206
0.792419
0.149313
1.40065
1.22909
0.0227546
0.0245089
0.0230387
0.0319387
3.04181
0.0517968
0.865845
0.0287077
0.0319574
0.0239362
0.0249542
0.0364849
0.0266562
0.0269054
0.0236029
0.20919
0.330878
3.10028
0.0271212
0.924245
0.0234341
0.0229119
0.111512
0.0250184
0.0271193
0.0692176
0.0270979
0.0732379
0.0245176
0.0284754
0.0246336
0.0273994
3.28185
0.0239717
0.0265817
0.0256771
0.0268035
0.774718
0.024891
0.0528348
1.51821
0.0275307
0.0325841
0.0255297
0.0258304
0.0248696
0.136271
0.0245112
0.0295373
2.66887
0.0236602
0.0321606
0.0531115
0.0682721
2.77983
0.0227293
0.0267432
0.0249268
0.0332212
0.103479
0.891234
3.11736
0.0229704
0.0315446
0.0947091
0.02612
2.32786
0.0225994
0.0246674
0.555006
0.0432401
0.0266827
0.0226569
0.165343
0.123018
2.48083
0.0246716
1.67267
0.0226309
0.0233551
0.0265306
0.0820977
3.78514
0.024602
0.0238292
0.363066
0.0245229
0.0262927
0.327791
2.76146
0.0245002
0.0232433
0.024751
0.0342446
0.196451
3.28515
0.0249447
0.11186
0.0239457
0.0244078
1.97154
0.0260328
0.0248614
0.0332684
0.210209
0.138925
0.0263822
0.0252771
2.51538
0.0433115
0.0254609
0.456274
2.54
0.0245457
0.0248202
0.026235
0.0244425
0.0245337
0.0236265
0.0228806
0.0419765
0.0261491
0.0463814
0.0507228
1.93698
0.832
0.0337705
0.0227081
0.0243536
0.0253118
0.0262091
0.0432659
0.0318198
1.1877
0.0265762
0.109747
0.0271734
2.78814
2.63244
0.0314452
0.0253392
0.130477
0.0268207
0.0293975
0.0244731
0.0254218
0.0241132
0.046779
0.0443711
0.0494124
0.112403
0.0261996
0.0283327
0.0253519
3.33734
3.35396
0.41992
0.0297679
0.211144
0.14472
3.00919
0.0250481
0.554603
0.0688574
0.0244791
0.0249209
2.90565
0.0245747
0.0254865
0.0263174
1.10649
0.0245615
0.0248509
0.0284313
2.37635
0.0238305
0.0539426
1.08387
0.0266053
0.0245985
0.0241087
0.024509
0.0248856
0.024807
0.126611
0.0251962
0.0245697
0.0248119
0.0248285
0.0315112
0.024438
0.335771
0.0246636
0.0248036
0.0407817
0.0392557
0.0817272
2.49523
1.10429
3.39132
0.0403108
0.0236219
0.0403349
1.96403
0.0228591
0.214958
0.0260693
1.02576
0.0262259
0.046152
0.0248816
0.0244695
0.120872
0.217334
1.79168
0.305559
3.47217
0.0248428
0.023679
1.94094
0.0228297
0.0245791
3.17983
0.0239825
2.1847
0.0245338
0.18648
0.112837
0.0267577
0.554171
0.0293039
0.080878
0.150432
0.366256
1.31273
2.93695
0.441554
2.18361
0.0246276
2.71591
0.024528
0.0243689
0.0237746
0.0249777
0.88521
0.0254792
4.48937
0.0245663
0.024463
0.0246826
0.219463
0.0244035
0.0232511
0.0608145
0.0281338
0.0292249
0.0281419
0.0312215
0.219224
2.04581
0.0999089
0.873875
0.10372
0.0254591
0.566108
0.0245567
0.0315616
0.0777583
2.75872
0.0444091
3.44037
0.0245396
0.819945
2.32765
0.152589
3.56291
0.300064
0.0265829
0.0243797
0.0269387
0.0245173
0.0243638
2.32085
2.2496
0.0240212
1.37136
0.0245122
0.11322
0.023917
0.240586
0.0299723
0.0264443
0.0233672
0.586051
1.32554
0.399912
0.0234358
0.0235515
0.0293114
0.0248288
0.0253393
0.537532
0.0878247
0.0497116
2.11427
0.0446553
0.0249059
0.0346467
0.0778223
0.0249716
3.13684
0.058059
0.19976
0.0261227
0.0271701
0.0229466
0.0222051
0.0244464
0.0292121
0.0236966
2.78592
0.0410536
0.0785173
0.024296
0.043451
0.0244942
0.057095
0.0420085
0.0572407
3.08991
0.0286977
0.0243912
0.0277586
0.0249201
3.14445
0.0809431
0.0431137
0.0576612
3.49242
2.83642
0.115396
0.0524496
0.0244739
0.0260589
0.0262636
0.0373213
0.104119
0.0290803
0.0246191
0.493897
0.290149
0.0248467
0.0263695
0.0584168
0.0253728
0.0238605
0.0417476
0.0243935
0.0249836
0.023876
0.026562
0.0251298
0.0472486
2.78808
0.0245739
0.651357
0.103674
0.113719
0.0238691
0.024255
0.197283
0.0289197
0.0245342
0.0701915
0.0243944
0.0555015
0.0246588
0.0426658
1.72638
0.0569687
0.0256018
0.062143
1.62619
1.21981
0.0245306
0.0384141
3.64889
0.0240607
0.0251415
0.0820624
6.11511
3.30714
0.0267911
0.0243757
0.0347401
0.0241568
0.0254274
0.0310272
0.0248443
3.5389
0.0248977
0.734352
0.0245064
0.0245792
0.0509976
0.0244496
0.0246425
0.0309691
0.851235
0.0233924
0.0386194
0.0249742
0.024018
0.0243994
0.0309209
0.028543
0.0730818
0.0261256
0.0248338
0.0249292
0.0412312
0.0254871
3.50788
0.0250998
0.114463
0.0362682
0.0254209
0.0304145
0.882005
0.0245789
0.0251529
0.0226219
0.0938353
0.322675
0.0243349
0.0384857
0.0238487
0.0373297
0.0245593
0.298368
1.6551
0.026491
0.0279502
0.0302379
0.0357386
0.0246992
0.0236231
0.0504686
0.0245069