/*--------------------------------*- C++ -*----------------------------------*\
| =========                 |                                                 |
| \\      /  F ield         | OpenFOAM: The Open Source CFD Toolbox           |
|  \\    /   O peration     | Version:  v2012                                 |
|   \\  /    A nd           | Website:  www.openfoam.com                      |
|    \\/     M anipulation  |                                                 |
\*---------------------------------------------------------------------------*/
FoamFile
{
    version     2.0;
    format      ascii;
    class       volScalarField;
    location    "200";
    object      p;
}
// * * * * * * * * * * * * * * * * * * * * * * * * * * * * * * * * * * * * * //

dimensions      [0 2 -2 0 0 0 0];


internalField   nonuniform List<scalar> 
13851
(
0.00300481
-0.000476848
-0.0283653
0.00289144
-0.0390095
0.00398855
-0.0183112
-0.0255055
0.00181766
-0.0112176
-9.03151e-05
-0.0220646
-0.0361962
-0.077296
-0.0111269
-0.00886088
-0.0206036
0.00264217
-0.0345477
0.00177113
0.00261
-0.029675
0.00129276
0.00143956
0.00131205
-0.0240994
-0.0312138
-0.0929861
0.00260663
-0.00364908
0.00117414
-0.0208063
-0.027134
-0.015788
0.00139478
-0.0642589
-0.0640332
-0.0377185
-0.0122504
-0.0160395
-0.00222561
0.000794928
-0.105862
-0.00538546
-0.00755996
-0.044471
-0.0108218
-0.00873843
-0.0319707
-0.00238659
-0.049614
-0.0473035
-0.107494
-0.0108281
-0.00427911
0.000778174
0.00174146
-0.123124
-0.00376819
-0.018356
-0.0385136
-0.00970957
0.00559218
-0.0404554
0.0188472
0.00468074
-0.0638656
-0.0108272
-0.0409049
0.00272091
-0.058932
-0.0667586
-0.00534159
-0.0110019
-0.0033995
0.00214321
-0.0299453
-0.0670437
-0.0370847
-0.0607648
-0.019463
-0.00313313
-0.0107442
-0.0647781
0.00518576
-0.0207807
0.00528115
0.0421161
-0.0272291
0.00210174
-0.063833
0.00555675
-0.0102007
-0.0305925
-0.0279218
0.00184551
-0.0396703
-0.0405879
-0.00161088
0.00185283
-0.163592
-0.0430231
-0.0011583
-0.0382134
0.000313002
0.00280918
-0.0455929
0.000484207
-0.0676063
0.00546304
0.00161709
0.00213687
0.0055314
0.00146363
0.00162668
-0.0184961
-0.0394858
0.000723505
-0.000245206
-0.00360315
-0.103333
-0.0372798
-0.0354919
-0.027301
-0.00464444
0.00207539
-0.00283344
-0.0397528
0.00252147
-0.0372941
-0.00235855
0.000699819
-0.0599573
-0.0108643
-0.015494
0.000322083
0.000717334
-0.0651442
-0.0452743
-0.00175574
-0.162164
-0.00383301
0.00307989
0.00136623
-0.0144328
-0.00678647
0.000738303
-0.0367179
-0.0177966
-0.00637744
-0.0638959
-0.00316131
-0.0833988
0.00178035
-0.0226081
-0.0138643
0.000803909
-0.00631785
-0.0463079
-0.0485373
0.000160588
-0.0376741
-0.120741
0.000772719
-0.0017488
0.00115894
0.000571558
-0.04216
0.00226491
-0.0326032
-0.0663569
0.00178528
0.000723654
-0.00940796
0.000746248
-0.00878837
-0.0389189
0.00306637
-0.0353074
0.000451213
-0.020152
-0.0635624
-0.0111273
-0.0305879
7.8831e-05
0.00166929
0.00462458
-0.00356607
-0.037669
0.014251
-0.0108663
-0.109552
0.00216462
-0.0370796
-0.0139273
-0.0213145
0.00295116
-0.0240936
0.00303263
0.00215533
0.00202763
-0.0167722
-0.00107268
-0.00707438
0.00300449
-0.0113561
-0.0633528
-0.0227966
-0.0596873
0.000261423
-0.0599609
-0.00138558
-0.0234432
0.000303736
0.00123874
0.00130123
0.00494064
-0.0532842
-0.0110435
-0.059796
-0.0227133
-0.0200847
-0.0557787
-0.0418127
-0.0602498
0.00160774
-0.0314818
0.000341895
-0.108254
0.000269753
-0.0227533
-0.00757132
0.00177851
0.00213151
-0.0509399
0.00670788
-0.0655292
0.0239126
0.00130533
-0.00728097
-0.00109844
-0.000301803
0.000237284
0.00386348
0.0003358
-0.0603274
-0.0423037
-0.0192088
-0.0126293
-0.0132294
0.00312749
0.000197486
-0.0137498
-0.0133025
-0.050719
0.0112845
0.0149442
-0.0652918
-0.0949955
-0.012897
0.00126684
0.00252427
-0.0144706
0.00176901
-0.0286919
-0.0206784
-0.0139315
-0.03059
-0.0549577
0.00329082
0.00290273
-0.021936
-0.00680633
-0.0368785
-0.00824077
0.000733012
-0.0002511
0.0022483
-0.0644405
0.00226005
0.000186884
0.000160748
0.000198546
-0.0505433
-0.020511
-0.0113961
0.00194928
-0.0118803
-0.00817787
-0.00771973
-0.0363824
-0.00445881
-0.01841
-0.0398979
-0.00790221
-0.0323663
-0.00403135
-0.00741225
0.000728293
-0.0594467
-0.0375226
-0.0194676
-0.0638579
-0.0049099
0.00337325
-0.0616802
0.00189047
-0.0474577
-0.0295649
-0.00450036
-0.0460622
-0.00343393
-0.0122502
-0.0538048
0.000921675
-0.0136881
0.00225094
-0.0664316
-0.0630796
-0.0111776
-0.0458911
-0.0117162
-0.0896912
0.0041248
0.00145494
0.00167986
-0.0620676
-0.0312649
-0.0236879
-0.0118053
-0.00517429
-0.0118371
-0.00171181
-0.127209
-0.0136046
0.00468941
-0.0628241
-0.0437988
-0.0109797
-0.0365102
-0.0359792
0.00651582
0.00745694
-0.0492788
-0.0321822
0.0043139
-0.0194121
-0.0602925
-0.0111669
0.00105848
8.72452e-05
-0.0478689
-0.0242246
0.00780772
-0.110913
0.000800202
-0.0225445
0.00171616
-0.0116657
0.000304251
0.000451824
0.000476193
-0.0598827
-0.0220419
-0.007869
-0.0471672
0.000961755
-0.00287092
-0.00144478
-0.0202131
-0.0255189
-0.00762438
0.00419024
-0.0275863
-0.0184256
-0.00210283
0.000750314
0.00558164
-0.178089
-0.00336627
-0.0479822
0.00683032
-0.0495647
-0.0313249
-0.000367857
-2.7219e-05
0.00324175
0.000214494
-0.0111333
0.00430928
-0.0469006
-0.0737491
-0.0437666
-0.0620964
-0.0596191
0.0010253
-0.0131884
-0.019975
-0.0599119
-0.00783389
-0.041622
0.00547886
-0.0280041
0.00175337
-0.0434146
0.00181839
-0.0102198
0.00315836
-0.0163511
0.000241295
0.00188613
0.00111701
-0.0412347
0.00910438
-0.0859584
0.00332598
-0.0463533
0.00789641
0.00183432
-0.0113288
-0.0489497
-0.0191365
0.00299678
0.000674993
0.00184831
0.00169173
-0.0407656
-0.016468
-0.0401693
0.0075753
-0.0875086
-0.0124364
0.00371194
-0.00324676
-0.0521308
-0.00221213
-0.000424281
0.000537502
-0.0470632
-0.0087846
-0.0242294
-0.059907
0.00301569
0.000839576
-0.0107299
-0.173831
0.000127005
-0.0286127
-0.0379994
0.00309173
0.00175735
-0.0110871
-0.0636344
-0.0478737
0.00430032
7.6797e-05
0.00160558
0.00183814
-0.098672
-0.000771867
0.000161877
0.0343892
0.000273238
0.00304858
0.00169779
0.00713071
-0.00592928
0.000238899
0.0030469
-0.0491859
-0.0108637
-0.0438696
0.000279147
0.00431025
0.00166554
0.001335
-0.000631061
0.00143472
0.00135357
-0.00516298
-0.0147662
0.00342815
-0.0112536
0.00175599
-0.117674
-0.0595142
-0.0119265
0.00438184
-0.0120753
-0.00463474
-0.0619349
0.00176872
-0.0226924
-0.00230356
-0.0361659
-0.0168811
-0.100696
0.000586499
-0.104932
0.0183158
0.000845127
0.00443567
-0.0438304
-0.0219109
-0.0141079
-0.000370042
-0.0175652
-0.00441471
0.00104664
0.000885684
-0.0168309
-0.0611758
-0.0473223
-0.0538936
-0.0428986
0.0053626
0.000208017
-0.0228572
-0.0142485
-0.021196
-0.0368012
-0.00552623
-0.0249434
-0.0582688
-0.0101759
-0.10219
-0.0489054
-0.0244587
-0.00243821
0.00439267
-0.0336783
0.00160841
0.0146094
-0.0271996
-0.0532611
-0.00569631
-0.0576237
-0.0586077
0.000606225
0.0018923
-0.048394
-0.0585517
-0.0119083
-0.00810996
0.000721788
-0.00445566
-0.0383811
0.00652919
0.0399205
-0.0019266
0.0010747
-0.100927
-0.0649488
-0.000310695
-0.0140353
-0.0426819
0.000108359
0.00184803
0.000297201
-0.0239898
-0.0234633
-0.0615355
-0.0613853
0.000729833
0.00854056
-0.0197779
-0.0421901
-0.046153
-0.0611647
-0.0608582
-0.00217261
-0.0167163
-0.00164225
-0.0607568
-0.0597226
-0.0447655
0.00545752
0.000477456
-0.00441896
-0.050793
0.000692771
-0.0112707
0.000396025
-0.000361655
-0.0576587
-0.0397557
0.00701343
0.000651118
-0.0485411
-0.0246237
0.000530244
0.00178386
0.00178409
-0.0111176
-0.181701
-0.0220299
-0.0204631
-0.0268849
-0.0169098
-0.0442428
-0.0582158
-0.0584821
0.00456112
-0.0401659
7.05345e-05
0.00231542
-0.0131727
-0.0427548
-0.0219796
-0.0606097
-0.0232464
0.00174211
-0.00598284
0.00298845
-0.0141536
-0.0458326
-0.0110606
0.00449217
0.00173064
-0.0321244
-0.0393603
-0.0178073
-0.00201878
-0.00290977
-0.014902
-0.0382983
-0.0411656
-0.042329
-0.00351029
-0.0605851
0.00171215
-0.00233418
0.00441387
-0.0363641
-0.00182578
0.0017813
-0.0682879
-0.00129056
-0.0408903
-0.0598584
-0.0714789
0.0296262
0.00179123
-0.068983
0.000258757
-0.000148876
0.000538309
-0.000368458
0.000118375
0.00378135
0.00568366
0.000622484
-0.0598018
0.0180258
-0.061317
0.000932502
0.000400781
0.00130849
-0.035968
-0.0238914
-0.0556379
-0.0319271
0.000317485
0.00177136
0.00103316
0.00114793
-0.0551658
-0.0124482
-0.0146218
0.000563478
-0.0170892
0.00102241
-0.0378559
-0.112967
-0.00690201
-0.0333736
-0.0181976
-0.00211189
-0.0528525
-0.172486
-0.0406788
-0.0233107
-0.0188607
0.00236609
-0.0547987
0.00292649
-0.0259499
-0.0116951
-0.0309229
0.000536502
-0.0510881
-0.060028
0.00229365
-0.00119748
0.00675128
0.00107009
-0.0199235
-0.010102
-0.0272629
-0.0448606
-0.0300044
-0.000439965
0.000371384
0.000852287
-0.110851
-0.0615563
0.00715517
-0.0592185
0.00200137
-0.0111069
0.000658087
-0.0170019
-0.0609548
-0.00514147
0.000212587
0.00205791
-0.0287393
0.00127327
-0.103245
0.00850207
-0.0687073
0.000864834
-0.0148222
-0.060586
-0.10821
-0.0638777
0.00288229
-0.061241
-0.011228
0.00260823
-0.035039
-0.0247197
-0.0139755
-0.0648887
0.00307388
0.00276982
-0.0639198
0.00172069
-0.0010707
-0.00584467
0.0017288
-0.101208
-0.0168535
-0.0473476
0.00681437
0.00245991
0.0017307
-0.00939764
0.000692807
0.00278035
0.000519234
-0.00201847
-0.00189447
-0.0598942
0.000560811
0.000889404
0.0041943
-0.0172252
-0.0610886
0.00081292
0.00299844
-0.0546022
-0.0363708
-0.0196295
0.00126776
0.00269735
-0.0285639
-0.0145196
-0.0592482
-0.050057
0.00172044
0.00116038
-0.106171
-0.000474885
-0.0105464
0.00105873
0.000541585
-0.0108142
-0.0245062
0.0144668
-0.00401622
0.00124012
-0.010409
0.00299664
-0.0650231
-0.0183644
-0.0370435
-0.0171529
-0.0145366
-0.0368794
-0.0510301
-0.0656783
-0.00450818
-0.0512672
-0.0414464
-0.0176428
-0.0451054
0.000660741
-0.0100993
-0.0315504
-0.0579875
-0.00474534
-0.012012
0.00170275
0.00451465
-0.127209
-0.0604689
0.00186669
0.0017269
-0.0503058
-0.00310767
0.000969227
-0.110019
0.00197513
-0.00911175
-0.0976386
-0.0618407
-0.00195247
-8.24601e-05
-0.0116556
-0.109941
-0.0543214
-0.0595514
0.00392839
-0.0159871
-0.0426248
-0.0247899
-0.0445464
-0.0460031
-0.0114769
-0.016876
0.00259769
-0.0589933
-0.0607795
0.00475078
-0.0427297
-0.0963314
-0.00886657
-0.0651721
-0.0131718
-0.0444585
0.000581997
-0.00445174
-0.00096662
-0.0296784
-0.0110499
-0.0612208
0.00097956
-0.0539577
-0.00351764
-0.0376718
-0.0450664
-0.0431512
-0.0364625
-0.0500548
0.00847571
0.00138392
-0.0528581
-0.0126426
0.00338445
-0.00994674
-0.0623488
0.00172086
-0.0289589
-0.0173129
-0.0101867
-0.0632655
-0.17142
-0.0618682
-0.00152706
0.00426101
0.00154131
-0.0700353
-0.0110061
-0.0205668
-0.059183
0.000743887
-0.0294939
-0.0390462
-0.0237525
-0.0378753
-0.0125234
0.00179707
-0.0270026
-0.0589805
-0.0452892
-0.0106248
0.00360653
-0.0145058
-0.0886667
-0.0506608
0.000917835
-0.0128678
0.000943276
-0.00100892
0.00125917
0.00176357
-0.0536987
-0.000496971
-0.00888898
0.0030349
0.0016401
-0.00638291
-0.0571608
-0.0389513
-0.029551
-0.0540827
-0.00371972
-0.0274723
0.00153146
0.000889927
-0.0065149
-0.00849276
-0.0576003
-0.011849
-0.0535937
-0.0131194
-0.0113937
0.000786115
-0.10125
-0.000226454
0.00399676
0.0157373
-0.049096
-0.0175507
-0.0237158
-0.0590681
-0.0328979
0.00627155
-0.0282359
-0.00580896
-0.0992549
-0.0276027
-0.00432006
-0.00204653
-0.0493356
-0.0441741
-0.0412408
0.00126932
-0.0182969
0.000898845
0.000883852
-0.0649451
0.00196901
-0.032221
-0.0142032
0.000832964
0.00851761
0.000679942
-0.011789
0.000416311
-0.018421
-0.0638493
0.000688064
-0.0538214
-0.0928085
0.00350841
-0.0311042
-0.0164264
0.000743099
0.0020325
-0.00421379
0.000673665
-0.053763
-0.0237901
0.00191034
0.000110614
0.00148335
-0.0668252
-0.00567115
0.00476274
-0.0457087
-0.0573942
-0.00425706
-0.0236362
-0.0241975
0.000542028
-0.0137142
0.00288217
-0.00390433
-0.00365564
-0.00989083
-0.0224941
-0.120167
0.00169598
-0.0339337
-0.0166906
-0.0281137
0.000417996
0.00197913
-0.0523889
-0.000194726
-0.00945779
0.00224552
-0.00985741
-0.000784266
-0.0106236
-0.042627
-0.0105597
0.0277079
-0.0374002
-0.0160464
0.00170267
-0.00613819
0.00380929
0.00451419
-0.036396
-0.0371438
-0.0283755
-0.0244515
0.00360534
0.00903238
0.00196467
-0.0834259
-0.049858
-0.0154875
-0.0435079
-0.0111273
0.00162491
8.94767e-05
-0.0159691
-0.00640597
0.0017182
0.00076162
0.00222959
-0.0497921
0.00116129
0.00218647
-0.0201116
-0.0349223
-0.0606711
0.00718565
0.00394078
-0.00213149
-0.0595672
-0.0264099
-0.0283063
-0.0435934
-0.0508119
-0.0555835
0.00136761
-0.0484787
-0.00797848
0.00147595
-0.0001117
-0.0690921
-0.0613249
-0.016327
-0.0372043
0.00242132
-0.0092591
0.00037585
-0.00354961
-0.0177796
0.0093415
0.000171156
-0.0338667
0.00936897
-0.0586826
0.00136326
0.0119827
0.000409712
-0.0677655
-0.0170203
-0.0580886
-0.0645452
-0.0531011
-0.043403
-0.0641136
-0.015603
-0.00956446
0.00180435
-0.0042373
0.0011269
-0.0105872
-0.0386085
-0.0127765
-0.0614877
-0.0175921
-0.0283361
-0.00716454
-0.0431236
-0.00512946
-0.0113694
-0.0276786
-0.00492373
0.00167959
0.00494677
-0.0210386
-0.0151614
-0.0197598
-0.002779
-0.033803
0.00420502
-0.0271253
-0.0405475
0.00325211
0.00160665
-0.0229314
-0.0983264
-0.0204876
-0.0471289
-0.0187936
0.00161228
0.00133404
-0.0566034
0.00524026
-0.0356693
-0.0301059
-0.0594789
-0.0165705
-0.0376368
0.00335174
-0.00126343
0.00408554
-0.00972277
-0.0966768
0.00840062
-0.0620285
0.00278599
-0.0377661
-0.0565675
-0.0188676
-0.0588586
-0.0533446
0.00111462
0.0362405
-0.0605342
0.0343625
-0.0634318
-0.00676921
-0.00615414
-0.0575546
-0.025638
-0.0951893
-0.00736234
-0.0169977
-0.00826515
-0.0631533
-0.0640798
-0.0178342
0.00135962
-0.0263082
-0.0688608
-0.056538
-0.0148
-0.0129369
-0.0608216
-0.0286009
-0.000506918
-0.0542507
-0.0176848
-0.0186092
0.0010634
-0.097675
-0.0590193
0.00195828
-0.00227539
-0.0119334
0.00113979
8.1149e-05
-0.00285356
-0.0186085
-0.0055353
-0.0531842
-0.0118441
-0.0433574
-0.021103
-0.10989
-0.00151827
-0.0623963
-0.036021
-0.0666148
0.00258765
-0.0056545
-0.0517985
0.00129997
-0.0115483
0.00166354
-0.00233587
-0.00193495
-0.0650934
0.00102298
0.00290361
-0.0847181
-0.0193149
-0.0491771
-0.0151396
0.00245345
0.000845184
-0.0423161
-0.0607969
-0.131857
0.000414535
-0.0465376
-0.0139918
-0.00301102
0.00200625
-0.0637714
-0.0382102
-0.00607865
-0.0521301
0.00568718
0.00821287
-0.061398
-0.0651272
0.0036533
0.00141119
-0.0101014
0.0353377
-0.0446692
0.000383713
-0.0563357
-0.00518495
-0.003789
0.000475324
-0.0615128
-0.00206153
-0.0832211
-0.00128105
-0.0803761
0.00117387
0.00154352
-0.0035641
-0.00245656
0.00213384
0.00213366
-0.0216516
-0.0622762
-0.0633396
0.00863678
-0.0583258
0.00357519
-0.062931
-0.0599033
-0.0411504
-0.00736179
-1.60137e-05
-0.00623673
-0.00189545
-0.0554483
-0.00604263
-0.0202967
-0.00190827
-0.0259032
-0.0635413
-0.133011
0.000637485
-0.0578161
-0.00478913
-0.000178203
-0.00328166
0.00107209
-0.123816
-0.0104667
-0.0586913
0.000825067
0.00344269
-0.0586081
-0.0114047
-4.71672e-05
-0.00657465
-0.0662924
0.00298019
-0.0164251
0.000424264
-0.00283287
-0.0566699
-0.0219122
-0.015548
0.00212644
-0.014133
-0.0404037
-0.0574142
0.000566123
-0.0407854
0.000424466
0.00689936
0.00204183
-0.0219852
-0.00248001
-0.045025
-0.030608
-0.010949
-0.0012953
-0.00278566
0.00185583
-0.0118047
0.00227196
0.00298066
-0.0561359
-0.0278399
0.00426082
0.00557454
0.00120034
-0.0628332
-0.0478935
-0.0280306
-0.0387167
-0.0103111
0.00147179
0.000323988
0.00219939
-0.0427879
-0.0609098
0.000850799
0.000769838
0.0251792
-0.0601368
-0.0195542
-0.0197324
-0.0629918
-0.0186224
0.00163548
-0.0560374
-0.0658796
-0.00524677
0.00215543
-0.00756452
-0.0586767
-0.0668624
-0.0233215
-0.0561573
-0.126927
-0.0259968
-0.0627952
-0.0459526
-0.000423269
-0.0243223
-0.0548587
-0.00916405
-0.127609
-0.014644
0.00187249
0.0019253
-0.042271
0.000789561
-0.0598693
-0.0143566
-0.0291299
-0.0492083
-0.0206567
-0.0604088
-0.062718
-0.0111346
-0.0231335
-0.0660744
-0.0361567
-0.0970162
-0.0146809
-0.00567087
-0.00203777
0.00591026
0.00197992
0.01376
0.00441898
-0.00741818
0.00344907
-0.00861706
-0.0225954
0.00305417
0.000224998
0.00113923
-0.00213834
-0.0161931
0.00325434
-0.0428747
-0.0224594
0.00508421
-0.0366127
-0.0440078
0.00982744
-0.061787
0.000726064
0.00175692
-0.0573997
-0.106963
-0.0962582
0.00272138
0.00122164
-0.0874566
-0.0117599
0.00231033
-0.0366207
-0.000961139
-0.0452458
-0.0505017
0.00194684
-0.111591
-0.0609682
-0.0224972
-0.0137692
-0.0709251
-0.0127355
0.0198032
-0.0479874
-0.0960999
-0.0284051
-0.057947
0.000217312
-0.00758698
0.00213639
-0.00976523
-0.0616868
-0.0324391
-0.108698
-0.0185179
-0.0288748
-0.0012535
0.00458254
0.00112301
-0.0038145
0.00195084
-0.0445073
-0.00129151
-0.0601189
0.00239291
0.00551879
-0.0369119
-0.0631542
-0.0622835
-0.0578952
-0.0439933
0.00106742
0.00186293
-0.0559251
-0.0506176
-0.0276774
-0.000482605
0.00175768
-0.027222
-0.0176381
-0.0605091
-0.0544542
-0.0308431
0.00194945
-0.0667238
0.00223464
-0.0566951
-0.00601056
-0.00226178
-0.0440538
-0.000594705
-0.0677117
0.00131901
-0.061386
0.00185972
-0.0302126
0.00567849
-0.0112055
0.00819374
-0.0324123
-0.0413649
-0.128338
-0.0606143
-0.0262012
-0.022994
-0.00379432
-0.056864
-0.119032
0.000979062
0.0014963
-0.0134666
0.000583853
-0.0609182
0.000575702
0.00434137
-0.0211845
0.0100749
0.00566344
0.00289124
-0.0176733
-0.0575496
-0.0599443
-0.00544379
0.014775
-0.102371
0.00111238
0.00521878
4.56263e-05
-0.0810944
-0.0436035
-0.0339467
-0.00942332
-0.00755064
-0.00863395
-0.0928079
-0.0878829
-0.0565276
0.00209767
0.00255525
0.00120904
-0.0562586
-0.0135415
-0.0611943
-0.124916
-0.00950192
-0.0477117
-0.0177061
0.000966473
-0.00278397
-0.0173002
-0.0588198
-0.0120932
-0.058371
0.000692585
-0.00286442
0.000806357
-0.0088537
-0.0280862
-0.0612326
-0.0133444
-0.101465
-0.0350192
0.00200138
-0.00968893
0.00204291
0.00477891
-0.0607758
-0.065196
-0.00809762
-0.00479222
0.0103879
-0.0236527
-0.040888
-0.107721
-0.0132407
-0.0598098
-0.0491091
0.00322015
-0.00940445
0.000840308
-0.0430986
-0.0209092
-0.00367291
-0.0592455
-0.0267571
-0.026391
0.00316812
-0.0238817
0.00144901
-0.116425
-0.0969122
-0.0227063
0.00196958
-0.0267137
-0.0101065
-0.000817982
-0.0118779
0.00195486
-0.0963219
-0.016458
-0.104588
-0.00416518
-0.016276
-0.0411942
-0.0600421
0.00412612
-0.0358055
-0.0987758
0.00250755
0.0208095
-0.061781
0.00108604
0.00218655
-0.0259451
-0.177519
-0.107682
-0.00205864
0.00284291
-0.0188417
-0.000495356
0.00636479
-0.0108828
-0.0631266
-0.0221162
-0.0237253
-0.0176087
-0.00509321
-0.00030419
-0.0407707
-0.0220971
-0.0546576
0.00470151
0.00113695
0.00758672
-0.0608711
-0.0129408
-0.0425284
-0.0322343
-0.0577838
0.00117553
-0.0126609
-0.0243341
-0.0591553
-0.0517401
-0.0111452
-0.0576726
-0.023177
6.94824e-05
-0.00559354
-0.0270255
-0.0376168
0.00194537
-0.0966299
-0.00262832
-0.0156649
-0.00123549
-0.0957875
-0.00567275
-0.0264208
0.00344582
0.00171372
-0.0224938
-0.0049719
-0.0388303
-0.097756
-0.0128422
-0.0071143
-0.0565277
0.000119496
-0.0125563
-0.0129327
-0.0257012
-0.0418985
-0.0436787
0.00523829
-0.0573377
-0.0283279
-0.0365698
-0.00279763
-0.0401037
0.00240851
-0.0581931
-0.0591003
-0.0424515
-0.0177698
-0.0580177
-0.156047
-0.0135256
0.00497839
0.0023172
0.010853
-0.0572471
0.0174612
-0.0602499
-0.000909136
-0.057664
-0.00344413
-0.0588589
0.00120094
-0.00071619
-0.0231403
-0.00777177
-0.120918
-0.0594289
-0.0607931
-0.0205653
0.00192551
-0.0268051
0.00601329
0.00212894
-0.0654629
0.000205311
-0.0417401
-0.00951194
0.000386216
-0.00465969
-0.0086551
-0.000710864
0.00680395
-0.00300465
-0.0036899
-0.0612113
-0.00050127
-0.0106974
-0.00550153
0.00116652
-0.0106882
-0.0105398
-0.0226774
-0.0233038
-0.000889226
0.0027213
-0.0555383
0.00379065
0.00851381
-0.00089488
-0.0173581
0.00201921
-0.0619542
-0.0127769
-0.00265672
-0.0487089
-0.0354161
0.00144336
-0.0604117
-0.0625521
0.00381092
-0.0133487
-0.0142174
-0.0225482
0.0045024
0.00157264
-0.034351
-0.110946
-0.0615445
-0.0504262
-0.0135046
-0.094828
0.0142458
-0.0235747
0.00292345
-0.0525116
-0.0114928
-0.0307594
-0.010532
-0.0622229
-0.095623
-0.0283484
0.00153301
-0.021274
0.00370317
-0.0175138
-0.043634
-0.0033817
0.00204288
-0.0985472
-0.0605122
0.00137067
-0.0314228
-0.0365391
-0.0659315
0.000129986
-0.0996525
-0.11899
-0.000971563
-0.00889799
-0.00901545
-0.0498131
0.00335097
-0.0291537
0.00167977
-0.0281114
0.00190467
-0.000469888
-0.058992
-0.0969672
-0.0874691
0.00136273
-0.0608303
-0.0124439
-0.0357452
0.00201239
-0.0100014
-0.0259871
0.00134496
-0.0898516
-0.0300575
-0.0210048
-0.0647862
-0.096028
-0.0194281
-0.0575479
-0.0922741
-0.0595228
5.2373e-07
-0.11193
0.00200616
0.000753746
-0.00971079
0.00211204
0.00209774
-0.1241
0.00620849
0.000812571
0.00572342
-0.116546
-0.112273
0.0224851
0.00136084
0.00344559
-0.0102715
-0.0863559
0.00247938
9.76799e-05
-0.00617886
0.0206627
0.00187237
0.00276265
-0.117748
-0.0412975
-0.0258728
0.00243466
-0.0103332
-0.0190356
-0.0623256
0.00180816
-0.104216
-0.0466909
-0.014306
-0.11933
-0.0927674
0.00183402
-0.0620082
-0.0130129
-0.0910049
0.00114037
0.0197237
-0.00060579
-0.0171015
0.00675414
-0.0239104
0.00214711
0.00222002
0.00367706
-0.0572238
-0.0404086
-0.126448
-0.0748953
-0.0140675
-0.0580355
-0.0213206
-0.0336689
-0.0356052
-0.113876
0.00466164
-0.0657923
-0.037399
-0.0179104
0.000989912
-0.0636247
-0.0405963
-0.0287933
-0.0162888
0.00185928
-0.157136
-7.99921e-05
-0.0306205
-0.011111
0.00408185
-0.060959
-0.0348047
-0.0209392
-0.0219305
-0.0208357
0.00280786
-0.0169649
-0.0425488
-0.0591116
-0.0170588
-0.125589
-0.00418398
-0.0195574
-0.0473318
-0.0830025
-0.0122793
0.00195652
0.00101573
-0.0594849
0.00309554
-0.0123784
-0.00472093
-0.0155626
0.00182198
-0.0117955
-0.0801068
-0.0683965
-0.150626
-0.108877
-0.00147755
-0.0219077
-0.0581818
-0.0572383
-0.0970689
-0.0626502
0.00463816
-0.147362
-0.0299407
-0.0420211
-0.0621267
-0.0228265
0.00197842
-0.0920826
-1.97503e-05
-0.0121277
-0.064548
-0.0761529
-0.0633008
-0.0563507
-0.00861519
-0.0169346
-0.00480047
-0.0581649
-0.0913854
-0.00613635
-0.0570649
-0.0182387
-0.0132551
-0.0106461
-0.0478164
-0.0505335
-0.0106137
-0.0128412
-0.0273237
-0.00331637
0.00389186
-0.0221576
0.00237088
-0.00889061
0.0339493
-0.0409104
0.00274836
-0.0120875
-0.0138952
-0.00557863
-0.0672557
-0.0581952
-0.000532428
-0.00099367
-0.0108319
-0.0312921
0.00280422
0.00207714
-0.016057
0.00226763
-0.0259742
0.000623797
0.00205125
-0.00575505
-0.0452675
-0.0105587
-0.0631101
-0.013558
-0.00615291
-0.0590842
-0.0178966
-0.0302087
0.00238124
-0.0134159
-0.00344114
-0.0103531
0.00118556
-0.0203225
-0.010373
-0.0642381
0.000258435
-0.0151917
-0.0162019
0.0014703
-0.00405739
-0.0344426
-0.000399031
-0.0467076
-0.0961335
0.00934432
-0.0179393
-0.0104154
-0.0137665
0.000734838
-0.0166922
-0.00367391
0.0128707
-0.0326429
0.00339409
-0.0410191
-0.0673248
0.000938353
-0.00258217
-0.000835242
-0.0327558
-0.0654108
0.000594436
-0.0419365
-0.0613392
0.00642673
0.0024989
-0.0671479
0.00127502
0.00134258
0.00176858
0.00131525
0.00186035
0.00221251
0.00436799
-0.0319111
-0.000633178
-0.0221511
0.00309133
0.0131413
0.0130406
-0.039147
-0.0743884
-0.0971617
-0.0382858
-0.0642203
-0.0513533
-0.0551997
-0.00723729
-0.0217446
0.00208788
0.00889468
-0.000554446
-0.0180791
-0.067712
0.00174331
0.00135462
0.00475453
0.00158149
0.00200818
-0.0104983
0.00323542
0.00200038
0.00247092
-0.113469
-0.0363415
-0.0322074
-0.00905641
0.00189152
-0.0513742
-0.0648789
-0.0620411
-0.0322763
-0.0616971
-0.000332284
-0.0642569
-0.0613127
0.004774
-0.00312817
-0.00915852
0.000116531
-0.00117944
-0.00105217
-0.000246851
-0.0178495
-0.0652449
-0.047719
-0.0591812
0.00487305
-0.048625
-0.0651583
-0.00929131
0.00179335
0.00264063
0.00179129
-0.0211462
-0.00333486
-0.0601449
-0.0278461
-0.0593325
-0.0354925
-0.114113
-0.0360639
-0.0600869
-0.0620912
-0.00413626
0.00217134
0.000548351
-0.00760703
0.00184809
-0.0193768
-0.0630817
-0.0599805
-0.0106896
-0.012078
0.00310292
-0.0150271
-0.0546176
0.00201218
0.0027233
-0.0463716
0.000203691
-0.015213
-0.0135906
-0.0566395
-0.017708
-0.0598783
-0.0575978
0.000198473
-0.0580661
-0.0482119
-0.0584829
0.00135758
-0.00824431
0.00114099
-0.0120607
-0.0144483
0.00144987
-0.116358
0.00262699
0.000681063
-0.0126737
-0.0607681
-0.0429192
-0.0444915
-0.0307932
0.00172475
0.00622318
-0.134018
-2.43874e-05
0.00209159
0.00355446
-0.00616733
0.00533405
0.0022811
0.00218925
-0.061929
-0.0612432
-0.0589112
-0.00242477
-0.0363234
-0.12494
-0.0595472
-0.0618789
-0.0362882
0.00126724
0.00117387
0.000632485
-0.00443883
-0.0590413
-0.0584017
0.00180569
-0.110654
-0.0619031
-0.0461544
0.00336844
-0.00956205
-0.0233316
-0.0436899
-0.0625834
0.0404187
-0.0610964
0.000563546
-0.0375057
-0.0382689
0.00212901
-0.0629001
-0.0108112
-0.06137
-0.134417
-0.00200805
-0.0583589
-0.00311436
0.0015852
-0.131944
-0.0604087
-0.0598912
-0.0144817
-0.0726027
-0.0651281
-0.061198
-0.0600345
-0.0657549
-0.053473
-0.0238156
-0.0118365
0.00424822
-0.0433102
-0.0579394
-0.00192747
-0.0591252
0.00138308
-0.0335144
0.0129558
0.00146073
-0.0542239
-0.0114401
-0.0555967
-0.0622307
-0.0115838
-0.055723
-0.0656399
-0.0610819
-0.0232718
-0.0464654
0.000156525
0.0014288
-0.0593803
0.00255821
0.00216875
-0.0374027
-0.0227013
-0.0595893
-0.0266693
-0.00707365
-0.0197499
0.00219423
-0.0575472
-0.0118714
-0.0544438
0.000327535
0.00119184
-0.0626769
-0.0396463
0.00342271
-0.130887
-0.050589
-0.0109895
-0.013685
-0.017741
-0.0615111
0.00435154
0.00181377
-0.0657268
-0.0125932
-0.0601647
-0.0597815
-0.0476792
-0.0141149
0.00512056
-0.0136835
-0.0674111
-0.0353079
0.00124868
-0.0600052
-0.0573922
-0.000754693
0.00200766
-0.0361502
-0.00986941
-0.0686699
-0.0396957
0.00293272
-0.154434
-0.0569171
-0.0249303
0.0016388
-0.0605939
-0.0574994
-0.0982306
-0.0125141
0.00179957
-0.0405968
-0.00776933
-0.0172971
0.00122372
-0.0172656
0.00218309
0.0369266
0.0012291
0.0033334
-0.0372097
-0.0569146
-0.0610693
0.0105851
-0.0486603
-0.0605967
0.000774384
-0.0597368
-0.0595992
-0.0582435
0.00173397
-0.0390864
-0.0571651
-0.0813677
-0.0603876
-0.0312501
-0.031684
-0.0619852
-0.0578099
-0.0464824
0.00137707
-0.0445247
-0.0559415
-0.010568
-0.0562921
-0.131705
0.000689808
-0.08657
-0.067465
-0.00608698
0.0011788
0.00620734
-0.0107488
-0.028798
0.00202019
0.0016328
-0.0648817
-0.0604209
0.00419397
-0.0411279
0.00141863
-0.0134868
-0.0989098
-0.0593039
-0.100692
-0.0421516
-0.0589828
0.00326037
0.00181187
-0.0345058
-0.0632129
-0.0671461
-0.0356872
-0.0600439
-0.0222425
0.00182742
-0.0106257
-0.0222636
-0.0351374
-0.138889
-0.0619254
-0.0185072
-0.0555675
-0.071968
0.00369523
-0.0316082
-0.0127632
-0.0266948
0.0120839
-0.0127054
0.0021193
-0.0247308
-0.0256664
-0.00393681
-0.0592223
0.00203696
-0.056008
-0.0199767
-0.0179202
-0.0729072
-0.0421324
-0.0607072
0.00206565
-0.0631902
-0.0594907
-0.0593806
-0.0638913
0.00566892
-0.0213432
-0.0649713
-0.0623976
0.00197202
-0.0239884
0.0018408
0.00222078
-0.00961667
-0.0281251
-0.0637934
-0.0608673
-0.0197441
-0.079672
-0.0277476
0.00180101
-0.000596347
-0.0113936
-0.00213374
-0.0396329
-0.0619803
-0.0620988
-0.0610738
0.0009461
-0.00380955
-0.0254162
0.00102137
-0.0611244
0.0161276
0.00190128
-0.0320562
-0.0427836
0.0138392
-0.0588115
-0.0360212
-0.100762
-0.013022
-0.0876166
-0.05119
-0.0596431
-0.0128678
0.00312474
-0.0229432
-0.0121024
-0.0387881
-0.100389
-0.0257462
-0.0440557
-0.0474371
-0.0465111
-0.0253901
0.00132775
0.0059075
-0.00181376
-0.0649235
0.00107451
-0.0252732
-0.0202357
-0.0214387
-0.0143195
-0.13976
-0.0583279
-0.00515227
-0.00968215
-0.0324421
-0.00125374
0.00347923
-0.0404999
-0.0372221
-0.00131717
-0.0870165
-0.0108792
-0.0594905
-0.0130357
0.00261845
-0.00861122
-0.0590263
3.88366e-05
-0.06367
-0.0193543
-0.0232438
0.00840863
-0.05783
-0.00729405
-0.0620798
-0.0178409
-0.00295958
-0.0557726
0.00226328
-0.0616969
-0.0147254
-0.0022148
0.00169398
0.0010116
-0.0330967
-0.0122198
-0.0554916
-0.053998
-0.0133126
0.00187012
-0.0051364
-0.152828
0.0261931
-0.0393472
0.000954019
-0.00930747
-0.038444
-0.0568391
0.0103045
-0.0572488
0.00450404
0.00187292
-0.00906748
0.0032492
0.00220817
-0.00473373
-0.0631198
-0.000277982
-0.0398017
0.00412351
-0.0566834
-0.0617254
-0.0347047
-0.0113777
-0.0559575
-0.0591946
-0.0833586
0.00485053
-0.0222361
-0.0553282
-0.0274847
0.00398088
-0.048852
-0.0613598
-0.0149318
-0.00181506
-0.0643318
-0.0336428
0.0442865
-0.0089682
-0.0388368
0.00236392
-0.0108687
-0.054063
-0.0143202
-0.0196495
-0.000722501
-0.000962147
0.00493501
-0.0671498
-0.000117223
0.00896453
-0.0563265
0.00181437
0.00265088
-0.0628511
-0.0358959
-0.0445583
-0.0115142
-0.0228622
-0.00288971
0.00175201
0.000323279
-0.0698276
-0.0236696
-0.0619454
-0.058579
-0.0299342
-0.0646652
-0.0304068
-0.0358687
-0.00141414
-0.0234193
-0.045051
-0.0266287
0.00191388
-0.0401307
-0.00368667
-0.0178341
-0.0256374
0.00420406
0.00173309
0.00603136
-0.00955247
0.0155509
-0.0415527
-0.0370883
0.00220763
-0.0349902
-0.0386222
-0.0432046
-0.0308071
-0.0584748
-0.0323639
-0.0599718
0.000656309
-0.0459119
-0.0360713
-0.00532237
-0.0222753
-0.0386615
-0.0401289
0.0133044
0.00287385
-0.0423408
-0.0584391
-0.0342578
0.00353924
0.00490383
-0.0344351
0.00311361
0.0328134
0.00224705
0.00160301
0.0173349
0.0028327
-0.0251815
0.0167455
-0.0607333
-0.0431362
-0.0609554
-0.000805914
0.00789095
-0.0122705
-0.028193
-0.0119728
-0.0170727
-0.0344092
0.0207122
-0.000476941
-0.0888165
-0.0240119
-0.0606408
0.00216388
-0.000803455
-0.0393156
-0.0623796
-0.0201433
-0.0462351
-0.0240648
-0.0383244
0.000730222
-0.00152238
-0.166514
-0.0627118
0.00890176
-0.0093642
-0.0212054
-0.007014
0.00094347
-0.0588029
0.00190862
-0.0943155
-0.0518964
-0.0519242
0.0142035
0.00214888
0.0128113
-0.0547798
-0.0372137
-0.00386884
-0.00195965
-0.0222762
-0.000126086
0.00361048
0.0134423
-0.0568696
-0.00337594
-0.00311573
-0.0464336
-0.0372187
-0.0198853
0.00632217
-0.00586415
0.00203515
-0.00782323
-0.0612853
0.00156369
-0.0225079
-0.059272
-0.0500367
-0.0396187
0.0394155
0.0455965
-0.0614907
-0.0453416
0.00420708
-0.0172622
-0.0225258
-0.0117803
-0.0413788
-0.0118751
-0.00155521
-0.132718
-0.0197647
0.00133042
0.00155618
0.0145701
-0.00545659
0.00219404
0.00181992
-0.0303271
-0.00472477
-0.0112826
-0.00123406
-0.0363314
-0.0540068