/*--------------------------------*- C++ -*----------------------------------*\
| =========                 |                                                 |
| \\      /  F ield         | OpenFOAM: The Open Source CFD Toolbox           |
|  \\    /   O peration     | Version:  v2012                                 |
|   \\  /    A nd           | Website:  www.openfoam.com                      |
|    \\/     M anipulation  |                                                 |
\*---------------------------------------------------------------------------*/
FoamFile
{
    version     2.0;
    format      ascii;
    class       surfaceScalarField;
    location    "200";
    object      phi;
}
// * * * * * * * * * * * * * * * * * * * * * * * * * * * * * * * * * * * * * //

dimensions      [0 3 -1 0 0 0 0];
oriented        oriented;


internalField   nonuniform List<scalar> 
20537
(
-0.37706
0.506755
-0.129695
-0.162607
-0.0456556
0.208262
-0.18851
0.166871
0.0216392
-0.0202098
-0.301616
0.321825
-0.148665
0.163747
-0.015082
0.287472
-0.480833
0.193361
0.198023
0.2018
-0.399823
0.245772
-0.0898753
-0.155897
-0.455226
-0.0941746
0.5494
-0.0233901
0.203022
-0.179632
0.541383
-0.12667
-0.414714
0.0696594
-0.132621
0.0629619
0.0875875
0.0133359
-0.100923
-0.039244
0.00903498
0.030209
0.676518
-0.545775
-0.130743
0.276386
-0.28589
0.00950439
-0.0469739
0.282681
-0.235707
0.441994
-0.251022
-0.190972
-0.139567
0.143828
-0.00426094
0.0826332
-0.537859
0.346325
-0.366535
-0.0810363
-0.107474
-0.363989
0.584525
-0.220536
-0.690025
0.0984536
0.591571
-0.54952
0.185531
0.2169
0.0288725
-0.0874377
-0.180928
0.268366
-0.00559929
-0.00182927
0.00639475
-0.383455
0.227301
-0.351948
0.124647
0.484212
-0.196741
0.230708
-0.277682
-0.0225357
0.189406
0.510937
-0.43655
-0.0743867
-0.601852
-0.088173
0.114444
-0.129504
0.0150596
-0.000976489
0.0912669
-0.0902905
0.20901
-0.130476
-0.0785339
0.145554
-0.168944
0.15626
0.354677
0.0443449
0.337166
-0.38151
0.488738
-0.663368
0.174631
-5.90268e-05
-0.0022007
0.00225973
0.389359
-0.529937
0.140577
0.528399
-0.13904
0.00758761
-0.00507275
-0.00251485
-0.527787
0.12357
0.404217
0.0972894
-0.440463
0.343173
0.172903
-0.26034
0.33638
0.231099
-0.567479
0.16397
-0.0187709
-0.145199
0.146757
-0.075861
-0.0708964
0.00237652
-0.00899359
0.00661708
-0.734825
0.374339
0.360486
0.655578
-0.536245
-0.119333
0.662421
-0.173683
0.652348
-0.295658
-0.356691
-0.00525332
-0.00700329
0.0122566
-0.183042
0.410343
0.283992
0.0959019
-0.379894
0.049206
0.159804
0.0559665
-0.0538211
-0.00214545
-0.40188
0.306933
0.0949472
-0.142922
0.129243
0.0136792
-0.168541
0.317609
-0.149068
-0.44598
0.1455
0.30048
0.0713221
-0.0722985
-0.564308
0.14968
-0.214094
0.216177
-0.00208226
0.195755
0.246238
0.013882
-0.0170326
0.00315062
0.0884564
-0.0782768
-0.0101796
0.066183
-0.22879
-0.292202
-0.442622
0.281338
-0.58527
0.303932
-0.527589
0.433031
0.0945571
-0.137563
0.0565271
-0.0246678
0.000722459
0.0239453
-0.00152401
-0.174926
0.17645
0.0162914
-0.00128122
-0.171767
0.432152
-0.260385
0.471409
0.0364888
-0.507898
-0.434041
-0.0510711
0.485113
0.0042434
-0.0103235
0.0060801
-0.331304
-0.0705765
0.126232
-0.0565722
0.488765
-0.168167
-0.320599
0.0455654
0.126727
-0.172292
-0.262232
0.323327
-0.061095
-0.35832
-0.248489
0.606809
0.0208672
0.0935773
-0.0906243
-0.306257
0.396882
-0.293496
-0.0909294
0.251633
-0.160703
-0.0285266
-0.233705
0.562932
-0.551137
-0.0117951
0.0292365
-0.177901
0.00639519
0.0335412
-0.0399363
-0.184354
0.520734
-0.02458
0.587512
0.0050754
-0.0151081
0.0100327
0.176012
-0.173527
-0.00248518
0.075028
-0.381468
0.306439
0.267579
-0.0175864
-0.457148
-0.09923
0.556378
-0.509909
0.403486
0.106423
-0.181491
0.178298
0.00319329
0.523497
-0.68161
0.158114
0.0671705
0.0106642
-0.183916
-0.296916
-0.540574
-0.019391
0.559965
0.27347
-0.63179
0.303549
-0.394174
-0.651258
0.651258
-0.0720473
-0.468527
0.355002
-0.00533302
-0.0505741
0.0569693
0.072468
-0.471664
0.399196
-0.57322
0.575125
-0.0019048
-0.192609
0.562303
-0.369694
-0.00111605
0.00105703
0.236494
0.0310849
0.0921485
-0.00456095
0.231174
0.415241
-0.317951
-0.770541
0.345594
0.424948
0.12625
0.288991
0.158848
-0.188505
0.029657
0.0313518
0.314974
0.171791
-0.0818967
-0.0898943
0.424589
-0.380244
0.55573
-0.161608
-0.394122
0.018444
-0.00456204
-0.551795
0.117754
0.344885
-0.571766
0.606413
-0.0346463
0.555086
-0.482618
-0.0719274
0.0899945
-0.0180671
0.0259194
-0.0221831
-0.00373632
-0.0146426
-0.0237633
0.0384058
-0.00265427
0.00772966
0.376847
0.278731
0.163285
-0.560405
0.397121
0.717547
-0.382429
-0.335117
0.411032
-0.0840529
-0.32698
-0.0943763
-0.43556
-0.452664
0.623316
-0.170652
0.0405887
0.131202
-0.267703
0.465726
0.134127
0.394272
-0.00231485
0.130379
-0.422515
0.615523
-0.193008
-0.00326546
-0.0359786
0.309713
0.342636
0.364068
-0.207852
-0.156216
0.303773
0.107259
-0.496462
0.187799
0.308664
0.233491
0.128169
-0.361661
0.0146659
0.132092
0.00336646
0.160603
-0.352442
-0.246779
0.599221
-0.0766364
0.225992
-0.149356
0.00534036
-0.0105937
0.164227
0.391503
0.270403
-0.370087
0.0996843
0.640258
-0.229942
-0.410315
-0.692138
0.239474
0.00477258
-0.218867
-0.318024
0.349375
0.0330118
0.0038033
-0.0368151
0.000304937
-0.0249727
0.24037
-0.544759
0.304389
-0.174078
-0.322384
0.0208394
-0.035482
0.565404
-0.401177
-0.119178
-0.321284
0.184326
-0.0254779
0.532799
-0.509327
-0.0234717
-0.0237151
-0.115852
-0.518917
0.666675
-0.147758
-0.269975
0.055353
0.214622
0.016529
-0.130094
-0.362193
0.492288
0.0522535
-0.159727
-0.362724
-0.235231
0.597955
-0.448467
0.614413
-0.165946
-0.172331
-0.27365
0.35655
-0.549159
-0.169245
0.161018
0.0082274
0.218417
0.0145105
-0.232928
-0.378107
0.0101341
-0.00775755
0.265043
-0.541672
0.276629
0.186713
-0.210789
0.024076
0.0540129
0.00195359
0.400871
-0.178568
-0.222303
0.538786
-0.375502
-0.190501
0.534517
-0.344016
0.459882
0.0729166
-0.42813
-0.0994586
-0.302367
-0.468174
0.00379097
0.00998285
-0.0137738
-0.580072
0.0841276
0.495944
-0.539697
0.146551
0.393146
-0.0169338
0.210053
-0.193119
-0.492352
0.362257
-0.0301133
-0.0349565
0.0650698
0.149187
0.140059
-0.289246
0.0287653
-0.00157017
-0.0271951
0.128406
0.442167
-0.570573
-0.0161782
-0.0338842
0.0500624
-0.354054
0.429082
-0.515405
0.182292
0.333113
0.451447
-0.634896
0.18345
-0.718912
0.429813
0.289099
0.59498
-0.231297
-0.363683
-0.147699
0.405413
-0.257714
0.0092626
-0.001675
-0.108747
-0.410247
0.518994
0.0310728
-0.00230749
0.265288
-0.116101
0.194187
-0.365954
-0.0045297
0.0482738
-0.0437441
-0.0656218
0.144172
-0.0785504
-0.00057736
0.0351749
-0.0345975
-0.598749
0.580097
0.0186526
-0.0472312
-0.191216
0.238447
-0.52608
0.0689313
0.00251926
-0.00867781
0.00615856
0.672499
-0.221053
0.220921
-0.00402127
0.382069
-0.311944
-0.0701249
-0.284687
0.525058
0.538513
-0.15561
0.146598
0.00901174
-0.0661218
-0.250701
0.316823
0.0368582
-0.0669714
0.0801907
-0.248732
0.280314
0.437233
-0.455493
-0.0842038
0.146732
0.33748
0.426096
-0.503484
0.077388
0.574684
0.0577769
-0.632461
-0.187593
0.17066
0.45641
-0.55564
0.0281338
0.00472319
-0.032857
0.194657
-0.0186454
0.521387
-0.344471
-0.176916
-0.39525
0.293539
0.101711
-0.222462
-0.123532
0.345994
0.661929
-0.392135
-0.269794
0.495617
-0.069521
-0.24569
-0.107258
0.352948
-0.091477
-0.0310822
-0.120371
0.151453
0.37527
-0.130239
-0.245031
0.245898
-0.027481
0.0100688
0.0799257
0.00653131
-0.0173048
0.0107735
-0.189411
-0.347158
0.53657
-0.438598
-0.446763
0.350298
0.0964656
0.360523
-0.023081
-0.337442
-0.629349
0.207499
0.42185
-0.128256
0.109055
0.0192009
0.188404
0.212467
-0.367211
0.121521
-0.207155
0.116225
0.0489849
-0.0535146
0.401153
0.150592
-0.551745
0.293554
0.368375
0.1855
0.480723
-0.0985786
-0.382145
0.177224
-0.178748
0.253802
0.0225836
-0.534117
0.372509
0.601325
-0.129916
0.599932
-0.199922
-0.40001
-0.00178411
0.0359555
-0.0341714
0.0883509
0.453032
0.0244776
0.550206
0.0804524
-0.557965
0.477513
-0.502845
0.599225
-0.0963802
-0.151414
0.120331
-0.09091
0.451433
0.39144
-0.303542
-0.0878981
0.0335848
0.453645
-0.48723
-0.383155
0.497961
-0.114806
0.0708749
0.409848
-0.662865
0.299705
0.36316
0.145602
-0.105013
0.149354
-0.332395
-0.104863
0.388855
-0.219332
0.217099
0.00223289
-0.425769
-0.237096
-0.0330615
-0.0951946
0.0695969
0.170468
-0.240065
0.121266
0.00496539
0.434187
-0.569827
0.13564
0.0353939
-0.00726009
0.10658
-0.183216
0.0792628
0.203418
-0.0139362
-0.0273566
0.0412928
-0.142137
0.366363
-0.224225
-0.366518
-0.143391
-0.0407307
0.0386397
0.00209098
0.480689
-0.447105
-0.0151443
-0.145817
0.160962
0.226758
0.0248747
-0.223418
0.372772
0.026201
-0.000281625
0.221188
-0.151591
0.386119
-0.361664
-0.0244542
0.0458698
-0.0579762
0.0121064
0.65091
-0.257696
-0.393214
0.056005
-0.278467
0.732352
-0.365705
-0.366647
-0.046667
0.0448829
0.125306
-0.0150607
-0.110245
-0.50844
0.399694
-0.191231
0.0465444
0.144686
-0.262244
0.490706
-0.228462
0.0287976
-0.0222663
0.0115371
0.4459
-0.457438
-0.454741
0.643269
-0.188528
0.609552
-0.249557
-0.359995
0.125758
-0.000452435
0.199476
-0.246707
-0.323658
0.0733029
0.250355
0.108257
-0.369445
0.227307
0.327293
0.0588254
0.449726
-0.576396
0.0415153
-0.017069
-0.0359754
-0.00406684
0.0400422
0.0788396
-0.382401
0.303561
0.0400093
-0.0539455
0.0129902
-0.0903754
0.0773853
0.384315
-0.0193928
0.206106
0.127601
0.0180008
0.535656
-0.324456
-0.211201
0.0326907
0.229768
-0.262459
0.000454267
0.113597
-0.114052
0.110767
-0.236676
0.513562
-0.276886
0.252204
0.0958926
-0.348097
-0.00714937
-0.0323384
0.0394878
0.0394767
-0.585251
0.676796
-0.0828691
-0.593927
0.189248
0.487548
0.195985
-0.0505566
-0.145429
-0.109589
-0.214069
-0.222136
0.254827
0.00943648
-0.00691722
-0.493198
0.319119
-0.124138
0.376342
0.357917
0.251635
-0.501565
0.239321
-0.112893
0.569304
-0.054759
0.578256
-0.183117
0.552201
-0.369085
0.0367784
-0.0439277
0.683897
-0.292483
-0.391414
0.315544
-0.44263
0.127086
0.178852
-0.193997
-0.653946
0.358782
0.295164
0.10986
0.0114058
-0.297044
0.233314
0.0637296
0.141631
-0.352354
0.0395021
-0.00649029
-0.119536
0.435081
-0.25204
0.104342
-0.0308481
-0.197177
0.228025
-0.28658
0.428212
0.0865191
-0.446804
0.360285
0.159051
-0.630715
0.194126
0.218691
-0.412817
-0.019514
-0.0020988
0.0216129
0.637888
0.0222262
0.00397477
0.229399
-0.102492
0.102946
-0.0288704
0.0326737
-0.710953
0.205735
0.505218
-0.198811
-0.512142
-0.017613
-0.339279
0.356892
0.631418
-0.154526
-0.476892
0.515374
-0.529273
0.0138989
0.387666
-0.308827
-0.0866496
-0.104581
0.0348853
-0.0258503
-0.256015
0.217008
0.0390071
-0.0444826
0.0439052
0.0441416
-0.0101798
-0.0339618
-0.397379
-0.256567
0.232769
-0.422181
0.00352666
0.00432278
-0.0176771
0.0133544
0.101525
0.280544
-0.0483242
-0.00224985
0.439652
-0.245526
-0.215452
0.184604
0.500904
-0.534428
0.0335243
-0.0955726
0.108563
-0.435641
0.515872
-0.0802315
-0.10903
-0.17686
0.367994
-0.385607
-0.447806
0.341346
0.10646
0.0535334
0.0942672
0.386422
0.318384
0.321874
-0.122885
-0.0200375
0.234072
0.0727239
-0.306796
-0.0133008
-0.0136739
0.0269747
0.351171
0.00941263
-0.360584
-0.134947
-0.442879
0.0182846
0.424594
0.36214
0.133477
-0.328872
0.091024
0.237848
0.183836
0.0121492
0.286234
-0.206972
0.200899
0.394081
0.122288
0.432799
0.495111
-0.400844
0.0932899
-0.541757
0.148606
-0.164706
0.0160999
0.00446314
-0.441237
0.436774
0.127649
-0.119334
-0.00831564
-0.0498327
-0.393046
0.0154969
-0.295714
-0.140837
0.122247
0.139788
-0.0602922
-0.0953174
0.443965
-0.357446
0.438708
-0.0765683
0.659634
-0.499542
-0.160092
-0.182494
0.00418588
0.178309
-0.178511
0.452431
-0.273921
0.00934481
0.176175
-0.18552
-0.0216948
-0.00385831
0.0255531
0.5883
-0.128418
-0.644995
0.235677
0.409318
-0.51561
0.337099
0.0333103
-0.0268586
0.30585
-0.668574
-0.228276
0.224369
0.00390673
0.00939944
0.545084
-0.143932
-0.486801
0.542945
-0.0561437
-0.402701
0.10537
0.297331
0.131669
0.0263815
-0.102242
0.0740757
-0.362973
0.288898
0.0631098
-0.0888175
0.0257078
-0.54609
-0.0526589
-0.562495
0.312938
0.00280265
-0.00590435
0.0031017
-0.0762921
0.346695
-0.457203
0.537655
0.139896
-0.0943311
0.463819
0.1676
0.205139
-0.156762
-0.376232
0.532994
0.117563
0.183397
-0.300961
-0.125504
-0.244058
0.369562
-0.429559
0.459622
0.128678
-0.0133773
0.0592471
0.379419
-0.43049
0.204003
-0.197746
-0.00625729
-0.0790784
-0.492688
0.268165
-0.382933
0.114768
-0.632001
0.233064
0.398937
0.562558
-0.562558
0.517036
-0.156117
-0.36092
-0.552804
0.134281
0.516977
-0.0759115
0.411938
-0.336026
0.260016
0.108988
-0.369004
0.345946
-0.514112
0.116156
-0.47835
-0.166208
0.667112
0.018621
-0.0157758
-0.00284523
0.00214186
-0.0238367
0.141252
0.321528
-0.46278
0.40093
-0.132765
-0.286052
-0.0428202
-0.334972
-0.168512
-0.00393396
0.00817737
-0.363646
-0.198849
0.238639
0.445257
-0.0750933
-0.371711
-0.15565
0.00398296
0.151667
-0.333389
-0.0653832
0.398772
-0.00692517
-0.00263618
0.00956136
-0.133131
0.544661
-0.411531
-0.00971659
0.000722992
-0.222863
0.231906
-0.00904312
-0.213281
-0.450087
0.224855
0.176075
0.0430417
-0.0182673
-0.0247744
0.209412
0.0115089
-0.366835
0.484182
-0.117347
-0.518503
-0.0547176
0.280996
-0.496059
0.215063
-0.571975
0.0357301
-0.168979
0.577381
-0.408402
-0.578301
0.187375
0.390927
-0.448845
0.338307
0.110538
0.0214452
-0.0171224
-0.15757
0.156196
0.00137436
0.12748
-0.0184282
-0.109052
0.0954221
-0.0889998
-0.00642225
0.0741088
0.326082
-0.678524
-0.0845985
-0.00937357
0.093972
0.454668
-0.450205
-0.0570504
-0.212925
0.00504505
0.220947
-0.531212
0.196241
-0.265619
0.496794
-0.0636354
0.0474572
-0.516399
-0.00991525
0.526315
-0.0131565
0.00623133
-0.00900671
0.00281922
0.000971746
-0.148899
-0.135886
0.360742
0.526597
-0.307874
-0.445744
-0.199251
0.295406
0.0798639
0.315844
-0.506345
-0.176854
0.0188135
0.15804
0.3537
-0.120209
-0.140458
-0.036396
0.075492
-0.00780749
-0.0676846
-0.536995
0.403864
0.154188
-0.154204
0.00282671
-0.021091
0.0182643
0.378137
-0.0845977
0.333625
0.171534
-0.505159
-0.354129
0.541928
0.336911
0.120204
-0.457115
-0.0136814
-0.155564
0.245332
0.0617527
-0.307085
-0.0309258
0.157652
0.0888028
-0.0256931
-0.437159
0.595619
-0.15846
-0.00119773
0.00400038
0.0018119
-0.0273519
0.02554
0.503917
-0.430536
-0.0733811
0.0533112
0.401356
0.208776
0.578828
-0.478043
-0.100785
0.400937
0.471039
0.0853452
-0.556385
-0.0915585
0.00696002
-0.225396
0.0175444
0.120077
-0.119929
-0.00014858
-0.086552
0.10298
-0.0164276
0.211536
0.450885
-0.376665
0.445301
-0.0686367
-0.201548
0.450027
-0.248479
-0.219887
0.16933
-0.141848
0.146149
-0.00430095
0.00195756
0.0194876
-0.00673019
0.073685
-0.0669548
0.349496
-0.107478
-0.340328
-0.116736
0.0970294
0.0197071
0.00341093
-0.0975148
-0.00989545
0.10741
-0.118764
-0.137251
0.383553
-0.0766198
-0.573676
0.314202
0.195184
-0.509386
-0.163681
0.693754
-0.482218
0.285266
0.0928705
0.181947
0.484728
-0.160558
-0.395167
0.555725
0.0773113
-0.00181925
0.158479
-0.467754
0.417921
0.294851
0.398904
0.0314762
-0.00925
0.409056
0.125461
0.630505
-0.183672
-0.446833
-0.414931
0.563466
-0.148534
-0.0921551
-0.537194
0.55485
-0.0140043
-0.00550973
0.338167
0.18322
-0.177238
0.00279377
2.54519e-05
0.510222
-0.229227
-0.0497837
-0.164008
0.213792
-0.0159792
0.018806
-0.0202569
0.0186867
0.146198
-0.382874
0.0215111
0.194665
0.0603719
0.518456
0.429985
-0.233621
0.0155603
0.218061
0.00783065
-0.0684318
0.0606011
-0.278954
0.374847
0.000520444
0.119557
-0.27523
0.0360181
0.239211
0.0810232
-0.477341
0.396318
-0.312216
0.240985
0.0712312
0.130518
-0.523988
0.39347
0.110429
-0.477263
0.134945
-0.143339
0.00839396
-0.371474
0.48763
-0.3087
-0.0737009
0.0225689
-0.50937
0.146844
-0.226787
0.0799437
0.11733
0.0103195
0.410854
-0.314952
0.103631
0.340335
-0.111883
-0.185161
0.0622864
-0.317437
0.25515
0.150065
0.159041
-0.0104346
0.0419958
-0.107618
-0.300526
0.070266
0.23026
0.0116023
-0.109117
0.470045
-0.389022
0.100066
-0.384635
0.284569
-0.380598
-0.00198269
0.00477646
0.133611
-0.487666
-0.632186
0.290142
0.342044
-0.00282516
0.0699956
-0.208525
0.423771
-0.215246
-0.00340199
-0.0254684
0.0316425
-0.035539
0.00389648
-0.00778066
-0.00374774
0.0115284
0.031018
0.108879
0.0807521
-0.516393
-0.081102
-0.462315
0.486792
0.339341
-0.536582
0.197241
0.122925
0.421736
0.380519
-0.541077
-0.615987
0.274445
0.341542
-0.0259764
0.377148
-0.223854
0.341417
0.701523
-0.406673
-0.107175
-0.00119357
0.108368
0.0230349
-0.000172697
-0.107002
0.160223
-0.542989
0.382766
0.137908
-0.557664
0.419756
0.626347
-0.145308
-0.481039
0.00461219
0.122989
0.00366219
-0.0613513
0.0576891
0.110085
-0.151054
0.0409694
-0.060311
0.128182
-0.590497
-0.451703
-0.0827248
-0.135384
-0.453443
0.588827
-0.255525
0.425271
-0.169746
0.0592188
-0.0844943
0.0252755
0.0607972
-0.0481206
-0.0126767
-0.252968
0.315255
0.240416
0.461107
-0.136698
-0.312147
-0.469962
0.214437
0.183312
-0.179039
-0.00427294
-0.00373858
0.0109048
-0.00716624
-0.0584138
0.0416299
-0.0571227
0.0154928
-0.269555
-0.226504
0.45671
-0.353079
0.134214
-0.00673412
0.0312115
-0.197821
-0.0136889
-0.118932
0.116584
0.315568
-0.251008
0.151053
-0.0409683
0.35971
0.498136
-0.3511
0.190568
0.387991
0.271643
0.131026
0.0528708
0.0251255
-0.0289838
0.15202
-0.544426
0.392406
0.389897
-0.112801
-0.277096
0.302495
0.081058
-0.567173
0.398193
0.286062
-0.350424
0.421299
-0.0382851
0.0299849
0.00830017
-0.0029138
0.137859
0.125399
-0.0163436
-0.348256
0.553991
-0.452949
0.55978
-0.399557
0.0103255
0.00829553
-0.0996728
0.0131208
-0.308106
0.241984
-0.00694635
0.0385888
0.165106
-0.58495
0.419845
-0.00863494
-0.483023
0.491658
-0.414707
0.295736
0.214486
0.077638
0.00766385
-0.0853019
0.340936
-0.113165
-0.227771
-0.417217
0.0958311
0.321386
-0.23389
-0.398111
0.0721342
0.219691
-0.291825
0.409603
0.216744
-0.0024665
-0.00107112
0.00353762
0.132278
-0.262517
0.0325605
-0.0314029
-0.00115754
0.437629
0.0883471
-0.341316
-0.00116613
0.0203531
-0.019187
-0.00990381
-0.000637317
0.0105411
-0.0747387
0.0956058
-0.38057
0.511088
0.057883
-0.0677991
0.00991613
-0.189538
0.604915
-0.404015
-0.0225769
0.174722
-0.152145
0.188168
-0.178823
-0.133272
0.321319
-0.188048
0.00148194
0.575477
-0.229122
-0.346355
-0.590553
0.370989
0.219564
-0.013001
0.104268
-0.147894
-0.484292
-0.580072
-0.362132
0.236628
0.119598
0.350448
0.00316415
-0.00563065
-0.207071
0.0432234
0.163848
-0.115467
-0.351694
-0.11606
0.39486
-0.594782
-0.394708
-0.373505
0.565563
-0.0599212
-0.505642
0.236198
-0.406218
0.529144
-0.124257
-0.352667
0.476924
-0.61603
0.243992
0.372038
-0.00285108
0.0414908
-0.537246
-0.518684
0.0165652
0.502118
-0.11106
0.395456
-0.284396
-0.440405
0.332926
0.021397
-0.0225631
-0.545923
0.0034535
0.54247
0.522755
-0.378194
-0.144561
0.0820178
0.0411222
-0.12314
0.00912901
0.174183
-0.232675
0.548969
-0.316294
0.188121
0.339929
-0.52805
0.280141
-0.37872
-0.00881546
0.0504453
-0.107195
-0.0535326
0.00521488
0.0483177
0.191187
-0.0601614
-0.499722
0.34296
0.583368
-0.417822
-0.165546
0.000139196
-0.0023399
-0.234285
0.514427
0.0946048
-0.328694
0.234089
-0.572543
-0.441194
-0.462299
-0.171145
-0.00996455
0.18111
-0.132203
0.257686
-0.125483
-0.194895
0.365363
0.42481
0.158558
-0.498792
-0.0176074
0.385772
0.136983
0.0953423
0.0233263
-0.478699
0.449081
0.0296187
0.00895687
0.152061
-0.369864
-0.299713
0.38806
-0.146693
0.105402
-0.135335
0.0299327
-0.00865226
0.11818
0.222756
-0.0547734
0.0115992
0.0431742
0.00464689
0.0907752
-0.366622
-0.0737825
-0.000822818
-0.0160193
0.0168421
0.359387
-0.259321
-0.0601627
0.0557617
0.00440098
-0.0324095
-0.00587553
-0.0227279
-0.0257352
0.0484632
0.573139
-0.183204
-0.389935
-0.22282
-0.00992712
0.232747
-0.380125
0.301296
0.0863702
-0.0134309
0.00642762
-0.0111463
-0.530043
0.141397
0.388646
0.586373
-0.594764
0.00839174
-0.00384776
0.150446
-0.370089
0.569221
-0.199131
-0.414396
0.561588
-0.147192
-0.00639548
-0.00491069
0.0113062
-0.397669
0.562774
0.342904
-0.452779
0.109875
-0.0027402
0.0211687
-0.00114475
-0.0200239
0.121186
-0.469442
0.479816
-0.140474
-0.497723
-0.00384216
-0.00170492
-0.00819889
0.0844126
-0.0251938
0.109287
-0.119182
-0.18514
-0.301072
0.486212
-0.0461821
0.0421152
-0.0968557
-0.123031
-0.071524
0.0751862
0.0106888
0.167609
0.175887
0.00296536
-0.0754076
0.0687508
-0.40214
-0.160249
0.226432
-0.00678289
0.147887
-0.141104
-0.0102142
-0.00746296
0.49867
-0.0590182
-0.00185893
-0.000682698
-0.00494795
-0.00717604
-0.0529867
0.0224403
-0.0206284
0.319603
0.114881
-0.434483
0.201503
-0.0218744
-0.179629
0.474108
0.156396
-0.059541
0.277307
0.11259
0.106693
-0.0774055
-0.0292879
0.653735
-0.653735
-0.0191448
-0.00728711
0.0264319
-0.538519
0.124122
0.124051
-0.0420336
-0.430832
0.53461
-0.103778
-0.126667
-0.0580975
0.184764
-0.168548
0.196063
0.0054401
-0.0235816
0.0360957
-0.161357
0.125261
-0.1529
0.336298
-0.482541
0.616822
0.0637592
0.272261
0.382257
-0.0503363
-0.331921
-0.370872
0.109809
0.261064
-0.000391467
0.0215601
-0.370784
0.578283
0.649255
-0.410615
-0.43848
0.152229
0.286251
-0.0452681
0.0113839
0.00650474
-0.00224491
0.0236419
0.438708
0.134431
0.102518
0.396152
0.02083
0.388606
-0.409436
0.000680812
0.0318797
0.124453
0.529282
0.320969
-0.326302
0.00112723
-0.0251593
0.0240321
0.384505
-0.558655
0.174149
0.086142
0.195849
-0.281991
-0.1155
0.530109
-0.121053
-0.0431999
0.000630797
0.0425691
-0.270432
0.392859
-0.122427
0.21704
-0.512697
0.0251454
0.141867
-0.167012
0.00595684
0.0251159
0.120843
0.025306
0.321399
-0.226794
0.477042
-0.150346
-0.326696
0.209116
0.440138
0.0097977
-0.00291995
-0.00687775
-0.0147292
0.120131
-0.530909
0.0122251
0.0375873
-0.260408
-0.563758
0.393703
0.170055
0.411475
-0.327348
-0.396584
0.585832
0.0211914
-0.472895
0.163867
-0.161009
-0.00285816
0.24787
0.190838
0.450971
-0.108067
-0.100783
0.378747
-0.233962
-0.0162395
0.0128639
0.00337566
0.0335073
0.00953435
-0.00889887
-0.219377
-0.024839
-0.0299344
0.0453619
-0.476193
0.207052
0.0173174
-0.0773984
0.466004
-0.403926
-0.159832
-0.151026
0.430207
-0.27918
0.337169
0.113803
0.0188717
-0.00195482
-0.0169168
-0.147848
0.469376
0.107811
0.0432417
0.433922
-0.11432
-0.23767
-0.595394
0.00696516
0.000669213
-0.00763437
0.20716
0.367965
-0.0300419
-0.0866946
0.114569
-0.246772
0.0379233
-0.110873
0.0729497
-0.243852
0.0367812
0.199782
-0.00417825
-0.195603
-0.00367828
-0.200604
-0.0261833
-0.318088
0.0673871
0.0930044
-0.241259
0.385097
-0.143838
-0.00580562
-0.00237126
0.00817688
-0.140285
0.177559
-0.0372741
0.583854
0.418644
-0.285033
0.200004
-0.163909
-0.162838
-0.0316007
-0.315073
0.503194
0.00411864
0.0194317
-0.0235503
0.409717
0.150063
-0.158484
0.0283542
0.00653107
-0.189542
0.608661
-0.419119
-0.107232
0.0835167
-0.256804
-0.144115
-0.35838
-0.0957188
-0.491506
-0.00621694
-0.12406
0.510387
-0.386327
0.383799
-0.267214
0.0795092
-0.0925103
-0.408391
-0.150264
0.0651961
0.0192166
0.0025611
0.00723661
0.232191
-0.0190212
-0.21317
0.0303011
-0.000316187
0.410097
-0.0216646
0.587228
0.225826
-0.591531
0.445206
-0.108295
-0.398477
0.135893
-0.111806
-0.0240876
-0.0992342
-0.231101
0.330335
0.337858
-0.513445
0.175587
-0.0918717
-0.325345
0.107434
-0.562175
0.0231627
0.0423207
0.0184765
0.311681
-0.0545631
0.0062389
-0.0112553
-0.079329
0.0905842
0.433635
-0.119432
0.0646515
0.387166
-0.451817
-0.101558
-0.173672
0.143811
-0.0446443
0.481748
-0.437103
0.373347
-0.475536
0.102189
-0.450626
0.361878
0.088748
-0.421015
-0.164255
-0.412691
0.536261
0.444107
0.0860012
-0.0106224
0.0107224
-9.99541e-05
0.406016
0.0940905
-0.500106
0.0145362
0.0776123
-0.214348
0.257571
-0.206676
0.27881
-0.57448
0.45042
0.423165
-0.592465
0.1693
-0.165493
0.0634329
0.10206
0.277536
0.0818515
-0.379453
0.553743
-0.401723
0.351784
0.125605
-0.477388
-0.274291
0.400541
-0.291448
-0.147032
-0.174853
0.632181
-0.423065
-0.128182
-0.0681895
0.196371
-0.00530642
0.104967
-0.0996609
0.260785
-0.438601
0.177816
0.482361
0.104012
-0.0932719
0.445943
-0.352671
0.380621
-0.164528
-0.216093
-0.198987
-0.183946
-0.300545
0.0695321
0.231013
-0.149243
-0.19266
0.0523745
-0.342033
0.242799
0.332821
0.144221
0.0193893
0.0406108
-0.0600001
-0.146232
0.48409
-0.032008
0.0183341
-0.107025
0.0900215
0.0170033
0.0125399
0.308429
0.122229
-0.116631
-0.00559849
0.453897
-0.462532
0.67092
-0.244555
-0.426365
0.124647
0.319957
-0.444603
0.330386
0.147161
-0.477547
0.00270794
-0.425899
0.423191
0.499553
-0.0935371
-0.495371
0.495371
0.168102
0.385641
0.119461
-0.138232
0.569948
-0.144945
-0.425003
0.554516
-0.386414
0.378791
-0.184604
0.210831
-0.200757
-0.0100739
-0.012523
0.090161
-0.0727559
0.334677
-0.260601
-0.143435
-0.472596
0.13702
-0.143802
0.11557
-0.0184529
-0.0971166
-0.088467
0.326306
-0.0194213
0.132399
-0.127676
-0.0047231
0.136106
-0.029398
-0.106708
0.578843
-0.172743
-0.406099
-0.151452
0.00563435
0.474191
-0.140566
0.352864
0.290405
-0.32545
0.450097
0.0228064
-0.0224267
-0.000379701
0.0143903
0.111368
-0.00882341
-0.432413
-0.0640504
0.371025
-0.36461
-0.133032
0.497642
-0.379875
-0.146204
-0.433796
0.123403
0.310393
-0.37116
0.435812
-0.304619
0.122878
0.181741
-0.540076
0.293298
0.19633
0.0145012
0.323684
-0.0896127
-0.0191646
0.0178817
0.00128292
0.00975399
0.552804
0.172537
-0.0835285
-0.0890085
-0.352898
-0.263089
0.0565573
-0.0339711
-0.0225862
0.188025
0.00344942
-0.191474
0.00836806
0.0526326
-0.0610007
0.118622
-0.02328
0.00587129
0.130022
0.00788195
0.151159
-0.00305738
-0.0242945
0.451474
-0.190689
-0.00186168
0.0118445
-0.581139
0.215493
-0.225051
0.00955803
0.165072
0.404876
-0.085606
0.222208
0.0275563
-0.249764
0.21427
-0.371638
0.157368
0.0261355
-0.00337313
-0.0227624
-0.0696076
0.269102
-0.199495
0.0295808
0.448977
-0.0132136
0.126823
-0.113609
0.0906536
-0.517834
0.391859
0.125974
-0.0809574
0.289573
-0.208616
-0.30806
0.654344
-0.259938
-0.394405
0.391189
-0.0898923
0.149291
-0.124146
0.150162
-0.460116
-0.124297
0.225086
-0.100789
-0.224523
0.488314
-0.26379
-0.243131
0.0425267
0.270748
-0.455888
-0.467168
-0.0587668
0.056517
0.128581
0.265358
0.405562
0.366097
-0.11376
-0.252337
-0.00463203
-0.00852448
0.21192
-0.00250756
0.15218
-0.144336
-0.00784434
0.0792057
0.000857926
-0.0800636
-0.528931
0.39687
0.132061
0.396247
0.182595
0.0864178
-0.069117
-0.0173009
0.295181
0.0960076
0.175041
0.00218271
0.224351
-0.0509246
0.00703814
0.0438865
-0.111867
0.442253
0.0369675
-0.118864
-0.0249009
0.363899
-0.338998
-0.381281
-0.000186075
-0.401303
0.202316
-0.454433
0.347403
0.10703
0.000714092
0.00477878
-0.00549287
-0.235382
0.0238906
-0.176461
0.590707
-0.414246
0.0843134
0.137894
-0.0014182
0.0951993
-0.0937811
0.124067
-0.306992
0.182926
-0.00855859
-0.042366
-0.0193175
0.0845136
-0.501566
0.562674
-0.0611081
-0.192401
0.00517112
0.18723
0.028629
-0.00350347
-0.190026
-0.0023751
-0.0757145
0.0655405
0.010174
-0.503541
0.0432869
0.460255
0.342043
-0.435315
-0.0158354
-0.00064866
0.0164841
0.0127005
0.102869
0.0103323
-0.0123596
0.00202732
0.121248
-0.556296
0.435049
-0.0991038
0.437411
-0.105461
0.00434251
-0.0249709
-0.128517
0.0537781
0.276725
0.107074
0.445462
-0.0721153
0.0076229
-0.178768
0.0947637
0.00630289
-0.101067
-0.0714644
-0.0123727
0.0838371
-0.374478
0.0655023
0.389823
-0.455325
-0.00987046
0.0677535
0.209616
-0.00793778
-0.201678
0.202288
0.314748
0.0882871
-0.106715
-0.00733835
-0.142978
0.344777
-0.569064
0.411515
0.157549
-0.00135322
0.00831838
-0.0451645
-0.217596
0.56319
-0.113328
0.559709
-0.446381
-0.0240758
0.0281945
-0.526262
0.0246959
0.65052
-0.179481
-0.473419
0.248895
0.180472
0.329689
-0.445649
0.11596
0.147962
-0.0401506
0.08109
-0.205387
-0.0509362
-0.105337
-0.237613
0.342949
-0.000341022
0.00162594
-0.00128492
0.429047
-0.181177
0.110425
0.00236771
-0.112793
0.0926956
-0.098002
0.0216007
-0.517854
0.402129
0.115726
0.368051
0.131815
-0.499866
-0.00488078
0.13728
-0.204511
-0.358047
-0.0271281
0.409788
-0.15626
-0.294365
0.332453
-0.0107979
-0.0794926
-0.159347
-0.217359
-0.373194
0.000819532
-0.0230858
-0.18658
0.201196
-0.0146159
0.000186416
0.367521
-0.220022
-0.147499
0.597818
-0.148346
-0.449472
0.559884
0.203872
-0.205731
-0.0763632
0.069633
-0.00372983
-0.0120459
0.206454
0.399959
0.00420924
0.151987
0.0627207
-0.485736
0.423015
-0.104114
-0.330174
0.434289
-0.161786
0.0271023
-0.0301596
-0.0213027
-0.189487
-0.292605
0.234191
0.110031
0.0241832
-0.100951
-0.203669
-0.0686994
-0.0656457
-0.125918
-0.391936
0.257
-0.488297
-0.459591
0.0057802
-0.133962
0.152384
-0.155298
0.538049
-0.400142
-0.00446431
-0.0999366
0.104401
-0.491312
0.358354
0.132958
0.172312
-0.593327
-0.0470842
0.00502225
0.0420619
0.0256388
-0.029012
-0.161901
-0.231701
0.393601
-0.0172425
0.0420656
-0.35115
0.292691
0.0584584
0.027368
-0.0265485
0.148924
0.354993
-0.0116679
0.415154
-0.343079
0.455125
-0.112046
-0.073614
0.17301
-0.634278
0.461269
0.328182
-0.498574
0.170392
-0.32764
-0.0390645
0.0411555
0.0366909
0.00789477
-0.0445857
0.0933441
0.0791929
0.0501527
-0.0587112
0.0825579
-0.318406
0.235848
0.0284897
-0.00161519
-0.0268746
0.0438165
0.205186
-0.00131375
0.430786
-0.309539
-0.140101
-0.352778
0.492879
-0.38928
-0.501343
0.37484
0.126503
-0.0532458
-0.0312485
0.607344
-0.43874
-0.168604
0.257643
0.0217684
-0.279412
-0.370425
0.113293
-0.0940918
-0.00943591
0.0494452
-0.0101974
0.00514342
0.00505396
0.116049
-0.441291
0.325243
-0.064348
0.0818096
-0.0174616
-0.226502
0.344682
0.25058
-0.326872
-0.205434
0.509366
-0.310684
-0.215578
0.00868558
0.00357103
0.311129
-0.0732816
0.0214172
-0.0202899
0.0266111
-0.18686
0.362594
0.0828684
0.113956
-0.00466959
0.399512
0.224043
0.254911
-0.0215964
-0.387814
0.236787
-0.00752469
0.0980482
-0.0905235
-0.278159
-0.231168
0.33226
-0.202591
-0.129669
0.436005
0.335418
0.280105
-0.0826971
0.0812789
-0.233278
-0.0966197
0.329898
0.231764
-0.129291
-0.102473
-0.144739
0.472921
-0.00185723
-0.154953
0.0157966
-0.0142007
-0.00159589
0.326082
-0.482951
0.156869
-0.131296
-0.0572088
-0.468903
0.0890281
0.366345
-0.06385
-0.174532
-0.408505
0.583037
-0.00709827
0.0863039
0.0257038
0.18979
-0.185882
-0.199359
-0.0861294
0.285488
0.109156
-0.51693
0.407774
-0.141376
0.488151
-0.346775
0.627923
0.325077
0.172884
0.396104
-0.531676
0.135572
0.160592
0.0204688
-0.0431967
0.249266
-0.219685
-0.275375
0.420875
0.539162
-0.235613
0.561675
-0.0316387
-0.530036
0.133408
0.000954438
-0.00831093
-0.0462522
0.106946
0.195797
0.341588
-0.442902