/*--------------------------------*- C++ -*----------------------------------*\
| =========                 |                                                 |
| \\      /  F ield         | OpenFOAM: The Open Source CFD Toolbox           |
|  \\    /   O peration     | Version:  v2012                                 |
|   \\  /    A nd           | Website:  www.openfoam.com                      |
|    \\/     M anipulation  |                                                 |
\*---------------------------------------------------------------------------*/
FoamFile
{
    version     2.0;
    format      ascii;
    class       surfaceScalarField;
    location    "200";
    object      phi_0;
}
// * * * * * * * * * * * * * * * * * * * * * * * * * * * * * * * * * * * * * //

dimensions      [0 3 -1 0 0 0 0];
oriented        oriented;


internalField   nonuniform List<scalar> 
20537
(
-0.377056
0.506761
-0.129705
-0.162877
-0.0453739
0.208251
-0.188506
0.166831
0.0216746
-0.0202028
-0.301625
0.321827
-0.148673
0.163763
-0.0150896
0.287954
-0.481099
0.193145
0.198022
0.2018
-0.399822
0.245765
-0.0898811
-0.155884
-0.455225
-0.0941753
0.5494
-0.0233711
0.202945
-0.179574
0.541629
-0.127497
-0.414132
0.0693117
-0.132416
0.0631045
0.0875658
0.0133782
-0.100944
-0.0391217
0.00888061
0.0302411
0.676517
-0.545774
-0.130743
0.276388
-0.285879
0.00949013
-0.0469747
0.28268
-0.235705
0.441975
-0.251029
-0.190946
-0.139633
0.143871
-0.00423786
0.0826338
-0.537859
0.346332
-0.366535
-0.0810677
-0.107438
-0.363989
0.584525
-0.220536
-0.690025
0.0984537
0.591571
-0.54952
0.185531
0.216882
0.0288833
-0.087436
-0.180928
0.268364
-0.00561652
-0.00183307
0.00640276
-0.383459
0.227297
-0.35195
0.124652
0.484375
-0.196421
0.230706
-0.277681
-0.02257
0.189401
0.511006
-0.436749
-0.0742568
-0.601852
-0.088173
0.114433
-0.129493
0.0150597
-0.000973407
0.0912497
-0.0902763
0.209107
-0.130501
-0.0786057
0.145494
-0.168865
0.155873
0.355133
0.0443458
0.337165
-0.381511
0.488738
-0.663368
0.17463
-2.07259e-05
-0.00221531
0.00223603
0.388728
-0.529872
0.141145
0.528565
-0.139837
0.00740073
-0.00494288
-0.00245784
-0.527847
0.124057
0.40379
0.0979125
-0.440184
0.342271
0.172903
-0.260339
0.33659
0.230845
-0.567435
0.163974
-0.0187745
-0.145199
0.146758
-0.0758508
-0.0709076
0.00237105
-0.00899441
0.00662336
-0.734824
0.374339
0.360485
0.655578
-0.536245
-0.119333
0.662421
-0.173683
0.652349
-0.295658
-0.356691
-0.00523731
-0.00700827
0.0122456
-0.183046
0.410343
0.283993
0.0959011
-0.379894
0.049291
0.159816
0.0561701
-0.0539763
-0.00219385
-0.401707
0.306817
0.09489
-0.142936
0.129255
0.013681
-0.168773
0.318078
-0.149305
-0.445998
0.145517
0.300481
0.0713214
-0.0722948
-0.564323
0.149779
-0.214093
0.216178
-0.0020851
0.195733
0.246242
0.0138896
-0.0170423
0.00315268
0.0884695
-0.0782841
-0.0101855
0.0659258
-0.228803
-0.292202
-0.442622
0.281337
-0.58527
0.303932
-0.527589
0.433031
0.0945581
-0.137569
0.0565008
-0.0246732
0.00072665
0.0239466
-0.00153028
-0.174925
0.176455
0.0162992
-0.00128166
-0.171766
0.432151
-0.260385
0.472143
0.0355293
-0.507672
-0.434041
-0.0510713
0.485112
0.00412369
-0.0101671
0.00604343
-0.33122
-0.0704871
0.125991
-0.0566795
0.488716
-0.167944
-0.320772
0.0450308
0.126694
-0.171725
-0.262231
0.323325
-0.0610935
-0.358321
-0.248487
0.606808
0.0208644
0.0935689
-0.090497
-0.30631
0.396807
-0.293798
-0.0909306
0.251632
-0.160701
-0.0285278
-0.233704
0.562932
-0.551137
-0.0117951
0.0292428
-0.177916
0.00647402
0.0334862
-0.0399602
-0.183996
0.520586
-0.02458
0.587512
0.00533401
-0.0153889
0.0100549
0.176016
-0.173528
-0.00248804
0.0750289
-0.381466
0.306437
0.267578
-0.0175852
-0.457148
-0.0992301
0.556378
-0.509739
0.403506
0.106233
-0.181494
0.1783
0.00319394
0.523496
-0.68161
0.158114
0.0671804
0.0106721
-0.183828
-0.297271
-0.540574
-0.019391
0.559965
0.273466
-0.631787
0.303607
-0.394104
-0.651258
0.651258
-0.0720473
-0.468527
0.354889
-0.00528063
-0.0505461
0.0570201
0.0724679
-0.471664
0.399196
-0.57322
0.575125
-0.00190478
-0.192609
0.562303
-0.369694
-0.00107466
0.00105393
0.236495
0.0310835
0.0921769
-0.00461108
0.232171
0.415181
-0.317268
-0.770536
0.345604
0.424932
0.127113
0.288067
0.158846
-0.188507
0.0296612
0.0313555
0.314976
0.171834
-0.0819203
-0.0899139
0.424589
-0.380243
0.55573
-0.161608
-0.394122
0.0184543
-0.00456466
-0.551795
0.117754
0.344496
-0.571766
0.606413
-0.0346463
0.555086
-0.482618
-0.0719337
0.0900049
-0.0180711
0.0258265
-0.0221477
-0.00367878
-0.0146214
-0.0235321
0.0381535
-0.00260931
0.00794331
0.376847
0.278731
0.163294
-0.560399
0.397105
0.717547
-0.38243
-0.335117
0.411033
-0.0840544
-0.326979
-0.0946364
-0.435236
-0.452621
0.623328
-0.170707
0.0406102
0.131224
-0.267703
0.465725
0.135106
0.393459
-0.0023165
0.130377
-0.422515
0.615522
-0.193008
-0.00316143
-0.0359603
0.309713
0.342636
0.364067
-0.207851
-0.156216
0.303772
0.107261
-0.496462
0.1878
0.308663
0.233493
0.128168
-0.361662
0.0146531
0.132105
0.00336845
0.160605
-0.352442
-0.246779
0.599221
-0.0766382
0.225993
-0.149355
0.00534735
-0.0105847
0.164227
0.391503
0.270414
-0.370101
0.099687
0.640258
-0.229942
-0.410316
-0.692197
0.239576
0.00477529
-0.218868
-0.318024
0.34938
0.0331039
0.00368768
-0.0367916
0.000303732
-0.024977
0.24037
-0.544759
0.304389
-0.174079
-0.322383
0.0206352
-0.0352566
0.565404
-0.401177
-0.119434
-0.32075
0.18433
-0.0254833
0.532785
-0.509316
-0.0234688
-0.0237632
-0.11587
-0.518917
0.666675
-0.147758
-0.269973
0.0553539
0.214619
0.0165358
-0.130095
-0.362193
0.492288
0.0522841
-0.159722
-0.362724
-0.235231
0.597955
-0.448467
0.614414
-0.165946
-0.172354
-0.273644
0.35655
-0.549159
-0.169267
0.161029
0.00823824
0.218476
0.0143737
-0.23285
-0.378068
0.0101349
-0.00776384
0.265046
-0.541668
0.276622
0.186715
-0.210787
0.0240727
0.0542064
0.00196377
0.40087
-0.178567
-0.222303
0.538785
-0.375491
-0.189129
0.534116
-0.344987
0.45987
0.0729152
-0.428129
-0.0994597
-0.302376
-0.468159
0.00355656
0.0100569
-0.0136134
-0.580071
0.0841275
0.495944
-0.539696
0.146551
0.393146
-0.0169924
0.210042
-0.193049
-0.492351
0.362257
-0.0306109
-0.0348486
0.0654595
0.149186
0.140059
-0.289244
0.0287768
-0.00157257
-0.0272042
0.128406
0.442167
-0.570573
-0.0161759
-0.0338932
0.0500691
-0.354052
0.429081
-0.514928
0.180701
0.334227
0.451446
-0.634896
0.18345
-0.718912
0.429814
0.289098
0.595334
-0.232042
-0.363293
-0.147542
0.405254
-0.257712
0.00913781
-0.00173708
-0.108747
-0.410247
0.518993
0.0310827
-0.00230597
0.265286
-0.1161
0.194187
-0.365954
-0.0045023
0.0482564
-0.0437541
-0.0656212
0.14419
-0.0785689
-0.000578082
0.0351833
-0.0346053
-0.598749
0.580097
0.0186526
-0.0472335
-0.191212
0.238445
-0.526079
0.0689313
0.00250082
-0.00866205
0.00616124
0.672499
-0.221053
0.220911
-0.00402971
0.382137
-0.312505
-0.0696315
-0.284687
0.525058
0.538512
-0.155611
0.146598
0.00901265
-0.0660476
-0.250779
0.316827
0.0366765
-0.0672874
0.0802803
-0.249054
0.280313
0.437234
-0.455493
-0.0842034
0.146349
0.338025
0.425532
-0.503081
0.0775486
0.574687
0.057775
-0.632462
-0.187567
0.170575
0.45641
-0.555641
0.0281413
0.0047239
-0.0328652
0.19466
-0.0186434
0.521124
-0.344902
-0.176222
-0.395251
0.293539
0.101713
-0.222465
-0.123528
0.345994
0.662002
-0.392152
-0.269849
0.495176
-0.0696436
-0.245689
-0.107258
0.352947
-0.0914787
-0.0310833
-0.120371
0.151454
0.375081
-0.130384
-0.244697
0.24583
-0.0273535
0.0100725
0.0799323
0.00652688
-0.0172968
0.01077
-0.189411
-0.347158
0.536569
-0.438599
-0.446743
0.35029
0.0964521
0.361181
-0.0235888
-0.337592
-0.629349
0.207501
0.421848
-0.128296
0.109116
0.0191801
0.188403
0.212467
-0.367211
0.121522
-0.207153
0.116223
0.0489957
-0.053498
0.401077
0.15069
-0.551767
0.293639
0.368362
0.1855
0.481743
-0.0990873
-0.382655
0.177221
-0.178751
0.253791
0.0225974
-0.534117
0.372509
0.601194
-0.129051
0.600117
-0.200104
-0.400014
-0.00178977
0.0359666
-0.0341769
0.0890412
0.452588
0.0244808
0.550206
0.0804524
-0.557965
0.477513
-0.502845
0.599225
-0.0963803
-0.151414
0.120331
-0.0904558
0.451637
0.391088
-0.303179
-0.087909
0.0335857
0.453645
-0.487231
-0.383155
0.497961
-0.114806
0.0715729
0.41017
-0.663011
0.300526
0.362485
0.14565
-0.10504
0.149351
-0.332397
-0.104862
0.388855
-0.219334
0.217098
0.00223613
-0.425244
-0.237767
-0.0330456
-0.0952506
0.069596
0.170475
-0.240071
0.121212
0.00477875
0.434187
-0.569827
0.13564
0.0354021
-0.00726083
0.106578
-0.183216
0.0792638
0.203416
-0.0139437
-0.0273598
0.0413034
-0.142138
0.366362
-0.224224
-0.366647
-0.143092
-0.0407373
0.0386325
0.00210481
0.48069
-0.447104
-0.0151464
-0.145817
0.160963
0.226755
0.0248767
-0.223421
0.372772
0.0262119
-0.000385373
0.221194
-0.151598
0.386119
-0.361664
-0.0244545
0.0458987
-0.0579692
0.0120705
0.650909
-0.257695
-0.393214
0.0560001
-0.278466
0.732332
-0.365705
-0.366627
-0.0466808
0.044891
0.125299
-0.0150594
-0.11024
-0.50844
0.399693
-0.191233
0.046546
0.144687
-0.262244
0.490705
-0.228462
0.0287794
-0.0222525
0.0114876
0.44603
-0.457517
-0.454741
0.643269
-0.188528
0.609552
-0.249558
-0.359994
0.125751
-0.000452105
0.199473
-0.246707
-0.323657
0.0733031
0.250354
0.108256
-0.369444
0.227307
0.327293
0.0588257
0.448926
-0.576423
0.0414663
-0.0169361
-0.0360782
-0.00394557
0.0400237
0.0788248
-0.382352
0.303527
0.0400169
-0.0539606
0.0129044
-0.0904401
0.0775357
0.384315
-0.0193891
0.206104
0.12763
0.0180204
0.535573
-0.324464
-0.211109
0.032864
0.229716
-0.26258
0.000443427
0.113604
-0.114048
0.110826
-0.236718
0.513592
-0.276874
0.25248
0.0954135
-0.347894
-0.00714409
-0.0323475
0.0394916
0.0394766
-0.585251
0.676677
-0.0829615
-0.593716
0.189309
0.487368
0.196038
-0.050671
-0.145367
-0.109589
-0.214068
-0.222067
0.254931
0.00942283
-0.00692202
-0.493198
0.319119
-0.123651
0.376131
0.357918
0.251634
-0.501565
0.239321
-0.112893
0.569304
-0.0547593
0.578256
-0.183117
0.552201
-0.369084
0.0367877
-0.0439318
0.683635
-0.291251
-0.392384
0.315544
-0.44263
0.127085
0.178852
-0.193998
-0.653946
0.358783
0.295163
0.109589
0.0116232
-0.297044
0.233289
0.0637559
0.141914
-0.352238
0.0394759
-0.00637202
-0.119536
0.43508
-0.251927
0.104384
-0.0308458
-0.197176
0.228022
-0.286262
0.428177
0.0865197
-0.446804
0.360284
0.159051
-0.630715
0.194106
0.218746
-0.412851
-0.0194308
-0.00232645
0.0217573
0.637888
0.0220213
0.00419057
0.229263
-0.102497
0.102941
-0.0288652
0.0325529
-0.710668
0.205716
0.504952
-0.198914
-0.511754
-0.0176595
-0.339236
0.356896
0.631418
-0.154527
-0.476892
0.515374
-0.529272
0.0138989
0.387629
-0.308805
-0.0866514
-0.104582
0.0347625
-0.0258819
-0.256016
0.217006
0.0390093
-0.0444929
0.0439148
0.04414
-0.0101699
-0.03397
-0.397379
-0.256567
0.23277
-0.42218
0.00339777
0.00432428
-0.0176861
0.0133619
0.101118
0.281019
-0.0483601
-0.00218602
0.439722
-0.245616
-0.215449
0.184603
0.500904
-0.534428
0.0335243
-0.0957038
0.108608
-0.435641
0.515872
-0.0802312
-0.109018
-0.176861
0.367966
-0.385626
-0.447805
0.341346
0.10646
0.0535334
0.094268
0.386422
0.318384
0.321874
-0.122896
-0.0200394
0.234205
0.0726588
-0.306864
-0.0133021
-0.0136511
0.0269532
0.351157
0.00939742
-0.360555
-0.134948
-0.442966
0.018289
0.424677
0.361552
0.133624
-0.328873
0.0910296
0.237843
0.183745
0.0122925
0.286233
-0.20697
0.201479
0.393855
0.122288
0.432799
0.495112
-0.400844
0.0932899
-0.541757
0.148609
-0.164803
0.0161945
0.00462218
-0.441201
0.436579
0.127669
-0.119357
-0.00831146
-0.0498358
-0.39313
0.0154772
-0.295893
-0.140857
0.122069
0.139788
-0.0602937
-0.095317
0.443965
-0.357446
0.438402
-0.0768506
0.659634
-0.499542
-0.160092
-0.182416
0.00403694
0.178379
-0.179331
0.452435
-0.273103
0.00937576
0.176137
-0.185512
-0.0217043
-0.00385695
0.0255612
0.588288
-0.128418
-0.645201
0.235694
0.409508
-0.51548
0.336148
0.0335477
-0.0268189
0.30585
-0.668574
-0.228274
0.224365
0.00390933
0.00940496
0.545149
-0.144072
-0.486802
0.542945
-0.0561435
-0.402701
0.10537
0.29733
0.131667
0.0263968
-0.102248
0.074037
-0.362924
0.288887
0.0630815
-0.0887916
0.0257101
-0.54609
-0.0526589
-0.562494
0.312936
0.00276318
-0.00587195
0.00310877
-0.0762952
0.346709
-0.457203
0.537656
0.139343
-0.0943122
0.463819
0.1676
0.205136
-0.156762
-0.376232
0.532994
0.117592
0.183422
-0.301014
-0.125502
-0.24406
0.369562
-0.429559
0.459608
0.12868
-0.0133312
0.0592299
0.379419
-0.43049
0.204002
-0.197747
-0.00625479
-0.0790784
-0.492688
0.268173
-0.382901
0.114728
-0.632355
0.233319
0.399036
0.562558
-0.562558
0.517036
-0.156117
-0.360919
-0.552804
0.134281
0.516977
-0.0759016
0.411497
-0.335595
0.260015
0.108988
-0.369004
0.346222
-0.514165
0.116156
-0.478349
-0.166208
0.667112
0.0188146
-0.0158921
-0.00292249
0.002141
-0.0238452
0.141252
0.321528
-0.46278
0.400874
-0.132702
-0.286047
-0.0428258
-0.334797
-0.168284
-0.00390837
0.00803206
-0.363646
-0.198848
0.237724
0.445911
-0.075094
-0.37171
-0.155655
0.00396948
0.151686
-0.333389
-0.0653826
0.398772
-0.00693324
-0.00259818
0.00953142
-0.133131
0.544661
-0.411531
-0.00971935
0.000724939
-0.222941
0.231858
-0.00891691
-0.213281
-0.450087
0.22484
0.176035
0.0430296
-0.0181888
-0.0248408
0.209394
0.0115177
-0.367436
0.483961
-0.116525
-0.518502
-0.0547176
0.281074
-0.496275
0.215201
-0.571975
0.0357301
-0.168979
0.577381
-0.408401
-0.578301
0.187374
0.390927
-0.448845
0.338307
0.110538
0.0214544
-0.0171301
-0.157574
0.156199
0.00137498
0.127482
-0.0184375
-0.109044
0.0954492
-0.0889947
-0.00645447
0.0740342
0.326082
-0.678525
-0.0846882
-0.00933124
0.0940194
0.454598
-0.449975
-0.0570506
-0.212922
0.00504723
0.220946
-0.530903
0.196106
-0.264916
0.497088
-0.0636444
0.0474685
-0.516399
-0.00991525
0.526314
-0.0131012
0.00616797
-0.00885125
0.0026913
0.000865259
-0.148907
-0.135843
0.360683
0.527247
-0.306716
-0.445848
-0.199353
0.294954
0.0801269
0.316977
-0.506105
-0.176769
0.0186609
0.158108
0.353701
-0.120207
-0.140548
-0.0362214
0.0754942
-0.00779958
-0.0676946
-0.536995
0.403864
0.154269
-0.154206
0.00282652
-0.0210991
0.0182726
0.378138
-0.0845995
0.333625
0.171534
-0.505158
-0.354129
0.541928
0.336911
0.120204
-0.457115
-0.0136902
-0.155577
0.245403
0.0617208
-0.307124
-0.030435
0.157129
0.0887591
-0.0256776
-0.437159
0.595619
-0.15846
-0.00122753
0.0039907
0.00180692
-0.0273541
0.0255472
0.503515
-0.430518
-0.0729976
0.0538104
0.400787
0.208777
0.578828
-0.478043
-0.100785
0.400936
0.471305
0.0851578
-0.556463
-0.0915914
0.00690323
-0.225396
0.0175446
0.120074
-0.119925
-0.000148723
-0.0865428
0.102971
-0.0164277
0.211536
0.450885
-0.376779
0.445433
-0.0686539
-0.202933
0.450588
-0.247655
-0.219888
0.169217
-0.141861
0.146153
-0.00429195
0.00195757
0.0194968
-0.00672577
0.0736908
-0.0669651
0.349495
-0.107478
-0.340328
-0.116349
0.097381
0.0189682
0.00340261
-0.0975103
-0.00989208
0.107402
-0.118766
-0.13725
0.383385
-0.0765678
-0.573676
0.314202
0.195184
-0.509386
-0.163755
0.693754
-0.482218
0.285266
0.0928717
0.181948
0.484727
-0.160558
-0.395166
0.555725
0.0773198
-0.0018256
0.158497
-0.467813
0.417977
0.294851
0.398904
0.0315301
-0.00950884
0.409962
0.124154
0.630505
-0.183672
-0.446832
-0.414931
0.563466
-0.148534
-0.092157
-0.537192
0.55485
-0.014165
-0.00526583
0.338919
0.182205
-0.176009
0.00253041
0.000160892
0.51015
-0.229076
-0.0497813
-0.164009
0.21379
-0.0159869
0.0188134
-0.0202661
0.0186935
0.146176
-0.382894
0.0215142
0.194664
0.0603719
0.518456
0.429956
-0.233615
0.015568
0.218047
0.0077786
-0.0684116
0.060633
-0.279385
0.374798
0.000520753
0.119553
-0.275225
0.0360181
0.239207
0.0810237
-0.477341
0.396318
-0.312221
0.240974
0.0712471
0.130531
-0.524
0.393468
0.109732
-0.477169
0.134951
-0.143343
0.00839205
-0.371474
0.48763
-0.308681
-0.0736712
0.0225686
-0.50937
0.146845
-0.226786
0.0799417
0.117352
0.0103163
0.410853
-0.314952
0.103631
0.340334
-0.111907
-0.185138
0.0622864
-0.317436
0.25515
0.150072
0.159131
-0.0105218
0.0420077
-0.107629
-0.300536
0.0702852
0.23025
0.0115993
-0.10911
0.470045
-0.389022
0.0996893
-0.384385
0.284696
-0.380665
-0.0021612
0.00469161
0.133611
-0.487664
-0.632186
0.290142
0.342044
-0.00283095
0.0700114
-0.208526
0.423766
-0.21524
-0.0034556
-0.0254096
0.0316518
-0.0355452
0.0038934
-0.00761904
-0.00379847
0.0114175
0.0303777
0.108965
0.0807519
-0.516393
-0.081115
-0.462313
0.486794
0.339341
-0.536582
0.197241
0.122925
0.421736
0.380518
-0.541077
-0.615993
0.274428
0.341565
-0.0259565
0.377114
-0.223877
0.341469
0.701523
-0.406673
-0.107126
-0.00137659
0.108502
0.0228888
7.82186e-06
-0.107133
0.160224
-0.542989
0.382765
0.137908
-0.557664
0.419756
0.626347
-0.145308
-0.481039
0.00458638
0.123043
0.00361714
-0.0615567
0.0579396
0.110084
-0.151054
0.0409699
-0.0603086
0.128187
-0.590499
-0.451704
-0.0827248
-0.135384
-0.453443
0.588827
-0.255524
0.42527
-0.169746
0.0592265
-0.0844805
0.025254
0.0609947
-0.0479659
-0.0130288
-0.252968
0.315255
0.240416
0.461107
-0.136697
-0.312148
-0.469961
0.214437
0.183305
-0.17891
-0.00439533
-0.00373221
0.010907
-0.00717475
-0.0584299
0.0417209
-0.0571236
0.0154027
-0.269344
-0.226931
0.45671
-0.353078
0.134207
-0.00672501
0.0312212
-0.19782
-0.0134387
-0.118978
0.116584
0.315567
-0.25101
0.151053
-0.0409693
0.359688
0.497678
-0.351099
0.192456
0.387991
0.271643
0.131024
0.0528723
0.0251351
-0.0289921
0.152021
-0.544427
0.392406
0.389893
-0.112798
-0.277095
0.30234
0.0810447
-0.567173
0.398193
0.28606
-0.350358
0.421931
-0.03809
0.0298977
0.00819233
-0.00291335
0.137864
0.125452
-0.0163355
-0.347935
0.553652
-0.452949
0.55978
-0.399556
0.0104304
0.00838428
-0.0996641
0.0131213
-0.308137
0.242089
-0.00694293
0.0385947
0.165105
-0.58495
0.419845
-0.00863492
-0.483023
0.491658
-0.414707
0.295788
0.214362
0.0776329
0.0076594
-0.0852923
0.340942
-0.113169
-0.227774
-0.417218
0.0958328
0.321385
-0.2343
-0.398054
0.0721327
0.219691
-0.291824
0.409603
0.216744
-0.00244147
-0.00110148
0.00354295
0.131922
-0.262306
0.0325522
-0.0314079
-0.00114428
0.437629
0.0883471
-0.341315
-0.00116458
0.0203589
-0.0191944
-0.00991657
-0.000635726
0.0105523
-0.074734
0.0955984
-0.380567
0.511099
0.0578948
-0.0678114
0.00991656
-0.189538
0.605276
-0.403797
-0.0224851
0.174664
-0.152178
0.188155
-0.178779
-0.133275
0.32132
-0.188045
0.00151877
0.575484
-0.229159
-0.346325
-0.590578
0.371013
0.219566
-0.0129995
0.104249
-0.147894
-0.484292
-0.580071
-0.362132
0.23663
0.119598
0.350447
0.00317096
-0.00561243
-0.207066
0.043226
0.16384
-0.115464
-0.351749
-0.116064
0.394895
-0.594998
-0.394708
-0.373947
0.565563
-0.0599211
-0.505642
0.236248
-0.406218
0.529144
-0.124257
-0.352667
0.476924
-0.61603
0.243992
0.372038
-0.00286055
0.0414931
-0.537246
-0.518683
0.0165649
0.502119
-0.111537
0.395415
-0.283878
-0.440404
0.332926
0.0214049
-0.0225695
-0.545923
0.00345349
0.54247
0.522759
-0.378183
-0.144576
0.0820185
0.0411208
-0.123139
0.0092713
0.174034
-0.231634
0.548858
-0.317224
0.188121
0.339929
-0.52805
0.280149
-0.379236
-0.00871851
0.0504395
-0.107196
-0.053529
0.00520098
0.048328
0.191187
-0.060163
-0.499722
0.34296
0.583495
-0.417865
-0.16563
0.000100114
-0.00231542
-0.234805
0.514953
0.0946097
-0.328696
0.234086
-0.572543
-0.441194
-0.461669
-0.171094
-0.00999984
0.181094
-0.132308
0.257767
-0.125458
-0.194898
0.365372
0.424801
0.158694
-0.498792
-0.0176074
0.385764
0.136995
0.0953411
0.0233241
-0.478299
0.44924
0.0290596
0.00894531
0.152083
-0.369841
-0.299713
0.38806
-0.14671
0.1054
-0.135335
0.0299359
-0.00865983
0.118182
0.222761
-0.0551666
0.0120111
0.0431555
0.00467583
0.0907733
-0.366622
-0.0737817
-0.000801285
-0.0158353
0.0166366
0.35915
-0.259461
-0.0603247
0.0558528
0.00447196
-0.0323443
-0.00574573
-0.0226941
-0.025754
0.0484481
0.572739
-0.182939
-0.3898
-0.222808
-0.00991707
0.232725
-0.380124
0.301263
0.0863659
-0.0134079
0.00639958
-0.0109684
-0.530044
0.141398
0.388646
0.586373
-0.594764
0.00839173
-0.00384991
0.150448
-0.369406
0.569159
-0.199753
-0.414397
0.561588
-0.147192
-0.00640268
-0.00491097
0.0113136
-0.397669
0.562774
0.342904
-0.452779
0.109875
-0.00270098
0.021173
-0.00114242
-0.0200306
0.121268
-0.469203
0.479816
-0.140475
-0.497722
-0.00384236
-0.00171077
-0.0082058
0.0844056
-0.025179
0.109283
-0.119175
-0.185163
-0.301059
0.486222
-0.0461867
0.0422411
-0.0969382
-0.12295
-0.0717228
0.0753399
0.0106872
0.167613
0.175889
0.00296311
-0.0754078
0.0687502
-0.402139
-0.160143
0.226068
-0.00678142
0.147886
-0.141104
-0.0102194
-0.00746671
0.498779
-0.0590573
-0.00186163
-0.000689491
-0.00492294
-0.00727849
-0.0530463
0.0224415
-0.0206346
0.319603
0.114881
-0.434483
0.201502
-0.0218722
-0.17963
0.474108
0.156396
-0.0595617
0.277304
0.112588
0.106502
-0.0774688
-0.0290336
0.653734
-0.653734
-0.0191502
-0.00729088
0.0264411
-0.538519
0.124122
0.124051
-0.0420328
-0.430831
0.534609
-0.103778
-0.126721
-0.0579811
0.184702
-0.168547
0.196064
0.00543782
-0.0236375
0.0360939
-0.161357
0.125263
-0.152947
0.336369
-0.482541
0.616822
0.0637575
0.271654
0.382047
-0.0502029
-0.331844
-0.370874
0.10981
0.261064
-0.000392546
0.0215656
-0.370783
0.578283
0.64886
-0.411135
-0.43848
0.152229
0.286251
-0.0452766
0.0113834
0.00636841
-0.00224221
0.0236471
0.438292
0.134447
0.102534
0.396245
0.0208285
0.388606
-0.409435
0.000668396
0.0318838
0.124453
0.529282
0.32111
-0.326391
0.00112646
-0.0251682
0.0240417
0.384505
-0.558655
0.17415
0.0861407
0.19585
-0.281991
-0.115513
0.529544
-0.119582
-0.0436131
0.00103039
0.0425827
-0.270431
0.392859
-0.122428
0.21704
-0.512697
0.0258378
0.14161
-0.167448
0.00595685
0.0251259
0.120858
0.0252952
0.321402
-0.226792
0.477047
-0.150361
-0.326687
0.208499
0.440361
0.009725
-0.0029095
-0.0068155
-0.0147345
0.120134
-0.530909
0.0122255
0.0375776
-0.260386
-0.563758
0.393703
0.170055
0.411475
-0.327348
-0.396271
0.58558
0.0211914
-0.472895
0.163803
-0.161105
-0.00269823
0.247225
0.191177
0.450971
-0.108067
-0.100791
0.378747
-0.233964
-0.0162491
0.0128712
0.00337792
0.0335906
0.00943899
-0.0089013
-0.219373
-0.0252734
-0.0298932
0.0453622
-0.476193
0.20705
0.0173152
-0.0773974
0.466004
-0.403926
-0.159832
-0.151026
0.430206
-0.27918
0.337169
0.113802
0.0188807
-0.00195491
-0.0169258
-0.147848
0.469376
0.107812
0.0432409
0.433922
-0.11432
-0.237666
-0.595185
0.00697599
0.000667996
-0.00764399
0.20716
0.367964
-0.0293989
-0.0869502
0.114544
-0.246853
0.037899
-0.110869
0.0729703
-0.243844
0.0367778
0.199775
-0.00417568
-0.195599
-0.00368042
-0.200601
-0.026185
-0.318115
0.0673364
0.0930637
-0.241716
0.38539
-0.143674
-0.00580186
-0.0023722
0.00817405
-0.140275
0.177555
-0.0372801
0.584032
0.418643
-0.285031
0.200004
-0.16391
-0.162841
-0.0316019
-0.315073
0.503194
0.00435889
0.0191068
-0.0234657
0.409716
0.150064
-0.158484
0.0283798
0.00638262
-0.189546
0.608653
-0.419107
-0.107269
0.0835054
-0.256803
-0.144115
-0.35849
-0.0957188
-0.491506
-0.0062167
-0.124054
0.510386
-0.386332
0.383798
-0.267214
0.0794963
-0.0924958
-0.40839
-0.150265
0.0651736
0.019232
0.00253487
0.00719014
0.232199
-0.0190868
-0.213112
0.030112
-0.000214372
0.410096
-0.0216646
0.587228
0.225793
-0.591498
0.445206
-0.108295
-0.398477
0.135891
-0.111806
-0.0240846
-0.0992333
-0.231101
0.330334
0.337858
-0.513445
0.175587
-0.0918739
-0.325344
0.107434
-0.562175
0.0231682
0.0421234
0.0188712
0.31156
-0.0545411
0.00618108
-0.0112418
-0.0793196
0.0905614
0.433634
-0.119433
0.0634532
0.388052
-0.451506
-0.101557
-0.173669
0.143811
-0.0443696
0.481648
-0.437279
0.373169
-0.475253
0.102084
-0.450285
0.362582
0.0877025
-0.421015
-0.164255
-0.412321
0.536378
0.444681
0.0848634
-0.01061
0.0106603
-5.02323e-05
0.406016
0.0940903
-0.500106
0.0145801
0.0775968
-0.21434
0.257566
-0.206676
0.278809
-0.574486
0.450432
0.423165
-0.592464
0.169299
-0.165469
0.0635495
0.10192
0.277559
0.0815909
-0.379081
0.553744
-0.401723
0.351783
0.125605
-0.477388
-0.273595
0.400708
-0.291447
-0.147032
-0.174873
0.631739
-0.42324
-0.127985
-0.0687518
0.196737
-0.00534651
0.105012
-0.0996658
0.260074
-0.438929
0.178856
0.482361
0.104012
-0.0932714
0.445942
-0.352671
0.380561
-0.164597
-0.215963
-0.199021
-0.183879
-0.300544
0.0695307
0.231013
-0.149206
-0.192655
0.0523801
-0.342032
0.242799
0.332815
0.144233
0.0198146
0.0403972
-0.0602118
-0.146233
0.48409
-0.031988
0.0183369
-0.107016
0.0900405
0.0169759
0.0127029
0.308407
0.122259
-0.116637
-0.00562263
0.453897
-0.462531
0.670921
-0.244556
-0.426364
0.124648
0.319956
-0.444605
0.331137
0.146375
-0.477511
0.0023276
-0.425381
0.423053
0.499553
-0.0935369
-0.495371
0.495371
0.168102
0.385641
0.119461
-0.138235
0.569949
-0.144945
-0.425004
0.554516
-0.386414
0.378791
-0.184604
0.210828
-0.200757
-0.0100706
-0.0125157
0.0901485
-0.0727123
0.334637
-0.2606
-0.143435
-0.472595
0.13702
-0.143801
0.115631
-0.0184477
-0.0971836
-0.088466
0.326306
-0.0192909
0.132401
-0.127812
-0.00458974
0.136103
-0.029396
-0.106707
0.578843
-0.172744
-0.406099
-0.151452
0.00563551
0.47419
-0.140566
0.352864
0.290405
-0.32545
0.450098
0.0228051
-0.0224295
-0.00037559
0.0143881
0.111363
-0.00860861
-0.432592
-0.0640491
0.370976
-0.36461
-0.133031
0.497641
-0.379875
-0.146204
-0.433795
0.123403
0.310392
-0.371965
0.435418
-0.304778
0.123585
0.181193
-0.540076
0.293297
0.19633
0.0144984
0.323706
-0.089501
-0.0191732
0.0178899
0.00128326
0.00975397
0.552804
0.172843
-0.0832864
-0.0895567
-0.352917
-0.263076
0.0568896
-0.0338967
-0.0229929
0.187967
0.0034713
-0.191439
0.00835501
0.0526443
-0.0609993
0.118619
-0.0232775
0.00586823
0.130023
0.00799267
0.151138
-0.00305193
-0.0243022
0.451609
-0.191536
-0.00169297
0.0117498
-0.581139
0.21532
-0.224879
0.0095594
0.165072
0.404877
-0.0856078
0.222206
0.0275577
-0.249764
0.21427
-0.371638
0.157368
0.0261412
-0.00337007
-0.0227711
-0.069609
0.269098
-0.199489
0.0295786
0.448801
-0.0132342
0.126849
-0.113615
0.0907468
-0.517833
0.391859
0.125974
-0.0809561
0.289572
-0.208616
-0.308066
0.654344
-0.259939
-0.394404
0.391153
-0.0898892
0.149704
-0.123866
0.149924
-0.45982
-0.123557
0.225102
-0.101545
-0.224523
0.488313
-0.26379
-0.24313
0.0425284
0.270729
-0.455892
-0.467849
-0.0587465
0.0565605
0.128634
0.265359
0.405562
0.366096
-0.113759
-0.252337
-0.00467588
-0.00842532
0.211906
-0.00251285
0.152242
-0.144233
-0.00800909
0.0793181
0.000822548
-0.0801407
-0.52889
0.397023
0.131867
0.396247
0.182596
0.0864164
-0.0691312
-0.0172852
0.295138
0.0960144
0.175045
0.00217643
0.22435
-0.0509267
0.00703042
0.0438963
-0.110943
0.44208
0.0369675
-0.118888
-0.024512
0.363742
-0.33923
-0.381279
-0.000186712
-0.4013
0.202279
-0.454433
0.347403
0.10703
0.000716241
0.004778
-0.00549424
-0.235478
0.023899
-0.176854
0.590935
-0.41408
0.0843112
0.137895
-0.00142619
0.0951989
-0.0937727
0.124067
-0.306992
0.182925
-0.00855072
-0.042376
-0.0193325
0.084506
-0.501566
0.562674
-0.0611081
-0.19248
0.00547088
0.187009
0.028636
-0.00350084
-0.18978
-0.0027003
-0.0757286
0.0655508
0.0101777
-0.503541
0.0432868
0.460254
0.342043
-0.435315
-0.0158441
-0.000648157
0.0164922
0.0126944
0.102937
0.0102684
-0.0122933
0.0020249
0.121248
-0.556296
0.435048
-0.0991031
0.43741
-0.105461
0.00434034
-0.0249749
-0.128508
0.053774
0.276725
0.107073
0.445203
-0.0720343
0.00766835
-0.178763
0.0950511
0.00607942
-0.101131
-0.0714774
-0.012354
0.0838314
-0.374171
0.0655019
0.389823
-0.455325
-0.00986886
0.0677637
0.209616
-0.00793906
-0.201676
0.202288
0.314748
0.0882764
-0.106714
-0.00735031
-0.142977
0.344777
-0.569064
0.411515
0.157549
-0.00135491
0.0083309
-0.045174
-0.217585
0.563189
-0.113328
0.559709
-0.446381
-0.0237249
0.0280837
-0.526262
0.0246959
0.650492
-0.179187
-0.473419
0.248895
0.181245
0.329689
-0.445648
0.115959
0.147962
-0.0401502
0.0815491
-0.205106
-0.0509679
-0.105336
-0.237612
0.342949
-0.00034631
0.00166776
-0.00132145
0.428613
-0.181388
0.110544
0.00218629
-0.11273
0.0926885
-0.098035
0.022041
-0.517918
0.402328
0.115591
0.368051
0.131815
-0.499865
-0.00501583
0.137417
-0.204511
-0.358047
-0.0271279
0.409787
-0.15539
-0.294895
0.332453
-0.0107998
-0.0794765
-0.159348
-0.217369
-0.373209
0.000828644
-0.0230812
-0.186536
0.201167
-0.0146309
4.83507e-05
0.367521
-0.220021
-0.1475
0.597759
-0.148329
-0.449429
0.559884
0.203871
-0.205732
-0.0763641
0.0696383
-0.00371681
-0.0121753
0.206454
0.399959
0.0042079
0.151991
0.0633933
-0.485835
0.422441
-0.104115
-0.330173
0.434288
-0.161785
0.0271103
-0.0301622
-0.0212994
-0.189488
-0.292605
0.234175
0.110035
0.0241715
-0.101719
-0.203059
-0.0687047
-0.065656
-0.125787
-0.392132
0.256445
-0.488487
-0.459341
0.00605483
-0.13404
0.152389
-0.155302
0.538049
-0.400142
-0.004458
-0.0999351
0.104393
-0.491312
0.358354
0.132958
0.172312
-0.593327
-0.0470071
0.00466214
0.042345
0.0256476
-0.0290177
-0.161896
-0.231702
0.393598
-0.0170953
0.0419451
-0.350837
0.292591
0.058246
0.027366
-0.0265373
0.148694
0.354821
-0.0114392
0.414945
-0.343079
0.455125
-0.112046
-0.0732784
0.172894
-0.634054
0.461159
0.328179
-0.498576
0.170397
-0.327639
-0.0390594
0.0411642
0.0367074
0.00786711
-0.0445745
0.093717
0.0791261
0.0501642
-0.0587149
0.0825891
-0.318437
0.235848
0.0284965
-0.00161361
-0.0268829
0.0438181
0.205187
-0.00131638
0.430786
-0.309538
-0.140101
-0.352778
0.492879
-0.389715
-0.501343
0.37484
0.126503
-0.0532495
-0.031231
0.607343
-0.438739
-0.168604
0.257643
0.0217687
-0.279411
-0.370422
0.113334
-0.0941538
-0.00944176
0.0494587
-0.0101166
0.00526965
0.00484698
0.11605
-0.441293
0.325243
-0.0643612
0.0818107
-0.0174495
-0.226506
0.344687
0.250595
-0.32689
-0.205433
0.509366
-0.310684
-0.215578
0.00867312
0.00357246
0.311132
-0.0732886
0.0214257
-0.0202993
0.0264815
-0.186624
0.362367
0.0828357
0.113949
-0.00466624
0.399512
0.224043
0.254926
-0.0216371
-0.387813
0.236788
-0.00752704
0.0980428
-0.0905157
-0.278158
-0.231158
0.332259
-0.20259
-0.129669
0.436007
0.335418
0.280105
-0.0826954
0.0812693
-0.233279
-0.096619
0.329898
0.231752
-0.129281
-0.102471
-0.144747
0.472926
-0.0018627
-0.154919
0.0158057
-0.0142092
-0.00159654
0.326081
-0.48295
0.156869
-0.1313
-0.057207
-0.468903
0.0890281
0.366196
-0.0638557
-0.174562
-0.408504
0.583066
-0.00709432
0.0864124
0.0256639
0.189656
-0.185881
-0.199359
-0.0861278
0.285487
0.108849
-0.51668
0.407831
-0.141377
0.488151
-0.346774
0.628213
0.325077
0.172883
0.396104
-0.531677
0.135573
0.160602
0.0204897
-0.0431838
0.249263
-0.219685
-0.275374
0.420891
0.539157
-0.235551
0.561675
-0.0316387
-0.530036
0.133407
0.000952848
-0.00826197
-0.0462792
0.107004