/*--------------------------------*- C++ -*----------------------------------*\
| =========                 |                                                 |
| \\      /  F ield         | OpenFOAM: The Open Source CFD Toolbox           |
|  \\    /   O peration     | Version:  v2012                                 |
|   \\  /    A nd           | Website:  www.openfoam.com                      |
|    \\/     M anipulation  |                                                 |
\*---------------------------------------------------------------------------*/
FoamFile
{
    version     2.0;
    format      ascii;
    class       volVectorField;
    location    "200";
    object      U;
}
// * * * * * * * * * * * * * * * * * * * * * * * * * * * * * * * * * * * * * //

dimensions      [0 1 -1 0 0 0 0];


internalField   nonuniform List<vector> 
13851
(
(1.01349 -0.00968769 0)
(0.618434 0.24689 1.08131e-21)
(1.05654 -0.0682093 8.02858e-21)
(1.01392 -0.00860411 0)
(1.06412 -0.0543872 0)
(1.06539 0.0330136 0)
(1.03033 -0.00275656 0)
(1.04757 -0.0530525 7.61324e-21)
(1.00814 -0.000734573 2.71778e-22)
(1.02226 -0.0910153 -4.85096e-21)
(0.915562 -0.0605404 0)
(0.623301 -0.194909 -1.04334e-20)
(0.992794 -0.0604661 -5.06612e-21)
(0.205785 0.241435 -1.72781e-20)
(1.01883 -0.000705734 2.06341e-23)
(1.02598 -0.0380305 -5.94969e-24)
(1.03885 -0.0264898 3.07161e-21)
(1.02152 -0.0223323 1.34543e-21)
(1.06027 -0.0499523 -5.87507e-21)
(1.008 -0.000775935 -5.5275e-22)
(1.01414 -0.00868523 -5.87116e-22)
(1.05773 -0.0656082 2.58508e-21)
(1.00286 7.40014e-05 2.06829e-22)
(1.00251 -6.37263e-05 -3.91418e-22)
(1.00213 3.96135e-06 0)
(1.04608 -0.0542529 -7.77016e-22)
(1.04954 -0.0202806 0)
(0.0244759 -0.129896 1.84472e-20)
(1.01381 -0.010153 -4.1614e-23)
(1.02306 -0.0196076 -3.89174e-22)
(1.07285 0.0326857 0)
(1.03925 -0.0276068 0)
(1.05408 -0.0684964 -1.38113e-20)
(0.912556 0.20003 0)
(1.00322 -7.15894e-05 6.22638e-22)
(1.0867 -0.0655438 -8.29582e-21)
(1.0968 -0.0733344 -4.22902e-20)
(1.0779 -0.0530306 0)
(1.0238 -0.096201 1.85687e-21)
(0.926189 0.184825 1.46409e-21)
(1.01428 -0.0070657 1.43927e-22)
(1.00843 0.000722337 -1.1688e-22)
(-0.0367602 0.0250362 3.01862e-20)
(0.901973 -0.122373 0)
(0.894504 -0.104078 0)
(-0.0174587 -0.0926868 -7.81081e-22)
(0.899886 -0.153908 -2.07373e-21)
(0.842634 -0.111246 1.51377e-21)
(1.05048 -0.0208958 -1.30201e-20)
(1.05031 -0.0230865 8.07588e-22)
(1.07118 -0.0523671 2.60427e-20)
(1.06677 -0.0590356 1.92646e-20)
(-0.0227475 -0.191359 0)
(1.0184 -0.000640013 -3.64742e-21)
(1.01013 -0.000720546 0)
(1.00867 0.000764583 0)
(1.00388 4.87578e-05 8.99039e-24)
(0.00301319 -0.187833 -4.6984e-20)
(1.0229 -0.0191442 -7.05389e-22)
(1.03098 -0.00547966 -3.00663e-21)
(1.08134 -0.0546836 0)
(0.48822 0.0559765 6.13021e-22)
(1.01818 -0.0507932 2.07553e-21)
(1.06515 -0.0547748 7.94897e-22)
(0.989005 0.0852201 6.28788e-21)
(1.01206 -0.00747515 -1.49831e-21)
(1.09424 -0.074637 0)
(0.905377 -0.168539 -8.10164e-22)
(1.06198 -0.0364036 7.24011e-22)
(1.02083 -0.0226083 -8.62869e-22)
(0.318198 -0.00521047 3.25541e-20)
(1.03663 -0.0752231 0)
(0.64969 0.249827 -4.82189e-21)
(1.01837 -0.000664543 3.27527e-21)
(1.0112 -0.00120457 5.30421e-22)
(1.01003 -0.000951062 4.58749e-22)
(1.05714 -0.0642992 0)
(0.470034 -0.0133194 2.73882e-20)
(1.0599 -0.0477975 -1.38917e-20)
(0.297563 -0.00834583 7.74058e-21)
(1.03368 -0.00967541 -6.77374e-21)
(0.902313 0.0409695 6.7933e-23)
(1.02041 -0.00499143 -6.73989e-21)
(-0.00105796 -0.116358 0)
(1.02375 -0.0518619 -2.70632e-21)
(0.667064 -0.204348 8.48893e-21)
(1.05257 0.00275804 -2.13093e-21)
(0.660775 -0.0637571 -1.85651e-20)
(1.04616 -0.0264681 0)
(1.01198 -2.54687e-06 0)
(1.08581 -0.0650105 0)
(0.997139 -0.00723994 0)
(0.904956 -0.163731 -9.61328e-22)
(1.05038 -0.0311606 0)
(1.04674 -0.0256136 4.34346e-21)
(1.00221 1.46626e-05 -1.44211e-22)
(1.06457 -0.0543542 0)
(0.619555 -0.0640232 1.2988e-20)
(1.05041 -0.0320524 -8.00828e-22)
(1.00157 2.50538e-05 0)
(0.111296 0.153218 1.73725e-20)
(1.06536 -0.0468942 -7.79989e-21)
(1.01685 -0.0125579 0)
(1.05646 -0.0125728 2.04194e-21)
(1.00381 9.76375e-05 0)
(1.05297 -0.0208955 5.69308e-22)
(1.06777 -0.0483079 0)
(1.00785 0.000639941 7.18703e-23)
(0.931104 -0.0714841 0)
(1.05145 0.0471566 -1.52483e-21)
(1.00157 -9.52687e-06 -2.93863e-22)
(1.01227 -0.000126561 0)
(1.00016 -0.00653596 -7.23256e-24)
(0.999982 4.21199e-05 0)
(1.00222 -2.08427e-05 0)
(0.918496 0.242692 3.64149e-21)
(0.65382 -0.0634966 -3.48488e-21)
(1.00719 0.000427194 0)
(1.00392 -0.000234008 -2.23287e-23)
(1.00823 -0.000482526 5.99992e-22)
(-0.0302833 0.0188433 1.72451e-22)
(1.05535 -0.0129956 -3.16653e-21)
(0.961573 -0.0603976 0)
(0.921613 0.179344 -1.29315e-20)
(0.847091 -0.087623 -1.63385e-21)
(1.01284 0.000223436 2.9768e-22)
(0.83726 -0.0494023 -1.85811e-21)
(1.06255 -0.0473431 2.24982e-21)
(1.01431 -0.00814106 -7.63429e-22)
(1.06605 -0.0537257 -1.30611e-20)
(1.01415 -0.00684686 4.33846e-22)
(1.00727 -0.00109046 -1.17309e-22)
(0.338919 -0.0104735 -2.24804e-20)
(1.02042 -0.00471034 5.40132e-21)
(0.914649 0.232413 5.04795e-21)
(1.00699 -0.000488537 -9.28036e-23)
(1.00715 0.000385635 2.27078e-22)
(1.0462 -0.0748545 3.23026e-21)
(0.0574806 0.20408 0)
(0.208632 0.172769 1.72358e-21)
(0.050359 0.116732 -1.26051e-21)
(1.00969 -0.000681909 -1.04794e-21)
(1.01235 -0.00278325 1.14909e-21)
(1.01106 0.00116921 0)
(1.03175 -0.0207432 -1.43403e-21)
(0.908941 -0.145386 3.38983e-21)
(1.02642 0.00747533 -3.55108e-22)
(1.06695 -0.0535703 2.01786e-20)
(1.02958 -0.00272131 7.33399e-21)
(0.89198 -0.0637055 2.35818e-21)
(1.08509 -0.0503581 -3.34912e-20)
(1.00868 -0.000619073 -9.88353e-22)
(0.223677 0.241257 -2.56775e-20)
(1.00384 2.99681e-05 -6.01948e-22)
(1.0396 -0.0177282 0)
(1.03103 -0.0204123 5.87431e-21)
(1.01022 -0.00314056 0)
(1.02409 -0.0182847 1.83454e-21)
(1.06607 -0.05877 -1.91966e-20)
(1.07031 -0.0520185 -2.42239e-20)
(1.01136 0.00144667 -1.04641e-24)
(1.05755 -0.0278618 0)
(-0.00539058 -0.19278 2.43826e-20)
(1.00715 -0.00103304 1.2974e-22)
(1.02259 -0.0230866 0)
(1.00967 0.000961267 -3.51982e-22)
(1.02761 0.0100764 3.41636e-22)
(1.06326 -0.0365591 3.95521e-22)
(1.01439 -0.00817896 0)
(0.462926 -0.0699637 0)
(0.4536 -0.00962031 -3.30271e-20)
(1.00594 -0.000195597 0)
(1.01035 -0.00331088 -4.38571e-22)
(0.190142 0.18663 -1.90944e-21)
(1.00697 -0.000943535 0)
(0.856471 -0.13913 2.62655e-21)
(1.06156 -0.0470592 6.85918e-21)
(1.01432 -0.00374609 0)
(1.05705 -0.0515902 -9.71458e-21)
(1.0085 0.000799482 0)
(1.03877 -0.0294029 -3.64126e-21)
(1.0173 -0.0740997 0)
(1.02035 -0.00408099 0)
(1.05993 -0.0656715 -5.78235e-21)
(1.0072 0.000348713 -1.15009e-24)
(1.0026 3.25354e-05 0)
(1.01155 -0.00833568 0)
(1.01032 -0.00079846 -2.88965e-22)
(1.06467 -0.0555003 0)
(0.97236 -0.0573482 -4.89377e-21)
(0.902597 -0.16849 1.82795e-21)
(-0.0285827 -0.192188 0)
(1.01268 -0.000294826 -9.06694e-22)
(1.0583 -0.0382668 -2.96885e-21)
(0.550932 0.0537312 -3.81204e-22)
(1.03799 -0.0172828 4.08879e-23)
(1.0123 -0.00235004 1.10661e-21)
(0.959044 0.0421874 -4.94436e-21)
(1.0138 -0.00345768 0)
(1.01014 -0.00103896 -4.58465e-22)
(1.01297 -0.000378764 -2.98924e-22)
(0.121355 -0.04919 8.84306e-21)
(1.00171 -0.000100581 2.87174e-22)
(1.01677 -0.0056877 0)
(0.997631 -0.0645248 2.23005e-22)
(1.02078 -0.00430613 -6.25286e-21)
(0.486734 -0.016312 -2.14606e-22)
(1.0414 -0.0266507 6.96321e-21)
(0.474016 -0.0254425 -1.93638e-20)
(1.00973 0.00109787 -3.59955e-23)
(0.7333 -0.0598104 -2.31422e-20)
(1.01679 -0.0121354 0)
(0.899251 0.0332659 -4.54814e-21)
(1.00821 0.00075036 -3.10531e-23)
(1.01066 0.0010867 0)
(0.941792 0.012913 3.35163e-22)
(1.03186 -0.0448743 7.07566e-22)
(-0.0718802 -0.0899754 8.01415e-22)
(1.01889 -0.00153423 4.44707e-21)
(0.489857 -0.0282215 1.92172e-20)
(1.04124 -0.0273716 -1.27788e-20)
(1.03452 -0.0100211 9.62467e-21)
(0.75611 -0.0642801 0)
(1.06445 -0.0560083 -1.65659e-22)
(0.629184 -0.0511802 0)
(1.0019 3.18964e-05 4.63579e-22)
(1.05178 -0.0347532 0)
(1.0031 5.37905e-05 8.38867e-23)
(-0.0737606 -0.161907 2.57901e-20)
(1.00846 0.000811555 1.32079e-22)
(1.04403 -0.0536305 -5.52748e-21)
(1.10188 0.00313807 2.11805e-21)
(1.00581 -0.000175532 -1.60402e-22)
(1.01242 -0.000107801 0)
(1.07252 -0.0499416 1.39159e-20)
(1.03194 -0.016694 8.13566e-22)
(0.559718 -0.0186027 -2.28256e-20)
(0.943362 0.0962614 -7.63415e-21)
(1.01108 0.00115808 0)
(1.0171 -0.00580993 9.10149e-22)
(1.083 0.0120605 0)
(0.990295 -0.0928958 0)
(1.01423 0.00217538 0)
(0.994362 -0.0686551 -2.48681e-22)
(1.0047 0.000143872 -1.01494e-22)
(0.573271 -0.0440509 2.10076e-20)
(1.06484 -0.0476925 0)
(0.899399 0.164434 -4.1451e-21)
(1.02991 -0.0206504 2.8654e-21)
(1.03151 -0.027873 0)
(1.02314 0.00639593 -7.41988e-22)
(0.97274 -0.099883 0)
(1.02829 -0.0131893 0)
(1.03064 -0.0210168 -1.48587e-21)
(1.07226 -0.0452548 -1.69406e-20)
(0.929893 -0.0716608 0)
(0.973966 -0.0498544 4.75957e-21)
(1.02973 -0.0743888 -1.38315e-20)
(0.484183 -0.024121 1.04916e-21)
(1.02178 -0.00162038 0)
(1.01068 0.00110487 0)
(1.01928 -0.0216697 0)
(0.896741 0.189621 0)
(1.01196 0.000672829 -5.17973e-22)
(1.01445 -0.0427031 0)
(1.03736 -0.0174378 -1.19765e-20)
(1.02834 -0.0127098 -3.02881e-21)
(1.05023 -0.0303295 0)
(0.794764 -0.065256 0)
(1.00132 0.00414176 1.14988e-21)
(1.02459 0.00489034 1.50397e-23)
(1.03887 -0.018018 -1.22678e-20)
(0.965237 0.123555 2.51795e-22)
(1.05938 -0.0466404 -1.36206e-20)
(1.02534 -0.0364069 -3.18255e-21)
(1.00743 -0.00118332 2.39656e-22)
(0.894012 0.0128225 1.02363e-21)
(1.00499 0.0227765 -1.15031e-21)
(0.635815 -0.0534922 0)
(0.912804 -0.0288928 1.00734e-21)
(1.0146 0.00219331 0)
(1.00943 0.00102361 0)
(1.00406 9.95578e-05 0)
(1.07211 -0.0443319 5.70362e-21)
(0.899452 0.186271 0)
(0.873552 -0.173758 3.44091e-21)
(1.00911 -0.00101063 6.55361e-22)
(1.01976 -0.000358186 -1.19249e-21)
(0.9774 0.119653 -1.28412e-21)
(0.925576 -0.0237482 -1.2813e-21)
(1.06801 -0.0524071 1.23515e-20)
(1.02318 -0.0188648 9.2352e-22)
(1.0312 -0.00595093 0)
(1.06132 -0.0396026 0)
(0.931792 0.0105533 9.96766e-22)
(1.02949 -0.046854 9.75087e-21)
(1.02383 -0.0240762 0)
(0.65844 -0.208306 -6.15867e-22)
(1.00768 -0.00132923 1.2724e-22)
(0.59557 -0.0466779 -1.99404e-20)
(1.05727 -0.0271348 1.18955e-20)
(1.03767 -0.0262394 3.12227e-21)
(0.651714 -0.0561357 1.77252e-20)
(1.01871 -0.0109115 8.36949e-22)
(1.05862 -0.0136906 0)
(0.6721 -0.0520223 7.64583e-21)
(1.00885 -0.000983578 0)
(1.06892 -0.041694 -8.60696e-21)
(1.04942 -0.0318546 0)
(1.02293 -0.0183904 -4.33723e-22)
(0.0792479 0.189649 -8.89967e-21)
(1.02335 -0.0240549 -1.27027e-21)
(1.02669 -0.0129051 -5.2936e-21)
(0.718346 -0.0658787 5.81617e-21)
(1.00874 0.000791758 1.52703e-22)
(1.03199 -0.0287409 -1.35666e-21)
(1.01331 -0.00193253 -1.25022e-21)
(0.683905 -0.0572159 -1.58688e-20)
(1.08402 -0.0600969 0)
(1.01914 -0.00169563 0)
(1.06803 -0.0465509 0)
(1.01965 -0.00116915 0)
(0.511243 -0.036515 -9.6512e-21)
(1.02323 0.0128271 -9.962e-22)
(1.00293 6.06054e-05 -1.08984e-22)
(1.0114 -0.00366853 -7.1003e-22)
(1.08291 -0.0596374 0)
(1.0514 -0.0334541 -1.42901e-20)
(1.04053 -0.0166439 -7.81056e-21)
(1.01962 -0.000239081 -1.17839e-21)
(1.01879 -0.010777 0)
(1.02611 -0.0127065 4.58176e-21)
(0.904579 -0.0738522 8.08637e-22)
(0.384738 0.231133 0)
(0.475655 -0.0391841 6.27474e-21)
(1.01638 -0.0268154 8.79002e-22)
(0.697287 -0.0591608 -7.46371e-21)
(0.859027 -0.0101762 0)
(1.01872 -0.000690588 -1.86109e-21)
(1.05781 -0.0393544 -3.06097e-21)
(1.06924 -0.0519939 -1.24531e-20)
(0.996712 -0.0162967 1.68275e-21)
(1.04514 -0.013648 5.89875e-22)
(1.06925 -0.0584985 0)
(1.05861 -0.0478219 3.31713e-21)
(1.01001 0.000389867 0)
(0.857943 0.200443 1.75568e-20)
(0.642121 -0.0490828 0)
(1.01883 -0.000569398 0)
(1.03561 -0.0196094 1.33066e-22)
(1.03083 -0.0262517 -7.87162e-23)
(1.09408 -0.0985937 0)
(1.04102 -0.0162543 7.89434e-21)
(1.04999 -0.0115643 -5.30837e-21)
(-0.0757244 -0.167491 -3.2106e-20)
(1.01056 -0.00346491 1.6373e-22)
(0.849395 0.187234 -9.52827e-21)
(1.01136 -0.00352816 -7.92634e-22)
(1.01952 -0.0010807 1.06193e-21)
(1.00527 0.000177585 1.39337e-22)
(1.00804 0.000689126 -3.52892e-23)
(1.00976 -0.00289498 5.2054e-23)
(0.677329 -0.052807 2.57735e-20)
(0.971115 -0.0405495 0)
(1.01901 -0.00764531 1.17444e-21)
(1.06856 -0.0405034 -6.93208e-22)
(1.0095 0.00090755 0)
(0.613921 -0.217771 0)
(1.01584 -0.0376463 -2.5683e-22)
(0.877966 -0.199303 -1.29464e-21)
(0.482916 -0.0593062 -4.51621e-21)
(1.01895 -0.0079033 1.1485e-21)
(1.03685 -0.0478169 -2.81962e-21)
(1.04723 -0.0327665 -6.29168e-21)
(0.872003 -0.191511 -7.82591e-22)
(1.01339 -0.00604026 -2.28233e-22)
(1.00719 0.000449041 0)
(1.00901 0.00847047 0)
(0.223363 0.118602 2.24129e-20)
(1.01076 -0.000981176 0)
(0.124492 0.167312 0)
(0.994397 -0.0127268 0)
(1.06894 -0.0593349 0)
(0.403311 -0.0783511 0)
(1.01431 -0.0642794 6.52324e-23)
(1.02544 -0.0555267 4.64388e-22)
(1.02253 -0.00462971 -9.70888e-22)
(1.00778 -0.00140235 -4.61319e-23)
(1.01772 -0.000379738 -3.90857e-21)
(1.01584 -0.0249683 0)
(1.06886 -0.0460693 0)
(0.240974 0.236549 1.90222e-20)
(1.06498 -0.0356868 0)
(0.671456 -0.0547419 1.5425e-20)
(0.66606 -0.0518872 8.08962e-21)
(1.00946 0.000912007 -2.14138e-22)
(1.02221 -0.00165732 -5.19201e-21)
(0.449992 -0.0515722 -1.67707e-21)
(0.331571 -0.00930923 0)
(1.11572 -0.0212938 -2.87752e-21)
(0.681195 -0.0644946 0)
(1.00878 0.0108574 7.29987e-22)
(1.04786 -0.0338957 0)
(1.00165 1.60933e-05 -6.78601e-23)
(0.906318 -0.0196951 0)
(1.00708 -0.000358971 -3.49377e-22)
(1.02766 -0.0382415 2.45311e-21)
(1.02077 -0.00440964 1.65447e-21)
(1.0278 -0.00408927 0)
(1.00344 5.61814e-05 1.91711e-23)
(1.00873 -0.000885929 8.65387e-22)
(1.00969 0.000953664 -2.25139e-22)
(1.06532 -0.0546592 -1.7919e-21)
(1.03274 -0.00642992 3.8793e-21)
(0.535037 -0.0583069 -3.64384e-20)
(1.01936 -0.0235269 7.07508e-22)
(1.06839 -0.0476511 0)
(1.01492 0.00876596 -3.7698e-21)
(0.957723 -0.0833675 -3.14588e-22)
(1.02966 -0.0289703 4.9531e-23)
(1.08328 -0.106001 0)
(1.03719 -0.0253572 8.84278e-21)
(0.949681 0.0353022 -3.41793e-22)
(1.00718 0.000374358 -1.9229e-22)
(1.0085 -0.000859864 -1.62611e-22)
(1.00189 1.22528e-05 0)
(1.09345 -0.0527447 0)
(0.903365 -0.206105 3.61216e-21)
(1.06446 -0.0552025 1.29399e-20)
(1.01251 0.00632957 2.46528e-21)
(0.52555 -0.0565309 2.89392e-20)
(0.909613 0.197823 3.47324e-21)
(1.05077 -0.00510562 1.23339e-21)
(1.00741 -0.000497355 9.43509e-22)
(1.07358 -0.0501029 0)
(1.01324 -0.00580343 2.29431e-22)
(0.941447 -0.0865532 1.18533e-22)
(1.00378 9.005e-05 0)
(1.01998 -0.134975 -1.71167e-20)
(0.884945 -0.103976 0)
(1.04854 -0.0692695 5.11863e-22)
(0.473746 -0.0224942 0)
(1.01353 -0.00375102 -6.16264e-22)
(1.02377 0.0290795 4.7271e-22)
(0.88655 -0.127154 2.11772e-21)
(0.376851 0.123316 5.34578e-20)
(1.00748 0.000379115 2.02464e-23)
(1.0488 -0.0361961 0)
(1.06094 -0.0479614 7.57982e-21)
(0.998196 0.00817055 -1.2381e-21)
(1.00645 -0.000295977 -1.61126e-22)
(1.02545 -0.0129117 6.38997e-21)
(1.08482 -0.0490285 -2.13518e-20)
(1.06761 -0.0586589 0)
(1.02244 -0.0273083 0)
(0.389149 -0.224043 0)
(1.00236 5.50662e-05 -9.96489e-22)
(1.0116 -0.00383887 -8.85388e-22)
(-0.0746312 -0.0469977 -3.39887e-22)
(1.02227 -0.0225036 5.17709e-23)
(1.00917 0.000965115 -5.33496e-23)
(0.594315 -0.0767226 0)
(1.00766 -0.00132348 9.32415e-23)
(1.0136 -0.00914338 5.13234e-22)
(1.00694 -0.000466314 -3.03352e-22)
(1.01507 -0.0173255 9.47293e-22)
(1.02309 -0.016879 -1.22884e-21)
(1.00947 0.00104627 3.83089e-23)
(1.01311 -0.00334895 -5.94451e-22)
(0.743273 -0.0671723 2.19161e-21)
(1.02078 -0.00533474 0)
(1.0651 -0.0380302 0)
(1.00729 -0.0005633 1.20124e-22)
(1.02169 -0.0136716 -7.35005e-22)
(0.994971 0.0481007 -1.21633e-22)
(0.999736 5.00948e-06 0)
(1.01292 -0.00586402 1.79454e-22)
(1.00031 5.68996e-05 0)
(1.00022 7.22962e-07 6.3106e-22)
(0.894621 -0.143969 1.08113e-21)
(1.02902 -0.012265 0)
(1.0629 0.00921762 -6.01688e-22)
(1.02033 -0.00377963 -1.26117e-21)
(1.0024 4.87207e-05 -2.59486e-22)
(0.0499114 0.193921 -2.64118e-20)
(0.45872 -0.0199315 6.66805e-21)
(1.02164 -0.00450363 -1.52592e-21)
(1.02173 -0.0159134 0)
(1.03046 -0.0298089 -5.49066e-21)
(1.00812 -0.105239 2.036e-21)
(-0.0341683 -0.109283 0)
(1.01167 -0.00400843 0)
(0.968122 -0.0851988 -6.47652e-21)
(1.0137 -0.00631237 0)
(1.06308 -0.056142 0)
(1.02888 -0.00529326 0)
(-0.12513 -0.127198 1.93709e-20)
(1.0069 0.00028691 -1.65992e-22)
(-0.0256342 -0.182157 3.07057e-20)
(0.970677 -0.0361212 -7.62403e-21)
(1.00846 0.000732445 1.33777e-22)
(1.01869 -0.016993 1.28222e-21)
(0.538627 -0.0751113 -1.06293e-20)
(1.04279 -0.0551431 1.27091e-20)
(0.902472 0.122473 4.62704e-21)
(1.00503 -0.00029336 9.65652e-23)
(0.890774 0.21666 8.05025e-21)
(1.00917 -0.000584682 -1.58989e-22)
(1.00659 -0.000772133 -1.86772e-22)
(1.00762 -0.00127407 1.45421e-22)
(1.02807 -0.0025 0)
(0.355898 -0.0148738 0)
(1.06928 -0.0506069 -1.51972e-21)
(1.07266 -0.0613144 1.76437e-20)
(1.06494 -0.0622598 4.1683e-22)
(1.02654 -0.0456075 3.15319e-21)
(1.01164 0.00150468 0)
(0.849846 -0.0412944 0)
(0.906766 -0.199818 1.13303e-20)
(1.03993 -0.0297377 3.97482e-21)
(1.05683 -0.0286485 1.51652e-22)
(1.02422 -0.0902138 -2.34675e-21)
(0.900126 0.188642 6e-21)
(0.780349 -0.062528 0)
(1.01636 -0.000413032 0)
(-0.130902 -0.127761 8.46033e-21)
(0.0255809 -0.105345 -1.51455e-21)
(0.0357638 -0.0447975 -6.56249e-21)
(1.0228 -0.0237228 9.19344e-22)
(1.01812 -0.0190172 -2.51556e-21)
(0.902239 -0.0149996 2.16832e-20)
(1.01648 0.031572 9.0468e-24)
(0.922769 -0.0558267 2.34206e-21)
(0.935418 0.0618446 8.64735e-24)
(0.926199 -0.120986 -2.19006e-20)
(1.02377 -0.0185067 -1.99991e-21)
(0.905167 -0.111627 2.20628e-20)
(1.01052 -0.0721924 -3.63157e-22)
(1.00712 0.000327435 -1.8938e-22)
(1.01157 0.0237957 3.33279e-22)
(1.07018 -0.0508961 0)
(0.435544 -0.0128855 1.11214e-20)
(1.02942 -0.0210903 1.4189e-21)
(1.01676 -0.00397728 -1.64994e-21)
(1.01002 -0.00300845 -2.53497e-22)
(1.01533 -0.00681015 1.19391e-21)
(1.0645 -0.0551386 0)
(1.02533 -0.0151718 -8.1014e-22)
(0.687274 -0.034622 1.64738e-20)
(0.401184 -0.228845 5.73165e-22)
(1.00627 -0.000340998 1.79414e-22)
(-0.0605866 -0.02408 2.1497e-20)
(0.511022 -0.0251577 1.23021e-20)
(1.06951 -0.0512586 3.77967e-22)
(0.898025 -0.181843 -2.57765e-21)
(1.06388 -0.0378591 -4.15302e-22)
(1.00867 0.000840563 3.55037e-23)
(1.00839 -0.000776288 0)
(1.03876 0.0265505 0)
(0.813937 -0.0412825 0)
(1.04047 -0.0182255 2.52458e-21)
(1.08245 -0.0550402 1.10095e-20)
(1.0822 -0.0653284 0)
(1.00865 0.000763755 0)
(1.01707 0.0173636 -2.60556e-21)
(0.865525 0.148744 -4.66028e-21)
(1.09438 -0.0957788 2.53461e-20)
(1.06712 -0.0573848 -8.02484e-22)
(0.366803 -0.016675 0)
(1.00898 -0.0727543 1.33028e-20)
(1.01384 -0.0065497 4.66527e-22)
(1.02824 -0.00381459 0)
(0.506253 -0.0606392 -2.96644e-22)
(0.654188 -0.0510257 9.03314e-21)
(1.07963 -0.0612697 1.51481e-20)
(1.06582 -0.034838 -2.364e-20)
(1.01297 -0.0568845 0)
(1.00828 0.000741547 -4.22668e-23)
(1.01323 -0.00413416 8.79068e-22)
(0.998434 -0.126217 0)
(1.00836 0.000718363 -2.05775e-22)
(1.02874 -0.020679 -1.31438e-21)
(1.00847 0.000802403 0)
(1.00778 -0.00114897 -6.28763e-23)
(0.992921 -0.0724717 -3.51051e-21)
(1.06481 -0.0547595 -1.11003e-20)
(1.01378 0.00292381 0)
(1.00836 0.000721936 2.05052e-22)
(0.180961 0.148296 -9.36392e-21)
(0.967781 -0.0126442 1.43357e-20)
(1.00787 -0.00146873 0)
(1.00433 4.91376e-05 0)
(1.01206 0.000551584 5.53032e-22)
(1.01832 -0.000485779 7.45186e-21)
(0.204984 0.0674561 0)
(0.904578 0.12851 2.54918e-22)
(0.893664 0.0918623 4.55427e-21)
(-0.011148 -0.019123 0)
(0.896108 0.216614 -7.68393e-21)
(1.06504 -0.0330836 1.36694e-20)
(0.416389 -0.00864721 1.9901e-20)
(0.451959 -0.0210194 -1.2295e-20)
(1.00879 0.00050579 2.29227e-23)
(1.06135 -0.0373932 -1.21962e-20)
(1.00879 0.000861394 -3.57702e-23)
(1.01281 -0.0011915 0)
(1.03078 -0.0426869 -5.76971e-21)
(0.792616 -0.065236 -1.49382e-20)
(0.871464 0.195944 0)
(1.0814 -0.054623 1.15387e-20)
(1.04293 -0.0352779 0)
(1.00766 -0.000660588 4.58487e-22)
(1.02284 -0.0347952 -1.65759e-21)
(1.01226 0.000334371 0)
(0.907533 0.144622 -7.54198e-21)
(1.06814 -0.0525284 0)
(1.01995 -0.00354819 6.07914e-21)
(1.01832 -0.0274962 -8.73492e-22)
(1.00635 -0.000296504 -3.20745e-22)
(1.05165 -0.0289841 -4.28552e-21)
(1.0645 -0.0547096 -2.33719e-20)
(1.03019 -0.00530951 8.42953e-21)
(1.01295 -0.00557264 6.68546e-22)
(1.01688 -0.0399526 0)
(1.02746 -0.00828 1.49452e-21)
(1.06409 -0.0548753 9.99189e-21)
(1.09575 -0.0584467 0)
(1.06502 -0.0560125 2.50415e-21)
(1.02041 -0.0327222 -6.42722e-22)
(1.08047 -0.0618804 0)
(1.00746 -0.000636043 -4.63432e-22)
(1.09826 -0.0393972 9.3788e-22)
(1.02217 0.00954116 3.33e-23)
(-0.0559692 -0.0178119 0)
(1.01711 -0.0121419 -5.75426e-24)
(1.00219 -1.14935e-05 -5.29664e-22)
(0.960057 -0.0717198 1.53563e-20)
(1.01997 -0.0175138 -4.77936e-22)
(0.387929 -0.0921757 0)
(0.608049 -0.0458985 -1.82196e-20)
(-0.118995 -0.0953611 1.99378e-20)
(0.566406 -0.0568279 -8.72006e-21)
(1.00696 -0.000362297 1.76918e-22)
(1.01293 -0.0742785 0)
(1.01519 0.00237641 0)
(1.00768 -0.00125232 2.79556e-23)
(1.00687 0.000284653 9.23121e-23)
(1.00782 -0.00127976 1.70138e-22)
(1.02014 0.00354012 0)
(1.01851 -0.024544 -5.99938e-22)
(1.01726 -0.0180639 -1.25385e-21)
(1.0081 0.000680519 -2.00911e-22)
(0.861168 -0.0358116 9.09098e-21)
(0.967407 -0.0432926 7.94346e-21)
(0.831379 -0.0216022 0)
(1.0095 -0.00242032 0)
(1.00663 0.000272402 6.38255e-23)
(1.00399 0.000105409 7.19506e-22)
(1.07053 -0.0534267 0)
(0.581645 0.0604725 -1.33989e-21)
(1.07697 -0.0443146 3.06224e-20)
(1.05148 -0.0296642 1.26965e-20)
(1.01535 0.00253382 0)
(1.00216 3.72318e-05 -4.78073e-22)
(1.00507 -0.000196892 9.09058e-23)
(1.01056 -0.00319613 6.00605e-22)
(1.068 -0.0684239 1.93287e-20)
(0.32104 -0.0825963 0)
(1.02694 -0.00798633 -1.51313e-21)
(1.00811 0.000685133 0)
(1.02842 -0.00214937 0)
(1.01051 -0.00324421 -4.3812e-22)
(1.07215 -0.140112 -7.53395e-21)
(-0.0193411 -0.198402 -3.10031e-21)
(1.02353 -0.0363561 1.50152e-21)
(0.581393 -0.0610278 0)
(0.887041 0.210894 5.87717e-22)
(1.0128 -0.00534024 -2.26907e-22)
(1.07189 -0.0605898 -1.04251e-20)
(0.332349 0.143706 -1.0709e-19)
(1.06196 -0.0386252 0)
(0.631098 -0.184308 -5.03124e-21)
(1.03302 -0.00991846 6.47821e-21)
(1.02012 -0.0218307 4.03331e-22)
(1.07602 -0.0440155 -2.75249e-20)
(1.01868 -0.0223975 0)
(0.920907 0.0150088 9.55849e-21)
(1.0212 -0.00426152 1.34679e-21)
(0.901533 0.0639601 -1.93771e-22)
(1.00365 7.46906e-05 0)
(1.07131 -0.0257302 7.32703e-21)
(0.495266 -0.0271613 2.20292e-20)
(1.01086 -0.000547449 -1.80267e-21)
(1.01857 -0.0156428 -6.91944e-22)
(1.0067 -0.0539424 3.98878e-21)
(1.00677 -0.000847006 3.76456e-22)
(1.03842 -0.0283303 0)
(0.945125 0.147568 6.98326e-21)
(0.203996 0.223149 5.05669e-21)
(1.06742 -0.0522635 -8.3057e-22)
(1.03851 -0.0419296 0)
(1.00006 -0.0815776 -4.51964e-22)
(1.00822 0.000748187 6.55713e-23)
(1.00929 -0.00230956 0)
(0.00172671 0.17713 -6.83914e-20)
(1.08269 -0.0647444 5.18487e-21)
(1.03365 -0.0138868 8.89445e-22)
(0.629787 -0.0484791 2.99296e-20)
(1.00834 -0.000362911 3.28897e-22)
(1.01464 -8.17928e-05 0)
(1.0071 0.000330829 -1.41613e-23)
(0.895686 0.211117 0)
(1.08489 -0.0742281 0)
(1.02463 -0.0230055 -1.44469e-21)
(1.01465 -0.00875 0)
(0.983383 0.041433 -3.04189e-22)
(1.04714 -0.022227 0)
(1.00421 0.000118369 -5.3232e-22)
(-0.0534264 -0.0248987 -5.00568e-20)
(0.92737 -0.0837716 -6.88017e-23)
(0.577489 -0.044785 0)
(1.00873 0.000783155 6.09572e-24)
(1.027 -0.00755808 2.79739e-21)
(0.43681 -0.0106118 -1.62189e-20)
(0.0109034 -0.210949 0)
(1.08435 -0.0637263 0)
(1.01243 0.000181798 0)
(0.907767 -0.06961 1.84782e-22)
(1.02085 -0.00469409 4.57054e-21)
(0.961772 0.0335161 -3.94846e-22)
(1.07441 -0.0788638 -3.49114e-21)
(1.04992 -0.0718062 7.94726e-21)
(1.03213 -0.0262891 4.09142e-21)
(-0.0970057 -0.0973685 5.68177e-22)
(1.02457 -0.00145266 2.30495e-21)
(1.01589 0.00294298 0)
(1.09252 -0.0722213 2.04476e-20)
(1.00238 -2.55627e-06 -5.16419e-22)
(1.00092 -4.47292e-05 3.34561e-22)
(1.02332 -0.0174053 1.2423e-21)
(1.00737 -0.000575483 8.73317e-25)
(-0.0661487 -0.0498746 0)
(1.03539 -0.0400061 -4.41273e-21)
(1.06774 -0.0580762 1.49818e-20)
(1.01214 0.00130121 -1.13911e-21)
(0.999378 0.0269063 1.12964e-21)
(1.00777 -0.000738899 3.01193e-22)
(0.907556 0.174177 -5.86804e-21)
(1.00378 -0.000161245 0)
(1.02461 -0.00330992 3.6289e-22)
(1.00644 0.000242244 2.41322e-22)
(1.01237 -0.00492039 8.9715e-24)
(1.00903 -0.000748978 0)
(0.656736 -0.0508975 -1.91958e-20)
(1.00995 -0.0030338 2.52012e-22)
(1.00732 0.000542761 -2.11667e-23)
(0.883652 -0.0272696 -9.95993e-22)
(1.029 -0.00395308 -2.66224e-21)
(0.457171 -0.0151498 -1.50712e-20)
(1.00293 5.64594e-05 0)
(1.01192 -0.00140343 -1.22156e-21)
(1.07589 -0.0510696 0)
(1.05724 -0.149753 0)
(0.98336 0.0429156 8.86381e-21)
(1.0057 -0.000238835 -2.26929e-22)
(0.994207 0.0967729 -6.76272e-22)
(0.6049 -0.0558873 5.61501e-22)
(1.02897 -0.0127393 -4.85691e-23)
(0.759947 -0.0603019 1.36753e-20)
(1.07015 -0.0256163 1.34286e-22)
(1.00711 -0.000495502 0)
(1.03102 0.0138019 4.89591e-22)
(-0.0438631 0.012838 0)
(1.0315 0.0751478 1.39979e-22)
(1.0289 -0.0271047 2.85445e-21)
(1.00607 -0.00029583 0)
(1.00787 0.000640438 -7.90123e-23)
(0.898752 -0.164675 5.02337e-21)
(1.05018 -0.0780325 -8.74653e-21)
(0.996739 -0.0135929 0)
(1.02391 -0.0236081 0)
(1.03439 0.0116078 0)
(1.01748 -0.000439527 -2.50129e-22)
(1.01201 -0.000836465 0)
(1.08617 -0.0537084 2.79247e-20)
(0.935988 -0.175785 1.14203e-20)
(1.06429 -0.0559286 -2.36779e-21)
(0.876613 0.205166 0)
(1.02647 -0.00725694 -7.18178e-21)
(1.06367 -0.0557263 2.44865e-21)
(1.07204 -0.0544659 0)
(0.707158 -0.0596789 1.79893e-20)
(1.02423 -0.022415 0)
(0.332163 -0.000373084 1.58672e-20)
(1.06424 -0.0607005 1.36206e-20)
(1.02949 -0.00361899 -2.37104e-21)
(0.203485 -0.107324 0)
(1.08077 -0.0395223 -2.21717e-22)
(0.63714 0.00935884 0)
(0.232013 0.226046 0)
(0.669573 -0.0644795 1.4053e-20)
(0.991087 -0.110698 -3.12367e-22)
(1.0287 -0.0488633 -5.56294e-21)
(1.00719 -0.000544311 3.06404e-22)
(1.01435 -0.0240027 1.80629e-21)
(-0.00913055 -0.185438 4.11128e-20)
(0.0975165 -0.121171 1.11081e-20)
(1.01116 -0.00277526 0)
(1.00186 2.37997e-05 7.44709e-24)
(1.07184 -0.050639 -2.23365e-22)
(0.997706 0.0230638 0)
(1.00805 0.000690154 0)
(-0.0102227 -0.208407 -2.9503e-20)
(1.00806 -0.000347559 -3.32961e-22)
(1.02006 -0.00728784 0)
(-0.0796661 -0.0549499 -2.02334e-20)
(0.445758 -0.0112954 -1.39773e-20)
(1.00312 -0.0865102 5.55919e-22)
(1.00768 -0.00127239 0)
(1.01956 -0.000869802 -5.44207e-21)
(0.00872695 -0.210315 1.79182e-20)
(1.06574 -0.0675017 -2.2145e-20)
(1.0798 -0.0601846 -1.35286e-20)
(1.01096 -0.00321831 -1.40184e-21)
(0.521722 -0.0381583 0)
(1.09456 -0.0885297 -1.00492e-20)
(0.656803 0.0443574 0)
(1.06682 -0.0480774 -2.45111e-21)
(1.06741 -0.0403501 1.78783e-20)
(1.02594 -0.0130882 -2.61499e-21)
(1.02872 -0.00478565 0)
(0.70348 0.256451 4.91409e-22)
(1.08009 -0.0409425 0)
(0.324142 -0.00952956 0)
(1.01246 0.0144592 3.3268e-21)
(1.06379 -0.0354168 0)
(-0.0450886 -0.0704239 -3.54866e-20)
(0.604248 0.00633197 0)
(0.493499 -0.0199883 -1.47424e-20)
(1.02344 -0.00470213 0)
(1.06485 -0.0306434 1.38239e-20)
(1.00776 -0.00139096 0)
(1.02092 -0.0344587 2.46431e-21)
(1.01814 -0.0152634 -2.00182e-22)
(0.544502 -0.166674 0)
(1.00971 -0.000111522 -2.92519e-21)
(0.453923 -0.0319197 -2.70103e-20)
(1.00785 0.000659834 -1.04342e-22)
(1.07518 -0.0506098 -1.0538e-20)
(1.01316 -0.00493509 1.32335e-21)
(1.08034 -0.0855729 1.60967e-20)
(1.06594 -0.0338104 1.70007e-20)
(1.06355 -0.0307648 1.31509e-21)
(0.590972 -0.0652125 -8.26281e-21)
(1.07133 -0.0405969 -8.08806e-24)
(1.01453 -0.0143464 3.31776e-21)
(1.00216 -3.92749e-05 -2.11935e-22)
(1.07418 -0.0508097 0)
(0.856613 -0.160423 -2.96683e-21)
(1.03555 -0.0584058 8.87115e-22)
(1.02763 -0.0206192 -6.76403e-23)
(0.436689 -0.00983057 0)
(1.01166 0.000720456 -2.60119e-22)
(0.288245 0.220076 0)
(0.987428 -0.0933275 -1.36654e-21)
(1.02348 -0.0108662 0)
(0.702066 -0.0557456 1.28222e-20)
(0.185883 0.147008 2.17994e-20)
(0.471455 -0.0179282 1.19615e-20)
(0.97906 -0.105485 9.59036e-22)
(1.01564 0.013462 -1.90613e-21)
(1.01105 -0.00328595 4.49462e-23)
(0.569054 -0.0452334 0)
(1.01431 -0.000230723 4.82461e-21)
(0.895157 0.241977 -3.55547e-21)
(0.466637 -0.0257586 0)
(1.00954 -0.00258834 1.35242e-22)
(1.04621 -0.0116709 9.36884e-21)
(1.09095 -0.0502986 0)
(0.949949 -0.0620157 -2.2148e-20)
(0.268239 0.021413 -2.23161e-21)
(1.02478 -0.00873257 0)
(1.00473 8.68455e-06 -7.05304e-22)
(0.69062 0.144135 0)
(0.483053 -0.0261671 0)
(1.06646 -0.0573095 -2.28872e-20)
(1.02894 -0.0261009 -3.07737e-21)
(1.01172 -0.00364722 4.53062e-22)
(0.97866 -0.119336 1.34293e-21)
(-0.112876 -0.0988325 3.08174e-20)
(1.07152 -0.0549809 0)
(1.00735 0.000555195 1.13968e-23)
(1.03002 -0.0506666 5.81836e-21)
(1.0068 -0.000870288 5.09399e-22)
(1.00434 -0.000154143 -4.20107e-22)
(1.02749 -0.037502 -4.76362e-23)
(1.00145 2.79738e-05 6.47149e-22)
(1.00887 -0.110779 8.88053e-21)
(0.926192 -0.0652882 2.1755e-22)
(1.02001 -0.00756789 6.07343e-22)
(1.01267 -0.00338159 -3.25215e-22)
(1.01121 -0.00331967 3.48933e-22)
(1.02386 -0.01771 0)
(0.367351 -0.0088617 -7.50265e-21)
(0.522904 -0.0711122 -8.23736e-21)
(1.04968 -0.0352952 0)
(0.326628 0.0112031 -9.9545e-21)
(1.01322 -0.00482385 -1.36795e-21)
(1.0475 -0.0358925 1.66958e-21)
(1.01088 -0.00308002 0)
(1.00691 -0.000918368 -2.22474e-23)
(1.01972 -0.0104503 0)
(1.01954 -0.00746497 -5.79435e-22)
(0.411596 -0.0147639 -1.61106e-20)
(1.02172 -0.00480896 0)
(1.07489 -0.0444194 -8.7588e-22)
(1.02355 -0.00506802 1.89663e-21)
(1.02968 -0.0278313 3.07787e-21)
(1.03337 -0.0401075 6.48585e-23)
(0.0414182 -0.18093 1.45742e-20)
(1.00453 -0.000265016 -9.36075e-23)
(0.49676 -0.0935824 3.02854e-22)
(0.991816 -0.0140785 2.05301e-21)
(1.0715 -0.0669824 0)
(1.03652 -0.0410047 3.61532e-21)
(1.04378 -0.0415254 0)
(0.316831 -0.00723235 -8.44357e-21)
(1.05252 -0.0284614 -3.95532e-21)
(1.02914 -0.0163331 8.76158e-22)
(0.551794 -0.179495 -5.52436e-21)
(0.837531 0.21494 -4.22592e-21)
(-0.0374071 -0.141795 -2.65818e-20)
(1.04919 -0.0483748 0)
(0.897312 -0.0481714 -8.85953e-22)
(1.01699 -0.0116117 -2.87815e-22)
(1.0706 -0.0396105 8.21981e-21)
(1.06643 -0.0470646 1.24274e-20)
(0.267439 0.0268188 0)
(1.00498 -0.000150904 4.4516e-22)
(0.145804 0.146519 -9.27466e-21)
(1.00916 -0.00218833 -1.67016e-22)
(1.00962 -0.00255531 0)
(0.209041 0.237926 0)
(1.01376 -0.000881493 -9.37675e-22)