/*--------------------------------*- C++ -*----------------------------------*\
| =========                 |                                                 |
| \\      /  F ield         | OpenFOAM: The Open Source CFD Toolbox           |
|  \\    /   O peration     | Version:  v2012                                 |
|   \\  /    A nd           | Website:  www.openfoam.com                      |
|    \\/     M anipulation  |                                                 |
\*---------------------------------------------------------------------------*/
FoamFile
{
    version     2.0;
    format      ascii;
    class       volVectorField;
    location    "200";
    object      U_0;
}
// * * * * * * * * * * * * * * * * * * * * * * * * * * * * * * * * * * * * * //

dimensions      [0 1 -1 0 0 0 0];


internalField   nonuniform List<vector> 
13851
(
(1.0135 -0.00966754 0)
(0.618229 0.247672 1.04078e-21)
(1.05646 -0.0683973 8.0315e-21)
(1.01394 -0.00859179 0)
(1.0642 -0.0544287 0)
(1.06601 0.0322818 0)
(1.03033 -0.00275811 0)
(1.04752 -0.0531005 7.60931e-21)
(1.00814 -0.000733582 2.80863e-22)
(1.02187 -0.0910029 -4.80531e-21)
(0.915331 -0.0592506 0)
(0.622153 -0.195964 -1.02647e-20)
(0.992928 -0.0600654 -5.0625e-21)
(0.204677 0.241897 -1.71885e-20)
(1.01883 -0.000705894 2.06881e-23)
(1.02596 -0.0379786 -5.93108e-24)
(1.03884 -0.0264863 3.06783e-21)
(1.02149 -0.022392 1.3474e-21)
(1.06067 -0.0497338 -5.9068e-21)
(1.008 -0.000774932 -5.70523e-22)
(1.01415 -0.0086745 -6.00274e-22)
(1.05769 -0.0657861 2.58719e-21)
(1.00286 7.39783e-05 2.0872e-22)
(1.00251 -6.36613e-05 -4.05737e-22)
(1.00213 3.94163e-06 0)
(1.04602 -0.0543012 -7.76461e-22)
(1.04953 -0.0202855 0)
(0.0245408 -0.130259 1.85588e-20)
(1.01382 -0.0101349 -4.24917e-23)
(1.02307 -0.0196195 -3.8762e-22)
(1.07364 0.0315951 0)
(1.03924 -0.0276032 0)
(1.05398 -0.0686675 -1.38162e-20)
(0.912878 0.199751 0)
(1.00322 -7.1515e-05 6.45145e-22)
(1.0866 -0.0655545 -8.27572e-21)
(1.09662 -0.0733502 -4.21534e-20)
(1.07825 -0.053404 0)
(1.02336 -0.0962133 1.83689e-21)
(0.926601 0.18412 1.47306e-21)
(1.01428 -0.00706408 1.40628e-22)
(1.00843 0.000721901 -1.17461e-22)
(-0.0367624 0.0243427 3.00576e-20)
(0.901689 -0.121309 0)
(0.894344 -0.102631 0)
(-0.0175108 -0.0905298 -7.76705e-22)
(0.899847 -0.153062 -2.08348e-21)
(0.841912 -0.109544 1.42253e-21)
(1.05048 -0.0209011 -1.30074e-20)
(1.05005 -0.0235552 7.87042e-22)
(1.0712 -0.052349 2.60142e-20)
(1.06682 -0.0589289 1.92413e-20)
(-0.0228312 -0.191409 0)
(1.0184 -0.000640092 -3.63623e-21)
(1.01013 -0.000720479 0)
(1.00867 0.000764272 0)
(1.00388 4.87928e-05 8.92209e-24)
(0.0028216 -0.187657 -4.72107e-20)
(1.0229 -0.0191556 -7.02277e-22)
(1.03098 -0.00548119 -3.00174e-21)
(1.08167 -0.0551223 0)
(0.489869 0.0565029 6.68809e-22)
(1.01779 -0.0508547 2.0833e-21)
(1.06525 -0.054787 7.95463e-22)
(0.99048 0.085168 6.19998e-21)
(1.01209 -0.00744234 -1.51485e-21)
(1.09418 -0.0746613 0)
(0.905445 -0.168489 -8.1105e-22)
(1.06198 -0.0364173 7.23412e-22)
(1.02078 -0.0226621 -8.64729e-22)
(0.318382 -0.00521705 3.24031e-20)
(1.03674 -0.0752928 0)
(0.649149 0.250633 -4.62845e-21)
(1.01836 -0.000664639 3.26566e-21)
(1.0112 -0.00120443 5.22482e-22)
(1.01003 -0.000948959 4.72173e-22)
(1.05711 -0.06446 0)
(0.470096 -0.0132677 2.72325e-20)
(1.05991 -0.0478305 -1.3886e-20)
(0.297707 -0.00835683 7.7085e-21)
(1.03368 -0.00967659 -6.76366e-21)
(0.902305 0.0393819 6.77559e-23)
(1.0204 -0.00499103 -6.71775e-21)
(-0.00196252 -0.114668 0)
(1.02335 -0.0519919 -2.71419e-21)
(0.665832 -0.205201 8.34067e-21)
(1.05265 0.00224701 -2.15719e-21)
(0.658979 -0.0619709 -1.84604e-20)
(1.04615 -0.0264716 0)
(1.01197 1.20947e-06 0)
(1.08572 -0.0650141 0)
(0.997084 -0.00702299 0)
(0.905039 -0.164328 -9.61159e-22)
(1.05037 -0.0311684 0)
(1.04673 -0.0256173 4.33904e-21)
(1.00221 1.47271e-05 -1.47215e-22)
(1.06466 -0.0543845 0)
(0.619749 -0.0632187 1.29154e-20)
(1.05008 -0.0325843 -7.8297e-22)
(1.00157 2.51039e-05 0)
(0.111288 0.156466 1.73147e-20)
(1.06537 -0.0469097 -7.79441e-21)
(1.01685 -0.012555 0)
(1.05646 -0.0125774 2.04019e-21)
(1.00381 9.76793e-05 0)
(1.05272 -0.0213691 6.02277e-22)
(1.06778 -0.0483142 0)
(1.00785 0.000640403 7.22414e-23)
(0.931297 -0.0715755 0)
(1.05229 0.0465795 -1.51135e-21)
(1.00157 -9.54013e-06 -3.01894e-22)
(1.01226 -0.000122602 0)
(1.00012 -0.00634344 -8.87227e-24)
(0.999982 4.21364e-05 0)
(1.00222 -2.0873e-05 0)
(0.91817 0.242427 3.58007e-21)
(0.65404 -0.06274 -3.46676e-21)
(1.00718 0.000426956 0)
(1.00392 -0.000233934 -2.23368e-23)
(1.00823 -0.000482481 5.91117e-22)
(-0.0300959 0.0180841 2.57965e-22)
(1.05535 -0.0130002 -3.16373e-21)
(0.961714 -0.0599738 0)
(0.921654 0.181526 -1.26488e-20)
(0.846313 -0.08605 -1.53534e-21)
(1.01284 0.000251041 2.98414e-22)
(0.836792 -0.0472794 -1.67304e-21)
(1.06257 -0.0473683 2.24876e-21)
(1.01433 -0.00813446 -7.80243e-22)
(1.0663 -0.0537825 -1.31091e-20)
(1.01415 -0.00684534 4.25117e-22)
(1.00727 -0.00109069 -1.27235e-22)
(0.339103 -0.0104837 -2.23762e-20)
(1.02041 -0.00470993 5.38376e-21)
(0.914034 0.231522 4.98768e-21)
(1.00699 -0.000488531 -1.11451e-22)
(1.00715 0.000385407 2.28498e-22)
(1.04629 -0.074898 3.21952e-21)
(0.0576844 0.203493 0)
(0.20761 0.171034 1.67006e-21)
(0.0502617 0.120118 -1.27317e-21)
(1.00969 -0.000681877 -1.03369e-21)
(1.01233 -0.00275967 1.17811e-21)
(1.01107 0.00116785 0)
(1.03174 -0.0207386 -1.43123e-21)
(0.908591 -0.14478 3.36541e-21)
(1.02646 0.0073739 -3.53206e-22)
(1.06721 -0.0536596 2.02542e-20)
(1.02958 -0.00272282 7.32216e-21)
(0.891915 -0.0619585 2.35764e-21)
(1.08508 -0.0503696 -3.34458e-20)
(1.00868 -0.000619054 -9.71682e-22)
(0.222625 0.241734 -2.55548e-20)
(1.00384 2.99813e-05 -6.12769e-22)
(1.03959 -0.017729 0)
(1.03103 -0.0204079 5.86402e-21)
(1.01022 -0.00313927 0)
(1.02409 -0.0182887 1.82784e-21)
(1.06614 -0.0586584 -1.91734e-20)
(1.07033 -0.0520039 -2.41993e-20)
(1.01136 0.0014462 -1.04875e-24)
(1.05755 -0.027871 0)
(-0.00556719 -0.192691 2.44998e-20)
(1.00715 -0.00103333 1.40717e-22)
(1.02263 -0.0230863 0)
(1.00967 0.000960126 -3.53545e-22)
(1.02769 0.00996083 3.39779e-22)
(1.06326 -0.0365725 3.95195e-22)
(1.0144 -0.00817372 0)
(0.46311 -0.0685714 0)
(0.453663 -0.00958514 -3.28392e-20)
(1.00594 -0.000195606 0)
(1.01035 -0.00330973 -4.8485e-22)
(0.189062 0.185077 -1.85014e-21)
(1.00697 -0.000943818 0)
(0.855564 -0.138127 2.51259e-21)
(1.06157 -0.0470859 6.85602e-21)
(1.0143 -0.00375076 0)
(1.0574 -0.0513182 -9.74231e-21)
(1.0085 0.000800106 0)
(1.03876 -0.0293979 -3.63669e-21)
(1.01744 -0.07416 0)
(1.02035 -0.00408062 0)
(1.0599 -0.0658653 -5.79055e-21)
(1.0072 0.000348705 -1.15863e-24)
(1.0026 3.25895e-05 0)
(1.01158 -0.0082954 0)
(1.01032 -0.000798445 -2.84524e-22)
(1.06478 -0.0555716 0)
(0.972186 -0.0568359 -4.92655e-21)
(0.902552 -0.168221 1.8232e-21)
(-0.0287021 -0.192202 0)
(1.01267 -0.000287231 -9.14031e-22)
(1.05829 -0.0382832 -2.96648e-21)
(0.552706 0.0539652 -4.05463e-22)
(1.03799 -0.017283 4.08928e-23)
(1.01229 -0.00233077 1.1359e-21)
(0.959259 0.0395645 -4.95464e-21)
(1.01378 -0.00345765 0)
(1.01014 -0.00103671 -4.7188e-22)
(1.01296 -0.000352712 -2.99661e-22)
(0.120818 -0.0470365 8.8777e-21)
(1.00171 -0.000100577 2.69013e-22)
(1.01677 -0.00568841 0)
(0.997416 -0.0642558 2.30503e-22)
(1.02078 -0.00430576 -6.23398e-21)
(0.488785 -0.0188475 -2.20622e-22)
(1.04139 -0.0266498 6.95494e-21)
(0.474192 -0.0254236 -1.92601e-20)
(1.00973 0.00109823 -3.61271e-23)
(0.733421 -0.0597567 -2.30287e-20)
(1.01679 -0.0121327 0)
(0.899345 0.0304059 -4.5504e-21)
(1.00821 0.000750822 -3.12006e-23)
(1.01066 0.00108508 0)
(0.941939 0.0140139 3.32005e-22)
(1.03155 -0.0450994 6.97693e-22)
(-0.0712785 -0.0877862 7.96892e-22)
(1.01889 -0.00153428 4.43387e-21)
(0.490026 -0.0281965 1.91143e-20)
(1.04123 -0.0273704 -1.27636e-20)
(1.03452 -0.0100224 9.61044e-21)
(0.756088 -0.063948 0)
(1.06459 -0.0559413 -1.62446e-22)
(0.629328 -0.0512001 0)
(1.0019 3.19069e-05 4.68851e-22)
(1.05177 -0.0347643 0)
(1.0031 5.38117e-05 8.44642e-23)
(-0.0738735 -0.161625 2.58488e-20)
(1.00846 0.000811976 1.32699e-22)
(1.04397 -0.0536686 -5.52169e-21)
(1.10292 0.00120321 2.16446e-21)
(1.00581 -0.000175494 -1.64114e-22)
(1.01241 -0.000100396 0)
(1.07252 -0.0499342 1.39001e-20)
(1.03204 -0.0169267 8.0634e-22)
(0.561545 -0.021045 -2.29477e-20)
(0.94468 0.0964503 -7.52744e-21)
(1.01109 0.00115637 0)
(1.0171 -0.00581065 9.05034e-22)
(1.08343 0.0109512 0)
(0.989517 -0.0924782 0)
(1.01423 0.00217166 0)
(0.994103 -0.0683638 -2.57043e-22)
(1.0047 0.000143946 -1.02161e-22)
(0.573417 -0.0440534 2.09037e-20)
(1.06486 -0.0477099 0)
(0.899376 0.162961 -4.16047e-21)
(1.02991 -0.0206458 2.8601e-21)
(1.03151 -0.0278584 0)
(1.02325 0.00630248 -7.67989e-22)
(0.971932 -0.0993449 0)
(1.02829 -0.013188 0)
(1.03064 -0.0210119 -1.48303e-21)
(1.07227 -0.045259 -1.69236e-20)
(0.929254 -0.0709236 0)
(0.973871 -0.0493558 4.79573e-21)
(1.02985 -0.0744261 -1.3783e-20)
(0.483889 -0.0240992 1.04237e-21)
(1.02178 -0.0016211 0)
(1.01068 0.00110338 0)
(1.01923 -0.0217023 0)
(0.89764 0.188654 0)
(1.01196 0.000676747 -5.20093e-22)
(1.01487 -0.0424933 0)
(1.03736 -0.0174376 -1.196e-20)
(1.02833 -0.0127087 -3.02222e-21)
(1.05022 -0.0303367 0)
(0.794741 -0.0649202 0)
(1.00136 0.00433389 1.15199e-21)
(1.02467 0.0047713 1.57009e-23)
(1.03887 -0.0180183 -1.22517e-20)
(0.966863 0.122881 2.76925e-22)
(1.05939 -0.0466714 -1.36137e-20)
(1.02533 -0.036355 -3.17288e-21)
(1.00743 -0.00118353 2.61354e-22)
(0.894001 0.0111397 1.03538e-21)
(1.00524 0.0229686 -1.14497e-21)
(0.635958 -0.053569 0)
(0.912724 -0.0274837 1.01406e-21)
(1.0146 0.00218816 0)
(1.00943 0.00102368 0)
(1.00406 9.96004e-05 0)
(1.07211 -0.0443376 5.69791e-21)
(0.900291 0.184879 0)
(0.872652 -0.173402 3.30643e-21)
(1.00911 -0.00100918 6.76181e-22)
(1.01976 -0.000358579 -1.18957e-21)
(0.979055 0.118471 -1.31361e-21)
(0.925468 -0.0252974 -1.28064e-21)
(1.06831 -0.0524935 1.24124e-20)
(1.02318 -0.0188735 9.19446e-22)
(1.0312 -0.00595243 0)
(1.06132 -0.0396192 0)
(0.931737 0.00896371 1.00034e-21)
(1.02988 -0.046615 9.8165e-21)
(1.02386 -0.0240676 0)
(0.657001 -0.208963 -5.98205e-22)
(1.00768 -0.00132935 1.38903e-22)
(0.595713 -0.0466741 -1.98418e-20)
(1.05727 -0.0271434 1.18849e-20)
(1.03766 -0.0262346 3.11821e-21)
(0.651867 -0.056201 1.76587e-20)
(1.01871 -0.0109128 8.31074e-22)
(1.05846 -0.014261 0)
(0.67215 -0.0518635 7.60157e-21)
(1.00885 -0.00098225 0)
(1.06892 -0.041704 -8.59942e-21)
(1.04941 -0.0318622 0)
(1.02294 -0.0183988 -4.31663e-22)
(0.0798932 0.188963 -9.03682e-21)
(1.02338 -0.0240449 -1.26821e-21)
(1.02669 -0.0129041 -5.28034e-21)
(0.718348 -0.0654163 5.78312e-21)
(1.00874 0.000790907 1.53397e-22)
(1.03198 -0.0287254 -1.35444e-21)
(1.01327 -0.00190493 -1.25403e-21)
(0.68407 -0.0572958 -1.58122e-20)
(1.08396 -0.0600971 0)
(1.01914 -0.00169569 0)
(1.06804 -0.0465591 0)
(1.01965 -0.00116951 0)
(0.510967 -0.0364625 -9.60992e-21)
(1.02342 0.0127286 -1.02543e-21)
(1.00293 6.05407e-05 -1.10066e-22)
(1.0114 -0.00366577 -7.4639e-22)
(1.08286 -0.059632 0)
(1.05139 -0.0334641 -1.4277e-20)
(1.04052 -0.0166456 -7.80112e-21)
(1.01962 -0.000239419 -1.17559e-21)
(1.01879 -0.0107783 0)
(1.02611 -0.0127056 4.57028e-21)
(0.904373 -0.0724646 8.06358e-22)
(0.383659 0.232037 0)
(0.476236 -0.0378229 6.24571e-21)
(1.01627 -0.0268355 8.81916e-22)
(0.697457 -0.0592275 -7.43393e-21)
(0.859977 -0.0109497 0)
(1.01872 -0.000690724 -1.85548e-21)
(1.05781 -0.0393723 -3.05867e-21)
(1.06956 -0.0521156 -1.25145e-20)
(0.996562 -0.0160884 1.73659e-21)
(1.04526 -0.014103 5.80372e-22)
(1.06928 -0.0584164 0)
(1.05905 -0.0476245 3.33124e-21)
(1.01005 0.000450165 0)
(0.857784 0.199428 1.76905e-20)
(0.642224 -0.049003 0)
(1.01883 -0.000569546 0)
(1.03535 -0.0198947 1.48068e-22)
(1.03051 -0.0264725 -9.07222e-23)
(1.09398 -0.0994025 0)
(1.04102 -0.0162562 7.88481e-21)
(1.05013 -0.0120852 -5.21904e-21)
(-0.0758881 -0.167155 -3.2183e-20)
(1.01056 -0.00346377 1.79427e-22)
(0.849211 0.185814 -9.60381e-21)
(1.01136 -0.0035253 -8.31583e-22)
(1.01952 -0.00108103 1.05913e-21)
(1.00527 0.000177682 1.40253e-22)
(1.00804 0.00068966 -3.54627e-23)
(1.00976 -0.00289393 6.51272e-23)
(0.677426 -0.0527213 2.56357e-20)
(0.971022 -0.0427467 0)
(1.01901 -0.00764611 1.16886e-21)
(1.06856 -0.0405142 -6.92861e-22)
(1.0095 0.000906533 0)
(0.61236 -0.21845 0)
(1.01583 -0.0375355 -2.48328e-22)
(0.877716 -0.198548 -1.25691e-21)
(0.483381 -0.0579512 -4.48554e-21)
(1.01895 -0.00790419 1.14273e-21)
(1.03651 -0.0480763 -2.80277e-21)
(1.04722 -0.0327725 -6.28559e-21)
(0.871567 -0.190731 -7.74914e-22)
(1.01339 -0.00603914 -2.22422e-22)
(1.00719 0.000448705 0)
(1.00914 0.00855402 0)
(0.223173 0.122366 2.23891e-20)
(1.01076 -0.000981102 0)
(0.125585 0.16615 0)
(0.994282 -0.0124866 0)
(1.06897 -0.0592416 0)
(0.402865 -0.0768933 0)
(1.01377 -0.0644467 3.0798e-23)
(1.02494 -0.0558991 4.64679e-22)
(1.02249 -0.00471989 -1.00256e-21)
(1.00778 -0.0014019 -5.76438e-23)
(1.01772 -0.000379828 -3.89761e-21)
(1.01575 -0.0249785 0)
(1.06887 -0.0460765 0)
(0.239698 0.236881 1.89241e-20)
(1.06498 -0.035699 0)
(0.671605 -0.0547603 1.53552e-20)
(0.666128 -0.0517579 8.04449e-21)
(1.00945 0.000910869 -2.14984e-22)
(1.02221 -0.00165809 -5.18034e-21)
(0.450267 -0.0501646 -1.68102e-21)
(0.331741 -0.00932285 0)
(1.11611 -0.0230579 -2.94735e-21)
(0.681337 -0.0638337 0)
(1.00894 0.0109516 7.48787e-22)
(1.04785 -0.0339028 0)
(1.00165 1.60649e-05 -6.8966e-23)
(0.90716 -0.0204216 0)
(1.00708 -0.000359468 -3.58467e-22)
(1.02763 -0.038197 2.44676e-21)
(1.02074 -0.00448494 1.70952e-21)
(1.0278 -0.00409056 0)
(1.00344 5.62065e-05 1.9303e-23)
(1.00873 -0.000884632 8.92247e-22)
(1.00969 0.000952436 -2.26059e-22)
(1.06542 -0.0546629 -1.79237e-21)
(1.033 -0.00669005 3.84098e-21)
(0.534679 -0.0580518 -3.62121e-20)
(1.01929 -0.0235703 7.10658e-22)
(1.0684 -0.0476569 0)
(1.01514 0.00875756 -3.79307e-21)
(0.956982 -0.0827455 -3.4057e-22)
(1.02966 -0.0289503 4.94512e-23)
(1.0832 -0.106845 0)
(1.03718 -0.0253524 8.83086e-21)
(0.950008 0.0363149 -3.38574e-22)
(1.00718 0.000374243 -1.93453e-22)
(1.0085 -0.000858654 -1.67776e-22)
(1.00189 1.22822e-05 0)
(1.09385 -0.0533327 0)
(0.903257 -0.205821 3.6288e-21)
(1.06463 -0.0551685 1.29587e-20)
(1.01271 0.0063542 2.48007e-21)
(0.525133 -0.0563684 2.87539e-20)
(0.91003 0.197927 3.48379e-21)
(1.05074 -0.00558065 1.25493e-21)
(1.00741 -0.000497329 9.27594e-22)
(1.07358 -0.0500945 0)
(1.01324 -0.0058024 2.2359e-22)
(0.940715 -0.0858425 1.56818e-22)
(1.00378 9.00453e-05 0)
(1.01986 -0.135815 -1.70808e-20)
(0.884517 -0.102377 0)
(1.04841 -0.0694011 5.11591e-22)
(0.473914 -0.0224608 0)
(1.01351 -0.00374363 -6.33564e-22)
(1.02409 0.0290127 4.6371e-22)
(0.886138 -0.125603 2.12124e-21)
(0.377162 0.126541 5.3437e-20)
(1.00748 0.000379149 2.0368e-23)
(1.04879 -0.0362062 0)
(1.06095 -0.0479927 7.57706e-21)
(0.998276 0.00840391 -1.24037e-21)
(1.00645 -0.000296405 -1.65359e-22)
(1.02545 -0.0129111 6.37238e-21)
(1.08481 -0.0490394 -2.13243e-20)
(1.06765 -0.058563 0)
(1.02234 -0.0274 0)
(0.389017 -0.224116 0)
(1.00236 5.50877e-05 -1.00796e-21)
(1.0116 -0.0038358 -9.25228e-22)
(-0.0740085 -0.0471652 -3.5038e-22)
(1.02231 -0.0225091 5.20559e-23)
(1.00917 0.00096517 -5.35693e-23)
(0.592756 -0.0745919 0)
(1.00766 -0.00132312 1.17429e-22)
(1.01362 -0.00912573 5.21734e-22)
(1.00694 -0.000466045 -3.12509e-22)
(1.01524 -0.0172886 9.43489e-22)
(1.0231 -0.0168836 -1.22384e-21)
(1.00947 0.00104657 3.84489e-23)
(1.01309 -0.00333749 -6.1075e-22)
(0.743287 -0.0666927 2.18033e-21)
(1.02078 -0.00533428 0)
(1.0651 -0.0380433 0)
(1.00729 -0.000563273 1.44363e-22)
(1.02159 -0.013757 -7.54488e-22)
(0.995446 0.0484464 -1.14032e-22)
(0.999735 5.02587e-06 0)
(1.01292 -0.00586411 1.65133e-22)
(1.00031 5.69215e-05 0)
(1.00022 7.28093e-07 6.53276e-22)
(0.893627 -0.143659 9.78688e-22)
(1.02902 -0.012264 0)
(1.06306 0.00857301 -6.07696e-22)
(1.02033 -0.00377931 -1.25729e-21)
(1.0024 4.86673e-05 -2.63636e-22)
(0.0499806 0.195784 -2.63004e-20)
(0.458896 -0.0199048 6.63126e-21)
(1.02164 -0.00450332 -1.52173e-21)
(1.0216 -0.0159973 0)
(1.03045 -0.0297888 -5.48119e-21)
(1.00735 -0.105177 1.97491e-21)
(-0.0342616 -0.107442 0)
(1.01167 -0.00400563 0)
(0.967874 -0.0871204 -6.44743e-21)
(1.0137 -0.00631107 0)
(1.06315 -0.0562334 0)
(1.02888 -0.0052945 0)
(-0.124953 -0.126306 1.9357e-20)
(1.0069 0.00028694 -1.67043e-22)
(-0.0257069 -0.182204 3.07884e-20)
(0.970709 -0.0355784 -7.6553e-21)
(1.00846 0.000731826 1.34421e-22)
(1.01854 -0.0170384 1.32232e-21)
(0.538785 -0.0740641 -1.05425e-20)
(1.04271 -0.0551806 1.26948e-20)
(0.90251 0.120876 4.64464e-21)
(1.00503 -0.000293272 7.77671e-23)
(0.891047 0.21681 7.89252e-21)
(1.00917 -0.000584638 -1.57166e-22)
(1.00659 -0.000772262 -1.97344e-22)
(1.00762 -0.0012744 1.5631e-22)
(1.02807 -0.00250143 0)
(0.356059 -0.0148935 0)
(1.0693 -0.0506018 -1.51838e-21)
(1.07263 -0.0612318 1.76049e-20)
(1.06507 -0.0619491 4.1017e-22)
(1.02621 -0.0457749 3.15788e-21)
(1.01164 0.00150431 0)
(0.850322 -0.0408554 0)
(0.906443 -0.199393 1.13104e-20)
(1.03992 -0.0297343 3.96983e-21)
(1.05683 -0.028658 1.51519e-22)
(1.02348 -0.0903159 -2.27632e-21)
(0.900297 0.190599 5.86585e-21)
(0.78048 -0.0624713 0)
(1.01636 -0.000413034 0)
(-0.130772 -0.12668 8.46437e-21)
(0.0246468 -0.103381 -1.50234e-21)
(0.0358862 -0.0423584 -6.55435e-21)
(1.02284 -0.0237151 9.17852e-22)
(1.01795 -0.0190536 -2.5944e-21)
(0.902554 -0.0110143 2.11752e-20)
(1.01682 0.0316127 8.10502e-24)
(0.922237 -0.054989 2.3575e-21)
(0.935613 0.0592148 2.65836e-24)
(0.926143 -0.121926 -2.18859e-20)
(1.02377 -0.0185121 -1.99298e-21)
(0.905117 -0.112599 2.20506e-20)
(1.01062 -0.0721148 -3.61594e-22)
(1.00712 0.000327452 -1.90557e-22)
(1.01184 0.0239059 3.31119e-22)
(1.0702 -0.0508873 0)
(0.435722 -0.0128632 1.10584e-20)
(1.02942 -0.0210854 1.41619e-21)
(1.01676 -0.00397766 -1.64169e-21)
(1.01002 -0.00300719 -2.817e-22)
(1.01533 -0.00680977 1.18097e-21)
(1.0646 -0.0551927 0)
(1.02547 -0.0152952 -8.04086e-22)
(0.685702 -0.0328835 1.63813e-20)
(0.400963 -0.228612 7.0249e-22)
(1.00627 -0.0003409 1.88776e-22)
(-0.0601218 -0.0244928 2.13909e-20)
(0.511109 -0.0250727 1.22319e-20)
(1.06884 -0.0518705 3.93412e-22)
(0.89767 -0.180905 -2.57575e-21)
(1.06388 -0.0378727 -4.1496e-22)
(1.00867 0.000840594 3.57133e-23)
(1.00839 -0.000775177 0)
(1.03895 0.0261807 0)
(0.814403 -0.0407783 0)
(1.04047 -0.0182265 2.52153e-21)
(1.08241 -0.0550395 1.09918e-20)
(1.08211 -0.0653017 0)
(1.00865 0.000763661 0)
(1.0174 0.0173319 -2.61742e-21)
(0.866022 0.151414 -4.54373e-21)
(1.09416 -0.0964874 2.53809e-20)
(1.06719 -0.0573093 -7.98392e-22)
(0.366965 -0.0166962 0)
(1.00909 -0.0727047 1.32456e-20)
(1.01384 -0.00654831 4.53855e-22)
(1.02824 -0.00381599 0)
(0.506307 -0.0576706 -2.45199e-22)
(0.654253 -0.0508896 8.98284e-21)
(1.07957 -0.0612412 1.51136e-20)
(1.06582 -0.0348496 -2.36198e-20)
(1.01252 -0.0568864 0)
(1.00828 0.000742097 -4.2465e-23)
(1.01323 -0.00413361 8.69234e-22)
(0.998412 -0.127112 0)
(1.00836 0.000718348 -2.0679e-22)
(1.02874 -0.0206746 -1.31166e-21)
(1.00847 0.000803008 0)
(1.00778 -0.00114855 -5.22631e-23)
(0.993029 -0.0723881 -3.4946e-21)
(1.06492 -0.0547864 -1.111e-20)
(1.01393 0.0029299 0)
(1.00836 0.000722106 2.06045e-22)
(0.182611 0.14696 -9.55688e-21)
(0.967832 -0.0153208 1.43157e-20)
(1.00787 -0.00146847 0)
(1.00433 4.90332e-05 0)
(1.01206 0.000554958 5.55537e-22)
(1.01832 -0.000485871 7.4307e-21)
(0.204872 0.0711639 0)
(0.90465 0.126457 2.62416e-22)
(0.893694 0.0893735 4.57067e-21)
(-0.0104889 -0.0165709 0)
(0.896103 0.216374 -7.55045e-21)
(1.06504 -0.0330947 1.36578e-20)
(0.416569 -0.00863053 1.97867e-20)
(0.452145 -0.0210024 -1.22282e-20)
(1.00883 0.00057989 2.27986e-23)
(1.06135 -0.0374078 -1.21863e-20)
(1.00879 0.00086131 -3.59814e-23)
(1.01278 -0.00115699 0)
(1.03074 -0.0426537 -5.75725e-21)
(0.792679 -0.0647239 -1.48777e-20)
(0.871744 0.194525 0)
(1.08138 -0.0546198 1.15196e-20)
(1.04291 -0.0352794 0)
(1.00766 -0.000659737 4.73289e-22)
(1.02284 -0.0347342 -1.65105e-21)
(1.01228 0.000359322 0)
(0.907611 0.143378 -7.57049e-21)
(1.06817 -0.0525181 0)
(1.01995 -0.00354788 6.06038e-21)
(1.01821 -0.0275391 -8.76388e-22)
(1.00635 -0.000296885 -3.29614e-22)
(1.05164 -0.0289916 -4.28165e-21)
(1.06469 -0.0546876 -2.34085e-20)
(1.03019 -0.00531098 8.41567e-21)
(1.01295 -0.00557181 6.4903e-22)
(1.01686 -0.0398428 0)
(1.02746 -0.00827979 1.49137e-21)
(1.06418 -0.0549301 1.00005e-20)
(1.09604 -0.0590418 0)
(1.06515 -0.0559551 2.50426e-21)
(1.02043 -0.0326536 -6.39793e-22)
(1.0804 -0.0618572 0)
(1.00746 -0.000635313 -4.78153e-22)
(1.09787 -0.0405312 9.33929e-22)
(1.02231 0.00945208 3.42831e-23)
(-0.055259 -0.0152032 0)
(1.01711 -0.0121403 -5.93125e-24)
(1.00219 -1.14484e-05 -5.4113e-22)
(0.960236 -0.0718014 1.53047e-20)
(1.01996 -0.0175255 -4.69568e-22)
(0.387214 -0.0907235 0)
(0.608174 -0.0458479 -1.8122e-20)
(-0.118293 -0.0934154 1.986e-20)
(0.565138 -0.0544574 -8.66962e-21)
(1.00696 -0.000362699 1.8169e-22)
(1.01308 -0.0743577 0)
(1.0152 0.0023694 0)
(1.00768 -0.00125187 1.60035e-23)
(1.00687 0.000284751 9.28913e-23)
(1.00782 -0.00127931 1.37892e-22)
(1.02014 0.00349953 0)
(1.01843 -0.0245816 -6.016e-22)
(1.01741 -0.0180465 -1.24762e-21)
(1.0081 0.000680737 -2.01884e-22)
(0.861678 -0.0370923 9.14075e-21)
(0.967362 -0.0427198 7.97609e-21)
(0.832026 -0.0229922 0)
(1.0095 -0.00241927 0)
(1.00663 0.000272592 6.42203e-23)
(1.00399 0.00010542 7.25994e-22)
(1.07082 -0.0535977 0)
(0.583672 0.0602267 -1.35402e-21)
(1.07697 -0.0443198 3.05895e-20)
(1.05147 -0.0296721 1.26847e-20)
(1.01535 0.00252662 0)
(1.00216 3.72002e-05 -4.86176e-22)
(1.00507 -0.000196853 9.55733e-23)
(1.01056 -0.00319446 6.42136e-22)
(1.06787 -0.0682574 1.92618e-20)
(0.321075 -0.0849084 0)
(1.02694 -0.00798607 -1.50994e-21)
(1.00811 0.000685491 0)
(1.02842 -0.00215078 0)
(1.0105 -0.00324266 -4.68415e-22)
(1.07164 -0.140744 -7.51204e-21)
(-0.0194843 -0.198416 -3.1137e-21)
(1.02352 -0.0362942 1.49758e-21)
(0.581741 -0.0600538 0)
(0.887365 0.211652 5.70171e-22)
(1.01279 -0.00533949 -2.20752e-22)
(1.07187 -0.0605082 -1.04029e-20)
(0.332429 0.14696 -1.07025e-19)
(1.06196 -0.0386404 0)
(0.630141 -0.18544 -4.98497e-21)
(1.03302 -0.00991938 6.46804e-21)
(1.02008 -0.021872 4.05495e-22)
(1.07602 -0.0440205 -2.74953e-20)
(1.01863 -0.0224279 0)
(0.921032 0.012092 9.5585e-21)
(1.0212 -0.0042612 1.34282e-21)
(0.901793 0.0678306 -1.8354e-22)
(1.00365 7.46976e-05 0)
(1.07131 -0.0257387 7.32099e-21)
(0.495426 -0.027123 2.1908e-20)
(1.01086 -0.000546493 -1.84765e-21)
(1.01856 -0.0156467 -6.76414e-22)
(1.00627 -0.0538772 4.01515e-21)
(1.00677 -0.000847174 3.97989e-22)
(1.03841 -0.0283253 0)
(0.946636 0.146204 7.08868e-21)
(0.202525 0.222563 4.99433e-21)
(1.06746 -0.0522594 -8.30052e-22)
(1.03898 -0.0417995 0)
(0.999489 -0.081663 -4.41016e-22)
(1.00822 0.000748743 6.58949e-23)
(1.00929 -0.0023086 0)
(0.00179574 0.179145 -6.82057e-20)
(1.0826 -0.0647224 5.17188e-21)
(1.03379 -0.0141489 8.78891e-22)
(0.629903 -0.0484182 2.9769e-20)
(1.00834 -0.000363458 3.36214e-22)
(1.01464 -8.18178e-05 0)
(1.0071 0.000330742 -1.42645e-23)
(0.895637 0.210792 0)
(1.08481 -0.0741766 0)
(1.02465 -0.0230024 -1.44131e-21)
(1.01465 -0.00874595 0)
(0.983793 0.0419456 -2.99149e-22)
(1.04714 -0.022231 0)
(1.00421 0.000118402 -5.37146e-22)
(-0.0532004 -0.0253013 -4.96827e-20)
(0.926645 -0.0830143 -6.96413e-23)
(0.577483 -0.0445744 0)
(1.00873 0.000782447 6.11376e-24)
(1.027 -0.00755801 2.79145e-21)
(0.436958 -0.0105858 -1.6126e-20)
(0.0108466 -0.211215 0)
(1.08426 -0.0637278 0)
(1.01244 0.000200679 0)
(0.907945 -0.0695996 1.8529e-22)
(1.02085 -0.00469366 4.55665e-21)
(0.962094 0.0343277 -3.90733e-22)
(1.07433 -0.0793057 -3.50004e-21)
(1.04978 -0.071963 7.94566e-21)
(1.03213 -0.0262778 4.08483e-21)
(-0.09624 -0.0953812 5.65469e-22)
(1.02457 -0.00157031 2.38821e-21)
(1.01594 0.00292969 0)
(1.09232 -0.0722224 2.03811e-20)
(1.00238 -2.52192e-06 -5.28276e-22)
(1.00092 -4.47236e-05 3.1702e-22)
(1.02332 -0.0174103 1.23725e-21)
(1.00737 -0.00057491 1.00059e-24)
(-0.0657384 -0.0499405 0)
(1.03535 -0.0399902 -4.40574e-21)
(1.06779 -0.0579903 1.49663e-20)
(1.01227 0.00133008 -1.14819e-21)
(0.999677 0.0271813 1.1206e-21)
(1.00777 -0.000737921 3.11807e-22)
(0.90874 0.173252 -5.94573e-21)
(1.00378 -0.000161262 0)
(1.02459 -0.00342752 3.75224e-22)
(1.00644 0.000242333 2.42873e-22)
(1.01237 -0.00491992 9.06393e-24)
(1.00903 -0.00074903 0)
(0.656784 -0.050735 -1.90866e-20)
(1.00995 -0.00303272 2.80036e-22)
(1.00732 0.000542168 -2.12924e-23)
(0.883102 -0.0260961 -1.08575e-21)
(1.029 -0.00395457 -2.65763e-21)
(0.45732 -0.015114 -1.49858e-20)
(1.00293 5.64146e-05 0)
(1.01192 -0.00137627 -1.25155e-21)
(1.07589 -0.0510602 0)
(1.05676 -0.150407 0)
(0.983554 0.0408199 8.88271e-21)
(1.0057 -0.000238655 -2.3576e-22)
(0.995716 0.0960697 -6.97952e-22)
(0.605331 -0.0549489 5.6007e-22)
(1.02897 -0.0127381 -4.84679e-23)
(0.759987 -0.0601323 1.36018e-20)
(1.07015 -0.0256247 1.34176e-22)
(1.00711 -0.000495173 0)
(1.03121 0.0136348 4.96442e-22)
(-0.0437806 0.0123008 0)
(1.03288 0.0742803 1.48522e-22)
(1.02891 -0.027088 2.84904e-21)
(1.00607 -0.000295776 0)
(1.00786 0.000640815 -7.94203e-23)
(0.898233 -0.163641 5.01314e-21)
(1.04999 -0.0782206 -8.73654e-21)
(0.997011 -0.013349 0)
(1.02393 -0.023603 0)
(1.03454 0.0113864 0)
(1.01748 -0.000439554 -2.49323e-22)
(1.01201 -0.000810991 0)
(1.08614 -0.053722 2.78811e-20)
(0.935662 -0.176913 1.13408e-20)
(1.0644 -0.0560137 -2.37098e-21)
(0.876939 0.204172 0)
(1.02647 -0.00725683 -7.16644e-21)
(1.06376 -0.0558084 2.45196e-21)
(1.07205 -0.0544347 0)
(0.707334 -0.0597654 1.79254e-20)
(1.02425 -0.0224159 0)
(0.334023 -0.00295204 1.59028e-20)
(1.06441 -0.0604098 1.36019e-20)
(1.02949 -0.00362055 -2.36707e-21)
(0.201254 -0.105779 0)
(1.08037 -0.0404078 -1.56989e-22)
(0.638462 0.00998445 0)
(0.230498 0.225661 0)
(0.669552 -0.064075 1.3967e-20)
(0.990421 -0.110811 -3.03148e-22)
(1.02863 -0.0488216 -5.54571e-21)
(1.00719 -0.000543788 3.16032e-22)
(1.01426 -0.0239956 1.81594e-21)
(-0.00938697 -0.185138 4.13137e-20)
(0.0953084 -0.119565 1.09997e-20)
(1.01116 -0.00277351 0)
(1.00186 2.37982e-05 7.63823e-24)
(1.07185 -0.050629 -2.22528e-22)
(0.997676 0.0218169 0)
(1.00805 0.000689369 0)
(-0.0103027 -0.20854 -2.96172e-20)
(1.00806 -0.000348021 -3.40262e-22)
(1.02006 -0.00728814 0)
(-0.0789654 -0.0550014 -2.01154e-20)
(0.445885 -0.0112622 -1.38972e-20)
(1.00259 -0.0867875 5.42453e-22)
(1.00768 -0.00127196 0)
(1.01956 -0.000870183 -5.42799e-21)
(0.00865395 -0.210511 1.80009e-20)
(1.06565 -0.0673357 -2.20677e-20)
(1.07975 -0.0601583 -1.35005e-20)
(1.01097 -0.00317695 -1.44542e-21)
(0.522448 -0.0369207 0)
(1.09441 -0.0892232 -1.00683e-20)
(0.658578 0.0440261 0)
(1.06684 -0.0480874 -2.44931e-21)
(1.06741 -0.040362 1.78629e-20)
(1.02594 -0.0130875 -2.60798e-21)
(1.02872 -0.00478696 0)
(0.702368 0.256648 5.67797e-22)
(1.08009 -0.0409516 0)
(0.324307 -0.00954265 0)
(1.01266 0.0145128 3.43235e-21)
(1.06379 -0.0354293 0)
(-0.0451559 -0.0700839 -3.51629e-20)
(0.605515 0.00712202 0)
(0.493587 -0.0199171 -1.46586e-20)
(1.02344 -0.00470218 0)
(1.06485 -0.0306537 1.38122e-20)
(1.00776 -0.00139084 0)
(1.02093 -0.0343868 2.45416e-21)
(1.01813 -0.0152654 -1.90086e-22)
(0.543718 -0.168136 0)
(1.00971 -0.000111541 -2.91658e-21)
(0.45407 -0.0319521 -2.68909e-20)
(1.00785 0.000659119 -1.04932e-22)
(1.07518 -0.0506001 -1.05245e-20)
(1.01316 -0.0049342 1.3051e-21)
(1.08021 -0.0861257 1.61344e-20)
(1.06594 -0.0338217 1.69862e-20)
(1.06355 -0.0307753 1.31396e-21)
(0.591212 -0.0643211 -8.21492e-21)
(1.07133 -0.040606 -8.00221e-24)
(1.01474 -0.0143154 3.30219e-21)
(1.00216 -3.92386e-05 -2.19669e-22)
(1.07418 -0.0507987 0)
(0.855786 -0.159494 -2.83812e-21)
(1.03505 -0.0586609 8.92756e-22)
(1.02763 -0.0206158 -6.7739e-23)
(0.436798 -0.00980274 0)
(1.01166 0.000723705 -2.61267e-22)
(0.286702 0.219714 0)
(0.987064 -0.0949093 -1.35526e-21)
(1.02348 -0.0108661 0)
(0.70219 -0.0557059 1.27607e-20)
(0.185722 0.150414 2.17338e-20)
(0.471593 -0.0178828 1.18938e-20)
(0.978368 -0.10526 9.1948e-22)
(1.01584 0.0134688 -1.96849e-21)
(1.01105 -0.00328362 4.72408e-23)
(0.569026 -0.0450117 0)
(1.01431 -0.000230754 4.80979e-21)
(0.895242 0.242505 -3.49533e-21)
(0.466816 -0.0257476 0)
(1.00954 -0.00258715 1.48773e-22)
(1.04621 -0.0116743 9.35925e-21)
(1.09136 -0.0507957 0)
(0.949927 -0.0646913 -2.20965e-20)
(0.269676 0.0187312 -2.24206e-21)
(1.02478 -0.00873185 0)
(1.00473 8.74224e-06 -7.18396e-22)
(0.691074 0.146696 0)
(0.483224 -0.0261392 0)
(1.06654 -0.0572299 -2.28705e-20)
(1.02894 -0.0260863 -3.07166e-21)
(1.01172 -0.00361909 4.67481e-22)
(0.978176 -0.120497 1.33185e-21)
(-0.11201 -0.0979592 3.06782e-20)
(1.07153 -0.0549444 0)
(1.00735 0.000554571 1.14627e-23)
(1.02994 -0.0506335 5.80034e-21)
(1.0068 -0.000870576 5.41668e-22)
(1.00434 -0.000154135 -3.94531e-22)
(1.02709 -0.0377005 -4.89783e-23)
(1.00145 2.79625e-05 6.58101e-22)
(1.00896 -0.111721 8.8933e-21)
(0.925628 -0.0644054 2.12587e-22)
(1.02001 -0.00756831 6.0473e-22)
(1.01264 -0.00336117 -3.3385e-22)
(1.01121 -0.00331713 3.66335e-22)
(1.02387 -0.0177141 0)
(0.367563 -0.00886113 -7.46164e-21)
(0.523192 -0.0699592 -8.17799e-21)
(1.04967 -0.0353052 0)
(0.328594 0.00849112 -9.9932e-21)
(1.01322 -0.00482304 -1.34825e-21)
(1.04749 -0.0359008 1.66795e-21)
(1.01088 -0.00307793 0)
(1.00691 -0.000918697 -2.22535e-23)
(1.01972 -0.0104517 0)
(1.01954 -0.00746556 -5.76942e-22)
(0.411797 -0.0147576 -1.60236e-20)
(1.02172 -0.00480859 0)
(1.07489 -0.0444239 -8.74954e-22)
(1.02355 -0.00506794 1.89188e-21)
(1.02968 -0.0278139 3.07241e-21)
(1.03298 -0.0404411 7.38018e-23)
(0.0414342 -0.181143 1.46665e-20)
(1.00453 -0.000264958 -6.95827e-23)
(0.496382 -0.0908551 2.5033e-22)
(0.992088 -0.0137819 2.04587e-21)
(1.07148 -0.0666992 0)
(1.03648 -0.0409932 3.60961e-21)
(1.04375 -0.0415337 0)
(0.317009 -0.00724031 -8.40496e-21)
(1.05252 -0.0284692 -3.95164e-21)
(1.02924 -0.0165178 8.68841e-22)
(0.550867 -0.180883 -5.4982e-21)
(0.838216 0.215753 -4.16677e-21)
(-0.0373785 -0.141741 -2.6616e-20)
(1.04916 -0.0484101 0)
(0.897252 -0.046466 -8.83455e-22)
(1.01699 -0.0116101 -2.81803e-22)
(1.0706 -0.0396201 8.2126e-21)
(1.06644 -0.0470768 1.24186e-20)
(0.269009 0.0241067 0)
(1.00498 -0.000150756 4.64391e-22)
(0.145682 0.144266 -9.27868e-21)
(1.00916 -0.00218755 -1.80502e-22)
(1.00962 -0.00255411 0)
(0.20773 0.23824 0)
(1.01374 -0.000868566 -9.41079e-22)