/*--------------------------------*- C++ -*----------------------------------*\
| =========                 |                                                 |
| \\      /  F ield         | OpenFOAM: The Open Source CFD Toolbox           |
|  \\    /   O peration     | Version:  v2012                                 |
|   \\  /    A nd           | Website:  www.openfoam.com                      |
|    \\/     M anipulation  |                                                 |
\*---------------------------------------------------------------------------*/
FoamFile
{
    version     2.0;
    format      ascii;
    class       volScalarField;
    location    "400";
    object      ddt0(k);
}
// * * * * * * * * * * * * * * * * * * * * * * * * * * * * * * * * * * * * * //

dimensions      [0 2 -3 0 0 0 0];


internalField   nonuniform List<scalar> 
13851
(
-1.37282e-07
0.00458846
-3.84489e-07
-2.22498e-07
-2.35119e-07
2.24717e-05
1.0308e-08
6.62574e-08
-9.59887e-09
1.2132e-06
0.000598891
0.00564934
-0.000711434
0.0072161
-2.57427e-09
3.10659e-07
1.83086e-09
-5.00814e-08
-1.2333e-05
-6.68728e-09
-1.94619e-07
-3.84755e-07
2.04949e-09
-3.45331e-09
1.08249e-09
1.59243e-07
-8.18423e-10
0.000265527
-6.37557e-08
-7.94572e-08
2.6197e-05
4.03752e-09
-2.39123e-07
0.00371733
-2.94652e-09
-6.42843e-08
-4.68615e-05
-3.30911e-06
9.9225e-07
0.00387931
-1.84903e-08
1.99876e-09
-0.000618332
0.00120664
0.000786388
0.00193232
0.000769846
-0.00342973
8.11897e-10
6.41875e-05
2.06263e-07
7.54393e-07
0.000660486
-3.40471e-09
-7.23791e-09
3.3333e-09
-3.26381e-09
2.83152e-05
-6.24617e-08
8.06019e-09
-1.0464e-05
-0.00148354
-1.57362e-05
-3.19486e-07
-5.51567e-06
-3.26362e-07
0.000235468
0.000360356
3.96859e-08
7.54953e-08
0.00010178
-1.61468e-05
0.00272849
-3.58762e-09
-1.47717e-10
-1.7875e-08
-2.79869e-07
-0.000178467
-7.53427e-09
0.000120842
-1.20788e-09
0.000274743
-5.18964e-09
0.000675264
-9.64769e-06
0.00374103
5.5901e-06
0.00843766
6.21528e-09
1.02005e-08
9.22349e-07
2.94796e-06
-5.12042e-05
2.0407e-08
5.8988e-09
1.38526e-09
-2.78293e-07
-0.000169623
8.52915e-05
-2.71853e-10
0.00217554
6.79195e-08
4.30677e-08
6.38229e-09
3.07515e-09
-3.79116e-05
1.1007e-07
3.29796e-09
-0.000143964
1.8169e-05
5.73273e-10
3.21352e-08
5.19164e-06
-1.50174e-09
-1.14202e-09
0.00690821
-0.000103385
1.69261e-09
-2.93818e-09
-1.09963e-08
-0.000592433
3.84732e-09
-0.00051549
-0.000375962
-0.00222768
-1.75787e-07
-0.0022177
1.65746e-08
-2.05275e-07
-4.20721e-07
-1.74174e-08
8.64059e-10
0.000115542
-5.87726e-09
0.00760729
-1.83009e-11
1.19376e-09
-2.55834e-05
-0.0053998
0.0028872
0.00297523
4.73303e-09
2.37968e-07
-1.76774e-08
-2.76014e-08
0.000908406
7.06594e-05
-4.17039e-07
9.46438e-09
0.000488085
2.88681e-07
-1.82448e-09
0.00727937
-3.88483e-09
-9.29538e-09
-2.36674e-08
-6.50026e-09
-3.45446e-08
6.72146e-07
1.71729e-07
-5.6147e-09
1.47503e-08
0.000183313
1.96769e-09
-4.92995e-07
-7.01361e-09
0.000109483
3.96493e-08
-1.86617e-07
0.000252084
-0.000136362
2.14159e-09
-4.42332e-09
0.00216281
1.49219e-09
-0.00341849
1.43136e-08
1.02702e-07
-3.76373e-05
4.60405e-09
1.22116e-08
1.74718e-05
-5.37517e-09
-5.66238e-07
-5.89003e-10
2.69591e-09
-1.56525e-07
9.54346e-09
-5.44344e-07
6.00599e-06
0.000744152
0.000790539
-8.92621e-08
3.43338e-08
-0.00167406
-9.90374e-09
1.96651e-07
-0.00266235
1.27389e-07
-1.33833e-08
-9.46962e-07
0.00170756
-7.75875e-10
7.36531e-09
2.90596e-06
-6.02439e-09
-0.00633213
4.96214e-09
-0.000160757
-2.69867e-09
-0.000785371
2.2699e-08
-0.00227206
1.3099e-09
6.05012e-09
2.125e-05
-2.56117e-06
0.00219749
-3.27376e-09
-0.000196335
5.13798e-09
-1.71196e-09
-0.000767443
-2.54187e-08
-0.000338537
-2.47268e-09
2.94127e-08
4.45109e-09
0.0008414
9.70223e-11
1.45067e-07
-1.58383e-05
1.64048e-09
-8.51856e-08
2.65506e-07
-1.96037e-06
-0.00524879
-8.60479e-06
-9.32682e-09
7.33078e-09
-2.12642e-05
-0.00176229
-4.85927e-08
3.54509e-06
5.03943e-09
-0.000285717
4.06895e-08
0.000749819
-3.26644e-08
-3.12524e-08
-1.42862e-06
-0.00105838
-1.58845e-08
-3.38888e-08
1.63291e-07
-0.00497643
6.7596e-06
-0.000495617
8.23431e-06
1.28027e-09
-6.77699e-09
2.24509e-07
0.00160241
-3.23328e-08
0.00030188
-1.05587e-08
-1.60633e-08
1.80221e-08
-0.000839304
-0.00034564
-1.67896e-06
-1.03081e-08
0.000637116
-3.01134e-09
2.26204e-07
4.57437e-10
0.000122087
0.000169153
-0.000118161
0.00069834
1.46324e-08
-2.98924e-09
2.01786e-09
1.40856e-07
0.00113726
-0.00105775
-6.16064e-09
1.89113e-09
0.000464993
6.29016e-05
-5.64821e-08
-5.31447e-08
6.35497e-09
3.5005e-08
0.000235511
-6.01073e-05
-3.72502e-07
0.00416696
-4.39699e-10
-0.000346632
1.4255e-08
-5.88905e-09
-0.000227678
2.23595e-08
-3.26746e-05
-0.000668394
-6.64221e-09
9.57164e-08
2.2948e-08
-3.38028e-08
-0.00674573
-4.11363e-07
-1.44263e-08
-0.000588438
-1.12774e-09
-2.77264e-08
-7.7666e-07
-0.000182645
7.23557e-07
-3.09271e-09
1.04738e-07
-1.95887e-09
-0.000169001
1.26697e-06
-2.84495e-09
-1.6791e-08
7.15076e-07
3.06169e-08
-8.52355e-09
1.98451e-09
2.19855e-08
-1.31922e-08
0.00096891
-0.00837759
0.000118402
4.41177e-07
-0.000292952
0.00100543
-2.80206e-09
3.02821e-08
-8.9433e-07
-1.73636e-06
-3.53846e-06
8.89611e-07
6.01097e-06
8.93337e-07
0.00226427
-0.000558336
-2.59733e-09
6.07013e-05
7.44733e-05
0.000269236
-8.29479e-09
-6.57726e-06
0.000879617
-2.52287e-09
0.000538057
-1.68449e-08
-1.98742e-09
5.1303e-09
3.50388e-09
-5.22654e-09
-0.00064036
-0.00211559
8.93992e-09
7.30353e-08
-4.74101e-10
0.00495685
8.21717e-07
0.00165143
-8.86578e-05
1.14205e-08
-2.71149e-06
2.87038e-08
0.000496929
-1.41043e-08
1.09731e-09
1.90872e-06
-0.0045669
4.23486e-09
-0.00653926
8.91831e-07
1.14576e-06
0.000828874
-0.00108473
-0.000532086
-6.85605e-07
-2.72787e-09
-3.3022e-09
5.16835e-07
1.19412e-07
0.00708226
4.42465e-08
-0.000436973
-0.000659271
-2.28429e-09
1.89844e-09
0.000613942
0.000121012
-2.29421e-05
-0.000253438
2.3089e-06
3.61064e-08
-2.19939e-09
0.00145962
9.98294e-10
2.88319e-07
-7.68431e-07
5.84025e-09
3.99787e-09
-8.71805e-09
-5.76746e-09
-2.50551e-07
-3.19881e-06
-0.000154154
2.6578e-07
1.29912e-07
-2.27708e-06
-0.000673787
-4.37704e-08
0.000177152
-7.34614e-09
4.04143e-06
1.55726e-09
-9.34146e-09
2.79933e-09
4.09308e-05
0.00133629
-8.34919e-08
-7.38178e-07
-4.24511e-05
0.00257026
-7.48199e-09
-1.12892e-08
2.69597e-07
-1.27107e-08
-0.000244003
2.39799e-09
-0.00228216
4.01648e-05
-5.48441e-08
-0.000181582
1.82838e-07
0.0006347
0.000225473
-0.0088823
-6.22431e-10
4.35894e-08
-3.55859e-09
-0.000125816
1.25348e-09
-1.0097e-08
2.63851e-07
1.07271e-06
-1.27294e-07
-0.00191689
-1.88864e-09
-8.59114e-09
-0.000412598
-6.21372e-07
-3.69769e-09
0.00546822
-2.30302e-09
-2.02734e-07
-4.63503e-09
-2.62001e-06
-3.64695e-09
-9.9752e-10
1.7858e-07
-0.000496001
-5.90668e-09
4.6443e-08
-2.84019e-10
-3.70027e-07
0.000338095
4.83144e-11
-2.70775e-09
-1.53159e-09
-1.86561e-09
0.000427933
-1.58753e-08
1.17115e-05
-5.00853e-09
-1.9003e-09
0.00454621
-0.000147169
-6.75796e-09
-1.7637e-06
-3.27663e-08
-0.00271025
0.00109986
-5.0489e-09
-0.00181507
-1.54734e-08
-4.22478e-07
4.17766e-09
0.00108216
1.4297e-09
0.00079133
9.25091e-06
9.38095e-10
-1.26972e-06
-0.000269646
2.42805e-07
0.000567549
-1.17543e-09
0.00374161
1.70683e-09
1.81516e-09
9.21428e-10
8.30198e-09
9.91543e-05
1.81383e-07
1.16626e-06
-8.95699e-05
-1.5325e-06
-1.66254e-08
0.000796308
0.0014276
1.81138e-08
1.57598e-08
-0.00418189
0.000983692
-0.000943684
-4.01725e-09
0.00125222
0.00137343
0.00258048
-5.10945e-07
-4.81419e-06
-0.00720381
0.000567943
-0.00154572
-0.00308734
-0.00375879
-4.41632e-08
-0.00339588
-0.00112129
1.49794e-09
0.000250374
1.92878e-07
-0.000104674
-4.62606e-08
3.99589e-09
-7.81393e-09
-2.56031e-10
-4.23494e-07
-1.61301e-06
0.0125676
-0.00246161
1.39324e-10
-0.000574785
-0.000292204
4.92564e-05
0.000886691
3.96859e-08
-2.56949e-09
-9.94794e-09
0.000782932
0.000656208
-9.47605e-09
4.92784e-07
2.47875e-06
5.97725e-09
-1.63189e-06
-0.000723928
-3.9898e-05
6.20774e-07
8.76673e-05
-0.00103843
-1.6789e-08
6.6669e-09
0.00131387
-0.000641613
1.03171e-06
4.73613e-08
-2.15517e-06
4.78425e-09
-4.14108e-09
-0.00223687
5.13666e-09
-4.40743e-08
4.20433e-09
-1.4013e-09
-0.00118168
-3.06165e-07
-1.51412e-06
4.48669e-09
-0.00710264
-0.00348411
-2.97882e-09
-2.11903e-09
3.55067e-08
-3.88264e-09
-0.00476672
-0.000487414
-0.00261322
0.00323396
0.00446164
3.79845e-08
-6.93108e-05
-0.000122656
1.18722e-06
3.44227e-08
-3.42276e-09
-5.79893e-07
2.36695e-07
-0.000393114
0.00230266
5.25707e-07
5.85095e-08
-7.08204e-09
1.60891e-07
1.43979e-07
0.000863747
1.11053e-07
-4.64735e-09
2.35061e-07
9.57384e-10
1.46443e-08
-1.8453e-07
7.11429e-09
-1.05305e-08
9.52583e-07
-1.16159e-08
-3.43194e-07
2.32609e-05
3.53312e-08
-3.08645e-08
9.43065e-07
-6.8327e-09
-2.92279e-05
-5.38631e-07
0.00372884
3.06046e-08
3.94074e-09
-0.000202511
1.1947e-07
0.000734452
-0.000453487
0.00202003
0.00427994
-6.19109e-10
-0.00040128
3.0414e-08
-1.65244e-09
1.62747e-09
-1.56568e-09
4.02421e-06
3.03379e-07
-2.24994e-06
4.43202e-09
0.000179106
8.59297e-06
-0.00012198
-1.16482e-08
2.46668e-09
3.3566e-09
-2.10021e-06
-0.00247861
1.7925e-07
1.56471e-08
-1.95124e-07
-3.16915e-09
4.10229e-09
-1.24843e-08
4.95735e-05
0.00293711
-1.14072e-08
4.35334e-09
8.79696e-09
-1.12875e-08
-0.000324332
0.000644631
2.53803e-07
-0.000141987
0.00244624
-8.93042e-09
1.15762e-06
-0.00897893
3.38933e-08
0.00141547
-2.93749e-09
2.77318e-07
1.72501e-07
4.75716e-07
-0.00273065
-6.07995e-09
-0.00434812
3.11481e-09
3.53717e-08
-0.000224765
-3.17596e-08
1.49388e-07
1.00569e-05
2.47692e-09
7.31147e-09
0.000488852
0.00366525
8.34857e-08
4.9422e-05
-0.00186613
2.38279e-09
-1.07006e-08
0.0031103
2.25931e-06
-2.3114e-06
-0.000504359
1.13107e-08
-6.51064e-10
1.20408e-09
0.00466686
-8.25839e-05
-2.45205e-07
-5.37887e-08
-3.79766e-05
5.42958e-11
4.68287e-09
-0.000634303
-0.00576974
-0.000482758
2.72213e-10
-8.94249e-09
-0.000110937
0.000335282
9.96229e-07
9.06088e-08
-0.00106223
-6.12273e-09
-6.51251e-05
-1.78874e-06
-8.42666e-08
-3.27319e-08
0.0018984
-1.49302e-06
1.57063e-07
0.000122196
4.45375e-09
6.16895e-10
-9.82156e-09
-6.50284e-09
-0.000513906
1.58205e-07
7.3399e-07
-7.24079e-07
0.000220441
-6.82241e-09
0.00135965
9.13263e-10
-1.21802e-06
1.8105e-09
-5.96889e-09
5.34712e-10
-0.000612789
-3.93979e-09
-1.37985e-09
-0.000180902
7.56095e-09
-0.000155263
-3.97394e-09
1.93601e-07
3.41075e-07
-0.00193892
0.000372075
-2.96403e-10
0.000264932
5.78633e-05
-1.57495e-08
-0.000893385
3.31003e-08
-5.34415e-09
2.18885e-05
-0.000661689
0.000112125
-7.71751e-08
4.51133e-10
3.72949e-09
0.000798123
-2.92803e-07
-7.03285e-07
-3.42574e-07
2.14842e-05
-3.85899e-09
1.39187e-07
3.89616e-07
0.000420357
-5.34105e-07
0.0026947
-9.66202e-09
-4.47442e-07
4.41645e-07
-0.000178132
-2.42503e-07
-0.00689459
-6.70094e-05
8.63474e-09
0.00063554
-1.04783e-05
0.000344975
0.00533527
-0.000579883
-0.00138139
5.42519e-07
-5.99273e-09
9.05751e-07
-8.13076e-05
0.000466829
-3.2868e-08
2.58578e-09
2.34041e-07
0.000871846
-4.17392e-09
0.000868235
1.08827e-08
1.0532e-09
-0.000375342
-0.000129835
-0.00206084
-1.6063e-09
-6.90677e-10
0.000476426
3.28887e-05
9.61613e-07
4.7856e-07
-4.0959e-05
-8.19634e-06
-0.0013227
9.95866e-08
7.11836e-08
-1.18677e-08
5.45614e-09
0.00143764
1.42672e-07
0.000125611
4.20506e-06
4.39756e-08
-0.000363189
0.000203405
-0.000247821
-5.12863e-09
3.16015e-08
-1.8915e-09
1.38442e-07
1.46192e-07
0.00511496
-4.7733e-09
-1.54003e-05
-4.3265e-09
3.05791e-07
-7.55637e-09
-5.44271e-07
4.26715e-08
2.9795e-08
-0.000178041
9.74407e-08
-2.67949e-06
-4.49662e-09
2.77308e-07
-0.0052063
-1.63145e-05
-5.83416e-08
-0.00011629
-2.27048e-08
0.00657517
-0.00193807
-6.10273e-09
-0.000656597
-0.00114629
-0.000189802
-0.000911813
2.79344e-06
-2.2657e-08
-0.00047426
-5.57826e-09
0.00624719
-0.000135718
-9.52706e-09
-2.69193e-09
5.7304e-05
-0.00228245
-0.00262074
-1.4907e-08
-3.04518e-09
0.00549631
-0.000191038
4.63002e-07
-8.76364e-08
2.6424e-07
-0.00139113
0.000578027
4.35546e-07
-1.97692e-09
5.86872e-07
2.40691e-09
2.35e-09
9.77061e-05
-2.73849e-09
-0.00109874
-0.000265681
3.58221e-09
2.58999e-07
-2.13089e-08
-2.51872e-08
4.08009e-05
-0.00024043
3.50184e-08
-0.00713996
-6.80461e-09
4.37207e-08
-2.44435e-08
2.23138e-09
2.18496e-08
5.09261e-09
-3.6987e-05
-6.8459e-09
1.69228e-07
-6.54679e-09
-6.53954e-08
0.000160819
0.000221728
-2.8925e-09
0.000570492
1.73827e-06
0.000391163
1.8135e-07
1.13823e-07
0.000105654
1.29716e-08
-1.69544e-06
0.00565368
0.0122322
0.000481303
6.60454e-08
0.000534547
1.59111e-08
8.19751e-08
7.26871e-08
-0.00412856
1.59257e-09
-0.000174972
-9.43609e-09
-1.21474e-08
0.00658179
-6.25279e-07
-0.000301491
-3.10646e-08
1.8669e-10
-5.29309e-07
-1.84709e-09
-3.49224e-10
-3.10293e-07
-3.09277e-09
-2.11714e-05
-9.11502e-09
3.39492e-05
0.00039844
3.38502e-06
0.00172208
4.33208e-09
3.15973e-09
-2.51575e-07
-3.05307e-09
-2.07964e-10
4.59921e-07
6.68438e-09
1.08003e-08
-5.34315e-08
-2.99256e-09
-0.000233532
0.00193913
-2.06797e-05
-0.000321684
3.90357e-05
-4.61293e-09
-0.00708405
4.9074e-08
-6.29679e-09
0.000915947
0.000112265
-0.00210101
-8.48935e-11
0.00096175
-0.00127963
0.000925425
1.33827e-09
-0.000354245
1.54221e-07
-1.62424e-09
-1.21126e-06
7.45634e-09
-0.00859571
-2.9957e-05
0.000700728
-2.77151e-08
-2.22923e-09
-0.000903763
-8.63819e-09
-0.000742311
-0.00160258
0.0112582
-0.000172972
-0.000525859
3.59688e-09
1.1752e-08
-4.10268e-06
-7.02705e-07
2.84327e-09
-1.03059e-06
4.9336e-08
4.95385e-09
8.93489e-08
0.00194812
4.34169e-09
-0.000360495
-0.000995815
0.00647932
7.72e-06
1.19089e-10
-9.51943e-10
-4.65568e-08
0.00146777
0.00151418
1.65302e-09
-9.64491e-10
-2.38577e-08
3.0596e-07
-6.71552e-09
-1.89563e-08
-3.85111e-09
3.14094e-08
-0.000162871
-1.86099e-06
-5.2782e-08
1.08587e-09
1.61268e-07
0.000893011
3.25561e-09
0.000751305
0.00143216
4.90963e-07
-4.46882e-09
9.46191e-08
4.00008e-09
-2.19403e-09
-4.03963e-08
-0.000195224
8.79278e-07
0.00147213
4.24044e-09
-4.92101e-05
2.15692e-10
3.24198e-09
1.3619e-08
-0.00668075
0.0137366
-1.59341e-08
3.41841e-08
-3.0113e-06
-2.33352e-05
-4.78765e-10
0.00894124
6.90223e-06
-0.00609358
3.59911e-07
-0.001109
4.1024e-07
4.40625e-07
1.72716e-05
-0.000301277
-0.000255593
0.00232352
-2.49083e-09
-2.15112e-06
-7.00104e-09
-6.08266e-08
8.80802e-09
-1.62604e-08
-0.000242585
9.32019e-08
2.37706e-08
-0.00108091
5.84984e-07
-0.000758985
-2.8214e-09
-4.76354e-09
-2.8789e-07
7.31551e-09
1.07388e-06
0.00411165
0.00288095
-0.00849207
1.34221e-09
1.35307e-08
6.60572e-07
-0.000650278
-0.000260617
-3.49429e-06
-1.46082e-08
9.84024e-09
0.00144832
2.41007e-07
-0.00691656
0.00100109
-2.50388e-05
-7.39457e-09
-0.00116891
1.64373e-06
1.23984e-08
3.0115e-08
-0.000835459
0.00096427
-4.36946e-07
-1.08456e-05
5.85723e-08
-1.02661e-06
-2.51295e-09
0.0003479
-2.62972e-06
-0.000234518
-0.000330266
6.89742e-09
1.12169e-06
-1.09986e-08
-0.000887615
2.0718e-05
-1.85881e-09
0.00182858
-0.000263743
0.00272163
-0.000627444
6.86627e-10
1.31734e-08
-2.19561e-05
0.00116603
0.000865014
1.67733e-09
8.18939e-09
7.8889e-09
-0.000210637
8.32015e-07
-5.42667e-09
9.77193e-05
-5.5948e-07
-0.00478143
-0.00109999
0.000771388
2.70751e-10
-0.00111208
2.23776e-09
1.56445e-09
1.08823e-06
-0.0025154
1.05642e-08
-8.2175e-09
0.000171622
-0.000959915
-2.28383e-07
1.64542e-09
0.00069337
-1.68332e-10
0.000799483
1.20526e-09
0.000328469
1.13666e-08
1.81898e-07
-0.00747108
-0.000324395
-9.00629e-09
-0.00056377
-5.47004e-05
-0.00034416
-0.000611736
-0.00662198
6.95979e-06
1.51175e-09
0.00165426
3.36342e-10
-2.35365e-09
-9.71945e-09
-0.00208637
-7.17306e-09
-0.000553953
-1.00498e-08
2.9694e-07
-0.000235541
3.16475e-07
-0.000696797
-2.14261e-08
3.44883e-06
1.52531e-09
3.45363e-08
-0.000944013
0.0049007
-3.1127e-10
1.60807e-07
0.000682405
8.05683e-10
1.11298e-08
-0.000348788
3.13365e-08
4.83313e-07
1.11968e-06
0.00554838
0.0133496
-0.000388395
-0.00050598
2.12614e-05
0.000223571
0.0014662
0.0115942
9.68857e-08
4.43904e-09
1.13926e-06
-4.75963e-10
-1.40628e-10
0.00138685
-0.000287092
1.05083e-07
0.00103723
-5.98665e-06
-0.000325153
0.000115026
-1.29917e-05
-8.62167e-09
-2.24231e-05
4.41711e-05
7.43704e-08
-9.43786e-09
-0.000725087
-0.000549444
0.00951096
-0.0010555
-9.02154e-07
-6.48106e-06
-0.000713944
3.50084e-08
1.59995e-09
1.12146e-08
0.000249469
1.92316e-09
7.49326e-05
1.42932e-10
-5.86823e-09
1.16017e-07
0.000630283
-0.000414902
0.00171729
-6.48788e-08
-0.0011461
-2.08448e-07
-7.70939e-07
4.14648e-10
6.21747e-10
-0.000279702
-7.37284e-08
-9.90546e-05
0.00200172
0.00010018
8.88377e-07
2.29496e-09
6.19952e-07
2.05739e-08
6.04687e-07
3.43401e-08
-1.6461e-08
-5.45942e-08
2.87989e-09
1.35178e-06
-4.61073e-09
2.6057e-07
1.09069e-07
3.41628e-07
-7.67662e-06
5.17039e-05
4.58741e-09
3.27665e-08
3.28707e-09
3.06861e-05
-7.18388e-06
0.00129773
-4.73212e-05
3.35372e-08
-2.94879e-09
-5.00632e-09
9.72658e-05
-1.46941e-08
0.000595041
7.41395e-10
-3.21939e-08
1.57498e-07
-0.000626264
2.25432e-08
-3.11521e-07
4.71397e-06
3.12136e-09
2.20111e-07
-0.000436139
0.000486884
2.98224e-08
-5.40746e-09
1.40358e-05
3.43917e-09
2.4843e-08
6.05698e-06
-4.95829e-05
-3.30427e-09
-9.37492e-07
1.79064e-06
-0.00110987
1.53704e-09
-7.32379e-09
1.14129e-05
-1.13351e-08
3.82858e-05
8.04064e-05
-0.000239287
9.77231e-09
-1.50989e-05
6.37932e-09
-0.000327117
4.31324e-07
1.52259e-07
1.05525e-06
0.00206748
-4.06714e-09
-0.000651878
-0.00978048
-3.63533e-08
0.000901374
5.08903e-07
2.16041e-09
-0.000647877
-7.22771e-09
-3.37996e-08
7.45818e-09
4.48524e-07
5.27858e-05
1.72398e-06
-2.2919e-08
3.12519e-09
3.30205e-08
0.000593206
4.75741e-05
-0.000530492
0.0003403
-2.95604e-11
4.28666e-07
-4.88557e-07
0.000287423
7.39815e-07
0.000504403
1.12458e-09
6.36205e-06
6.55294e-09
-0.000127068
-1.90017e-06
6.16803e-09
0.00151082
-8.88513e-06
1.05603e-07
2.91997e-06
-1.27522e-09
2.58871e-09
1.76261e-06
2.57512e-07
-0.000359625
3.51312e-08
1.27654e-07
3.73119e-06
-6.58124e-07
-0.0129423
1.16222e-05
-0.000613699
1.57022e-09
1.73195e-08
-3.48633e-06
0.00223626
0.000155711
-4.9417e-06
3.76098e-09
-0.000107505
0.00065837
-3.70291e-08
9.54359e-09
-6.89803e-10
5.95636e-08
2.65781e-07
0.000108113
0.000811698
3.96314e-05
-8.82601e-09
-0.000148025
-0.000159218
-1.78942e-10
-4.07837e-06
-0.00445725
-4.41352e-05
-3.2484e-09
4.22151e-07
-4.15663e-10
1.51573e-09
-3.03375e-07
-1.04936e-07
-0.000499309
-0.000170532
0.000415293
0.00139864
-2.70953e-09
-3.25161e-07
3.44224e-06
1.46877e-09
4.4536e-09
3.11032e-09
-0.000528867
5.25206e-09
-0.00100035
-1.04757e-06
-1.0485e-06
-9.13157e-07
-5.49393e-06
-0.000175136
-0.00129231
6.10039e-08
-1.6351e-09
2.64281e-06
-0.00134762
-0.000720291
3.60866e-09
-1.26318e-09
1.45114e-09
-1.42012e-08
1.1162e-07
1.20265e-06
-0.00692466
7.51338e-10
8.18185e-09
4.86283e-07
2.4635e-05
1.37045e-05
0.00649871
1.69701e-09
5.28159e-08
-3.19787e-08
-0.000155972
-1.42866e-08
-8.35666e-05
-3.16878e-07
7.75129e-10
1.79646e-06
-2.15771e-09
3.18429e-05
3.02599e-08
3.24947e-08
0.00019914
-0.00053709
8.03937e-09
8.13295e-08
-6.87217e-09
-0.00134458
0.00114075
5.83733e-09
-6.45091e-09
0.000935435
1.9462e-09
0.000116847
1.82666e-09
-4.19603e-07
1.37309e-07
-0.00372566
-1.93806e-06
-1.21588e-07
8.34715e-09
3.51745e-07
-0.0007765
3.8976e-10
0.00515106
-0.00472596
0.00472589
-0.000743463
-7.0127e-07
-0.000377131
1.38024e-08
-5.58713e-05
-1.77267e-10
4.35392e-05
0.000327447
-0.000149645
0.000965174
-0.0103417
-1.28036e-06
-1.74012e-05
-5.11583e-09
3.22217e-05
0.000520411
-0.000676837
0.0002743
-8.98419e-08
-0.0127732
-0.00602963
-7.04589e-07
7.64248e-08
5.52626e-09
-2.54327e-05
-4.84656e-08
3.358e-07
-1.86233e-09
6.04766e-09
1.9663e-09
6.10812e-09
0.000139138
-1.09776e-05
1.4375e-07
0.00167929
-0.000381256
-9.24627e-07
-1.2635e-09
1.30135e-08
-4.32071e-08
-4.47241e-05
-8.922e-05
-1.68263e-07
-1.13557e-08
0.0100518
-1.31839e-07
2.76042e-08
0.000745748
1.01353e-07
-0.000649637
3.34595e-08
2.6548e-08
-4.43932e-10
-2.16308e-10
2.18584e-08
-0.000381634
-0.000306905
-5.31348e-05
-1.6996e-07
-0.00339406
-4.48251e-07
2.22037e-10
5.29089e-10
0.000241555
0.00223623
0.00341655
5.00829e-05
-5.54302e-09
-4.32538e-09
-1.28466e-09
5.70718e-10
1.39834e-09
-0.000204888
8.55998e-08
0.000775749
-1.52696e-07
0.000455627
-0.00436251
-0.000391224
1.91413e-06
7.25264e-09
0.000904274
-6.30651e-07
0.00714305
6.17028e-05
1.36352e-09
3.19954e-05
2.70391e-08
-0.0106038
-0.0006746
-1.0973e-07
-0.000526742
0.00193271
-1.26639e-09
-2.91761e-06
-5.76943e-09
0.00359273
-0.00205918
-3.03871e-09
9.06197e-09
0.000103681
-0.00147874
4.6448e-08
-0.000833951
1.15433e-06
-6.6329e-07
1.73024e-09
-0.00225313
-2.00292e-05
1.27861e-06
3.01375e-08
-3.56762e-05
0.00230482
-7.44349e-09
-5.19804e-09
-1.30871e-09
-0.000768859
-0.000645655
-4.34742e-09
-3.32933e-05
-1.44881e-09
1.29791e-08
2.36442e-08
0.000995397
-5.42546e-05
1.4977e-06
-2.61348e-06
7.90103e-08
-1.90502e-08
5.58528e-09
-0.000320427
6.6107e-10
-0.000730082
-2.49499e-07
0.00594928
1.03829e-08
-1.7356e-09
-2.45571e-07
-0.000413052
0.00097876
5.08026e-07
0.000924724
4.21508e-08
-1.33972e-08
-4.72134e-09
1.22332e-07
2.26124e-08
8.95974e-08
-1.29419e-06
-0.00120934
8.48818e-10
-5.51888e-07
-3.00906e-05
-0.0142081
-5.66739e-08
-9.44128e-05
-0.000141885
1.16965e-08
0.00257588
2.96786e-07
0.0022376
-1.70556e-08
3.01702e-06
2.44456e-08
0.00423855
4.70414e-05
-5.78754e-06
-0.000738141
1.52118e-07
1.44169e-07
6.81405e-08
-0.000109858
-1.09856e-08
-1.07405e-09
-0.00430129
6.83608e-07
0.00234957
-0.000934091
2.44527e-07
6.24131e-08
7.93081e-09
-0.000111744
2.27417e-06
-1.15447e-07
8.03673e-07
1.17932e-07
5.66945e-08
-5.72327e-10
0.00398662
-9.17578e-09
0.00114976
-0.000669964
2.72101e-06
3.44509e-05
1.56253e-06
-0.000125577
-5.54155e-09
-0.00531609
-0.00182895
1.88073e-11
-5.51802e-09
-3.77556e-08
9.00668e-09
1.40029e-07
-1.13794e-09
-0.00461246
4.23059e-07
-0.000174996
-6.04217e-06
-3.10562e-08
-9.67301e-09
1.74691e-09
-0.00127919
-1.38956e-08
-1.58293e-08
3.91482e-05
1.40294e-09
0.008227
-0.000841909
4.47022e-07
-2.37804e-07
2.42562e-07
-2.21292e-08
-1.86613e-09
2.2247e-05
-8.00954e-09
9.22377e-10
-2.41207e-05
-0.000127026
-0.00450012
-2.54009e-08
-9.86394e-05
0.00794583
8.07992e-09
-3.37878e-05
-0.000843282
-4.14427e-09
-4.13411e-09
-2.41315e-09
-0.000831713
0.00267624
-0.00650461
-1.35344e-08
-5.71957e-09
1.42387e-07
9.0047e-09
4.27549e-07
4.70874e-09
-8.20913e-06
0.000411438
-0.000793705
3.82905e-11
-1.54067e-09
3.686e-09
0.00375664
-7.10896e-09
0.00210777
-0.000228138
7.86559e-05
0.00967063
0.000831087
-0.00605133
2.84201e-07
-0.00617871
-0.00343818
-1.00079e-09
7.55366e-09
2.55869e-10
-0.000795142
-0.000233878
0.000360035
2.80282e-09
-0.000557409
-1.65171e-08
-2.26044e-06
1.46571e-08
-5.20755e-08
-3.66306e-09
-4.0534e-10
0.00283725
1.93627e-09
0.000979426
0.00423705
0.00193612
3.59624e-07
1.69194e-07
0.00248246
-0.000794796
-2.35931e-09
-0.000536188
6.45231e-09
1.02143e-09
-1.32458e-09
3.11369e-06
3.28559e-08
0.00052732
2.48936e-06
0.000829294
-1.4265e-06
-0.000100828
0.00137299
-1.99526e-06
-1.03034e-09
3.58634e-06
1.33283e-06
0.00290747
-4.25594e-08
-3.20222e-10
1.21043e-09
0.00296741
5.65755e-08
-0.000119602
0.0006776
3.21446e-08
-1.56685e-07
-5.28768e-08
0.00232825
1.49137e-09
-4.16882e-05
-1.25188e-09
-0.000688831
3.52627e-08
-8.01014e-09
0.000680708
0.00141225
3.33715e-09
2.40913e-07
-4.23852e-08
2.35851e-05
1.78891e-05
-6.64101e-05
0.00060896
-9.27528e-09
3.50989e-06
4.80947e-05
1.03899e-07
4.91554e-06
-3.44847e-08
4.24731e-07
3.25879e-08
-0.000589684
-0.000471883
-1.07877e-08
-6.99819e-05
-8.61e-09
4.07514e-09
-6.9791e-05
0.00084506
-1.51429e-06
-0.000332922
-4.64263e-05
9.18244e-09
-0.000115037
7.13857e-07
2.84091e-08
-3.00524e-10
0.000773341
3.17187e-09
-0.00626565
0.000203664
-1.02806e-06
-3.11764e-09
2.98375e-07
-0.000206215
-7.35613e-09
-0.000662302
-3.94944e-09
-7.03538e-09
-8.4314e-06
0.000918314
1.23399e-08
-0.000719714
-0.00044148
0.000653137
1.90773e-08
0.00114956
0.00174873
0.00261354
-1.71721e-09
1.61381e-06
3.04983e-08
-0.000671747
4.54659e-06
0.00325302
0.0018261
-1.45326e-08
-6.67374e-09
-3.58561e-09
0.00304726
3.66481e-05
0.00346271
0.00161332
4.19655e-09
-7.79295e-05
-0.000976645
1.143e-06
-0.000209416
-0.000271515
-1.11553e-06
-0.00199197
-4.95741e-09
1.11923e-08
-0.000686762
0.000601406
-3.588e-07
-0.00128126
-4.89877e-08
-7.39414e-09
-0.00647279
-0.000444187
-0.000637214
3.20505e-05
8.99354e-08
-1.03358e-08
-2.74458e-09
-0.00118216
0.00110647
2.7941e-09
1.26009e-07
0.0024777
-3.9131e-09
-7.95466e-09
-0.000813344
-0.00381679
-4.26519e-08
1.50656e-09
-9.42214e-10
6.38028e-08
0.0055475
9.26886e-09
1.89716e-08
-1.47588e-07
0.000322032
-0.00448407
-0.00105247
-0.000196212
-1.23179e-08
-1.71529e-07
-0.000453563
-0.000913603
-5.15981e-07
-1.47556e-05
-3.05837e-09
3.05816e-08
-1.49718e-07
-1.26488e-06
5.27511e-07
3.13336e-08
0.0011416
-9.66861e-07
-9.1534e-09
-1.42626e-07
0.00162799
-0.0030275
-0.00021513
-3.00689e-09
-1.01213e-08
-0.000929209
0.00348182
-1.03085e-09
-2.50979e-08
4.44586e-09
5.28759e-05
-7.22135e-09
3.42386e-09
5.0301e-08
-4.40474e-09
-0.00039054
9.69416e-06
-1.54329e-08
-1.97146e-08
-5.56225e-09
1.19792e-08
-0.00155834
-0.00510511
1.40711e-07
2.06669e-05
-5.85569e-06
-8.31136e-09
-2.18967e-09
-1.08618e-08
2.81467e-08
-9.80342e-09
-1.72741e-08
6.04338e-06
-1.66156e-05
4.61548e-08
-1.49031e-07
-0.00027329
0.000296903
-1.43744e-08
-8.19995e-10
-2.28584e-09
-0.00343603
2.51976e-08
2.53731e-05
-4.43931e-05
-1.06592e-05
1.99825e-07
-0.000149458
3.48762e-08
6.35939e-05
-1.18662e-10
2.63426e-08
5.74681e-08
7.87503e-09
8.14519e-06
-0.000164275
3.79686e-05
2.18821e-07
-0.0105498
0.00121611
0.00498061
3.3257e-08
-0.000414535
0.000151099
-4.71527e-07
-0.00115282
-0.000941264
9.67912e-07
0.00230414
7.41328e-09
2.68616e-08
-0.000566861
1.02039e-08
-1.25877e-08
-0.00735509
9.40029e-06
0.0042361
-5.26942e-05
1.08923e-08
5.18092e-06
-7.61366e-09
2.41178e-05
1.68422e-08
-6.51455e-05
0.00256138
-0.000138618
-0.0173455
3.12817e-09
4.18133e-09
2.98343e-07
0.0037987
-0.000326588
-1.21142e-06
0.000122328
-5.52211e-10
-0.000503427
0.000103007
6.50137e-05
-2.91415e-08
2.60079e-09
1.7144e-08
1.56458e-07
-2.80063e-08
-1.18039e-09
-1.33131e-08
-0.000381287
1.58521e-07
-0.000152381
-0.00176302
0.000747889
1.14082e-07
9.34506e-10
-5.49131e-10
-7.74949e-08
-1.24404e-09
9.11627e-09
-0.00538196
0.000384257
-0.00118362
-0.000522856
1.3825e-09
0.0016898
-1.39947e-06
-0.000763659
4.84168e-05
9.42517e-09
-1.81158e-08
-0.00233147
1.51513e-08
3.46879e-09
0.000394336
-0.000357879
-0.000552093
-7.06626e-09
-1.41848e-08
-3.6537e-07
3.63171e-07
0.0010632
8.70978e-09
3.69242e-07
-0.00012934
1.62674e-09
0.00134412
4.44113e-07
-0.00879258
-7.08863e-09
1.75015e-05
0.00601851
-4.23662e-07
-0.00120174
7.14883e-07
-5.10766e-05
-1.4495e-08
-1.47474e-07
-2.86451e-09
1.02237e-07
0.00160111
-6.53402e-10
0.000206506
-7.65389e-08
6.51861e-10
2.5145e-09
-0.000487507
4.77514e-08
3.34242e-07
-0.00336411
1.60804e-09
-5.42085e-07
-0.000963582
2.74761e-06
3.39241e-08
3.31608e-07
2.11534e-08
-2.34618e-06
-3.72252e-08
-2.12167e-08
-0.0002382
-0.000748213
-0.000588773
-0.000622626
-7.51078e-05
0.00111988
3.3416e-07
-0.000412066
-7.61068e-07
-1.40179e-08
2.81354e-09
2.05443e-09
2.13669e-08
-0.00113784
-0.00109301
4.07425e-08
0.000205857
-0.000130342
2.74387e-08
-4.3627e-08
-3.48469e-09
9.98757e-05
-0.000628337
-0.000317743
0.00798084
-0.00029509
1.76285e-09
1.21083e-05
-5.34603e-07
-0.000184591
-0.00062414
-4.71904e-09
8.95979e-07
-7.401e-05
-4.38042e-07
0.00689213
2.31844e-08
-4.99535e-05
0.000527173
-8.41294e-05
3.79272e-07
1.71315e-07
-0.000208922
5.59193e-07
1.79672e-05
-0.000333781
-0.000422418
9.70012e-07
0.0013852
-1.44239e-08
7.69833e-07
5.16365e-08
-8.27407e-06
-0.000530919
1.63926e-06
-4.59891e-09
-1.15275e-06
6.29571e-06
-4.72024e-09
-0.00102213
-4.41708e-09
1.18067e-06
-0.00017879
-3.76922e-09
-0.0104331
-0.00219276
-0.00012332
0.0010037
0.000649252
-0.00312131
-2.13425e-08
-0.001088
-2.34338e-08
1.2614e-08
1.1762e-08
-4.90722e-09
-5.37285e-05
-1.02697e-09
-5.87055e-09
-7.58913e-09
-6.40041e-09
0.00091471
-3.37054e-08
1.07113e-06
1.64478e-05
8.10094e-10
0.000124678
-3.6863e-07
-1.26115e-07
-0.00118166
-0.000385907
-3.20399e-09
-2.72005e-05
-1.13628e-08
-0.000177554
-0.00119295
5.38529e-08
4.77632e-07
-3.43255e-08
-0.000951161
-0.000231331
1.37438e-07
0.000760786
-9.37625e-09
4.8883e-09
-0.00807416
1.58759e-09
2.81302e-08
-0.000510063
8.59095e-08
1.28684e-09
-4.61681e-09
-7.80421e-07
-3.44504e-08
-0.000256532
-3.49242e-05
1.24216e-05
0.00184104
1.80391e-07
1.42781e-07
-2.66426e-08
-0.000849716
6.47536e-05
0.00203736
-1.71165e-09
8.93549e-09
-8.14215e-08
3.65135e-08
-0.000875289
3.04194e-08
0.00279013
-2.55348e-08
0.000733448
1.90221e-09
-0.000164685
6.29007e-07
9.2913e-07
8.65675e-05
0.000389939
-0.000704095
-0.000256221
6.99265e-10
-0.000131038
-0.000203061
1.35655e-05
4.03681e-09
-1.43054e-05
-3.11922e-06
0.00127014
8.32664e-07
4.38535e-06
0.000747311
-0.000647511
1.14989e-07
2.57839e-06
-8.08601e-10
7.45553e-08
1.01325e-07
-3.56833e-09
3.50596e-07
0.00220863
-3.16864e-05
0.00172375
0.00145639
1.58195e-09
-1.60419e-09
-2.71303e-06
-4.06514e-09
-0.0146341
1.25529e-08
1.24337e-08
-0.000291069
-8.91178e-07
-6.01067e-07
-2.65526e-07
-1.07619e-09
7.01692e-07
0.000430753
-0.000112183
0.00057187
1.05863e-08
-0.000171432
2.98886e-08
-1.74269e-09
9.03757e-10
-0.000262648
-4.14135e-05
4.21627e-05
3.89028e-06
-7.34961e-09
1.68081e-08
-4.04028e-09
7.43996e-09
1.13055e-08
0.00438853
-4.46123e-05
7.25046e-08
-0.00107522
-0.000276794
-0.00265373
0.00108481
-6.95237e-09
5.32761e-08
-0.000152313
-3.77541e-09
-2.75138e-05
2.68915e-08
-2.23891e-09
-0.000823412
-8.34163e-05
1.08616e-08
8.62088e-08
8.93804e-08
2.88001e-07
0.00271661
-0.0105646
-0.000700129
6.36205e-08
3.62225e-07
-0.000613973
4.64169e-07
5.82715e-07
5.63831e-06
0.000622986
-0.000345318
-0.000305375
9.9894e-09
0.00135778
-7.06824e-09
-1.05521e-07
-1.14632e-09
-1.7271e-07
-0.000514665
-9.26541e-05
0.00194815
0.000588284
-1.40657e-08
3.72165e-09
-1.21994e-09
-1.1839e-08
-6.31777e-09
3.88782e-08
-0.000516038
-0.000186309
3.69765e-07
0.00630618
1.63313e-08
5.0095e-08
2.70665e-09
-8.41909e-05
-4.74737e-06
5.10312e-08
-5.31012e-07
-9.88411e-08
0.000942388
2.45308e-05
-9.43789e-07
-0.000574927
-4.56243e-08
0.00169932
3.90481e-05
-0.00116244
0.000732083
-3.42947e-08
2.21139e-07
-1.26472e-08
-0.000298424
0.000542678
9.17602e-08
-0.00671732
3.85414e-05
-0.00493126