/*--------------------------------*- C++ -*----------------------------------*\
| =========                 |                                                 |
| \\      /  F ield         | OpenFOAM: The Open Source CFD Toolbox           |
|  \\    /   O peration     | Version:  v2012                                 |
|   \\  /    A nd           | Website:  www.openfoam.com                      |
|    \\/     M anipulation  |                                                 |
\*---------------------------------------------------------------------------*/
FoamFile
{
    version     2.0;
    format      ascii;
    class       surfaceScalarField;
    location    "400";
    object      ddtCorrDdt0(phi);
}
// * * * * * * * * * * * * * * * * * * * * * * * * * * * * * * * * * * * * * //

dimensions      [0 3 -2 0 0 0 0];
oriented        oriented;


internalField   nonuniform List<scalar> 
20537
(
0.000412948
-8.78437e-05
-0.000325095
-0.050374
0.0488953
0.00147915
-0.00143401
9.5434e-05
0.00133856
0.000476733
-0.000280431
-0.000196296
-0.000800472
0.000415581
0.000384887
0.0114742
-0.0146062
0.00313183
3.23756e-05
-1.7266e-05
-1.51096e-05
0.000589941
-0.000666036
7.61044e-05
-1.23722e-05
9.33233e-06
3.04042e-06
0.00532562
-0.00425519
-0.00107046
-0.028853
0.0468813
-0.0180283
-0.0157626
-0.0085522
0.0243129
-0.00150664
0.00136607
0.000140543
-0.0124782
-0.00425486
0.0167333
1.38308e-05
-9.49897e-06
-4.33181e-06
-0.000479141
0.000594113
-0.000114973
4.37754e-05
-3.95829e-05
-4.19151e-06
0.000453766
-0.000958782
0.00050502
-0.0010561
-0.00102012
0.00207619
-1.15955e-05
-7.76492e-07
0.000258473
0.000218261
-0.00141376
-2.02588e-05
-1.84838e-06
4.08928e-06
-2.24105e-06
-5.53303e-06
5.96613e-07
4.9367e-06
-3.34022e-06
1.49179e-06
-0.000201403
0.000791353
-1.8149e-05
-1.45546e-05
3.27045e-05
-0.000926656
-0.000118933
0.000310796
0.00010215
0.000153632
-0.000245404
9.17852e-05
0.0133455
-0.00187136
-8.59674e-06
5.2373e-05
-0.00155228
0.0016477
0.0357378
0.0307455
-0.0664832
-6.46216e-06
9.29179e-07
-0.000221987
4.25514e-05
0.000179436
0.000472215
-0.000324317
-0.000147893
0.00348151
-0.00334197
-0.000139546
0.00253712
0.00278852
0.0625595
-0.0268217
-5.408e-06
1.2987e-05
-7.57869e-06
-3.3378e-06
-5.81213e-06
9.14976e-06
0.00244635
-0.0016718
-0.00077455
0.0380913
0.0187334
-0.0568247
-0.0196769
0.0577682
0.00120467
0.00343583
-0.0046405
0.0184065
-0.0640158
0.0456092
-0.0151278
0.0192781
-0.00415036
2.02265e-05
-3.83751e-05
0.0137423
-0.00591435
-0.00782795
0.000187161
-0.000272021
8.48609e-05
-0.000570055
0.000696642
-0.000126584
0.00165354
-0.00383367
0.00218011
-1.48754e-05
8.11246e-06
6.7638e-06
1.61751e-05
-1.46367e-05
-1.5382e-06
5.34803e-06
-8.68565e-06
2.409e-06
-3.03492e-07
-2.10532e-06
-0.00374812
-0.00142849
0.00517663
-9.90757e-05
0.000252725
-2.66051e-06
1.96748e-05
-1.70158e-05
-0.000323356
0.00380486
0.00997057
-0.00100209
-0.00896834
0.00419374
0.0031135
-0.00730725
-0.000103961
0.000736663
-0.000632696
-0.0181771
0.0172393
0.000937961
-0.000112542
0.000825881
-0.000713339
0.000178821
0.000293396
0.0105206
-0.0613615
-0.000145113
0.000121468
2.36456e-05
-0.000689686
0.00114345
-0.000347506
0.000405388
-5.78861e-05
0.0001095
0.000275174
-0.000384672
-0.0399392
-0.0104346
-6.70996e-06
-8.16532e-06
7.07518e-06
-1.44526e-05
7.3779e-06
9.35822e-06
-1.06036e-05
1.24638e-06
-0.00102731
-0.000386467
5.50663e-05
-5.61749e-05
1.11373e-06
2.81569e-06
-0.000316441
0.000313622
-0.000478128
6.65536e-05
-1.86035e-05
2.3164e-05
-4.56259e-06
-0.0361011
0.0502911
-0.01419
-8.16427e-06
-9.28677e-06
1.74508e-05
-0.00228285
-0.00173466
0.00401756
-0.00400602
0.00819977
0.00645284
-0.0222148
0.0068232
0.000130036
-0.00695326
-0.0225216
-0.00892996
0.0314517
-5.48261e-05
2.06884e-05
3.41392e-05
0.000252725
-5.05656e-05
-0.000202163
-0.000189842
-3.21445e-05
0.00380052
0.00298872
-0.0067892
-0.0318539
-7.69922e-05
9.16629e-05
-1.46691e-05
-4.04599e-05
-1.43641e-05
3.26514e-06
-4.44042e-06
1.17544e-06
-0.000458095
-0.000342379
0.00079582
-0.00174372
0.00094791
0.00726618
0.00647612
-5.97867e-07
3.86279e-06
0.000481968
-0.00687067
0.00638873
0.00012097
-0.00024957
0.000128601
-6.85491e-05
8.60482e-05
-1.74989e-05
5.76777e-05
-4.8316e-05
-4.26692e-06
-8.73082e-07
5.14006e-06
-0.00526719
0.0102908
-0.00502363
-5.84088e-05
0.000252052
-0.000193642
4.21881e-06
-7.54487e-06
3.3261e-06
-0.000255674
0.000279748
-0.00696349
-0.00764273
-5.75265e-06
-1.33604e-07
5.88629e-06
3.78835e-05
0.000214839
-0.000741693
0.00454222
-7.68797e-06
7.68807e-06
-1.10349e-06
-4.64918e-06
-0.0226619
0.0594264
0.00163251
-0.000836696
6.9352e-06
-7.4649e-06
5.29842e-07
-1.00743e-05
1.07523e-05
-6.77466e-07
-3.72713e-06
1.45667e-05
-1.08401e-05
0.00202834
0.000418
2.187e-06
5.54908e-05
4.14493e-05
-0.00154807
0.0502444
-0.0240084
0.00888058
0.00125512
-0.000745668
-0.000509445
0.00128579
-0.0252941
0.000301429
-0.000262357
-3.90775e-05
0.000323544
-6.50705e-05
0.000709498
0.000502634
-0.00121216
1.15899e-05
-1.69982e-05
1.12424e-05
-7.23815e-06
-4.00442e-06
-0.000392056
4.45524e-05
-1.76893e-05
9.52489e-06
0.0336714
-9.61311e-06
9.94019e-06
-3.26948e-07
6.85486e-06
8.03199e-08
0.000244963
0.000158064
-0.000403025
0.0112582
-0.00683934
-0.00441899
0.00733963
-0.00386594
-0.00347393
-0.00356371
0.00404562
8.5988e-06
7.5759e-06
-0.000320665
0.000993444
-0.000672778
5.23761e-05
-8.48317e-06
-4.38934e-05
2.8345e-05
-3.85087e-05
1.01707e-05
0.0587311
-0.0399976
-0.00624376
0.00340241
0.00284138
-0.00108152
0.001791
1.48112e-05
1.75641e-05
-0.0411082
0.0214313
4.58204e-05
-2.86383e-06
-1.07967e-05
1.53942e-05
-4.59824e-06
0.00265195
-0.01513
9.74967e-07
1.43413e-06
1.61387e-05
-9.10501e-06
-7.02901e-06
-1.95227e-05
4.78721e-05
-3.32119e-06
-1.31609e-05
1.64837e-05
5.71735e-05
7.45432e-05
-0.000131737
-0.000578145
8.09416e-06
0.000256612
-6.94521e-05
-2.69741e-05
-3.52333e-06
3.0497e-05
-1.12329e-05
6.43779e-05
-5.3143e-05
0.000925423
-0.00467354
6.7811e-06
4.46132e-06
-9.48378e-05
-0.000506834
0.000601672
1.53729e-05
-6.12419e-06
-9.2485e-06
-0.00213422
-0.00410952
-4.08649e-05
-0.000104248
0.000109749
0.000213796
-0.00232444
-0.000494082
0.00281844
1.73507e-05
3.77184e-05
2.10741e-06
-6.55277e-06
4.4463e-06
1.55401e-05
-1.88603e-05
0.00809067
-0.00075091
1.16245e-05
-4.84342e-06
0.026222
-0.00694394
0.000275743
2.56833e-05
-0.000621331
-1.92044e-05
0.000640537
-0.00238088
0.0013248
-4.06779e-06
7.07275e-06
-3.00496e-06
6.78776e-05
-5.50922e-05
-1.27836e-05
0.000354464
-6.86534e-06
-8.06661e-06
1.49318e-05
0.00111249
-0.00113276
8.83844e-07
-4.53247e-06
3.64871e-06
-3.67927e-06
3.86547e-06
-1.86129e-07
-0.000853004
0.000740467
8.98789e-06
-1.2715e-05
-0.000515781
0.0011095
-0.000593724
-0.0036936
-0.00266945
0.00636301
-0.042955
0.00386734
-0.0022138
-0.000328517
0.000296492
3.20232e-05
0.000146827
-0.000142654
-4.16972e-06
0.00218671
0.00778388
1.45425e-05
-6.757e-06
-7.78252e-06
-0.000631642
0.000310979
0.0135425
0.0124984
-0.0260409
-0.000106971
-0.000514361
1.06944e-05
-1.33576e-06
0.00118266
7.24597e-05
-0.00226562
-0.00487429
0.00713985
-1.62271e-05
3.23835e-06
1.29893e-05
-2.52986e-05
1.08254e-05
1.44727e-05
0.00102436
-0.00365647
0.002632
-1.46516e-05
7.78611e-06
-0.00151125
-0.00818963
0.00970078
4.02601e-05
-4.10045e-05
7.46638e-07
-0.000289608
0.000104855
0.000184755
-2.14925e-06
1.02182e-05
-8.06867e-06
-0.000178652
0.00021802
-3.93684e-05
-4.5009e-06
-6.40475e-05
-0.0013106
-0.0139738
0.0152844
9.5812e-06
-6.66647e-06
-2.91463e-06
-3.97866e-05
2.85215e-05
1.12651e-05
-0.0206214
0.0162386
0.00438286
0.00684403
-0.00159083
-0.00525319
0.00420557
-0.00300088
-2.15725e-06
-8.48265e-06
1.06395e-05
-0.000199263
-9.03435e-05
-5.38766e-06
4.56483e-05
9.72684e-07
-1.95787e-05
0.000191261
-0.000433243
0.000242009
0.000814517
-0.000179666
-0.000634847
-0.000234335
-5.87402e-05
0.000293078
-1.96141e-06
1.99188e-06
-3.0359e-08
-9.36723e-05
-2.36548e-05
0.000117327
-4.95504e-06
6.87975e-07
0.0022613
-0.00378983
0.0015285
8.01552e-06
1.56569e-06
0.000532373
-0.000733767
0.0149663
-0.0158072
0.00084062
-3.85415e-06
5.96206e-06
-0.000290634
-9.34831e-05
-8.11225e-05
0.000174607
-0.000417893
-0.00258553
0.00300341
0.00680047
-0.00831175
-0.00430922
-0.0138678
2.23592e-05
3.00168e-05
-1.55957e-05
-9.70275e-06
-0.00222972
0.0155752
0.0304967
-0.00476264
-0.025734
-1.67076e-06
0.000146535
-0.000144865
0.00426411
-0.00323981
5.03811e-06
-5.91122e-06
-0.00028994
0.000119058
0.000170883
0.000297767
-0.000176798
0.00352101
0.0289197
-0.0324407
-3.74966e-05
-2.46804e-05
6.21925e-05
5.12734e-06
9.64527e-05
-0.000101575
0.00432367
-0.00338307
-0.000940598
-0.00216364
0.0326603
-4.85363e-06
-1.96952e-05
2.45479e-05
-5.70187e-05
0.000148163
-0.000147362
-8.00408e-07
-0.0243646
0.0177273
0.00663732
-0.00711686
0.0034233
0.000349443
-0.000191375
-0.000374823
-0.000286771
0.000661579
-1.33423e-05
-6.97488e-07
1.40394e-05
-1.74273e-05
-7.37732e-05
0.000873526
-0.00079975
0.0435721
-0.024726
-0.0188463
0.00016605
-8.77247e-05
-7.83255e-05
0.000989432
0.00185739
-0.00284697
4.71486e-06
9.82926e-06
-2.23694e-05
1.75161e-05
-4.90075e-05
-2.79827e-05
-0.000202311
0.000393613
-0.0077506
0.000563614
0.00718698
0.0023602
0.00196347
9.3828e-06
0.0434692
-0.0146419
-0.0288273
0.000256217
-0.000253402
-0.000655666
0.000176523
-1.07174e-05
3.47936e-06
0.00549251
-0.0415936
-0.00374935
-0.0057056
0.00945494
-0.00022953
-9.77885e-05
0.000327325
-0.0244345
-0.00441842
-0.000179399
0.000177727
-7.09616e-06
-6.92191e-06
1.40182e-05
-4.65221e-06
4.83919e-06
-1.86993e-07
-3.68966e-06
0.000151853
0.016894
0.026678
-0.0229056
-0.0236092
0.0465147
-1.31664e-05
4.33772e-06
8.82913e-06
2.13783e-06
8.9511e-06
-1.10889e-05
0.0242716
0.0191976
-0.000383372
-0.0206437
0.0210271
0.000505028
-0.00158657
7.87183e-05
-0.000177796
-1.69109e-05
1.42514e-05
-0.000146833
0.000174128
-2.72935e-05
-0.0280281
0.0276447
0.00256252
-0.00157307
-0.000420027
0.000477518
-5.74894e-05
0.0274112
-0.0209574
4.98851e-06
-1.05911e-05
5.60286e-06
-0.000156563
-0.000133378
3.76329e-05
-4.88648e-05
-2.24458e-05
-1.71336e-05
-0.000184084
0.000343449
-0.000159348
-2.73304e-05
2.24987e-05
4.83012e-06
-0.00920362
0.00393642
0.00018926
-9.8959e-05
-9.0293e-05
-3.59399e-06
-9.57234e-06
9.96941e-05
-0.000157817
5.81259e-05
5.26249e-06
8.64017e-05
-9.40339e-05
0.000172737
0.00679783
0.00445995
-9.47762e-05
-0.00032525
3.84945e-05
-2.13789e-05
-1.71153e-05
-0.000302365
0.00067058
-0.000368177
6.4256e-06
-7.37333e-06
9.47459e-07
-9.94097e-05
0.000104539
-0.00124047
0.00179425
-0.000553781
8.1003e-05
-0.000310532
-0.000104866
8.9762e-05
1.51033e-05
-1.05864e-05
8.42899e-06
-8.88401e-05
-0.000123579
0.00021242
-1.2895e-06
8.99416e-06
-7.70507e-06
9.56507e-05
-0.00047048
0.00178644
0.00353797
-0.00532441
-1.26721e-06
2.64653e-06
-1.37922e-06
-1.84849e-05
1.23978e-05
6.08591e-06
-6.55261e-05
-3.93437e-05
2.02663e-05
-0.000113938
-1.65085e-05
3.00128e-06
1.35127e-05
9.6231e-06
-2.30168e-05
-4.31325e-06
1.72392e-05
2.12546e-05
0.0226574
0.0242239
0.0124496
-0.00439089
0.00237061
0.00339075
-0.0057615
-0.00204153
0.00143292
0.000608578
-0.000261637
7.75576e-05
0.0037709
-0.00507396
0.00130316
7.12087e-06
9.01027e-06
0.000137819
0.00187275
-0.00136775
-0.00876106
0.00634985
0.00241121
0.0020047
0.0029239
-0.00492862
-0.000384165
-3.86347e-06
0.000388037
0.00154237
-0.0015568
1.71762e-05
0.00153962
0.0134498
-0.0139186
0.000468664
-0.000108619
0.000219757
-0.000111134
2.18793e-06
-1.16873e-05
0.0113502
-0.00645475
-0.00489548
0.0119451
-0.000594857
0.00820602
-0.00454289
-0.00366317
-1.20671e-06
-1.52974e-05
-0.00403058
0.00603527
0.0039381
-0.00167679
-1.32837e-06
1.68696e-05
0.00271319
0.0107367
-3.42263e-06
-1.50633e-05
-9.50158e-06
8.21194e-06
-5.06569e-07
5.54473e-06
-2.1796e-06
6.39844e-06
1.34581e-05
5.0827e-06
-1.854e-05
-0.00018675
7.8131e-05
0.0202604
0.0101792
-0.0304396
7.13047e-06
-2.33746e-05
1.62478e-05
0.000159295
-5.96006e-05
-8.6629e-06
2.26553e-06
6.39696e-06
0.00507292
0.0223388
0.00114192
-0.00160677
0.000464856
-0.0178857
0.0132862
-0.0043311
0.00200656
-1.54346e-05
2.25679e-05
8.80979e-05
0.00675591
0.000103277
-9.10968e-05
-1.21765e-05
-0.0128745
-0.00501124
1.7102e-06
-1.4119e-05
1.24079e-05
-3.86832e-06
-3.59656e-06
-0.00450416
0.00347746
0.00102669
-0.0103891
-0.00075305
0.0111421
1.60627e-05
0.00739181
-0.00059426
-0.00577233
8.69704e-05
-0.000471136
0.00398533
-0.00447946
-0.0197305
0.0224193
-0.00268883
-0.0176403
-0.00209022
-0.00201209
7.56749e-05
0.00193642
9.23724e-06
1.33042e-06
-1.05679e-05
9.3763e-06
-1.11702e-05
1.79247e-06
-0.00144308
-0.000598454
6.0854e-05
-0.000149692
0.00973078
-0.0139856
-0.000115662
0.000147473
-3.18115e-05
2.75356e-05
-0.000261869
-0.000113841
-6.93927e-05
0.000183239
-6.86019e-06
-1.80302e-06
-2.50118e-06
-1.08414e-05
-0.00196049
-0.00015119
0.000441329
-0.000290142
-0.00120504
0.0161713
0.000640818
0.000991714
0.000316567
-0.00482072
2.80049e-06
0.000100477
2.53447e-06
-2.81023e-06
2.75689e-07
-0.000953327
0.00472428
1.82767e-07
6.51012e-06
-6.6925e-06
0.000226879
0.000367234
-9.03264e-05
-0.00192176
-1.7957e-05
3.18977e-06
1.4765e-05
4.87821e-07
-1.15076e-05
7.91398e-06
6.33305e-06
9.03978e-06
-0.000555646
0.000451686
0.00293072
0.00178022
-0.00471093
0.000672847
-0.000557062
-0.000115804
0.00101436
-0.0013276
0.00031324
-0.000181987
-0.000619443
-0.00327657
0.00389605
0.0228298
-0.0249935
0.000129128
0.000105381
-0.000234503
0.00400008
0.0042059
-3.19729e-05
9.52737e-06
-0.00231089
-0.0183105
6.82507e-06
2.97622e-08
-6.51659e-07
-1.08557e-05
3.38137e-07
-4.01733e-06
0.00443927
-0.00334732
-0.00109195
-0.0785945
0.0309082
0.0476863
-0.000237094
-0.00081558
0.00105268
0.00231785
-0.00293728
0.000768493
-0.0523923
0.0831378
-0.00238042
3.77004e-06
-0.00016091
6.74259e-05
1.53607e-05
-1.36498e-05
-0.0148423
0.0376722
6.06966e-06
-3.6491e-06
-2.42017e-06
-0.00706002
-0.00735496
0.0144151
0.0409815
-0.0188011
-0.0221803
0.00183314
-0.000508853
-0.0013243
0.000185851
-5.08291e-05
-0.000135018
-0.000890642
0.000783671
-0.00148176
0.0111193
-0.00963757
0.0246385
0.0163429
0.0122446
-0.0085583
6.17656e-06
-5.29273e-06
-0.000125528
-3.0176e-06
0.000128547
-4.06985e-05
-0.00686211
-0.000888488
-3.83382e-07
6.42056e-06
-6.03686e-06
-3.96527e-05
2.65784e-05
1.30738e-05
5.15673e-05
0.000564036
0.000132609
-0.00215855
0.0002663
0.00189227
-0.00605949
-0.0125628
0.0186229
-2.64125e-06
6.79839e-07
3.48447e-05
-2.24468e-05
-0.000120488
-0.00271346
0.00283392
-0.000750781
0.000655942
-1.11747e-05
4.07852e-06
-0.0335015
0.01098
8.67714e-06
5.59928e-07
-0.000368271
1.17379e-06
-5.15397e-06
3.98048e-06
0.00255295
-0.0013953
-0.00115764
-4.33468e-05
-5.77067e-05
0.000101038
-9.07118e-06
-0.000435608
-0.000455033
0.000679746
-0.000982074
7.72721e-06
-1.70142e-05
0.000156682
-8.87346e-05
-6.7945e-05
-1.55196e-06
-8.06064e-06
0.00316282
-0.000829026
-0.0023338
0.00982501
0.0112218
-0.0210468
7.81653e-06
-7.81608e-06
2.91822e-05
-1.64566e-05
-1.27242e-05
-7.09125e-06
1.91571e-06
5.77246e-06
0.0584633
-0.0319471
-0.0265163
6.93858e-06
1.4908e-05
-2.18458e-05
0.0110548
-0.0109249
5.39189e-06
-1.34589e-05
-1.54886e-06
4.08339e-06
0.0110183
-0.00773114
-0.00328701
3.60592e-05
0.000149793
5.70254e-06
8.30717e-06
-1.40095e-05
-0.000407567
0.00357039
0.000198994
-6.98628e-05
-0.0265623
0.0217996
-0.00457608
0.00229324
3.35327e-05
1.31249e-06
-0.0172989
0.0375593
1.46543e-06
-1.55846e-05
-0.00095494
0.000252248
0.000702685
-4.01882e-06
-1.30627e-05
1.70795e-05
-0.000586725
-0.00234427
0.00293094
-5.63611e-06
6.93557e-06
-1.29955e-06
-0.00389912
6.54393e-05
0.00218656
-0.00671971
0.00453327
-8.26538e-06
2.45318e-06
0.00306307
-0.00347063
-0.00209724
0.00102304
0.00107417
-0.000294839
0.00082722
0.0439522
0.0114003
-0.0553525
-1.08352e-05
7.60871e-07
-0.0811443
-0.0178395
0.0989839
-1.54298e-05
7.92936e-07
-1.55493e-06
1.0101e-05
-8.54546e-06
-1.15941e-05
7.99823e-06
3.59619e-06
-1.61997e-05
-6.21724e-06
2.24168e-05
-0.000489499
0.000338309
-0.000211442
-1.80636e-05
0.000229505
-0.000202593
-0.000107266
0.000309868
-0.000111413
0.00103619
-0.000924791
-0.00559685
1.28251e-06
-2.8257e-05
-0.00185513
0.00304673
-0.00119172
-0.0308946
-0.0476999
7.65241e-05
-8.64658e-06
-3.28442e-06
6.7663e-05
-0.0142634
-0.0122989
0.0245369
0.0257075
-9.87145e-05
-7.99363e-05
-1.10267e-05
4.37596e-07
1.05895e-05
-0.00382272
0.00323602
-0.00114026
-0.00656199
0.00429637
-0.000601609
0.00350657
-0.0004435
0.0330015
-0.00486423
0.0111854
-0.0126672
-0.020095
-0.00426956
0.0211835
-0.00764099
-0.0109198
-0.00416756
0.0150873
0.000147177
-9.00115e-05
-0.0115095
0.00058971
0.000267191
-0.000282241
1.50505e-05
-6.82665e-06
1.19054e-06
0.00743603
4.51683e-05
1.55394e-05
0.000116722
-0.000132258
5.26207e-05
-7.72934e-05
3.37122e-06
1.58653e-05
-1.92378e-05
-1.73072e-05
4.14727e-06
2.24477e-05
-7.98933e-06
-1.44594e-05
0.000426478
-0.000942262
0.00156567
0.00107454
-0.00264021
0.0296298
-0.0385598
0.0138478
-0.0199068
-9.70915e-06
9.64338e-06
6.6099e-08
-0.00258946
0.00246895
6.12147e-05
6.63249e-05
-0.000127534
0.00213517
-0.0140787
0.0119435
-0.0661941
0.0352994
0.000115818
1.19116e-05
-4.3957e-06
-7.51578e-06
8.68093e-06
-0.00933944
0.0142797
-0.0049403
0.00126714
-0.00312221
-1.13476e-05
2.24529e-06
-1.88666e-05
1.9564e-05
-6.96116e-07
1.5811e-05
-0.000185403
0.000169595
9.07428e-06
-3.72633e-06
-0.000753354
0.00598423
-0.00523084
-0.0479565
0.0100515
0.0379051
-0.0070071
0.0024642
-0.000111364
-0.000429701
0.00054107
-0.000111024
-0.000378473
-0.000305459
0.000233305
7.21536e-05
1.30551e-05
-1.88107e-05
8.52597e-07
0.0153388
-0.00149863
-0.0138405
7.54205e-05
0.000155305
-1.32128e-05
-0.000142097
-1.09303e-05
-0.00010473
-0.00704415
0.0101577
-6.24751e-06
1.86643e-05
-3.19025e-06
-1.5476e-05
-0.0112276
6.24157e-06
2.83259e-06
-2.46755e-05
7.73029e-05
2.32649e-07
6.84015e-06
3.9597e-06
-1.26419e-05
8.6837e-06
9.41324e-05
0.000173054
0.000278566
-0.000438933
0.00275679
8.32077e-06
-2.07928e-06
0.00743463
-4.33816e-05
0.0319108
-0.0194123
1.04735e-05
-2.51642e-06
-7.95648e-06
-1.59315e-06
3.95436e-06
-2.36111e-06
0.000139299
2.67503e-05
1.15643e-05
-0.00782636
-0.00256285
-0.000664174
0.00418518
-0.00197477
-0.00203825
-0.0045237
0.0157665
-0.0969108
-8.07293e-05
-4.27395e-05
0.000123471
0.000108544
-9.30035e-05
0.000214063
-0.000109207
-0.00203222
0.000475415
-1.02752e-05
0.000131744
7.0408e-06
4.87074e-06
-5.78092e-05
0.000617605
-0.000254866
-0.00036274
-0.00096184
0.00113373
-0.000171831
-0.0278594
0.0139407
4.19109e-05
-6.07779e-05
-3.47675e-05
0.000132476
-9.77052e-05
-8.87748e-06
5.11642e-08
8.82656e-06
0.00051591
-0.00078998
0.000274069
0.000563309
0.000220876
-0.000784185
0.0573449
-0.0133927
0.000289304
3.96163e-05
-0.00032892
-8.1904e-06
1.35821e-05
-0.0011709
0.00260383
5.31127e-06
-5.69452e-06
6.95104e-05
-5.98079e-05
-9.69953e-06
0.000817108
-0.00105421
1.96105e-05
6.23368e-08
4.96498e-06
1.03956e-05
9.80376e-05
0.00104388
5.26973e-06
-1.50248e-05
9.75454e-06
0.000842054
0.00403862
0.00040063
0.000765697
4.88251e-05
0.000402429
0.000520123
-0.000922552
5.52862e-05
0.000100017
1.0752e-06
-9.9524e-06
-0.00417896
-0.0101373
0.0143161
-0.00159662
-0.00557603
0.00353794
-5.64397e-05
5.19388e-05
-6.32437e-06
2.32e-06
4.00423e-06
-0.000340088
8.44167e-05
-0.000214496
7.72227e-05
0.000137269
0.00184178
0.00214351
-0.000246148
0.000127796
0.000118355
-0.00239214
-0.0015102
0.00390247
-0.0235619
-0.0099396
5.89305e-06
-5.71019e-06
-6.49149e-05
-0.000350673
0.000171274
1.2292e-05
-1.02249e-05
-2.06642e-06
3.85029e-06
3.08526e-06
1.37246e-05
-9.76434e-06
-0.00120079
0.00117358
2.72027e-05
0.00181519
-0.000800831
0.00070709
0.00184585
7.07377e-06
1.24677e-06
-0.00754146
0.00200443
0.0055371
-0.00493027
-0.00240813
-0.00513329
-3.40794e-06
-7.92487e-06
1.13342e-05
1.32908e-06
-6.5638e-06
5.23478e-06
4.95672e-06
-5.92309e-07
-4.3645e-06
0.00148048
0.000392231
0.00560384
-0.00966917
0.00406568
0.000144522
-5.12152e-05
-9.33065e-05
2.05033e-05
-0.000227209
-0.000123466
-2.12728e-06
-6.82948e-07
-7.70275e-07
-8.91472e-06
9.6857e-06
-1.36614e-05
5.01256e-06
8.6509e-06
-0.000296311
0.000511524
-0.000215226
0.00219571
0.0162429
-0.0184377
-9.42623e-06
1.46958e-05
6.44469e-06
6.28911e-07
-2.67115e-05
1.05117e-05
-1.12702e-06
-1.25326e-05
0.0108319
-0.00195614
-0.00887569
-0.00211569
0.00399972
-0.00188404
-0.000139755
-0.000356486
0.00220603
-0.00184962
0.0657103
-0.0835498
1.63726e-05
-1.1408e-05
-0.000427386
0.000224797
0.0114915
-0.000157107
0.0155197
-0.0240727
1.24767e-05
1.06869e-05
-0.000763458
4.73052e-05
9.72176e-05
-0.000454073
0.00720969
-8.9494e-06
0.0260826
3.18512e-06
2.88469e-06
0.000105159
-5.35719e-05
-0.000212632
0.000161804
3.99644e-05
-3.98485e-05
-1.15151e-07
-6.2063e-05
0.000169611
-0.00010755
0.000790509
-0.00783465
-1.0524e-05
8.96967e-06
-6.36892e-05
-0.00713675
0.0314083
-0.00529128
0.0135087
-0.00821766
0.000308036
-1.87296e-05
-0.000833933
0.00269124
0.0159852
0.00643413
-6.43375e-06
9.18678e-06
-1.25944e-05
0.00607469
0.00494385
0.000133201
-0.00011739
-0.00388728
0.00346938
-0.000110138
-0.000136009
1.77293e-06
-4.21988e-06
2.44691e-06
-1.85387e-06
-4.90021e-06
6.75274e-06
-1.60462e-09
-0.0630469
0.0788134
-0.000415162
0.000354711
6.04563e-05
0.00025714
-0.000341316
8.41771e-05
-2.06373e-05
5.07467e-05
-3.01082e-05
-0.00527166
0.0150967
-2.08791e-06
3.30484e-05
-3.0958e-05
3.61685e-06
1.33984e-06
-0.000632886
-0.00201853
0.00265133
0.0107473
0.00698017
-9.90137e-05
0.000211904
-0.00011288
-1.83978e-06
5.67994e-06
-1.51069e-05
-2.59427e-05
-6.32013e-05
8.91486e-05
-0.00261054
-0.000444717
0.00305526
-8.34292e-05
-0.000106413
0.000501262
6.20489e-05
-3.18653e-05
-0.000235134
0.000267001
-9.90313e-06
-0.0151469
0.012836
0.00139859
0.00189876
-0.00329743
0.00161267
0.000220461
-3.91053e-05
-3.59691e-05
7.50749e-05
0.00181343
0.00287105
-0.00175306
-0.00111799
-0.00122002
0.000243003
0.000977023
-0.000319076
-5.23831e-06
-8.43364e-07
-5.48093e-06
-1.62274e-05
-0.000118195
7.48326e-05
-5.00458e-06
6.08001e-06
0.00260709
-0.00323998
0.000319993
-0.000263455
-5.65367e-05
0.000452675
-0.00196446
0.00152553
-0.0145079
0.00880225
-1.15443e-05
-0.0318627
1.01235e-05
-1.16814e-06
-8.95431e-06
0.00294672
-2.66843e-06
6.51875e-06
-7.47385e-06
-9.55609e-06
1.70298e-05
-1.82052e-05
6.63739e-06
1.15667e-05
8.53728e-05
-0.000184327
-3.84891e-06
-5.7684e-06
4.44126e-06
1.32713e-06
0.00133464
-0.0299539
0.0286192
-1.85384e-05
-2.73981e-07
-0.000110982
8.50422e-05
-2.69002e-06
2.73446e-07
2.41673e-06
-0.000502398
0.000582487
-8.00876e-05
0.000112971
-0.000110499
-2.47123e-06
0.0103826
0.000449418
-0.00771693
0.0164307
-0.00871371
-5.9026e-07
6.53639e-06
-5.94575e-06
0.0101316
-0.0247735
0.00232464
-0.00268118
-1.54316e-05
6.31898e-05
6.47611e-05
-0.000127945
5.26867e-05
5.24729e-05
-2.81414e-06
3.98812e-06
0.00681527
-0.00603514
-0.000780112
-0.00160994
-6.18658e-05
-0.0112835
0.021415
0.000134053
6.6678e-05
-0.000200726
-1.04793e-05
-1.1002e-06
-0.0415556
0.000206026
-0.0023206
0.00211455
-0.00405088
0.000519092
0.00353179
0.000169499
0.000308019
0.00415768
0.00265759
-1.0405e-05
-6.21307e-07
-0.000755044
0.000252645
5.5305e-06
1.26381e-05
0.00512006
0.0455792
-0.0506993
0.000462255
0.000647251
-0.0109655
-1.08507e-05
1.65304e-05
-0.000492689
-0.000230241
6.44763e-05
0.000165765
-0.000206311
0.00030473
-4.75875e-05
-0.0120371
0.00290006
0.00913687
0.00104345
-0.00115486
6.17026e-06
-2.47094e-05
0.00362978
0.000373761
-0.00400355
0.00658707
-0.0107661
-0.00377544
-0.00203857
0.00581349
-0.0145551
0.00926358
0.000312145
0.000284942
-0.000597074
-0.000376893
0.0247049
-0.024328
0.000995945
-0.000452547
-0.000543399
-7.81861e-06
3.17927e-05
-0.00147489
-0.00558055
0.00415207
0.00189513
-2.33168e-05
2.26268e-05
6.91054e-07
4.8547e-06
-4.99344e-06
1.38753e-07
-0.000233001
0.000151876
-0.0381504
0.0105319
0.0276185
-5.75504e-07
4.35848e-06
-3.78305e-06
-0.00175165
-0.00205826
0.00380989
-1.24474e-06
3.01781e-06
3.30127e-06
-2.27835e-05
1.94842e-05
-0.000106428
-4.16707e-05
-3.27257e-05
7.4402e-05
0.026248
-0.0102628
9.55043e-06
2.74146e-06
-1.37449e-05
4.24316e-06
0.000104627
-0.00271518
-0.000504068
0.000207757
-0.000128287
0.000115072
-0.00043171
0.000847106
-0.000415398
0.00357477
-0.000184121
-0.00442552
-0.0025816
-0.00238241
0.00798641
0.000174954
7.70983e-05
7.41024e-05
8.51954e-05
-2.24136e-05
1.34342e-05
-1.74548e-05
-0.0412137
0.00127491
-9.176e-05
8.49987e-05
6.76098e-06
0.000225661
0.000215667
0.00543184
-0.00511526
4.32252e-05
-0.000840795
-0.00239921
-0.00654888
0.00277325
-2.32884e-05
8.45069e-05
9.83092e-06
4.03074e-06
-1.38609e-05
0.00010131
-6.25092e-05
-3.88005e-05
6.93282e-06
3.54081e-06
-0.000387551
7.72859e-05
-0.00013935
0.00461913
-0.0161378
0.0115183
1.42888e-05
-1.42879e-05
0.000391795
-4.69619e-05
-0.000344826
-3.56798e-06
2.99258e-06
-7.41096e-06
0.000120381
-1.928e-05
1.53839e-05
3.89532e-06
-0.00391188
0.000881962
0.00302985
-9.16595e-05
5.76995e-05
4.36111e-05
0.000462317
0.000131999
-0.000117261
-1.47376e-05
-0.00286548
0.00147018
-3.31127e-06
5.22723e-06
-0.000168321
0.00331639
-0.00205813
0.00908718
-0.00702909
-7.73028e-05
0.000102925
-2.56122e-05
1.30069e-05
-5.4675e-05
2.29429e-05
-0.000110668
0.0169505
-0.0342494
-3.6612e-05
2.70615e-05
9.5506e-06
0.000124642
9.33787e-05
0.00427149
-4.23822e-05
-6.8597e-05
0.0256622
-0.0260391
0.00414924
0.00128261
-2.45618e-06
2.0287e-06
4.26067e-07
0.000167701
-0.000266712
2.29254e-06
1.19969e-05
0.0589511
0.000475413
7.97565e-05
0.000190525
-0.000270281
1.39619e-05
-5.87253e-06
-8.08848e-06
3.82401e-05
-7.28234e-06
-3.09578e-05
-0.00367067
0.00921457
0.0226962
-0.0100728
0.00285065
0.00722238
-7.72517e-06
2.14159e-05
-1.36909e-05
1.58025e-06
-1.88382e-06
0.032588
-0.0137796
-0.0188098
3.64644e-05
-0.000235725
0.000290004
-0.000719701
-4.74619e-06
0.000138799
-0.000308255
-0.000245427
0.000553681
-0.0219294
0.0388799
0.00340057
-9.09694e-05
-0.00330967
-0.000241344
1.11034e-05
-2.09345e-06
-3.67493e-06
0.00054456
0.000451391
-1.13885e-05
7.00555e-06
4.38354e-06
9.99929e-06
-6.76088e-06
0.00796506
0.00398001
9.88037e-08
-2.22601e-06
0.00601168
-0.00971636
0.00370463
0.0131439
-0.0279861
2.25615e-05
-1.92587e-05
0.000557838
-5.87928e-06
-4.36608e-05
0.000234292
-0.000146452
-8.78402e-05
-0.00116284
-0.000934461
-0.000109469
-1.60588e-05
-0.00396748
-0.00806978
-5.74314e-06
-1.35376e-05
0.000118636
-0.000121654
-1.03984e-06
3.06833e-06
-5.73766e-06
-5.65056e-06
-9.1699e-06
2.49362e-05
-1.57643e-05
4.07716e-06
1.84864e-05
-0.000171642
-4.31042e-05
0.000214745
-6.39294e-06
1.47002e-05
-8.60219e-05
0.000133326
1.43277e-05
-4.49673e-06
0.000172062
-0.00967524
0.00107375
0.000984813
-0.00205857
4.51656e-06
6.23584e-06
0.0126257
0.00271299
-0.00380936
-0.000241483
-0.000602282
0.000720638
-0.000118367
0.000122326
0.000197667
-0.000142124
0.000280133
-0.000138007
0.000115244
-3.47122e-05
-2.50942e-05
-0.00300873
0.000423204
0.0201379
-0.0742045
-0.0159795
0.0901839
-0.00210729
-0.00193545
0.00404272
0.000137284
0.000251388
-0.000388666
-0.0184508
-3.66815e-05
-1.97569e-05
0.000153275
-2.12764e-05
-7.46155e-05
-0.0071728
-5.45997e-06
4.86992e-06
-0.00223542
0.00373026
-0.00149483
1.01846e-05
-9.97153e-07
6.03771e-06
0.0166353
-0.00690445
0.00104474
-0.000688197
-0.00035654
-0.00018757
-0.00219328
5.73492e-05
-6.60541e-06
-0.00402992
-3.65825e-06
-7.78635e-06
-5.95855e-06
-0.000679653
0.000520057
0.000159595
1.96345e-05
-7.15795e-06
-0.000325632
6.55932e-06
-1.63795e-05
1.05076e-05
-0.000573225
6.91532e-05
-0.000255562
0.00365608
-0.00283462
5.93116e-05
0.00277516
0.00565875
0.00784996
1.66234e-05
-5.4624e-07
1.067e-05
0.0015551
0.000239153
1.26083e-05
9.8375e-06
-5.11448e-06
-0.000159263
-1.6527e-05
0.000175791
-3.65833e-05
1.57127e-05
2.08691e-05
7.69965e-06
6.81476e-06
-1.45144e-05
-5.27095e-05
3.20722e-05
6.19067e-07
-1.88623e-06
-7.94622e-05
-0.0167452
0.01894
0.00614163
0.00122097
-0.000580142
-5.46231e-05
0.000482362
-0.000427736
1.47859e-05
3.87736e-06
-0.0118559
0.0302828
-0.0184268
-0.000100079
6.53132e-05
-1.12965e-05
0.0662977
-0.0192754
-0.0470223
0.00891514
0.00148147
-0.0103966
0.025036
0.00424677
-0.0292828
-1.09015e-05
-3.55101e-06
-0.0434586
-0.0205571
0.036629
-0.0274144
-0.00298715
0.00461052
-0.00162334
1.68959e-06
4.48267e-06
-6.17216e-06
0.0017005
-0.00165906
5.20103e-05
-0.000315465
-2.29149e-05
2.08292e-05
-0.000350844
-0.000328808
2.16272e-06
-7.88673e-06
5.72424e-06
-0.0172706
0.0106771
0.00659331
0.0125443
-0.00595727
0.0348541
4.00847e-05
-1.19636e-07
3.78165e-06
1.36647e-05
-1.74467e-05
0.0288083
-0.0275225
-1.00666e-05
-2.6545e-05
-0.00931111
0.0102961
-0.0322255
0.0401049
-0.0304882
-0.00961613
-0.00174397
0.000472229
0.00127173
-0.0424229
-0.00753223
0.0499551
4.00474e-06
8.49966e-07
-1.89218e-06
1.87268e-05
-1.6836e-05
0.00622593
-0.00629365
6.76875e-05
-0.00287779
0.00204876
-5.15942e-05
4.64831e-05
5.11311e-06
-0.00251331
-0.000223843
0.000361131
-2.17594e-05
-1.48241e-05
-0.000662583
0.000354328
0.0197456
-0.0221879
0.00244022
1.66692e-05
-8.96959e-06
-8.57286e-05
-0.000471338
0.000559975
-3.88166e-05
-0.00052119
0.0843908
-0.0254397
0.0001618
0.000713143
-0.000874932
5.34244e-06
-7.19686e-06
-5.0994e-05
2.38108e-05
2.71832e-05
4.92656e-05
-1.23648e-05
-3.69008e-05
-0.022755
0.0411061
-0.0183511
0.0681535
-0.030706
-0.0374476
6.51e-06
-4.81979e-06
-8.88672e-06
8.88713e-06
2.69411e-05
1.31442e-05
-0.000182862
-8.91562e-05
4.98435e-06
9.78342e-07
-5.96257e-06
3.48864e-05
-7.94464e-06
1.74603e-05
-1.64882e-05
0.000110054
-0.000147538
3.74882e-05
-0.000266694
-0.000148463
-0.00144306
-0.000644281
-0.00151426
-4.9241e-06
-1.32814e-05
-1.26304e-05
-7.91295e-05
-0.00105085
0.00309531
-0.00204454
-4.71592e-05
2.28094e-05
0.00221554
0.00483244
-0.00293321
-0.00189913
-0.000117725
0.00012191
-4.18186e-06
2.70993e-06
-3.45351e-06
7.43891e-07
-7.67422e-05
-8.10741e-05
1.59866e-05
-1.26168e-05
1.99111e-06
6.55339e-07
6.59192e-06
4.26754e-05
3.93126e-05
2.62013e-05
-6.55049e-05
5.72075e-05
-0.000122736
0.083009
-0.0521007
-4.94068e-05
-0.0204186
-3.67203e-06
-1.4562e-05
1.82345e-05
-3.40602e-06
-1.54906e-06
5.26896e-06
-2.57128e-05
2.04436e-05
-0.0250971
0.0132411
0.0285662
0.0492828
-0.077849
-1.46443e-05
1.11209e-05
0.000154663
-4.46073e-05
0.00529648
-0.00236577
0.000214911