/*--------------------------------*- C++ -*----------------------------------*\
| =========                 |                                                 |
| \\      /  F ield         | OpenFOAM: The Open Source CFD Toolbox           |
|  \\    /   O peration     | Version:  v2012                                 |
|   \\  /    A nd           | Website:  www.openfoam.com                      |
|    \\/     M anipulation  |                                                 |
\*---------------------------------------------------------------------------*/
FoamFile
{
    version     2.0;
    format      ascii;
    class       volVectorField;
    location    "400";
    object      ddtCorrDdt0(U);
}
// * * * * * * * * * * * * * * * * * * * * * * * * * * * * * * * * * * * * * //

dimensions      [0 1 -2 0 0 0 0];


internalField   nonuniform List<vector> 
13851
(
(-0.000316598 0.000900282 0)
(-0.0485917 0.139518 5.54959e-21)
(0.0068701 -0.00669335 6.96445e-21)
(5.96724e-05 0.000834148 0)
(0.00363989 0.00260422 0)
(0.0313269 -0.00355919 0)
(2.39403e-05 6.44565e-05 0)
(0.00127742 -0.00286388 5.71417e-21)
(8.43888e-06 -1.6006e-05 -2.11797e-22)
(-0.00996651 -0.0183263 -1.24516e-20)
(-0.0225738 -0.0618965 0)
(0.0322563 -0.126126 -2.07611e-20)
(-0.00393482 0.0136576 2.11833e-21)
(0.0368981 0.142322 -6.12746e-21)
(1.9685e-05 2.68103e-06 7.08804e-25)
(-0.00218656 0.000480236 -1.78325e-23)
(-0.000104164 -9.48538e-05 2.07685e-21)
(0.00153146 -0.00276818 -9.00672e-21)
(-5.51705e-05 0.0181836 1.38404e-21)
(7.76947e-06 -1.92811e-05 4.12544e-22)
(8.51026e-05 0.000722408 9.93055e-22)
(0.00692929 -0.00527737 1.98361e-21)
(6.8872e-06 7.98693e-07 -3.08219e-23)
(8.80929e-06 -6.13458e-07 4.31599e-22)
(6.44082e-06 7.46548e-07 0)
(0.00104337 -0.00329302 -6.70692e-22)
(0.000128784 2.25013e-05 0)
(0.0064739 -0.0199224 5.26405e-21)
(-0.000373014 0.000699243 8.39878e-23)
(0.000710534 2.30718e-05 -1.69712e-21)
(0.0349861 -0.0103482 0)
(-0.000118984 -0.000127216 0)
(0.00576428 -0.00723009 -1.20126e-20)
(-0.00712775 0.159165 0)
(8.92194e-06 -1.7772e-06 -6.74457e-22)
(-0.00080152 -0.00180831 9.40821e-23)
(-0.00112305 -0.00411583 1.56477e-21)
(0.0210625 0.00764512 0)
(-0.00971621 -0.02115 4.95272e-21)
(0.00468839 0.118513 8.79609e-22)
(3.2126e-05 -1.0971e-05 3.83295e-22)
(5.97536e-06 1.43528e-05 2.94335e-24)
(-0.0143105 -0.0362495 -2.32018e-21)
(-0.00832774 -0.096598 0)
(-0.0103856 -0.0931108 0)
(-0.0581615 -0.0142834 6.39018e-22)
(-0.00136709 -0.113881 -4.13085e-22)
(-0.0286195 -0.020271 -1.83452e-21)
(0.00014195 2.41703e-05 -4.51757e-21)
(0.0101132 -0.0165422 9.9832e-22)
(0.000168862 0.00165952 2.08761e-21)
(-0.00201769 0.00445283 -7.51089e-22)
(0.00134119 -0.0757285 0)
(2.11882e-05 8.42342e-07 -2.57057e-21)
(2.57074e-05 -2.08727e-06 0)
(5.2565e-06 1.46442e-05 0)
(3.95923e-06 -1.36077e-06 2.39963e-24)
(0.02588 -0.0768894 -1.23357e-20)
(0.000640414 -3.31188e-05 -2.81186e-21)
(3.67092e-05 3.89336e-05 -1.51035e-21)
(0.0228996 0.00685492 0)
(0.0368592 0.0801817 3.55985e-23)
(-0.005073 -0.0202508 -3.93061e-21)
(0.00304945 0.00416385 1.08575e-22)
(0.0488482 0.0317884 -1.97605e-20)
(-0.000109288 0.00223948 5.10747e-22)
(-0.00125614 -0.00461883 0)
(-0.00142088 -0.108474 1.70224e-23)
(0.000630892 0.000113502 1.81635e-22)
(0.00110005 -0.00301699 4.84833e-21)
(-0.00738424 -0.000458118 -2.46217e-21)
(-0.000857251 -0.00463881 0)
(-0.037361 0.150646 -8.38111e-22)
(2.05417e-05 1.05196e-06 2.26099e-21)
(2.49432e-05 4.07611e-07 8.03934e-22)
(-1.45592e-05 8.88751e-06 -2.49039e-22)
(0.0062056 -0.00493071 0)
(-0.000525241 -0.000719989 -4.97334e-21)
(0.00178399 6.08005e-06 -4.28169e-21)
(-0.00895181 -0.00040288 -3.76586e-22)
(4.85096e-05 2.50225e-05 -3.49873e-21)
(0.00206178 0.0857252 5.53711e-23)
(3.19668e-05 1.42886e-05 -5.30332e-21)
(-0.0498646 -0.029176 0)
(-0.00166937 -0.0217356 6.14564e-21)
(0.0290774 -0.122734 1.49851e-20)
(0.0181775 -0.00762856 -1.88122e-21)
(-0.115797 0.0770344 -1.13222e-20)
(9.32048e-05 -0.00014922 0)
(-0.00026833 -0.000191046 0)
(-0.000949225 -0.00162245 0)
(-0.0122451 0.00516554 0)
(-0.00128338 -0.0942458 2.00117e-22)
(0.000247617 -0.000242811 0)
(0.000105095 -0.000119321 1.93024e-21)
(7.35169e-06 -1.98766e-06 7.16155e-23)
(0.00332037 0.0030836 0)
(-0.0168837 0.0111724 -1.01424e-20)
(0.00944453 -0.0196352 -9.52815e-22)
(7.35909e-06 -1.01852e-06 0)
(0.0729357 0.0640894 -7.81944e-22)
(0.00121688 0.000750868 -1.46334e-21)
(-0.000146844 -0.000136948 0)
(0.000101361 0.00018903 4.58983e-22)
(9.39875e-06 -2.81565e-07 0)
(0.0130373 -0.0162987 1.01953e-21)
(0.000969544 0.00111742 0)
(1.07378e-05 3.63719e-06 -2.37553e-24)
(-0.00102504 -0.00405601 0)
(0.0336066 0.00214696 -2.44549e-21)
(1.07461e-05 3.15911e-07 2.07968e-22)
(-0.00029178 -0.000274756 0)
(-0.00957588 0.00475631 -6.86731e-23)
(1.00183e-05 3.38067e-07 0)
(1.0145e-05 3.13809e-07 0)
(0.0160499 0.154485 -1.06988e-22)
(-0.0150778 0.0123904 2.56842e-21)
(6.83849e-06 1.02948e-05 0)
(1.9315e-05 -1.00772e-06 -2.66762e-23)
(2.63172e-05 -1.66128e-06 8.87792e-22)
(-0.0100546 -0.0406868 1.86083e-23)
(0.000102558 0.000176425 -7.674e-22)
(-0.00482426 0.0149801 0)
(0.0415742 0.0815147 2.60768e-21)
(-0.0445206 -0.0157625 1.97663e-21)
(-0.0015443 -0.000760214 4.42904e-23)
(-0.053222 0.0177662 5.82719e-21)
(0.00156099 0.000444529 5.73773e-22)
(0.000249231 0.000628949 9.65165e-22)
(0.00694732 0.0082655 -2.11946e-21)
(3.29512e-05 -1.25136e-05 1.04376e-21)
(1.73222e-05 6.62436e-06 3.6462e-22)
(-0.00733806 -0.000669545 1.71249e-21)
(3.13457e-05 1.17379e-05 4.21373e-21)
(0.00603747 0.173733 2.85925e-20)
(1.68722e-05 1.11066e-06 8.03383e-22)
(6.86819e-06 9.51349e-06 -1.4735e-23)
(-0.000672585 -0.00481809 -1.31442e-22)
(-0.00423567 0.089773 0)
(-0.0388356 0.0262778 -1.11679e-20)
(0.0461419 0.0509703 8.06417e-22)
(2.64934e-05 -2.73117e-06 -1.51295e-21)
(-0.00155656 -0.000251074 -2.27159e-22)
(6.83576e-05 3.06047e-05 0)
(1.43235e-05 0.000119163 -1.75667e-21)
(-0.00093942 -0.100878 1.80371e-22)
(0.00400948 0.00623453 -5.50911e-23)
(0.00824804 0.00822613 3.73797e-21)
(2.57912e-05 5.97803e-05 3.50542e-21)
(-0.0142701 -0.0714526 -7.74996e-23)
(0.000174268 0.000275465 -1.36975e-21)
(2.52488e-05 -1.06221e-06 -1.57563e-21)
(0.056495 0.130674 -2.29756e-21)
(3.97721e-06 -7.27236e-07 2.46006e-22)
(4.80597e-05 -3.10779e-07 0)
(3.25366e-05 0.000133195 6.19652e-21)
(1.30713e-05 -3.06369e-05 0)
(0.000353466 0.00010119 4.90777e-21)
(-0.00179837 0.00499377 7.48368e-22)
(0.00034471 0.00168994 -2.078e-21)
(4.60442e-05 1.31047e-05 -6.45863e-26)
(0.000317277 3.76115e-05 0)
(0.021211 -0.0756993 7.20356e-21)
(1.81231e-05 6.74144e-06 -4.03257e-22)
(0.00118263 0.00146867 0)
(2.50021e-05 -7.38922e-07 1.93291e-24)
(0.00340373 0.00848293 4.92249e-23)
(0.000626786 0.000176343 8.95961e-23)
(0.000242009 0.000539972 0)
(-0.0405547 0.01113 0)
(-0.000554225 -0.000459588 6.00843e-21)
(1.18756e-05 -6.59926e-07 0)
(1.23462e-05 -3.31584e-05 1.732e-21)
(-0.0262343 0.0472277 1.23423e-20)
(1.85821e-05 6.23765e-06 0)
(-0.0307578 -0.045264 -7.19377e-22)
(0.00158069 0.000290979 1.97277e-21)
(-0.000476217 -0.00130307 0)
(-0.0020483 0.0181901 2.96294e-21)
(1.03865e-05 1.60432e-06 0)
(-0.000195264 -0.000172967 -2.86466e-21)
(-0.000534173 -0.00465703 0)
(2.85842e-05 6.5113e-06 0)
(0.00789577 -0.00470992 -3.84746e-21)
(6.99031e-06 -5.52324e-06 8.73464e-26)
(6.75784e-06 -1.46499e-06 0)
(-0.000571089 0.00223672 0)
(2.33329e-05 -2.23169e-06 -4.3524e-22)
(0.00538418 0.00341999 0)
(-0.0260108 0.0101072 1.24599e-20)
(0.000180772 -0.111636 -3.13261e-23)
(0.00437705 -0.0787922 0)
(-0.00052511 -0.000399331 1.44886e-22)
(0.000728567 -0.000111995 -9.4149e-22)
(0.0451746 0.0664643 5.35551e-23)
(3.93896e-05 9.83106e-07 5.86704e-23)
(-0.00123163 -0.000112143 -2.6661e-22)
(0.0345915 -0.0405962 -1.00291e-21)
(-0.000624638 -0.00105241 0)
(-2.65375e-05 5.31763e-06 2.48885e-22)
(-0.00140373 -0.00115635 -4.44764e-23)
(-0.0832294 0.0344047 -2.80963e-20)
(3.18766e-05 -5.74372e-07 1.09245e-21)
(4.29727e-05 1.04961e-05 0)
(-0.0169836 -0.00126614 -2.22907e-21)
(2.92388e-05 5.57626e-06 -4.63581e-21)
(0.0772022 0.0164147 1.11929e-21)
(-3.35766e-05 -0.000140239 4.52773e-21)
(-0.00397737 -0.00130035 2.81431e-21)
(1.61147e-05 -4.67553e-06 -6.6381e-25)
(-0.00105076 -0.00236603 2.94801e-21)
(-0.000118515 -0.000112671 0)
(0.0123119 -0.0253578 -5.93455e-22)
(1.17047e-05 -7.37423e-06 4.70635e-25)
(5.31303e-05 -2.28592e-06 0)
(-0.0317319 -0.0117928 6.85746e-22)
(0.0041824 -0.0185346 -3.55299e-21)
(-0.0530667 -0.0179569 -6.77579e-22)
(2.11506e-05 -3.72902e-07 3.10057e-21)
(-0.00381394 -0.00138411 -2.79336e-21)
(-5.44347e-05 -0.000163149 -8.44588e-21)
(4.8892e-05 2.73207e-05 4.93359e-21)
(-0.00510267 0.00206896 0)
(0.000925696 0.00690799 1.89768e-22)
(-0.00319993 -0.0026086 0)
(3.77257e-06 -3.75119e-07 -9.95407e-23)
(0.000385672 -0.000335967 0)
(9.19939e-06 -7.37083e-08 -6.46934e-24)
(-0.00904294 -0.0721183 3.1544e-21)
(1.22522e-05 -9.05535e-06 -2.17754e-24)
(0.000494416 -0.00330644 -5.48704e-21)
(0.0509864 -0.015186 1.01167e-20)
(1.21365e-05 -1.82592e-06 8.90688e-23)
(-0.000479601 -0.000261559 0)
(0.000252633 0.00115066 1.21119e-21)
(0.0107006 -0.00151796 -3.7858e-21)
(0.0767752 0.0156687 -1.45504e-20)
(0.052754 0.0366349 2.40005e-20)
(7.32912e-05 1.62756e-05 0)
(4.33381e-05 1.46869e-05 9.9615e-22)
(0.0307379 -0.0147076 0)
(0.000229462 -0.0513659 0)
(0.000179777 0.000283366 0)
(-0.0196016 -0.00235003 2.48517e-21)
(1.03396e-05 6.37069e-08 7.51711e-24)
(-0.00390317 -0.00232174 -2.37288e-21)
(0.00136828 0.000806429 0)
(-0.00916268 0.0594054 -1.09694e-21)
(5.61723e-05 0.000179638 3.40922e-21)
(-0.000347904 0.000287588 0)
(0.00667982 0.00137808 9.1162e-23)
(-0.00681894 -0.061233 0)
(6.69706e-05 3.66015e-05 0)
(3.11369e-05 0.000170317 -1.80216e-21)
(0.000488559 0.000796844 -2.01821e-21)
(-0.0502884 -0.021523 0)
(-0.0225403 0.0124707 -1.21656e-20)
(-0.000352537 -0.00467871 6.52045e-22)
(0.0121262 -0.00672602 -1.00702e-22)
(2.26014e-05 1.68112e-05 0)
(5.59143e-05 5.71552e-06 0)
(0.000234722 -0.00259025 0)
(0.0725298 -0.0347018 0)
(-0.000221633 -9.83413e-05 -1.08707e-23)
(0.00084431 0.0241053 0)
(4.23675e-05 -1.21043e-07 -7.20751e-21)
(6.46083e-05 3.07756e-05 -2.51186e-21)
(0.000217353 -0.00021463 0)
(-0.0047849 0.00269234 0)
(-0.0123041 0.00352602 2.42599e-22)
(0.00672162 3.79416e-05 -1.68221e-24)
(4.35857e-05 -4.06614e-06 -6.91923e-21)
(0.0771471 -0.0171381 -1.42757e-21)
(0.00159955 -9.72606e-05 -4.31071e-21)
(-0.00198047 0.000793462 -1.06253e-20)
(1.71519e-05 7.3816e-06 -8.02864e-22)
(0.000176135 0.0767475 -2.64732e-22)
(-0.0127863 0.0139037 -5.2601e-22)
(-0.00406462 -0.00260024 0)
(-0.0291905 -0.044354 1.95543e-21)
(0.000281567 0.000285553 0)
(1.69395e-05 -1.04844e-05 0)
(8.55892e-06 -1.16733e-06 0)
(0.000518326 0.000740252 6.80649e-22)
(0.0764058 -0.0616595 0)
(-0.0410483 -0.0806857 1.22355e-21)
(-3.09907e-06 -1.94062e-05 -4.37789e-22)
(1.51935e-05 1.60328e-05 -7.55278e-22)
(0.0729389 -0.0285743 1.7035e-21)
(0.0122098 0.0514338 -5.71565e-22)
(0.00863447 0.0100054 2.21626e-21)
(0.00054178 1.47041e-05 3.68133e-21)
(3.8127e-05 3.50257e-05 0)
(0.000818238 8.86003e-05 0)
(0.0111575 0.068654 3.35137e-22)
(7.99952e-05 0.0220856 -3.42026e-21)
(0.000562277 0.00132752 0)
(0.0227662 -0.1229 -6.24883e-22)
(1.68899e-05 6.14617e-06 -4.29898e-22)
(-0.00347026 -0.0023909 2.25524e-21)
(0.000286627 4.23546e-05 3.43634e-21)
(-0.000124839 -5.48087e-05 2.42067e-21)
(-0.0034264 -0.00283847 -8.25176e-22)
(4.58948e-05 -4.74346e-05 1.58075e-21)
(0.0165048 -0.0145871 0)
(-0.00270338 -0.000881022 -1.60883e-21)
(1.38043e-06 -2.0976e-05 0)
(0.000652911 0.00055758 -1.39865e-21)
(0.000232525 -0.000295524 0)
(0.000479418 -2.62509e-05 -1.53261e-21)
(-0.00195284 0.0758472 -8.14686e-22)
(0.00061978 0.00145757 -9.9182e-21)
(7.5718e-05 4.42985e-05 -5.08137e-21)
(-0.00850652 0.00406639 -2.19592e-21)
(7.62436e-06 1.01172e-05 -1.9223e-24)
(-0.000402927 0.000257209 -1.93161e-21)
(-0.00132805 -0.00219618 -1.87753e-22)
(-0.00299448 -0.00280684 5.48719e-22)
(-0.000601157 -0.000581518 0)
(2.11412e-05 -2.59962e-07 0)
(0.000878249 0.000892937 0)
(2.01169e-05 5.49087e-06 0)
(0.00461742 -0.00819729 8.10825e-22)
(0.00924908 0.00378325 3.96846e-23)
(3.62769e-06 9.02922e-07 1.87132e-23)
(-3.53691e-05 -5.17948e-06 9.02491e-22)
(-0.000715202 -0.000405405 0)
(0.00033679 -0.000304669 -6.10431e-21)
(5.81988e-05 4.08321e-06 -3.76636e-21)
(1.35322e-05 1.59269e-05 -7.38891e-22)
(4.91628e-05 -3.73586e-05 0)
(7.77873e-05 4.63625e-05 4.39806e-21)
(-0.0196129 -0.0722242 -3.51515e-22)
(0.0996951 0.0792362 0)
(-0.0421829 0.0350651 -1.9818e-20)
(-0.00208052 -0.00546773 -2.34315e-21)
(-0.00246263 -0.00296374 3.9214e-22)
(0.0320529 0.0254288 0)
(2.06654e-05 1.75263e-06 -1.3037e-21)
(0.000792295 -0.000171753 -9.88753e-22)
(0.0103671 0.0101024 -2.23333e-21)
(-0.0159249 -0.000840872 8.59562e-22)
(0.017952 -0.00427793 -2.62106e-21)
(-0.00155333 0.00321572 0)
(0.000769295 0.0201283 -6.29961e-22)
(-0.000982377 0.00369571 0)
(0.0118044 -0.0164553 1.70602e-20)
(-0.00253394 -0.00169789 0)
(1.95525e-05 2.06211e-06 0)
(0.0116404 -0.0141437 -5.34353e-24)
(0.0093849 -0.0164991 -1.06291e-23)
(0.0345925 -0.0215344 0)
(6.11704e-05 1.37267e-05 3.80688e-21)
(0.0205348 -0.00458618 2.44505e-20)
(-0.0102332 -0.0739139 -4.04414e-21)
(9.51861e-06 -3.44132e-05 -5.70486e-22)
(0.0238783 -0.0349574 -9.19392e-21)
(-2.49647e-05 8.49783e-06 9.03685e-22)
(2.12821e-05 7.15897e-06 6.95769e-22)
(1.06539e-05 -1.09451e-06 -1.0341e-23)
(1.06569e-05 1.92178e-06 8.02488e-25)
(1.8149e-05 -3.04061e-05 -5.63047e-22)
(-0.00210432 -0.00175063 -4.15126e-21)
(0.032522 -0.0425737 0)
(4.90676e-05 2.47719e-05 1.27095e-21)
(0.000647266 0.000493851 -2.71624e-22)
(1.14631e-05 4.688e-06 0)
(0.0187702 -0.125387 0)
(-0.00397178 0.00277741 -1.0738e-20)
(-0.0132677 -0.0308152 -1.05568e-21)
(-0.0370909 0.0197212 9.86302e-21)
(5.01002e-05 2.17139e-05 1.31286e-21)
(0.00674646 -0.0205933 1.05322e-20)
(0.000148033 -0.000377148 -3.01212e-21)
(-0.0169383 -0.0240777 -1.0148e-22)
(3.48522e-05 -1.75507e-06 -5.92918e-22)
(6.64469e-06 1.05331e-05 0)
(0.00123599 0.00825892 0)
(0.115383 0.0540808 -1.00234e-21)
(2.41149e-05 2.03174e-07 0)
(0.0214091 0.0566298 0)
(-0.0163188 0.00256966 0)
(-0.00198553 0.00327374 0)
(-0.0523409 0.00402398 0)
(0.0143335 -0.0339138 -2.7793e-23)
(0.0183806 -0.0310866 3.05843e-22)
(0.00294771 -0.00374951 1.81943e-22)
(1.70836e-05 -7.39577e-06 5.00925e-22)
(2.05069e-05 3.53905e-06 -2.63951e-21)
(-0.00204658 -0.00442155 0)
(0.00077772 0.000856014 0)
(0.0427873 0.134601 6.77773e-21)
(0.000574284 0.000253475 0)
(-0.0024327 -0.00271466 -1.31407e-21)
(-0.00249215 -0.00119277 -1.48244e-21)
(1.40463e-05 3.22765e-06 -1.27533e-24)
(2.19442e-05 1.92307e-05 -3.10415e-21)
(-0.049708 0.0261396 1.01894e-20)
(-0.00793813 -0.000635918 0)
(0.0456903 -0.0208878 -1.55032e-20)
(-0.013262 0.0102999 0)
(0.00224857 0.00973037 1.01755e-22)
(0.000191682 -0.000420039 0)
(5.53436e-06 2.6732e-07 2.44616e-23)
(0.0276174 0.0229054 0)
(9.32755e-06 1.10292e-05 2.18187e-22)
(-0.00198001 0.000182547 5.57508e-21)
(0.00221033 -0.00329268 -3.51336e-22)
(3.29133e-05 2.8928e-05 0)
(8.97354e-06 -3.12586e-07 -1.54172e-24)
(3.91772e-06 -1.81992e-05 -5.84597e-22)
(2.34052e-05 -1.23408e-06 -1.09914e-24)
(0.00250732 0.00386803 -2.50737e-22)
(0.0147012 0.00327938 -1.51843e-20)
(-0.0017767 -0.0107976 5.46887e-21)
(0.000177578 -0.00374741 -2.42662e-21)
(0.000856446 0.00102341 0)
(0.00732037 0.00738215 -1.64119e-21)
(-0.0191716 -0.0556315 -4.17679e-22)
(-0.000483712 0.000484388 2.77711e-23)
(0.0377805 -0.0272236 0)
(-0.000104884 -2.85129e-05 7.06098e-21)
(-0.031422 0.00436604 -6.99296e-22)
(7.88989e-06 8.97337e-06 1.14034e-23)
(5.92379e-06 -1.91619e-05 1.14727e-22)
(7.23847e-06 -7.88153e-07 0)
(0.0283271 0.00780263 0)
(-0.00864475 -0.150573 9.2987e-22)
(0.00253536 0.0072045 7.83929e-22)
(0.00549568 0.0076087 1.02347e-21)
(0.00334327 -0.0112351 -4.53611e-21)
(-0.0102305 0.17206 -4.95111e-22)
(0.0155826 -0.0100856 1.16771e-21)
(2.61616e-05 -7.44979e-07 1.50413e-21)
(0.000159961 0.00110803 0)
(3.43102e-05 -2.42417e-06 5.96033e-22)
(-0.0263883 -0.0590641 6.92765e-22)
(8.85709e-06 1.07052e-06 0)
(0.0523547 -0.0476738 -1.97116e-20)
(-0.0302781 -0.0502551 0)
(0.00328875 -0.00831318 5.48437e-22)
(-0.00308627 -0.001001 0)
(-0.00104613 -0.00109157 1.2075e-22)
(-0.000802844 0.0220468 8.47028e-23)
(-0.0260701 -0.0641824 -4.83901e-22)
(0.116976 0.0532467 2.69306e-23)
(8.12635e-06 -6.68799e-06 -1.12272e-24)
(0.000290101 -0.000530934 0)
(0.00177905 0.000205168 2.49962e-21)
(-0.0143775 0.00706775 -2.61007e-22)
(9.58639e-06 1.01641e-05 1.04377e-22)
(8.47611e-05 5.1232e-05 6.7795e-21)
(0.000213548 0.000353612 -1.02784e-21)
(-0.00171665 0.00417766 0)
(0.00146498 -0.00630658 0)
(0.00745849 -0.108469 0)
(3.77168e-06 -8.59446e-07 2.17698e-22)
(-5.83722e-05 -2.88574e-06 8.43602e-22)
(-0.0210476 -0.0450687 -4.75813e-22)
(0.00155468 0.00161596 2.80643e-21)
(1.52308e-05 -1.19715e-05 -1.13354e-25)
(-0.110612 0.0726924 0)
(1.69479e-05 -4.68523e-06 -1.05253e-21)
(-0.000125096 0.000958747 -5.52484e-22)
(8.02566e-06 -3.52561e-06 2.31894e-22)
(0.00332003 0.00701924 -4.87526e-21)
(0.000285749 4.68636e-06 -3.00882e-21)
(1.61467e-05 -7.20517e-06 7.06477e-25)
(-0.00114419 -0.000792685 1.35761e-22)
(-0.00883922 0.00573409 -9.48715e-22)
(3.3582e-05 1.55179e-05 0)
(0.000659827 0.000284749 0)
(1.63465e-05 3.52443e-07 -1.04548e-21)
(0.000988105 -0.00637197 -2.71344e-22)
(-0.0187521 0.0266384 -2.91809e-22)
(1.21129e-05 -1.30556e-07 0)
(5.42242e-05 1.56889e-05 1.08863e-21)
(1.37216e-05 -2.76188e-07 0)
(1.36287e-05 -4.29029e-07 -6.23996e-22)
(-0.0360768 -0.105692 -1.46516e-21)
(5.89261e-05 2.27937e-05 0)
(0.0227919 -0.00805606 -7.75319e-22)
(2.76973e-05 4.36272e-06 -9.25932e-22)
(5.7303e-06 6.66981e-07 9.14151e-23)
(0.0159071 0.10921 -1.05699e-21)
(-0.00315041 -0.000917168 -1.06154e-21)
(3.01403e-05 3.23711e-06 -1.07285e-21)
(0.000341394 -0.00762342 0)
(-0.000561828 0.000374662 -8.95011e-21)
(0.0123028 -0.0491724 9.579e-22)
(-0.0515628 -0.0275563 0)
(-6.49175e-05 -2.0487e-05 0)
(0.0322059 -0.0555783 -9.1589e-22)
(3.38563e-05 -7.63748e-06 0)
(0.00549786 0.00143124 0)
(3.6869e-05 2.42414e-05 0)
(-0.0255307 -0.0601782 -1.82058e-21)
(9.67662e-06 5.76751e-06 1.08151e-23)
(0.00442408 -0.0654721 4.28296e-21)
(-0.0181857 0.0195397 1.68974e-20)
(6.19716e-06 1.33952e-05 -2.6111e-24)
(-0.00164983 -0.007495 5.61141e-22)
(-0.0227164 0.005971 7.28407e-21)
(0.000237536 -0.00380129 1.3145e-20)
(-0.00273188 0.0986473 2.46647e-21)
(1.87168e-05 -2.0359e-06 9.69177e-22)
(-0.0352025 0.22 -1.19515e-21)
(2.77028e-05 -8.64111e-07 -2.0972e-22)
(1.92025e-05 -3.00872e-06 3.48104e-22)
(1.7634e-05 8.0787e-06 -3.79331e-22)
(2.51933e-05 4.96162e-05 0)
(-0.00783543 -0.000871039 0)
(0.000669836 0.00150803 -1.81586e-22)
(-0.00245367 0.00150909 -5.70037e-22)
(-0.00635603 0.010432 -1.33951e-23)
(0.000697272 -0.018291 -8.14816e-21)
(4.64921e-05 2.77951e-05 0)
(-0.00285823 0.0279151 0)
(-0.0113844 -0.143532 1.74917e-21)
(-0.000160414 -0.000219913 3.12722e-21)
(0.000330612 8.23973e-06 4.41793e-23)
(0.0134037 -0.0401716 -1.10524e-21)
(0.0212061 0.110048 -1.50155e-21)
(8.2895e-05 -0.00236765 0)
(2.16822e-05 1.94178e-06 0)
(-0.0261163 -0.058655 -3.952e-22)
(-0.0586223 -0.0177805 1.33852e-21)
(-0.0754855 0.0294666 1.09558e-20)
(0.000906363 0.00165215 7.17908e-21)
(-0.00251915 -0.00847916 -1.14311e-21)
(0.0507433 0.0273138 -1.19067e-21)
(-0.00631508 0.0224229 5.56655e-23)
(-0.0642538 -0.00238041 2.85799e-21)
(0.0237972 -0.029688 -2.40113e-22)
(0.067234 -0.0388701 -2.65437e-20)
(0.000410213 8.23167e-05 -5.02037e-21)
(0.0668607 -0.0316083 2.60107e-20)
(0.00102507 -0.0028415 3.57251e-23)
(9.49963e-06 6.77798e-06 1.20142e-23)
(-0.00854686 0.0159786 1.49139e-22)
(0.000479199 0.00152821 0)
(-0.00263309 -0.000598084 -1.9003e-21)
(6.6178e-05 0.000221702 1.90815e-21)
(3.5783e-05 1.91409e-05 -1.56873e-21)
(1.53718e-05 -2.92959e-05 1.06057e-21)
(3.62203e-05 -2.98772e-05 1.97246e-21)
(0.0045835 0.00333669 0)
(0.00802459 0.00226297 4.09071e-21)
(-0.120012 0.0915986 1.00269e-20)
(0.0138246 -0.107353 7.57374e-21)
(1.78222e-05 -4.81961e-06 -3.10397e-22)
(-0.0181375 -0.0419536 -2.31096e-21)
(-0.001745 -0.00102208 -2.31036e-21)
(0.0149683 -0.0297534 5.59548e-22)
(-0.017101 -0.116028 -4.7809e-22)
(0.00067585 0.00021984 -9.40695e-23)
(1.2947e-05 -1.26721e-05 -6.93015e-25)
(7.95849e-06 -1.54745e-05 0)
(0.00438685 0.026565 0)
(-0.00580572 0.0276395 0)
(4.63964e-05 -2.60851e-06 1.26534e-21)
(-0.000225746 0.00023052 3.48442e-22)
(-0.00188831 -0.00124946 0)
(5.52051e-06 1.43669e-05 0)
(0.0116626 0.00963292 -1.44264e-21)
(-0.0103979 0.114152 2.5583e-21)
(0.0310864 -0.0203361 1.72914e-20)
(-0.00069256 0.00423495 6.31987e-23)
(-0.00764992 -0.000995894 0)
(0.000872997 -0.00349808 -1.22546e-21)
(3.34676e-05 -6.92736e-06 1.3408e-21)
(3.12941e-05 3.58739e-05 0)
(-0.0365447 0.0596973 -7.62602e-21)
(-0.00266691 -0.00112669 -1.74421e-21)
(-0.00143854 -0.000228972 -1.85117e-22)
(0.000533616 0.000270443 -4.58807e-21)
(-0.00913939 -0.023594 0)
(9.75908e-06 3.73212e-06 6.49557e-25)
(3.23846e-05 -1.88071e-05 1.25768e-21)
(0.0568713 -0.0419893 0)
(6.55897e-06 1.40329e-05 4.98805e-24)
(9.76923e-05 0.000226217 -1.82644e-21)
(1.13218e-05 -2.33709e-06 0)
(1.92426e-05 -1.11236e-05 -5.54091e-22)
(0.0013499 -0.00261177 3.81182e-22)
(0.00350668 0.00371601 -2.05757e-21)
(0.00453794 0.00554822 0)
(7.31081e-06 1.23117e-05 -4.84248e-24)
(0.0346202 0.046099 -3.60431e-21)
(0.0388798 -0.0478319 1.86005e-21)
(1.6566e-05 -6.4137e-07 0)
(6.22014e-06 2.33849e-06 0)
(-0.000205623 -0.000168069 7.29363e-24)
(2.05655e-05 2.50501e-06 5.06664e-21)
(0.116705 0.047085 0)
(0.00176085 0.0149372 6.73917e-22)
(0.00267689 -0.00392708 1.34315e-21)
(-0.0707904 0.0479807 0)
(-0.0373503 0.219046 -1.10257e-22)
(0.000476713 0.000242917 2.87275e-21)
(-0.00237318 -0.00040972 -3.42868e-21)
(-0.00389827 -0.00108574 1.7809e-21)
(-0.00174113 0.00424337 -1.18549e-23)
(0.000685402 7.79113e-05 -3.28151e-21)
(1.40573e-05 -1.37352e-05 6.98218e-25)
(-0.00175242 -0.00179916 0)
(-0.0019924 -0.000893052 -1.01015e-20)
(-0.00911043 0.00987996 7.33703e-21)
(0.0475216 -0.0575678 0)
(-0.000323509 0.000275259 3.17516e-22)
(-9.51116e-05 -0.000568236 0)
(8.89066e-06 -1.46207e-05 -3.59534e-22)
(-0.00201476 0.00150877 -8.69358e-21)
(-0.000683367 0.00134213 0)
(-0.000592563 0.113177 -3.25723e-21)
(0.000821457 0.00212329 0)
(2.66193e-05 4.37478e-06 4.45172e-21)
(-0.00108803 -0.00602374 2.32867e-21)
(9.17046e-06 9.47956e-06 2.2275e-22)
(0.000246663 -0.000139816 -1.69863e-21)
(0.00321251 0.00783536 -1.59466e-21)
(3.67072e-05 3.60477e-05 4.25773e-21)
(3.48597e-05 2.86115e-06 1.84527e-21)
(-0.00430998 0.00210394 0)
(4.65007e-05 5.56088e-06 9.86588e-22)
(0.00424218 0.00266309 2.58281e-21)
(0.028976 0.00383709 0)
(0.000931804 0.00630037 4.85091e-23)
(-0.00185154 0.00236015 -4.47441e-21)
(-0.00139182 -0.000476301 0)
(8.94379e-06 -1.44711e-05 3.62714e-22)
(0.0345007 -0.0227699 -1.62468e-22)
(0.00736096 0.00284394 -2.67845e-24)
(-0.0618847 0.0407774 0)
(-8.14443e-05 -0.000118458 -4.36828e-23)
(9.79118e-06 -1.17912e-06 2.7869e-22)
(-0.000850362 -0.00421495 -4.71288e-22)
(0.000241206 -0.000608615 -5.18709e-21)
(-0.0458299 -0.00603979 0)
(-0.00294766 -0.00189559 2.72233e-21)
(-0.0433058 -0.03078 -8.18393e-21)
(-0.111995 0.0871719 -9.66576e-21)
(8.90697e-06 9.89787e-06 -1.17169e-22)
(-0.000938176 -0.00447791 0)
(0.000352646 0.000397735 0)
(1.76521e-05 -1.19329e-05 5.87758e-22)
(1.05397e-05 4.40091e-06 -5.93489e-24)
(1.96578e-05 -1.31374e-05 1.65923e-21)
(0.00202527 0.00187852 0)
(-0.000496118 -0.00433 2.85039e-21)
(0.00345895 0.00589287 8.2566e-21)
(8.30288e-06 1.12836e-05 4.7447e-24)
(0.0463965 0.0121568 6.00468e-21)
(-0.0226856 0.0182045 -1.7615e-20)
(0.047632 0.0167955 0)
(1.92635e-05 -1.26961e-05 0)
(1.17028e-05 -1.60928e-07 -4.15471e-24)
(8.16955e-06 1.54627e-06 -1.03924e-22)
(0.0115674 0.00841105 0)
(0.0586342 0.0500755 -1.11025e-21)
(0.00031858 0.000657588 2.8181e-21)
(0.00025503 -0.000167693 4.96499e-21)
(0.000296711 0.000523798 0)
(4.89007e-06 4.30564e-07 1.81478e-22)
(1.75237e-05 -2.90273e-06 -1.56535e-22)
(5.53976e-06 -2.28314e-05 -1.29582e-21)
(-0.00670099 0.000941468 -2.20564e-21)
(-0.0401774 -0.117967 0)
(4.48748e-05 5.29996e-06 -9.98869e-22)
(9.15967e-06 8.63593e-06 0)
(2.30781e-05 5.63702e-05 0)
(8.01982e-06 -2.57101e-05 9.45252e-22)
(0.0276552 -0.0504751 -8.52397e-21)
(0.00705684 -0.0767928 -7.39895e-22)
(-0.00225174 0.0011943 4.35161e-21)
(-0.0204275 0.0157517 0)
(-0.0262699 0.195376 -5.6713e-22)
(3.39269e-05 2.37874e-06 -5.92388e-22)
(-0.00230388 0.00183131 3.07935e-22)
(0.123924 0.0568239 -1.72907e-21)
(0.000747259 0.000119933 0)
(0.0389272 -0.119336 -3.01447e-20)
(5.02278e-05 1.90421e-05 3.5733e-21)
(0.000672072 -0.00259806 -3.03042e-21)
(0.000365114 0.00066589 -2.52759e-21)
(-0.000102763 -0.00307811 0)
(0.0235387 -0.0359217 1.27251e-21)
(2.92686e-05 3.25493e-06 9.80172e-22)
(0.0501908 0.0342794 1.23153e-22)
(9.30593e-06 9.14223e-07 0)
(0.000273337 0.000366909 1.05292e-21)
(-0.00326757 -0.00120121 -3.54232e-21)
(5.9987e-05 7.25794e-05 8.10612e-22)
(-5.82598e-05 -0.000449275 -5.72156e-21)
(-0.0128332 -0.0206661 -2.95452e-21)
(1.8927e-05 -2.81312e-06 -7.09534e-22)
(-0.000173168 -0.000126812 0)
(0.0812577 -0.0465126 -1.28617e-20)
(-0.0160443 0.104122 -4.30089e-21)
(0.00109179 0.00205504 -1.08928e-22)
(0.00365194 0.0234155 0)
(0.0145959 -0.0428296 2.16189e-22)
(1.17479e-05 -4.03829e-06 -1.77014e-24)
(1.90659e-05 -1.21975e-05 0)
(-0.0028732 0.111024 7.07606e-21)
(-0.00164115 -0.00116827 -1.04955e-22)
(0.0126215 -0.000631659 -4.14386e-21)
(-0.00267888 -0.00188738 -4.52739e-21)
(5.96194e-06 5.70188e-07 -1.61175e-22)
(1.40329e-05 2.31838e-06 0)
(8.33151e-06 7.93894e-06 1.40829e-24)
(-0.0317588 0.181242 0)
(-0.0024798 -0.00375498 0)
(0.000554325 0.000821403 -5.21196e-21)
(2.53118e-05 0.000123212 0)
(-0.0234069 0.0189539 -3.90967e-22)
(0.000112728 -3.57612e-05 0)
(8.76013e-06 1.02608e-06 7.70576e-23)
(-0.0271103 -0.0360086 5.5401e-21)
(-0.0333894 -0.0359722 -1.03796e-22)
(-0.00317294 -0.00189365 0)
(6.47604e-06 1.21711e-05 2.39455e-25)
(4.32496e-05 4.52165e-06 1.81391e-21)
(-0.00169651 -0.000425239 2.9532e-21)
(0.011129 -0.0598113 0)
(-0.000951831 -0.00130357 0)
(-0.000437712 0.00108008 0)
(0.00158672 -0.00356409 7.40913e-23)
(3.04755e-05 8.72924e-06 3.40442e-21)
(-0.0293456 0.00722305 -5.97925e-22)
(0.0186489 -0.0103943 -2.41685e-21)
(0.00411797 -0.00930918 8.09355e-21)
(-0.000211552 0.000231461 5.1757e-21)
(-0.0472517 -0.0283726 -2.90369e-22)
(0.00470511 -0.00277176 -4.09752e-22)
(0.00180663 0.00157482 0)
(-0.00172009 -0.00365555 -8.4126e-22)
(1.06198e-05 -1.14816e-06 2.92251e-22)
(2.42246e-05 2.17814e-07 1.13006e-21)
(0.000322942 2.25274e-05 3.04177e-21)
(8.70342e-06 -9.89054e-06 -1.74576e-24)
(-0.0290075 -0.0387197 0)
(-0.00105362 -0.000841785 -5.45329e-21)
(-0.00116423 0.00407317 -2.2835e-23)
(0.00324756 0.00569479 -2.27577e-22)
(-0.0165666 0.015024 7.82007e-22)
(8.81889e-06 -1.8761e-05 -2.57384e-22)
(0.0870303 -0.0417711 1.14666e-20)
(1.75624e-05 3.07343e-08 0)
(0.00422312 -0.00368808 -8.71866e-23)
(1.06488e-05 3.43159e-06 -1.6166e-23)
(3.31346e-05 6.5067e-06 2.04798e-23)
(3.02786e-05 -5.53825e-07 0)
(-0.00288123 -0.000882348 3.85515e-21)
(1.70429e-05 -3.11221e-05 -1.05151e-21)
(5.35211e-06 9.13148e-06 1.24621e-24)
(-0.0753632 0.0276568 -2.89726e-21)
(3.17961e-05 3.93793e-05 -1.3891e-21)
(-0.0019782 -0.000599988 2.71192e-21)
(4.95618e-06 7.92008e-07 0)
(-0.00132545 0.000540104 2.79565e-22)
(-6.11473e-05 0.000931524 0)
(0.0358136 -0.0559917 0)
(0.0307225 -0.00637298 3.43209e-21)
(1.23064e-05 -4.98858e-06 2.67417e-22)
(0.0625893 -0.00735016 7.77393e-22)
(-0.0186767 0.020255 -6.88683e-22)
(6.13928e-05 2.70817e-05 -3.91981e-23)
(-0.00165124 -0.000685339 -2.58817e-21)
(0.000284342 0.000351633 2.08206e-23)
(8.26391e-06 -4.61646e-06 0)
(0.0119971 0.00214504 -4.37778e-22)
(-0.0198789 -0.034645 0)
(0.0486802 -0.0064407 -1.26722e-21)
(-0.000277034 0.000554815 5.77544e-21)
(1.84954e-05 -3.25119e-06 0)
(1.00148e-05 6.99608e-06 2.61161e-24)
(-0.0233565 -0.101914 6.16353e-22)
(0.00475415 -0.0123825 -1.11948e-20)
(-0.00028797 0.0160493 0)
(0.000688591 0.0011622 0)
(0.0122975 -0.000148566 0)
(2.02336e-05 1.08224e-06 -1.8112e-22)
(-0.00106639 0.000770597 0)
(9.74144e-05 2.22554e-05 7.83152e-22)
(0.0183208 -0.107934 3.52293e-22)
(0.00573464 0.00269017 -6.93125e-22)
(0.0431106 -0.0285154 0)
(4.19891e-05 3.78029e-06 -4.64009e-21)
(0.00526736 0.002061 7.17225e-22)
(-0.000392638 0.00172492 0)
(-0.00263183 -0.00282484 -6.2777e-22)
(0.000689289 0.000730437 0)
(0.0722097 0.00567552 1.52864e-20)
(-0.0063204 0.0112456 -3.51945e-21)
(3.01441e-05 4.75003e-05 -1.18948e-21)
(-0.0571947 -0.0185201 0)
(0.0284369 -0.0213137 1.99407e-20)
(0.0118593 0.0559722 0)
(-0.0127869 0.113294 0)
(-0.00732731 0.0011903 -4.59197e-21)
(0.0138849 -0.0556682 -4.22677e-23)
(-0.00307836 -0.00198392 -1.17164e-20)
(8.50464e-06 -9.17545e-06 -2.38622e-22)
(-0.00270725 -0.00375572 -3.5487e-21)
(0.0200453 -0.0788769 1.11643e-20)
(-0.0503165 -0.0278128 -5.47947e-21)
(3.54078e-05 4.14243e-05 0)
(8.31736e-06 3.43268e-07 -5.33825e-24)
(0.000263599 0.00132372 5.36272e-23)
(0.0154451 0.0575342 0)
(6.62307e-06 6.12456e-06 0)
(0.00556786 -0.070731 -5.07263e-21)
(6.30065e-06 1.84462e-06 1.61312e-22)
(4.58672e-05 3.22765e-05 0)
(-0.0257035 -0.0429932 2.67069e-21)
(-0.00135759 -0.000460631 2.55797e-21)
(0.0199796 -0.0460783 -2.65996e-22)
(1.70311e-05 -1.23416e-05 0)
(2.10733e-05 8.99267e-06 -3.5384e-21)
(0.0131318 -0.0635945 3.98536e-21)
(-0.00620069 0.00126492 2.59009e-21)
(-0.001242 -5.3358e-05 4.55713e-23)
(-0.00144894 0.00145473 1.29813e-24)
(-0.028581 0.0354473 0)
(0.0309748 -0.0161545 -6.99863e-21)
(0.0498033 0.0459397 0)
(0.00110596 0.00102193 -4.29787e-22)
(0.000685686 0.000438308 3.08231e-21)
(8.36079e-05 5.16209e-05 -2.69771e-21)
(3.45083e-05 2.82593e-05 0)
(-0.0188587 0.151005 -1.45293e-21)
(0.000333797 0.000562534 0)
(-0.00808246 -0.000664646 0)
(0.00525297 0.00966149 2.48321e-22)
(0.000576524 0.000196918 0)
(-0.0344749 -0.0367478 7.43556e-21)
(0.00474926 0.0579174 0)
(-0.00135498 -0.000888592 2.71804e-21)
(3.2171e-05 1.265e-06 0)
(0.000410527 0.000227608 2.87521e-21)
(1.66357e-05 1.98752e-06 0)
(-0.00223511 0.00204789 1.40985e-20)
(-0.000123856 -0.000417943 -3.2993e-21)
(0.0352133 -0.119481 0)