/*--------------------------------*- C++ -*----------------------------------*\
| =========                 |                                                 |
| \\      /  F ield         | OpenFOAM: The Open Source CFD Toolbox           |
|  \\    /   O peration     | Version:  v2012                                 |
|   \\  /    A nd           | Website:  www.openfoam.com                      |
|    \\/     M anipulation  |                                                 |
\*---------------------------------------------------------------------------*/
FoamFile
{
    version     2.0;
    format      ascii;
    class       volScalarField;
    location    "400";
    object      k;
}
// * * * * * * * * * * * * * * * * * * * * * * * * * * * * * * * * * * * * * //

dimensions      [0 2 -2 0 0 0 0];


internalField   nonuniform List<scalar> 
13851
(
0.000152279
0.0164244
0.000191743
0.000151606
0.000189716
0.000230568
0.000145419
0.000177239
0.0001372
0.000199705
0.0037119
0.0379428
0.0139091
0.0327772
0.000142907
0.000166943
0.000156269
0.000163039
0.00156138
0.000137109
0.000151228
0.000190594
0.000143673
0.000150593
0.000145133
0.00017788
0.000154695
0.00302569
0.000152002
0.000155307
0.000243048
0.000156894
0.000190554
0.00489456
0.000150705
0.000212878
0.000120804
0.000171988
0.000203295
0.00370116
0.0001433
0.000129679
0.00563675
0.00363189
0.00314805
0.0157852
0.00329445
0.00690054
0.000155143
0.000250863
0.000187857
0.000200197
0.0115319
0.000144812
0.000153077
0.000129752
0.000142835
0.0142135
0.000154786
0.000146031
0.000168718
0.0201932
0.000203333
0.000192724
0.000219774
0.000155104
0.000702065
0.00347848
0.00016694
0.000162773
0.0155076
0.00820472
0.0168157
0.000145766
0.000139714
0.000139759
0.00018971
0.0165258
0.000177059
0.0179871
0.000148186
0.00264252
0.000142709
0.0144124
0.000203068
0.0391758
0.000200919
0.0306381
0.000157018
0.000139118
0.000212871
0.000176204
0.00354568
0.000160379
0.000156641
0.000148789
0.000190218
0.0299778
0.00023378
0.000148828
0.0277801
0.000178736
0.000149384
0.000153849
0.00014133
0.000220935
0.000181402
0.000128666
0.0211345
0.0002385
0.000150911
0.000139507
0.000175988
0.000153512
0.000150887
0.0122234
0.0309483
0.000128854
0.000155219
0.000156267
0.00551742
0.000153648
0.0166961
0.00830719
0.0094641
0.000143204
0.0099831
0.000177985
0.000150749
0.000200601
0.000143058
0.000137233
0.0186904
0.000142682
0.0112045
0.000139006
0.000128948
0.00698677
0.027119
0.0307713
0.0260026
0.000153113
0.000148151
0.000133308
0.000152974
0.00400405
0.000301948
0.000200503
0.000145246
0.00298346
0.000189212
0.000152981
0.0343988
0.000143494
0.000151942
0.000152789
0.000140448
0.000152704
0.000200024
0.000187485
0.000130599
0.000160079
0.0141691
0.000137108
0.000161284
0.000131435
0.000386537
0.000167352
0.000150416
0.017833
0.0143553
0.000134457
0.000140637
0.0303756
0.000136993
0.00633014
0.00017706
0.000148424
0.00171972
0.000128919
0.000158188
0.0100696
0.000142588
0.000192136
0.00013005
0.000145225
0.00015536
0.00014775
0.000192509
0.00020043
0.00355421
0.0129564
0.000140441
0.000167193
0.0214415
0.000151546
0.00014722
0.00220757
0.000147671
0.00014005
0.000143452
0.0164304
0.000162212
0.000141922
0.000191137
0.000142719
0.0292254
0.00015651
0.02899
0.000129359
0.0363942
0.000149005
0.00350159
0.00012845
0.000132509
0.00377192
0.00019504
0.0159818
0.000142281
0.030145
0.000156824
0.000148515
0.0330049
0.000198946
0.0399617
0.000145841
0.00016287
0.000142932
0.0151011
0.000128501
0.000176995
0.000258388
0.00013437
0.000140095
0.000185356
0.000177496
0.0276905
0.000206028
0.000133143
0.000142043
0.00023753
0.00494006
0.000134343
0.000193809
0.000138873
0.0382255
0.000179389
0.00229628
0.000153036
0.000157999
0.000161976
0.00529267
0.000148503
0.000153211
0.000179362
0.0108346
0.000197199
0.00858874
0.00496627
0.000143148
0.000132676
0.00016113
0.00129601
0.000136268
0.00819648
0.000151523
0.000148327
0.000159699
0.0317245
0.000446286
0.000161709
0.000151956
0.000531598
0.0001755
0.000166201
0.000137344
0.00261697
0.00152675
0.0425433
0.0035451
0.000134368
0.000128954
0.000140813
0.000178172
0.00116524
0.00326242
0.000138408
0.000143059
0.000456963
0.00250186
0.000206716
0.000154069
0.000146173
0.000169186
0.00254658
0.00722438
0.000160306
0.0384901
0.000137553
0.038478
0.000159547
0.000156074
0.0415558
0.000146493
0.000212547
0.0352379
0.00013816
0.000174049
0.00016057
0.000153529
0.0250868
0.000160621
0.000148157
0.0327743
0.000130166
0.000158416
0.000146828
0.0413017
0.000200976
0.000142288
0.000179509
0.000142555
0.0114278
0.000170564
0.000143781
0.000143256
0.000200314
0.000162037
0.000151667
0.000143074
0.000146304
0.000147943
0.0034766
0.0300357
0.0194805
0.00016772
0.0402798
0.0214058
0.000142495
0.000167848
0.000207153
0.000189858
0.000189096
0.000197558
0.00129485
0.00015485
0.00148226
0.0365138
0.000143121
0.000365572
0.000379171
0.000728545
0.00015164
0.000191897
0.0155741
0.000140957
0.00138091
0.000143181
0.000142638
0.000137262
0.00012868
0.000139718
0.0367049
0.00296259
0.000143266
0.000172897
0.00013075
0.0349876
0.000171624
0.00166335
0.0193125
0.000143459
0.000200673
0.00016078
0.0016001
0.000142261
0.00012899
0.000164984
0.0262484
0.000143532
0.0259933
0.000183779
0.000198989
0.0147936
0.00115622
0.000903677
0.000157559
0.00013776
0.000149421
0.000165734
0.000179161
0.0347819
0.000167286
0.0395534
0.0356728
0.000130871
0.000143246
0.0182483
0.0202507
0.000266166
0.0316398
0.000168735
0.000161622
0.000148533
0.018464
0.000135653
0.000166476
0.000155998
0.000144744
0.000142065
0.000137882
0.000131302
0.000191967
0.000183036
0.0153242
0.000163703
0.000181009
0.000168046
0.00559157
0.000159507
0.000861029
0.000155562
0.00376776
0.000128838
0.000137662
0.000147128
0.000120856
0.00341882
0.000198095
0.000166052
0.0117504
0.00561457
0.000195695
0.000159259
0.000185885
0.000142023
0.00551784
0.000141231
0.00573295
0.00305221
0.0001894
0.0261901
0.00014862
0.00137041
0.00286639
0.021176
0.000128745
0.000163322
0.00017781
0.000930355
0.000135177
0.000148043
0.000187705
0.000198614
0.000169662
0.0243875
0.000145899
0.000143878
0.0108695
0.000162339
0.000128755
0.0297109
0.000137672
0.000152268
0.000135941
0.000172719
0.000151603
0.0001291
0.000147932
0.0322617
0.000142839
0.000169191
0.000138267
0.000166257
0.00350234
0.000154558
0.0001432
0.000153729
0.000153574
0.00774694
0.000148174
0.00021075
0.000142548
0.000146667
0.0267687
0.0246903
0.000142981
0.000169315
0.000159675
0.00416793
0.015243
0.000143943
0.00361025
0.000142525
0.000190126
0.000145266
0.0161379
0.00013017
0.0108422
0.000196169
0.000129802
0.000169275
0.0243582
0.000177894
0.00276155
0.000155008
0.00660292
0.000156678
0.000136535
0.000137449
0.000144724
0.0246294
0.000185396
0.00020114
0.000603969
0.000191519
0.000131042
0.0242355
0.0033126
0.000158386
0.000160399
0.00272612
0.00815579
0.0344095
0.000151956
0.0165656
0.0154415
0.0160051
0.000161569
0.000173275
0.00608556
0.00159546
0.0103149
0.00258462
0.0156815
0.000153174
0.0173007
0.0121838
0.000129007
0.00131725
0.000186036
0.0200795
0.000153459
0.000141512
0.000140176
0.000142358
0.000191792
0.000173511
0.026957
0.0244264
0.000137859
0.0094269
0.0249028
0.000256204
0.00298271
0.000168687
0.000128355
0.00013742
0.00165271
0.0265322
0.000152169
0.000193606
0.000212303
0.000129635
0.000178565
0.00824575
4.88045e-05
0.000196942
0.025907
0.0122163
0.000142773
0.000144878
0.0240387
0.0352908
0.000201983
0.000167073
0.000217272
0.000128865
0.00014059
0.00865907
0.000129376
0.000153273
0.000128797
0.000137751
0.0138227
0.000191706
0.000162493
0.000129287
0.0242178
0.00318265
0.000137766
0.000140538
0.000136563
0.000148566
0.0246269
0.00216775
0.00273671
0.0155529
0.00517613
0.000165495
0.0162289
0.0263492
0.000156193
0.000167425
0.00012832
0.000146948
0.000168529
0.030303
0.00125871
0.000193142
0.000162102
0.000136693
0.000166539
0.000147202
0.00297245
0.000187751
0.000142424
0.000168863
0.000135178
0.000159301
0.000198987
0.000145678
0.000141784
0.000171796
0.000145658
0.000190132
0.000144528
0.000197888
0.000166869
0.00020305
0.000136529
0.00024161
0.000164922
0.0152964
0.00014876
0.000149373
0.0178751
0.000153873
0.0144301
0.0367075
0.0162657
0.0283175
0.000135625
0.0109378
0.000135462
0.00013773
0.00013013
0.000137832
0.000153855
0.000165071
0.000171323
0.000129069
0.0208768
0.000199381
0.0225251
0.000139499
0.000131634
0.000140234
0.000206136
0.0220725
0.000179994
0.000159691
0.000135731
0.000147457
0.000145034
0.000141137
9.83249e-05
0.0276038
0.000145378
0.00012896
0.000144858
0.000141023
0.000713877
0.0137502
0.000167
0.0278342
0.00751201
0.000141575
0.000200575
0.0243948
0.000168687
0.0396242
0.000148134
0.000161579
0.000179458
0.000162167
0.00357745
0.00014285
0.00739796
0.000141976
0.000163165
0.0289609
0.000140756
0.000152069
0.000218213
0.000136642
0.000157382
0.000587226
0.0317897
0.000187198
0.00586715
0.00227848
0.000128588
0.000139267
0.0246269
0.00020897
0.000179975
0.0368851
0.000136393
0.000165972
0.000129132
0.0038454
0.00104733
0.000158042
0.000147688
0.00353497
0.000155079
0.000139872
0.00944197
0.0157303
0.0289963
0.000130017
0.000145212
0.0166057
0.00922361
0.000207584
0.000146417
0.0240914
0.000142788
0.00373783
0.000206003
0.00019092
0.000156677
0.0160231
0.000160222
0.000148703
0.000152743
0.000148662
0.000162062
0.000152062
0.000136352
0.0108388
0.000165866
0.00019732
0.000161571
0.00229403
0.00013691
0.000909063
0.000153964
0.000160121
0.000132355
0.000141178
0.000143564
0.0348603
0.000139941
0.000129302
0.0122943
0.000145103
0.0205008
0.000143147
0.000147507
0.000187325
0.00182018
0.00206943
0.000139429
0.000358803
0.0287602
0.000148343
0.0342668
0.000162832
0.000136071
0.000195084
0.00695313
0.00029568
0.000158349
0.000138958
0.000128772
0.00300354
0.000194181
0.000181392
0.000159662
0.000193024
0.000149478
0.000146935
0.000193543
0.00486932
0.000191914
0.00166652
0.000144986
0.000190361
0.000191057
0.0404526
0.000157844
0.034622
0.000332758
0.000145252
0.0140862
0.000228695
0.0257357
0.0336595
0.0328001
0.00382089
0.000173633
0.000136217
0.000164618
0.0148891
0.0138532
0.000142706
0.00014686
0.000186108
0.00280069
0.000129892
0.0115376
0.000136148
0.000143292
0.0115138
0.0164404
0.00227032
0.000137674
0.000142764
0.0104402
0.000138709
0.000200155
0.000151487
0.0231055
0.000119174
0.0237769
0.000181027
0.000172325
0.000148198
0.000145109
0.0169848
0.000177997
0.0191742
0.000174042
0.000166851
0.01134
0.0253082
0.0222594
0.000143511
0.000163901
0.000137665
0.000167372
0.000151814
0.0356471
0.000166311
0.0349811
0.000129802
0.000186747
0.000140985
0.000212845
0.000166099
0.000163471
0.0284766
0.000174147
0.000174387
0.000151386
0.000186732
0.00376814
0.000218515
0.000153506
0.0147329
0.000135802
0.0374506
0.00346098
0.000146333
0.037521
0.0279751
0.0220921
0.00414981
0.00016954
0.000142469
0.0277126
0.000167303
0.0111661
0.0294601
0.000139506
0.000151216
0.000217641
0.0041015
0.0340543
0.000145141
0.000139528
0.0237032
0.0288726
0.000196971
0.000157582
0.000149863
0.0039606
0.0146442
0.00019172
0.000129358
0.000174214
0.000136752
0.000158893
0.000488827
0.000148984
0.00783687
0.00567926
0.000143448
0.000148847
0.000142722
0.000152231
0.0163382
0.0229763
0.000162814
0.0337252
0.00014093
0.000162903
0.000142043
0.000136871
0.000145788
0.000143285
0.0222516
0.000143014
0.000179506
0.000143599
0.000158558
0.000533112
0.00773322
0.000155309
0.0245786
0.000183004
0.000486397
0.0001665
0.000166796
0.0167409
0.000159284
0.000175181
0.0353522
0.00941904
0.0113846
0.000172974
0.00308184
0.000148276
0.000172756
0.000179335
0.0342089
0.000143527
0.029336
0.000139085
0.000139688
0.0326637
0.000141528
0.00686842
0.000157166
0.000137564
0.000172837
0.00013767
0.000142808
0.000137959
0.000147706
0.000175682
0.000139684
0.000130882
0.0141585
0.000186602
0.0296381
0.000144888
0.000154213
0.000150755
0.000142532
0.000137466
0.000190076
0.000148329
0.000139013
0.000147923
0.000145826
0.0204215
0.0268973
0.000221768
0.0316664
5.89861e-05
0.000140561
0.00292647
0.000161856
0.000139533
0.00383604
0.000222445
0.00597068
0.000140265
0.00334185
0.00466035
0.0170567
0.000134633
0.0151142
0.000164878
0.000154513
0.000139443
0.000136424
0.0266815
0.000228306
0.00463793
0.000140244
0.000142306
0.0116685
0.000146462
0.00128944
0.00372149
0.0128092
0.00136206
0.0041029
0.000146673
0.000143004
0.000198236
0.000166681
0.000153942
0.000214308
0.000174295
0.000148571
0.000149404
0.0267494
0.000139274
0.0195904
0.0045609
0.0103519
0.000214352
0.000151544
0.000134182
0.000147033
0.00307601
0.00404984
0.00013463
0.000156892
0.000139986
0.000189288
0.000130602
0.000139553
0.000148733
0.000166325
0.000874647
0.00017562
0.000168045
0.000144008
0.000179482
0.0136347
0.000149691
0.0139988
0.0105948
0.000190568
0.000131859
0.000174849
0.000141487
0.000144133
0.000146598
0.0164476
0.000200718
0.0038825
0.000154042
0.00375283
0.00014192
0.00014206
0.000146558
0.00193623
0.011399
0.000130295
0.000165949
0.000186646
0.025709
0.000154461
0.0170613
0.000157452
0.0286863
0.000193499
0.0312896
0.000193952
0.000190038
7.88706e-05
0.0262482
0.00418058
0.0169037
0.000142925
0.000220664
0.000130466
0.0001537
0.000158069
0.000145985
0.0264086
0.000163197
0.000160338
0.00411911
0.000211797
0.00769552
0.000142414
0.000153689
0.000158781
0.000134883
0.000166612
0.0214997
0.00265204
0.0133018
0.000139025
0.000159354
0.000152502
0.00800438
0.0316367
0.000197275
0.000134049
0.000147848
0.0167377
0.000177024
0.0168282
0.0261237
0.000216463
0.000131655
0.00780282
0.000165298
0.000175041
0.000161582
0.0354421
0.00273093
0.000197924
0.000230084
0.000149696
0.000163288
0.000143315
0.0104075
0.000180401
0.0250679
0.00324875
0.000157875
0.000204522
0.000151485
0.0349772
0.000120568
0.000139956
0.00490989
0.0301217
0.00815307
0.018295
0.000145266
0.000143252
0.0166661
0.0154823
0.015416
0.000154935
0.000144876
0.000143449
0.0207789
0.000205294
0.000147611
0.000182496
0.00019557
0.0267827
0.00685779
0.00207663
0.000143125
0.0209168
0.000155771
0.000142988
0.000202633
0.0210297
0.000145514
0.00013906
0.00650234
0.0336494
0.000141546
0.000138898
0.0290139
0.00013956
0.00159686
0.00013902
0.00824998
0.000143239
0.000179958
0.0164468
0.0316755
0.000150855
0.00703674
0.00521995
0.0204021
0.00516197
0.0294666
0.000196215
0.000141008
0.00706697
0.000154809
0.00014255
0.00013472
0.00564652
0.000141381
0.000100409
0.000139241
0.000149373
0.0154956
0.000188507
0.00449333
0.000151984
0.000161342
0.000137347
0.000165709
0.00638438
0.0278087
0.000138632
0.000186051
0.00299127
0.000146201
0.0001366
0.0286313
0.000167562
0.000168576
0.000200595
0.0336595
0.0150383
0.00435551
0.0157363
0.000206481
0.00372188
0.00351486
0.0126521
0.00018603
0.00013389
0.000200992
0.000140931
0.000140804
0.0275073
0.0288776
0.000152715
0.0375298
0.000256315
0.0189687
0.000238122
0.000233264
0.000142065
0.000250365
0.000216377
0.000140304
0.000151165
0.0351998
0.0303387
0.0144442
0.0327754
0.000170419
0.0376561
0.0363031
0.000165193
0.000146226
0.000140613
0.00260989
0.000139791
0.000111048
0.000151984
0.000149285
0.000153272
0.0156655
0.0384358
0.0196846
0.000147774
0.00874203
0.000157142
0.000163433
0.000139412
0.000139979
0.0132353
0.000160054
0.0267604
0.0184039
0.00014727
0.00019925
0.000143438
0.000171881
0.00014621
0.000205779
0.000147927
0.000151712
0.000147349
0.000152568
0.000206553
0.000149469
0.000168631
0.000140556
0.000169197
0.000202362
0.0171587
0.00014089
0.000177592
0.000143825
0.000215393
0.000150515
0.0245994
0.0002384
0.000164734
0.000153886
0.000152302
0.000238986
0.000142523
0.0027027
0.000142923
0.000140646
0.000146698
0.0332142
0.000159641
0.00015428
0.000170854
0.000144239
0.000185301
0.0321268
0.00665212
0.000168795
0.000143331
0.00019689
0.000134477
0.000141338
0.000214055
0.0349937
0.000142747
0.000164498
0.000208596
0.0100141
0.000147914
0.000149167
0.0334503
0.000151167
0.000229357
5.66835e-05
0.0375252
0.000143457
0.000155276
0.000141824
0.0397125
0.000203682
0.000174246
0.000199262
0.0201062
0.000150425
0.0341032
0.0216904
0.000146304
0.0177642
0.000190607
0.000152075
0.0129968
0.000144803
0.000142947
0.000135791
0.000211949
0.000234271
0.00020909
0.000151842
0.000149918
0.000162918
0.00232493
4.09752e-05
0.0374585
0.00286135
0.000148992
0.000203819
0.000200711
0.0123091
0.000192218
0.0028758
0.000139922
0.0001695
0.000136619
0.0161259
0.000169616
0.000141761
0.0276401
0.00022329
0.000166355
0.000162314
0.000129424
0.00014369
0.000181567
0.000168114
0.0124173
0.000186096
0.000188254
0.000184876
0.000197567
0.0331304
0.000187379
0.0374837
0.000141091
0.000138955
0.000221379
0.0199812
0.0111735
0.000222953
0.00015299
0.0153064
0.00298553
0.00014098
0.000158456
0.00013801
0.000172973
0.000187255
0.000437651
0.0129892
8.55335e-05
0.000151277
0.0245437
0.0138013
0.000143033
0.000199006
0.0271057
0.0112174
0.000154116
0.000188949
0.000128431
0.00015842
0.000140099
0.000157348
0.0392592
0.0249158
0.00961722
0.0157767
0.000151006
0.000167258
0.000180503
0.00014136
0.000147947
0.000136468
0.0294169
0.000139471
0.0334697
0.00016901
0.00019342
0.000209094
0.000186647
0.017922
0.0122242
0.000172435
0.000131071
0.000149124
0.00981396
0.00376083
0.000156103
0.000137742
0.000137098
0.000186324
0.000164179
0.000205395
0.0255262
0.000150829
0.000136007
0.000201556
0.000189255
0.0160415
0.0142568
0.000139008
0.000187746
0.000145815
0.0422822
0.000132591
0.0382289
0.000139141
0.000150607
0.000167445
0.000148402
0.000213615
0.00016337
0.000177032
0.0161147
0.031073
0.000156971
0.000163538
0.000141914
0.0110749
0.0174457
0.000147614
0.000132964
0.00323289
0.000128661
0.0257523
0.000143417
0.000170659
0.000189717
0.0201654
0.000171265
0.000150411
0.000145017
0.000187517
0.0351986
0.000141049
0.0146401
0.0342277
0.0162205
0.00036207
0.000166736
0.0202846
0.000156789
9.70946e-05
0.000141906
0.00288626
0.00292537
0.0125321
0.015449
0.0331927
0.000142665
0.000214361
0.000139025
0.012833
0.00376741
0.0346294
0.0155424
0.000159914
0.0285222
0.00341564
0.000167809
0.000151632
0.000145577
0.0271634
0.000157889
0.000187332
0.000157283
0.000146659
0.000136868
0.000145537
0.0302261
0.000198703
0.000165011
0.017172
0.00832613
0.000140509
0.000142354
0.000136566
0.000164583
0.0373387
0.000158341
0.000157811
0.000169604
0.0061765
0.000192376
0.000175333
0.0100751
0.000164055
0.037758
0.00016316
0.000164744
0.000142045
0.000156817
0.000187229
0.0048008
0.00305895
0.0298915
0.000189123
0.0147289
0.000154131
0.00015546
0.000145041
0.0102382
0.0197701
0.00719048
0.000234439
0.000153561
0.000143479
0.00014064
0.000142906
0.000136657
0.00896638
0.000162824
0.0117422
0.000165666
0.0258797
0.00676179
0.038056
0.000178229
0.000157852
0.0156511
0.000170689
0.0037261
0.0297808
0.000136416
0.000165936
0.00015999
0.0193745
0.00876009
0.000167767
0.000295719
0.00262863
0.000156619
0.000186207
0.000165679
0.0162172
0.00303731
0.000154593
0.000145033
0.00304248
0.000690633
0.000199104
0.0102177
0.000200648
0.000166135
0.000142107
0.0398271
0.0337916
0.000194279
0.000164076
0.0308998
0.0288339
0.000139214
0.000143151
0.000155075
0.0346184
0.032946
0.00014242
0.0205991
0.000149161
0.000140885
0.0001463
0.0151856
9.04173e-05
0.000219868
0.0105755
0.000152089
0.000151624
0.000139626
0.0106397
0.000151086
0.0138142
0.00015299
0.0170044
0.000147782
0.000140971
0.000197913
0.0084775
0.00352495
0.000169113
0.0178895
0.000133243
0.000144667
0.00014328
0.000176022
0.000185411
0.00018536
0.000171426
0.0291819
0.000155303
0.000199045
0.000253191
0.0329995
0.000144494
0.0253092
0.030859
0.000156141
0.00466922
0.00018588
0.0225446
0.000145814
0.000189251
0.000141879
0.0021463
0.0147349
0.000198047
0.0367198
0.000153667
0.000177652
0.000150688
0.0214998
0.000131755
0.000137878
0.00209368
0.000198396
0.021352
0.00579496
0.000185321
0.000161961
0.000135622
0.00169317
0.000165821
0.000140452
0.00020638
0.000137308
0.000174448
0.000143467
0.0188099
0.000153906
0.00380844
0.0036638
0.00016628
0.000257277
0.000182793
0.0424809
0.000143652
0.0177662
0.0226005
0.000137479
0.000142897
0.000152142
0.000147979
0.00017248
0.000142294
0.00305865
0.00018914
0.00369943
0.000196912
0.000145556
0.000148331
0.000135872
0.0144613
0.000144898
0.000142889
0.000123234
0.000154184
0.012241
0.0357005
0.000193254
0.000153512
0.000167465
0.00015146
0.000149144
0.000198258
0.000133555
0.0001545
0.0107138
0.0397335
0.000762408
0.000151311
0.0126629
0.0156219
0.000148138
0.00331219
0.0304223
0.00014252
0.000153495
0.000142014
0.0161239
0.0177983
0.00178677
0.000133418
0.000154753
0.000150171
0.000145116
0.000199215
0.000145911
0.000188148
0.00767865
0.0358648
0.000136319
0.000154287
0.000153225
0.0163572
0.000129401
0.0175665
0.0111557
0.000274643
0.0109536
0.0185716
0.0194022
0.000149502
0.00385668
0.00534132
0.000150335
0.000135403
0.000138624
0.0360932
0.0107328
0.0141704
0.000143506
0.03861
0.000145686
0.000208159
0.000136624
0.000153028
0.000150183
0.000136199
0.0179552
0.000150484
0.0306482
0.0299031
0.0172393
0.00017801
0.000179582
0.0174679
0.0346397
0.000147821
0.00634116
0.000135885
0.000129024
0.000142164
0.000195931
0.000138476
0.0164703
0.000163829
0.00102942
0.000171898
0.0114736
0.017297
0.000203391
0.00013596
0.000181921
0.000192681
0.0175253
0.000144597
0.000131453
0.000157186
0.026465
0.000146133
0.00453489
0.0158337
0.000173146
0.000185193
0.00014473
0.00289694
0.000147551
0.0384055
0.000133384
0.00867387
0.000164444
0.000144576
0.016241
0.0164013
0.00013302
0.000185924
0.000155923
0.0131667
0.000210098
0.000223436
0.000782721
0.000147748
0.000180995
0.0273835
0.000140302
0.000189256
0.000149737
0.000189453
0.000165799
0.0117224
0.0235601
0.000144822
0.0254634
0.000150615
0.000175308
0.0310185
0.0155473
0.000169549
0.0261509
7.06819e-05
0.000145157
0.00448345
0.000202855
0.000164173
0.000150353
0.0265155
0.000133312
0.0121638
0.000398464
0.000200333
0.000142308
0.00016688
0.025061
0.000175648
0.0241925
0.000149308
0.000154293
0.000224088
0.0272943
0.000157916
0.0356936
0.00191904
0.0169502
0.000146459
0.0259872
0.00792041
0.0182059
0.000142837
0.000146115
0.000143811
0.0368506
0.0001681
0.00363088
0.00237846
0.000148033
0.000135145
0.000142619
0.0175129
0.00802688
0.0284717
0.0174893
0.000139435
0.0246697
0.032273
0.000202019
0.011435
0.0263376
0.000169883
0.0109617
0.00015311
0.000157356
0.0137793
0.019897
0.000143301
0.0359091
0.000147249
0.000143204
0.0288816
0.0235962
0.0324801
0.0136555
0.000164864
0.000147963
0.000158927
0.0307368
0.0158064
0.000141093
0.000176236
0.00389461
0.000143402
0.000145145
0.0271073
0.0219468
0.000152578
0.000143141
0.000150058
0.000151141
0.010957
0.000147913
0.000142206
0.000158016
0.00062052
0.0174815
0.000310931
0.0242342
0.000145032
0.00015646
0.0293161
0.0335865
0.000161964
0.0002421
0.000142155
0.000169272
0.000150437
0.000144827
0.000188671
0.000141827
0.00073696
0.000166301
0.000139325
0.000155777
0.011515
0.0234266
0.0219585
0.000143555
0.000169514
0.0342966
0.00271129
0.000154637
0.000144093
0.000143551
0.00341043
0.000145384
0.000148027
0.000161131
0.000142764
0.0296381
0.000256061
0.000147621
0.000155199
0.000132735
0.000145833
0.0292025
0.00403373
0.000187275
0.0125782
0.000202701
0.000148426
0.000141992
0.000144604
0.00014344
0.000147346
0.000163438
0.000191323
0.0309528
0.000148762
0.000196022
0.0219885
0.000499589
0.000142356
0.000138012
0.000153294
0.0252696
0.000142889
0.00050432
4.71903e-05
0.000190673
0.000145287
0.0141139
0.000133271
0.000211893
0.000135288
0.00013355
0.000146379
0.00013947
0.000194489
0.0175709
0.000257951
0.000171966
0.0264148
0.00497493
0.0174784
0.000165286
0.0238247
0.0124317
0.000196067
0.0218566
0.027802
0.000198422
0.00320988
0.000148052
0.000138519
0.0259115
0.000140243
0.000155383
0.0310325
0.00018826
0.0340969
0.000259702
0.000138233
0.000158164
0.000144823
0.000168025
0.000136374
0.00018355
0.0229056
0.0294403
0.00660151
0.000144933
0.000133712
0.000187879
0.0388694
0.029925
0.000201765
0.000919116
0.000138661
0.00228847
0.0278039
0.000268143
0.000154684
0.000145283
0.00013285
0.000153018
0.000145039
0.000143946
0.000154902
0.0285043
0.000189043
0.0260555
0.00419498
0.00204802
0.000213415
0.000141814
0.000141078
0.000145471
0.00013666
0.000147714
0.00247301
0.017185
0.0102453
0.0387613
0.000153107
0.0178725
0.000203282
0.0357616
0.0307283
0.000145391
0.000139301
0.00200096
0.00014504
0.000133175
0.00607977
0.0297747
0.00438374
0.000143496
0.000144961
0.000152698
0.000171461
0.00970288
0.000136076
0.000154151
0.000268443
0.000136914
0.00564716
0.000171101
0.0333971
0.000147838
7.34433e-05
0.0381487
0.000168294
0.0299595
0.000196878
0.0270942
0.000132972
0.000157111
0.000138796
0.000163629
0.016141
0.000144681
0.0125795
0.000144905
0.000145409
0.000143185
0.0386762
0.000175103
0.000196319
0.0056556
0.00013731
0.000173588
0.0136935
0.000182555
0.000138761
0.000150238
0.000145175
0.000182819
0.000143757
0.000140072
0.0410627
0.0356639
0.037196
0.000372284
0.000673687
0.0177875
0.000187613
0.0399816
0.000199634
0.000132335
0.000141354
0.000128771
0.000146692
0.03154
0.0320041
0.000135796
0.0107515
0.0404849
0.000162326
0.000148398
0.000170179
0.0250521
0.0264168
0.0287628
0.0252823
0.0300302
0.000128819
0.000163289
0.000194897
0.00452105
0.015217
0.00014246
0.000202594
0.0161838
0.000166146
0.0345987
0.000147881
0.000227357
0.0172074
0.0349031
0.000188998
0.000165241
0.0160635
0.000203386
0.0354889
0.0378559
0.0295007
0.000198072
0.0219415
0.000145242
0.0001562
0.000176927
0.0218904
0.00350937
0.027004
0.000150526
0.000200322
0.000189182
0.000151405
0.0284547
0.000142524
0.000201533
0.0204159
0.000142541
0.0355613
0.0238923
0.0379086
0.0248721
0.00190539
0.00232438
0.000141693
0.0322983
0.000144571
0.000139863
0.000173395
0.000154477
0.0312601
0.000154824
0.000170393
0.000155094
0.000139386
0.0150317
0.000152348
0.000198832
0.00447366
0.000136305
0.0272177
0.000194726
0.000148683
0.0113213
0.000119114
0.000142292
0.000286265
0.000149456
0.0400539
0.00606865
0.000135996
0.000200491
0.000152516
0.0339252
0.0302053
0.000187845
0.0185592
0.000156171
0.000143638
0.031215
0.000154572
0.000143858
0.00454728
0.000172168
0.000138601
0.000139153
0.000201139
0.000151973
0.0202636
0.000169473
0.000171483
0.0214667
0.000179974
0.000186484
0.000142202
0.0347631
0.0168254
0.0210329
0.000142917
0.000134903
0.000187965
0.000164325
0.00492024
0.000144107
0.00340633
0.000143245
0.000834849
0.000148253
0.000217075
0.00021537
0.000198841
0.0274682
0.0190837
0.0302458
0.0289249
0.000129071
0.000716348
0.000860749
0.0203455
0.000141812
0.000167028
0.0164083
0.0157546
0.00019975
0.000894492
0.000343597
0.0365259
0.000175587
0.000127113
0.000136079
0.000177118
0.000173683
0.000142218
0.000187352
0.0213097
0.00021165
0.0165475
0.00182299
0.000140969
0.000138621
0.000164293
0.000142319
0.00242917
0.000136357
0.000138483
0.0396727
0.000204921
0.000169821
0.000194737
0.000152208
0.000196429
0.0128263
0.0309952
0.0138245
0.000157164
0.0306626
0.000151145
0.000136437
0.000152749
0.0249979
0.000147406
0.000158617
0.000207716
0.000150407
0.000139189
0.000142329
0.000148111
0.000159019
0.0268991
0.00129626
0.000162351
0.0289998
0.0199092
0.00621311
0.0155657
0.000143479
0.000163488
0.000781106
0.000143115
0.000193713
0.000159689
0.000154717
0.0206846
0.0311472
0.000136344
0.000171578
0.000163509
0.000189944
0.0176221
0.0372702
0.0366788
0.000146177
0.000191434
0.0380261
0.000190941
0.000200219
0.00600479
0.0254482
0.0347932
0.040829
0.000135956
0.0206287
0.000135603
0.000151541
0.000142798
0.000185062
0.0352432
0.0143071
0.0028188
0.0146079
0.000183417
0.000132646
0.000137885
0.000145073
0.000157509
0.000175017
0.0383195
0.0412366
0.000189637
0.0107045
0.000146772
0.000183473
0.000136756
0.0371721
0.000194103
0.00014569
0.00020962
0.000194679
0.0401624
0.0254343
0.000201694
0.00691293
0.000156479
0.0206877
0.000135908
0.0145709
0.00365505
0.000150811
0.000183474
0.000144488
0.0285388
0.0124844
0.000173215
0.0215589
0.000132721
0.0285016
0.000188069
0.000230817
0.000176991
0.000138579
0.000201269
0.000185007
0.000155147
0.00018351
0.000164967
0.000166689
0.0135287
0.000207444
0.000153001
0.000164195
0.000169855
0.000165695
0.000149009
0.0399599
0.000196569
0.00164832
0.0111994
0.000143364
0.0299561
0.000143364
0.000154643
0.000153785
0.029804
0.000170093
0.0364928
0.0164744
0.000185293
0.00019645
0.000199715
0.0261038
0.000203777
0.0178031
0.000165978
0.000175719
0.000140224
0.032401
0.00396086
0.000165006
0.000145564
0.000169565
0.00015816
0.000155718
0.000177877
0.000171673
0.000145983
0.000167444
0.0167274
0.0305328
0.000226083
0.000173256
0.000130316
0.0276317
0.00016592
0.000185332
0.004098
0.000173991
0.0391761
0.000133467
0.000167119
0.000154207
0.000167084
0.000141784
0.0309042
0.00401564
0.0121852
0.00016989
0.0297363
0.00019608
0.000157722
0.0267791
0.000185885
0.000211781
0.0130088
0.000182484
0.000154895
0.000172298
0.000188012
0.000154967
0.000288973
0.0259356
0.00428619
0.000138653
0.000179288
0.000117058
0.0326115
0.000141811
0.000175403
0.000141967
0.000164518
0.0160907
0.000163197
0.000162713
0.000138726
0.000138473
0.0118225
0.0248211
0.000144446
0.0320266
0.000221892
0.000132801
0.000160294
0.0323994
0.000197874
0.000194754
0.000142953
0.00016016
0.000209063
0.000146779
0.000140883
0.0268437
0.000163063
0.0309303
0.000191444
0.000158596
0.0336709
0.000203137
0.00020778
0.000139053
0.00256769
0.000163216
0.000159325
0.0245935
0.000172642
0.000146132
0.000195623
0.00015577
0.000157283
0.000133267
0.00279743
0.000143116
0.000189116
0.00869933
0.000195051
0.00013964
0.000382542
0.000164293
0.0148743
0.000214066
0.0254838
0.000199225
0.0337095
0.000136988
0.000188876
0.000157329
0.000140643
0.00447714
0.0118512
0.000156312
0.00239191
0.000157824
0.000187814
0.0257125
0.000158204
0.0041461
0.0183355
0.0142544
0.0263175
0.000986762
0.000231466
0.000138046
0.000189618
0.000168659
0.00975115
0.036983
0.0369109
0.0379179
0.0384657
0.000138242
0.000477778
0.000142836
0.000150542
0.000145609
0.00270561
0.000217374
0.000194558
0.000140469
0.00958801
0.000160416
0.0221242
0.000139928
0.000186708
0.000163742
0.000187301
0.000175013
0.000194977
0.000151978
0.000176118
0.00022268
0.000139304
0.0243183
0.000187209
0.000205689
0.000154757