/*--------------------------------*- C++ -*----------------------------------*\
| =========                 |                                                 |
| \\      /  F ield         | OpenFOAM: The Open Source CFD Toolbox           |
|  \\    /   O peration     | Version:  v2012                                 |
|   \\  /    A nd           | Website:  www.openfoam.com                      |
|    \\/     M anipulation  |                                                 |
\*---------------------------------------------------------------------------*/
FoamFile
{
    version     2.0;
    format      ascii;
    class       volScalarField;
    location    "400";
    object      k_0;
}
// * * * * * * * * * * * * * * * * * * * * * * * * * * * * * * * * * * * * * //

dimensions      [0 2 -2 0 0 0 0];


internalField   nonuniform List<scalar> 
13851
(
0.000152281
0.0163581
0.000191749
0.000151609
0.00018972
0.000230244
0.000145419
0.000177238
0.0001372
0.000199688
0.00370328
0.0378623
0.0139194
0.0326727
0.000142907
0.000166939
0.000156269
0.00016304
0.00156155
0.000137109
0.000151231
0.0001906
0.000143673
0.000150593
0.000145133
0.000177878
0.000154695
0.00302192
0.000152003
0.000155309
0.000242652
0.000156894
0.000190558
0.00484126
0.000150705
0.000212879
0.000122393
0.000172036
0.000203281
0.00364497
0.0001433
0.000129679
0.00564566
0.00361429
0.00313658
0.0157574
0.00328335
0.00695013
0.000155143
0.000249934
0.000187854
0.000200186
0.0115224
0.000144813
0.000153077
0.000129752
0.000142835
0.0142132
0.000154787
0.000146031
0.000168869
0.0202142
0.000203561
0.000192729
0.000219829
0.000155109
0.000698793
0.00347347
0.00016694
0.000162772
0.0155061
0.00820594
0.0167762
0.000145766
0.000139714
0.000139759
0.000189714
0.0165284
0.000177059
0.0179854
0.000148186
0.00263849
0.000142709
0.0144027
0.000203206
0.039122
0.000200839
0.0305174
0.000157018
0.000139118
0.000212859
0.000176159
0.00354643
0.000160379
0.000156641
0.000148789
0.000190222
0.0299803
0.000232536
0.000148828
0.02775
0.000178735
0.000149383
0.000153849
0.00014133
0.000221486
0.000181401
0.000128666
0.0211363
0.000238238
0.000150911
0.000139507
0.000175912
0.000153512
0.000150887
0.0121241
0.0309498
0.000128854
0.000155219
0.000156267
0.00552595
0.000153648
0.0167036
0.00831338
0.00949621
0.000143207
0.0100152
0.000177984
0.000150752
0.000200607
0.000143058
0.000137233
0.0186887
0.000142682
0.0110947
0.000139006
0.000128948
0.00698654
0.0271967
0.0307297
0.0259603
0.000153113
0.000148147
0.000133309
0.000152975
0.00399133
0.000300929
0.000200509
0.000145246
0.00297631
0.000189207
0.000152981
0.0342939
0.000143494
0.000151942
0.00015279
0.000140448
0.000152705
0.000200015
0.000187483
0.000130599
0.000160078
0.0141666
0.000137108
0.000161291
0.000131435
0.000384964
0.000167351
0.000150419
0.0178293
0.0143572
0.000134457
0.000140637
0.0303445
0.000136993
0.00637981
0.00017706
0.000148422
0.00172031
0.000128919
0.000158188
0.0100696
0.000142589
0.000192144
0.00013005
0.000145225
0.000155362
0.00014775
0.000192517
0.000200344
0.00354357
0.0129451
0.000140443
0.000167192
0.0214654
0.000151546
0.000147217
0.0022447
0.000147669
0.00014005
0.000143466
0.0164056
0.000162212
0.000141922
0.000191095
0.000142719
0.0293163
0.000156509
0.0289923
0.00012936
0.0364055
0.000149005
0.00353457
0.00012845
0.000132509
0.00377161
0.000195077
0.0159501
0.000142281
0.0301478
0.000156824
0.000148515
0.033016
0.000198947
0.0399665
0.000145841
0.00016287
0.000142932
0.0150889
0.000128501
0.000176993
0.000258617
0.00013437
0.000140096
0.000185353
0.000177524
0.0277659
0.00020609
0.000133143
0.000142043
0.000237818
0.00496577
0.000134344
0.000193757
0.000138873
0.0382296
0.000179389
0.00228498
0.000153037
0.000157999
0.000161996
0.00530813
0.000148504
0.000153211
0.00017936
0.0109075
0.000197102
0.00859551
0.00496613
0.000143148
0.000132676
0.000161127
0.0012724
0.000136269
0.00819212
0.000151523
0.000148327
0.000159699
0.0317367
0.000451308
0.000161733
0.000151956
0.000522221
0.0001755
0.000166198
0.000137344
0.00261516
0.00152438
0.042545
0.00353503
0.000134367
0.000128954
0.000140813
0.00017817
0.00114874
0.0032758
0.000138408
0.000143059
0.000450102
0.00250087
0.000206717
0.00015407
0.000146173
0.000169185
0.00254313
0.00722522
0.000160312
0.0384301
0.000137553
0.038483
0.000159547
0.000156074
0.0415591
0.000146493
0.00021301
0.0352475
0.00013816
0.000174048
0.00016057
0.00015353
0.0251841
0.000160627
0.000148158
0.0327829
0.000130166
0.000158416
0.00014684
0.0413043
0.000200966
0.000142288
0.000179507
0.000142555
0.0114302
0.000170545
0.000143781
0.000143256
0.000200304
0.000162037
0.000151667
0.000143074
0.000146304
0.000147944
0.00346232
0.030158
0.0194787
0.000167714
0.0402839
0.0213913
0.000142495
0.000167847
0.000207165
0.00018988
0.000189147
0.000197545
0.00129473
0.000154837
0.00144883
0.0365219
0.000143121
0.000364699
0.000378114
0.000724632
0.000151641
0.000191992
0.0155614
0.000140957
0.0013716
0.000143182
0.000142638
0.000137262
0.00012868
0.000139718
0.0367141
0.00299307
0.000143265
0.000172896
0.00013075
0.0349158
0.000171612
0.00163888
0.0193137
0.000143459
0.000200712
0.000160779
0.00159271
0.000142261
0.00012899
0.000164956
0.026316
0.000143532
0.0260877
0.000183762
0.000198973
0.0147815
0.00117172
0.000911086
0.000157569
0.00013776
0.000149421
0.000165727
0.00017916
0.0346798
0.000167285
0.0395597
0.0356823
0.000130871
0.000143246
0.0182393
0.020249
0.000266493
0.0316435
0.000168702
0.000161622
0.000148533
0.0184429
0.000135653
0.000166471
0.000156009
0.000144744
0.000142065
0.000137882
0.000131303
0.000191971
0.000183082
0.0153264
0.000163699
0.000181007
0.000168079
0.00560138
0.000159508
0.000858413
0.000155562
0.00376769
0.000128838
0.000137662
0.000147128
0.000120261
0.00339949
0.000198096
0.000166062
0.011751
0.00557823
0.000195688
0.000159259
0.000185881
0.000142023
0.00552139
0.000141231
0.00576534
0.00305159
0.000189401
0.0261927
0.000148618
0.00136127
0.00286292
0.021304
0.000128745
0.000163322
0.00017781
0.000932276
0.000135177
0.000148043
0.000187701
0.000198598
0.000169664
0.0244146
0.000145899
0.000143878
0.0108754
0.000162348
0.000128755
0.0296325
0.000137672
0.000152271
0.000135941
0.000172757
0.000151603
0.0001291
0.00014793
0.0322689
0.000142839
0.00016919
0.000138267
0.000166262
0.00349762
0.000154558
0.0001432
0.00015373
0.000153574
0.00774037
0.000148174
0.000210579
0.000142548
0.000146667
0.0267026
0.0246924
0.000142982
0.00016934
0.000159676
0.00420742
0.0152272
0.000143943
0.00363664
0.000142525
0.000190133
0.000145266
0.0161223
0.00013017
0.0108308
0.000196036
0.000129802
0.000169293
0.0243621
0.000177891
0.00275322
0.000155008
0.00654947
0.000156678
0.000136535
0.000137449
0.000144724
0.0246279
0.000185394
0.000201123
0.000605297
0.000191541
0.000131042
0.0242241
0.00329185
0.000158386
0.000160399
0.00278687
0.00814342
0.034423
0.000151956
0.0165474
0.0154217
0.0159678
0.000161576
0.000173345
0.00619042
0.0015873
0.0103388
0.00262864
0.015735
0.000153175
0.0173491
0.0122
0.000129007
0.0013137
0.000186033
0.020081
0.000153459
0.000141512
0.000140176
0.000142358
0.000191798
0.000173535
0.0267765
0.0244614
0.000137859
0.00943519
0.024907
0.000255512
0.00296973
0.000168686
0.000128355
0.00013742
0.0016414
0.0265228
0.00015217
0.000193599
0.000212267
0.000129634
0.000178588
0.00825668
4.93787e-05
0.000196933
0.0259057
0.0122311
0.000142773
0.000144878
0.02402
0.0353001
0.000201969
0.000167072
0.000217308
0.000128865
0.00014059
0.00869086
0.000129376
0.000153274
0.000128797
0.000137751
0.0138397
0.000191711
0.000162515
0.000129287
0.0243206
0.00323354
0.000137766
0.000140538
0.000136563
0.000148566
0.0246975
0.00217387
0.00277432
0.0155061
0.00511197
0.000165494
0.0162299
0.026351
0.000156176
0.000167424
0.00012832
0.000146957
0.000168525
0.0303088
0.00122512
0.000193134
0.000162101
0.000136693
0.000166537
0.0001472
0.00295992
0.000187749
0.000142424
0.000168859
0.000135178
0.000159301
0.000198989
0.000145678
0.000141784
0.000171782
0.000145658
0.000190137
0.000144189
0.000197887
0.000166869
0.000203036
0.000136529
0.000242027
0.000164929
0.0152425
0.000148759
0.000149373
0.0178779
0.000153872
0.0144193
0.036714
0.0162365
0.0282563
0.000135625
0.0109431
0.000135461
0.00013773
0.00013013
0.000137832
0.000153797
0.000165067
0.000171355
0.000129069
0.0208741
0.000199258
0.0225267
0.000139499
0.000131633
0.000140234
0.000206165
0.022108
0.000179991
0.00015969
0.000135734
0.000147457
0.000145034
0.000141138
9.75832e-05
0.0275613
0.000145378
0.00012896
0.000144858
0.000141024
0.000718443
0.013741
0.000166996
0.0278362
0.00747718
0.000141575
0.000200558
0.0245254
0.000168687
0.0396063
0.000148134
0.000161575
0.000179456
0.00016216
0.00361707
0.00014285
0.0074619
0.000141976
0.000163164
0.0289642
0.000140756
0.000152067
0.000218071
0.000136642
0.000157382
0.000579943
0.0317364
0.000187197
0.00586644
0.00230549
0.000128588
0.000139267
0.0245814
0.000208938
0.000180008
0.0368923
0.000136392
0.000165972
0.000129132
0.00377786
0.00104818
0.000158046
0.000147689
0.00353556
0.000155079
0.000139872
0.00945117
0.015815
0.0290033
0.000130017
0.000145213
0.0166072
0.00921891
0.00020757
0.000146416
0.0241066
0.000142788
0.00373878
0.000206029
0.000190922
0.000156678
0.0159957
0.000160244
0.000148701
0.000151913
0.000148662
0.000162062
0.000152062
0.000136352
0.0108463
0.000165864
0.00019731
0.000161581
0.00229092
0.00013691
0.000889051
0.000153964
0.000160138
0.000132355
0.000141178
0.000143564
0.0348692
0.000139941
0.000129302
0.0122971
0.000145103
0.020503
0.000143147
0.000147505
0.00018732
0.00184774
0.00206387
0.000139429
0.000354908
0.0287594
0.000148343
0.0342797
0.000162831
0.000136071
0.000194764
0.00696267
0.000294036
0.00015835
0.000138958
0.000128772
0.0029918
0.000194186
0.000181401
0.000159667
0.000192711
0.000149478
0.000146933
0.000193537
0.00486383
0.000191922
0.00162737
0.000144986
0.000190368
0.000191051
0.0404551
0.000157847
0.0347217
0.00033363
0.000145252
0.014077
0.000228849
0.0257307
0.033582
0.0328085
0.00384104
0.000173625
0.000136217
0.000164605
0.0148903
0.0138465
0.000142707
0.00014686
0.000186104
0.00278824
0.000129892
0.0115252
0.000136148
0.000143292
0.0115192
0.0164423
0.00230042
0.000137674
0.000142764
0.0104335
0.000138216
0.000200141
0.00015148
0.023106
0.000119291
0.0237959
0.000181026
0.000172324
0.000148198
0.000145109
0.0169631
0.000177995
0.0191723
0.000173981
0.00016685
0.0113453
0.0253052
0.0222629
0.000143511
0.000163901
0.000137665
0.00016737
0.000151812
0.0355739
0.000166311
0.0349813
0.000129803
0.000186742
0.000140985
0.000212854
0.000166098
0.00016347
0.0284792
0.000174145
0.000174426
0.000151386
0.000186728
0.0038424
0.000218751
0.000153506
0.0147346
0.000135802
0.0373556
0.00348919
0.000146333
0.0375304
0.0279933
0.0220949
0.00416315
0.0001695
0.000142469
0.0277194
0.000167303
0.0110763
0.029462
0.000139506
0.000151216
0.000216817
0.00413483
0.0340931
0.000145141
0.000139528
0.0236239
0.0288754
0.000196964
0.000157583
0.000149859
0.00398093
0.0146359
0.000191714
0.000129358
0.000174206
0.000136752
0.000158893
0.00048736
0.000148984
0.0078523
0.00568309
0.000143448
0.000148843
0.000142723
0.000152231
0.0163376
0.0229797
0.000162813
0.0338282
0.000140931
0.000162902
0.000142043
0.000136871
0.000145788
0.000143285
0.0222521
0.000143014
0.000179503
0.000143599
0.000158559
0.000530726
0.00773009
0.000155309
0.0245707
0.000182978
0.000494041
0.000166497
0.000166794
0.0167394
0.000159284
0.000175206
0.035271
0.00924258
0.0113777
0.000172973
0.003074
0.000148276
0.000172755
0.000179334
0.034269
0.000143527
0.0293389
0.000139085
0.000139688
0.0325682
0.000141536
0.00687281
0.000157167
0.000137564
0.000172844
0.00013767
0.000142808
0.000137964
0.000147706
0.000176081
0.000139684
0.000130388
0.0141527
0.000186554
0.0296129
0.000144888
0.000154213
0.000150759
0.000142532
0.000137466
0.000190069
0.000148328
0.000139013
0.000147924
0.000145826
0.0204249
0.0268688
0.000222072
0.0316711
5.84915e-05
0.000140561
0.00302955
0.000161855
0.000139534
0.00382293
0.000220866
0.00600112
0.000140265
0.00332789
0.00467918
0.0170434
0.000134633
0.0151194
0.000164876
0.000154513
0.000139461
0.000136424
0.0268047
0.000228725
0.00462656
0.000140245
0.000142306
0.0116818
0.000146462
0.00129992
0.00374484
0.012646
0.00136465
0.00411053
0.000146673
0.000143004
0.000198295
0.000166691
0.000153942
0.000214323
0.000174294
0.000148571
0.000149403
0.0267211
0.000139274
0.0195956
0.00457467
0.0102588
0.000214241
0.000151544
0.000134182
0.000147033
0.00305472
0.00402759
0.00013463
0.000156892
0.000139986
0.000189284
0.000130602
0.000139553
0.000148733
0.000166324
0.000876835
0.000175646
0.000168045
0.000144008
0.00017948
0.0136219
0.000149691
0.0139879
0.0105739
0.000190561
0.000131859
0.000174847
0.000141487
0.000144133
0.000146599
0.0164504
0.000200705
0.00386128
0.000154042
0.00375354
0.000141919
0.00014206
0.000146557
0.00203243
0.0112005
0.000130295
0.000165949
0.00018669
0.0257094
0.000154461
0.0169321
0.000157352
0.028774
0.000193494
0.0313056
0.000193946
0.000190031
7.86121e-05
0.0262526
0.00418433
0.0168702
0.000142925
0.000220691
0.000130467
0.000153701
0.000158068
0.000145986
0.0264121
0.000163195
0.000160338
0.00413494
0.000211789
0.00770557
0.000142414
0.000153689
0.000158785
0.000134883
0.000166597
0.0214402
0.0026099
0.0134226
0.000139025
0.000159354
0.000152493
0.00801397
0.0316405
0.000197326
0.000134049
0.000147848
0.0167168
0.00017702
0.016927
0.0261093
0.000216825
0.000131655
0.00781965
0.000165274
0.000175041
0.000161582
0.0354542
0.00271681
0.000197931
0.00023024
0.000149696
0.000163303
0.000143315
0.0104024
0.000180439
0.0250712
0.00325359
0.000157875
0.000204506
0.000151485
0.03499
0.000120284
0.000139956
0.00488409
0.0301255
0.00811476
0.0183039
0.000145265
0.000143252
0.0166664
0.0154656
0.0154034
0.000154935
0.000144876
0.000143449
0.0207819
0.000205282
0.000147611
0.000181027
0.000195579
0.0268512
0.00687363
0.0020644
0.000143125
0.0209326
0.000155771
0.000142988
0.000202617
0.0210658
0.000145514
0.00013906
0.00649994
0.0336633
0.00014155
0.000138898
0.0290042
0.00013956
0.00158529
0.00013902
0.00824612
0.000143239
0.000179956
0.0165542
0.0316803
0.000150855
0.0070449
0.00522059
0.0204068
0.00517087
0.0295618
0.000196106
0.000141008
0.00704297
0.000154809
0.00014255
0.00013472
0.00567667
0.000141381
0.000107894
0.000139241
0.000149368
0.015499
0.000188502
0.0045031
0.000151984
0.000161293
0.000137347
0.000165708
0.0063977
0.0277377
0.000138632
0.000186049
0.00298132
0.000146201
0.000136599
0.0286363
0.000167562
0.000168569
0.000200578
0.0335797
0.0148471
0.00436059
0.0157434
0.000206169
0.00371861
0.00349352
0.012484
0.000186029
0.00013389
0.000200975
0.000140931
0.000140804
0.0274873
0.0288817
0.000152714
0.0375167
0.000256427
0.0189733
0.000236479
0.000233457
0.000142065
0.000250695
0.000215745
0.000140303
0.000151166
0.0352103
0.0303467
0.0143067
0.0327906
0.000170432
0.0376561
0.0363134
0.000165193
0.000146226
0.000140613
0.00260626
0.000139791
0.000109984
0.000151984
0.000149285
0.00015327
0.0156565
0.0384416
0.0196597
0.000147774
0.00875841
0.000157145
0.000163444
0.000139412
0.000139979
0.0132394
0.000160055
0.0267618
0.0183741
0.00014578
0.000199237
0.000143438
0.000171872
0.000146209
0.00020577
0.000147927
0.000151712
0.00014735
0.000152568
0.000206534
0.000149469
0.000168627
0.000140555
0.000169192
0.000202476
0.0171579
0.00014089
0.000177591
0.000143825
0.000214956
0.000150618
0.0245807
0.000239068
0.000164733
0.000153886
0.000152302
0.000237588
0.000142523
0.00269421
0.000142923
0.000140647
0.000146696
0.0332233
0.000159641
0.000154284
0.000170786
0.000144239
0.000185298
0.0321332
0.00664513
0.000168795
0.000143332
0.000196689
0.000134477
0.000141338
0.000213967
0.0349944
0.000142747
0.000164511
0.000208566
0.01003
0.000147914
0.000149167
0.0334501
0.000151167
0.000228804
5.55605e-05
0.0375285
0.000143457
0.000155492
0.000141824
0.0397172
0.000203676
0.000174244
0.000199247
0.0200761
0.000150425
0.0341125
0.0218307
0.000146305
0.0177513
0.0001906
0.000152075
0.0130061
0.000144803
0.000142947
0.000135791
0.000211943
0.000233516
0.000209064
0.000151843
0.000149918
0.000162918
0.00231594
4.03081e-05
0.037466
0.00285632
0.000148992
0.000203813
0.000200718
0.0123049
0.000192208
0.00286855
0.000139922
0.000169408
0.000136618
0.0161294
0.000169643
0.000141761
0.0276182
0.000223415
0.000166354
0.000162272
0.000129424
0.00014369
0.000181542
0.00016811
0.0124227
0.000186095
0.000188252
0.000184822
0.000197576
0.0333174
0.000187183
0.0374924
0.000141091
0.000138955
0.000221427
0.0199485
0.0111712
0.000223014
0.00015299
0.0153079
0.0029759
0.000140981
0.000158456
0.00013801
0.000172972
0.000187251
0.000436099
0.0129776
8.51834e-05
0.000151277
0.0245457
0.0138036
0.000143033
0.000199065
0.0271697
0.011218
0.000154116
0.000188943
0.000128431
0.00015842
0.000140103
0.00015735
0.0392664
0.0249183
0.00961118
0.0157565
0.000151006
0.000167262
0.000180453
0.00014136
0.000147947
0.000136468
0.0294246
0.00013947
0.0334841
0.000169025
0.000193434
0.000209107
0.000186749
0.0179245
0.0122427
0.000172434
0.000131071
0.000149085
0.00983341
0.00376739
0.000156103
0.000137742
0.000137098
0.000186324
0.000164178
0.000205378
0.0256253
0.000150829
0.000136007
0.000201549
0.000188901
0.0160413
0.0141622
0.000139008
0.000187745
0.000145816
0.0422844
0.000132591
0.03823
0.000139145
0.000150607
0.00016742
0.000148402
0.000213155
0.000163369
0.000177032
0.0161119
0.0310808
0.000156971
0.000163537
0.000141914
0.0110942
0.0174292
0.000147614
0.000132965
0.00321934
0.000128661
0.0257506
0.000143417
0.000170665
0.000189715
0.0202203
0.000171293
0.000150413
0.000145017
0.000187512
0.0352098
0.000141049
0.0145672
0.0342979
0.0161515
0.000372677
0.000166746
0.02029
0.000156789
9.78995e-05
0.000141906
0.00288553
0.00292052
0.0125343
0.015435
0.0333416
0.000142683
0.000214608
0.000139025
0.0128325
0.00376022
0.0346392
0.0155385
0.000159916
0.028706
0.00349921
0.000167819
0.000151631
0.000145577
0.0271638
0.00015789
0.000187327
0.000157283
0.000146659
0.000136868
0.000145537
0.0302241
0.000198862
0.000165009
0.0171476
0.00833175
0.000140523
0.000142354
0.000136566
0.000164584
0.0373394
0.000159402
0.000157813
0.000169604
0.00603032
0.000192378
0.000175333
0.0100646
0.000164053
0.0377673
0.00016316
0.000164744
0.000142045
0.000156817
0.000187229
0.00480661
0.00306311
0.0298922
0.000189125
0.014776
0.000154138
0.00015546
0.000145041
0.0102346
0.0197373
0.00714133
0.000233735
0.000153561
0.000143479
0.00014064
0.000142906
0.000136657
0.00896928
0.000162823
0.011731
0.000165668
0.025873
0.00682247
0.0380616
0.000178201
0.000157852
0.015638
0.000170698
0.00362172
0.0297799
0.000136416
0.000165444
0.00015999
0.0195281
0.00876987
0.000167768
0.000303182
0.00260033
0.000156619
0.000186249
0.000165679
0.0161651
0.0030672
0.000154594
0.000145032
0.00304092
0.000711811
0.000199103
0.010231
0.000200631
0.000166145
0.000142107
0.0398614
0.0337918
0.00019426
0.000164075
0.0309004
0.0288
0.000139214
0.000143151
0.000155075
0.0346294
0.0329554
0.00014242
0.0205996
0.000149161
0.000140885
0.0001463
0.0151711
9.11987e-05
0.000219852
0.0105754
0.000152088
0.000151624
0.000139626
0.0106443
0.000151086
0.0138231
0.000152994
0.0169187
0.000147782
0.000140971
0.000197917
0.00848341
0.00351084
0.000169106
0.017876
0.000133242
0.000144667
0.00014328
0.00017602
0.00018541
0.000185358
0.000171445
0.0291994
0.000155303
0.000199053
0.000253633
0.0332049
0.000144495
0.0253105
0.030861
0.000156141
0.00463218
0.000185876
0.0225124
0.000145814
0.000189208
0.000141879
0.00208412
0.0147343
0.000198131
0.0367304
0.000153665
0.00017765
0.000150687
0.0215014
0.000131755
0.000137878
0.00215377
0.000198387
0.0213177
0.00580849
0.000185317
0.00016196
0.000135622
0.00169404
0.000165788
0.000140454
0.000206369
0.000137306
0.000174447
0.000143467
0.0187521
0.000153906
0.00379199
0.00367343
0.000166241
0.00025678
0.000182771
0.0424826
0.000143652
0.0178434
0.0226262
0.000137479
0.000142897
0.000152143
0.000147979
0.000172478
0.000142294
0.00312503
0.000189134
0.00370198
0.000196973
0.000145557
0.000148331
0.000135872
0.0144796
0.000144898
0.00014289
0.000122686
0.000154184
0.0121215
0.0357126
0.000193247
0.000153516
0.000167462
0.000151461
0.000149144
0.000197943
0.000133556
0.0001545
0.0107142
0.0397353
0.000776741
0.000151311
0.0126643
0.0155082
0.000148137
0.00331277
0.0304345
0.00014252
0.000153495
0.000142014
0.0161357
0.0177595
0.00187921
0.000133418
0.000154754
0.000150169
0.000145116
0.000199208
0.000145911
0.00018825
0.00767272
0.0358762
0.000136319
0.000154287
0.000153225
0.0163027
0.000129401
0.017536
0.011159
0.000273514
0.0108159
0.0185595
0.0194887
0.000149498
0.00394624
0.00539127
0.000150335
0.000135403
0.000138624
0.0361047
0.0107361
0.0141652
0.000143506
0.038618
0.000145687
0.000208192
0.000136624
0.000153029
0.000150183
0.000136199
0.0179139
0.000150484
0.0306347
0.0298412
0.0172113
0.000178005
0.00017958
0.0174319
0.0346512
0.000147821
0.00634888
0.000135885
0.000129024
0.000142164
0.000195889
0.000138476
0.0164627
0.000163793
0.00101737
0.000171918
0.0114751
0.0172771
0.000203418
0.00013596
0.000181869
0.000192662
0.0174831
0.000144597
0.000131453
0.000157186
0.0264217
0.000146132
0.00453663
0.015824
0.000173145
0.000185196
0.000144731
0.0028632
0.000147551
0.038406
0.000133384
0.00868382
0.000164444
0.000144576
0.0162313
0.0163808
0.00013302
0.000185921
0.000155924
0.0131664
0.000209846
0.00022433
0.000773843
0.000147748
0.000180944
0.0273829
0.0001403
0.00018919
0.000149738
0.000189447
0.000165798
0.0117309
0.0235669
0.000144822
0.0254644
0.000150615
0.000175308
0.0310196
0.0155351
0.000169571
0.0261557
7.13509e-05
0.000145157
0.00448513
0.000202845
0.000164173
0.000150353
0.0265043
0.000133312
0.0122528
0.000395493
0.000200348
0.000142308
0.000166875
0.0250639
0.000175648
0.024202
0.000149308
0.000154293
0.00022421
0.027281
0.000157916
0.035704
0.00192289
0.0169408
0.000146458
0.0259706
0.00789507
0.0181677
0.000142837
0.000146091
0.00014381
0.0368603
0.000168034
0.00358388
0.0023519
0.000148034
0.000135145
0.000142619
0.0174686
0.00802539
0.0284232
0.0174659
0.000139435
0.0246708
0.0322871
0.000202002
0.0114379
0.0263415
0.000169899
0.0109897
0.00015311
0.000157356
0.0137891
0.0198883
0.000143306
0.0359295
0.000147249
0.000143204
0.0289745
0.0236026
0.0324891
0.013655
0.000164862
0.000147963
0.000158927
0.0307538
0.0157904
0.000141093
0.000176234
0.00385888
0.000143402
0.000145145
0.0271191
0.0220011
0.000152578
0.000143141
0.000150058
0.00015114
0.0108785
0.000147913
0.000142206
0.000158019
0.000615935
0.0175452
0.000325718
0.0242369
0.000145032
0.000156463
0.0293226
0.0335996
0.000161971
0.000242304
0.000142155
0.000169272
0.000150439
0.000144845
0.000188663
0.000141826
0.000720304
0.000166315
0.000139326
0.000155779
0.0114914
0.0234696
0.0219616
0.000143555
0.000169514
0.03431
0.00266049
0.000154637
0.000144093
0.000143551
0.00340952
0.000145384
0.000148027
0.00016113
0.000142764
0.0296437
0.00025595
0.000147621
0.0001552
0.000132735
0.000145833
0.0292266
0.00410883
0.000187273
0.0125779
0.000202766
0.000148427
0.000141992
0.000144605
0.00014344
0.000147346
0.000163438
0.000191236
0.0309532
0.000148761
0.000196024
0.0219925
0.000495267
0.000142356
0.000138012
0.000153294
0.0253189
0.000142888
0.000503913
4.79447e-05
0.000190827
0.000145284
0.014116
0.00013327
0.000210981
0.000135288
0.00013355
0.000146378
0.000139469
0.000194375
0.0175734
0.000257429
0.000171963
0.0265689
0.00495815
0.0174078
0.000165286
0.0238306
0.0124295
0.000196074
0.021873
0.0278156
0.000198408
0.00317649
0.000148052
0.000138519
0.0259194
0.000140243
0.000155383
0.0311383
0.00018811
0.0340354
0.000260466
0.000138233
0.00015809
0.000144824
0.000167665
0.000136374
0.000184447
0.0228681
0.0294424
0.00684987
0.000144933
0.000133711
0.000187875
0.0388158
0.0299297
0.000201782
0.000917411
0.000138661
0.00229373
0.0278024
0.000267192
0.000154685
0.000145283
0.000132849
0.000153016
0.00014504
0.000143946
0.000154902
0.0285097
0.000189041
0.0260576
0.00422067
0.0020372
0.000213414
0.000141814
0.000141078
0.000145472
0.00013666
0.000147714
0.00254957
0.0171792
0.0102631
0.0387688
0.000153107
0.0178481
0.000203302
0.0357726
0.0307276
0.000145391
0.000139301
0.00203502
0.00014504
0.000133175
0.00607471
0.0297798
0.00439174
0.000143496
0.000144962
0.000152703
0.000171456
0.00968721
0.000136076
0.000154145
0.00027024
0.000136914
0.00562862
0.000171094
0.0335237
0.000147838
7.30895e-05
0.0380626
0.0001683
0.0299768
0.000196868
0.0270949
0.000132972
0.000157113
0.000138796
0.000163628
0.0161178
0.000144681
0.0125766
0.000144906
0.000145409
0.000143185
0.0386831
0.000175103
0.000196314
0.00570489
0.00013731
0.000173596
0.0137074
0.000182516
0.000138761
0.000150234
0.000145174
0.000182853
0.000143757
0.000140073
0.0410661
0.0356746
0.0372044
0.00038113
0.000674834
0.0177714
0.000187608
0.0399874
0.000199645
0.000132335
0.000141354
0.000128771
0.000146692
0.0315563
0.0320198
0.000135795
0.0107486
0.0404867
0.000162326
0.000148398
0.000170179
0.0250505
0.026426
0.0287673
0.0251685
0.0300344
0.000128819
0.000163156
0.000194905
0.00452373
0.0152259
0.00014246
0.000202581
0.016185
0.000166152
0.034499
0.000147881
0.000228017
0.0171999
0.0349043
0.000188993
0.000165238
0.0160665
0.000203378
0.0354886
0.0378607
0.0295068
0.000198058
0.0219215
0.000145243
0.000156189
0.000176926
0.0218905
0.00351691
0.027004
0.000150526
0.000200339
0.000189091
0.000151405
0.0284694
0.000142524
0.000201516
0.0204184
0.000142541
0.0357122
0.0239237
0.0379103
0.0248576
0.00189603
0.00236921
0.000141693
0.032314
0.000144571
0.000139863
0.000173395
0.000154477
0.0312609
0.000154824
0.000170393
0.000155094
0.000139386
0.0150183
0.000152348
0.000198816
0.00447347
0.000136305
0.0272159
0.000194731
0.000148685
0.0113382
0.000118999
0.000142292
0.000286673
0.000149456
0.0400565
0.00608594
0.000135996
0.000200484
0.000152516
0.0339388
0.0302086
0.000187843
0.0185489
0.000156171
0.000143638
0.0313309
0.000154572
0.000143857
0.00455473
0.000172166
0.000138601
0.000139153
0.00020115
0.000151973
0.0202673
0.000170004
0.000171292
0.0214402
0.000179971
0.000186483
0.000142203
0.0347752
0.0168245
0.0210029
0.000142917
0.000134903
0.000187966
0.000164325
0.00493322
0.000144107
0.00336595
0.000143245
0.000824399
0.000148253
0.000219414
0.000215361
0.000198827
0.027467
0.0190773
0.030256
0.0289286
0.000129071
0.00071829
0.000863609
0.0203453
0.000141812
0.000167235
0.0164083
0.0157363
0.000199738
0.000894376
0.000331763
0.0365351
0.000175585
0.000127024
0.000136079
0.000177117
0.000173682
0.000142218
0.000187347
0.0212776
0.000212069
0.0165225
0.00180442
0.000140969
0.000138621
0.000164332
0.000142319
0.00263591
0.000136357
0.000138482
0.0396768
0.000204945
0.00016983
0.000194741
0.000152208
0.000196419
0.0128201
0.0309968
0.0138162
0.000157164
0.030665
0.000151144
0.000136437
0.000152749
0.0250017
0.000147935
0.000158022
0.000207676
0.000150407
0.000139188
0.000142329
0.000148111
0.000159019
0.0268358
0.00129737
0.00016235
0.0290153
0.0199132
0.00625174
0.01555
0.000143479
0.000163487
0.00078359
0.000143115
0.000194115
0.000159688
0.000154717
0.0206961
0.0311484
0.000136344
0.000171577
0.000163508
0.000189939
0.0175824
0.0374232
0.0366888
0.000146176
0.000191429
0.0380349
0.000190934
0.00020021
0.00600533
0.0254391
0.0347981
0.0408333
0.000135955
0.0206091
0.000135603
0.000151543
0.000142798
0.000185065
0.0352505
0.0143084
0.0027903
0.0145994
0.000183417
0.000132646
0.000137885
0.000145073
0.000157509
0.000175016
0.0383268
0.0412392
0.000189632
0.0106166
0.000146772
0.000183472
0.000136756
0.0371733
0.000194171
0.00014569
0.000209628
0.000194681
0.0401498
0.025434
0.000201708
0.0069212
0.00015648
0.0206626
0.000135199
0.0145876
0.00364459
0.000150811
0.00018347
0.000144488
0.0285432
0.0124765
0.000173214
0.0216552
0.000132124
0.0285726
0.00018807
0.000231203
0.000177015
0.000138579
0.000201261
0.000184973
0.000155147
0.000183506
0.000164965
0.000166686
0.0135535
0.000207425
0.000153002
0.000164194
0.000169854
0.000165704
0.00014901
0.0400709
0.000196577
0.00162883
0.0112012
0.000143364
0.0299565
0.000143364
0.000154637
0.000153786
0.0298052
0.000170092
0.0364914
0.0164505
0.000185292
0.000196258
0.0001997
0.0260793
0.000203765
0.0177803
0.000165979
0.000175717
0.000140225
0.0323999
0.00389803
0.000165006
0.000145564
0.000169567
0.00015816
0.000155718
0.000177875
0.000171671
0.000145984
0.000167461
0.0166943
0.0305552
0.000226097
0.000173256
0.000130316
0.0275947
0.00016592
0.000185328
0.00399274
0.000173989
0.039129
0.000133467
0.000167119
0.000154203
0.000167102
0.000141784
0.0309027
0.00399117
0.0121618
0.000169912
0.0297522
0.000196182
0.000157722
0.0267393
0.00018588
0.000211735
0.0130083
0.000182516
0.000154895
0.000172297
0.000188015
0.000154964
0.000287548
0.0259341
0.00429178
0.000138653
0.000180327
0.000118347
0.0324832
0.000141811
0.000175403
0.000141967
0.000164517
0.016072
0.000163196
0.000162711
0.000138726
0.000138473
0.0119629
0.0248257
0.000144446
0.0321303
0.000221905
0.000132801
0.00016023
0.032398
0.000197886
0.000194753
0.000142953
0.00016016
0.000209049
0.000146779
0.000140882
0.0269085
0.000163062
0.030929
0.000191436
0.000158596
0.0336779
0.000203155
0.000207807
0.000139052
0.00261815
0.000163216
0.000159325
0.0246384
0.000172642
0.000146132
0.00019562
0.00015577
0.000157275
0.000133267
0.00271962
0.000143116
0.000189173
0.00867521
0.000195061
0.00013964
0.00038105
0.000164293
0.0148126
0.000213941
0.0254844
0.00019924
0.0337107
0.000136988
0.000188875
0.000157329
0.000140643
0.00450442
0.0119557
0.000156312
0.00233756
0.000157737
0.000187815
0.0257124
0.000158204
0.00417858
0.0182676
0.0142737
0.0262998
0.000977509
0.000232206
0.000138045
0.000189671
0.000168676
0.00971179
0.0369264
0.0369126
0.0380811
0.0384726
0.000138242
0.000464702
0.000142836
0.000150542
0.000145609
0.00265755
0.000217362
0.000194552
0.000140469
0.00958334
0.000160415
0.0221265
0.000139928
0.000186678
0.000163741
0.000187298
0.000175009
0.000194972
0.000151978
0.000176192
0.000222789
0.000139304
0.024289
0.000187268
0.000205294
0.000154757
0.00016387
0.00014494
0.000141115