/*--------------------------------*- C++ -*----------------------------------*\
| =========                 |                                                 |
| \\      /  F ield         | OpenFOAM: The Open Source CFD Toolbox           |
|  \\    /   O peration     | Version:  v2012                                 |
|   \\  /    A nd           | Website:  www.openfoam.com                      |
|    \\/     M anipulation  |                                                 |
\*---------------------------------------------------------------------------*/
FoamFile
{
    version     2.0;
    format      ascii;
    class       volScalarField;
    location    "400";
    object      nut;
}
// * * * * * * * * * * * * * * * * * * * * * * * * * * * * * * * * * * * * * //

dimensions      [0 2 -1 0 0 0 0];


internalField   nonuniform List<scalar> 
13851
(
0.00580174
0.0125244
0.00102596
0.00583863
0.00153377
0.00408571
0.00587871
0.00171165
0.00584662
0.00112979
0.013201
0.0194011
0.00506274
0.0111526
0.00583429
0.00467403
0.004509
0.00526421
0.00127624
0.00584279
0.00585708
0.000970386
0.00597028
0.0060326
0.00597373
0.00177378
0.00362534
0.000264658
0.00582605
0.00575898
0.00390784
0.0042587
0.00113715
0.0108029
0.00604442
0.00112955
0.000215159
0.000637477
0.00112419
0.00951271
0.00589971
0.0058088
0.00124735
0.0128527
0.0118883
0.00384267
0.0118447
0.0122228
0.00352291
0.0057923
0.00244013
0.0014177
0.00358164
0.00587782
0.00603247
0.00581217
0.00597928
0.00600857
0.00578401
0.00589831
0.000427311
0.00737675
0.00318838
0.00148719
0.00153607
0.00560478
0.000416695
0.0120677
0.00238927
0.0052884
0.00210732
0.00284299
0.0135977
0.00588984
0.00582721
0.00590303
0.00131761
0.00308958
0.00193429
0.00268051
0.00594106
0.0120376
0.00584557
0.00402625
0.00316624
0.0194635
0.00453646
0.0167381
0.00347179
0.00592573
0.00112381
0.00510156
0.0122785
0.00316278
0.00428831
0.00602229
0.00145698
0.0109158
0.00550475
0.00601553
0.00745244
0.00209337
0.0059421
0.002896
0.0059498
0.00467838
0.00219323
0.00579246
0.00601079
0.00394844
0.00603039
0.00592611
0.00521224
0.00599443
0.00603376
0.0147727
0.0111395
0.00578926
0.00607084
0.00607463
0.00114075
0.00314719
0.00601235
0.0138434
0.0154229
0.00588809
0.0161597
0.00193643
0.00587625
0.000964107
0.00589436
0.00581846
0.00314053
0.0058438
0.0136514
0.00585308
0.00579003
0.00249805
0.0108833
0.0141509
0.00774644
0.00603659
0.00584932
0.00588252
0.00585558
0.013544
0.00565741
0.000802155
0.00587594
0.011577
0.0022383
0.00604022
0.00804919
0.00599841
0.00459631
0.00586814
0.00587354
0.00587498
0.00142209
0.00246722
0.00585595
0.00292281
0.00626026
0.00581824
0.00530274
0.00584274
0.00567297
0.00238041
0.00588911
0.00344881
0.00217347
0.00580824
0.00587636
0.0142451
0.00581521
0.0112435
0.00197967
0.00586276
0.0011204
0.00580155
0.00431298
0.00329907
0.00583923
0.000995596
0.005846
0.00599249
0.00557814
0.00596387
0.00122255
0.00179222
0.0122616
0.00432035
0.00591675
0.0023983
0.00836582
0.00576629
0.00586964
0.00756595
0.00587714
0.00590744
0.00587659
0.00344594
0.00611937
0.0058467
0.00187145
0.00584175
0.0128711
0.0044374
0.00940464
0.00582035
0.0101227
0.00594689
0.0101815
0.00579347
0.00586871
0.013663
0.00343407
0.00432148
0.00582488
0.00994392
0.00438043
0.00594467
0.0106994
0.00146737
0.0116397
0.00597035
0.0027647
0.00596375
0.00665627
0.00579685
0.00208678
0.00221739
0.00580596
0.00592196
0.00243457
0.00283264
0.0122437
0.00107849
0.00588063
0.00584808
0.00400608
0.0131114
0.00591847
0.00178686
0.0059676
0.0119197
0.00202632
0.00734993
0.00585851
0.00508529
0.00546651
0.0135829
0.00595331
0.0058463
0.00236101
0.0117439
0.00210512
0.00301704
0.000218995
0.00583413
0.00587073
0.00540111
0.00402226
0.00591551
0.00339696
0.00554586
0.00595391
0.00324371
0.0101566
0.00468551
0.00547597
0.00505295
0.00366199
0.00198864
0.00477351
0.00582087
0.0120676
0.00809633
0.0112469
0.0128599
0.0059173
0.00581282
0.00595114
0.0024943
0.00404984
0.00625366
0.00586967
0.00582628
0.00355521
0.0116896
0.000842408
0.00581922
0.0059029
0.00229695
0.0117841
0.00320969
0.00537317
0.0196846
0.00582389
0.0118544
0.00285549
0.00479914
0.0109865
0.00594769
0.00451959
0.0114665
0.00586406
0.00215859
0.00291704
0.00584132
0.00972476
0.00535116
0.00595336
0.0110791
0.00581729
0.00551917
0.00586999
0.0106632
0.00155242
0.00582549
0.00216064
0.00582599
0.00111195
0.00532783
0.00598668
0.00593311
0.00158542
0.00299527
0.00530151
0.00582579
0.00594492
0.00595415
0.0126158
0.00561413
0.00477186
0.00451246
0.0107709
0.00876996
0.0058285
0.002405
0.000915674
0.00482896
0.00264736
0.00159559
0.00088716
0.00558986
0.00342467
0.0116077
0.00583972
0.00690803
0.00716767
0.000936404
0.00522973
0.00236598
0.00689817
0.00588241
0.00295384
0.00593351
0.00582523
0.00593687
0.00579391
0.00585614
0.0113644
0.010425
0.00587248
0.00232536
0.00583144
0.0191489
0.00410451
0.00429965
0.00456977
0.00587798
0.00257769
0.00318143
0.00385293
0.00588014
0.00578977
0.00531163
0.0054492
0.00589591
0.0103838
0.00488963
0.00150625
0.00223733
0.00769564
0.00707004
0.00563751
0.00582017
0.00594655
0.00509575
0.00220451
0.00877223
0.00222441
0.0112359
0.0114711
0.00583315
0.00583609
0.00386066
0.00404262
0.00244124
0.0111725
0.00527266
0.00307485
0.00601383
0.00757637
0.00582388
0.00475004
0.00567124
0.00587057
0.00596601
0.0058591
0.00584057
0.00168615
0.00254067
0.00228954
0.00523174
0.00216265
0.00483186
0.0142295
0.00543287
0.000843712
0.00478681
0.0137295
0.00578932
0.00585441
0.00600867
0.0002463
0.0093169
0.00130781
0.00487709
0.00128257
0.0117901
0.00458837
0.00612574
0.00227415
0.00587559
0.0140725
0.00595284
0.00290258
0.00953656
0.0011735
0.00816076
0.00585016
0.00760928
0.00918646
0.00380833
0.00581169
0.00291109
0.00206835
0.00649189
0.00581475
0.00595595
0.00215149
0.00150998
0.00365775
0.0152653
0.00599875
0.00594382
0.00486549
0.00520221
0.00580792
0.0174693
0.00581934
0.00580597
0.00582174
0.00403659
0.00591004
0.00581327
0.00586447
0.0108142
0.005848
0.00232471
0.00583726
0.00534079
0.0130187
0.00600486
0.00590946
0.00599977
0.0059963
0.0124505
0.00595184
0.00437839
0.00583744
0.00600266
0.00999961
0.00732727
0.00584517
0.00528744
0.00532523
0.0117941
0.00388327
0.00594204
0.0117723
0.00588437
0.00128153
0.00588371
0.00786153
0.00583252
0.00292137
0.00222908
0.00581017
0.00527487
0.00803509
0.00197568
0.0104618
0.00609292
0.0105033
0.00608242
0.00581325
0.00582464
0.00586516
0.00617585
0.00228692
0.00144588
0.000534759
0.00306662
0.0058644
0.00873605
0.00945214
0.00402127
0.00261626
0.00914028
0.0134905
0.00993124
0.00598101
0.00788828
0.00363556
0.00331609
0.00525605
0.00525579
0.0114251
0.00821954
0.0106159
0.00829611
0.00701523
0.00585579
0.00769392
0.00403775
0.00579685
0.00743381
0.00236944
0.00478418
0.00583688
0.00583186
0.00586825
0.00586879
0.00133927
0.00326281
0.0146686
0.0155723
0.00584789
0.00364237
0.00792484
0.00428246
0.0091461
0.0023021
0.00579721
0.00585065
0.00861365
0.00946008
0.00472442
0.00200809
0.00115006
0.00581069
0.00454539
0.0137975
0.000223767
0.00160946
0.00689037
0.00401926
0.00588946
0.00587232
0.0180641
0.0115296
0.00147361
0.00222408
0.00346444
0.00579883
0.00583386
0.00435793
0.00580479
0.00584905
0.00580034
0.0058134
0.00452454
0.00141182
0.00507899
0.00580401
0.00962053
0.00973609
0.00582345
0.00594953
0.00591569
0.00593463
0.00518045
0.00717796
0.00859076
0.00341651
0.00891068
0.00225904
0.00280693
0.00808183
0.00554366
0.00238955
0.00579762
0.00587995
0.00398419
0.0101152
0.00368743
0.00203565
0.00334504
0.00583539
0.00471942
0.00585072
0.010776
0.00222472
0.00583446
0.00430922
0.00581399
0.00354957
0.0011073
0.00589083
0.00587153
0.00408866
0.00590154
0.0014331
0.000357773
0.00152596
0.0046654
0.0014319
0.00583108
0.00264038
0.00537819
0.00330418
0.00595285
0.00602666
0.00529138
0.00582053
0.00207238
0.0117498
0.00504794
0.017243
0.00582244
0.00349071
0.00592251
0.0058156
0.00583406
0.00581505
0.00585906
0.00505892
0.00421334
0.00579889
0.00890741
0.00202013
0.0095856
0.00585859
0.00587475
0.00597467
0.00085989
0.00910157
0.0022888
0.00317621
0.00592413
0.00601339
0.00597154
0.00589133
0.000271525
0.0161464
0.00589594
0.00579773
0.00586712
0.00588706
0.000781169
0.00463748
0.00464912
0.0101727
0.0120732
0.0058672
0.00145931
0.0045109
0.00230609
0.0192821
0.00594333
0.00536949
0.00214921
0.00533517
0.0103118
0.00584295
0.0130509
0.00597646
0.00209073
0.00960759
0.00592737
0.00587766
0.00354745
0.0058161
0.00454672
0.00362421
0.0136174
0.00212672
0.00281682
0.0102998
0.00579515
0.00585405
0.0100328
0.00117343
0.0026764
0.0116726
0.00584983
0.00611773
0.00579754
0.00784039
0.000631961
0.00556424
0.00595632
0.0132063
0.00393
0.00596811
0.00350147
0.0147498
0.0101749
0.00581508
0.00589091
0.00308438
0.00239448
0.00127965
0.00587332
0.00661751
0.00584448
0.0137121
0.000812422
0.00106459
0.00555073
0.00456266
0.00557508
0.00580054
0.000305875
0.00602685
0.00611683
0.00589697
0.0058293
0.00453891
0.00379249
0.0015924
0.00511075
0.00964128
0.00583844
0.00390524
0.00607677
0.00558112
0.00587794
0.00586011
0.00590751
0.0115077
0.00586074
0.00579253
0.0176796
0.0058766
0.00515962
0.00596276
0.00585225
0.00250985
0.00144171
0.00844935
0.00588826
0.00360528
0.0106132
0.00595123
0.010529
0.00214837
0.00582495
0.00561848
0.00190934
0.00367929
0.00552935
0.00586916
0.00579322
0.00928779
0.000987761
0.00300232
0.00542944
0.00564401
0.00594531
0.0058653
0.00202572
0.012017
0.00121729
0.00423862
0.00588657
0.00128383
0.00213393
0.00970632
0.00558782
0.0155469
0.000460551
0.00587861
0.00259972
0.00275454
0.0100987
0.0110869
0.0113552
0.0123844
0.00338923
0.00582586
0.0051678
0.00617782
0.00298454
0.00593066
0.00599615
0.00260391
0.0122685
0.00580644
0.00376571
0.005845
0.00586783
0.00525605
0.00309856
0.0102151
0.00581717
0.00582603
0.0033303
0.00067887
0.00156312
0.00574641
0.00746562
0.000468276
0.00994981
0.00218614
0.00231657
0.00595469
0.00587917
0.0143125
0.00209785
0.00333658
0.0052492
0.00248422
0.00468533
0.00975002
0.00640275
0.0058527
0.0023557
0.00582348
0.00458922
0.00588826
0.0185753
0.0044774
0.0111316
0.00580274
0.00245044
0.00584661
0.000732425
0.00244238
0.00244998
0.0103602
0.00250364
0.003816
0.00603151
0.00256484
0.00725713
0.00294737
0.00583968
0.00225219
0.00591103
0.0119848
0.0115429
0.00593162
0.0110376
0.00600934
0.0060872
0.0129601
0.00530152
0.00592035
0.00965497
0.00614125
0.0134991
0.00952552
0.00585563
0.00437474
0.000451
0.0112469
0.0162093
0.00589733
0.00593681
0.0183959
0.00949053
0.00160139
0.00558563
0.00582072
0.0124586
0.00618879
0.00207134
0.00579333
0.00286295
0.00581551
0.00610653
0.00744099
0.00599946
0.00398934
0.014501
0.00587263
0.00583625
0.00592557
0.00589082
0.00275099
0.00717861
0.0028629
0.0150313
0.0058443
0.0029674
0.00591416
0.00581562
0.00593059
0.00587021
0.0056602
0.00584639
0.00268877
0.00585597
0.00550403
0.0072726
0.00232455
0.00610078
0.0181608
0.00261212
0.000422194
0.0031207
0.00285096
0.00216899
0.0029267
0.00296489
0.0187019
0.00993335
0.00379316
0.00209797
0.0118088
0.00595596
0.00207577
0.00217785
0.0158783
0.00595566
0.0149021
0.00585129
0.00586167
0.0115082
0.00586288
0.00278319
0.00542079
0.00582443
0.004624
0.00582388
0.0058258
0.00592416
0.00593635
0.000508731
0.00585839
0.000664693
0.00702577
0.00242174
0.0137352
0.00587492
0.00607837
0.00588545
0.00587388
0.00582153
0.00222916
0.00593182
0.00587723
0.00595319
0.00599123
0.00524912
0.0158051
0.00324439
0.0112301
0.000242675
0.00583524
0.00828184
0.00305898
0.00585329
0.0114525
0.00451236
0.0133449
0.00583535
0.0121029
0.0120506
0.00799967
0.00580543
0.00550334
0.0042514
0.00384259
0.00591475
0.00584742
0.0115704
0.00286007
0.0079898
0.00591896
0.00584057
0.0176068
0.00593204
0.00112998
0.0120918
0.00842567
0.000882902
0.0112
0.00601229
0.00587481
0.00283545
0.00532397
0.00325691
0.000814137
0.00211226
0.00593371
0.00583388
0.0145162
0.00588481
0.00514308
0.00201631
0.0123466
0.0010523
0.0059762
0.00588559
0.00595922
0.0111919
0.0110344
0.00580584
0.0060342
0.0059156
0.00228724
0.00581688
0.00590616
0.00594598
0.00249474
0.000755993
0.00296843
0.00436495
0.00591311
0.00213394
0.00537357
0.00470047
0.00171828
0.004743
0.00219992
0.00584131
0.00201503
0.00583319
0.00599052
0.00595609
0.00315189
0.00155063
0.00985698
0.00326253
0.0137786
0.0058344
0.00594875
0.00595226
0.0063294
0.011132
0.0058465
0.00259716
0.00248994
0.00736766
0.00600562
0.0115722
0.00586225
0.0125781
0.00113681
0.00946133
0.0019971
0.00222937
0.000182448
0.00858378
0.0111858
0.00370429
0.00599673
0.00135998
0.00581491
0.00582724
0.00259531
0.00591677
0.00849299
0.00390468
0.00329149
0.0127896
0.00109361
0.0127621
0.0058257
0.00407574
0.00550753
0.00589687
0.00503954
0.0173957
0.00597127
0.010334
0.00581715
0.00295037
0.00570569
0.0135582
0.0109133
0.00234396
0.0058856
0.00592642
0.00672869
0.00206052
0.00746252
0.00998714
0.00553731
0.00583763
0.00291217
0.00510667
0.00205145
0.00298137
0.0106648
0.0105662
0.000992393
0.002498
0.00593778
0.00543379
0.00586566
0.00324403
0.00275836
0.00782988
0.0125123
0.00280627
0.00131833
0.00563407
0.0103956
0.00033477
0.00595885
0.00335529
0.0101215
0.00507278
0.00550773
0.00590232
0.00587938
0.00293912
0.00602436
0.0074442
0.00603151
0.00586982
0.00587527
0.0055012
0.00136651
0.00593795
0.00309408
0.000943166
0.0118403
0.00263446
0.00428308
0.00583783
0.00624523
0.00330285
0.00590601
0.00136092
0.00836232
0.00588145
0.00585363
0.00154595
0.0102168
0.00589449
0.00581695
0.0148803
0.00597259
0.00847565
0.00581635
0.013405
0.00588167
0.0024479
0.0133689
0.0107317
0.00549761
0.00180779
0.0136904
0.00882013
0.00217804
0.012993
0.00528706
0.0058353
0.00341242
0.00601056
0.00582597
0.00589695
0.012808
0.00586409
0.000234459
0.00585644
0.00578663
0.00287959
0.00128393
0.00237518
0.00589439
0.00595809
0.00582208
0.00253438
0.00233204
0.00938498
0.00584667
0.00225922
0.0102981
0.00594729
0.00585326
0.00978877
0.00238875
0.00450555
0.00145344
0.0136128
0.0143703
0.00177199
0.00484872
0.00521385
0.0134837
0.0100011
0.00821761
0.00211171
0.00590493
0.00148357
0.00583629
0.00584667
0.0150757
0.00973984
0.00586591
0.00829152
0.00285565
0.00466202
0.00432877
0.00462705
0.00586795
0.00278339
0.00599013
0.00592266
0.00557422
0.0112052
0.010832
0.0100104
0.00961405
0.00420179
0.0118021
0.011155
0.00246148
0.00591604
0.00586685
0.0119343
0.00583535
0.000498917
0.00600604
0.00594526
0.0058468
0.00593388
0.00949696
0.00858758
0.00595499
0.00315867
0.00563639
0.00509953
0.00582172
0.00596188
0.00520637
0.00537543
0.0081682
0.015855
0.00294152
0.00160961
0.00583292
0.0040292
0.00593891
0.00137025
0.00587728
0.00590167
0.00595586
0.0060397
0.00124057
0.00593863
0.00326906
0.00592324
0.0035183
0.000647981
0.0029474
0.0058779
0.00211414
0.00595539
0.00332057
0.00572892
0.00943359
0.00120858
0.00224264
0.00369545
0.00598349
0.00516676
0.00588151
0.0106658
0.00582562
0.00592383
0.00587939
0.0112923
0.00348511
0.00566662
0.00528373
0.00596814
0.0021269
0.0112308
0.00293553
0.00234941
0.00586343
0.00587544
0.00592245
0.00592392
0.00106143
0.0112093
0.00597653
0.00499285
0.00212565
0.00350312
0.00593922
0.00594564
0.0106006
0.00591435
0.00579546
0.000240931
0.00910417
0.00588788
0.00558319
0.00584178
0.0117747
0.00144849
0.00206065
0.00157413
0.00883511
0.00502791
0.00852704
0.00943872
0.00595661
0.00666725
0.0021975
0.00598944
0.00454309
0.00588132
0.00593246
0.00583555
0.00110083
0.00529616
0.00120686
0.00590147
0.00475699
0.00263054
0.00878733
0.000109174
0.00942681
0.0103112
0.00593972
0.00144391
0.000726574
0.00563371
0.00120565
0.0124729
0.00583634
0.00529147
0.00585066
0.0155556
0.00437809
0.00584114
0.0148245
0.00127332
0.00300309
0.00564758
0.00582335
0.00597037
0.00283094
0.00365268
0.0180451
0.00195861
0.00124814
0.00273824
0.000987383
0.0141261
0.00289477
0.0103372
0.00588404
0.00586979
0.00110587
0.00881591
0.00440251
0.00418183
0.00606058
0.00255021
0.0104532
0.00592753
0.00278639
0.00581307
0.00219865
0.00249609
0.00569394
0.0042372
0.000234837
0.00535427
0.00985834
0.00206292
0.00583452
0.00242058
0.0109299
0.00496074
0.00395446
0.002355
0.00579599
0.00608457
0.00591843
0.00561016
0.0108011
0.00842024
0.00345307
0.00267345
0.00433867
0.00460262
0.00318182
0.00598562
0.00596238
0.00584557
0.00971406
0.00583378
0.00957176
0.00436807
0.00330783
0.000753023
0.000875137
0.0037461
0.00410867
0.00222123
0.00583787
0.00586179
0.00348198
0.00176738
0.00394745
0.00581292
0.0058779
0.00123401
0.00371824
0.00133097
0.0110844
0.00391573
0.00583977
0.00154562
0.00616108
0.00252259
0.0147151
0.00581822
0.00206401
0.00594928
0.0116677
0.00586562
0.0119737
0.00590604
0.00438342
0.00496927
0.00592884
0.00325239
0.00259855
0.00230578
0.00702804
0.0110852
0.00357306
0.00323084
0.00586317
0.00381321
0.0072868
0.00601958
0.0058636
0.0105742
0.00578866
0.00665568
0.00597883
0.00362517
0.00121135
0.0181515
0.00427831
0.00588973
0.00586755
0.00249522
0.0109928
0.00583711
0.0139685
0.00715301
0.0167725
0.000729508
0.00466134
0.00540187
0.00263268
0.000452452
0.0058332
0.0104015
0.0104636
0.00472281
0.0059733
0.0143258
0.00584175
0.00544207
0.00585584
0.0015468
0.0113103
0.0113673
0.00686356
0.00539794
0.0121757
0.0053322
0.00453456
0.00590267
0.00588995
0.00806765
0.00556625
0.00248363
0.00604305
0.00595502
0.00581496
0.00591877
0.0110378
0.000688402
0.00474578
0.00728403
0.00339844
0.00586562
0.00584271
0.00585881
0.00539893
0.0117731
0.000433751
0.0055766
0.00622013
0.00764635
0.00105721
0.00203256
0.00244516
0.00482507
0.010625
0.00244295
0.00514855
0.0058367
0.0060366
0.00194149
0.0119867
0.0107145
0.00944464
0.00121666
0.00447817
0.00572084
0.00391687
0.00596301
0.00333767
0.00863461
0.0117638
0.00443503
0.00421772
0.0058681
0.00586922
0.00582623
0.00584862
0.00274817
0.00424991
0.00374978
0.0047851
0.0103065
0.0033068
0.0118162
0.00531425
0.00294906
0.00717336
0.00413233
0.00304823
0.00891694
0.00581297
0.00352719
0.00333461
0.00354931
0.0028571
0.00452495
0.00246275
0.00788483
0.00608939
0.00249219
0.00611907
0.00551707
0.0105295
0.00430061
0.00587015
0.0106876
0.000927162
0.00124421
0.0146708
0.00148006
0.00536899
0.00593177
0.0179099
0.0107891
0.00121991
0.00238099
0.0111132
0.0124915
0.0058588
0.00584431
0.00418225
0.0110972
0.0110106
0.00583392
0.00482853
0.00593776
0.00587184
0.0059431
0.00244964
0.00034997
0.0059073
0.00398011
0.00588975
0.00590696
0.0058374
0.00323431
0.00599426
0.00400964
0.0057588
0.0124906
0.00592846
0.00583816
0.00119964
0.00255289
0.0110593
0.00442524
0.00763334
0.00590802
0.00588647
0.00584692
0.0022726
0.00188405
0.00202478
0.003355
0.00852101
0.00381746
0.000847478
0.00239874
0.0140592
0.00595061
0.00746422
0.0100651
0.00269444
0.00895426
0.00239774
0.00804033
0.00591042
0.00197117
0.00593423
0.00219851
0.00198837
0.00242284
0.0108496
0.00582876
0.00209074
0.0059277
0.00545633
0.00584985
0.00581304
0.00573666
0.00131258
0.00918233
0.00214586
0.00224523
0.00359595
0.00583288
0.00217705
0.00503856
0.00591604
0.00133621
0.00592526
0.00211936
0.00587039
0.0187468
0.0060386
0.0130484
0.0121974
0.0049617
0.0026397
0.00243022
0.0116226
0.00591911
0.0152878
0.0130509
0.00584206
0.00585046
0.00589285
0.00593002
0.00222821
0.00589711
0.00827746
0.00232903
0.0136205
0.00275354
0.00594798
0.0059493
0.0058491
0.00467692
0.0058908
0.00588895
0.000278769
0.00327937
0.00885123
0.0103369
0.00203763
0.00572683
0.00447811
0.00591221
0.00594077
0.00508138
0.0058746
0.00334982
0.0043957
0.0120959
0.000697088
0.00591796
0.00607094
0.0146593
0.00593135
0.0125782
0.00968166
0.00583327
0.0037544
0.00582413
0.00501667
0.00803398
0.00563981
0.00587359
0.00469761
0.00579599
0.00587439
0.00144447
0.00594348
0.00431479
0.00285463
0.00992898
0.00581761
0.00360099
0.00339416
0.0067565
0.00582618
0.00744518
0.00385135
0.00519199
0.0119767
0.00426654
0.00852475
0.00586217
0.00965586
0.0122383
0.00465628
0.00582776
0.00582702
0.0107552
0.00471394
0.00569342
0.00597984
0.0109257
0.00591065
0.000724538
0.00589793
0.00585924
0.0050369
0.00581477
0.00792174
0.00444452
0.0159353
0.0112109
0.0065168
0.00200376
0.00235958
0.00666026
0.0109687
0.00600361
0.00154632
0.00584644
0.00579075
0.00583767
0.00613412
0.00592458
0.0075507
0.00507789
0.00687361
0.00353046
0.00453739
0.00772133
0.00223734
0.00581119
0.0031269
0.0013197
0.00712453
0.00594988
0.00588095
0.00607618
0.0133987
0.00595574
0.0141973
0.00659078
0.00223304
0.00142596
0.00594747
0.009629
0.00593242
0.0119807
0.00580198
0.00305673
0.00231061
0.00587716
0.00709871
0.00664025
0.00580963
0.00218931
0.00570198
0.00570806
0.00598829
0.00175969
0.00649046
0.0059419
0.00313908
0.0100639
0.00592128
0.00610908
0.00581274
0.0023076
0.0024168
0.00366658
0.00756616
0.00588425
0.00743249
0.00574725
0.00201923
0.0106733
0.00619133
0.00447402
0.00863689
0.000364867
0.00587167
0.0140662
0.00146421
0.00242589
0.00453753
0.0103531
0.0058144
0.00173025
0.00615376
0.000815486
0.00582414
0.00462005
0.00773517
0.00196271
0.00996988
0.00594141
0.00480199
0.00258728
0.0102108
0.00236802
0.0112146
0.00314574
0.00765011
0.00594908
0.00973758
0.00368886
0.00779731
0.00583232
0.0058705
0.0059337
0.0112279
0.00562169
0.0108093
0.008584
0.00594893
0.00588981
0.00583264
0.00749993
0.00274863
0.00822114
0.00710809
0.00583222
0.00840801
0.0100157
0.00144329
0.0053394
0.00854554
0.00367017
0.00148977
0.00390774
0.00280387
0.00439508
0.00724776
0.00589502
0.00752156
0.00595682
0.0058505
0.0127465
0.00747905
0.00800003
0.00155035
0.0048894
0.00594338
0.00611005
0.00868339
0.00669698
0.00583456
0.00209892
0.00819016
0.00584804
0.00590381
0.00884727
0.00803563
0.00587794
0.00583331
0.00492565
0.00591826
0.0158724
0.00593237
0.00593638
0.00555195
0.00151598
0.00563901
0.00168997
0.00957134
0.00589009
0.00568469
0.010248
0.0104197
0.00525622
0.00250582
0.00582415
0.00236142
0.00588753
0.00587725
0.0013399
0.00593198
0.00345942
0.00473946
0.00589044
0.00572185
0.00500669
0.0136999
0.00607871
0.00585104
0.00620964
0.0103031
0.00648648
0.00356188
0.00594647
0.0058353
0.0127263
0.0059102
0.00602185
0.00373818
0.00584891
0.0102346
0.00451895
0.00594218
0.00540249
0.00585953
0.00594008
0.0193006
0.0100533
0.00233988
0.00622811
0.00335405
0.00594679
0.00582344
0.00588024
0.00592608
0.00593407
0.00616053
0.00217495
0.0108386
0.00585983
0.001482
0.00624399
0.00631054
0.00587915
0.00581323
0.00359922
0.011087
0.00591447
0.000659583
0.000111685
0.00328842
0.00588618
0.00218822
0.00588602
0.00536653
0.00586181
0.00589039
0.00595193
0.00591201
0.00512948
0.00636425
0.00282696
0.00249174
0.0117343
0.00739117
0.0164958
0.00244605
0.00756011
0.00607316
0.00108242
0.0094945
0.0089435
0.00161847
0.00970033
0.00593586
0.00592536
0.0177346
0.00585404
0.00495492
0.0137141
0.00510708
0.0193339
0.00117341
0.00585292
0.00584834
0.0058973
0.00441978
0.005895
0.00382634
0.0096937
0.00998991
0.00783884
0.00590473
0.00582416
0.00244156
0.00886928
0.0102026
0.00079174
0.00077373
0.00582857
0.00116159
0.00777194
0.00377271
0.00579209
0.00591195
0.00590251
0.00584786
0.0059375
0.00592522
0.00508737
0.0098118
0.0023116
0.00803206
0.0100607
0.00131546
0.00112651
0.00583117
0.00596825
0.00588907
0.00589006
0.00592976
0.00732534
0.00745697
0.0146852
0.0111168
0.00340146
0.00834375
0.000676422
0.0110913
0.00937569
0.00593152
0.0059032
0.00866952
0.00591232
0.00581316
0.0117444
0.010217
0.00183997
0.00586593
0.0058946
0.0057569
0.00349178
0.00446659
0.0058495
0.00573815
0.00043151
0.00594945
0.0117936
0.00302319
0.0147664
0.00594009
0.000216748
0.0103266
0.00445459
0.00863779
0.00163344
0.00815456
0.00587514
0.00562699
0.00585163
0.00504541
0.00291381
0.0059782
0.00542381
0.00590406
0.00597265
0.0058313
0.011455
0.00215002
0.00165
0.0121038
0.00587972
0.00377814
0.00454911
0.00283433
0.00592489
0.0058376
0.00592029
0.00273787
0.0059478
0.00591045
0.0117605
0.00926384
0.0114364
0.000874291
0.00072401
0.0081489
0.00247433
0.0110445
0.000816633
0.00586222
0.0059744
0.00578918
0.005951
0.00875521
0.0095621
0.00590671
0.00451001
0.0121014
0.00246774
0.00587208
0.00617492
0.01018
0.00875133
0.00976868
0.0124608
0.0101658
0.00579286
0.000485518
0.00120861
0.0141891
0.00474587
0.00583834
0.00146143
0.00660172
0.00472678
0.00914306
0.00596122
0.00456195
0.0075246
0.011249
0.00235737
0.00407516
0.0029969
0.00145145
0.0112473
0.0118704
0.0102535
0.00161868
0.00838677
0.00590221
0.0056547
0.00222673
0.00532228
0.0118256
0.00784343
0.00606491
0.000798988
0.00241224
0.00605519
0.00903315
0.00583386
0.00144696
0.00520235
0.00583081
0.0153721
0.0104522
0.0119337
0.0097215
0.00162674
0.00750095
0.00590697
0.0086916
0.00591185
0.00593541
0.00211233
0.00444795
0.00995782
0.0040283
0.00620314
0.00478918
0.00590777
0.00653414
0.00588611
0.00157835
0.0139973
0.00581345
0.00729138
0.00128336
0.00585788
0.00287969
0.000326247
0.00582371
0.00245014
0.00594835
0.0120448
0.0132601
0.00590834
0.00160033
0.00587702
0.00886362
0.0100738
0.00244126
0.0176033
0.00551249
0.00583699
0.013781
0.00332073
0.00593664
0.00196645
0.00203442
0.00582331
0.00588557
0.000797333
0.00590027
0.00522136
0.000482027
0.00515166
0.007975
0.00220561
0.00130794
0.00591761
0.00901107
0.00270587
0.00906282
0.00583434
0.00588668
0.00162265
0.00495781
0.01249
0.0059392
0.00783433
0.00594143
0.00174534
0.0060457
0.00346107
0.000903836
0.00161385
0.00771596
0.016672
0.00985063
0.00967657
0.00579145
0.000661177
0.000572954
0.00449148
0.00595616
0.000423858
0.00276181
0.00537326
0.00159933
0.000734737
0.00167978
0.00930963
0.00202854
0.000279863
0.00581442
0.00224203
0.00210835
0.00583225
0.00250456
0.0089327
0.00400402
0.00587317
0.000989323
0.00583152
0.00584903
0.00514051
0.00583466
0.00320575
0.0058522
0.00585779
0.010327
0.000996559
0.00378109
0.00151477
0.00604992
0.00110907
0.00588161
0.0100379
0.00678628
0.00288187
0.0100677
0.00585989
0.00587399
0.0034536
0.00787505
0.000653507
0.000568208
0.000805922
0.005712
0.00587681
0.00583535
0.00593339
0.003193
0.00904748
0.000711316
0.00390802
0.00909217
0.0050639
0.0134394
0.00222071
0.00585457
0.00299358
0.00350074
0.00584261
0.00533883
0.00352232
0.0041668
0.00734552
0.0100075
0.00585494
0.00203459
0.00356289
0.0012588
0.00725707
0.0160835
0.0099601
0.00595361
0.00216947
0.0109955
0.00219211
0.0016043
0.0127136
0.0101508
0.00837428
0.0113824
0.00584193
0.00784475
0.00589941
0.00584839
0.00585385
0.00136493
0.00866468
0.00213764
0.00746298
0.00490694
0.00142671
0.00580581
0.0058133
0.00589969
0.0060882
0.00211276
0.0103967
0.0119499
0.00230345
0.0156749
0.00595291
0.00153591
0.00581619
0.0117769
0.0024588
0.00595277
0.000832849
0.00167941
0.0187798
0.00698863
0.000728955
0.00177045
0.00555547
0.00877498
0.000615711
0.00469136
0.0110055
0.00587185
0.00151971
0.00588366
0.00958436
0.00506924
0.00200842
0.00765621
0.000605821
0.0119378
0.00120035
0.00133056
0.00278402
0.00581486
0.00154971
0.00243022
0.00417166
0.00155394
0.0032505
0.00388384
0.00382231
0.00123174
0.0058636
0.00498058
0.00230427
0.00479409
0.00584335
0.0175137
0.00104476
0.00760751
0.00205772
0.00586152
0.00937166
0.00583305
0.00570938
0.00582809
0.00951161
0.00422657
0.0113477
0.00282229
0.00140731
0.00378398
0.00156839
0.0158289
0.00141678
0.0171238
0.00617505
0.00209055
0.00593496
0.0100008
0.00981632
0.00615813
0.00600992
0.00430423
0.00329571
0.00571854
0.00222372
0.00210805
0.00591486
0.00459692
0.00334779
0.00710091
0.00197374
0.00216025
0.00582023
0.015837
0.00243936
0.00236302
0.00632721
0.00205353
0.0199558
0.00581763
0.00615059
0.0057156
0.00468088
0.00585566
0.00922291
0.0124924
0.00517117
0.00429624
0.00921179
0.000935642
0.00300351
0.0161921
0.00246586
0.00103519
0.00417929
0.00271886
0.004522
0.00210209
0.00112621
0.00571782
0.000449488
0.0068037
0.0127577
0.00581658
0.000821428
0.000390726
0.0160382
0.00583363
0.002152
0.00593634
0.00493283
0.00685664
0.00461225
0.00382419
0.00582642
0.00582352
0.00601574
0.00795496
0.00593541
0.0142977
0.00108272
0.00580978
0.00584788
0.00989091
0.000874017
0.00177832
0.00584725
0.00367578
0.00127804
0.00601093
0.00587472
0.0118823
0.00329766
0.00933387
0.00215174
0.00296564
0.00822714
0.000833846
0.000859524
0.00582547
0.00860174
0.00241811
0.00350669
0.0162779
0.00221378
0.00594453
0.00105854
0.00407053
0.00563016
0.00584697
0.0026071
0.00586202
0.00242869
0.00391927
0.00111267
0.00591053
0.000458735
0.0025159
0.00461906
0.00107142
0.00731783
0.000802317
0.010908
0.00581442
0.00226731
0.00305231
0.00582925
0.0118673
0.00555956
0.00284623
0.00539308
0.00586872
0.00183824
0.0072571
0.00294668
0.0106961
0.0177976
0.00427804
0.015032
0.001629
0.00513288
0.00584996
0.00247793
0.00445105
0.0139258
0.0198668
0.0117589
0.0162766
0.0116077
0.00582127
0.00119155
0.00583152
0.00451001
0.00591
0.00868085
0.000836991
0.0024102
0.00585875
0.000909251
0.00348564
0.00603832
0.00593362
0.00213651
0.00251138
0.00221536
0.00219371
0.0017657
0.00434791
0.000603089
0.00152712
0.00582909
0.0073634
0.000565646
0.00347211
0.00602514
0.00326048
0.00589512
0.00588748
0.00235545
0.00583899
0.00651646
0.0010507
0.00211885
0.00768267
0.00591272
0.00720164
0.00252299
0.015914
0.00495311
0.00489873
0.0107454
0.00484696
0.00502301
0.0032339
0.00464077
0.00582329
0.00595469
0.0101992
0.00247618
0.00498443
0.00531082
0.0049989
0.00590605
0.00544039
0.0120459
0.00599449
0.00226533
0.0105828
0.00163346
0.00166258
0.00522283
0.0130921
0.0118741
0.0099496
0.00632625
0.00165613
0.00509894
0.00590052
0.00282029
0.00588991
0.00583642
0.00554228
0.00830356
0.00480696
0.00584573
0.00945956
0.00131665
0.00592501
0.00604526
0.00169215
0.00585916
0.00586948
0.0149404
0.00273725
0.00211935
0.00429563
0.00592186
0.00211716
0.00246329
0.00504661
0.000798566
0.0013114
0.00304619
0.00178948
0.00823199
0.00577361
0.0035677
0.000827191
0.00133154
0.00144197
0.0149177
0.00237654
0.00545582
0.00213563
0.00185728
0.00341032
0.00229249
0.00586211
0.00583176
0.00589354
0.00463525
0.00930303
0.00588592
0.00175726
0.00568605
0.00353115
0.00572919
0.00101794
0.00370195
0.00157453
0.00590628
0.00571207
0.00563858
0.00591675
0.00208861
0.00384463
0.00591217
0.00459647
0.00515435
0.00593003
0.019846
0.00395902
0.00851868
0.00171498
0.00889964
0.0016814
0.00227045
0.00509351
0.00221354
0.00578826
0.00280859
0.0185977
0.00810227
0.00130103
0.0026907
0.00234259
0.00589986
0.0108235
0.00405484
0.00750678