/*--------------------------------*- C++ -*----------------------------------*\
| =========                 |                                                 |
| \\      /  F ield         | OpenFOAM: The Open Source CFD Toolbox           |
|  \\    /   O peration     | Version:  v2012                                 |
|   \\  /    A nd           | Website:  www.openfoam.com                      |
|    \\/     M anipulation  |                                                 |
\*---------------------------------------------------------------------------*/
FoamFile
{
    version     2.0;
    format      ascii;
    class       volScalarField;
    location    "400";
    object      omega_0;
}
// * * * * * * * * * * * * * * * * * * * * * * * * * * * * * * * * * * * * * //

dimensions      [0 0 -1 0 0 0 0];


internalField   nonuniform List<scalar> 
13851
(
0.0262473
1.31268
0.0823419
0.0259663
0.0834359
0.056336
0.0247366
0.0488828
0.0234666
0.0966399
0.280931
1.95325
2.7472
2.91175
0.0244943
0.0357169
0.0275941
0.0309714
1.22397
0.0234664
0.0258199
0.0798608
0.0240647
0.0249631
0.0242952
0.04964
0.0269891
11.4139
0.0260903
0.0269679
0.0620953
0.0278873
0.0786139
0.451103
0.0249329
0.188462
0.561583
0.185411
0.107046
0.385681
0.0242894
0.0223245
4.52679
0.281981
0.264373
2.64972
0.277667
0.565317
0.0271967
0.0432653
0.0769819
0.141205
3.21779
0.0246371
0.0253755
0.0223242
0.0238883
2.36192
0.0267611
0.0247581
0.156547
2.7297
0.0567296
0.0967336
0.142072
0.0276739
1.68536
0.288223
0.0362969
0.0307792
7.35931
2.88601
1.2386
0.0247487
0.0239761
0.0236758
0.0767769
5.34919
0.0496267
6.71066
0.0249427
0.219337
0.0244132
2.48586
0.0579
2.01077
0.044287
1.83054
0.0280805
0.0234767
0.189418
0.0345596
0.288873
0.0302337
0.0278651
0.0247063
0.0853678
2.74606
0.0423525
0.0247406
3.7091
0.0531006
0.0251398
0.026758
0.0237538
0.0472876
0.0588851
0.0222126
3.49109
0.0602812
0.0250251
0.0235409
0.033758
0.0256091
0.0250071
0.826896
2.77798
0.0222574
0.025568
0.0257245
4.84507
0.026639
2.77674
0.600909
0.614277
0.0243194
0.618625
0.0514794
0.0256543
0.140436
0.0242703
0.0235857
5.95168
0.024416
0.820576
0.0237492
0.0222707
2.79747
2.49087
2.17596
3.33849
0.0253641
0.0253278
0.0226618
0.0261247
0.29529
0.0531661
0.139244
0.0247188
0.257436
0.0807201
0.0253271
3.28697
0.0239219
0.0258307
0.0260372
0.023912
0.0259923
0.140647
0.0759868
0.0223019
0.0302116
2.26047
0.0235651
0.0304161
0.0224954
0.0678247
0.0367686
0.0255416
4.97168
6.6052
0.0231493
0.0239326
2.13308
0.0235577
0.563507
0.0497988
0.0253162
1.53522
0.0222214
0.0286217
3.05263
0.0244191
0.0855237
0.022246
0.0242346
0.0278515
0.0247741
0.093925
0.0926953
0.289545
2.56278
0.023736
0.0363917
2.5581
0.0256965
0.0250815
0.293323
0.0251262
0.0237074
0.0244102
3.70434
0.026508
0.0242739
0.0748356
0.0244308
2.27285
0.0277301
3.08245
0.0222254
3.42738
0.0250559
0.34523
0.0221715
0.0225789
0.276036
0.0550077
2.53098
0.0244264
3.0314
0.0278893
0.0249829
3.08443
0.135573
3.43259
0.0244275
0.0321575
0.0239668
2.03616
0.0221674
0.0483059
0.116486
0.0231435
0.0236566
0.0688571
0.0445594
2.26346
0.187966
0.022641
0.0242889
0.059331
0.377591
0.022699
0.0813066
0.0232712
3.20636
0.0544445
0.311682
0.0261222
0.0284663
0.0296303
0.390055
0.0249447
0.0262066
0.0549627
0.925223
0.0893854
2.84712
22.6779
0.0245364
0.0225995
0.0298322
0.317636
0.0230356
2.41224
0.0256846
0.0249126
0.0297577
3.12323
0.0957427
0.0295307
0.0258233
0.143116
0.0469835
0.0348173
0.0235951
0.216777
0.188454
3.70519
0.275411
0.0227076
0.0221843
0.0236615
0.0525481
0.28421
0.521617
0.0235802
0.024554
0.126876
0.213991
0.168872
0.026476
0.0247629
0.0387363
0.21597
2.25023
0.0298353
1.95324
0.0236188
3.24532
0.0298449
0.027463
3.66666
0.0246302
0.0470829
3.07275
0.0235605
0.0456739
0.0303586
0.0262833
2.57707
0.0300169
0.0248863
2.95797
0.0223757
0.0287031
0.0250132
3.78029
0.129456
0.0244251
0.0549417
0.0244687
10.2813
0.0320058
0.0240169
0.0241452
0.126345
0.0314803
0.0257596
0.0245588
0.0246099
0.0248471
0.275112
4.36482
4.07735
0.0337937
3.73931
2.44102
0.024448
0.0370355
0.168932
0.0393572
0.0564389
0.123812
1.45949
0.0277001
0.429601
3.14519
0.0245082
0.0527439
0.0526916
0.777524
0.0257519
0.0595872
2.03252
0.0239624
0.470275
0.024131
0.0244863
0.0231203
0.0222096
0.0238584
3.22929
0.285398
0.0243961
0.0438866
0.0224215
1.82469
0.0418122
0.384854
4.22368
0.0244062
0.0595763
0.0304631
0.415577
0.0241934
0.022279
0.0310542
4.67532
0.0243444
2.50082
0.0376334
0.132104
6.61138
0.151684
0.129038
0.0279492
0.0236694
0.0251273
0.0325232
0.0543212
3.08724
0.0367797
3.51968
3.10939
0.0224357
0.0245449
4.72125
5.00948
0.109082
2.83174
0.0319926
0.0310604
0.0246985
2.43698
0.0232926
0.0350471
0.0275079
0.0246559
0.0238124
0.023533
0.0224811
0.0942757
0.0527658
6.69877
0.03129
0.058214
0.0347763
0.393133
0.02936
1.02015
0.0272258
0.274417
0.0222544
0.0235143
0.024486
0.489581
0.36574
0.130835
0.0340441
9.17122
0.475436
0.0426692
0.0259983
0.0704485
0.0241717
0.392128
0.0237251
1.97882
0.320057
0.0739519
3.20929
0.0254044
0.179349
0.311732
5.09134
0.0221527
0.0324487
0.0509973
0.143384
0.0232472
0.0248563
0.0756309
0.131526
0.0354073
1.59908
0.0243216
0.0242063
2.23539
0.0312069
0.0221689
1.70165
0.0236576
0.0262264
0.0233505
0.0427893
0.0256518
0.0222078
0.025225
2.98299
0.0244252
0.0389276
0.023687
0.0311315
0.269108
0.0257388
0.0242324
0.0256226
0.0256114
0.621354
0.0248955
0.0481114
0.0244196
0.0244337
2.66596
3.36972
0.0244615
0.0320278
0.0295224
0.354809
2.4736
0.0242244
0.307687
0.0242209
0.0832919
0.0246895
2.02644
0.022318
3.71533
0.0879692
0.0223405
0.0320968
3.03147
0.0495308
0.263522
0.0254407
0.628471
0.0257591
0.0234868
0.0235978
0.0246752
3.98807
0.0690106
0.139106
1.1313
0.0527477
0.0223454
2.77363
0.349176
0.0287815
0.0304111
0.300609
0.605431
3.46441
0.0254064
2.057
2.70581
3.03028
0.0307405
0.0329821
0.535489
0.193567
0.97331
0.313191
2.23775
0.0261578
2.25065
3.0181
0.0222546
0.176892
0.0708614
4.19725
0.0262914
0.0242654
0.0238871
0.0242568
0.0924009
0.0410847
1.83689
1.57013
0.0235741
2.59026
3.14246
0.0597927
0.325183
0.0382942
0.0221408
0.023488
0.191096
2.80412
0.0259112
0.096409
0.184602
0.0223096
0.0392746
0.598885
0.217759
0.122356
3.7599
3.04003
0.0242421
0.0246713
1.33089
3.0605
0.137067
0.036631
0.0627538
0.0222227
0.024099
1.98942
0.0222879
0.026205
0.0222051
0.0236955
3.05566
0.0927714
0.031993
0.0222754
2.51398
0.328651
0.0236572
0.0236216
0.0230848
0.0250338
4.74376
0.302029
0.319829
2.94045
0.57732
0.0349378
5.78201
3.26034
0.0281729
0.0367602
0.0221333
0.0249879
0.0371633
2.99542
0.337883
0.094876
0.0313658
0.0234248
0.0352882
0.0251594
0.27518
0.0765527
0.0244109
0.0346318
0.0232505
0.029523
0.135468
0.0247296
0.0241476
0.0420159
0.0246813
0.0843491
0.403274
0.129676
0.0357676
0.141805
0.023414
0.0915536
0.0306623
2.74365
0.0249896
0.0247854
3.37832
0.0264361
6.96257
3.12363
2.33361
1.64347
0.0232935
3.13335
0.0228723
0.0236828
0.0223052
0.0237026
0.0262508
0.0321092
0.0406632
0.0222575
2.34451
0.0910666
2.35082
0.0238111
0.0224067
0.0234714
0.166291
2.42287
0.056411
0.0297952
0.0229115
0.0245215
0.0242875
0.0239568
0.203459
1.70898
0.0246573
0.0222431
0.0246898
0.0239548
0.919413
2.28754
0.0359206
2.73578
0.623034
0.0241299
0.137439
5.037
0.0381897
2.05295
0.0249244
0.0300916
0.055319
0.0303951
0.348421
0.0244483
0.568704
0.0237559
0.0330611
3.01431
0.0237467
0.0258721
0.0614394
0.0234938
0.0281792
0.160472
2.33247
0.0747673
2.08195
0.222494
0.022189
0.0237899
2.44973
0.178078
0.0475176
3.15946
0.0233156
0.0271297
0.0222736
0.486057
1.65968
0.0284036
0.0247952
0.267753
0.027114
0.0234365
2.6985
1.06823
2.84981
0.0223585
0.0246503
5.38405
3.84385
0.162221
0.0249291
3.4187
0.0244313
0.272628
0.141718
0.078417
0.0277358
2.41368
0.0287408
0.0256354
0.499353
0.0246666
0.0264944
0.0257865
0.0233908
2.38935
0.0343721
0.123906
0.031613
0.237845
0.0234497
0.228861
0.0253365
0.0286912
0.0225173
0.0240914
0.0243019
3.02897
0.0238778
0.0223221
0.695861
0.0246917
3.97349
0.0240069
0.025205
0.074631
1.26664
0.244761
0.0236791
0.0985311
2.70927
0.0249264
3.25409
0.0327654
0.0233601
0.0346456
3.64674
0.0799221
0.0286383
0.0236759
0.0222281
0.322668
0.0879115
0.0604027
0.0294073
0.0341311
0.0251421
0.0250513
0.0955385
0.405442
0.0918248
0.386819
0.02463
0.0844305
0.0895262
3.82303
0.0282482
2.22925
0.723746
0.0247085
4.30665
0.0830283
2.54721
2.52861
2.88841
0.309382
0.0434471
0.0233814
0.0318533
2.40521
2.936
0.0240625
0.0244924
0.0710861
0.227821
0.0223703
3.05883
0.023293
0.02442
2.19187
5.3061
0.223554
0.0236669
0.0245045
3.12902
0.204351
0.128049
0.0263613
3.09176
0.254105
2.389
0.0581217
0.0430599
0.0248876
0.0246819
1.18776
0.052656
5.74699
0.0331402
0.0362964
2.42071
2.59372
3.47668
0.0245204
0.0334529
0.0236397
0.0364706
0.0257824
1.91622
0.0271561
3.14216
0.0223692
0.0729867
0.0241139
0.160961
0.0355168
0.0330448
2.74843
0.0459274
0.0450097
0.0250992
0.0728003
0.519949
0.0667768
0.0262868
6.54196
0.0229743
2.90567
0.301006
0.0246699
3.39882
4.34894
3.62942
0.320716
0.0319683
0.0240643
2.87039
0.0272425
0.827364
3.09266
0.0238243
0.0256882
0.481839
0.366091
2.10155
0.0246114
0.0235023
1.28628
3.04219
0.122988
0.0282124
0.0257462
0.318736
2.07468
0.0925513
0.0223288
0.0439978
0.023515
0.0260202
0.0658442
0.0248329
1.96584
0.391707
0.0244265
0.0255038
0.0240859
0.025842
5.93936
3.2
0.032051
2.24611
0.0241142
0.0320711
0.0240174
0.0235351
0.0245824
0.0244089
3.93139
0.0244619
0.0553494
0.0245219
0.028808
0.0734333
3.31928
0.0254572
1.35384
0.0637484
1.1548
0.0351062
0.0354811
7.71887
0.0295371
0.042102
1.88725
0.947714
3.00183
0.0428171
0.260728
0.0248954
0.0438047
0.0544702
2.15587
0.0240993
1.96918
0.0237699
0.0238307
2.72633
0.024141
2.46773
0.0279859
0.0236184
0.0373692
0.0236388
0.024513
0.0232871
0.0248816
0.203833
0.0238434
0.196882
2.01615
0.0663836
2.1571
0.0246621
0.0253707
0.0256115
0.0242654
0.0236134
0.0852628
0.0250056
0.0236529
0.0248478
0.02434
3.89067
1.70195
0.0661804
2.81963
0.242967
0.0240883
0.357485
0.0311681
0.0238385
0.334527
0.0491926
0.448327
0.0240372
0.275572
0.387734
2.11996
0.0231908
2.74605
0.0335943
0.0268652
0.0235749
0.0233306
2.30886
0.0799296
0.579235
0.0236941
0.0243652
0.663471
0.02469
1.14361
0.308772
1.51697
1.54338
0.366977
0.0243955
0.0243419
0.0585584
0.0313108
0.0267441
0.167634
0.0446602
0.0250384
0.0256096
1.84296
0.0236667
3.81005
2.2636
0.83922
0.20368
0.025358
0.0227984
0.0246732
0.273859
0.366067
0.0231886
0.0260004
0.0236638
0.0827532
0.0224523
0.0236284
0.025014
0.0353556
1.15789
0.043429
0.0342382
0.0243541
0.0556462
2.53651
0.0253004
6.21669
2.23326
0.0866203
0.0225736
0.0468893
0.0242554
0.0240601
0.0246133
5.21869
0.129441
0.393004
0.0268162
0.272412
0.0243246
0.0238806
0.0246222
0.310874
1.02164
0.022286
0.0349662
0.0551716
3.48949
0.0257193
1.47374
0.0268438
2.28201
0.0825513
3.30678
0.0971123
0.0852374
0.431128
3.05793
0.374101
4.07496
0.0238339
0.162515
0.0224366
0.0263763
0.0289204
0.0246732
3.10947
0.0321678
0.0301466
0.322685
0.193662
0.602589
0.0244459
0.0265192
0.0288304
0.0228737
0.0330596
1.23567
0.441577
1.28785
0.0238991
0.0296051
0.0267272
0.591417
2.89862
0.057964
0.0227757
0.0249473
2.09837
0.0482156
2.25813
2.61535
0.0391676
0.0225528
2.68063
0.0323673
0.0463727
0.0310833
3.32277
0.257825
0.128383
0.0921317
0.0252108
0.0300529
0.0244328
3.21133
0.0488224
3.20164
0.259858
0.0287358
0.155137
0.0256481
3.36414
0.252511
0.0234871
1.46046
2.97591
1.60656
3.32194
0.0246116
0.0243652
5.67071
2.5692
2.0272
0.0256875
0.0246815
0.0244158
3.77734
0.150235
0.0248589
0.0593713
0.0926719
2.26426
2.60446
0.483914
0.0245167
3.3224
0.0274359
0.0242105
0.14889
2.51048
0.0247412
0.0237561
4.19111
3.29313
0.0240129
0.0238782
1.95058
0.0233668
0.187603
0.0239016
0.616608
0.0243535
0.0562868
1.23021
2.95128
0.0254926
3.89565
0.381193
2.31414
2.37038
2.26979
0.0370574
0.0241647
2.07016
0.0257562
0.024468
0.0228456
0.441685
0.0241096
0.427857
0.0237757
0.0258126
5.38245
0.0707554
1.89402
0.0257846
0.0270679
0.0235907
0.0350639
2.73875
2.94868
0.0237114
0.0708289
0.289849
0.0245827
0.0233374
2.92488
0.0368148
0.0374149
0.138009
2.47425
1.04665
2.45953
3.24575
0.0395234
0.275897
0.35039
1.53591
0.0706506
0.0226743
0.135474
0.0241473
0.0240828
1.82586
2.96483
0.0260341
3.88137
0.0898877
4.06956
0.0548866
0.0504907
0.0242104
0.0901519
0.0360125
0.0236883
0.0255819
3.14098
2.80089
1.44137
3.38673
0.0405586
3.19017
3.25391
0.0345013
0.0247168
0.0239674
0.218524
0.0239559
0.222598
0.0253051
0.0251099
0.0262144
2.6393
3.73273
2.28743
0.0248152
2.76878
0.0278802
0.03205
0.0239468
0.0234789
2.5396
0.0297755
3.27617
1.16099
0.0503177
0.123788
0.0245911
0.0426567
0.0246189
0.150179
0.0251694
0.0257066
0.0247403
0.0252608
0.166499
0.0251689
0.0372849
0.023729
0.0379047
0.142588
5.82197
0.0239695
0.0509034
0.0241505
0.0648368
0.0263009
2.60733
0.198214
0.0342242
0.0266389
0.0254537
0.0460342
0.0242324
0.253382
0.0245336
0.0237425
0.0249511
2.94112
0.0296777
0.0272264
0.0323314
0.0241683
0.0689493
2.86042
2.26515
0.0382111
0.024445
0.033445
0.0227063
0.0238589
0.201642
3.12148
0.0238847
0.0329481
0.0980493
2.85962
0.0249046
0.0250884
3.15522
0.0255594
0.0395591
0.235295
3.82546
0.0243647
0.0278641
0.0242775
3.3721
0.140619
0.0443508
0.12658
2.27194
0.0254382
3.68109
2.30101
0.0245617
2.66373
0.0867334
0.0253906
2.85802
0.0246208
0.0240958
0.0232697
0.192534
0.0441458
0.173252
0.0257297
0.025358
0.0327872
0.26417
0.375747
3.69235
0.277211
0.025084
0.141158
0.136946
2.18525
0.0791385
0.230251
0.0239743
0.0320297
0.023351
1.03729
0.0387438
0.0242694
1.86622
0.175801
0.0349865
0.0287342
0.022225
0.0240671
0.0563885
0.0367481
0.688554
0.0706524
0.0706659
0.0635138
0.121816
2.34778
0.0650239
3.6257
0.0239787
0.0236729
0.200176
2.26676
2.53905
0.0533637
0.0252434
6.00807
0.285078
0.023784
0.0290934
0.0237413
0.0438819
0.0750152
0.0765725
2.52245
0.364156
0.0256284
2.48806
6.69082
0.024515
0.0821758
2.47978
2.26241
0.0266951
0.0802283
0.0221587
0.0260364
0.0236724
0.0280474
3.58111
2.95847
2.79074
5.90052
0.0256258
0.0363401
0.0567235
0.0236166
0.0248133
0.0233455
3.02793
0.0239074
3.48337
0.0386927
0.0512575
0.165474
0.213434
4.78441
2.97599
0.0430946
0.0224519
0.0254346
2.81943
2.12965
0.0275813
0.0236958
0.0233244
0.0668001
0.0329533
0.15432
2.30557
0.0256022
0.0232898
0.130404
0.0306473
6.3595
0.968497
0.0238918
0.0763622
0.0245098
3.62333
0.0226048
3.19222
0.0235591
0.0255416
0.0336942
0.0250305
0.0611543
0.0325993
0.0498805
2.28777
2.80313
0.0280195
0.0325253
0.0242043
2.9052
2.12952
0.0245223
0.0226762
0.305015
0.0222264
3.86921
0.0239875
0.0362802
0.0738353
1.11184
0.0400327
0.0255379
0.0247151
0.0751462
3.20151
0.0241642
1.04862
4.18058
0.966283
0.502685
0.0357708
3.75573
0.0282846
0.214717
0.0243273
0.27749
0.279379
2.26464
2.11557
2.31985
0.024423
0.0394029
0.0237412
8.29694
0.333063
3.04609
2.26009
0.0296255
2.3454
0.641981
0.0370074
0.0256886
0.0247161
3.36693
0.0283657
0.0746537
0.0260272
0.0246278
0.0235373
0.0245891
2.73801
0.198286
0.0336852
2.12315
2.45003
0.0239559
0.0243644
0.0233095
0.0304885
3.17108
0.209928
0.0282991
0.027267
0.79914
0.0819456
0.0470226
4.11223
0.0328777
3.50877
0.0329959
0.031998
0.0243366
0.0259778
0.0747121
0.401064
0.285667
3.16479
0.0741669
3.28031
0.0269428
0.0272252
0.0243234
3.07536
2.29183
0.6119
0.0528059
0.0264474
0.0244506
0.0239623
0.0245281
0.0233656
3.26648
0.0318143
3.13359
0.0346215
2.51059
2.04959
3.2201
0.0335256
0.0287177
2.01318
0.0413051
1.21379
3.33967
0.0234676
0.0475606
0.0298736
5.4655
3.06688
0.037076
0.122241
0.331608
0.0257201
0.0518141
0.0270759
2.42858
0.289571
0.0268424
0.0247068
0.284638
0.754595
0.136937
0.697333
0.13556
0.030947
0.023957
2.22364
3.13168
0.0833927
0.0335316
2.78018
2.30638
0.0237615
0.0244941
0.0270541
3.11919
2.99196
0.0244124
4.26633
0.0251207
0.0239933
0.0246167
6.19919
0.258789
0.0372012
2.65835
0.0258226
0.0256687
0.0239192
3.106
0.0252051
3.4452
0.0265667
1.36204
0.0249276
0.0241464
0.129008
3.32297
0.318056
0.038215
2.34399
0.0225529
0.0245761
0.0245052
0.046878
0.0686158
0.068663
0.0384076
3.27598
0.0272152
0.131872
0.105613
2.34937
0.0242823
3.39079
3.06577
0.0279128
0.520396
0.0704156
2.78977
0.0246706
0.0721529
0.0239086
0.964565
7.41104
0.077395
3.38392
0.0263633
0.0520906
0.0254209
3.9405
0.0225228
0.0237188
0.366363
0.0939443
2.32193
2.7016
0.0689312
0.0311828
0.0232513
0.771849
0.032908
0.0237404
0.154455
0.023173
0.0459316
0.024439
1.00222
0.0254871
0.29136
0.300653
0.0335094
0.0973933
0.0580254
3.65449
0.0242692
1.16192
1.73327
0.0235326
0.024425
0.0258182
0.0249543
0.0419348
0.0241294
0.371973
0.081205
0.271694
0.0718585
0.0244716
0.0249325
0.0232295
3.09255
0.0245974
0.024264
0.221328
0.026827
1.38249
3.39691
0.0948385
0.0268061
0.0360744
0.0256183
0.0251052
0.0389785
0.0227344
0.0269452
2.43715
3.28431
1.09514
0.0255682
2.08703
1.06619
0.0249753
0.263458
3.11479
0.0244323
0.0264781
0.0243838
3.21453
2.21712
0.321195
0.0227149
0.0268694
0.0259092
0.0247032
0.137908
0.0245497
0.0438857
2.68944
3.54778
0.0234322
0.0268074
0.0264777
2.42536
0.0222103
2.17074
2.89911
0.0527383
0.915086
4.34471
2.27851
0.0255025
0.402716
0.437935
0.0254419
0.0232342
0.0237899
3.35536
2.27802
2.11529
0.0239982
3.53332
0.0246481
0.170703
0.0231648
0.0261175
0.0253751
0.0234229
2.26963
0.0255102
1.9228
2.43367
2.16477
0.0495893
0.0557211
2.216
3.15765
0.024622
4.1073
0.0232424
0.022281
0.0243529
0.0319043
0.0233731
2.17732
0.0322601
0.148261
0.0393681
2.52906
2.09863
0.0889619
0.0233962
0.0579555
0.0798835
2.27074
0.0243025
0.0223524
0.0258692
1.97398
0.0245363
0.319544
2.09901
0.0438874
0.0640623
0.0243348
0.297757
0.024872
3.20511
0.0229894
2.84019
0.0340257
0.0245997
2.10444
2.12067
0.0228965
0.0705833
0.0273457
2.1184
0.0350432
0.126399
0.119365
0.0248654
0.0576489
2.72016
0.0236942
0.0309462
0.02576
0.0820944
0.0350706
3.20017
3.11433
0.0246119
3.42601
0.0254314
0.0466133
2.90583
2.06927
0.0378981
3.02786
0.193627
0.0247216
0.318897
0.13854
0.0335458
0.0254592
2.56069
0.022928
7.03513
0.0642876
0.113672
0.0244342
0.033331
3.23994
0.0470389
2.4259
0.02513
0.026682
0.0866547
2.67265
0.0289186
3.18231
0.611121
2.18529
0.0246187
2.66832
2.14606
2.33963
0.0244905
0.0248864
0.0242362
3.28153
0.0298923
0.333104
0.274838
0.024884
0.0229456
0.0244519
2.33954
2.92034
3.44569
2.11704
0.0239077
2.93268
3.22189
0.139968
2.14278
3.08206
0.0369539
7.36708
0.0263275
0.0285661
3.13574
2.74467
0.024311
4.11849
0.0247194
0.0244772
2.26838
3.15536
3.67838
8.80857
0.0337187
0.0248954
0.0260107
3.36035
2.08354
0.0241823
0.0495654
0.473474
0.0245213
0.0245849
3.06363
2.73329
0.0259578
0.0245385
0.0253682
0.025538
0.690747
0.0249332
0.0239549
0.0284618
0.40779
3.10015
0.18849
2.5296
0.024623
0.0275234
2.86069
3.22298
0.0308147
0.0965872
0.0244079
0.0383739
0.0255519
0.0246482
0.0706274
0.0239088
0.212478
0.0350898
0.0236528
0.0272251
2.29929
1.71173
3.6125
0.0245349
0.0272986
3.32831
0.414739
0.0269427
0.0242317
0.0246005
0.267921
0.0245988
0.0245817
0.0305858
0.0244086
2.89583
0.056624
0.0248429
0.0270325
0.0226528
0.0245507
1.51009
0.403848
0.0751516
2.02048
0.0605816
0.0249591
0.0243828
0.0245916
0.0242048
0.0248306
0.0265298
0.0762479
2.85545
0.0253867
0.116578
3.52171
0.0784607
0.0242137
0.023741
0.0264385
2.28128
0.0241591
0.76702
0.422309
0.0493387
0.0246809
6.45044
0.0226419
0.039359
0.0230795
0.0226725
0.0245934
0.0235909
0.037905
2.76052
0.0910477
0.0411788
2.25193
0.674202
1.06006
0.0345114
3.15164
2.04757
0.114607
2.30357
3.10835
0.122592
0.328864
0.024942
0.0233774
1.46133
0.0239566
0.0271205
2.26535
0.0370823
1.76185
0.222672
0.0236178
0.0270265
0.0245576
0.0382218
0.0231338
0.0486072
2.36032
2.94659
0.846432
0.0245452
0.0229581
0.0769454
3.63796
2.933
0.121463
1.18876
0.0237898
1.97057
3.57738
0.0707492
0.0267061
0.0245744
0.0225073
0.0261662
0.0244277
0.0242938
0.0269135
2.90509
0.0817758
3.24395
0.418098
1.55494
0.189449
0.02432
0.0236381
0.0247019
0.0232018
0.0249106
0.341314
2.30514
0.698538
3.48615
0.0264061
2.14063
0.159221
3.2238
3.27727
0.0245116
0.0235976
0.232447
0.0245318
0.0229092
0.518551
2.91418
2.38404
0.0244626
0.0245923
0.0265249
0.0405681
2.17199
0.0232629
0.0268638
0.623458
0.0230129
0.478871
0.040052
2.26463
0.0248881
0.33911
3.33371
0.0377801
3.31818
0.120527
3.32256
0.022633
0.0279213
0.0237192
0.0324314
5.54048
0.0242014
2.31749
0.0245433
0.0243459
0.0245546
3.37577
0.0468527
0.118971
0.469331
0.0233532
0.0459426
3.00514
0.0580494
0.02342
0.0257359
0.0245215
0.0476645
0.0241698
0.0236991
3.49098
3.60942
3.2519
0.431261
0.931505
2.17931
0.0753542
3.61075
0.132314
0.0225743
0.02366
0.0222433
0.02465
3.40235
3.34664
0.0229902
2.38234
3.34488
0.0321762
0.0252718
0.0275597
2.46087
3.01828
2.94434
2.02768
2.95393
0.0222375
0.276242
0.106792
0.318727
3.20675
0.0244008
0.138628
2.44464
0.0351505
2.87387
0.0248072
0.0504728
2.28129
3.10242
0.0801696
0.0339044
5.36052
0.140126
3.15499
3.18855
2.87713
0.122359
2.61571
0.0246082
0.0276221
0.0498761
4.11315
0.296961
3.44286
0.0248192
0.120145
0.0739951
0.0250041
3.14975
0.0244305
0.139274
3.92453
0.0244462
2.3162
2.28762
3.17609
2.55824
1.16857
0.313107
0.0239875
3.44295
0.0244543
0.0235642
0.0439891
0.0267777
3.13906
0.0269778
0.0274688
0.0270093
0.0235936
2.30069
0.0258827
0.125965
0.319758
0.0234465
3.73281
0.107142
0.0253818
3.93863
0.242904
0.0244331
0.116986
0.0251257
3.32481
0.458431
0.0230176
0.125279
0.0259513
3.52773
2.9983
0.0769416
1.05461
0.0283303
0.0246082
2.26789
0.0270019
0.0242322
2.31425
0.0434889
0.023801
0.023643
0.136358
0.025757
3.88114
0.284727
0.0334691
2.67874
0.0564688
0.0666248
0.0240304
3.56703
6.21853
2.3224
0.0244959
0.0229167
0.076399
0.033145
0.394662
0.0242637
0.431274
0.0241095
0.475262
0.0245221
0.0634293
0.16727
0.123206
3.55985
1.14465
3.07012
2.9891
0.0222864
1.08414
1.50412
4.53002
0.0238094
0.149582
5.94145
2.20429
0.124896
1.21717
0.208632
3.65193
0.0485636
0.216923
0.0234038
0.0502979
0.0456631
0.0243848
0.0748
2.37941
0.0533909
2.19193
1.84466
0.0241735
0.0236998
0.031963
0.024392
0.764517
0.0233001
0.0236407
3.77411
0.205568
0.0359138
0.108142
0.0251586
0.0901194
2.18101
3.08762
2.03694
0.0284518
3.04546
0.0257931
0.0232273
0.0262659
3.1744
0.225663
0.279038
0.19747
0.0253861
0.0236844
0.0243908
0.0249623
0.0294278
2.95816
1.82318
0.0314438
3.18926
3.9319
0.463406
4.36381
0.0245072
0.0325322
0.22278
0.024495
0.0363236
0.0296283
0.0269114
2.80793
3.1122
0.023287
0.0425708
0.0324015
0.0735953
2.43455
2.31941
3.58595
0.0245527
0.0882367
3.45778
0.0870991
0.124797
0.472903
2.50678
3.77786
3.58648
0.0232724
2.62898
0.0229859
0.0259118
0.0243938
0.0643314
3.72781
6.69328
0.3749
2.21194
0.0604033
0.022847
0.0237188
0.0245899
0.0258712
0.0466768
3.66532
3.45019
0.0823238
0.68333
0.0246555
0.0601133
0.023513
3.15591
0.0708022
0.0244743
0.145116
0.108796
2.1381
3.63943
0.13573
3.90983
0.0276121
2.36159
0.220715
3.1064
0.331789
0.0256837
0.0597478
0.0245575
2.97726
2.46299
0.0430033
2.8123
0.219243
2.38759
0.0708324
0.174039
0.0432139
0.0238319
0.129872
0.0627574
0.0271042
0.0594914
0.0336855
0.0352382
3.53446
0.168416
0.0260934
0.0329672
0.0391448
0.0345633
0.0255006
2.28236
0.116941
0.214645
3.47839
0.0244584
3.19633
0.0245779
0.0270853
0.026387
3.13332
0.040243
3.21551
4.21779
0.063782
0.0497516
0.127337
1.64931
0.14383
1.03987
0.0268789
0.048657
0.0236268
3.23959
0.39924
0.0267948
0.0242207
0.0393948
0.0288258
0.0272305
0.0523721
0.0425848
0.0246808
0.0364265
4.99636
4.28968
0.114595
0.0439202
0.0223902
1.74473
0.0351078
0.0688918
0.63851
0.0460363
1.9618
0.0229418
0.0271712
0.0269797
0.0356965
0.0242131
3.35063
0.321499
2.35562
0.0395451
3.22779
0.209536
0.0285889
1.65334
0.0704293
0.204644
2.35811
0.0465137
0.026952
0.0435414
0.0715145
0.0271026
0.644307
3.81199
0.336319
0.0238375
0.218268
0.30107
2.03266
0.0243093
0.0469835
0.0239149
0.0333519
2.34688
0.032095
0.0317776
0.0238098
0.0237782
1.97055
3.12031
0.0243363
2.24044
0.204923
0.0228582
0.0273983
3.27543
0.120785
0.109506
0.0244478
0.029919
0.113973
0.0244187
0.0239811
2.26116
0.0320982
3.31359
0.0889667
0.0290192
3.72879
0.122474
0.168505
0.0238697
0.300871
0.0328886
0.029424
1.51219
0.0431484
0.0245825
0.0891519
0.0273878
0.0279355
0.0227925
1.06413
0.0244141
0.0661588
2.21848
0.106056
0.0236257
0.832297
0.0335807
2.66212
0.173092
3.48248
0.112801
3.09003
0.0235601
0.0810263
0.0283817
0.0241272
0.378491
2.13617
0.0279317
0.437411
0.0268783
0.0763249
3.54311
0.0288963
0.389236
1.03095
3.33347
1.75121
0.603341
0.0451695
0.0235977
0.0684008
0.037893
0.700953
1.86069
3.13853
2.33166
3.31324
0.0237478
0.393981
0.0244938
0.0254967
0.0246377
0.30829
0.15731
0.0796796
0.0239759
8.90943
0.0301367
3.6641
0.0235823
0.0659487
0.033139
0.0745555
0.0451697
0.110416
0.0258573
0.161173
0.145924
0.023898
3.28418
0.200886
0.054054
0.0256852
0.0327758
0.0245865
0.0239687
0.0689395
0.0352535
2.02239
0.206131
0.0902712
0.757126
0.0237981
1.41399
0.0688293
2.33735
0.0331448
0.0336312
0.341472
0.0341071
0.0512757
0.163238
4.3831
0.0264351
0.0246636
3.03894
0.0345717
0.0266067
0.0298691
0.0327588
0.0232052
0.0292942
3.26396
0.0242522
0.045106
3.29042
0.120718
0.07578
1.67372
1.96657
3.42737
2.68403
1.34431
0.0592278
0.788419
0.0257435
0.0277809
0.0245696
0.0239376
2.65374
0.330025
0.0345219
0.0235768
0.901862
0.0970047
0.0239249
0.108676
0.0560122
0.0242302
0.0260231
1.62683
0.0294247
0.0402476
0.0395115
0.0240598
0.0901868
0.0689341
0.0323702
0.599708
0.0835162
1.84965
0.63916
3.01968
0.0260673
4.74055
0.166105
0.155304
0.0708983
1.81304
0.0793512
0.0291933
0.0525644
0.0706664
0.0264973
0.0750944
0.0240465
0.0242995
0.0226719
0.0273725
3.29645
0.0230973
0.111101
0.0271997
0.0266958
0.0271677
0.982774
0.0263837
0.0658481
0.0246037
0.0272862
0.0278313
0.0234687
0.107716
0.0265755
0.0232414
0.0253985
0.0316397
0.0236594
1.99885
0.0300422
2.23791
0.144411
2.64854
0.0629953
0.0754854
0.0455766
0.0432146
0.027443
0.0280555
1.5649
3.01552
0.30952
0.0663675
0.0344804
0.0240273
2.32418
0.0422719
3.26832
0.0243005
0.921458
0.151764
1.35185
1.3576
0.0227594
0.0245117
0.0230443
0.031865
3.06413
0.0494313
0.900739
0.0287081
0.031879
0.0239385
0.0249519
0.0364017
0.0266276
0.0269168
0.0235806
0.2377
0.321918
3.14321
0.0273599
0.694779
0.0234396
0.0229081
0.111685
0.025019
0.02709
0.0688146
0.0270872
0.0739609
0.0245201
0.0267946
0.0246357
0.0273989
3.20758
0.0239662
0.0265556
0.0256799
0.0268178
0.288964
0.0248893
0.0525601
1.64606
0.027523
0.0324856
0.0255187
0.0260676
0.0248718
0.135114
0.0245096
0.0294569
2.75029
0.0236629
0.0320387
0.0528004
0.0603559
2.15574
0.0227346
0.0267245
0.0250852
0.0331207
0.107367
1.01832
4.31884
0.0229759
0.0311814
0.0763854
0.0263836
2.10116
0.0226085
0.0246693
1.94458
0.0430909
0.0266557
0.0226663
0.166784
0.13002
1.99632
0.024673
1.36197
0.0226405
0.0233605
0.0265103
0.0822185
3.77457
0.0246064
0.0238339
0.281922
0.0245239
0.0262704
0.342473
3.92026
0.0244969
0.0232502
0.0249402
0.0340808
0.206727
3.31296
0.0249464
0.112125
0.0240618
0.0244111
2.29421
0.0258877
0.0248482
0.0331735
0.237533
0.140627
0.0263583
0.0252726
2.61614
0.0432546
0.0254526
0.593969
3.10154
0.0245503
0.024824
0.0262172
0.0244458
0.024537
0.0236231
0.0228821
0.042062
0.026134
0.0460883
0.0504375
2.19119
0.518221
0.0336165
0.0227139
0.0243585
0.0253059
0.0261885
0.0431706
0.031715
1.34482
0.0265901
0.0786626
0.0271979
2.8662
2.16728
0.0313801
0.0255345
0.128948
0.0267982
0.0294752
0.0244763
0.0254123
0.0241158
0.0698806
0.0453455
0.0498293
0.112821
0.0262084
0.0282917
0.0253444
3.35878
2.49461
0.307347
0.0298218
0.0958263
0.0862075
2.93617
0.0250446
0.482603
0.0685854
0.0244826
0.0249208
2.29985
0.0245773
0.0254778
0.0262968
1.09237
0.0245662
0.0248505
0.0281683
2.11788
0.023835
0.0543669
1.04864
0.0265814
0.0246011
0.02411
0.0245121
0.0248842
0.0248093
0.0848755
0.0253679
0.0245741
0.024815
0.0248327
0.0314179
0.0244421
0.265808
0.0246647
0.0248049
0.0406674
0.0369274
0.0322219
2.04223
1.13858
3.40646
0.0401983
0.0236229
0.0413219
2.06631
0.0228624
0.0850633
0.0263297
1.02163
0.026227
0.0460016
0.0248807
0.0244726
0.121547
0.227864
1.61088
0.269771
3.42515
0.0248417
0.0236748
2.29692
0.0228334
0.0245829
3.22147
0.0239855
2.22752
0.0245367
0.189423
0.113454
0.0267282
0.668529
0.0286166
0.0803986
0.222518
0.255911
0.210694
2.37929
0.503946
2.36629
0.0246323
2.19466
0.0245302
0.0243725
0.0237792
0.0249789
1.05448
0.0254732
3.9948
0.0245662
0.0244662
0.0246841
0.431683
0.0243801
0.0231505
0.0565228
0.0279394
0.0290868
0.0280997
0.0311375
0.267199
2.42277
0.460888
0.900469
0.103344
0.0254492
0.768179
0.024559
0.0308601
0.0693162
2.5652
0.0458813
3.44911
0.0245437
0.459809
2.27873
0.155572
3.46734
0.258504
0.0265604
0.0243834
0.0269542
0.024517
0.0243673
2.28112
2.28401
0.0240236
1.04043
0.0245148
0.114018
0.0239196
0.189796
0.0301615
0.0264191
0.0232318
0.65387
1.1725
0.268321
0.0234414
0.0235551
0.0292543
0.0249028
0.0253336
0.149449
0.330087
0.0495218
1.84068
0.0448617
0.0249046
0.034373
0.0720166
0.0249726
3.07935
0.0585365
0.134225
0.0260784
0.0271323
0.0229529
0.0222112
0.0244499
0.0292623
0.0236988
2.27016
0.0411599
0.205022
0.0242967
0.0452773
0.0244907
0.469407
0.0423699
0.0578133
3.10946
0.0287448
0.0243949
0.0277718
0.0249181
3.95234
0.0777827
0.0437805
0.0582028
3.49637
2.17462
0.114548
0.0529561
0.0244778
0.0260554
0.0262426
0.0477314
0.181962
0.0290505
0.0246211
0.309034
0.308335
0.0248508
0.026349
0.0587896
0.0253711
0.0238658
0.0429787
0.0243984
0.0249807
0.0238787
0.0265357
0.0251273
0.0480156
2.42974
0.0245761
0.503383
0.103245
0.114632
0.0238718
0.0242446
0.047377
0.0288775
0.0245367
0.119707
0.0243971
0.0520141
0.0246627
0.0437497
1.60368
0.057523
0.0255998
0.0630109
1.90763
1.27608
0.0245331
0.0382817
3.78255
0.0240658
0.0251355
0.0824445
8.98609
3.2971
0.0267593
0.024375
0.0298823
0.0241539
0.0254211
0.0307983
0.0248486
3.53943
0.024896
0.13635
0.0245037
0.0245814
0.0549076
0.0244528
0.0246448
0.0309236
0.241057
0.0233971
0.0401854
0.0249714
0.0240225
0.0244664
0.0308452
0.0285564
0.0739399
0.0261338
0.0248365
0.0249273
0.041095
0.0254765
3.40537
0.0250986
0.115461
0.0361527
0.0256104
0.0303461
1.04679
0.0245836
0.0251476
0.022631
0.0754775
0.401405
0.0243209
0.0392112
0.0238533
0.038031
0.0245615
0.27051
1.4795
0.0265042
0.0279627
0.030006
0.0280739
0.0248774