/*--------------------------------*- C++ -*----------------------------------*\
| =========                 |                                                 |
| \\      /  F ield         | OpenFOAM: The Open Source CFD Toolbox           |
|  \\    /   O peration     | Version:  v2012                                 |
|   \\  /    A nd           | Website:  www.openfoam.com                      |
|    \\/     M anipulation  |                                                 |
\*---------------------------------------------------------------------------*/
FoamFile
{
    version     2.0;
    format      ascii;
    class       volScalarField;
    location    "400";
    object      p;
}
// * * * * * * * * * * * * * * * * * * * * * * * * * * * * * * * * * * * * * //

dimensions      [0 2 -2 0 0 0 0];


internalField   nonuniform List<scalar> 
13851
(
0.00100971
-0.0153254
-0.0192387
0.000928008
-0.0419427
0.003481
-0.019311
-0.0221658
0.000712155
0.00597394
0.000328513
0.0254551
-0.0641882
-0.0268213
-0.0122321
-0.0100567
-0.0213759
0.00103586
-0.0641271
0.000658513
0.00067743
-0.0221995
0.000663845
0.000342635
0.000675749
-0.0203803
-0.0318387
-0.115247
0.000666836
-0.00587891
0.00312925
-0.0215206
-0.0174705
-0.0133967
0.000288206
-0.0604258
-0.0571027
-0.0420813
0.00852423
-0.0141529
-0.00371678
0.000446778
-0.0650751
-0.00190391
-0.00374181
-0.0803919
-0.00852106
-0.00619943
-0.0325692
0.00360612
-0.05145
-0.0540153
-0.0915278
-0.0119631
-0.00560487
0.000439255
0.000807793
-0.108935
-0.00589499
-0.019395
-0.0403
-0.0985857
0.0113884
-0.0458199
-0.00707027
0.00225141
-0.0563181
-0.00891508
-0.0410979
0.00152882
-0.0493626
-0.0575935
-0.00961009
-0.012125
-0.00472392
0.00102568
-0.023155
-0.053804
-0.036986
-0.0504964
-0.0205174
-0.00264489
-0.0119753
-0.0705839
0.0114297
0.0303477
0.00442197
-0.00750586
-0.0277135
0.0012173
-0.0603071
0.00460754
-0.00906243
-0.0307668
-0.0284286
0.000900304
-0.043281
-0.0692039
0.0027834
0.000910104
-0.0773534
-0.0438171
-0.00284434
-0.0388834
0.000175343
0.00630417
-0.0467772
0.00027158
-0.0572579
0.00234639
0.000578526
0.00124278
0.00450488
0.000372157
0.000587743
-0.0083602
-0.0714515
0.000402685
-0.00150321
-0.00492665
-0.0665737
-0.0379513
-0.0661091
-0.00913383
-0.00334263
0.00111085
-0.00665837
-0.0401821
0.000622955
-0.0479268
-0.00384095
-0.000518122
-0.0504925
-0.0120853
-0.00765214
-0.000899199
0.000399805
-0.056584
-0.0557908
-0.00573735
-0.0848073
-0.00514666
0.00195114
0.00079057
-0.0157909
-0.00273951
0.000280908
-0.0468525
-0.0188039
-0.00394573
-0.063162
-0.00449315
-0.0244593
0.000861095
-0.0235424
-0.0152638
-0.000515495
-0.00822651
-0.0537475
-0.0505153
9.12459e-05
-0.038022
-0.105684
-0.000436747
-0.00516819
0.00065677
0.000226633
-0.0423999
0.000409385
-0.0721684
-0.0535538
0.000774496
-0.000603532
-0.00603354
-0.000461332
-0.00359505
-0.0391477
0.00197194
-0.0650818
0.00025694
-0.0207774
-0.0545695
-0.0123244
-0.0238873
3.14305e-05
0.000877259
0.00233131
-0.00488279
-0.0415817
0.00768327
-0.00860328
-0.0939009
0.00128124
-0.0370667
-0.092696
-0.0223053
0.00188791
-0.00607351
0.00191344
0.00103359
0.00113851
-0.0944323
-0.00237324
-0.00842338
0.00481972
-0.0125526
-0.0217521
-0.0234345
-0.0515809
0.000147034
-0.0533009
-0.00305659
-0.0101682
0.000170534
0.000710398
-0.000921929
0.00837009
-0.0812508
-0.0121783
-0.0516778
-0.0233039
-0.0211239
-0.0588466
-0.0518411
-0.0514979
0.000868606
-0.0314717
0.000184303
-0.0872934
0.000151877
-0.0190967
0.00472571
0.000770408
0.00124488
-0.0521131
0.00235803
-0.0230574
-0.00849139
0.000746701
-0.00863158
0.00471915
0.00534613
0.000130782
0.00668752
0.000184259
-0.0520473
-0.0431565
-0.0115738
-0.0141398
-0.0146121
0.00280234
0.00423924
-0.0150548
-0.0147561
-0.0513776
0.00998436
0.00592643
-0.0567933
-0.0584217
-0.0139694
0.00072147
0.00129638
-0.00456733
0.00100732
-0.0685689
-0.021693
-0.0152215
-0.0308406
-0.0600167
0.00103274
0.00271887
-0.0228902
0.00335761
-0.036729
-0.009776
-0.000486649
-0.000377112
0.000334369
-0.0538446
-9.75423e-07
9.22377e-05
8.89768e-05
0.000101582
-0.0511404
-0.00101323
-0.00658732
0.000825899
-0.012921
0.00298817
-0.00375938
-0.0488653
-0.00653116
-0.0194556
-0.0400269
-0.00444356
-0.0698021
-0.00704348
0.037324
-0.000499307
-0.0513914
-0.0379015
-0.0203208
-0.053744
-0.00646775
0.00533442
-0.0558127
0.000766321
-0.0479292
-0.0297046
-0.00650784
-0.0603762
-0.00662971
-0.0136078
-0.0646581
0.000520234
-0.0149461
0.00120622
-0.0556975
-0.0610761
-0.0123115
-0.0467979
-0.0128084
-0.0559775
0.00218984
0.000777181
0.00033825
-0.0604166
-0.031311
-0.0245906
-0.0128394
-0.00671544
-0.0132079
-0.000445756
-0.0356829
-0.0833949
0.00467367
-0.0526426
-0.057596
-0.0120955
-0.0364366
-0.0481998
0.00428268
0.00388596
-0.0536628
-0.0641197
0.00266579
-0.00975158
-0.0534869
-0.0122621
0.00310467
0.00322728
-0.00755701
-0.0251165
0.0038213
-0.0895714
-0.000533298
-0.00609933
0.000385529
-0.0127544
0.000167159
0.000250499
-0.000835273
-0.0535031
-0.00247371
-0.00924892
-0.0475918
0.0005459
0.0347086
-0.00497823
-0.0125536
-0.0751236
-0.00901802
0.00871928
-0.0276913
-0.00928709
-0.00356226
0.000418124
0.00219735
-0.0807449
-0.00468721
-0.0564729
0.00426942
-0.0541376
-0.0731736
0.00546895
0.00546848
0.0024959
-0.00104089
-0.0122205
0.00390664
-0.0477565
-0.0187568
-0.0440435
-0.0534645
-0.0534249
0.000590032
-0.0142549
-0.0789717
-0.050171
0.00686421
-0.068683
0.00232815
-0.0280118
0.000862369
-0.0560354
0.000765673
-0.0111122
0.00239057
-0.0174131
0.000128492
0.000764986
0.000632861
-0.0462952
0.00180352
-0.0552622
0.00250518
-0.0474448
0.00344848
0.00381465
-0.0129205
-0.00377471
-0.0200526
-0.00190135
0.000377063
0.000729641
0.000899883
-0.04059
-0.0138022
-0.0502806
0.00345847
-0.0509549
-0.0167343
0.00524527
-0.00456601
-0.0531158
-0.0036607
0.0019345
0.000293241
0.0184467
-0.00307938
-0.0143372
-0.0515263
0.00200646
-0.000663549
-0.00617784
-0.0727541
7.2049e-05
-0.0284245
-0.0381326
0.000782729
0.000711077
-0.0125028
-0.0630361
-0.0536977
0.00410014
-0.00633625
0.000854906
0.000479483
-0.069677
-0.00451583
9.32878e-05
-0.00392825
-0.000976486
0.00105664
0.000611062
-0.00155006
-0.00774317
0.000135354
0.00195444
-0.0638031
-0.0120959
-0.0441633
-0.000946732
0.00449681
-0.00231402
0.000225956
-0.00210282
0.000341355
0.000245089
-0.00109345
-0.0160138
0.00481827
-0.0124396
0.000868355
-0.0675182
-0.0512266
-0.0131095
0.00464111
-0.0135166
0.00317506
-0.0747428
0.000412987
-0.00174253
-0.00377043
-0.0371925
-0.0179511
-0.0805382
0.000323851
-0.0888938
0.00424165
0.000475604
0.00475592
-0.0662681
-0.0177456
-0.00945655
-0.0016336
-0.0215522
-0.00573285
-0.000127802
-0.000329165
-0.0178545
-0.0513143
-0.0490299
-0.0556376
-0.060388
0.0103297
0.000120503
-0.0759435
-0.010557
-0.0217351
-0.0371202
0.00525663
-0.0128662
-0.0519109
-0.0113207
-0.0824623
-0.0766124
-0.0947172
-0.00568992
0.0050477
-0.00472929
-0.000389145
0.0129557
-0.00838243
0.0163853
-0.00766955
0.00857502
-0.0530854
0.000338853
-0.000208449
-0.0500806
-0.0501555
-0.013491
-0.00939582
-0.000590539
-0.00589471
-0.042249
0.000472093
-0.0125096
-0.00427295
-7.65852e-05
-0.0677799
-0.053723
0.00737842
-0.00925055
-0.0429358
5.12358e-05
0.000744015
-0.000676219
-0.0778856
-0.0243567
-0.0606908
-0.0585499
0.000413658
0.0034199
-0.0171368
-0.00790626
-0.0523729
-0.0513949
-0.0545062
-0.00365279
-0.0177656
0.00161712
-0.05435
-0.058514
-0.0450553
0.0126715
0.00026495
-0.00578554
0.0133347
0.000390932
-0.0129009
0.000227036
-0.00163173
-0.0522557
-0.0443637
0.00337982
0.000371024
-0.058025
-0.00498613
-0.00071367
0.000901467
0.00101689
-0.012215
-0.0878004
-0.011022
-0.00966204
-0.103756
-0.0193077
-0.0445497
-0.0498707
-0.050359
0.00282393
-0.0403254
3.10905e-05
0.00128236
-0.0128157
-0.0666528
-0.00644416
-0.0600031
-0.0232005
0.000638861
-0.00828249
0.00169177
-0.0109978
-0.0484491
-0.012247
0.00464865
0.000678948
-0.032403
-0.0503051
-0.0188544
-0.00346052
-0.00543114
-0.0160776
-0.0413337
-0.0361356
-0.0513061
-0.00677604
-0.0589163
0.000608541
0.00917119
0.00202599
-0.100743
-0.00349567
0.000807587
-0.0583267
-0.00312347
-0.0713449
-0.0525923
-0.0801642
-0.00689547
0.000733835
-0.0594269
0.000164899
-0.00141495
0.000299612
-0.0016442
9.43583e-05
0.00324528
-0.00166704
0.000354108
-0.0357301
0.00608866
-0.0418839
-0.000347785
0.000229906
0.00070055
-0.0456142
-0.082121
-0.0559422
-0.0321687
0.000189659
0.000874735
-0.000121725
-0.000170098
-0.0558609
-0.00697147
-0.0158009
0.000316109
-0.018101
-0.000298072
0.0193275
-0.0996766
-0.00870678
-0.0734126
-0.019736
-0.00354458
-0.0552696
-0.0677206
-0.0408468
0.032584
-0.0199352
0.000918982
-0.055147
0.00190957
-0.00807845
-0.0128791
-0.00652183
0.000315535
-0.0515139
-0.0517911
0.00120043
-0.00292908
0.0127729
-0.000105824
-0.0206379
-0.00273028
-0.00491166
-0.0473857
-0.0675127
0.00101793
0.000212692
-0.000423478
-0.0760103
-0.0588354
0.0024619
-0.05219
0.000978556
-0.0121476
0.000365637
-0.0187701
-0.0553746
-0.00771842
-0.0014529
-0.00128202
-0.0293572
0.000675448
-0.0637101
0.0134522
-0.0568152
0.000483772
-0.0159879
-0.0512827
-0.109114
-0.0605097
0.00168754
-0.0535158
-0.0124358
-0.000871884
-0.0177746
-0.0133033
-0.0153146
-0.0792222
0.00295471
0.0016112
-0.0575968
0.000726387
-0.00236336
-0.00769689
0.000631687
-0.0662765
-0.0164523
-0.0529696
0.00332907
-0.000454074
0.000620201
-0.00669366
-0.000498205
0.00295976
0.000283266
-0.00343561
-0.00320253
-0.0536231
-0.000755992
0.000505629
-0.00268666
-0.0182671
-0.0517763
0.000454891
0.00185464
-0.0552489
0.0247273
-0.00584934
0.000145477
-0.00116109
-0.0750809
-0.0157846
-0.0554383
-0.0504838
0.000632732
0.00182535
-0.0646003
0.00154397
-0.0123284
-9.57293e-05
0.000306814
-0.00527091
-0.00945185
-6.72095e-05
-0.00684817
0.00151913
-0.0115474
0.00175181
-0.0636944
-0.00650721
-0.0397872
-0.0100261
-0.0157047
-0.0389151
-0.0531672
-0.0548515
-0.00715529
-0.0108912
-0.0598554
-0.0186704
-0.0685196
0.00871669
-0.090368
-0.00189381
-0.0594195
0.0017774
-0.0104011
0.000607222
0.00401496
-0.107331
-0.0686425
0.000570687
0.00088241
-0.0516717
-0.00315289
0.000545087
-0.0985861
0.000953811
-0.0104477
-0.0683117
-0.0517762
-0.000447851
-0.00134807
-0.0127333
-0.107466
-0.0558384
-0.0585771
0.00247964
-0.0818095
-0.0124819
-0.0802715
-0.0456406
-0.0464063
-0.0128788
-0.0179396
-0.0064233
-0.0591189
-0.0508817
0.00265461
-0.0429871
-0.0653434
-0.0920729
-0.053412
-0.0143244
-0.0447917
-0.000655738
-0.00716009
-0.00267646
0.0206449
-0.0121851
-0.0517256
0.00054894
-0.0546958
-0.00491803
-0.0144451
-0.0453816
-0.0434695
-0.0698078
-0.0504823
-0.00100646
0.000280214
-0.0538474
-0.00790265
0.0135661
-0.0117078
-0.0518399
0.000983729
0.0059317
-5.23374e-05
-0.0115794
-0.0560943
-0.0750705
-0.0522267
0.00306613
0.00262504
0.000220916
-0.0569458
-0.0121451
-0.01256
-0.0510174
-0.000548532
-0.0303003
-0.0432082
-0.00549169
-0.0092698
-0.0137846
0.000867483
0.00801606
-0.0508737
-0.0523563
-0.0123951
0.00220882
0.00056197
-0.0735951
-0.0529908
0.00051974
-0.0106513
-0.000245056
-0.00230596
0.000850684
0.000862525
0.00265656
6.54726e-05
-0.0102386
0.00203551
0.000320341
-0.00823948
-0.0489187
-0.06926
-0.0294489
-0.0129112
-0.00511282
-0.0273014
0.000220036
-0.000305591
-0.00801386
-0.0098511
-0.0494298
-0.0130427
-0.0540539
-0.0142813
-0.0130125
0.000938258
-0.115252
-0.00148188
0.0032437
0.000322273
-0.056872
-0.0169473
-0.0228156
-0.0494927
-0.0332389
0.00172779
0.0217695
-0.0314215
-0.0826476
-0.0257944
-0.00259126
-0.00369182
-0.0497311
-0.0450638
-0.0109732
0.000149867
-0.0137268
-0.000368889
-0.000404243
-0.0186111
0.00118738
-0.0660642
-0.0154847
-0.000389259
0.0033402
-0.000554193
-0.0128595
0.000226377
-0.0195043
-0.0580923
-0.000612103
-0.0564976
-0.0743658
0.00247133
-0.0125856
-0.0174957
-0.000445686
0.00139092
-0.00566468
-0.000553059
-0.0548241
-0.0247157
0.000759871
-0.00156012
0.000798874
-0.054079
-0.00885908
0.0131255
-0.0660894
-0.0556662
-0.00562926
0.00175057
-0.0241639
-0.000762106
-0.00966574
0.00805006
-0.0112063
-0.00497777
-0.00631
-0.0053724
-0.0909404
0.000659535
-0.0675866
-0.016561
-0.0287766
0.000199151
0.000945432
0.0196473
0.0109598
-0.00495264
0.00115445
-0.0111077
-0.00559026
-0.0120067
0.0145676
0.00152775
-0.0204549
-0.0626198
-0.0119676
0.000863116
-0.00755385
0.00984464
0.00418662
-0.0370499
-0.0180659
-0.0266201
-0.0253659
0.0021102
-0.0186844
0.000820011
-0.056091
-0.0599409
-0.020791
-0.0570669
-0.01217
0.000920619
-0.00153806
-0.0107631
-0.00320827
0.000685527
-0.000423543
0.00114828
-0.0518833
0.000651787
0.00110562
-0.0211533
-0.0348055
-0.0556313
0.00106304
0.00342365
-0.00344487
-0.0596469
-0.0706268
-0.0291583
-0.0683241
-0.0387282
-0.0562385
0.000769139
-0.0489592
-0.00927334
0.000818276
-0.00171725
-0.0535994
-0.0597251
-0.0149633
-0.0378629
-0.00233352
-0.0105148
0.000189102
-0.00513116
0.00296613
-0.019678
9.03682e-05
-0.0336962
0.00244805
-0.0501552
0.000248192
-0.0263283
0.000274802
-0.0296296
-0.00241479
-0.0550772
-0.063158
-0.0543704
-0.0334197
-0.0536011
-0.0124035
-0.0986957
0.000920623
0.0233519
0.00063503
-0.0122924
-0.0390656
-0.0140487
-0.0524226
-0.0177272
-0.0285021
0.00252277
-0.0557277
-0.00279562
-0.0124823
-0.0283993
-0.00762736
0.000950662
0.00470183
-0.000734694
-0.0125783
0.00218126
-0.00410517
-0.03413
0.0026093
-0.0126985
-0.0686135
0.0105923
0.000908763
-0.0238662
-0.081578
-0.016515
0.026822
-0.0815283
0.00315428
0.000750588
-0.0547168
0.00464358
-0.0352769
-0.0301581
-0.0540715
-0.00964898
-0.0473266
0.00477612
-0.00295692
0.00411851
-0.0110351
-0.0788976
0.00175111
-0.052593
0.00036145
-0.0382353
-0.0566306
-0.0199619
-0.0534538
-0.0562544
0.000648382
0.00835293
-0.0522922
0.0119294
-0.0546327
-0.00803925
-0.00759069
-0.0495916
-0.0709089
-0.0788744
-0.00861871
-0.0180276
-0.00963725
-0.0520773
-0.0609334
-0.0189384
0.00823717
-0.0114409
-0.0144977
-0.056228
-0.0118221
-0.0140297
-0.0535793
-0.0291749
-0.00196759
-0.0558433
-0.0902981
-0.0196116
-0.000191576
-0.115506
-0.0551193
0.00115295
-0.00360077
-0.0101121
0.000662611
-0.000381106
-0.00417908
-0.0193936
-0.00698448
-0.0537063
-0.00127613
-0.066894
-0.022111
-0.0608936
-0.000436328
-0.0246619
-0.0635652
-0.0251504
0.00258222
-0.00700783
-0.0333807
0.000199177
-0.0126535
0.000938995
-0.0098004
-0.00336069
-0.0581621
-0.000240336
0.00165552
-0.0558134
-0.00879417
0.00904472
-0.0164448
0.00153261
-0.000368049
-0.0425733
-0.0549726
-0.0679603
-0.000800205
-0.0484992
-0.00978249
-0.00458686
0.000978193
-0.0539137
-0.0382658
-0.00798334
-0.0550741
-0.00237609
-0.0163974
-0.0552251
-0.056163
0.00192624
-0.000611284
-0.00335418
-0.0201233
-0.0468012
0.000216574
-0.0566851
-0.0065479
-0.00510898
-0.0152358
-0.0527576
-0.00387302
-0.0115656
0.0137791
-0.0563543
0.00786896
0.00634077
-0.00500439
0.0119645
0.00317469
0.00118578
-0.0226339
-0.0575928
-0.0598918
-0.0256068
-0.05341
-0.00316348
-0.0530303
-0.0539445
-0.0413833
-0.00862617
-0.00137741
-0.0047546
-0.00325831
-0.0554051
-0.00734372
-0.0213379
-0.00374009
-0.071829
-0.0536172
-0.0908128
-0.00102658
-0.0546898
-0.00727853
-0.00423285
-0.00460666
0.000563214
-0.114213
-0.0121675
-0.0505009
0.00235648
0.00848766
-0.0580779
-0.0124317
-0.00397281
-0.00808651
-0.0628822
0.00198763
-0.0176487
-0.00121364
-0.00415596
-0.0565798
-0.0229027
-0.0145128
0.00117964
-0.0133793
-0.016772
-0.0489833
-0.000779414
-0.0413055
0.000217559
0.0137948
0.00105184
-0.0775064
0.026753
-0.0453514
-0.0312845
-0.0120905
0.00436586
-0.00425093
-0.000792043
-0.012857
0.00116478
0.00178865
-0.0587265
-0.0280675
0.00198923
0.00303184
0.000660772
-0.0625037
-0.0646479
-0.0665801
-0.0387737
-0.0115994
0.0023654
0.000179284
0.00104723
-0.056921
-0.0516599
0.000475504
-0.00360677
-0.00401958
-0.0559711
-0.0206002
-0.0207916
-0.0533698
-0.0197308
0.00272505
-0.0552008
-0.0550214
-0.00670436
0.000914437
-0.00888661
-0.0501039
-0.0638546
-0.0205178
-0.0566176
-0.0901259
-0.0268796
-0.0533206
0.0309636
-0.00202085
-0.0728195
-0.0556638
-0.0103657
-0.117916
-0.0158003
0.000568241
0.000900041
-0.055159
0.00379341
-0.0579677
-0.0157202
-0.0299677
-0.0496126
-0.00804402
-0.0559279
-0.0532257
-0.00663835
-0.0240866
-0.0630027
-0.0433317
-0.0785792
-0.00137812
-0.00461983
-0.00340568
0.00257206
0.000939428
0.0085601
-0.00238813
-0.00874182
-0.0143369
0.0227195
-0.0217819
0.00153962
0.000129099
0.000603437
-0.00152578
-0.0153191
-0.00281802
-0.0450608
-0.0125876
0.00176734
-0.042875
0.0321693
0.012857
-0.0530503
-0.00061565
0.000582511
-0.0560077
-0.0903075
-0.0771353
0.00453441
9.63401e-05
-0.0540366
-0.00715347
0.00120927
-0.0370363
-0.00225315
-0.0456681
-0.0520282
0.000722281
-0.0975634
-0.0562598
-0.023448
-0.0890838
-0.0538846
-0.0138289
-0.00176558
-0.0587554
-0.0744634
-0.0290858
-0.0580183
0.000124227
-0.00884216
0.00120122
-0.0116901
-0.0528922
-0.0727192
-0.123249
-0.0796164
-0.0296962
-0.00549615
-0.00014685
0.000610036
-0.00513477
0.000905876
-0.0650303
-0.00263949
-0.0534642
-0.00353338
0.0100001
-0.0355661
-0.0579879
-0.0512568
-0.0542755
-0.0443644
0.000611264
0.00116682
-0.0548012
-0.0589932
-0.028236
-0.00175775
0.000770223
-0.0210389
-0.0175715
-0.0586746
0.0162944
-0.0316446
0.000922879
-0.0640381
0.00260493
-0.0486609
-0.00318774
-0.0035886
-0.0468628
-0.00216949
-0.0573009
0.000748325
-0.051932
0.00105038
-0.0310255
0.00527228
-0.0122813
0.013182
-0.0323885
-0.0418693
-0.100662
-0.0616238
-0.0267109
-0.0226868
-0.00522718
-0.05439
-0.0890303
-0.000179403
0.000844187
-0.0106794
0.000327104
-0.0506297
0.000311632
0.00391854
-0.0101571
0.0162089
-0.00140913
0.0013403
-0.0186607
-0.0576868
-0.0552642
-0.00680497
0.0059695
-0.0206272
0.00352064
0.0303674
-0.00471996
-0.0568515
-0.0441755
0.0111536
-0.0106687
-0.00539035
-0.00444872
-0.0680183
-0.0762971
0.0123733
0.0012634
0.00240779
-3.29633e-05
-0.0481829
-0.0123895
-0.0564538
-0.102549
-0.0114403
0.0291133
-0.0056402
-0.00433881
-0.00456635
-0.0183652
-0.0501854
-0.0136709
-0.0584011
-0.000499137
-0.00445784
-0.000393937
-0.010275
-0.073788
-0.0569201
-0.0137418
-0.0838009
-0.0662087
0.00118461
-0.0109502
0.00103766
0.00430726
-0.0512175
-0.0589129
-0.0102906
-0.00609683
-0.0139195
-0.0105578
-0.0412456
-0.0955141
-0.0138859
-0.0520892
-0.0495013
0.00205885
-0.0106621
-0.000329505
-0.0457472
-0.00729063
-0.00520152
-0.0505763
-0.0181693
-0.101075
0.00251766
-0.0245695
0.000818479
-0.126438
-0.0923356
-0.0150019
0.00698728
-0.0274532
-0.0114085
-0.00209825
-0.0129363
0.000903356
-0.0738335
-0.016775
-0.0879077
-0.00725399
-0.0852607
0.0293701
-0.0522546
0.00226766
-0.0362538
-0.0798212
-0.00335058
-0.0185707
-0.0519601
-8.18196e-05
0.00504349
-0.0261523
-0.0860374
-0.0618616
-0.00580457
0.00851929
-0.0144103
-0.00176394
0.00454206
-0.0119911
-0.0963224
-0.00685934
-0.0244844
-0.0186111
-0.00370659
0.0328529
-0.05143
-0.0148876
-0.0559369
0.00421382
-4.74037e-06
0.0390721
-0.0515231
0.00113086
-0.0428239
-0.0727299
-0.0323838
-7.5131e-05
-0.0138093
-0.0250368
-0.0554796
-0.0596685
-0.0123225
-0.0495727
-0.024131
-0.00129861
-0.0071265
-0.0734447
0.00774789
0.00209057
-0.0764226
-0.00442887
-0.0169376
-0.00258904
-0.0627888
-0.00697328
-0.108832
0.0013963
-0.0250065
-0.0234399
-0.00634181
-0.0488603
-0.0730833
-0.0090744
-0.00842243
-0.0344084
6.79727e-05
-0.0138005
-0.0140788
-0.0227035
-0.0438385
-0.04567
0.000802419
-0.0553121
-0.0289251
-0.0444175
0.00417635
0.0364289
0.00112677
-0.0500446
-0.0508729
-0.0430381
-0.0194801
-0.0581077
-0.0894364
-0.0147651
0.00406395
0.00117297
-0.017522
-0.0489588
-0.00107146
-0.0537783
-0.00264336
-0.0578548
-0.00518878
-0.0505411
0.000683378
-0.00199945
-0.0103972
0.00653798
-0.0875039
-0.0545724
-0.0606137
-0.0206485
0.000907491
0.00342388
0.00506566
0.00119921
-0.062061
0.000132206
-0.042112
-0.0108381
0.00841474
-0.00597755
-0.0047323
-0.00600077
0.00521917
0.0154455
-0.00139615
-0.0507551
-0.00198617
0.00207141
-0.0112486
2.35693e-05
-0.011935
-0.0121726
-0.0236253
-0.0210533
-0.00216844
0.00582711
-0.0560774
-7.21657e-05
0.0140192
-0.0024628
-0.0184968
0.00103499
-0.0574495
-0.0140216
-0.00413377
-0.0574863
-0.0360638
-0.0214109
-0.054373
-0.0616149
0.00164717
-0.013235
-0.0155774
-0.0235179
0.00610253
0.00089309
-0.0349767
-0.11782
-0.0520606
-0.0572481
-0.0149083
-0.070596
-0.00351691
-0.0244995
-0.000476912
-0.0606453
-0.0126502
-0.0314539
-0.0116944
-0.0546264
-0.0899791
-0.00138581
0.000861115
-0.0221185
0.00224048
-0.0185355
-0.0525618
-0.00494662
0.00421745
-0.119373
-0.0528305
0.000230336
-0.032068
-0.0372307
-0.100395
7.78139e-05
-0.0864248
-0.12253
0.00335504
-0.024548
-0.0872248
0.0230068
0.00205853
-0.00221533
0.00410759
-0.0289573
0.000887977
-0.00177555
-0.0530497
-0.0727632
-0.0722169
0.000763481
-0.0525344
-0.0137232
-0.0426784
0.0011308
-0.0117073
-0.0268718
0.000206406
-0.0939246
-0.0308756
-0.00894528
-0.0305413
-0.0839662
-0.0150235
-0.0577303
-0.0875812
-0.055723
-0.00123656
-0.0627923
0.0010122
0.000426139
-0.0109594
0.00111219
0.00120823
-0.0965055
0.00463371
-0.000851805
0.000317934
-0.119082
-0.0863636
-0.00280067
0.000230671
0.000474503
0.00193185
-0.0921018
0.00122495
4.48683e-05
-0.00746732
-0.023865
0.000467181
-0.00391288
-0.095268
-0.0415806
-0.019383
0.00113412
-0.00807978
-0.0200951
-0.0525517
0.000875173
-0.0656298
-0.0470455
-0.0154656
-0.0939271
-0.0798205
0.000961576
-0.0616886
-0.0144965
-0.0696823
0.00272943
-0.00598104
-0.000330492
-0.0182381
0.00064033
-0.0784935
0.00128321
0.00127499
0.00211986
-0.057413
-0.0406075
-0.123293
-0.0576068
-0.0152518
-0.0498183
-0.0223244
-0.0328414
-0.0697749
-0.0923914
-0.00173263
-0.054105
0.00277719
-0.0189015
-0.00520182
-0.0611847
-0.0408437
-0.02963
-0.0846779
0.000976039
-0.123967
0.000927944
-0.0122437
-0.0122351
0.00394132
-0.0520619
-0.0342374
-0.0824035
-0.0229191
-0.0217336
0.00595525
-0.0823273
-0.0430675
-0.0537363
-0.00935619
-0.0944065
-0.00575564
-0.080945
-0.0422656
-0.0966347
-0.013386
0.00113787
-0.000398288
-0.0530973
0.00135716
-0.0101789
-0.00489166
-0.0167707
0.0010248
-0.012933
-0.0971535
-0.0590317
-0.0720613
-0.0856284
-0.00282543
-0.078762
-0.056952
-0.057063
-0.071539
-0.052972
0.000482024
-0.129415
-0.0306655
-0.0425505
-0.0542761
-0.0721884
0.00100316
-0.0145082
-0.00165616
-0.0133186
-0.0110245
-0.056883
-0.0536248
-0.0482266
-0.0102449
-0.0180829
-0.00611106
-0.0539015
-0.077571
-0.00747853
-0.0572832
-0.018442
-0.014389
-0.0119872
-0.0625663
-0.0825601
-0.0122643
-0.0139053
-0.028187
-0.00507914
-0.0121359
-0.023118
0.00123473
-0.0109426
0.00467576
-0.0967245
0.0100314
-0.0934115
-0.015093
-0.00794507
-0.0558883
-0.0555943
-0.00418862
0.00694956
-0.0119764
-0.0305805
0.00124274
0.000966097
-0.00547786
0.00111513
-0.00123343
-0.00439335
0.000923823
-0.0080143
-0.0480226
-0.00872218
-0.0525561
-0.0146883
-0.00743953
-0.0543157
-0.0145884
-0.0308385
0.00112362
-0.014436
-0.00354252
-0.0117125
5.11094e-05
-0.0205566
-0.0116301
-0.0542743
0.00701617
-0.0164064
-0.017374
0.000828789
-0.00560854
0.0195548
0.00605096
-0.049017
-0.0734308
0.0115172
-0.0190565
-0.0115778
-0.0149532
-0.000674983
-0.0178364
-0.0049805
0.00482961
-0.0718147
0.00198525
-0.0491209
-0.0537135
0.000186471
-0.00404308
-0.00212313
-0.0334397
-0.0138707
-0.000808871
0.00990826
-0.0559741
0.0102843
0.00143168
-0.0527382
0.000726712
0.00444643
0.000887567
0.000741204
0.000438727
0.00117287
0.00612994
-0.0690929
0.0169455
-0.0199782
0.0407514
0.0101494
0.00137784
-0.0393072
-0.0564156
-0.076286
-0.0457616
-0.0189753
-0.0608044
-0.0561516
-0.00814281
-0.022721
0.00120673
0.0147397
-0.00191995
-0.0190843
-0.0206779
0.00249023
0.0266226
0.0264087
0.000404872
0.00100673
-0.0118338
0.00449654
0.0011207
0.00254656
-0.0833283
-0.0693367
0.00250272
-0.0104506
0.00100626
-0.0528288
-0.00325352
-0.053217
-0.0150771
-0.0557353
-0.00163571
-0.0567081
-0.0510907
0.00196026
-0.00519262
-0.0105608
6.19071e-05
-0.00294263
-0.00260194
-0.00173562
-0.0188986
-0.0545733
-0.0503071
-0.0510375
0.00339742
-0.0317141
-0.0611601
-0.0105349
0.000923063
0.00155566
0.000907556
-0.0221343
0.00506434
-0.0243192
-0.0121828
-0.0512174
-0.0361933
-0.0876607
-0.0403515
-0.0546647
-0.0523389
-0.005672
0.00110138
0.00264139
-0.00905321
0.000972322
-0.0175891
-0.0537617
-0.0546618
-0.0119671
-0.0133557
0.00234583
-0.0135044
-0.0288471
0.00101349
0.000940465
-0.058331
0.00012459
-0.0229323
-0.0124603
-0.00715921
-0.0188226
-0.0560586
-0.00219802
-0.0046128
-0.0548166
-0.0530871
-0.0500168
0.000773733
-0.0103625
-9.8715e-05
-0.0130368
-0.0849863
0.000807197
-0.111594
0.00153249
-0.000510944
-0.0137233
-0.0529769
-0.0433991
-0.051375
-0.00600387
0.00072872
-0.00180162
-0.116483
-0.000217806
0.00121098
0.00225066
-0.00765709
0.00567217
0.00102048
0.00107664
-0.0523895
-0.0528717
-0.0522006
0.0294536
-0.0623758
-0.0910601
-0.059382
-0.0526486
-0.0403966
0.000714691
0.000645791
0.000354182
-0.00601308
-0.0538833
-0.0543298
0.00102945
-0.114829
-0.0522487
-0.0465495
0.00190326
-0.0107371
-0.0799192
-0.0645152
-0.0533601
0.00776694
-0.0526259
0.000315094
-0.0606133
-0.0443024
-0.00221904
-0.0544615
-0.0120197
-0.0595691
-0.103387
-0.00592714
-0.0111537
-0.00474121
0.00217985
-0.0965506
-0.0514388
-0.0596376
-0.0146094
-0.054022
-0.0623578
-0.0513781
-0.0520759
-0.0550798
-0.0553076
-0.0745443
-0.013131
0.00331219
-0.043898
-0.0496138
-0.00410203
-0.0502361
0.000283381
-0.020865
0.00342286
0.000380617
-0.0595197
-0.012606
-0.0563073
-0.0521678
-0.0127233
0.00712031
-0.0192342
-0.0519367
-0.0775138
-0.0357077
0.00502027
0.00011892
-0.0535551
0.00152766
0.00123715
-0.0373224
-0.0235026
-0.0507761
-0.0273381
-0.00832879
-0.0206583
0.00113911
-0.0294816
-0.0134192
-0.0557779
-0.00672212
3.58134e-05
-0.0522244
-0.0463502
0.00194457
-0.128367
-0.0564293
-0.0121148
0.0112667
-0.0188834
-0.0521918
0.00184526
0.00103344
-0.0633342
-0.014094
-0.0528586
-0.0516793
-0.050024
-0.00593927
0.00260109
-0.0146998
-0.0137992
-0.0359312
-0.000140378
-0.0557013
-0.057647
-0.00206388
0.000873499
-0.0393388
-0.0115475
-0.0538835
-0.0599561
0.00271909
-0.0921557
-0.0571355
-0.017466
0.000335586
-0.0527306
-0.0488414
-0.0888552
-0.0136184
0.00101603
-0.043288
-0.00975308
-0.00135655
-0.000174716
-0.0184268
0.000922724
-0.0012935
0.000104708
0.00268258
-0.00625156
-0.05707
-0.0510812
0.00886786
-0.0626212
-0.0521657
0.0004328
-0.0556239
-0.0549268
-0.0499046
0.000745959
-0.0343804
-0.0491641
-0.0763585
-0.0592174
-0.0631064
0.00305192
-0.0530382
-0.0580155
-0.057609
0.000245231
-0.0452116
-0.0562087
-0.0117656
-0.0566512
-0.0875749
0.00439158
-0.0801461
-0.0589626
-0.00742371
-5.21753e-05
0.00346538
-0.0119465
0.00159016
0.0010096
0.000454504
-0.0544294
-0.0567967
0.002879
-0.0479601
0.000311429
0.0031295
-0.0802653
-0.0509076
-0.0818275
-0.0426986
-0.0508748
0.00183314
0.000886477
-0.0352223
-0.0530166
-0.0604631
-0.0608666
-0.0565707
-0.0232168
0.000658492
-0.0118335
-0.0232266
-0.035501
-0.0728127
-0.0555648
-0.0186693
-0.057814
-0.0546284
0.00449118
-0.0775407
-0.0139382
-0.0264277
0.011158
-0.0138439
0.00102313
-0.0249706
-0.0263549
-0.0979344
-0.0506368
0.00103612
-0.0562888
-0.0197953
-0.00639573
-0.100719
0.0272806
-0.0525525
0.000682073
-0.0623419
-0.0519258
-0.0591207
-0.0618417
0.000954914
-0.0806632
-0.0543816
-0.0528908
0.000957467
-0.0746744
0.00104026
0.000360171
-0.010908
-0.0228708
-0.053829
-0.0512767
-0.0165205
-0.071813
-0.0231467
0.00095229
-0.00187646
-0.012702
-0.00345036
-0.0398162
-0.0527186
-0.0523782
-0.0605946
-0.0146089
-0.00539227
-0.0196874
-0.000161895
-0.051828
-0.000262428
0.000519148
-0.00474566
-0.0493841
0.036441
-0.0498345
-0.0351005
-0.0681749
-0.0145014
-0.0912351
-0.0558586
-0.0535051
-0.0140579
0.00169347
-0.0163322
-0.0133617
-0.0675038
-0.0824603
-0.0235483
-0.0769868
-0.057057
-0.0478175
-0.0167939
0.0242337
0.00309813
-0.0031288
-0.0625119
0.00116349
-0.0259437
-0.0131462
-0.020957
-0.0142718
-0.120503
-0.0572313
-0.00710755
-0.0111983
-0.0318325
-0.0055376
0.00202256
0.0290925
-0.0433339
-0.00258586
-0.0619261
-0.0121434
-0.0505756
-0.0140701
0.000938077
-0.0104902
-0.0505475
-0.00441634
-0.0531031
-0.0880001
-0.0156465
0.00972556
-0.0575277
-0.00674307
-0.059916
-0.0107825
-0.00429798
-0.0560409
0.00126444
-0.0515536
-0.0164029
-0.00352965
0.000920123
-0.00418832
-0.0334998
-0.0138074
-0.0557845
-0.0543073
-0.0145669
-0.00363551
-0.0958475
-0.0594439
-0.00728042
-0.0394835
0.000540396
-0.00782559
-0.0385597
-0.057094
-0.014848
-0.0574795
0.0360156
0.000986747
-0.0103019
0.00132715
-0.00335393
-0.00614567
-0.0526465
-0.00556508
-0.0571785
-0.00259721
-0.0566663
-0.0573054
-0.03515
-0.00413005
-0.056331
-0.0564628
-0.0676834
0.00649712
-0.0230298
-0.0556109
-0.0201343
0.00298743
-0.0582331
-0.0512382
-0.0042923
-0.00313132
-0.0586156
0.0157131
0.00894643
-0.010232
-0.0389816
0.00122399
-0.0119848
-0.0392167
-0.0148944
-0.0196745
-0.00203614
-0.00224813
0.0390698
-0.0544788
-0.00161949
0.0394421
-0.0558624
0.000961896
0.00191488
-0.0524551
-0.0393425
-0.0505978
-0.0127203
-0.0230925
0.0145658
0.000903577
-0.00103406
-0.0216706
-0.0234215
-0.0516972
-0.0584489
-0.0302733
-0.054501
-0.00916371
-0.0452094
-0.00274641
-0.00182542
-0.0454029
-0.0268829
0.00172231
-0.0403067
-0.00525138
-0.000747535
-0.026254
0.00336924
0.00096484
-0.0170082
-0.0108609
-0.000308305
-0.0502201
-0.0419575
0.00114065
-0.0533004
-0.0388002
-0.107795
0.00847441
-0.0501217
-0.0178874
-0.051148
-0.000556157
-0.0489237
-0.0365493
-0.0066665
-0.00232124
0.0342587
-0.0406912
-0.00576907
0.00184295
-0.0452164
-0.0497138
-0.0346676
0.00355685
-0.0171405
-0.106163
-0.0134578
0.00771208
0.000736906
0.000433721
-0.000790981
-0.00330488
-0.0146314
0.0307995
-0.051743
0.0289146
-0.0532148
-0.00208851
-0.0114491
-0.0133691
-0.0290356
-0.0132732
-0.0113898
-0.00327435
-0.00134561
-0.00184911
-0.0589731
-0.0242036
-0.0516118
0.00125736
0.00156244
-0.0395338
-0.0619511
-0.0168481
-0.0516182
-0.0249438
-0.0360184
0.0200415
-0.00286517
-0.0864697
-0.0576114
0.0108888
-0.0105618
-0.0209093
-0.00828165
-0.00038627
-0.0588204
0.00107313
-0.0723788
-0.0559836
-0.053694
-0.0109882
0.00127748
-0.0249318
-0.0553238
0.0371251
-0.00715106
-0.00588975
-0.00130562
-0.00469874
0.00105567
0.008951
-0.0486995
-0.00539896
-0.0047094
-0.0622389
-0.0372859
-0.0208402
0.00314288
-0.00850585
0.00114975
-0.0100866
-0.0521278
0.000491277
-0.0193483