/*--------------------------------*- C++ -*----------------------------------*\
| =========                 |                                                 |
| \\      /  F ield         | OpenFOAM: The Open Source CFD Toolbox           |
|  \\    /   O peration     | Version:  v2012                                 |
|   \\  /    A nd           | Website:  www.openfoam.com                      |
|    \\/     M anipulation  |                                                 |
\*---------------------------------------------------------------------------*/
FoamFile
{
    version     2.0;
    format      ascii;
    class       surfaceScalarField;
    location    "400";
    object      phi;
}
// * * * * * * * * * * * * * * * * * * * * * * * * * * * * * * * * * * * * * //

dimensions      [0 3 -1 0 0 0 0];
oriented        oriented;


internalField   nonuniform List<scalar> 
20537
(
-0.378736
0.508979
-0.130243
-0.0504677
-0.142494
0.192962
-0.184577
0.163471
0.0211054
-0.020977
-0.302507
0.323484
-0.147652
0.16398
-0.0163283
0.298081
-0.452845
0.154764
0.198328
0.201806
-0.400134
0.243506
-0.0882057
-0.1553
-0.455816
-0.0941585
0.549974
-0.0354167
0.205833
-0.170416
0.580653
-0.214154
-0.366498
0.0588132
-0.0822964
0.0234832
0.0883916
0.0133083
-0.1017
-0.00296842
-0.0036386
0.00660702
0.677043
-0.546159
-0.130884
0.279037
-0.286738
0.00770076
-0.0477863
0.283235
-0.235449
0.439629
-0.249617
-0.190011
-0.142167
0.149408
-0.00724071
0.0826157
-0.538431
0.347046
-0.368023
-0.0798587
-0.104718
-0.364008
0.584556
-0.220548
-0.690605
0.0985064
0.592098
-0.54951
0.185502
0.216207
0.027299
-0.0877427
-0.180769
0.268511
-0.00405561
-0.001503
0.00638886
-0.385125
0.22729
-0.35231
0.12502
0.442166
-0.144085
0.230529
-0.278315
-0.0212571
0.184729
0.444202
-0.485264
0.0410623
-0.602372
-0.088233
0.114436
-0.128823
0.0143876
-0.00219519
0.0911106
-0.0889154
0.208412
-0.124797
-0.0836151
0.132295
-0.167712
-0.00951216
0.453714
0.0444876
0.33763
-0.382117
0.488892
-0.663332
0.174441
-0.00455767
0.00273558
0.00182209
0.317458
-0.546767
0.229309
0.554467
-0.237009
-0.00797871
-0.00709675
0.0150755
-0.549558
0.215885
0.333673
0.217519
-0.478367
0.260848
0.172726
-0.260469
0.312751
0.226163
-0.538913
0.164117
-0.0187163
-0.1454
0.148208
-0.076558
-0.0716496
-0.00220229
0.000783052
0.00141923
-0.735416
0.374663
0.360753
0.656346
-0.536873
-0.119473
0.662367
-0.173475
0.65281
-0.295854
-0.356957
0.00485212
-0.00558236
0.000730239
-0.183345
0.410635
0.284032
0.09619
-0.380222
0.0564918
0.15192
0.0550186
-0.0716244
0.0166058
-0.394224
0.288014
0.10621
-0.143726
0.128606
0.0151203
-0.130427
0.323441
-0.193013
-0.449073
0.14536
0.303713
0.0702879
-0.0724831
-0.575558
0.224477
-0.213943
0.21591
-0.00196782
0.195677
0.243951
0.014789
-0.0181056
0.00331663
0.0879933
-0.0786641
-0.00932911
0.119002
-0.16947
-0.29246
-0.442956
0.28166
-0.585946
0.304286
-0.528235
0.433662
0.0945728
-0.135379
0.0555201
-0.0241883
0.00119139
0.0229969
-0.00164609
-0.174311
0.175957
0.0174619
-0.00142884
-0.172199
0.432606
-0.260408
0.511755
-0.0129926
-0.498762
-0.43435
-0.0512789
0.485629
0.00524316
0.00355792
-0.00880109
-0.313896
-0.080328
0.078314
-0.0195008
0.463573
-0.143978
-0.319595
0.0143284
0.164284
-0.178612
-0.261907
0.323472
-0.0615647
-0.358925
-0.248577
0.607501
0.0214325
0.0930033
-0.0829683
-0.321597
0.404566
-0.266487
-0.0904455
0.251295
-0.16085
-0.0279559
-0.233951
0.563233
-0.551453
-0.0117798
0.0305983
-0.17825
0.0109254
0.032251
-0.0431764
-0.177625
0.490376
-0.0245927
0.587825
0.0207613
-0.0134357
-0.00732551
0.175954
-0.173274
-0.00268028
0.0755886
-0.382344
0.306756
0.267761
-0.0177137
-0.456913
-0.0991479
0.556061
-0.479785
0.379006
0.100779
-0.181535
0.178118
0.00341671
0.523576
-0.681482
0.157905
0.0676579
0.0102145
-0.135389
-0.317456
-0.540922
-0.019406
0.560328
0.273435
-0.63236
0.314113
-0.397081
-0.651491
0.651491
-0.0720842
-0.468837
0.308967
-0.0482838
-0.0509701
0.0618955
0.0723321
-0.471552
0.39922
-0.573824
0.57574
-0.00191602
-0.192829
0.562937
-0.370108
-0.00405054
-0.000507132
0.236497
0.0312636
0.0932647
-0.00487309
0.185032
0.463154
-0.245635
-0.772122
0.34709
0.425032
0.219976
0.243178
0.158339
-0.188158
0.029819
0.0307355
0.31631
0.173531
-0.0848266
-0.0887048
0.425229
-0.380741
0.556329
-0.161717
-0.394612
0.0194898
-0.00470088
-0.552352
0.118002
0.248201
-0.572402
0.607114
-0.0347116
0.555001
-0.482669
-0.0722667
0.0892904
-0.0170237
-0.0225608
-0.000583283
0.0231441
-0.0320039
0.0165198
0.015484
0.0127999
0.00796139
0.377305
0.279041
0.165209
-0.562594
0.397385
0.717723
-0.382867
-0.334857
0.411879
-0.0845628
-0.327316
-0.173909
-0.372858
-0.445459
0.621355
-0.175896
0.0446883
0.128843
-0.267766
0.466094
0.220315
0.334152
-0.00225548
0.130162
-0.423023
0.616254
-0.193231
0.00859143
-0.0115599
0.309897
0.342913
0.364371
-0.208284
-0.156087
0.304091
0.107788
-0.497122
0.188011
0.309111
0.233814
0.128376
-0.362189
0.014878
0.13333
0.00320758
0.160909
-0.351896
-0.247172
0.599069
-0.0764081
0.225807
-0.149399
0.00411781
0.000734311
0.164351
0.391979
0.272467
-0.371356
0.0988896
0.640334
-0.229675
-0.410658
-0.692713
0.247254
0.00471098
-0.218654
-0.319206
0.349941
0.0423552
-0.00338274
-0.0389725
0.000138909
-0.0243272
0.24053
-0.545238
0.304708
-0.174292
-0.32283
-0.0233405
-0.00866342
0.566009
-0.401658
-0.25578
-0.222587
0.183929
-0.0255896
0.533305
-0.508678
-0.0246277
-0.0218196
-0.120347
-0.519019
0.666507
-0.147488
-0.270527
0.0561697
0.214358
0.0157265
-0.130362
-0.362424
0.492786
0.0518682
-0.156586
-0.362485
-0.235239
0.597724
-0.448622
0.614618
-0.165996
-0.173152
-0.27592
0.356988
-0.549817
-0.169703
0.159416
0.0102863
0.238965
0.00241209
-0.241377
-0.325081
8.92728e-05
-0.00229156
0.26584
-0.542219
0.276379
0.18635
-0.210578
0.024228
0.0735884
-0.0185699
0.401239
-0.179025
-0.222214
0.540731
-0.375522
-0.0777666
0.481949
-0.404183
0.45931
0.0739959
-0.428726
-0.0995086
-0.304312
-0.46781
-0.0105082
0.0285408
-0.0180326
-0.580423
0.0842115
0.496211
-0.540347
0.146807
0.393539
-0.0278917
0.219855
-0.191963
-0.492838
0.362475
-0.0495979
-0.0136094
0.0632073
0.148646
0.140754
-0.2894
0.0294245
-0.00198355
-0.0274409
0.12799
0.442378
-0.570368
-0.0150704
-0.0343646
0.0494349
-0.354404
0.429993
-0.472337
0.0787976
0.393539
0.451555
-0.634704
0.183148
-0.718995
0.430174
0.288821
0.628183
-0.277594
-0.350589
-0.148746
0.393883
-0.245137
-0.00987146
0.00189275
-0.10892
-0.410526
0.519446
0.0312842
-0.0018597
0.265318
-0.116672
0.1941
-0.366299
-0.00261683
0.046829
-0.0442122
-0.0673689
0.146046
-0.0786773
5.50481e-05
0.0350356
-0.0350907
-0.598844
0.580199
0.0186454
-0.0467348
-0.191344
0.238079
-0.525798
0.068885
-0.00533802
0.00266064
0.00267738
0.672309
-0.220753
0.218493
-0.0022858
0.331911
-0.298978
-0.0329326
-0.284982
0.525513
0.539275
-0.155677
0.146712
0.00896468
-0.0572793
-0.252496
0.309775
0.0135032
-0.063101
0.145051
-0.275479
0.280028
0.437696
-0.455963
-0.0843838
0.114936
0.32723
0.340952
-0.467193
0.126242
0.575294
0.0569363
-0.63223
-0.196783
0.168892
0.456257
-0.555405
0.0287204
0.00429349
-0.0330139
0.194313
-0.0183591
0.472116
-0.449866
-0.0222493
-0.396063
0.293886
0.102177
-0.223751
-0.1233
0.347051
0.659545
-0.384609
-0.274936
0.466156
-0.125204
-0.245755
-0.107626
0.353381
-0.0919716
-0.0311425
-0.120306
0.151449
0.39958
-0.185112
-0.214468
0.258638
-0.0196731
0.0091776
0.0801128
0.0070294
-0.0149218
0.0078924
-0.189667
-0.347328
0.536995
-0.438968
-0.445227
0.347721
0.0975053
0.482487
-0.168399
-0.314088
-0.629798
0.207575
0.422223
-0.132796
0.108808
0.0239877
0.188317
0.212922
-0.367629
0.121874
-0.207084
0.116639
0.0494094
-0.0520262
0.406879
0.157936
-0.564816
0.297966
0.361579
0.185346
0.544405
-0.181136
-0.363269
0.176675
-0.178321
0.254781
0.0242561
-0.534692
0.372975
0.602587
-0.0908317
0.613175
-0.201996
-0.411179
-0.00147832
0.036144
-0.0346657
0.144073
0.436579
0.025327
0.549967
0.0800375
-0.557672
0.477634
-0.502572
0.598865
-0.0962934
-0.15138
0.120237
0.0559638
0.426524
0.418294
-0.183045
-0.235249
0.0335215
0.454245
-0.487767
-0.383365
0.498305
-0.11494
0.172957
0.371447
-0.671026
0.326901
0.344125
0.148191
-0.103503
0.149445
-0.33279
-0.105123
0.389155
-0.21903
0.216845
0.00218456
-0.402246
-0.26878
-0.0376464
-0.0951496
0.0704879
0.170642
-0.24113
0.0506688
0.0276452
0.434728
-0.570456
0.135728
0.035446
-0.00672552
0.106754
-0.183162
0.0800275
0.203208
-0.0136048
-0.0278969
0.0415017
-0.142108
0.366799
-0.224692
-0.353708
-0.126077
-0.0406512
0.0372306
0.00342056
0.481199
-0.447678
-0.015183
-0.145693
0.160876
0.226954
0.0243408
-0.223694
0.37314
0.0112273
-0.0337881
0.222519
-0.152031
0.386714
-0.362035
-0.0246784
0.0480827
-0.0577747
0.00969203
0.650878
-0.257479
-0.393399
0.0554321
-0.279183
0.733121
-0.367929
-0.365192
-0.0468281
0.0453498
0.125248
-0.0154606
-0.109787
-0.508883
0.399963
-0.191192
0.0466892
0.144502
-0.262348
0.491051
-0.228703
0.0257416
-0.0187122
-0.00115958
0.453369
-0.45221
-0.454812
0.64336
-0.188549
0.6105
-0.249942
-0.360558
0.125299
-5.12698e-05
0.199592
-0.246327
-0.323735
0.073044
0.250691
0.108376
-0.369894
0.227786
0.327601
0.0591132
0.387667
-0.601821
0.0197201
-0.00442952
-0.0466414
-0.00137508
0.0480164
0.0828564
-0.381426
0.29857
0.040415
-0.0540198
-0.00234502
-0.0812297
0.0835747
0.384583
-0.0195171
0.205868
0.12556
0.0226307
0.546398
-0.341134
-0.205264
0.0442744
0.217287
-0.261562
0.000305522
0.114332
-0.114637
0.111761
-0.238271
0.518422
-0.280152
0.374701
-0.0585116
-0.31619
-0.0062165
-0.032741
0.0389575
0.0395315
-0.58569
0.652886
-0.0788302
-0.574055
0.174228
0.478658
0.181787
-0.0502837
-0.131503
-0.109366
-0.214369
-0.204345
0.24862
-0.00150985
-0.00382817
-0.493864
0.319572
0.0246301
0.350071
0.358423
0.252076
-0.501913
0.239565
-0.112789
0.569046
-0.0545241
0.5781
-0.183324
0.552901
-0.369577
0.0370729
-0.0432894
0.640727
-0.223925
-0.416802
0.315823
-0.443165
0.127342
0.1787
-0.193883
-0.653987
0.359036
0.29495
0.0689508
-0.0182819
-0.301368
0.235196
0.0661719
0.323923
-0.371466
0.0437834
-0.00142816
-0.119794
0.435617
-0.241754
0.0930073
-0.0314911
-0.196728
0.228219
-0.15581
0.479733
0.0866694
-0.447451
0.360781
0.159147
-0.630698
0.205495
0.216296
-0.421791
0.0030106
-0.00971876
0.00670816
0.638648
-0.0281136
0.0393409
0.2248
-0.103292
0.103598
-0.0329417
0.029559
-0.669732
0.171446
0.498286
-0.177755
-0.491977
-0.018044
-0.334858
0.352902
0.632132
-0.154663
-0.477469
0.51575
-0.529669
0.0139182
0.388108
-0.305252
-0.0867104
-0.104481
0.00375701
-0.00739562
-0.255827
0.216882
0.0389449
-0.0442314
0.0442865
0.0430768
-0.00891103
-0.0341657
-0.397224
-0.256763
0.232838
-0.422505
-0.00285795
0.0046705
-0.0187994
0.014129
0.0745016
0.257409
-0.0517842
0.000814112
0.449934
-0.244439
-0.21562
0.184129
0.501135
-0.534657
0.0335221
-0.101751
0.099406
-0.436134
0.516348
-0.0802142
-0.108104
-0.178634
0.365349
-0.383392
-0.448196
0.341484
0.106712
0.0534887
0.0942609
0.386939
0.318217
0.322117
-0.122664
-0.0210626
0.240322
0.0607654
-0.301087
-0.0149761
-0.00954293
0.024519
0.347572
0.0114309
-0.359002
-0.134846
-0.454707
0.0302915
0.424415
0.283721
0.182435
-0.330204
0.0919655
0.238238
0.166428
0.0153585
0.28683
-0.206803
0.224472
0.403711
0.122154
0.432847
0.495626
-0.401365
0.0932937
-0.541915
0.138838
-0.164593
0.0257552
0.13361
-0.469728
0.336119
0.12971
-0.119433
-0.0102766
-0.0580965
-0.39661
0.0107655
-0.230751
-0.254514
0.109865
0.139914
-0.0603292
-0.0953477
0.444585
-0.357915
0.438357
-0.154636
0.659354
-0.499347
-0.160007
-0.16013
0.00667301
0.153457
-0.320956
0.484995
-0.164039
0.00710331
0.17423
-0.181333
-0.0221115
-0.00347135
0.0255828
0.589634
-0.130324
-0.65212
0.223454
0.428667
-0.540612
0.219656
0.0224883
-0.0106448
0.305866
-0.668351
-0.22779
0.224465
0.00332524
0.0096179
0.561398
-0.154518
-0.487323
0.543445
-0.056122
-0.403271
0.105689
0.297583
0.131545
0.0265071
-0.103065
0.0757658
-0.359039
0.283273
0.0936146
-0.0608372
-0.0327774
-0.546198
-0.0526464
-0.563391
0.313449
0.000921431
0.00410209
-0.00502352
-0.0750208
0.347487
-0.457277
0.537315
0.138158
-0.12383
0.464381
0.167752
0.206472
-0.15682
-0.376685
0.533505
0.113952
0.190931
-0.304883
-0.125726
-0.244307
0.370032
-0.429682
0.459521
0.130113
-0.0109036
0.0589863
0.379709
-0.430988
0.203836
-0.197573
-0.00626334
-0.0791323
-0.49327
0.261342
-0.377428
0.116086
-0.653381
0.229362
0.42402
0.562751
-0.562751
0.517753
-0.156287
-0.361466
-0.552984
0.13437
0.517121
-0.186769
0.419847
-0.233078
0.260071
0.109372
-0.369443
0.338482
-0.48246
0.116399
-0.478823
-0.166285
0.667419
0.0141966
0.000449996
-0.0146466
0.00189347
-0.0240049
0.141539
0.321702
-0.463241
0.395961
-0.134619
-0.286436
-0.0437674
-0.266604
-0.200589
0.0121425
-0.00689938
-0.364247
-0.199144
0.218191
0.422536
-0.0752511
-0.372199
-0.153954
0.00255236
0.151402
-0.333518
-0.0656349
0.399153
-0.00650324
0.00660292
-9.9675e-05
-0.133006
0.544567
-0.411561
-8.76679e-05
0.000870719
-0.242272
0.247278
-0.00500591
-0.213088
-0.450244
0.215706
0.180255
0.0454834
-0.0137195
-0.0317639
0.20884
0.0096531
-0.451851
0.455819
-0.00396799
-0.519059
-0.054764
0.349197
-0.455568
0.106371
-0.572632
0.0357585
-0.169119
0.577984
-0.408865
-0.578934
0.187513
0.391421
-0.4492
0.33844
0.110759
0.0226386
-0.0179681
-0.157586
0.156418
0.00116783
0.128322
-0.0191517
-0.10917
0.0980866
-0.0912627
-0.00682393
0.0799869
0.326465
-0.678361
-0.0867356
-0.0128642
0.0995998
0.485774
-0.352165
-0.0578412
-0.212686
0.00482769
0.220979
-0.479478
0.212874
-0.263379
0.448411
-0.0625524
0.047482
-0.516852
-0.00991076
0.526763
0.000151554
-0.0066548
0.00504579
0.0075323
-0.0180405
-0.148838
-0.139681
0.355387
0.521843
-0.235322
-0.463475
-0.188646
0.267357
0.132223
0.381815
-0.459581
-0.147765
0.013889
0.133875
0.354143
-0.120329
-0.125288
-0.0224769
0.0738294
-0.00615957
-0.0676698
-0.536913
0.403907
0.1497
-0.154378
0.00265285
-0.0211796
0.0185268
0.378927
-0.0850413
0.333909
0.171781
-0.50569
-0.354617
0.542628
0.337266
0.120465
-0.45773
-0.0151677
-0.154535
0.249348
0.0554421
-0.30479
-0.0182218
0.182505
0.0605469
0.0330677
-0.437651
0.596255
-0.158603
0.0048656
-0.00394417
0.0011694
-0.0266753
0.0255059
0.466026
-0.391336
-0.0746903
0.20368
0.282095
0.208547
0.57879
-0.477816
-0.100973
0.401467
0.483834
0.0678044
-0.551639
-0.0961871
0.00945151
-0.225505
0.0172207
0.120123
-0.119705
-0.000417923
-0.0857339
0.102829
-0.0170949
0.211333
0.451034
-0.392309
0.444436
-0.0521274
-0.193891
0.440233
-0.246342
-0.204554
0.154271
-0.142794
0.147455
-0.00466154
0.00218822
0.0204503
-0.00535377
0.0724678
-0.067114
0.349978
-0.107729
-0.340467
-0.082635
0.11523
-0.0325953
0.00242561
-0.0977696
-0.00933559
0.107105
-0.118647
-0.13718
0.381639
-0.0936251
-0.573543
0.314522
0.19548
-0.510003
-0.146241
0.693678
-0.482346
0.285659
0.0932685
0.181674
0.484833
-0.160721
-0.395633
0.556354
0.0766938
-0.00286443
0.159204
-0.476009
0.417912
0.294652
0.399026
0.0195294
-0.0476429
0.415642
0.0663076
0.631211
-0.183826
-0.447386
-0.415228
0.563837
-0.148609
-0.0922741
-0.537524
0.555282
-0.0097358
0.0127464
0.42809
0.0440254
-0.0442464
-0.0148756
0.0224079
0.451029
-0.101832
-0.0498188
-0.163889
0.213708
-0.0161697
0.0188226
-0.0207796
0.0187961
0.149251
-0.387522
0.0214007
0.19451
0.0605817
0.518208
0.428809
-0.235479
0.0177401
0.217739
0.00564418
-0.0683629
0.0627187
-0.405225
0.346713
0.000745334
0.119378
-0.274916
0.0352552
0.23966
0.0809962
-0.477816
0.39682
-0.315294
0.242346
0.0729479
0.130654
-0.5265
0.395846
0.00189086
-0.453742
0.134896
-0.143666
0.00876974
-0.371709
0.488109
-0.30396
-0.0774662
0.0225191
-0.509842
0.146436
-0.226673
0.0802363
0.117284
0.012426
0.41124
-0.31505
0.103782
0.340802
-0.11586
-0.185508
0.0625935
-0.317811
0.255217
0.148813
0.156889
-0.018051
0.0413045
-0.108673
-0.303831
0.0716511
0.23218
0.0109737
-0.108743
0.470499
-0.389503
0.0811818
-0.337936
0.256754
-0.385768
-0.00431801
-0.0105575
0.134174
-0.488578
-0.632595
0.29029
0.342306
-0.00217154
0.0698294
-0.208356
0.423948
-0.215592
-0.0100216
-0.0229202
0.0321539
-0.0353516
0.00319771
0.00916281
-0.00350831
-0.0056545
-0.00549705
0.143655
0.0807454
-0.516879
-0.0808357
-0.461504
0.486831
0.339768
-0.537206
0.197438
0.122817
0.42175
0.380981
-0.541702
-0.61544
0.272264
0.343176
-0.0287644
0.376336
-0.229162
0.343114
0.701423
-0.406771
-0.0856966
-0.0175457
0.103242
0.0163655
0.0162871
-0.101984
0.160349
-0.543664
0.383315
0.137792
-0.557525
0.419733
0.62648
-0.145348
-0.481132
-0.000745779
0.126306
-0.0178263
-0.0566902
0.0745164
0.110024
-0.150985
0.0409609
-0.0606479
0.129068
-0.590571
-0.451906
-0.0827513
-0.13551
-0.453932
0.589442
-0.255922
0.425873
-0.169951
0.0608359
-0.0848635
0.0240276
0.0530625
-0.0382426
-0.0148198
-0.253044
0.315638
0.24021
0.461213
-0.136933
-0.312267
-0.470602
0.214681
0.158877
-0.162368
0.00349159
0.00233563
0.00157058
-0.00390621
-0.0605132
0.0488684
-0.060866
0.0119975
-0.305155
-0.150414
0.457327
-0.353544
0.134649
-0.00632775
0.0127696
-0.197629
-0.0154575
-0.0668389
0.116956
0.31565
-0.249549
0.150998
-0.0409741
0.359152
0.460612
-0.351299
0.222793
0.387859
0.271495
0.131029
0.0528506
0.0255701
-0.0290414
0.151958
-0.545061
0.393103
0.390442
-0.113377
-0.277065
0.283691
0.0979477
-0.567772
0.398654
0.286699
-0.246364
0.419322
-0.00727897
-0.00926499
0.016544
-0.00333744
0.138234
0.13073
-0.021922
-0.359408
0.530855
-0.45303
0.560457
-0.400108
0.018178
-0.00398133
-0.0994126
0.0136787
-0.301218
0.243939
-0.00615957
0.0383135
0.165174
-0.58549
0.420316
-0.00865016
-0.483283
0.491934
-0.414759
0.39789
0.0531394
0.0782661
0.00619063
-0.0844568
0.34181
-0.113199
-0.228611
-0.41808
0.0959935
0.322086
-0.242229
-0.411152
0.0725605
0.219465
-0.292026
0.409653
0.216826
0.00137419
0.00324688
-0.00462107
0.0708892
-0.256001
0.0310057
-0.0313281
0.000322363
0.43779
0.0886699
-0.341714
-0.000924839
0.0201004
-0.0191756
-0.00412588
0.000636429
0.00348945
-0.0739496
0.0953822
-0.382123
0.512777
0.0579816
-0.0669328
0.00895124
-0.189877
0.632205
-0.407733
-0.0181516
0.165384
-0.147232
0.18272
-0.175617
-0.134213
0.32226
-0.188047
-0.000708653
0.56946
-0.229205
-0.340255
-0.591376
0.373972
0.217404
-0.0118686
0.102979
-0.147989
-0.484606
-0.580423
-0.362612
0.236887
0.119613
0.350886
-0.00468172
0.00605591
-0.208037
0.0448777
0.163159
-0.116287
-0.35401
-0.121999
0.411825
-0.613821
-0.3952
-0.414763
0.566096
-0.0599633
-0.506133
0.234602
-0.40621
0.529027
-0.12442
-0.353133
0.477553
-0.616768
0.244275
0.372492
-0.00378092
0.0410115
-0.537941
-0.518586
0.0164272
0.502158
-0.186236
0.449089
-0.262853
-0.440781
0.333053
0.0214612
-0.0223861
-0.545744
0.003442
0.542302
0.525115
-0.378923
-0.146192
0.082101
0.0410736
-0.123175
-0.000232663
0.159109
-0.129786
0.513739
-0.383953
0.188291
0.340313
-0.528604
0.209162
-0.390298
-0.00593624
0.0548047
-0.107558
-0.0521466
0.00377532
0.0483713
0.191157
-0.0601283
-0.500205
0.343385
0.580769
-0.406517
-0.174252
0.00298012
-0.000244532
-0.273775
0.482937
0.0953285
-0.329898
0.234569
-0.573161
-0.441271
-0.336933
-0.167165
-0.00707803
0.174244
-0.133772
0.267495
-0.133723
-0.195905
0.366547
0.412736
0.168033
-0.499202
-0.0176506
0.387325
0.13779
0.0950174
0.0234051
-0.459839
0.378153
0.0816859
0.00716939
0.152247
-0.349261
-0.299824
0.388494
-0.146785
0.105614
-0.135616
0.0300016
-0.00839193
0.118076
0.223734
-0.0516519
0.0336257
0.0180262
0.00460636
0.0934802
-0.366756
-0.0740251
-0.0109306
-0.00382689
0.0147574
0.325977
-0.244795
-0.0646405
0.0683994
-0.00375883
0.00377964
-0.0110586
-0.0200798
-0.0273897
0.0474695
0.549824
-0.213559
-0.336265
-0.225056
-0.00698444
0.23204
-0.380592
0.297921
0.0901875
0.000828049
-0.00641041
-0.00737263
-0.530781
0.141437
0.389344
0.586593
-0.594979
0.00838601
-0.00378893
0.150501
-0.330681
0.560954
-0.230273
-0.414571
0.561591
-0.14702
-0.0024249
0.000442735
0.00198217
-0.398121
0.563295
0.343185
-0.453304
0.110119
-0.000579629
0.0207083
-0.000826235
-0.0198821
0.08721
-0.446618
0.480379
-0.140611
-0.498131
-0.00378246
-0.00231683
-0.00180905
0.0852514
-0.0244155
0.109558
-0.118894
-0.18704
-0.30235
0.48939
-0.0526979
0.0513228
-0.0937595
-0.110795
-0.083414
0.0655877
0.0104604
0.167658
0.175759
0.00294127
-0.0756705
0.0689904
-0.402508
-0.0586505
0.177653
-0.00674801
0.147795
-0.141047
-0.0108002
-0.00799927
0.498217
-0.0482828
-0.00177187
0.00199469
0.00406122
-0.000997753
-0.0636428
0.0216977
-0.0205283
0.319746
0.115151
-0.434897
0.201455
-0.0219386
-0.179517
0.474693
0.156518
-0.0614853
0.277255
0.113187
0.0653495
-0.0455348
-0.0198147
0.65416
-0.65416
-0.0199984
-0.00720327
0.0272016
-0.538548
0.123978
0.124105
-0.0420045
-0.431335
0.535295
-0.103961
-0.122188
-0.0505073
0.172696
-0.168466
0.195911
0.00554409
-0.028615
0.0360355
-0.161259
0.125224
-0.150471
0.341402
-0.48294
0.617309
0.0637763
0.162514
0.367245
-0.0579833
-0.309262
-0.371656
0.110191
0.261466
-0.000493257
0.0212016
-0.371122
0.578698
0.605275
-0.387084
-0.439074
0.152588
0.286486
-0.0451221
0.0107576
-0.00672759
-0.0018264
0.0232876
0.373609
0.176215
0.0918482
0.406368
0.0209385
0.38914
-0.410079
-0.000878081
0.0318838
0.124539
0.529622
0.225174
-0.273458
0.000809536
-0.0254782
0.0246687
0.385044
-0.559357
0.174313
0.0864199
0.195802
-0.282222
-0.108102
0.489849
-0.0742068
-0.0468182
0.0283284
0.0184897
-0.270567
0.393338
-0.122771
0.217247
-0.513101
0.0192988
0.104308
-0.123607
0.00563956
0.0256446
0.121488
0.025967
0.322481
-0.227153
0.479323
-0.151571
-0.327752
0.219498
0.385777
-0.00346102
-0.00271292
0.00617395
-0.0148316
0.120446
-0.530958
0.0123727
0.0345554
-0.259611
-0.564356
0.394163
0.170193
0.411915
-0.327704
-0.393143
0.567371
0.0211882
-0.473094
0.145378
-0.148379
0.00300173
0.171127
0.267229
0.451496
-0.108311
-0.103072
0.379362
-0.234237
-0.0168903
0.0132488
0.00364151
0.041488
0.00399545
-0.00831303
-0.219477
-0.0407593
-0.0108926
0.0454678
-0.476802
0.20651
0.0179545
-0.0775992
0.466739
-0.404403
-0.159953
-0.151395
0.430812
-0.279417
0.33745
0.114047
0.0192718
-0.00177042
-0.0175014
-0.148131
0.469833
0.107803
0.0431947
0.434347
-0.114601
-0.237932
-0.570899
0.00426222
-0.00123723
-0.00302499
0.207407
0.368332
0.0265465
-0.109182
0.124171
-0.257943
0.0373855
-0.1126
0.0752147
-0.243551
0.0355137
0.200049
-0.00521558
-0.194834
-0.00397664
-0.200814
-0.0258586
-0.313469
0.0609728
0.0498919
-0.152423
0.401994
-0.249571
-3.36552e-05
0.00263834
-0.00260469
-0.140231
0.17664
-0.0364094
0.607982
0.419444
-0.285271
0.199867
-0.163831
-0.162813
-0.0131925
-0.315416
0.503707
0.0357971
-0.0206077
-0.0151894
0.410289
0.150168
-0.15862
0.00324198
0.000515036
-0.190934
0.609308
-0.418373
-0.108805
0.086985
-0.257513
-0.144205
-0.362017
-0.0957632
-0.49184
-0.00629065
-0.122561
0.509599
-0.387038
0.384213
-0.267256
0.0796258
-0.0914944
-0.408944
-0.150413
0.0648138
0.0204376
0.00246026
-0.00592129
0.242385
-0.0282092
-0.214176
0.00188903
-0.011154
0.410475
-0.021688
0.587784
0.222369
-0.590298
0.445819
-0.108553
-0.398964
0.135973
-0.111976
-0.0239977
-0.0994636
-0.231144
0.330608
0.338297
-0.514042
0.175745
-0.0920911
-0.325989
0.107422
-0.562233
0.0228891
0.0391503
0.0139122
0.286917
-0.0544257
0.00264149
-0.00989353
-0.0801796
0.0900732
0.434152
-0.11963
0.0584339
0.343632
-0.402066
-0.10092
-0.173996
0.143957
-0.120767
0.496164
-0.375396
0.339471
-0.453252
0.113781
-0.466228
0.399987
0.0662413
-0.421503
-0.164443
-0.345955
0.56184
0.406117
0.0837318
-0.00408464
-0.00488103
0.00896568
0.406427
0.0941262
-0.500553
0.013872
0.0793927
-0.213649
0.258527
-0.206486
0.279046
-0.574355
0.451794
0.423644
-0.593009
0.169366
-0.128743
0.0545123
0.0742307
0.251915
0.0740627
-0.369815
0.554328
-0.40237
0.352059
0.125834
-0.477893
-0.236761
0.456737
-0.291686
-0.147388
-0.155695
0.593115
-0.373618
-0.232779
-0.0199899
0.252769
-0.00438206
0.107448
-0.103066
0.282881
-0.443546
0.160665
0.482514
0.104079
-0.0935194
0.446525
-0.353006
0.360705
-0.156219
-0.204486
-0.195793
-0.181635
-0.300706
0.0697168
0.230989
-0.14034
-0.191832
0.051601
-0.342305
0.242841
0.334575
0.144748
0.00694131
0.058989
-0.0659303
-0.146368
0.484665
-0.028826
0.0192831
-0.107235
0.0912912
0.0159436
-0.0519385
0.277112
0.124336
-0.11877
-0.00556627
0.454206
-0.462856
0.671295
-0.244544
-0.426751
0.124809
0.320625
-0.445434
0.398998
0.0525048
-0.451502
-0.130593
-0.336403
0.466996
0.499995
-0.0935675
-0.49556
0.49556
0.168056
0.386272
0.119758
-0.138474
0.570027
-0.14475
-0.425277
0.555065
-0.387009
0.379083
-0.184983
0.210641
-0.200357
-0.0102833
-0.0111221
0.0893882
-0.064121
0.332724
-0.256958
-0.143592
-0.473175
0.136952
-0.1437
0.12191
-0.0250993
-0.0968103
-0.0886905
0.326541
-0.0138484
0.120865
-0.13004
0.00917543
0.136113
-0.0292646
-0.106848
0.579006
-0.172544
-0.406462
-0.151368
0.00567479
0.474679
-0.14077
0.352881
0.290479
-0.326056
0.450865
0.0215913
-0.0217586
0.000167324
0.0137762
0.111523
-0.111109
-0.358619
-0.0642092
0.389976
-0.364907
-0.133254
0.498161
-0.379688
-0.146109
-0.434529
0.123809
0.31072
-0.332409
0.390842
-0.378003
0.115832
0.262171
-0.540119
0.292947
0.195896
0.0147443
0.311613
-0.0712915
-0.0196839
0.0185686
0.00111532
0.0097668
0.552984
0.211903
-0.166486
-0.0454171
-0.354712
-0.260728
0.0540455
-0.0135105
-0.040535
0.187468
-0.00271856
-0.184749
0.00695891
0.052453
-0.0594119
0.118403
-0.0233861
0.005757
0.130216
0.0172451
0.139644
-0.00232797
-0.0243474
0.440432
-0.157551
0.00395895
0.0245818
-0.581512
0.200856
-0.227041
0.026185
0.164886
0.405141
-0.0859974
0.222291
0.0274264
-0.249718
0.214728
-0.372044
0.157316
0.0258639
-0.00285793
-0.0230059
-0.0710022
0.269917
-0.198914
0.0302268
0.379556
-0.0129675
0.128535
-0.115568
0.19726
-0.518277
0.392116
0.126161
-0.0813412
0.289812
-0.20847
-0.309104
0.654742
-0.259983
-0.394759
0.393379
-0.0954584
0.122412
-0.103113
-0.0111399
-0.396341
-0.01121
0.19576
-0.18455
-0.224788
0.488878
-0.26409
-0.243045
0.0422308
0.272377
-0.459417
-0.457269
-0.059132
0.0599461
0.118951
0.265314
0.405981
0.366391
-0.113998
-0.252393
-0.00807958
0.00823114
0.209265
-0.000425421
0.123035
-0.117638
-0.00539662
0.0784437
0.0103515
-0.0887952
-0.503114
0.383706
0.119408
0.396615
0.182391
0.0853652
-0.0696535
-0.0157117
0.292354
0.101025
0.174474
0.0022008
0.223933
-0.0498841
0.00590677
0.0439773
-0.0145488
0.413546
0.0340859
-0.118913
0.00163114
0.321327
-0.322959
-0.381816
-0.000528829
-0.396589
0.200795
-0.454953
0.347678
0.107275
-0.00285757
-0.0012492
0.00410677
-0.240452
0.0240375
-0.199509
0.614845
-0.415336
0.0845228
0.137769
-0.00223573
0.095879
-0.0936433
0.12457
-0.307462
0.182893
-0.0073389
-0.0425452
-0.0207207
0.0855345
-0.50153
0.562655
-0.0611251
-0.229334
0.0246267
0.204708
0.0285419
-0.00297179
-0.198607
-0.0307277
-0.0751636
0.0658304
0.00933316
-0.504074
0.0433396
0.460734
0.34237
-0.43589
-0.0162319
-0.000505853
0.0167377
0.0206803
0.101229
-0.00561915
0.00134884
0.0042703
0.121363
-0.55687
0.435507
-0.0993376
0.437778
-0.105716
0.00389434
-0.0244227
-0.127905
0.0539552
0.276789
0.107423
0.433843
-0.0943724
0.00578688
-0.172952
0.0868867
-0.0109506
-0.0759361
-0.07188
-0.0108343
0.0827143
-0.391059
0.0656957
0.390044
-0.45574
-0.00872706
0.0667087
0.209511
-0.00747595
-0.202035
0.20252
0.315233
0.0882509
-0.107403
0.0168982
-0.143175
0.344982
-0.56974
0.412095
0.157645
-0.000191313
0.00445353
-0.0451877
-0.217325
0.564415
-0.113447
0.560351
-0.446904
0.0217681
0.0140291
-0.526281
0.0247507
0.640024
-0.15619
-0.473963
0.249174
0.135078
0.330011
-0.446252
0.116241
0.147926
-0.0401222
0.158443
-0.169653
-0.0534878
-0.105811
-0.23755
0.343361
0.000862471
-0.0030971
0.00223463
0.410401
-0.239273
0.103582
-0.0117203
-0.0918622
0.0949327
-0.0993147
0.0404361
-0.499187
0.399779
0.0994081
0.368413
0.132043
-0.500456
-0.0160468
0.136912
-0.204613
-0.358138
-0.0272261
0.410198
-0.117662
-0.348567
0.332907
-0.0097771
-0.0791383
-0.159451
-0.215161
-0.376215
0.0028541
-0.0215663
-0.185379
0.196071
-0.0106923
-0.000863722
0.368141
-0.220066
-0.148074
0.594246
-0.144977
-0.449269
0.560488
0.203779
-0.205551
-0.0753052
0.0699514
0.0120307
-0.0115807
0.206714
0.4004
0.00449451
0.151924
0.185275
-0.51574
0.330464
-0.104488
-0.330536
0.435024
-0.161846
0.0272451
-0.0295731
-0.0213911
-0.189187
-0.295777
0.235264
0.110859
0.0237901
-0.133808
-0.244196
-0.0691145
-0.065986
-0.0991911
-0.399996
0.23841
-0.516004
-0.467525
-0.0406878
-0.192091
0.152208
-0.155546
0.537873
-0.400081
-0.00391915
-0.100438
0.104357
-0.491902
0.358711
0.133191
0.172512
-0.594015
-0.0483334
-0.000746992
0.0490804
0.0259125
-0.0287705
-0.162324
-0.231643
0.393967
-0.00588963
0.0153633
-0.319035
0.258077
0.0609575
0.0269713
-0.0241172
0.152617
0.31341
-0.0134146
0.392421
-0.343471
0.455753
-0.112282
-0.0671204
0.177509
-0.613351
0.435842
0.329121
-0.499615
0.170493
-0.328025
-0.0378789
0.0412994
0.0384863
0.00509875
-0.0435851
0.0341577
0.177745
0.0500185
-0.0573574
0.0824921
-0.323581
0.241089
0.0294323
-0.00193104
-0.0275013
0.0429797
0.204963
-0.00118414
0.43123
-0.309867
-0.140272
-0.353247
0.493519
-0.415238
-0.501961
0.375318
0.126642
-0.0547591
-0.0301045
0.608025
-0.439229
-0.168796
0.258086
0.0215296
-0.279616
-0.370679
0.118936
-0.0949487
-0.00893581
0.0493508
-0.00685008
0.0141442
-0.00729414
0.116146
-0.442156
0.32601
-0.0648835
0.0807893
-0.0159057
-0.227238
0.345314
0.252998
-0.328019
-0.205666
0.509952
-0.310718
-0.215563
-0.00343845
0.00416869
0.312515
-0.0742764
0.0217113
-0.0209018
0.0647764
-0.123427
0.328602
0.105241
0.11377
-0.00421144
0.399753
0.224213
0.25955
-0.0243536
-0.388336
0.236941
-0.00714806
0.0974254
-0.0902773
-0.277261
-0.231417
0.332795
-0.20259
-0.130205
0.436772
0.335802
0.280452
-0.0833384
0.0811027
-0.233239
-0.0969405
0.33018
0.231734
-0.127504
-0.10423
-0.144918
0.47404
-0.00374447
-0.144267
0.016368
-0.0148523
-0.00151574
0.326528
-0.483596
0.157067
-0.131218
-0.0569406
-0.468667
0.0889789
0.37167
-0.0879792
-0.175075
-0.41076
0.585834
-0.0169416
0.0953854
-0.000230577
0.201086
-0.185828
-0.199227
-0.0864423
0.285669
0.108593
-0.478746
0.370153
-0.141654
0.488856
-0.347201
0.641187
0.325246
0.173059
0.396786
-0.532343
0.135557
0.161808
0.0220695
-0.0421493
0.249428
-0.219201
-0.277548
0.422908
0.550775
-0.236662
0.561624
-0.0316422
-0.529982
0.133269
0.000953698