/*--------------------------------*- C++ -*----------------------------------*\
| =========                 |                                                 |
| \\      /  F ield         | OpenFOAM: The Open Source CFD Toolbox           |
|  \\    /   O peration     | Version:  v2012                                 |
|   \\  /    A nd           | Website:  www.openfoam.com                      |
|    \\/     M anipulation  |                                                 |
\*---------------------------------------------------------------------------*/
FoamFile
{
    version     2.0;
    format      ascii;
    class       surfaceScalarField;
    location    "400";
    object      phi_0;
}
// * * * * * * * * * * * * * * * * * * * * * * * * * * * * * * * * * * * * * //

dimensions      [0 3 -1 0 0 0 0];
oriented        oriented;


internalField   nonuniform List<scalar> 
20537
(
-0.378742
0.508981
-0.130238
-0.0497394
-0.143203
0.192943
-0.184556
0.16347
0.0210861
-0.0209839
-0.302503
0.323487
-0.147641
0.163974
-0.0163339
0.297916
-0.452633
0.154717
0.198327
0.201807
-0.400134
0.243498
-0.0881961
-0.155301
-0.455816
-0.0941587
0.549974
-0.0354938
0.205894
-0.1704
0.58107
-0.214834
-0.366236
0.0590392
-0.0821722
0.023133
0.0884134
0.0132887
-0.101702
-0.00278703
-0.0035786
0.00636564
0.677043
-0.546158
-0.130884
0.279044
-0.286746
0.00770236
-0.0477869
0.283236
-0.235449
0.439622
-0.249603
-0.190018
-0.142152
0.149422
-0.00727067
0.0826159
-0.538431
0.347042
-0.368026
-0.0798384
-0.104718
-0.364008
0.584556
-0.220548
-0.690605
0.0985064
0.592098
-0.54951
0.185502
0.21621
0.0272876
-0.0877424
-0.180769
0.268511
-0.00404239
-0.0015013
0.00638439
-0.385127
0.227288
-0.352307
0.125019
0.441972
-0.144056
0.230529
-0.278316
-0.0212348
0.184705
0.443684
-0.48571
0.0420263
-0.602372
-0.088233
0.114439
-0.128824
0.014385
-0.00220204
0.0911152
-0.0889132
0.208362
-0.124748
-0.0836135
0.132258
-0.167752
-0.0104249
0.454109
0.0444876
0.33763
-0.382117
0.488892
-0.663332
0.174441
-0.00459307
0.00275983
0.00183324
0.316906
-0.547036
0.23013
0.554752
-0.237846
-0.00799659
-0.00714626
0.0151428
-0.549823
0.216809
0.333014
0.217742
-0.478648
0.260906
0.172726
-0.260468
0.312552
0.226247
-0.5388
0.164114
-0.0187124
-0.145402
0.148216
-0.076568
-0.0716478
-0.00222569
0.000837178
0.00138851
-0.735416
0.374663
0.360753
0.656346
-0.536873
-0.119473
0.662367
-0.173475
0.65281
-0.295854
-0.356957
0.00490647
-0.00556189
0.000655423
-0.183343
0.410631
0.284032
0.0961897
-0.380222
0.0564967
0.151865
0.0548748
-0.0716107
0.0167359
-0.394284
0.287968
0.106316
-0.143725
0.128595
0.0151295
-0.130164
0.323192
-0.193028
-0.449071
0.145348
0.303723
0.0702853
-0.0724874
-0.575709
0.225361
-0.213941
0.215909
-0.00196817
0.195687
0.243935
0.014794
-0.0181115
0.00331748
0.0879917
-0.0786682
-0.00932356
0.11958
-0.16932
-0.29246
-0.442956
0.28166
-0.585946
0.304286
-0.528235
0.433662
0.0945727
-0.135364
0.0555256
-0.0241891
0.00119222
0.0229969
-0.00164616
-0.174306
0.175953
0.0174689
-0.00142981
-0.172198
0.432606
-0.260408
0.512278
-0.0137209
-0.498557
-0.43435
-0.0512788
0.485629
0.00527601
0.00358342
-0.00885943
-0.313838
-0.0804462
0.0782195
-0.0191803
0.463474
-0.143979
-0.319495
0.0146507
0.164414
-0.179064
-0.261906
0.323471
-0.0615652
-0.358928
-0.248576
0.607504
0.0214353
0.0930037
-0.0830225
-0.321641
0.404664
-0.26603
-0.0904444
0.251294
-0.160849
-0.0279553
-0.233951
0.563232
-0.551453
-0.0117798
0.030605
-0.178246
0.0109142
0.032276
-0.0431902
-0.17773
0.490282
-0.0245926
0.587825
0.0207559
-0.0133372
-0.00741866
0.175952
-0.17327
-0.00268215
0.0755896
-0.382346
0.306756
0.26776
-0.017713
-0.456913
-0.0991479
0.55606
-0.479708
0.378857
0.100851
-0.181534
0.178115
0.00341952
0.523576
-0.681482
0.157905
0.0676616
0.0102105
-0.135287
-0.317346
-0.540922
-0.019406
0.560328
0.273434
-0.632363
0.314124
-0.397146
-0.65149
0.65149
-0.0720842
-0.468837
0.309286
-0.0491347
-0.0509936
0.0619078
0.072332
-0.471552
0.39922
-0.573823
0.575739
-0.00191601
-0.192829
0.562937
-0.370107
-0.00407988
-0.000513192
0.236497
0.0312628
0.0932642
-0.00485086
0.184314
0.463501
-0.245759
-0.77214
0.347101
0.425039
0.219964
0.243538
0.158335
-0.188155
0.0298196
0.0307308
0.316311
0.173521
-0.084834
-0.0886874
0.425229
-0.380741
0.556329
-0.161717
-0.394612
0.0194956
-0.00470154
-0.552352
0.118002
0.247713
-0.572402
0.607114
-0.0347116
0.555001
-0.482669
-0.0722703
0.0892882
-0.0170179
-0.0227245
-0.000484533
0.0232091
-0.0321104
0.016578
0.0155324
0.0128524
0.00790341
0.377305
0.279041
0.165213
-0.562608
0.397395
0.717723
-0.382867
-0.334856
0.411879
-0.0845623
-0.327317
-0.174756
-0.37228
-0.445369
0.621306
-0.175938
0.044704
0.128817
-0.267766
0.466094
0.220913
0.333839
-0.00225615
0.130162
-0.423023
0.616254
-0.193231
0.00855424
-0.0113413
0.309897
0.342913
0.364371
-0.208284
-0.156087
0.304092
0.107787
-0.497122
0.188012
0.309111
0.233813
0.128375
-0.362188
0.0148863
0.13333
0.00320386
0.16091
-0.351896
-0.247172
0.599068
-0.0764079
0.225806
-0.149398
0.0041046
0.000801863
0.164351
0.391978
0.272468
-0.371349
0.0988809
0.640333
-0.229675
-0.410658
-0.692682
0.247314
0.00471158
-0.218652
-0.319207
0.349938
0.0423891
-0.003376
-0.0390131
0.000138653
-0.0243277
0.24053
-0.545238
0.304708
-0.174292
-0.32283
-0.0234593
-0.00865107
0.566008
-0.401658
-0.256164
-0.222484
0.183925
-0.02559
0.533314
-0.508677
-0.0246369
-0.0217854
-0.120366
-0.519019
0.666507
-0.147488
-0.270528
0.0561705
0.214358
0.0157214
-0.130362
-0.362423
0.492786
0.0518523
-0.15657
-0.362485
-0.235239
0.597724
-0.448622
0.614618
-0.165996
-0.17314
-0.275931
0.356988
-0.549817
-0.169695
0.1594
0.010295
0.239019
0.00244996
-0.241468
-0.324462
3.20985e-05
-0.00225779
0.265845
-0.542223
0.276378
0.186348
-0.210576
0.0242281
0.0735576
-0.0186828
0.401239
-0.179025
-0.222214
0.54074
-0.375526
-0.0779593
0.481769
-0.40381
0.459311
0.0740033
-0.428726
-0.0995085
-0.304329
-0.467811
-0.0104764
0.0286117
-0.0181353
-0.580422
0.0842115
0.496211
-0.540346
0.146807
0.393539
-0.027907
0.219908
-0.192001
-0.492837
0.362475
-0.0495768
-0.013491
0.0630678
0.148646
0.140754
-0.2894
0.0294287
-0.00198507
-0.0274436
0.12799
0.442378
-0.570368
-0.0150678
-0.0343678
0.0494355
-0.354404
0.429993
-0.472318
0.0789967
0.393321
0.451555
-0.634704
0.183148
-0.718995
0.430174
0.288821
0.628482
-0.277832
-0.35065
-0.148845
0.393905
-0.245061
-0.00993257
0.00193598
-0.108919
-0.410526
0.519446
0.0312871
-0.00185839
0.265318
-0.116673
0.1941
-0.366299
-0.00261951
0.0468352
-0.0442157
-0.0673807
0.146049
-0.0786682
5.84387e-05
0.0350365
-0.0350949
-0.598844
0.580199
0.0186454
-0.0467335
-0.191343
0.238077
-0.525797
0.068885
-0.005371
0.0027157
0.00265531
0.672308
-0.220753
0.218485
-0.00227521
0.331694
-0.29875
-0.0329436
-0.284982
0.525513
0.539279
-0.155676
0.146713
0.00896215
-0.0572729
-0.252459
0.309732
0.0134046
-0.0629814
0.145116
-0.27528
0.280027
0.437695
-0.455962
-0.0843837
0.114968
0.327005
0.34051
-0.467123
0.126613
0.575294
0.0569341
-0.632228
-0.196845
0.168938
0.456257
-0.555405
0.0287247
0.00429177
-0.0330164
0.194309
-0.0183565
0.472064
-0.450291
-0.0217726
-0.396062
0.293887
0.102176
-0.223751
-0.123301
0.347053
0.659483
-0.38456
-0.274923
0.466185
-0.125675
-0.245755
-0.107626
0.353381
-0.0919707
-0.0311447
-0.120304
0.151449
0.39993
-0.185369
-0.214561
0.25874
-0.0197219
0.00917255
0.0801156
0.00703481
-0.0149176
0.00788279
-0.189667
-0.347328
0.536995
-0.438967
-0.445225
0.347709
0.0975168
0.481865
-0.168048
-0.313816
-0.6298
0.207577
0.422224
-0.13281
0.108782
0.0240288
0.188317
0.212922
-0.367628
0.121873
-0.207084
0.116639
0.0494124
-0.0520319
0.406991
0.157929
-0.56492
0.297932
0.361551
0.185346
0.543776
-0.180926
-0.36285
0.176672
-0.178318
0.25479
0.0242536
-0.534692
0.372975
0.602507
-0.0902288
0.61323
-0.201914
-0.411316
-0.00147502
0.0361454
-0.0346704
0.144429
0.436641
0.0253296
0.549964
0.0800376
-0.557672
0.477634
-0.502572
0.598865
-0.0962934
-0.15138
0.120235
0.0557272
0.426137
0.41863
-0.182699
-0.23593
0.0335217
0.454245
-0.487767
-0.383365
0.498305
-0.11494
0.172608
0.371168
-0.671022
0.327203
0.343818
0.148184
-0.10348
0.149444
-0.332788
-0.105123
0.389155
-0.219028
0.216843
0.00218497
-0.40184
-0.269182
-0.0376834
-0.095127
0.070494
0.170635
-0.241129
0.0502721
0.0279474
0.434728
-0.570456
0.135728
0.0354483
-0.0067236
0.106754
-0.183162
0.0800278
0.203208
-0.0136022
-0.0279019
0.041504
-0.142107
0.366799
-0.224692
-0.353575
-0.126133
-0.0406539
0.037232
0.00342191
0.4812
-0.447678
-0.0151844
-0.145691
0.160876
0.226954
0.0243396
-0.223693
0.373137
0.0111297
-0.0338542
0.22252
-0.152026
0.386713
-0.362035
-0.0246781
0.0480872
-0.0577844
0.00969723
0.650878
-0.257479
-0.393399
0.0554335
-0.279185
0.733139
-0.367955
-0.365184
-0.0468293
0.0453543
0.125249
-0.0154619
-0.109787
-0.508883
0.399963
-0.19119
0.046691
0.144499
-0.262348
0.491051
-0.228702
0.0257401
-0.0187053
-0.00118579
0.453319
-0.452133
-0.454812
0.64336
-0.188549
0.6105
-0.249942
-0.360558
0.1253
-5.0703e-05
0.199592
-0.246326
-0.323735
0.0730439
0.250691
0.108376
-0.369893
0.227786
0.3276
0.0591129
0.387336
-0.60217
0.0195404
-0.00436568
-0.046676
-0.00142362
0.0480996
0.0828859
-0.381446
0.298561
0.0404188
-0.0540209
-0.00239976
-0.0811565
0.0835563
0.384583
-0.0195172
0.205866
0.125533
0.0226505
0.546524
-0.341226
-0.205298
0.044246
0.217245
-0.261491
0.000311048
0.114332
-0.114643
0.111739
-0.238248
0.518422
-0.280174
0.374516
-0.0583184
-0.316198
-0.00621491
-0.0327442
0.0389592
0.0395315
-0.58569
0.652721
-0.0787372
-0.573984
0.174055
0.478666
0.181668
-0.0502185
-0.13145
-0.109366
-0.214369
-0.204287
0.248533
-0.00156706
-0.00380394
-0.493864
0.319572
0.0245963
0.34992
0.358423
0.252076
-0.501913
0.239565
-0.112789
0.569046
-0.0545241
0.5781
-0.183324
0.552901
-0.369577
0.0370757
-0.0432906
0.640434
-0.224069
-0.416365
0.315823
-0.443165
0.127342
0.178698
-0.193882
-0.653987
0.359036
0.29495
0.0688763
-0.0186042
-0.301385
0.235219
0.0661653
0.324194
-0.371662
0.0438458
-0.00145672
-0.119794
0.435617
-0.241754
0.0929098
-0.0314926
-0.196726
0.228219
-0.155618
0.479812
0.0866694
-0.44745
0.360781
0.159147
-0.630698
0.20556
0.216246
-0.421806
0.00316105
-0.00970835
0.00654729
0.638648
-0.0282212
0.0393508
0.224883
-0.103293
0.103604
-0.0329992
0.0296232
-0.669446
0.171123
0.498323
-0.177501
-0.491946
-0.018015
-0.334859
0.352874
0.632132
-0.154663
-0.477468
0.51575
-0.529669
0.0139182
0.388129
-0.305243
-0.0867113
-0.104479
0.00361465
-0.00719326
-0.255825
0.21688
0.0389453
-0.0442319
0.0442903
0.0430784
-0.00890999
-0.0341684
-0.397224
-0.256763
0.232838
-0.422505
-0.0028302
0.00467269
-0.0188059
0.0141332
0.0745182
0.257176
-0.0517936
0.000799989
0.44993
-0.24437
-0.21562
0.184128
0.501135
-0.534657
0.0335221
-0.101738
0.0993379
-0.436134
0.516348
-0.0802141
-0.108107
-0.178639
0.36535
-0.383365
-0.448196
0.341484
0.106712
0.0534887
0.0942611
0.386938
0.318216
0.322117
-0.122656
-0.0210691
0.24028
0.0607393
-0.301019
-0.0149858
-0.00953479
0.0245206
0.347557
0.0114501
-0.359007
-0.134843
-0.454698
0.0303392
0.424359
0.283389
0.182797
-0.330206
0.091964
0.238242
0.16637
0.0152984
0.286831
-0.206803
0.224508
0.403974
0.122154
0.432847
0.495626
-0.401365
0.0932937
-0.541915
0.138774
-0.164545
0.0257713
0.134747
-0.470174
0.335427
0.129714
-0.119422
-0.0102918
-0.0581302
-0.396568
0.0107543
-0.229995
-0.255715
0.109899
0.139914
-0.0603268
-0.0953487
0.444584
-0.357915
0.43857
-0.155181
0.659354
-0.499347
-0.160007
-0.160028
0.00677836
0.15325
-0.321554
0.485268
-0.163714
0.00707692
0.174237
-0.181314
-0.0221142
-0.00347061
0.0255848
0.589647
-0.130336
-0.6521
0.223294
0.428807
-0.540969
0.219415
0.0223122
-0.0105216
0.305866
-0.668351
-0.227788
0.224465
0.00332339
0.00961851
0.561497
-0.154506
-0.487323
0.543445
-0.0561219
-0.403271
0.105688
0.297582
0.131544
0.026499
-0.103067
0.0757969
-0.359042
0.283245
0.093704
-0.0606567
-0.0330474
-0.546198
-0.0526464
-0.563391
0.31345
0.000923142
0.00414146
-0.0050646
-0.0750099
0.347478
-0.457277
0.537314
0.138639
-0.123989
0.46438
0.167752
0.206477
-0.15682
-0.376685
0.533505
0.113915
0.190951
-0.304867
-0.125725
-0.244306
0.370031
-0.429682
0.459527
0.130119
-0.0109133
0.0590005
0.379709
-0.430988
0.203834
-0.197572
-0.00626235
-0.0791323
-0.49327
0.261297
-0.377416
0.11612
-0.653524
0.229201
0.424323
0.562751
-0.562751
0.517752
-0.156287
-0.361466
-0.552984
0.134369
0.517121
-0.187619
0.42031
-0.232691
0.260071
0.109372
-0.369443
0.338322
-0.482301
0.116399
-0.478823
-0.166285
0.667419
0.0140385
0.000561825
-0.0146004
0.00189294
-0.0240071
0.141539
0.321702
-0.46324
0.395967
-0.13467
-0.286439
-0.0437664
-0.266221
-0.200902
0.0122089
-0.00693287
-0.364247
-0.199144
0.218439
0.421995
-0.0752511
-0.372199
-0.15394
0.00254865
0.151392
-0.333518
-0.0656347
0.399152
-0.00649497
0.00663697
-0.000142009
-0.133006
0.544567
-0.411561
-3.39066e-05
0.000871084
-0.242304
0.247375
-0.00507109
-0.213088
-0.450244
0.215662
0.180305
0.0455137
-0.013734
-0.0317797
0.208844
0.00964115
-0.452489
0.455654
-0.00316474
-0.519059
-0.054764
0.350368
-0.45531
0.104943
-0.572632
0.0357585
-0.169119
0.577984
-0.408865
-0.578934
0.187513
0.391421
-0.449199
0.33844
0.110759
0.0226457
-0.017973
-0.157583
0.156418
0.00116451
0.128325
-0.0191502
-0.109174
0.0980883
-0.0912776
-0.00681064
0.0800676
0.326465
-0.67836
-0.0867091
-0.0129081
0.0996172
0.486221
-0.351474
-0.0578423
-0.212686
0.00482775
0.220978
-0.479271
0.21305
-0.263725
0.448039
-0.062551
0.0474832
-0.516852
-0.00991077
0.526763
0.000206967
-0.00670193
0.00506263
0.00762661
-0.018103
-0.148829
-0.139732
0.355393
0.521368
-0.235253
-0.463637
-0.188464
0.267643
0.132287
0.381512
-0.459471
-0.147607
0.0139486
0.133658
0.354141
-0.120328
-0.125122
-0.0224847
0.0738255
-0.00615547
-0.0676701
-0.536913
0.403907
0.149594
-0.154379
0.00265262
-0.0211813
0.0185287
0.378927
-0.0850402
0.333909
0.171781
-0.50569
-0.354617
0.542628
0.337265
0.120465
-0.45773
-0.0151739
-0.154521
0.249325
0.0554264
-0.304752
-0.0186476
0.183061
0.0603475
0.0333565
-0.437651
0.596254
-0.158603
0.00490312
-0.00397998
0.0011685
-0.0266763
0.0255078
0.465994
-0.391132
-0.0748619
0.204641
0.28158
0.208546
0.578789
-0.477816
-0.100973
0.401467
0.48397
0.067598
-0.551568
-0.0962056
0.00949649
-0.225505
0.0172207
0.120123
-0.119705
-0.000417909
-0.0857341
0.102831
-0.0170973
0.211332
0.451034
-0.392298
0.44435
-0.0520514
-0.193206
0.440088
-0.246881
-0.204453
0.154235
-0.142792
0.147462
-0.00466935
0.00218983
0.0204558
-0.00534933
0.0724644
-0.0671151
0.349978
-0.107728
-0.340467
-0.0828534
0.115252
-0.0323989
0.00242449
-0.0977719
-0.00933539
0.107107
-0.118647
-0.137178
0.38174
-0.0937717
-0.573543
0.314522
0.19548
-0.510003
-0.14608
0.693678
-0.482346
0.285659
0.0932674
0.181673
0.484833
-0.160721
-0.395633
0.556354
0.0766925
-0.00286695
0.1592
-0.476003
0.417872
0.294652
0.399026
0.0194224
-0.0476435
0.415182
0.0665875
0.631211
-0.183826
-0.447385
-0.415228
0.563837
-0.148609
-0.0922761
-0.537524
0.555282
-0.00962345
0.0127845
0.428105
0.0439587
-0.0442131
-0.0148473
0.0224739
0.450799
-0.100432
-0.0498177
-0.163888
0.213706
-0.0161713
0.0188239
-0.0207828
0.0187977
0.149281
-0.387529
0.0214008
0.194508
0.0605816
0.518208
0.42881
-0.235488
0.0177439
0.217744
0.00565792
-0.0683792
0.0627213
-0.404831
0.346513
0.000744726
0.119379
-0.274915
0.0352532
0.239662
0.0809963
-0.477816
0.396819
-0.315302
0.242358
0.072944
0.130646
-0.526504
0.395857
0.00105971
-0.453549
0.134892
-0.143667
0.0087745
-0.371709
0.488108
-0.303943
-0.0775037
0.022519
-0.509842
0.146435
-0.226672
0.0802365
0.117272
0.0124413
0.41124
-0.31505
0.103782
0.340802
-0.115862
-0.185523
0.0625935
-0.317811
0.255217
0.148801
0.156831
-0.0180571
0.0412935
-0.108674
-0.303837
0.0716436
0.232194
0.0109729
-0.108745
0.470499
-0.389502
0.0812412
-0.337789
0.256548
-0.385746
-0.00423823
-0.010609
0.134174
-0.488578
-0.632595
0.29029
0.342306
-0.00216663
0.0698282
-0.208352
0.423947
-0.215594
-0.0100484
-0.0229508
0.0321575
-0.0353535
0.00319599
0.00919778
-0.00348651
-0.00571127
-0.00515989
0.143799
0.0807453
-0.516879
-0.0808348
-0.461498
0.486828
0.339768
-0.537206
0.197438
0.122817
0.42175
0.38098
-0.541702
-0.615423
0.272247
0.343176
-0.0287906
0.376347
-0.229172
0.343088
0.701423
-0.406771
-0.0855877
-0.0175752
0.103163
0.0164361
0.0163223
-0.10191
0.160349
-0.543664
0.383315
0.137792
-0.557525
0.419733
0.62648
-0.145348
-0.481132
-0.000767294
0.126301
-0.0179077
-0.0565506
0.0744583
0.110022
-0.150984
0.0409622
-0.0606482
0.129071
-0.590569
-0.451906
-0.0827513
-0.13551
-0.453932
0.589442
-0.255922
0.425873
-0.169951
0.0608402
-0.0848709
0.0240307
0.0530299
-0.0384747
-0.0145552
-0.253044
0.315637
0.24021
0.461213
-0.136932
-0.312267
-0.470602
0.214681
0.15872
-0.162339
0.00361922
0.00236675
0.00151263
-0.00387939
-0.0605112
0.0488739
-0.0608979
0.012024
-0.306096
-0.149215
0.457327
-0.353544
0.134656
-0.00633097
0.0126038
-0.197627
-0.0156807
-0.0664915
0.116956
0.31565
-0.249538
0.150997
-0.0409755
0.359159
0.460508
-0.351299
0.22242
0.387859
0.271494
0.131027
0.0528514
0.0255732
-0.0290438
0.151958
-0.545061
0.393103
0.390443
-0.11338
-0.277064
0.283679
0.098061
-0.567772
0.398654
0.2867
-0.246257
0.418865
-0.0072018
-0.00946157
0.0166634
-0.00334191
0.138234
0.130742
-0.0219609
-0.359638
0.53076
-0.45303
0.560457
-0.400108
0.018091
-0.0040525
-0.0994145
0.0136804
-0.301162
0.243889
-0.00615797
0.0383155
0.165174
-0.58549
0.420316
-0.00865013
-0.483283
0.491933
-0.414759
0.398808
0.0519911
0.0782721
0.00618548
-0.0844576
0.341806
-0.113194
-0.228612
-0.41808
0.0959928
0.322087
-0.242155
-0.411369
0.0725605
0.219465
-0.292025
0.409653
0.216826
0.00138339
0.00327613
-0.00465953
0.0707312
-0.2561
0.0310071
-0.0313312
0.000324042
0.43779
0.0886698
-0.341714
-0.000924458
0.0201014
-0.0191769
-0.00408834
0.000642862
0.00344548
-0.0739484
0.0953837
-0.38213
0.512776
0.0579821
-0.0669295
0.00894738
-0.189877
0.632425
-0.407916
-0.0181714
0.165356
-0.147185
0.182697
-0.17562
-0.134212
0.32226
-0.188048
-0.000734787
0.569419
-0.22918
-0.340239
-0.591358
0.373969
0.21739
-0.011864
0.102979
-0.147989
-0.484606
-0.580422
-0.362611
0.236886
0.119613
0.350886
-0.00471952
0.00610291
-0.208042
0.0448815
0.16316
-0.116293
-0.353982
-0.122021
0.412034
-0.613949
-0.3952
-0.414306
0.566096
-0.0599633
-0.506133
0.23456
-0.40621
0.529027
-0.12442
-0.353133
0.477553
-0.616767
0.244275
0.372492
-0.00378219
0.0410142
-0.537941
-0.518586
0.0164271
0.502158
-0.18626
0.449522
-0.263262
-0.440781
0.333053
0.0214629
-0.0223873
-0.545744
0.003442
0.542302
0.525122
-0.378931
-0.146191
0.0820993
0.0410752
-0.123174
-0.000382539
0.159102
-0.129669
0.513502
-0.383833
0.188291
0.340313
-0.528604
0.209014
-0.389939
-0.00596952
0.0548434
-0.107557
-0.0521476
0.00377433
0.0483732
0.191156
-0.0601291
-0.500205
0.343385
0.580671
-0.40643
-0.174241
0.00300342
-0.000243594
-0.273613
0.482626
0.0953266
-0.329899
0.234572
-0.573161
-0.441271
-0.336328
-0.167168
-0.00704459
0.174213
-0.133714
0.267488
-0.133774
-0.195907
0.366542
0.412675
0.167995
-0.499201
-0.0176506
0.387336
0.137786
0.0950173
0.0234049
-0.459909
0.377496
0.0824133
0.00716265
0.152238
-0.349104
-0.299824
0.388494
-0.146778
0.105618
-0.135617
0.0299992
-0.00838897
0.118071
0.223735
-0.0514784
0.0335847
0.0178937
0.00459135
0.0934969
-0.366756
-0.0740247
-0.0109835
-0.00383171
0.0148152
0.325881
-0.24464
-0.0645865
0.0684293
-0.00384278
0.00399314
-0.0111949
-0.0200842
-0.0273939
0.0474781
0.549827
-0.213914
-0.335913
-0.22507
-0.00697783
0.232048
-0.380592
0.29792
0.0902089
0.00090894
-0.00647083
-0.00740008
-0.530781
0.141437
0.389344
0.586593
-0.594979
0.008386
-0.00378556
0.150499
-0.330129
0.560803
-0.230674
-0.414571
0.561591
-0.14702
-0.00239885
0.0004717
0.00192715
-0.398121
0.563295
0.343185
-0.453303
0.110118
-0.000578067
0.020709
-0.000825754
-0.0198832
0.0868315
-0.446469
0.480379
-0.140611
-0.49813
-0.00378252
-0.00231841
-0.00176993
0.0852587
-0.0244184
0.10956
-0.118895
-0.187034
-0.302363
0.489397
-0.0527496
0.051326
-0.0936959
-0.110757
-0.0833801
0.0654724
0.0104579
0.167657
0.175758
0.00294003
-0.0756702
0.0689902
-0.402508
-0.0580548
0.177635
-0.00674668
0.147794
-0.141047
-0.0108035
-0.0080024
0.498138
-0.0482087
-0.00177251
0.00200688
0.00409604
-0.000903277
-0.0636832
0.0216981
-0.0205296
0.319746
0.115151
-0.434897
0.201454
-0.0219377
-0.179516
0.474693
0.156518
-0.0614798
0.277254
0.113189
0.0652825
-0.0453021
-0.0199804
0.65416
-0.65416
-0.0200041
-0.00720261
0.0272067
-0.538548
0.123978
0.124106
-0.0420062
-0.431334
0.535295
-0.103961
-0.122132
-0.0505195
0.172652
-0.168465
0.19591
0.00554345
-0.0286219
0.0360336
-0.161257
0.125224
-0.150429
0.341381
-0.48294
0.617309
0.0637787
0.162465
0.367274
-0.0581141
-0.30916
-0.371655
0.110189
0.261466
-0.000493448
0.0212024
-0.371123
0.578699
0.605029
-0.38659
-0.439073
0.152587
0.286486
-0.045124
0.0107562
-0.0067899
-0.00182578
0.0232886
0.373238
0.17659
0.091788
0.40635
0.0209386
0.38914
-0.410079
-0.000880552
0.0318877
0.124539
0.529622
0.224325
-0.27346
0.00080838
-0.025481
0.0246726
0.385043
-0.559357
0.174313
0.0864194
0.195802
-0.282222
-0.108048
0.489714
-0.0745323
-0.0466733
0.0282889
0.0183843
-0.270567
0.393338
-0.122771
0.217247
-0.513101
0.0188303
0.104505
-0.123336
0.00563903
0.025648
0.121484
0.0259774
0.322481
-0.227155
0.479327
-0.151568
-0.327759
0.219813
0.385216
-0.00351037
-0.00271166
0.00622203
-0.0148281
0.120446
-0.530958
0.0123728
0.0345475
-0.259618
-0.564356
0.394163
0.170193
0.411915
-0.327704
-0.393258
0.567313
0.0211882
-0.473094
0.145291
-0.14824
0.00294895
0.170934
0.267636
0.451496
-0.108311
-0.103081
0.379362
-0.234236
-0.0168937
0.0132509
0.00364279
0.041505
0.00400864
-0.00831146
-0.219477
-0.0407028
-0.0107756
0.0454678
-0.476802
0.206509
0.0179562
-0.0775992
0.466739
-0.404403
-0.159953
-0.151395
0.430811
-0.279417
0.33745
0.114046
0.0192743
-0.0017698
-0.0175045
-0.148131
0.469833
0.107805
0.0431928
0.434347
-0.114601
-0.237935
-0.570758
0.00424687
-0.00125147
-0.0029954
0.207407
0.368332
0.0263679
-0.109221
0.124226
-0.25794
0.0373941
-0.112611
0.0752165
-0.243553
0.0355108
0.200051
-0.00521963
-0.194832
-0.00397831
-0.200814
-0.0258583
-0.313425
0.0609664
0.0496018
-0.151353
0.402229
-0.250876
-4.20947e-06
0.00266703
-0.00266282
-0.140233
0.176637
-0.0364038
0.608249
0.419445
-0.28527
0.199865
-0.163831
-0.162812
-0.0130885
-0.315416
0.503707
0.0358308
-0.0206633
-0.0151674
0.410289
0.150168
-0.15862
0.00300118
0.000613477
-0.190949
0.609318
-0.418368
-0.108802
0.0870167
-0.257514
-0.144205
-0.361959
-0.0957632
-0.49184
-0.00629056
-0.122551
0.509591
-0.38704
0.384212
-0.267256
0.0796305
-0.0914945
-0.408944
-0.150413
0.064822
0.0204366
0.00246398
-0.00597435
0.242426
-0.0282104
-0.214216
0.00180701
-0.0112686
0.410474
-0.021688
0.587784
0.222346
-0.590301
0.445819
-0.108553
-0.398964
0.135976
-0.111975
-0.0240002
-0.0994631
-0.231144
0.330608
0.338296
-0.514042
0.175746
-0.0920904
-0.325989
0.107422
-0.562233
0.0228903
0.0393916
0.0136383
0.286828
-0.0544433
0.00264969
-0.0098927
-0.0801866
0.0900793
0.434152
-0.11963
0.0586048
0.343195
-0.4018
-0.100918
-0.173997
0.143957
-0.121722
0.496441
-0.374719
0.339342
-0.453272
0.11393
-0.466588
0.399929
0.0666589
-0.421503
-0.164443
-0.345328
0.562137
0.40559
0.0841248
-0.00404136
-0.00494811
0.00898947
0.406427
0.0941262
-0.500553
0.0138476
0.0794167
-0.21365
0.258531
-0.206485
0.279046
-0.57435
0.451799
0.423644
-0.593009
0.169366
-0.128494
0.0543589
0.0741348
0.251733
0.074148
-0.370318
0.554327
-0.40237
0.352059
0.125833
-0.477892
-0.237171
0.457135
-0.291686
-0.147387
-0.155561
0.592965
-0.373152
-0.233362
-0.0195482
0.25291
-0.00435696
0.107442
-0.103085
0.283489
-0.443438
0.15995
0.482514
0.104079
-0.0935194
0.446525
-0.353006
0.360615
-0.156128
-0.204486
-0.195752
-0.181665
-0.300705
0.0697161
0.230989
-0.140303
-0.191829
0.0515958
-0.342304
0.242841
0.334584
0.144743
0.00665573
0.0593099
-0.0659656
-0.146369
0.484665
-0.0288247
0.0192899
-0.107243
0.0912919
0.0159511
-0.0531517
0.277477
0.124334
-0.11878
-0.00555371
0.454206
-0.462856
0.671296
-0.244545
-0.426751
0.124808
0.320625
-0.445433
0.39933
0.0519071
-0.451237
-0.131579
-0.335958
0.467537
0.499995
-0.0935674
-0.495559
0.495559
0.168056
0.386271
0.11976
-0.138473
0.570027
-0.14475
-0.425277
0.555064
-0.387008
0.379083
-0.184983
0.210639
-0.200355
-0.0102838
-0.0111182
0.0893903
-0.0640999
0.332733
-0.256936
-0.143592
-0.473175
0.136952
-0.143699
0.121925
-0.0251441
-0.0967809
-0.0886898
0.326541
-0.0138801
0.120795
-0.129998
0.00920333
0.136115
-0.0292664
-0.106848
0.579005
-0.172544
-0.406462
-0.151367
0.00567597
0.474679
-0.14077
0.352881
0.290479
-0.326056
0.450864
0.0215907
-0.021759
0.000168287
0.0137753
0.111525
-0.112306
-0.357868
-0.0642085
0.39027
-0.364907
-0.133254
0.498161
-0.379688
-0.146109
-0.43453
0.12381
0.31072
-0.332046
0.390651
-0.378418
0.115122
0.263296
-0.540119
0.292946
0.195894
0.014745
0.311537
-0.0712567
-0.0196871
0.0185725
0.00111458
0.00976679
0.552984
0.212067
-0.167062
-0.0450049
-0.354719
-0.260704
0.0538848
-0.0133859
-0.040499
0.187496
-0.00276349
-0.184732
0.00695805
0.0524536
-0.0594116
0.118404
-0.0233863
0.00575906
0.130217
0.0172513
0.13958
-0.00232703
-0.0243493
0.440304
-0.156815
0.00388746
0.0247243
-0.581512
0.200895
-0.227174
0.0262796
0.164886
0.405141
-0.085996
0.222291
0.0274266
-0.249717
0.214728
-0.372043
0.157316
0.0258653
-0.00285714
-0.0230082
-0.0710052
0.26992
-0.198915
0.030228
0.379051
-0.0129552
0.128532
-0.115577
0.197826
-0.518277
0.392116
0.12616
-0.0813412
0.289811
-0.20847
-0.309101
0.654743
-0.259984
-0.394759
0.393409
-0.0954888
0.122263
-0.103433
-0.0121242
-0.396268
-0.0109845
0.195458
-0.184474
-0.224788
0.488878
-0.26409
-0.243044
0.0422304
0.272396
-0.459429
-0.456931
-0.0591511
0.0599511
0.11886
0.265314
0.405981
0.366391
-0.113997
-0.252394
-0.00807947
0.00828644
0.209258
-0.000414411
0.122798
-0.11752
-0.00527768
0.0783908
0.0104247
-0.0888155
-0.503018
0.383575
0.119443
0.396615
0.182391
0.0853649
-0.0696539
-0.015711
0.292363
0.101045
0.17447
0.00220146
0.223932
-0.0498843
0.00590507
0.0439792
-0.01401
0.41334
0.0340672
-0.118901
0.00160901
0.321179
-0.322788
-0.381816
-0.000529713
-0.396562
0.20081
-0.454952
0.347678
0.107274
-0.00287652
-0.001282
0.00415852
-0.240422
0.0240395
-0.19959
0.615043
-0.415453
0.0845222
0.137768
-0.00223548
0.095882
-0.0936465
0.12457
-0.307462
0.182893
-0.00733691
-0.0425474
-0.0207209
0.0855429
-0.50153
0.562655
-0.0611251
-0.229524
0.0244845
0.20504
0.0285439
-0.00297072
-0.19887
-0.0306538
-0.0751611
0.0658325
0.00932862
-0.504073
0.0433396
0.460734
0.34237
-0.43589
-0.0162342
-0.000505422
0.0167396
0.020733
0.101192
-0.00568267
0.001403
0.00427967
0.121363
-0.556869
0.435507
-0.0993373
0.437777
-0.105715
0.00389389
-0.0244235
-0.127905
0.0539568
0.276789
0.107423
0.433946
-0.094604
0.00575357
-0.172922
0.0867392
-0.0109825
-0.0757567
-0.0718801
-0.0108349
0.082715
-0.391548
0.0656956
0.390044
-0.45574
-0.00872292
0.066705
0.20951
-0.00747565
-0.202035
0.20252
0.315232
0.0882561
-0.107406
0.017007
-0.143175
0.344982
-0.56974
0.412095
0.157645
-0.000183019
0.00442989
-0.0451895
-0.217325
0.564427
-0.113447
0.560351
-0.446903
0.0217991
0.0140317
-0.526281
0.0247507
0.639881
-0.155911
-0.473963
0.249174
0.133992
0.33001
-0.446252
0.116241
0.147925
-0.0401204
0.158506
-0.16949
-0.0534932
-0.10581
-0.23755
0.34336
0.000868815
-0.00312989
0.00226107
0.410558
-0.239624
0.103486
-0.0117349
-0.0917514
0.0949545
-0.0993115
0.0403939
-0.499072
0.399665
0.0994077
0.368413
0.132043
-0.500456
-0.0160534
0.136848
-0.204613
-0.358138
-0.0272261
0.410198
-0.117926
-0.348662
0.332907
-0.00977223
-0.079141
-0.159451
-0.21514
-0.376219
0.00286034
-0.0215657
-0.185394
0.196059
-0.0106653
-0.000788976
0.36814
-0.220067
-0.148074
0.59424
-0.144948
-0.449292
0.560487
0.203777
-0.20555
-0.0753032
0.0699539
0.0120647
-0.0115029
0.206714
0.4004
0.00449858
0.15192
0.18612
-0.516053
0.329933
-0.104489
-0.330536
0.435025
-0.161846
0.0272475
-0.0295745
-0.0213909
-0.189185
-0.295788
0.235277
0.110861
0.0237945
-0.133253
-0.245165
-0.0691177
-0.0659885
-0.0991586
-0.399914
0.238468
-0.5163
-0.467907
-0.0410042
-0.192357
0.152204
-0.155545
0.537873
-0.400081
-0.00392026
-0.10044
0.104361
-0.491902
0.358711
0.133191
0.172512
-0.594015
-0.0485856
-0.000452789
0.0490384
0.0259151
-0.0287723
-0.162326
-0.231641
0.393967
-0.00589801
0.0152095
-0.318976
0.257883
0.0610927
0.0269754
-0.0241151
0.152773
0.313221
-0.0135376
0.392395
-0.343471
0.455753
-0.112282
-0.0672424
0.177603
-0.61333
0.435727
0.329128
-0.499619
0.170491
-0.328025
-0.0378801
0.041302
0.0384944
0.00509764
-0.043592
0.0338065
0.178261
0.0500192
-0.0573561
0.0824705
-0.323582
0.241112
0.0294392
-0.00193354
-0.0275057
0.0429807
0.204962
-0.00118453
0.43123
-0.309867
-0.140272
-0.353247
0.493519
-0.415561
-0.50196
0.375318
0.126642
-0.0547642
-0.0301067
0.608024
-0.439229
-0.168796
0.258086
0.0215297
-0.279616
-0.370678
0.118957
-0.0949285
-0.00893237
0.0493511
-0.00682792
0.0141323
-0.00730441
0.116145
-0.442156
0.32601
-0.0648844
0.0807882
-0.0159038
-0.227239
0.34531
0.252999
-0.328009
-0.205666
0.509952
-0.310718
-0.215563
-0.00351049
0.00416592
0.312516
-0.0742746
0.0217137
-0.0209053
0.0652666
-0.123321
0.328515
0.10543
0.113772
-0.00421188
0.399753
0.224213
0.259559
-0.0243398
-0.388335
0.23694
-0.00714636
0.0974246
-0.0902783
-0.277253
-0.231424
0.332795
-0.20259
-0.130205
0.436771
0.335802
0.280452
-0.0833417
0.0811062
-0.233239
-0.0969403
0.33018
0.231739
-0.127502
-0.104237
-0.144915
0.474043
-0.00374878
-0.144215
0.0163711
-0.0148557
-0.0015154
0.326528
-0.483596
0.157068
-0.131216
-0.0569382
-0.468667
0.0889789
0.371818
-0.088139
-0.175062
-0.410782
0.585845
-0.0170032
0.095394
-0.000352192
0.201247
-0.185826
-0.199227
-0.086442
0.285669
0.108721
-0.478682
0.369961
-0.141654
0.488856
-0.347201
0.641236
0.325246
0.173059
0.396786
-0.532343
0.135557
0.161808
0.0220714
-0.0421555
0.249428
-0.2192
-0.277555
0.422903
0.550835
-0.236711
0.561624
-0.0316422
-0.529982
0.133269
0.000952668
-0.00550731
-0.048936
0.105598
0.195452
0.341849
-0.443406