/*--------------------------------*- C++ -*----------------------------------*\
| =========                 |                                                 |
| \\      /  F ield         | OpenFOAM: The Open Source CFD Toolbox           |
|  \\    /   O peration     | Version:  v2012                                 |
|   \\  /    A nd           | Website:  www.openfoam.com                      |
|    \\/     M anipulation  |                                                 |
\*---------------------------------------------------------------------------*/
FoamFile
{
    version     2.0;
    format      ascii;
    class       volVectorField;
    location    "400";
    object      U;
}
// * * * * * * * * * * * * * * * * * * * * * * * * * * * * * * * * * * * * * //

dimensions      [0 1 -1 0 0 0 0];


internalField   nonuniform List<vector> 
13851
(
(1.01807 -0.0100922 0)
(0.662874 -0.0586214 4.95533e-21)
(1.03312 -0.066085 5.19011e-21)
(1.01776 -0.00983837 0)
(1.06225 -0.0623069 0)
(1.01458 -0.0474324 0)
(1.03105 -0.00238352 0)
(1.04064 -0.0475367 6.65606e-21)
(1.00925 -0.000921904 9.97007e-23)
(1.00526 -0.0407748 2.14948e-21)
(0.92571 0.0652279 0)
(0.388499 -0.0382451 1.35768e-20)
(1.00162 -0.0605953 -8.62183e-21)
(-0.0120552 0.0784011 -5.33434e-21)
(1.0196 -0.000637968 1.9482e-23)
(1.03217 -0.0315673 -6.689e-24)
(1.03999 -0.0243633 3.1693e-21)
(1.01588 -0.0210377 4.92728e-22)
(1.09065 -0.0749145 -1.12267e-20)
(1.00911 -0.000944664 -2.10769e-22)
(1.01755 -0.00979425 -1.24205e-22)
(1.03695 -0.0659639 1.84303e-21)
(1.00291 4.89827e-05 1.11432e-22)
(1.00333 -9.44381e-05 -8.83413e-23)
(1.00209 -2.09283e-05 0)
(1.0387 -0.0476021 -6.45653e-22)
(1.04987 -0.0192258 0)
(0.0107185 -0.094818 2.26077e-20)
(1.01798 -0.0101738 -8.55801e-24)
(1.02407 -0.0202741 -6.08668e-22)
(1.00602 -0.0541975 0)
(1.04034 -0.0253329 0)
(1.03146 -0.0636671 -8.92444e-21)
(0.925767 -0.0788029 0)
(1.00413 -0.0001027 1.40698e-22)
(1.08207 -0.0592846 -7.7888e-21)
(1.08755 -0.0614641 -3.77939e-20)
(1.05758 -0.100552 0)
(1.00049 -0.0419759 -1.15846e-21)
(0.938471 -0.115608 1.453e-21)
(1.01577 -0.0069402 2.37068e-22)
(1.00844 0.000369994 -6.55749e-23)
(0.0190224 0.0705644 1.91593e-20)
(0.895091 0.0337232 0)
(0.894663 0.0626323 0)
(0.148736 0.0908684 -1.27049e-21)
(0.896491 0.0105799 -1.59245e-21)
(0.852953 0.167892 1.07457e-21)
(1.05076 -0.0198486 -1.32366e-20)
(0.997316 -0.0152807 -1.40022e-21)
(1.07262 -0.0530425 2.69431e-20)
(1.07674 -0.0596848 2.21186e-20)
(-0.0306342 -0.000748361 0)
(1.01922 -0.000594903 -4.02421e-21)
(1.01131 -0.000732009 0)
(1.00867 0.000394812 0)
(1.00461 -7.33786e-07 1.06035e-23)
(-0.0819777 -0.00967158 -4.15817e-20)
(1.02381 -0.0196069 -1.05904e-21)
(1.03177 -0.00498651 -3.17483e-21)
(1.05397 -0.104063 0)
(0.626794 -0.100923 6.64012e-21)
(0.990068 -0.0103657 4.18547e-21)
(1.06691 -0.0641357 9.09756e-22)
(1.05661 -0.0806292 -2.28619e-21)
(1.01928 -0.0102101 -7.36505e-22)
(1.08848 -0.0621751 0)
(0.906664 -0.0396691 -6.94664e-22)
(1.061 -0.0358943 7.26603e-22)
(1.01534 -0.0200297 -4.86188e-22)
(0.337951 -0.00430776 2.72044e-20)
(1.03537 -0.0653026 0)
(0.599172 -0.0367269 -7.51661e-21)
(1.01917 -0.000622857 3.60292e-21)
(1.01237 -0.00121389 7.27749e-22)
(1.01132 -0.00116127 2.19411e-22)
(1.03868 -0.0640877 0)
(0.456315 -0.00643572 2.20938e-20)
(1.05675 -0.0485202 -1.3904e-20)
(0.319468 -0.0078299 6.40263e-21)
(1.03455 -0.0089714 -7.12027e-21)
(0.909464 -0.0423504 1.50707e-22)
(1.0214 -0.00470952 -7.50073e-21)
(0.122349 0.0682392 0)
(0.987833 -0.0153317 -5.43273e-21)
(0.420721 -0.0315154 -1.17498e-20)
(1.00719 -0.0305691 -1.93206e-21)
(0.733183 0.0665267 4.43303e-21)
(1.04645 -0.0247083 0)
(1.01296 0.000325274 0)
(1.08181 -0.0587826 0)
(1.02213 0.0100208 0)
(0.907224 -0.0742874 -8.96419e-22)
(1.05002 -0.0293481 0)
(1.04704 -0.0239736 4.40998e-21)
(1.00282 -1.2839e-05 -6.44791e-23)
(1.06404 -0.0625196 0)
(0.660292 -0.0217923 2.27551e-20)
(0.992662 -0.0156766 1.28712e-21)
(1.00205 7.2899e-06 0)
(-0.0854905 0.167602 7.35167e-21)
(1.06416 -0.0480578 -7.9548e-21)
(1.01872 -0.0116167 0)
(1.05682 -0.0120728 2.07312e-21)
(1.00326 5.84781e-05 0)
(0.995153 -0.0231394 1.69916e-21)
(1.06742 -0.0496364 0)
(1.0077 0.000306677 4.04691e-23)
(0.933734 -0.064735 0)
(1.02262 -0.0492459 -6.41858e-22)
(1.00217 -2.70273e-05 -1.03559e-22)
(1.01316 0.00035641 0)
(1.02172 0.00783817 -8.91252e-23)
(1.00024 4.06368e-05 0)
(1.00294 -4.43607e-05 0)
(0.742676 0.0720462 1.95108e-21)
(0.692431 -0.0282274 -5.98859e-21)
(1.00713 0.000214841 0)
(1.00494 -0.000256121 -2.35832e-23)
(1.00939 -0.000502004 8.19606e-22)
(0.0137337 0.078862 1.0494e-21)
(1.05572 -0.01246 -3.21955e-21)
(0.972602 -0.0611631 0)
(0.837799 0.108018 -4.49596e-21)
(0.864859 0.154943 -1.15761e-21)
(1.0148 0.00234784 1.62932e-22)
(0.883362 0.150856 -3.41325e-21)
(1.06042 -0.0485256 2.27993e-21)
(1.01726 -0.00952816 -2.27424e-22)
(1.06947 -0.0766911 -1.67258e-20)
(1.01561 -0.00672487 6.81298e-22)
(1.0084 -0.00120004 7.54169e-23)
(0.358332 -0.00913108 -1.88061e-20)
(1.02139 -0.00442796 6.00445e-21)
(0.735917 0.0378912 3.00634e-21)
(1.00813 -0.000540161 2.84985e-22)
(1.00711 0.000189945 1.26541e-22)
(1.0437 -0.0632513 2.83287e-21)
(0.155373 -0.141463 0)
(0.180602 -0.112608 1.76684e-21)
(-0.115008 0.159978 -2.06349e-22)
(1.01089 -0.000695579 -1.40674e-21)
(1.0151 0.000327364 7.38411e-22)
(1.01139 0.000420511 0)
(1.03341 -0.0195958 -1.60331e-21)
(0.892611 -0.00083186 1.1989e-21)
(1.02557 -0.00267232 -1.37304e-22)
(1.0681 -0.0791168 2.54952e-20)
(1.03031 -0.00235557 7.73952e-21)
(0.899957 0.0900038 1.38269e-21)
(1.08357 -0.0497989 -3.29897e-20)
(1.00987 -0.000644019 -1.39514e-21)
(-0.00489247 0.0976647 -9.9004e-21)
(1.00456 -2.01919e-05 -2.87855e-22)
(1.04046 -0.0165541 0)
(1.03272 -0.019362 6.4345e-21)
(1.01157 -0.00320917 0)
(1.02552 -0.0182634 2.44794e-21)
(1.07679 -0.0603924 -2.20409e-20)
(1.07165 -0.0530635 -2.52024e-20)
(1.01112 0.000653101 -5.8925e-25)
(1.05725 -0.026952 0)
(-0.0748986 -0.0138434 2.24122e-20)
(1.00827 -0.00113781 -8.34086e-23)
(1.02639 -0.0263678 0)
(1.00987 0.000421984 -1.99246e-22)
(1.02836 -0.00228275 1.32085e-22)
(1.06232 -0.0361812 3.97338e-22)
(1.01714 -0.00939735 0)
(0.526759 0.00948319 0)
(0.440138 -0.00500297 -2.66734e-20)
(1.00684 -0.000291469 0)
(1.0117 -0.00335943 4.10716e-22)
(0.149528 -0.113652 -1.95334e-21)
(1.00808 -0.00104 0)
(0.842784 0.161023 1.41969e-21)
(1.05915 -0.047979 6.89187e-21)
(1.01372 -0.00131634 0)
(1.08705 -0.0723806 -1.76558e-20)
(1.00835 0.000380731 0)
(1.03992 -0.0267819 -3.73391e-21)
(1.01633 -0.0636856 0)
(1.0213 -0.00380484 0)
(1.03851 -0.0688024 -4.45881e-21)
(1.00684 0.000164674 -5.41386e-25)
(1.00295 -2.68207e-06 0)
(1.01935 -0.0100163 0)
(1.01154 -0.000811835 -3.98108e-22)
(1.06147 -0.0678561 0)
(1.0281 -0.0128244 -2.09932e-21)
(0.897768 -0.0279937 1.23289e-21)
(-0.0417742 -0.00115208 0)
(1.01371 0.000652857 -5.34767e-22)
(1.0569 -0.0373637 -2.96502e-21)
(0.646728 -0.109024 -2.41199e-21)
(1.03894 -0.0161304 3.69795e-23)
(1.01499 -9.15461e-05 6.97111e-22)
(0.92067 -0.142854 -1.39912e-21)
(1.01389 -0.00108761 0)
(1.01144 -0.00121056 -2.19274e-22)
(1.01438 0.00214416 -1.63613e-22)
(0.287532 0.05775 5.53171e-20)
(1.00244 -0.000110198 6.79141e-22)
(1.01792 -0.00549808 0)
(1.02099 -0.0245574 3.72221e-22)
(1.02172 -0.00401011 -6.90291e-21)
(0.422724 -0.167654 -3.79141e-22)
(1.04219 -0.0245921 7.13504e-21)
(0.48151 -0.0195088 -1.66374e-20)
(1.00951 0.000505047 -2.02861e-23)
(0.727481 -0.0472753 -2.03511e-20)
(1.01864 -0.011302 0)
(0.895225 -0.16025 -1.67892e-21)
(1.00797 0.00034439 -1.71694e-23)
(1.01088 0.00045267 0)
(0.97774 0.0701455 -2.19426e-22)
(0.992745 -0.0235738 1.45911e-21)
(0.10558 0.104659 1.34768e-21)
(1.01971 -0.00138761 4.89265e-21)
(0.49616 -0.0214882 1.65176e-20)
(1.04203 -0.025198 -1.3096e-20)
(1.03538 -0.00929997 1.01121e-20)
(0.750584 -0.0401511 0)
(1.07463 -0.0657627 -1.54475e-22)
(0.632668 -0.0434562 0)
(1.00204 7.17989e-06 2.48291e-22)
(1.05092 -0.0328915 0)
(1.00254 3.26515e-05 4.44962e-23)
(-0.0664785 0.0515745 2.14286e-20)
(1.00821 0.000372967 7.4356e-23)
(1.03759 -0.0460211 -4.54674e-21)
(0.990171 -0.0920654 -1.61556e-21)
(1.00671 -0.000264733 -6.98134e-23)
(1.01358 0.00060063 0)
(1.07304 -0.0502027 1.42406e-20)
(1.01551 -0.0371389 3.51834e-22)
(0.472722 -0.162436 -7.7714e-21)
(1.06908 -0.0854694 2.77678e-21)
(1.01136 0.000430201 0)
(1.01824 -0.00561807 1.07747e-21)
(0.998664 -0.0489961 0)
(0.93445 0.0152307 0)
(1.01416 0.000778172 0)
(1.01877 -0.0227102 -4.15015e-22)
(1.00426 7.61937e-05 -5.56349e-23)
(0.578736 -0.036252 1.79694e-20)
(1.06351 -0.0491579 0)
(0.899277 -0.154071 -2.27284e-21)
(1.03173 -0.0197394 3.18711e-21)
(1.03428 -0.0257491 0)
(1.01841 -0.010567 -5.33712e-22)
(0.922451 0.0243467 0)
(1.0295 -0.0125033 0)
(1.03245 -0.0199949 -1.66047e-21)
(1.07195 -0.0455837 -1.71512e-20)
(0.952857 0.0750042 0)
(1.03144 -0.0153552 2.2872e-21)
(1.02723 -0.0623922 -1.21102e-20)
(0.397223 0.00132099 5.58572e-22)
(1.02252 -0.00139815 0)
(1.01093 0.00044152 0)
(1.01578 -0.0178486 0)
(0.986328 -0.164938 0)
(1.01273 0.000610818 -2.95899e-22)
(1.03819 -0.0821253 0)
(1.03835 -0.0162729 -1.25413e-20)
(1.02952 -0.0120259 -3.30851e-21)
(1.04999 -0.0285579 0)
(0.788428 -0.0426527 0)
(1.0241 0.0148335 3.24942e-22)
(1.01698 -0.0109096 1.93991e-24)
(1.03978 -0.0168137 -1.27818e-20)
(1.0183 -0.101428 -1.36899e-22)
(1.05641 -0.046947 -1.35854e-20)
(1.03195 -0.0309389 -3.84809e-21)
(1.00856 -0.00130175 -1.78354e-22)
(0.903176 -0.0627042 9.11976e-22)
(1.03177 0.0164073 -1.39651e-22)
(0.642247 -0.0501646 0)
(0.935934 0.0795345 3.60166e-22)
(1.01441 0.000714128 0)
(1.00915 0.000468947 0)
(1.00348 5.298e-05 0)
(1.07169 -0.0446587 5.76783e-21)
(0.96448 -0.166761 0)
(0.836677 0.152643 2.42444e-21)
(1.0103 -0.00116871 2.77639e-22)
(1.02044 -0.000257036 -1.29574e-21)
(1.00263 -0.102647 1.20745e-23)
(0.925486 -0.079469 -6.89907e-22)
(1.07126 -0.0816249 1.65362e-20)
(1.02431 -0.0191457 1.38651e-21)
(1.032 -0.00543421 0)
(1.05995 -0.039221 0)
(0.931634 -0.0607222 6.65254e-22)
(1.05291 -0.0792504 2.11104e-20)
(1.02799 -0.0258515 0)
(0.418233 -0.0075356 1.44187e-21)
(1.00883 -0.00145846 -9.53375e-23)
(0.599408 -0.0381402 -1.7064e-20)
(1.05704 -0.0262024 1.19985e-20)
(1.03898 -0.0241491 3.24185e-21)
(0.656678 -0.0512992 1.48851e-20)
(1.02011 -0.0104725 1.08595e-21)
(0.997536 -0.0282864 0)
(0.665025 -0.0350824 6.78203e-21)
(1.01002 -0.00113921 0)
(1.06821 -0.0419495 -8.68957e-21)
(1.04903 -0.0298711 0)
(1.02403 -0.0185218 -6.35845e-22)
(0.212053 -0.151858 -1.30844e-20)
(1.02774 -0.0261613 -2.62234e-21)
(1.02793 -0.0123153 -5.88257e-21)
(0.723802 -0.0353091 6.73654e-21)
(1.0088 0.000398347 8.67242e-23)
(1.03471 -0.0263746 -1.47934e-21)
(1.01358 0.00196042 -7.36781e-22)
(0.688518 -0.0533592 -1.32521e-20)
(1.08163 -0.0562769 0)
(1.01997 -0.00153214 0)
(1.06748 -0.0474695 0)
(1.02041 -0.0010238 0)
(0.450539 -0.00399056 -6.19969e-21)
(1.02239 -0.0136594 -4.64672e-22)
(1.00309 2.48114e-05 -5.93541e-23)
(1.01298 -0.00371687 -1.11947e-22)
(1.08109 -0.0558709 0)
(1.05072 -0.0316072 -1.42961e-20)
(1.04132 -0.0155546 -8.0878e-21)
(1.0203 -0.000148294 -1.2787e-21)
(1.02018 -0.0103582 0)
(1.02736 -0.0121475 5.09151e-21)
(0.912168 0.0669085 4.11489e-22)
(0.181039 0.147453 0)
(0.581552 -0.00262254 2.99149e-20)
(1.01071 -0.0143576 8.90906e-22)
(0.700472 -0.0539523 -6.2582e-21)
(0.836447 -0.126846 0)
(1.01951 -0.000620918 -2.05001e-21)
(1.05621 -0.0384115 -3.05092e-21)
(1.07011 -0.0844564 -1.66682e-20)
(1.01659 0.0137462 1.40878e-21)
(1.01006 -0.0470067 2.97178e-22)
(1.07598 -0.0579828 0)
(1.08883 -0.0789743 5.86167e-21)
(1.02054 -0.00239808 0)
(0.902211 -0.197656 7.39569e-21)
(0.639081 -0.0364817 0)
(1.01958 -0.00051523 0)
(1.00293 -0.0155003 8.77881e-22)
(0.999025 -0.013032 -6.67211e-22)
(1.00542 -0.118294 0)
(1.04178 -0.0152042 8.17476e-21)
(1.00888 -0.0500079 -2.9658e-21)
(-0.077036 0.049011 -2.67344e-20)
(1.01193 -0.00350532 -1.2189e-22)
(0.887979 -0.197204 -4.23659e-21)
(1.01293 -0.00362712 -1.66288e-22)
(1.02027 -0.000947314 1.15869e-21)
(1.00487 8.90258e-05 7.64618e-23)
(1.00787 0.000324531 -1.95428e-23)
(1.01106 -0.00295551 -1.98569e-22)
(0.672616 -0.0395485 2.28421e-20)
(0.919483 -0.121952 0)
(1.0202 -0.00739076 1.37288e-21)
(1.0678 -0.0406829 -7.03592e-22)
(1.00959 0.000458027 0)
(0.394991 0.000422701 0)
(1.03003 -0.0306539 -1.52744e-21)
(0.88895 0.180385 -9.51229e-22)
(0.56651 0.00340747 -1.533e-20)
(1.02016 -0.00764141 1.35543e-21)
(0.989771 -0.0250091 -5.599e-21)
(1.04695 -0.0304022 -6.31284e-21)
(0.873734 0.179097 2.39305e-22)
(1.01482 -0.00599805 -3.81407e-22)
(1.00715 0.00022477 0)
(1.02631 -0.00472678 0)
(0.0100819 0.172784 9.31686e-21)
(1.01196 -0.000998749 0)
(0.264355 -0.162321 0)
(1.02024 0.0142441 0)
(1.07642 -0.0581608 0)
(0.429185 0.0186832 0)
(0.970613 -0.0192823 -1.78861e-21)
(0.977259 -0.0261401 1.46878e-22)
(1.01223 -0.00564655 -7.6596e-22)
(1.00895 -0.00148883 1.81496e-22)
(1.01848 -0.000358191 -4.2853e-21)
(1.01231 -0.0140783 0)
(1.06838 -0.0468152 0)
(0.0230775 0.0614443 5.88504e-21)
(1.0642 -0.0354246 0)
(0.672823 -0.0464423 1.31755e-20)
(0.659904 -0.0366385 7.13933e-21)
(1.00956 0.000448917 -1.23526e-22)
(1.02296 -0.00142633 -5.60041e-21)
(0.539382 0.00708437 -1.46889e-20)
(0.351872 -0.00825804 0)
(0.982841 -0.0848976 2.72112e-21)
(0.710025 -0.0321076 0)
(1.02803 -0.00547156 2.3163e-22)
(1.04739 -0.031484 0)
(1.00203 -8.02079e-06 -3.36358e-23)
(0.890018 -0.125858 0)
(1.00806 -0.000530047 -1.4769e-22)
(1.03282 -0.0317949 2.56892e-21)
(1.01255 -0.00504837 1.27801e-21)
(1.02858 -0.00367382 0)
(1.00285 2.75992e-05 1.07666e-23)
(1.00989 -0.00106179 3.57784e-22)
(1.00985 0.000433945 -1.27683e-22)
(1.06747 -0.062593 -1.99534e-21)
(1.02052 -0.0439404 7.60073e-22)
(0.489908 -0.00149069 -2.27454e-20)
(1.01383 -0.0180688 6.40476e-22)
(1.06805 -0.0487001 0)
(1.02493 -0.0175472 -1.69166e-21)
(0.931517 0.0440976 -1.24872e-21)
(1.03319 -0.0267803 3.66374e-23)
(0.989261 -0.119133 0)
(1.03854 -0.0233959 9.2497e-21)
(0.991003 0.0684038 2.23765e-22)
(1.00712 0.00018376 -1.07375e-22)
(1.00964 -0.00103646 -6.49937e-23)
(1.00215 -1.26462e-05 0)
(1.05912 -0.115549 0)
(0.882868 0.0447115 3.24195e-21)
(1.07266 -0.0683024 1.63526e-20)
(1.02514 -0.0154353 1.09835e-21)
(0.45866 -0.0056827 1.81381e-20)
(0.931719 -0.0370678 4.95735e-21)
(1.00372 -0.0268567 1.37903e-21)
(1.00856 -0.00052704 1.33184e-21)
(1.07405 -0.0501468 0)
(1.01464 -0.0057634 3.83411e-22)
(0.925245 0.0596537 1.63249e-21)
(1.00338 5.10838e-05 0)
(0.896158 -0.108177 8.25006e-21)
(0.898474 0.125049 0)
(1.02854 -0.0581003 2.89162e-22)
(0.477502 -0.0163246 0)
(1.01407 -0.000462005 -4.18517e-22)
(1.03893 0.000112733 -2.90957e-22)
(0.887998 0.124268 1.16952e-21)
(0.195875 0.171033 2.14865e-20)
(1.00715 0.000169912 1.13346e-23)
(1.04789 -0.0336858 0)
(1.05808 -0.0490431 7.55743e-21)
(1.02743 0.017351 -3.49659e-22)
(1.00741 -0.000432118 -6.57604e-23)
(1.02673 -0.0124017 7.20334e-21)
(1.08347 -0.0486479 -2.11215e-20)
(1.07622 -0.0594806 0)
(1.00995 -0.0205674 0)
(0.432981 0.0823226 0)
(1.00259 2.39283e-05 -5.32895e-22)
(1.01323 -0.00384451 -2.54813e-22)
(0.0222509 0.0803409 5.29122e-23)
(1.0259 -0.0268942 4.90032e-22)
(1.00887 0.000442631 -3.04045e-23)
(0.648213 0.0869863 0)
(1.00883 -0.00141461 -3.83737e-22)
(1.018 -0.0100808 1.94758e-22)
(1.00797 -0.000635278 -1.10506e-22)
(1.02904 -0.0332739 -2.23593e-22)
(1.02437 -0.0166908 -1.60888e-21)
(1.00923 0.000479649 2.159e-23)
(1.01432 -0.000318728 -3.83963e-22)
(0.751173 -0.0393983 2.84932e-21)
(1.02179 -0.00503297 0)
(1.06417 -0.0378843 0)
(1.00844 -0.000619142 -3.70745e-22)
(1.00834 -0.00740044 -7.07021e-22)
(1.02883 0.0306248 4.90284e-22)
(0.999976 2.15331e-06 0)
(1.01436 -0.00598231 5.24631e-22)
(1.00076 5.19533e-05 0)
(1.00063 -1.30028e-05 1.4065e-22)
(0.818161 0.111613 -4.56086e-23)
(1.03015 -0.0115555 0)
(1.0071 -0.0367126 -5.82805e-22)
(1.02126 -0.00350765 -1.39296e-21)
(1.00288 2.12322e-05 -1.30358e-22)
(-0.113661 0.138825 -1.46165e-20)
(0.463427 -0.0146225 5.7306e-21)
(1.02256 -0.00417126 -1.67171e-21)
(1.0069 -0.00647299 0)
(1.03383 -0.0272191 -6.10405e-21)
(0.933072 -0.00465537 -1.70852e-21)
(0.119411 0.0814621 0)
(1.01327 -0.00396659 0)
(0.9096 -0.105511 -1.13141e-21)
(1.01514 -0.00623395 0)
(1.05624 -0.065353 0)
(1.0297 -0.00481331 0)
(-0.0567991 0.0924605 1.58031e-20)
(1.00682 0.000134723 -9.1868e-23)
(-0.0264995 0.0113698 2.71327e-20)
(1.03806 -0.0174268 -2.1626e-21)
(1.00849 0.00037348 7.49306e-23)
(1.00731 -0.0036401 1.42876e-21)
(0.588324 -0.00451132 -1.468e-20)
(1.03596 -0.0461562 1.03587e-20)
(0.903809 -0.0871105 3.39543e-21)
(1.00616 -0.000317472 4.89824e-22)
(0.880699 -0.00680304 9.41304e-21)
(1.01032 -0.000599831 -2.0618e-22)
(1.00767 -0.000845765 2.05658e-23)
(1.00876 -0.00140429 -6.09301e-23)
(1.02881 -0.00215336 0)
(0.375338 -0.0134358 0)
(1.06993 -0.0519693 -1.57037e-21)
(1.07736 -0.0565834 1.82389e-20)
(1.09272 -0.0618428 -1.34988e-22)
(0.992337 -0.0193266 6.24844e-21)
(1.01145 0.000668742 0)
(0.888717 -0.0706659 0)
(0.874257 0.0503333 7.93339e-21)
(1.04087 -0.0271021 4.07606e-21)
(1.05648 -0.0276516 1.52621e-22)
(0.950371 -0.0053517 1.97324e-21)
(0.838295 0.111862 2.51783e-21)
(0.771749 -0.049498 0)
(1.01722 -0.000379093 0)
(-0.0626099 0.0980977 6.86767e-21)
(0.157737 0.0781061 -2.54306e-21)
(0.229398 0.0790915 -2.09752e-20)
(1.02723 -0.0266437 1.8982e-21)
(1.00616 -0.0023784 -2.83439e-21)
(0.873884 0.151172 3.54511e-21)
(1.03809 0.00741434 -6.53366e-23)
(0.974586 0.0756657 1.92684e-21)
(0.909086 -0.154346 -3.71903e-22)
(0.786586 -0.12594 4.9908e-21)
(1.02513 -0.018589 -2.61978e-21)
(0.769806 -0.133748 -5.42806e-21)
(1.00286 -0.0557702 -3.30596e-22)
(1.00704 0.000157338 -1.05353e-22)
(1.03496 0.0105591 1.07318e-23)
(1.07105 -0.0519947 0)
(0.438749 -0.00900738 9.51402e-21)
(1.03136 -0.0202453 1.60561e-21)
(1.01781 -0.00384434 -1.91019e-21)
(1.01135 -0.00308306 2.65549e-22)
(1.01665 -0.00656214 1.58939e-21)
(1.06243 -0.0658747 0)
(1.02149 -0.0351221 -5.19666e-23)
(0.80829 0.042571 -3.9259e-21)
(0.421873 0.0929828 1.99898e-21)
(1.00735 -0.000385762 -1.11438e-23)
(0.0233074 0.0782863 1.48371e-20)
(0.503293 -0.0144949 1.01366e-20)
(0.975976 -0.0257386 8.98214e-22)
(0.876962 0.0909337 -1.80352e-21)
(1.06289 -0.037599 -4.1725e-22)
(1.00834 0.000386934 1.63106e-23)
(1.00951 -0.000972628 0)
(1.03614 -0.00571722 0)
(0.85651 -0.0636103 0)
(1.04129 -0.0170224 2.6136e-21)
(1.08125 -0.0530545 1.08305e-20)
(1.08037 -0.057792 0)
(1.00862 0.000392268 0)
(1.02773 -0.0222006 -1.02999e-21)
(0.861097 0.130355 -4.42457e-21)
(1.00707 -0.109089 4.87082e-21)
(1.07478 -0.0599351 -6.23284e-22)
(0.385711 -0.0149403 0)
(1.00252 -0.0570935 1.19129e-20)
(1.0153 -0.00646664 8.1134e-22)
(1.02902 -0.00341003 0)
(0.471391 0.149327 -5.94561e-22)
(0.648122 -0.035378 8.03528e-21)
(1.07922 -0.0562137 1.4852e-20)
(1.06512 -0.0345874 -2.37719e-20)
(0.986074 -0.00433221 0)
(1.00814 0.000354296 -2.34426e-23)
(1.01444 -0.00401388 1.14902e-21)
(0.876406 -0.118655 0)
(1.00832 0.00036813 -1.15832e-22)
(1.03066 -0.0199587 -1.50033e-21)
(1.00829 0.00037559 0)
(1.00894 -0.00119027 -2.81654e-22)
(0.984248 -0.0561741 -3.16365e-21)
(1.06511 -0.0641944 -1.24275e-20)
(1.02285 -0.014486 0)
(1.0083 0.000364192 1.16563e-22)
(0.329487 -0.165955 -1.25227e-20)
(0.911578 -0.126193 2.74814e-21)
(1.00905 -0.00158814 0)
(1.00501 -2.7101e-06 0)
(1.01275 0.000578336 3.14994e-22)
(1.01909 -0.000452977 8.17713e-21)
(-0.00493985 0.169237 0)
(0.902127 -0.164078 1.9969e-22)
(0.898566 -0.166134 2.16174e-21)
(0.201722 0.0906474 0)
(0.869861 -0.0506692 -8.50642e-21)
(1.06444 -0.0327432 1.37425e-20)
(0.418881 -0.00590512 1.70514e-20)
(0.459976 -0.0159696 -1.05343e-20)
(1.02126 -0.00180431 -3.70502e-23)
(1.06022 -0.036862 -1.22228e-20)
(1.00844 0.000402503 -1.64331e-23)
(1.0141 0.00257364 0)
(1.03374 -0.0344165 -5.49977e-21)
(0.806937 -0.0451477 -2.22208e-20)
(0.926352 -0.189959 0)
(1.08054 -0.052751 1.14097e-20)
(1.04289 -0.0318962 0)
(1.00874 -0.000839254 1.65718e-22)
(1.03117 -0.0303936 -2.44905e-21)
(1.01701 -0.000360038 0)
(0.908922 -0.0613454 -5.60922e-21)
(1.06957 -0.0550071 0)
(1.02087 -0.00329602 6.71498e-21)
(1.01002 -0.0161722 -8.85392e-22)
(1.00731 -0.000431589 -1.24406e-22)
(1.05143 -0.0274737 -4.29225e-21)
(1.07268 -0.0703311 -2.95583e-20)
(1.03098 -0.00482458 8.90683e-21)
(1.01434 -0.00556198 1.16566e-21)
(1.03001 -0.0310001 0)
(1.02843 -0.00770201 1.61109e-21)
(1.06136 -0.0640377 1.06924e-20)
(1.05258 -0.113096 0)
(1.0738 -0.0650863 3.00401e-21)
(1.03047 -0.0299854 -1.11675e-21)
(1.07946 -0.0565429 0)
(1.00853 -0.000806491 -1.66929e-22)
(0.981541 -0.0677086 -2.52053e-22)
(1.02063 -0.0117897 1.63291e-23)
(0.141124 0.108677 0)
(1.01885 -0.0113662 -7.29798e-24)
(1.00284 -4.02179e-05 -2.36655e-22)
(0.961601 -0.0637278 1.3133e-20)
(1.02035 -0.0165546 -1.18667e-21)
(0.384084 0.0231332 0)
(0.608259 -0.0351354 -1.58549e-20)
(0.0364861 0.114485 2.1669e-20)
(0.636057 0.0856123 2.47495e-21)
(1.00795 -0.000532357 7.18625e-23)
(1.01321 -0.0654485 0)
(1.01504 0.000687999 0)
(1.00884 -0.00130567 2.70768e-22)
(1.00676 0.000134466 5.13553e-23)
(1.00899 -0.00132083 8.30087e-22)
(1.0192 -0.000864352 0)
(1.01274 -0.0169948 -4.59579e-22)
(1.02793 -0.0327353 5.12257e-22)
(1.00802 0.000342713 -1.14209e-22)
(0.780326 -0.142933 4.89027e-21)
(1.03593 -0.0141192 2.25461e-21)
(0.750949 -0.141265 0)
(1.01078 -0.00257427 0)
(1.00642 0.000126965 3.62634e-23)
(1.00418 5.1724e-05 3.86504e-22)
(1.06655 -0.0857936 0)
(0.63683 -0.127358 1.41384e-21)
(1.07652 -0.0443661 3.07474e-20)
(1.05119 -0.0280884 1.27802e-20)
(1.01535 0.000727051 0)
(1.00264 9.27395e-06 -2.34605e-22)
(1.00614 -0.000231969 -4.66092e-24)
(1.01196 -0.00329101 -1.22554e-22)
(1.07768 -0.0559603 1.96687e-20)
(0.261516 -0.0911178 0)
(1.02791 -0.0074268 -1.63115e-21)
(1.00801 0.000338556 0)
(1.02914 -0.00181234 0)
(1.01189 -0.00332642 8.93985e-23)
(0.962513 -0.0900039 3.17228e-21)
(-0.0552339 -0.0178025 -2.91544e-21)
(1.03145 -0.0308475 1.7535e-21)
(0.642161 -0.0161719 0)
(0.862739 0.0546804 -7.48479e-22)
(1.01417 -0.00533037 -3.84275e-22)
(1.07707 -0.056717 -1.08088e-20)
(0.130048 0.171583 -4.33848e-20)
(1.06076 -0.0382284 0)
(0.392077 -0.061069 5.23214e-21)
(1.03391 -0.00920425 6.8385e-21)
(1.01604 -0.0189566 1.03322e-22)
(1.07559 -0.0440886 -2.76398e-20)
(1.01487 -0.0171565 0)
(0.898438 -0.152116 3.26846e-21)
(1.02212 -0.0039492 1.48337e-21)
(0.859804 0.144179 -1.53994e-22)
(1.00321 3.59068e-05 0)
(1.07118 -0.0256453 7.37442e-21)
(0.498945 -0.0199008 1.89226e-20)
(1.01214 -0.00104924 -9.44039e-22)
(1.0197 -0.0143274 -1.57443e-21)
(0.989795 0.000371188 7.55254e-21)
(1.00786 -0.000926496 -4.47443e-23)
(1.03964 -0.0258911 0)
(0.989534 -0.124715 2.75476e-21)
(0.0969613 -0.0682521 6.31693e-22)
(1.06841 -0.0550905 -8.73625e-22)
(1.06164 -0.0861391 0)
(0.956333 -0.021303 7.39522e-23)
(1.00801 0.000346848 3.71343e-23)
(1.01056 -0.00245874 0)
(-0.118153 0.130236 -4.87403e-20)
(1.08057 -0.0577615 4.97187e-21)
(1.01626 -0.0399396 4.62834e-22)
(0.628377 -0.0368879 2.60631e-20)
(1.00932 -0.000521802 1.60317e-22)
(1.01531 -6.96864e-05 0)
(1.00704 0.000159422 -8.17322e-24)
(0.886801 -0.110127 0)
(1.0814 -0.0586407 0)
(1.02762 -0.0240398 -2.08955e-21)
(1.01672 -0.00883291 0)
(1.02097 0.0398699 2.8931e-22)
(1.04753 -0.0209232 0)
(1.00441 6.00147e-05 -2.83178e-22)
(0.0510404 0.0625639 -3.01152e-20)
(0.910043 0.0788693 -1.37095e-22)
(0.565932 -0.0200678 0)
(1.00877 0.000399941 3.54679e-24)
(1.02795 -0.00700781 3.01464e-21)
(0.434439 -0.006983 -1.37139e-20)
(-0.0207656 -0.0761332 0)
(1.0809 -0.0580738 0)
(1.01636 -0.000644125 0)
(0.901664 -0.0566752 9.76105e-23)
(1.02181 -0.00439189 5.04866e-21)
(1.00222 0.0568533 2.54713e-22)
(1.02488 -0.0903962 -2.18443e-21)
(1.02646 -0.0606926 4.42552e-21)
(1.0345 -0.0244497 4.45874e-21)
(0.072638 0.10663 6.82655e-22)
(1.01329 -0.00815829 1.94923e-21)
(1.01797 -0.00295642 0)
(1.08426 -0.0603643 1.83329e-20)
(1.00305 -3.05537e-05 -2.19729e-22)
(1.00138 -4.7142e-05 7.16249e-22)
(1.02461 -0.0172869 1.6265e-21)
(1.00843 -0.000754124 1.19287e-25)
(0.0537557 0.0684509 0)
(1.03669 -0.0339197 -4.26555e-21)
(1.07551 -0.0593843 1.68454e-20)
(1.02298 -0.0131329 -5.66328e-22)
(1.03032 0.0225322 -2.23158e-22)
(1.00887 -0.00090546 1.00192e-22)
(1.00478 -0.144391 -2.86041e-21)
(1.0048 -0.000187652 0)
(1.01233 -0.00746993 3.04854e-22)
(1.0063 0.000112681 1.32353e-22)
(1.01372 -0.004933 1.06981e-23)
(1.01024 -0.000770544 0)
(0.64978 -0.0336106 -1.70172e-20)
(1.01127 -0.00309249 -2.63689e-22)
(1.00734 0.000265796 -1.1917e-23)
(0.957978 0.0984029 7.30154e-22)
(1.02977 -0.00353744 -2.82167e-21)
(0.45562 -0.0100756 -1.27556e-20)
(1.0026 2.24787e-05 0)
(1.01596 0.000179727 -7.43192e-22)
(1.07623 -0.0505654 0)
(0.933705 -0.0849901 0)
(0.947922 -0.129579 2.79833e-21)
(1.00677 -0.000287517 -4.20509e-23)
(1.02547 -0.0793039 3.34605e-22)
(0.668691 -0.0239463 1.45383e-21)
(1.03013 -0.0120231 -5.28467e-23)
(0.749591 -0.0432291 1.26462e-20)
(1.07001 -0.0254913 1.35211e-22)
(1.00815 -0.000672731 0)
(1.02172 -0.0142575 3.83613e-22)
(0.0296919 0.0689498 0)
(1.01787 -0.068427 -3.10066e-22)
(1.03231 -0.025602 3.38954e-21)
(1.00716 -0.000336608 0)
(1.00774 0.000313968 -4.44909e-23)
(0.879117 0.0962629 2.26469e-21)
(1.02048 -0.0628749 -2.95931e-21)
(1.0372 -0.0322883 0)
(1.0275 -0.025335 0)
(1.01919 -0.0154823 0)
(1.01834 -0.000395041 -2.76876e-22)
(1.01617 -4.9303e-05 0)
(1.08402 -0.0525646 2.72712e-20)
(0.870147 -0.0606056 3.77917e-21)
(1.05927 -0.067679 -2.52596e-21)
(0.944025 -0.189525 0)
(1.02742 -0.00672624 -7.74067e-21)
(1.05828 -0.0657002 2.61312e-21)
(1.07439 -0.0542807 0)
(0.711631 -0.0561791 1.50523e-20)
(1.02687 -0.0236898 0)
(0.273413 -0.178119 3.05092e-21)
(1.09579 -0.0635887 1.92802e-20)
(1.03025 -0.00321601 -2.50789e-21)
(0.209899 0.0460223 0)
(0.984009 -0.0585809 -6.52223e-21)
(0.714857 -0.0714664 0)
(0.10183 -0.0455668 0)
(0.669423 -0.031339 1.43644e-20)
(0.928801 -0.0160566 2.35274e-22)
(1.03117 -0.0364741 -4.68976e-21)
(1.00824 -0.000716721 1.10502e-22)
(1.01295 -0.0127521 1.66053e-21)
(-0.0980868 0.0101685 3.60997e-20)
(0.151509 0.05585 1.12403e-20)
(1.01264 -0.00312051 0)
(1.00219 2.76626e-06 6.09608e-24)
(1.07261 -0.0511196 -1.86225e-22)
(0.985722 -0.0402696 0)
(1.00814 0.000330759 0)
(-0.0310684 -0.0339429 -2.71432e-20)
(1.00904 -0.000500506 -1.6097e-22)
(1.0212 -0.00701924 0)
(0.0356012 0.0768219 -1.40639e-20)
(0.440492 -0.0069824 -1.17674e-20)
(0.955278 -0.0313402 -9.09891e-23)
(1.00885 -0.00133007 0)
(1.0203 -0.000748342 -5.93225e-21)
(-0.0283014 -0.0644489 1.72987e-20)
(1.07586 -0.0559497 -2.25682e-20)
(1.07952 -0.0557489 -1.3343e-20)
(1.01744 -0.00229479 -8.65954e-22)
(0.622288 -0.0126297 0)
(1.01424 -0.109268 -2.47657e-21)
(0.680581 -0.119861 0)
(1.06617 -0.049476 -2.50692e-21)
(1.06656 -0.0404771 1.8019e-20)
(1.02722 -0.0125469 -2.93605e-21)
(1.02952 -0.00433194 0)
(0.575693 -0.048769 -4.1006e-22)
(1.07949 -0.0411271 0)
(0.344717 -0.00848889 0)
(1.02816 -0.00892222 1.81489e-21)
(1.06297 -0.03504 0)
(0.0716049 0.0632068 -2.40712e-20)
(0.696437 -0.0605825 0)
(0.484691 -0.0110127 -1.20282e-20)
(1.02433 -0.00431082 0)
(1.06439 -0.0302585 1.39067e-20)
(1.00892 -0.00151235 0)
(1.03074 -0.0303172 3.81849e-21)
(1.01944 -0.0138746 -7.35724e-22)
(0.329497 -0.079276 0)
(1.01024 -0.000101458 -3.21929e-21)
(0.468274 -0.0283233 -2.26931e-20)
(1.00795 0.000310657 -5.84178e-23)
(1.07556 -0.0502351 -1.06507e-20)
(1.01445 -0.0048239 1.82165e-21)
(1.01627 -0.0987255 5.85907e-21)
(1.06531 -0.0335155 1.70926e-20)
(1.06307 -0.0302923 1.31972e-21)
(0.640853 -0.0173813 -1.47036e-20)
(1.07075 -0.0407882 -1.64155e-23)
(1.02946 -0.0345779 -3.397e-22)
(1.00292 -6.27776e-05 -4.06455e-23)
(1.07476 -0.0507148 0)
(0.846966 0.169266 -1.60648e-21)
(0.979068 -0.0233595 2.91541e-21)
(1.0296 -0.0201357 -6.73994e-23)
(0.429235 -0.00631605 0)
(1.01241 0.000559362 -1.4742e-22)
(0.164266 -0.0315006 0)
(0.918303 -0.0848689 2.16466e-23)
(1.0247 -0.0104459 0)
(0.698715 -0.044153 1.12815e-20)
(-0.028704 0.169978 7.94878e-21)
(0.468925 -0.0116812 1.01226e-20)
(0.928901 0.00140179 -1.07003e-21)
(1.02593 -0.0101865 -1.10934e-21)
(1.01255 -0.00342417 7.67221e-24)
(0.555635 -0.0178196 0)
(1.0151 -0.000214691 5.32332e-21)
(0.748612 0.0822977 -1.90245e-21)
(0.4758 -0.020215 0)
(1.01083 -0.00270109 -1.1273e-22)
(1.04678 -0.0109776 9.60313e-21)
(1.06382 -0.110671 0)
(0.895744 -0.12281 -5.24149e-21)
(0.210544 -0.174517 -6.78677e-22)
(1.02586 -0.00824267 0)
(1.00554 -5.61602e-05 -3.34282e-22)
(0.507782 0.108518 0)
(0.488734 -0.0196809 0)
(1.07489 -0.0610308 -2.62298e-20)
(1.03209 -0.0248364 -3.60481e-21)
(1.01644 -0.00288957 2.7091e-22)
(0.91043 -0.0661256 -2.12627e-23)
(0.0171855 0.09047 2.66657e-20)
(1.07432 -0.0548961 0)
(1.00739 0.000266057 6.38762e-24)
(1.03108 -0.03767 4.90315e-21)
(1.0079 -0.000955247 -1.2035e-22)
(1.00538 -0.000162757 -9.73929e-22)
(0.991307 -0.0136797 -8.84256e-23)
(1.00182 7.19777e-06 3.17519e-22)
(0.905703 -0.127188 2.26689e-22)
(0.939124 0.0781229 4.37495e-23)
(1.02116 -0.0072981 7.0076e-22)
(1.01473 0.000302033 -2.18794e-22)
(1.01274 -0.00346137 6.73894e-23)
(1.02524 -0.0176166 0)
(0.380731 -0.00718444 -6.40728e-21)
(0.585535 -0.00137448 -1.62906e-20)
(1.04886 -0.0330378 0)
(0.283158 -0.178905 -3.12653e-21)
(1.01449 -0.00470494 -1.90186e-21)
(1.04676 -0.0331893 1.65904e-21)
(1.01235 -0.00325741 0)
(1.00801 -0.00101008 -2.35673e-23)
(1.02104 -0.0100959 0)
(1.02071 -0.00720719 -6.68559e-22)
(0.422484 -0.0115569 -1.37894e-20)
(1.02266 -0.00446856 0)
(1.07451 -0.0445717 -8.81049e-22)
(1.02446 -0.00466382 2.06452e-21)
(1.03299 -0.0259679 3.5245e-21)
(0.990894 -0.0204371 4.74916e-22)
(-0.00336801 -0.0859575 1.78247e-20)
(1.00562 -0.000291669 -5.94312e-22)
(0.469571 0.148272 6.09204e-22)
(1.0387 -0.0311697 -1.89365e-23)
(1.08972 -0.0564134 0)
(1.03719 -0.0347838 3.51088e-21)
(1.04243 -0.0369626 0)
(0.337213 -0.0064579 -7.04325e-21)
(1.05231 -0.027104 -3.98597e-21)
(1.01764 -0.0357005 1.81226e-22)
(0.335953 -0.064234 2.93533e-21)
(0.931812 -0.0605019 -1.87902e-20)
(-0.0285949 0.0500821 -2.28625e-20)
(1.04474 -0.0446964 0)
(0.911041 0.0916504 -4.50991e-22)
(1.01873 -0.0109255 -5.3212e-22)
(1.06997 -0.0397595 8.27478e-21)
(1.06553 -0.0482638 1.26782e-20)
(0.221491 -0.178378 0)
(1.00603 -0.000193737 4.48022e-23)
(0.133802 -0.149883 -7.28622e-21)
(1.01041 -0.00235058 7.77227e-23)