/*--------------------------------*- C++ -*----------------------------------*\
| =========                 |                                                 |
| \\      /  F ield         | OpenFOAM: The Open Source CFD Toolbox           |
|  \\    /   O peration     | Version:  v2012                                 |
|   \\  /    A nd           | Website:  www.openfoam.com                      |
|    \\/     M anipulation  |                                                 |
\*---------------------------------------------------------------------------*/
FoamFile
{
    version     2.0;
    format      ascii;
    class       volScalarField;
    location    "400";
    object      ddt0(k);
}
// * * * * * * * * * * * * * * * * * * * * * * * * * * * * * * * * * * * * * //

dimensions      [0 2 -3 0 0 0 0];


internalField   nonuniform List<scalar> 
13917
(
6.35953e-05
3.06724e-06
2.36246e-07
8.01341e-09
2.87755e-06
2.37299e-06
-1.04356e-08
4.71809e-06
-1.2659e-08
6.09529e-05
6.12509e-06
1.73249e-08
2.62027e-09
-0.00137871
-1.44532e-06
3.25581e-05
3.48545e-09
4.49812e-06
-4.00799e-07
-1.90879e-05
3.01745e-07
4.09808e-08
-3.86457e-08
3.89436e-08
1.83234e-08
6.21507e-07
0.00487937
0.000184603
1.33325e-06
8.19121e-09
-3.01941e-05
-3.09965e-07
1.47165e-08
0.000400218
-5.82379e-08
5.2365e-05
1.045e-07
-9.95385e-10
-8.01638e-09
-2.79754e-07
9.59417e-10
8.28349e-08
-5.09343e-09
-3.2152e-07
-2.81522e-07
-0.000367904
3.43997e-07
-0.00436605
0.0100023
-5.12021e-08
1.72486e-08
3.31835e-06
-4.92354e-05
-2.55316e-08
-2.01697e-08
3.09697e-06
-0.000730548
-2.78441e-08
7.6875e-08
-0.000224079
0.00190372
7.63288e-06
-2.16278e-09
1.70211e-08
0.0027442
0.000111892
1.6473e-06
1.93871e-05
1.08765e-06
-1.04823e-05
0.0020359
0.000274596
-1.01003e-08
-9.12068e-09
3.02032e-07
4.49418e-08
7.82068e-07
2.75676e-08
3.94561e-08
1.35915e-08
-5.01609e-08
-4.73598e-09
-1.18604e-08
-0.000103301
-1.61166e-10
4.18587e-05
-2.70604e-07
5.89871e-10
-2.785e-07
4.52235e-09
1.85143e-09
-7.00323e-09
0.0107225
-1.27543e-08
-3.76387e-08
2.02244e-06
1.86409e-05
9.68552e-10
4.39611e-10
-9.03968e-06
2.4893e-09
2.6374e-09
-6.63923e-08
-3.11941e-09
7.40044e-07
0.00212381
0.000160076
4.19534e-06
1.67803e-07
0.00416232
-2.23032e-09
0.000466856
1.44312e-06
-0.00918998
0.00262908
6.37774e-08
-3.16561e-07
1.79788e-10
5.86438e-07
-1.02675e-08
-3.99628e-09
-1.72897e-08
2.16373e-06
2.8783e-07
7.09417e-05
0.000380294
1.5253e-08
2.06921e-07
2.90532e-08
1.54801e-07
-4.81772e-08
-1.11665e-05
-0.000540326
6.57834e-08
-3.91778e-07
0.00437401
0.005915
1.73623e-05
7.84311e-07
-3.2151e-09
0.00399678
2.76237e-09
0.00250603
1.03588e-08
-6.69996e-09
4.35865e-06
0.00171754
-0.00221538
-0.00183519
-2.36286e-08
-1.53419e-07
3.84549e-09
-9.70332e-09
-9.87686e-09
0.00130026
-3.53743e-08
-1.46962e-09
-0.000636751
4.06021e-09
1.95098e-09
3.22024e-09
-0.00101481
2.99365e-07
0.00706843
0.000342539
-2.99843e-05
-2.60537e-05
-0.00700411
2.0489e-09
7.45754e-07
6.00506e-08
0.000145574
-1.37826e-08
0.00117324
-4.54853e-10
-3.97707e-09
7.47431e-09
3.92764e-06
-4.03632e-08
4.24901e-07
-2.56647e-09
4.45915e-08
1.64456e-08
-4.72206e-06
1.71596e-07
2.77761e-05
1.47734e-08
-1.42756e-05
-1.03151e-09
-2.45084e-05
-3.2792e-07
-2.6741e-07
8.14141e-07
8.99706e-05
-1.67192e-08
7.18326e-05
1.95979e-09
-0.000630302
-5.44179e-08
-3.02814e-08
2.70209e-07
-2.09869e-05
2.69986e-05
7.09647e-09
0.00386031
2.11374e-06
-1.64559e-07
-4.75371e-09
3.67063e-06
-4.98145e-08
1.08233e-08
5.47163e-06
4.84212e-06
-0.00197103
-3.7465e-07
5.3119e-07
0.000731646
7.16653e-09
4.32029e-09
1.08737e-09
-0.00798472
6.13262e-06
5.62519e-05
2.7815e-09
-9.61954e-10
0.00320265
1.18125e-05
6.72836e-09
3.9291e-09
1.23633e-09
-2.78613e-09
-4.80934e-09
0.000200302
-0.00027115
3.55799e-08
9.25798e-10
1.10575e-06
0.000223551
-3.75519e-09
2.93349e-09
0.0047982
0.00282922
1.44299e-05
0.000688682
1.00088e-06
1.16058e-08
-0.00204271
1.13583e-06
1.31817e-06
-1.37313e-07
-8.78419e-09
-0.000514658
-1.12607e-08
-3.05987e-07
-2.6997e-07
4.88108e-08
7.5931e-10
1.59435e-08
8.87639e-07
1.28786e-08
0.000231611
-0.000620722
-3.64597e-08
5.83041e-09
1.89335e-08
5.7652e-09
-1.12075e-08
4.30567e-09
-4.57062e-08
-4.291e-08
-5.84013e-05
6.54807e-05
2.39862e-09
7.08924e-07
-0.00025238
1.70401e-09
-3.98628e-06
0.000330921
9.67352e-10
6.58289e-05
2.65065e-08
-0.00132047
-3.7831e-09
-1.04808e-06
5.30686e-08
3.02978e-10
-1.35898e-06
6.27438e-09
1.48931e-05
-2.14317e-08
-0.00152683
8.66155e-06
0.00180184
-4.11427e-05
-2.62843e-09
1.72943e-08
1.69105e-06
9.21523e-08
2.48008e-06
3.03383e-08
-8.48471e-09
3.82242e-09
4.00839e-06
7.58746e-06
-2.88587e-07
3.08473e-08
3.1596e-09
-0.000619982
-2.46777e-05
1.48181e-08
1.47558e-06
8.71154e-08
0.00212002
-1.64814e-06
0.000250265
0.00105865
5.61397e-05
-3.65081e-06
4.28384e-07
-0.000212979
-0.000630027
1.56258e-06
3.7914e-09
-1.44317e-06
0.00377263
4.79365e-08
4.23033e-06
-2.6369e-07
3.08726e-09
0.000302868
2.88083e-10
-1.06261e-07
1.73345e-08
-0.000199228
2.76014e-09
-2.2276e-07
1.68461e-06
5.3045e-06
3.63151e-09
-1.66467e-07
0.00154942
-3.00854e-08
4.30014e-08
0.000670634
0.00212055
-0.00238784
-0.000865679
-1.78816e-09
1.19264e-08
0.0029298
-5.10938e-07
-5.24534e-09
2.42834e-06
-5.67996e-09
-7.42631e-07
-2.19825e-07
1.27465e-06
-1.92523e-06
-3.77484e-06
-1.0158e-07
0.000201645
3.1938e-08
-2.37825e-08
1.46646e-06
-2.08209e-06
-4.21598e-09
5.52514e-05
-1.04295e-07
-0.000121816
-1.96883e-08
-1.81495e-06
-3.64044e-07
0.0186227
4.72144e-08
5.26152e-05
-0.000297353
1.97652e-06
2.37349e-09
0.00125108
-2.00392e-07
0.000426797
2.76584e-07
-2.65775e-10
0.0146126
9.9439e-08
0.00102882
1.1648e-08
4.78842e-05
0.00108788
7.31008e-08
0.00215107
-3.04985e-06
-3.47864e-08
-0.000965878
-1.07137e-07
5.28453e-08
-1.71092e-06
-4.4666e-09
-3.85558e-06
3.64731e-07
3.52488e-10
-8.26657e-09
2.4574e-08
4.51586e-09
-2.6946e-09
2.34314e-08
0.00643902
-2.2984e-05
-2.27862e-08
3.00035e-08
2.25135e-08
6.33543e-08
-9.84947e-05
5.26082e-09
1.5294e-09
-1.43296e-06
-2.63631e-06
1.51634e-09
6.66057e-08
0.0010196
0.000493001
0.000193887
-4.73484e-07
-0.000622334
-3.50098e-08
1.57046e-08
4.89718e-07
-2.1216e-09
6.84651e-09
3.63827e-08
1.39332e-08
-3.68623e-08
-0.000567662
-9.40639e-09
-4.37698e-07
-5.44565e-05
3.95158e-08
1.22358e-08
-5.97168e-09
-0.00135761
3.43722e-07
2.11537e-05
-4.98743e-08
4.96629e-09
-3.33026e-07
-8.10106e-09
1.00372e-07
1.34305e-07
0.00105925
-2.31349e-06
0.00253115
4.53127e-09
-4.17539e-08
1.55505e-06
-2.56557e-08
1.31333e-06
-0.00202904
-1.43035e-09
-0.00392335
1.38827e-08
-1.08016e-09
1.80349e-08
7.10802e-08
6.36982e-09
4.67512e-10
-0.000541205
3.21786e-05
5.01059e-09
0.00176174
-1.08996e-06
2.88566e-09
5.73565e-08
-3.72948e-07
-0.000770482
-1.07668e-08
0.00187484
-0.000369763
-0.000166999
1.10556e-07
0.00016908
6.50187e-06
-2.53552e-08
-0.00262161
2.53061e-09
-2.21297e-08
-3.64296e-08
-9.3411e-09
1.1688e-07
-1.4068e-07
-9.02867e-08
1.55728e-07
9.07236e-07
2.78448e-06
-9.39421e-07
-2.50732e-08
0.00403707
-3.57856e-08
-3.25078e-08
-0.000303517
-2.53346e-10
-1.01967e-06
4.34607e-06
7.94721e-10
-0.000484221
-1.69539e-09
-9.49517e-09
4.10986e-08
-2.21941e-08
-3.05308e-10
3.57481e-06
-0.000717438
0.000789011
2.27709e-09
5.85991e-09
4.75249e-08
-0.00343953
0.00206472
-2.57064e-08
-2.30215e-08
2.96844e-09
-2.14072e-07
-0.00294201
2.98274e-08
-4.1697e-09
-4.605e-08
4.07431e-09
-3.1336e-07
-3.5597e-08
1.34225e-09
-8.24721e-08
8.54054e-10
3.28547e-08
2.314e-08
0.000346844
-1.25921e-09
4.07042e-09
6.28148e-10
-4.06822e-08
9.78478e-08
-4.72894e-07
-1.35777e-07
-9.46608e-06
3.01942e-08
3.61885e-06
-0.000615583
0.000170182
-0.000112251
-2.93182e-09
2.32621e-09
4.51779e-06
9.14496e-09
0.00255944
7.10202e-09
-0.00490761
-3.92606e-09
-0.000167949
-4.82834e-06
-3.63338e-09
-1.72021e-05
2.49104e-09
-3.21594e-07
3.20195e-09
-6.35447e-08
-6.26771e-05
1.75607e-08
7.01452e-07
-2.6167e-09
3.14782e-09
8.76357e-09
4.83776e-07
-2.13205e-08
4.68721e-09
-3.85432e-07
1.29639e-07
0.00177573
0.00106217
-0.000684828
-0.000185968
-1.20935e-09
2.4788e-05
-1.64239e-09
0.00436567
-0.00623745
1.97641e-07
-4.9861e-06
3.67306e-09
-3.86705e-08
-1.87719e-09
1.58843e-08
-2.0969e-10
3.26083e-09
0.000468576
-1.39795e-09
-2.65483e-07
-2.38056e-08
3.72351e-09
3.70117e-09
0.000122187
-0.000715228
-0.000100879
-1.13618e-07
-3.4131e-08
0.000837771
0.00029253
1.28636e-08
-0.00317776
2.60471e-09
-8.96626e-07
8.0141e-09
0.000812461
2.87222e-09
-4.14608e-07
-9.14231e-09
0.00132829
-3.68908e-08
0.0021745
3.53842e-09
-6.36809e-08
8.18267e-09
3.6043e-09
0.00025227
-2.22292e-05
3.40155e-10
1.01565e-06
2.98948e-09
1.17593e-07
3.67725e-09
0.000361879
-2.39083e-09
1.49236e-06
7.20142e-09
-5.31533e-09
-2.07205e-06
4.16649e-09
1.11875e-07
-1.57954e-09
1.87278e-09
0.00395358
-2.93019e-07
-2.52618e-08
-4.66287e-05
2.51913e-06
-0.000139612
4.30447e-06
1.37805e-09
-1.82719e-06
0.000306668
-1.04586e-05
3.93803e-07
1.16725e-07
-4.72855e-07
-2.13669e-09
-7.99637e-10
-9.14238e-05
4.41682e-07
2.42705e-08
-0.00207649
-2.71352e-08
0.00403725
0.00197582
3.01126e-06
-1.55156e-07
-2.90303e-07
0.000113885
-1.03054e-08
-1.20114e-07
-0.000742225
1.60713e-09
-3.39425e-09
4.12308e-09
-6.86891e-07
-2.7456e-09
6.69268e-06
-6.807e-08
-1.33693e-09
-2.77301e-07
2.4183e-09
0.000233026
3.13258e-08
2.96531e-08
-0.000755378
8.71701e-08
-0.000236892
-5.23607e-09
1.935e-09
7.73106e-09
3.42146e-09
-1.82003e-08
-1.20247e-08
5.88595e-05
-7.62229e-08
-0.000315769
-0.000369689
-2.97254e-06
-0.000645991
6.42253e-09
-7.13697e-09
1.53914e-08
0.000397644
0.00160278
-5.30882e-09
6.32393e-05
-0.00300845
3.01101e-09
2.2718e-08
7.23338e-08
0.00154751
-0.00106249
-3.56891e-08
3.05042e-09
4.92047e-09
-8.57741e-07
3.08626e-07
9.1708e-07
-6.21235e-08
-4.13644e-08
1.49875e-08
-5.41469e-09
-1.90761e-08
8.54809e-07
3.88453e-06
1.21807e-07
1.79163e-06
5.11686e-05
1.41754e-06
-0.00416269
9.41728e-08
1.02616e-06
-4.50506e-09
-9.07018e-06
-2.97312e-09
-2.70472e-07
-0.0002898
0.000916673
1.08551e-08
1.14014e-07
1.88722e-08
3.09532e-09
-1.13167e-08
-3.70642e-07
-3.73928e-06
2.03891e-05
4.18443e-07
-2.13285e-09
-1.70153e-05
-1.20917e-08
-8.31362e-09
2.06684e-07
6.62406e-09
-3.29518e-07
0.000452798
2.15994e-09
7.32272e-08
-1.18529e-07
-5.79577e-08
7.06542e-09
9.43063e-09
2.37108e-09
-3.34603e-05
1.47745e-08
4.20902e-08
-1.05824e-07
-9.60639e-09
1.65048e-08
2.92508e-06
2.85978e-05
-5.05679e-06
6.83588e-05
-5.11743e-07
0.00290776
-1.11615e-08
9.54354e-07
2.67686e-05
1.53266e-07
-2.12998e-05
3.99575e-09
-4.03572e-09
4.22111e-10
1.65446e-07
-9.15339e-07
9.38409e-09
0.000314267
-1.01516e-07
-0.00919182
9.59249e-08
-1.2855e-08
4.3673e-09
-1.49669e-07
-1.06212e-06
-0.00206262
-8.71457e-06
3.54166e-09
0.000276908
1.66777e-08
0.000182
-3.28128e-09
-9.09616e-06
3.14035e-07
-1.58645e-08
9.76552e-09
0.00102552
-1.95079e-08
-0.000188945
-0.00140547
1.99078e-09
-5.80759e-08
3.09155e-09
5.22551e-08
-0.0017215
9.11524e-10
-0.000102057
3.00141e-09
-1.81566e-05
-2.33704e-07
0.00313053
-3.01172e-09
-5.88612e-10
-1.56351e-06
-1.62798e-09
-2.49142e-08
4.07085e-08
-1.28143e-08
-1.09217e-07
-1.73959e-09
-1.19052e-05
-4.29577e-08
2.91435e-05
0.000172249
-0.00224445
0.00269567
-0.00016702
2.63918e-05
0.00477651
1.42535e-09
9.65313e-08
1.26233e-08
2.21827e-08
3.34501e-09
-1.86779e-08
1.18147e-09
0.000147199
-2.46248e-08
-0.00039014
1.42113e-08
-3.98331e-08
-3.32578e-06
-1.42226e-08
-4.1493e-07
1.76187e-08
-1.09918e-07
-9.12294e-09
-1.96661e-07
-0.000347675
6.78643e-07
-0.000492805
1.26637e-08
-5.00195e-09
4.60281e-08
-1.01345e-07
0.000384924
2.70493e-09
-2.75738e-05
2.50219e-09
-0.000389564
-8.31544e-07
1.27935e-08
-2.94622e-07
1.08301e-05
3.38192e-09
-6.98447e-05
-0.00327225
-6.05181e-08
-1.86728e-07
-8.16713e-09
-8.96562e-08
8.82145e-08
-8.7978e-08
0.0001333
-2.20079e-09
8.54275e-09
-2.67096e-07
9.33995e-05
-2.03582e-07
0.00408225
0.000992017
1.16584e-07
2.99043e-07
-7.16932e-09
-0.000839318
-3.95614e-09
-3.92953e-07
1.89314e-08
-0.000594322
-1.04119e-06
0.0049996
2.94175e-08
4.84091e-09
0.00077362
2.48461e-09
8.80229e-07
-0.00047166
1.79767e-08
-3.74545e-09
-0.0002993
9.91075e-08
1.1348e-07
2.8532e-07
4.67867e-08
0.00258478
-3.18264e-07
-4.29059e-07
4.05784e-06
4.89418e-09
-0.000257248
-5.45028e-08
1.25175e-07
5.71524e-09
0.000122234
-0.000298557
-7.09241e-09
8.69346e-08
2.18598e-08
-2.44335e-08
1.48726e-07
2.25645e-08
-2.19334e-08
9.42399e-09
-4.50947e-08
2.35615e-09
6.62201e-09
-2.68992e-07
0.000225908
-0.0016655
-2.44074e-07
4.6959e-08
0.000303693
2.45029e-09
1.27826e-05
-0.00294488
7.85852e-06
-7.01907e-09
2.04147e-09
-2.43222e-09
-2.16063e-09
-6.58165e-09
-2.95938e-07
-7.1007e-09
-1.47836e-07
-4.04737e-09
-0.000109465
0.000568821
-5.97609e-09
0.000953264
5.15899e-09
1.94801e-08
3.10926e-06
0.000420951
-1.21122e-06
2.775e-09
-0.000472148
-4.43063e-08
3.75837e-08
0.000120698
1.80157e-07
0.00102114
8.82824e-09
-9.32212e-06
1.2221e-08
-3.90633e-08
2.45619e-07
0.000514059
2.67128e-08
0.000437532
1.39982e-05
-1.29489e-08
3.79883e-07
-5.53621e-09
8.03925e-09
-6.98236e-07
-6.41752e-08
2.61982e-08
0.000479105
-0.0001173
0.000280216
-8.13739e-07
-3.5929e-08
0.000206151
-2.23922e-08
0.0028234
-2.5819e-08
-8.44521e-09
2.65527e-08
0.0089559
0.000121871
0.00263367
1.87984e-06
-0.00900441
-7.85372e-09
-1.47163e-09
-7.06258e-08
-4.40375e-08
1.82188e-08
-0.000399084
6.98341e-05
-3.28899e-08
-2.25539e-08
0.000222866
-3.21985e-09
-1.01504e-08
-0.00535482
-0.000114607
1.87286e-08
-2.22736e-09
-8.94106e-09
-2.09086e-09
3.65543e-08
-1.48797e-06
-9.00189e-08
1.09106e-08
0.00136995
2.70621e-06
-0.000773188
-0.00255388
1.21208e-05
0.000207103
-6.28529e-09
1.5472e-08
6.94838e-05
0.000121299
0.000922174
-2.90971e-06
5.1139e-07
-4.54179e-09
9.10858e-09
-1.933e-07
-0.00184521
-6.19466e-06
4.91677e-08
-1.04904e-07
5.58778e-09
0.000826814
-1.46999e-07
-1.0266e-06
-2.54818e-07
4.88577e-05
-0.00085724
4.66874e-05
0.00112386
-2.3406e-09
7.64614e-05
-9.8263e-09
-3.02794e-07
1.03864e-06
-0.00148227
1.51379e-09
-6.40083e-08
-1.95954e-10
0.00339898
-1.16942e-08
-0.000405387
-7.01181e-08
1.65724e-07
0.000445237
-4.33341e-09
-9.94734e-07
7.09625e-08
-7.76974e-09
2.27957e-06
-0.000255089
-5.08102e-09
-6.36128e-09
2.60879e-08
0.00311722
-3.83456e-09
4.30215e-09
-3.58848e-09
-4.76069e-08
-7.30214e-09
-2.81543e-06
-3.38541e-07
5.61226e-08
7.18982e-09
-5.46505e-06
-4.87505e-06
1.0843e-06
-0.000397672
5.1888e-09
-1.21073e-09
0.00123912
3.41986e-08
1.88427e-08
0.00120788
0.000200445
3.91901e-07
-5.10511e-07
4.16035e-07
-7.47189e-07
-1.98046e-05
1.62691e-07
0.00190713
3.02373e-08
1.12658e-06
-4.12159e-05
1.70347e-06
-0.00418144
0.00998908
-2.82036e-08
2.97198e-08
3.30872e-09
-5.46682e-09
3.85964e-08
2.42032e-06
-4.09042e-09
-2.0763e-08
2.06483e-09
-2.31559e-07
-0.0011849
4.34312e-08
-0.00342456
-0.00489051
-1.99787e-10
-4.15879e-07
-1.47977e-07
2.94143e-08
2.24739e-09
6.85959e-05
-1.35513e-07
9.96366e-05
6.79472e-08
-0.00444093
-6.30676e-07
3.50351e-08
-0.00373305
-5.92531e-08
-2.23856e-06
1.3955e-08
-4.69145e-05
3.54957e-09
1.42109e-07
3.45612e-07
-1.12532e-07
-3.29905e-09
-1.19757e-07
0.00441902
2.21707e-09
1.06164e-05
-1.73564e-05
-2.25047e-08
4.75776e-09
2.39931e-06
0.00158174
0.0003005
-1.37948e-08
-3.74189e-08
-1.41389e-05
0.00508332
-2.97017e-05
1.68778e-08
-9.26107e-12
-2.30142e-08
-5.64079e-09
1.58712e-08
5.90022e-08
0.00264225
-7.92991e-08
3.7822e-09
-0.000166933
-8.2984e-06
-2.29407e-07
-0.000204601
-0.00436238
-7.83883e-09
2.12041e-09
-1.28844e-10
-8.06565e-11
-3.26673e-07
7.51042e-05
8.20602e-05
-3.26911e-06
3.87336e-07
-1.07227e-07
-1.0502e-09
-2.42281e-05
1.84579e-07
-3.56182e-07
-3.24666e-08
-5.40499e-07
-2.9197e-05
7.61867e-10
-1.29537e-08
0.00101635
-4.16703e-09
-3.15682e-05
0.00045577
2.9932e-06
1.75445e-08
-0.000557124
2.07765e-08
-2.4218e-09
-0.00292239
0.00203739
-3.42187e-08
7.55587e-07
-1.97229e-07
-4.4656e-08
1.30164e-08
2.0634e-09
4.50641e-09
8.83321e-09
4.30912e-09
-4.66557e-08
-7.45346e-07
0.000118244
-9.04649e-08
-4.21987e-09
-3.47763e-08
-9.91937e-07
-6.1148e-09
2.31871e-07
2.44165e-05
-4.63404e-06
-2.63321e-05
-7.24865e-08
5.4417e-09
9.6943e-05
-3.26459e-11
0.000670059
1.3007e-08
-4.41693e-07
-4.02451e-09
-3.01305e-10
-1.70035e-05
-9.64928e-09
-1.02663e-07
-4.77981e-09
0.0108073
-7.23274e-06
0.000285091
-7.9755e-08
3.14972e-08
0.0130641
2.65815e-09
-3.48563e-08
-5.70697e-06
-0.00210419
5.05942e-08
-3.12935e-08
1.28091e-08
0.0023855
-2.17993e-09
3.67956e-08
-4.78514e-09
5.85702e-09
-3.738e-06
-3.20377e-09
7.39341e-09
0.000377766
-2.43631e-07
0.00622537
-2.9595e-06
-2.79118e-09
-2.41207e-08
1.47714e-08
3.93882e-09
4.18173e-07
-8.44164e-10
-1.77653e-09
-4.78923e-06
1.71314e-08
7.16402e-07
2.3658e-06
1.02213e-06
-6.11792e-09
1.31534e-06
2.54009e-08
-0.000123072
-1.75209e-08
0.00210273
-2.46312e-07
2.96463e-10
-1.24751e-07
-2.97822e-08
-2.35404e-08
-1.95345e-08
7.03499e-07
-1.58251e-09
1.46488e-09
0.000150656
1.81729e-06
3.56736e-06
-7.51744e-10
-3.81266e-08
2.05791e-07
4.56926e-08
8.87072e-09
0.000257243
1.49855e-09
-4.63117e-08
1.98908e-09
1.22485e-08
-1.82266e-08
0.000234713
5.05718e-05
-2.48314e-05
0.000704202
-1.47867e-06
5.49625e-07
-3.02642e-07
-0.00130611
6.09907e-10
-1.76168e-08
3.50427e-08
-0.00141928
1.3166e-08
0.000790563
1.89805e-09
-3.21241e-09
-5.08463e-06
3.61844e-05
3.14738e-05
0.000134711
-3.37627e-09
-7.27797e-06
0.000142701
1.88854e-08
-0.000921662
4.75961e-09
-3.84186e-09
0.00323721
4.57816e-09
0.00101354
0.000134215
1.10275e-09
1.0194e-08
2.23727e-08
-0.000619632
3.00058e-09
3.13448e-09
-2.99406e-07
-3.19164e-09
1.19193e-08
1.10621e-06
-2.70414e-09
-1.04934e-07
5.86133e-09
3.62517e-07
-6.7849e-10
0.00200934
-5.53483e-05
1.62948e-10
7.10118e-10
1.8573e-08
9.01411e-10
4.08548e-09
-4.83871e-08
3.919e-08
1.7559e-09
9.28157e-10
-5.44048e-09
6.32827e-09
1.86023e-06
1.07947e-08
-1.06566e-07
2.72707e-08
4.91087e-06
-9.48967e-09
-2.23882e-09
-3.85993e-09
-3.60838e-08
-1.04962e-07
-9.19498e-07
-6.21439e-09
0.00783858
-5.81666e-05
-0.000401592
6.02107e-05
-2.16178e-07
0.0027282
3.52459e-08
5.42632e-09
0.000553069
0.00322159
3.05316e-07
0.000281805
1.03898e-08
-1.46454e-06
-0.000401145
5.46729e-09
-9.86507e-08
-0.0056868
0.00303381
-6.53777e-11
-1.17322e-07
-7.19178e-09
0.000655963
3.74492e-09
0.0013054
-3.62674e-05
5.62145e-09
-3.68976e-05
6.97014e-05
3.75528e-09
-0.00348328
-0.000271453
5.23538e-08
-1.47381e-09
-0.00111694
0.000303349
1.61262e-08
-3.59888e-08
-1.53252e-08
-2.37052e-05
3.48187e-06
-2.23265e-08
-1.37844e-08
0.00131959
-7.603e-09
-1.29099e-09
7.46327e-09
-6.59888e-09
-0.00158958
-1.43201e-06
-2.00231e-08
0.00023853
4.54672e-09
-8.13075e-07
-1.13615e-08
-0.00125286
-2.63233e-07
0.000770071
-4.57917e-09
-1.3539e-08
-4.64537e-09
-1.61546e-09
-4.32894e-09
-1.93179e-08
-0.00325182
1.96225e-08
-5.46567e-09
6.18081e-10
-7.94084e-05
-1.67188e-09
0.00185633
3.36892e-05
-0.00267104
-3.95743e-08
-1.71833e-08
-3.56358e-09
0.00336182
-2.71898e-08
0.00320339
2.22094e-09
-0.000291762
3.6963e-08
-2.28765e-07
-2.77598e-05
-2.1405e-08
2.96159e-09
0.000294172
-3.51583e-07
0.000769012
2.57389e-08
-0.000324481
-0.00120446
7.66942e-09
0.000423033
-3.58427e-09
-7.04037e-07
-0.00266853
-2.3211e-07
2.01169e-06
0.00011131
1.07249e-06
-9.69933e-08
-6.76052e-09
0.00208643
1.93679e-09
0.00120337
-2.51658e-09
5.36102e-05
-4.03482e-10
7.38291e-10
2.22558e-07
-0.00937385
-1.26812e-08
-5.02416e-05
-1.46297e-06
-0.0018744
-7.75992e-09
3.21727e-07
0.000181627
-3.87006e-05
0.00106667
1.0454e-06
-9.54449e-09
5.10414e-07
-0.000177138
-9.68534e-08
0.000339521
1.52272e-09
1.26309e-06
-1.39233e-05
-1.57413e-08
-5.28938e-06
2.27199e-09
-0.000366709
-0.00130124
5.41986e-08
5.10283e-07
-0.000441835
-0.00592276
-3.87575e-09
1.31131e-08
-7.73739e-09
-1.5659e-08
0.000613868
-3.37721e-07
-1.21605e-05
-6.4085e-08
-1.01836e-08
0.00114896
-3.15665e-05
0.0070229
0.00182274
-3.17859e-10
4.05689e-09
4.56632e-07
0.00226742
0.0033207
-0.00259738
-5.31241e-06
-1.50474e-07
-1.11037e-05
0.000636943
-1.58566e-05
-0.00322989
-1.61002e-09
8.7276e-07
-4.87287e-08
-9.01414e-07
-4.77144e-09
-1.10632e-08
-7.03462e-07
-4.79823e-07
-0.00297201
2.14453e-07
-0.0124949
0.00034818
1.02013e-06
1.06824e-10
9.63234e-11
-0.000217643
-2.18071e-08
-0.000693646
-1.51889e-08
-7.22427e-07
1.30571e-05
-6.07057e-05
-4.71806e-10
-7.57683e-08
-2.39546e-08
1.00318e-09
-0.000341965
-4.49227e-06
-0.000414027
2.24827e-08
0.00052195
-1.10924e-05
1.35434e-06
-3.93669e-08
7.83975e-08
1.23159e-06
-3.54968e-05
1.00856e-06
-2.22231e-07
0.000934416
-3.0767e-05
5.69254e-09
3.11702e-08
-7.71714e-09
-3.1904e-07
1.44108e-05
1.46575e-09
-1.37524e-09
2.78345e-08
0.000139502
-2.35501e-05
-5.44636e-09
-6.84087e-07
5.69449e-06
-3.1896e-09
-6.12449e-05
2.85353e-08
-0.000510851
-1.14163e-06
0.00119561
0.0030654
-2.07515e-08
-7.28626e-08
0.000449099
6.28462e-09
1.18648e-06
0.000207101
2.47788e-09
-3.55824e-06
-4.01729e-08
-2.04186e-07
0.00217071
-0.000164689
-3.13382e-09
0.00801946
-3.15067e-05
6.3331e-09
-1.26941e-06
1.68261e-07
-2.50965e-06
-0.0028644
0.000139153
-0.002014
2.43983e-06
-0.000171915
3.73347e-08
-3.13838e-07
6.21889e-10
-6.62575e-09
-5.88952e-10
-1.13304e-09
-0.000115136
-3.36705e-06
-1.98592e-09
4.3584e-06
-1.27345e-06
6.24668e-09
-0.00406944
0.00236985
4.40052e-08
-2.73648e-08
1.33554e-09
-6.597e-08
-1.13454e-07
3.11777e-09
-0.0063339
-2.31715e-08
6.2181e-07
-2.29192e-07
-1.15765e-06
-9.99758e-06
-4.88008e-07
-0.00905088
-2.03297e-09
-6.42985e-08
-4.1521e-09
5.92446e-09
-0.000104485
-7.79562e-07
3.02999e-07
-0.00123781
-7.47506e-08
-2.23801e-08
1.51746e-06
6.13339e-09
-3.20124e-08
-1.80241e-06
1.88296e-09
0.000191781
0.00584199
0.00276735
-9.79844e-09
0.00865304
-6.92913e-09
-0.00117783
-1.37012e-09
-3.53357e-07
0.00837827
-2.15e-09
0.00024271
0.000219759
3.94862e-07
1.06631e-09
2.90364e-09
1.26333e-07
-0.00231864
-7.09074e-09
3.84779e-09
1.96137e-09
3.9243e-09
-1.71983e-06
1.30041e-09
3.77856e-09
1.2965e-09
-2.19627e-09
0.00121731
-6.26321e-08
1.11178e-08
-3.74756e-07
-0.000146435
0.00136425
0.009646
3.17266e-09
-8.32705e-08
0.000283647
-9.72386e-09
-6.83822e-08
-1.16478e-08
-2.14058e-05
1.39641e-07
-3.80384e-08
2.4974e-06
-0.00175186
3.2723e-09
-4.36324e-09
-3.16212e-10
-1.75285e-06
-7.78983e-05
2.8845e-06
-4.23539e-09
-2.95281e-07
-4.41727e-09
7.99058e-05
8.30881e-10
0.000122223
-2.20706e-07
-7.91161e-08
8.34304e-06
5.72315e-07
-0.00161414
-4.0824e-09
-2.98202e-08
-4.81572e-08
1.48643e-06
-5.58765e-06
4.84948e-09
-3.5617e-08
1.04797e-07
0.000585055
-1.94728e-09
2.75371e-09
5.46156e-05
2.69973e-08
-6.60582e-06
2.8659e-09
2.33213e-08
5.03219e-09
-0.00155493
-7.15485e-10
-0.00711977
7.05934e-05
-1.0524e-08
-0.000573944
3.72747e-10
2.54288e-06
-4.82356e-07
1.13014e-09
-4.15519e-08
-1.16556e-08
3.75e-09
0.0134003
-1.36564e-07
-0.000183132
-0.000209059
-2.65881e-09
-2.74967e-05
-2.11038e-07
-0.000275065
8.67927e-09
0.000694569
7.15172e-05
-0.000338224
-1.43081e-09
1.38335e-08
1.52064e-08
0.00438235
0.000194993
-6.04947e-07
7.77092e-10
-2.43568e-08
-0.0074422
4.87852e-09
1.28807e-08
-1.23116e-07
-1.48088e-06
-4.72925e-06
2.80225e-09
-0.00142566
-1.64547e-06
9.40085e-10
-0.00337951
-1.87491e-07
-0.000740447
0.00963329
2.60357e-07
-7.5944e-07
3.46594e-09
4.0835e-07
-4.39207e-08
5.12415e-06
-3.37354e-07
3.83311e-08
4.16844e-09
-7.83227e-06
0.00739298
-6.41034e-09
5.2003e-07
0.00967457
0.000911896
4.52946e-08
1.47885e-08
-2.55021e-05
-0.000640197
6.01042e-06
-1.67199e-08
0.00732305
-3.44103e-07
-7.06123e-09
0.000123069
6.85038e-08
1.4555e-08
0.000107192
-2.06567e-08
9.71276e-06
-1.68932e-08
-4.58095e-09
-4.23238e-08
-1.23638e-09
0.00260633
-3.16175e-08
6.95607e-10
-9.14741e-09
-5.08368e-09
-1.62023e-07
-4.70991e-07
-2.2169e-08
-4.35849e-09
3.76008e-08
8.51165e-09
0.000611806
0.000737675
-3.09158e-05
0.0111175
-2.16855e-06
-0.00084894
-2.34037e-06
-4.30444e-05
0.0129564
0.00205029
9.93576e-09
1.05944e-06
7.73793e-09
1.08833e-08
1.39647e-08
1.07242e-07
-4.26534e-06
-2.59461e-07
3.61518e-07
6.58693e-09
3.5812e-09
-2.25551e-07
1.19272e-08
-2.80768e-08
-1.60495e-08
-0.00022249
-6.34967e-08
-4.06384e-05
-8.95459e-09
0.000136202
-3.51291e-08
-6.10187e-08
7.13242e-08
-1.00851e-07
-1.63321e-09
1.28566e-06
0.000457621
-1.63355e-07
0.000163784
-0.00410377
2.16706e-09
-1.62136e-08
-0.000257717
2.25024e-06
3.02256e-09
2.56352e-08
-1.25366e-08
4.10828e-05
-7.51668e-10
-1.70943e-07
1.61526e-05
8.43049e-07
-0.00810067
-0.00430098
-1.93626e-07
-0.000211725
2.90988e-09
-6.56371e-10
0.000640524
0.00278203
-4.2021e-09
-6.96495e-09
0.00361107
-1.34397e-09
1.18988e-05
-1.64378e-09
-2.97715e-10
1.95141e-07
8.09765e-09
6.92971e-07
0.000408724
0.000241492
2.51304e-09
-3.47889e-09
-2.36947e-06
2.12094e-08
-1.22441e-06
-4.0902e-10
-3.4251e-07
-7.19475e-07
-3.26259e-08
2.07973e-08
-7.59989e-09
-4.02228e-06
1.42607e-06
-2.40723e-06
-0.00145764
-2.87255e-08
-0.000452352
-3.17846e-07
-1.24878e-06
-0.000232907
-7.08484e-09
-0.000374722
1.91743e-08
-0.000288423
-9.38071e-05
-0.000457747
0.00163534
-3.02941e-09
-2.42492e-07
0.000541746
-3.34331e-08
9.80033e-05
-2.01698e-08
1.28308e-08
-6.17225e-09
1.19451e-08
-2.62072e-08
-4.55784e-05
0.0012374
-0.00392136
-7.31286e-10
-9.48424e-08
1.48175e-08
-8.7467e-08
-9.50118e-09
2.7297e-06
-2.69592e-07
0.0051245
-4.0656e-07
-1.52801e-08
-4.65371e-09
7.81529e-08
-2.31225e-06
-1.72485e-08
1.53198e-07
4.40873e-08
-3.35617e-06
-2.83973e-08
1.22968e-06
-3.74772e-06
-0.000378797
-2.08915e-08
-3.29874e-08
8.13401e-09
-6.70786e-09
-0.000139071
-0.0020672
-1.90236e-07
7.57372e-09
-0.00302472
-4.9685e-08
-1.50772e-08
2.21063e-08
0.000745373
0.00103599
2.51052e-07
-1.15946e-09
0.000161844
-3.31937e-08
-3.27026e-09
-1.51027e-10
0.00347526
0.000981239
1.00521e-09
-0.00318569
0.00290349
4.24505e-09
-4.05606e-06
-4.51494e-07
-0.000518175
-5.57283e-08
0.00055959
-3.67954e-08
0.000296744
5.9722e-06
-0.000381962
-3.37245e-08
1.98452e-08
0.00110755
-1.81431e-09
4.84252e-09
-0.0150768
0.00297416
-4.10359e-07
-0.000196786
-1.41003e-10
1.23576e-08
0.000940794
-1.26003e-08
-3.73702e-09
-8.32429e-09
-4.62521e-08
8.29208e-09
-1.95056e-07
2.58024e-09
0.000289814
0.000211314
8.60664e-09
0.000101392
3.80566e-09
0.000805612
0.000250118
-2.24565e-09
1.17612e-08
-3.46459e-09
1.12459e-05
-4.06664e-06
3.76161e-07
0.000645868
-0.00104312
-1.93199e-05
-2.59591e-08
0.00292832
0.000257981
1.02148e-06
-0.000299272
-1.77254e-08
-3.21492e-08
-9.02987e-09
-8.14911e-08
-1.82614e-09
-3.36186e-08
0.000280634
-2.43381e-06
-8.00291e-05
-0.000232649
0.00206677
0.00372668
0.00126369
-1.08754e-06
-0.000540028
1.1749e-06
-3.3934e-07
-1.72198e-09
-2.5163e-08
-1.71175e-07
0.000171724
5.88973e-08
-0.00212148
0.00139965
1.29313e-08
6.85339e-09
3.59892e-08
-2.88899e-06
-4.26206e-08
6.21609e-07
-0.000105711
-5.09758e-09
5.37614e-10
1.01877e-08
1.74965e-08
-6.34756e-07
0.00037673
6.96412e-07
0.0010026
1.53183e-06
5.16724e-10
0.000317541
-3.16461e-06
1.44264e-09
-7.38833e-06
-0.000167496
0.00522249
0.00236148
0.000262
-3.04917e-08
-0.000727016
0.000518823
2.79908e-06
-0.000625288
-6.57721e-09
-2.70438e-10
6.15327e-08
4.91079e-09
-0.000284123
3.94932e-07
1.52167e-08
-9.20256e-09
0.000255961
0.000505398
-9.31454e-08
1.65341e-06
-0.000692378
0.00148983
-5.83434e-09
1.49278e-07
2.42717e-06
3.82249e-09
5.86369e-10
0.00743609
6.91434e-09
9.60905e-07
0.000469497
-0.000461903
-2.48428e-09
-1.84005e-06
-9.05667e-07
-1.25838e-08
-8.6242e-09
0.00908828
0.00286022
-1.00807e-07
-1.16797e-06
5.29356e-06
-7.36347e-06
-3.39401e-05
-0.00288978
4.23443e-08
0.000134781
-0.000803036
-1.31706e-07
1.10116e-09
1.12721e-05
-3.27099e-09
-4.98905e-09
0.000172672
-8.10277e-08
1.89475e-06
3.40208e-09
-7.9271e-07
-2.20475e-08
-1.04416e-08
9.81017e-09
1.04684e-08
-0.0031908
5.20554e-09
-0.00125138
3.24725e-05
-4.02582e-07
-3.20112e-08
-0.00161513
-0.000408153
-0.0026285
1.12652e-07
7.27104e-10
-1.39073e-07
4.23576e-08
9.65859e-06
0.000808357
7.75663e-09
-0.000938401
0.000355636
9.22512e-08
-3.41432e-07
-8.29534e-08
-3.83122e-07
-4.51394e-07
1.16117e-08
-6.00192e-07
-6.05477e-07
-1.18595e-06
-1.04454e-06
-8.73742e-07
-1.18702e-08
1.43495e-06
8.4423e-10
-3.19942e-08
-2.69943e-07
3.77541e-09
1.19847e-05
-0.000633172
8.4268e-06
0.00114084
-1.23134e-08
1.22826e-08
0.000150674
0.00301578
9.84885e-09
-2.93954e-08
-2.89433e-07
0.00508963
0.00560748
-2.05472e-08
8.68721e-07
2.0219e-09
-6.15224e-05
-2.29199e-05
1.00361e-09
6.1817e-05
0.000515608
-2.50068e-07
0.00133094
2.02518e-06
0.000312531
-0.000557292
1.94823e-09
-0.000187769
0.000397593
2.70484e-09
-4.52834e-07
-6.57219e-09
-6.48983e-07
-1.54675e-08
-0.000102216
0.000257123
-2.57735e-08
-3.11739e-08
0.00364905
3.37066e-05
-4.39576e-07
-1.08456e-08
-1.02981e-05
1.30334e-06
0.00127488
4.16798e-05
5.61488e-09
3.62541e-09
1.06457e-08
5.04174e-09
0.000902314
0.00542098
0.00107612
-3.22364e-07
-4.14768e-06
-0.00354038
-1.01233e-08
-1.12796e-09
0.000489071
7.85354e-09
-0.000201847
-2.57083e-09
0.00119785
1.13477e-08
-7.11291e-08
0.0108421
-1.585e-09
-3.25561e-07
0.00308432
1.51166e-09
-2.29429e-07
1.22158e-08
-3.60747e-06
0.000215742
2.67848e-06
0.00100038
2.28127e-08
3.97548e-09
-1.30509e-08
-6.64149e-07
0.000277211
-0.00120002
-9.15449e-07
2.09996e-06
-1.25697e-07
0.0022195
9.30897e-07
2.87346e-08
-6.13923e-09
-1.81611e-09
-2.1589e-05
6.86184e-06
0.00120629
-2.44957e-07
-2.68888e-07
-8.85105e-09
-0.000256146
-4.36536e-05
0.00046151
-3.79287e-09
1.35701e-08
-6.09938e-09
0.000701607
-2.30255e-05
-0.00285971
-4.10121e-06
-1.77771e-07
-6.59886e-06
-1.10934e-08
-3.41027e-08
2.42162e-06
-3.34497e-05
2.81468e-05
-1.7615e-09
-1.24575e-07
-1.33948e-08
1.0201e-07
-4.13999e-06
0.0109701
0.00138524
1.47485e-08
-1.66688e-06
1.02588e-05
0.00526212
5.96396e-05
0.000317811
-0.000380412
8.29243e-09
1.23954e-07
-3.84637e-08
-2.10627e-07
-4.06608e-08
1.05662e-08
-8.90176e-08
9.59388e-09
-3.17114e-05
0.00194619
-4.56707e-09
-4.93562e-06
0.000474109
-1.57667e-06
-2.32463e-07
-0.0115385
-1.27779e-06
3.16057e-09
3.2232e-08
-0.000425935
-3.50641e-08
1.65883e-06
6.35814e-06
0.000880468
7.54507e-05
5.81064e-09
0.00283347
0.000438216
0.0119204
-0.000125494
-4.04917e-08
-2.60003e-07
-2.41766e-07
0.00029404
7.96818e-06
1.00606e-08
-0.000334079
-6.89132e-06
-9.66007e-07
2.04153e-07
-0.000419169
0.000353083
-0.000167193
-9.63173e-09
-0.00163373
6.96518e-08
0.000244552
2.181e-06
0.000490919
2.98303e-05
-1.70399e-09
-1.82749e-09
0.000430226
-0.000297702
1.16197e-05
1.3579e-08
-3.25052e-07
-2.03258e-06
0.00253017
1.33567e-05
0.000318921
7.14375e-08