/*--------------------------------*- C++ -*----------------------------------*\
| =========                 |                                                 |
| \\      /  F ield         | OpenFOAM: The Open Source CFD Toolbox           |
|  \\    /   O peration     | Version:  v2012                                 |
|   \\  /    A nd           | Website:  www.openfoam.com                      |
|    \\/     M anipulation  |                                                 |
\*---------------------------------------------------------------------------*/
FoamFile
{
    version     2.0;
    format      ascii;
    class       volScalarField;
    location    "400";
    object      ddt0(omega);
}
// * * * * * * * * * * * * * * * * * * * * * * * * * * * * * * * * * * * * * //

dimensions      [0 0 -2 0 0 0 0];


internalField   nonuniform List<scalar> 
13917
(
0.0132999
0.000658684
-0.002669
5.11175e-07
0.000197965
0.0005794
-8.65257e-06
0.0083742
-1.28837e-05
1.77886
0.00165984
1.65157e-06
9.82112e-08
0.15811
-0.00011674
0.0478184
3.93762e-07
0.000882396
0.000536133
0.402022
6.9631e-05
3.77684e-06
-6.1426e-05
3.54528e-06
8.12881e-06
7.03584e-05
0.18825
0.498336
0.000202888
2.26921e-05
1.3075
-0.000300858
3.32769e-06
-0.00331379
-4.7472e-06
-0.0122296
6.3123e-06
-9.6228e-08
-6.60051e-06
-5.41484e-05
5.57622e-08
3.18597e-05
-6.66083e-06
3.02136e-05
0.000403029
-0.0788402
5.89361e-05
-0.805286
0.0300886
-4.1911e-06
1.57095e-06
-0.000862715
0.0199637
-2.27624e-06
-2.07918e-06
-0.00131628
-3.16336
-6.56681e-05
1.8961e-05
-0.0453676
-0.211959
0.00192722
-2.35773e-07
7.07403e-06
-0.00807855
0.0183925
0.000189271
-0.00620847
-0.00224514
0.019264
0.0678005
0.00258824
-9.59185e-07
9.39762e-07
5.43281e-05
1.21967e-05
5.71556e-05
2.68501e-06
1.10675e-05
3.52396e-06
-4.17343e-06
-4.29954e-07
-8.85168e-07
0.0415557
-2.46384e-08
-0.00296307
-0.000288089
-1.18561e-07
-6.11814e-05
5.1266e-07
1.91056e-07
-7.54066e-06
-0.00666647
-9.25778e-07
-5.39657e-06
7.33334e-05
0.248311
1.05534e-07
-1.13637e-07
0.0030973
2.22138e-07
3.2092e-07
-6.33064e-06
-3.33121e-07
5.49731e-05
-0.015902
0.0188744
0.00171926
5.45682e-07
0.0735719
-1.5814e-07
-0.00549115
7.38997e-05
-0.736746
-0.00532826
1.6328e-05
0.000153399
-3.61426e-08
0.000313464
-7.70226e-07
-4.81987e-07
-4.19827e-07
-9.07178e-05
-0.000580497
0.0141317
0.0425432
6.01402e-06
2.7183e-05
2.08717e-06
-0.000677751
-4.86257e-05
0.0129363
-0.052721
1.64509e-05
-0.000331649
0.0298443
-0.00117182
0.0137584
7.85869e-05
-2.72165e-07
0.0740437
1.32004e-06
-0.0109272
7.62876e-07
-6.37679e-07
2.25148e-05
0.0739561
-0.0950289
-0.0211749
-2.3614e-06
-2.41131e-05
3.50624e-07
-6.1158e-07
-7.71551e-07
0.248673
-5.77103e-06
-1.88193e-07
-0.0572734
4.27739e-07
1.18651e-07
2.45358e-07
-0.0563032
1.50745e-05
0.0547334
-0.0945566
-0.0152612
-0.0447539
-1.52111
1.56747e-07
3.04289e-05
4.12313e-06
-0.0348421
-1.27074e-05
-0.333525
0.000311308
-3.8795e-07
2.33037e-07
-0.0016693
-4.1097e-05
2.56842e-05
-6.09401e-06
3.58852e-06
1.53858e-06
-0.0135987
0.00257794
0.0225428
1.24282e-06
-0.0135788
2.02194e-05
-0.0118674
0.000370318
4.50558e-05
-0.00202594
0.038107
-1.48209e-06
0.0136054
1.04693e-05
-0.0540655
-4.23528e-06
-3.48403e-06
7.0501e-05
0.0219422
0.0224673
-6.02082e-06
0.198369
0.000170632
-2.81605e-05
1.72972e-08
-0.00131167
-4.12712e-06
7.22344e-07
0.000487075
-0.00445701
-0.174628
-0.000326098
3.76692e-05
-0.0379856
6.22347e-07
2.7405e-07
1.45596e-07
-1.40672
0.000979147
-0.00978308
2.09025e-07
-1.20114e-07
-0.00466071
0.0125634
2.53862e-07
1.76519e-07
1.22518e-07
-2.47696e-08
-1.18107e-07
0.00601392
-0.147874
4.10358e-06
1.74869e-07
-1.47661e-05
0.00760721
-3.63943e-07
2.17631e-07
0.131811
-0.00581196
-0.00550018
-0.0329367
0.00102738
8.50056e-07
-0.956279
-0.000101771
0.000185147
-0.000136726
-6.42347e-06
-0.160542
-8.65539e-07
1.81208e-05
0.000263861
5.4772e-06
4.14687e-08
6.5935e-06
0.000126257
8.44939e-07
0.0074943
-0.020558
-3.94498e-06
2.36064e-07
-2.5854e-08
3.86493e-07
-8.67652e-07
8.4901e-07
3.81284e-06
-2.07147e-06
0.00530107
0.00148914
2.76541e-07
5.66716e-05
-0.0873145
8.98014e-09
-0.000905641
0.00305642
3.54133e-08
0.0164962
2.05207e-06
-0.0603489
-3.30927e-07
-8.04824e-05
5.98161e-06
3.95424e-09
0.00118407
3.14092e-07
0.0349881
1.15503e-05
-0.00900176
7.60962e-05
0.316202
0.0196295
-2.54313e-07
-5.86927e-05
0.00018141
1.94355e-05
0.000199162
1.05055e-05
5.78109e-08
4.7277e-07
-0.00038965
-0.00174773
1.3922e-05
9.55768e-06
2.22424e-07
-0.0568634
0.02374
1.80039e-06
-0.000236598
1.92989e-05
0.0284045
-0.00193201
0.00349459
-0.265649
-0.0187016
-6.36906e-05
3.25423e-05
0.0505947
-0.0352479
-0.00397785
4.36692e-07
-0.000111216
0.260908
2.50755e-06
0.000889872
0.000244419
2.31042e-07
-0.0335887
1.30599e-09
-0.0001125
6.021e-06
-0.455683
1.98255e-07
7.92156e-06
0.000186772
-0.0245069
3.17007e-07
-9.50916e-05
-0.0120463
-4.44643e-06
2.1202e-06
-0.0110341
-0.00918573
-0.0116758
0.116626
-1.98352e-07
1.51538e-06
0.000616991
0.000819401
-3.94697e-07
0.000188884
-3.12149e-07
-0.000701795
1.35857e-05
-0.00133344
0.0008808
-0.000960029
-0.000112709
0.00745766
2.21725e-06
-3.62501e-06
-0.00012475
0.00363386
-4.23416e-07
0.0557243
-0.00011305
-0.010774
-2.4464e-06
0.00245175
7.75871e-05
0.205095
-7.02978e-06
-0.0103258
-0.262491
0.000329219
1.12126e-07
0.231409
-4.75909e-06
-0.222375
-0.000997127
9.33767e-06
0.213772
1.01391e-05
0.0201097
9.11714e-07
0.301966
0.0143246
5.90878e-06
0.00154048
-0.00131074
-8.04321e-06
-0.00617033
0.00818098
5.05912e-06
-2.2323e-05
-6.53311e-08
-0.00178092
-0.00194512
-2.45922e-09
-1.17204e-05
9.3629e-06
3.00038e-07
-2.23039e-07
1.79461e-06
0.122418
-0.0124731
-3.0567e-06
2.44504e-06
1.85089e-06
2.39658e-05
0.199783
3.56336e-06
1.07886e-07
-0.002011
0.00221924
7.35299e-08
4.86687e-06
0.0417979
-0.260301
-0.0672934
0.000298098
0.0261595
-3.99787e-07
3.89821e-07
0.000107968
-1.62229e-07
1.93103e-06
4.39713e-06
8.25127e-07
-1.33578e-06
-0.744986
-9.20331e-07
-9.58476e-05
-0.00135886
-1.6624e-05
8.24927e-07
-5.42701e-07
-0.0211459
5.73529e-05
0.016428
-8.16965e-07
3.72253e-07
-1.83363e-05
-4.52869e-07
5.29841e-06
1.36753e-05
0.0617013
-0.00346879
-0.0168066
3.52776e-07
-5.08064e-05
-0.00310651
-1.29526e-06
0.000709663
0.00247957
-1.06745e-07
-0.151191
9.60684e-07
-1.23601e-07
6.47385e-07
9.86623e-06
3.81552e-07
-2.28365e-10
-0.0539095
-0.392947
2.92488e-07
0.448517
-0.0014434
-8.37223e-09
-5.08987e-05
-0.000363505
-0.0226098
-1.37789e-05
-0.021198
-0.0108165
-0.00613881
1.32541e-05
0.00988153
-0.00308697
-8.1811e-06
-0.117035
2.50062e-07
-1.96947e-06
-5.28745e-06
-1.23751e-05
3.47754e-05
0.00181443
-0.000133978
0.00046842
9.65872e-05
-0.000888528
-0.00011864
-3.15637e-06
0.163728
-2.94113e-06
1.15238e-05
-0.336121
-2.48763e-08
-2.32678e-05
0.00120738
5.35892e-08
-0.0481858
-1.62051e-07
-5.58865e-07
4.83821e-05
-1.69108e-06
7.07474e-08
-0.000240614
-0.0656845
-0.0422478
1.76048e-07
-1.43922e-06
-8.22273e-05
-0.15731
0.101658
-2.89383e-06
-2.26367e-06
2.25318e-07
0.000181811
-0.0583527
2.58558e-06
-4.22568e-07
-6.73137e-06
2.53482e-07
-0.000248907
2.9171e-06
1.91741e-07
-0.000156095
5.853e-08
3.03656e-06
8.35651e-06
0.00440682
-1.03432e-07
-3.27685e-06
4.28814e-07
-4.12063e-05
-0.000217554
-0.000925201
0.000322643
0.00230443
7.12978e-06
0.000693121
-0.0520556
-0.370153
-0.0100821
4.6497e-07
-6.25376e-07
0.00125513
6.56607e-07
-0.000975803
4.23609e-07
-0.019267
8.25336e-06
-0.0133067
-0.00216835
-6.77174e-06
-3.23549
1.03979e-07
-0.000329771
3.11048e-07
2.12676e-05
-0.0184763
-2.04016e-06
-0.0105951
-2.67817e-07
4.02218e-08
4.56812e-07
0.00200721
-6.67512e-05
2.95559e-07
-0.00039149
-3.014e-05
0.175131
0.0983979
-0.062454
-0.0270285
-1.00401e-07
0.0154557
-7.14313e-08
-0.113098
-0.180859
1.31122e-05
0.000256793
3.74215e-07
-8.37944e-06
-5.39357e-06
4.21075e-07
4.75018e-08
1.20055e-06
0.105123
-9.59701e-08
-0.000288496
-1.91093e-06
2.4929e-07
3.43218e-07
0.0181521
-0.0793489
-1.68978
-0.000237825
3.23221e-07
0.438754
0.00478391
9.9939e-07
-0.0496977
8.94366e-07
-0.000600356
5.48551e-07
0.285174
1.09648e-07
-0.000387553
-7.03775e-07
0.0784969
-5.33113e-06
-0.0312096
2.55549e-07
-1.13058e-06
-3.38748e-07
3.44836e-07
0.00307429
-0.0142099
-1.20623e-06
-0.00214979
2.30317e-07
4.7228e-06
3.57045e-07
-0.00322041
-1.6878e-07
0.000173132
5.58911e-07
-1.67086e-06
0.00356488
4.01368e-07
-0.000857593
-3.01747e-07
1.58581e-07
-0.0839002
-0.000295136
-2.79425e-06
0.141352
-0.00405696
0.0624353
0.00138473
-2.80602e-08
-0.000134073
0.0139314
-0.00111359
8.214e-05
7.69265e-06
-0.000531933
-2.13907e-07
-2.10252e-07
-0.0899101
-0.000210682
1.50306e-05
-0.849813
5.858e-06
0.539801
0.0921081
0.000393201
5.80643e-06
-0.00110041
0.0125108
-8.22426e-07
-0.000796049
-0.0758616
1.13008e-07
-2.78838e-07
4.10359e-07
-0.000169448
1.24208e-07
0.0167447
-6.90777e-05
-9.03654e-08
-9.90094e-05
1.65874e-07
-0.00392092
2.17594e-06
2.29352e-06
-0.0621872
-0.000135878
-0.0218435
-5.84921e-07
5.33016e-05
9.31512e-07
-1.01937e-06
-1.05273e-05
-7.83457e-07
0.019208
3.6186e-06
0.0507643
-0.0200242
-0.000615078
-0.0634392
-1.18244e-06
-6.45676e-07
2.41592e-07
-0.000803914
-0.00750092
9.60983e-06
0.0168956
-0.0624491
2.09688e-07
2.05208e-06
1.54805e-06
-0.0160525
-0.0322123
1.05754e-05
-8.24705e-07
-3.03907e-06
-0.000459916
2.65965e-05
-0.00118967
-6.75701e-05
-5.54279e-06
3.85681e-06
-5.3657e-07
-1.08473e-05
9.64327e-05
0.0291235
2.22437e-05
-7.01992e-05
0.0165815
0.000125897
-0.0510645
6.90947e-06
0.000197578
5.322e-06
-0.00189419
-3.3992e-07
-0.000289761
-0.0812091
0.0291713
8.20812e-07
2.196e-05
1.37835e-06
2.84897e-07
-8.11317e-07
-0.000287746
-0.00436204
0.00915992
-0.00117339
-3.12145e-07
0.032685
-1.25872e-05
-1.223e-05
-0.00220926
1.57314e-06
-0.000352736
0.284262
1.62348e-07
-0.000153849
0.000605466
-6.69159e-05
4.6074e-07
6.31696e-07
1.14294e-07
0.0245195
3.41617e-06
2.92464e-06
-0.000111112
-7.69908e-07
1.09248e-06
-0.000664144
0.0259497
-0.00244645
-0.103683
-0.000475244
0.00806624
-8.99105e-07
7.18297e-05
0.185304
-0.00014787
-0.00254659
3.60116e-07
-3.12517e-07
-1.28895e-07
2.55157e-05
-0.00110272
6.54485e-07
0.0165343
-8.89581e-06
-0.271239
8.34447e-06
-1.61828e-05
4.33443e-06
-0.000194157
-8.8024e-05
-0.0468831
-0.002888
5.36567e-07
0.00898153
4.40832e-06
0.0104955
-4.96771e-06
0.00366993
2.21714e-05
-8.96319e-07
7.35622e-07
-0.0261561
-8.80273e-06
0.111003
-0.277284
2.65288e-07
-6.64768e-05
2.06105e-07
0.000255168
-0.0859014
2.32642e-07
-0.49249
-4.17878e-06
-0.00579591
0.000523733
0.360902
-5.96717e-08
-4.06954e-08
0.000752205
-2.09605e-07
-2.03414e-06
4.66969e-06
-1.56574e-06
-0.000113648
1.68968e-07
-0.013222
-5.61892e-06
0.0270351
0.0103046
-0.129524
-0.0137942
-0.13375
0.0327045
0.031065
1.12122e-07
-3.04884e-06
8.90033e-07
4.17695e-06
2.59271e-07
-8.04016e-06
1.09426e-07
0.111267
-2.34468e-06
-0.0771693
2.86564e-06
-4.14774e-05
-3.21684e-06
-1.0188e-06
-0.000112344
4.50616e-06
-7.3843e-06
-7.7485e-07
7.05895e-06
-0.0643943
-0.000248751
-0.110396
1.48401e-06
-3.9868e-07
3.2016e-06
-9.48414e-06
-0.136042
1.95411e-07
-0.0123495
1.47513e-07
-0.0136921
-7.22989e-05
9.77305e-07
-0.00030704
0.000589945
2.30412e-07
-0.0119351
-0.0804282
-1.28527e-05
-0.000185681
-6.45301e-07
-0.00241841
-2.89804e-05
-8.81859e-06
0.0133748
-1.56346e-08
7.06228e-07
-1.20092e-05
0.0175027
5.74282e-05
0.0136888
0.353291
-3.14885e-05
2.40908e-05
-8.94312e-07
0.0187297
-3.06011e-07
-0.000409867
1.46862e-06
-0.0530785
-8.72199e-05
0.192067
2.08851e-06
-9.09119e-07
0.00356333
2.84028e-07
9.7975e-05
-0.0474024
-1.27261e-06
-2.68107e-07
-0.00953073
-2.9438e-05
-3.89606e-06
-0.000232905
4.02097e-06
-0.00823387
-4.72704e-05
-0.000412252
0.000791893
-2.6509e-06
-0.0439688
-7.32981e-06
-0.00023243
4.21522e-07
0.00159005
-0.00865609
-8.62004e-07
-1.75224e-05
-8.63618e-06
-2.78061e-06
1.92906e-05
2.66187e-06
-2.57246e-06
6.8629e-07
3.28707e-06
1.79392e-07
-1.55174e-06
-0.000227566
-0.107434
-0.0439264
-0.000159165
3.98313e-06
-0.00218096
2.0752e-07
0.134048
-0.0718287
0.0127186
-1.21336e-06
1.49246e-07
-2.53379e-08
-1.53631e-07
-1.04181e-06
-2.9328e-05
-5.31936e-07
1.94794e-05
-2.85609e-07
0.769935
-0.00689785
-4.12044e-07
-0.0227263
3.82901e-07
1.20155e-06
0.000847054
-0.00396704
-0.000180247
2.17241e-07
-0.029112
-3.42602e-06
2.65049e-06
0.0754863
3.53068e-06
0.0542674
8.32768e-07
-0.0126378
9.62234e-07
-1.09777e-06
5.35463e-05
0.189602
6.68064e-06
4.97944e-05
0.00159982
-9.97393e-07
3.02127e-05
-4.29692e-07
5.89256e-07
-0.000737214
-6.04874e-05
1.55071e-05
-0.00662714
0.372512
0.108785
-0.000852225
-3.22524e-06
-0.00766295
-2.65896e-07
-0.0898546
0.000123621
-1.19523e-05
5.51537e-06
0.330315
-0.058783
0.246203
0.000143321
-0.324413
1.66224e-05
-3.71476e-08
-7.06382e-05
-5.33012e-06
1.46889e-06
0.0804858
0.0179286
-6.34386e-07
-2.1799e-05
0.00853522
-2.86028e-07
-7.50704e-07
-0.00300358
-0.0225827
3.89787e-06
-1.7179e-07
-5.49387e-06
-2.9851e-07
2.4808e-06
-0.000573468
-1.33727e-05
8.50889e-07
0.0829949
7.15098e-05
-0.0979784
-0.0778753
0.000989567
0.00293639
-6.40669e-07
2.75782e-06
0.0296873
0.0238454
0.0598716
0.000290077
8.42048e-05
-1.37293e-06
1.53265e-06
7.80066e-05
-0.03541
-0.00215819
1.67527e-06
-0.000150959
4.01936e-07
0.0264901
-0.000221982
-0.00106762
-0.000254261
-0.130773
-0.0252741
0.0661824
-0.0212388
-2.12328e-07
-0.0299404
-8.15012e-07
8.05022e-05
7.44767e-05
-0.0807444
6.2591e-07
1.06278e-05
7.76489e-06
0.241422
-5.98211e-06
-0.0160417
5.78063e-06
0.00074302
-0.0551871
-3.49382e-07
-0.000758265
6.94515e-06
-4.14719e-07
0.000279951
-0.0739794
-1.5359e-06
-5.57544e-07
5.91161e-06
0.0807166
-2.72539e-07
-2.96942e-06
-5.4141e-06
-6.89992e-06
-4.9282e-07
0.000366122
-0.000313904
2.19385e-06
6.89357e-07
-0.00452369
0.0193051
0.000355677
-0.0494263
6.00823e-07
-9.24499e-08
-0.0550215
2.48107e-06
-2.41418e-06
-0.0226991
-0.00143701
-2.29682e-05
3.64975e-05
2.99759e-05
0.0215338
-0.0137951
3.77628e-05
0.103286
1.89185e-06
-0.000173868
-0.071132
0.00240745
-0.0868862
0.635514
-6.16338e-07
1.95713e-06
1.3494e-06
-3.38692e-07
3.8608e-06
0.0231572
-2.49134e-07
-3.67637e-06
1.18464e-07
-0.00024058
-0.0215358
2.60067e-06
-0.0980997
-0.174262
-2.51893e-08
-0.000400532
-2.17597e-05
2.00835e-06
1.83871e-07
-0.00884186
-0.000221961
0.0122787
2.72292e-05
-0.582746
0.000617507
7.0225e-05
-0.214976
2.46602e-06
-0.000374901
1.01961e-06
-0.0339731
2.60893e-07
2.50059e-05
4.44536e-05
-1.92544e-05
-1.45644e-06
-0.000154664
0.161304
1.62821e-07
0.00911396
-0.000815295
-2.05814e-06
3.92972e-07
-0.000161537
0.305113
0.143768
-1.42509e-06
-3.72179e-05
-0.00123957
0.223781
0.0249851
1.32717e-06
-2.08039e-08
-1.74214e-06
-4.28047e-07
9.91479e-07
-3.02393e-07
0.202505
-7.51296e-06
-2.92669e-06
-0.0227198
-0.000696659
-7.17305e-05
-0.0310715
-0.567819
-7.59923e-07
2.15584e-07
-1.83356e-08
-2.54628e-06
-0.00031115
-0.060329
-0.116863
0.000386059
8.15686e-05
-0.00012592
-5.01934e-06
0.00954064
2.27656e-05
-4.71069e-05
-2.35501e-06
0.000318637
0.00306676
-2.71614e-07
-9.77957e-07
-0.0170054
5.8632e-05
0.0143079
-0.155119
0.000654303
1.4778e-06
-0.134491
1.36803e-06
-1.83932e-07
-0.0261489
0.0918424
-2.34585e-06
-3.24444e-05
0.000359352
3.24809e-06
2.993e-06
2.37662e-07
3.08595e-07
5.22801e-07
3.27331e-07
4.95566e-06
-7.33046e-05
0.0110079
-8.20736e-06
5.84686e-07
-3.63338e-05
0.000579093
-8.76255e-08
4.12097e-05
-0.0143579
0.00270497
-0.00484032
-1.10796e-05
4.9112e-07
-0.00263905
-4.66882e-08
0.0640443
4.34205e-06
-9.63181e-05
-5.37189e-07
-6.97514e-08
0.00979492
4.35607e-06
-1.1913e-05
-3.63959e-07
0.375935
-0.0878364
0.00584038
-7.0259e-06
2.28466e-06
0.523872
1.72885e-07
-2.22794e-06
0.00080831
0.000497391
2.03268e-05
-1.34526e-05
2.6255e-06
0.0447757
-1.65732e-07
7.96866e-06
-1.366e-06
6.12121e-07
0.00409584
-2.35554e-07
4.30152e-07
0.206381
-0.000265825
0.277123
-0.00843453
-2.18837e-07
-1.46716e-05
1.20892e-06
7.42387e-07
3.15193e-05
2.62383e-07
-1.36225e-07
-0.00467265
1.35766e-06
1.68334e-05
8.71992e-05
0.000547918
-3.56015e-07
0.000237785
1.71512e-06
-0.0158195
2.26827e-07
0.502238
-0.000244139
6.41007e-07
-0.000142643
-1.69462e-05
-1.59443e-05
-1.47633e-06
0.000489567
-1.89657e-08
1.10315e-07
0.00230153
0.000316659
0.00176292
-1.36556e-07
-3.30974e-06
-2.93939e-05
-0.0014384
6.67602e-07
-0.0347402
4.95523e-05
-1.53715e-06
1.56623e-07
7.90635e-07
6.6656e-05
-0.0660778
-0.0876704
-0.00152595
0.0220926
0.000199118
0.000890829
-2.74898e-05
-0.0698644
5.34709e-08
-5.34797e-07
1.69005e-05
-0.0554448
9.10742e-07
-0.0121651
1.14304e-07
-3.33997e-07
0.0017446
-0.0447873
0.0293974
-0.116892
5.65185e-06
-0.0028633
-0.0108176
2.49201e-06
-0.0720393
3.34897e-07
-3.64805e-07
0.12823
1.67954e-07
-0.0176494
0.0321914
-1.3989e-08
7.74915e-07
3.28389e-06
-0.0603054
2.11821e-07
4.48624e-07
-0.000310421
-2.37949e-07
9.59108e-07
0.000395747
-1.81949e-06
-0.000117516
3.76941e-07
2.71514e-05
-4.80807e-08
0.492235
0.00711887
3.26738e-08
5.6671e-08
3.34916e-06
7.41416e-08
-4.01876e-06
-6.00744e-06
3.11084e-06
-2.6144e-09
-4.44688e-08
-2.38491e-06
5.41831e-07
-0.000215133
6.40023e-07
-0.000204438
2.33743e-06
0.00100194
-1.22283e-06
2.10612e-08
-3.86124e-07
1.48799e-07
-1.92068e-05
-7.28814e-05
-1.04217e-05
0.349101
-0.00781996
-0.0499236
-0.025781
-0.000185455
-0.00830642
2.84976e-06
4.85513e-07
0.40688
-0.0141577
-2.01256e-05
0.00617718
6.56476e-07
-0.00150656
-0.10544
-2.36147e-06
-0.000358931
0.153043
0.120758
2.21514e-08
-0.000133245
-5.08793e-07
0.102529
-2.8304e-06
-0.0228725
0.376922
7.96593e-07
0.00441383
0.129566
5.23616e-07
-0.142099
-0.00730094
6.18012e-06
-1.05044e-07
-0.0444084
-0.000577522
1.67733e-06
-3.75679e-05
-1.1659e-06
0.0748275
0.000914275
-1.82251e-06
-1.44049e-06
0.396421
-1.68142e-07
-1.16177e-07
6.16885e-07
-5.57504e-07
-0.336141
-0.00014242
-5.61252e-06
-0.00944797
3.61384e-07
-0.00071185
-1.02732e-06
-0.0560685
9.41488e-05
0.105622
-8.04443e-07
-9.20368e-06
-3.75829e-07
-1.66467e-07
-5.63093e-06
-1.43364e-06
-0.111695
1.39705e-06
-4.8627e-07
8.11851e-08
-0.00315741
-1.25117e-07
-0.0111301
0.0610808
-0.0310145
-3.98169e-06
-1.35631e-06
-2.60023e-07
0.0188642
-2.87736e-06
0.0382914
1.79172e-07
0.100088
1.70531e-06
6.74453e-06
0.00253012
-1.61285e-06
4.03437e-07
0.00312468
0.000309927
-0.0125881
8.72053e-06
-0.0104365
-0.533621
7.2108e-07
0.00200643
-1.6967e-07
-5.57495e-05
-1.05701
-2.25251e-05
0.000313023
0.0139888
9.11141e-05
-0.000204993
-5.10282e-07
0.100896
1.52428e-07
-0.0470256
-1.82756e-07
0.0176297
-1.83143e-08
-2.2663e-08
7.64194e-06
-0.3405
-8.08136e-07
-0.000252074
-0.000234611
0.218398
-5.90838e-07
6.77813e-05
-0.0313292
0.09922
0.176973
0.00012179
-1.03156e-06
-0.000538775
0.120672
-1.80222e-05
0.336183
-9.74127e-07
-0.00187323
0.0273481
-1.0526e-06
0.0230561
1.88613e-07
-0.00102267
-0.494516
1.21898e-05
3.63333e-05
-0.0594799
-0.0421494
-2.947e-07
4.42317e-06
-6.24191e-07
-1.13515e-06
0.0396335
0.000165243
-0.0354031
-4.64776e-06
1.11041e-05
-0.0208066
-0.000688468
0.118678
0.379694
-3.75735e-08
3.21046e-07
-0.000700871
0.0587464
0.134586
-0.0688487
-0.000975204
-5.81945e-05
-0.00687218
-0.0181014
-0.0357859
-0.053794
-1.24449e-07
-0.000237674
6.36545e-06
0.000362359
-2.40192e-07
-1.34051e-05
4.17386e-05
-0.00341793
-0.0683049
-6.31196e-05
-0.303868
-0.00708241
0.000128126
1.20037e-08
-9.27122e-09
0.0564244
-1.87785e-06
-0.0600804
1.22579e-05
0.000122802
0.0117547
-0.00471425
-3.62116e-08
4.20025e-06
-1.2654e-05
1.12099e-07
-0.0567915
-0.000381392
-0.0639917
1.48002e-06
-0.00228177
-0.0515808
0.00045669
1.08138e-06
2.88687e-05
0.000106812
-0.00809976
0.00179124
-0.000198593
0.03914
-0.0172113
4.28146e-07
1.7617e-05
-1.43555e-05
-0.000957985
0.0151638
9.6285e-08
-1.06872e-07
5.60897e-06
0.197047
-0.0153895
2.60754e-07
-6.23129e-05
0.0112641
-2.37524e-07
-0.00495337
-4.02309e-06
-0.0638837
-8.9426e-05
0.15617
0.0398332
-6.41616e-06
-1.53387e-05
0.414827
4.59735e-07
0.000135433
0.0231055
9.30424e-07
-0.0018785
-3.94519e-05
-0.000238442
0.0918719
0.0011654
-2.9289e-07
-0.0407802
-0.0123541
3.42289e-07
-0.00172461
-0.000176851
0.00138765
-0.171357
0.124974
-0.0895109
-0.000359807
-0.0158776
2.19723e-05
-0.000299162
1.40752e-08
-6.05977e-07
-2.16706e-08
-6.59446e-08
0.0025963
-0.00528344
-2.13619e-06
0.000867341
-0.00207179
5.03577e-07
-0.0434354
-0.0241436
9.22954e-06
-2.59761e-06
8.88327e-08
-8.76388e-06
-0.000119143
2.28717e-07
-1.07208
-1.24299e-05
7.66745e-05
-2.67001e-05
0.000171856
-0.00330563
7.60004e-05
-0.167776
-1.43137e-07
-8.88486e-06
-1.29679e-06
-2.98394e-07
-0.0303149
-0.000647574
5.89701e-05
-0.341215
-6.41411e-06
-1.48746e-06
0.000127548
2.41295e-07
-3.20518e-06
-0.000140943
6.08785e-06
0.00662625
0.284581
-0.231009
-7.77348e-07
-0.0452104
-5.09689e-07
0.141339
-1.10272e-07
0.00113677
0.271746
-9.86272e-08
0.104726
0.00888295
9.11049e-05
-6.38203e-09
2.01163e-07
4.1173e-05
-0.00574512
-5.42131e-07
2.80764e-07
2.34107e-07
3.0322e-07
-0.000311035
7.20152e-07
9.27153e-06
9.34573e-08
-2.2044e-07
0.315195
6.23386e-06
5.74361e-06
-0.000726401
0.0316744
-0.0242065
0.31785
6.09945e-07
-6.91475e-06
0.025732
-5.80818e-07
-0.000159303
-8.43086e-07
0.0314174
1.00844e-05
-4.58063e-06
0.000220228
-0.0523051
2.49616e-07
-4.64284e-07
-1.46567e-08
0.000369663
0.247547
0.000798152
-3.19826e-07
-2.68913e-05
-3.11268e-07
-0.0136321
3.71729e-08
0.155774
-0.000237285
-6.19487e-06
0.00595795
0.000135058
-0.0776518
-1.41602e-06
-5.3519e-07
9.03585e-06
0.000269859
0.000674905
2.90935e-07
-3.97488e-06
7.52904e-06
-0.0101847
-1.32752e-07
4.3061e-07
0.0089198
-5.26278e-08
-0.00299227
2.34153e-06
2.08143e-06
1.02267e-06
-0.0716155
-4.71211e-06
0.180639
0.00217061
-7.92541e-07
-0.40165
-2.59354e-07
-0.000383801
3.53109e-05
6.73879e-07
1.28407e-06
-7.60874e-07
2.77971e-07
0.134832
-0.000143378
-0.0158502
-0.0229813
-1.57739e-07
-0.00209476
-5.14477e-05
-0.167496
6.34938e-07
0.0413817
-0.0078233
0.0294158
-7.8479e-08
5.47108e-06
2.51914e-06
0.0989831
-0.0237446
0.000175629
-1.14355e-08
-1.2982e-05
-1.06576
3.76621e-07
4.82103e-06
-1.4248e-05
-0.00141072
0.118703
2.11914e-07
-0.031382
-0.000136976
6.65535e-08
-0.0495854
-0.000201524
-0.0910541
0.545287
4.90124e-05
-6.54777e-05
1.4782e-07
2.79984e-05
-5.43748e-06
0.000613759
-0.000215981
2.97751e-06
1.0057e-06
-0.0132764
0.326324
-4.89347e-07
0.00137611
-0.0226834
0.20586
3.94302e-06
1.20363e-06
-0.00332154
0.0140961
0.00147113
-1.37494e-06
-0.146957
-0.000345474
-5.69846e-07
0.0117655
3.03122e-05
1.57318e-06
-0.0143653
-1.79219e-06
0.00433619
-1.57271e-06
-2.21047e-07
-3.92962e-06
-8.7526e-08
-0.0141591
-4.53588e-08
7.8158e-08
-0.000340007
-9.26402e-06
-2.45126e-05
0.000837775
-1.79006e-06
-3.30944e-07
4.00482e-06
2.22739e-07
0.0186638
0.0240416
-0.0456799
0.0929958
-0.000192413
-0.0781786
0.00134062
-0.039936
0.351143
-0.0434647
8.57116e-07
9.40995e-05
5.71637e-07
8.74191e-07
1.15998e-06
2.02499e-05
-0.00473465
-0.00028209
5.06327e-05
5.20603e-07
2.64866e-07
-0.000243056
1.02001e-06
-3.45386e-06
-1.44457e-06
-0.0249043
4.25492e-06
0.0279385
-6.83087e-07
0.00226867
-4.66061e-06
-6.4005e-06
7.97558e-06
-0.000107833
-1.32622e-07
-0.000320523
-0.00605647
-0.000119636
0.00224275
-0.130295
1.84469e-07
9.41822e-06
-0.0170303
0.000635693
4.03581e-07
1.38634e-06
-8.07552e-07
-0.0117645
1.56205e-07
0.00700255
0.000591576
-0.000106706
-0.0388561
-0.0322962
-0.000206096
-0.060205
-2.09961e-06
-5.12321e-08
0.068796
0.0446608
-1.82932e-07
-6.30475e-07
0.719954
-9.70019e-08
-0.00448427
-4.39209e-07
-7.03731e-08
2.17738e-05
6.23707e-07
-2.19034e-05
-0.00102106
0.00184688
1.60857e-06
-2.81977e-07
-0.000338705
5.0655e-06
0.000441548
5.67049e-08
-0.000976754
-0.000757935
-3.49685e-06
2.29877e-06
-5.59743e-07
0.00168325
0.00233785
-0.00131616
-0.3059
1.20506e-05
0.0350654
-0.000268023
-0.00125055
0.0160302
-5.3508e-07
-0.0260989
3.88947e-06
-0.0250978
0.0108414
-0.0320618
0.0295995
-2.36899e-07
6.06391e-05
0.0055714
-2.81087e-06
0.0145618
-1.60636e-06
1.01075e-06
-9.52908e-06
2.112e-06
-2.42021e-05
0.013472
0.468893
-0.835927
7.37154e-06
-5.87283e-05
4.56462e-07
-7.27091e-06
-8.48132e-07
0.00195445
-0.000191226
0.00913881
1.40109e-06
-3.05323e-06
-4.39593e-07
7.77527e-06
0.00673092
-1.05609e-05
1.33371e-05
1.832e-05
-0.00112029
-2.8593e-05
0.000316995
-0.000555338
-0.030606
1.60698e-05
-2.88928e-05
6.11932e-07
-9.59116e-06
0.00667654
-0.145927
-0.000201316
5.96584e-07
-0.0257764
2.23088e-06
-1.30641e-06
-1.79552e-06
-0.0129143
0.0365954
6.3955e-05
-9.24669e-08
-0.0396863
-4.3123e-06
-2.41622e-07
-4.21675e-06
0.14024
0.359483
9.46651e-08
-0.0782531
0.0264356
6.75621e-07
-0.00040138
0.000139436
-0.0641418
7.76209e-06
-0.0200464
-3.48478e-06
-0.0806798
0.000313967
-0.0375796
-8.78668e-06
1.11142e-06
-0.0189256
3.21723e-08
-2.29818e-07
-0.152039
0.0334435
0.00337979
0.0624093
-6.80425e-06
3.71704e-06
0.134383
-1.07203e-06
-2.75375e-07
-5.79478e-07
7.68432e-05
6.25857e-07
3.37608e-05
7.4381e-07
-0.214903
0.00607752
1.22419e-06
0.0130411
1.28944e-06
-0.0111552
0.00326597
-2.12513e-07
9.33814e-07
-8.15709e-06
-0.0105994
-0.00546988
-1.03251e-05
-0.0110496
-0.0315378
-0.0188257
-4.84525e-06
0.0896605
0.0527284
0.00182591
0.0251725
-1.46969e-06
-2.17788e-06
-7.13397e-07
-9.05889e-06
-1.53685e-07
-3.17505e-05
0.00278061
-0.000156305
-0.00360834
-0.364204
0.170125
-0.17901
-0.024353
-0.000120473
-0.0451392
-0.000884103
-0.000339971
-1.36579e-07
-2.30173e-06
-0.000192173
0.00891815
7.99301e-07
-0.058834
-0.0234097
1.03594e-06
4.30394e-07
5.73826e-06
0.000229258
-4.65698e-06
-0.000108255
-0.0150642
-3.24789e-07
1.15726e-08
7.48911e-07
3.80218e-06
-0.000682161
-0.00418836
0.000116404
-0.0125847
0.00100135
1.38606e-09
0.0122802
0.00251977
1.17622e-07
0.00555066
-0.103305
0.0674282
0.151053
0.00721899
-2.25164e-06
-0.00856273
-0.0041285
0.00268477
0.0213066
-3.16937e-07
-4.80608e-06
1.11039e-05
-3.37425e-06
0.0226501
0.000110283
1.20296e-06
1.10977e-05
0.0130917
-0.00157152
-1.1166e-05
0.000270078
-0.059342
-0.0238391
-5.4945e-07
3.83635e-05
6.14291e-05
2.95484e-07
4.3149e-08
0.299474
5.20083e-07
0.010122
0.0162235
0.00515023
-2.76105e-07
-0.000220311
0.000808851
-1.22907e-06
-9.59593e-07
0.233915
0.110746
-9.18849e-06
1.51754e-06
0.00107454
8.13553e-05
-0.0381634
-0.107656
1.95437e-05
0.00397725
-0.0327778
-9.60513e-07
7.63159e-08
0.00153745
-2.23559e-07
-5.77795e-07
0.00673718
-2.73242e-05
0.000217951
-6.22419e-09
-0.000135528
-1.56178e-06
-6.91228e-07
1.37449e-06
2.17787e-06
-0.031018
2.45913e-07
-0.323769
0.0210374
-3.96056e-05
-0.000272505
0.0217954
-0.0205325
-0.00601432
-1.52935e-05
-9.81163e-07
2.14068e-06
1.91644e-05
-0.002015
-0.0103926
7.10064e-07
-0.475821
-0.00075749
2.6198e-05
-0.00011359
-0.00026924
-0.000290592
-0.000571419
3.24842e-06
-0.000868734
-0.00102778
-0.00151257
-0.0016365
-0.000869582
-0.000428157
0.000145377
8.46839e-08
-8.66333e-06
-2.669e-05
3.02407e-07
-0.19526
-0.0564987
0.0129094
-0.0214861
-1.2582e-06
1.13202e-06
-0.00564729
0.0463734
1.63633e-06
-9.77199e-06
-0.000282178
0.212273
0.739869
-1.53459e-06
7.73016e-05
6.52146e-06
-2.4292
-0.000352103
-5.78171e-06
0.150777
-0.00116123
-3.94399e-05
-0.0185924
-6.91185e-05
-0.120412
-0.0504874
1.66469e-07
-0.0510319
-0.00920423
-1.28906e-06
0.000252019
0.00103847
-5.63189e-05
-1.31225e-06
-0.00796769
-0.0686186
-5.98397e-07
-1.83187e-06
0.102028
0.0756889
0.000432827
-1.05033e-06
-0.0127491
-0.00256874
-0.0218933
-0.000551158
3.81853e-07
2.75667e-07
1.85116e-06
4.14283e-07
-0.00881028
0.66409
-0.047276
-0.000149828
-0.000397586
-0.0992111
-7.84257e-07
-7.19783e-08
-0.00107496
2.75941e-07
-0.0287833
-2.73442e-07
-0.0227844
2.81728e-06
-7.69058e-06
0.0483459
-5.40185e-08
0.000225812
0.02118
-2.89102e-07
-2.0965e-05
3.47644e-06
-0.00434234
0.00709801
-0.000708336
-0.0155336
1.71688e-06
3.42706e-07
-7.39568e-06
0.000424658
-0.055059
-0.349866
0.000895848
-0.00622908
0.000428382
0.115217
0.000166252
1.8747e-06
-4.18752e-07
-1.51273e-07
0.00324827
0.00190216
0.163529
-8.99304e-05
0.000319216
-6.93313e-07
-0.015016
-0.128677
-1.88864
-2.85365e-07
4.8401e-06
-3.29102e-07
-0.00830533
-0.00104405
-0.450751
-0.00137288
0.000554667
-0.00442655
-7.64167e-07
-3.30515e-05
0.00142907
-0.000739348
0.00975651
2.04678e-08
0.000486576
-3.10944e-07
8.42633e-06
0.000672348
0.118543
0.235259
2.09289e-06
0.000587484
-0.00515497
-0.108702
0.0158142
0.00140276
-0.00424923
1.20921e-06
9.41199e-05
-2.42825e-06
0.000211145
-2.8222e-06
0.00189151
-3.28508e-06
2.84886e-05
-0.00477154
-0.0411923
-2.65927e-07
-0.00208665
-0.00880804
-0.0010878
-1.56387e-05
-0.205204
-0.00110147
3.53304e-07
2.64046e-06
0.013952
4.41961e-06
0.00259242
-0.10028
0.0669293
0.0184887
4.54893e-07
-0.0113593
-0.00538673
0.334602
0.0106038
2.02789e-07
0.000389924
0.000159862
0.0148648
-0.00044712
1.71131e-06
-0.0102686
0.000905047
-0.0827711
4.57647e-05
-0.7466
0.266617
-0.0468981
-1.28265e-05
0.00786216
1.43641e-05
0.00224049
-0.00147857
0.204148
0.0260388
-1.19817e-07
5.56638e-08
0.00124695
-0.0452627
0.00237324
2.19207e-06
-0.000137495
-0.000152568
0.0432701
0.00253486
-0.00963477
2.32003e-05
-0.0102414
0.00126242
-0.076729
1.83974e-06
-0.00584363
-0.726827
3.97512e-07
-0.000674724
-3.84773e-07
2.44038e-06
1.42325e-07
-0.00239926
8.61432e-07
-7.70402e-07
-0.0438115
0.00247005
-1.36828e-07
-0.0556062
3.99401e-06
-1.8287e-06
-1.13463e-07
-1.7753e-06
-2.44493e-07
0.0640706
-0.0414933
8.74518e-07
-0.0338071
-0.000202714
-0.000157123
0.300578
-0.000231195
2.18082e-05
-4.40576e-05
1.09734e-07
-0.00408074
6.50327e-05
-0.0554139
1.58292e-07
0.0191844
-0.105714
0.000165899
0.419586
-0.0141919
2.07064e-07
0.00992006
8.58567e-05
-0.000211105
-0.00350953
-4.04622e-07
0.00162674
-0.00156515
1.77286e-07
-0.0627541
4.03745e-08
0.0081259
-0.00100822
0.0937497
-0.00313776
-0.00226668
-0.0352405
-8.60616e-07
-2.53629e-06
-0.000215175
6.07191e-06
6.73456e-07
6.1866e-07
3.33602e-05
-9.02788e-07
-3.03844e-07
4.52469e-06
-0.000103663
7.85548e-06
3.96783e-05
-2.5722e-07
-0.000488718
-0.000829805
1.03572e-05
-0.0104128
9.23096e-06
-4.76838e-07
-0.000286106
-0.000119068
1.0828e-06
-1.11113e-06
0.00786614
-4.63314e-06
0.00250951
-4.98799e-06
-0.00069468
1.47598e-07
-2.79041e-06
-0.00304205
-0.0585759
-0.000186782
7.78885e-05
-3.2424e-07
-0.0214235
7.58984e-08
-1.65386e-07
-0.000161622
-1.49319e-06
-0.00242847
-0.00879101
8.01169e-05
-0.0119246
-9.52984e-05
0.0170874
2.44577e-06
1.34255e-06
0.000104234
0.00943822
-0.000214799
6.32999e-05
-0.215969