/*--------------------------------*- C++ -*----------------------------------*\
| =========                 |                                                 |
| \\      /  F ield         | OpenFOAM: The Open Source CFD Toolbox           |
|  \\    /   O peration     | Version:  v2012                                 |
|   \\  /    A nd           | Website:  www.openfoam.com                      |
|    \\/     M anipulation  |                                                 |
\*---------------------------------------------------------------------------*/
FoamFile
{
    version     2.0;
    format      ascii;
    class       volScalarField;
    location    "400";
    object      k;
}
// * * * * * * * * * * * * * * * * * * * * * * * * * * * * * * * * * * * * * //

dimensions      [0 2 -2 0 0 0 0];


internalField   nonuniform List<scalar> 
13917
(
0.0171836
0.000173083
0.000228471
0.000150132
0.000164933
0.00017205
0.000159176
0.00025464
0.000156902
0.00255814
0.000229653
0.000147657
0.000166858
0.0313412
0.000161142
0.0141159
0.000148223
0.000207155
0.000197584
0.0138477
0.000169176
0.000147114
0.000175288
0.000147117
0.000153345
0.000171614
0.00679049
0.00200241
0.000182602
0.000133565
0.00119107
0.000185268
0.000150316
0.0286811
0.000144263
0.000185313
0.000155083
0.000162373
0.000159273
0.000172595
0.000147067
0.000144265
0.000154276
0.000196375
0.000196121
0.000128599
0.000167423
0.0158189
0.0199476
0.000144332
0.000147364
0.000197394
0.00798097
0.000147114
0.000147721
0.000197394
0.0003273
0.000175249
0.000143728
6.44735e-05
0.0392531
0.000178231
0.000140349
0.000152865
0.0266857
0.000269861
0.000187357
0.000170111
0.000216772
0.0168221
0.015463
0.0266205
0.000146995
0.00014299
0.000170242
0.000154569
0.000155282
0.000142512
0.000154068
0.000150567
0.000149977
0.000149074
0.000146783
0.0171423
0.000140713
0.000284755
0.00018442
0.000144945
0.000172235
0.000148002
0.000138276
0.000154602
0.0190043
0.000142269
0.000150006
0.000186761
0.000104293
0.000151418
0.000144042
0.000216253
0.000143596
0.000142634
0.000150184
0.000144543
0.000154814
0.0203347
0.0234724
0.00017733
0.000145237
0.0113749
0.000144041
0.0295732
0.000182152
0.0161133
0.0262203
0.000155504
0.000196356
0.000139809
0.000209105
0.000145768
0.00014875
0.000141405
0.000193132
0.000193695
0.0191007
0.0215115
0.000152389
0.000171957
0.000142506
0.000193986
0.000165317
0.000142913
0.0430421
0.000155447
0.000189079
0.0121492
0.0402568
0.0207307
0.00017405
0.000161849
0.0157398
0.000141966
0.019195
0.000142058
0.000146139
0.000155109
0.015024
0.00824666
0.0137853
0.000147478
0.000169831
0.000141707
0.000145828
0.000145859
0.00213485
0.000149277
0.00014397
0.0439296
0.000144794
0.000141473
0.000140838
0.0276523
0.000158406
0.0136028
0.0266412
0.000235447
0.00716144
0.0264092
0.000128247
0.000176292
0.000147742
0.040907
0.000156793
0.034794
0.000186073
0.000143081
0.000150106
0.000199475
0.000164622
0.000159206
0.000154097
0.000147282
0.000147368
0.000221773
0.000209012
0.00014157
0.000147106
0.000228447
0.000133555
0.000251497
0.000186251
0.000194503
0.00020324
0.0171783
0.000142266
0.019376
0.000158378
0.0423945
0.000143976
0.000148645
0.000164801
0.0165695
0.0178399
0.000154016
0.00825442
0.000170849
0.000170325
0.000141932
0.00019932
0.000149969
0.000139236
0.000182245
0.000185623
0.0151822
0.000188461
0.000173327
0.0304438
0.000154517
0.000134991
0.000134876
0.025584
0.000207267
0.000140715
0.000142432
0.000141165
0.0151691
0.0165638
0.000134318
0.000134168
0.000147064
0.000135253
0.000135163
0.0249947
0.019704
0.000148267
0.000128447
0.000188273
0.025217
0.000146158
0.000142406
0.00905761
0.0206264
0.000222141
0.0308235
0.0001916
0.000142131
0.0253951
0.000189346
0.000179241
0.000188692
0.000153482
0.0183772
0.000146001
0.000173837
0.000184297
0.000148726
0.000147832
0.000152773
0.000158737
0.000144368
0.0251396
0.0212214
0.000141536
0.000134106
0.000149717
0.000134139
0.000146044
0.000167533
0.000169643
0.000142071
0.0250233
0.0246883
0.000144907
0.000155127
0.000667144
0.000134327
0.000200574
0.0283257
0.00013442
0.0206882
0.000143841
0.0269541
0.000143738
0.000158925
0.000149049
0.000141806
0.000204034
0.000155215
0.000132309
0.000162046
0.0194323
0.000159863
0.0023233
0.0204585
0.000142191
0.000179203
0.000160372
0.00015615
0.000162858
0.000153914
0.00014278
0.00015279
0.000198182
0.000211572
0.000172969
0.000153543
0.000142268
0.0436584
0.0140993
0.00014173
0.000148179
0.000156206
0.00911128
0.000199339
0.026153
0.032364
0.000195452
0.000214365
0.000154266
0.0138451
0.0127904
0.000225537
0.00016603
0.000160756
0.00657061
0.000148584
0.000176229
0.000194211
0.000147137
0.0404773
0.000141127
0.00017166
0.000136905
0.00659272
0.000137914
0.000171224
0.000171834
0.000201531
0.000146597
0.000188649
0.0150151
0.000149609
0.000148562
0.0316275
0.0163893
0.0248223
0.0313651
0.000134072
0.000148151
0.0223377
0.000206143
0.000134204
0.000162349
0.000147145
0.000185982
0.00017191
0.000198052
0.000190795
0.000201654
0.000171492
0.0246471
0.000142881
0.000149621
0.000168738
0.000210685
0.000146726
0.0152182
0.000171232
0.00343099
0.000148049
0.000195016
0.000149434
0.0118411
0.000143984
0.000152647
0.000820031
0.000174564
0.000145239
0.00264795
0.000138189
0.0267079
0.000204272
0.000143974
0.0139535
0.000150392
0.00294554
0.000137993
0.0153426
0.00291715
0.00015406
0.0182282
0.000197098
0.000152551
0.0283383
0.000225598
0.00015305
0.000204452
0.00014762
0.00020018
0.000227219
0.000141351
0.000158187
0.000153436
0.000141542
0.000139025
0.000143354
0.0387687
0.000222173
0.000148802
0.000143894
0.000146177
0.00017851
5.55929e-05
0.000135314
0.000128398
0.000198931
0.000195266
0.000142125
0.000153696
0.029158
0.00620256
0.000225446
0.000198806
0.00790792
0.000139175
0.00013486
0.000165889
0.000138919
0.000135403
0.000148599
0.000134984
0.000138758
0.0231292
0.000147962
0.00017455
0.027183
0.000178997
0.000139464
0.000145597
0.0281447
0.000165015
0.0163755
0.000136322
0.0001425
0.000138695
0.000135546
0.000154732
0.00015098
0.0281809
0.000157983
0.0227178
0.000142454
0.000167795
0.000162333
0.000149653
0.000191262
0.0256949
0.000146853
0.0177965
0.000139806
0.000142624
0.00014577
0.000150469
0.000138752
0.000150125
0.0434131
0.0364325
0.000138544
0.00268892
0.000198599
0.000147473
0.000181478
0.000186701
0.0279863
0.000159291
0.0208404
0.00359572
0.00373124
0.000151063
0.000227561
0.000164909
0.00015306
0.0108111
0.000139608
0.000146699
0.000150014
0.000157576
0.000168217
0.000205215
0.000179769
0.000152789
0.000156722
0.000203183
0.000181964
0.000148801
0.0300166
0.00016901
0.00016197
0.027847
0.000140785
0.0001829
0.000200894
0.000138204
0.0422906
0.000143547
0.000135521
0.000179357
0.000136368
0.000152404
0.000197468
0.0458763
0.0215892
0.000140754
0.00015071
0.000149086
0.0075842
0.0144071
0.000148259
0.00014744
0.000140531
0.000182472
0.00603177
0.000143099
0.000146312
0.000148277
0.000141278
0.000159503
0.000161852
0.000141433
0.000180317
0.000138223
0.000146493
0.000153093
0.0269067
0.000134726
0.000153979
0.000144367
0.000166945
0.000185767
0.000190832
0.000185232
0.000221221
0.000152445
0.000194652
0.0411675
0.0228261
0.0306952
0.000140996
0.000145412
0.000163026
0.000143628
0.0276762
0.000134763
0.00795367
0.000158295
0.0347229
0.00020217
0.000154332
0.00978122
0.000138489
0.000183226
0.000151088
0.000147561
0.0369835
0.000135788
0.000220697
0.000142086
0.000155016
0.000145812
0.000203755
0.000161223
0.000133749
0.000196522
0.000180828
0.0017304
0.0104488
0.0442368
0.0276672
0.000134788
0.0172074
0.0001369
0.0400865
0.00705812
0.000149141
0.000150158
0.000143161
0.000168619
0.000153623
0.000135884
0.000151122
0.000165429
0.00637187
0.000141262
0.000182655
0.000146361
0.000133627
0.000144821
0.000206451
0.0185635
0.00925706
0.000187295
0.000161576
0.00051963
0.026523
0.000138357
0.0189575
0.00016357
0.000193443
0.000143606
0.00247278
0.000141054
0.000161009
0.000146395
0.00120865
0.000169742
0.0288418
0.000142181
0.000168613
0.000144304
0.000144201
0.0257764
0.000245153
0.000145139
0.000199845
0.000142266
0.000146302
0.000142667
0.0279876
0.00014128
0.000159988
0.000134678
0.000144716
0.000210968
0.000141968
0.000198263
0.000150267
0.000138033
0.0402172
0.000183398
0.000147858
0.00859101
0.000217848
0.0001045
0.000200793
0.000138301
0.00016234
0.0250209
0.000227297
0.000164444
0.0001551
0.000162182
0.000149531
0.000143172
0.00014222
0.000187624
0.000156989
0.0280532
0.000170159
0.00305955
0.0174003
0.000213066
0.000169668
0.000202491
0.0223648
0.000142781
0.000175442
0.000474982
0.000138122
0.000143425
0.000144761
0.000154298
0.000152956
0.0174668
0.000166889
0.000141552
0.000192684
0.000141331
0.0275192
0.000143825
0.000142505
0.0450677
0.000184135
0.00376363
0.000147638
0.000139733
0.000142283
0.00014962
0.000161249
0.000141804
0.0183028
0.000164525
0.00319569
0.00390691
0.000174644
0.0443737
0.000150768
0.000150552
0.000144617
0.0298468
0.0201259
0.000159
0.0185083
0.0105846
0.000138024
0.000142101
0.000154784
0.0184057
0.00394882
0.000170076
0.000149464
0.000153999
0.000194151
0.000153161
0.000197847
0.000167159
0.000149718
0.000150672
0.00015018
0.000161087
0.000156614
0.00022736
0.000156927
0.000152927
0.0180797
0.000140131
0.0104294
0.000154472
0.000166389
0.000157948
0.000223893
0.000148549
0.000181616
0.0167765
0.00360998
0.000143858
0.000156947
0.000158181
0.000142651
0.000146141
0.000172912
0.000160796
0.000214406
0.000198537
0.000138053
0.000176422
0.000156824
0.000157666
0.000200699
0.000148556
0.000183245
0.000118621
0.000133809
0.000184071
0.00018853
0.000166839
0.00014102
0.000139014
0.000143135
0.0146179
0.000150119
0.000144488
0.000171274
0.000142103
0.000140051
0.000196407
0.000115058
0.000189166
0.00928396
0.000182884
0.0236434
0.000146164
0.000156367
2.72349e-05
0.000149006
0.000165922
0.000146356
0.000142963
0.000147489
0.000157832
0.000192006
0.000141
0.000314679
0.000147609
0.00525502
0.000154541
0.00015911
0.000136929
0.000188982
0.000159332
0.0265232
0.000190871
0.00014933
0.0261694
0.000151006
0.0235346
0.000153152
0.000230825
0.000152311
0.000140286
0.000143661
0.0387973
0.000161018
4.57535e-05
0.00807191
0.000142549
0.000167187
0.000128292
0.000158252
0.00784552
0.000128645
0.0244186
0.000154103
0.000229572
0.000195728
0.00322354
0.000135269
0.000143667
0.000191895
0.000138244
0.000146834
0.000152493
0.000145056
0.000171459
0.000135137
0.0002334
0.000149737
0.0163875
0.0233211
0.00417081
0.0245799
0.0156642
0.0146759
0.00942665
0.000137509
0.000145766
0.000145256
0.000151003
0.000140605
0.000161231
0.00014193
0.000398775
0.000147188
0.00142473
0.000149804
0.000163353
0.00019056
0.000141518
0.000174641
0.000151005
0.000148291
0.000158241
0.000138273
0.0456632
0.000189121
0.000232162
0.000141728
0.000143835
0.000148022
0.000147957
0.0274811
0.000137711
0.000231851
0.000140836
0.0033617
0.000158882
0.000142021
0.000182496
0.00018308
0.000137837
0.00389772
0.0153876
0.00015479
0.000188886
0.000138143
0.000220341
0.000139366
0.000147936
0.0221196
0.00014599
0.000150392
0.000192292
0.0207026
0.000140947
0.0143154
0.00142683
0.000144587
0.000151809
0.000145455
0.00545212
0.000143579
0.000197952
0.000146726
0.0431781
0.000159222
0.0232187
0.000143858
0.000134177
0.00354916
0.000157092
0.000139011
0.0391205
0.000152207
0.000139022
0.0168779
0.000144517
0.000145704
0.000187335
0.000152711
0.0285775
0.00017283
0.000186698
0.000198098
0.00015386
0.04192
0.000150517
0.000185663
0.000142891
0.0271307
0.00334742
0.000148114
0.000139554
0.000146433
0.000148249
0.000139125
0.000139315
0.000141893
0.000143508
0.00016249
0.000133813
0.000151739
0.000186989
0.0256465
0.0275001
0.000190688
0.000148055
0.00374255
0.000141397
9.22895e-05
0.00636443
0.00653998
0.00013521
0.000137607
0.000145712
0.000146379
0.000134969
0.000138525
0.000141881
0.000170509
0.000139085
0.00982364
0.0160123
0.000139604
0.0380097
0.000143006
0.0001434
0.000173894
0.0287622
0.000184761
0.000142429
0.00369331
0.000143233
0.000143468
0.000103966
0.000146255
0.00207645
0.000150672
0.000254934
0.00013951
0.000141707
0.000165246
0.000613176
0.00015218
0.0290388
0.000199906
0.000158071
0.000152554
0.000143869
0.000138792
0.00019199
0.000166139
0.000156652
0.0325055
0.0124955
0.000400716
0.000193147
0.000141508
0.0319462
0.000141357
0.0322773
0.000183368
0.000158322
0.000151658
0.0272769
0.0231757
0.00453893
0.000148403
0.00361408
0.000139062
0.000141956
0.000167042
0.000149436
0.000146464
4.95597e-05
0.0203744
0.000141758
0.000159278
0.0250427
0.00014176
0.000134212
0.00577694
0.0288156
0.000150622
0.000137484
0.000158675
0.000145372
0.000143063
0.000173057
0.000157404
0.000144957
0.00220861
0.000148599
0.000691802
0.00750992
0.000190753
0.0274453
0.000147918
0.000149554
0.000314501
0.020433
0.00187156
0.000149818
0.000166801
0.000148892
0.000150796
0.0001406
0.0272068
0.000161083
0.000149085
0.000178957
0.00014173
0.00358749
0.000188364
0.000197225
0.000181091
2.78424e-05
0.00373619
0.025319
0.0374339
0.000162201
0.000102665
0.000134403
0.000181689
0.00018855
0.00714317
0.000155767
0.000147572
0.000157411
0.0036792
0.000152499
0.0281551
0.000167958
0.000189457
0.0298027
0.000142763
0.000193306
0.000153529
0.000146768
0.000165724
0.000577693
0.000135379
0.000137581
0.000151772
0.0105902
0.000139061
0.000152263
0.000153547
0.00015048
0.000145498
0.000190017
0.000184918
0.000149102
0.000141343
0.000220828
0.000201206
0.000168516
0.0429078
0.000148121
0.000143368
0.019503
0.000144504
0.00015279
0.0376798
0.0289594
0.000166646
0.000181708
0.000158921
0.0146062
0.000243156
0.000166916
0.0119212
0.000142665
0.000189262
0.0265546
0.000210375
0.0035725
0.00504902
0.000138586
0.000146118
0.00016646
0.000145753
0.000146815
0.000228691
0.000146179
0.000174655
0.000135573
0.000180116
0.0282721
0.00015281
0.0105214
0.0142879
0.000143416
0.00018719
0.000157998
0.000151935
0.000142713
0.0315916
0.000186696
0.0221862
0.000160646
0.0348466
0.000188966
0.000139949
0.00400293
0.000168061
0.000147148
0.000142241
8.71632e-05
0.000142761
0.000157794
0.000171104
0.000157053
0.000149057
0.000179953
0.0208119
0.000140964
0.000210266
0.000256195
0.000146894
0.000141184
0.000154101
0.00517767
9.82931e-05
0.000139621
0.000162513
0.000162664
0.00552168
0.0175913
0.000145976
0.000139114
0.000138525
0.000143914
0.000169362
0.000154384
0.00579695
0.000148297
0.000155107
0.000544408
0.00016292
0.000190369
0.0290312
0.0349507
0.000147859
0.000144791
0.000138684
0.000151408
0.000185055
0.044403
0.000189836
0.000191156
0.000164266
0.000177197
0.00015341
0.000217623
0.000157278
0.00019577
0.000142264
0.000219523
0.000209995
0.000138633
0.000147382
0.034168
0.000177248
0.000404451
0.0256126
0.000196116
0.000142273
0.000518705
0.000161844
0.000141441
0.0225598
0.00292233
0.000142363
0.000166678
0.000195605
0.000167867
0.000150217
0.000134983
0.000141338
0.000139203
0.000142546
0.000162911
0.00017957
0.0224904
0.000168393
0.000157615
0.000164066
0.000188227
0.000140981
0.000168449
0.000164953
0.000221259
0.0237536
0.000151836
0.000134849
0.0284934
0.00014008
0.00145158
0.000152111
0.000174827
0.000148544
0.000140528
8.90438e-05
0.000158458
0.000151574
0.000143735
0.0258744
2.94658e-05
0.0262878
0.000147046
0.000145998
0.00700749
0.000141417
0.000139288
0.000196164
0.00310494
0.000159665
0.000166298
0.000149977
0.00891563
0.000141558
0.000155375
0.000149013
0.000134686
0.000218548
0.000141568
0.000138978
1.9534e-05
0.000181102
0.0224501
0.000219076
0.000141015
0.000162964
0.000140081
0.0001419
0.000152606
0.000152399
0.000146468
0.000208311
0.000145861
0.000186871
0.000163338
0.000162129
0.000145592
0.000145007
0.000142863
0.0324693
0.000135234
0.00164067
0.000185738
0.000155333
0.000178291
0.000166145
0.000163288
0.000145495
0.000159408
0.000139493
0.000138627
0.00387188
0.000168244
0.000182102
0.0001437
0.000143613
0.000139891
0.000205079
0.000141702
0.0300562
0.000175257
0.000142131
0.000142012
0.000137118
0.000175124
0.000104123
0.0207298
0.000162565
0.00324383
0.000161344
0.000190535
0.000154115
0.0231005
0.00013553
0.000134869
0.000156498
0.00183016
0.000137393
0.0326572
0.000146448
0.000144629
0.000195994
7.51302e-05
0.0152582
0.000230786
0.000157574
0.000212678
0.000204224
0.000138991
0.0238798
0.000143088
0.000142964
0.013281
0.000136375
0.0337052
0.000325152
0.000140639
0.000143691
0.000139279
0.0431243
0.000145123
0.000134975
0.000187665
0.000141066
0.000139766
0.000142964
0.000139047
0.00017414
0.000146962
0.000153201
0.00013715
0.00206732
0.000142926
0.00013732
0.000137401
0.000150394
0.000141887
0.000154145
0.000147374
0.000143345
0.000147208
0.000143456
0.000150971
0.000144852
0.000196248
0.000137101
0.00018917
0.000146571
0.000180422
0.000139278
0.000146261
0.000141769
0.000135569
0.000170197
0.000158695
0.000156213
0.0241856
9.53899e-05
0.0430504
0.0294783
0.000189011
0.026181
0.000146371
0.00014454
0.000349201
0.0310659
0.000140272
0.0261678
0.000138
0.000197331
0.0115925
0.000153915
0.000189819
0.0307704
0.0257219
0.00014377
0.000175247
0.00013979
0.000856407
0.000154893
0.0371613
0.0150954
0.000147255
0.000166502
0.000170584
0.000148974
0.00703043
0.00361105
0.000152925
0.000139146
0.00157511
0.0293932
0.000138935
0.000164472
0.000148369
0.000102733
0.000197199
0.000145934
0.000139617
0.00184334
0.000141518
0.000143462
0.000149622
0.000137755
0.00158023
0.000163308
0.000161208
0.033393
0.00014257
0.000187068
0.000146786
0.00121932
0.00018047
0.0010574
0.000138954
0.00015998
0.000140034
0.000146758
0.000153804
0.000145172
0.010636
0.000151492
0.00013819
0.000141056
0.00357398
0.000139013
0.00556053
0.0234806
0.0121882
0.000145668
0.000140286
0.000141653
0.0140899
0.00014793
0.0141088
0.000144451
0.000112251
0.000152501
0.000148316
0.0001331
0.000146527
0.000148066
0.0281119
0.000196111
0.032273
0.000145713
0.0334471
0.00504516
0.000146063
0.0289334
0.000147231
0.000157234
0.0277653
0.000153403
0.000175048
0.0218052
0.00016301
0.000185321
0.000145349
0.00614203
0.000143339
0.0063049
0.000141629
0.020295
0.000143527
0.000144485
0.000151665
0.0034124
0.000140621
0.000110703
0.000186018
0.0299078
0.000142056
0.000163011
0.0393748
0.000140728
0.00507651
0.000187823
0.000139269
0.00019654
0.000143073
0.000154453
0.00124253
0.000134504
0.000202177
0.0159778
0.000141154
0.0177643
0.000142033
0.0295049
0.00113202
0.000154386
0.000153358
0.00716446
0.00852719
0.000143519
0.00015188
0.000137942
0.000146217
0.0232583
0.000183756
0.000159677
0.000146348
0.000160243
0.0345203
0.000184366
0.0104202
0.00416234
0.000140692
0.000142835
0.000209377
0.0292703
0.0166182
0.0101471
0.000209009
0.000172118
0.000212489
0.0369074
0.027641
0.00474118
0.000139147
0.000189204
0.000174529
0.000185849
0.000144336
0.000157607
0.000182275
0.000220865
0.0122384
0.000145191
0.0111764
0.0322851
0.000176695
0.000143168
0.000143245
9.64875e-05
0.000140797
0.0442878
0.000161126
0.000143783
0.00021392
0.000198718
0.00013721
0.000168509
0.000162425
0.000144613
0.0414521
0.00015918
0.0447709
0.000141356
0.0301844
5.33117e-05
0.00020983
0.0001356
0.000158997
0.000163941
0.000277332
0.000193416
0.000185146
0.0237834
0.000177757
0.00012907
0.000157838
0.000147123
0.000198955
0.0164787
0.000138784
0.000136995
0.000151717
0.000658874
0.000291957
0.000141764
0.000178706
0.000214545
0.000139003
0.000194934
0.00015444
0.0441011
0.000160406
0.00123173
0.0158956
0.000160934
0.000155337
0.00111895
0.000141123
0.000179317
0.0241516
0.000167609
0.000198468
0.000163722
0.000180992
0.027913
0.0323875
0.000145131
0.0146689
0.000210626
0.00013642
0.000199177
0.000185072
0.000193145
0.00709455
0.000153364
0.0118913
0.000194745
0.0248566
0.000159596
0.000183824
0.000136952
0.000147344
0.000145307
0.000139305
0.000109086
0.00022281
0.00013538
0.000177948
0.000205178
0.000140965
0.00259436
0.0284238
0.000133688
0.000147586
0.000137756
0.000150962
0.000173698
0.00014331
0.0309314
0.000162221
0.000186189
0.000157315
0.000185125
0.000211213
0.000164636
0.017242
0.000144631
0.000151347
0.000135025
0.00014077
0.0384325
0.00019205
0.000162329
0.0378439
0.000146712
0.000149151
0.000165423
0.000138316
0.000141916
0.00018953
0.000156997
0.0247657
0.0225588
0.0369819
0.000145509
0.0381756
0.000142073
5.42632e-05
0.00013703
0.000200641
0.0276276
0.000144149
0.000546015
0.0248382
0.000166631
0.000152289
0.000140498
0.000160906
0.0238341
0.000137523
0.000147855
0.000153561
0.000163404
0.000208488
0.000155158
0.000157549
0.000140446
0.000153129
0.00112105
0.000167013
0.00015437
0.000198813
0.000148149
0.0375992
0.00647043
0.000159297
0.000150669
0.0241781
0.000144645
0.000184622
0.000146004
0.0235557
0.000147458
0.000147742
0.00017139
0.0268738
0.00014282
0.000138948
0.000135348
0.000200591
0.0112683
0.000195109
0.000143533
0.000154037
0.000139122
0.0331522
0.000141384
0.0047895
0.000180455
0.000146694
0.000193616
0.000165221
0.00113544
0.000149224
0.000139266
0.000163629
0.000175068
0.000197091
0.000147261
0.000148735
0.000146926
0.0304943
0.000145338
0.000151961
0.0313656
0.000152551
0.000160315
0.000155593
0.000142105
0.000143292
0.00873133
0.000153015
0.0300698
0.00357861
0.000132064
0.00118427
0.000148517
0.000194037
0.000177575
0.000153227
0.000135939
0.000131817
0.000143214
0.0137937
0.000175487
0.0321476
0.0267533
0.000139695
0.000162394
0.000171839
0.00140434
0.000143386
0.000374037
0.0337597
0.0184737
0.000142616
0.000152311
0.000149273
0.00597991
0.0378644
0.000143205
0.000144217
0.000163237
0.0308275
0.00014664
0.000152493
0.000152137
0.000196714
0.000181793
0.000135659
0.0281785
0.000162917
0.000143055
0.0169978
0.00018038
0.00191362
0.00545527
0.00016626
0.000157664
0.000152934
0.000158934
0.000149478
0.000203239
0.000178767
0.000143364
0.000155272
0.000229832
0.0239937
0.000137356
0.000192317
0.0375503
0.00279914
0.000143942
0.000145367
0.00389939
0.00914479
0.00021862
0.000142177
0.0341596
0.000183991
0.000132852
0.02211
0.000160215
0.000147378
8.30113e-05
0.000145078
0.000209384
0.00013995
0.000130738
0.000146062
0.000135312
0.0264272
0.000135222
0.000141019
0.000188676
0.000155972
0.000155171
0.000199918
0.000145644
0.000143581
0.000152172
0.000150771
0.00367213
0.00332806
5.22374e-05
0.0118334
0.000170209
0.00623459
0.000214263
0.0294288
0.0289832
0.026156
0.00013934
0.000162983
0.000143579
0.000146101
0.000141324
0.000146947
0.000207736
0.000181306
0.000172339
0.000140744
0.000142878
0.000179478
0.000147712
0.000148505
0.000145794
0.035418
0.000164675
0.0133202
0.00014534
0.00380519
0.000149045
0.000147389
0.000149304
0.000172544
0.000140593
0.000190644
0.0294484
0.000174293
0.0273233
0.00827057
0.000157258
0.000160151
0.00468524
0.000193914
0.000136517
0.000140917
0.000132043
0.0268976
0.000130645
0.000215396
0.000210878
0.000188542
0.0278628
0.0270878
0.000184162
0.0425686
0.000139078
0.000135167
0.00145741
0.0105064
0.000144033
0.000145352
0.00179981
0.000139256
0.000222424
0.000155788
0.000141025
0.000157325
0.000144706
0.000186748
0.028389
0.0260403
0.000155877
0.000145165
0.000190703
0.000151335
0.000187318
0.000139136
0.000200408
0.000191369
0.000148457
0.000146985
0.000132565
0.000195116
0.000212889
0.000210338
0.00187032
0.000163104
0.0153735
0.000187177
0.000195616
0.0271239
0.000142248
0.0273802
0.000150577
0.035186
0.000112407
0.0267448
0.0257358
0.000149625
0.000179714
0.00155399
0.000145267
0.0216093
0.00014531
0.000144748
0.000157544
0.000149646
0.000163262
0.000178771
0.00182929
0.030807
0.000157758
0.000173315
0.000151187
0.000147249
0.000146397
0.000196114
0.000190822
0.0328688
0.000175184
0.000135759
0.000137992
0.000148859
0.000223608
0.000154617
0.000149962
0.000156671
0.000198132
0.000164069
0.000175907
0.000175264
0.0285342
0.000162599
0.000165293
0.000143426
0.000157657
0.000524965
0.00112624
0.00017869
0.000138306
0.0196286
0.000165761
0.000141848
0.000176739
0.0319054
0.000935151
0.000167353
0.000139369
0.0282194
0.000148782
0.000139072
0.000136126
0.0153112
0.00149469
0.000157185
0.0101648
0.0196867
0.000168598
0.000174004
0.000182358
0.0448057
0.000164079
0.0369902
0.000148895
0.000120243
0.000161293
0.0369722
0.000166113
0.000139975
0.0354186
0.000145419
0.00015047
0.0192266
0.0125687
0.000214994
0.000703709
0.000154986
0.000151519
0.00592803
0.000141797
0.000141136
0.000145111
0.000174925
0.000143229
0.000162833
0.000168204
0.00013087
0.0027967
0.000149955
0.022108
0.000167107
0.0332078
0.0277133
0.000144924
0.000147393
0.000156823
0.000189214
0.000207535
0.000185165
0.0312933
0.0279828
0.000210008
0.000148272
0.00900614
0.02243
0.000208337
0.00094568
0.00014659
0.000144305
0.000145135
0.000150736
0.000142053
0.000165618
0.0265717
0.000164493
0.00367718
0.0195846
0.00724052
0.0355904
0.0379599
0.000162568
0.0402341
0.000196028
0.000187438
0.000136848
0.000145621
0.000185516
0.0240447
0.000149723
0.0241536
0.0366032
0.000139876
0.000145746
0.000145053
0.000191982
0.000149175
0.000187221
0.0275095
0.000137128
0.000142789
0.000139544
0.000150268
0.000193557
0.0284353
0.000170333
0.0134226
0.000193033
0.000141174
0.00345587
0.000195164
0.000147125
0.000116281
0.00180409
0.0312356
0.00696217
0.0256799
0.000144703
0.00735258
0.0301168
0.000203273
0.0157738
0.000141175
0.00015286
0.000154465
0.000153039
0.0242622
0.000184837
0.00014715
0.000159824
0.00343547
0.0301974
0.000147893
0.000146699
0.0443514
0.0372326
0.00014707
0.000161114
0.00019411
0.000142288
0.000143004
0.025433
0.000140899
0.000226959
0.00359496
0.0265221
0.000140401
0.000189906
0.000201728
0.000141526
0.000133698
0.0267493
0.0173296
0.00014761
0.000165025
0.00020535
0.000216283
0.0409329
0.00687716
0.000157718
0.00310119
0.00385489
0.000167646
0.000140439
0.000226675
0.00013489
0.000134874
0.0245177
0.000171281
0.000191566
0.000155171
0.000156402
0.000140797
0.000135785
0.000149746
0.000150544
0.0165541
0.00015474
0.00145879
0.0186314
0.000174617
0.000186964
0.0253064
0.0347492
0.0191329
0.000138978
0.000155912
0.000168205
0.000157298
0.000219183
0.00434108
0.000149668
0.001282
0.0297005
0.000159142
0.000192098
0.00018814
0.000194032
0.000195903
0.000151695
0.000198144
0.000200105
0.000202097
0.000204523
0.00019651
0.000190305
0.00015797
0.000140314
0.000165615
0.00019197
0.000140688
6.37595e-06
0.0421387
0.000216045
0.0340125
0.000133248
0.000138348
0.000235306
0.0166635
0.000150276
0.000154109
0.000183161
0.0392573
0.00294643
0.000145197
0.000163232
0.000156675
0.0101727
0.00320433
0.000154522
3.68001e-05
0.0301771
0.000194568
0.0365856
0.000192249
0.000244833
0.0415321
0.00012817
0.0393163
0.0336215
0.000150925
0.000185339
0.000190969
0.000157369
0.000139928
0.000153196
0.019416
0.000140353
0.00014075
0.0289788
0.000175795
0.000187579
0.000147551
0.000225592
0.000200173
0.0365115
0.0275547
0.000145415
0.000142693
0.000150067
0.000157062
0.0343431
0.00261107
0.0288285
0.000190321
0.000123413
0.00479531
0.000157456
0.000140032
0.0301738
0.000140769
0.0383874
0.000140334
0.0375296
0.000151096
0.000150363
0.00958474
0.000144912
0.000196675
0.00654534
0.000166498
0.000153335
0.000151474
0.000206801
0.0252107
0.000201976
0.0349092
0.000165159
0.00015524
0.000160081
0.000186768
0.0427827
0.0378101
0.000190683
0.000220055
0.000198671
0.0104408
0.00013883
0.0001405
0.000137295
0.000136865
0.000110918
0.000204451
0.00150655
0.000173917
0.000202176
0.000141464
0.00345241
0.00023452
0.00935073
0.000143422
0.000151955
0.000130932
0.0323253
0.000126452
0.000734951
0.000139639
0.000198115
0.000152051
0.000132298
0.000169081
0.000200882
9.4507e-05
9.96198e-05
0.000145052
0.000200048
0.000148853
0.000146809
0.000196984
0.00984879
0.00490609
0.000147776
0.000188895
0.000163982
0.0376014
0.0190767
0.0323856
0.0278091
0.000141334
0.000182869
0.000145989
0.000200907
0.000142798
0.000192903
0.000152583
0.000177319
0.00299607
0.00750572
0.000161704
0.000203826
0.0336841
0.000196883
0.000153332
0.0150522
0.00019508
0.000151749
0.000148375
0.0254181
0.000161683
0.00019531
3.24511e-05
0.000600897
0.020296
0.000158141
0.0220035
0.0291369
0.00744178
0.00015258
0.00016451
0.00019593
0.000193852
0.0299606
0.000212114
0.000149807
0.00102534
0.00018624
7.61408e-05
0.000160699
0.0260923
0.000511323
0.00232789
0.000157732
0.0285523
0.000155044
0.0259644
0.000202715
0.00424639
0.0157119
0.000139068
0.000130858
0.0289626
0.0381741
0.000202351
0.000149406
0.000174832
0.000163419
0.020117
0.000221693
0.0335253
0.000158264
0.0332806
0.000194975
0.0184999
0.000149584
0.000162297
0.0308844
0.000163441
0.000190201
0.000132856
0.000155108
0.000145994
0.00299098
0.000141828
0.000145598
0.0406948
0.0102419
0.00013671
0.0408041
0.00015047
0.000145551
0.000142364
0.000140453
0.000147422
0.00016054
0.0416163
0.000137356
0.000140736
0.000185644
0.000176146
0.00190982
0.00019097
0.000157458
0.000164376
0.000141889
0.00298616
0.00016224
0.0415793
0.000169973
0.0192928
0.000751331
0.000186416
0.00331799
0.0329186
0.000137826
0.0239805
0.000180843
0.000185164
0.000190515
0.000142122
0.000204654
0.000208363
0.000145422
3.74555e-05
0.000142892
0.0283401
0.000201776
0.0252162
0.000206383
0.000205361
0.0398092
0.000146015
0.000142824
0.000183626
0.000152254
0.000147334
0.000147633
0.000160114
0.000141181
0.00014125
0.000151496
0.000175726
0.000153003
0.000160245
0.000156048
0.000174271
0.000193864
0.000153814
0.0307588
0.000153188
0.000141937
0.000192854
0.000172394
0.000157682
0.000141181
0.000161972
0.000152944
0.0288402
0.000153464
0.000195735
0.000142188
0.00014489
0.000206386
0.0432303
0.000186772
0.00016949
0.000133148
0.0369934
0.000146259
0.000140965
0.000188713
0.000154376
0.000202751
0.033731
0.000194342
0.000262241
0.000174268
0.0203403
0.000145521
0.000146331
0.000184031
0.00319982
0.000182461
0.000192957
0.0283442
0.000160568
0.000145693
0.00016044
0.000226041
0.00018085
0.000145652
0.000194801
0.000193218
0.000184722
0.000147299
0.000145783
0.000222444
0.000184081
0.00253803
0.0062818
0.000153737
0.000187181
0.000147125
0.000173911
0.00995295
0.000147269
0.000206167
0.000274087
0.000189407
0.0193841
0.000144934
0.000144421
0.000141549
0.039363
0.000218099
0.000153467
0.000203851
0.000196679
0.000146842
0.000144925
0.000163562
0.0401832
0.00022799
0.0324084
0.000211342
0.000163097
3.62122e-05
0.000198582
0.000162993
0.00123949
0.000191365
0.00127143
0.000145042
0.000193263
0.000200745
0.000150599
0.000251472