/*--------------------------------*- C++ -*----------------------------------*\
| =========                 |                                                 |
| \\      /  F ield         | OpenFOAM: The Open Source CFD Toolbox           |
|  \\    /   O peration     | Version:  v2012                                 |
|   \\  /    A nd           | Website:  www.openfoam.com                      |
|    \\/     M anipulation  |                                                 |
\*---------------------------------------------------------------------------*/
FoamFile
{
    version     2.0;
    format      ascii;
    class       volScalarField;
    location    "400";
    object      k_0;
}
// * * * * * * * * * * * * * * * * * * * * * * * * * * * * * * * * * * * * * //

dimensions      [0 2 -2 0 0 0 0];


internalField   nonuniform List<scalar> 
13917
(
0.0171827
0.000173039
0.000228465
0.000150131
0.000164891
0.000172016
0.000159177
0.000254573
0.000156902
0.00255725
0.000229567
0.000147656
0.000166858
0.031362
0.000161163
0.0141155
0.000148223
0.00020709
0.000197589
0.0138481
0.000169171
0.000147114
0.000175289
0.000147116
0.000153345
0.000171606
0.00672007
0.00199974
0.000182583
0.000133565
0.00119149
0.000185272
0.000150315
0.0286753
0.000144264
0.000184537
0.000155081
0.000162373
0.000159273
0.000172599
0.000147067
0.000144264
0.000154276
0.00019638
0.000196125
0.00013317
0.000167418
0.015882
0.0198044
0.000144332
0.000147364
0.000197345
0.00798167
0.000147114
0.000147721
0.000197349
0.000337673
0.000175249
0.000143727
6.81426e-05
0.0392269
0.00017812
0.000140349
0.000152864
0.0266463
0.000268271
0.000187333
0.000169811
0.000216756
0.0168223
0.0154343
0.0266165
0.000146995
0.000142991
0.000170238
0.000154568
0.00015527
0.000142511
0.000154067
0.000150567
0.000149978
0.000149074
0.000146783
0.0171442
0.000140713
0.000284147
0.000184424
0.000144945
0.000172239
0.000148002
0.000138276
0.000154602
0.0188517
0.000142269
0.000150007
0.000186732
0.000103828
0.000151418
0.000144042
0.000216388
0.000143596
0.000142634
0.000150185
0.000144543
0.000154803
0.0203034
0.0234701
0.000177267
0.000145234
0.0113148
0.000144041
0.0295664
0.000182131
0.0162452
0.0261826
0.000155503
0.00019636
0.000139809
0.000209095
0.000145768
0.00014875
0.000141405
0.000193102
0.000193691
0.0190997
0.0215066
0.000152389
0.000171954
0.000142506
0.000193984
0.000165317
0.000143129
0.0430501
0.000155446
0.000189085
0.0120859
0.0401722
0.0207305
0.000174039
0.000161849
0.0156848
0.000141966
0.0191582
0.000142057
0.000146139
0.000155046
0.0149999
0.00827968
0.013812
0.000147478
0.000169833
0.000141707
0.000145829
0.00014586
0.00211568
0.000149278
0.00014397
0.0439389
0.000144794
0.000141473
0.000140838
0.0276666
0.000158401
0.0135012
0.0266366
0.00023588
0.0071618
0.0265103
0.000128247
0.000176281
0.000147741
0.0409053
0.000156793
0.0347781
0.000186073
0.000143081
0.000150106
0.000199418
0.000164623
0.0001592
0.000154097
0.000147281
0.000147368
0.000221823
0.000209008
0.000141201
0.000147105
0.000228652
0.000133555
0.00025185
0.000186256
0.000194506
0.00020323
0.017177
0.000142266
0.0193749
0.000158378
0.0424036
0.000143976
0.000148645
0.000164797
0.0165698
0.0178395
0.000154016
0.00819877
0.000170818
0.000170327
0.000141932
0.000199267
0.00014997
0.000139236
0.000182167
0.000185552
0.015211
0.000188466
0.000173319
0.0304328
0.000154517
0.00013499
0.000134876
0.0256985
0.000207179
0.000139891
0.000142432
0.000141165
0.0151227
0.0165636
0.000134318
0.000134168
0.000147064
0.000135253
0.000135163
0.0249918
0.0197083
0.000148266
0.000128447
0.000188257
0.0252137
0.000146158
0.000142406
0.00898831
0.0205852
0.000221951
0.0308133
0.000191586
0.000142131
0.0254253
0.000189329
0.000179222
0.000188694
0.000153482
0.0183849
0.000146001
0.000173841
0.000184301
0.000148726
0.000147832
0.000152773
0.000158724
0.000144368
0.0251362
0.0212305
0.000141536
0.000134106
0.000149717
0.000134139
0.000146044
0.000167533
0.000169644
0.000142071
0.0250242
0.0246873
0.000144907
0.000155117
0.000670711
0.000134327
0.000200632
0.0283209
0.00013442
0.0206872
0.00014384
0.0269728
0.000143738
0.00015894
0.000149048
0.000141806
0.000204054
0.000155215
0.000132146
0.000162046
0.0194548
0.000159736
0.00229728
0.0204592
0.000142191
0.000179202
0.000160347
0.000156148
0.000162823
0.000153914
0.00014278
0.00015279
0.000198124
0.000211461
0.000172973
0.000153542
0.000142268
0.0436674
0.0140997
0.00014173
0.000148158
0.000156205
0.00908206
0.000199363
0.0261494
0.0323494
0.00019461
0.000214414
0.00015426
0.0138486
0.0128009
0.000225515
0.00016603
0.000160777
0.0065162
0.000148583
0.000176168
0.000194215
0.000147137
0.0404733
0.000141127
0.000171661
0.000136905
0.00659559
0.000137913
0.000171227
0.00017181
0.000201423
0.000146597
0.000188652
0.0149918
0.00014961
0.000148561
0.0316177
0.016358
0.0248572
0.0313781
0.000134072
0.000148151
0.0222954
0.000206148
0.000134204
0.000162314
0.000147145
0.000185993
0.000171913
0.000198034
0.000190822
0.000201708
0.000171493
0.0246442
0.00014288
0.000149621
0.000168717
0.000210715
0.000146726
0.0152175
0.000171233
0.0034328
0.000148049
0.000195042
0.00014944
0.0115712
0.000143983
0.000151883
0.000824779
0.000174535
0.000145239
0.00263033
0.000138191
0.0267019
0.000204269
0.000143974
0.0137449
0.00015039
0.00293074
0.000137993
0.015342
0.00290151
0.000154059
0.0181969
0.000197142
0.000152551
0.0283525
0.0002256
0.000153049
0.000204477
0.00014762
0.000200236
0.000227212
0.000141351
0.000158187
0.000153436
0.000141542
0.000139025
0.000143354
0.038676
0.000222504
0.000148803
0.000143893
0.000146177
0.000178509
5.70112e-05
0.000135314
0.000128398
0.000198953
0.000195303
0.000142125
0.000153695
0.0291437
0.00619504
0.000222585
0.000198813
0.00791698
0.000139176
0.00013486
0.000165882
0.000138919
0.000135403
0.000148599
0.000134984
0.000138759
0.0231371
0.000147963
0.000174556
0.0271839
0.000178996
0.000139464
0.000145597
0.0281646
0.00016501
0.0163752
0.000136323
0.0001425
0.0001387
0.000135546
0.000154731
0.000150978
0.028166
0.000158012
0.0226808
0.000142454
0.000167795
0.00016231
0.000149653
0.000191243
0.0257247
0.000146853
0.0178511
0.000139806
0.000142624
0.00014577
0.000150468
0.000138752
0.000150125
0.0434211
0.0364332
0.000138544
0.00266287
0.000198615
0.000147473
0.000181477
0.000186706
0.0279976
0.000159291
0.0208127
0.00360106
0.00373371
0.000151061
0.000225128
0.000164812
0.00015306
0.0108485
0.000139607
0.000146699
0.000150014
0.000157576
0.000168216
0.000205216
0.000179771
0.000152787
0.000156709
0.000203144
0.000181978
0.000148801
0.0299591
0.00016901
0.000161971
0.0278511
0.000140785
0.000182915
0.000200831
0.000138204
0.0422978
0.000143547
0.000135521
0.000179356
0.000136368
0.000152404
0.000197416
0.0458865
0.0215775
0.000140754
0.00015071
0.000149085
0.00763378
0.0143775
0.000148259
0.00014744
0.000140531
0.000182475
0.00607431
0.000143098
0.000146312
0.000148278
0.000141278
0.000159508
0.000161852
0.000141433
0.000180318
0.000138223
0.000146493
0.000153093
0.0269016
0.000134726
0.000153979
0.000144367
0.000166946
0.000185766
0.000190839
0.000185234
0.000221354
0.000152445
0.0001946
0.0411764
0.0228238
0.0306969
0.000140996
0.000145412
0.000162961
0.000143628
0.0276396
0.000134763
0.00802395
0.000158295
0.0347256
0.000202239
0.000154332
0.0097814
0.000138489
0.000183231
0.000151088
0.000147562
0.0369847
0.000135788
0.000220696
0.000142086
0.000155016
0.000145812
0.000203748
0.000161223
0.000133749
0.000196528
0.000180826
0.00170438
0.0104342
0.0442466
0.0276701
0.000134788
0.017207
0.0001369
0.0400246
0.00714943
0.000149138
0.000150231
0.000143161
0.00016862
0.000153623
0.000135883
0.000151122
0.000165429
0.0063657
0.000141262
0.000182659
0.000146361
0.000133627
0.000144821
0.000204798
0.0185732
0.00925852
0.000187297
0.000161576
0.000507001
0.0265188
0.000138357
0.0190035
0.00016357
0.000193456
0.000143606
0.00246172
0.000141054
0.000161015
0.000146395
0.00118939
0.000169743
0.0288103
0.000142181
0.000168614
0.000144304
0.000144201
0.0257727
0.000245474
0.000145139
0.000199831
0.000142266
0.0001463
0.000142667
0.0279823
0.00014128
0.000159966
0.000134678
0.000144716
0.000210998
0.000141968
0.000198262
0.000150267
0.000138033
0.0401613
0.000183403
0.000147859
0.00859169
0.000217813
0.000106502
0.00020073
0.000138301
0.000162367
0.0250165
0.000227444
0.000164438
0.000155098
0.000162189
0.000149531
0.000143172
0.000143388
0.000187618
0.000156989
0.0280828
0.00017016
0.00300097
0.017372
0.000213024
0.00016967
0.000202496
0.0223631
0.000142782
0.000175442
0.000485632
0.000138122
0.000143425
0.000144761
0.000154308
0.000152956
0.0174667
0.00016689
0.000141552
0.000192688
0.000141331
0.0275157
0.000143825
0.000142505
0.0450786
0.000184133
0.00376712
0.000147638
0.000139733
0.000142283
0.00014962
0.000161249
0.000141804
0.0183019
0.000164526
0.00319888
0.00391223
0.000174685
0.0443829
0.000150768
0.000150552
0.000144617
0.0298411
0.0201024
0.000159
0.0185074
0.0106286
0.000138024
0.000142101
0.000154783
0.0183826
0.00396435
0.000170077
0.000149464
0.000153999
0.000194163
0.000153157
0.000197835
0.00016716
0.000149719
0.000150672
0.00015018
0.000161088
0.000156602
0.000227303
0.000156925
0.000152901
0.0180789
0.00014011
0.01049
0.00015447
0.000166374
0.000157948
0.000224024
0.000148549
0.00018162
0.0167799
0.00359669
0.000143858
0.000156945
0.00015818
0.000142651
0.000146141
0.000172917
0.000160846
0.000214093
0.000198532
0.000138053
0.0001765
0.000156824
0.000157666
0.000200697
0.000148556
0.00018325
0.000111784
0.000133809
0.00018407
0.000188532
0.00016684
0.00014102
0.000139013
0.000143135
0.0146184
0.000150119
0.000144487
0.000171275
0.000142103
0.000140051
0.000196364
0.000114392
0.000189239
0.00928225
0.000182892
0.0236016
0.000146164
0.000156354
2.68978e-05
0.000149004
0.000166231
0.000146356
0.000142963
0.000147489
0.00015783
0.000192019
0.000141
0.000310122
0.000147611
0.00538851
0.00015454
0.00015911
0.000136929
0.000188984
0.000159347
0.026553
0.000190994
0.00014933
0.0261653
0.000151005
0.023532
0.000153152
0.000230962
0.000152307
0.000140286
0.000143661
0.0387828
0.000161018
4.84839e-05
0.00809134
0.000142549
0.000167188
0.000128292
0.000158252
0.00787074
0.000128645
0.0244199
0.000154103
0.000229831
0.000195731
0.00317827
0.000135269
0.000143667
0.000191917
0.000138244
0.000146834
0.000152493
0.000145056
0.00017146
0.000135137
0.00023357
0.000149737
0.0163871
0.0233186
0.00420409
0.0245407
0.0156654
0.0146755
0.00935826
0.000137509
0.000145764
0.000145256
0.000151002
0.000140605
0.000161231
0.00014193
0.000396692
0.000147189
0.00143022
0.000149804
0.000163354
0.000190608
0.000141518
0.000174647
0.000151005
0.000148292
0.000158241
0.000138275
0.0456679
0.000189111
0.000238983
0.000141728
0.000143835
0.000148022
0.000147958
0.0274757
0.000137711
0.00023225
0.000140836
0.00336731
0.000158894
0.00014202
0.0001825
0.000182924
0.000137837
0.00389897
0.0154347
0.00015479
0.000188889
0.000138144
0.000220347
0.000139365
0.000147937
0.0221177
0.00014599
0.000150392
0.000192296
0.0207012
0.00014095
0.0142577
0.00141253
0.000144585
0.000151805
0.000145455
0.00546436
0.000143579
0.000197957
0.000146726
0.0431868
0.000159238
0.0231462
0.000143858
0.000134177
0.00353805
0.000157092
0.000138999
0.0391272
0.000152207
0.000139022
0.0168825
0.000144515
0.000145702
0.000187331
0.00015271
0.0285405
0.000172834
0.000186704
0.000198039
0.00015386
0.041924
0.000150518
0.000185661
0.000142891
0.027129
0.00335166
0.000148114
0.000139553
0.000146433
0.00014825
0.000139123
0.000139315
0.000141893
0.000143507
0.00016249
0.000133813
0.000151739
0.000186993
0.0256433
0.027524
0.000190691
0.000148054
0.00373842
0.000141397
9.21801e-05
0.00640715
0.00653986
0.00013521
0.000137607
0.000145712
0.000146379
0.000134969
0.000138529
0.000141881
0.000170511
0.000139085
0.00982528
0.0160046
0.000139604
0.0379964
0.000143006
0.000143399
0.000173849
0.028756
0.000184779
0.000142429
0.00370016
0.000143234
0.000143467
0.000104405
0.000146252
0.00206147
0.000150672
0.000255065
0.00013951
0.000141707
0.000165242
0.000605736
0.000152179
0.0290324
0.000199705
0.000158071
0.000152548
0.000143869
0.000138792
0.000192
0.00016614
0.000156652
0.0324987
0.0124973
0.000396666
0.000193159
0.000141509
0.0319433
0.000141358
0.0322373
0.000183368
0.000158322
0.000151658
0.0271469
0.0231734
0.00450119
0.000148376
0.00374595
0.000139062
0.000141956
0.000167043
0.000149437
0.000146464
5.42629e-05
0.0203734
0.000141758
0.000159278
0.0250394
0.00014176
0.000134212
0.00585371
0.0288171
0.000150622
0.000137484
0.000158675
0.000145373
0.000143063
0.000173078
0.000157405
0.000144957
0.00218822
0.000148559
0.000703117
0.00754699
0.000190579
0.0274424
0.000147918
0.000149553
0.000313496
0.0204313
0.00185826
0.000149862
0.000166793
0.000148892
0.000150796
0.000140603
0.0272335
0.000161172
0.000149084
0.000178958
0.00014173
0.00357556
0.000188366
0.00019724
0.000181095
2.70457e-05
0.00374822
0.0253188
0.0374179
0.000162201
0.000101491
0.000134403
0.000181693
0.000188535
0.007165
0.000155767
0.000147573
0.000157411
0.00363032
0.000152499
0.0281612
0.000167959
0.000189454
0.0297966
0.000142763
0.00019332
0.000153528
0.000146768
0.000165691
0.000581449
0.000135379
0.000137581
0.000151771
0.0105451
0.000139061
0.000152263
0.000153547
0.00015048
0.000145498
0.000190057
0.000184923
0.000149101
0.000141343
0.000220907
0.000201279
0.0001685
0.0429137
0.000148121
0.000143368
0.0194847
0.000144503
0.00015279
0.0376626
0.0289565
0.000166641
0.000181715
0.000158915
0.0146061
0.000243444
0.000166914
0.0118943
0.000142664
0.000189246
0.0265555
0.00021035
0.00363292
0.00490271
0.000138586
0.000146118
0.00016646
0.000145753
0.000146814
0.000228649
0.000146179
0.000174655
0.000135573
0.000180119
0.0282894
0.000152809
0.010571
0.0143567
0.000143416
0.000187196
0.000158
0.000151935
0.000142713
0.0315907
0.000186698
0.0221847
0.000160645
0.0349121
0.000188975
0.000139949
0.00405779
0.000168061
0.00014718
0.00014224
8.77161e-05
0.000142761
0.000157792
0.000171099
0.000157054
0.000149057
0.000179955
0.0207478
0.000140964
0.000210106
0.000256441
0.000146895
0.000141183
0.000154065
0.00515643
9.51603e-05
0.000139621
0.000162513
0.000162865
0.00544818
0.0175918
0.000145976
0.000139114
0.000138525
0.000143914
0.000169362
0.000154383
0.00575944
0.000148298
0.000155107
0.000546876
0.000163038
0.000190373
0.029034
0.0350149
0.000147859
0.000144791
0.000138684
0.000151408
0.00018506
0.0444015
0.000188635
0.000191203
0.000164261
0.000177199
0.00015341
0.000217982
0.000157275
0.000195775
0.000142265
0.000219531
0.000210415
0.000138633
0.000147382
0.0341533
0.000177248
0.000404934
0.0256064
0.000196072
0.000142273
0.000526737
0.000161844
0.000141441
0.0226022
0.00289258
0.000142364
0.000166667
0.000195608
0.000167868
0.000150217
0.000134983
0.000141338
0.000139202
0.000142546
0.000162911
0.000179581
0.0224887
0.000168394
0.000157616
0.000164066
0.00018824
0.000140981
0.000168446
0.000164574
0.000221322
0.0237541
0.000151837
0.000134849
0.0284921
0.00014008
0.00144181
0.000152111
0.000174834
0.000148544
0.000140528
8.85292e-05
0.000158458
0.000151575
0.000143735
0.025717
2.95639e-05
0.0262837
0.000147047
0.000145998
0.00681662
0.000141417
0.000139289
0.000196246
0.00313485
0.000159664
0.000166299
0.000149977
0.00888041
0.000141558
0.000155375
0.000149013
0.000134686
0.000218601
0.000141568
0.000138978
1.33664e-05
0.000181106
0.0223592
0.000219108
0.000141015
0.000162964
0.000140081
0.0001419
0.0001526
0.000152399
0.000146468
0.000208381
0.000145861
0.00018686
0.000163304
0.000162115
0.000145592
0.000144988
0.000142862
0.0324712
0.000135234
0.00161013
0.000185742
0.000155333
0.000178292
0.000166146
0.000163288
0.000145496
0.000159397
0.000139494
0.000138627
0.00386979
0.000168217
0.000182053
0.0001437
0.000143614
0.000139888
0.000205079
0.000141701
0.0300521
0.000175257
0.000142132
0.000142012
0.000137118
0.000175124
0.000100708
0.0207286
0.000162926
0.0032336
0.000161366
0.000190526
0.00015412
0.0231188
0.00013553
0.000134869
0.000156498
0.00185076
0.000137393
0.0326457
0.000146448
0.000144629
0.000196067
7.45701e-05
0.0152577
0.000228724
0.000157574
0.000212782
0.000202199
0.000138991
0.0238926
0.000143088
0.000142964
0.0132341
0.000136375
0.0336905
0.000323224
0.000140639
0.00014369
0.000139279
0.0431331
0.000145123
0.000134975
0.00018767
0.000141066
0.000139766
0.000142948
0.000139047
0.000174141
0.000146962
0.000153195
0.00013715
0.00203839
0.00014373
0.00013732
0.000137401
0.000150394
0.000141887
0.000154145
0.000147375
0.000143345
0.000147208
0.000143456
0.000150971
0.000144852
0.000196222
0.0001371
0.000189172
0.000146571
0.00018035
0.000139278
0.000146261
0.000141769
0.000135569
0.000170199
0.000158709
0.000156213
0.0240712
9.6221e-05
0.0430564
0.0294772
0.000189014
0.0261416
0.00014637
0.00014454
0.000341089
0.0310199
0.000140267
0.0261637
0.000137999
0.000197353
0.0115994
0.000153915
0.00018982
0.0308542
0.0256776
0.00014377
0.000175248
0.00013979
0.000846896
0.000154893
0.0371425
0.015096
0.000147255
0.000167038
0.000169514
0.000148974
0.00708088
0.00361512
0.000152924
0.000139146
0.0015913
0.0293889
0.000138934
0.000164472
0.000148369
0.000103085
0.000197148
0.000145935
0.000139617
0.00182396
0.000141518
0.000143463
0.000149622
0.000137756
0.0016028
0.000163329
0.000161208
0.0333897
0.00014257
0.000187079
0.000146786
0.00123743
0.000180473
0.00104623
0.000138954
0.000159981
0.000140034
0.000146758
0.000153804
0.000145173
0.0106827
0.000151492
0.000138191
0.000141056
0.00357516
0.000139013
0.00553396
0.0234806
0.0122267
0.000145669
0.000140286
0.000141653
0.0140422
0.000147931
0.0140626
0.000144451
0.000116598
0.000152501
0.000148319
0.000133667
0.000146527
0.000148066
0.0281077
0.000196116
0.0322618
0.000145713
0.0334519
0.00505868
0.000146063
0.0289272
0.000147231
0.000157244
0.027803
0.000153406
0.000175019
0.0218035
0.000162994
0.000185322
0.000145349
0.00611131
0.000143339
0.00628805
0.000141629
0.0202942
0.000143527
0.000144485
0.000151662
0.00354653
0.000140621
0.000111428
0.000186039
0.0299374
0.000142056
0.000163006
0.0393725
0.000141285
0.00506133
0.000187808
0.000139269
0.000196533
0.00014572
0.000154454
0.00123685
0.000134504
0.000202159
0.015978
0.000141154
0.0177645
0.000142033
0.0295102
0.00115085
0.000154386
0.000153351
0.00717145
0.00861308
0.000143519
0.00015188
0.000137942
0.000146217
0.02325
0.000183761
0.000159731
0.000146349
0.000160243
0.0345036
0.000184822
0.0103191
0.00413648
0.000140692
0.000142835
0.000209371
0.0292379
0.0165702
0.0101856
0.000209084
0.00017212
0.000212651
0.0368987
0.0276415
0.00478743
0.000139148
0.000189191
0.00017453
0.000185862
0.000144336
0.000157608
0.000182286
0.00022087
0.0122813
0.000145187
0.0113583
0.0322802
0.00017668
0.000143168
0.000143245
9.96489e-05
0.000140797
0.0442978
0.000161126
0.000143793
0.000213732
0.000199586
0.00013721
0.00016851
0.000162425
0.000144613
0.0414567
0.000159245
0.0447766
0.000141356
0.0301768
5.34801e-05
0.000209811
0.000135601
0.000158996
0.000163923
0.000277848
0.0001934
0.000185149
0.0237706
0.000178172
0.00012907
0.000157838
0.000147124
0.00019896
0.0164785
0.000138784
0.000136995
0.000151716
0.000657046
0.000292304
0.000141764
0.000178716
0.000214458
0.000139003
0.000195812
0.00015444
0.0441082
0.000160422
0.00121443
0.0158517
0.000160935
0.000155338
0.00111418
0.000141123
0.0001793
0.0241486
0.000167609
0.00019852
0.000163722
0.000180995
0.027882
0.0323901
0.000145131
0.0145547
0.000211083
0.00013642
0.000199196
0.00018507
0.00019318
0.00713543
0.000151323
0.011921
0.00019471
0.0248591
0.000159595
0.000183828
0.000136952
0.000147344
0.000145307
0.000139305
0.000110433
0.000222857
0.00013538
0.000177885
0.000205197
0.000140965
0.00265231
0.0283895
0.000133687
0.000147587
0.000137756
0.000150963
0.0001737
0.00014331
0.0310232
0.000162221
0.00018618
0.000157319
0.000185141
0.00021136
0.000164643
0.0173749
0.000144631
0.000151348
0.000135025
0.00014077
0.0384343
0.000192061
0.000162324
0.0378633
0.000146713
0.000149151
0.000165401
0.000138316
0.000141916
0.000189556
0.000156997
0.0247629
0.0224734
0.0369431
0.000145509
0.0380514
0.000142073
6.96123e-05
0.00013703
0.000200646
0.0275063
0.000144149
0.000542604
0.0248349
0.000166626
0.000152289
0.000140498
0.000160904
0.023868
0.000137523
0.000147855
0.000153561
0.000163404
0.000208512
0.000155158
0.000157549
0.000140446
0.000153129
0.00110592
0.000167014
0.00015437
0.000198819
0.000150285
0.0375798
0.00633002
0.000159297
0.00015067
0.024174
0.000144646
0.000184623
0.000146004
0.0235564
0.000147456
0.000147743
0.000171354
0.0268989
0.00014282
0.000138948
0.000135348
0.000200616
0.0112695
0.000195067
0.000143534
0.000154041
0.000139123
0.0331511
0.000141384
0.00478832
0.000180458
0.000146695
0.000193501
0.000165213
0.00115874
0.000149224
0.000139266
0.00016363
0.000175046
0.000197172
0.000147261
0.000148735
0.000146924
0.0304857
0.000145338
0.000151961
0.0313652
0.000152551
0.000160407
0.000155593
0.000142105
0.000143292
0.00875476
0.000153015
0.0301748
0.00357757
0.000132064
0.00119192
0.000148517
0.000194
0.000177582
0.000153227
0.00013594
0.000131817
0.000143214
0.0136013
0.000175489
0.0321504
0.0267563
0.000139696
0.000162784
0.000171842
0.00140812
0.000143386
0.000363928
0.033759
0.0184788
0.000142616
0.00015231
0.000149273
0.00591672
0.037862
0.000143214
0.000144217
0.000163237
0.0309361
0.00014664
0.000152493
0.000152138
0.000196735
0.000182007
0.000135659
0.0281991
0.000162941
0.000143055
0.0170468
0.000180383
0.00192407
0.00531456
0.000166256
0.000157675
0.000152934
0.000158928
0.000149479
0.000203166
0.000178772
0.000143364
0.000155272
0.000229943
0.023886
0.000137356
0.000192309
0.0374115
0.00278564
0.000143941
0.000145367
0.0038998
0.00915398
0.000218531
0.000142177
0.0340544
0.000183996
0.000132852
0.0221082
0.000160214
0.000147378
8.18961e-05
0.000145078
0.000209247
0.000139951
0.000130738
0.000146063
0.000135312
0.0263896
0.000135223
0.000141019
0.000188676
0.000155973
0.000155174
0.000199924
0.000145645
0.000143581
0.000152172
0.000150771
0.00366342
0.00331735
5.2656e-05
0.0116728
0.000170241
0.00624698
0.000214298
0.0294291
0.0287954
0.0261261
0.00013934
0.000162968
0.000143579
0.000146101
0.000141324
0.000146945
0.000207798
0.00018131
0.000172334
0.000140744
0.000142878
0.000179481
0.000147711
0.000148506
0.000145794
0.0354213
0.000164676
0.0133207
0.00014534
0.00380332
0.000149046
0.00014739
0.000149303
0.000172545
0.000140593
0.000190626
0.0294417
0.000174295
0.0273209
0.00833102
0.000157258
0.000160151
0.00468902
0.000193881
0.000136517
0.000140917
0.000132044
0.0268969
0.000130645
0.000215389
0.000210644
0.00018853
0.0279815
0.0271515
0.000184165
0.0425713
0.000139078
0.000135167
0.00144818
0.0104658
0.000144034
0.000145352
0.00174669
0.000139256
0.000222252
0.000155788
0.000141025
0.000157322
0.000144706
0.000186739
0.028383
0.0260368
0.000155877
0.000145165
0.000190737
0.000151334
0.000187335
0.000139136
0.000200413
0.00019138
0.000148457
0.000146984
0.000132565
0.000195173
0.000212871
0.000210375
0.00189087
0.000163104
0.0153802
0.000187181
0.000195634
0.0271275
0.000142248
0.0273856
0.000150577
0.0351903
0.000113766
0.0267514
0.0257128
0.000149625
0.000179718
0.00154621
0.000145267
0.0216078
0.00014531
0.000144748
0.000157544
0.000149646
0.000163263
0.000179353
0.00181123
0.0308638
0.000157758
0.000173316
0.000151187
0.000147251
0.000146397
0.000196074
0.000190826
0.0327956
0.00017519
0.00013576
0.000137992
0.000148858
0.000223642
0.000154617
0.00014996
0.000156671
0.000198181
0.00016407
0.000175889
0.000175318
0.0285396
0.000162599
0.000165294
0.000143426
0.000157658
0.000527205
0.00115629
0.000178692
0.000138306
0.0196727
0.000165762
0.000141848
0.000176739
0.0318945
0.000919972
0.00016735
0.000139369
0.0282175
0.000148783
0.000139072
0.000136126
0.0152608
0.00147978
0.000157185
0.0102114
0.0196452
0.000168598
0.000174063
0.000182364
0.0448129
0.00016408
0.0369825
0.000148895
0.000115922
0.00016121
0.0369775
0.000166114
0.000139975
0.0354026
0.000145419
0.00015047
0.0194423
0.0125255
0.000214998
0.000706818
0.000154986
0.000151519
0.00591505
0.000141797
0.000141136
0.000145111
0.000174925
0.000143228
0.000162836
0.000168204
0.000126656
0.00279339
0.000149955
0.0221065
0.000167107
0.0331962
0.0277097
0.000144924
0.000147393
0.000156823
0.000189085
0.000207594
0.000185159
0.0312838
0.027998
0.000210298
0.000148273
0.00896361
0.0224263
0.000208323
0.000950215
0.00014659
0.000144305
0.000145135
0.000150737
0.000142053
0.000165618
0.0265676
0.000164528
0.00367844
0.0195881
0.00721173
0.0355377
0.037942
0.000162583
0.040242
0.000196011
0.000187442
0.000136848
0.000145621
0.000185518
0.0240423
0.000149723
0.024184
0.0365831
0.000139876
0.000145746
0.000145052
0.000192023
0.000149176
0.000187212
0.027511
0.000137128
0.000142789
0.000139544
0.000150268
0.000193567
0.0284298
0.000170323
0.0134073
0.00019301
0.000141174
0.00345125
0.000195209
0.000147125
0.00011619
0.00180622
0.0311607
0.00692805
0.0256761
0.000144704
0.00736283
0.0301092
0.000203233
0.0157829
0.000141176
0.00015286
0.000154464
0.000153039
0.0242665
0.000184831
0.00014715
0.000159824
0.00343167
0.03019
0.000147894
0.000146675
0.0443614
0.0372114
0.000147071
0.000161112
0.000194075
0.000142288
0.000143004
0.0253254
0.000140899
0.000226938
0.00358816
0.0265286
0.000140401
0.000189933
0.000201741
0.000141526
0.000133698
0.0266172
0.0172883
0.000147611
0.000165042
0.000205272
0.000216387
0.0409338
0.00691937
0.000157717
0.0030992
0.00386647
0.000167648
0.000140439
0.000226515
0.00013489
0.000134874
0.0245152
0.000171282
0.000191538
0.000155171
0.000156413
0.000140797
0.000135785
0.000149746
0.000150544
0.0166006
0.00015474
0.0014773
0.0186309
0.000174623
0.000186964
0.0253302
0.0347551
0.0191714
0.000138977
0.000155912
0.000168207
0.000157297
0.00021904
0.00432977
0.000149668
0.0012952
0.0296954
0.000159141
0.000192103
0.000188141
0.000194038
0.000195909
0.000151695
0.000198153
0.000200114
0.000202115
0.000204538
0.000196523
0.000190305
0.000157949
0.000140314
0.000165616
0.000191974
0.000140688
6.12504e-06
0.0421478
0.000215922
0.033996
0.000133248
0.000138348
0.000233151
0.0166204
0.000150276
0.00015411
0.000183165
0.0391846
0.00286435
0.000145198
0.000163219
0.000156675
0.0101735
0.00320459
0.000154522
3.59988e-05
0.0301696
0.000194571
0.0365669
0.00019222
0.000240103
0.0415403
0.00012817
0.0393186
0.0336158
0.000150925
0.000185345
0.000190968
0.000157378
0.000139928
0.000154742
0.0194128
0.000140353
0.00014075
0.0289265
0.00017546
0.000187585
0.000147551
0.000225711
0.000200155
0.0364931
0.0275541
0.000145415
0.000142693
0.000150067
0.000157062
0.0343306
0.0025314
0.0288125
0.000190325
0.000123568
0.00484669
0.000157456
0.000140032
0.0301667
0.000140768
0.0383906
0.000140334
0.0375127
0.000151096
0.000150364
0.00942842
0.000144912
0.000196679
0.00650149
0.000166498
0.000153338
0.000151474
0.000206853
0.0252076
0.000201938
0.0348948
0.000165159
0.00015524
0.000160081
0.000186777
0.0427783
0.0378288
0.000190696
0.000220031
0.000198673
0.0104094
0.000138816
0.0001405
0.000137295
0.000136865
0.000111251
0.000204352
0.00148907
0.00017392
0.00020218
0.000141464
0.00345614
0.000235053
0.00934402
0.000143422
0.000151955
0.000130932
0.0323152
0.000126784
0.000773205
0.000139733
0.000198118
0.000152106
0.000132298
0.000169082
0.000200847
9.49635e-05
9.89838e-05
0.000145052
0.00020005
0.000148853
0.000146807
0.000197044
0.00969027
0.00488612
0.000147776
0.000188919
0.000163858
0.0375265
0.0190758
0.0323814
0.0278144
0.000141334
0.000182867
0.000145989
0.00020091
0.000142798
0.000192902
0.000152584
0.000177319
0.00299656
0.00747851
0.000161704
0.000203897
0.0336774
0.000196906
0.000153336
0.0152158
0.000195098
0.000151749
0.000148375
0.0254243
0.000161684
0.000195286
3.23707e-05
0.000588101
0.0202949
0.00015814
0.0219627
0.0291305
0.00726825
0.000154515
0.00016451
0.000195934
0.000193856
0.0299568
0.000211994
0.000149807
0.00103022
0.000186338
7.60768e-05
0.000160696
0.0260981
0.000506309
0.00232992
0.000157732
0.028577
0.000155043
0.0259608
0.000202683
0.00423991
0.0157115
0.000139068
0.000130858
0.0289563
0.0381781
0.000202185
0.000149406
0.000174836
0.000163448
0.020081
0.000221502
0.0335209
0.000158262
0.0332784
0.000194948
0.0183907
0.000149584
0.000162054
0.0309278
0.000163441
0.00019021
0.000132856
0.000155108
0.000145994
0.00299125
0.000141827
0.000145598
0.0407011
0.0102502
0.00013671
0.040805
0.00015047
0.000145551
0.000142364
0.000140453
0.000147422
0.000160168
0.041618
0.000137356
0.000146269
0.000185647
0.000176148
0.00189695
0.000190975
0.000157457
0.000164376
0.000141889
0.0029869
0.000162231
0.0415767
0.000169973
0.0192999
0.000753361
0.000186406
0.00329009
0.0329187
0.000137826
0.0239777
0.000180843
0.000185164
0.000190604
0.000142123
0.000204442
0.000208433
0.000145422
4.33954e-05
0.000142892
0.0283452
0.000201786
0.0252012
0.000206428
0.000205393
0.0398131
0.000146015
0.000142824
0.000183629
0.000152253
0.000147334
0.000147633
0.000160112
0.000141182
0.00014125
0.000151496
0.000175728
0.000153002
0.000160241
0.000156048
0.00017432
0.000193879
0.000153813
0.0307632
0.000153187
0.000141937
0.00019286
0.000172395
0.000157682
0.000141181
0.000165092
0.000152944
0.0288342
0.000153464
0.000195689
0.000142188
0.00014489
0.00020647
0.0432399
0.000186776
0.000169483
0.000133148
0.036976
0.000146259
0.000140965
0.000188716
0.000154376
0.000202721
0.0337232
0.000194345
0.000262531
0.000174273
0.0203395
0.00014552
0.000146331
0.000184048
0.00319592
0.000182464
0.000192923
0.0283447
0.000160566
0.000145693
0.00016044
0.00022611
0.000180853
0.000145652
0.000194808
0.000193233
0.000184717
0.000147299
0.000145784
0.000222652
0.000184076
0.00251133
0.00630468
0.000153741
0.000187182
0.000147125
0.000173913
0.00998766
0.000147269
0.000206094
0.000272876
0.00018939
0.0193416
0.000144934
0.000144421
0.000141549
0.0393694
0.000218058
0.000153466
0.000203923
0.000196687
0.000146842
0.000144925
0.000163899
0.040189
0.000228059
0.0324024
0.000211414
0.000163098
3.6413e-05
0.000198593
0.000162994
0.00134303
0.000191375
0.00136088
0.000145042
0.000193278
0.000200757
0.000150599
0.00026456
0.000172244
0.000209454
0.000159955