/*--------------------------------*- C++ -*----------------------------------*\
| =========                 |                                                 |
| \\      /  F ield         | OpenFOAM: The Open Source CFD Toolbox           |
|  \\    /   O peration     | Version:  v2012                                 |
|   \\  /    A nd           | Website:  www.openfoam.com                      |
|    \\/     M anipulation  |                                                 |
\*---------------------------------------------------------------------------*/
FoamFile
{
    version     2.0;
    format      ascii;
    class       volScalarField;
    location    "400";
    object      nut;
}
// * * * * * * * * * * * * * * * * * * * * * * * * * * * * * * * * * * * * * //

dimensions      [0 2 -1 0 0 0 0];


internalField   nonuniform List<scalar> 
13917
(
0.00331712
0.00407043
0.00107423
0.00573853
0.00521913
0.00411044
0.00324365
0.00248828
0.00282838
0.000290392
0.00265065
0.00594902
0.00437337
0.0204771
0.00525854
0.00207922
0.00601375
0.0025253
0.00154237
0.00199805
0.00309967
0.00595869
0.00221446
0.0059587
0.0056949
0.00284869
0.00406159
0.000176851
0.00232196
0.00591936
0.000121604
0.00237368
0.00594124
0.00960672
0.00594803
0.0015418
0.00576173
0.00613365
0.00282519
0.0024173
0.00594863
0.00589979
0.00292081
0.00161827
0.00166881
0.000545024
0.00330866
0.00294735
0.015502
0.00594633
0.00594543
0.00167597
0.000493506
0.00595436
0.00595973
0.00169298
1.21271e-05
0.00243464
0.00590811
0.000349256
0.0112607
0.00558129
0.00597629
0.00549628
0.00858503
0.00800603
0.00228843
0.00164233
0.00259698
0.00292695
0.00532197
0.00857414
0.00591828
0.00592825
0.00280132
0.00579511
0.00567467
0.00593102
0.00582065
0.00593453
0.00593972
0.00601601
0.00591274
0.00556328
0.00582351
0.00211023
0.00184674
0.00589438
0.00233549
0.0060346
0.00590328
0.00271409
0.0150782
0.00594237
0.00594708
0.00233175
0.000205711
0.00603554
0.00587824
0.00177277
0.00598847
0.00596327
0.00593678
0.00596257
0.00567272
0.00600123
0.00843249
0.00559589
0.00587784
0.00644454
0.00584329
0.0100396
0.00235167
0.0029206
0.00841586
0.00517921
0.00165299
0.00594877
0.00112119
0.00588479
0.00603883
0.00594216
0.00232716
0.00175091
0.0035958
0.00556701
0.00561554
0.00260736
0.0059268
0.00196257
0.00237087
0.000987163
0.0121688
0.00575163
0.00184858
0.00683721
0.0123634
0.00396471
0.00266419
0.00612384
0.0181198
0.00593965
0.00567427
0.00587919
0.00590176
0.00577411
0.00519136
0.0140184
0.0027101
0.00595972
0.00260265
0.00597035
0.00589433
0.00588593
0.0018592
0.00589607
0.0059545
0.0125389
0.00597706
0.00597232
0.00583734
0.00958243
0.00549098
0.016125
0.00851628
0.00145215
0.000196165
0.00638755
0.00579506
0.00251125
0.00595471
0.0119155
0.00273962
0.0110089
0.00260058
0.00597627
0.0059344
0.00155004
0.00245687
0.0054097
0.0030926
0.00595724
0.00594624
0.0007629
0.00108124
0.000683997
0.00594268
0.00103784
0.00591238
0.00207236
0.00259971
0.00165805
0.00138782
0.00345133
0.00594034
0.00377655
0.00404575
0.0117478
0.00594647
0.00592266
0.00370409
0.00299717
0.00267893
0.00579988
0.00472987
0.00442986
0.00246051
0.00593777
0.00156497
0.00594048
0.00585732
0.00472002
0.00438914
0.00337445
0.00211794
0.00264341
0.0103224
0.006065
0.00584872
0.0058473
0.0050996
0.00124873
0.000904523
0.00582605
0.0059461
0.00846316
0.00267884
0.00583303
0.00582906
0.00592798
0.00585831
0.00585697
0.0076885
0.00625899
0.0059598
0.00580037
0.00245792
0.00755138
0.00601834
0.00582596
0.00505201
0.00599559
0.000888824
0.0104895
0.00196887
0.00587986
0.00626833
0.00237863
0.00243518
0.0021743
0.00583282
0.00535698
0.00589169
0.00305161
0.0028358
0.00595333
0.00591026
0.00551666
0.00535682
0.00594211
0.00678883
0.0190672
0.00594325
0.00582564
0.00588563
0.00582539
0.00589211
0.00613139
0.00276929
0.00593767
0.00598852
0.00907575
0.00590171
0.00559086
0.000610639
0.00585795
0.0013953
0.00851487
0.00585872
0.00487603
0.00594378
0.00935466
0.00598082
0.00546045
0.00594981
0.00587916
0.00109034
0.00607101
0.000931146
0.0034225
0.017902
0.00583381
0.00196192
0.00375296
0.00598252
0.0027204
0.00530431
0.00570998
0.00525345
0.00582333
0.00594751
0.00606561
0.00156216
0.00531492
0.00269342
0.00584314
0.00582569
0.0123071
0.0017172
0.0059161
0.00580506
0.00570434
0.0120268
0.00157778
0.00951921
0.011034
0.00622658
0.00146093
0.00562112
0.00469078
0.0152914
0.00106404
0.00611069
0.00529268
0.0041066
0.00593155
0.00370364
0.00175766
0.00600058
0.0117962
0.00583133
0.00201081
0.00592625
0.000358816
0.00581976
0.00288851
0.00387528
0.00609863
0.00602122
0.00194433
0.0046955
0.00595409
0.00593276
0.0107936
0.00501882
0.0090065
0.0204615
0.00584903
0.00596246
0.00637721
0.00140439
0.00585047
0.00525276
0.00594849
0.00170901
0.00281013
0.00167121
0.00205122
0.00156822
0.00199574
0.00782185
0.00593246
0.00595265
0.00506979
0.000922226
0.00599011
0.00253952
0.00235799
0.0120318
0.00596318
0.00162178
0.00580777
0.00990528
0.00588597
0.000785492
0.000937485
0.00351896
0.00590952
0.00131009
0.00592396
0.00823658
0.00130536
0.00588434
0.0115751
0.00591786
0.0105362
0.00586451
0.00260929
0.010367
0.00582006
0.00996943
0.00154568
0.00587233
0.00948957
0.000978522
0.00586479
0.00112863
0.00596136
0.00149044
0.00107182
0.00583534
0.00305548
0.0058441
0.00587072
0.00582259
0.00593844
0.0120055
0.00150361
0.00596005
0.00594767
0.00595777
0.00331861
0.000188618
0.00589284
0.00579569
0.00159883
0.00163396
0.00588579
0.00583582
0.0109331
0.00400103
0.00430209
0.00139532
0.00289325
0.00593377
0.00587949
0.00404734
0.00582105
0.0058925
0.00595501
0.00588047
0.00593024
0.00589313
0.00596372
0.00228544
0.00710701
0.00247015
0.00586218
0.00588983
0.0095366
0.0038552
0.00252722
0.0059138
0.00583762
0.00592195
0.00586893
0.00577208
0.00589867
0.0107008
0.00534424
0.00653395
0.0058374
0.00274283
0.0056516
0.00594467
0.00200529
0.00937852
0.0059442
0.0101214
0.00586705
0.00588642
0.00595324
0.00591659
0.00584903
0.00597798
0.0123951
0.0106769
0.0058449
0.00198644
0.00162503
0.00591729
0.00273241
0.00188693
0.00913066
0.00275982
0.00612565
0.0126292
0.0129508
0.00589646
0.00807018
0.00570425
0.00584499
0.00427276
0.00592479
0.00594904
0.00594581
0.00319781
0.0029068
0.00125118
0.00218935
0.00563846
0.00548634
0.0024816
0.00199053
0.00595967
0.0213263
0.00313768
0.00340214
0.00855573
0.0058242
0.00187159
0.00140564
0.00581846
0.012762
0.00590033
0.00586903
0.00287419
0.0059134
0.00602523
0.0015672
0.012873
0.0120563
0.00583438
0.00493909
0.00576887
0.00321631
0.00616425
0.00596223
0.00595698
0.00583016
0.00302664
0.0122397
0.00593932
0.0060172
0.00592688
0.00586449
0.00556841
0.00326661
0.00595296
0.00226285
0.005819
0.00595968
0.00586026
0.00958498
0.00581423
0.00393226
0.00594068
0.00235658
0.00266451
0.00183763
0.0027388
0.00168735
0.00588499
0.00235605
0.0113702
0.00708653
0.00886742
0.00590561
0.00595064
0.0058312
0.00586684
0.00874415
0.00587017
0.0112583
0.00373639
0.00969818
0.00150651
0.00326937
0.000804987
0.00584601
0.00166738
0.00605367
0.00585547
0.00875188
0.00590443
0.00102119
0.00597055
0.00600411
0.00595542
0.00130268
0.00554397
0.00581353
0.00169246
0.00319905
0.00509127
0.00376448
0.0122001
0.0100912
0.00581499
0.00286152
0.00594154
0.0119516
0.0127947
0.00580881
0.00566887
0.00598576
0.00279207
0.0031673
0.0059045
0.0060488
0.00611942
0.00250151
0.00584119
0.0020654
0.00594383
0.00581151
0.0060179
0.0010437
0.00635363
0.000756723
0.00195178
0.00326123
0.000465838
0.00819317
0.00587321
0.00699941
0.006098
0.00196103
0.00586806
0.0014738
0.00586031
0.00555815
0.00590647
0.00398271
0.00291701
0.00930241
0.00595979
0.00285318
0.00594973
0.00596164
0.0085166
0.0016892
0.00594093
0.00156405
0.00582559
0.00587623
0.00597067
0.00965215
0.00584054
0.00531091
0.00586953
0.00594721
0.000975852
0.00596514
0.00165301
0.00602278
0.00581899
0.0117902
0.00203943
0.00595924
0.000490291
0.00101609
0.000846709
0.00133769
0.0058424
0.00512992
0.00862282
0.00101387
0.0043258
0.00575881
0.00554141
0.00603794
0.00592985
0.0016158
0.002564
0.00450525
0.00825658
0.00269392
0.00333278
0.00725974
0.00528357
0.00293277
0.00123898
0.00588082
0.0059459
0.00524176
0.00387988
0.00581915
0.00597998
0.00602502
0.00560035
0.00603454
0.00305777
0.00216697
0.00590069
0.00176825
0.00594617
0.0100521
0.005945
0.00592798
0.012986
0.00259786
0.0113726
0.00593312
0.00587232
0.00593001
0.00593686
0.00284395
0.0058844
0.00305319
0.00317804
0.00678214
0.0116268
0.00522167
0.0121566
0.00502049
0.00605934
0.00594819
0.00927424
0.0110444
0.00389595
0.00323705
0.0150112
0.00582116
0.00592259
0.00577276
0.00555056
0.0120459
0.00306192
0.00593872
0.00371438
0.00190835
0.00570835
0.00161527
0.00212351
0.00594972
0.0059337
0.00602651
0.00293505
0.00548727
0.00100896
0.00566247
0.00571938
0.00314682
0.00594316
0.0146674
0.00579935
0.00459724
0.00376027
0.00101531
0.00604391
0.00196339
0.00607054
0.0144882
0.00586949
0.00565803
0.00610006
0.00584832
0.00589892
0.00490144
0.00540646
0.00130823
0.00163117
0.0058399
0.00083804
0.00266008
0.0028949
0.00133424
0.00595776
0.00193994
0.000298135
0.0058077
0.00240599
0.00226437
0.00223744
0.0058862
0.00585192
0.00593156
0.00206706
0.00594355
0.00593333
0.00213206
0.00589033
0.00587485
0.00176082
0.000869806
0.00456547
0.00560251
0.00180518
0.00664774
0.00589819
0.00561892
5.13553e-05
0.00580283
0.00491857
0.00601323
0.00596623
0.00593402
0.00560274
0.00169286
0.00588701
0.00675776
0.00593878
0.0104828
0.00579332
0.00284416
0.00592414
0.00182478
0.00542668
0.00903037
0.00434565
0.0060189
0.00939678
0.00592823
0.00600143
0.00323345
0.00373775
0.00577236
0.00589534
0.00586525
0.0103339
0.00303745
0.000285892
0.00490541
0.00584542
0.00218183
0.00579734
0.00554832
0.0146045
0.00580637
0.00725047
0.00360463
0.00363864
0.00161147
0.0063047
0.00583543
0.00596737
0.00188129
0.0058435
0.00595255
0.0058864
0.0059482
0.00207199
0.00583343
0.00207645
0.00595149
0.00295111
0.00578366
0.00621012
0.00693749
0.00893482
0.00198796
0.0119034
0.00581894
0.0058817
0.0058955
0.005929
0.00583252
0.00313247
0.00585937
0.00107393
0.00595772
0.000780957
0.00594924
0.00222018
0.00212118
0.0059205
0.0023718
0.00592871
0.00583082
0.00379511
0.00592714
0.0122254
0.00242034
0.00205165
0.00591758
0.00584167
0.00594807
0.00593359
0.00895598
0.00582058
0.00160968
0.00585534
0.011999
0.00552207
0.00587251
0.00194908
0.00561198
0.00582254
0.0115502
0.00576641
0.00575337
0.00192259
0.00584672
0.00177012
0.00591826
0.0059326
0.00630414
0.00600047
0.00587684
0.0018104
0.00538954
0.00584029
0.0171942
0.00104278
0.00587903
0.00584913
0.00595263
0.00222401
0.00583952
0.00168307
0.00592986
0.0128531
0.00546613
0.00989211
0.0059454
0.00588817
0.0122839
0.00608507
0.00592187
0.0105274
0.00588755
0.00582709
0.0193686
0.00587539
0.00588173
0.00259245
0.00587346
0.00902465
0.00238123
0.0019026
0.00145124
0.00420292
0.0126667
0.00593476
0.00248192
0.0058413
0.00740234
0.0119585
0.00593817
0.00591509
0.00588713
0.00596069
0.0059408
0.00593052
0.00594102
0.00586003
0.00328046
0.00580777
0.00590793
0.00199166
0.00875123
0.00940396
0.00183408
0.00594651
0.0128685
0.00584872
0.000183052
0.0128418
0.000208157
0.00586873
0.00582008
0.00589282
0.00595142
0.00586402
0.00592017
0.00584711
0.00294313
0.00582746
0.000899408
0.0186197
0.00584467
0.0107419
0.00584307
0.00593755
0.00566316
0.0100296
0.00180128
0.00597729
0.0113153
0.00594576
0.00594136
0.000304183
0.00587687
0.00204295
0.00592313
0.00362528
0.00586057
0.00593913
0.00389045
0.00253315
0.00589525
0.00949292
0.00591009
0.00613637
0.00581261
0.00584455
0.00584761
0.00196777
0.00209056
0.00452615
0.0104563
0.00159607
0.00260238
0.00197257
0.00594079
0.00988027
0.00593972
0.0113351
0.00290579
0.00283467
0.00591186
0.0109198
0.0130864
0.00172187
0.0059826
0.00789595
0.00593376
0.00585848
0.00208165
0.00595243
0.0059255
0.000125146
0.00492608
0.00594156
0.00234951
0.00735207
0.00595488
0.0058471
0.00823251
0.0104502
0.00593946
0.0059324
0.00314062
0.0058871
0.0059374
0.00491336
0.00555759
0.00588767
0.00532866
0.0059924
0.0036445
0.0143841
0.00572318
0.00772992
0.00593735
0.00595045
0.00375075
0.0053016
0.00829002
0.00572914
0.00373726
0.00585691
0.00525212
0.00583732
0.00878936
0.00557257
0.00591293
0.00218673
0.00587463
0.0144602
0.00203174
0.0017253
0.00197225
7.24242e-05
0.0115906
0.00963711
0.0119354
0.0061289
0.000283468
0.00585186
0.00310278
0.00242126
0.0134352
0.00383099
0.00585204
0.00393512
0.00424435
0.00587165
0.0090754
0.00299243
0.00218407
0.0110254
0.00595922
0.00197732
0.00584269
0.00595684
0.00550256
0.00379162
0.00591025
0.00583527
0.0059101
0.00347863
0.00583022
0.00588807
0.00343965
0.00593338
0.00591884
0.00211196
0.00193841
0.00591248
0.00591214
0.00186521
0.00312186
0.0043848
0.0126826
0.00594414
0.00584098
0.0109607
0.00593229
0.00586323
0.011882
0.00842865
0.00522363
0.00310084
0.0054707
0.00191662
0.00176116
0.00328056
0.00431624
0.00593303
0.00239239
0.00827531
0.00105369
0.00852864
0.00516014
0.00592984
0.00595521
0.00613498
0.0059241
0.00596109
0.00101948
0.00600884
0.00300064
0.00581929
0.00197679
0.00983231
0.00587241
0.00424916
0.00817606
0.00584397
0.00212896
0.00550115
0.00590067
0.00585139
0.00954433
0.00196917
0.00609498
0.00394069
0.00770992
0.00222767
0.00587253
0.00708674
0.00297276
0.00584537
0.00587903
0.000466753
0.00585125
0.00559917
0.00281766
0.00558757
0.00566512
0.00217542
0.00907976
0.00583892
0.00134308
0.00356808
0.00595555
0.00584668
0.00572594
0.00205506
0.000269177
0.00588573
0.00227221
0.00559257
0.00775702
0.00264744
0.00591519
0.00582959
0.00592852
0.00584453
0.00622726
0.00578581
0.0020743
0.00592832
0.00361923
0.00296146
0.00555794
0.00189095
0.0103891
0.00889636
0.00593477
0.00594357
0.00582205
0.00591333
0.00185672
0.0116812
0.00328585
0.00207854
0.00415843
0.00218431
0.00335914
0.00617553
0.00563191
0.00165469
0.00593974
0.00187799
0.00568407
0.00587131
0.00592487
0.0114194
0.00320737
0.00294871
0.00839167
0.00161218
0.00592873
0.000741079
0.00615942
0.00582816
0.00793827
0.00618036
0.00594026
0.00523244
0.0015961
0.00284165
0.0059406
0.00583204
0.00584959
0.00585923
0.00584382
0.00321434
0.00216678
0.00503928
0.00273887
0.00343849
0.0024946
0.00229512
0.00590691
0.00288147
0.000792363
0.000993474
0.00877307
0.00589186
0.00583195
0.00803592
0.00584544
0.0067409
0.00549382
0.0021411
0.00596088
0.00585212
0.000266384
0.00371667
0.00590145
0.00584036
0.0106047
6.78587e-05
0.00796017
0.00595079
0.00595552
0.00698392
0.00597543
0.00593251
0.00170109
0.00688536
0.00416928
0.0025997
0.00594539
0.00300618
0.00582839
0.00573615
0.00540247
0.00582911
0.00099388
0.0058308
0.0058545
3.87644e-05
0.00207052
0.0100503
0.00102192
0.00582437
0.003328
0.0058735
0.00592412
0.00580658
0.00598143
0.00593686
0.00111187
0.005913
0.00260411
0.00550608
0.00581237
0.00589131
0.00591774
0.00593101
0.00968547
0.00590332
0.00277149
0.00199263
0.00602941
0.00223854
0.00252337
0.00302579
0.00592485
0.00548618
0.00584727
0.00587306
0.01387
0.00440197
0.00612224
0.00595493
0.00594746
0.00591617
0.00230663
0.00587182
0.0103761
0.0028889
0.00594024
0.0058252
0.00585109
0.00302065
0.00301061
0.0117208
0.00468921
0.0137542
0.00577738
0.0020399
0.00578994
0.00805943
0.00581988
0.00589757
0.00473024
0.00862806
0.00585458
0.0110659
0.00595406
0.00596245
0.0016639
0.000405336
0.00185884
0.00328582
0.00375498
0.00149241
0.00836971
0.00592807
0.00828752
0.00584317
0.00597461
0.00603875
0.00583955
0.0113327
0.00798608
0.00585181
0.00586414
0.00593068
0.0114479
0.00601634
0.0058329
0.00210749
0.00582493
0.00586905
0.0058857
0.00592936
0.00217232
0.00592624
0.00570654
0.00581653
0.00158338
0.00264092
0.00581742
0.0058184
0.00594201
0.00582515
0.00354528
0.00594608
0.00594641
0.00592918
0.0058718
0.00592929
0.00589906
0.0021362
0.00585281
0.00192243
0.00595746
0.00349568
0.00588058
0.00593293
0.00588059
0.00590558
0.002522
0.00551032
0.00298056
0.0104783
0.00160681
0.012592
0.0104981
0.0019102
0.00719525
0.00595727
0.00589183
0.00059818
0.0112835
0.00591342
0.00781839
0.00586246
0.00170586
0.0156798
0.00376431
0.0021416
0.0187131
0.0130257
0.0059667
0.00214842
0.0058482
0.00565148
0.00381211
0.0117642
0.00277217
0.00594752
0.00332055
0.000585918
0.00601773
0.00305002
0.0144012
0.00586739
0.00582078
0.00844958
0.00882752
0.00592628
0.00248427
0.0059601
0.000666818
0.00156178
0.00593574
0.0058872
0.00089983
0.00591933
0.00584378
0.00594272
0.00583825
0.000928335
0.00523728
0.00311679
0.010493
0.00584323
0.00162177
0.00591158
0.00708075
0.00325286
0.00597652
0.00587585
0.00315908
0.00596652
0.00599483
0.00336169
0.00591904
0.00424204
0.00591783
0.00584536
0.00583918
0.0133359
0.00582037
0.0103849
0.00904924
0.0162793
0.00595451
0.0058969
0.00583305
0.0168827
0.00596215
0.00432196
0.00597621
0.000289011
0.00587916
0.00583195
0.000653768
0.00594984
0.00603309
0.00830438
0.00154004
0.0110103
0.0059101
0.00899213
0.00317613
0.00594892
0.00923803
0.00596197
0.00559953
0.0069427
0.00582311
0.00319213
0.00588919
0.00508468
0.00205531
0.00588403
0.00231487
0.00584623
0.0117441
0.00583044
0.00476126
0.00584744
0.00585763
0.00578869
0.00765412
0.00590171
0.00220122
0.00186854
0.0197173
0.00584851
0.0044698
0.0100093
0.000762273
0.00268285
0.00247333
0.00588198
0.00160808
0.000508428
0.00576601
0.000960025
0.00589362
0.00135542
0.00259401
0.00591451
0.00271178
0.00582524
0.00817377
0.00100049
0.00580439
0.00576644
0.0132393
0.0122896
0.00583737
0.00557027
0.00584264
0.00594681
0.00729649
0.00286353
0.000392656
0.00595439
0.00351609
0.0114537
0.0055246
0.0134579
0.00180347
0.00582328
0.00583732
0.00113662
0.0110784
0.00730246
0.0145998
0.00109072
0.00233669
0.00402409
0.0107276
0.0100119
0.010177
0.00582097
0.00241446
0.00302269
0.00264619
0.00589249
0.00287182
0.00306285
0.00177975
0.0164754
0.00587476
0.00763266
0.010196
0.0024995
0.00583722
0.00583949
0.000908815
0.00591109
0.012492
0.0035659
0.00586228
0.00134492
0.00539583
0.00581724
0.00290331
0.00264894
0.00589652
0.0111685
0.00548091
0.011972
0.00593341
0.0100075
0.000153232
0.00108783
0.00590733
0.0044475
0.00503902
0.00201521
0.00178015
0.00198473
0.00745845
0.00140985
0.00581742
0.00451314
0.00587594
0.00140435
0.00259986
0.00594489
0.00581607
0.00591291
0.000653895
0.0020449
0.00593601
0.00212474
0.00137138
0.00582423
0.00546427
0.00578555
0.0103462
0.00541136
0.00801252
0.00475073
0.00312607
0.00571804
0.000877593
0.00584742
0.00246264
0.00857403
0.00507749
0.00154959
0.00218708
0.00202999
0.0107431
0.00933669
0.00588148
0.0130973
0.00160818
0.00583853
0.0015908
0.00270678
0.00183968
0.00299444
0.000443954
0.0162025
0.00188084
0.00930293
0.00421379
0.00191729
0.00594277
0.00592819
0.00591238
0.00584291
0.000509396
0.00180552
0.00590956
0.00379012
0.00125146
0.00584461
0.00627539
0.00912864
0.00591836
0.00595847
0.00593897
0.00591969
0.00221896
0.005846
0.00775933
0.00288269
0.00267447
0.0055382
0.00270999
0.00409139
0.00474182
0.0113265
0.00589814
0.00591261
0.00590513
0.00592105
0.0109386
0.00202637
0.00496671
0.00912899
0.00595386
0.00595462
0.00488727
0.00586677
0.00594302
0.0015568
0.00385616
0.00774809
0.0102686
0.0114166
0.0058796
0.0129366
0.00584836
0.000127648
0.00581634
0.00150643
0.01093
0.00590314
0.000788153
0.00715736
0.00372091
0.00600898
0.00595702
0.00431208
0.00877661
0.00583594
0.00594148
0.00606486
0.00614107
0.00110399
0.00601998
0.00387929
0.00582306
0.00605698
0.000846089
0.00302094
0.00578646
0.00127195
0.00160193
0.0116205
0.00650023
0.00611974
0.00592579
0.00836083
0.00590151
0.00222336
0.00589425
0.00704995
0.00590867
0.00594362
0.0050052
0.00919208
0.00583498
0.00587747
0.00581706
0.0014633
0.00114787
0.00172975
0.00583536
0.00578651
0.00583036
0.0102245
0.00594309
0.00209605
0.00205714
0.00595236
0.00103241
0.00467096
0.00620157
0.00494074
0.00593323
0.00337189
0.0031191
0.001705
0.00593185
0.00595903
0.00591485
0.0106474
0.00592694
0.00598125
0.00917849
0.00587988
0.00551493
0.00395591
0.00592129
0.00594766
0.0145936
0.00349272
0.0183119
0.0133566
0.00583124
0.00140022
0.00595975
0.00190969
0.00263728
0.00598697
0.00591039
0.00582852
0.00584601
0.0117489
0.00209501
0.00944454
0.0100107
0.00585112
0.00530959
0.00236841
0.00102287
0.00585541
0.00667616
0.00906527
0.00587509
0.00591803
0.00552878
0.00595481
0.00881788
0.0108625
0.00587633
0.00585258
0.0029509
0.00627171
0.00591958
0.00537559
0.0058783
0.00174067
0.000217436
0.00581795
0.0093434
0.00522299
0.00583586
0.00637143
0.00209266
0.00172441
0.00546274
0.00327337
0.0055674
0.00600408
0.00546647
0.00595417
0.00271887
0.00194248
0.00594519
0.0038909
0.00110498
0.0103516
0.00583327
0.00184365
0.0126947
0.00222568
0.00593672
0.00590228
0.0139143
0.00323343
0.0024239
0.0058973
0.0132708
0.00193692
0.00584952
0.00495575
0.00410725
0.00596304
0.000481294
0.00595014
0.0060407
0.00589202
0.00580789
0.00595814
0.00581762
0.00851769
0.00590196
0.00584162
0.00213154
0.00301386
0.00571982
0.0015408
0.00593207
0.00583724
0.00589429
0.00593616
0.014622
0.0139318
9.1517e-05
0.0105731
0.00474475
0.0122388
0.0045345
0.0102117
0.0110307
0.00861157
0.00585405
0.00508525
0.00585726
0.00595094
0.00593166
0.00586868
0.0011387
0.00202546
0.00254548
0.00584248
0.00583687
0.00195515
0.00594238
0.00596242
0.00593881
0.0109075
0.00313625
0.0017352
0.00587555
0.0137504
0.00595907
0.00594696
0.00594296
0.00221993
0.00585283
0.00227431
0.0100974
0.00220686
0.00756081
0.0142182
0.00604667
0.00341748
0.013589
0.00178624
0.00592183
0.00592726
0.00583301
0.00995869
0.00581092
0.00289406
0.00472889
0.00246293
0.0172464
0.017317
0.00202373
0.0113077
0.00593056
0.00581276
0.005623
0.0034311
0.0058853
0.00588239
0.00319914
0.00582272
0.00126137
0.00604376
0.00596869
0.00563422
0.00588043
0.0026323
0.00999745
0.00839203
0.00388744
0.0059612
0.00159935
0.00592255
0.00244968
0.00583987
0.00152216
0.00199204
0.00596037
0.00595969
0.00583954
0.00167007
0.00427946
0.00109653
0.00103631
0.00335235
0.00506949
0.00182653
0.00182638
0.00809304
0.00585019
0.0102124
0.00593798
0.0107389
0.00027303
0.0100671
0.00805599
0.00602098
0.00331883
0.00632824
0.00595296
0.005657
0.0059261
0.00588842
0.00355506
0.00594913
0.00265863
0.000554027
0.00113908
0.00809426
0.00392455
0.0022925
0.00592248
0.00594383
0.00590522
0.00158352
0.00183218
0.0115074
0.00246524
0.00591394
0.00584067
0.0059461
0.000987437
0.00576289
0.00591371
0.00480923
0.00142895
0.00261205
0.00272936
0.00437693
0.010383
0.00331628
0.00264325
0.0058548
0.00307157
0.000758467
0.00429229
0.00203015
0.00586867
0.00730482
0.00298127
0.00589059
0.00274628
0.0109603
0.00664119
0.00313053
0.00582573
0.00941399
0.00596091
0.00582471
0.00591854
0.00695987
0.000943238
0.0060472
0.00418002
0.00664938
0.00618067
0.00452298
0.00304373
0.0121552
0.00325338
0.010715
0.00595736
0.00348777
0.00588286
0.00965783
0.00297551
0.0059098
0.0116367
0.00588672
0.00593937
0.0108742
0.00394128
0.0032021
0.000656229
0.00328282
0.00574936
0.00236854
0.00588631
0.00582915
0.00587688
0.00308037
0.00585309
0.00493151
0.00550538
0.00183989
0.00143669
0.00594143
0.00581167
0.00614797
0.0111234
0.00797597
0.00587736
0.00593759
0.00309418
0.00145144
0.00114038
0.00278191
0.0107588
0.00904827
0.00163007
0.00584163
0.00307084
0.00729249
0.00441149
0.000617298
0.00595286
0.00594098
0.0058715
0.00592648
0.00584041
0.00249971
0.00842565
0.00499558
0.0135109
0.00534279
0.0024587
0.0113857
0.0115581
0.00529805
0.0111729
0.00186111
0.00177143
0.00581566
0.00595493
0.00203677
0.00595133
0.00588527
0.00810365
0.0116424
0.00586651
0.00590145
0.00591909
0.00164281
0.00595514
0.00258861
0.0101795
0.00583124
0.00582657
0.00585768
0.00594479
0.00188258
0.00963499
0.00320747
0.00430036
0.00181285
0.00584098
0.0131854
0.00163394
0.00601775
0.000218103
0.00114634
0.0113789
0.0033677
0.00742937
0.00594681
0.00273744
0.0100681
0.00133909
0.00511667
0.00592694
0.00586266
0.00580386
0.0037811
0.00738036
0.00280246
0.00593487
0.00366795
0.0119282
0.00982261
0.00584983
0.00593849
0.0127358
0.0114086
0.00592303
0.004334
0.00188823
0.00583363
0.00583413
0.0105898
0.00584515
0.00101219
0.0133643
0.00771612
0.00584936
0.00150288
0.00124777
0.00588595
0.00587607
0.0111263
0.00739952
0.00593994
0.00474006
0.00112893
0.00101643
0.0117358
0.0030357
0.00470526
0.0124368
0.0116969
0.00294712
0.00582287
0.00273098
0.00581321
0.00589871
0.00752797
0.00248685
0.00207973
0.003834
0.00555988
0.00590956
0.00584202
0.00594342
0.00593083
0.00629896
0.00391968
0.000891086
0.00304025
0.00269193
0.00212178
0.00935945
0.00928409
0.0072301
0.0059212
0.00366413
0.00300955
0.00471056
0.00126168
0.0125666
0.00594475
0.00104961
0.00910545
0.00459257
0.0018331
0.00201393
0.00183702
0.00178044
0.00527745
0.00166465
0.00153419
0.00140832
0.00128243
0.00177332
0.00196196
0.00545144
0.00583014
0.0028058
0.00181714
0.00585013
1.84254e-05
0.0113029
0.00133236
0.0113469
0.00586243
0.00587516
0.00763676
0.00580741
0.00593677
0.00579824
0.0021359
0.00985967
0.00397688
0.00592079
0.00498293
0.00399756
0.00121581
0.0115343
0.00332577
8.69737e-05
0.00990968
0.00161447
0.010887
0.00206179
0.0034061
0.0115771
0.00579289
0.0100717
0.010742
0.00592804
0.00267277
0.00200495
0.00560857
0.00588989
0.00121061
0.0181252
0.0059362
0.00594054
0.0111007
0.000217327
0.00241305
0.00595654
0.00108479
0.00144529
0.0117298
0.00738785
0.00589352
0.0058333
0.00593997
0.00610617
0.0095517
0.00375113
0.00955798
0.00185308
0.00027936
0.0107073
0.00612395
0.00583684
0.00971329
0.00592219
0.0108622
0.00595196
0.0111829
0.00591913
0.00593351
0.012148
0.00591751
0.00171548
0.0118459
0.0061165
0.00582207
0.00590729
0.00117068
0.00765892
0.00135924
0.0115516
0.00616708
0.00607679
0.00318722
0.00249213
0.010772
0.0102422
0.00202887
0.00102565
0.00156086
0.00389458
0.00593159
0.0059221
0.00583378
0.00581569
0.000283613
0.00270034
0.00789162
0.00222909
0.00140457
0.00587639
0.0121219
0.00136169
0.0021294
0.00583416
0.00560939
0.00581173
0.0108241
0.00447099
0.00245764
0.000386848
0.00167807
0.000776525
0.00583615
0.00264536
0.00139813
0.00024555
0.000145271
0.00588102
0.00150585
0.00595576
0.00592818
0.00153576
0.00906661
0.0027251
0.00596135
0.00225052
0.00124304
0.0118618
0.00364889
0.00947495
0.00787508
0.00591039
0.00299418
0.0059554
0.00148843
0.00594418
0.00180503
0.00585594
0.00267636
0.0122033
0.0134713
0.00611764
0.00151933
0.0108462
0.00172205
0.00582476
0.00855948
0.00185622
0.00603578
0.00591057
0.00761607
0.0033586
0.00160694
8.29306e-05
0.00731927
0.00501436
0.00606214
0.00736858
0.0100699
0.00714269
0.00115764
0.00301391
0.00158111
0.00171912
0.00874873
0.00322151
0.0059455
0.000647132
0.00382576
0.000252589
0.00467989
0.00754216
0.000561702
0.00108671
0.00283113
0.0185244
0.00577026
0.00845956
0.00138418
0.00197172
0.00214193
0.00582096
0.00581508
0.00935281
0.00991747
0.00593741
0.00594995
0.0021428
0.00509814
0.00669933
0.00286385
0.0106285
0.00457007
0.010359
0.00164418
0.015327
0.00594695
0.00104173
0.00947189
0.00613889
0.00197533
0.00584706
0.00403664
0.00590482
0.0122016
0.00586614
0.00588563
0.0114143
0.00352261
0.00581533
0.010926
0.0059404
0.00595228
0.0058472
0.00590462
0.00593119
0.000257109
0.0120163
0.00585578
0.000449459
0.0019765
0.00211982
0.00126603
0.00188333
0.00467518
0.00230349
0.00582479
0.0121916
0.00503931
0.0104288
0.00622802
0.0060437
0.000698421
0.00262758
0.00158801
0.010031
0.00581938
0.0065181
0.00320478
0.00216882
0.00448177
0.00588888
0.00483287
0.00111503
0.00589233
0.000229079
0.00582741
0.00813364
0.00142694
0.00976965
0.00119665
0.00124596
0.0112568
0.00593114
0.00594593
0.00212311
0.00589515
0.0059348
0.00593986
0.00448516
0.00587272
0.00583049
0.00591955
0.00215573
0.00586812
0.00529703
0.00605759
0.00463945
0.00194168
0.00583428
0.00829372
0.00585589
0.00584401
0.00187027
0.00217909
0.00609867
0.00587779
0.000689315
0.00333298
0.00908373
0.00335734
0.00175961
0.00583688
0.00595054
0.00148477
0.0119226
0.0019469
0.00305694
0.0058232
0.0118357
0.00590959
0.00583029
0.00192583
0.00378453
0.00145893
0.0109382
0.00162284
0.00191548
0.00223279
0.00494637
0.00594825
0.00592557
0.00288019
0.0126363
0.00208381
0.00194964
0.00927309
0.00459404
0.00591207
0.00307342
0.0010783
0.00198898
0.00589675
0.00180704
0.00199845
0.00281958
0.00592557
0.00588908
0.0010199
0.00286117
0.00112336
0.0124423
0.00581124
0.00211964
0.0059258
0.00215955
0.00416178
0.0059543
0.00130898
0.00810191
0.00227756
0.0167784
0.00588178
0.00593478
0.00582595
0.0110333
0.00102551
0.00584332
0.00150159
0.00177545
0.00592032
0.00594509
0.000652474
0.0108685
0.001076
0.0103334
0.0014716
0.00244837
7.38437e-05
0.00163591
0.00255763
0.00342554
0.00195345
0.00372615
0.00589826
0.00198773
0.00150218
0.00594048
0.000904655
0.00245811
0.00194902
0.00450642
0.00137996
0.0058711
0.00634302
0.00314026
0.00581824
0.00593298
0.00583567
0.00591702
0.00593578
0.00588329
0.00334126
0.00594279
0.00594457
0.0122173
0.00192938
0.00593955
0.00284125
0.00487235
0.00590132
0.00583605
0.00225908
0.00552489
0.00246585
0.00588588
0.00587533
0.00268077
0.000482186
0.00592002
0.00590661
0.00175418
0.00351491
0.00206918
0.00296916
0.00595807
0.00124001
0.00346717
0.00594343
0.00158476
0.0114632
0.00606739
0.00307046
0.00593863
0.00283959
0.00594915
0.00510484
0.00585183
0.00587896
0.00456078
0.00294965
0.000278896
0.00330319
0.00589362
0.00415431
0.0112988
0.00194625
0.00116773
0.00173534
0.00589303
0.00327227
0.019296
0.001125
0.00165801
0.00451318
0.009313
0.0118099
0.005132
0.00592904
0.00247864
0.00594356
0.00200495
0.0116181
0.00594047
0.00414162
0.00596079
0.0108116
0.00362092
0.00593421
0.00270104
0.0108445
0.00162377
0.00406206
0.00213831
0.00300237
0.00581507
0.010373
0.00582183
0.0034226
0.00583888
0.00565226
0.00920963
0.00196103
0.00594553
0.00518217
0.00051185
0.00592879
0.00596125
0.00337545
0.00562026
0.00588693
0.00406782
0.005725
0.00595814
0.0058543
0.00205457
0.00187001
0.00116053
0.00582419
0.00208453
0.00966386
0.00545115
0.00592198
0.00594614
0.00283232
0.00179411
0.00595125
0.00586774
0.00586805
0.005917
0.00554238
0.00312359
0.006217
0.00202237
0.00585656
0.00583902
0.00585487
0.00215706
0.0031989
0.00181758
0.00594933
0.00412842
0.00893198
0.00513126
0.00306328
0.00547773
0.0100414
0.00194968
0.00223904
0.00126928
0.00594474
0.0131793
0.00540197
0.00438417
0.00583823
0.00582493
0.00135697