/*--------------------------------*- C++ -*----------------------------------*\
| =========                 |                                                 |
| \\      /  F ield         | OpenFOAM: The Open Source CFD Toolbox           |
|  \\    /   O peration     | Version:  v2012                                 |
|   \\  /    A nd           | Website:  www.openfoam.com                      |
|    \\/     M anipulation  |                                                 |
\*---------------------------------------------------------------------------*/
FoamFile
{
    version     2.0;
    format      ascii;
    class       volScalarField;
    location    "400";
    object      omega;
}
// * * * * * * * * * * * * * * * * * * * * * * * * * * * * * * * * * * * * * //

dimensions      [0 0 -1 0 0 0 0];


internalField   nonuniform List<scalar> 
13917
(
5.18028
0.0425221
0.212682
0.0252901
0.0316016
0.0418569
0.0294544
0.0912292
0.0282924
8.80924
0.0866404
0.0248204
0.0273
1.53055
0.0306438
6.78907
0.0246473
0.0732978
0.114263
6.93062
0.0365768
0.024689
0.0467411
0.0246895
0.0262383
0.0387168
1.67188
11.3226
0.0502935
0.0225641
9.79471
0.0682019
0.0253004
2.98553
0.024254
0.120193
0.026916
0.0264725
0.0294947
0.0407443
0.0247228
0.0244526
0.0269091
0.108541
0.107773
0.235951
0.0348276
4.77357
1.28678
0.0242724
0.0247861
0.117779
16.172
0.0247069
0.0247864
0.116596
6.07643
0.0467561
0.0243272
0.184603
3.48585
0.0319337
0.0234843
0.0260686
3.1084
0.0337073
0.0554402
0.103579
0.0810727
5.74732
2.90551
3.10475
0.0248375
0.0241202
0.03747
0.0266723
0.027364
0.0240282
0.0264692
0.0253713
0.0252499
0.0247796
0.0248249
3.08132
0.024163
0.13494
0.0658329
0.0245903
0.0404325
0.0245256
0.0234236
0.0270679
1.26038
0.0239414
0.0252235
0.0550584
0.506986
0.0250878
0.0245043
0.121986
0.0239788
0.0239188
0.0252973
0.0242418
0.027291
3.38842
2.78356
0.0316893
0.0247092
1.76505
0.0246507
2.94566
0.0501538
5.51713
3.11558
0.0270698
0.107015
0.0235022
0.186503
0.0247703
0.0246322
0.0237968
0.0613548
0.0942648
5.31196
3.17514
0.0259136
0.0393511
0.0240444
0.0956283
0.0348221
0.144772
3.53707
0.0270265
0.0795788
1.77692
3.25613
5.22879
0.0411777
0.0264294
0.868655
0.0239014
3.38281
0.0241628
0.0247619
0.0268629
2.89404
0.588275
5.08664
0.0247458
0.0377383
0.0237351
0.0247405
0.024781
1.14826
0.0253181
0.0241783
3.50346
0.024225
0.0236881
0.0241271
2.88573
0.0288483
0.843585
2.65065
0.12622
23.2609
3.66127
0.0221304
0.0436471
0.024811
3.43308
0.0282541
3.16054
0.0715507
0.0239415
0.0252943
0.12869
0.034105
0.0294297
0.0268085
0.0247231
0.0247834
0.177758
0.193308
0.127208
0.0247541
0.178419
0.022589
0.121358
0.071643
0.0996826
0.139811
4.97729
0.0239491
5.1306
0.0286431
3.60872
0.024212
0.0250976
0.0328257
5.52839
6.65932
0.0265551
1.74517
0.0385675
0.0380985
0.0239032
0.127364
0.0252453
0.0237712
0.0386112
0.0422914
4.49917
0.0774122
0.0405752
2.9493
0.0254769
0.0230803
0.0230664
3.92915
0.165982
0.155568
0.0244475
0.0237408
1.79237
6.18321
0.0230271
0.023017
0.0248085
0.0230874
0.0230773
3.25092
3.14812
0.0248778
0.0221446
0.0765985
3.33938
0.0242854
0.0244434
1.79287
3.44026
0.185455
2.93852
0.097315
0.0241725
3.01776
0.0796029
0.0467098
0.0769984
0.0263135
3.40767
0.0247808
0.0434079
0.0649896
0.024982
0.0250127
0.0260479
0.0296327
0.0242958
3.70308
1.11298
0.0238145
0.02302
0.0254378
0.0230267
0.0247864
0.0273239
0.0388378
0.023927
4.17854
2.72024
0.0245535
0.0277465
1.09253
0.0229307
0.0935837
3.32661
0.0229436
4.24283
0.0242002
2.88135
0.0240332
0.0291048
0.025051
0.0241202
0.14984
0.0255666
0.142093
0.030974
1.08548
0.0274028
1.1842
5.45129
0.0237677
0.0531917
0.0302342
0.0273468
0.0310003
0.0264307
0.0240067
0.0251895
0.126864
0.0398071
0.0422751
0.0262774
0.0244209
3.54742
8.21066
0.0239568
0.0255258
0.0273838
0.757582
0.126341
2.7474
2.93311
0.0313899
0.146732
0.0274441
2.95156
0.836449
0.211964
0.0271704
0.0303734
1.60001
0.0250498
0.0455646
0.0986527
0.0245205
3.43137
0.0242016
0.0427275
0.0231014
18.3736
0.0236975
0.040086
0.0392089
0.0330454
0.0243468
0.0771022
3.19776
0.0251271
0.0250409
2.9302
3.26557
2.75605
1.53288
0.0229221
0.0248473
3.50274
0.146785
0.0229391
0.0309074
0.0247366
0.0570422
0.0411528
0.114188
0.0930152
0.0943194
0.0423274
3.15106
0.0240846
0.0251352
0.033283
0.184167
0.0244947
5.99258
0.0420934
0.28516
0.0248271
0.120248
0.02573
1.19543
0.0244622
0.172801
0.874713
0.0418371
0.0245771
2.0212
0.023327
2.6817
0.152519
0.0244673
1.20547
0.0254132
0.279563
0.0235302
5.88
0.281388
0.0264706
1.82841
0.0828101
0.0259779
2.72599
0.23055
0.0260964
0.151035
0.0247628
0.0847236
0.211993
0.0242233
0.0289104
0.0262548
0.0241098
0.0238768
0.02414
2.99679
0.124722
0.0249666
0.0241933
0.0245356
0.0519014
0.294738
0.0229624
0.022154
0.124423
0.119504
0.0241472
0.0263366
2.66694
1.55024
0.0524039
0.120674
2.73323
0.0234548
0.0229374
0.033696
0.023865
0.0229789
0.0249536
0.0229547
0.0233984
2.96632
0.0248104
0.0435561
3.82481
0.052766
0.0237906
0.0247201
2.75256
0.0328699
6.47964
0.0230515
0.0244107
0.0234204
0.0230956
0.026807
0.0255956
2.63354
0.0295614
3.47688
0.0244037
0.0372336
0.0287235
0.0251742
0.0953786
2.73976
0.0247052
1.75831
0.0238291
0.0242294
0.0244858
0.0254318
0.0237222
0.0251131
3.50245
3.36106
0.0237035
1.35364
0.122212
0.0249223
0.0577476
0.0735529
2.68617
0.0296484
3.40215
0.284715
0.28811
0.0256192
0.0281978
0.0289098
0.0261865
2.53024
0.0235633
0.0246592
0.0252301
0.0285976
0.0357625
0.164017
0.0548768
0.0270977
0.0285659
0.0704393
0.0559388
0.0249679
1.40749
0.0381563
0.0309978
2.73856
0.0241724
0.0580749
0.142921
0.0237527
3.3138
0.0243287
0.0230908
0.0532387
0.0230608
0.0252943
0.126
3.56377
1.79071
0.0241249
0.0254934
0.0258432
2.35804
2.3372
0.0248664
0.0247508
0.0241042
0.0602887
0.492805
0.0240934
0.0243156
0.0250177
0.0240904
0.0286443
0.0310821
0.0237585
0.0557391
0.0237537
0.0245808
0.0261239
2.80717
0.0231718
0.0266518
0.0243015
0.0362416
0.0678771
0.0617482
0.0676327
0.131106
0.025904
0.0624963
3.62064
2.85117
3.46157
0.0238749
0.0244364
0.0279576
0.0244814
3.16511
0.0229573
0.706472
0.028635
3.50522
0.102482
0.026901
5.87352
0.0236896
0.0639506
0.0249581
0.0252006
3.50968
0.0229977
0.216117
0.0237979
0.0258183
0.0244839
0.156412
0.0290808
0.0230066
0.109639
0.0565253
0.339875
2.77562
3.62594
2.66008
0.0231794
6.01336
0.0230412
3.35407
0.551643
0.0256749
0.0264881
0.023917
0.037698
0.0265835
0.0230136
0.0249838
0.0270334
2.54721
0.0241838
0.0616989
0.024624
0.0229935
0.0240651
0.147815
2.79102
12.2331
0.0722765
0.0309437
1.11547
3.23721
0.0235573
2.70845
0.0268235
0.0986436
0.0244724
1.67783
0.0240694
0.0289681
0.0247855
0.303474
0.0390349
3.10047
0.0238567
0.0375315
0.0242539
0.0241881
3.02661
0.12961
0.0244304
0.123643
0.0244209
0.0248972
0.0238946
2.89962
0.0241896
0.0301244
0.0229452
0.0243334
0.184541
0.0237996
0.115381
0.0249498
0.0237211
3.41108
0.0635219
0.0248116
17.5223
0.214398
0.123419
0.150104
0.0236719
0.0316458
2.90171
0.224187
0.0324518
0.0269326
0.0292673
0.0247653
0.0241443
0.0880183
0.0731766
0.0278335
3.03996
0.0394786
0.918017
2.39683
0.0403262
0.0383748
0.13752
3.80301
0.0240134
0.03347
0.122422
0.0237357
0.0239843
0.0240267
0.0275516
0.0253468
5.71228
0.0367695
0.0239891
0.091976
0.0237685
2.73766
0.0241926
0.0240394
3.4705
0.0638739
0.330938
0.0248838
0.0237952
0.0239938
0.025202
0.0308992
0.0240983
5.99464
0.0329928
0.471192
0.336027
0.033446
3.65017
0.0254981
0.0248462
0.0243128
3.21825
1.82228
0.029031
5.71764
0.705115
0.0237107
0.0239931
0.0268128
3.31601
0.327814
0.0393103
0.0251678
0.0266493
0.101738
0.0268311
0.113366
0.0369246
0.0251639
0.0253925
0.0249199
0.0308047
0.0285414
0.225341
0.0277135
0.0267384
5.74539
0.0235785
0.711058
0.026636
0.0361932
0.0284583
0.220518
0.0245783
0.0602916
2.7636
0.249166
0.0245094
0.0277388
0.025931
0.0243917
0.0247742
0.0352778
0.0297414
0.16389
0.116143
0.0236396
0.210517
0.0282413
0.02863
0.127256
0.0249349
0.0638478
0.397876
0.02304
0.063896
0.0832595
0.0366124
0.0239577
0.0237552
0.0241311
7.07182
0.0252575
0.0243519
0.0422416
0.0241248
0.0238391
0.111543
0.132281
0.0414341
1.65711
0.0526096
3.55661
0.0247811
0.0278287
0.530322
0.0256782
0.0337338
0.024339
0.0239621
0.0248549
0.0281705
0.0639276
0.0239511
0.0465655
0.0248551
0.501301
0.0266757
0.0295825
0.0231138
0.0778325
0.0293608
2.82497
0.0428211
0.0248101
2.78493
0.0254723
3.9215
0.0264071
0.0617552
0.0263863
0.0237961
0.0244936
3.36623
0.0307165
0.160038
1.64551
0.0243864
0.0368843
0.0221295
0.0285226
0.537199
0.0221558
2.81805
0.0267276
0.0630928
0.104614
0.511292
0.0231806
0.0240753
0.102002
0.0236577
0.0246673
0.0259061
0.0243865
0.0423568
0.023166
0.112403
0.0251596
5.55298
4.03224
0.671615
3.54305
1.75317
7.38238
0.791932
0.0236314
0.0247829
0.0246384
0.0254685
0.0241071
0.0308411
0.0242227
0.371324
0.0247055
1.82433
0.0251803
0.0332139
0.0894719
0.023903
0.0433897
0.0254702
0.0254323
0.0287269
0.0233287
3.73512
0.0781383
0.113159
0.0239503
0.0246222
0.0248858
0.0249355
2.66979
0.0236593
0.125667
0.0240526
0.280164
0.0287722
0.024184
0.0621579
0.0326232
0.023673
0.337461
2.6685
0.0269042
0.0776415
0.0236275
0.124478
0.0235485
0.0249361
3.50874
0.0243298
0.0253607
0.090513
3.84125
0.0241335
0.832571
1.3683
0.0245936
0.0259542
0.0244354
2.45148
0.0245875
0.117613
0.0247437
3.35936
0.0291289
2.34719
0.0241966
0.0227876
0.288927
0.025816
0.0234742
3.64673
0.0258524
0.0238578
0.871409
0.0245969
0.0247723
0.0722617
0.0260002
3.16661
0.0412676
0.0733339
0.136503
0.0265879
3.30946
0.025362
0.0678288
0.0244622
3.66515
0.27992
0.0249427
0.0235929
0.0248735
0.0248712
0.0234186
0.0234913
0.0238836
0.0244892
0.0315773
0.0230404
0.0256839
0.0724905
2.64584
2.8272
0.0842474
0.0248978
0.29083
0.0241757
0.50417
0.495601
24.2697
0.023039
0.0236435
0.0247271
0.0245956
0.0230164
0.0233989
0.0242651
0.0394875
0.0238672
10.9223
0.859967
0.0238857
3.39436
0.0244744
0.0241513
0.0307061
2.86772
0.0610057
0.0238283
0.3264
0.02409
0.0241473
0.341788
0.0248865
1.0164
0.025438
0.0703212
0.0238048
0.0238599
0.0330947
0.242061
0.0258139
3.059
0.0338245
0.0257597
0.0262453
0.024616
0.0237349
0.0907615
0.0359362
0.0276751
3.10871
7.8289
0.153981
0.0957243
0.0238198
3.23333
0.0237987
2.84756
0.0631043
0.0290029
0.0256532
2.49792
1.77097
2.63604
0.0248058
0.457713
0.0234356
0.0242308
0.0370379
0.0251051
0.0247175
0.396015
4.13603
0.0238587
0.0299156
3.40621
0.0238057
0.0229535
0.701723
2.75743
0.0253596
0.0231752
0.0290641
0.0246934
0.0240953
0.0352218
0.0283223
0.0246205
0.414478
0.0247978
0.189821
0.5221
0.0333299
3.55053
0.0249131
0.0251332
0.0838501
3.85412
0.225761
0.0261502
0.0343129
0.0250932
0.0254629
0.0240864
2.80645
0.0289064
0.0252133
0.0532336
0.0241258
0.248095
0.0756852
0.114314
0.0592511
0.384435
0.322347
2.62724
3.13638
0.026465
0.362174
0.0229676
0.0585568
0.0778725
0.531676
0.0273943
0.0252172
0.028158
0.866846
0.0259721
2.6687
0.036792
0.0867449
2.70311
0.0239567
0.0977613
0.0262771
0.0246386
0.0301176
0.152361
0.0229059
0.0235775
0.02568
3.04437
0.0238517
0.0258596
0.0265826
0.0253615
0.0245822
0.0899721
0.0686272
0.0252181
0.0239073
0.0942829
0.0644507
0.0384318
3.38321
0.0249188
0.0245452
1.77936
0.0243589
0.026059
3.17116
3.43582
0.0319024
0.0585995
0.0290494
7.62078
0.129493
0.0345103
2.76193
0.0240458
0.0791101
2.63157
0.199655
0.418882
0.978465
0.0233709
0.0245362
0.0271329
0.0246034
0.0246288
0.224321
0.0243273
0.0455413
0.0232971
0.0570072
2.73625
0.0260217
2.47612
1.74753
0.0245408
0.0747979
0.028721
0.0257488
0.0243896
3.30999
0.0709192
3.64007
0.0298897
3.86683
0.084827
0.0238312
0.564848
0.0369792
0.0251735
0.0241946
0.186744
0.0243984
0.0281817
0.0383846
0.0281075
0.0251247
0.055381
2.29212
0.0241421
0.156555
0.0718018
0.0246651
0.0241476
0.0269127
2.51947
0.365161
0.0237219
0.0324324
0.0290857
0.71183
6.64466
0.0246782
0.0238635
0.0233659
0.0246238
0.027197
0.0266833
2.79465
0.025015
0.0271229
0.183831
0.029313
0.0832048
2.79438
3.74893
0.024914
0.0243609
0.0238205
0.0256045
0.0688289
3.80124
0.0577739
0.0919666
0.0324132
0.0501545
0.0265007
0.0352396
0.0279262
0.106251
0.0239513
0.115287
0.0369444
0.023612
0.0248752
2.99211
0.0494302
0.137162
2.65496
0.121646
0.0239972
0.699932
0.0262759
0.0242685
2.75989
0.472841
0.0239658
0.0318546
0.103494
0.03565
0.0252865
0.0231451
0.024162
0.0237578
0.0243926
0.0318892
0.0515022
4.46302
0.0361069
0.0283421
0.0335483
0.0820115
0.0238671
0.0358378
0.164825
0.222712
2.70756
0.0257704
0.0231225
3.54575
0.023964
0.215339
0.02584
0.0437406
0.0249198
0.0240132
0.214351
0.0287815
0.0256842
0.0246106
2.4399
0.434223
3.30242
0.0247103
0.0245148
1.00338
0.0236664
0.0234788
0.115317
0.450948
0.0292722
0.0352723
0.0252258
2.96577
0.0242877
0.027087
0.0251265
0.0231058
0.219893
0.0242794
0.0237387
0.503916
0.0583472
2.23378
0.214376
0.0242112
0.0323039
0.0238497
0.0239529
0.0262816
0.0254788
0.024671
0.187351
0.0246679
0.0717599
0.0296651
0.0278938
0.024713
0.0245038
0.0240874
3.35237
0.0229081
0.591982
0.0689573
0.0257625
0.0522517
0.0352196
0.0326044
0.0245568
0.0290562
0.0238562
0.0236039
0.279155
0.0382201
0.0297444
0.0241312
0.024147
0.0236456
0.0734153
0.0241325
2.89666
0.0462701
0.0239268
0.0243789
0.0234346
0.0460161
0.0345854
1.76864
0.0346678
0.235842
0.0279269
0.0934041
0.0266178
2.86626
0.0232875
0.0228686
0.0275825
0.212118
0.0234676
2.95116
0.0245963
0.0242567
0.117793
0.185353
8.20843
0.070237
0.0282698
0.142506
0.0244004
0.0234463
2.88142
0.0244881
0.0239285
2.1993
0.0233537
2.97416
0.0407148
0.0240335
0.0245032
0.0234845
3.66299
0.0241215
0.0231402
0.0741718
0.0242176
0.0238141
0.02429
0.0234507
0.0455846
0.0247986
0.0268465
0.0235793
1.30564
0.0541199
0.0236049
0.0236149
0.0253103
0.0243576
0.0267268
0.024785
0.0241062
0.0248277
0.0244313
0.0254619
0.0245551
0.064814
0.0234247
0.0782795
0.024603
0.0490218
0.0236843
0.0246525
0.0241079
0.022956
0.0378193
0.0287997
0.0278183
2.30816
0.0593659
3.41888
2.80796
0.0782513
3.60027
0.0245701
0.0245323
0.583773
2.75321
0.0237209
3.34695
0.0235395
0.115678
0.739329
0.0266027
0.080272
1.64433
1.9747
0.0240954
0.0473275
0.0239031
0.151537
0.0270379
3.15883
5.44534
0.0247591
0.050143
0.29114
0.0247559
2.30504
0.250747
0.0260635
0.023905
0.186413
3.32972
0.0234439
0.033903
0.0248937
0.154064
0.126265
0.0245857
0.0237154
2.04855
0.0239078
0.0245496
0.0251773
0.0235953
1.70222
0.0311818
0.0307802
3.18241
0.0243991
0.0581794
0.0248303
0.172202
0.0554803
0.176926
0.0236483
0.0300001
0.0234699
0.0244807
0.0266806
0.0245263
2.50728
0.0255992
0.023641
0.0241568
0.267997
0.0238839
0.535442
2.59476
0.748697
0.0244635
0.0237898
0.0242845
0.834576
0.0248116
3.26445
0.024171
0.388397
0.0259393
0.0254317
0.203589
0.0246271
0.0245423
3.38519
0.105519
2.93115
0.0246549
3.50733
1.58846
0.0245529
3.13199
0.024695
0.0280798
3.18279
0.0263438
0.0425694
3.70257
0.032059
0.067098
0.0247023
2.65329
0.0245181
0.536855
0.0242913
4.26253
0.0245453
0.0246661
0.0262002
0.445825
0.0238272
0.0502915
0.0642196
1.51683
0.0242893
0.0313981
3.47849
0.184616
1.89221
0.0759396
0.0236772
0.106149
0.281402
0.0267867
1.29427
0.022822
0.13597
6.15952
0.0238657
6.55081
0.0243823
3.45447
1.13147
0.0265982
0.026595
0.54115
0.693856
0.0245862
0.0257657
0.0236095
0.0245874
3.1876
0.0641711
0.176708
0.0245782
0.0297836
3.01389
0.0333718
0.774281
2.30795
0.0241603
0.0244693
0.18421
2.64211
2.2757
0.695018
0.191624
0.039748
0.0528042
3.44041
2.64978
0.465871
0.0239045
0.0783627
0.0452899
0.0702325
0.0244948
0.0286557
0.0595117
0.124099
0.742825
0.0247143
1.46428
3.16645
0.0439389
0.0245267
0.0245304
0.106169
0.0238191
3.54528
0.0303622
0.0245267
0.159057
0.036828
0.0235867
0.0373428
0.0318343
0.0245251
3.71152
0.0290426
3.72251
0.0238237
3.01619
0.347914
0.192889
0.0229545
0.028891
0.0325343
0.13762
0.108651
0.0674508
3.18879
0.126082
0.0221869
0.028265
0.0250383
0.118382
6.33832
0.0233451
0.0235546
0.0256585
1.00762
0.142773
0.023882
0.0502804
0.156444
0.0238663
0.0356744
0.0266941
3.70972
0.0296424
0.153725
3.34594
0.0306105
0.0271662
1.27502
0.0241343
0.0468867
2.81683
0.0272419
0.0819357
0.0335022
0.0579167
2.59823
3.46027
0.024676
1.12
0.130971
0.0233655
0.125206
0.0662694
0.104988
2.36924
0.345449
0.733917
0.103542
2.67191
0.0292841
0.065727
0.0230452
0.0248547
0.0245767
0.0238417
0.214148
0.123405
0.0229087
0.0467064
0.16395
0.0241189
0.413418
3.11369
0.0225887
0.0247692
0.0231952
0.0255018
0.0450836
0.0245143
3.75501
0.0316853
0.0696172
0.0284055
0.0683119
0.0516237
0.0347201
1.52228
0.0245215
0.0255972
0.0228657
0.0237745
3.51347
0.0924044
0.0309971
3.74318
0.0246416
0.0250479
0.0338477
0.0235761
0.0238794
0.0728071
0.0279369
3.19637
2.19687
3.23932
0.0247481
2.95097
0.0242928
0.4251
0.0235595
0.13319
2.52769
0.024419
0.692778
3.4703
0.0343108
0.0253436
0.0235854
0.0300523
2.71564
0.0235648
0.0248851
0.0253199
0.0266085
0.188849
0.0257739
0.0281905
0.0241189
0.0252814
1.32498
0.035729
0.0266778
0.118524
0.0924821
3.2356
0.995416
0.02603
0.025426
2.89183
0.0245099
0.0654788
0.0247706
3.24448
0.0249562
0.0248573
0.0342423
2.85569
0.0244764
0.0236407
0.0232674
0.137081
9.81665
0.112796
0.0245972
0.0266201
0.0238617
3.24243
0.0237897
2.28501
0.0570145
0.0246447
0.157953
0.035372
0.18309
0.0251731
0.0234722
0.0322113
0.0423303
0.115596
0.0248255
0.0249595
0.0248402
2.86401
0.0245216
0.0254062
3.41729
0.0259446
0.0290693
0.0272902
0.023999
0.0240922
0.598299
0.0263364
1.64209
0.267928
0.0226477
0.845773
0.02492
0.101607
0.0489677
0.0255935
0.0230001
0.0226159
0.0244977
1.17404
0.0478276
3.40383
2.67248
0.023875
0.030585
0.0397885
1.37294
0.0244877
0.0560257
3.46389
3.1444
0.0240986
0.0258997
0.0250676
0.678158
3.48579
0.0243697
0.0246417
0.0325142
3.94419
0.024772
0.0259736
0.0258811
0.113011
0.836075
0.0233174
2.77719
0.0311924
0.0245131
2.66782
0.0567024
1.10972
0.998632
0.0339313
0.0283192
0.0254717
0.0290744
0.0251048
0.0688347
0.0476476
0.0241143
0.027135
0.207997
2.31786
0.023547
0.104313
2.95796
1.25766
0.0242461
0.0246291
0.280244
2.8282
0.0797134
0.0241088
2.57403
0.0659676
0.0227116
4.46147
0.0296419
0.0247153
0.172475
0.0243823
0.0346621
0.0237525
0.0225104
0.0245148
0.023259
3.10262
0.0229114
0.0241405
0.0763129
0.0276943
0.0271287
0.128231
0.024552
0.0245975
0.0258169
0.0253987
0.251137
0.238881
0.570795
1.1192
0.0358731
0.509412
0.0472517
2.88187
2.62751
3.03731
0.0238024
0.0320502
0.0245129
0.0245509
0.0238254
0.0250392
0.182432
0.0592002
0.0395117
0.0240898
0.0244785
0.0557544
0.0248573
0.0249069
0.0245493
3.24712
0.0329772
7.67642
0.0247364
0.276734
0.0250115
0.0247839
0.0251228
0.0434028
0.0240213
0.0838252
2.91644
0.0421025
3.6138
0.581688
0.0260073
0.0297814
0.344782
0.10856
0.0230532
0.0237744
0.0226373
2.70091
0.0224827
0.074427
0.0445935
0.0765521
1.61557
1.56423
0.0648224
3.74364
0.0234511
0.0232536
0.259187
3.06211
0.0244734
0.0247097
0.562592
0.0239159
0.176336
0.0257767
0.0236274
0.0279231
0.0246081
0.070945
2.83963
3.10298
0.0274146
0.0243517
0.0763173
0.0255523
0.0764665
0.0238252
0.131661
0.0888351
0.0249073
0.0246631
0.0227013
0.116831
0.0497468
0.191821
1.80479
0.0317359
3.03255
0.073215
0.107106
3.35151
0.0243151
2.68107
0.0253583
3.27651
0.197228
2.65666
3.19461
0.0248506
0.05415
0.245564
0.0244025
3.81991
0.0245203
0.0245819
0.0284887
0.0251544
0.0326897
0.195188
1.60594
3.3189
0.0283276
0.0411368
0.0255277
0.0247735
0.0247911
0.123847
0.0850195
2.85631
0.0452094
0.0229558
0.0236261
0.0250347
0.226453
0.0268298
0.0253584
0.0276384
0.0840774
0.03344
0.0430957
0.0384411
2.74816
0.0314029
0.0345086
0.0244971
0.0285572
0.69214
0.262386
0.0471252
0.0235669
2.68708
0.0345001
0.0240804
0.0488634
2.91099
0.140811
0.0348934
0.0239231
2.66223
0.0249596
0.0238762
0.023
2.19992
1.58464
0.0259931
2.43176
2.96068
0.0272783
0.0384712
0.0599125
3.68615
0.0325712
3.45218
0.0249934
0.0344755
0.0274174
3.62659
0.0350363
0.0236853
3.0437
0.0247029
0.0253343
1.7681
3.189
0.0671417
1.07235
0.0271748
0.0256488
2.50282
0.0240892
0.0242121
0.0246919
0.0456704
0.0244706
0.033019
0.0272728
0.0711294
1.94662
0.0252388
3.80407
0.0271809
2.9854
3.4746
0.0246581
0.0248237
0.028072
0.130363
0.181988
0.0665602
2.90862
2.69805
0.128834
0.025382
2.93279
3.07576
0.0472259
1.53197
0.0246251
0.0242897
0.0247186
0.0254344
0.0243225
0.0348578
3.15367
0.0329277
0.272163
3.21635
2.94486
3.12588
3.28426
0.0306844
3.59542
0.104401
0.0738076
0.023531
0.0244538
0.0679601
4.04023
0.0254404
2.8336
3.14394
0.0238431
0.0246966
0.0245059
0.0849533
0.0250498
0.072325
2.70244
0.0235161
0.0245066
0.0238224
0.0252772
0.0966703
2.95126
0.0376276
3.12129
0.10648
0.0241696
0.262098
0.119444
0.0244485
0.533145
1.57378
2.74504
2.06734
3.45653
0.024333
2.68593
2.99131
0.151799
3.08283
0.0238193
0.0260735
0.0266141
0.0262837
3.2874
0.0659552
0.0247941
0.0295403
0.288012
3.07427
0.0252816
0.024703
3.48241
3.26356
0.0248303
0.0301355
0.1028
0.024391
0.0245116
2.40164
0.0241053
0.224227
0.268997
3.3873
0.0240028
0.0716919
0.137455
0.0240447
0.0227529
2.40416
2.34199
0.0248504
0.0348151
0.163503
0.212788
3.48788
2.26543
0.0281798
0.249355
0.329566
0.0361697
0.0241185
0.0830014
0.023204
0.0228651
3.25688
0.039027
0.0921108
0.0271217
0.0281304
0.0238253
0.0232428
0.0251953
0.0253834
2.62807
0.0269028
1.63709
6.12824
0.044512
0.0710838
2.70383
3.54936
2.64629
0.0234713
0.0274864
0.0366736
0.0279749
0.173722
0.345445
0.0251766
1.22141
3.26183
0.0289204
0.0902522
0.0748186
0.0983659
0.107207
0.0257121
0.119031
0.13043
0.143503
0.159481
0.110815
0.081668
0.0289776
0.0240669
0.0345843
0.0894558
0.0240487
0.34604
3.64443
0.162152
2.99751
0.0227291
0.023548
0.0261864
2.86936
0.0253128
0.0265786
0.0640119
3.40169
0.740891
0.0245233
0.0327582
0.0277825
4.70378
0.277808
0.0269304
0.423118
3.04521
0.0992887
3.36049
0.0932437
0.0718807
3.58743
0.0221254
3.69962
3.12992
0.0254595
0.0693434
0.0952486
0.0280587
0.0237573
0.126544
1.07122
0.0236436
0.0236931
2.61054
0.808894
0.0777352
0.0247713
0.207959
0.125124
3.11271
3.72973
0.0246738
0.0244619
0.0252639
0.0257219
3.40072
0.696075
3.01617
0.0835609
0.183185
0.447854
0.0257115
0.0239911
3.10644
0.0237697
3.53404
0.0235778
3.35599
0.0255267
0.0253413
0.788994
0.0244887
0.109519
0.552542
0.0272211
0.0263368
0.0256419
0.176649
3.29168
0.148595
3.02202
0.0267808
0.0255463
0.0300478
0.0749431
3.80153
3.64142
0.0939847
0.214552
0.121159
2.68086
0.0234051
0.0237247
0.0235345
0.0235337
0.164047
0.0701178
0.190905
0.0420431
0.143941
0.0240733
0.284807
0.172227
4.39125
0.0245831
0.0257785
0.0225289
2.98642
0.0282828
0.299048
0.155047
0.118061
0.19581
0.0226688
0.0384948
0.14368
0.175353
0.685752
0.0246645
0.129993
0.0249931
0.0247646
0.0966735
1.08627
1.80033
0.0247891
0.0839341
0.126812
3.16995
5.22807
3.41802
3.4388
0.0239129
0.0610746
0.0245137
0.134979
0.0240231
0.10687
0.0260561
0.049648
0.245514
0.557164
0.0264323
0.0950009
3.10562
0.114331
0.0263242
1.75855
0.105095
0.0251416
0.0251034
3.33743
0.0309162
0.121541
0.391305
0.082098
4.04758
0.0260866
2.98613
2.89346
1.04187
0.131803
0.0333715
0.10636
0.0963327
3.36699
0.0658431
0.0251967
1.58443
0.0470537
0.301442
0.0298562
2.8822
0.91031
2.14213
0.0286938
1.54133
0.0268694
3.06924
0.146452
2.15365
7.33541
0.0238909
0.0225033
3.09667
3.66431
0.0340806
0.0251104
0.0429831
0.0320546
3.00283
0.0774108
3.15427
0.0284321
3.21273
0.118585
1.20701
0.0251531
0.155796
3.18638
0.0266238
0.0842554
0.0227218
0.0270403
0.0247245
0.24513
0.0241774
0.0247379
3.56524
2.90746
0.0235085
3.73459
0.02533
0.024453
0.0243474
0.023787
0.0248554
0.624404
3.4633
0.0234565
0.313124
0.0684915
0.0487843
1.50851
0.0858831
0.0280271
0.0339702
0.0243595
0.244936
0.0321948
3.77047
0.0272917
3.19222
1.07576
0.070946
2.0894
3.28169
0.023684
3.67906
0.0564293
0.0665707
0.0425089
0.024134
0.0423462
0.186867
0.0246798
0.163504
0.0245206
3.40385
0.141405
2.58107
0.172467
0.164822
3.53645
0.0246184
0.0240204
0.0637476
0.0258269
0.0248254
0.0248546
0.0295055
0.0240402
0.0242261
0.0255926
0.0437786
0.0260736
0.0295644
0.0257608
0.0375628
0.0998437
0.0263638
3.50403
0.0261596
0.0242876
0.0932661
0.0434414
0.0258551
0.0240194
0.234976
0.0263322
3.17493
0.0264966
0.111238
0.0243602
0.024349
0.0942043
3.62592
0.0716203
0.0367026
0.022865
3.12556
0.0247494
0.024178
0.0778191
0.0267697
0.137697
3.08378
0.0980161
0.136906
0.0427311
4.11217
0.0244644
0.0246949
0.0638955
0.253225
0.0608866
0.0989706
2.70866
0.0298234
0.0246433
0.0302446
0.209626
0.0583528
0.0247005
0.101605
0.0966841
0.065514
0.0248583
0.0247549
0.17606
0.0643376
2.25931
0.504876
0.0264551
0.0717778
0.0248279
0.0455053
2.39152
0.0247331
0.157502
0.0338299
0.0831625
1.1553
0.0246412
0.0243347
0.0242964
3.56764
0.212673
0.0262637
0.0937691
0.110777
0.024803
0.0243772
0.115113
3.67941
0.177985
3.13629
0.143614
0.0327868
0.49039
0.121389
0.0325826
0.361837
0.0885372
0.341217
0.0245907
0.0972278
0.133636
0.0253514
0.277975
0.0408196
0.0827321
0.0294605
0.146955
0.0240515
4.01253
0.0272863
0.0237097
0.0237727
0.0236272
0.0255919
0.0254119
0.0237657
0.0269275
0.0246548
0.0252933
0.245446
0.07973
0.0252401
0.0649055
0.0272959
0.0250302
0.0231993
0.0476484
0.028966
2.56922
0.0246605
0.0247004
0.0692875
0.178035
0.0246684
0.0246159
0.110702
0.0264251
0.0918623
0.0616948
0.0244815
8.4007
0.02662
0.0253098
0.0747261
3.77509
0.0251667
0.0592955
0.0236402
0.0283791
0.0241998
0.0295222
0.0241894
0.0247161
0.0475104
0.0621792
8.85388
0.0521613
0.0245675
0.0307736
3.24459
0.0512986
0.177276
0.100445
0.0247488
0.0551216
0.878605
0.185693
1.08003
0.0284038
3.36201
0.341107
0.0315772
0.0247964
0.0755882
0.0252739
0.0577707
3.09804
0.0245878
0.0641143
0.0248253
2.86679
0.0485212
0.0253926
0.0629557
2.96909
0.192307
0.0266763
0.0743179
0.0327181
0.0234868
2.28256
0.0233282
0.0358486
0.0240806
0.0275962
2.67167
0.0735811
0.0232331
0.0311141
0.155929
0.0245894
0.0249292
0.0307005
0.0278641
0.0245105
0.0265917
0.0271051
0.0250464
0.0240643
0.063225
0.104273
0.179016
0.0240056
0.0596417
3.00172
4.35248
0.0234511
0.0246229
0.0278021
0.0910318
0.0251812
0.024019
0.0242158
0.0237229
0.0284165
0.029995
0.0272746
0.0668878
0.0261737
0.0232138
0.026144
0.0654193
0.0485619
0.107636
0.0252028
0.0308758
3.21708
0.0315859
0.0274103
4.167
3.19752
0.0994311
0.0692271
0.161386
0.0242984
0.30551
0.0293875
3.97902
0.0245044
0.0242704
1.85885
0.0237176
0.262765
3.08916
0.025052
13.5428
0.0330445
0.0342825
0.0292698
0.0741106
0.0310939
0.0287989
1.60134
0.0237951
0.0270309
3.54778
0.0258306
0.0244245
0.03257
3.17326
0.0252281
0.0252288
3.2192
0.0263732
0.029239
0.0597963
0.0231161
6.07119
0.0268901
0.0253388
0.102458
0.0587273
3.02573
0.026352
1.97887
0.0357917
0.0903502
2.82198
0.024588
0.0348419
0.0916336
0.0252193
2.11021
0.025236
0.0261691
2.9253
0.0253092
0.043023
0.0891508
0.788092
0.0325036
0.0290511
0.0253694
0.0267101
0.0906396
0.0271593
0.0331222
0.0814144
0.0552767
0.0245755
3.39845
0.0401233
0.0232281
0.0257585
0.0242819
0.0235792
0.0231188
0.0245857
0.0245597
0.0322198
0.0266865
0.0418493
0.0229352
0.0232405
0.0248717
0.0798577
0.0236289
0.0325466
0.0649676
0.0309932
0.0323294
0.0243791
0.0261791
0.0269949
0.0397578
0.0306412
0.0269882
2.7447
0.0247159
2.30339
0.0275612
0.0897066
0.0861453
0.024546
0.0604482
0.0336577
3.13897
3.02923
0.0280729
0.0247877
0.0264213
0.0321562
0.0497139
0.0243032
0.170443
0.0548539
0.0248992
0.0594032
0.048176
0.0654385
0.0306234
0.182049
0.0920153
0.0293994
0.171369
0.0260326
0.12873
0.025477
0.0242967
0.0833542
0.0855346
0.0244875
0.0514467
0.024548
0.0247457
0.0244968
0.0250917
0.0245303
0.0245018
0.0244626
0.0251693
0.162376
0.0255581
0.0244274
0.0253635
0.0255244
0.193052
2.95694
0.0609495
0.0268796
3.30773
0.0244905
0.0244426
0.0792374
0.0344274
0.0251866
0.0252245
0.0246954
0.159159
0.0247667
0.0282319
0.0252867
0.0359503
3.78142
0.0245617
0.0598475
0.0672189
0.0278471
0.0449467
0.0234119
0.0247665
0.0611177
1.22765
0.0261885
0.0379561
2.19128
0.0928455
0.0235881
2.82555
0.0256077
0.022188
0.0572005
3.5422
0.024401
0.0236
0.0261037
0.0329766
0.0356497
0.0245152
0.0253965
0.0412113
0.0247638
0.031009
0.0284102
1.14905
0.023077
2.83031
0.446624
0.0406563
0.0242971
0.0930531
0.0238803
0.0262497
0.0246221
0.0574041
0.0228883
0.0228683
0.0423202
0.0613926
1.05563
0.0249188
0.0227373
0.0262062
0.0236215
2.8874
0.0261951
0.0257324
0.0251551
0.0630168
0.0494399
0.0264049
0.0259514
0.046572
0.0246806
0.0244027
0.0263198
0.0251777
0.133011
0.0241552
0.0325321
0.0250753
0.0245956
0.0509135
0.0913348
2.77427
0.0244932
0.0575588
0.17531
2.98784
3.32747
0.0337296
0.0245547
0.02726
0.0322357
2.58927
0.024875
0.0278131
0.029547
0.0332314
0.0229668
0.056256
0.0483078
1.06217
0.0251342
0.0247687
0.0904651
1.12402
0.0228129
0.0273086
0.0356866
0.0226132
0.0254599
0.0473741
0.0234127
0.0245183
0.024795
0.0272241
0.0832597
0.0381409
0.0254913
0.0233652
0.0251601
0.142075
0.0225435
0.0236776
0.0284259
0.0900878
0.028228
3.59952
0.0271666
0.024489
0.0246145
0.025973
0.0242405
0.0352719
0.106776
0.0237222
0.023978
0.0250679
0.0243543
0.0250316
0.0470747
2.70036
0.0256314
0.100811
0.0262419
0.0243635
0.20674
0.0263573
3.58839
0.0248854
0.0247344
0.0236115
0.0245457
0.0255242
0.0329607
0.0440382
0.133132
0.0302009
0.0553577
0.0247823
0.0350049
0.0245384
0.0262547
0.035612
2.67776
3.07533
0.0248438
3.26734
0.146886
0.0440905
0.211984
0.0224104
0.024499
0.0246618
0.0258301
2.80303
0.0235751
0.0730088
0.343532
0.0253669
0.0842336
0.0226055
0.0333563
0.341117
1.06295
0.0248292
0.2507
0.116556
0.400673
0.0287946
3.31036
0.0255854
0.136145
0.102454
0.0233139
0.0406964
0.0337771
0.0265324
0.151285
0.0330674
0.023734
0.0244209
0.182959
0.0247742
0.0543415
0.0246759
0.022515
0.0256988
0.0349324
0.0246235
0.0829524
0.0290826
0.026375
0.0224788
0.024507
0.324691
0.0810384
0.140832
0.0359056
0.0277285
0.0302455
0.028136
0.0244639
0.0256583
0.0357131
0.0260644
0.0269927
0.0231714
0.028562
2.86915
0.0250766
2.4519
0.135863
0.0246684
0.0247188
0.0229898
0.0310585
0.0387744
0.0227815
0.0282164
0.0258244
0.0249216
0.0240718
0.0250485
0.0241279
0.024602
0.251886
0.0247595
0.0285869
0.0245635
0.167108
0.0884791
0.0245027
0.269476
0.0246386
0.0267956
0.0329622
0.298331
0.0314416
0.0239766
0.0242854
0.035049
0.0438162
0.14917
0.0255847
0.051716
0.115429
0.0250105
0.024517
0.112607
0.0544242
0.0335249
0.0247781
0.0249479
0.0256946
0.0261988
0.0237199
2.23101
0.0268209
0.0268097
0.023485
0.0307521