/*--------------------------------*- C++ -*----------------------------------*\
| =========                 |                                                 |
| \\      /  F ield         | OpenFOAM: The Open Source CFD Toolbox           |
|  \\    /   O peration     | Version:  v2012                                 |
|   \\  /    A nd           | Website:  www.openfoam.com                      |
|    \\/     M anipulation  |                                                 |
\*---------------------------------------------------------------------------*/
FoamFile
{
    version     2.0;
    format      ascii;
    class       volScalarField;
    location    "400";
    object      p;
}
// * * * * * * * * * * * * * * * * * * * * * * * * * * * * * * * * * * * * * //

dimensions      [0 2 -2 0 0 0 0];


internalField   nonuniform List<scalar> 
13917
(
-0.0918488
0.00345549
-0.068451
-0.0247302
0.00416617
0.00263877
-0.0364956
0.0151597
-0.0478306
-0.113641
0.0134341
-0.0167158
-0.0141042
0.0290337
0.000542724
-0.0903957
0.000476332
0.0127562
-0.0539183
-0.104373
-0.00414259
-0.00213761
-0.0443295
-0.00197994
-0.0207106
-0.00115471
-0.0195069
-0.114027
0.0069558
0.000165637
-0.113322
-0.0600526
-0.0203268
-0.0868932
0.000887394
0.0128728
-0.00835792
-0.00354339
-0.0374919
-0.0123613
0.000677072
0.00111947
-0.0432501
-0.0601656
-0.059027
-0.0155556
-0.00514528
-0.0850628
-0.0285974
0.000848199
-0.0164493
-0.0266793
-0.0769736
-0.00945509
-0.0103979
-0.0279461
-0.110806
-0.0432856
0.00112865
-0.015183
0.0133473
0.00163672
0.000144435
-0.0207262
-0.0762262
0.00145477
0.00897853
0.0109943
0.0139133
-0.0808923
-0.0740396
-0.0859668
-0.0239566
0.00107782
-0.00429432
-0.0163584
0.00192099
0.00107706
-0.0165132
-0.0205047
-0.00484191
0.000364377
-0.0237017
-0.0774194
-0.00975997
0.0256699
-0.0595143
-0.00949635
-0.0115916
0.000435683
0.00060562
-0.0442523
-0.0248748
0.000693551
-0.00825761
0.00831319
-0.00133372
-0.000388053
-0.00967237
-0.00414736
0.000421377
0.000396739
-0.0049329
-0.000746767
0.00177413
-0.075189
-0.0984831
0.00116918
0.00118035
-0.0213075
-0.015011
-0.0878216
0.00618162
-0.0927021
-0.0785669
-0.0143896
-0.0536738
0.000684515
-0.0649201
-0.0230491
0.000362408
0.000981402
0.0103718
-0.040868
-0.0762224
-0.07723
-0.0213928
-0.00344603
-0.000406718
-0.0422927
-0.0521051
-0.0217085
-0.0779096
-0.0138065
-0.0607779
-0.0192494
0.0135464
-0.0743407
0.000857757
-0.0034371
0.00715137
0.00103511
-0.0770247
-0.00448876
-0.0222328
0.00127275
-0.0748682
-0.00691491
-0.100359
-0.00960467
-0.0118603
0.000394939
-0.0219851
-0.0232984
-0.00288122
0.000374903
-0.000723596
-0.0793072
0.00062981
0.000666452
-0.00783849
-0.0540736
-0.00370216
4.71505e-05
-0.0202922
-0.00522839
-0.0773615
-0.0211445
4.65473e-05
0.00185686
-0.00148194
-0.0805368
-0.0481417
0.017641
-0.0261735
0.000577908
-0.0253864
-0.0242887
-0.0518245
-0.00314144
-0.041714
-0.00168911
-0.0159604
-0.0279237
-0.0644974
-0.021902
-0.0156784
-0.0258131
0.00019466
0.0224883
-0.0252322
-0.0585566
-0.0339792
-0.0957724
0.000657429
-0.0768378
-0.022715
-0.0780439
0.000825341
8.30969e-05
-0.00685319
-0.0824219
-0.0741459
-0.00682009
-0.0233019
0.00221903
-0.0124299
0.00102802
-0.0255929
-0.00440241
-0.00101045
0.00562891
0.0061881
-0.0892036
-0.0608577
-0.000211907
-0.0812476
-0.00567108
0.000760176
0.000766948
-0.0311415
-0.0310381
-0.0215182
-0.0148447
0.000110551
-0.0194358
-0.0774763
0.000734298
0.000721601
0.000601165
0.000789283
0.000796341
-0.0868005
-0.0740541
-0.00352274
7.77452e-05
-0.032575
-0.0827447
0.000642037
-0.0146822
-0.0247372
-0.0780246
-0.0304226
-0.0843316
-0.023592
-0.00466723
-0.0198432
-0.0331562
0.00502548
-0.0504045
-0.00727356
-0.0843814
-0.0232868
-0.0219514
-0.0269689
-0.0029261
0.000732079
-0.0213831
0.00286522
0.00106347
-0.077176
0.00276593
0.000966662
0.000697921
0.000531072
0.000691057
-0.0234983
-0.0142638
-0.0335383
0.00100811
-0.0747067
-0.0932138
-0.01357
0.00236907
-0.012725
0.000811204
-0.00318339
-0.0776106
0.000811224
-0.0814659
0.00101162
-0.0453234
0.000538679
-3.84091e-05
-0.00269712
-0.00371643
-0.0477797
-0.00247645
-0.00542764
-0.0195026
0.00262446
0.00134214
-0.0220234
-0.0740164
0.000650759
-0.0386203
0.00324099
-0.0127814
0.00346396
-0.0173241
0.000808375
-0.0024443
-0.0229297
0.00450711
-0.0217657
-0.0174892
-0.0143814
-0.0772601
-0.0822593
-0.000277182
0.0011072
-0.0134367
0.00161115
-0.0696169
-0.0967013
0.01676
0.00065721
-0.0209629
0.00210139
-0.0775647
0.00493825
-0.0688487
-0.0138158
0.000506525
-0.0235584
-0.000598226
0.00377663
-0.0573563
0.000583139
-0.0816738
-0.0096009
-0.0640411
0.000883835
-0.10418
-0.00229541
-0.0227943
0.00255628
0.000299412
0.000621539
-0.0525404
-0.0774199
-0.00905209
-0.000413723
-0.0870722
-0.0794974
-0.00235307
0.029047
0.000787794
-0.00454711
-0.0784087
-0.0210021
0.000786231
0.00353174
-0.012841
0.0015466
-0.0228065
-0.035887
-0.020756
-0.00132338
-0.0603463
-0.0923522
-0.00036299
-0.00950051
0.00480638
-0.05551
0.000587521
-0.0941376
-0.0606353
-0.00905549
-0.0102027
-0.0205639
0.00111921
-0.0265106
0.00117304
-0.0236087
-0.0132388
0.0037414
-0.0135415
-0.0626149
0.000899793
-0.0129226
-0.0332987
0.00118226
-0.0268147
-0.00153761
-0.00558352
0.000304743
-0.106944
-0.00431688
-0.0107211
-0.0227612
-0.00115721
-0.00752064
-0.0154366
-0.0779781
-0.0120227
-0.0469575
-0.00561694
0.000368793
-0.0673691
-0.00974475
-0.0414344
-0.0182066
-0.00419762
-0.00447285
-0.000407618
0.00827563
-0.00732496
-0.00982215
-0.000112094
-0.00245438
-0.0336444
0.00491431
0.000837806
5.15111e-05
-0.0689438
-0.0205068
-0.00369052
-0.0109732
0.00563344
0.0108443
0.00191721
-0.0551096
-0.0757173
0.000981258
0.000816036
-0.00407309
-0.00450675
0.000839564
-0.00328733
0.000820562
0.000963178
-0.0364351
-0.00571762
-0.0139062
-0.0748672
-0.037536
-0.00100564
-0.0214268
-0.020982
-0.00588188
-0.0752944
0.000865665
-0.0145465
0.000925416
0.000827098
-0.00832592
-0.000926123
0.00640887
0.00165153
-0.0774215
-0.0142967
-0.047565
0.00168115
-0.00440195
-0.0244774
0.000198847
-0.013035
0.000157261
-0.00109154
-0.00415155
-0.00249966
-0.00178742
-0.00101378
-0.00780896
-0.077394
0.0150903
-0.00102019
-0.0258035
-0.0675814
-0.0143899
-0.0370156
-0.0720353
-0.0293156
-0.0438437
-0.0825735
-0.00753552
-0.00684745
-0.00114069
0.000840101
0.00175689
-0.00711434
-0.0163037
0.000551114
-0.00972765
-0.00873424
-0.0441174
-0.00738494
-0.0621403
-0.0493705
0.00111583
0.00261309
0.0122909
-0.014663
-0.00952861
0.0246459
-0.0376369
-0.0203572
-0.00200615
-0.0098702
-0.0146232
-0.0228533
-0.00320333
-0.0776093
-0.0043797
0.000827352
-0.0342938
0.000860527
-0.00526377
-0.0230502
-0.0774376
-0.022527
-0.00798048
-0.0297835
0.00120444
-0.0106259
-0.0157885
-0.00939705
-0.0101132
-0.00791451
-0.0282758
-0.00751802
-1.25417e-05
0.000575825
-3.79638e-05
-0.00443676
0.00309977
-0.0278243
0.000580404
-0.0485227
-0.00322349
-0.00277634
-0.0184359
-0.0966728
0.000331579
-0.0351899
0.00104151
-0.0471184
-0.0387015
0.00707713
-0.027
-0.00721197
-0.0167291
0.0108576
-0.07766
-0.0425144
-0.0754908
-0.000157527
-0.00227804
0.00106719
-0.0147436
-0.0801961
0.000829361
-0.00423101
-0.0234806
-0.0800994
-0.00542009
-0.0426233
-0.125095
-0.000902367
-0.0678344
-0.000387991
0.00152764
-0.0793318
0.000846743
-0.0720225
0.0002177
-0.014398
-0.00223586
-0.0619873
0.00316499
0.000622424
-0.0621075
-0.036343
-0.0117213
-0.0746463
-0.0796164
-0.0248486
0.000308017
-0.078214
0.000284067
0.0126861
-0.00227528
0.00159198
0.0010374
0.000477129
-0.0372689
-0.0413176
0.00084519
-0.000364536
-0.0122171
-0.0746097
-0.0087023
-0.0598769
-0.00949571
0.000617951
0.000674553
-0.0171638
-0.033283
-0.124233
-0.0499248
-0.0285604
-0.0441913
-0.0820478
0.000364684
-0.0121399
-0.0132056
-0.0739163
-0.0144255
-0.0641616
-0.00436882
0.00278768
-0.0227193
-0.0099314
-0.0352048
-0.0788143
0.000505855
-0.0336745
0.000650089
0.000465025
-0.0934293
0.00031952
0.000903785
-0.0352976
-0.0145446
0.00136304
0.000389798
-0.0924736
-0.00894294
0.00311862
0.000824979
0.000811092
-0.0537053
0.000319631
-0.0401789
0.00021156
-0.00259693
0.0110714
-0.0603651
-0.00930574
-0.0731911
-0.0717813
0.00115008
-0.021467
-0.000902179
0.000934711
-0.0991103
-0.0757101
-0.00490587
-0.00889795
0.00290122
0.000234465
-0.000942018
0.00145637
-0.0373861
-0.019637
-0.00128285
-0.0359089
-0.00231684
-0.0127397
0.00442868
-0.0256172
-0.0360516
-0.082332
0.000790087
0.00349852
0.000940376
-0.00274145
0.000355721
0.00059375
0.00121485
-0.00627623
-0.0793153
-0.0584778
-0.00113595
-0.0569438
0.000508558
-0.0926697
0.00104223
-0.000284679
-0.0779406
-0.0399632
-0.0128219
-0.0237349
0.000885621
6.67671e-05
-0.0275901
-0.0378042
-0.00305138
-0.0742762
-0.0193593
-0.00518029
-0.0137822
0.00372913
-0.0767399
-0.0294117
-0.000700611
0.000749209
-0.0779571
-0.0224625
-0.022534
-0.0749669
-0.0132812
-0.00233062
-0.000228883
-0.00758508
-0.0764402
-0.0105973
-0.0343127
-0.027003
-0.0347665
-0.074719
0.0018482
-0.0377179
-0.057753
-0.00816449
-0.0201347
-0.000837432
-0.0371008
0.00263016
-0.07819
-0.0115612
0.00171801
-0.0746248
0.000391902
-0.00734303
-0.00941103
0.00194493
-0.0265805
-0.0753589
0.000342985
-0.0682975
-0.034405
-0.00221422
-0.0154418
-0.012265
-0.00632914
-0.0137618
-0.0227315
0.00461264
0.00190265
-0.018142
-0.0389028
-0.000789833
-0.0779018
-0.0469135
-0.0437924
-0.0366267
-0.00426393
-0.0668636
-0.00450018
0.000514538
-0.0409607
-0.0236679
-0.0564492
-0.00128613
-0.00113954
-0.00085544
-0.0813665
-0.0196662
0.00115555
-0.0626134
-0.00305535
-0.000838382
-0.0290257
-0.00294077
0.00673111
0.00705908
0.000448797
-0.078658
-0.0231784
0.00238809
-0.0537848
0.00167377
0.000736927
0.000544145
0.000291623
-0.0224712
-0.010301
0.00746034
-0.00122941
0.0020962
7.79353e-05
0.000890098
-0.0099435
-0.0444599
0.000874287
-0.0496752
1.03901e-05
-0.0264439
0.00713131
0.00057813
-0.0965701
-0.0194571
-0.0772129
-0.0412805
0.00908511
0.00147847
-5.12282e-05
-0.0153941
-0.084558
-0.0355732
0.00160225
0.0160236
-0.0136754
-0.0560761
5.697e-05
0.00160222
-0.0163827
6.76377e-05
-0.026477
-0.0367159
0.00876977
-0.0523388
-0.00470746
0.000613668
0.000156585
-0.020761
-0.000790187
-0.00879229
-0.0130036
-0.002078
-0.0619745
0.000611551
0.0194715
-0.00765432
-0.0876883
-0.0767622
0.00935722
-0.0775583
-0.00258827
-0.0882359
0.000642251
-0.00170523
0.00130397
-0.0179877
-0.0162558
-0.00777109
-0.036418
-0.0077551
0.00713427
-0.00895839
-0.073845
-0.0197353
-0.0566106
-0.0191881
0.000137082
-0.0119713
-0.0189723
0.00152411
-0.0308176
0.000892867
-0.0781477
-0.0371547
0.00234443
-0.00017184
-0.0180275
-0.000910004
0.000175227
-0.00673417
-0.00187055
-0.00155473
-0.00455165
-0.0101525
0.000486758
-0.00553625
-0.0687524
0.00154857
-0.0018975
-0.0148717
-0.0142105
-0.00513639
-0.0517176
-0.000500711
-0.00168215
0.000884927
2.63338e-05
-0.0927497
0.000127676
-0.024928
-0.0557506
-0.0910021
0.000914132
-0.00627741
-0.05514
0.00118116
0.000395837
-0.00203212
-0.0752997
-0.017475
-0.0626213
-0.0177179
-0.0764884
0.000271595
-0.0197163
-0.000215939
0.000757453
-0.00535975
-0.00786435
0.000343875
-0.0775915
-0.0098642
-0.00372001
0.00463892
0.00117497
0.00133694
-0.0385144
-0.0116508
-0.0804637
-0.0143186
-0.0704839
-0.021543
-0.0338252
-0.0773236
-0.00738912
-0.0397509
-0.0156448
-0.0753776
-0.00793926
-0.0251508
0.000911395
0.00136424
-0.00972083
0.000882315
0.000938763
0.000976364
-0.0156443
-0.0262741
0.000516195
-0.0102175
-0.0572109
-0.0322338
-0.032738
-0.0552809
-0.00109577
-0.00518429
-0.00774917
-0.0556996
-0.0115091
-0.0730904
0.000826401
-0.00172819
-0.0119632
-0.00646393
0.000823457
0.000927908
-0.0103671
-0.0255584
-0.00388518
-0.116385
0.00180451
-0.00285019
-0.0840605
-0.0159093
-0.000501931
0.00140295
-0.0930694
-0.0132844
0.000583316
-0.0112986
0.000619183
-0.000184943
-0.0776324
0.00140711
0.00661383
-0.0255211
0.010778
-0.00113568
0.000997183
-0.0074578
0.000135287
-0.0170499
-0.0823256
0.00170181
-0.00357764
0.000749242
-0.0182987
-0.00114011
-0.0658085
-0.0598678
-0.0191109
-0.0782089
-0.116786
8.23132e-05
-0.0663432
0.00095886
-0.0762025
0.000989454
0.0117752
-0.0281246
-0.0423182
-0.0163313
-0.019907
-0.0192092
-0.0778111
0.000926253
-0.00390108
0.000909703
-0.00804424
-0.060549
-0.00754064
-0.0173028
-0.0231636
-0.0836392
0.00100078
-0.0527264
-0.0813652
0.000175126
0.000802704
-0.00590655
-0.0813241
-0.0164862
0.000245191
-0.0362698
-0.0206236
-0.000121231
0.00504688
-0.00316862
-0.0178444
-0.0101229
0.0009391
0.00211562
-0.0128472
0.00179202
-0.0758305
-0.0242974
-0.0191945
0.000160225
-0.0949591
-0.00133073
0.00091662
-0.00408927
-0.0292125
-0.0256262
0.000878445
-0.0218023
0.00164268
7.21996e-05
-0.0510848
-0.00429052
0.00120901
-0.0474725
-0.067209
-0.0691037
-0.0162218
-0.00790087
0.00425409
-0.0819513
-0.00348326
-0.018907
0.000815744
-0.0274148
-0.0313348
-0.0179266
-0.0297683
0.00147484
-0.0244674
-0.0012132
-0.00809477
-0.0151797
-0.0308874
-0.0239222
0.010429
0.000269188
-0.0725075
-0.0117415
-0.00657592
0.00304676
0.00119102
0.000799024
-0.000591854
-0.016781
-0.0784435
-0.00339823
-0.00924692
-0.0419097
-0.00786167
-0.0123473
-0.0203382
-0.0705516
-9.34505e-05
-0.000116934
0.0167113
-0.000347015
0.00247762
-0.0778156
-0.022388
-0.0171604
-0.0166496
0.00112894
-0.00886882
-0.0830517
-0.0757783
0.00390554
-0.0257583
-0.00482421
-0.0744529
0.00294105
-0.00815665
-0.0753476
-7.23726e-05
-0.0344032
-0.0331223
-0.0663322
-0.00975158
-0.0227468
0.000904145
-0.0027423
-0.0123557
-0.0124082
-0.00253484
-0.077867
0.000157827
-0.0340527
0.000154727
-0.0686278
-0.0293945
-0.010997
-0.0058666
0.00571233
-0.0172215
-0.0713908
-0.00230211
-0.0117434
-0.0132341
-0.0756758
-0.0485245
-0.0840422
-0.0144239
-0.0051469
-0.022821
0.000923376
0.00944974
-0.0327271
0.000837194
-0.00536547
-0.0176257
-0.0135348
-0.0110253
-0.00219911
-0.00344462
-0.0298866
-0.0514332
-0.0218846
-0.00798403
-0.019648
0.00965591
-0.00834399
-0.00733377
0.00130878
-0.0790062
-0.0434281
4.79449e-05
-0.0560326
0.00129748
-0.0032013
-0.0739618
-0.0171468
-0.00376959
0.000905063
-0.0183274
-0.00728556
-0.00749314
-0.0782864
0.000130727
-0.0343429
0.00134395
0.00127753
-0.0541027
-0.0757621
0.000546133
-0.0246217
-0.00238698
-0.00375641
-0.00997401
-0.0716148
-0.0783585
0.00202608
-0.0197213
-0.00583121
-0.0516239
-0.0401171
0.00165572
-0.0101623
-0.0608855
0.000556407
0.00482412
0.0014867
0.000175822
-0.0245219
-0.0858438
-0.0338055
0.000803103
-0.0272528
-0.0221314
-2.80675e-05
-0.0157818
-0.0056034
-0.0114524
-0.00898458
-0.00504025
0.000600539
0.00423006
-0.0496977
-0.0118718
-0.020949
0.000609873
-0.00746366
-0.000879381
-0.0137684
-0.0270182
-0.0159326
-0.0748412
-0.0124913
-0.030603
-0.0487342
-0.0224638
-6.86543e-05
-0.00630284
-0.0214585
-0.0760903
-0.0923495
-0.00675439
0.000657671
-0.0753404
-0.00389804
-0.00125181
-0.0233223
-0.0128292
-0.0126452
-0.00406063
-0.073471
-0.0264902
-0.00573895
-0.0177771
-0.0311469
-0.0703141
-0.0812385
-0.000172319
-0.00336546
-0.0255691
0.000581371
0.000946634
-0.0186349
-0.00629093
-0.0158107
-0.0384267
-0.020901
-0.0773346
-0.0121663
0.000296055
-0.0302252
0.000648541
-0.0765165
-0.0118675
-0.00088619
-0.023893
-0.0604167
-0.0292227
-0.0708601
-0.0108473
-0.0395029
-0.000946513
1.81292e-05
0.000981846
-0.0120308
-0.0127888
-0.0762997
-0.0167944
-0.032958
0.00274851
0.00149506
-0.0211455
0.00104145
-0.000490393
-0.0757686
0.000811621
-0.00435419
-0.0569377
-0.0122355
-0.0519626
-0.0393181
-0.0393011
-0.0103538
0.00133995
-0.00231903
0.00023021
0.00184615
0.0024073
0.00130387
-0.000506962
0.000672765
0.00102806
0.0134239
-0.00456367
-0.0788951
-0.0349315
0.00102234
-0.0138266
0.000358902
-0.0330918
0.00230414
-0.0121403
0.00105771
0.00134704
0.00132614
-0.0234573
-0.00263512
-0.0408932
0.000193708
0.000797303
-0.0179552
0.00243883
0.000320711
-0.0864041
-0.00608808
-0.000734781
-0.0194599
-0.0162909
-0.0742657
0.00248695
-0.0259
-0.0200956
0.00188876
0.000939519
-0.0430346
-0.0162189
0.000500826
-0.0246211
0.000359196
-0.0870964
0.00188434
-0.00448366
-0.0157033
0.000950517
-0.0769473
0.000601082
0.000630982
-0.0582126
-0.0109334
-0.000865273
0.000927283
0.000945144
-0.0546993
-0.0209821
0.00175564
-0.00138872
-0.0190059
0.00112455
-0.00154482
-0.00156855
-0.0161001
-0.0134359
-0.0361389
-0.000408229
0.00101732
-0.0219034
-0.00928548
-0.0103025
-0.0140172
0.0117699
0.000388546
-0.0483973
-0.00217992
0.00555858
9.27234e-05
-0.0130194
-0.00350408
0.000832991
-0.0106786
0.000201867
-0.0436897
-0.0275801
0.00120724
-0.0776383
-0.0826285
-0.0537378
-0.0790405
-0.00309897
-0.0140325
-0.0106932
0.00904746
0.00106594
-0.0801347
0.000252478
-0.0701311
-0.0198135
-0.0335024
-0.0440588
0.0299612
-0.0244564
-3.43008e-05
-0.0550047
-0.00287208
-0.00129774
-0.0336612
-0.0827864
-0.10768
-0.0142432
0.00201596
-0.0190915
0.000512903
-0.0073359
0.00269225
-0.0126947
-0.00511843
0.0025521
-0.0768425
0.000938602
-0.0498002
-0.00541678
-0.00908134
-0.0218462
-0.00972644
0.000116317
-0.0763548
5.49467e-05
-0.0173617
-0.024319
-0.000595411
-0.0102565
0.00175619
-0.0347481
-0.0766172
-0.0140532
0.00311324
-0.0241171
0.00320297
-0.0277215
-0.00109609
0.000137683
-0.038214
0.000555294
-0.00053824
-0.0429367
-0.0101334
-0.0108266
-0.0120505
-0.000592661
-0.00830354
0.000839646
-0.00464617
-0.0215669
0.00130839
-0.00243206
-0.00105772
2.53647e-05
-0.0118489
-0.00443252
-0.00881515
-0.0780398
-2.72664e-05
0.00736994
-0.0107292
0.0015668
-0.0718552
-0.0081999
0.000492394
-0.0764952
-0.0511463
-0.0876602
0.00128767
-0.0791067
0.0219894
-0.00599221
-0.0803411
-0.00590775
-0.000589334
-0.00684605
-0.0034264
0.00478275
-0.090222
-0.00152457
-0.0484814
-0.0211554
-0.0768905
-0.0169151
-0.0211122
-0.0121456
-0.0833738
-0.0174134
-0.0149285
0.00127195
-0.00207697
-1.79748e-05
0.000839374
-0.0136259
0.0207006
-0.0106158
-0.00656982
-0.0776666
0.00352924
-0.0183682
-0.0306438
0.000157831
-0.0401133
0.0105197
-0.0050547
-0.0424144
0.000771153
-0.0325914
-0.0842101
9.52971e-05
-0.073942
-0.0140297
-0.0780912
-0.0116102
-0.0147175
0.00128565
-0.0207509
-0.0087392
-0.017251
-0.0227224
-0.000506246
-0.00763676
-0.078428
-0.0260651
-0.0742182
-0.000191828
-0.0217746
-0.086153
0.00209691
-0.00927772
-0.0785421
-0.00991636
-0.0157558
-0.0704097
0.00835543
-0.0217167
-0.0104201
-0.0776975
-0.00866761
0.00803556
-0.082453
-0.0225544
-0.00777584
-0.00498722
-0.0361516
-0.032178
-0.0239196
-0.0124771
-0.045772
-0.0247898
0.00224366
-0.00720461
0.00116061
0.0285143
-0.0771386
0.00303189
-0.016661
-0.0168325
-0.00185171
0.000199514
-0.0784083
-0.020698
0.00118302
-0.0186474
0.00184569
-0.0014145
-0.0317825
-0.0388088
-0.0131391
-0.0759837
0.00135481
-0.0772202
0.000685128
-0.0831605
-0.0691597
-0.0702899
0.000826963
-0.0143227
-0.00129379
0.0211688
-0.0222493
-0.0557767
-0.0824199
0.009132
5.49252e-05
-0.0184961
0.00142754
-0.0411596
-0.0761049
0.000458331
-0.00123795
-0.0158702
-0.0180358
0.0237272
0.000636491
-0.0150086
-0.0195857
-0.00402966
0.0018997
-0.00688
-0.0775559
0.000930926
-0.000699237
-0.0784523
-0.0338627
-0.00473635
-0.0498012
-0.0070045
0.00410181
-0.0978211
-0.0120566
0.00188361
-0.0578919
-0.0584618
0.00395288
-0.0788308
-0.0203909
-0.027419
0.0127592
0.000327238
-0.068492
-0.0378929
-0.0202481
-0.0136419
-0.0208272
-0.0150254
-0.0293581
-0.0856468
-0.0165308
-0.0699487
8.23563e-05
-0.0235412
-0.0130655
-0.00246407
-0.072333
0.00713745
0.000803488
0.00482845
-0.0698913
-0.00687711
-0.00817999
-0.0788444
0.000143749
-0.00864628
5.70183e-05
-0.00703302
-0.0554913
-0.0167743
-0.00768398
-0.0379591
-0.0322506
-0.0024848
-0.0233402
0.0081063
0.00136248
0.0255747
-0.0127148
-0.00714268
0.00078703
0.00051074
-0.0761196
-0.0722059
-0.00641566
0.00297164
-0.000114172
-0.00476229
-0.000523769
0.000213474
0.000988164
-0.0113011
-0.0260236
-0.09011
-0.0293514
0.0114272
-0.0225736
0.00245087
-0.0109503
-0.0746376
-0.00126591
-0.0579751
-0.0146227
-0.00503495
-0.0198423
-0.0804433
-0.00514018
-0.00818795
0.000557802
-0.0115918
-0.00168583
-0.000503
-0.0222444
-0.00255275
-0.00407276
-0.0727691
-0.013074
-0.0237064
-0.008863
-0.00123301
-0.0469536
-0.0309359
-8.90111e-05
-0.0425307
-0.000794495
-0.0825374
-0.0254329
-0.00719891
-0.00468128
-0.100258
-0.0119015
-0.0473303
-0.0231823
-0.0781098
0.00129969
-0.000311746
0.0046978
-0.0372156
-0.0157971
0.000195628
0.0002066
-0.0766044
-0.114051
-0.0239199
-0.0170197
-0.00299325
-0.00357484
-0.0759147
9.89706e-05
-0.0714143
-0.059278
-0.000259342
-0.0177658
0.00152676
0.00214361
-0.0308542
0.000930239
-0.0197403
0.00373006
-0.0182464
-0.0215203
-0.00776793
0.00117083
-0.0916677
-0.00491783
-0.0141199
-0.0795235
-0.0101101
0.00220138
-0.0283599
-0.000341183
0.000900368
-0.00279212
-0.0396222
0.0279932
0.000904155
0.000690027
0.0236229
-0.0131187
-0.0287156
-0.0205817
-0.0128689
0.000860913
0.000666893
-0.0164631
-0.0298073
-0.0568959
-0.0754817
-0.0827171
-0.00233828
0.00191638
-0.00991126
-0.0740995
-0.0158739
0.00189428
-0.0793709
-0.0786368
-0.00126459
-0.0220501
-0.0192238
-0.00229835
-0.0823344
0.00111441
-0.0149274
-0.0375149
-0.0169691
-0.0208346
-0.023301
-0.00538179
-0.0707102
-0.0619671
6.60056e-05
-0.0332081
0.00146237
-0.0163699
-0.00630865
-0.0573159
0.0205915
-0.0238909
-0.007126
-0.000524809
-0.0140638
-0.00425021
-0.00707608
0.0103323
-0.00362598
0.000989459
-0.0297581
-0.0712379
-0.0261722
-0.000498253
-0.0222566
-0.000648681
0.00131408
0.00109035
-0.0166453
0.00158728
-0.0762538
0.00194001
-0.0024205
-0.00493531
-0.0689185
0.000731815
-0.0757157
-0.0141529
-0.004766
-0.0165958
-0.00186646
0.00252591
7.4424e-05
0.000598267
-0.000992718
0.000238949
-0.0802929
0.000815312
-0.00721462
-0.0440535
-0.0426868
-0.004062
-0.0579926
-0.00910178
-0.0172816
-0.0126745
-0.0120112
0.00230952
0.0015722
-0.0725982
-0.0295767
0.00248865
-0.0153844
0.00550566
-0.0730563
-0.0214339
-0.0722708
-0.00139892
-0.000960503
-0.0165066
-0.0056395
0.000642588
0.00147687
-0.0756534
-0.0641986
-0.00230522
-0.00647392
-0.0159242
-0.0674019
-0.0204025
-0.00675214
-0.00788656
-0.0761375
-0.0183674
-0.0830122
-0.0221815
0.000827067
-0.00788759
-0.000234249
-0.0020695
-0.0551097
-0.0042394
-0.0348254
-0.0891999
-0.00663749
-0.075574
-0.000529323
-0.00132217
-0.0225449
-0.00876638
-0.0238743
0.000876711
0.000648573
0.000681679
-0.0889698
0.000567954
0.00169066
0.00181128
-0.0353088
0.0324314
0.0240379
-0.0554802
-0.0801469
0.00093098
0.000118493
-0.000677512
-0.0780496
-0.0125893
-0.0213893
-0.0143778
-0.00510703
-0.0197509
-0.0108372
8.80307e-05
-0.00941645
-0.0180519
-0.0341671
-0.0943965
-0.0889273
-0.0290584
-0.00116873
-0.0123198
-0.0175565
-0.0227461
-0.00243846
-0.0654359
-0.0663707
-0.0071788
-0.00472185
0.000724304
-0.0197508
0.00876349
-0.0732256
-0.0135058
-0.0183143
-0.0779484
-0.0587824
-0.0702948
-0.0781925
-0.0112043
-0.0763396
-0.0171006
-0.0759329
-0.0726385
-0.0739651
-0.0792649
0.000367831
-0.0269953
-0.000580835
-0.00128547
-0.0889239
-0.00890723
-0.016219
-0.0399716
-0.0214017
-0.0447676
-0.0776836
-0.0770076
0.00201765
-0.0251054
-0.00626975
-0.0117299
0.000116891
-0.0230341
-0.0214009
-0.0572933
0.00777131
-0.020123
0.000826482
-0.000689916
-0.00216259
-0.0769922
-0.0057362
-0.000906797
-0.0171803
-0.00264563
-0.0450613
0.00352852
0.00312611
-0.0740781
-0.0178313
-0.0446566
-0.0161399
-0.0409846
-0.0171834
0.00325865
-0.00166609
0.000266304
-0.00146334
-0.031839
-0.00242441
-0.0348294
-0.089145
0.000205648
-0.00608551
-0.00497761
-0.00873707
-0.00730047
-0.0042291
0.000840168
-0.0265064
-0.0527885
-0.00127392
-0.00520819
-0.0725178
-0.0108014
0.00289893
-0.026359
-0.0764701
-0.0178668
-0.0810267
-0.00643346
0.0035025
0.00126686
-0.0778695
-0.0371116
0.000543258
-0.0839945
-0.0124832
-0.0117293
0.0191885
-0.0776479
5.7063e-06
-0.0160598
-0.0396484
-0.0227257
-0.0716203
-0.00283158
-0.010447
-0.0210794
-0.0312241
-0.0155138
0.000722963
-0.0116239
0.00305178
-0.0757461
-0.023646
-0.0837485
-0.0118652
-0.0836454
-0.0762183
-0.0199134
-0.0202936
-0.03839
0.00664726
-0.0753239
-0.0345331
-0.0886564
-0.0369914
0.0156897
0.00145268
-0.0783037
-0.102125
0.0079933
-0.0699076
-0.0077733
-0.00174648
-0.0216239
-0.00601297
-0.0112948
-0.0457175
-0.0845816
0.00147472
0.00213156
-0.0687711
-0.0784848
0.0116333
-0.082124
0.00170605
-0.0782161
-0.0380933
-0.0597904
-0.00109744
-0.001422
-0.0527723
-0.0757649
0.000375216
-0.0259353
-0.0839738
-0.00118615
-0.0196125
0.00121872
-0.0143126
-0.00696432
-0.0352269
-0.0840038
-0.000409872
-0.0152647
-0.00142472
-0.0172748
-0.0642623
-0.0883675
-0.00115998
-0.0770637
-0.0230244
-0.00841524
-0.00126056
-0.0204243
0.000578057
-0.0728422
-0.0749904
0.00414993
-0.0199364
-0.0793739
-0.0017129
-0.0765785
-0.0841436
-0.0200647
-0.0773622
0.000546693
-0.00827368
-0.0140648
-0.0351064
-0.0780094
-0.0325618
-0.0193859
-0.0213485
-0.00202462
-0.0809816
0.00140169
0.00103844
-0.0768137
-0.0830554
-0.0229912
-0.0107317
-0.0273585
-0.0141889
-0.0162167
-0.0220101
-0.00658488
-0.0772691
-0.000730003
-0.077955
-0.00417651
-0.00923282
-0.0510255
-0.00223887
0.000745516
-0.0305643
-0.0182724
0.000208745
0.0014446
-0.0270095
-0.0755187
-0.078075
-0.00631517
-0.0171569
-0.00443174
-0.0118377
-0.0240381
-0.00904072
0.0106307
0.000304075
0.00078806
-0.0892497
-0.00828525
-0.0277489
-0.0304879
0.00216615
0.000130409
0.000581481
-0.023045
-0.0231765
-0.00262043
-0.0304468
-0.0091565
-0.0747912
-0.0194494
-0.0453008
0.0025145
-0.078679
-0.000978497
0.000909639
-0.031102
-0.0248244
-0.0168072
-0.0203929
-0.0135689
-0.0240052
-0.0135779
-0.0771905
-0.0134775
-0.059671
-0.0452887
-0.0611457
-0.0627777
-0.0237884
-0.0643406
-0.0659461
-0.0674999
-0.0690168
-0.0661783
-0.0429182
0.00299244
-0.00713878
-0.0362502
-0.057697
-0.00498264
-0.0142536
-0.079284
-0.0178407
-0.0872866
0.00073693
0.000408646
0.00303032
-0.071476
-0.0231474
-0.00621124
-0.0697348
0.00344857
-0.0182492
-0.00972509
0.000259304
-0.0253642
-0.134294
-0.00439485
-0.0392555
-0.050978
-0.0820262
-0.0544206
-0.0807939
-0.0295042
0.00279616
-0.0782663
6.02724e-05
-0.0777996
-0.077523
-0.0108739
-0.0248618
-0.0226712
-0.000286113
-4.24136e-06
0.00338712
-0.0094912
0.000927588
0.000943983
0.00277709
-0.0742161
-0.0240531
-0.0118647
-0.0712353
-0.0334466
-0.0836765
-0.0755512
-0.0194556
-0.015511
-0.0225725
-0.00518394
-0.0814122
-0.0185495
-0.0739748
-0.0581273
-0.0719777
-0.00833721
-0.00404764
-0.00507204
-0.0800178
0.000561649
-0.0786853
0.000116345
-0.079464
-0.0232212
-0.00593306
-0.0241971
-0.00523809
-0.058509
-0.0227078
-0.0147697
-0.00379658
-0.0232696
-0.074643
-0.0840408
-0.0201858
-0.0835117
-0.00525769
-0.00159768
-0.0361672
-0.0236412
-0.0783486
0.00726013
-0.0217744
-0.0705047
-0.0600387
-0.0708252
0.000343721
0.000652223
-0.00041551
-0.00112668
-0.0550236
0.0103469
-0.0013276
-0.00783867
-0.0626842
-0.00325553
-0.00879412
0.0295793
-0.127856
-0.016758
-0.0220744
0.000612954
-0.083142
0.000791185
-0.00103888
-0.0507454
-0.0589278
-0.0708304
0.000704952
-0.0429831
-0.0206854
-0.0587514
-0.0735109
-0.0124886
-0.0607429
-0.00470889
0.00100348
-0.0126091
-0.0281063
-0.0218108
-0.00447038
-0.0216715
-0.0208135
0.0121666
-0.0781764
-0.0783314
-0.0782095
-0.00022032
-0.0319736
-0.000128462
-0.0620537
0.00068084
-0.0216331
-0.00177566
-0.036115
-0.00919441
-0.0219187
-0.00323103
-0.00078186
-0.077862
-0.0720966
-0.00238743
0.0152181
-0.0708256
-0.00029395
0.00115155
-0.0780773
-0.0263497
-0.0211557
-0.0689553
0.00121267
-0.088962
-0.00161929
-0.0733632
-0.0913481
-0.0276531
0.00115732
-0.0326482
-0.0572055
-0.053122
-0.0793333
0.000587482
-0.0225156
-0.0718847
0.00356001
-0.0167494
-0.00957722
-0.0123053
-0.0205343
-0.0751933
-0.0452394
0.021991
-0.0137104
-0.0912573
-0.020872
-0.0701627
-0.0742653
-0.00481242
0.000583962
-0.081389
-0.0779759
0.00225261
-0.0208314
-0.00836272
0.00127213
-0.0744794
0.00856565
-0.07699
-0.014787
-0.0762396
-0.0217083
-0.0224345
-0.021918
-0.0191621
0.00644671
-0.00421438
-0.0658836
0.000734646
-0.028357
-0.0204417
-0.00585567
-0.00600784
-0.0220387
-0.0784769
-0.0765463
-0.000963175
-0.0782539
-0.0183213
-0.00161743
-0.0124605
0.000169918
-0.0228319
-0.0736086
-0.0784981
0.000362116
0.0148232
-0.0548544
-0.0579715
-0.0599138
-0.0592926
-0.0160223
-0.0526177
-0.0136339
-0.00746958
-9.87351e-05
-0.0782604
-0.00880377
-0.0776978
-0.0689236
-0.0310733
-0.078097
-0.0759864
-0.00215273
-0.0788769
-0.0314026
-0.0463331
0.00736717
-0.00329056
0.00233304
-0.076678
-0.0197636
0.00823585
-0.0151614
-0.0782516
-0.0660404
0.00206531
-0.0734684
-0.0712933
-0.0782139
-0.0116988
0.00070486
-0.0563054
-0.0149854
-0.0206995
-0.0212559
-0.0121234
-0.00301792
-0.0106333
-0.0148522
-0.00410119
-0.0150758
-0.00856411
-0.00922886
0.00333881
-0.071877
-0.0150848
-0.0781192
-0.0168874
-0.0110332
-0.0607993
-0.0577269
-0.00601361
-0.0024208
0.0179135
-0.0401391
-0.0795134
-0.0395833
-0.0265908
-0.0134416
-0.00115751
0.0036138
-0.078251
-0.0551345
-0.00313568
0.000738017
-0.0822317
-0.0209787
-0.00956711
-0.0565763
-0.032277
-0.0305553
-0.0785535
-0.0520931
0.01107
-0.00968029
-0.0842826
-0.00394117
-0.0163208
-0.023587
-0.00290746
-0.055996
-0.0270716
0.00181795
-0.0104433
-0.0158723
-0.0354325
-0.0702841
-0.0650482
-0.0202601
-0.0622859
-0.0694633
-0.0357238
-0.0238763
-0.0226065
-0.0257259
-0.0317279
-0.0768548
-0.0152824
-0.00233582
-0.0474635
-0.0226337
-0.0574098
-0.00419467
-0.0111534
-0.0292699
0.00164828
-0.0278485
-0.0196921
-0.0191095
-0.00305572
-0.0124621
-0.0788274
-0.0696953
-0.00984889
0.00113298
-0.0638728
-0.0220742
-0.00254697
-0.0209735
-0.0786394
-0.0235647
-0.0774363
-0.0205638
-0.0510269
-0.0716003
-0.0654113
-0.0472852
0.00742472
-0.0647172
0.00647294
-0.0155137
-0.0709681
-0.0669554
-0.0137596
0.0219111
-0.0153745
0.0146215
-0.0129364
-0.0684446
-0.00322974
-0.0751748
-0.0412771
-0.00260125
0.000787925
-0.000887762
-0.0126528
-0.0147
-0.000158719
-0.0398204
-0.0111174
-0.0128556
-0.00816545
-0.0577457
-0.0240971
-0.0336849
-0.0182608
0.00098743
0.000602433
-0.0521627
0.00250752
-0.0757422
-0.0195848
-0.0212339
-0.0224271
-0.0195982
-0.0158926
-0.0154953
-0.0229046
-0.0385826
-0.0224857
-0.0339162
-0.000409009
-0.132217
-0.0384693
-0.0155023
-0.0101783
-0.0783548
-0.00146726
-0.0311969
0.000930527
-0.0418939
0.000760977
-0.00937971
-0.00783064
-0.0217122
0.00482357
-0.0359907
-0.114166
-0.0307704
-0.0151602