/*--------------------------------*- C++ -*----------------------------------*\
| =========                 |                                                 |
| \\      /  F ield         | OpenFOAM: The Open Source CFD Toolbox           |
|  \\    /   O peration     | Version:  v2012                                 |
|   \\  /    A nd           | Website:  www.openfoam.com                      |
|    \\/     M anipulation  |                                                 |
\*---------------------------------------------------------------------------*/
FoamFile
{
    version     2.0;
    format      ascii;
    class       surfaceScalarField;
    location    "400";
    object      phi;
}
// * * * * * * * * * * * * * * * * * * * * * * * * * * * * * * * * * * * * * //

dimensions      [0 3 -1 0 0 0 0];
oriented        oriented;


internalField   nonuniform List<scalar> 
20642
(
-0.0195893
0.0244144
-0.00482514
0.30274
-0.0705589
-0.232181
-0.110835
0.0962933
0.0145421
-0.352975
0.140584
0.212391
0.37965
0.0326887
-0.412339
-0.0374069
0.340147
-0.226084
0.0238667
0.202217
0.0120367
0.220328
-0.232365
-0.246535
0.224279
0.0222563
0.00368577
0.00187284
-0.240876
0.252913
0.229944
0.134456
-0.364399
0.598177
-0.598177
0.196527
-0.0233663
-0.173161
0.299718
0.0399992
-0.339718
-0.0237373
0.004148
0.584016
-0.58912
0.00510404
0.0415825
-0.267057
0.225475
-0.0316405
-0.0822554
0.113896
-0.00176198
0.0255649
-0.023803
-0.0834055
-0.190642
0.274047
0.635526
-0.376471
-0.259055
0.203802
-0.146647
-0.0571551
0.346743
0.288783
-0.0522632
-0.187067
0.23933
0.0665997
-0.26263
0.19603
0.0378929
-0.205129
0.167236
0.00368577
0.0909722
-0.282653
0.19168
-0.682237
0.396028
0.286209
0.00189947
0.00178631
0.0241853
-0.108146
0.083961
0.0441614
0.255209
-0.29937
-0.000550626
0.0277753
-0.0272246
-0.662861
0.481514
0.181347
0.384199
-0.163871
0.267594
-0.364459
0.0968656
0.618384
-0.100348
-0.518036
-0.0241838
-0.2019
0.230958
-0.00296658
-0.227992
-0.769815
0.602522
0.167293
0.410475
0.136047
-0.546522
-0.138068
0.252717
-0.114649
0.128641
-0.11159
-0.0170518
0.0158915
0.11275
0.182926
-0.0791085
-0.103818
0.225941
-0.309347
0.0114581
-0.033062
0.0216039
0.331883
-0.263973
-0.06791
-0.410236
-0.252625
0.349187
-0.119243
-0.154855
0.0468743
0.107981
0.013667
-0.000533605
-0.0131334
-0.311682
-0.0920375
0.40372
0.014151
0.36223
-0.376381
-0.0829753
-0.0718802
0.00189947
0.16816
0.0356423
-0.151523
0.561998
0.0564363
0.12649
-0.0116789
0.0368315
-0.0251526
0.560654
-0.50999
-0.0506631
0.471866
-0.614674
0.142809
-0.264059
0.211796
-0.0675018
0.0621662
0.00533562
0.116773
0.450958
-0.567731
-0.28035
0.0775337
0.202816
0.186206
0.197993
-0.199293
-0.00218829
0.0182986
-0.0161103
-0.107877
0.07048
0.0373969
0.0188285
-0.0193792
-0.257569
-0.144083
0.401651
0.388715
-0.540238
0.0776952
-0.268337
-0.0542411
-0.181982
0.236224
0.423108
-0.106002
-0.317107
-0.160628
0.549342
-0.261226
0.206985
0.235957
-0.191795
-0.378448
0.443322
-0.0648743
-0.604781
0.577187
0.0275937
-0.421479
0.16391
0.016402
0.064905
-0.081307
-0.231177
-0.301187
0.532364
0.00574443
-0.208821
0.203077
-0.0950218
0.119207
-0.63954
0.605521
0.0340187
-0.0286551
0.259613
0.482037
0.101979
-0.580108
0.405694
0.174414
0.11549
0.268622
0.0632607
-0.616597
0.206759
0.409838
-0.413924
0.286423
0.127501
-0.189377
0.00879988
-0.197937
0.189137
0.588498
-0.588478
-2.01433e-05
-0.13802
-0.50152
-0.15429
-0.0988772
0.253167
0.526847
-0.531834
0.00498731
0.542693
-0.0158465
0.00261007
-0.381058
0.518945
-0.592337
0.0733916
-0.00743324
0.430542
-0.0777119
0.0750874
0.00262452
0.0330403
-0.0462028
0.0131625
0.42
0.140654
0.540747
-0.4047
0.175775
-0.137882
0.533362
0.072475
-0.0040631
0.0318384
-0.105401
-0.177251
-0.0565244
-0.0109775
0.388864
-0.181307
-0.207558
0.100725
-0.132366
0.418945
0.16138
-0.580325
0.110608
-0.0918294
-0.0187789
-0.4687
0.277788
0.190913
-0.0945929
-0.510188
0.167005
-0.577008
0.410003
0.264483
-0.186949
-0.133979
0.1404
-0.00642151
-0.0161055
-0.00142078
0.0175263
0.0495956
-0.0331937
0.0764357
-0.270845
0.194409
0.259489
-0.181794
-0.423654
0.554563
-0.130909
-0.0998627
-0.0341161
-0.0569593
0.158818
-0.101859
0.199675
-0.0611191
-0.138556
-0.00884613
-0.0306044
0.0394505
0.170442
0.218422
-0.069557
0.125464
-0.0559075
0.0366697
0.139105
-0.00126014
-0.0390246
0.0402847
0.0155306
-0.0146971
-0.000833432
0.0506406
-0.248003
0.197363
0.618384
0.22825
0.0286171
-0.256867
-0.559509
0.398881
-0.0627007
-0.0150113
-0.542375
0.256317
0.286058
-0.152135
-0.233957
0.386091
-0.38667
0.583201
-0.196531
-0.0561206
-0.0517564
-0.141456
0.0312274
-0.0278632
-0.00336423
-0.460579
0.148896
-0.197253
-0.0304411
0.227694
0.568883
-0.696235
0.127352
0.248633
-0.400768
-0.154675
0.163475
-0.137577
-0.333909
0.471486
0.541758
-0.0228127
0.0270551
-0.0354657
0.00841068
-0.613002
0.605701
0.00730118
0.568258
-0.149313
-0.176158
-0.329945
0.506102
0.0740494
-0.0559941
-0.0180553
0.0637924
-0.310526
0.246734
0.289015
0.0498153
-0.0336092
-0.0162061
0.035522
-0.208585
0.173063
0.013667
-0.0169661
-0.0141299
0.031096
-0.375615
-0.225432
0.601047
0.243145
-0.192505
0.0600354
0.310509
-0.370544
0.0474175
-0.0419603
-0.0054572
-0.0697491
-0.0263422
-0.0289773
0.0553195
0.191918
-0.100835
-0.0910834
0.599545
-0.106185
-0.49336
-0.145325
-0.20765
-0.15401
0.01901
0.135
-0.195264
0.138304
-0.232588
0.29638
-0.167355
-0.0838009
0.251156
0.406779
0.250624
0.0985627
0.148076
-0.0705436
-0.0775321
0.104726
0.00588273
0.173813
0.0258624
-0.104281
0.354905
0.0464319
0.101644
-0.388642
-0.293595
0.224211
-0.218467
0.141122
0.0507962
0.12877
-0.112878
0.0116873
-0.115295
0.103608
-0.0229629
0.00103293
0.02193
-0.264794
-0.351803
0.0190303
-0.00236054
-0.0166697
-0.273581
0.108525
0.165055
0.0351101
-0.0439562
0.507847
-0.0263334
0.356813
-0.49439
0.283368
-0.238255
-0.0451128
0.0162196
-0.0180086
0.00178901
0.016105
-0.000574389
-0.0854586
-0.234567
0.320026
0.197963
-0.0414874
-0.156476
-0.270216
0.305533
-0.0353169
-0.225908
-0.392504
-0.107136
0.308675
0.134647
-0.427326
-0.118516
0.545842
-0.0544314
0.345422
-0.29099
0.2754
-0.329832
-0.00183459
0.0510758
-0.120633
-0.181404
-0.0543966
0.0526547
0.0017419
0.634599
-0.251522
-0.383077
0.72423
-0.412175
-0.312056
0.344318
0.379912
-0.0322567
-0.0180557
-0.105669
0.123725
-0.141724
0.0398513
0.101873
0.370117
0.180943
-0.551061
0.557554
-0.0856881
-0.126821
0.163491
0.0184967
0.125231
0.322682
-0.447914
-0.373921
0.499153
-0.313463
-0.456353
0.728537
-0.384218
0.312238
0.416299
-0.00874631
0.0275748
-0.0288431
0.0368181
-0.00797495
0.0875869
0.299412
-0.386999
0.478545
0.0871893
-0.565734
-0.115925
0.150722
-0.0347978
-0.0229575
0.00204204
0.0209155
0.0128433
-0.512676
0.499833
0.527861
-0.157744
0.174959
0.0230047
0.0732444
-0.059661
-0.0135834
-0.0885993
-0.0476157
-0.00678087
-0.154664
0.134172
0.0204922
-0.343176
-0.199199
-0.0428045
0.0286746
-0.163374
0.0474491
-0.250296
0.144895
0.00772502
0.116059
-0.123784
0.233067
-0.318525
-0.0306777
-0.470792
0.220845
0.249947
0.0577417
0.096945
-0.154687
-0.0458196
-0.13476
0.180579
-0.0145342
-0.340512
0.355046
0.602522
-0.187624
-0.334627
-0.114574
0.449201
0.376389
-0.560161
0.183772
-0.00299845
0.0200338
-0.0170353
0.0167219
-0.166572
0.14985
0.172005
-0.570687
0.398682
-0.665919
0.291998
-0.465915
0.132007
-0.280288
-0.385631
-0.193005
0.0622735
0.535904
-0.0206301
-0.163539
0.184169
0.586257
-0.414252
0.00175903
0.0139155
0.0412057
-0.00816544
0.0798485
-0.404339
0.32449
0.314495
0.120058
-0.434554
-0.169125
0.137701
0.0314239
-0.739674
0.306024
0.433649
0.271689
-0.0979784
-0.17371
0.0188124
-0.0218108
-0.344625
-0.395048
0.0170269
-0.0192152
0.574672
-0.198283
0.00130334
0.0727461
0.602309
-0.00276371
-0.305299
0.390188
-0.0848892
0.283359
-0.297894
-0.331032
0.520366
-0.189334
0.110469
-0.00815367
-0.102315
0.54655
-0.586454
0.0399036
0.198791
-0.163268
-0.278303
0.0923725
0.18593
-0.545555
0.158885
-0.220646
0.217904
0.00274181
0.0144434
-0.43788
0.450724
0.160863
-0.0192578
-0.141605
-0.344906
0.466434
-0.121528
-0.356891
0.156743
0.200148
0.493396
-0.113746
-0.0751325
-0.186094
-0.597034
0.211931
0.385102
0.0492149
0.497335
0.162781
-0.00881026
-0.153971
-0.516201
0.185576
0.330625
-0.133305
0.191047
-0.249034
0.173901
-0.36304
-0.169689
0.532729
0.0375043
-0.0104493
0.0195391
-0.00331956
-0.424854
0.555826
-0.130972
-0.651164
0.195059
0.456105
-0.186449
-0.341513
0.436676
-0.0951634
0.0981464
0.0147164
-0.112863
0.0155387
-0.0428139
0.0272752
-0.0538844
0.0275422
0.5057
-0.582198
0.0764984
-0.215522
0.154403
-0.119086
0.433581
-0.0141032
0.0790082
0.0954884
-0.437001
-0.0710567
-0.0397787
-0.205543
-0.392634
-0.0531887
0.352907
-0.0301707
0.516788
-0.163887
-0.352901
-0.259593
0.189034
0.0151687
0.113601
-0.488195
0.569473
-0.0812775
0.0123369
0.0350806
-0.360183
-0.251205
0.611388
0.133528
0.0277536
-0.647323
0.448234
0.199089
0.0174182
-0.0191802
-0.395779
0.558246
-0.162467
-0.00330465
0.155966
-0.152661
-0.0258028
-0.244414
0.648343
-0.142643
0.187948
-0.676143
0.128148
-0.115294
-0.0128537
-0.0608394
-0.0109692
0.0718086
-0.489969
0.196219
0.29375
0.186724
0.330064
-0.0321592
0.0280961
-0.0534014
0.0719961
-0.0185947
0.104087
-0.0544373
-0.0496499
0.0087525
0.187775
-0.702088
0.357462
0.101396
0.29776
-0.399156
0.0712736
-0.0590138
-0.0122598
-0.10705
-0.108471
-0.32697
-0.375117
0.148491
-0.189668
-0.190596
0.380264
-0.0148577
0.217242
-0.202385
-0.13661
0.0222207
-0.131957
0.109736
0.00401196
0.160225
-0.164237
0.0596477
0.212041
-0.146546
0.157126
-0.0105795
0.0249703
0.00183162
-0.0268019
0.1046
-0.528254
-0.276924
-0.213046
0.30826
-0.275571
0.12189
-0.0950709
-0.0268195
0.614058
-0.0557979
-0.55826
0.00145152
-0.14548
-0.00106619
-0.377507
0.0684357
0.294626
-0.280475
0.187765
-0.0339504
-0.153814
-0.456645
-0.194519
-0.350445
0.254429
0.0960159
0.539467
-0.400931
-0.138536
-0.0952919
-0.112689
0.267463
-0.293266
0.36589
-0.286042
-0.0954509
0.0816537
0.0137972
-0.430206
0.627728
-0.197521
0.0360787
0.0137366
-0.0939817
0.129114
0.410353
-0.0818226
-0.489038
0.218225
0.270813
0.346182
0.233319
-0.579502
0.134791
-0.554726
0.419934
0.0289522
-0.00338723
-0.142923
0.489106
-0.00297928
0.229446
-0.226467
0.019806
-0.146627
0.242518
-0.241983
-0.000534948
0.102313
-0.344989
0.242676
-0.07386
0.0217188
0.0521412
0.0137981
0.0772196
0.237632
0.0542467
-0.291879
0.0121346
0.0983344
-0.305254
-0.08913
0.394384
0.204347
0.0381705
-0.00523853
0.101532
-0.498203
-0.199262
0.0234428
0.175819
-0.0926159
-0.156418
-0.118767
-0.446654
0.56542
0.122529
0.33587
-0.458398
0.223123
-0.589115
0.365992
-0.0445028
-0.164082
0.45464
-0.125802
-0.328837
-0.573032
0.433723
0.139309
0.362831
-0.48193
0.119099
-0.138624
-0.0285732
0.167197
-0.350729
0.125748
0.224981
-0.755629
0.325259
0.43037
-0.671373
0.295758
0.107948
-0.00980188
0.000444477
0.18732
-0.493617
0.162585
-0.275123
0.272144
0.0857299
-0.0691077
-0.0166223
-0.166339
0.203995
-0.0376566
-0.41197
0.528743
0.0432286
-0.125484
0.0647041
-0.0788073
0.265623
-0.513685
0.248062
0.333331
-0.701429
0.368097
-0.0716722
-0.210415
0.282087
-0.345355
0.467884
-0.422297
-0.252925
-0.358736
-0.342692
0.513324
-0.247702
-0.0396793
0.025229
0.0144504
0.0891085
-0.394362
-0.0335367
0.209476
-0.175939
-0.00298918
0.0169046
-0.0178553
0.178718
-0.549944
0.122618
0.397589
-0.148956
-0.0165391
-0.0573209
0.214442
0.0689264
-0.0175098
0.00140435
-0.70572
0.26761
0.438109
0.529636
-0.208006
-0.32163
-0.59671
0.166504
0.659634
-0.347396
0.327962
-0.0603687
-0.488225
0.198158
0.290067
-0.000877316
0.0866073
-0.433537
0.555301
-0.121764
0.0105437
0.189374
0.340262
0.00489718
-0.137807
0.13291
-0.404943
0.579987
-0.175043
-0.0973414
0.406017
-0.127719
-0.0269451
0.0752833
0.0288039
0.1696
-0.359268
-0.163461
0.118256
0.0452049
0.347281
0.21016
-0.557441
-0.631078
0.200281
0.430798
0.480744
-0.117913
-0.295933
-0.193106
0.427262
-0.55465
0.127389
0.439741
-0.620794
0.181053
0.00689995
-0.0406562
0.572358
-0.145096
-0.178856
-0.0417896
-0.0182607
-0.0866052
0.104866
0.362707
0.209717
-0.572424
0.153666
0.0256191
-0.179285
0.124182
0.00400944
0.0442253
-6.71447e-05
-0.0441582
-0.215616
0.192095
0.0235213
0.021686
-0.233456
-0.275694
0.509149
-0.521663
0.288207
-0.27
-0.131241
0.15378
-0.558724
0.33538
0.00611688
0.0874478
-0.0935646
-0.414565
-0.165543
0.302223
-0.39426
-0.217706
0.209105
-0.176937
-0.0321679
-0.0842854
0.255676
-0.171391
-0.0796143
-0.0247088
0.104323
0.13248
-0.0185148
-0.113965
0.0916983
0.364017
-0.455715
0.436167
-0.316108
-0.0517415
-0.215316
-0.00817697
-0.172456
0.180633
0.110399
0.34424
-0.130146
0.106779
0.0814935
-0.161865
0.0803711
-0.0949146
-0.183388
0.0115989
-0.0508615
0.0392626
-0.482382
0.14357
-0.151747
0.132887
-0.113877
0.138497
0.329995
-0.468492
-0.0313592
0.0282178
0.00314137
-0.273168
-0.35791
0.395285
0.264349
0.028373
-0.166997
-0.307049
-0.39867
0.505351
0.129248
0.164531
-0.00174981
0.007992
0.0243782
-0.11559
-0.0136663
0.129257
0.30622
-0.482378
0.281238
-0.0814848
-0.199753
0.121315
0.374643
-0.495957
0.112484
-0.0985126
-0.0139714
-0.12084
0.121211
-0.000371159
0.258183
-0.405026
0.146843
-0.0983481
0.153975
0.325132
-0.479107
-0.00312811
0.156137
-0.153009
0.426363
-0.399062
-0.0273014
-0.54641
0.40904
0.13737
0.078647
0.535411
0.468747
-0.111934
0.373005
-0.491772
0.464533
-0.438029
-0.0265039
-0.201588
0.171763
0.0298247
0.593642
0.0158555
0.116625
-0.345565
0.484062
0.391671
0.0320866
-0.423758
0.163837
-0.256453
0.00198218
0.0311529
-0.033135
-0.504082
-0.0191499
0.523232
0.267485
-0.195772
-0.0717134
-0.169627
-0.390533
0.156872
-0.151975
0.0475494
-0.181978
0.134428
-0.17777
-0.0786677
0.256438
-0.146654
-0.198792
-0.167207
-0.169705
0.336912
0.212741
-0.00923755
0.0443477
-0.0229174
-0.0167619
0.0160932
-0.0190823
-0.435792
0.56641
-0.130617
-0.361736
0.482208
-0.120472
-0.355417
0.447115
0.416752
-0.134729
-0.282022
0.0688536
-0.0168718
-0.0519818
0.646001
-0.339977
-0.330369
0.336775
-0.00640623
-0.0659251
-0.207656
0.00442651
-0.0519589
0.0475324
-0.196856
0.0853618
0.00288788
0.00114919
-0.00403706
0.426515
0.145843
0.14923
-0.0848737
-0.0643561
0.522036
0.0664621
0.145677
-0.584837
0.439161
-0.0285254
0.0329519
-0.739256
0.432207
-0.0598606
-0.0259215
0.085782
0.618036
-0.563193
-0.0548427
0.495563
-0.132856
0.119008
0.0304424
-0.110057
-0.00143526
0.465968
0.425183
-0.51131
0.0861268
0.00958907
0.099383
-0.108972
0.147102
0.00656381
0.449838
-0.402295
0.0115851
-0.0677057
-0.0441511
0.0296212
0.0145299
-0.00866608
0.0528914
-0.519921
0.0158389
0.0224564
-0.0150578
-0.00739861
0.587348
-0.480842
-0.106507
-0.0350285
-0.00399613
-0.436469
0.295013
0.544932
-0.399256
0.61051
-0.190453
-0.420057
0.313878
0.228815
-0.0895438
0.171037
-0.245186
0.161385
-0.413997
-0.209795
-0.378683
-0.759455
0.290704
0.46875
0.0805111
-0.068926
-0.424434
0.433034
-0.00859951
-0.00130562
0.115747
-0.114441
-0.105403
0.407626
0.521232
-0.0960491
-0.490344
-0.122659
0.0412863
-0.120395
-0.0616877
-0.0209571
0.0826448
-0.0142474
0.0171353
0.136003
-0.128278
-0.161401
-0.0401873
0.00137673
0.0883937
-0.0897704
-0.00418422
-0.0187733
0.543235
-0.408444
-0.0775841
-0.0171229
0.094707
-0.447015
-0.31244
-0.0946899
-0.0175371
0.112227
0.125376
0.291376
-0.0220506
-0.0734002
-0.130472
0.503477
-0.186173
-0.251856
-0.365352
0.131396
0.0512624
-0.168687
0.182933
-0.014246
-0.0676957
0.0538904
0.0138053
-0.624007
0.088271
0.535736
0.15715
-0.17778
0.108536
0.338255
-0.446792
0.482829
-0.168951
-0.00287415
0.0278445
-0.232023
0.201366
0.0306569
-0.0597798
-0.359154
0.418934
-0.103574
0.125795
0.164822
0.566488
-0.426534
-0.139954
-0.0144796
0.583363
0.02757
-0.0304442
-0.0772045
-0.34723
0.131807
0.377814
0.268187
-0.413304
0.353525
0.0905499
0.0313405
-0.387867
-0.308369
0.132043
-0.0249433
-0.1071
-0.579495
0.549768
0.0297264
-0.597439
0.452783
0.144655
0.00180302
-0.0963274
0.407079
0.00986136
-0.000596201
-0.00926516
0.0171976
-0.0770582
-0.265282
0.343881
-0.0785995
0.111334
0.021553
0.549886
-0.12337
0.30216
-0.262161
-0.0256751
0.0276573
0.0353974
0.0406911
-0.0760885
-0.281832
0.21016
-0.165747
-0.198712
-0.391634
0.205461
-0.209531
-0.369964
0.567526
-0.314986
-0.252539
0.49957
-0.423071
0.0332921
-0.157009
0.123717
0.189756
0.0313956
-0.221152
-0.0296858
0.0412847
0.0217874
-0.190474
-0.351874
0.270106
0.0817672
-0.117677
-0.00316307
-0.267174
-0.249027
0.0102187
0.158255
-0.168474
-0.0189807
-0.0963144
0.019069
-0.390274
0.53088
-0.323967
-0.206913
-0.0851054
0.584675
-0.223131
-0.374307
-0.438394
0.343801
0.500913
0.104788
0.468967
-0.347653
0.407174
-0.594518
0.187344
0.0100276
0.0124287
0.177805
-0.0402593
-0.137546
-0.633013
0.455813
0.1772
0.123957
-0.108788
-0.228529
-0.395478
0.0398411
-0.0243023
0.173289
0.401383
0.14401
0.410553
-0.0212314
0.0292234
-0.17626
0.0636883
0.112572
0.38312
-0.490684
-0.213158
-0.121745
0.334903
-0.609164
0.184858
0.424306
-0.555918
0.417147
0.13877
0.180888
0.0923722
-0.273261
0.176242
-0.00926631
-0.166976
-0.37339
0.504526
-0.131136
-0.00163043
0.014444
-0.0128136
-0.0850034
0.220303
-0.1353
-0.377772
0.42203
-0.044258
0.507617
-0.124497
0.223322
0.307558
-0.0295453
-0.0146058
0.0853343
0.195903
-0.652655
0.26866
0.383995
-0.304768
-0.00422778
0.0230401
-0.0957844
0.234669
-0.126144
-0.0126771
-0.00483277
-0.35748
0.0268611
0.330619
-0.562643
0.166864
0.131758
-0.556612
0.245445
0.0825174
0.0111566
-0.53389
0.117423
0.416468
0.0193941
-0.105953
0.286842
0.195268
0.0722173
0.0200385
-0.43902
0.319935
-0.109425
-0.0225321
0.152997
0.0248074
0.397418
-0.110995
0.276534
-0.0405775
-0.366149
-0.286506
0.205499
-0.0292564
0.321593
0.0716219
-0.337795
0.122466
0.215329
0.123933
0.35714
-0.481073
0.0133533
0.000952207
-0.0143055
0.496554
0.0763481
-0.572902
-0.328736
-0.0287443
-0.380251
0.214504
0.0594119
0.24416
-0.303572
0.0519618
0.166907
-0.218869
-0.0401921
0.0755895
0.494231
0.082956
0.00803625
-0.121769
0.113732
-0.0819702
0.0202825
0.296266
0.261616
-0.557881
-0.136563
-0.292824
0.429386
-0.181052
0.515736
-0.108562
0.100465
0.268573
-0.369038
-0.407478
0.201443
0.206036
0.390473
-0.100215
-0.290258
0.14645
-0.0795039
0.12079
0.0226182
-0.400272
0.559237
-0.158965
-0.0128272
0.0805685
-0.0677414
0.0666348
0.157644
0.206702
0.00240305
-0.122555
0.39273
-0.291335
0.0741509
0.0750789
-0.0197334
-0.178203
0.398192
0.131193
-0.529385
-0.126722
-0.0495385
-0.135523
0.170747
-0.0352243
0.157649
-0.00465167
0.553333
-0.395412
-0.157921
0.412395
-0.530911
0.346816
0.220709
0.00029006
-0.0974597
0.352668
-0.602874
0.381503
0.221371
0.163546
-0.0300181
-0.529551
0.156161
-0.566004
0.419913
0.146092
0.0169282
-0.0999035
0.179057
-0.283885
0.388341
-0.104457
0.0528846
-0.219223
0.212566
-0.227424
0.0661534
-0.293784
-0.113694
-0.308557
0.202555
0.0139456
-0.0982723
0.0843267
0.407748
0.137184
-0.592743
0.177947
0.414796
-0.374879
-0.301264
0.525165
-0.530731
0.0055659
0.24283
-0.344712
0.101882
-0.307265
0.198824
0.108441
0.0596333
-0.237404
0.391732
0.161601
0.597426
-0.187277
-0.410149
-0.355285
-0.130495
0.48578
-0.378481
-0.0579876
-0.150805
-0.162203
-0.0534133
-0.379713
0.129927
-0.0138688
-0.358488
-0.0566688
0.0718253
-0.0151566
0.0873273
-0.371212
-0.476346
0.101467
-0.0073309
-0.035483
0.283762
-0.0954806
-0.188281
0.0176733
0.0954356
0.170175
-0.340363
-0.0152312
0.355595
0.124718
0.316777
-0.441495
0.550295
-0.416394
-0.133901
-0.41934
0.282777
0.017785
-0.036563
0.018778
-0.178551
0.201335
-0.0227845
0.0818927
-0.347174
0.157993
0.0460017
-0.298413
0.398878
0.0198556
0.137794
0.667261
-0.188717
-0.408479
0.500769
-0.0922896
-0.464369
0.0854285
0.37894
0.482585
-0.395395
-0.0175755
0.264564
-0.0974622
-0.167102
-0.012219
-0.328144
0.115665
-0.0149398
-0.092121
-0.355062
0.447183
0.292171
-0.515958
0.223787
0.323402
-0.517081
0.193678
0.163406
-0.159394
0.149614
-0.301103
0.412332
-0.11123
0.0749587
0.229566
-0.304524
-0.361584
0.500668
-0.139084
0.0180659
0.491547
-0.199376
-0.0499702
-0.186491
0.236461
0.28232
0.115098
0.0215613
-0.00199065
-0.0195706
-0.0184561
-0.418771
0.276066
0.142705
0.0116125
-0.111466
-0.0519953
-0.00217601
0.0716183
0.365058
-0.41416
0.565521
-0.151361
0.547044
-0.446127
-0.100917
-0.101548
0.380148
-0.2786
-0.0723226
-0.245104
0.317426
0.460196
0.0269477
-0.507257
0.361109
0.146147
-0.200851
-0.149878
0.102617
0.0144941
-0.0839229
0.0694288
0.228021
-0.325481
-0.0298348
-0.153198
0.183033
-0.166945
-0.0161576
0.183103
-0.553959
0.413809
0.14015
-0.191109
0.188143
0.262007
0.0217554
0.554681
-0.178481
-0.3762
-0.00610318
-0.179518
0.185621
0.179719
0.448008
-0.00795688
0.0399211
0.146362
-0.11307
-0.580252
0.154889
0.425363
0.151618
0.404208
0.233782
0.231904
-0.532818
0.368931
-0.470856
0.115571
-0.0147828
-0.399651
0.560363
-0.160711
-0.05896
0.364402
-0.494875
-0.185532
0.543281
-0.357749
-0.416661
0.137009
0.279652
0.105284
0.333404
-0.438688
-0.0768375
-0.383147
-0.126843
0.157376
-0.557027
0.381353
-0.0714672
0.303045
0.0206613
-0.323706
0.00436383
-0.559009
0.413524
0.145485
0.194207
0.219609
-0.662151
0.442542
-0.352131
-0.118725
-0.0195521
0.0213838
0.483834
-0.160432
-0.149921
0.290505
-0.0035725
0.127529
-0.0243773
0.654855
-0.435245
-0.423484
0.348014
0.0754696
0.100564
-0.086618
0.560225
-0.408338
-0.151887
0.0902904
0.303861
-0.394151
0.120624
0.0791982
-0.162795
-0.306541
0.469337
-0.0903712
0.0999602
0.290861
-0.350391
0.05953
-0.0223686
-0.00899056
0.2904
0.0997879
0.115915
4.39094e-05
-0.115959
-0.349909
-0.458055
-0.116541
0.574596
-0.628438
0.485515
-0.0982163
0.537957
0.651457
-0.154903
0.040268
-0.0495056
-0.0890091
0.330646
-0.241637
-0.61188
0.237423
0.374458
0.316048
-0.352405
0.0363567
0.159294
0.125648
0.421396
-0.10946
0.307695
-0.0700624
0.0123292
-0.209504
0.175967
-0.118053
-0.00428573
0.122339
0.102524
0.233107
-0.0378385
-0.00604649
0.0260497
-0.0200032
-0.382685
0.11812
0.264565
-0.118289
-0.249081
0.414638
-0.165557
-0.0181612
0.00325342
0.0149078
-0.461225
0.203291
0.115298
-0.31859
-0.220228
-0.441923
-0.202993
-0.353064
0.556057
-0.628874
0.408646
0.601916
-0.178354
-0.423563
0.566476
-0.440007
-0.126469
0.127086
0.297223
-0.424309
-0.174046
-0.0310237
0.20507
0.54016
-0.141968
0.246455
-0.335465
-0.0133257
-0.114573
0.127899
-0.0295709
0.0511848
-0.0216139
-0.0627224
0.00605364
0.126532
-0.130105
-0.222309
-0.434202
-0.194237
0.47811
-0.338531
-0.139579
-0.0155391
-0.0827332
0.396341
0.030022
0.00986136
0.142076
-0.41732
0.275243
0.146203
-0.00803906
0.512789
-0.50475
-0.304116
0.417236
-0.11312
-0.283924
0.426001
-0.419929
-0.176781
-0.372928
-0.134685
0.507613
-0.151008
0.161227
-0.243481
-0.368399
0.0223612
-0.0244092
0.002048
0.411537
-0.373873
0.526966
-0.153092
-0.0253304
0.0431154
-0.422322
0.173241
-0.279253
-0.309863
-0.103955
0.523956
-0.00327624
0.0308463
-0.0534639
0.197034
-0.203247
0.579381
-0.376135
-0.085973
-0.467379
-0.152791
0.62017
0.538323
-0.0182788
0.0783014
-0.0600226
0.120361
-0.0244316
-0.200117
0.224548
0.186213
-0.336134
-0.356213
0.343994
-0.202664
0.589782
-0.446376
-0.143406
-0.0660118
-0.172244
0.359044
-0.451165
0.0650955
-0.232303
0.0220938
-0.026278
0.302709
-0.440583
0.137874
-0.433019
0.33267
0.376693
-0.286403
-0.512272
0.35557
0.156702
-0.142256
0.00586631
-0.10812
0.102253
0.0261416
0.139363
0.226493
-0.0367367
-0.0249778
0.0207501
0.0299654
-0.00760414
-0.111042
0.470085
-0.101037
0.106904
-0.419042
-0.151645
0.0033721
0.0190493
-0.0224214
-0.452679
-0.124328
0.069142
0.00419227
-0.0733342
-0.137888
0.00919654
-0.208459
-0.287393
0.30816
-0.0207667
-0.121639
0.0981109
0.0235286
0.013267
-0.0796445
0.0663775
-0.643108
0.229699
0.413409
0.133961
-0.420483
-0.449154
-0.309527
-0.197729
0.168078
0.384829
-0.102508
-0.0763501
0.367211
-0.157194
-0.0199843
0.177178
-0.017479
-0.000548178
0.0180272
0.137103
0.19443
-0.0223306
0.00355727
0.522089
0.0959475
-0.176149
0.463591
-0.287442
-0.299756
0.0389185
-0.0482405
0.00932203
0.219704
-0.292027
0.0198529
0.567496
-0.137717
0.161583
-0.260587
-0.139621
0.400208
-0.402401
0.270071
0.120402
0.0555124
0.184628
-0.24014
0.302415
-0.403963
0.0116037
-0.424566
-0.218543
0.428592
0.127945
-0.556537
-0.0680274
-0.125559
0.428267
-0.019208
0.001934
0.017274
-0.330301
0.117143
-0.104089
0.33211
-0.440819
0.565347
-0.124527
0.0224167
-0.4191
0.652419
0.153865
-0.294868
0.084453
-0.194884
-0.117915
0.312798
0.218603
-0.0323903
0.442204
0.21265
0.0552862
0.471846
-0.347914
-0.488048
0.139209
0.348839
0.0146999
-0.129274
0.114574
-0.439394
-0.00726017
0.556234
-0.259969
-0.10044
-0.03008
0.13052
0.0833419
-0.101603
-0.0169587
-0.10481
-0.127735
0.0202339
0.107501
-0.1338
-0.40009
0.0898578
-0.0907351
0.0322342
0.00599133
-0.0382256
0.528126
0.0902585
-0.0878835
0.247741
-0.423889
-0.00911285
0.165249
0.136301
0.0144218
0.446612
-0.361184
-0.0634881
0.228881
-0.165393
-0.401306
-0.183531
0.241555
-0.177935
-0.0636199
-0.226125
-0.25125
-0.0937392
-0.0366853
0.0584041
-0.157489
-0.0211078
0.178597
0.0301349
-0.165658
-0.065039
0.0569621
0.00807684
0.0867719
-0.00921325
0.108096
-0.098883
-0.220877
-0.411746
0.10763
0.361707
0.0941746
-0.455881
0.567006
-0.138415
-0.591691
0.448065
0.143626
-0.40184
0.543967
-0.142128
-0.222298
-0.0639782
0.0772452
-0.595427
0.432274
0.163152
0.0810084
0.249637
-0.14975
-0.255183
-0.118047
-0.229451
0.347498
0.173976
-0.0137512
-0.136918
0.0394131
0.097505
-0.301325
0.112031
-0.547824
-0.216233
0.166263
0.0503045
-0.491124
-0.301904
0.264497
0.022567
-0.0286135
-0.103906
-0.222065
0.325971
0.148987
0.314801
-0.463788
0.158013
-0.0287562
-0.429586
0.32868
-0.247671
0.0379407
-0.00570643
-0.0158359
0.388872
-0.101488
-0.287384
0.181757
-0.167884
-0.0138727
0.312187
-0.0879739
-0.224214
-0.0157604
0.00308335
-0.0206405
0.222006
-0.238784
0.154498
-0.0122639
0.0827439
0.540798
-0.0636147
-0.099759
-0.0382369
-0.097068
-0.411561
0.398247
-0.358293
0.242399
0.115894
0.519869
-0.00654513
-0.0902592
-0.0117486
0.519328
-0.507579
0.240326
-0.358373
-0.344384
0.0587947
0.274303
-0.147551
0.16351
-0.0159583
0.587239
-0.179648
-0.407591
0.115865
-0.057388
0.253871
0.0538238
0.0966958
0.0157882
0.171141
-0.445951
0.126671
0.319281
0.00612898
0.238244
0.125463
-0.363707
-0.0804903
0.319678
-0.239188
-0.499183
0.323359
0.175824
0.0035214
0.017352
-0.0208734
-0.0137571
0.14976
-0.0262253
0.197323
-0.266501
0.0691774
0.0207534
-0.0302271
0.152983
0.0177642
-0.16696
-0.281244
-0.137527
0.17874
-0.0215898
0.385175
-0.575628
0.404104
-0.298819
-0.144059
-0.00645687
0.150515
-0.23061
-0.184799
-0.184222
-0.0784081
-0.197691
0.253203
-0.31257
0.117687
-0.120546
0.135246
-0.00358498
0.1195
-0.472171
0.142226
-0.142019
0.156451
-0.0144317
-0.0975558
-0.258657
0.300088
0.112244
-0.353452
0.490008
-0.136555
0.18404
0.399161
0.080234
-0.0650464
-0.0151876
0.0998747
-0.098498
0.580509
-0.434144
-0.146365
0.156131
-0.613211
0.186515
0.426696
0.0929267
-0.447989
0.0138472
0.357658
-0.434008
-0.160297
-0.338491
0.498788
0.0249934
0.494876
-0.27849
0.0345992
-0.497884
0.463284
0.322965
-0.0775203
0.0654609
0.0147731
0.116616
0.169589
-0.227666
0.0580773
0.43447
0.132536
-0.418152
-0.00121134
0.127744
-0.011876
0.0507945
0.0300666
-0.0093132
-0.12701
-0.49865
0.547865
0.339873
-0.50017
-0.0924351
0.33889
0.0355046
-0.42724
-0.153012
0.00703031
-0.0673904
0.00906295
0.128574
-0.137637
-0.0928591
0.254244
-0.588465
0.176964
0.411501
0.299599
-0.100775
-0.0122067
0.454841
-0.39245
-0.0623903
-0.196957
0.223913
-0.026956
-0.401949
0.55823
-0.423115
-0.135115
-0.36592
0.221837
0.00444576
0.029847
-0.0342927
-0.180254
0.15168
-0.135059
0.56953
-0.133615
0.15283
-0.0192153
-0.4043
-0.00447027
0.142172
-0.463332
0.211809
0.401104
0.165918
-0.567023
-0.0715602
-0.366168
0.0790972
0.375743
0.269463
0.119409
-0.100194
-0.015713
0.115907
-0.185893
0.245577
-0.059684
-0.0920876
-0.207282
0.486366
0.00518092
0.124657
0.430529
0.115313
-0.543945
0.245531
-0.208805
0.0347593
0.174192
0.00304515
-0.177238
0.013143
-0.0147734
-0.216334
0.193186
-0.199289
-0.146845
0.161536
-0.0146904
-0.014857
0.16784
0.162427
0.403983
0.166475
0.0892006
0.12656
-0.0246873
-0.0885801
0.0710581
0.017522
0.0305412
0.0106645
-0.116951
0.363178
-0.246226
0.281399
-0.49672
0.215321
-0.0146398
-0.627668
0.289177
-0.519655
0.100555
0.19571
0.0800134
-0.275723
0.0183665
-0.352498
0.130242
0.222256
-0.427387
0.0759127
0.0206402
-0.0965529
0.207841
-0.155879
0.095829
-0.355971
0.260142
-0.183564
0.415469
0.0075501
0.0995581
-0.107108
0.074707
-0.0862309
0.0115239
-0.0189735
-0.00335705
0.359885
-0.49038
0.10422
-0.429136
0.324915
-0.103864
0.455427
0.112831
-0.493765
-0.0199201
-0.15895
0.18116
-0.0222098
0.0370349
0.384995
-0.269988
0.0857159
0.184272
-0.199314
0.157225
0.0420884
-0.316449
0.224361
0.0633564
-0.0743255
0.130935
0.363396
-0.494331
-0.123261
0.383663
-0.260402
-0.132041
-0.180529
-0.224561
0.505959
-0.0148908
-0.0736894
0.113059
-0.475158
0.362099
0.557918
-0.182319
0.0251256
0.109716
-0.12448
0.0147644
-0.115085
0.125706
-0.0106207
-0.0136906
0.0893849
-0.0756943
-0.157461
-0.274831
0.432292
0.105582
0.0832394
-0.188822
-0.355844
0.529179
0.0619808
0.314712
-0.530276
0.522236
-0.191725
0.361326
0.079559
-0.0944497
0.0351315
0.322527
0.137482
-0.17228
0.447117
-0.0854104
-0.571691
0.408743
0.162949
0.137002
-0.442513
-0.140048
0.582561
-0.162262
-0.00394251
0.0200357
0.443189
-0.591608
0.14842
0.351999
0.111286
-0.124612
-0.542024
-0.120211
-0.0882663
-0.111047
-0.0718302
0.177413
0.290093
0.115649
-0.405742
-0.512435
-0.154448
-0.370076
0.524525
0.414449
0.143781
-0.529486
0.423562
0.105924
-0.242492
-0.133927
0.491626
-0.357699
0.325006
0.216752
0.043545
-0.510924
-0.409228
-0.111414
0.520642
-0.0816101
0.278239
-0.196629
-0.183077
0.00777287
0.0448818
0.0128183
-0.16037
0.139881
-0.358502
0.529109
-0.170607
0.55201
-0.447012
-0.104998
0.148391
0.0151184
-0.549525
0.143438
0.406087
0.112667
-0.312708
-0.280035
-0.237085
-0.324144
-0.387651
0.164306
-0.369746
0.256822
0.112924
-0.0793315
0.0583744
0.441501
0.145739
0.586605
-0.143416
0.249841
-0.060128
-0.189713
-0.592462
0.15608
0.436383
0.624376
-0.19016
-0.434216
-0.0277134
0.314073
0.103163
-0.323677
0.013285
-0.172235
-0.148529
-0.0024071
0.170186
-0.0589572
0.225864
0.17866
-0.165375
-0.146314
-0.403211
-0.460749
0.527967
-0.067218