/*--------------------------------*- C++ -*----------------------------------*\
| =========                 |                                                 |
| \\      /  F ield         | OpenFOAM: The Open Source CFD Toolbox           |
|  \\    /   O peration     | Version:  v2012                                 |
|   \\  /    A nd           | Website:  www.openfoam.com                      |
|    \\/     M anipulation  |                                                 |
\*---------------------------------------------------------------------------*/
FoamFile
{
    version     2.0;
    format      ascii;
    class       surfaceScalarField;
    location    "400";
    object      phi_0;
}
// * * * * * * * * * * * * * * * * * * * * * * * * * * * * * * * * * * * * * //

dimensions      [0 3 -1 0 0 0 0];
oriented        oriented;


internalField   nonuniform List<scalar> 
20642
(
-0.0195892
0.0244164
-0.0048272
0.302727
-0.0705082
-0.232219
-0.11083
0.0962914
0.0145391
-0.352975
0.140584
0.212391
0.379681
0.0326922
-0.412373
-0.0374558
0.340183
-0.226085
0.0238664
0.202218
0.0120229
0.220497
-0.23252
-0.246535
0.224279
0.0222557
0.00368124
0.00186246
-0.240992
0.253015
0.229944
0.134456
-0.3644
0.598178
-0.598178
0.196706
-0.0239261
-0.17278
0.299697
0.0400144
-0.339712
-0.023738
0.00414888
0.584016
-0.58912
0.00510404
0.041581
-0.267143
0.225562
-0.0316333
-0.0822594
0.113893
-0.00175003
0.025561
-0.023811
-0.0833921
-0.190652
0.274044
0.635528
-0.376471
-0.259057
0.203806
-0.146649
-0.0571569
0.346744
0.288784
-0.0522629
-0.187067
0.23933
0.066579
-0.262627
0.196048
0.0380404
-0.205185
0.167145
0.00368124
0.0909467
-0.282676
0.191729
-0.682238
0.396027
0.28621
0.00189768
0.00178356
0.0241875
-0.108147
0.0839596
0.0441612
0.255209
-0.29937
-0.000548383
0.0277712
-0.0272228
-0.662861
0.481512
0.181349
0.384476
-0.163979
0.267597
-0.364462
0.0968658
0.618385
-0.100348
-0.518036
-0.0241836
-0.201901
0.230949
-0.00296789
-0.227981
-0.769815
0.602522
0.167293
0.410469
0.136049
-0.546518
-0.138069
0.252717
-0.114648
0.128641
-0.111587
-0.0170546
0.015895
0.112746
0.183016
-0.0791505
-0.103866
0.225954
-0.309346
0.0114163
-0.032968
0.0215517
0.332963
-0.264266
-0.068697
-0.410237
-0.252624
0.349187
-0.119243
-0.154881
0.0468798
0.108001
0.0136646
-0.000533782
-0.0131308
-0.311683
-0.0920377
0.40372
0.0141511
0.362231
-0.376382
-0.0829846
-0.0718966
0.00189768
0.168162
0.0356433
-0.151523
0.561992
0.0564833
0.126533
-0.0115142
0.0367667
-0.0252525
0.560638
-0.509931
-0.0507065
0.471866
-0.614675
0.142809
-0.264059
0.211796
-0.067498
0.0621605
0.00533753
0.116646
0.451017
-0.567663
-0.280388
0.0775131
0.202875
0.186254
0.198222
-0.199411
-0.00218877
0.0182972
-0.0161085
-0.107875
0.0704776
0.0373978
0.0188286
-0.0193769
-0.257569
-0.144083
0.401652
0.388711
-0.540235
0.0776773
-0.268329
-0.0542398
-0.181983
0.236223
0.423123
-0.106011
-0.317112
-0.160627
0.549338
-0.261226
0.206986
0.235957
-0.191795
-0.378447
0.443322
-0.0648751
-0.604781
0.577187
0.0275937
-0.421479
0.16391
0.0164006
0.064906
-0.0813067
-0.231178
-0.301187
0.532364
0.00596477
-0.208973
0.203009
-0.0950209
0.119208
-0.63954
0.605521
0.0340187
-0.028651
0.2596
0.482037
0.101979
-0.580108
0.405694
0.174414
0.11549
0.268662
0.0643018
-0.616596
0.206759
0.409837
-0.413925
0.286423
0.127502
-0.189441
0.00880128
-0.197784
0.188983
0.588498
-0.588478
-2.01512e-05
-0.13802
-0.50152
-0.154207
-0.098845
0.253052
0.526847
-0.531834
0.00498731
0.542693
-0.0158464
0.00261132
-0.381058
0.518946
-0.592337
0.0733916
-0.00743037
0.430554
-0.0777209
0.0750915
0.0026294
0.033018
-0.0461849
0.0131669
0.419935
0.140703
0.540738
-0.40469
0.175828
-0.137787
0.533363
0.072475
-0.00406584
0.031837
-0.105376
-0.1773
-0.0565193
-0.0109788
0.388865
-0.181308
-0.207557
0.100729
-0.132362
0.418945
0.16138
-0.580326
0.110602
-0.0918274
-0.0187747
-0.4687
0.277787
0.190913
-0.094593
-0.510188
0.167005
-0.577007
0.410001
0.26454
-0.187027
-0.13399
0.140405
-0.00641496
-0.0161017
-0.00142103
0.0175227
0.049596
-0.0331954
0.0764355
-0.270845
0.194409
0.259482
-0.181805
-0.423654
0.554563
-0.130909
-0.0998639
-0.0341261
-0.0569589
0.158819
-0.10186
0.199703
-0.0611827
-0.13852
-0.00884709
-0.0306044
0.0394515
0.170441
0.218424
-0.0695547
0.125463
-0.0559087
0.0368343
0.138993
-0.00142541
-0.039017
0.0404424
0.0155254
-0.0146914
-0.000833988
0.050612
-0.248001
0.197389
0.618385
0.227386
0.0291539
-0.25654
-0.559507
0.39888
-0.0627015
-0.0150194
-0.542375
0.256317
0.286058
-0.152135
-0.233957
0.386091
-0.386646
0.583164
-0.196518
-0.0561208
-0.0517546
-0.141073
0.0311547
-0.0278069
-0.00334788
-0.460579
0.148897
-0.197248
-0.0304363
0.227684
0.568883
-0.696235
0.127352
0.248634
-0.400768
-0.154559
0.16336
-0.13758
-0.333909
0.471488
0.541758
-0.0228127
0.0270542
-0.0354661
0.00841188
-0.613002
0.605701
0.00730118
0.568258
-0.149313
-0.176158
-0.329945
0.506103
0.074049
-0.0559679
-0.0180811
0.0637973
-0.310534
0.246736
0.28896
0.0497742
-0.0336612
-0.0161129
0.0355241
-0.208485
0.172961
0.0136646
-0.0169483
-0.0140094
0.0309577
-0.375615
-0.225432
0.601048
0.243148
-0.192536
0.0600363
0.31051
-0.370546
0.0474175
-0.0419602
-0.00545733
-0.0697484
-0.0262362
-0.0291266
0.0553628
0.191933
-0.10085
-0.0910828
0.599545
-0.106185
-0.49336
-0.145325
-0.207651
-0.154042
0.0190126
0.13503
-0.195265
0.138306
-0.232593
0.29639
-0.167356
-0.0838004
0.251156
0.40678
0.250624
0.0985626
0.148097
-0.0705349
-0.0775624
0.104723
0.00587949
0.173758
0.0259442
-0.104281
0.354905
0.0464114
0.101686
-0.388643
-0.293594
0.224388
-0.218423
0.141119
0.0508138
0.128771
-0.112876
0.0116671
-0.115297
0.10363
-0.0229636
0.00103
0.0219336
-0.264794
-0.351802
0.0190268
-0.0023607
-0.0166661
-0.27358
0.108525
0.165055
0.0351118
-0.0439589
0.507847
-0.0263349
0.356813
-0.494392
0.283366
-0.238261
-0.0451048
0.0162189
-0.0180069
0.00178807
0.0160992
-0.000573847
-0.0854601
-0.234569
0.320029
0.198072
-0.0416106
-0.156462
-0.270246
0.305565
-0.0353182
-0.225899
-0.392501
-0.107163
0.308674
0.134648
-0.427326
-0.118516
0.545842
-0.0544264
0.345471
-0.291044
0.275486
-0.329912
-0.00181325
0.0510774
-0.120632
-0.181422
-0.0543849
0.0526413
0.0017436
0.634599
-0.251523
-0.383077
0.724231
-0.412175
-0.312056
0.344318
0.379912
-0.0321231
-0.0180872
-0.105669
0.123756
-0.141744
0.0398239
0.10192
0.370117
0.180944
-0.551061
0.557554
-0.0856882
-0.126697
0.163532
0.018493
0.125232
0.322682
-0.447914
-0.373921
0.499153
-0.313463
-0.456353
0.728537
-0.384218
0.312238
0.416299
-0.00874484
0.0275734
-0.0288167
0.0367521
-0.00793538
0.0875865
0.299412
-0.386998
0.478545
0.0871894
-0.565734
-0.115934
0.150735
-0.0348013
-0.0229551
0.00204294
0.0209122
0.0128433
-0.512676
0.499833
0.527862
-0.157744
0.174902
0.0231701
0.0732526
-0.0596592
-0.0135933
-0.0886221
-0.0476067
-0.0067782
-0.154691
0.134176
0.0205152
-0.343176
-0.199199
-0.0427325
0.0287232
-0.163386
0.0474523
-0.250306
0.144929
0.0077296
0.116057
-0.123786
0.233068
-0.318528
-0.03063
-0.470793
0.220846
0.249947
0.0577328
0.0969494
-0.154682
-0.04581
-0.134773
0.180583
-0.0145351
-0.340511
0.355046
0.602522
-0.187624
-0.334617
-0.114604
0.449221
0.376388
-0.560158
0.183769
-0.00299866
0.02003
-0.0170313
0.0167368
-0.166748
0.150011
0.172007
-0.570688
0.398681
-0.66592
0.291998
-0.46592
0.132011
-0.280288
-0.385631
-0.193005
0.0622735
0.535904
-0.0206324
-0.163539
0.184171
0.586258
-0.414251
0.00175926
0.0139096
0.0411839
-0.00816585
0.0798483
-0.404339
0.324491
0.314494
0.120077
-0.434571
-0.169221
0.137748
0.0314736
-0.739673
0.306024
0.433649
0.271597
-0.0979404
-0.173656
0.018808
-0.0218067
-0.344625
-0.395048
0.0170246
-0.0192134
0.57467
-0.198282
0.00133867
0.0727103
0.602309
-0.00276371
-0.305284
0.390178
-0.0848937
0.283358
-0.297893
-0.331032
0.520366
-0.189334
0.110458
-0.0081422
-0.102316
0.54655
-0.586454
0.0399036
0.198652
-0.163128
-0.2783
0.0923718
0.185928
-0.54552
0.158874
-0.220559
0.217928
0.00263078
0.0144376
-0.43788
0.450724
0.160867
-0.0192584
-0.141609
-0.344911
0.466463
-0.121552
-0.356891
0.156742
0.20015
0.49344
-0.113759
-0.0751317
-0.186094
-0.597032
0.211931
0.385102
0.049215
0.497335
0.162813
-0.00880528
-0.154008
-0.51612
0.185436
0.330684
-0.133307
0.19104
-0.249034
0.173902
-0.36304
-0.169689
0.532729
0.0375051
-0.010451
0.019538
-0.00331916
-0.424855
0.555826
-0.130972
-0.651128
0.195023
0.456105
-0.18645
-0.341774
0.437202
-0.0954282
0.0981441
0.0147159
-0.11286
0.0155276
-0.0428022
0.0272746
-0.0539208
0.0276846
0.505801
-0.582183
0.0763813
-0.21554
0.154358
-0.119099
0.433594
-0.0141017
0.0790078
0.0956333
-0.437407
-0.0710557
-0.0397748
-0.205543
-0.392635
-0.0531972
0.352894
-0.0302829
0.51679
-0.163888
-0.352903
-0.259614
0.189106
0.0151723
0.113599
-0.488195
0.569473
-0.0812775
0.0123376
0.0350799
-0.360183
-0.251205
0.611389
0.133529
0.0277527
-0.647324
0.448234
0.19909
0.0174386
-0.0191886
-0.395779
0.558246
-0.162467
-0.00329851
0.155961
-0.152662
-0.0258127
-0.244434
0.648396
-0.142595
0.187948
-0.676143
0.128147
-0.115296
-0.0128503
-0.0608422
-0.0109702
0.0718124
-0.48997
0.196219
0.293751
0.186725
0.330065
-0.0321567
0.0280909
-0.0534014
0.0720005
-0.0185991
0.104108
-0.0543923
-0.0497156
0.0091425
0.187563
-0.702087
0.357462
0.101396
0.29776
-0.399156
0.0712807
-0.0590092
-0.0122715
-0.107102
-0.108438
-0.32697
-0.375117
0.148529
-0.189668
-0.190596
0.380265
-0.0148163
0.2172
-0.202383
-0.136606
0.0222089
-0.131962
0.109753
0.0040539
0.160205
-0.164259
0.0596382
0.211959
-0.146546
0.157127
-0.0105804
0.0249679
0.00183475
-0.0268026
0.1046
-0.528254
-0.276924
-0.213046
0.3083
-0.275608
0.121887
-0.0950618
-0.0268252
0.614058
-0.0557979
-0.55826
0.00145277
-0.145481
-0.00106517
-0.377379
0.0676991
0.294627
-0.280476
0.187745
-0.0338955
-0.15385
-0.456625
-0.194503
-0.351291
0.254273
0.0970182
0.539459
-0.400928
-0.138531
-0.0953328
-0.112738
0.267494
-0.293306
0.365891
-0.286042
-0.0954402
0.08165
0.0137901
-0.430206
0.62773
-0.197523
0.0361562
0.0136179
-0.0940018
0.129106
0.410353
-0.0826293
-0.489038
0.218223
0.270815
0.346566
0.233086
-0.579653
0.134792
-0.554726
0.419934
0.0289591
-0.0033981
-0.142519
0.489086
-0.00297797
0.229447
-0.226469
0.0200106
-0.146708
0.242438
-0.241921
-0.000516924
0.102315
-0.344991
0.242676
-0.0738125
0.0216177
0.0521947
0.0138079
0.0772124
0.237634
0.0542459
-0.29188
0.0121196
0.0983386
-0.305253
-0.0891303
0.394384
0.204309
0.0381282
-0.0052354
0.101527
-0.498203
-0.199263
0.0234431
0.17582
-0.0926154
-0.156418
-0.118767
-0.446654
0.565421
0.122529
0.33587
-0.458399
0.223123
-0.589115
0.365992
-0.0445126
-0.163972
0.45464
-0.125803
-0.328838
-0.573032
0.433723
0.139309
0.362832
-0.481931
0.119099
-0.138627
-0.0285771
0.167204
-0.35099
0.126116
0.224874
-0.755629
0.325259
0.43037
-0.671374
0.295758
0.107945
-0.00980131
0.000394043
0.187351
-0.493617
0.162585
-0.275124
0.272146
0.0858704
-0.0691449
-0.0167255
-0.166108
0.203655
-0.0375477
-0.41204
0.528686
0.0432221
-0.125482
0.0647032
-0.078805
0.265621
-0.513685
0.248064
0.333332
-0.701429
0.368097
-0.0716633
-0.210428
0.282091
-0.345356
0.467884
-0.422297
-0.252925
-0.358737
-0.342692
0.513324
-0.247703
-0.0396087
0.0252598
0.0143489
0.0891089
-0.394362
-0.0335369
0.209465
-0.175928
-0.00298952
0.0168991
-0.0178564
0.178724
-0.549945
0.122618
0.397589
-0.148956
-0.0164648
-0.0573477
0.214451
0.0689149
-0.0175059
0.00140423
-0.705721
0.267611
0.43811
0.529636
-0.208006
-0.32163
-0.596713
0.166507
0.659634
-0.347396
0.327965
-0.0603687
-0.488225
0.198156
0.290069
-0.000820883
0.0866913
-0.433584
0.555303
-0.121719
0.010551
0.189374
0.340262
0.00489775
-0.137808
0.132911
-0.404969
0.579964
-0.174996
-0.0973419
0.406016
-0.127728
-0.0269629
0.0753692
0.0287387
0.169601
-0.359269
-0.163284
0.117981
0.0453034
0.347281
0.21016
-0.557441
-0.631079
0.200281
0.430798
0.480745
-0.117912
-0.295934
-0.193104
0.427262
-0.554651
0.127389
0.439741
-0.620794
0.181053
0.00690077
-0.0406408
0.572358
-0.145096
-0.178893
-0.0416661
-0.0182593
-0.0866036
0.104863
0.362708
0.209717
-0.572425
0.153671
0.0256203
-0.179291
0.124182
0.00400979
0.0441472
1.44952e-06
-0.0441487
-0.215616
0.192095
0.0235211
0.0216901
-0.234063
-0.275315
0.509378
-0.521973
0.28791
-0.270002
-0.131166
0.15371
-0.558678
0.335382
0.00604651
0.087502
-0.0935485
-0.414565
-0.165543
0.302223
-0.394261
-0.217706
0.209106
-0.176938
-0.0321675
-0.0842753
0.25567
-0.171395
-0.0796072
-0.0247111
0.104318
0.132481
-0.0185134
-0.113968
0.0917229
0.363991
-0.455714
0.436188
-0.316111
-0.0517258
-0.215417
-0.00816152
-0.17245
0.180611
0.110399
0.344241
-0.130242
0.106316
0.081493
-0.161866
0.080373
-0.0949142
-0.183386
0.0114725
-0.0508316
0.0393591
-0.482383
0.143564
-0.151726
0.132923
-0.11391
0.138496
0.329995
-0.468492
-0.0313574
0.0282146
0.00314276
-0.273168
-0.35791
0.395285
0.264349
0.028376
-0.167003
-0.307049
-0.398671
0.505351
0.129248
0.164575
-0.00176178
0.00799513
0.0243737
-0.1157
-0.0134131
0.129113
0.30622
-0.482378
0.281238
-0.0814847
-0.199753
0.121339
0.37463
-0.49597
0.112489
-0.098569
-0.01392
-0.120907
0.121348
-0.000440644
0.258183
-0.405026
0.146843
-0.0983482
0.153975
0.325132
-0.479107
-0.00311834
0.156137
-0.153019
0.426643
-0.399208
-0.027436
-0.546411
0.40904
0.13737
0.0786471
0.535411
0.468749
-0.111936
0.373005
-0.491772
0.464528
-0.438048
-0.0264797
-0.201588
0.171762
0.0298261
0.593642
0.0158539
0.116627
-0.345566
0.484062
0.391672
0.0320861
-0.423758
0.163837
-0.256453
0.00199017
0.0311452
-0.0331354
-0.504082
-0.0191499
0.523232
0.267486
-0.195772
-0.0717133
-0.169626
-0.390531
0.156873
-0.151976
0.0475493
-0.181985
0.134436
-0.177813
-0.0786186
0.256431
-0.14666
-0.19872
-0.167207
-0.169706
0.336913
0.212815
-0.00923851
0.0443503
-0.0229314
-0.0166773
0.0160874
-0.0190769
-0.435793
0.56641
-0.130618
-0.361736
0.482209
-0.120473
-0.355385
0.447108
0.416752
-0.134729
-0.282023
0.0688505
-0.0168737
-0.0519768
0.646001
-0.339977
-0.330584
0.33682
-0.00623585
-0.0659253
-0.207655
0.00442453
-0.0519622
0.0475377
-0.196785
0.0853614
0.00285512
0.00115876
-0.00401387
0.426516
0.145843
0.14923
-0.0848736
-0.0643569
0.522036
0.0664621
0.145665
-0.584835
0.43917
-0.0285277
0.0329522
-0.739257
0.432207
-0.0598558
-0.025922
0.0857777
0.618036
-0.563194
-0.0548427
0.495563
-0.132856
0.119008
0.030445
-0.110052
-0.00146939
0.465997
0.425183
-0.51131
0.0861268
0.00958592
0.0993831
-0.108969
0.147108
0.00656284
0.449778
-0.40231
0.011583
-0.0677038
-0.0441518
0.0296198
0.014532
-0.00872041
0.0528676
-0.519921
0.0158389
0.0224528
-0.0150556
-0.00739723
0.587349
-0.480842
-0.106507
-0.0351398
-0.00387717
-0.435956
0.294883
0.544935
-0.39927
0.610463
-0.190445
-0.420018
0.313878
0.228815
-0.0895455
0.171039
-0.245186
0.161385
-0.413998
-0.209795
-0.378683
-0.759455
0.290704
0.46875
0.0805061
-0.0689231
-0.424435
0.433034
-0.00859942
-0.00130728
0.115748
-0.114441
-0.105403
0.407626
0.521232
-0.0960492
-0.490344
-0.122659
0.0412937
-0.120444
-0.0616439
-0.0209907
0.0826346
-0.01428
0.0171352
0.136007
-0.128278
-0.1614
-0.0401884
0.00140711
0.0883663
-0.0897734
-0.00418504
-0.0187701
0.543235
-0.408444
-0.0775541
-0.0172059
0.09476
-0.447015
-0.31244
-0.0946891
-0.017538
0.112227
0.125376
0.291376
-0.0220442
-0.073396
-0.130472
0.503478
-0.186216
-0.251832
-0.365353
0.131396
0.0514948
-0.168688
0.182935
-0.0142478
-0.0676875
0.053883
0.0138045
-0.624007
0.088271
0.535736
0.15715
-0.177782
0.108537
0.338256
-0.446793
0.482829
-0.168951
-0.00287787
0.0278458
-0.231887
0.201268
0.0306189
-0.0597812
-0.359154
0.418936
-0.103592
0.125801
0.164822
0.566495
-0.426544
-0.139952
-0.0144796
0.583363
0.0275661
-0.030444
-0.0772046
-0.34723
0.131846
0.377814
0.268187
-0.413306
0.353525
0.0905405
0.0313466
-0.387867
-0.308369
0.132046
-0.024934
-0.107112
-0.579495
0.549768
0.0297264
-0.597439
0.452783
0.144655
0.00162693
-0.0963282
0.40708
0.00985688
-0.000596338
-0.00926054
0.0171981
-0.0770539
-0.265096
0.343924
-0.0788283
0.111364
0.0215594
0.549886
-0.12337
0.302151
-0.262137
-0.0256698
0.02766
0.035391
0.0406907
-0.0760817
-0.281834
0.21017
-0.165748
-0.198715
-0.391648
0.205433
-0.209531
-0.369964
0.567525
-0.314986
-0.252539
0.499529
-0.423148
0.0332911
-0.157017
0.123725
0.189756
0.031395
-0.221151
-0.0297525
0.0412249
0.0217894
-0.190477
-0.352285
0.270018
0.0822673
-0.117798
-0.00310951
-0.267206
-0.248914
0.0102234
0.158252
-0.168475
-0.0189646
-0.0963328
0.0190675
-0.390273
0.530826
-0.323915
-0.20691
-0.0852285
0.584758
-0.223131
-0.374307
-0.438394
0.343801
0.500913
0.104788
0.468977
-0.347637
0.407174
-0.594518
0.187344
0.0100257
0.0124271
0.177805
-0.0402584
-0.137547
-0.633013
0.455813
0.1772
0.123958
-0.108786
-0.228529
-0.395478
0.0398271
-0.0242995
0.173286
0.401384
0.14401
0.410553
-0.0212267
0.0292219
-0.176266
0.0636891
0.112577
0.382551
-0.490917
-0.213158
-0.121744
0.334903
-0.609158
0.184858
0.4243
-0.555918
0.417148
0.13877
0.180889
0.092372
-0.273261
0.176243
-0.00926598
-0.166977
-0.37339
0.504527
-0.131136
-0.00163056
0.0144403
-0.0128097
-0.0850031
0.2203
-0.135297
-0.378574
0.422209
-0.0436358
0.507924
-0.125373
0.22333
0.307495
-0.029548
-0.0146038
0.0853342
0.195904
-0.652656
0.26866
0.383995
-0.304769
-0.00422793
0.023036
-0.0956894
0.234668
-0.126143
-0.0126737
-0.00483214
-0.357708
0.0272168
0.330491
-0.562643
0.166864
0.131758
-0.556612
0.245447
0.0825182
0.0111583
-0.534244
0.118055
0.416189
0.0193964
-0.105953
0.286842
0.195268
0.0722173
0.0200396
-0.439031
0.319932
-0.10944
-0.0225228
0.152999
0.0248066
0.397419
-0.110996
0.276534
-0.0405777
-0.366149
-0.286506
0.2055
-0.0292569
0.321584
0.0716234
-0.337796
0.122464
0.215332
0.123944
0.357155
-0.481099
0.0133502
0.000951377
-0.0143016
0.49656
0.0763341
-0.572894
-0.328752
-0.0289566
-0.380254
0.214506
0.0594489
0.244148
-0.303596
0.0519623
0.166906
-0.218869
-0.0401926
0.0755836
0.494231
0.082956
0.00803546
-0.121769
0.113733
-0.0819588
0.020315
0.296952
0.261121
-0.558072
-0.136563
-0.292824
0.429387
-0.181054
0.515736
-0.108562
0.100465
0.268573
-0.369038
-0.407478
0.201442
0.206036
0.390445
-0.100177
-0.290267
0.14638
-0.0795369
0.120831
0.0226066
-0.400272
0.559237
-0.158965
-0.0128367
0.0805687
-0.067732
0.0666355
0.157644
0.206703
0.00240275
-0.122557
0.39273
-0.291334
0.0741518
0.0750786
-0.0197319
-0.178053
0.398192
0.131193
-0.529385
-0.126728
-0.0495386
-0.135523
0.170768
-0.0352455
0.157649
-0.0046509
0.553333
-0.395412
-0.15792
0.412395
-0.530911
0.346816
0.220709
0.000290302
-0.0974596
0.352669
-0.602872
0.381505
0.221367
0.163546
-0.0300171
-0.529551
0.156161
-0.566004
0.419913
0.146092
0.0169345
-0.0999191
0.17892
-0.283936
0.38833
-0.104394
0.0528786
-0.218986
0.212579
-0.227395
0.066159
-0.293784
-0.113694
-0.308568
0.202556
0.0139295
-0.0982529
0.0843234
0.407764
0.137171
-0.592675
0.177994
0.414681
-0.374879
-0.301264
0.525166
-0.530731
0.00556589
0.24283
-0.344712
0.101882
-0.307266
0.198828
0.108439
0.0595706
-0.237383
0.391732
0.161601
0.597317
-0.187114
-0.410203
-0.355283
-0.130497
0.48578
-0.378181
-0.0577751
-0.150807
-0.162203
-0.0534131
-0.379713
0.12993
-0.0138729
-0.358481
-0.0566946
0.0717936
-0.015099
0.0872401
-0.371176
-0.476346
0.101467
-0.0073208
-0.0354814
0.283762
-0.0954804
-0.188282
0.0176693
0.0954351
0.170176
-0.340408
-0.0151109
0.355519
0.124727
0.316778
-0.441505
0.550295
-0.416394
-0.133901
-0.41934
0.282777
0.017784
-0.0365612
0.0187772
-0.178551
0.201336
-0.0227852
0.0822364
-0.347332
0.157733
0.0459221
-0.298413
0.398878
0.0198549
0.137795
0.667262
-0.188717
-0.408434
0.500735
-0.0923012
-0.46489
0.0863642
0.378525
0.482585
-0.395395
-0.0174727
0.264564
-0.0974622
-0.167102
-0.0123595
-0.328049
0.115662
-0.0149335
-0.0925978
-0.354916
0.447513
0.292171
-0.515958
0.223787
0.323402
-0.517081
0.193678
0.163434
-0.15938
0.149614
-0.301103
0.412333
-0.11123
0.074958
0.229567
-0.304525
-0.361584
0.500668
-0.139084
0.0180651
0.491547
-0.199376
-0.0498202
-0.186562
0.236382
0.28232
0.115099
0.0215623
-0.00199179
-0.0195705
-0.0184523
-0.419071
0.27627
0.142801
0.0116215
-0.111231
-0.0520531
-0.00217571
0.0720483
0.365154
-0.41416
0.565521
-0.151361
0.547053
-0.446136
-0.100917
-0.101548
0.380148
-0.2786
-0.0723223
-0.245104
0.317427
0.460196
0.0269485
-0.507257
0.361109
0.146147
-0.201117
-0.149873
0.102618
0.0144922
-0.0839188
0.0694266
0.228021
-0.325481
-0.029834
-0.153199
0.183033
-0.166918
-0.016192
0.18311
-0.55396
0.413809
0.14015
-0.191098
0.18813
0.262007
0.0217552
0.554673
-0.17847
-0.376203
-0.00610381
-0.179518
0.185622
0.179722
0.448007
-0.00796234
0.0399215
0.14637
-0.113078
-0.580227
0.154741
0.425486
0.151617
0.404209
0.233781
0.231905
-0.53282
0.368932
-0.470857
0.115574
-0.0146754
-0.399651
0.560363
-0.160711
-0.0589263
0.364403
-0.494875
-0.186231
0.543677
-0.357446
-0.416648
0.137005
0.279643
0.105284
0.333404
-0.438689
-0.0768382
-0.383159
-0.126773
0.157376
-0.557027
0.380636
-0.0715076
0.303045
0.0206646
-0.32371
0.00436013
-0.559009
0.413524
0.145485
0.194126
0.219614
-0.66215
0.442536
-0.352129
-0.118727
-0.0195511
0.0213859
0.483834
-0.160432
-0.149921
0.290505
-0.00356891
0.127527
-0.0243783
0.654851
-0.435237
-0.424176
0.348028
0.076148
0.100546
-0.0866162
0.560215
-0.408331
-0.151884
0.090287
0.303866
-0.394153
0.120625
0.0791954
-0.162795
-0.306542
0.469337
-0.0903707
0.0999566
0.290861
-0.350391
0.05953
-0.022365
-0.00899237
0.290388
0.0997897
0.115958
0.000184694
-0.116143
-0.349909
-0.458054
-0.116541
0.574596
-0.628276
0.485757
-0.0982163
0.537958
0.651455
-0.154895
0.0402717
-0.0495102
-0.0890092
0.330647
-0.241638
-0.61188
0.237423
0.374458
0.31644
-0.352655
0.0362155
0.159287
0.125651
0.421402
-0.109467
0.307696
-0.070062
0.0123312
-0.209495
0.175958
-0.118053
-0.00428531
0.122339
0.102558
0.233107
-0.0378384
-0.00604714
0.0260482
-0.020001
-0.382686
0.118121
0.264564
-0.118296
-0.249081
0.414638
-0.165557
-0.0181567
0.00325335
0.0149033
-0.461546
0.203292
0.115298
-0.31859
-0.220232
-0.441918
-0.202986
-0.353067
0.556053
-0.628875
0.408643
0.601916
-0.178353
-0.423563
0.566478
-0.440008
-0.12647
0.127086
0.297223
-0.424309
-0.174044
-0.0310251
0.205069
0.54016
-0.141968
0.246456
-0.335466
-0.0133235
-0.114575
0.127898
-0.0294784
0.0511339
-0.0216555
-0.0626928
0.00599816
0.126534
-0.130103
-0.22231
-0.434453
-0.193824
0.47811
-0.338531
-0.139579
-0.0155259
-0.0827269
0.396247
0.030396
0.00985688
0.142076
-0.41732
0.275243
0.146203
-0.00803904
0.512789
-0.50475
-0.304115
0.417236
-0.11312
-0.283924
0.426001
-0.41993
-0.176783
-0.372928
-0.134685
0.507613
-0.151006
0.161229
-0.243481
-0.368399
0.0223509
-0.0244231
0.00207224
0.412073
-0.373873
0.526966
-0.153092
-0.0253299
0.0431139
-0.422322
0.173241
-0.279252
-0.309863
-0.103979
0.523914
-0.00328048
0.0308466
-0.0534425
0.197007
-0.203247
0.579381
-0.376135
-0.0865139
-0.467379
-0.152792
0.62017
0.538323
-0.018288
0.0782991
-0.0600111
0.120359
-0.0243437
-0.199962
0.224306
0.186213
-0.336134
-0.356209
0.343849
-0.202664
0.589782
-0.446375
-0.143407
-0.0660208
-0.17224
0.358807
-0.451405
0.065096
-0.232303
0.0220897
-0.0262747
0.302659
-0.440615
0.137956
-0.433019
0.332671
0.376697
-0.28641
-0.512272
0.35557
0.156702
-0.142256
0.00586537
-0.108118
0.102253
0.0261407
0.139364
0.226492
-0.0367361
-0.0249737
0.0207457
0.0299747
-0.00762386
-0.111285
0.470092
-0.101036
0.106902
-0.419042
-0.151646
0.00337231
0.0190448
-0.0224171
-0.452678
-0.124329
0.0693191
0.00410651
-0.0734256
-0.137891
0.00919636
-0.208459
-0.287394
0.30816
-0.0207663
-0.121861
0.0981552
0.0237055
0.0132762
-0.0796489
0.0663727
-0.643092
0.229693
0.413399
0.13403
-0.420144
-0.449152
-0.309527
-0.197729
0.168078
0.384829
-0.102509
-0.0763501
0.367211
-0.157127
-0.0200651
0.177192
-0.0174791
-0.000547566
0.0180266
0.137104
0.194431
-0.0223279
0.00355782
0.522089
0.0959475
-0.176149
0.463591
-0.287442
-0.299817
0.0389093
-0.0482242
0.00931486
0.219705
-0.292027
0.0198529
0.567496
-0.137717
0.161583
-0.260587
-0.139621
0.400208
-0.402401
0.270093
0.120351
0.0555076
0.184635
-0.240142
0.302415
-0.403963
0.0124205
-0.424547
-0.218545
0.428732
0.127935
-0.556667
-0.0686421
-0.125619
0.428277
-0.0192038
0.00193433
0.0172695
-0.330301
0.117143
-0.104089
0.33211
-0.440885
0.565291
-0.124406
0.0224159
-0.419296
0.652382
0.153838
-0.294869
0.0844409
-0.194884
-0.117914
0.312798
0.218603
-0.0323903
0.442196
0.212655
0.0553288
0.471886
-0.347942
-0.488052
0.139212
0.34884
0.0146982
-0.129274
0.114576
-0.439394
-0.00726024
0.556377
-0.259425
-0.100446
-0.0300762
0.130522
0.0833409
-0.1016
-0.0169579
-0.104811
-0.127761
0.0201981
0.107563
-0.134169
-0.400075
0.089963
-0.0907838
0.032229
0.00599228
-0.0382213
0.528126
0.0902586
-0.0879374
0.247741
-0.423889
-0.009122
0.165259
0.13631
0.0144249
0.447124
-0.360759
-0.0634884
0.228881
-0.165393
-0.401312
-0.183523
0.241554
-0.177934
-0.0636201
-0.226169
-0.251251
-0.0937401
-0.0367547
0.0583724
-0.157488
-0.0211104
0.178599
0.0301577
-0.16568
-0.0650726
0.0570938
0.00797887
0.0867719
-0.00921382
0.108096
-0.0988822
-0.220878
-0.411746
0.10763
0.361748
0.094169
-0.455917
0.567176
-0.138444
-0.59169
0.448064
0.143626
-0.40184
0.543967
-0.142128
-0.222298
-0.0639766
0.0772529
-0.595427
0.432274
0.163152
0.0810088
0.249638
-0.149751
-0.255184
-0.118048
-0.229451
0.347499
0.173989
-0.0137847
-0.136919
0.0394137
0.0975051
-0.301326
0.112031
-0.547824
-0.216177
0.166357
0.050234
-0.491119
-0.30193
0.264474
0.0225658
-0.028613
-0.103906
-0.222065
0.325971
0.148987
0.314801
-0.463788
0.158049
-0.0289358
-0.429586
0.328682
-0.247673
0.0379364
-0.00570739
-0.0158315
0.388867
-0.101464
-0.287403
0.181766
-0.167883
-0.0138837
0.312194
-0.0879752
-0.224219
-0.0157565
0.00308272
-0.0205948
0.221863
-0.238779
0.154503
-0.0122647
0.0827422
0.540798
-0.0636214
-0.0997648
-0.0381988
-0.0970628
-0.411651
0.398267
-0.358722
0.242139
0.116582
0.51987
-0.00654591
-0.0902591
-0.0117486
0.519328
-0.50758
0.240326
-0.358374
-0.344385
0.0587868
0.274303
-0.147553
0.163514
-0.0159611
0.587239
-0.179648
-0.407592
0.115866
-0.0573462
0.253873
0.0538233
0.0967544
0.0157347
0.170859
-0.445951
0.126671
0.319281
0.00612884
0.238241
0.125473
-0.363713
-0.08049
0.319679
-0.239189
-0.499183
0.323359
0.175824
0.00352164
0.0173472
-0.0208688
-0.0137538
0.149761
-0.0262239
0.197324
-0.266499
0.0691746
0.0207865
-0.030098
0.152977
0.0177908
-0.166962
-0.281514
-0.137557
0.178742
-0.0215923
0.385157
-0.575602
0.404104
-0.298819
-0.144096
-0.00649766
0.150593
-0.23061
-0.184802
-0.184237
-0.0783906
-0.197696
0.253204
-0.31257
0.117686
-0.120548
0.135247
-0.00370472
0.119663
-0.472171
0.142227
-0.142038
0.156512
-0.0144736
-0.0976828
-0.258526
0.300088
0.112245
-0.353453
0.490008
-0.136556
0.184013
0.399151
0.08024
-0.0650387
-0.0152013
0.0998819
-0.0984748
0.580509
-0.434144
-0.146365
0.156132
-0.613164
0.186454
0.426709
0.0936061
-0.448522
0.0138412
0.357659
-0.434009
-0.160297
-0.338491
0.498788
0.0249946
0.494875
-0.278491
0.0345992
-0.497884
0.463285
0.322968
-0.0775211
0.0654545
0.0147855
0.116619
0.169589
-0.227666
0.0580775
0.43454
0.132636
-0.41814
-0.00120794
0.127742
-0.0118633
0.0507726
0.0299534
-0.00916696
-0.12701
-0.49865
0.547865
0.339873
-0.50017
-0.0924353
0.338892
0.0355001
-0.427332
-0.152894
0.00707103
-0.0673829
0.0090614
0.128576
-0.137637
-0.0928587
0.254244
-0.588415
0.176871
0.411544
0.299601
-0.100773
-0.0122036
0.454841
-0.39245
-0.0623908
-0.196892
0.223792
-0.0268999
-0.401961
0.55823
-0.423115
-0.135115
-0.36592
0.221837
0.0044484
0.0298411
-0.0342895
-0.18026
0.151682
-0.135151
0.569692
-0.133632
0.152871
-0.0192387
-0.404301
-0.00451019
0.142258
-0.463332
0.211809
0.401104
0.165919
-0.567023
-0.0715982
-0.366153
0.0790978
0.375743
0.269486
0.119381
-0.100198
-0.0157063
0.115905
-0.185891
0.245569
-0.0596786
-0.0920876
-0.207283
0.486366
0.00518076
0.124658
0.430529
0.115313
-0.543945
0.245531
-0.208805
0.034761
0.174176
0.00305681
-0.177233
0.0131392
-0.0147698
-0.216327
0.193186
-0.199289
-0.146847
0.161537
-0.0146899
-0.0148816
0.167859
0.162427
0.403983
0.166485
0.0891857
0.126588
-0.0246679
-0.0885782
0.0710509
0.0175273
0.0305223
0.0106616
-0.116953
0.363179
-0.246226
0.281399
-0.49672
0.215321
-0.014635
-0.627668
0.289177
-0.519681
0.100385
0.19571
0.0800134
-0.275723
0.0183668
-0.352498
0.130242
0.222256
-0.427387
0.0759096
0.0206347
-0.0965443
0.20784
-0.155878
0.0958309
-0.355972
0.260141
-0.183564
0.415469
0.00738619
0.0998582
-0.107244
0.0747042
-0.0862266
0.0115224
-0.0189701
-0.00335782
0.359883
-0.49038
0.10422
-0.429136
0.324916
-0.104449
0.455427
0.112831
-0.493766
-0.0199189
-0.158905
0.181165
-0.0222602
0.0367955
0.385414
-0.269986
0.0857138
0.184273
-0.199315
0.157226
0.0420894
-0.316449
0.224362
0.0633593
-0.0743295
0.130935
0.363396
-0.494331
-0.123255
0.383658
-0.260403
-0.132042
-0.180529
-0.224561
0.505959
-0.0148959
-0.0736823
0.113059
-0.475158
0.362099
0.557918
-0.182355
0.0252286
0.109717
-0.12448
0.0147631
-0.115115
0.125904
-0.0107886
-0.0136875
0.0893801
-0.0756926
-0.157461
-0.274831
0.432292
0.105583
0.0832395
-0.188823
-0.355844
0.529179
0.0619777
0.314719
-0.530276
0.522237
-0.191725
0.361326
0.0795534
-0.0944493
0.0351316
0.322527
0.13749
-0.172292
0.447157
-0.0854083
-0.571649
0.408746
0.162903
0.137002
-0.442516
-0.140033
0.582549
-0.162262
-0.0039431
0.0200305
0.443188
-0.591609
0.14842
0.352255
0.111288
-0.124611
-0.542024
-0.120213
-0.0882673
-0.111048
-0.0718303
0.177414
0.290093
0.115649
-0.405742
-0.512413
-0.154449
-0.370076
0.524525
0.414449
0.143781
-0.529486
0.423998
0.105488
-0.242481
-0.133962
0.491658
-0.357696
0.325006
0.216752
0.0435465
-0.510925
-0.409232
-0.111411
0.520643
-0.0815729
0.278309
-0.196736
-0.183077
0.00776791
0.0448734
0.0128208
-0.160374
0.139884
-0.358502
0.529109
-0.170607
0.55201
-0.447012
-0.104998
0.148392
0.015122
-0.549601
0.143397
0.406205
0.112467
-0.312595
-0.28008
-0.23687
-0.324538
-0.387636
0.164333
-0.369745
0.256818
0.112927
-0.0793368
0.0583461
0.441501
0.145738
0.586605
-0.143416
0.24984
-0.0601271
-0.189713
-0.59247
0.155903
0.436566
0.624376
-0.19016
-0.434216
-0.0277083
0.314073
0.103163
-0.323677
0.0133464
-0.172252
-0.148606
-0.00240628
0.169985
-0.0589576
0.225864
0.178673
-0.165327
-0.146264
-0.403337
-0.460749