/*--------------------------------*- C++ -*----------------------------------*\
| =========                 |                                                 |
| \\      /  F ield         | OpenFOAM: The Open Source CFD Toolbox           |
|  \\    /   O peration     | Version:  v2012                                 |
|   \\  /    A nd           | Website:  www.openfoam.com                      |
|    \\/     M anipulation  |                                                 |
\*---------------------------------------------------------------------------*/
FoamFile
{
    version     2.0;
    format      ascii;
    class       volVectorField;
    location    "400";
    object      U;
}
// * * * * * * * * * * * * * * * * * * * * * * * * * * * * * * * * * * * * * //

dimensions      [0 1 -1 0 0 0 0];


internalField   nonuniform List<vector> 
13917
(
(0.466884 0.0142536 0)
(1.02869 0.0145182 -1.05078e-21)
(1.07994 0.0712125 -2.73261e-21)
(1.03753 0.0131722 6.95527e-21)
(1.01604 0.000321113 1.60258e-22)
(1.02898 0.0161551 0)
(1.05277 0.0270299 9.74738e-21)
(1.01571 -0.0213992 0)
(1.06301 0.0169028 -1.34961e-20)
(0.0221063 -0.0892254 2.80324e-22)
(1.01731 -0.016201 -4.49518e-22)
(1.02819 0.0116416 0)
(1.00968 0.00011037 0)
(0.65391 -0.00498462 -2.53647e-21)
(1.02082 0.0193501 0)
(0.444837 0.00872145 0)
(1.00198 -1.92028e-05 -1.44766e-22)
(1.01098 -0.00558731 -1.7966e-21)
(1.06811 0.0643374 0)
(0.48534 0.0366816 0)
(1.01967 0.0301039 0)
(1.01554 0.00811569 0)
(1.06176 0.0441557 2.04494e-22)
(1.0154 0.00791828 0)
(1.03549 0.020638 0)
(1.01642 0.0275576 0)
(0.975666 0.120948 0)
(0.0082683 -0.0618417 0)
(1.009 0.0155963 3.10761e-21)
(1.01253 -0.000965905 0)
(0.0307617 -0.0677003 3.43952e-20)
(1.07563 0.0500749 0)
(1.03345 0.0153968 6.92147e-21)
(0.512781 0.0289265 0)
(1.01347 0.00220137 2.09545e-22)
(1.02392 -0.0315324 0)
(1.02486 0.019906 1.52636e-21)
(1.00288 0.000136349 2.13057e-21)
(1.0538 0.0270897 0)
(1.02941 0.0427898 -5.2944e-21)
(1.00084 -6.24771e-05 0)
(1.01499 0.00147915 5.12779e-24)
(1.05778 0.0127186 2.3988e-20)
(1.07463 0.0616794 0)
(1.07353 0.0614831 -6.29911e-21)
(1.04701 0.0425617 0)
(1.02103 0.0296065 0)
(0.33595 0.170724 1.01011e-20)
(0.906093 -0.0411 0)
(1.01345 0.00219504 -2.46487e-22)
(1.0277 0.0113223 -3.36639e-21)
(1.04873 0.0547829 -4.26374e-21)
(0.335414 0.00286353 0)
(1.02143 0.0113694 0)
(1.02266 0.0121493 -3.24636e-21)
(1.04899 0.0556807 1.11597e-20)
(-0.0264341 -0.0195818 -2.88985e-20)
(1.06081 0.0439437 2.04491e-22)
(1.01445 0.00135646 3.82485e-22)
(1.04967 0.0411366 1.97409e-21)
(0.31373 0.0121466 -2.14386e-21)
(1.02623 0.00676158 0)
(1.0033 -4.75919e-05 0)
(1.03532 0.0200066 0)
(0.83998 0.0797058 -4.80236e-21)
(1.00343 -0.000932247 -3.83997e-22)
(1.00839 0.0100293 0)
(1.0326 -0.0301763 0)
(1.00885 -0.0108349 1.59414e-21)
(0.409211 0.00973592 -2.41251e-20)
(0.970524 0.0806841 1.94426e-20)
(0.493913 0.0250167 0)
(1.03431 0.00522153 4.23249e-21)
(1.01402 0.00113213 -5.54521e-22)
(1.01947 0.0316642 0)
(1.03172 0.0221465 0)
(1.0151 0.00673304 -3.08505e-22)
(1.01358 0.0010271 3.52281e-22)
(1.03173 0.0215434 0)
(1.0338 0.0158063 5.68822e-21)
(1.01942 0.012858 0)
(1.00208 1.23757e-05 0)
(1.03383 0.00477064 0)
(0.970078 0.0701048 3.68653e-21)
(1.01526 0.00214315 -1.16776e-23)
(0.95429 0.00369482 8.86504e-21)
(1.07516 0.0492734 0)
(1.01465 0.00114615 -3.57911e-22)
(1.02841 0.0415443 2.73057e-21)
(1.00262 -5.65011e-06 1.67787e-22)
(1.00479 2.0056e-05 -1.00434e-22)
(1.05898 0.0129437 -2.91829e-20)
(0.903216 -0.0234136 -1.02557e-20)
(1.01207 0.00179238 -5.75e-23)
(1.0225 0.014404 0)
(1.00649 0.0138054 -3.8884e-21)
(1.00607 0.13061 9.08064e-22)
(1.00269 6.72212e-05 0)
(1.01513 0.0012671 1.78833e-21)
(1.01541 0.0870488 0)
(1.0021 -2.25589e-05 -1.29888e-22)
(1.00258 -5.5204e-05 0)
(1.01973 0.0132493 9.1995e-22)
(1.00537 0.000291123 -1.84922e-22)
(1.01547 0.00650085 1.32765e-23)
(0.948369 0.064557 0)
(0.550156 0.0924336 0)
(1.02546 0.00947098 0)
(1.01546 0.00183519 2.11779e-22)
(0.910102 0.117881 7.19763e-22)
(1.02013 8.35507e-05 -1.13679e-21)
(0.52821 0.0327524 -2.78302e-20)
(1.00798 0.0189772 -3.20879e-22)
(0.229602 0.171088 -3.28938e-20)
(0.856336 0.0787352 2.24277e-21)
(1.0302 0.0230648 -5.12101e-22)
(1.06809 0.0630235 1.0455e-20)
(1.00414 3.85165e-06 -1.01225e-22)
(1.07819 0.0701005 -4.69768e-21)
(1.03243 0.00176082 -1.19833e-20)
(1.0028 3.17785e-05 2.66574e-23)
(1.01283 0.000781124 -1.6312e-22)
(1.0059 0.00727792 -7.02119e-21)
(1.0576 0.0591518 7.06327e-21)
(0.367217 0.00760319 -2.1379e-21)
(0.930494 0.0708424 -5.78988e-21)
(1.03572 0.0190851 -7.79331e-21)
(1.01806 0.0323807 -1.95704e-21)
(1.01203 0.00343051 -5.21119e-23)
(1.05855 0.0598863 0)
(1.06811 0.0308632 1.47872e-22)
(1.0646 0.0610901 0)
(0.638371 0.0473675 0)
(1.0296 0.0228833 -3.44748e-21)
(1.07603 0.0539079 -1.29211e-20)
(0.883708 0.124571 5.8909e-21)
(0.307518 -0.0309705 0)
(0.320849 0.00849808 2.6015e-23)
(1.01411 0.0258809 -6.88683e-23)
(1.00145 7.7923e-05 -9.73101e-22)
(0.749485 0.0388581 -1.55344e-21)
(1.01322 0.000888767 -1.69085e-22)
(0.965407 0.0640195 -4.05527e-21)
(1.01413 0.00591334 3.87747e-23)
(1.032 0.00521355 0)
(1.01633 0.0054161 -3.14764e-22)
(0.976249 0.0806034 -6.85073e-21)
(0.852147 0.125048 -3.40677e-21)
(0.383297 0.167801 0)
(1.02182 0.0117763 6.98906e-22)
(1.02851 0.0387922 0)
(1.00294 -5.83963e-05 -3.55547e-24)
(1.03155 0.0046955 0)
(1.0327 0.0013927 1.00711e-22)
(0.98671 0.136954 -1.71974e-22)
(1.0158 0.00654942 -3.00677e-23)
(1.00572 0.000284304 2.60361e-22)
(0.597662 0.0443116 2.58829e-20)
(1.00204 -2.34449e-05 5.48277e-24)
(1.0035 -6.84077e-05 0)
(1.01484 0.00440328 0)
(0.715724 0.10278 -9.49143e-21)
(1.0226 0.0192082 -5.40036e-22)
(0.739981 0.0258154 2.06428e-21)
(0.48115 0.0996734 5.26002e-21)
(1.01124 0.101332 -1.6378e-21)
(0.226591 0.00295711 0)
(0.306132 0.119781 -8.67403e-21)
(1.00676 -0.000247696 0)
(1.01223 0.02576 1.17392e-22)
(1.01548 0.0078025 3.13297e-22)
(0.65812 0.0482887 2.0477e-20)
(1.06329 0.0160001 1.21278e-20)
(0.456716 0.00362087 9.44462e-21)
(1.04978 0.0519501 0)
(1.00259 -2.37438e-05 8.63294e-23)
(1.03812 0.0128347 0)
(1.04749 0.0533605 -1.48034e-20)
(1.06779 0.0298951 2.91438e-20)
(1.02237 0.0192465 3.45282e-22)
(1.05616 0.0135716 -8.32112e-21)
(1.01539 0.00772858 0)
(1.0273 0.0115071 1.92649e-21)
(1.0407 0.0652373 3.6743e-21)
(1.07752 0.0712255 0)
(1.06698 0.0647072 0)
(1.02683 0.0112184 0)
(1.03919 0.0631523 2.52679e-21)
(1.01248 -0.000927392 -6.20356e-23)
(0.965128 0.00456958 7.12055e-21)
(1.04937 0.0522748 8.18417e-21)
(1.07322 0.0600691 6.3514e-21)
(1.04899 0.0640775 7.09952e-21)
(0.478951 0.0190439 4.29101e-20)
(1.0121 0.00184679 3.50047e-22)
(0.377231 0.00883008 -1.75038e-20)
(1.03914 0.0282978 -5.30845e-21)
(0.677625 0.0505676 -2.18604e-20)
(1.01318 0.0021379 -7.6796e-23)
(1.01555 0.00663036 -1.74866e-23)
(1.02324 0.0287232 2.28647e-21)
(0.416292 0.00967572 0)
(0.309913 0.00734223 -2.40432e-20)
(1.02344 0.0178783 0)
(0.991603 0.102816 -1.07898e-20)
(1.01872 0.0168609 2.48532e-22)
(1.02928 0.0399596 0)
(1.01324 0.000872236 -4.36414e-24)
(1.04751 0.0546598 -2.23434e-22)
(1.01906 0.0126986 6.37191e-22)
(1.01013 0.00246543 -1.68088e-22)
(1.01954 -0.00785679 -2.93169e-21)
(1.0185 -0.0101235 6.09134e-22)
(0.386754 0.164095 -1.06952e-20)
(1.07616 0.053127 6.80669e-21)
(1.01482 0.027902 -5.55412e-23)
(0.696334 0.0879303 1.76079e-20)
(1.00897 0.000596887 0)
(1.00882 0.000157228 -2.49883e-22)
(1.00882 0.000147076 0)
(0.276074 0.135585 9.10331e-21)
(1.04631 0.0641848 9.02136e-21)
(1.0355 0.0609116 4.30615e-21)
(1.02017 0.00130811 0)
(1.0026 -6.43491e-05 -1.5068e-23)
(0.8135 0.121495 -1.11387e-20)
(0.368823 0.00764562 -1.86145e-20)
(1.00801 0.000177098 1.42835e-22)
(1.00777 0.000161023 -1.28087e-22)
(1.00075 -8.39126e-05 0)
(1.00919 0.000132194 0)
(1.0092 0.000118143 -2.69224e-22)
(0.485263 0.0225816 1.07373e-20)
(0.442531 0.147485 0)
(1.01711 0.0102442 -6.65608e-23)
(1.00793 -0.000407723 -1.35928e-23)
(1.053 0.0531355 0)
(0.460426 0.0193165 0)
(1.00223 -1.59219e-05 1.30469e-23)
(1.01992 0.00127181 0)
(0.967464 0.108723 7.00657e-21)
(0.95556 0.0636304 0)
(1.04513 0.0650961 -4.05468e-21)
(0.683375 0.0850613 0)
(1.05092 0.0529474 0)
(1.01432 0.00601812 -1.35445e-21)
(0.374873 0.111197 4.78838e-21)
(1.05327 0.0537877 2.35008e-21)
(1.01016 0.0199679 -2.95147e-21)
(1.0665 0.0551192 4.08376e-21)
(1.0236 0.0176156 0)
(0.439438 0.152036 1.27716e-20)
(1.03284 0.00263165 4.86133e-21)
(1.04175 0.0451741 -4.55865e-21)
(1.04966 0.0510839 0)
(1.01688 0.0102366 1.05685e-21)
(1.00031 -1.52198e-05 0)
(1.03591 0.019712 0)
(1.02105 0.00402526 3.49772e-22)
(1.01323 0.00194165 0)
(0.402189 0.0142268 1.70692e-20)
(0.63418 -0.159212 1.35055e-21)
(1.01279 0.000680792 -1.48968e-22)
(1.00755 0.000180545 0)
(1.01596 0.00663066 1.20153e-22)
(1.00758 0.000197714 0)
(1.03305 0.00229054 8.66876e-21)
(1.01478 0.000235909 -3.04374e-21)
(1.05193 0.0404359 -6.23739e-21)
(1.01326 0.000662535 -1.60346e-22)
(0.325581 0.0112957 2.29272e-21)
(0.560715 0.0971204 0)
(1.02352 0.00912933 -1.90216e-21)
(1.01812 0.00492447 0)
(1.04649 0.0349579 -2.81417e-21)
(1.0093 -4.44575e-05 -6.48489e-23)
(1.01453 0.0770904 -6.06423e-22)
(0.421884 0.0180794 8.06331e-23)
(1.00928 -3.56283e-05 6.67629e-23)
(0.428806 0.0129719 2.33894e-20)
(1.01293 0.0017848 0)
(0.728154 0.10185 0)
(1.00209 -2.61696e-05 1.18472e-24)
(1.01947 0.0178066 -1.87433e-23)
(1.01686 0.0103914 -1.26046e-22)
(1.01343 0.00536903 7.82812e-22)
(1.06047 0.0708151 0)
(1.00475 0.000252441 -1.50622e-21)
(1.01633 0.10948 -2.02409e-21)
(1.03661 0.032748 0)
(0.616481 -0.173328 -1.03646e-22)
(1.01744 0.00657299 0)
(1.05619 0.0998282 0)
(0.304338 0.0078854 -2.40605e-21)
(1.00341 -2.16785e-05 -2.50584e-22)
(1.05713 0.0477784 -9.40752e-21)
(1.01967 0.00229777 3.89523e-22)
(1.02877 0.0234027 -3.87864e-21)
(1.01732 0.00114055 -1.16603e-23)
(1.03248 0.0214758 -9.09244e-21)
(1.01239 0.00177036 -1.27955e-22)
(1.0058 0.000322002 7.33062e-22)
(1.04875 0.0516289 5.98352e-21)
(0.994878 0.00970929 0)
(1.04138 0.044458 7.79053e-21)
(1.03248 0.0209426 2.99685e-21)
(1.01959 0.00134295 -2.20743e-21)
(0.623823 0.0469864 -2.5285e-20)
(0.404455 0.00784701 0)
(1.01162 0.00292656 6.6055e-23)
(1.01281 0.00356737 -1.25163e-23)
(1.02937 0.0236453 0)
(1.01281 -0.0707234 0)
(1.08438 0.0599504 -3.99406e-20)
(0.573217 0.0799134 -5.67573e-21)
(0.510256 0.00626818 -7.39028e-21)
(1.00542 -0.00864264 5.43885e-23)
(1.06049 0.0606823 1.08173e-20)
(1.01813 0.00536201 -2.92011e-22)
(0.997341 0.0715255 -1.96535e-20)
(0.973501 -0.084384 -4.19039e-22)
(1.08094 0.070307 0)
(1.01435 0.000238795 0)
(1.02014 0.0190161 0)
(0.998432 0.116046 0)
(1.01547 0.00745145 6.20798e-23)
(1.03013 0.013085 5.59768e-22)
(1.07215 0.0598158 6.2611e-21)
(1.00188 -3.38306e-05 -2.56774e-22)
(0.6701 0.0495045 -7.28143e-23)
(1.01517 0.0016891 0)
(1.0794 0.0343532 0)
(1.01217 -0.000349019 -4.18758e-22)
(0.428832 0.0297352 5.9992e-20)
(1.00886 0.00168508 9.20951e-22)
(1.04208 0.0428395 -1.13742e-21)
(1.01766 0.0170577 9.68425e-23)
(1.00823 -0.00980065 -5.28544e-23)
(1.00292 1.56691e-05 1.6429e-22)
(1.0684 0.054877 9.16137e-21)
(0.992879 0.0664355 6.24768e-21)
(1.02287 0.0141216 1.62589e-21)
(1.01546 0.00722798 6.66666e-23)
(0.552234 0.0376452 -1.40404e-20)
(0.984507 0.0666575 0)
(0.744612 0.0676608 -2.70237e-21)
(0.678357 -0.0259992 0)
(1.00894 -2.12189e-05 3.05035e-23)
(1.01793 0.0107567 -7.30548e-22)
(0.944306 0.0631858 0)
(1.05983 0.0580734 -1.27062e-20)
(1.00895 -1.18084e-05 -2.63375e-22)
(1.01922 0.000977762 3.70581e-22)
(1.02441 0.0116553 2.83308e-21)
(1.00716 0.0421755 0)
(1.04229 0.0435916 -3.79512e-21)
(1.05271 0.0608849 1.38699e-21)
(1.05068 0.0571522 4.32474e-21)
(1.01086 0.0752291 -3.09207e-22)
(1.07598 0.0356794 2.17668e-20)
(0.512039 0.0305649 0)
(1.01223 0.00357532 1.56763e-22)
(1.02325 0.0142286 0)
(1.0158 -0.00114349 7.55393e-22)
(1.0678 0.0750742 -7.98136e-21)
(1.00173 -3.86908e-05 9.5811e-23)
(0.462875 0.0130943 -5.12397e-20)
(1.07637 0.0350282 -1.56643e-20)
(0.91513 -0.0860927 -9.65155e-22)
(1.02272 0.0124709 4.22906e-21)
(1.05598 0.0576689 0)
(1.0141 0.00413395 -1.9831e-23)
(0.979293 0.0519017 0)
(1.01394 0.0013419 -2.34199e-22)
(1.03644 0.0637802 -4.71565e-21)
(1.04811 0.0370495 1.89896e-21)
(1.01634 0.0160074 2.23986e-22)
(1.02372 0.00950216 -6.17845e-21)
(1.05618 0.090165 0)
(1.01339 -0.000448034 0)
(0.456243 0.0916517 -4.84834e-21)
(1.04803 0.0652411 -7.59288e-21)
(1.01378 0.0011607 -2.36022e-22)
(0.976276 0.0243911 8.86861e-21)
(1.01643 0.0106054 4.25677e-22)
(1.04346 0.00755636 -1.89466e-21)
(1.00952 0.00114108 5.23963e-23)
(0.503739 0.0432631 0)
(1.03993 0.0147007 1.02192e-21)
(1.02648 0.019857 -1.00479e-22)
(0.770436 0.110453 6.43553e-21)
(1.00968 0.0665269 0)
(1.02338 0.0168121 3.29115e-21)
(0.608786 0.0887904 -1.28719e-21)
(1.09535 0.0610321 -1.02414e-20)
(1.02726 0.019149 -8.39783e-22)
(1.0591 0.071516 5.91237e-21)
(1.01851 0.0107653 9.49244e-22)
(1.00484 0.067078 2.71958e-22)
(1.07952 0.0712422 2.07021e-20)
(1.0153 0.00149338 0)
(1.05717 0.0234006 -1.27141e-20)
(1.03315 0.020846 3.78195e-21)
(1.01351 0.00534516 7.71674e-22)
(1.01087 0.0024225 2.86534e-23)
(1.01246 0.0038813 -1.7502e-22)
(0.220189 -0.0399182 0)
(1.01926 0.0976446 1.6713e-21)
(1.02299 0.0133949 2.12103e-21)
(1.01263 0.00377288 -3.37666e-24)
(1.01523 0.00755242 -3.17084e-22)
(1.05319 0.0472302 -1.64004e-20)
(1.07453 -0.0248165 0)
(1.01054 -0.000163484 0)
(1.00662 -0.000223439 0)
(1.08357 0.0597047 2.66834e-20)
(1.05511 0.0593193 0)
(1.01366 0.00562775 8.58373e-22)
(1.0266 0.0195606 8.35919e-23)
(0.6735 0.0168625 0)
(0.857289 0.145309 2.88965e-21)
(0.999289 -0.000468237 0)
(1.06924 0.0651468 0)
(1.03881 0.0732561 4.18951e-21)
(1.01248 5.91295e-05 5.14125e-22)
(1.01007 -0.000113867 -2.54386e-22)
(1.02069 0.0260129 1.97774e-21)
(1.01075 0.00231382 1.68969e-23)
(1.0105 -0.000153107 2.58618e-22)
(1.01712 0.010428 -1.21203e-21)
(1.01007 -0.000102853 -4.70739e-24)
(1.01217 5.29726e-05 0)
(0.383296 0.129908 -8.31733e-22)
(1.01882 0.0111331 -6.08607e-23)
(1.0318 0.0449619 0)
(0.341223 0.013542 0)
(1.05623 0.0473141 0)
(1.01034 0.00259272 4.79698e-22)
(1.03083 0.0047392 0)
(0.632461 0.0936337 0)
(1.02231 0.0278984 -1.14402e-21)
(0.349281 0.00532123 2.14051e-20)
(1.01158 -0.000287537 0)
(1.02117 0.0037555 -4.28176e-21)
(1.01375 -0.000551545 0)
(1.00959 0.00011372 2.92028e-22)
(1.02471 0.0193334 2.13338e-21)
(1.01609 0.0103425 -1.40909e-22)
(0.705034 0.0154808 0)
(1.00948 -0.000860998 0)
(0.935062 0.0638641 2.47438e-21)
(1.0209 0.00380671 0)
(1.06422 0.0356017 -1.07669e-20)
(1.00913 0.0031056 -3.15907e-22)
(1.01878 0.0122568 0)
(1.0506 0.05286 0)
(0.732864 0.0599732 1.26593e-22)
(1.02437 0.0113143 -2.90554e-21)
(0.682499 0.161724 -3.46873e-22)
(1.01062 0.00282233 2.72339e-23)
(1.00976 0.000849093 1.47431e-21)
(1.01503 0.0072726 -3.28426e-22)
(1.01667 0.010924 -6.36084e-22)
(1.0097 0.00221496 9.69761e-23)
(1.01245 0.000850819 0)
(0.612934 0.0456629 3.00902e-21)
(0.389387 0.0124181 -6.62464e-21)
(1.00949 0.00209568 0)
(1.04985 0.0958291 -9.07675e-21)
(1.08205 0.0602674 0)
(1.01909 0.000449774 4.93171e-21)
(1.05604 0.0491904 -8.84296e-21)
(1.0868 0.0475575 7.69392e-21)
(0.565429 0.101795 9.77765e-21)
(1.05969 0.0244956 -1.44563e-20)
(0.951156 0.0637603 9.18103e-21)
(0.995591 -0.0549743 -1.49689e-21)
(1.00449 -0.0563798 1.2552e-21)
(1.01628 0.0107047 -5.35325e-22)
(1.00535 -0.00364804 3.76239e-22)
(1.0083 0.00516238 0)
(1.02329 0.0171288 -1.10548e-22)
(0.935954 0.0745901 0)
(1.00459 1.75758e-05 -9.89585e-23)
(1.02141 0.0109866 0)
(1.02287 0.014524 3.80005e-21)
(1.05957 0.0207188 -9.948e-21)
(1.02316 0.0331434 7.78309e-22)
(1.07466 0.0702472 -9.85458e-21)
(1.06609 0.0471533 -1.74215e-20)
(1.02014 0.00332481 0)
(1.01883 0.00423666 6.97108e-22)
(1.00602 -0.00070477 0)
(1.03465 0.0534558 -5.74216e-21)
(1.02266 0.0131927 -2.09716e-21)
(0.596791 -0.00219515 -2.37998e-21)
(1.05551 0.0393091 -8.75435e-21)
(1.0375 0.03264 4.99969e-21)
(0.461473 0.0724382 3.15582e-23)
(1.01536 0.001914 -3.91997e-21)
(1.03498 0.0548628 6.38264e-21)
(1.04651 0.0527811 0)
(1.00928 0.00153082 2.0973e-23)
(0.506126 0.0361944 -1.64572e-21)
(1.0098 0.000851442 0)
(1.00957 0.000103613 0)
(1.05384 0.047738 1.68169e-20)
(1.0115 -0.000277502 0)
(1.00929 0.000639051 -7.91019e-22)
(1.04961 0.0516104 0)
(0.564737 0.0436279 0)
(0.660098 0.10976 5.91018e-21)
(1.01482 0.00415408 1.61793e-21)
(1.04287 0.0119294 1.19134e-20)
(1.01954 0.00020245 2.68421e-22)
(0.960746 0.0610967 2.56977e-21)
(0.946952 0.0240746 -5.17693e-21)
(1.02215 0.0125018 3.85536e-21)
(1.02222 0.011804 2.29601e-21)
(1.01444 0.00373426 0)
(1.05 0.0499641 1.30876e-20)
(0.906353 -0.159222 3.60636e-21)
(1.01225 0.0031969 -1.33687e-23)
(1.00231 -3.9821e-05 3.82633e-23)
(1.01538 0.00648589 -1.1375e-23)
(1.0134 0.00513562 -2.43603e-21)
(1.01119 0.00102482 0)
(1.04508 0.0327165 0)
(1.00406 2.46706e-05 1.92167e-22)
(1.06536 0.0477001 1.80727e-20)
(1.00922 0.00144762 -5.98189e-22)
(1.01559 0.00802519 -2.02026e-21)
(1.03319 0.0203592 1.79101e-21)
(0.567551 0.0622731 3.14777e-20)
(1.00599 0.000196109 -1.28019e-22)
(1.04992 0.0174128 4.07994e-21)
(1.01328 0.00203401 0)
(1.06374 0.0347711 -1.86813e-20)
(1.05715 0.0524991 -5.04554e-21)
(0.999005 0.0321031 2.17899e-21)
(1.04995 0.0515602 0)
(1.02114 0.0917067 0)
(1.03128 0.0192429 0)
(1.00893 0.00301793 3.22589e-21)
(0.705818 0.052764 1.12088e-20)
(0.412701 0.132615 0)
(0.361796 0.0171408 -1.62777e-20)
(1.01124 0.00248522 -4.07744e-23)
(1.01471 0.00682957 0)
(1.02125 0.00390769 -2.15183e-22)
(1.02319 0.00674027 0)
(0.845065 0.0757654 8.76081e-21)
(1.00967 -4.80273e-05 0)
(0.813139 -0.187643 0)
(1.0399 0.0281031 7.76137e-21)
(0.800122 0.0586791 1.9955e-20)
(1.01689 0.0819187 8.75416e-22)
(1.05724 0.0136901 2.45385e-21)
(0.0954661 -0.0224567 1.68758e-20)
(1.00946 0.0020345 -4.68938e-22)
(1.08311 0.0454447 3.00516e-20)
(1.00354 9.21942e-05 -1.22971e-22)
(1.01348 0.000786611 1.09602e-21)
(0.762968 0.0558145 1.48364e-20)
(1.01105 -0.000220458 6.43074e-23)
(1.08634 0.0664364 4.31428e-20)
(1.00234 -5.38322e-05 4.15333e-23)
(1.01759 0.000214553 -2.64487e-21)
(1.01491 0.00709166 0)
(1.0745 0.0694304 9.45011e-21)
(1.01121 -0.000299964 -3.54355e-22)
(1.00686 0.000193922 -1.34876e-22)
(1.07651 0.0609365 0)
(1.05541 0.0486486 -1.98663e-21)
(0.914563 0.184996 3.19146e-21)
(1.01521 0.079114 0)
(0.640339 0.0481225 1.10346e-20)
(0.538303 0.103097 -5.51028e-21)
(1.00598 0.000199606 1.48188e-22)
(0.38744 0.00703116 -5.85143e-21)
(1.00437 -7.35255e-05 4.4826e-23)
(0.341071 -0.0157232 0)
(0.864939 0.107773 0)
(1.01324 0.000533429 -3.06959e-22)
(1.01671 0.00534226 1.18723e-22)
(1.00244 -1.75479e-05 1.81745e-22)
(1.05503 0.0388744 0)
(1.05563 0.0125083 9.07933e-21)
(1.01099 -0.00020817 -6.61482e-23)
(1.00349 0.000112612 0)
(1.01319 0.00035018 -2.10025e-21)
(1.04756 0.0797137 -1.33967e-20)
(1.01594 0.00489279 -1.02766e-21)
(1.07565 0.0475452 2.17377e-20)
(1.021 0.0106582 0)
(1.00673 0.00017797 3.20676e-22)
(1.00258 -1.68186e-05 3.05515e-22)
(1.04253 0.0458408 -1.65456e-22)
(0.857235 0.0959076 -4.99274e-21)
(0.247803 0.0211658 -2.70161e-20)
(1.06616 0.0540864 -1.15879e-20)
(1.04574 0.0322719 0)
(1.05732 0.0879288 -3.3351e-21)
(0.464627 0.0206064 -2.31618e-20)
(1.0098 0.00116401 -6.87761e-23)
(0.847872 0.0696946 0)
(1.01273 0.000118369 4.52853e-21)
(1.08862 0.0531555 -3.53329e-20)
(1.02294 0.0068936 7.47777e-21)
(1.06616 0.0883019 6.04794e-21)
(1.01313 0.00490133 9.46392e-22)
(1.01048 0.00229255 0)
(1.03268 0.00525123 0)
(0.914031 0.177909 -1.11582e-21)
(1.05346 0.0402524 -1.09215e-20)
(0.795664 0.0828249 -9.19384e-21)
(1.00409 3.85845e-05 -6.3911e-24)
(1.05186 0.0393342 -6.76402e-21)
(1.01305 0.00249446 0)
(1.00173 -6.15932e-05 -2.60139e-22)
(0.526342 0.0357125 -5.6349e-22)
(0.996672 0.0984693 1.1129e-23)
(1.01372 0.00229348 -5.29851e-23)
(1.05167 0.0619908 -1.74643e-21)
(1.01981 0.00142488 3.31639e-21)
(1.01396 6.09929e-05 0)
(1.00226 -5.3113e-05 0)
(0.544793 0.0406139 3.42783e-20)
(1.01612 0.00483353 1.04341e-21)
(1.02117 0.00287337 0)
(1.00966 -5.59866e-05 1.66363e-22)
(1.01343 0.00234834 -3.44952e-22)
(1.0661 0.0746929 0)
(1.00266 -4.93081e-05 -4.82221e-23)
(1.05578 0.0628932 -4.28097e-21)
(1.00207 1.87816e-05 -6.7311e-24)
(1.00904 0.0017176 0)
(0.282299 -0.00289312 -4.61706e-22)
(1.07603 0.0482226 0)
(1.02181 0.0120929 -2.26267e-21)
(0.26063 0.00332951 0)
(1.0869 0.0659171 -3.98793e-20)
(1.07593 0.00915119 2.44523e-22)
(1.04657 0.0515353 0)
(1.00926 0.00191783 3.3322e-22)
(1.02116 0.0200324 -4.36754e-22)
(0.550961 0.0583679 -1.98289e-22)
(1.09079 0.063913 4.86618e-23)
(1.02169 0.0257924 0)
(1.02525 0.0201622 -6.52399e-22)
(1.00949 0.00261465 -9.11591e-22)
(1.00269 3.95502e-05 8.35645e-23)
(1.01266 0.00432708 0)
(1.0018 -0.00955164 9.07032e-23)
(1.05608 0.0535563 0)
(1.03567 0.0261378 -2.31571e-21)
(0.403855 0.0735519 -1.25809e-21)
(1.05425 0.0406902 1.33624e-20)
(1.07668 -0.0222651 9.94527e-22)
(0.912627 0.0190091 -3.88592e-21)
(0.997163 0.0141397 0)
(1.04459 0.0411648 -1.00794e-20)
(1.05071 0.064855 0)
(0.443014 0.0155381 2.11027e-20)
(1.01239 0.00183544 0)
(1.01054 0.0161028 9.18486e-22)
(1.00009 -0.0149934 0)
(1.00914 0.00173174 0)
(1.00413 9.94689e-05 1.05295e-22)
(1.00261 -2.73524e-05 -8.52654e-23)
(1.02097 0.000126628 0)
(1.0104 0.000715889 0)
(0.393224 0.00753022 6.42495e-21)
(1.07415 0.0301239 1.29235e-20)
(1.00667 0.000403508 0)
(1.07191 0.0585859 -6.48885e-21)
(1.00439 4.66191e-05 3.12081e-22)
(0.590933 0.0839303 -1.2439e-20)
(1.01292 0.00165944 0)
(1.01202 0.00330831 0)
(0.532642 0.0401379 0)
(1.05817 0.0512775 1.22887e-20)
(0.912374 -0.0915735 2.21929e-21)
(1.03458 0.00728341 0)
(1.01506 0.000639238 0)
(1.01191 0.00271265 2.29091e-23)
(1.03983 0.00983928 -5.32724e-21)
(1.0545 0.0302675 -6.1262e-22)
(1.01303 0.00505078 1.02122e-21)
(0.33715 0.00774875 -1.85764e-20)
(1.03677 0.0355642 0)
(0.859487 -0.131303 -2.64078e-21)
(0.928926 -0.064076 2.63973e-21)
(1.00903 0.0146055 -9.91145e-22)
(0.641017 0.0488765 0)
(1.04256 0.0124441 0)
(1.00444 0.000178689 -2.81181e-22)
(1.01328 0.00244363 3.65895e-22)
(0.437602 0.0205718 -1.60666e-20)
(0.704065 0.104213 0)
(1.03906 0.0290864 -5.93478e-21)
(0.355523 0.00702435 0)
(0.832239 -0.177129 -1.72308e-21)
(1.00904 0.00181447 -1.11841e-21)
(1.01182 0.0030562 0)
(1.02423 0.0190713 3.80753e-21)
(0.965858 0.0660155 0)
(0.963795 -0.0970076 0)
(1.05276 0.0408845 -3.61411e-21)
(1.03912 0.00973848 4.4888e-21)
(1.04952 0.0179451 0)
(1.08945 0.0534019 3.70556e-20)
(1.01751 0.00574614 2.41514e-22)
(1.05407 0.0613947 8.91268e-21)
(1.07352 0.0309264 0)
(1.02215 0.0139299 -2.31174e-21)
(1.03354 0.0160469 -9.53016e-21)
(1.00436 0.000172843 3.25332e-22)
(1.05376 0.0299506 0)
(1.01979 0.00460865 -6.91919e-22)
(1.09333 0.0615029 -3.95374e-20)
(1.0278 0.0237076 1.71886e-21)
(1.01683 -0.00379199 3.53027e-22)
(0.343502 0.00716722 -2.49745e-20)
(1.01441 -0.000766241 0)
(0.828589 -0.183752 -1.30841e-21)
(1.02552 0.0197985 -2.51344e-21)
(1.02483 0.0166992 2.82882e-22)
(1.04287 0.0274913 -3.79656e-21)
(1.09113 0.063766 1.72264e-20)
(1.00283 1.97498e-05 -1.05276e-22)
(1.08342 0.0437084 -1.3476e-20)
(0.891877 0.0924359 1.19711e-20)
(0.907101 -0.0405182 1.72927e-22)
(1.02401 0.00672346 2.39769e-21)
(1.02842 0.0239899 4.16764e-21)
(1.00834 0.000360876 5.84071e-22)
(1.02115 0.00529283 4.48206e-21)
(1.03251 0.00417587 1.1815e-21)
(1.00655 0.0155938 0)
(1.0082 0.000681052 0)
(1.04582 0.0467994 3.20365e-21)
(1.05464 0.0627772 0)
(1.00903 0.00174501 2.90733e-22)
(1.09096 0.062693 -1.21974e-20)
(1.06211 0.0171353 2.4231e-20)
(1.05928 0.0212971 1.60608e-20)
(1.0521 0.0635125 0)
(1.01794 0.0110257 -6.98293e-22)
(1.08223 0.0457251 1.45117e-20)
(1.01995 0.124773 -9.79695e-22)
(1.00619 0.000188978 -1.71965e-22)
(1.05896 0.0511572 0)
(1.04996 0.0534657 5.709e-21)
(1.07231 0.0308765 0)
(1.01159 0.00360929 1.96476e-22)
(1.00994 0.0024076 -8.48899e-22)
(1.01256 0.00423555 0)
(0.400298 0.00839655 9.52334e-23)
(1.03268 0.0150957 -4.94063e-21)
(1.01316 0.00152303 -8.38153e-24)
(1.07813 0.0342602 0)
(1.01326 0.0052839 -1.35553e-21)
(1.01076 0.00278227 -8.47346e-23)
(1.04984 0.0557187 -8.95377e-22)
(1.00879 0.114684 3.63703e-22)
(0.997937 0.0108543 7.17413e-22)
(0.821054 0.152637 -1.43417e-21)
(1.00954 0.0403711 0)
(0.936197 0.06212 0)
(1.03292 0.00378801 -1.28654e-20)
(1.0148 0.0064301 2.37208e-22)
(1.06848 0.0874164 8.96982e-21)
(1.0135 -0.000218714 -6.24627e-22)
(1.03086 0.0121101 2.52783e-22)
(1.00273 4.48533e-06 9.36383e-23)
(1.00413 6.75678e-05 9.4838e-23)
(1.03329 0.00814205 5.19354e-21)
(1.02676 0.0238916 -1.7771e-21)
(0.997139 0.0352718 7.70343e-22)
(1.01147 0.00352161 2.54929e-23)
(0.995899 0.008045 3.20108e-22)
(1.01493 0.00596602 -1.73544e-23)
(0.884054 0.109458 0)
(1.02599 0.0200706 0)
(1.06018 0.0237552 1.63233e-20)
(1.01205 -0.000347084 -3.10054e-22)
(1.06572 0.055596 -2.62277e-20)
(1.02003 0.018285 -2.1506e-23)
(0.715806 0.0952681 -9.13476e-21)
(0.995608 0.0135086 7.2277e-22)
(1.00171 2.33842e-05 4.94124e-23)
(0.569231 0.0724751 -2.06167e-20)
(1.03306 0.0167439 3.65692e-21)
(0.397565 0.0127473 -1.70525e-20)
(1.05547 0.0109242 0)
(0.9808 0.018653 -1.93955e-21)
(1.01667 0.00616563 2.89195e-23)
(1.01084 0.00210903 1.08901e-23)
(1.02372 0.0063456 -8.91672e-23)
(0.685592 0.0494024 0)
(1.05227 0.030297 -6.97758e-21)
(1.0828 -0.000371454 -5.19715e-22)
(0.809417 0.148097 -7.4988e-21)
(1.02088 0.00512775 0)
(1.07193 0.0316873 0)
(1.00778 -0.000389 0)
(1.02014 0.00720911 -3.44669e-22)
(0.940999 -0.10446 3.22219e-21)
(1.00818 -0.000436958 -1.50916e-23)
(0.406832 0.117258 2.19556e-21)
(1.05141 0.0169892 0)
(0.979728 0.0241494 0)
(1.06695 0.0622692 -2.76533e-22)
(1.08349 -0.00815533 -1.08683e-21)
(1.0081 0.00035557 0)
(1.00469 0.00016264 -6.36311e-23)
(1.05216 0.0573922 4.23813e-21)
(1.00924 0.00185459 -1.37081e-22)
(1.02069 0.0109806 2.95574e-21)
(1.02788 0.0187441 -3.61394e-21)
(1.01441 0.006413 2.37114e-22)
(1.07752 0.0349708 -2.32107e-21)
(1.00792 0.000331319 -6.37498e-23)
(0.965374 0.0319444 2.01083e-21)
(1.02177 0.0138354 2.24361e-21)
(0.448649 0.0121771 4.74443e-20)
(0.387554 0.0119031 2.19506e-21)
(1.00204 -0.0673621 0)
(0.923525 0.0628774 -4.99248e-21)
(0.722656 0.154428 3.57551e-22)
(0.438638 0.0103519 -4.84366e-20)
(1.02263 -0.066652 0)
(1.00835 0.00145961 6.70113e-22)
(1.01442 -0.000174823 -2.6023e-22)
(1.02756 0.00762722 6.01558e-21)
(1.03005 0.016996 -4.79337e-21)
(1.01448 0.00395286 0)
(1.05316 0.0306175 1.56254e-21)
(1.01615 0.00608712 -1.05515e-21)
(1.06103 -0.0344032 1.82241e-21)
(1.02106 0.0113329 -4.56571e-21)
(1.08425 0.0741232 -1.61384e-20)
(1.03248 0.0143765 0)
(1.07213 0.0252847 2.35079e-20)
(1.04814 0.0601718 0)
(1.01157 0.00231791 4.52284e-23)
(1.02906 0.0441964 3.03923e-21)
(1.03265 0.0169133 9.35679e-22)
(1.01357 0.00225833 1.3434e-23)
(1.04707 0.0271111 -9.35632e-21)
(1.01357 -0.000373876 0)
(0.639811 0.0493445 0)
(1.05579 0.0544773 0)
(0.995492 -0.009797 0)
(1.01164 0.00281675 0)
(1.02482 0.000418806 0)
(1.01536 0.00748457 -2.16817e-22)
(1.01518 0.00612131 0)
(0.484852 0.0820555 0)
(1.00859 0.00160557 3.46703e-22)
(1.00484 0.0962437 0)
(1.01303 0.00473365 4.73624e-22)
(0.964068 -0.0784278 0)
(1.01757 0.0171124 2.81925e-23)
(1.01477 0.00610144 2.15654e-21)
(1.08376 0.0444212 8.38071e-22)
(1.02762 0.00551842 0)
(1.00877 0.00172407 -1.72115e-22)
(0.926353 -0.0236245 -8.08086e-21)
(0.885426 0.0744209 0)
(1.02261 0.0176409 0)
(1.06758 0.0555005 1.04281e-20)
(1.00921 0.00167739 -8.31276e-23)
(1.00832 0.0884857 0)
(1.0151 2.96296e-05 1.42457e-22)
(1.01519 0.00621785 0)
(0.496517 0.0255494 2.13371e-20)
(1.00385 5.0212e-05 5.654e-23)
(1.0379 0.0138792 0)
(1.07088 0.0582263 1.23332e-20)
(0.481697 0.0203122 -4.08888e-20)
(1.01594 0.000200881 -1.46368e-22)
(0.993822 -0.0746369 0)
(1.06333 0.0902314 0)
(1.01461 0.00172935 0)
(1.01549 0.0085192 -8.46363e-23)
(1.01461 0.00665573 2.3524e-22)
(1.05792 0.074384 0)
(1.024 0.000903956 1.06244e-21)
(1.07689 0.0619426 -1.74023e-20)
(1.02845 0.00999531 8.88092e-23)
(0.515069 0.0381662 0)
(1.01881 0.0179216 -2.57952e-23)
(0.835775 0.0109717 -1.02169e-20)
(1.01264 0.00390667 0)
(1.01052 -0.000282596 -1.17876e-22)
(1.034 0.00707028 8.5116e-22)
(1.01058 0.000482379 1.2005e-21)
(1.01429 -0.00111017 -1.11893e-24)
(0.749158 0.0557115 -2.17735e-20)
(1.02505 0.0174136 1.2028e-21)
(1.01055 0.00260031 -1.45474e-21)
(0.878055 -0.110465 -5.59524e-22)
(1.01433 0.00167405 0)
(1.01488 -0.000349999 2.5742e-22)
(1.0569 0.05349 -6.23504e-21)
(1.0268 0.0186488 -1.61308e-21)
(0.828521 0.0764872 0)
(1.03206 0.0436072 2.5634e-22)
(1.08531 0.0481854 1.52822e-20)
(1.04814 0.0509048 0)
(1.04856 0.0179205 4.13065e-21)
(0.533447 0.0369671 2.53142e-23)
(1.02209 0.0146089 2.98937e-21)
(1.05795 0.0523336 0)
(1.02242 0.00362363 4.37281e-21)
(0.369629 0.0145848 -1.86957e-20)
(0.975807 -0.0769704 1.44634e-21)
(1.03626 0.0068952 6.89373e-21)
(1.01504 -0.000195495 1.45493e-22)
(1.0135 0.00173993 7.81664e-22)
(1.02247 0.0125981 0)
(1.01435 -0.000252267 1.09334e-25)
(1.01158 0.000327741 1.68844e-22)
(1.01278 0.000645543 -5.49032e-22)
(1.02368 0.00578451 9.45815e-21)
(1.04369 0.033598 0)
(1.00609 0.000173079 1.91857e-22)
(1.02512 0.0170109 1.19929e-21)
(1.07281 0.0526447 1.41123e-21)
(0.473942 0.116673 0)
(0.690504 0.0981021 1.02129e-20)
(1.07065 0.0569442 1.07234e-20)
(1.01542 0.00771416 -3.76432e-23)
(1.03019 -0.00880728 0)
(1.01552 0.00536091 0)
(1.07011 0.0855221 -2.78002e-20)
(0.910707 -0.153402 0)
(0.174828 0.00175019 0)
(1.00964 5.17417e-05 -5.25761e-22)
(1.00851 0.00157152 -6.0456e-22)
(1.01715 0.00105588 -1.92103e-21)
(1.01844 0.00995797 -1.05989e-21)
(1.00943 4.26979e-05 4.96415e-22)
(1.0135 -0.000595141 1.58297e-22)
(1.01783 0.00548848 4.86786e-21)
(1.04478 0.0420751 -5.34118e-21)
(1.01068 0.00264334 0)
(0.440829 0.0534107 -2.83357e-20)
(0.927161 -0.101811 -1.03655e-22)
(1.01093 0.00324095 -5.79001e-22)
(0.713959 0.0535993 1.34113e-20)
(1.02284 0.00371032 -5.16718e-21)
(1.01254 0.00400859 1.19973e-22)
(1.02331 0.0094687 -1.47587e-22)
(0.55934 0.0456992 -1.6765e-20)
(1.03324 0.0565312 -6.93063e-21)
(1.003 -4.87699e-05 -1.01196e-22)
(0.914017 -0.120347 -2.24751e-21)
(1.01265 0.00217164 0)
(1.01244 0.00360753 0)
(1.09621 0.063911 1.77751e-20)
(1.01437 -0.000275104 1.35899e-22)
(0.956889 0.136363 -9.88714e-23)
(1.03871 0.0141984 1.0574e-20)
(0.971611 0.0278933 6.41978e-21)
(1.01038 0.00267209 -3.01083e-22)