/*--------------------------------*- C++ -*----------------------------------*\
| =========                 |                                                 |
| \\      /  F ield         | OpenFOAM: The Open Source CFD Toolbox           |
|  \\    /   O peration     | Version:  v2012                                 |
|   \\  /    A nd           | Website:  www.openfoam.com                      |
|    \\/     M anipulation  |                                                 |
\*---------------------------------------------------------------------------*/
FoamFile
{
    version     2.0;
    format      ascii;
    class       volVectorField;
    location    "400";
    object      U_0;
}
// * * * * * * * * * * * * * * * * * * * * * * * * * * * * * * * * * * * * * //

dimensions      [0 1 -1 0 0 0 0];


internalField   nonuniform List<vector> 
13917
(
(0.466904 0.0142795 0)
(1.02876 0.0146775 -1.04225e-21)
(1.0799 0.0711821 -2.72981e-21)
(1.03753 0.013172 6.95472e-21)
(1.01613 0.000322769 1.60109e-22)
(1.02902 0.0163127 0)
(1.05277 0.0270315 9.74734e-21)
(1.01633 -0.0213679 0)
(1.06301 0.0168996 -1.34951e-20)
(0.0219905 -0.089033 2.8026e-22)
(1.01784 -0.0161417 -4.56721e-22)
(1.02819 0.0116411 0)
(1.00968 0.000110356 0)
(0.65324 -0.00661106 -2.53305e-21)
(1.02079 0.0193887 0)
(0.444858 0.00873733 0)
(1.00198 -1.91906e-05 -1.43559e-22)
(1.01137 -0.00563077 -1.7904e-21)
(1.0681 0.0642818 0)
(0.485431 0.0368799 0)
(1.01968 0.0300482 0)
(1.01554 0.0081144 0)
(1.06177 0.0441516 2.04323e-22)
(1.0154 0.00791716 0)
(1.03549 0.0206369 0)
(1.01645 0.0274853 0)
(0.975555 0.121555 0)
(0.0081658 -0.0617417 0)
(1.00915 0.0154893 3.11022e-21)
(1.01253 -0.000967632 0)
(0.0306952 -0.067626 3.43957e-20)
(1.07563 0.050062 0)
(1.03345 0.0153963 6.92067e-21)
(0.512729 0.0289608 0)
(1.01347 0.00220517 2.08836e-22)
(1.02468 -0.0314109 0)
(1.02487 0.0199036 1.52565e-21)
(1.00288 0.000136368 2.13114e-21)
(1.0538 0.0270911 0)
(1.02936 0.0427811 -5.28541e-21)
(1.00084 -6.24813e-05 0)
(1.01498 0.00148451 5.11509e-24)
(1.05778 0.0127159 2.39864e-20)
(1.07461 0.061648 0)
(1.07351 0.0614499 -6.29588e-21)
(1.0475 0.0426529 0)
(1.02103 0.0295601 0)
(0.334888 0.170054 1.00373e-20)
(0.908026 -0.0390424 0)
(1.01345 0.00219873 -2.45604e-22)
(1.0277 0.0113218 -3.36602e-21)
(1.04892 0.054771 -4.28031e-21)
(0.335351 0.00286594 0)
(1.02143 0.0113697 0)
(1.02266 0.0121494 -3.24574e-21)
(1.04917 0.0556506 1.12008e-20)
(-0.0264217 -0.0195289 -2.88984e-20)
(1.06083 0.0439408 2.04155e-22)
(1.01444 0.00135888 3.8126e-22)
(1.05017 0.0412911 2.01905e-21)
(0.313983 0.0108545 -2.09023e-21)
(1.02618 0.00687412 0)
(1.0033 -4.75835e-05 0)
(1.03532 0.0200056 0)
(0.839907 0.0797272 -4.79273e-21)
(1.00339 -0.00111511 -3.68858e-22)
(1.0086 0.00992727 0)
(1.03334 -0.0299242 0)
(1.00932 -0.0108955 1.5793e-21)
(0.40917 0.00974456 -2.40979e-20)
(0.970506 0.080702 1.94104e-20)
(0.493871 0.0250471 0)
(1.03431 0.00522076 4.23226e-21)
(1.01401 0.00113426 -5.52554e-22)
(1.01947 0.0316041 0)
(1.03172 0.0221428 0)
(1.01513 0.00671984 -3.0886e-22)
(1.01357 0.00102762 3.51036e-22)
(1.03173 0.02154 0)
(1.0338 0.0158058 5.68753e-21)
(1.01942 0.0128604 0)
(1.00208 1.23878e-05 0)
(1.03384 0.00476984 0)
(0.970087 0.0700849 3.6826e-21)
(1.01526 0.00214315 -1.16719e-23)
(0.954561 0.00300059 8.8931e-21)
(1.07516 0.0492608 0)
(1.01465 0.00114614 -3.57901e-22)
(1.02837 0.0415297 2.72679e-21)
(1.00262 -5.63829e-06 1.66387e-22)
(1.00479 2.00338e-05 -9.97775e-23)
(1.05898 0.0129409 -2.91808e-20)
(0.905189 -0.0210484 -1.03394e-20)
(1.01207 0.0017929 -5.72343e-23)
(1.0225 0.0144056 0)
(1.00667 0.0136751 -3.8908e-21)
(1.00521 0.130489 8.09186e-22)
(1.00269 6.72411e-05 0)
(1.01513 0.00126709 1.78828e-21)
(1.01496 0.0870486 0)
(1.0021 -2.25556e-05 -1.28942e-22)
(1.00258 -5.51983e-05 0)
(1.01972 0.0132523 9.19525e-22)
(1.00537 0.000291161 -1.85585e-22)
(1.0155 0.00649312 1.32814e-23)
(0.948423 0.0646279 0)
(0.549882 0.0925257 0)
(1.02538 0.00957424 0)
(1.01544 0.00184166 2.11084e-22)
(0.910024 0.118572 7.32199e-22)
(1.02013 8.34142e-05 -1.13682e-21)
(0.528158 0.0327919 -2.77996e-20)
(1.00811 0.0188518 -3.19755e-22)
(0.22812 0.170441 -3.26883e-20)
(0.856274 0.0787583 2.23867e-21)
(1.0302 0.0230593 -5.11802e-22)
(1.06808 0.0629719 1.04504e-20)
(1.00414 3.88514e-06 -1.00607e-22)
(1.07815 0.0700644 -4.69332e-21)
(1.03243 0.00175974 -1.19829e-20)
(1.0028 3.17935e-05 2.63933e-23)
(1.01283 0.00078266 -1.62488e-22)
(1.00615 0.00715051 -7.01386e-21)
(1.05766 0.0590941 7.06711e-21)
(0.367137 0.00760888 -2.13598e-21)
(0.930511 0.0708268 -5.7838e-21)
(1.03572 0.0190844 -7.79231e-21)
(1.01805 0.0323106 -1.94128e-21)
(1.01203 0.00343027 -5.23781e-23)
(1.05859 0.059824 0)
(1.06812 0.0308593 1.47812e-22)
(1.06462 0.0615494 0)
(0.638388 0.0473774 0)
(1.0296 0.0228775 -3.44626e-21)
(1.07602 0.0538914 -1.29171e-20)
(0.883562 0.125235 5.8271e-21)
(0.308161 -0.0321371 0)
(0.320735 0.00850737 2.54043e-23)
(1.01415 0.0257953 -6.70841e-23)
(1.00145 7.79279e-05 -9.7338e-22)
(0.748626 0.0371856 -1.54253e-21)
(1.01321 0.00088946 -1.68458e-22)
(0.965454 0.064105 -4.05155e-21)
(1.01413 0.00591326 3.87831e-23)
(1.032 0.00521301 0)
(1.01627 0.00540843 -3.14465e-22)
(0.976232 0.0806206 -6.83938e-21)
(0.851345 0.124416 -3.43017e-21)
(0.382387 0.167401 0)
(1.02182 0.0117766 6.98769e-22)
(1.02847 0.0387748 0)
(1.00294 -5.84018e-05 -3.56339e-24)
(1.03155 0.00469494 0)
(1.0327 0.00139154 1.00707e-22)
(0.986027 0.136925 -2.23053e-22)
(1.0158 0.00655591 -3.00585e-23)
(1.00572 0.000284368 2.61286e-22)
(0.597658 0.0443345 2.58597e-20)
(1.00205 -2.3442e-05 5.44789e-24)
(1.0035 -6.83828e-05 0)
(1.01484 0.00440357 0)
(0.715597 0.102396 -9.44849e-21)
(1.02263 0.0192168 -5.39758e-22)
(0.739574 0.0236755 2.06822e-21)
(0.48121 0.0986985 5.19207e-21)
(1.01065 0.101345 -1.59282e-21)
(0.22655 0.00295805 0)
(0.305334 0.118673 -8.57454e-21)
(1.00676 -0.000247568 0)
(1.01228 0.0256595 1.19184e-22)
(1.01548 0.00780137 3.13033e-22)
(0.658118 0.0482802 2.04578e-20)
(1.06329 0.0159968 1.21269e-20)
(0.457434 0.00260473 9.27931e-21)
(1.04984 0.0520274 0)
(1.00259 -2.3755e-05 8.57731e-23)
(1.03812 0.0128345 0)
(1.04773 0.0533632 -1.4884e-20)
(1.0678 0.0298914 2.91419e-20)
(1.0224 0.0192559 3.45256e-22)
(1.05616 0.0135693 -8.32057e-21)
(1.01539 0.00772763 0)
(1.0273 0.0115065 1.92626e-21)
(1.04088 0.065007 3.67901e-21)
(1.07748 0.0711881 0)
(1.06694 0.06519 0)
(1.02684 0.0112178 0)
(1.03942 0.0629285 2.53432e-21)
(1.01248 -0.000929242 -6.11432e-23)
(0.965409 0.00396747 7.12963e-21)
(1.04943 0.0523631 8.2023e-21)
(1.07321 0.0600375 6.34813e-21)
(1.04911 0.0639299 7.10976e-21)
(0.478991 0.0190876 4.28717e-20)
(1.0121 0.00184765 3.48334e-22)
(0.377155 0.00883693 -1.74858e-20)
(1.03914 0.028299 -5.30786e-21)
(0.677658 0.0505789 -2.1839e-20)
(1.01318 0.00214098 -7.64976e-23)
(1.01555 0.00663508 -1.7506e-23)
(1.02325 0.0286899 2.2818e-21)
(0.416259 0.00968533 0)
(0.309802 0.00734906 -2.40254e-20)
(1.02345 0.0178814 0)
(0.991637 0.103508 -1.07409e-20)
(1.01882 0.0168565 2.47656e-22)
(1.02924 0.0399464 0)
(1.01324 0.000874265 -4.35134e-24)
(1.04773 0.0546387 -2.2062e-22)
(1.01905 0.0127007 6.36803e-22)
(1.01013 0.00246545 -1.68394e-22)
(1.01973 -0.00781871 -2.92521e-21)
(1.01873 -0.0100958 6.07034e-22)
(0.385909 0.163544 -1.06331e-20)
(1.07616 0.0531114 6.8042e-21)
(1.01485 0.027818 -5.97372e-23)
(0.696181 0.087891 1.75549e-20)
(1.00897 0.000596891 0)
(1.00882 0.000157122 -2.48494e-22)
(1.00882 0.000146957 0)
(0.275017 0.134511 8.99863e-21)
(1.04646 0.0640036 9.03548e-21)
(1.03578 0.0606442 4.32661e-21)
(1.02017 0.00130808 0)
(1.0026 -6.43449e-05 -1.49563e-23)
(0.813322 0.122236 -1.10007e-20)
(0.368754 0.00765104 -1.85951e-20)
(1.00801 0.000176987 1.42033e-22)
(1.00777 0.000160904 -1.27368e-22)
(1.00075 -8.39163e-05 0)
(1.00919 0.000132113 0)
(1.0092 0.000118066 -2.67793e-22)
(0.48523 0.0226092 1.07255e-20)
(0.441997 0.146905 0)
(1.01711 0.0102434 -6.65378e-23)
(1.00793 -0.000407525 -1.34705e-23)
(1.05308 0.0531437 0)
(0.46037 0.0193352 0)
(1.00223 -1.59129e-05 1.29657e-23)
(1.01992 0.00127177 0)
(0.967502 0.109425 6.97437e-21)
(0.955598 0.0637511 0)
(1.04528 0.0648946 -4.0616e-21)
(0.68323 0.0850529 0)
(1.05105 0.0530764 0)
(1.01432 0.0060181 -1.3543e-21)
(0.374575 0.110107 4.71444e-21)
(1.05336 0.0537866 2.35454e-21)
(1.01027 0.0198632 -2.957e-21)
(1.06651 0.0550888 4.08359e-21)
(1.02361 0.0176181 0)
(0.438809 0.151538 1.26984e-20)
(1.03285 0.00263064 4.86113e-21)
(1.04173 0.0452106 -4.56009e-21)
(1.04971 0.0511492 0)
(1.01688 0.010235 1.05614e-21)
(1.00031 -1.52226e-05 0)
(1.03591 0.0197113 0)
(1.02109 0.0040877 3.48964e-22)
(1.01323 0.00193949 0)
(0.402104 0.0142357 1.70521e-20)
(0.634952 -0.159398 1.22938e-21)
(1.01279 0.000683484 -1.48328e-22)
(1.00755 0.000180458 0)
(1.01596 0.00663723 1.20084e-22)
(1.00758 0.000197671 0)
(1.03305 0.00228945 8.66842e-21)
(1.01478 0.000235896 -3.04371e-21)
(1.05194 0.0404499 -6.23937e-21)
(1.01326 0.000666317 -1.5969e-22)
(0.325455 0.0113103 2.29141e-21)
(0.560435 0.0971462 0)
(1.02352 0.0091288 -1.90197e-21)
(1.01815 0.00495139 0)
(1.04703 0.035202 -2.88627e-21)
(1.0093 -4.43717e-05 -6.44866e-23)
(1.01418 0.0770632 -6.09888e-22)
(0.421798 0.0180903 8.042e-23)
(1.00928 -3.55368e-05 6.639e-23)
(0.428757 0.0129842 2.33635e-20)
(1.01293 0.00178248 0)
(0.728046 0.101427 0)
(1.00209 -2.61802e-05 1.17679e-24)
(1.01944 0.0178262 -2.11344e-23)
(1.01686 0.0103895 -1.25946e-22)
(1.01343 0.00536886 7.82787e-22)
(1.06045 0.0706976 0)
(1.00475 0.000252462 -1.50709e-21)
(1.0156 0.10952 -1.96697e-21)
(1.0366 0.0327487 0)
(0.616976 -0.173492 -7.7968e-23)
(1.01737 0.00657655 0)
(1.056 0.10041 0)
(0.30421 0.00789586 -2.40468e-21)
(1.00341 -2.1664e-05 -2.49008e-22)
(1.05716 0.0477802 -9.41126e-21)
(1.01974 0.00234295 3.8875e-22)
(1.02877 0.0233953 -3.87686e-21)
(1.01741 0.00115528 -1.13437e-23)
(1.03248 0.021473 -9.09049e-21)
(1.01238 0.00177017 -1.27376e-22)
(1.0058 0.000322033 7.33503e-22)
(1.04899 0.0516898 6.01967e-21)
(0.994797 0.00945806 0)
(1.04136 0.0444913 7.79281e-21)
(1.03248 0.0209401 2.99621e-21)
(1.01959 0.00134293 -2.20739e-21)
(0.623833 0.0470078 -2.52622e-20)
(0.404429 0.00785362 0)
(1.01162 0.00292629 6.63995e-23)
(1.01277 0.00353102 -1.25855e-23)
(1.02937 0.0236382 0)
(1.01384 -0.0703713 0)
(1.08436 0.0599485 -3.99202e-20)
(0.573053 0.0799946 -5.66424e-21)
(0.511063 0.00530722 -7.26017e-21)
(1.00547 -0.00879775 4.59522e-23)
(1.06052 0.0610786 1.08766e-20)
(1.01815 0.00538997 -2.91608e-22)
(0.997336 0.0715128 -1.96317e-20)
(0.974514 -0.0843241 -4.09117e-22)
(1.0809 0.0702747 0)
(1.01435 0.00023878 0)
(1.0201 0.0190466 0)
(0.998315 0.116655 0)
(1.01548 0.00745128 6.2098e-23)
(1.03022 0.0132627 5.54967e-22)
(1.07214 0.0597828 6.25839e-21)
(1.00188 -3.38346e-05 -2.55087e-22)
(0.670099 0.0494974 -7.26372e-23)
(1.01517 0.00168911 0)
(1.07941 0.0343465 0)
(1.01217 -0.000347982 -4.16229e-22)
(0.429076 0.0299328 5.99909e-20)
(1.00886 0.00168528 9.21488e-22)
(1.04207 0.0428672 -1.13772e-21)
(1.01777 0.0170397 9.71006e-23)
(1.00831 -0.00992023 -4.38355e-23)
(1.00292 1.56625e-05 1.63225e-22)
(1.06841 0.0548493 9.15928e-21)
(0.992933 0.0664429 6.24148e-21)
(1.02287 0.0141224 1.6255e-21)
(1.01547 0.00722889 6.65385e-23)
(0.552169 0.0376892 -1.40249e-20)
(0.984564 0.066698 0)
(0.744842 0.0669681 -2.7561e-21)
(0.67791 -0.0275101 0)
(1.00894 -2.10818e-05 3.03309e-23)
(1.01792 0.0107572 -7.302e-22)
(0.944329 0.0633342 0)
(1.05989 0.0584512 -1.27908e-20)
(1.00895 -1.16899e-05 -2.61914e-22)
(1.0193 0.00101699 3.69848e-22)
(1.02441 0.0116547 2.83265e-21)
(1.00709 0.0420206 0)
(1.04227 0.0436221 -3.7962e-21)
(1.05281 0.0607956 1.39062e-21)
(1.05072 0.0573591 4.34157e-21)
(1.01052 0.0751648 -3.12607e-22)
(1.07599 0.0356731 2.17642e-20)
(0.51203 0.0306145 0)
(1.01223 0.00357505 1.57349e-22)
(1.02326 0.0142291 0)
(1.01592 -0.00114488 7.54201e-22)
(1.06774 0.0749889 -7.97152e-21)
(1.00173 -3.86938e-05 9.52104e-23)
(0.462916 0.0131212 -5.11936e-20)
(1.07637 0.0350219 -1.56624e-20)
(0.915199 -0.08487 -9.72141e-22)
(1.02272 0.012471 4.2282e-21)
(1.05604 0.0579742 0)
(1.01405 0.00411293 -1.95435e-23)
(0.980858 0.0543132 0)
(1.01393 0.00133441 -2.33518e-22)
(1.03668 0.063505 -4.73797e-21)
(1.04863 0.0372189 1.96085e-21)
(1.01646 0.01598 2.23622e-22)
(1.02372 0.00950162 -6.17774e-21)
(1.05609 0.0900872 0)
(1.01339 -0.000444382 0)
(0.456336 0.0905864 -4.78577e-21)
(1.04815 0.065072 -7.60402e-21)
(1.01377 0.00114982 -2.35307e-22)
(0.977907 0.0267253 8.91357e-21)
(1.01643 0.0106006 4.24777e-22)
(1.04349 0.00818669 -1.89559e-21)
(1.00952 0.00114129 5.18096e-23)
(0.503774 0.0434748 0)
(1.03989 0.0154032 1.02629e-21)
(1.02649 0.0198535 -1.00442e-22)
(0.77034 0.111297 6.36732e-21)
(1.0094 0.0664285 0)
(1.02338 0.0168147 3.29002e-21)
(0.608844 0.0879998 -1.28309e-21)
(1.09533 0.0611224 -1.02381e-20)
(1.02726 0.0191461 -8.39515e-22)
(1.05909 0.0713886 5.9084e-21)
(1.01851 0.0107663 9.48934e-22)
(1.00455 0.0669331 2.99632e-22)
(1.07948 0.0712107 2.06808e-20)
(1.0153 0.00149338 0)
(1.05718 0.0233998 -1.27136e-20)
(1.03315 0.0208438 3.78125e-21)
(1.01351 0.00534501 7.71644e-22)
(1.01087 0.00242245 2.86516e-23)
(1.01246 0.00388119 -1.7551e-22)
(0.220661 -0.0412462 0)
(1.01873 0.097736 1.6254e-21)
(1.02299 0.0133951 2.12057e-21)
(1.01263 0.00377218 -3.64132e-24)
(1.01523 0.00755179 -3.16964e-22)
(1.05322 0.0472486 -1.64125e-20)
(1.07522 -0.0239797 0)
(1.01054 -0.000163677 0)
(1.00662 -0.000223325 0)
(1.08354 0.0597 2.66699e-20)
(1.05513 0.0596186 0)
(1.01366 0.00562759 8.58311e-22)
(1.0266 0.0195575 8.35612e-23)
(0.674294 0.0162539 0)
(0.856113 0.144988 2.98647e-21)
(0.999235 -0.000705151 0)
(1.06922 0.0650924 0)
(1.03879 0.0732353 4.18484e-21)
(1.01248 6.12145e-05 5.11714e-22)
(1.01007 -0.000113987 -2.52901e-22)
(1.02071 0.0259738 1.97138e-21)
(1.01075 0.00231377 1.6896e-23)
(1.0105 -0.000153376 2.57108e-22)
(1.01712 0.010427 -1.21123e-21)
(1.01007 -0.000103005 -4.67991e-24)
(1.01217 5.47517e-05 0)
(0.382925 0.128918 -8.23589e-22)
(1.01882 0.0111343 -6.08704e-23)
(1.03174 0.0449693 0)
(0.341102 0.0135583 0)
(1.05626 0.047319 0)
(1.01034 0.00259278 4.80502e-22)
(1.03084 0.00473873 0)
(0.63246 0.0929177 0)
(1.02232 0.0278622 -1.1421e-21)
(0.349202 0.00532596 2.13836e-20)
(1.01159 -0.000287289 0)
(1.02117 0.0037554 -4.28158e-21)
(1.01375 -0.00054758 0)
(1.00959 0.000113731 2.90516e-22)
(1.02472 0.0193321 2.13249e-21)
(1.01609 0.0103355 -1.40214e-22)
(0.705885 0.0149998 0)
(1.00949 -0.000957566 0)
(0.935105 0.0639685 2.47223e-21)
(1.0209 0.00380657 0)
(1.06423 0.0355993 -1.07668e-20)
(1.0091 0.00300692 -3.15776e-22)
(1.01878 0.0122584 0)
(1.05074 0.0529657 0)
(0.733161 0.0592688 1.3978e-22)
(1.02437 0.0113137 -2.90513e-21)
(0.681371 0.16213 -2.51414e-22)
(1.01062 0.00282249 2.72699e-23)
(1.00976 0.000849108 1.47459e-21)
(1.01503 0.00727212 -3.28332e-22)
(1.01667 0.0109198 -6.35219e-22)
(1.0097 0.00221492 9.71375e-23)
(1.01245 0.000850853 0)
(0.61294 0.0456772 3.00623e-21)
(0.389797 0.0112302 -6.50945e-21)
(1.00949 0.0020956 0)
(1.04981 0.0964694 -9.06685e-21)
(1.08202 0.0602564 0)
(1.01909 0.000449751 4.9317e-21)
(1.05608 0.0491935 -8.84831e-21)
(1.0868 0.0475554 7.69226e-21)
(0.56535 0.101064 9.68214e-21)
(1.05969 0.0244942 -1.44557e-20)
(0.951212 0.0638102 9.17235e-21)
(0.995849 -0.0539515 -1.50836e-21)
(1.00481 -0.0555247 1.26432e-21)
(1.01628 0.0106982 -5.34135e-22)
(1.00535 -0.00379711 3.61406e-22)
(1.00825 0.00505586 0)
(1.0233 0.0171319 -1.1052e-22)
(0.936063 0.0740474 0)
(1.00459 1.75643e-05 -9.8258e-23)
(1.02141 0.0109868 0)
(1.02287 0.0145252 3.79903e-21)
(1.05958 0.0207168 -9.94746e-21)
(1.02314 0.033102 7.76046e-22)
(1.07462 0.0702018 -9.8458e-21)
(1.06611 0.0471414 -1.74214e-20)
(1.02011 0.00336532 0)
(1.01887 0.00427157 6.95761e-22)
(1.00637 -0.000817926 0)
(1.03457 0.0535083 -5.73763e-21)
(1.02266 0.0131931 -2.09668e-21)
(0.59622 -0.0040125 -2.37482e-21)
(1.05552 0.0393163 -8.756e-21)
(1.03749 0.0326419 4.99879e-21)
(0.461712 0.0712977 1.89991e-23)
(1.01536 0.00191399 -3.91983e-21)
(1.03489 0.0549242 6.37458e-21)
(1.04678 0.052773 0)
(1.00928 0.00153101 2.097e-23)
(0.506079 0.0362227 -1.64445e-21)
(1.0098 0.00085145 0)
(1.00957 0.000103635 0)
(1.05388 0.0477532 1.68292e-20)
(1.0115 -0.000277571 0)
(1.00929 0.000639054 -7.91086e-22)
(1.04984 0.0516964 0)
(0.564693 0.0436871 0)
(0.65988 0.110763 5.83758e-21)
(1.01482 0.00415436 1.61784e-21)
(1.04287 0.0119286 1.19126e-20)
(1.01955 0.00024263 2.67108e-22)
(0.96097 0.0606366 2.6049e-21)
(0.947696 0.024553 -5.31938e-21)
(1.02215 0.0125022 3.85452e-21)
(1.02222 0.011804 2.29557e-21)
(1.01444 0.0037345 0)
(1.05004 0.0500152 1.31064e-20)
(0.906832 -0.159015 3.66586e-21)
(1.01225 0.00319623 -1.30055e-23)
(1.00231 -3.98204e-05 3.8002e-23)
(1.01538 0.00649052 -1.13395e-23)
(1.0134 0.0051355 -2.43594e-21)
(1.01122 0.00096488 0)
(1.04508 0.0327236 0)
(1.00406 2.46507e-05 1.90903e-22)
(1.06537 0.0476877 1.80725e-20)
(1.00922 0.00144778 -5.9838e-22)
(1.01559 0.00802428 -2.01946e-21)
(1.03319 0.0203572 1.7907e-21)
(0.567474 0.0623797 3.14276e-20)
(1.00599 0.000196161 -1.26613e-22)
(1.04992 0.0174122 4.07971e-21)
(1.01328 0.00203326 0)
(1.06375 0.034769 -1.86812e-20)
(1.0572 0.0524865 -5.04888e-21)
(0.999016 0.0318763 2.19552e-21)
(1.05001 0.0516283 0)
(1.02067 0.0917751 0)
(1.03128 0.0192408 0)
(1.00922 0.00293554 3.22085e-21)
(0.705863 0.05277 1.11979e-20)
(0.412412 0.131703 0)
(0.361681 0.0171605 -1.62675e-20)
(1.01124 0.00248513 -4.11683e-23)
(1.01472 0.00682942 0)
(1.02121 0.00395901 -2.14347e-22)
(1.02319 0.00673996 0)
(0.845011 0.0757983 8.74692e-21)
(1.00967 -4.80331e-05 0)
(0.813402 -0.18803 0)
(1.0399 0.0281048 7.76052e-21)
(0.800185 0.0586511 1.99369e-20)
(1.0165 0.0819132 8.58388e-22)
(1.05724 0.0136877 2.45368e-21)
(0.0951203 -0.0220112 1.68796e-20)
(1.00946 0.00203438 -4.70002e-22)
(1.08311 0.0454392 3.00455e-20)
(1.00354 9.22232e-05 -1.24008e-22)
(1.01349 0.000766174 1.09323e-21)
(0.763008 0.0557913 1.48231e-20)
(1.01105 -0.000220572 6.39258e-23)
(1.08628 0.0664113 4.31086e-20)
(1.00234 -5.38398e-05 4.11837e-23)
(1.01759 0.000214536 -2.64486e-21)
(1.01492 0.00709137 0)
(1.07446 0.0693859 9.44076e-21)
(1.01126 -0.00036265 -3.54081e-22)
(1.00686 0.000193969 -1.34025e-22)
(1.07649 0.0609104 0)
(1.05545 0.0486564 -1.98861e-21)
(0.914444 0.184911 3.15294e-21)
(1.01519 0.0791286 0)
(0.640346 0.0481599 1.10255e-20)
(0.53826 0.102295 -5.45632e-21)
(1.00598 0.000199633 1.46545e-22)
(0.387378 0.00703757 -5.84521e-21)
(1.00437 -7.35608e-05 4.45104e-23)
(0.341674 -0.0168856 0)
(0.864072 0.107207 0)
(1.01325 0.000505513 -3.06205e-22)
(1.01664 0.00534444 1.1863e-22)
(1.00244 -1.75452e-05 1.80616e-22)
(1.05504 0.0388818 0)
(1.05564 0.012506 9.07873e-21)
(1.01099 -0.000208458 -6.57556e-23)
(1.00349 0.000112644 0)
(1.01319 0.000350182 -2.1002e-21)
(1.04751 0.0797257 -1.33748e-20)
(1.01594 0.00489304 -1.02759e-21)
(1.07565 0.0475344 2.17334e-20)
(1.021 0.0106584 0)
(1.00673 0.000177984 3.18637e-22)
(1.00258 -1.68108e-05 3.03671e-22)
(1.04296 0.0459107 -1.64985e-22)
(0.85719 0.0954644 -4.967e-21)
(0.248088 0.0217071 -2.70056e-20)
(1.06618 0.0540588 -1.15874e-20)
(1.04574 0.0322788 0)
(1.05725 0.0876398 -3.32801e-21)
(0.464565 0.0206257 -2.31371e-20)
(1.0098 0.00116416 -6.81774e-23)
(0.848042 0.0690928 0)
(1.01273 0.000118379 4.52844e-21)
(1.08862 0.053164 -3.53233e-20)
(1.02294 0.00689324 7.47715e-21)
(1.06606 0.0882474 6.03591e-21)
(1.01313 0.00490119 9.46351e-22)
(1.0105 0.00222133 0)
(1.03268 0.00525062 0)
(0.913644 0.177281 -1.09429e-21)
(1.05347 0.0402637 -1.09246e-20)
(0.795557 0.08283 -9.1734e-21)
(1.00409 3.86139e-05 -6.3993e-24)
(1.05187 0.0393469 -6.76572e-21)
(1.01305 0.00249529 0)
(1.00173 -6.15929e-05 -2.58477e-22)
(0.526329 0.0357713 -5.62853e-22)
(0.996083 0.0983342 1.44862e-23)
(1.01372 0.00229615 -5.28014e-23)
(1.05178 0.0618848 -1.74839e-21)
(1.01981 0.00142485 3.31634e-21)
(1.01398 5.11203e-05 0)
(1.00226 -5.31188e-05 0)
(0.544762 0.040675 3.4238e-20)
(1.01612 0.00483372 1.04334e-21)
(1.02123 0.00293761 0)
(1.00966 -5.60058e-05 1.65424e-22)
(1.01343 0.00235039 -3.43662e-22)
(1.06604 0.0745998 0)
(1.00266 -4.93091e-05 -4.78569e-23)
(1.05584 0.0627981 -4.2814e-21)
(1.00207 1.87757e-05 -6.74274e-24)
(1.00904 0.00171783 0)
(0.282629 -0.00421959 -4.43881e-22)
(1.07603 0.0482117 0)
(1.02182 0.0120934 -2.26218e-21)
(0.260507 0.00333342 0)
(1.08684 0.0658968 -3.98482e-20)
(1.07596 0.00995067 2.44542e-22)
(1.04687 0.0515524 0)
(1.00926 0.0019177 3.33902e-22)
(1.02111 0.0200788 -4.37595e-22)
(0.550904 0.0584918 -1.95975e-22)
(1.09071 0.0639507 4.77413e-23)
(1.02171 0.0257594 0)
(1.02526 0.0201589 -6.52107e-22)
(1.00949 0.00253307 -9.12734e-22)
(1.00269 3.95449e-05 8.23058e-23)
(1.01266 0.0043277 0)
(1.00184 -0.00975 8.47446e-23)
(1.05614 0.0535418 0)
(1.03566 0.0261358 -2.31526e-21)
(0.403886 0.0723371 -1.2389e-21)
(1.05427 0.0406993 1.33662e-20)
(1.07772 -0.0210264 1.0552e-21)
(0.913427 0.0194171 -4.04057e-21)
(0.997036 0.0139154 0)
(1.04459 0.0411876 -1.00821e-20)
(1.05081 0.0647143 0)
(0.442966 0.0155531 2.10793e-20)
(1.01239 0.00183583 0)
(1.01041 0.0160336 9.20942e-22)
(1.00018 -0.0152049 0)
(1.00914 0.00173198 0)
(1.00413 9.94882e-05 1.04209e-22)
(1.00261 -2.73527e-05 -8.47095e-23)
(1.02098 0.000178739 0)
(1.0104 0.000715888 0)
(0.393163 0.0075376 6.41812e-21)
(1.07415 0.0301183 1.29222e-20)
(1.00667 0.000403504 0)
(1.0719 0.0585547 -6.48604e-21)
(1.00439 4.66578e-05 3.09753e-22)
(0.590764 0.0839834 -1.24069e-20)
(1.01291 0.00165614 0)
(1.01202 0.00330795 0)
(0.532591 0.0401887 0)
(1.05821 0.0512668 1.22949e-20)
(0.912478 -0.0901683 2.23269e-21)
(1.03458 0.00728291 0)
(1.01504 0.000643094 0)
(1.01191 0.00271245 2.28898e-23)
(1.03983 0.00983854 -5.32689e-21)
(1.0545 0.0302698 -6.12632e-22)
(1.01303 0.00505075 1.02123e-21)
(0.337056 0.00775445 -1.85592e-20)
(1.03675 0.0355679 0)
(0.860155 -0.132721 -2.6534e-21)
(0.929065 -0.0624462 2.64811e-21)
(1.00891 0.0145167 -9.94127e-22)
(0.641019 0.0489217 0)
(1.04256 0.0124435 0)
(1.00444 0.000178713 -2.82141e-22)
(1.01328 0.00244471 3.64588e-22)
(0.437515 0.0205835 -1.60511e-20)
(0.703987 0.105142 0)
(1.03905 0.0290879 -5.93412e-21)
(0.35544 0.00702976 0)
(0.832593 -0.17627 -1.75006e-21)
(1.00904 0.00181471 -1.11905e-21)
(1.01183 0.00305586 0)
(1.02424 0.0190713 3.80597e-21)
(0.965916 0.066036 0)
(0.964176 -0.0960192 0)
(1.05277 0.040897 -3.61519e-21)
(1.03913 0.00973781 4.48851e-21)
(1.04952 0.0179447 0)
(1.08945 0.0534126 3.70456e-20)
(1.01753 0.00576728 2.41271e-22)
(1.05415 0.0613067 8.92082e-21)
(1.07352 0.030921 0)
(1.02216 0.0139314 -2.3111e-21)
(1.03354 0.0160463 -9.52902e-21)
(1.00436 0.000172862 3.26266e-22)
(1.05376 0.0299531 0)
(1.01982 0.00465555 -6.90581e-22)
(1.09329 0.0616068 -3.95221e-20)
(1.0278 0.0236987 1.71791e-21)
(1.01689 -0.00378799 3.51459e-22)
(0.343413 0.00717361 -2.49505e-20)
(1.0144 -0.000785382 0)
(0.82895 -0.183384 -1.32249e-21)
(1.02553 0.0197955 -2.51246e-21)
(1.02488 0.0167899 2.80753e-22)
(1.04287 0.027494 -3.79638e-21)
(1.09105 0.0637988 1.72159e-20)
(1.00283 1.97718e-05 -1.04204e-22)
(1.08343 0.0437025 -1.34735e-20)
(0.891838 0.0920154 1.19129e-20)
(0.907234 -0.0416355 1.64333e-22)
(1.02401 0.00672324 2.39752e-21)
(1.02842 0.0239812 4.16573e-21)
(1.00834 0.000360876 5.84086e-22)
(1.02115 0.00529253 4.48178e-21)
(1.03251 0.00417512 1.18143e-21)
(1.0065 0.0154836 0)
(1.0082 0.000568502 0)
(1.0462 0.0468859 3.24507e-21)
(1.05471 0.0626772 0)
(1.00903 0.00174488 2.91513e-22)
(1.09092 0.0628033 -1.21917e-20)
(1.06211 0.0171323 2.42292e-20)
(1.05928 0.0212953 1.60599e-20)
(1.05219 0.0633924 0)
(1.01793 0.0110261 -6.97911e-22)
(1.08223 0.0457195 1.45086e-20)
(1.01913 0.124774 -8.90327e-22)
(1.00619 0.000189129 -1.70709e-22)
(1.059 0.0511447 0)
(1.05004 0.0535918 5.72897e-21)
(1.07232 0.0308713 0)
(1.01159 0.00360975 1.96609e-22)
(1.00995 0.00240765 -8.50175e-22)
(1.01256 0.00423607 0)
(0.400263 0.0084034 9.51249e-23)
(1.03268 0.0150951 -4.94006e-21)
(1.01315 0.00151705 -8.38002e-24)
(1.07813 0.0342537 0)
(1.01327 0.00528383 -1.35556e-21)
(1.01076 0.0027823 -8.48901e-23)
(1.05 0.0556938 -8.97983e-22)
(1.00799 0.114625 2.91072e-22)
(0.997933 0.0106493 7.19806e-22)
(0.819956 0.152595 -1.5335e-21)
(1.00948 0.0402316 0)
(0.936204 0.0622881 0)
(1.03292 0.00378715 -1.28649e-20)
(1.01483 0.00641359 2.37454e-22)
(1.06832 0.0872616 8.95163e-21)
(1.01352 -0.000245087 -6.22923e-22)
(1.0307 0.0122694 2.51251e-22)
(1.00273 4.48304e-06 9.29917e-23)
(1.00413 6.75758e-05 9.36413e-23)
(1.03329 0.00814177 5.19318e-21)
(1.02676 0.0238808 -1.77602e-21)
(0.997121 0.0350269 7.7798e-22)
(1.01147 0.00352202 2.54899e-23)
(0.995776 0.00776622 3.20557e-22)
(1.01493 0.00597084 -1.73163e-23)
(0.883185 0.108981 0)
(1.026 0.0200669 0)
(1.06018 0.0237535 1.63224e-20)
(1.01205 -0.00034655 -3.08205e-22)
(1.06574 0.0555634 -2.62243e-20)
(1.02 0.0183112 -1.96146e-23)
(0.715789 0.0946611 -9.08398e-21)
(0.995574 0.0132811 7.25919e-22)
(1.00171 2.33881e-05 4.9064e-23)
(0.569107 0.0725823 -2.05799e-20)
(1.03306 0.0167431 3.65644e-21)
(0.397483 0.0127555 -1.70354e-20)
(1.05547 0.0109218 0)
(0.980691 0.0182755 -1.94868e-21)
(1.01669 0.00617643 2.88535e-23)
(1.01084 0.00210917 1.13474e-23)
(1.02372 0.0063454 -8.916e-23)
(0.685556 0.0494052 0)
(1.05227 0.0303004 -6.97781e-21)
(1.08303 0.000529412 -5.20581e-22)
(0.807927 0.147718 -7.70562e-21)
(1.02088 0.00512743 0)
(1.07194 0.0316822 0)
(1.00778 -0.000388806 0)
(1.02007 0.00724677 -3.4443e-22)
(0.941611 -0.10276 3.26015e-21)
(1.00818 -0.000436747 -1.49396e-23)
(0.406668 0.116233 2.17062e-21)
(1.05141 0.0169883 0)
(0.979565 0.0237628 0)
(1.06695 0.0622165 -2.75819e-22)
(1.08406 -0.0069689 -1.10426e-21)
(1.0081 0.000355827 0)
(1.00469 0.000162623 -6.19801e-23)
(1.0522 0.0576246 4.25622e-21)
(1.00924 0.00185446 -1.37487e-22)
(1.02069 0.0109811 2.95513e-21)
(1.02788 0.0187415 -3.61297e-21)
(1.01441 0.00641319 2.3708e-22)
(1.07752 0.0349644 -2.32077e-21)
(1.00792 0.000331582 -6.33517e-23)
(0.965369 0.0313784 2.02472e-21)
(1.02177 0.0138373 2.24293e-21)
(0.448653 0.0121949 4.73932e-20)
(0.38747 0.0119108 2.19288e-21)
(1.00285 -0.0674343 0)
(0.923554 0.0630101 -4.98868e-21)
(0.721705 0.154888 2.41743e-22)
(0.43865 0.0103659 -4.83845e-20)
(1.02382 -0.0659416 0)
(1.00835 0.00145962 6.70778e-22)
(1.01443 -0.000178044 -2.59272e-22)
(1.02756 0.00762713 6.01515e-21)
(1.03006 0.0169945 -4.79254e-21)
(1.01448 0.00395312 0)
(1.05316 0.0306207 1.56261e-21)
(1.01615 0.00608751 -1.05504e-21)
(1.06185 -0.0337431 1.78416e-21)
(1.02106 0.0113334 -4.56475e-21)
(1.08421 0.0741007 -1.61206e-20)
(1.03248 0.014376 0)
(1.07213 0.0252798 2.35057e-20)
(1.0481 0.0603798 0)
(1.01157 0.00231819 4.42638e-23)
(1.029 0.044189 3.03263e-21)
(1.03265 0.0169123 9.35547e-22)
(1.01356 0.00223837 1.34261e-23)
(1.04707 0.027114 -9.35622e-21)
(1.01357 -0.00036952 0)
(0.639778 0.0494257 0)
(1.05586 0.0544574 0)
(0.99555 -0.0100463 0)
(1.01164 0.0028165 0)
(1.02482 0.000418187 0)
(1.01536 0.00748425 -2.16598e-22)
(1.01518 0.00612695 0)
(0.485063 0.0809879 0)
(1.00859 0.00160565 3.46986e-22)
(1.00429 0.0961915 0)
(1.01303 0.00473352 4.73617e-22)
(0.964318 -0.0773805 0)
(1.01753 0.0171146 2.92827e-23)
(1.01477 0.00610162 2.15632e-21)
(1.08377 0.0444156 8.37994e-22)
(1.02758 0.00565133 0)
(1.00877 0.00172418 -1.72246e-22)
(0.926439 -0.021797 -8.09446e-21)
(0.885541 0.0738501 0)
(1.02262 0.0176489 0)
(1.06759 0.0554702 1.04265e-20)
(1.00921 0.00167735 -8.35619e-23)
(1.00784 0.0884253 0)
(1.0151 3.90513e-05 1.4154e-22)
(1.01519 0.00622301 0)
(0.496524 0.0255949 2.13149e-20)
(1.00385 5.0196e-05 5.52279e-23)
(1.0379 0.013879 0)
(1.07088 0.0581942 1.23286e-20)
(0.481703 0.0203464 -4.08459e-20)
(1.01594 0.0002142 -1.45426e-22)
(0.995263 -0.0734256 0)
(1.06322 0.0900722 0)
(1.0146 0.00172781 0)
(1.0155 0.00851084 -8.49471e-23)
(1.01461 0.00665583 2.35185e-22)
(1.05788 0.0743683 0)
(1.024 0.000903486 1.06243e-21)
(1.07686 0.0619154 -1.73919e-20)
(1.02845 0.00999507 8.88105e-23)
(0.515024 0.0381996 0)
(1.01878 0.0179363 -2.53457e-23)
(0.836699 0.0117155 -1.04895e-20)
(1.01264 0.00390624 0)
(1.01052 -0.000282585 -1.17102e-22)
(1.034 0.00793421 8.48208e-22)
(1.01058 0.000482399 1.2005e-21)
(1.01429 -0.00112757 -1.19363e-24)
(0.749223 0.0557213 -2.17523e-20)
(1.02506 0.017413 1.20241e-21)
(1.01055 0.00260037 -1.455e-21)
(0.878928 -0.110936 -5.36945e-22)
(1.01432 0.0016679 0)
(1.0149 -0.000349242 2.56472e-22)
(1.05695 0.0534728 -6.23939e-21)
(1.0268 0.0186464 -1.61259e-21)
(0.828452 0.0765226 0)
(1.03201 0.0436118 2.56961e-22)
(1.08532 0.0481827 1.5279e-20)
(1.04843 0.0509649 0)
(1.04856 0.0179202 4.13042e-21)
(0.533412 0.0369815 2.49738e-23)
(1.02209 0.0146114 2.98843e-21)
(1.058 0.0523192 0)
(1.02243 0.00362361 4.37263e-21)
(0.369527 0.014597 -1.868e-20)
(0.97612 -0.0760627 1.45741e-21)
(1.03626 0.00689444 6.89332e-21)
(1.01504 -0.000185531 1.44505e-22)
(1.0135 0.00172678 7.79855e-22)
(1.02247 0.0125984 0)
(1.01435 -0.000245377 1.02527e-25)
(1.01158 0.000326415 1.68096e-22)
(1.01279 0.000647244 -5.46776e-22)
(1.02368 0.00578437 9.45757e-21)
(1.04368 0.0336058 0)
(1.00609 0.000173211 1.90451e-22)
(1.02513 0.0170103 1.19893e-21)
(1.07281 0.0526262 1.41088e-21)
(0.473835 0.115813 0)
(0.690452 0.0975178 1.01564e-20)
(1.07065 0.0569144 1.072e-20)
(1.01542 0.00771313 -3.76695e-23)
(1.03028 -0.00791498 0)
(1.01553 0.00536126 0)
(1.06996 0.0854008 -2.77444e-20)
(0.911142 -0.152716 0)
(0.174747 0.00175204 0)
(1.00964 5.18423e-05 -5.22961e-22)
(1.00851 0.00157155 -6.05156e-22)
(1.01715 0.00105582 -1.92097e-21)
(1.01844 0.00995877 -1.05962e-21)
(1.00943 4.27724e-05 4.93751e-22)
(1.01351 -0.000592576 1.5733e-22)
(1.01783 0.00548832 4.86747e-21)
(1.04477 0.0421005 -5.34317e-21)
(1.01068 0.00264336 0)
(0.44099 0.0538381 -2.83109e-20)
(0.928231 -0.101879 -7.5253e-23)
(1.01093 0.00324122 -5.79141e-22)
(0.713937 0.0535997 1.33999e-20)
(1.02284 0.00371029 -5.16697e-21)
(1.01254 0.00400868 1.20244e-22)
(1.02323 0.00954175 -1.47357e-22)
(0.5593 0.0457661 -1.67451e-20)
(1.03313 0.0565896 -6.92076e-21)
(1.003 -4.8787e-05 -1.0056e-22)
(0.914138 -0.119338 -2.26108e-21)
(1.01265 0.0021736 0)
(1.01244 0.00360693 0)
(1.09613 0.06403 1.77638e-20)
(1.01438 -0.00028184 1.35427e-22)
(0.956062 0.136021 -1.03965e-22)
(1.03871 0.0141982 1.05732e-20)
(0.971411 0.0274281 6.45523e-21)
(1.01038 0.00267222 -3.01502e-22)