/*--------------------------------*- C++ -*----------------------------------*\
| =========                 |                                                 |
| \\      /  F ield         | OpenFOAM: The Open Source CFD Toolbox           |
|  \\    /   O peration     | Version:  v2012                                 |
|   \\  /    A nd           | Website:  www.openfoam.com                      |
|    \\/     M anipulation  |                                                 |
\*---------------------------------------------------------------------------*/
FoamFile
{
    version     2.0;
    format      ascii;
    class       volScalarField;
    location    "100";
    object      ddt0(omega);
}
// * * * * * * * * * * * * * * * * * * * * * * * * * * * * * * * * * * * * * //

dimensions      [0 0 -2 0 0 0 0];


internalField   nonuniform List<scalar> 
13851
(
0.00190083
1.65001e-05
1.64842e-05
0.023971
1.25315e-07
3.06405e-05
-1.24007e-05
-1.21194e-06
0.174138
-1.78106e-07
-0.000350256
-9.78008e-07
5.33355e-06
-0.0702991
0.000232208
0.00526839
-0.0590323
3.36744e-06
-0.0118933
0.00211109
0.000290161
4.60979e-05
-0.125938
1.50378e-09
-0.193237
0.000756176
-0.0144769
0.758407
0.0469537
-2.57653e-07
0.0519817
-1.16056e-05
0.00104299
0.0684289
-9.16462e-05
0.011128
-1.68471e-09
-0.363702
-0.0319514
-8.90983e-06
-0.0268854
0.0803171
0.158777
-0.0128073
0.175136
-2.84461e-06
-6.2134e-07
0.0046395
2.43134e-05
4.87516e-06
-0.0154245
2.97403e-06
0.00536325
-1.85304e-05
-0.0586581
-8.53888e-06
0.0011984
-0.0146014
-0.017831
0.195334
-8.23619e-07
-0.0261142
-5.5779e-07
2.62075e-05
0.0174149
0.0129452
0.308227
0.0158296
-5.46442e-06
0.00763943
-0.00364746
0.000357932
4.74278e-06
0.239766
5.5351e-05
1.00937e-05
-0.0715459
8.54305e-07
-0.640489
3.43618e-06
-4.8129e-06
0.00225446
-1.67131e-05
-0.0553101
0.181228
0.0292999
4.32549e-05
0.0133976
9.30872e-07
0.055366
2.73101e-06
-9.63758e-06
-0.537164
0.0130995
-0.0760173
-0.015604
-8.53855e-07
0.00498999
0.0700063
-0.00239755
0.00529133
-0.00131121
0.000725885
3.81421e-06
-3.32701e-06
8.63828e-05
-3.28707e-06
0.00843624
-9.12378e-06
3.23159e-06
1.56291e-05
-3.43768e-06
-0.00535636
-0.00077438
6.08401e-05
-2.14669e-05
-7.53513e-07
-1.02092e-06
0.033054
0.0265259
-0.0064436
1.69274e-06
-8.33932e-06
0.0670945
-0.00438681
0.017715
-1.28198e-06
-0.00040454
0.0600965
0.000447174
4.19924e-05
2.73622e-05
-0.89907
0.0799109
-0.000457284
-0.0643659
0.0115466
0.0172075
0.00197876
0.000467016
0.000431393
-1.35378e-05
1.29514e-06
0.0155864
0.0830553
-3.59377e-06
9.83783e-07
0.0181526
0.0398606
-0.0001592
0.00511637
-0.00522907
-0.000951408
-0.00994837
6.62153e-07
2.77621e-06
-2.92672e-07
-0.0371314
0.000369901
1.53973e-06
4.65308e-09
0.0318229
0.000128829
0.00458379
-0.0450216
0.243108
0.255495
0.00130918
8.4503e-05
-0.126012
-5.38088e-07
-8.80658e-07
-0.000325848
7.90707e-08
-0.0978434
-0.007941
0.000724654
-7.29488e-07
3.67223e-05
0.00128738
0.00112898
-0.000833148
4.70759e-05
0.000458995
0.195103
0.0371266
0.0010373
3.83811e-05
2.09633e-06
-1.5835e-06
-0.346374
0.000365896
-0.158995
3.08018e-05
-5.41842e-06
0.00521056
0.000877283
3.40197e-06
7.04732e-06
0.000295195
-0.00852349
-0.108391
-0.0525287
0.000239275
-0.0528646
-0.0742406
-6.63324e-06
0.000451752
0.181811
3.08709e-05
0.00482382
-8.24988e-06
-0.00567543
1.84864e-07
-0.000144903
2.28091e-05
5.324e-06
0.00411564
4.13507e-06
0.00666371
-8.63537e-07
0.00225342
-0.113477
-0.0776257
3.59776e-06
0.000499568
9.72802e-09
0.00648094
-3.40829e-07
-0.000125847
-0.300811
-4.90331e-05
2.98846e-05
8.96036e-08
-0.0302402
-1.12821e-07
0.170095
-0.0594091
-0.00426845
6.91917e-09
0.00405466
0.141671
0.185189
0.00520874
0.000101295
0.00352235
0.00845992
8.27758e-06
-0.0104949
0.000242954
-0.0549267
3.9708e-05
6.62105e-08
3.27351e-05
0.00526294
0.0151062
-0.012792
-1.44644e-06
0.0141854
8.50981e-07
0.00243892
-0.00990444
3.55768e-05
0.000169859
-4.88391e-05
4.99491e-06
0.00842846
0.00348974
0.827601
-1.74334e-06
5.09342e-06
-1.92027e-05
0.207188
0.0733977
0.00038037
1.96058e-06
0.00176642
-0.00407612
0.00128139
0.000223337
0.202308
0.0988051
3.81548e-05
0.000162787
-0.498094
-2.32746e-06
-2.317e-07
0.000944209
-0.000191865
3.23075e-07
1.61692e-07
1.14792e-07
-1.31991e-07
0.000134452
-4.66317e-07
0.195145
0.000310557
-6.29569e-06
0.00159374
0.0668083
3.48355e-06
0.0026069
0.0482517
-1.48953e-05
3.0222e-06
0.000297574
-0.131526
0.106191
-7.25125e-05
3.85251e-08
-0.118899
-7.23309e-07
-0.000395134
0.0586113
0.872939
1.88652e-06
-0.774501
-0.487121
0.0178432
-0.00728031
0.00897237
-0.0872027
0.0689461
1.18572
8.13384e-06
-0.0274724
0.268523
0.0159488
0.0243601
-7.02288e-06
-0.000400539
1.85668e-05
-0.00232392
-0.014364
3.84573e-07
-7.27609e-07
5.04515e-05
0.00432062
0.0261046
-2.28458e-06
-0.0650566
-3.2798e-05
3.01076e-05
8.53071e-07
-0.245801
0.00558343
0.0053742
1.5882e-05
2.83396e-05
-0.0496314
1.73396e-06
-0.00318559
3.92267e-05
0.000296239
0.00040496
1.44345e-06
-6.88089e-06
-0.000850621
-0.00148549
-0.000982886
-0.863851
-0.040235
-2.57395e-06
-0.0374866
0.00229194
1.69361e-06
0.570518
0.000927
0.0657897
4.95473e-05
0.000562314
0.00812258
0.00127277
0.00243237
-0.0606704
1.49062e-05
-0.0086225
0.10427
5.52391e-05
-0.0593148
6.06627e-05
-0.102051
0.000146715
-0.00010622
-0.0023626
-0.00124625
3.07175e-06
3.34811e-05
-0.000250572
3.41332e-05
-2.95338e-06
0.000417645
0.0013205
4.4694e-06
0.000515284
0.080245
2.13312e-05
-0.407356
0.000164816
0.0981807
3.22308e-05
0.000663763
0.00346701
-0.0066355
5.09288e-05
-0.00158094
0.303795
0.0420014
5.17126e-06
-0.00251736
3.94509e-05
0.000556163
1.57505e-06
0.177948
-0.0208033
0.0317696
2.63986e-05
-0.000430228
-0.0311243
0.0772588
3.77223e-07
-0.0122769
-0.00324329
0.211496
0.000272988
0.28229
5.37717e-06
9.90419e-08
-0.0625061
-0.0330894
6.22596e-08
1.73012e-05
0.000483193
-3.49659e-07
-0.000155547
-0.000231648
0.000994076
2.23804e-05
1.49965e-05
1.87822e-06
0.00132831
-6.04119e-06
1.91205e-06
-0.00477165
0.00667757
3.68158e-05
0.00222894
-3.18079e-07
-3.91276e-07
2.34188e-05
-0.000743215
6.19298e-05
-3.67178e-06
1.23522e-05
-0.00358373
1.07373e-05
0.126392
-8.2131e-07
1.83593e-05
0.199497
0.000309901
5.2779e-08
-1.52038e-07
2.38905e-05
3.18146e-06
0.1423
0.0741029
0.000118201
-0.0635723
2.263e-05
-1.78671e-06
0.105258
0.00295369
0.000403544
1.84409e-06
0.0688899
0.00057817
9.03555
4.58328e-06
1.887e-05
0.00118932
0.000125744
0.0693996
-0.0294387
0.110908
-1.99213e-05
-0.00695177
3.84083e-06
0.0252145
0.000213038
0.00089318
4.98268e-05
1.38379e-05
-0.000160068
-0.000163658
1.02043e-07
0.0227384
0.099766
0.130048
-0.0118249
0.0602988
-0.0856259
-0.0064616
-6.18362e-06
5.63386e-07
0.176992
-7.17083e-07
-2.40413e-06
2.08959e-05
-0.119881
1.51313e-05
-1.05384e-05
-0.00520766
-0.00012915
-1.68713e-07
0.18485
5.881e-07
0.0701966
-0.049723
3.31313e-06
8.71425e-06
-0.0158796
0.763527
1.73307e-07
-0.0154819
0.424717
-2.6196e-07
0.0193194
-0.00731452
0.00271547
-2.01111e-05
-0.0323452
0.121159
-4.21517e-08
-0.0141983
-6.90309e-06
3.69981e-07
-0.0525301
-0.123354
-2.39522e-05
4.7685e-05
-4.65461e-07
0.00065927
0.0615607
-0.0540855
1.62588e-06
-0.106722
-2.92258e-06
-6.63342e-06
8.53712e-05
-6.32191e-06
2.10594e-07
8.54061e-06
0.0240988
-0.00210511
0.00453159
1.26027e-05
1.45081e-06
0.225069
5.80245e-07
-0.00190059
3.87112e-05
7.72533e-05
8.99898e-05
0.210813
0.0961637
3.02525e-05
-0.0099068
2.37617e-06
-0.000678511
0.104634
-0.0189856
-1.05872e-05
4.61527e-06
0.00261552
0.00424879
0.0111934
0.000627691
6.55287
-1.15198e-05
0.000132255
-0.425663
0.178524
0.00158562
0.0769728
-0.00323779
0.00656919
1.32778e-05
-0.0202926
0.52547
-1.57634e-06
-0.647142
-0.0879846
7.6516e-05
0.000465546
-5.52367e-06
-0.102556
0.000444197
-0.0799322
-5.41305e-06
4.9584e-08
-5.2693e-06
-0.000157901
-7.00602e-07
-0.0977339
7.36081e-08
-0.00273378
-2.20914e-05
0.000789547
3.30986e-06
-4.18283e-09
0.000108562
-0.108965
-1.7484e-05
-0.0589086
2.17311e-05
-4.70566e-07
1.88969e-06
-0.000337508
1.28797e-05
-0.00234215
1.85854e-05
0.000604759
0.00534784
6.04218e-07
0.080485
5.35868e-08
0.00147969
-0.0145249
0.261531
-0.00144907
0.050296
-0.00387126
-0.00390101
-0.119845
1.77119e-06
0.168767
-6.94017e-06
5.56085e-05
0.0210125
-1.59195
1.65812e-06
-0.00205717
3.09404e-06
-0.0162781
-0.0510889
-5.91762e-07
0.00532138
-0.0417331
8.49214e-08
8.16628e-08
0.000757433
0.151393
-0.213461
2.26254e-06
-0.00614592
9.96384e-06
4.47355e-07
0.0352506
-0.00429457
-0.00223837
1.58185e-07
0.00336211
0.000178327
0.000349514
-3.68398e-06
-7.61619e-06
-0.00229168
-1.47785e-05
0.00409099
0.000395912
0.000354102
0.00143189
-1.98112
-0.0107745
-0.0867942
-0.0573858
0.00478233
0.0351303
-6.54089e-05
-0.0340108
0.0027516
3.16848e-06
0.000111397
-0.0116109
5.25171e-05
3.04867e-06
2.61907e-06
0.00192732
-0.0850672
2.17497e-05
-0.0421451
-3.71253e-07
-0.139876
0.00417512
0.0191105
-0.00259491
3.19237e-05
1.6313e-05
0.0285455
-0.000467802
-0.0001199
-0.0326766
1.32757e-05
-0.420454
0.00166768
-0.0022808
2.12112e-05
-0.0306607
5.65989e-06
1.07662e-07
-6.78333e-06
8.88813e-07
0.118644
-1.33583e-07
0.0366429
0.218826
-0.00280577
-0.0688379
0.0788913
-0.00271808
-0.00145145
-0.000296881
6.92531e-08
5.25813e-06
6.2182e-07
1.81159e-06
6.88592e-08
-0.000559478
-0.00497748
0.0018418
1.1161
6.91395e-06
0.165943
-2.27633e-08
0.0115507
-7.39564e-05
-2.79913e-08
9.94154e-09
0.263741
3.06105e-05
-0.481269
-0.112752
0.000405538
0.000725222
-8.82481e-07
0.0778869
-1.04484e-05
1.574e-05
-0.0279567
1.29951e-07
-1.25331e-05
2.51401e-06
0.000268891
-0.0636874
3.18428e-05
3.28809e-05
-0.00242233
-0.0454592
-0.000176343
-2.96276e-06
0.0670504
5.62768e-07
0.0419355
6.68994e-08
1.05507e-05
-0.773946
0.00169269
0.000166379
-0.0010825
5.5132e-05
2.18352e-07
-2.18601e-08
-0.000991961
1.34668e-05
1.54103e-07
1.24572e-05
0.0010963
-9.5601e-08
0.0038767
2.43199
-0.769424
-0.000180749
0.134298
-0.00127552
3.97417e-08
0.000991254
-2.08658e-08
3.40219e-05
-0.134917
-0.0538748
0.171181
0.0984249
2.16475e-06
-2.03447e-06
-0.00277677
-1.18772e-05
-1.1039e-06
0.108983
0.00255094
-0.0570555
0.00127331
0.00164222
1.74012e-06
-3.84477e-07
0.465129
0.00155698
1.21922e-05
3.11919e-09
0.000132054
-0.000506316
-0.060769
1.94658e-06
1.85242e-07
-0.0672128
-3.13979e-06
7.50451e-05
-2.42222e-07
-0.137308
3.95148e-07
-0.0169383
-1.59065e-06
-0.00382652
0.000213277
-0.000253514
2.84625e-05
5.65959e-06
1.82582e-05
-2.05488e-07
0.0479649
-4.8682e-06
-0.0438837
1.36103e-05
0.169451
0.127459
3.2282e-05
-2.00499e-07
0.0549803
0.0864034
3.27322e-05
0.00178001
5.07095e-06
0.0297689
3.37924e-06
-0.0140461
-1.95404e-06
-2.18948e-07
-0.597893
0.000102448
-3.75476e-07
-7.36261e-06
0.0177411
-0.103826
-0.0717125
-1.64902e-06
0.0472819
-1.84499e-06
-1.60719e-07
-4.46488e-07
-6.20554e-07
3.03843e-07
-0.160576
-0.0964432
4.7459e-06
8.04131e-08
3.2024e-05
-3.49367e-06
-0.000281773
0.00381656
0.0115575
-0.086602
1.78732e-05
0.00396344
-1.73903e-06
0.000275732
0.000864886
1.67865e-06
5.81699e-08
0.238994
-0.0683025
0.000792556
0.0827621
0.000931312
-4.76351e-07
-2.70061e-05
0.00187323
-0.153509
0.000117452
-0.22499
0.00163721
2.36511e-07
-0.275051
-0.407698
-0.0642536
-0.801574
-0.0609882
-1.92349e-05
0.00144972
1.00418e-06
0.0608162
5.17225e-05
3.83039e-07
-0.120475
4.36539e-07
-1.79056e-07
-9.91041e-06
-1.70771e-06
-0.110778
-0.0131097
-3.58729e-08
-6.99659e-05
-0.141063
1.87557e-05
0.118691
-1.45034e-05
0.00141481
-0.133427
-4.88253e-07
0.0255449
5.2964e-05
2.03122e-05
-0.13562
2.35796e-06
0.0134689
0.000449412
0.00193572
1.0988e-06
-0.0223955
5.35051e-05
0.0723192
-0.185106
0.0453634
0.000401869
5.97332e-06
2.06822e-06
-2.52054e-10
-0.000111653
-3.03427e-07
0.0642602
3.32611e-05
2.17012e-07
-0.000216372
-1.92823e-05
-1.59614e-06
-2.22725e-05
5.23416e-05
9.00463e-06
5.38717e-05
-0.226348
0.0442151
5.81449e-05
-0.000210709
-0.108291
-1.24694e-05
0.00975346
3.28798e-07
-0.00011275
-4.26623e-06
-2.33822e-06
2.12376e-05
-1.86496e-06
-3.6425e-07
0.00978196
2.6607e-06
4.06505e-08
1.16418e-05
-0.686103
0.975507
0.00329766
-0.010376
4.07411e-06
-0.0569946
0.00519702
2.39126e-07
5.17592e-05
-8.5501e-06
0.026074
-1.24527e-05
0.00428891
0.504672
0.10958
0.000719817
6.53505e-06
0.216583
0.250267
-0.0412979
6.54667e-05
-5.66789e-07
1.19101e-06
-7.03774e-05
6.17056e-06
0.131473
-0.00262195
5.88365e-07
0.00283373
0.00111893
2.43423e-06
-0.212568
-0.0170307
0.000167764
1.44333e-05
0.193962
-0.000545951
-5.87766e-07
-0.0617851
1.80833e-05
2.24725e-06
2.56403e-06
3.2657e-05
-6.74186e-05
0.20845
0.0963978
0.000179849
0.248515
0.000100827
4.59619e-06
-0.0217362
2.60601e-06
-0.116667
1.75039e-06
-1.74267e-07
1.0922e-06
1.31503e-05
0.176907
0.0381055
0.00590353
0.0899502
0.183018
4.64482e-06
3.28738e-06
1.20444e-05
0.00681576
1.33871e-06
7.18234e-07
-8.21825e-05
-0.2989
0.0815857
-1.20265e-07
-2.64148e-05
3.39428e-05
0.00250653
0.140533
-5.72223e-07
-1.17738e-07
2.93889e-06
0.17367
1.26074e-05
0.0516813
-1.03994e-05
2.01088e-07
2.29151e-06
1.68674e-06
2.36985e-05
-0.00150322
0.00809948
0.243918
-0.000403659
-1.88566e-06
-0.025097
3.07644e-06
0.0500092
0.082988
-0.000210406
-0.0912916
0.0927293
0.0704689
0.000392194
0.000110644
0.0799452
7.03555e-05
1.66874e-05
0.000802654
0.00104269
1.3195e-05
-0.0853167
4.87397e-06
-0.158168
0.14055
2.49471e-07
-2.14203e-05
7.38553e-05
-0.0133465
0.000128207
1.37486e-07
4.26622e-05
-8.3485e-06
1.9627e-05
-0.0466997
3.42223e-07
0.131728
-0.0712385
5.34556e-06
9.10266e-05
-3.09685e-05
-1.36356e-06
-0.0611903
0.562834
-0.0707475
-0.0560491
-1.48783e-06
3.20411e-05
4.64657e-05
3.01825e-07
-0.00813265
0.000126889
4.75283e-08
0.00102478
-9.81367e-06
0.0893698
0.000223601
-0.30239
-5.63878e-06
1.69778e-05
-0.00214421
-0.000122677
-0.000315093
5.58441e-06
0.615849
0.0693291
0.0802473
-0.070726
-0.11008
0.236067
0.0894491
5.59567e-06
9.8099e-07
2.80016e-06
-0.000232807
0.000118632
-0.000532221
0.000681377
1.43756e-06
4.2638e-07
-4.49565e-08
0.00061705
1.04826e-06
3.67775e-05
1.05559e-06
-0.0988953
-1.82124e-05
-1.69912e-09
-1.58185e-06
-1.74296e-06
5.73768e-08
0.000212417
0.00148733
-5.41725e-05
0.034881
-7.04743e-07
1.27136e-06
0.0694665
0.117856
-0.0670972
-0.465999
0.000276133
-0.133713
-5.68879e-07
0.000127281
1.68649e-05
-1.57749e-06
4.52424e-07
-0.0225934
7.93026e-06
0.000292693
-0.435532
3.25638e-06
-2.12493e-06
-8.62627e-06
-0.00229609
-1.08144e-08
-0.0758033
2.78005e-06
0.000465556
-1.2262e-07
4.95064e-06
3.38943e-05
0.00660762
5.25154e-06
-0.0130241
0.00394443
0.00456602
0.0823243
4.94479e-06
-0.130138
0.0209995
-1.95185e-06
0.125433
1.0202e-06
-0.00079897
1.96622e-06
-3.22478e-06
3.18955e-07
1.66515e-07
-2.4543e-06
-0.000111765
0.000915988
8.04876e-06
-2.76079e-07
0.0137156
1.6216e-06
0.0602234
-1.38382e-08
6.07846e-05
5.91323e-05
0.0939378
1.67786
1.87713e-07
-0.000589181
-1.93137e-07
-2.00054e-05
-0.000359417
-0.720748
0.000467621
-1.30956e-08
0.00358398
-0.00201073
0.00144509
0.14692
0.000293702
-0.00349254
0.000698811
0.0010015
-1.77077e-05
1.59728e-06
-0.713821
0.0835728
3.81125e-05
-5.58458e-07
0.124644
-3.93942e-07
0.000196814
2.12614e-06
0.00136919
-0.372027
-1.171e-06
0.00765996
3.01805e-05
1.96985e-07
0.00231584
3.58861e-07
-0.00159934
-0.058591
5.81214e-05
-0.756537
4.50364e-07
-4.0743e-10
0.00538823
3.97927e-07
6.78286e-08
3.40849e-05
4.89228e-05
0.000854071
0.000357568
1.99103e-06
7.65958e-05
1.09421e-06
-1.77212e-06
4.77535e-07
-1.87338e-06
-0.0321487
2.54837e-06
-1.6086e-05
-0.00239697
-5.86587e-07
-2.99968e-07
0.174608
7.12686e-08
-0.553677
6.77101e-06
0.212237
0.00690067
-0.000877701
0.416648
-0.000293991
-0.0569874
6.99268e-06
-0.000811706
4.98597e-05
1.58944e-06
-3.02783e-06
-1.3919e-05
7.22526e-05
-1.50664e-06
3.88148e-05
9.55398e-07
1.76597e-05
0.13874
-0.0258371
0.0644366
2.37683e-06
-0.00361659
0.0713978
-0.111297
5.21695e-07
3.08993e-05
-0.0699525
4.37128e-06
-2.96868e-05
-0.400922
0.245561
3.37704e-05
0.00032934
-7.18207e-06
0.00151352
-5.76858e-08
0.000526265
0.316783
-2.07192e-06
-1.09816e-06
0.0347569
-8.8973e-05
-0.00940062
0.0682323
0.00253589
-6.43276e-06
9.89531e-07
5.85476e-06
-0.0768122
1.37533
0.052377
-0.000254857
1.60597e-06
0.036392
-5.18813e-07
-0.00120696
5.01572e-05
1.97241e-06
0.000204975
-2.00394e-06
-0.141049
0.182193
-2.79036e-06
0.000451952
0.000138421
-0.157897
-0.000166953
0.00052566
-0.00293985
7.60393e-05
0.0976034
0.000802562
-4.00044e-07
0.000139812
-0.0139562
0.00542333
-1.49886e-06
-0.0615834
-0.000232163
0.000440328
-8.12729e-09
0.164478
3.1228e-05
-1.66913e-05
-1.53793e-06
5.5392e-05
6.1013e-05
-0.00102962
3.80961e-07
-1.08695e-05
-0.000229063
-0.550897
-0.000302278
2.2448e-07
-3.77745e-06
0.00012373
-0.0143233
5.35626e-07
-0.000922466
-0.687148
0.00056789
0.27868
-7.95777e-05
0.068322
0.00968505
5.79023e-06
0.111789
5.85513e-10
3.54924e-05
0.000103371
0.000118583
-0.00390893
0.000329297
3.21883e-05
7.09281e-05
2.50194e-05
5.39586e-06
1.1208e-06
0.00507803
2.4691e-05
4.86413e-06
1.20417
5.2306e-05
0.000526466
2.94295e-06
-0.0970332
-0.00152039
2.56369e-06
1.88285e-05
-3.509e-06
-0.0153979
0.0017759
9.92689e-05
0.158416
0.0609347
-0.0418694
-0.00165652
0.0284669
8.87764e-07
-0.00844899
8.31465e-07
-5.52401e-05
-0.489202
-0.0691657
-0.00567214
0.237497
-1.64483e-07
-0.243992
6.10865e-07
0.00188673
7.67684e-06
-0.120194
-0.152028
-1.38549e-05
-1.16022e-07
-0.00031548
0.00113681
-4.42077e-07
-0.0499317
-6.72189e-07
-1.77572e-05
2.42254e-05
2.91674e-06
3.1857e-05
-4.76101e-06
2.3938e-06
9.14111e-05
-0.0331412
0.000239063
-0.000310582
-6.94532e-08
0.0692074
-0.0672055
-1.92199e-07
-0.0243902
6.09581e-06
2.15457e-06
0.0718959
-1.85014e-07
-1.66847e-05
2.70924e-06
0.0180344
-1.26706e-06
1.90454e-07
-1.80981e-05
-0.0467426
-1.57547e-07
5.69216e-05
4.51534e-05
1.02481
-0.000141212
-2.28355e-06
-0.000288169
-5.91329e-07
0.0202194
-3.18554e-07
0.171138
4.38711e-05
-7.73637e-07
-3.6678e-06
-0.000674119
1.71056e-07
4.19045e-06
0.00117442
0.0712035
2.7867e-06
0.215029
4.02263e-07
-3.92599e-08
-0.000201594
-1.34329e-06
2.45931e-06
-0.0670173
-1.44506e-08
0.000164863
0.00412322
0.032703
0.716301
7.95296e-07
-5.21298e-06
-3.69727e-06
-6.10758e-07
6.21092e-06
-1.25802e-06
-0.407852
5.57878e-07
0.0720959
0.00156181
-8.4354e-07
1.69549e-06
3.28929e-05
0.00134195
-0.019745
-0.0021186
-0.000407189
7.32597e-06
0.199541
0.00261781
-3.26487e-05
0.000274426
-0.00084163
-0.00291706
0.549395
-4.09641e-05
-0.0443455
0.186634
-0.117885
1.85989e-05
-6.45191e-06
-2.41894e-05
-0.00105271
2.0087e-06
2.62019e-06
0.00154717
8.99894e-08
4.94966e-06
-1.98258e-06
1.21184e-07
7.00114e-06
4.08605e-06
-0.0455873
-1.51933e-07
-0.127127
-5.05852e-07
-0.000983729
1.32644e-05
0.000671591
-0.000658186
6.03489e-06
-0.0856991
-6.14013e-06
3.70752e-07
0.000255011
1.16825e-06
2.65992e-05
3.31383e-06
0.0315613
2.28381e-05
3.2376e-05
0.000713275
-0.105935
7.28747e-05
0.0350785
1.02583
0.000220196
4.22799e-06
1.06207e-05
0.00165782
-0.00062353
-0.157087
5.38343e-07
0.0138578
-9.96886e-06
0.00822012
0.100558
3.23961e-05
-0.0962687
4.17669e-05
7.17471e-05
9.19452e-06
0.178824
3.52564e-05
8.24393e-08
0.000345798
-0.00538075
2.21489e-05
-1.15883e-06
1.47704e-07
-0.0412541
6.18365e-08
3.1974e-05
0.10048
9.62687e-06
5.59655e-06
0.000187467
3.59997e-05
-0.0285815
4.88569e-07
4.95353e-06
4.6128e-07
-4.07264e-06
7.35633e-06
4.82622e-06
0.00095133
0.115993
4.66352e-06
-9.91361e-08
0.0758114
-3.10286e-08
0.00825139
-1.12677e-05
0.162534
-1.80172e-06
-9.11325e-06
-3.24273e-07
-0.069099
0.0906167
3.86732e-05
0.000362165
-0.00065373
-4.2157e-06
-1.3599e-07
0.0526894
9.71972e-08
0.00184274
8.55238e-07
-5.11171e-05
6.19356e-07
0.0338951
-2.04018e-07
0.000301354
-6.82759e-07
0.0323507
-0.0242516
8.93911e-07
-3.7495e-05
0.075123
0.00105834
-0.176985
-0.164075
0.000741212
-8.80277e-06
5.31946e-05
-0.00211647
0.963082
-2.8045e-06
-9.17984e-06
-8.98159e-07
-6.67505e-06
-0.0357181
-0.00395534
0.000857407
0.00437921
-0.00290184
9.56374e-05
0.238551
2.00337e-06
6.69887e-07
-0.000451501
0.162191
-0.0155599
0.000801053
0.203824
-6.59821e-07
0.175903
-0.00920192
0.147086
1.49415e-07
-0.0974676
0.107379
-0.180933
-0.142358
0.0868393
0.00190003
2.86572e-05
-0.00455679
-5.18071e-05
-3.767e-06
-0.195824
0.00130248
1.13104e-06
0.119162
5.87841e-07
-0.00060898
0.000287838
-1.50574e-05
-0.764775
0.00039071
0.0930256
0.000213086
0.000342884
0.209227
-0.190793
-0.000232083
-6.48197e-07
-1.30836e-05
-0.000856281
-0.000653481
4.41612e-08
-0.000242517
-5.02592e-05
-0.00702269
8.22727e-07
-0.0140152
9.02826e-06
-0.000211026
0.0174391
0.104727
-2.87885e-06
0.00572777
-0.0676716
-1.59763e-06
-7.16595e-06
0.171341
-0.0108472
3.47241e-05
2.25937e-05
-1.15058e-06
-0.000733352
1.63985e-05
0.0624082
-0.00268958
-8.92551e-06
5.65143e-08
-0.00171933
5.94721e-05
0.0296243
-0.00364683
-2.7292e-06
-1.38882e-06
5.21222e-05
3.7313e-07
2.2474e-05
-2.93941e-06
1.45925e-05
-1.06853e-05
2.31211e-06
8.92168e-06
2.87738e-06
0.000394249
0.940294
1.62196e-08
0.00917173
-0.0740448
-2.29495e-07
0.0076427
-0.00578628
-0.0015662
-1.72758e-05
0.00147132
3.6532e-05
0.00371964
6.77469e-05
2.12957e-05
7.39422e-08
-0.166213
-2.7881e-05
-0.684458
-1.66289e-05
8.88079e-07
-9.08348e-07
-0.00158384
4.4651e-06
0.000252296
0.000947428
-0.0021251
1.81393e-06
-0.012495
-0.434226
0.0612017
-6.28392e-07
-0.00238213
-0.0244559
-0.0957756
-1.24897
3.87284e-07
-9.00341e-06
0.00016062
0.152231
-1.06353
0.000194549
-0.018722
3.01256e-09
2.04692e-06
9.84229e-05
5.41866e-07
8.8364e-07
-0.00153305
1.22541e-08
0.00410391
-1.18803e-06
-0.159228
0.00474201
0.125955
-0.0106834
0.0655434
3.8626e-06
2.21072e-07
-0.0586165
7.02347e-07
7.96938e-07
5.02798e-08
0.00603469
0.0513639
-0.135483
-3.28655e-06
1.34623e-06
1.5657e-05
9.96318e-05
-0.0105125
-2.31961e-07
-0.178691
-0.181229
5.63237e-07
1.95487e-07
-0.00132697
0.00168093
-3.4289e-07
-1.64777e-06
-0.0700191
0.0404504
3.65777e-06
0.00355409
5.27388e-08
0.0654936
0.506078
-9.15279e-06
-0.341733
-0.00520277
0.0274695
-1.21246e-06
-2.48337e-06
1.7421e-07
-7.50227e-09
0.107395
-2.04322e-06
0.00763328
0.0217311
-0.184928
1.3306e-05
-0.000128144
0.0537399
-0.000170448
-0.0755972
0.00427478
7.0701e-07
2.73828e-05
2.89555e-05
0.00389259
0.275675
-3.87458e-08
-0.0741044
-0.000139731
0.00033456
-1.73843e-05
8.39423e-08
0.00512067
-5.75504e-05
-0.00358778
5.16457e-07
-0.00023243
1.34229e-05
0.0012481
1.55333e-05
0.122633
0.286013
0.00456838
0.00210111
1.5827e-06
2.79961e-06
0.00106572
0.0232482
0.235107
-0.021257
1.55531e-07
-0.199773
0.00837201
-0.117615
-1.92792e-05
-0.000132555
-1.18131e-05
6.0696e-06
0.00880353
-1.84962e-06
9.71676e-05
-0.0507397
-0.0992089
-0.23606
0.0416701
6.63944e-05
0.000285304
1.39046e-06
-0.17534
4.08872e-05
0.116669
1.49078e-06
-0.072953
-1.20878e-06
5.01177e-07
8.31686e-05
0.000106733
6.07498e-05
-4.275e-06
0.0171153
0.000242267
-1.84739e-06
5.66765e-05
-0.0523123
-0.102494
4.75698e-06
0.0346606
2.83816e-05
0.000112041
4.43674e-05
-1.71679e-07
-0.000546707
1.17864e-06
-0.513668
-0.00104048
-4.20227e-06
3.47421e-07
-0.016012
4.61765e-05
1.53127e-06
0.0940089
1.18712
0.0070693
-2.90627e-06
0.715905
6.61132e-08
0.000772653
3.38711e-05
-0.00423181
-0.306991
0.0173931
-0.00124592
0.0518285
6.09325e-05
0.000397077
-1.51685e-06
0.0241246
-0.00449389
-0.00238362
0.0122361
2.56046e-08
-0.0607837
-3.63299e-05
-0.00684967
0.00293836
-0.0717839
0.00683016
-1.25831
-0.0912825
0.000714252
2.04671e-06
-1.191e-06
6.12218e-06
4.4737e-07
-0.000101091
6.92742e-05
0.0030264
0.0210559
2.80333e-06
4.16084e-07
0.000172186
-0.00730873
4.76271e-05
-9.7385e-07
-0.123294
2.40632e-05
0.000230327
-1.14641e-05
-0.0324675
8.8454e-06
-0.133117
-0.000664987
7.1939e-05
-6.05859e-05
-1.44149e-06
0.125672
0.0348652
-0.000783107
-6.20778e-06
2.20515e-07
-0.0719821
0.0249108
-0.00869637
2.24034e-06
-0.000726457
0.116499
4.45182e-06
-3.38644e-07
-6.00681e-06
0.0638477
0.00145876
8.33466e-05
-1.99563e-05
2.71912e-05
-0.147675
-0.000735713
0.00618239
-2.92243e-06
8.55333e-05
-1.64148e-07
0.00283761
-0.000210783
4.57249e-06
0.0116894
0.0110279
0.0219507
0.0630687
0.0703599
0.0783592
-0.0828335
-4.45725e-06
2.12273e-06
-0.102418
0.0378325
0.108229
-5.67664e-06
0.000162714
1.18245e-06
4.57319e-06
-0.157812
-0.130719
0.000688931
3.23446e-07
-0.0297064
0.000714701
-0.000118966
0.0166457
-0.286387
-0.0314511
1.56985e-07
0.111534
-0.618308
-0.012383
6.25611e-05
6.87407e-05
2.32551e-06
9.58524e-08
-5.13332e-05
-0.000128654
2.64176e-05
0.000272121
4.86504e-05
1.09641e-05
-0.00602775
0.00978428
5.39715e-05
0.00029516
0.0574022
0.00111013
-1.32749e-07
0.0383415
-0.0235851
-0.0506662
-1.73043e-05
6.89396e-06
5.5261e-05
5.17611e-05
3.7725e-05
-9.19617e-08
-0.000221671
8.19136e-05
0.000369668
-0.00198044
4.19659e-08
1.7741e-05
0.0203087
0.124227
-0.168327
0.028624
0.00344305
-1.1926e-06
1.85337e-07
3.91687e-05
1.28542e-06
0.0658925
7.61294e-07
-3.13913e-08
3.24193e-08
-0.00540488
0.199767
-5.76299e-06
0.000839305
5.78094e-05
0.000173836
3.23154e-05
0.000997139
0.000232598
-3.60034e-05
0.0117636
3.09702e-05
0.0513157
-3.37744e-05
-0.155003
3.08264e-05
4.40962e-09
-1.34698e-06
0.000899789
-0.000867777
-5.63706e-08
-0.000417594
3.14688e-05
-0.000442454
-0.0280492
-0.331235
-0.047362
-1.20089e-08
-0.0192552
-0.000346902
3.60356e-05
-5.36094e-08
-0.000674677
1.33189e-06
-0.0447955
0.0136193
-7.8675e-05
-1.75746e-06
0.0996571
1.8765e-06
0.0138235
0.0598178
0.00970706
1.47468e-05
-0.00586466
-0.164703
0.641616
0.108038
-0.000382824
1.12634e-06
-5.32313e-05
2.44512e-06
0.0401315
1.04522e-05
2.84079e-05
-0.0342374
-0.105986
1.16678e-06
-1.77871e-06
-0.0355379
-7.81649e-05
0.11328
0.00112728
-1.52689e-06
-9.1127e-05
0.0028259
0.000319795
-0.508131
2.2435e-05
0.457729
3.4858e-05
2.31661e-07
-3.82621e-06
-0.0078862
-5.8009e-06
-0.0038045
2.3238e-06
-1.70329e-06
-0.00561015
2.65592e-05
5.69244e-06
-1.36892e-06
4.77224e-05
0.378715
0.000263123
-6.64242e-06
-2.0661e-05
-0.000597288
-8.61057e-07
-0.00261824
3.47339e-05
7.70519e-05
-0.00822557
-2.3705e-05
0.00212487
-4.74329e-05
2.33098e-06
0.000962924
0.18851
-0.0604794
4.47716e-06
-0.30875
0.00590102
2.09315e-06
-4.57081e-06
-0.0142294
0.0793476
0.000167407
-0.00958726
-0.00318624
1.71156e-06
0.00156825
4.70722e-07
3.09144e-05
-0.000550699
-0.296661
-0.00110125
0.035964
0.0560398
0.0281109
0.0649411
1.67024e-06
0.0913781
3.0058e-07
-0.379741
0.0488509
-1.02109e-06
5.23514e-08
-0.0543145
2.78561e-06
-1.5474e-06
0.00612727
0.25056
-0.00564144
2.39666e-05
0.0555182
1.12214e-07
0.148946
0.039802
1.70828e-07
-0.00390299
-0.618021
0.0191477
-0.0333725
0.0485132
-0.0591693
4.29321e-07
-9.69228e-06
-0.000418277
0.000724104
-1.60923e-06
0.00355638
-1.08533e-06
0.0550969
-0.00606468
-0.000121129
-0.0185297
0.0591546
-0.01436
-0.00140162
0.0135315
-0.0376239
-0.0263566
1.90788e-05
1.05052e-06
-0.424934
9.31766e-05
3.28811e-07
0.175668
5.08686e-06
-0.504386
2.87069e-06
-0.00346312
1.74454e-05
5.31499e-06
-6.19447
-5.22761e-05
-4.66202e-05
-0.0444855
-0.0413624
0.52923
2.76811e-05
-2.24055e-05
-2.01624e-05
0.0001236
0.00191884
0.000234172
2.41546e-07
0.125332
0.000132765
8.72168e-05
-0.0500236
0.000109334
8.21366e-05
-0.00262638
-0.000899643
0.00032609
5.21433e-06
0.00100221
-1.53626e-06
0.00224413
0.114933
0.0670289
5.38098e-07
-2.8642e-05
0.00288403
8.83169e-06
-0.000528823
1.18627e-05
-0.000101876
-0.124661
0.000386209
-1.10617e-05
0.346396
6.70783e-07
0.0756691
-3.99309e-08
1.1433e-05
0.00148322
-0.00364616
4.26795e-05
0.0172386
-0.00973049
6.59551e-05
7.46148e-06
-0.00752973
-0.000183326
-0.0066311
-1.20592e-05
0.424684
0.00326646
4.00908e-05
4.08107e-05
-0.00543716
2.19337e-05
-0.00370822
0.000522933
0.000812779
3.09775e-05
1.35331e-06
0.0534103
5.87493e-06
3.51308e-05
2.01634e-07
0.00137029
3.55951e-05
0.000620351
0.0555341
-2.24431e-06
-0.00802545
-7.64281e-07
3.38529e-06
5.63359e-07
3.16966e-07
5.08013e-06
2.28856e-06
0.00163709
0.0961161
0.000751866
0.000236841
1.55709e-05
-9.03483e-07
0.0788762
-8.17172e-07
-0.127213
0.118239
-0.0135919
0.0027903
4.23732e-05
1.82053e-05
6.28633e-07
2.03193e-05
0.00870524
1.7485e-05
0.0252255
0.000784217
0.0558395
0.00494455
1.41377e-07
1.95535e-07
-0.0582032
-1.42237e-06
7.22542e-05
-0.00808989
-0.00120583
6.4208e-06
0.08346
1.71473e-07
4.87213e-05
1.20621e-06
-1.51817e-05
-0.00992686
0.00247122
2.6932e-06
5.18585e-05
0.00363138
0.000319651
0.000812067
-0.0133344
-0.00790959
-0.00483864
0.0047629
-1.52518e-05
1.91713e-05
0.00076405
-0.0292702
-0.0982791
0.166028
9.37523e-05
0.30062
0.00312915
9.57027e-06
8.17411e-07
0.00054296
2.97965e-07
1.55993e-05
-0.0154929
4.65087e-06
1.64335e-06
-0.00656142
-0.110114
0.00029028
0.0340629
3.96251e-06
-0.0479129
-1.67842e-05
-0.170907
-0.000319069
-4.0127e-06
0.172632
0.00691626
5.94102e-06
-0.00162111
8.53341e-08
-0.00190074
4.087e-05
-0.00398461
0.186787
-0.00065971
0.0707982
2.53577e-06
0.0716688
5.00202e-06
3.42509e-05
-1.46756e-06
-0.000181843
1.53107e-07
-0.00125427
0.0756648
-0.140755
-5.07655e-05
8.27987e-05
-0.00343814
-2.11824e-06
-3.83359e-07
6.80061e-06
0.200023
2.18333e-05
-0.0795194
-0.0136401
-0.00127821
4.98449e-07
-0.00483872
-0.00281044
-0.00770541
-1.20114e-05
0.0607665
2.87147e-06
-9.69321e-07
2.98451e-06
0.156515
6.08204e-06
5.87508e-06
0.146764
4.80532e-06
-0.00508237
0.00236581
1.61757e-06
0.19363
-2.25389e-05
-0.0146513
2.24929e-07
0.227604
1.36452e-05
-0.00734725
-0.342541
0.000427681
3.53479e-06
9.60453e-06
-0.0585527
2.69301e-05
-0.00273363
6.45741e-05
4.82376e-05
0.000979332
8.60482e-05
-3.50669e-07
0.179345
3.66543e-05
-8.94977e-07
0.00477545
4.88583e-06
-2.65833e-06
1.1394e-07
-3.36926e-05
3.66528e-06
9.38517e-06
0.053318
0.49646
0.00157984
0.135051
0.000592449
-5.75268e-05
-0.106693
0.0379017
-4.06491e-06
-0.0784741
-0.11515
-0.00654038
-0.328926
2.84433e-05
-0.00920037
0.236982
-0.0957265
0.0249073
-0.149857
-0.000220493
0.000696837
2.81995e-05
5.62952e-06
3.14319e-06
0.134593
-4.05206e-08
0.02865
-0.00585386
-0.00217587
6.84717e-07
0.00112616
3.42319e-05
-5.0838e-06
-8.00321e-09
1.11445e-07
-0.00576285
7.53472e-06
3.04979e-06
6.29292e-05
-0.0142241
1.51899e-05
0.002112
-4.57424e-08
-0.00999908
0.0038894
2.26359e-06
3.1482e-05
2.11949e-06
0.00792098
0.186228
-0.00132577
0.785693
-3.34416e-05
6.53875e-05
-5.35097e-08
0.000215554
1.35334e-06
3.65657e-06
2.77066e-07
-0.0933622
-2.49069e-07
-1.08722e-05
0.0592269
5.13505e-05
9.17674e-05
2.84884e-06
0.017979
0.00178278
-0.283084