/*--------------------------------*- C++ -*----------------------------------*\
| =========                 |                                                 |
| \\      /  F ield         | OpenFOAM: The Open Source CFD Toolbox           |
|  \\    /   O peration     | Version:  v2012                                 |
|   \\  /    A nd           | Website:  www.openfoam.com                      |
|    \\/     M anipulation  |                                                 |
\*---------------------------------------------------------------------------*/
FoamFile
{
    version     2.0;
    format      ascii;
    class       surfaceScalarField;
    location    "100";
    object      ddtCorrDdt0(phi);
}
// * * * * * * * * * * * * * * * * * * * * * * * * * * * * * * * * * * * * * //

dimensions      [0 3 -2 0 0 0 0];
oriented        oriented;


internalField   nonuniform List<scalar> 
20580
(
-0.0013928
0.000539596
0.0008532
3.27972e-05
-0.000107573
7.4775e-05
0.000119958
-8.71612e-05
-0.000168583
0.000408094
-0.000239517
2.7301e-05
-3.36199e-05
6.31701e-06
0.000145788
-0.000112921
-3.28685e-05
-0.000106664
0.000208673
3.91358e-05
-3.65315e-05
-2.60595e-06
0.000483659
-0.00114856
0.000664896
2.37261e-05
-1.97042e-05
-4.02195e-06
3.10581e-05
-6.93381e-05
3.82787e-05
-2.62014e-05
7.47374e-05
-4.8536e-05
-0.000149501
5.63589e-05
9.31399e-05
-0.00170818
0.000831974
0.000876205
9.51677e-05
0.000169824
-0.000264993
0.00116009
-0.00102967
-0.000130417
2.27022e-05
5.10628e-05
-7.37648e-05
-4.60577e-05
7.2943e-05
-2.6886e-05
0.00185636
0.000211294
-0.00206765
-0.000819173
-0.000573622
0.000227896
-0.000339105
0.000111208
0.000148022
-0.000106491
-4.15335e-05
-0.00022821
-0.000113429
0.000341623
5.31904e-06
-1.95151e-06
-3.36833e-06
4.19134e-05
-0.00192514
0.00188325
-0.000197778
-0.000143142
0.00034092
-0.00245432
0.00178111
0.000673252
0.00108704
-0.000259378
-0.000827664
-0.000987139
0.00200794
-0.00102081
6.6158e-05
3.21584e-06
-6.93714e-05
0.000341358
0.0001644
-0.00050576
0.000107155
-0.000213821
-0.000184699
0.000922256
-0.000737554
-0.000764432
0.000408799
0.000355631
-5.17057e-05
3.72761e-05
1.4428e-05
-0.000997746
-0.000766182
0.00176392
4.18555e-07
4.90002e-06
-0.000486175
-0.00091519
0.00140137
8.48164e-05
0.000912304
-0.000997136
-0.000116604
1.79346e-05
9.86686e-05
7.31397e-05
0.000681577
-0.000754715
-0.00197205
0.000984911
0.000410123
-0.000410122
0.000381761
-0.000204688
-0.000177074
0.000567996
-0.0017656
0.00119761
8.77802e-05
-8.65701e-05
-1.21061e-06
2.14869e-05
-1.16419e-05
0.000738902
0.000260995
-0.0009999
9.53511e-06
-0.000106688
9.71512e-05
-3.7988e-05
-0.000111515
-0.00123413
0.00126197
-2.78433e-05
-0.000171202
3.02095e-05
0.000140991
0.0011229
3.71897e-05
-0.000282565
0.000196531
8.60348e-05
-0.00036408
-0.000329786
0.00069386
-2.56653e-05
-9.09386e-05
0.000699165
-0.000883862
0.000624954
-0.000551813
-0.00153792
-0.00106934
0.00260726
0.000892446
-0.0013678
0.000475354
-9.78703e-05
7.16686e-05
-0.00177778
-0.000676537
-0.000174628
0.000171485
3.14167e-06
-7.21605e-05
8.16944e-05
-0.000194141
0.000169034
2.5111e-05
-0.000176641
-1.74946e-05
0.001207
-0.000314551
-5.14874e-05
0.000131845
0.000124098
-5.92396e-05
-6.48575e-05
0.000577001
2.67097e-05
-0.000603722
2.24233e-05
0.000103962
-0.000126389
0.000299351
-0.0004047
0.000105348
0.000124377
-0.000124134
-2.43543e-07
-0.00127869
-8.91013e-05
0.000175758
-0.000275291
9.95317e-05
0.000119987
-9.02636e-05
-2.97264e-05
0.000107339
-8.46368e-05
2.37271e-05
-3.44721e-05
1.0745e-05
0.00218357
-0.00214164
4.67452e-05
2.0396e-05
-6.71435e-05
5.30145e-05
7.10839e-05
-0.00025817
0.000218778
3.93904e-05
-1.89393e-05
-3.2767e-05
0.00138155
-0.00160075
0.000219195
-0.00139779
0.0001191
0.000363909
-6.48331e-05
-0.000299083
6.04769e-05
8.75429e-05
0.00197246
-0.00030666
-0.0016658
1.49053e-05
1.31548e-05
-2.80572e-05
-6.31836e-05
0.000404539
-8.17974e-06
-0.000163023
-9.90538e-05
0.000206206
-0.00105676
0.00105675
0.000252136
0.000111772
0.00111559
-0.00148276
0.000367168
-0.000105444
0.000317291
-0.000211848
0.000146781
-0.000118895
-2.78862e-05
0.00129082
-0.000908681
-0.00038215
-0.000110199
0.000209807
-9.96048e-05
-0.00039591
0.000349738
4.61716e-05
0.00091808
0.00037274
9.71268e-05
-0.000137549
4.04223e-05
0.000164575
-8.04008e-05
-8.41766e-05
-0.000167451
0.000138021
2.94321e-05
-0.000103396
4.74663e-05
5.59286e-05
0.000265626
-0.000265515
-1.12524e-07
-4.03774e-05
-6.30188e-05
0.000165993
-0.000143574
-0.000202509
0.000103454
-6.74716e-05
2.14128e-05
-1.46332e-05
0.000130801
-0.000116167
8.30846e-05
4.69487e-06
0.000854641
-0.000661494
-0.00019317
-0.000144048
6.36058e-05
8.04408e-05
-0.00103839
2.62277e-05
0.00101215
-0.000164266
-0.000118299
-1.81756e-05
-3.04164e-05
4.859e-05
2.27435e-05
1.63916e-05
-0.000202029
3.34469e-05
0.000696709
-0.000119708
0.000346027
-0.000301333
-4.46892e-05
5.022e-05
-6.64953e-05
1.62734e-05
-8.46849e-05
8.79874e-05
-3.30373e-06
-0.00107581
8.46527e-05
0.000991151
0.00203574
-0.00174608
-0.000289653
-0.000122102
-1.93853e-05
0.000141485
0.000101745
4.50357e-05
0.000170416
1.51946e-06
-0.000171937
-0.000544774
-0.000417489
0.000962265
3.56204e-05
0.000243332
-0.000278955
-0.000126807
2.03154e-05
-8.21531e-05
9.15433e-05
-9.3909e-06
-0.000593443
0.000107268
-0.000239407
-0.000525026
7.49928e-05
-4.3936e-05
-0.000547197
0.00151079
-0.000963599
9.28394e-05
-0.000215305
0.000150468
0.000105402
8.09852e-07
-0.00010621
-8.10925e-05
-0.000263766
0.000344854
-9.81785e-05
-0.000159991
4.64477e-05
-0.000152988
0.000106539
-9.9583e-06
2.48656e-05
-4.99672e-05
-0.000104208
0.00015418
6.59342e-05
-0.000771243
0.000705301
-2.71684e-05
0.0001128
-8.56312e-05
3.29508e-05
-9.22473e-06
0.000416535
0.000479359
-0.000881342
0.000401987
3.74994e-05
0.000132916
-5.81376e-05
0.000976209
0.00056273
0.000291905
-3.09984e-05
-0.00011305
0.000160216
-0.00159087
0.00143067
-0.000160088
0.000181051
-2.0965e-05
7.33025e-05
-4.80889e-05
-2.5212e-05
0.000119934
-9.39569e-05
-2.59762e-05
-0.000631303
0.00071611
-0.000274883
0.000289985
-1.51041e-05
-0.000211125
0.000146054
6.50696e-05
6.07333e-06
-3.63696e-06
-2.4377e-06
0.00216362
-0.00142576
-0.000737863
0.00026209
3.53525e-06
-0.000527102
0.001266
-0.000956902
-0.000751274
-0.000653216
0.00104902
-0.000395815
0.00083584
-0.00148906
-0.00120219
-3.19343e-05
0.000117522
-0.000132155
-0.00073858
0.00215907
-0.0014205
2.64214e-05
-0.000115095
8.86741e-05
3.69106e-05
-5.50865e-05
0.000152508
-0.000313683
0.000161172
1.8902e-05
-1.49933e-05
-3.90917e-06
0.00134536
-0.000229768
-2.3123e-05
-0.00145204
0.00147517
-0.00158675
0.000413894
0.00117285
-1.6675e-05
5.35862e-05
0.000202523
7.41331e-05
-0.000276656
-0.000474318
-0.00111244
0.00148449
0.000551252
0.000276324
1.68553e-05
-0.000133169
0.000116314
0.000360061
-0.000324443
-0.000140496
0.000140496
-0.000355774
0.000835135
1.90415e-05
0.000903215
8.26417e-05
-0.000111755
2.91136e-05
0.000141944
-0.000176628
3.4683e-05
-7.93192e-05
3.8239e-06
7.54926e-05
-0.000665656
0.000731591
-2.40045e-06
-0.000272485
0.00110559
-0.000273617
7.6505e-05
6.92825e-05
-0.000102752
7.55827e-05
0.00120393
-0.00105695
-0.000146977
0.000668852
-0.000649809
-1.03822e-05
8.22457e-05
-7.18637e-05
5.36053e-05
-8.87499e-05
3.51441e-05
-0.000157909
3.89006e-05
0.000119008
5.44899e-05
1.05883e-06
-5.5549e-05
-0.000453243
-0.000583996
0.00103724
-0.00100988
0.000170994
0.000838894
-0.000196914
0.00029208
-8.59026e-06
-0.000306448
0.000315023
-0.000957679
0.00050444
0.00010056
3.44078e-05
-0.000134969
0.000421111
-8.96006e-05
-0.000331513
-0.000727984
-0.00055327
0.00128126
0.000113718
-1.90565e-05
-9.46614e-05
0.00114661
-0.00104764
-9.89653e-05
-7.65112e-05
-8.17415e-06
-4.36891e-05
2.34325e-06
2.62096e-06
-4.9654e-06
-2.61883e-05
3.18049e-05
-5.6196e-06
-0.000119162
8.1822e-05
3.73379e-05
-0.00014393
0.000105942
-0.000496546
0.00118855
-0.00069201
-3.9516e-05
-3.99856e-05
7.94992e-05
2.43385e-05
6.66381e-05
-5.40538e-05
3.73779e-05
0.00120717
-0.000788758
-0.000418416
0.00153714
-0.000155581
0.00153494
-0.00123475
-0.0003002
-8.3623e-05
-1.84621e-05
0.000102085
9.43469e-05
0.000326762
-7.64324e-07
-1.90433e-05
1.9807e-05
8.88157e-05
-0.000138782
3.84236e-05
-4.78944e-05
9.47178e-06
1.10875e-05
0.000694219
-0.000486499
-0.000207666
0.00010135
-1.87087e-05
-5.99995e-06
0.000119718
6.65574e-06
0.000185526
-0.000605254
-0.000404627
7.91836e-05
-1.30259e-05
-0.000550543
0.000322324
-0.000745988
-4.74515e-05
0.000793445
-0.000317659
-7.82501e-05
4.3632e-06
1.70957e-06
-0.000674285
0.00106115
-0.000386879
0.00131468
-0.00159886
0.000284172
-0.00143644
0.00200443
0.000116933
0.000209134
-0.000163078
-4.60562e-05
0.000144578
-3.45868e-05
-0.000109987
0.00065837
-0.00115492
0.000283135
-8.06131e-05
0.000249516
6.77773e-05
0.000144225
-0.000131143
-1.30828e-05
-0.000189644
-0.000488077
0.00067772
-0.00134355
0.00085666
0.000486892
-2.35183e-05
5.45096e-05
-3.09924e-05
0.00011428
2.29319e-05
-0.000137214
0.000295244
0.00178951
0.00037411
-0.00152307
-0.000449648
0.00197272
-7.51039e-05
-4.2157e-06
2.55769e-05
1.44542e-05
1.29326e-05
-2.73841e-05
0.00128562
-0.000427597
-0.000858031
0.000590593
-0.00164182
0.00105124
-1.66987e-05
0.000130978
0.00026865
-6.56034e-06
-0.000931716
-0.000411834
-0.000141901
8.75092e-05
5.43909e-05
0.00012881
-3.16827e-05
0.000469317
0.000507099
-0.000976416
0.00109124
-1.91732e-05
-0.00107206
6.80702e-06
0.000109397
-0.000116202
-3.16417e-05
-0.00011229
1.77272e-05
0.00153962
-0.00083331
-0.000706307
0.000422888
-9.36891e-05
-0.000329203
0.000376677
-0.000159256
-0.000217422
6.69212e-05
-1.67021e-05
0.00182277
-0.000338274
-0.00166413
0.000457124
0.00120702
0.000170076
0.000801804
-0.000971879
0.000281893
-1.32445e-05
0.00104695
0.00049267
0.000529723
-0.000449002
-8.07204e-05
6.00055e-05
-0.000120057
6.0051e-05
-0.000299356
0.000118482
0.000180872
-0.00272291
0.0019087
0.000814212
-2.44123e-05
7.82533e-05
-5.38418e-05
-8.01492e-05
0.000108084
-2.79346e-05
-0.000626003
0.00079608
9.16107e-05
-2.66569e-06
-8.89461e-05
-5.55869e-05
6.46047e-05
-9.01905e-06
4.67858e-06
-5.28155e-06
6.01994e-07
4.84793e-05
-1.00558e-05
-3.17321e-05
3.28723e-05
-1.14189e-06
-0.000123926
-8.93366e-05
0.000213262
3.97847e-05
0.00124118
-0.000757522
-7.43504e-05
0.000302246
9.38949e-05
-8.96852e-05
-4.21024e-06
0.000791761
-0.00125186
0.000176052
-0.000177069
0.000154237
2.28294e-05
0.000387998
-0.000676154
-8.02243e-05
0.000756375
-8.50924e-05
0.000131539
-0.000174575
-2.49459e-06
-0.000372501
0.00029815
-0.00135036
0.00142578
-7.54167e-05
0.000682134
-0.00013401
-0.000548128
0.000437324
-0.000272045
-0.000165276
2.95581e-05
-2.25803e-06
-0.00253518
0.0017966
-7.14496e-05
0.000477613
-0.000208896
-0.000268713
-0.00084674
0.000170584
0.00150683
-0.000433309
-0.00107351
-9.66785e-05
-0.000114447
-0.00189241
-0.000830514
0.000742039
-0.000997346
0.000255302
0.000102206
-1.92524e-05
-8.29551e-05
-0.000664931
0.00014803
0.000516897
0.000147705
-8.69813e-05
-6.07251e-05
-0.00133652
0.000789319
-0.00112383
0.000304
0.000819835
0.000631861
0.00045518
9.64885e-05
-4.28831e-05
-2.02144e-06
0.00027834
-0.000276319
-0.0015591
0.0015591
0.000112542
-0.000125145
1.26088e-05
-1.85108e-05
0.000131057
3.52501e-06
9.70366e-05
0.000185728
0.000168185
-0.000353916
-5.31448e-05
-7.04618e-05
0.000123608
0.000727314
0.00124515
0.000168159
-0.000115451
-5.27103e-05
-3.22242e-06
-3.16422e-05
3.4863e-05
2.67202e-05
-5.23414e-06
-3.55398e-05
0.00010236
-6.68205e-05
3.68781e-05
6.53264e-05
0.00010032
6.02315e-05
-8.46447e-05
5.21831e-05
-4.44187e-05
0.000118273
-7.38559e-05
-9.29423e-05
1.07895e-05
0.000135414
1.06383e-05
-0.00142994
7.95793e-05
0.00139078
0.000431987
6.59457e-05
-3.52136e-05
-8.39498e-05
0.000100555
-0.000106556
-0.00170452
0.00148004
0.000224481
-1.73076e-05
0.000159252
-0.00150391
-7.47793e-05
0.000134784
-0.000256895
-0.000115607
6.75048e-05
-0.000111923
2.76097e-05
7.80813e-05
1.58132e-05
-0.000284411
0.000103175
0.000181236
0.000431305
-8.15656e-05
-0.00124845
0.000937575
0.000310865
0.000148598
-0.00130097
-0.000403557
8.80784e-05
2.47211e-05
-0.000574993
-0.0012384
0.000360764
0.000877632
-1.92518e-05
4.23214e-05
-2.30719e-05
0.000594469
0.000912367
-0.000785452
0.000676603
0.000108854
-0.00032356
0.000213361
8.68719e-05
-0.000122412
0.000291666
-8.04284e-05
0.000634453
-0.00217238
0.000248048
0.000513451
-0.0007615
7.19319e-05
0.000107068
-0.000178999
0.00179329
-0.00133171
-0.000461575
9.41595e-05
-8.90514e-05
-5.10813e-06
0.00118313
-0.00120625
-1.61294e-05
0.000426249
1.28511e-05
-0.000134106
0.000121255
0.000390547
-0.000580198
-5.55404e-06
-0.00013474
0.000140293
0.000515786
-0.000790452
0.000274671
-8.51945e-05
-0.000214162
-0.000214501
0.00010967
0.000125575
-0.000805277
0.000679711
-0.000476757
0.000213955
0.000262803
3.98931e-05
3.3409e-05
0.000143589
-8.32527e-05
-6.03379e-05
8.97403e-05
1.86944e-06
0.00024989
-1.59391e-05
-5.73455e-05
7.3285e-05
0.000107992
0.000268684
0.000345057
-0.000151412
-0.000193646
2.9251e-05
9.51249e-05
0.000292681
-0.000382283
-4.56274e-05
-0.000136375
0.000182009
3.87735e-05
-0.000114125
7.53493e-05
-0.000353479
-4.34112e-05
0.000396918
-0.000205685
-5.31258e-05
0.00025881
0.000280683
0.000401449
8.62821e-05
-0.000105339
-0.000314283
0.000116505
-0.000122274
0.000113689
-0.00115549
0.000158903
-0.000229587
7.06814e-05
-0.00244204
0.00091897
-8.31112e-05
-0.000860775
0.000186484
-9.67063e-05
-4.51947e-05
-0.000105282
-0.000179129
0.000140902
-0.000124535
-1.63676e-05
0.000300026
-8.36058e-06
7.10788e-05
-7.60358e-05
4.95728e-06
-0.000271837
0.000271836
9.34257e-05
-0.00075794
0.00066452
-0.00087064
0.000733207
0.000137447
-1.73385e-05
0.000117893
-0.000806136
0.00197434
0.000154498
-0.00212883
0.000176993
0.000245893
3.74066e-05
-5.62674e-05
1.88613e-05
-0.000254967
0.000252944
0.000445792
-0.000139988
-0.000305805
-0.000149633
-0.00015559
0.000305212
0.00014252
1.70398e-06
0.00377646
-0.000793501
-0.00298293
7.04566e-05
-7.3376e-05
2.91851e-06
1.4754e-05
4.14784e-06
0.000114192
-0.000478271
0.00157378
-0.00175
0.000176226
1.03678e-05
1.33588e-05
-0.000101866
-5.70722e-06
-9.48866e-05
0.000387567
-1.28393e-05
5.51211e-05
-4.22846e-05
0.000985093
-0.000891663
-0.000163148
0.000348876
-0.000644373
-0.00014108
-0.000218602
5.19428e-05
0.000166657
-9.43924e-06
0.000103598
-0.000112608
-4.85963e-05
0.000161199
-0.000526959
0.000775006
-0.000105377
1.56911e-05
-0.000153826
4.12205e-05
0.00119686
-0.00306063
0.00186377
0.000396408
-5.13481e-05
-8.72152e-05
-3.9594e-05
0.00155559
0.000459521
-0.00201514
-0.000154161
-2.04669e-05
3.39697e-05
7.4114e-05
0.00012617
-8.73973e-05
-0.000391786
-0.000213202
-1.82558e-05
0.000231457
-3.36096e-05
-4.5294e-05
7.89022e-05
-0.000117428
7.96648e-05
3.77624e-05
-2.54468e-05
0.000371474
-9.96572e-05
0.000133828
-3.41749e-05
-0.00128312
0.00113438
0.000148741
7.91397e-05
-9.30849e-05
1.39474e-05
0.000169773
-0.000260609
9.08317e-05
9.37002e-05
-0.00185929
7.88402e-05
-0.000121369
4.25288e-05
5.56999e-06
-2.1217e-05
1.56469e-05
2.0182e-05
0.000113977
-0.000134159
-4.03636e-05
-0.000178239
9.62855e-05
-0.000103367
7.07873e-06
0.000962033
-0.000755101
-0.000206958
-0.00311708
0.00247015
0.000646929
0.000188727
2.04061e-05
5.374e-05
-7.7634e-05
2.38942e-05
0.00010883
-5.71252e-06
-4.20828e-05
4.77946e-05
0.000700291
-0.00111205
0.000411762
0.00219004
-0.000112162
-1.59983e-05
0.000128161
-9.30496e-06
0.000124356
-0.00011505
-0.00103918
-1.67839e-05
0.000122184
-0.000267139
0.000269906
-2.78323e-06
-6.72315e-05
-0.000100218
-0.000104213
2.7759e-05
7.6453e-05
0.000175107
-0.000185594
-9.82725e-05
0.000283865
0.00110803
-0.000804023
0.0001857
0.00178865
-0.00054418
-0.00032646
-0.000115375
7.30854e-05
4.22876e-05
-0.000102205
-0.000151189
8.42932e-05
6.68941e-05
0.000582176
0.000126719
-0.000332404
-0.000259736
0.000928589
0.000127363
1.35384e-05
8.47732e-05
-5.29775e-05
0.000131818
0.000320691
-1.57016e-05
-1.79186e-05
-0.000601397
0.000601523
-1.24607e-07
-0.00037326
0.00107355
-0.000259046
-0.00102407
-0.00022181
7.24698e-05
0.000149332
-0.00192021
-0.000316178
0.000317747
-1.56568e-06
-0.00118469
2.60214e-05
7.61399e-05
-0.000102161
2.71525e-06
-4.8997e-05
4.62791e-05
-0.00104629
0.000692812
1.42004e-06
-2.11242e-05
-8.73781e-05
7.14388e-05
-7.89619e-05
-3.41789e-05
0.000113145
-0.00126688
0.00132129
-5.43998e-05
-8.37316e-05
-3.37428e-05
0.000117472
0.000130342
-4.70245e-06
-0.000125643
-0.000312726
0.000242183
7.05399e-05
-7.23333e-06
-0.000110543
0.000117776
7.38607e-06
1.7485e-06
-9.1337e-06
0.000944488
-0.00180893
0.000864446
5.1019e-05
-0.00011
5.89828e-05
-0.00100236
0.000605939
0.000396425
0.000715187
0.000246833
-3.53372e-05
8.20815e-05
-9.69469e-05
-3.74942e-05
0.00013444
-0.000150424
0.000235166
-8.47424e-05
0.000657932
2.35972e-05
0.00111262
-0.00145453
0.00034191
0.000314176
-0.00136045
0.000105462
-5.08321e-06
-0.000100383
-3.17573e-05
0.000221998
-0.00019025
0.00169323
0.000163153
0.00102
-0.000792514
-0.000227489
-6.88424e-05
-4.65337e-05
-0.00105165
-0.00200898
-0.000988005
0.00028454
0.000703467
2.4169e-05
8.12901e-05
0.000567927
0.000876114
-0.00144403
0.000120222
-4.44797e-05
-7.57426e-05
-6.78761e-05
-0.0023882
0.0016771
0.000711088
0.000854374
-0.000338587
0.000120589
-0.00016423
4.36413e-05
3.12059e-05
-0.000244409
1.52956e-05
-1.89629e-05
3.66875e-06
-0.000364978
5.53004e-05
0.000309679
-0.000972741
0.00042797
-0.000473142
0.00118599
-0.00071286
3.02423e-05
4.73873e-05
-7.76305e-05
-4.37195e-05
5.63706e-06
3.80891e-05
-9.09553e-05
6.09823e-05
-0.000106613
0.00021131
4.60454e-05
-0.000257357
-2.40944e-05
6.14999e-05
-1.56276e-05
-7.46371e-05
0.00026404
0.000121581
-0.000385626
-0.00028672
-0.000190038
0.000232283
3.21534e-05
-0.000115886
-1.58039e-05
2.87376e-05
0.00135925
-0.000377517
-0.000981733
-0.000130815
0.00011279
1.80251e-05
0.000326851
-0.000202797
-0.000124054
0.00010138
0.000120425
-0.000221808
0.000175952
0.000102652
-0.000278605
0.000188435
-5.31395e-05
-0.000135296
-0.000807809
0.0021953
-0.00138751
0.000284255
0.000245467
5.3381e-05
-0.000127167
7.37868e-05
0.000429688
-0.000445817
0.000202842
-0.000117731
-8.51128e-05
-0.000298596
0.000257301
4.1293e-05
-0.000837364
-0.00113469
-0.000817846
0.000488056
9.90928e-05
-8.55485e-05
-1.35443e-05
-6.36797e-05
0.000100221
6.43506e-05
-0.00016183
0.000283411
0.000259433
0.00142879
-0.00168823
-0.000310239
-5.47382e-05
-0.000338404
7.12552e-05
9.45326e-07
0.000210368
-0.000276295
0.0001911
0.000701923
-7.73837e-06
0.0012944
-0.00169511
0.000400711
-5.35872e-05
0.000343049
-0.000289467
-0.000669835
-0.000332525
-0.00159924
0.000343723
0.00125551
0.000405691
0.00131009
-0.00171578
0.000110435
-4.91477e-05
-6.12877e-05
-0.00246244
0.0013931
0.00126626
0.0025102
4.09435e-05
6.28177e-05
-0.000103766
-0.000880683
-0.000176077
0.000227612
0.000590689
-0.0008183
0.000134378
0.000278968
8.31475e-05
5.65239e-05
-0.000139674
-8.80676e-05
0.000141802
-0.000273023
0.000142872
0.000130149
0.00131511
-0.00117574
-0.000139387
-0.000107736
2.35926e-06
-1.47268e-06
7.84849e-06
-6.37641e-06
5.93477e-05
4.96797e-05
-0.000109027
-0.000104321
9.70877e-05
-1.70911e-05
9.62307e-05
7.84733e-05
1.33077e-05
-1.47813e-05
-0.000435909
-0.00116333
0.000126887
-6.1491e-05
-6.53986e-05
-9.41816e-06
0.000309443
2.04478e-05
0.000117573
1.48213e-06
5.90363e-06
-0.000102372
-6.79335e-05
0.000170305
-6.09968e-05
1.7281e-05
0.000140402
-0.000211644
7.124e-05
0.000276043
-1.267e-05
-4.44942e-05
5.92777e-05
-1.47858e-05
-5.02524e-05
2.48444e-06
4.77693e-05
-0.000229117
-8.45669e-05
-5.31639e-05
-6.42633e-05
0.000431193
-0.000253354
-0.00017785
-0.000131718
3.94482e-05
9.22687e-05
-8.06007e-06
-0.000104101
-0.00112858
-0.00133387
0.000132837
-1.01096e-05
-0.000122729
-0.00173285
0.00190937
-0.000176524
1.29443e-05
-1.37089e-05
0.000530586
-0.000642933
0.000112349
0.000423484
6.20305e-06
0.000820028
-0.00175993
0.00093991
9.77113e-05
0.000445326
0.000869801
-8.01753e-05
-0.000232551
0.000724855
-0.000295863
-0.000428985
0.00070649
-0.000478874
-3.85267e-05
-4.45558e-05
8.30836e-05
-0.00023445
0.00117894
6.51294e-05
-0.000121975
0.000134826
-0.000254672
3.28615e-05
9.36707e-05
-0.00173905
0.00164539
-3.75115e-05
1.82587e-05
0.000224982
0.000206209
-7.60124e-05
6.56316e-05
-0.00129702
0.0017027
0.00134696
-0.000215824
-0.00113114
-5.03321e-05
8.99088e-05
-3.95752e-05
-2.60632e-05
0.00125175
0.000138397
-0.00139014
-6.09231e-06
-2.41525e-05
3.02422e-05
1.06267e-05
-1.67194e-05
-0.000292237
0.000149094
-0.00192729
0.000194437
-0.0016294
0.00278792
-0.00115851
-6.59934e-05
-0.000108583
1.86172e-05
-0.000773118
0.000754507
1.61448e-05
-0.000115805
1.51285e-05
-7.40199e-06
-7.72626e-06
-0.00289444
0.00243629
0.000458145
-0.000786653
-6.65123e-05
-0.000281083
0.000347596
5.77176e-05
-2.76332e-05
-3.00866e-05
-0.000312754
0.000782076
2.98507e-05
0.000128641
-0.000158491
0.000135696
8.97085e-05
-0.000225405
-0.000107118
0.000155652
-4.85338e-05
-8.31213e-05
-1.96306e-05
-0.000154375
-0.000118648
-2.36216e-05
8.29685e-05
0.000416111
-0.000943217
-8.07277e-05
0.000380077
-0.000239232
-0.00016547
-0.000294138
0.000240549
0.000105144
0.000164748
0.00161659
-0.00140529
-0.00066716
-0.00061263
0.00127979
0.00016681
0.000945813
0.000715235
-0.000773375
-0.00142302
6.45028e-05
0.00135852
-1.20574e-05
-0.000136016
0.000148072
-0.000317181
-0.00207102
0.000231243
5.81472e-05
1.43654e-05
-7.25138e-05
-5.76471e-05
-0.000218648
7.80084e-05
0.00153862
-2.54921e-05
0.000115231
-8.97404e-05
6.91393e-05
-4.87445e-05
-5.05815e-05
-1.04232e-05
6.10037e-05
-0.000635097
0.000557059
7.80346e-05
0.000331136
0.00146215
-9.21506e-05
0.000261923
0.000558492
-0.000605941
1.37155e-05
-5.82108e-05
0.00137731
-0.0030067
4.52928e-05
0.000163588
-0.000208883
-0.000862687
1.59447e-05
4.7189e-06
0.000220262
-2.54589e-05
0.000111742
8.37453e-05
3.62121e-05
4.85854e-05
-0.000911274
-0.000254506
0.000187994
-0.000151541
0.000139483
0.00172828
-0.000112695
0.000103255
0.000464461
-7.366e-05
-0.000390792
-0.00010451
0.000913514
-0.00134943
8.77052e-05
2.1127e-05
-0.000108832
-0.000378263
0.000310543
6.77192e-05
1.38004e-05
5.66554e-05
1.52877e-05
0.000149927
-0.000115518
-3.30652e-07
1.54579e-05
0.0018177
-0.00118953
-0.000628177
-2.4944e-05
-6.78831e-06
-0.00219535
-0.000699093
0.000525938
0.000228453
-0.000223734
-0.000604354
0.00130132
-0.000696973
0.000243776
-3.39674e-05
-0.000468971
0.00138248
0.000474382
0.000250477
6.89998e-05
2.87108e-05
0.000152842
-0.000115244
8.36019e-05
-6.45669e-06
2.44722e-05
-1.80178e-05
1.68348e-06
-5.19352e-05
-1.68554e-06
0.000313619
-9.94682e-06
-0.000303672
0.000700984
7.0283e-05
-0.00077128
0.000143936
-0.000114085
0.000163801
-0.000423181
-0.000126783
3.61586e-05
9.06258e-05
0.000513195
2.18846e-05
-2.18836e-05
0.00020649
0.000201619
1.69797e-05
-7.19535e-05
5.4973e-05
2.76754e-05
-5.79031e-06
0.000205937
-0.000202117
-3.81622e-06
0.00118555
0.000439593
-0.00162514
3.47879e-06
-0.000116399
-0.00259577
0.00330563
-0.000709874
-0.000350843
0.00105732
2.62184e-05
0.000189407
-0.000420185
0.000230778
9.19103e-05
-0.000102942
1.10301e-05
-0.000291724
0.000700524
2.60542e-05
6.68843e-05
-9.29418e-05
8.11364e-05
-0.000114881
0.00130771
-0.00014975
0.000148797
9.5156e-07
-0.000132585
-2.0403e-05
-3.15824e-05
-2.27766e-05
5.43581e-05
-0.000315335
0.000160843
0.000154491
-0.000768777
0.00106574
-0.00029697
-6.59057e-06
-8.96135e-05
9.62033e-05
-0.000119147
8.41917e-05
3.49554e-05
0.0001582
0.000287591
-0.00111266
0.000639511
-9.45022e-05
-1.72532e-05
2.67048e-05
7.61088e-05
-0.000102816
0.0018888
-0.000751142
-0.00113766
-2.68493e-05
2.03906e-05
0.00112262
-1.17641e-05
1.25745e-05
-8.10699e-07
7.67322e-05
5.70942e-05
-0.000276479
-0.00181512
0.00209162
0.000703181
-3.84378e-05
-0.000664744
-0.0010669
2.85196e-05
-0.000130803
0.000123787
7.01532e-06
-8.91863e-05
-4.003e-06
-2.26575e-05
2.66623e-05
1.82866e-05
-1.82857e-05
-0.000111274
-0.000187321
6.336e-05
4.70748e-05
2.37976e-06
-6.382e-06
-8.56902e-05
-0.00017006
0.000255749
-0.000430291
0.000591747
-0.000161457
-3.99603e-05
2.66739e-05
1.3284e-05
0.000622878
-0.000334839
-0.000288035
0.000421054
-0.000406829
0.00368206
-0.00327524
-8.87954e-05
-4.20086e-05
9.22888e-05
-0.000666599
0.000574311
-0.000112371
0.000113179
3.09274e-06
4.36121e-05
0.000128125
-0.000171738
-7.09734e-05
5.45975e-05
1.63747e-05
0.000104983
3.86058e-05
-0.0019107
0.00124355
0.00143112
4.89148e-05
0.00105995
-0.00198108
0.00122994
1.64965e-06
9.09807e-05
-9.26307e-05
-8.04343e-05
3.01031e-05
0.000174302
-0.000183813
9.51339e-06
9.37608e-05
-9.07333e-05
-3.02723e-06
2.79588e-05
-9.66415e-05
6.86808e-05
-8.38149e-06
-0.000105053
0.000394409
0.000891213
0.000290674
8.01784e-05
-0.000370852
-9.36935e-05
-9.87175e-06
0.000713053
-1.32332e-06
2.75853e-05
-2.62616e-05
5.75419e-05
-5.43255e-05
0.00102722
-0.000797949
-0.000229292
-0.00031274
-0.000331633
0.000108885
1.70005e-05
-2.29462e-05
5.94937e-06
-0.000710485
0.000736706
-0.000458145
-0.000141008
0.000599151
-0.000231959
9.19531e-06
-0.000169283
-1.05121e-05
7.5609e-05
-6.50974e-05
-0.000968021
0.000199239
4.88051e-05
-0.000155921
-1.25228e-05
-0.000140159
0.000152682
4.33837e-05
-5.62245e-05
-0.00138627
0.00118151
0.000204762
-3.98263e-05
1.63082e-05
-0.000424586
-2.12345e-05
7.24989e-05
-0.000101088
2.85921e-05
-0.000311356
-6.30221e-06
0.000284976
-0.000175292
-0.000109686
0.000206802
-3.21898e-05
-0.000174609
-3.14416e-05
-2.96087e-05
-9.45267e-05
-0.000123117
6.06364e-05
6.24799e-05
4.16878e-05
-2.40174e-05
-1.76713e-05
-0.000204576
0.00228896
-0.00208437
-0.000153928
2.88253e-05
0.000125102
-0.00216627
0.00171663
-9.0393e-06
8.42311e-05
-7.51937e-05
-0.000344029
0.000359684
-1.56521e-05
0.000168305
0.000897764
-0.00106607
-2.41631e-05
-8.20061e-05
0.000106169
-1.87767e-05
2.77965e-05
-9.0189e-06
0.000137375
4.86895e-05
-0.000186067
-0.00185069
-0.00115737
0.00300806
0.000134915
-8.15342e-05
0.000621528
-0.000659966
-9.80833e-05
-1.71618e-05
-0.00218212
8.48315e-05
0.00209729
6.80619e-05
-9.91671e-06
0.00124852
-0.00117049
3.05087e-05
4.95479e-05
-8.00588e-05
2.32987e-05
1.83882e-05
0.000726316
-0.00332207
2.53572e-05
0.000123323
-0.000103142
-1.66842e-06
0.000198199
0.000565631
0.000302182
-0.000867811
-0.000154953
9.55607e-05
5.94087e-05
0.00169436
-0.000442605
-6.50707e-05
-1.00342e-05
-3.96407e-05
-0.00138338
-7.30597e-05
7.98685e-05
-3.9146e-05
-8.15346e-07
3.41688e-05
0.000146882
1.70149e-05
9.7045e-06
7.33035e-06
1.48038e-06
-8.81238e-06
-0.00217088
0.00126934
0.000901545
0.0010894
-0.000964243
-0.000125153
-7.11237e-05
3.16075e-05
-2.26427e-05
7.86091e-06
0.000158959
-3.83709e-05
2.56495e-05
5.74352e-05
0.000320767
-0.000183385
0.00015068
0.000940708
-0.000714803
-0.00062172
-8.73903e-05
-3.57263e-05
0.000923211
7.44098e-05
-3.34684e-05
-0.000131482
-0.000207624
0.000238631
-0.00019334
-8.85121e-05
4.99865e-05
-1.31826e-05
1.41812e-06
-0.000796852
0.00125783
-0.000460973
0.00050376
0.000843195
0.000464992
-0.000275584
-8.94323e-05
0.000141683
0.00034489
-0.000486575
3.00327e-05
0.000141452
4.90529e-05
6.68365e-05
-0.00011589
-5.99011e-05
0.000681429
-0.000168066
0.000129258
3.88153e-05
7.51962e-05
-0.000199123
-0.00273949
0.003214
-0.000474436
-0.000641588
0.000328849
1.28071e-05
-8.12879e-06
-0.00132148
0.000674692
0.00064676
-0.00063992
-0.000681603
0.000332031
0.000776711
-0.00110874
-0.00057199
-0.00199
0.00117997
0.000810013
2.64926e-06
7.04341e-05
4.10366e-05
0.000103544
-0.000992529
0.00153234
-0.000539807
-0.000115584
9.00919e-05
-3.24747e-05
2.92514e-05
0.00195651
-0.00164711
-0.000309389
-0.000116111
8.49888e-05
3.11232e-05
-3.10269e-05
1.22503e-05
2.6712e-05
7.23788e-05
-7.85379e-05
-3.75729e-05
-6.49812e-05
0.000102373
8.39979e-05
-5.88889e-05
-2.511e-05
-8.33223e-05
0.000132376
0.00130312
0.000234019
-1.57015e-05
-8.1326e-05
9.70251e-05
-5.16889e-06
0.000145664
-9.6024e-05
-2.44591e-05
0.000120482
0.000625065
-0.000113603
-0.000511463
0.00101728
-0.000633488
-0.000383791
-0.000111047
-0.00142903
0.00168847
-0.000139073
8.42243e-05
5.48476e-05
8.13491e-05
-0.000105512
-0.00012726
-2.76965e-05
-4.17934e-05
7.53621e-05
-0.000354474
0.000279109
-0.000178587
-0.000253777
0.000819407
-0.000146416
6.65565e-05
7.98582e-05
0.000264197
-0.00181155
0.00154736
-1.36015e-05
-0.000120505
-0.00148437
0.000307465
0.0011769
0.000730032
-0.000761263
3.12382e-05
0.00188535
-0.00162115
0.000348428
-5.90371e-05
-0.000289394
-0.000133984
6.46161e-05
6.93689e-05
8.73632e-05
-8.57126e-05
2.66988e-05
3.41011e-06
-3.01081e-05
-0.000116315
-3.93792e-05
0.00021838
-0.000179002
0.000690537
-0.000112422
-2.07462e-05
-7.15518e-05
-3.73616e-05
0.000108913
-9.61549e-05
1.65244e-06
7.8637e-05
-7.59903e-05
-6.72827e-05
2.21178e-06
-0.000254641
0.000156738
9.78998e-05
-9.48824e-05
0.000106417
-1.15348e-05
-0.000118196
2.12485e-05
-6.31173e-05
0.000123592
0.00108208
-0.000943044
-0.000139036
6.69567e-05
0.0020123
-0.00207924
4.99522e-05
0.000105351
-0.000155303
-8.69955e-05
-7.92436e-05
0.000166239
0.00130559
0.000650917
-2.24475e-06
-4.26957e-05
2.34431e-05
-2.83773e-05
1.52682e-06
0.000130686
-3.12387e-06
-0.000127563
-0.000144315
-9.61247e-06
-0.000100056
9.95609e-05
4.96811e-07
0.000172719
-0.000159295
-1.34236e-05
-4.5519e-05
3.98047e-05
3.0657e-05
5.33399e-05
6.0054e-05
8.76512e-05
-5.86101e-05
1.05222e-05
8.78442e-05
-0.000518135
-0.000107132
5.3967e-05
0.000880683
-0.000153465
-0.00072723
-0.00207692
0.00229229
-0.000215374
0.000153807
-0.00116905
0.00101524
-0.000565335
0.00113326
3.57368e-05
-7.48901e-05
3.91513e-05
0.000581631
-0.00113648
0.000962318
0.000174159
-2.66158e-06
2.03483e-05
0.000131388
-0.000136093
-3.24916e-05
-1.0204e-05
0.000108421
1.05792e-05
-0.000118998
4.84086e-05
-0.000330014
0.000924492
2.89889e-05
-7.46127e-05
-0.000106857
0.000253702
-0.000146846
6.45015e-05
2.42399e-05
-8.87423e-05
-0.00224425
-0.00148685
0.00115684
-0.000312904
-5.6045e-05
-8.30283e-05
3.23914e-05
2.68855e-05
4.37647e-05
4.3573e-05
-8.73379e-05
0.000274133
0.000163193
9.23418e-05
-1.17624e-05
-8.05785e-05
-3.10965e-05
-0.000956908
0.000221569
-8.05118e-05
8.32265e-05
-0.00110066
-0.000137738
0.000436086
-0.000490826
5.47409e-05
-4.60189e-05
1.44359e-05
0.00132419
-0.000242112
-0.000333036
-9.15509e-05
0.00148083
-0.00108643
-7.28755e-05
6.38356e-05