/*--------------------------------*- C++ -*----------------------------------*\
| =========                 |                                                 |
| \\      /  F ield         | OpenFOAM: The Open Source CFD Toolbox           |
|  \\    /   O peration     | Version:  v2012                                 |
|   \\  /    A nd           | Website:  www.openfoam.com                      |
|    \\/     M anipulation  |                                                 |
\*---------------------------------------------------------------------------*/
FoamFile
{
    version     2.0;
    format      ascii;
    class       volVectorField;
    location    "100";
    object      ddtCorrDdt0(U);
}
// * * * * * * * * * * * * * * * * * * * * * * * * * * * * * * * * * * * * * //

dimensions      [0 1 -2 0 0 0 0];


internalField   nonuniform List<vector> 
13851
(
(0.00865142 0.00504452 7.58186e-22)
(0.000520216 0.000103285 0)
(0.000503387 0.000117073 0)
(-0.00275876 -0.00563352 0)
(5.03248e-05 -1.16324e-05 2.86148e-22)
(0.000596176 -6.12059e-05 3.05917e-21)
(-0.00010928 0.000939212 5.93557e-21)
(6.48026e-05 9.61492e-06 0)
(-0.0148392 0.0144739 5.55205e-21)
(5.0765e-05 -1.15259e-05 2.55876e-21)
(-5.51038e-05 0.000552059 0)
(8.15183e-05 -0.000164899 1.006e-21)
(0.000107209 -0.000460109 7.36571e-22)
(-0.0285751 0.00200503 -1.29023e-21)
(0.00126813 0.00128717 -2.91429e-21)
(-0.0117337 -0.000291231 0)
(-0.00169152 0.000344242 0)
(0.000207176 2.79558e-05 1.11256e-24)
(0.00793485 -0.0233568 0)
(0.00864843 0.00447362 -1.94576e-21)
(0.00174794 0.000704609 -2.7481e-21)
(0.000613227 5.99229e-05 -2.66404e-21)
(0.00462076 0.00232111 -1.60308e-21)
(-3.25211e-06 6.74682e-06 0)
(0.0259923 0.0209645 -2.40509e-21)
(-0.00230021 0.00133891 7.30478e-21)
(-0.00142175 0.0284842 5.45464e-21)
(-0.0134108 -0.00705064 5.28491e-22)
(0.0264179 0.00978109 -3.1673e-21)
(0.000116129 0.000133912 0)
(-0.00540598 0.00619014 2.70914e-21)
(-7.56296e-05 0.000928145 -1.90549e-21)
(0.00711435 0.00671115 3.76139e-22)
(-0.00771127 -0.00511426 6.50243e-23)
(0.000301328 4.57435e-05 9.27922e-22)
(0.0287489 0.00655216 0)
(-1.90377e-06 7.14873e-06 0)
(0.0213313 0.00534823 6.55288e-22)
(0.0108424 0.0118944 -1.51893e-20)
(0.000286559 -0.000240589 3.76399e-21)
(-0.010855 -0.00883523 2.26712e-22)
(0.0266468 0.0106418 3.13453e-21)
(-0.00651588 0.000363618 0)
(0.00151962 -0.00315323 0)
(0.0225742 0.0167961 0)
(0.00020617 -9.76865e-05 -1.494e-21)
(-3.00883e-05 2.9182e-05 2.36347e-21)
(-0.00877538 0.00781162 7.61432e-23)
(0.000455232 8.06666e-05 3.57184e-21)
(0.000110516 -0.00044915 0)
(0.022954 -0.00109695 1.16132e-20)
(7.65832e-05 -0.000559066 1.28041e-21)
(-0.0113346 0.000540188 0)
(0.000139791 0.00146133 -2.46629e-21)
(-0.0111471 0.0045833 8.97999e-21)
(0.000283088 -0.00025649 -3.40046e-21)
(0.00765222 0.00664291 0)
(-0.0103913 -0.00885379 -3.89275e-22)
(-0.0242381 0.0210248 0)
(-0.0258638 -0.00122324 5.53388e-23)
(7.56366e-05 -0.000196883 -2.86295e-21)
(-0.00140257 0.026058 -8.85817e-21)
(2.26506e-05 -0.000380154 0)
(0.000470046 8.46899e-05 2.43335e-21)
(0.000963829 -0.00204332 2.63332e-23)
(0.000883512 -0.00207902 -3.19432e-23)
(-0.0265364 -0.000728002 3.96186e-23)
(0.000240935 -0.00131664 2.83426e-21)
(0.00031633 9.46855e-05 -2.35896e-21)
(-0.0110233 -0.00449274 -2.09543e-22)
(-0.00194298 0.00236661 5.09402e-21)
(0.00237985 0.000485163 9.4658e-24)
(0.000175414 -0.000389448 -1.25226e-21)
(-0.0271155 -0.000863017 0)
(0.000314152 0.00155287 -2.66419e-21)
(0.000485616 8.2093e-05 0)
(-0.00180846 0.000504097 2.88416e-21)
(6.63194e-05 -1.29646e-06 1.63951e-21)
(0.0201521 0.02224 -2.1966e-21)
(0.00012387 -0.000127707 4.90819e-21)
(0.000318403 0.000113761 0)
(0.00218771 0.00126279 4.74818e-21)
(0.000331106 4.76875e-05 0)
(-0.0301593 0.00148515 4.54367e-22)
(-0.0266444 -0.00115567 9.74526e-24)
(-0.00331389 0.00468726 0)
(0.00062638 5.17436e-05 2.94602e-21)
(0.0336663 0.00220496 2.73353e-23)
(7.47442e-05 -4.57435e-06 9.83511e-23)
(-0.00609427 0.00615405 0)
(7.36736e-05 -0.000568696 6.36934e-22)
(-4.32048e-05 0.000968382 -7.57758e-21)
(0.0153951 0.000520249 -1.18264e-20)
(-0.00476861 0.00425723 -3.28419e-21)
(0.0236137 -0.000882828 -1.1718e-20)
(0.00179878 -0.00301053 4.286e-21)
(0.0001985 -0.000249485 4.49895e-21)
(-0.0112857 0.00473603 0)
(0.00347229 -0.00277306 -2.71689e-22)
(0.00157467 0.00381396 -2.68731e-21)
(-0.0118128 0.00600019 0)
(0.00033636 -0.000963147 -1.70506e-21)
(0.00045397 -0.00101636 -8.79105e-22)
(0.000189016 -0.0004637 0)
(0.000208897 4.8671e-05 0)
(0.00173785 -0.000459051 -1.75568e-21)
(0.000206593 2.18578e-05 -2.74386e-21)
(-0.0018292 0.00268778 -5.39944e-21)
(-1.45695e-05 0.000953301 4.16674e-21)
(0.000199767 3.0397e-05 -1.10549e-21)
(0.000846694 -8.99654e-05 -1.04065e-21)
(0.000210284 -6.51526e-05 0)
(-0.00709461 -0.00337308 0)
(-0.00039376 -0.00100166 0)
(0.00399295 0.00989315 -2.07767e-21)
(0.000144763 0.00143865 6.0766e-21)
(0.000110893 6.74778e-05 -2.26044e-21)
(5.59034e-05 1.18896e-05 -2.54266e-21)
(-0.0018523 -0.00480002 2.56829e-22)
(-0.0102793 -0.00579992 -2.42981e-23)
(0.00312578 -0.00253004 -3.35314e-21)
(0.000155244 7.04108e-05 3.45188e-22)
(0.000315703 -1.10926e-05 -1.63699e-21)
(-0.0241916 -0.00275181 2.33093e-24)
(0.0173872 -0.00852065 8.39256e-22)
(0.000274947 -0.00158353 0)
(0.000199181 -0.000243665 -5.83929e-21)
(0.00103403 0.00068166 0)
(-0.014824 -0.00535987 4.58025e-23)
(0.00195584 0.00150103 4.73714e-22)
(0.000627079 5.51293e-05 3.68044e-22)
(0.000551577 -0.000112173 0)
(0.00788657 0.0054898 -4.81146e-21)
(-0.00941729 -0.00447092 -8.93365e-24)
(-0.000169031 0.000548628 0)
(0.0225484 0.00332137 -4.19064e-21)
(0.000230914 -0.00126032 2.19597e-21)
(-0.00312062 0.00399698 -5.67452e-22)
(0.000332061 -0.000763128 1.29916e-21)
(0.00168074 0.00184297 -3.41016e-21)
(0.0014171 0.00111603 -4.27056e-21)
(0.000265904 -0.000495986 0)
(7.88324e-05 -1.13872e-05 0)
(0.000597525 -0.00161849 -8.65483e-22)
(0.0139706 0.000156801 -5.74303e-22)
(0.000463395 1.62167e-06 0)
(6.49487e-05 -4.96467e-06 -3.94414e-22)
(-0.00548611 0.00477175 1.5943e-21)
(0.00945968 0.0119056 5.40863e-21)
(0.00107612 0.00077329 0)
(-0.011169 0.00681769 0)
(-0.00646639 -0.00273374 6.14907e-22)
(-0.000568134 -0.00106613 2.94798e-21)
(0.0092625 -0.0163102 4.56102e-21)
(0.000154724 -0.000626921 0)
(5.63459e-05 -0.000177996 0)
(6.4398e-05 -0.000205837 -2.92579e-21)
(0.0119288 0.0111782 1.17359e-20)
(0.00153597 0.0015914 0)
(0.000183986 0.000785141 2.6351e-21)
(-4.40646e-06 6.50877e-06 4.46011e-21)
(0.0276649 0.00834867 0)
(0.00175832 -0.000328939 0)
(-0.00798843 0.00836328 8.78273e-21)
(-0.0281892 0.00221146 1.21581e-21)
(-0.00451749 0.0203668 -1.56516e-21)
(-0.0051545 0.0210707 0)
(0.0233217 -0.00102252 -1.59615e-20)
(0.000817964 -6.81209e-05 4.77753e-21)
(-0.0226807 -0.0272282 0)
(6.67551e-05 -0.000244535 -1.84183e-21)
(0.000107036 6.66554e-05 -1.82425e-21)
(0.00161868 -0.00147237 0)
(2.23365e-05 -1.51349e-05 0)
(0.0231074 -0.00148128 1.11114e-20)
(0.0132763 0.0146253 3.75943e-21)
(-0.00687825 0.0131858 1.75008e-21)
(0.00010294 8.1756e-05 0)
(0.000242007 0.00155154 0)
(-0.00721454 0.0119728 0)
(0.0163327 -0.00731668 1.36186e-21)
(0.00169784 -0.00315037 -1.77871e-21)
(0.00077694 -1.8553e-05 1.92863e-21)
(0.00182659 0.00155692 0)
(-0.00232459 -6.79057e-06 1.74514e-21)
(0.010706 0.0125604 1.69064e-22)
(0.00700636 0.00741154 1.73559e-21)
(0.00028946 -0.000592247 -1.10658e-21)
(0.000146136 -0.000566759 1.41e-21)
(0.000170045 0.000125719 1.29523e-21)
(0.0138287 -0.00218185 -8.89568e-21)
(0.00158203 0.00147576 0)
(-0.0280535 0.00129556 7.06534e-22)
(0.000605039 -4.66723e-05 -3.15924e-21)
(0.000451336 1.67145e-05 2.14393e-21)
(-0.0115209 0.00261279 0)
(0.00639652 0.00743305 0)
(0.000210905 0.000179796 1.25386e-21)
(0.000289476 4.45853e-05 2.42778e-21)
(0.00032272 -0.00131793 0)
(0.000187316 0.000103419 -2.13642e-21)
(0.014419 -0.0115331 2.84912e-21)
(-0.00841372 -0.0104849 0)
(0.00117934 0.00134153 5.52587e-21)
(0.00272887 -0.00449331 5.53868e-21)
(0.0142845 -0.0106434 0)
(0.000100162 -0.000629157 0)
(0.000959075 0.00232102 4.35713e-21)
(-0.0184088 0.0126575 1.79134e-21)
(0.000550827 -8.21961e-05 0)
(-0.0111688 -0.00219414 1.31213e-22)
(0.000313366 -2.5177e-05 -1.68861e-21)
(0.00104728 -6.24229e-05 6.24061e-22)
(-3.18307e-06 6.20322e-07 -1.5439e-22)
(0.000273882 -8.51938e-05 2.18501e-22)
(0.000550675 6.4437e-05 -2.9295e-21)
(0.000102996 -0.00041587 -1.19622e-21)
(0.0128524 0.00537676 0)
(0.000264222 1.64807e-05 2.3704e-21)
(5.43566e-05 -0.00192315 -2.81586e-21)
(9.76223e-05 8.25946e-05 1.39023e-21)
(0.00911965 0.00343087 0)
(-0.0298514 0.00123304 -6.22586e-22)
(0.0231115 0.00145895 -6.43364e-21)
(0.000312506 -0.000560297 0)
(0.000877743 0.00241587 -3.45011e-21)
(-2.08137e-06 3.97256e-05 0)
(0.000596225 -0.0015535 8.13392e-22)
(0.00010161 4.56421e-05 0)
(0.000317143 -5.54944e-05 0)
(0.000417327 -0.00969837 9.74056e-22)
(0.000280352 -0.000568861 -1.97354e-21)
(0.000546752 -7.42958e-05 0)
(7.18547e-06 -0.000448446 2.27872e-22)
(-0.0089459 -0.00959449 2.76695e-23)
(0.000112806 0.000120689 -2.15942e-21)
(-0.00472802 0.00390733 0)
(-0.00666603 -0.0113155 1.8716e-22)
(0.00150658 0.00326719 0)
(-3.22211e-06 9.00148e-06 -5.17289e-21)
(0.0155407 -0.000517946 0)
(-0.0274708 -0.00115697 -6.77936e-23)
(0.0246479 0.0168098 0)
(-0.0108713 -0.00140113 0)
(0.00107143 0.000185025 0)
(0.000535187 -0.0017108 -2.19009e-21)
(0.0122753 0.0049467 -1.90782e-21)
(0.000205027 0.00155473 0)
(0.00200738 -0.00288754 0)
(0.000907955 -2.60048e-05 -2.23868e-21)
(0.013848 0.00388479 0)
(0.00848059 -0.00489485 6.90997e-21)
(8.68754e-05 -7.94076e-06 -1.87394e-25)
(0.000634867 0.000339438 0)
(-0.0120591 0.00383917 5.34325e-22)
(0.0283056 0.00750796 0)
(0.0412359 0.000561165 -5.17122e-21)
(0.000165856 0.000113628 -1.49335e-21)
(0.000275896 -0.00159977 0)
(8.20381e-05 1.32271e-06 5.30506e-21)
(0.00928516 0.00937703 5.5005e-21)
(0.0146868 -0.0115688 3.34042e-22)
(0.000663374 0.000347307 0)
(0.0019282 -0.000210348 8.18098e-21)
(0.00862444 -0.00572118 -7.12073e-21)
(0.000167486 -0.000308804 -5.47195e-21)
(0.000364398 -0.000992791 1.99484e-21)
(-0.00546498 0.00745795 0)
(0.00998312 0.00860083 1.28193e-22)
(7.21952e-05 -0.000257956 0)
(9.63949e-05 -0.000396775 -1.49806e-22)
(0.000305268 -0.000568027 1.30822e-21)
(-0.0142059 0.0123045 0)
(-0.0057812 -0.00235703 0)
(0.002064 0.000886792 -4.05392e-21)
(0.000160913 6.0999e-05 -1.63917e-21)
(0.017845 -0.00533223 -2.81691e-22)
(0.0123248 -0.0141369 -6.65975e-21)
(0.00441853 0.00793669 5.2575e-21)
(0.00193563 -7.27133e-05 -6.7743e-21)
(-0.0167665 0.0107899 0)
(-0.00899629 -0.00238234 2.01119e-22)
(0.000715168 0.000143725 0)
(0.00100346 0.00115713 9.14483e-21)
(0.0319316 0.0112657 0)
(0.000200781 0.000127484 -1.55342e-21)
(6.23456e-05 -0.000193324 -1.54336e-21)
(0.00508326 0.00798012 1.09285e-21)
(0.000381067 0.000627016 -3.71912e-21)
(0.000115938 0.000102398 -4.6788e-21)
(-3.15987e-06 -2.58993e-06 -2.53222e-21)
(0.000105079 4.71239e-05 0)
(5.7095e-05 3.36442e-06 -3.85851e-23)
(0.0011214 0.000542931 1.22331e-20)
(6.72648e-05 -0.000187802 4.43595e-21)
(-0.0155717 0.0145652 -2.63161e-21)
(0.00188126 0.000708837 0)
(0.000267089 -0.000170052 -2.46251e-21)
(0.0286521 0.00669462 0)
(-0.0254552 -0.00227149 0)
(9.28797e-05 -0.000590986 0)
(0.00925576 0.0040407 1.54956e-21)
(0.0150273 -0.0023674 -1.05777e-21)
(0.000278966 -0.000478388 0)
(5.91835e-05 -0.000531818 0)
(0.00200091 0.000603328 0)
(-0.0306097 0.00013091 -3.59016e-23)
(0.00888211 -0.00458703 2.2255e-21)
(0.00268544 -0.00152874 -4.77006e-21)
(5.55148e-05 -1.21292e-05 -1.18299e-21)
(-0.0241184 -0.0264568 0)
(7.28808e-05 -0.000220469 0)
(0.002652 -0.00215264 -4.6529e-21)
(0.015891 -0.00293611 0)
(0.0123556 0.0118329 -3.30749e-22)
(0.000183106 0.000764476 -1.98268e-21)
(0.0290144 0.0116199 3.35034e-23)
(-0.00891381 0.00782253 0)
(4.18183e-05 0.00116998 4.50069e-21)
(-0.00600473 -0.00100773 0)
(0.000250135 -0.0010209 -1.80965e-21)
(0.0211399 0.00428069 -8.68518e-22)
(-0.0210631 -0.00375089 5.64058e-23)
(-0.00872851 -0.010084 -1.11716e-21)
(0.000301725 3.92043e-05 -2.60171e-21)
(-0.00523664 0.00196932 2.03874e-21)
(0.0227465 0.000584744 8.21908e-23)
(0.000269535 -0.00200731 -3.54234e-21)
(0.000286876 -0.00200977 3.02153e-21)
(9.64496e-05 -0.000624982 1.06979e-21)
(0.00195167 -0.0017932 5.55893e-21)
(0.000592404 -0.000398861 0)
(0.0342456 0.00260228 -1.82945e-20)
(0.000343584 -0.00107453 1.84738e-21)
(6.86895e-05 -2.08282e-05 3.42062e-21)
(-2.14222e-05 3.35756e-05 -2.51694e-21)
(0.000596618 1.87584e-06 3.69072e-21)
(-0.000916428 0.00117825 -6.2577e-21)
(8.75147e-05 -0.00193371 2.48112e-21)
(0.000199307 0.000130309 3.35235e-21)
(0.0239556 0.00036719 1.15221e-20)
(0.000554402 -0.000447063 -1.9265e-21)
(0.000544841 -0.000110562 1.23277e-21)
(0.00017417 0.000820583 -2.86275e-21)
(-0.030527 0.000103401 -6.21401e-23)
(0.0172004 -0.00414661 0)
(-0.01212 0.00171153 0)
(0.000521325 7.46323e-05 -1.1458e-21)
(0.000539737 -7.26822e-05 -4.24608e-21)
(0.0283619 0.000927388 0)
(0.000152955 -0.000574535 -4.44328e-21)
(0.0114984 -0.0161708 2.28879e-21)
(0.000691767 0.000175325 0)
(0.00200563 0.000457316 0)
(0.000556602 -0.000475253 0)
(8.00712e-05 -7.69112e-06 -3.5995e-21)
(0.000265998 -0.000148251 2.48086e-21)
(-0.000908024 0.00194986 0)
(0.00112017 0.00418529 -9.41345e-23)
(0.00934406 -0.00347332 7.22058e-21)
(0.00215824 0.00853421 6.24695e-22)
(0.0280203 0.0012718 -3.39187e-21)
(0.000474237 2.42647e-07 0)
(-0.00730412 -0.0103263 -2.14238e-23)
(0.0114039 0.0087024 1.16576e-21)
(0.000101173 1.84701e-06 1.50585e-22)
(0.0073206 0.0128168 8.77608e-22)
(0.00609756 0.00222154 -1.43744e-21)
(0.00476302 -0.00449565 2.32101e-21)
(0.000579196 -1.09943e-06 0)
(-0.00229749 -0.000480789 0)
(-0.0199894 0.0190463 0)
(0.00246401 -0.0103452 -3.32087e-21)
(-0.000771024 0.00161673 -6.44352e-24)
(0.0292203 0.00340491 -2.3411e-21)
(0.000372259 4.98782e-05 2.13803e-21)
(0.0146301 0.0138752 -4.57965e-21)
(-0.00956511 0.000664918 0)
(0.000828197 -1.04278e-05 -5.49882e-21)
(0.0130804 0.0055428 -1.89059e-20)
(0.000864256 -0.00012758 2.4337e-21)
(-0.00499505 -0.0129468 4.43816e-22)
(0.000968494 0.00112243 -5.53468e-21)
(2.19631e-05 0.00136686 -3.8687e-21)
(0.00696578 -0.00666437 0)
(-0.00112945 0.00429888 0)
(5.59846e-05 -0.000191527 0)
(0.000649106 5.10842e-05 -1.96184e-21)
(0.000361562 0.000683179 -3.13805e-22)
(0.000273409 0.00157266 0)
(0.000221499 -0.000163586 0)
(0.0021165 0.00101258 4.27446e-21)
(-0.00426988 -0.00170178 -2.2372e-23)
(0.000175996 -0.000384091 -3.14939e-21)
(0.00110605 0.0022772 0)
(0.00158627 -0.00210803 -3.8613e-21)
(0.00048739 -5.25408e-05 2.33531e-21)
(-0.00599411 -0.00650855 2.05642e-21)
(-0.000228675 0.00193326 5.49103e-22)
(0.00988286 -0.00555396 0)
(0.000555568 -9.26437e-05 -3.29578e-21)
(-0.00191699 0.00134475 0)
(0.00192129 -0.00110658 -5.60922e-21)
(0.0165486 -0.0100411 -1.69659e-21)
(0.00149825 -0.000590055 -1.66709e-21)
(0.0422362 0.00047072 -1.9726e-23)
(-0.0281566 -0.000819815 1.01069e-22)
(0.0130594 -0.000398622 0)
(0.000164391 -0.000309881 -2.10441e-21)
(-0.00111821 0.00191143 0)
(0.000758702 -0.000226979 5.39311e-21)
(-0.00229229 2.07239e-05 0)
(0.00016308 0.000121466 4.78486e-21)
(-0.00415622 0.000355591 1.52631e-22)
(-0.0143337 -0.000850283 1.48146e-22)
(0.00984382 0.00451365 4.86771e-21)
(0.000530483 -6.19919e-05 4.05932e-21)
(0.00789692 -0.00661031 0)
(0.00550657 0.0237554 8.08192e-21)
(-0.00479706 -0.00299339 0)
(4.7639e-05 0.000103792 -2.05503e-21)
(-0.00534248 0.00142769 2.29714e-21)
(-0.00256364 0.00332136 -5.06302e-22)
(0.00334143 -0.000215773 -7.52935e-23)
(0.000939232 -1.90735e-05 2.8154e-21)
(-0.0243039 -0.0389696 5.6932e-21)
(9.97197e-05 -0.000228927 2.84237e-21)
(2.74845e-05 -1.22838e-05 -1.28105e-21)
(-0.00936042 0.00339888 -1.06071e-20)
(0.00817784 0.0219545 -5.83468e-21)
(5.50649e-05 -8.40174e-06 -1.46602e-21)
(0.000510819 7.56594e-05 -9.33575e-22)
(0.00123835 0.00230851 1.11284e-21)
(0.000120305 -9.43918e-06 -1.8815e-21)
(-0.0168753 0.000979265 0)
(0.00222015 -0.00179509 -1.24169e-21)
(0.00590654 0.00193636 0)
(0.000462192 0.000815687 -1.60931e-21)
(0.000366376 4.36987e-05 0)
(3.66976e-05 -0.000546058 0)
(0.00134357 -0.0103147 0)
(0.000259717 -0.000209365 0)
(3.8044e-05 -0.000516308 0)
(0.0384281 0.00679623 -4.59788e-21)
(-0.00597124 -0.000716288 0)
(0.000610617 5.30523e-05 0)
(-0.0159238 0.0189467 -5.25514e-21)
(1.99791e-05 -0.000404952 -2.61448e-22)
(6.58736e-05 -0.000174942 -1.56246e-21)
(0.000500273 -5.97681e-05 -6.86893e-21)
(0.00941431 -0.00414919 -7.69783e-21)
(-0.000251529 0.00165236 5.17157e-21)
(0.000227966 -0.000166082 0)
(0.000394069 -1.36376e-05 -3.13169e-21)
(0.00329754 -0.00232515 -1.74215e-21)
(0.000413663 0.000183741 3.42535e-21)
(0.0187309 -0.0030364 0)
(7.98855e-05 -0.000167894 -1.48845e-21)
(0.000315209 0.00121157 -3.47444e-21)
(0.0216665 0.0182099 -5.29731e-21)
(0.000788605 -0.000601522 0)
(2.98491e-05 1.59143e-05 6.55731e-22)
(5.42252e-05 -0.000294712 -1.9058e-21)
(0.000487267 0.00077734 8.00016e-22)
(0.000216344 0.000253628 0)
(0.00911945 -0.00702597 -9.06196e-22)
(0.0382238 0.00565537 5.20104e-21)
(0.00109822 0.000211145 -6.44381e-22)
(3.3685e-05 -0.00268052 0)
(0.000505939 -6.11897e-05 3.57389e-21)
(9.46949e-05 -8.7464e-05 -2.09077e-21)
(-0.0188489 -0.00262357 -1.75596e-23)
(-0.0175178 0.0206456 -5.63852e-21)
(0.000464542 -0.000725697 0)
(0.000205498 -0.000437583 0)
(-0.0228091 -0.00314836 5.33818e-23)
(0.000344914 -0.000725985 2.61983e-21)
(0.0117678 -0.011247 -1.00701e-21)
(0.000180317 -0.000460259 -2.52375e-21)
(0.000565376 -0.000157254 0)
(-0.000786489 0.00167696 0)
(0.00050835 0.00166389 0)
(-0.0189079 -0.0042987 -4.98228e-23)
(0.00481354 0.0250991 -7.47764e-21)
(0.00777812 0.00306621 -4.58376e-21)
(0.00040284 -0.000261384 0)
(-0.00679247 -0.00152471 -4.96789e-23)
(0.000180651 -0.000339371 1.90198e-21)
(0.0271178 0.00877436 0)
(-0.000129726 0.00195651 -1.9036e-21)
(0.0061166 0.00777087 0)
(0.000785865 -0.000187991 -4.34843e-21)
(0.000503313 8.26119e-05 -2.22156e-21)
(0.000796106 -0.000553871 0)
(0.00185955 -0.00149351 -1.12734e-21)
(4.67933e-05 -1.41899e-05 0)
(-0.0115987 -0.000814392 0)
(-0.0207324 -0.00291211 0)
(0.0203222 -0.00218819 -2.83708e-21)
(-0.0027884 0.00273311 2.38193e-22)
(0.0390701 0.0070754 -4.70385e-21)
(0.00416047 0.00340482 1.61523e-21)
(0.0142377 -0.0137281 5.00439e-21)
(0.000351305 -0.00051589 0)
(1.0961e-06 -0.000118055 -2.90284e-21)
(-0.0124977 -0.00439423 1.18132e-21)
(5.12752e-05 -2.37127e-05 -1.98288e-21)
(0.000213399 -0.000176944 -1.31925e-25)
(0.000415212 -0.000553641 1.18914e-21)
(0.0227336 -0.00360144 -7.28021e-21)
(0.000477642 0.000246612 4.67086e-21)
(0.000229979 -0.000553363 -6.87371e-24)
(0.00245524 -0.000949456 -2.46944e-24)
(0.000594826 -0.000839139 0)
(1.64994e-05 -1.73717e-05 1.99074e-22)
(0.00920505 0.0212473 -6.13702e-21)
(0.000184036 -0.000276979 -3.08542e-21)
(-0.0142341 -0.00515876 3.74197e-23)
(0.00922267 -0.00564308 2.76999e-21)
(0.000129607 -0.000160964 0)
(0.000363522 0.000482231 4.05683e-21)
(-0.00208406 0.00085434 2.4181e-21)
(0.004808 0.00989075 1.02242e-22)
(0.000117972 0.00011787 -2.68994e-22)
(0.0193013 -0.000321227 0)
(-0.0169185 0.00138176 -2.94303e-21)
(4.52354e-05 0.000255228 0)
(-0.00256833 0.00401764 -7.10753e-22)
(0.00920526 -0.0207346 2.805e-22)
(0.00945428 0.00227689 0)
(0.000397091 -0.000278316 2.66518e-21)
(0.0379247 0.00932849 1.88279e-20)
(-0.0170413 -0.00259709 1.93326e-22)
(4.8835e-05 0.000259415 1.68257e-21)
(-0.0162892 -0.00473148 -1.10014e-20)
(0.000312855 4.77587e-05 -2.14456e-21)
(0.000189019 -0.000277744 1.52312e-21)
(0.0252085 -0.0103268 -1.09179e-21)
(-0.0046195 -0.0129631 -1.37285e-21)
(0.000798086 -0.000428441 0)
(-0.000205975 0.00159703 -4.35133e-21)
(4.43037e-05 -1.12283e-05 -2.52859e-21)
(-0.000908629 0.00254416 0)
(-0.013754 -0.00541206 -4.88136e-23)
(0.0167096 0.00877957 -6.12773e-21)
(0.000106645 0.000194063 -4.04614e-22)
(-0.000589402 0.000736667 0)
(0.000221104 -0.000178617 0)
(0.00031956 7.35363e-05 2.63415e-21)
(0.00160373 -0.00060025 -2.25177e-22)
(0.000137052 0.00126537 0)
(4.10788e-05 0.000124302 -1.08691e-21)
(0.00048607 7.00069e-05 -1.50127e-21)
(-0.00280795 0.00595916 0)
(-0.00105478 0.00392485 1.8668e-21)
(-0.00275914 0.00436242 0)
(0.000452618 0.000222963 3.70221e-21)
(8.54801e-05 -1.63046e-06 8.3914e-25)
(-0.0115514 0.0150316 7.95028e-22)
(1.37647e-05 -0.000268379 0)
(-0.00159556 0.00213702 0)
(0.000501321 0.00106257 -4.81919e-21)
(0.000402128 0.00154328 5.76992e-21)
(0.0010039 6.97987e-05 -1.13274e-21)
(0.0286204 0.0173371 0)
(-0.00743478 -0.00316182 0)
(0.000612489 -4.62934e-06 3.25249e-21)
(-0.00811309 0.00148849 0)
(0.000195471 0.000693434 -9.43493e-22)
(0.000746504 -0.00198478 0)
(0.0261345 0.011936 -9.1864e-21)
(-0.0121511 0.00665966 -2.51909e-22)
(0.000303626 -9.93894e-05 -2.63898e-21)
(0.000179118 -0.000334302 2.20505e-21)
(0.000484715 -0.00103396 0)
(-0.00231703 0.00621978 0)
(-0.0211481 0.00396331 1.8536e-20)
(-0.000896293 0.00238431 0)
(-0.013761 -0.00328387 -1.88111e-22)
(9.55297e-05 0.00126959 0)
(0.000896766 0.00113739 0)
(-0.00387896 -0.0111233 1.36741e-21)
(0.00644237 0.0211675 -7.14335e-21)
(0.00275437 -0.00191 2.46434e-21)
(-0.0159003 -0.00460297 0)
(0.00452745 0.0144561 1.34167e-21)
(0.028534 0.00380443 8.94626e-21)
(0.000348784 8.86791e-05 2.69481e-24)
(-0.0284927 0.0198766 0)
(-0.0155275 -0.0393171 0)
(8.35935e-05 -0.000202306 1.96844e-21)
(0.0227922 0.00105108 5.81638e-21)
(0.00932889 -0.00922149 -4.86554e-21)
(0.000809529 -4.35019e-05 -4.09958e-21)
(0.00182191 0.00177173 3.53456e-21)
(0.000259235 -0.0003556 3.41032e-24)
(-0.000350614 -0.00262307 -9.1299e-22)
(0.00172517 0.00106667 0)
(-0.0171278 -0.00610661 -4.59868e-21)
(0.000260198 -0.000222935 -2.38672e-21)
(7.63393e-06 -1.6975e-05 0)
(0.00021292 -0.000532399 0)
(0.000542228 -0.000756391 -1.00075e-21)
(7.67436e-05 -0.000169161 0)
(0.0234618 -0.00284402 1.23476e-20)
(1.23538e-05 -2.37526e-05 1.8086e-21)
(0.004888 0.0139407 0)
(0.00038149 -0.000321484 7.56675e-23)
(-0.00266518 0.000156215 1.98062e-21)
(0.000180229 -0.000455229 -2.81109e-21)
(2.26894e-05 -1.82193e-05 -2.25688e-21)
(0.00121425 0.000254929 0)
(-0.000449962 0.000791455 -7.87223e-21)
(0.00127192 -0.000717478 6.73384e-21)
(0.0233125 0.00213408 -1.18024e-21)
(0.000547751 -0.000138033 -6.08827e-22)
(0.000123647 -1.62806e-05 -2.02123e-21)
(0.00012045 -7.22227e-06 -2.33293e-21)
(0.0014546 -0.00164115 2.83824e-22)
(0.000388473 -1.54331e-05 -5.13738e-22)
(-0.00239716 -0.00224877 -7.42666e-21)
(0.000526404 0.000214095 2.53652e-21)
(0.000441726 -0.000703923 0)
(-0.0269565 0.0162837 0)
(1.12402e-05 -0.000271127 1.58153e-21)
(0.0431012 -0.000577992 0)
(-3.37863e-06 3.13544e-05 2.55403e-21)
(-0.00528268 -0.00161103 -1.26403e-20)
(-0.00844505 0.00163333 0)
(0.00818094 0.0235799 0)
(0.000104707 -0.000624514 1.78295e-21)
(-0.0193178 -0.00705125 4.21309e-21)
(0.00230065 -0.00099776 4.78237e-21)
(0.00505074 0.00404392 1.10116e-21)
(0.00973295 -0.0107171 0)
(9.91821e-05 0.000196456 8.81304e-22)
(0.0077338 0.0215171 -2.56444e-21)
(0.000592996 -0.000431044 0)
(0.000851978 -4.28478e-05 1.19836e-21)
(-0.00161149 0.0030733 -1.8288e-21)
(-0.0223403 0.00211968 9.7062e-22)
(0.000111249 -3.8086e-06 1.73056e-21)
(-0.00217139 -0.00198605 6.97736e-21)
(0.000197615 0.00019844 1.28726e-21)
(0.0290152 0.00381682 -1.81759e-21)
(0.0232723 0.00122889 2.73401e-21)
(0.000335555 0.000152765 -1.06062e-22)
(0.00027592 -0.00132163 -2.89643e-21)
(-0.0254096 -0.000667505 6.90702e-22)
(-3.82813e-06 5.16997e-05 -2.87757e-21)
(-4.64341e-06 3.71379e-05 -2.09277e-21)
(-0.0024716 0.00110448 -9.18186e-21)
(0.0433505 -0.000475564 -3.52077e-21)
(0.0342877 0.0117476 1.16691e-20)
(8.88284e-05 -0.00055699 5.67702e-22)
(0.00531648 -0.00776093 -4.63602e-22)
(0.000399017 0.00016977 -1.7276e-21)
(2.27578e-05 -2.90357e-05 0)
(-0.0318864 0.0121989 -1.96069e-21)
(0.00632566 -0.00786292 0)
(0.000605308 0.00333741 -1.42659e-21)
(4.17379e-05 9.2547e-05 0)
(-0.00485551 0.00781647 -6.67125e-21)
(0.000862561 -0.000935137 0)
(-0.00139602 0.0012037 -1.53433e-21)
(0.000100198 -0.000680726 -4.1636e-21)
(0.000435043 -3.17959e-06 -7.96683e-24)
(0.00172914 0.000900564 0)
(0.000213931 -0.00051725 0)
(-0.00699668 0.00767979 2.9955e-21)
(0.00229487 0.000666394 -3.5208e-21)
(0.00227671 0.000324038 5.46417e-24)
(0.00259356 -0.00168668 -3.63063e-21)
(-0.00457875 -0.003962 4.39765e-22)
(0.00498218 -0.0228641 1.07197e-22)
(0.0132449 0.0189012 1.03759e-22)
(0.0142431 -0.00385672 0)
(-0.0102454 0.00665984 0)
(-0.0292091 0.00243058 -6.53712e-22)
(0.00119186 -0.000309544 4.37266e-21)
(0.0276915 -0.0083548 0)
(0.00966851 0.00295969 0)
(0.00019728 8.53153e-05 0)
(0.000874718 0.00110496 2.63966e-21)
(0.00422216 -0.0199813 7.75906e-21)
(0.000616721 3.73581e-05 3.49942e-21)
(0.000119344 -0.000105695 1.44505e-22)
(0.000114017 -9.58674e-05 -2.41414e-21)
(-0.00567073 -0.000405281 -5.44697e-21)
(0.0310009 0.00259039 -7.75934e-21)
(0.000344275 0.00121731 3.65284e-21)
(-0.00535021 -0.0108209 -1.39656e-22)
(0.000127543 -3.19793e-05 -2.01642e-21)
(0.0365532 0.0143773 -2.48206e-21)
(0.0016766 -0.00193379 0)
(0.0167823 -0.00194266 -1.14792e-20)
(-0.0021995 -0.00145706 3.45797e-21)
(0.000556077 -0.000108524 3.44532e-21)
(0.000504189 0.000156343 2.50312e-21)
(0.0179016 -0.0023445 4.03813e-21)
(0.000219144 0.00319912 5.25746e-21)
(0.00114513 -0.000265777 -5.22611e-21)
(0.0077141 0.0235366 1.27772e-21)
(0.000348256 4.91981e-05 0)
(-0.0083651 -0.0041958 0)
(-0.00583956 -0.000952005 3.23225e-21)
(0.00589374 0.0132464 2.30034e-21)
(0.000642968 -0.000227864 -1.14085e-21)
(-0.0044113 0.00141236 0)
(0.00010335 -0.000220944 1.98e-21)
(-2.99196e-06 2.63756e-05 1.57715e-22)
(0.000102104 -0.00064267 3.15103e-21)
(2.21699e-05 -3.96401e-05 -3.81781e-22)
(0.0241374 0.0136594 0)
(5.80123e-05 3.44023e-06 0)
(-0.0284098 0.0102527 0)
(-0.0148054 0.0137825 0)
(-0.00241655 -0.00127833 0)
(0.0185028 0.0074781 0)
(0.00232018 -0.00364796 0)
(0.00671774 0.0133035 0)
(0.0049094 0.00504725 -2.47916e-21)
(0.000137776 -0.000613461 -1.50349e-21)
(-9.24813e-06 -0.000318671 -3.15062e-21)
(9.43052e-05 -0.00034761 1.57744e-22)
(6.76964e-05 1.07699e-05 0)
(0.000122471 -6.57177e-06 2.97269e-21)
(2.14599e-05 -2.25017e-05 -1.29164e-21)
(0.00123812 -0.0021026 0)
(-0.00592081 -0.00523172 5.01113e-21)
(0.000898066 -0.000999062 0)
(-0.000436263 -0.00290983 -1.46197e-21)
(0.000440971 0.000109842 -5.46123e-22)
(-0.0176467 0.012921 1.11719e-21)
(3.48624e-06 2.33156e-05 -1.12405e-21)
(-0.0014656 -0.00675567 3.19747e-21)
(0.000431942 9.55304e-05 8.46392e-22)
(6.13807e-06 4.44674e-05 -3.1971e-22)
(8.39511e-06 -0.000464311 -1.77982e-21)
(0.00417908 0.0234818 -8.25847e-21)
(0.000598665 -7.82363e-05 -2.3134e-21)
(0.0241591 0.0405373 -3.11616e-21)
(0.00736518 -0.0137951 -5.71116e-22)
(0.00155915 0.00176674 0)
(0.0039303 0.001162 1.6129e-21)
(1.83319e-05 0.000274004 1.45749e-21)
(-0.0101232 -0.00509103 -2.30371e-22)
(0.000478596 -0.000158553 0)
(0.000493596 0.000220813 -4.91045e-21)
(-0.0304082 0.015404 0)
(2.99403e-06 -0.000309907 1.53003e-21)
(0.000256394 -0.000517885 -7.96523e-22)
(0.000156421 2.41648e-05 0)
(2.29485e-06 0.00210766 -4.42013e-21)
(0.0213276 0.0037043 -1.40256e-20)
(0.0005755 -0.000149859 3.7754e-21)
(0.000699676 -0.000229725 4.61813e-21)
(-0.00280844 0.00398971 0)
(0.0165387 0.00829607 5.96507e-21)
(0.000230981 -0.000613149 -2.13342e-21)
(0.0006072 -0.00016465 0)
(0.0284546 0.00810409 -5.01511e-23)
(6.49634e-05 1.2832e-05 0)
(0.0286021 0.00700941 6.08996e-21)
(-2.27884e-06 -2.55614e-05 -1.31525e-21)
(0.000408855 0.000222283 0)
(0.019023 0.0204816 3.03026e-21)
(0.000248461 0.0057436 -1.09466e-20)
(0.00438073 0.00925632 0)
(-0.000582197 0.00101015 4.95119e-21)
(0.00139616 -0.000740527 -9.32916e-22)
(-1.02482e-06 -4.15159e-05 -1.53335e-21)
(1.17402e-06 2.07397e-05 -2.40204e-21)
(0.000633133 -0.00220403 0)
(0.000352028 7.59465e-05 1.69205e-21)
(4.30324e-06 4.85223e-06 -2.74492e-21)
(0.00025595 0.00131156 0)
(0.00110406 0.00643828 3.39188e-21)
(6.62895e-05 2.95396e-05 -3.76213e-21)
(0.00551667 0.00268592 -2.14844e-21)
(-0.00260128 -0.00419754 -1.74456e-21)
(0.0218549 0.0378847 -3.25768e-21)
(-0.000664914 0.000898264 -3.16337e-21)
(-0.0116308 0.00418696 3.18306e-22)
(0.000298325 -0.000806222 2.80485e-21)
(8.57845e-06 -0.000354262 0)
(-0.000686269 0.00159099 -1.6017e-21)
(0.000120222 -6.56447e-05 0)
(0.000654358 8.86477e-05 4.33951e-22)
(0.0150853 0.0213574 8.45748e-22)
(0.0272259 0.000172665 -1.42266e-20)
(0.00659105 0.0218718 -1.84058e-21)
(0.0292129 0.00844485 0)
(0.000333734 0.000177499 0)
(0.000329374 0.000155896 1.06434e-22)
(0.00147768 -0.00119438 3.08672e-21)
(0.000416667 -4.50977e-05 -5.67676e-22)
(0.000182449 0.000169552 0)
(0.00187667 0.00194662 -1.7244e-21)
(0.00944119 0.0101498 -1.90552e-21)
(0.00501503 0.00618717 0)
(-0.00547482 -0.00208768 1.40185e-20)
(0.00058127 0.00578909 7.28547e-21)
(4.31066e-05 -8.80205e-05 4.72029e-22)
(0.00012568 0.000139588 0)
(0.0155013 0.000785949 1.70602e-22)
(0.00596637 0.00134196 -5.82244e-21)
(0.000436814 0.000250165 -4.41348e-21)
(4.76178e-07 4.89839e-05 -5.9545e-22)
(0.00333722 0.00994073 2.63975e-21)
(-0.00569852 0.00202552 -2.53109e-22)
(-0.00449539 -0.0116667 0)
(0.000147892 -0.00062966 0)
(2.20249e-05 -0.000139864 2.59646e-21)
(0.02048 0.00286353 1.0819e-20)
(9.81311e-05 -0.000680294 3.41956e-21)
(0.000935696 -4.65258e-05 -6.09487e-22)
(0.000116169 -1.51392e-05 0)
(0.021324 -0.00587366 0)
(9.10656e-05 -5.35665e-06 -2.74387e-21)
(-0.00725109 0.0018676 0)
(5.04066e-05 -0.000217869 3.0031e-21)
(0.00185928 0.0029718 -2.68503e-21)
(0.0014936 0.000460627 2.99362e-21)
(0.00133303 -0.00125511 1.10871e-21)
(0.000661655 -0.000246116 -6.70871e-22)
(0.000168856 -0.00037404 0)
(0.000504486 4.31364e-05 0)
(6.82854e-05 3.61944e-06 -7.98241e-25)
(-0.0280393 0.00555344 3.5294e-21)
(0.000153025 -0.000649136 0)
(0.0396096 0.000788269 4.4527e-21)
(0.000365771 2.77714e-05 1.05543e-21)
(0.00345326 0.00494598 6.34678e-22)
(-0.0181466 -0.000165542 0)
(0.000599873 -0.00020129 2.43274e-21)
(6.11646e-05 1.58429e-05 -1.80633e-21)
(0.00345845 -0.00101798 1.12236e-21)
(0.0400778 0.0117355 2.6432e-21)
(0.000635262 -8.31067e-06 -6.83121e-21)
(-0.000295213 0.00559616 7.84775e-21)
(8.19958e-05 -0.000328594 0)
(0.0406718 0.00073587 0)
(0.000203122 8.27523e-05 -1.14115e-21)
(0.00192291 -0.0197635 0)