/*--------------------------------*- C++ -*----------------------------------*\
| =========                 |                                                 |
| \\      /  F ield         | OpenFOAM: The Open Source CFD Toolbox           |
|  \\    /   O peration     | Version:  v2012                                 |
|   \\  /    A nd           | Website:  www.openfoam.com                      |
|    \\/     M anipulation  |                                                 |
\*---------------------------------------------------------------------------*/
FoamFile
{
    version     2.0;
    format      ascii;
    class       volScalarField;
    location    "100";
    object      k_0;
}
// * * * * * * * * * * * * * * * * * * * * * * * * * * * * * * * * * * * * * //

dimensions      [0 2 -2 0 0 0 0];


internalField   nonuniform List<scalar> 
13851
(
0.000204596
0.000153693
0.000153493
0.0200668
0.000148179
0.000156156
0.000154567
0.000146792
0.0508255
0.000148014
0.000177492
0.000148178
0.00014842
0.0289792
0.000168007
0.000200271
0.0175716
0.000147751
0.000253159
0.000204489
0.000171145
0.000155215
0.0332779
0.000149695
0.0239814
0.000184346
0.00024137
0.009843
0.0466187
0.00014591
0.045676
0.000154545
0.000204393
0.0666086
0.000169854
0.0464564
0.000149782
0.0181657
0.0666588
0.000148218
0.0708364
0.0486055
0.00631098
0.000224348
0.0511462
0.00014694
0.000144429
0.000202219
0.000151801
0.000148394
0.0255076
0.000148648
0.000200345
0.000163493
0.0266727
0.000148214
0.000204778
0.0683653
0.000181582
0.031102
0.000148237
0.000259478
0.000148325
0.000152062
0.000184025
0.000184593
0.0255515
0.000166764
0.000148524
0.0290757
0.0409143
0.000176612
0.00014791
0.0278582
0.000164855
0.000152089
0.0230066
0.000145042
0.0148754
0.000147233
0.000148598
0.000238048
0.000169268
0.0314047
0.0323254
0.044554
0.000155462
0.0203988
0.000147955
0.0456566
0.00014876
0.000154716
0.00947318
0.0402462
0.0607783
0.00020277
0.000147105
0.000202819
0.027121
0.000196438
0.000204401
0.000162361
0.000163368
0.000148146
0.000146925
0.000175063
0.000146924
0.0432804
0.000154683
0.000147601
0.000159337
0.000146951
0.00020375
0.000179656
0.000204085
0.000162661
0.000145805
0.000146316
0.0174931
0.0326378
0.00019214
0.000146689
0.000148431
0.0493541
0.000232304
0.000173722
0.000147099
0.000172491
0.0642691
0.000175004
0.000155139
0.000161305
0.00506605
0.0656953
0.000178155
0.0603841
0.000166452
0.0430956
0.000160146
0.000174854
0.000231799
0.000149814
0.000147969
0.000172399
0.0344085
0.000151651
0.000144974
0.0408154
0.0405955
0.000173235
0.000204568
0.000202294
0.000180862
0.000229651
0.000148917
0.000148178
0.000148353
0.0627233
0.000172333
0.00015313
0.00014952
0.0465987
0.000174378
0.000202364
0.0295678
0.054003
0.0548952
0.0301955
0.000159035
0.0714161
0.000148359
0.000145821
0.000179707
0.000148649
0.0642724
0.000232111
0.00021021
0.000145726
0.000164891
0.000208739
0.000230555
0.000220545
0.000158389
0.000174726
0.00721834
0.041262
0.000204391
0.000157092
0.000148712
0.000146389
0.0163744
0.000172289
0.0234711
0.000156381
0.000151389
0.000201535
0.000203524
0.000148859
0.000148838
0.000167529
0.000231664
0.0656918
0.069142
0.000168037
0.000327428
0.0616834
0.000151583
0.000174575
0.0521077
0.000155246
0.000199514
0.000148366
0.000235651
0.000149459
0.000170464
0.000153177
0.000148318
0.000226742
0.000148902
0.0005101
0.000145699
0.000204376
0.0270432
0.0621789
0.000156716
0.000174939
0.000149701
0.000170953
0.000147701
0.000170149
0.0338825
0.000156663
0.000155201
0.000148489
0.0669658
0.000145875
0.0173742
0.0682721
0.000192784
0.00014959
0.00036256
0.0329189
0.0513771
0.000199387
0.000164334
0.000175872
0.000220135
0.000165157
0.000201862
0.000160885
0.0214999
0.000203846
0.000146458
0.000156609
0.000202897
0.0453808
0.0238668
0.000146339
0.000174285
0.000147927
0.000217549
0.000230268
0.000157209
0.000175078
0.000204445
0.00014759
0.000162708
0.000198036
0.00351384
0.000148208
0.000148309
0.000156903
0.0582225
0.0122387
0.000174516
0.000146909
0.000230619
0.000229395
0.000200467
0.000174557
0.0576632
0.02668
0.000157508
0.000165324
0.0210773
0.000146883
0.000148347
0.000201327
0.000174365
0.000145896
0.000149436
0.000147637
0.00014751
0.000164403
0.000148293
0.0523324
0.000172559
0.000147691
0.0451907
0.0468139
0.000148693
0.00020489
0.0260565
0.000150043
0.000148776
0.000173925
0.0302257
0.077388
0.000182838
0.000148094
0.0677772
0.000148298
0.000184655
0.0312133
0.00196912
0.000152828
0.00933472
0.000656905
0.0483039
0.000201385
0.000162691
0.0654787
0.0553209
0.00955839
0.00014906
0.0250805
0.00826503
0.00021793
0.000211862
0.000151608
0.000182058
0.000157476
0.0215553
0.000164126
0.000146488
0.000143796
0.000157094
0.0448468
0.000385636
0.000146816
0.0595715
0.00015755
0.000161566
0.00015337
0.0261806
0.000229992
0.00020149
0.000152804
0.000154539
0.0453849
0.000148735
0.00023254
0.00015741
0.000173847
0.000158196
0.000147936
0.000147667
0.000198069
0.000199492
0.000204293
0.00120177
0.0461661
0.000151773
0.0661014
0.0002259
0.000145632
0.0029577
0.000192881
0.0317963
0.000156587
0.000185639
0.000263296
0.00982609
0.00019633
0.0240641
0.000150164
0.000214283
0.00689239
0.000161446
0.0264689
0.000163663
0.0716099
0.000164963
0.000171177
0.000203335
0.000211637
0.000148184
0.000156794
0.000175466
0.000165151
0.000147116
0.000174856
0.0580397
0.000147881
0.00017467
0.0124306
0.000153148
0.00140087
0.000173789
0.0800494
0.000155911
0.00018299
0.000316964
0.000233626
0.000174358
0.0201549
0.0281047
0.000344268
0.000147634
0.000197438
0.000163661
0.000185255
0.000146786
0.00733426
0.0661698
0.0144346
0.000154476
0.000204077
0.000257967
0.0133514
0.000144479
0.0187003
0.00021806
0.0333345
0.000161577
0.0227709
0.00014807
0.000148548
0.0227926
0.00025463
0.000148012
0.000153719
0.000175208
0.000146081
0.0617243
0.000182423
0.000192318
0.000156705
0.000150198
0.000148731
0.00547566
0.000147643
0.000148668
0.0324243
0.0564145
0.00015464
0.000253629
0.000148377
0.000148283
0.000153681
0.000204623
0.000173595
0.000147211
0.000150839
0.000191444
0.00015212
0.0796538
0.000148137
0.000159325
0.0517706
0.000160749
0.000144214
0.000148501
0.000156551
0.000149388
0.000294359
0.0405448
0.000164577
0.000621298
0.000153791
0.000148008
0.0607773
0.000256862
0.000160092
0.00014796
0.0531022
0.000159497
0.00172398
0.000148154
0.000161655
0.000197193
0.000166555
0.058977
0.000254324
0.00722916
0.000151937
0.000202597
0.000147571
0.045398
0.000173685
0.000203509
0.000163484
0.000152481
0.000160787
0.000180259
0.000148275
0.0140593
0.0592592
0.0802878
0.00742182
0.0386976
0.0336694
0.000232909
0.000156152
0.000149228
0.00301424
0.000148023
0.000147085
0.000157462
0.0671593
0.000153421
0.000149803
0.000174746
0.000173422
0.000148061
0.081403
0.000147113
0.0651806
0.000263606
0.000147211
0.00015254
0.000222505
0.00350716
0.000145941
0.0485848
0.0133931
0.000145652
0.0571072
0.00025048
0.000204093
0.000151888
0.030063
0.0317013
0.000145851
0.000233806
0.000148467
0.000147125
0.0259368
0.0725873
0.000167954
0.000173005
0.00014803
0.000180437
0.0656277
0.0628439
0.000146899
0.0239568
0.000147172
0.000148541
0.000174613
0.000159502
0.000144428
0.000152093
0.0590058
0.000209054
0.0553845
0.000152842
0.000147902
0.0579116
0.000148991
0.000198235
0.000159077
0.000164853
0.000164048
0.051099
0.0313885
0.00015623
0.0174868
0.000152316
0.000181441
0.0493726
0.0327224
0.000148376
0.000147611
0.000163428
0.0566227
0.000233864
0.00017991
0.00668422
0.00015969
0.000164136
0.0418712
0.0833661
0.000183911
0.0635893
0.000216375
0.0476726
0.000149648
0.000176419
0.00661536
0.000148162
0.0107352
0.0877816
0.000159122
0.00017481
0.000148099
0.000523858
0.000176699
0.049922
0.000147664
0.000148872
0.000154753
0.00017288
0.000148213
0.0640056
0.000148824
0.000215284
0.000151955
0.000185818
0.000148121
0.000148077
0.000167907
0.0242203
0.000174045
0.0584707
0.000161695
0.000146169
0.000146267
0.000179989
0.000150803
0.000189932
0.0001542
0.00015977
0.000186754
0.000149004
0.0198066
0.000149615
0.000191051
0.0200437
0.0537875
0.000156408
0.0399255
0.000174104
0.000206095
0.0875188
0.000147554
0.0855735
0.000157609
0.00016231
0.00945128
0.000308904
0.000145766
0.000189374
0.00014876
0.0462699
0.0261149
0.000148904
0.000167386
0.0657056
0.000149697
0.000149605
0.000184535
0.016457
0.0192468
0.000148793
0.000202878
0.000151702
0.000148095
0.00018361
0.000203569
0.000195286
0.00014427
0.000198217
0.000164117
0.000181258
0.000149882
0.000151109
0.000175415
0.000154526
0.000200169
0.000176409
0.000176334
0.000180219
0.000239923
0.00025078
0.0441693
0.0369541
0.000203233
0.0379742
0.000163509
0.029483
0.000205086
0.000147491
0.000163534
0.000232126
0.000156257
0.000147251
0.000147211
0.000191278
0.021568
0.000159551
0.0652283
0.000146202
0.0231847
0.000180108
0.0247086
0.000188801
0.000156086
0.000153542
0.0288851
0.000195417
0.000163099
0.000257549
0.00014984
0.00212225
0.000191315
0.000215527
0.000162733
0.000260699
0.000148046
0.000149547
0.000151172
0.0001481
0.0494436
0.000147506
0.000199518
0.0575577
0.000189379
0.0646842
0.0300221
0.000217011
0.000210277
0.000156285
0.000148993
0.000148247
0.000145102
0.000146251
0.000148666
0.000181992
0.000203231
0.000164849
0.00666543
0.000151029
0.0508085
0.000149946
0.0232584
0.000167791
0.000149862
0.000148608
0.054123
0.0001564
0.0120123
0.0876466
0.000173581
0.000184789
0.000145489
0.0666367
0.000152758
0.000153512
0.000185532
0.00014902
0.00014979
0.000147278
0.000173712
0.0229862
0.000159474
0.000163214
0.000222661
0.0591014
0.000156683
0.000155478
0.0488955
0.000145068
0.0481439
0.000149178
0.000152202
0.0129054
0.000189636
0.000203646
0.000184655
0.000174309
0.00014939
0.000149947
0.000182874
0.000149791
0.000149453
0.00016028
0.00021683
0.000147385
0.000201306
0.000887348
0.0076256
0.000184395
0.0460346
0.00016035
0.000148955
0.000195151
0.000146307
0.000156922
0.0390888
0.0459913
0.084897
0.0497571
0.000149085
0.000148788
0.000169908
0.000150799
0.000146682
0.0275404
0.000218378
0.0283316
0.000191251
0.000190161
0.000148129
0.000145958
0.00211856
0.00019234
0.000152781
0.000149605
0.0002036
0.000205871
0.0670117
0.000148876
0.000148758
0.0195512
0.000149836
0.000163863
0.000146109
0.0687383
0.000147297
0.0224929
0.000148167
0.000189912
0.000169119
0.000169484
0.000163068
0.000147911
0.000153684
0.000147687
0.000211201
0.000149822
0.028343
0.000150038
0.014096
0.0605897
0.000161374
0.000147531
0.0138581
0.0404008
0.000156803
0.000189437
0.000148245
0.0189775
0.000147608
0.000232762
0.000148072
0.000147662
0.00804102
0.000164287
0.00014842
0.000163983
0.0656226
0.000432044
0.0694997
0.000146337
0.0404596
0.000148161
0.000147441
0.000148914
0.000143429
0.000149449
0.0765263
0.0433104
0.000148953
0.000148792
0.000168284
0.000146963
0.0174202
0.000196137
0.0335156
0.0668118
0.000153601
0.000200277
0.00014811
0.000171076
0.000176656
0.000147345
0.000149248
0.000456071
0.027922
0.000184125
0.00861308
0.000182571
0.000148355
0.000169309
0.000189781
0.0206787
0.000163347
0.000194571
0.000192988
0.000149365
0.0578698
0.0567508
0.028314
0.00834134
0.0247678
0.000151873
0.00017554
0.000148678
0.000108695
0.000155767
0.000146508
0.0733131
0.000150809
0.000147538
0.000148392
0.000150524
0.0654614
0.000231867
0.00014656
0.000169866
0.030113
0.000151181
0.00787422
0.000150894
0.000188796
0.0715507
0.000148317
0.000254499
0.000158664
0.000162443
0.000496543
0.000150795
0.000236526
0.00018258
0.0693549
0.000149211
0.0261008
0.000160999
0.0418719
0.0217995
0.0209851
0.000173628
0.000148021
0.000149149
0.000149696
0.000169971
0.00014853
0.0609242
0.000157644
0.000156045
0.000156501
0.000151772
0.000146298
0.000158397
0.000156863
0.000152511
0.000156188
0.0858564
0.000206273
0.00016061
0.000169997
0.0724561
0.000149887
0.0480868
0.000145138
0.000160688
0.000149848
0.000147599
0.000166944
0.000147974
0.000146515
0.000162659
0.000148215
0.000214467
0.00015042
0.00946185
0.000718502
0.000221659
0.000225244
0.000148398
0.0611096
0.000208963
0.000149387
0.000156702
0.000149595
0.0516291
0.000150871
0.000162754
0.00197967
0.0102484
0.000178576
0.000148597
0.0516058
0.00124727
0.0284858
0.000158563
0.000146096
0.000146757
0.000182927
0.000148039
0.0272848
0.000198791
0.000149148
0.000226257
0.000217325
0.000147152
0.0863693
0.0204295
0.000217356
0.000150295
0.051072
0.000181821
0.000147709
0.0228412
0.000155305
0.000146911
0.000147185
0.000163823
0.000170154
0.0547399
0.0490819
0.000170904
0.0552278
0.000165236
0.000147926
0.000169302
0.00014726
0.000912142
0.000147118
0.000147884
0.000152382
0.000149689
0.0589724
0.0213316
0.000233378
0.030501
0.0853933
0.000156708
0.000147903
0.000150425
0.000237416
0.000146942
0.000147503
0.000168701
0.0206259
0.000212883
0.000144878
0.000165303
0.000163356
0.000204023
0.00743369
0.000145632
0.000144323
0.000152644
0.0061984
0.000160217
0.0659435
0.000151061
0.000148852
0.000146975
0.000147149
0.000153155
0.000216664
0.0479935
0.0533571
0.000156501
0.000148015
0.00132667
0.00014942
0.0319591
0.0386657
0.00015785
0.0274546
0.0485624
0.0413694
0.000178588
0.000163147
0.0448885
0.00016146
0.000160123
0.000170271
0.000206089
0.000149671
0.000503277
0.000147949
0.0345158
0.0125946
0.000145173
0.000152019
0.000167251
0.000231866
0.000164352
0.000148681
0.000159363
0.000150861
0.000156389
0.000241408
0.00014885
0.0435918
0.022994
0.000147971
0.000162234
0.000169829
0.000148207
0.0450935
0.0109493
0.0631878
0.0337066
0.000147882
0.000153406
0.000155979
0.000148917
0.00022961
0.000164766
0.000149636
0.000182177
0.000154169
0.024738
0.000169265
0.0255729
0.000150733
0.000151224
0.000164316
0.00019203
0.000184659
0.000147622
0.00871709
0.0454028
0.0268177
0.0381495
0.0391165
0.0540831
0.0399359
0.000147647
0.000147899
0.000148095
0.000230345
0.000173121
0.000184249
0.0142102
0.000148987
0.000144821
0.000148027
0.000216497
0.000144888
0.000157314
0.000151931
0.0253943
0.000150435
0.000146362
0.000148242
0.000147586
0.000148848
0.000159863
0.000229988
0.00016022
0.0534031
0.000147918
0.000147161
0.0639481
0.0623059
0.0201608
0.0129421
0.000163988
0.0225664
0.000146053
0.000169826
0.000151223
0.000148202
0.000154034
0.026635
0.000151201
0.0001925
0.00166792
0.000149073
0.000147521
0.000154511
0.000217547
0.000149766
0.0259309
0.000147996
0.000216348
0.00014855
0.000148921
0.000157002
0.000172079
0.000148441
0.000231944
0.0418639
0.000206192
0.0648959
0.000148073
0.0245884
0.000146118
0.000147996
0.0118605
0.000148896
0.000162123
0.000148731
0.000148871
0.000147216
0.000148072
0.000149517
0.000155206
0.000183995
0.000148789
0.000148328
0.000166013
0.00014558
0.0828365
0.000148557
0.000162476
0.000165168
0.035883
0.00141829
0.000148721
0.00021779
0.000146061
0.000162324
0.00017388
0.00988587
0.00017496
0.000149769
0.000196783
0.000168768
0.000190085
0.000123931
0.000160827
0.000199699
0.000179966
0.000184514
0.000150343
0.00014681
0.00657301
0.0118305
0.000153492
0.000147678
0.0085751
0.000146237
0.00017051
0.00014728
0.000177942
0.0105938
0.000143894
0.0161339
0.000156049
0.000148916
0.000208704
0.000146505
0.00016162
0.0355301
0.000168473
0.00833521
0.000147175
0.000149708
0.000162261
0.000149385
0.000149549
0.000159261
0.000160231
0.000184103
0.000179365
0.000148239
0.000165271
0.000146633
0.00014806
0.000149294
0.000148011
0.000487902
0.000147329
0.000150968
0.000249615
0.000146195
0.000147587
0.0598923
0.000149578
0.0118042
0.000151545
0.0574508
0.000227495
0.000164741
0.00142503
0.0001781
0.000290544
0.000149376
0.000207251
0.000156441
0.000146674
0.000146952
0.000150938
0.000161858
0.000147516
0.000171631
0.000146778
0.000151192
0.00699071
0.0252935
0.000116779
0.000153879
0.000163243
0.0376992
0.0298841
0.000148937
0.000157016
0.000337405
0.0001487
0.000167462
0.000212901
0.0532592
0.000158199
0.000171714
0.000150284
0.000220143
0.000149877
0.000161055
0.0191885
0.00014851
0.00014696
0.0815834
0.000169988
0.000238815
0.0655714
0.000191721
0.00014928
0.000146806
0.000149044
0.0322109
0.00502379
0.0428938
0.000174727
0.000148111
0.0431055
0.000148421
0.000201305
0.000154756
0.000152139
0.000171064
0.000148034
0.0873772
0.0860885
0.000145399
0.000183828
0.000173953
0.00164547
0.000170905
0.000179651
0.00023474
0.000165146
0.000205326
0.000180977
0.00014844
0.000166337
0.000168898
0.0336477
0.000147856
0.000184877
0.000172082
0.000180985
0.000149773
0.0834278
0.000156436
0.000151646
0.000146747
0.000165936
0.000165266
0.000166795
0.000148574
0.000150043
0.000172491
0.00836066
0.000175993
0.000148804
0.000149799
0.000166284
0.000219499
0.000148927
0.000181131
0.0149813
0.000167966
0.0544047
0.000169705
0.0264635
0.000235744
0.000147651
0.000878938
0.000149482
0.000153801
0.000163847
0.000164841
0.000190556
0.000173827
0.000165954
0.000167338
0.000160956
0.000152551
0.000144825
0.00017049
0.000155523
0.000156898
0.000967624
0.000155285
0.000158567
0.000147191
0.0250275
0.000179777
0.000148237
0.000154157
0.000150948
0.0303637
0.000198742
0.00016387
0.0508683
0.000145611
0.000364456
0.000190999
0.000255567
0.000146724
0.000187962
0.00014743
0.000154966
0.0163154
0.0449088
0.000239071
0.000558619
0.000148513
0.02676
0.000146698
0.000189093
0.00015379
0.0208381
0.0772572
0.000156967
0.00014769
0.000234004
0.00016218
0.000147785
0.0384782
0.000148145
0.000151757
0.000155578
0.000148722
0.0001604
0.000151068
0.000148114
0.000162492
0.000252218
0.00016932
0.000176052
0.00014776
0.0307617
0.0456684
0.000147546
0.000257969
0.000153714
0.000156877
0.0423778
0.00014752
0.00014994
0.000156166
0.0472777
0.000147845
0.000149018
0.000168097
0.0274814
0.000147406
0.000159381
0.000161339
0.000454363
0.000171149
0.000167711
0.000225373
0.000148176
0.000173355
0.000145259
0.0293688
0.000159555
0.000148033
0.000158283
0.000187261
0.000148749
0.000148594
0.000204999
0.04811
0.000149382
0.0308017
0.000149065
0.000145191
0.000181973
0.000147849
0.000147336
0.0862802
0.000149783
0.000169134
0.000207188
0.0541652
0.000362153
0.000146783
0.000151965
0.000156004
0.000148129
0.000148037
0.000148309
0.00921634
0.000149131
0.000204575
0.000200067
0.000146925
0.000145706
0.00016011
0.000200038
0.0002577
0.000166991
0.000177046
0.000152155
0.0520888
0.000176966
0.000162256
0.000170023
0.000172514
0.000188737
0.0257177
0.000168745
0.0299279
0.0141376
0.0237353
0.000154108
0.000147625
0.000165837
0.000159177
0.000146575
0.000149435
0.000179497
0.000149529
0.00014908
0.000147979
0.000144297
0.00015237
0.000148123
0.022144
0.000147666
0.0334892
0.00014819
0.000174574
0.00014978
0.000200742
0.00017419
0.000148047
0.0453222
0.000151909
0.000149385
0.000169304
0.000146516
0.000158489
0.000147761
0.0484676
0.000152735
0.000169812
0.000171849
0.0418209
0.000157048
0.000189174
0.00106239
0.000169922
0.000148345
0.000150771
0.000176812
0.0001809
0.024665
0.000145963
0.0330659
0.000148262
0.00017033
0.0814512
0.0001639
0.0197402
0.000154159
0.000162732
0.000153406
0.0860621
0.000160367
0.000148675
0.000168995
0.000201514
0.000151502
0.000147953
0.000148687
0.0655847
0.000149608
0.000156352
0.0638332
0.000154627
0.000147628
0.000171895
0.000153785
0.0279159
0.000144822
0.000147902
0.000146471
0.000154197
0.00014927
0.000148397
0.000182608
0.0607403
0.000147476
0.000148373
0.0360659
0.000149139
0.0165582
0.000153072
0.0810853
0.000146831
0.000152679
0.000146051
0.0307374
0.0638893
0.000158599
0.00016978
0.000155066
0.000147439
0.000148483
0.0486708
0.000148631
0.000188758
0.00014638
0.000171327
0.000149082
0.0510029
0.000146275
0.000172801
0.000146892
0.000221985
0.000308967
0.000146306
0.000166372
0.0881907
0.000184283
0.0206446
0.0165305
0.000204893
0.000151174
0.000163858
0.00019132
0.00534637
0.000149012
0.000168493
0.000156135
0.000147722
0.027745
0.0383662
0.000184541
0.000208318
0.000234462
0.000161582
0.0574296
0.000146502
0.000146233
0.000188069
0.0849366
0.000217597
0.000199895
0.000632053
0.000146072
0.0845786
0.0352567
0.0803185
0.000149185
0.0314227
0.0461874
0.000314271
0.000404417
0.0467779
0.000189836
0.000160097
0.000203851
0.000153715
0.000147608
0.000875988
0.000192439
0.000144678
0.0369601
0.000149072
0.000157773
0.000170777
0.000154951
0.00216367
0.00016021
0.0124406
0.000172421
0.000154276
0.0059577
0.0744148
0.000204059
0.000149251
0.000153878
0.000183706
0.000168951
0.000146192
0.000172559
0.000167925
0.000197747
0.00014756
0.000210712
0.000152829
0.000168956
0.0345283
0.000182896
0.000150637
0.000186282
0.0337202
0.000148505
0.000150291
0.0788568
0.000225923
0.000153111
0.000153828
0.000148272
0.000175301
0.00015576
0.0484519
0.000189995
0.000149513
0.000149356
0.000166657
0.000158277
0.000122594
0.0294074
0.000146797
0.000147863
0.000157039
0.000149121
0.000153017
0.000150544
0.000150275
0.000154034
0.00014719
0.000153409
0.000148677
0.000174065
0.0054367
0.000149702
0.0600399
0.0163919
0.000145264
0.000184698
0.000187857
0.000179947
0.000150024
0.000192413
0.000157336
0.000169507
0.000160363
0.000151274
0.00014924
0.0242858
0.000159561
0.0100141
0.000149977
0.000148026
0.000147767
0.000173913
0.000147408
0.000175226
0.000181215
0.000306714
0.000146934
0.000262663
0.00582691
0.0473954
0.000146005
0.000195035
0.000225626
0.00758189
0.000490209
0.000149654
0.000148984
0.000194375
0.000346198
0.00292003
0.000169247
0.000259408
0.000149423
0.000146929
0.00016453
0.000149136
0.000148542
0.000199418
0.000149713
0.000170569
0.000146754
0.0745536
0.0591157
0.0229687
0.0323007
0.044435
0.00014847
0.000148708
0.0837283
0.000146121
0.000146415
0.000145213
0.00018449
0.0686816
0.0260206
0.000155716
0.000148654
0.000151075
0.000162856
0.0301515
0.000147811
0.0171207
0.0761561
0.000149073
0.000148976
0.0353934
0.000187603
0.000152041
0.000147954
0.0686573
0.0456545
0.000147936
0.000218764
0.000149616
0.0491546
0.000551973
0.000152674
0.027165
0.0164615
0.0464582
0.000146568
0.000148958
0.000149546
0.000149883
0.0632226
0.000147085
0.000198739
0.000257421
0.0228442
0.000150076
0.000174294
0.000185744
0.000173121
0.0815335
0.0527579
0.000144575
0.000155701
0.000155834
0.000198057
0.0540473
0.000144161
0.0236793
0.00016011
0.000171224
0.000150036
0.000147092
0.000221444
0.000167147
0.0192415
0.000149134
0.000173942
0.000149848
0.000201072
0.000153384
0.0594739
0.00283313
0.000203684
0.000190366
0.000147503
0.000152224
0.000190544
0.000184164
0.057356
0.0877718
0.00014874
0.0187918
0.000171203
0.0735875
0.000157927
0.00016945
0.000167374
0.000148354
0.0543742
0.000148114
0.000163159
0.0313662
0.0727673
0.000453096
0.0686422
0.000157017
0.000174613
0.00014588
0.0751142
0.000156043
0.0399574
0.000145792
0.0350303
0.00014394
0.00014762
0.000162633
0.000158296
0.00015963
0.000147648
0.0373054
0.00017196
0.000147109
0.000165107
0.0313685
0.000226566
0.000148049
0.0575323
0.000153039
0.000165152
0.000163604
0.000145064
0.000178213
0.000147574
0.0140302
0.000173858
0.000157947
0.000147905
0.000228561
0.000167998
0.000145781
0.036358
0.00656868
0.000228048
0.000145229
0.000124195
0.00014867
0.00019181
0.000158615
0.000182517
0.0123334
0.0364545
0.000159475
0.068108
0.000170049
0.00015702
0.000146294
0.0476963
0.000180841
0.000190526
0.000165996
0.000149526
0.0251784
0.000183683
0.00023423
0.000242951
0.0878023
0.037443
0.00264707
0.0334383
0.000157337
0.000158466
0.000148311
0.000148272
0.000144328
0.000212794
0.00015771
0.000159731
0.0634413
0.000147167
0.000146394
0.000170416
0.000202231
0.000158434
0.000146361
0.0669772
0.000153038
0.000173951
0.000148683
0.0232346
0.000156716
0.0746201
0.000167055
0.000163985
0.000171702
0.00014826
0.010795
0.00022098
0.000180327
0.000147994
0.000146781
0.0228114
0.0453665
0.0453571
0.00014708
0.000180581
0.000179014
0.000148216
0.000147606
0.000148337
0.0674976
0.000172365
0.000162489
0.000158614
0.000156502
0.0367636
0.000180214
0.000230147
0.000157317
0.000162962
0.000144255
0.000184302
0.000173351
0.000147874
0.0477341
0.0549176
0.06315
0.0470825
0.0422466
0.0833228
0.0849299
0.000150733
0.000147033
0.0644783
0.0391172
0.0351447
0.000148116
0.00016877
0.000148124
0.000147442
0.0146694
0.074542
0.000182215
0.000147629
0.000244874
0.000192306
0.000173757
0.0386736
0.000999781
0.000256734
0.000146823
0.0594985
0.00603025
0.000224837
0.000163556
0.000170182
0.000148684
0.000146606
0.000166773
0.000171328
0.000153084
0.000169584
0.000158414
0.000153653
0.000222709
0.0352341
0.000158952
0.000170945
0.046715
0.000214168
0.000148439
0.000196415
0.000234667
0.0265514
0.000168039
0.000148514
0.000159975
0.000156157
0.000158082
0.000145057
0.000158812
0.000162447
0.000173295
0.000202346
0.000149418
0.000150877
0.0372375
0.0501055
0.0716542
0.000179267
0.000195796
0.000143775
0.000148065
0.000160504
0.000145782
0.0876304
0.000148032
0.000149781
0.000145474
0.0476379
0.017167
0.000149281
0.000182066
0.000157375
0.000161566
0.000159953
0.000159685
0.000169152
0.00016515
0.0213949
0.000156414
0.0414742
0.000166203
0.0703794
0.000159001
0.000146982
0.000146229
0.000193051
0.000204865
0.000146134
0.000163048
0.000159313
0.000175896
0.0306088
0.0243896
0.0201483
0.000149779
0.000427649
0.000158124
0.000163857
0.000147904
0.000179758
0.000151949
0.0292263
0.000299779
0.000165684
0.000148192
0.0495992
0.000155259
0.0351041
0.0382435
0.000224049
0.00015281
0.000198711
0.0272716
0.000280803
0.0504832
0.000177106
0.000147671
0.000166394
0.000147079
0.0811126
0.000153201
0.000160965
0.000248169
0.0675354
0.000147434
0.000147484
0.0420277
0.000168407
0.0806763
0.000158586
0.000147952
0.000169519
0.000223488
0.000162635
0.0121641
0.000163605
0.000394332
0.00015429
0.000149544
0.00014739
0.000215035
0.000149873
0.000183564
0.000148148
0.000147995
0.000210064
0.000156637
0.000148375
0.000147868
0.00016319
0.000191574
0.000171266
0.000167101
0.000154605
0.000178065
0.000147958
0.00019177
0.00016069
0.000170568
0.0001676
0.00015932
0.000175399
0.000163414
0.000146887
0.000184
0.0493974
0.0346517
0.000148455
0.000504271
0.0343908
0.000147477
0.000149884
0.000230438
0.0411893
0.000155717
0.0337096
0.00023746
0.000148404
0.000189972
0.000144299
0.000156028
0.000178866
0.025291
0.000206023
0.000235346
0.000234114
0.0468567
0.0533634
0.000152227
0.0450682
0.000147982
0.00754363
0.0507581
0.000148343
0.000148185
0.0333992
0.000148467
0.000148236
0.000268588
0.055281
0.000222274
0.000156724
0.0460135
0.000148356
0.049919
0.0389974
0.00014908
0.00016107
0.006266
0.0449084
0.0353802
0.0397342
0.0321167
0.000146646
0.000150846
0.000179607
0.000182722
0.0001482
0.000211513
0.000147968
0.040411
0.0002632
0.000164583
0.000249957
0.0410763
0.000260421
0.000225404
0.000165789
0.0193521
0.000247438
0.000155329
0.000144655
0.00972672
0.000161219
0.000146057
0.0828352
0.000147553
0.0107128
0.000148566
0.0711162
0.000155738
0.000147553
0.00609616
0.000155503
0.000160476
0.029976
0.0758471
0.000480371
0.000158768
0.000172868
0.000151107
0.000169268
0.000201139
0.000169692
0.000149242
0.000325423
0.000180555
0.000161076
0.030823
0.000168861
0.000162251
0.000199221
0.000183955
0.000172504
0.000147512
0.000206197
0.00014624
0.000201156
0.000189305
0.0419837
0.000146532
0.000166646
0.0257702
0.00015165
0.000178577
0.00016267
0.000168893
0.0709936
0.00018072
0.000151206
0.0232897
0.000146607
0.0491307
0.000148544
0.000150873
0.000201015
0.0463422
0.000160732
0.000192127
0.00022202
0.00016264
0.000148759
0.000179012
0.000170871
0.0633954
0.000154661
0.00434029
0.000204985
0.000162654
0.000159764
0.000179238
0.000164905
0.000168554
0.000180763
0.000162626
0.000153154
0.000148603
0.000597455
0.000147848
0.000158656
0.000144419
0.000197335
0.000159232
0.000180791
0.0435219
0.000150538
0.000221081
0.000143577
0.000148573
0.000149075
0.000149216
0.00015742
0.00014713
0.000190405
0.0264265
0.000180678
0.000172457
0.000155082
0.000148133
0.000202256
0.000147894
0.0204508
0.0278932
0.0285867
0.000205465
0.000162778
0.000158207
0.000148982
0.000157698
0.00017134
0.000168381
0.0491862
0.000180503
0.0588436
0.000204413
0.000149248
0.000146267
0.0341346
0.00014742
0.00016052
0.000166578
0.000234667
0.00015196
0.0645564
0.000148938
0.000154894
0.000148129
0.000149795
0.00017897
0.00019592
0.000148871
0.000163838
0.000159594
0.000173181
0.000179921
0.00022161
0.000201806
0.000211269
0.000199059
0.00015707
0.000150736
0.000179526
0.0460875
0.0806837
0.0509802
0.000163001
0.02447
0.000194097
0.000150407
0.000147567
0.000181469
0.000148699
0.000163816
0.0227976
0.000147411
0.000146571
0.00026946
0.0169349
0.000174103
0.000418306
0.000148449
0.0268052
0.000168165
0.0718802
0.000156867
0.000147947
0.050505
0.000165656
0.000148009
0.000172675
0.00014961
0.00019078
0.000158601
0.000165055
0.0851642
0.00015944
0.0437912
0.000147077
0.0533153
0.000148446
0.000155747
0.000149615
0.000170665
0.000148691
0.000166698
0.0493312
0.000245787
0.000174107
0.000160312
0.00016929
0.000147351
0.000148164
0.000151087
2.79753e-05
0.000155356
0.0744485
0.0360485
0.000189444
0.000149299
0.000192592
0.000205232
0.000203207
0.000156748
0.0399704
0.000147561
0.000143787
0.000147434
0.00490909
0.000148289
0.000147875
0.0505693
0.000147492
0.00020067
0.000172658
0.00014661
0.0584955
0.000159622
0.0710039
0.000147577
0.000448443
0.00015048
0.00016777
0.0291712
0.000182693
0.000147238
0.000158345
0.0253242
0.000163646
0.000193942
0.000161677
0.00015564
0.000187827
0.000157599
0.000149158
0.00691075
0.000159114
0.000159607
0.000199061
0.00014751
0.000146728
0.000149069
0.000162597
0.000148424
0.00015448
0.0499231
0.015264
0.000172196
0.00971199
0.000181172
0.000165796
0.0690616
0.0504087
0.000149352
0.0162065
0.0472199
0.035117
0.000884551
0.00016072
0.0227617
0.052661
0.0455761
0.000901852
0.0805213
0.000163082
0.000170454
0.000157401
0.00015679
0.000149348
0.000325693
0.000149877
0.0188322
0.00017556
0.000200603
0.000144253
0.00018666
0.000163987
0.000151399
0.000149942
0.000148477
0.000174961
0.000152528
0.00014915
0.000170032
0.0566618
0.000153389
0.000192564
0.00014618
0.000174873
0.00017019
0.000148538
0.000155438
0.000147151
0.0709103
0.0588675
0.000209244
0.00338524
0.000160842
0.000189897
0.000148599
0.000170502
0.000148222
0.000149163
0.000149448
0.0436305
0.000146014
0.000173473
0.000259963
0.000156613
0.000161866
0.000147674
0.0679763
0.00020548
0.0412184
0.0341344
0.000200708
0.000237552
0.0308147
0.00023419
0.000199408
0.0169264