/*--------------------------------*- C++ -*----------------------------------*\
| =========                 |                                                 |
| \\      /  F ield         | OpenFOAM: The Open Source CFD Toolbox           |
|  \\    /   O peration     | Version:  v2012                                 |
|   \\  /    A nd           | Website:  www.openfoam.com                      |
|    \\/     M anipulation  |                                                 |
\*---------------------------------------------------------------------------*/
FoamFile
{
    version     2.0;
    format      ascii;
    class       volScalarField;
    location    "100";
    object      nut;
}
// * * * * * * * * * * * * * * * * * * * * * * * * * * * * * * * * * * * * * //

dimensions      [0 2 -1 0 0 0 0];


internalField   nonuniform List<scalar> 
13851
(
0.000585125
0.00152558
0.0016277
0.00412823
0.00583154
0.00121349
0.00266144
0.00585996
0.0132885
0.00583985
0.000371254
0.00583249
0.00307893
0.00516149
0.00109572
0.00139625
0.00229835
0.00431745
0.00068356
0.000668379
0.000946297
0.000755334
0.00143751
0.00583558
0.00310757
0.00231981
0.000536745
0.00219097
0.0133922
0.00584326
0.0097578
0.00320085
0.000791344
0.0129094
0.000485758
0.0134673
0.00583591
0.00183691
0.0142533
0.00293244
0.0136542
0.0135692
0.000196354
0.000198129
0.0134738
0.00584842
0.00585067
0.00145816
0.00140067
0.00285059
0.00317234
0.0028766
0.001402
0.00179598
0.00469881
0.00279135
0.000667596
0.0144681
0.000637265
0.00523032
0.00583249
0.000588976
0.00583368
0.00131951
5.27438e-05
4.39764e-05
0.00317487
7.7472e-05
0.00285262
0.00632169
0.0094783
0.000840024
0.00382403
0.00387443
0.00165441
0.00105196
0.00370033
0.00583794
0.00213887
0.00583638
0.00249554
0.000571352
0.000484116
0.00601484
0.00567941
0.00989507
0.000794301
0.00283562
0.00584134
0.00969099
0.00201928
0.00273167
0.000298292
0.00918156
0.0139367
7.26033e-05
0.00584573
0.00137233
0.00357065
0.00021705
0.00133323
0.000158889
0.000136402
0.0032793
0.00585325
0.000651225
0.00585245
0.00992707
0.00282255
0.00462634
0.000456455
0.00584999
0.00044254
0.000466639
0.000916289
0.00189987
0.00583295
0.00585106
0.00349111
0.00672757
0.00010602
0.00586725
0.00239319
0.0121775
0.000399877
5.03547e-05
0.00584586
0.000300194
0.014018
0.000931696
0.00075908
0.000749706
0.000769603
0.013253
0.000422828
0.013871
8.89472e-05
0.00975207
0.000211128
0.00112409
0.000508841
0.00148119
0.00584261
5.87892e-05
0.00487741
0.00123613
0.00583711
0.00925444
0.011346
0.000289407
0.00134081
0.0004147
0.000467768
0.000476739
0.00193348
0.00423505
0.00583247
0.013955
0.00113358
0.00252973
0.0058351
0.0134446
0.000738651
0.00145575
0.00544544
0.0134245
0.0133573
0.00456905
0.000486333
0.00992139
0.00583263
0.00583233
0.000611028
0.00583238
0.0144153
0.00049617
0.00126042
0.00583297
0.00169838
0.00128234
0.000487656
0.000106063
0.000525646
0.00109309
0.000213719
0.0116321
0.000790567
0.000331186
0.00241717
0.00584598
0.00251202
0.0011658
0.00307107
0.00112631
0.00112921
0.00138626
0.000713428
0.00371856
0.00288666
8.83274e-05
0.000501225
0.0146446
0.014621
0.00126459
5.78057e-05
0.0141032
0.000933258
0.00146921
0.0133628
0.00113034
0.00140252
0.00327411
0.000536485
0.00583524
0.000527182
0.000940985
0.00304153
0.000609581
0.00315067
3.36849e-05
0.00583235
0.000617846
0.004258
0.0141578
0.00036342
0.00142408
0.00583582
6.67151e-05
0.00583434
0.000476666
0.00434325
0.0003638
0.00117877
0.00583342
0.0145165
0.00584375
0.000961867
0.0146288
0.000210573
0.00583533
0.000255287
0.00602336
0.0132844
0.00141898
0.000965098
4.97899e-05
0.000590785
0.00163628
8.74595e-05
0.000454969
0.00329713
0.000472876
0.0058388
0.00132404
0.00135806
0.0132525
0.00492257
0.00584467
5.1559e-05
0.00584086
0.000721559
0.000522054
0.00144105
0.000783664
0.000412198
0.00480855
0.000146787
0.00168003
0.00125993
0.00583342
0.00328121
0.0003647
0.0130886
0.00182544
0.000956375
0.00587312
0.000452105
0.00048479
0.000909175
0.000806996
0.0133254
0.00338503
0.00116927
0.00130227
0.00209603
0.00585528
0.00583238
0.000793257
0.000369798
0.00584661
0.00583518
0.00583451
0.00583057
0.00107734
0.00583233
0.0134204
0.000963708
0.00418245
0.0132762
0.0115169
0.00246721
0.000592221
0.00317988
0.00131999
0.00216377
0.000915152
0.00550216
0.0102811
0.000645196
0.00583093
0.0105673
0.00583259
0.000550546
0.00481192
0.000777889
0.00248304
0.000994883
0.000319801
0.0109278
0.000422297
0.00013506
0.0145145
0.0133645
0.00234254
0.00267809
0.00458656
0.0003227
2.83066e-05
2.90751e-05
0.000759591
0.000637198
0.000381015
0.00333381
0.000115593
0.00582894
0.00583588
0.000793464
0.0103599
2.86174e-05
0.00585445
0.0137668
0.000365637
0.000704214
0.00247818
0.00394478
0.000503362
0.00137819
0.00101749
0.00127005
0.0134376
0.00221072
0.000455085
0.0012682
0.000867632
0.000349788
0.00584182
0.00367727
0.000301248
0.00022359
0.000499439
0.000318848
0.0134973
0.00100002
0.0145038
0.00064229
0.00585493
0.00112825
0.000704543
0.00503701
0.000826543
0.00190826
0.000902494
0.0013356
0.000311821
0.00439576
0.00217547
0.000710917
0.000453051
0.000993148
0.00522475
0.000904198
0.014776
0.0013584
0.00173856
0.000498277
0.000261421
0.00402352
0.00129597
0.000340446
0.00167265
0.00578695
0.000924917
0.00881796
0.00389292
0.0011458
0.00214781
0.00140539
0.000280491
0.00160173
0.00887544
0.000969307
0.00195936
8.24137e-05
0.000432647
0.000730626
0.00348662
0.00398003
0.00028711
0.00492302
0.000363933
0.000791415
0.00197994
0.00586611
0.000230242
0.0098352
0.00197876
0.00127435
0.000444929
0.000571572
0.00209762
0.00584046
0.00264008
0.000355701
0.00131317
0.000401581
0.00399992
0.00420721
0.00583249
0.00332554
0.000531384
0.00584104
0.00160784
0.00115032
0.00583189
0.00910975
0.000580782
0.000808059
0.00188841
0.00199997
0.00244478
0.000924992
0.00386199
0.00250322
0.00762986
0.00918967
0.000778951
0.000736751
0.00583364
0.00583224
0.00134807
0.00049772
0.0017483
0.00513729
0.00196526
0.000111181
0.00204015
0.00937796
0.00583236
0.00179584
0.0133711
0.000261561
0.00583247
0.00583286
0.00185944
0.00353211
0.000255349
0.00995492
0.00101941
1.51308e-05
0.00141792
0.00583332
0.0136804
0.000634976
0.000226592
0.00358857
0.0130217
0.000238615
0.00040252
0.00307111
0.000712023
0.000318686
0.00147708
0.0137966
0.000603341
0.00105392
0.000879346
0.000425314
0.00485186
0.0132045
0.00182672
0.000760789
0.000869309
0.00106385
0.000248554
0.000603472
0.0058315
0.0020981
0.0137219
0.00736741
0.00124255
0.00857467
0.00685304
0.000459083
0.000412413
0.0058346
0.000370216
0.00583933
0.00584862
0.000334635
0.0147668
0.0017259
0.00145311
0.000137834
0.00063941
0.00584125
0.0086217
0.00584406
0.0138055
0.000248951
0.00583704
0.00222079
0.000400634
0.00118755
0.00584624
0.00471588
0.000938506
0.0058702
0.0127772
0.000578076
0.000589493
0.0010027
0.00750926
0.00508538
0.00587471
0.000655493
0.00284409
0.0058431
0.00703386
0.014784
0.000766487
0.00167225
0.00583954
0.00181224
0.0139282
0.0141179
0.00589213
0.0038745
0.00585087
0.00256769
0.0007294
0.00225115
0.00584032
0.000985666
0.0130484
0.000311129
0.0126309
0.00178234
0.00584116
0.0123523
0.00583406
0.000367245
0.00174463
0.00162649
0.000977203
0.0125372
0.00490585
0.00127281
0.00244533
0.00264476
0.000511081
0.01355
0.00740903
0.00267072
0.00514513
0.000134686
0.0128607
0.000870598
0.00167806
0.000491682
0.00204864
0.00133498
0.00427475
0.00896507
9.56234e-05
0.0138424
0.000785807
0.0135342
0.00215773
0.000564649
0.00140519
0.00583292
0.000580957
0.0111793
0.00048413
0.00107377
0.00330416
1.45659e-05
0.000223061
0.00302469
0.00426005
0.00583306
0.000472704
0.000606244
0.00583235
0.0144134
0.00583296
0.000858649
0.000861224
0.00198353
0.00321735
0.00567329
0.000326229
0.0036967
0.00070605
0.0135513
0.000743174
0.00583291
0.00586699
0.000605338
0.00200335
0.000460064
0.00166008
0.000249211
0.000671011
0.005834
0.00340141
0.0058356
0.00196808
0.00324876
0.0130852
0.000364417
0.00237838
0.000129033
0.000198313
0.0136177
0.00589313
0.009298
0.000379718
0.000926506
0.00165348
0.000102078
0.0058576
0.000418658
0.00395658
0.0134883
0.00363237
0.00257085
7.33739e-05
0.00904041
0.00583582
0.00583563
0.00215136
0.00228705
0.00504651
0.00205973
0.000471676
0.00209135
0.00525684
0.000530293
0.000456244
0.000247707
0.00583583
0.00167461
0.000163306
0.00189782
0.00136954
0.00118607
0.000229603
0.000468776
0.00155861
0.000861203
0.000864684
0.000113112
9.14501e-05
0.000588956
0.00755862
0.00367782
0.00139987
0.00895164
0.000288253
0.00778573
0.000590575
0.00473826
0.00128088
0.000464199
0.000754365
0.00583597
0.00583523
0.00196079
0.00353328
0.00179593
0.0144575
0.00583314
0.00589321
7.6203e-05
0.00281994
0.000415984
0.00106894
0.0017029
0.00397827
0.000242711
0.000307111
0.000664228
0.00222292
0.000320676
0.00194877
0.000882774
0.000794052
0.000468889
0.00430517
0.00583545
0.000935383
0.00550375
0.0135521
0.00583036
0.000741551
0.0132487
0.000382093
0.0143721
0.00444051
0.000799259
0.000249796
0.000384687
0.00583376
0.00345561
0.00583713
0.00586604
0.00583243
0.000517746
0.000419979
0.000147399
0.00189339
0.00121924
0.0132487
0.00583645
0.00482249
0.000498997
0.00583618
0.0058333
0.0133097
0.00116556
0.00310388
0.0107341
0.00101208
0.000718185
0.00586868
0.0133802
0.000852635
0.00174048
0.000535806
0.00583378
0.00144315
0.00589067
0.00163823
0.00395211
0.000815259
0.000784394
0.000379162
0.0135838
0.000335007
0.000579958
0.0135304
0.00583612
0.0135648
0.00583411
0.00220586
0.00194266
0.00131711
0.000928205
0.0003347
0.000710758
0.00583484
0.00583643
0.000526709
0.00214358
0.00583503
0.00186246
0.000296858
0.00583047
0.000178672
0.000242778
0.00218331
0.000349464
0.00853572
0.000204998
0.00583363
0.000298568
0.0058331
0.00126437
0.00653833
0.0135053
0.0104742
0.0133174
0.00247342
0.00272248
0.000130983
0.00126962
0.00585574
0.00116839
0.000660883
0.00585656
0.00194419
0.00139449
0.004646
0.00584336
0.000355761
0.000642138
0.00188828
0.00583542
0.000979631
0.000424754
0.0145802
0.00199598
0.00583311
0.00275685
0.00147738
0.000902381
0.00583136
0.0149003
0.00585455
0.00403569
0.00583466
0.000209776
0.000984608
0.000114786
0.000819424
0.00387358
0.00152543
0.00583067
0.000801919
0.00142232
0.00719237
0.00255981
0.00336141
0.0135078
0.000813246
0.00583007
0.00270671
0.00871291
0.00115959
0.00169079
0.0035921
0.00283961
0.00448051
0.000544535
0.00583342
0.00583063
0.00233334
0.00100784
0.0058328
0.00169472
0.0142898
7.87947e-05
0.0105266
0.00584295
0.00996305
0.00583383
0.00583045
0.00208104
0.00582873
0.00583528
0.010732
0.00735871
0.00308476
0.00583289
0.000734887
0.00585049
0.00355361
0.000307937
0.00697823
0.0146091
0.00178819
0.00155904
0.00583305
0.000968163
8.90217e-05
0.00590017
0.00583433
0.000280815
0.00394594
0.000785129
0.000515596
0.00104915
0.00583359
0.000678307
0.00154366
0.00268563
0.00107996
0.00021276
0.000619655
0.00583493
0.0036355
0.00365794
0.00635048
0.00139761
0.00682428
0.000955871
4.92146e-05
0.00250407
0.000153758
0.000807412
0.0058293
0.0123403
0.00131083
0.00583005
0.00283459
0.00147879
0.014595
0.000455043
0.00583588
0.000656315
0.00537602
0.00142434
0.000486543
0.00101722
0.00111772
0.0147551
0.00583241
0.000913339
0.000619665
0.000773701
3.11077e-05
0.0015174
0.000592242
0.00195485
0.0143626
0.00411348
0.00568288
0.00100039
0.00993485
0.00269615
0.0035148
0.00109983
0.0038254
0.0022622
0.00583581
0.00171075
0.00583323
0.0139269
0.000549907
0.000423905
0.000430952
0.000963036
0.00584171
0.00226422
0.00079057
0.00232566
0.000729788
0.0136216
0.00081188
0.0010917
0.000321249
0.009987
0.0013698
0.0110169
0.00583455
0.000410194
0.00135793
0.00414195
0.000342434
0.00583357
0.00583566
0.000132073
0.00361194
0.000305315
0.0020076
0.000490413
0.000488008
0.000544927
0.000560573
0.00362679
0.0139234
0.000534353
0.00583503
0.000706405
0.00153107
0.0114684
0.00113545
0.000143696
0.000727559
0.00156901
0.000249226
0.00300486
0.0128126
0.000658359
0.00768275
0.000565402
0.00583286
0.00589124
0.00062919
0.00414098
0.00361957
0.000340368
0.00583439
0.000654901
0.000307312
0.00588699
0.0126003
0.00330638
0.000752298
0.0017717
0.0127798
0.000596488
0.00583188
0.00354007
0.000591395
0.00587824
0.00584169
0.00165922
0.00171392
0.0134915
0.00859797
0.00153871
0.0133782
0.00144304
0.00518864
6.545e-05
0.00583498
0.000295266
0.00589601
0.00583095
0.00107174
0.0021557
0.012917
0.00367384
0.000915105
0.00461744
0.00959278
0.000380077
0.00376957
0.00227026
0.000530451
0.00589424
0.00588865
0.000481812
0.00279893
0.000890638
0.00584782
0.000478062
0.000845165
0.000537615
0.000458671
0.00587145
0.00583983
0.00248213
0.000949221
0.00189314
0.0140307
0.00120729
0.00583332
0.00588082
0.005843
0.000936157
0.000837229
0.0134635
0.0134635
0.000342874
0.00583347
0.000277329
0.00354224
0.00528546
0.00782373
0.000318967
0.00503552
0.0135509
0.00852209
0.00172607
0.0011671
0.0115302
0.00107018
0.000310378
0.000113545
0.000195603
0.00208982
6.18403e-05
0.00488435
0.00652414
0.00181147
0.00583466
0.00086391
0.000266043
0.000462096
0.00104459
0.00583277
0.00156815
0.00101521
0.0018326
3.76865e-05
0.00583354
0.00959697
0.00392737
0.00450641
0.00122909
0.00171801
0.00583286
0.0134105
0.000672903
0.014232
0.00965561
0.0058334
0.000978431
0.000871133
0.00200673
0.000919641
0.00109313
0.00583551
0.00145793
0.000558469
0.00541627
0.000987757
0.00366529
0.00107926
0.00137456
0.000121461
0.000608369
0.000564373
0.00584597
0.000483876
0.0109039
0.00102
0.00834469
0.00720942
0.0134717
0.00927227
0.0058448
0.00584042
0.00423793
0.000888964
0.00164102
0.000587588
0.00198724
0.00412882
0.0058296
0.00584029
0.000981019
0.00583709
0.00149455
0.00106493
0.00627768
0.00123897
0.00583269
0.0058333
0.00428601
0.00583312
0.000265763
0.000923536
0.000329132
0.00829206
0.00583766
0.00584371
0.013935
0.0132546
0.00295783
0.00346283
0.000138029
0.00583206
0.00583237
0.00019143
0.00140994
0.0058342
0.00247196
0.00527996
0.00226319
0.0006019
0.00028372
0.00352232
0.00448481
0.000518693
0.000691816
0.00583597
0.00640788
0.0043677
0.000984629
0.00583322
0.0031859
0.00116493
7.81988e-05
0.00251499
0.000861113
0.00961201
0.00107673
0.0129497
0.00441495
0.0038029
0.000236698
0.0058353
0.0016528
0.00209475
0.000156589
0.00222607
0.00501526
0.00583098
0.00584361
0.00210984
0.000419837
0.000890669
0.00286285
0.00583375
9.02642e-05
0.00585799
0.00826086
0.00583332
0.000885121
0.00160773
0.00707629
0.000497344
0.00583333
0.000676462
0.00583089
0.0019115
0.000228807
0.00282931
0.00122504
0.00583597
0.00173132
8.30483e-05
0.00112148
0.000296801
0.000281232
0.000424866
0.00156207
0.00100628
0.00114696
0.0058678
0.00197157
0.00214576
0.00110243
0.00583191
0.000550536
0.00583376
0.000864598
0.00583459
0.000227904
0.00134997
0.00583862
0.00259984
0.00118544
0.00583351
0.00127972
0.00582867
0.000166455
0.010451
0.000792184
0.00240944
0.00583101
0.00583584
0.000147099
0.00583502
0.00583514
0.00180676
0.00103515
0.000845162
0.000235613
0.00286237
0.000466455
0.00586212
0.00583316
0.00583478
0.00583504
0.000268479
0.00589468
0.00101291
0.000857599
0.0058335
0.0058318
0.0116011
0.00583525
0.000625796
0.00224057
0.0123385
0.000555886
0.00012777
0.000316676
0.000398625
5.33904e-05
0.00273982
0.000437367
0.000826867
0.00586589
0.00584784
0.00101128
0.00107493
0.00452205
0.000340859
0.00583201
0.00152438
0.000414868
0.0031654
4.75413e-05
0.00250229
0.000131697
0.00731375
0.00512228
0.00583381
0.00164162
6.78137e-05
0.00335702
0.000564221
5.5872e-05
0.0134413
0.00167643
0.00128466
0.00154339
0.000338097
0.00583625
0.00027945
0.00353283
0.00243152
0.00586539
0.00818591
0.000550398
0.000882936
0.0115805
0.00194451
0.00170332
0.00583173
0.00278247
0.00670305
0.00144136
0.00771136
0.000419665
0.0044493
0.00914524
0.00583327
0.000402075
0.000472806
0.00274298
0.000873721
0.00583366
0.013178
0.00972349
0.00587467
0.000739045
0.00152987
0.000385765
0.000589988
0.00176388
0.000898785
0.00159226
0.000830016
0.00166976
0.00583323
0.00144742
8.07724e-05
0.00763572
0.00583358
0.000292923
0.000579026
0.00188109
0.00583599
0.00952714
0.00152073
0.00094844
0.00585511
0.000452357
0.000526364
0.000136855
0.00583378
0.00159886
0.000314532
0.000238811
0.000389627
0.00583338
0.00138968
0.00153244
0.000432223
0.0058338
0.000272943
0.00160626
0.000302935
0.0128742
0.00172111
0.00326904
0.000605132
0.00552721
0.00033926
0.00583497
0.000898784
0.00146643
0.000942214
0.000453202
0.00152654
0.000310324
0.00033825
0.000824993
0.00097908
0.00583637
8.62582e-05
0.00165018
0.000419289
0.000522014
0.000836352
0.000473338
0.00583587
0.00508619
0.000274243
0.00302828
0.0016105
0.000992291
0.00552465
0.000364694
0.001611
0.0134459
0.000200981
0.000305783
0.00051896
0.000919985
0.00583482
3.54882e-05
0.00588957
0.000472564
0.00160463
0.0134238
0.000602798
0.000269003
0.00583316
0.00411239
0.00583477
0.00177295
0.000693527
0.00558258
0.0117986
0.00249357
0.00583026
0.000641698
0.000148156
0.00583576
0.00883236
0.00583565
0.0010136
0.00163982
0.00217829
0.000752405
0.000974289
0.00442994
0.00047975
0.000475815
0.00098504
0.000406605
0.00583619
0.0045956
0.0134708
0.00583039
0.000699446
0.000746519
0.000373918
0.00739769
0.00583048
0.00141838
0.000461895
0.0106615
0.00583469
0.00583377
0.000692113
0.00751746
0.00583008
0.000383577
0.000404181
0.000314633
0.000554815
0.000701978
0.000713261
0.00583504
5.16735e-05
0.00583211
0.00443646
0.000729782
0.00583855
0.00197651
0.000402542
0.00583303
0.00346894
0.000534942
0.0125322
0.00353769
0.00520178
0.00583414
0.00583321
0.000601812
0.00583339
0.00589589
0.0106797
0.00583605
0.000895217
0.00129983
0.0118105
0.000323647
0.00589275
0.000774823
0.000425102
0.00583199
0.00393287
0.00583311
0.00279994
0.00583446
0.000898747
0.00112316
0.00586713
0.0058603
0.000846134
0.000959983
0.000777991
0.000155964
0.000411273
0.00113908
0.0134324
0.000242962
0.0019041
0.00128542
0.000222935
0.000442151
0.00106157
0.00170878
0.00784489
0.00345949
0.00436346
0.00167491
0.00405904
0.000596956
0.000234132
0.00587308
0.00369086
9.6192e-05
0.00583535
0.00229175
0.00583348
0.00583686
0.00242267
0.00387536
0.00340703
0.00583018
0.00364475
0.00583213
0.000152405
0.00208057
0.000943788
0.000176531
0.00355339
0.00806685
0.000765722
0.00583509
0.00113
0.00586037
0.000380945
0.00435813
0.0132022
0.00102573
0.000734837
5.78325e-05
0.00703742
0.000544384
0.000466156
0.000593911
0.000314085
0.00373375
0.00214517
0.00011035
0.000550339
0.00333495
0.00584881
0.00661297
0.00275461
7.26304e-05
0.00707373
0.000532765
0.00544119
0.000833644
0.000946776
0.000814649
0.0108444
0.000699756
0.00583264
0.000311834
0.000440261
0.00140062
0.0058375
0.00583282
0.0143053
0.00583569
0.000587361
0.0127506
0.00063871
0.00497602
0.000315798
0.000914962
0.00602485
0.00582997
0.00521142
0.00583204
0.000539081
0.00242326
0.00352396
0.00113211
0.013593
0.00584112
0.00583359
0.00692773
0.00443981
0.00285065
0.00310472
0.0109231
0.00585657
0.000840437
0.00583134
0.0078656
0.0124381
0.000437523
0.0001131
0.000452624
0.00471336
0.00583335
0.0130299
0.00583247
0.00191413
0.00587128
0.00173882
0.00583419
0.00839053
0.00583267
0.00144501
0.00585592
0.000193285
0.000270953
0.00585602
0.000283153
0.0105803
0.00105407
0.00517794
0.00466058
0.000241092
0.000956548
0.000891037
0.000498359
0.00146411
0.00491931
0.00172267
0.00041376
0.00380223
0.00670011
0.00632122
0.00084693
0.00053949
0.000634962
0.00051559
0.0127033
0.00587244
0.00585383
0.000383221
0.00946908
0.000454812
0.00039792
0.000414131
0.00583309
0.00945339
0.00912356
0.00735785
0.00583424
0.00565066
0.00887827
0.000255908
8.02469e-05
0.0120363
0.00159472
0.000772911
0.000390462
0.00057997
0.00438786
0.000459948
0.00075484
0.00583552
0.00764021
0.00583425
0.000556733
0.000984273
0.000514385
0.00146491
0.000294875
0.00203585
0.00156892
0.000506649
0.0016122
0.0151636
0.000500376
0.00173559
0.000591252
0.000524549
0.000172062
0.00583082
0.000584301
0.000128289
0.000398414
0.00460116
0.000423344
0.00092582
0.000318291
0.00746948
0.000478586
0.00106343
0.000186112
0.00727228
0.00250693
0.00148966
0.00719202
0.000441294
0.0011707
0.00137128
0.00583281
0.000218509
0.00197575
0.0135702
0.000426884
0.00161322
0.00583466
8.53137e-05
0.00055497
0.000342056
0.00439216
0.00584643
0.00583454
0.00068755
0.00583429
0.00143617
0.00142061
0.00186858
0.00056206
0.00584247
0.0008768
0.00241592
0.00146192
0.00168411
0.00583578
0.00878192
0.00151608
0.00583267
3.81786e-05
0.000219204
0.000263516
0.0013308
0.000789364
0.00121269
8.08486e-05
0.00112568
0.0016495
0.00583432
0.0033513
0.00220172
0.00276762
0.00152126
0.00550882
0.00583389
0.000216898
0.00584296
0.000794474
0.00144574
0.000128381
0.00583475
0.000656909
0.000962712
0.0114938
0.00583254
0.000340707
2.7279e-05
0.00120474
0.000158567
0.00149996
0.00214259
0.000245082
0.000278712
0.0010689
0.000946548
0.000592355
0.00583476
0.0058742
0.000327187
0.00583446
0.00268673
0.000358014
0.00583588
6.87813e-05
0.00585691
0.014853
0.00778808
0.00511923
0.00778961
0.0105061
0.00270152
0.00583338
0.0112516
0.00585216
0.00585769
0.00583448
0.000193923
0.0124078
0.00385579
0.000467334
0.00457352
0.00141019
0.000325491
0.00561372
0.00583079
0.0047479
0.014873
0.00583418
0.00583378
0.00860836
0.00184273
0.00287381
0.00583638
0.00892557
0.0102745
0.00419294
0.000692181
0.00583563
0.0120803
0.00011589
0.00320812
0.00375032
0.0024841
0.00799289
0.00585256
0.00462437
0.0058355
0.00583617
0.0128263
0.00582828
0.000162238
0.00091676
0.0025682
0.00194317
0.000375835
0.000217948
0.000592495
0.0104505
0.0120641
0.00582878
0.00157861
0.00144107
0.0014461
0.0126044
0.00583448
0.00427197
0.00042708
0.00126458
0.00130757
0.00582983
0.00046781
0.000579731
0.00392026
0.00583444
0.000421446
0.00238699
0.000783309
0.00170548
0.01362
0.000927894
0.000172456
0.00206117
0.00481944
0.000959107
0.00079977
5.25381e-05
0.0131478
0.0112213
0.00583297
0.00501343
7.84598e-05
0.0149701
0.00226307
0.000566811
0.000679017
0.00328671
0.00865399
0.00583321
0.000986327
0.00872405
0.0147373
0.000280146
0.0138831
0.000575936
0.000773313
0.00585545
0.0133729
0.000603386
0.00582184
0.00585585
0.00685123
0.00583804
0.00583463
0.00102146
0.000361546
0.00035202
0.00383087
0.00988473
0.00158015
0.00584749
0.000508799
0.00787395
0.000157053
0.00450572
0.0124952
0.00101504
0.00157139
0.00167274
0.00582944
0.000484481
0.00583517
0.00144749
0.000156999
0.00201601
0.00583934
0.000441526
0.000763471
0.00585627
0.00726845
0.00165453
0.000524147
0.00587131
0.000117103
0.00583316
0.000257013
0.00158708
0.000170223
0.00221774
0.00924734
0.000221303
0.0137375
0.000354942
0.000550113
0.00583939
0.00801296
0.000155195
0.000406723
0.000105043
0.00583517
0.00541023
0.000367677
0.000512035
0.000856827
0.0116424
0.0100455
0.000473985
0.00663832
0.000483827
0.000307181
0.00583312
0.00338488
0.00583526
0.000700808
0.000531684
0.000312676
0.0136609
0.00584028
0.00583059
0.00155007
0.000456638
0.00129745
0.00584844
0.0147719
0.00136067
0.00162709
0.00230395
0.00411171
0.000441972
0.0105133
0.000151728
0.000907398
0.000374941
0.00583328
0.00135982
0.00044505
0.00044146
0.00315487
0.005829
0.00322394
0.0101083
0.0133322
0.00588116
0.000441058
0.000339203
0.00368803
0.00583188
0.00300194
0.0133598
6.77142e-05
0.000486161
0.00207625
0.00172115
0.00648613
0.000267359
0.000458846
0.00210857
0.000924616
0.0058378
0.000178906
0.000392009
0.00548842
0.0129332
0.0124374
0.0141735
0.0121857
0.00882922
0.00823817
0.0108901
0.00103941
0.00589248
0.00929572
0.00765963
0.00509726
0.00297411
0.000891579
0.00485846
0.00584448
0.00430324
0.0140503
0.000845713
0.00583469
0.000491512
0.000665716
0.000701614
0.00904174
0.000328453
0.000611307
0.00582907
0.01368
0.00202529
0.000420577
0.0016586
0.000804545
0.00247526
0.00583523
0.000666414
0.000650881
0.000993076
0.00132899
0.00126543
0.000788627
0.000920006
0.00846934
0.000352474
0.0014294
0.0112033
0.0010091
0.00583338
2.79796e-05
6.69472e-05
0.00541195
0.000609637
0.00310529
0.0010731
0.000798757
0.000424033
0.00582991
0.000250959
0.00135975
0.0011571
0.000205936
0.00583486
0.00164649
0.00975763
0.0131439
0.0151012
0.000391278
0.00175993
0.00583535
0.00580205
0.00093028
0.0058527
0.0114027
0.00584371
0.00583606
0.00583854
0.0130931
0.000889903
0.00173967
0.00108223
0.000706927
0.000306613
0.000878141
0.000230061
0.00100333
0.000603683
0.00450312
0.00135929
0.00871383
0.000550878
0.0150118
0.000828647
0.00582915
0.00583806
0.000653512
0.000509996
0.00583056
0.00026914
0.000854191
0.000454268
0.00730364
0.00368309
0.00472746
0.00583606
0.000148999
0.00045613
0.000508755
0.0058387
0.000411287
0.0010504
0.00770307
9.69587e-05
0.000437675
0.00583398
0.0131084
0.000422273
0.00799451
0.0073804
0.00088011
0.000929347
0.000440599
0.00606482
0.000190273
0.0128977
0.000497522
0.00401934
0.00052994
0.00588534
0.0076763
0.000778556
0.000688695
0.000767227
0.0147297
0.00462244
0.00459963
0.00981223
0.000577395
0.00891509
0.000250478
0.00583596
0.000633787
0.000647335
0.000162853
0.0033305
0.000512068
0.000351312
0.001103
0.0058355
0.00484102
0.000349899
0.00142297
0.000163136
0.00439315
0.00345377
0.000301817
0.00186109
0.00320837
0.00583321
0.000555999
0.000290788
0.00145012
0.000684777
0.000539396
0.000515612
0.00327663
0.000216615
0.000913971
0.000785324
8.35311e-05
0.00204536
0.000167541
0.000156061
0.00588114
0.000949164
0.00737642
0.0102347
0.00353029
0.000195697
0.00789796
0.00509972
0.00133776
6.81532e-05
0.00984309
0.000455556
0.00805809
0.000603142
0.00481696
0.00129901
0.00583408
0.00129605
0.000554486
0.00240131
4.92518e-05
0.000907996
0.000358542
0.0123889
0.013033
0.00277236
0.0117437
0.00584097
0.00242793
0.0122543
0.00583305
0.00583136
0.00942607
0.00279621
0.00583358
0.00056608
0.0120557
0.000448978
0.00172907
0.0108834
0.00583211
0.0126851
0.00988328
0.00583395
0.000528461
0.00102906
0.0097803
0.00975541
0.0103741
0.00854849
0.00583535
0.00102057
0.000588241
0.000847777
0.00583403
0.00101968
0.00583764
0.0108365
0.000581055
0.000155696
0.000745093
0.011244
0.000575124
0.00093514
8.8403e-05
0.00253738
0.000478128
0.00176808
0.00583416
0.00289961
0.000351805
0.00584991
0.0107616
0.00566353
0.00306444
0.00268328
0.0135921
0.00200082
0.00584233
0.000292418
0.000431944
0.000260162
0.00780373
0.0101531
0.000201899
0.00174778
0.00168831
0.00107205
0.0015978
0.000561576
0.00140933
0.00583453
7.34319e-05
0.000670894
0.000484672
0.00754875
0.000820731
0.00031811
0.000235449
0.000562967
0.00149418
0.00584225
0.000414076
0.00583905
0.000615961
0.000491276
0.00933567
0.00583185
0.000635108
0.00558636
0.00216408
0.000438229
0.00175405
0.000657513
0.00982704
0.000721595
0.000921818
0.00148521
0.00583122
0.0130708
0.00583297
0.00204845
0.000744217
0.01348
0.000536773
3.19828e-05
0.000118796
0.00149633
0.00287423
5.87291e-05
0.000609613
0.0138773
0.000535585
0.000331612
0.000546538
0.00159328
0.000965175
0.000176442
0.000571827
8.4857e-05
0.000770245
0.000316722
0.00123381
0.00464751
0.000260491
0.00420638
0.000886687
0.00583577
0.00112221
0.000920976
0.000842163
0.0108885
0.00111357
0.000455661
0.00582684
0.00256199
0.00583424
0.00583432
0.00203747
0.00583442
0.00124492
0.00333802
0.000954682
0.000864624
0.00197546
0.00327478
0.000826549
0.0035698
0.00478543
0.00576596
0.00597199
0.00139217
0.000528907
0.00177614
0.00583401
0.000389412
7.43724e-05
0.000510267
0.0114224
0.00107215
0.0119116
0.00137316
0.00583444
0.0058306
0.0099248
0.00495114
0.00119224
8.62052e-05
0.000634825
0.00243814
0.0129415
0.0058336
0.000876038
0.0046248
0.00145179
5.48437e-05
0.00182122
0.00254249
0.00162447
0.00022664
0.000895437
0.00132579
9.7256e-05
8.24111e-05
0.000308129
0.00149852
0.00217599
0.00161523
0.00150925
0.0134845
0.0105879
0.0132404
0.00147534
0.00440237
0.00186616
0.00218843
0.00583442
0.0018935
0.00583334
0.00173551
0.00415816
0.00584189
0.00586588
0.000465717
0.00492263
0.00155198
0.000289569
0.00285237
0.0047027
0.00053185
0.0150951
0.00032943
0.00330038
0.0127256
9.38839e-05
0.00410498
0.000175799
0.0058356
0.000201325
0.000807128
0.00010332
0.0108955
0.000284663
0.00801589
0.00583671
0.01058
0.0029368
0.00112763
0.00173019
0.000520256
0.00583287
0.000148775
0.013287
0.000109243
0.000688878
0.000492751
8.33978e-05
0.00481089
0.00588278
0.0022691
1.21511e-05
0.00171466
0.0142005
0.00792251
0.000235101
0.00583483
0.000275502
0.000289258
0.000449689
0.00264688
0.00820613
0.00470097
0.00583332
0.00543461
0.000814616
0.00337177
0.00425852
0.0131791
0.00584111
0.000413279
7.84743e-05
0.00588509
0.0132131
0.00210717
0.0136682
0.00424555
0.000279302
0.00168229
8.53169e-05
0.00234764
0.00073023
0.00584064
0.00200416
0.00566117
0.00177813
0.000288712
0.00104202
0.000847146
0.000199102
0.000511804
0.00440495
0.000184873
0.000787728
0.00189743
0.0014115
0.00583713
0.00584802
0.00583385
0.00188748
0.00269517
0.000682277
0.00799537
0.000692881
6.35601e-05
0.00132974
0.00189827
0.00179806
0.0148079
0.0108942
0.0016509
0.00180334
0.00515386
0.00892331
0.000356508
0.000769566
0.0051938
0.0123334
0.00258381
0.000345538
0.0108001
0.000181827
8.98546e-05
0.00041651
0.00210435
0.00586385
0.000209467
0.00583629
0.00388613
7.34422e-05
9.8707e-05
0.00582791
0.000961256
0.00017123
0.00095407
0.00583644
0.005832
6.95842e-05
0.00236712
0.00351291
0.0016745
0.0130321
0.00151146
0.000230448
0.00583118
5.66227e-05
8.0874e-05
0.00248511
0.000644025
0.00583412
0.0136626
0.012579
0.000487496
0.000404011
0.000415841
0.000588979
0.00583327
0.00150626
0.00584472
0.00237111
0.00583517
0.0079177
0.00584469
0.0017053
0.000183381
0.000608749
0.00119644
0.00583924
0.0141077
0.000420773
0.00258229
0.0073265
0.000388582
0.000559182
0.00704962
0.000641607
0.000524538
0.002023
6.61726e-05
0.000226252
0.000314213
0.0148719
0.00583691
0.00373273
0.000191916
0.00904213
0.00582833
0.000942354
0.0144594
0.00583603
0.00467779
0.00059408
0.00427629
0.00583175
0.00302028
0.000418167
5.49004e-05
0.00196857
0.000489219
0.00586571
0.00316089
0.00902339
0.00886307
0.00569661
0.00172327
0.00463353
0.00164938
0.0058331
0.000344545
4.98643e-05
0.0124552
0.00256773
0.000211279
0.000685896
0.00583002
0.0058301
0.00530493
0.00244917
0.00048873
0.00050593
0.000897908
7.8856e-05
0.00604545
0.00225586
0.0058363
0.0058382
0.00700213
0.00169054
9.06809e-05
0.00046684
0.00309774
0.000494512
0.000160492
0.00840443
0.00880098
0.00583415