/*--------------------------------*- C++ -*----------------------------------*\
| =========                 |                                                 |
| \\      /  F ield         | OpenFOAM: The Open Source CFD Toolbox           |
|  \\    /   O peration     | Version:  v2012                                 |
|   \\  /    A nd           | Website:  www.openfoam.com                      |
|    \\/     M anipulation  |                                                 |
\*---------------------------------------------------------------------------*/
FoamFile
{
    version     2.0;
    format      ascii;
    class       volScalarField;
    location    "100";
    object      omega;
}
// * * * * * * * * * * * * * * * * * * * * * * * * * * * * * * * * * * * * * //

dimensions      [0 0 -1 0 0 0 0];


internalField   nonuniform List<scalar> 
13851
(
0.145239
0.0272748
0.0271541
4.86104
0.0254099
0.0292214
0.027065
0.0250499
3.82447
0.0253454
0.0744572
0.0254056
0.0253606
5.61713
0.0398688
0.143495
7.64694
0.0251063
0.370105
0.145525
0.0450045
0.0293932
23.2332
0.0256521
7.67943
0.0689044
0.276712
4.54399
3.47956
0.0249707
4.68171
0.0270698
0.142445
5.06521
0.0497921
3.44755
0.0256655
9.84749
4.65748
0.0253057
4.89791
3.58034
19.3693
0.729489
3.79425
0.0251247
0.0246858
0.138738
0.0266098
0.0253581
8.03683
0.0254091
0.14296
0.0335383
5.67971
0.0253043
0.144801
4.72669
0.287085
5.94594
0.0254156
0.300808
0.0254255
0.0267488
0.261939
0.28018
8.0467
0.0764057
0.0253376
4.59985
4.31674
0.0548971
0.0252774
7.18955
0.0351954
0.0269417
6.21827
0.0248447
6.92504
0.025227
0.025351
0.416743
0.0490742
5.22303
5.6915
4.50323
0.0295822
7.19311
0.0253289
4.71223
0.0254414
0.0271602
24.1449
4.3839
4.36002
0.432214
0.0251645
0.147862
7.59277
0.208832
0.153394
0.0490214
0.0526411
0.025311
0.0251014
0.0532571
0.0251046
4.36005
0.0271575
0.0250864
0.034801
0.0251198
0.185314
0.0710439
0.138826
0.0327264
0.0249967
0.0250067
5.01094
4.85188
0.268941
0.0250013
0.0253296
4.05313
0.279228
0.141825
0.0251629
0.0652612
4.58669
0.0505597
0.0293244
0.0350684
6.53372
4.95974
0.0759376
4.3525
0.073567
4.41953
0.0404936
0.0498087
0.389194
0.0258227
0.025326
0.123979
7.02795
0.0267058
0.0248366
4.41095
3.57828
0.0682738
0.152647
0.178131
0.0761476
0.281643
0.0254933
0.0253289
0.0254357
4.49451
0.045984
0.026522
0.0256242
3.46427
0.0521467
0.139067
5.43235
4.02117
4.10781
6.60603
0.0343151
6.16168
0.025436
0.0250021
0.0659302
0.0254868
4.45762
0.28896
0.166834
0.0249831
0.0351386
0.162845
0.270588
0.679897
0.033277
0.0499486
21.114
3.54744
0.142356
0.0332315
0.0254314
0.0250408
6.45932
0.0459409
7.64761
0.0292943
0.0265581
0.14545
0.137968
0.02525
0.0253479
0.081009
0.394309
4.48469
4.72982
0.0399249
3.0332
4.37276
0.0268639
0.0485446
3.89894
0.0286359
0.142305
0.0253129
0.410371
0.0256132
0.0507892
0.0277144
0.0253421
0.238808
0.0253271
3.8749
0.0249812
0.146285
6.35407
4.391
0.0328519
0.0490919
0.025652
0.107479
0.0253159
0.0500655
7.31889
0.0327372
0.0286135
0.0254549
4.61404
0.0249625
18.2388
4.66753
0.18228
0.0256353
1.37027
5.46521
3.86515
0.140564
0.036481
0.165631
0.215943
0.0352283
0.401836
0.0370082
6.5226
0.154056
0.0250836
0.0290143
0.149478
3.42262
4.8465
0.025038
0.148783
0.0253262
0.199179
0.276344
0.0293847
0.052837
0.157336
0.0252426
0.0506069
0.11791
2.82587
0.0254067
0.0253423
0.0329609
4.44633
6.7056
0.050383
0.0250138
0.269589
0.278204
0.12486
0.0520207
4.32576
7.87957
0.0299051
0.0366133
10.0187
0.0250854
0.025435
0.12874
0.0651705
0.0249539
0.0256095
0.0253041
0.0252994
0.0361894
0.0254261
3.89885
0.0473601
0.0252084
3.40207
4.06493
0.0254244
0.147751
8.19055
0.0259465
0.0254467
0.0496588
5.49479
7.11338
0.0722453
0.025398
6.09366
0.0254257
0.078849
6.48408
2.54439
0.0264251
9.34376
2.03897
4.4203
0.17578
0.0515607
4.51051
4.14002
4.09112
0.0254126
5.46897
22.5217
0.928146
0.814619
0.0268808
0.0718107
0.0335013
6.46493
0.0561072
0.0251313
0.0246399
0.0308765
4.3289
3.27618
0.0250776
4.3263
0.0338098
0.0353725
0.0266479
6.63902
0.267012
0.14627
0.0274483
0.0280943
3.37479
0.0254391
0.293127
0.0297825
0.049584
0.0343273
0.0253237
0.0252054
0.177139
0.229292
0.154034
3.69181
3.41765
0.0267849
4.55822
0.236772
0.0248734
2.6431
0.100026
6.31059
0.0302831
0.0727047
0.284641
7.373
0.169704
5.47399
0.0257895
0.281422
15.217
0.0336502
5.06722
0.0364276
4.8466
0.0361476
0.0422086
0.154454
0.307334
0.0253281
0.0294664
0.0702026
0.0353283
0.0251468
0.0507081
5.40586
0.0252714
0.0488333
5.78759
0.0271842
5.09108
0.0463889
7.52445
0.0291812
0.0651908
2.3806
0.287306
0.0524636
5.77854
7.06094
1.19541
0.025247
0.172886
0.0366989
0.0720203
0.0250228
20.4136
5.61348
7.30611
0.0280315
0.157548
0.297303
6.36559
0.0247376
7.08453
0.347611
23.8563
0.0381608
5.7167
0.025311
0.025469
6.85791
0.29383
0.02534
0.0273207
0.049833
0.0250487
5.58844
0.0720303
0.0980538
0.0286561
0.0258023
0.0254298
5.92792
0.0252085
0.0254129
3.99815
5.40257
0.0289048
0.290983
0.0254347
0.0254247
0.0275314
0.155821
0.0458276
0.0251549
0.025992
0.252471
0.0264053
8.22654
0.025399
0.0302501
3.86989
0.0402686
0.024726
0.0254593
0.0285974
0.0253683
1.18279
4.06282
0.0367887
7.7528
0.0275663
0.0253728
4.4433
0.285368
0.0398166
0.0252767
4.07839
0.038963
7.52531
0.0253149
0.0353291
0.175208
0.0371796
4.27578
0.295745
6.87442
0.0270172
0.181881
0.0252334
3.4366
0.0463765
0.137787
0.0364575
0.0272166
0.0403154
0.0664118
0.0254266
6.70274
4.31907
8.61604
5.97398
4.07401
4.91291
0.289781
0.0316966
0.0255764
8.70178
0.0253493
0.0251485
0.0340523
4.54691
0.0270496
0.0258236
0.103349
0.0529813
0.0253475
7.5194
0.0251732
4.71879
1.07249
0.0252202
0.0264484
0.357888
3.00106
0.0249632
10.2952
14.3857
0.024812
4.46926
0.359158
0.146292
0.0269891
3.98312
6.23273
0.024827
0.356508
0.0253315
0.0251728
3.67601
4.90991
0.0427793
0.0450995
0.0253495
0.0592198
4.7141
4.45093
0.0249314
6.18391
0.0251537
0.0253447
0.0530207
0.0302064
0.0247294
0.026962
4.52189
0.285752
4.38467
0.0267295
0.0253207
4.46477
0.0255381
0.174135
0.0302781
0.0353124
0.0364096
4.07182
6.39675
0.0290904
7.15247
0.0262342
0.0720271
3.64199
4.41851
0.0253289
0.0252385
0.0528829
4.40259
0.268523
0.0581286
13.2394
0.0303332
0.035186
9.5334
7.59387
0.186351
4.59551
0.190894
3.51975
0.0256154
0.27806
4.77605
0.025401
18.4709
6.39611
0.0343038
0.0498889
0.0252914
6.86721
0.0888285
16.5164
0.0252093
0.0255221
0.0298863
0.0522642
0.0254123
4.43964
0.0255144
0.184177
0.0270777
0.0733697
0.0253053
0.0253458
0.0527808
6.5526
0.0525077
4.31396
0.0353263
0.0250593
0.0249305
0.0665025
0.0259907
0.111595
0.0274833
0.0391662
0.278627
0.0255406
5.82036
0.0256384
0.0970796
6.17081
4.04413
0.0318449
16.8173
0.099796
0.310968
6.26026
0.024994
7.37078
0.0337891
0.0347331
5.71678
2.80684
0.024885
0.108595
0.0252242
3.42798
7.18679
0.0254154
0.0810544
5.73646
0.0256514
0.0256364
0.0697419
7.19192
3.7771
0.0254535
0.154901
0.0262161
0.025341
0.263288
0.15736
0.193865
0.0247215
0.118398
0.052628
0.0608277
0.0258591
0.0263997
0.0835799
0.029697
0.128474
0.0546355
0.0548243
0.152957
3.3262
0.363723
4.89304
10.0403
0.145249
4.24303
0.0451648
3.75078
0.149774
0.0250865
0.0345386
0.303984
0.0301802
0.0252318
0.0252281
0.0975613
6.10401
0.0304279
4.51218
0.0250641
3.90232
0.174558
8.75799
0.108192
0.029326
0.0271446
7.2577
0.192265
0.0433151
0.295236
0.0256658
6.72707
0.0981815
0.187207
0.0360293
0.555815
0.0253073
0.0256272
0.026585
0.0253365
3.64695
0.0252995
0.273294
4.34244
0.111071
4.50013
6.75879
0.192771
0.334046
0.0321181
0.0255397
0.0253324
0.0248584
0.0249319
0.0254896
0.0725525
0.17854
0.0568147
3.56303
0.0263023
3.83469
0.0256913
4.82303
0.0460383
0.0256782
0.0254758
4.06418
0.0294093
3.83994
6.38931
0.047549
0.0734199
0.0247907
4.95483
0.0275929
0.0270861
0.286515
0.0255444
0.0258304
0.0250019
0.0465492
5.8168
0.0326469
0.0363284
0.381887
4.35045
0.0327827
0.0300982
3.61153
0.0248569
3.54698
0.0255699
0.0264125
6.5956
0.0848279
0.137359
0.103631
0.0528437
0.0256032
0.0256915
0.0777302
0.0256571
0.025613
0.0308945
0.367737
0.0252783
0.288249
3.76944
3.43831
0.102254
5.39466
0.0411844
0.0255338
0.167654
0.0250822
0.0295022
4.79301
3.40259
7.41485
3.7336
0.0254793
0.0253879
0.0797248
0.0262398
0.0250492
23.6602
0.202247
4.83932
0.0983731
0.0867886
0.0253324
0.0249785
5.92611
0.0989065
0.0267022
0.0256374
0.13678
0.209111
4.59642
0.0254804
0.0255024
7.09298
0.0258376
0.036437
0.0250557
4.61206
0.0251594
5.57439
0.0253942
0.163213
0.0424107
0.0799932
0.0362501
0.025279
0.0273473
0.0253294
0.264875
0.0258455
3.93909
0.0257238
4.20705
4.48561
0.0344293
0.0253052
5.12009
4.1487
0.0295801
0.0842946
0.0253335
6.68175
0.0251005
0.305802
0.0253834
0.0253252
3.41383
0.0365965
0.0254457
0.0339136
4.5939
5.47236
5.77907
0.0250449
4.06165
0.0253968
0.0252882
0.0254928
0.0246072
0.0256114
5.94861
4.94904
0.0253398
0.0255091
0.0430525
0.0251197
4.90221
0.171719
4.8043
4.57262
0.0273139
0.128506
0.0253915
0.045092
0.137392
0.0249731
0.025581
1.65917
7.07363
0.0719617
16.7095
0.0655993
0.0254311
0.0452437
0.085488
7.7004
0.0349439
0.902488
0.101242
0.0255985
14.5192
13.2088
4.45858
5.88907
3.61898
0.0269642
0.160175
0.025415
0.705361
0.0296473
0.025133
5.82702
0.0261983
0.0253065
0.0253273
0.0260553
4.48409
0.295164
0.0251135
0.0462085
5.60328
0.0263156
16.1885
0.0264115
0.0823489
4.79142
0.0254297
0.278746
0.0329417
0.0358911
6.12491
0.0261802
0.399524
0.0643182
4.83087
0.0252714
4.59158
0.0333856
4.21473
8.08407
5.96899
0.0473789
0.0252964
0.0254868
0.0256512
0.0404626
0.0254627
4.37592
0.032255
0.0314488
0.0324811
0.0269002
0.0250436
0.0293171
0.0306841
0.0264524
0.0303446
5.92657
0.260539
0.0325431
0.0570685
5.8662
0.025871
4.36473
0.0248757
0.0371322
0.0258529
0.0251519
0.050868
0.0253659
0.0251068
0.0508939
0.0253325
0.344741
0.0258404
19.2861
1.4964
0.22675
0.303263
0.0252062
4.38846
0.169486
0.0256017
0.0305845
0.0257414
4.50177
0.0263902
0.0502733
2.76262
6.53186
0.0935915
0.0252997
4.02444
1.92109
3.6981
0.0328564
0.0250471
0.0249111
0.0724485
0.0253028
7.53647
0.178343
0.0255636
0.237944
0.354835
0.0249912
6.07447
6.17977
0.197036
0.0258256
3.99289
0.072201
0.0253279
6.45503
0.0299567
0.0249924
0.0251957
0.03402
0.040813
4.05624
5.10433
0.0424611
4.12639
0.0357518
0.0253031
0.0945436
0.0252375
3.08436
0.0249523
0.0253619
0.0272175
0.0256208
4.4158
5.80432
0.255125
6.60396
7.19292
0.032771
0.0252695
0.0258461
0.413416
0.0249299
0.0250487
0.0484771
7.31994
0.23957
0.0247747
0.0439235
0.0364982
0.148989
16.211
0.0248033
0.0247135
0.0263674
6.54532
0.0308592
4.70221
0.0263861
0.0255176
0.0249924
0.0251839
0.0276781
0.192577
3.56185
3.96165
0.0324701
0.0253733
4.90143
0.0253679
6.07156
4.94171
0.0343182
5.45255
3.58228
4.85548
0.054884
0.0346923
3.89339
0.0335249
0.0379158
0.0821725
0.317685
0.0256336
5.38992
0.0253026
4.62129
6.96736
0.0248811
0.0270909
0.051863
0.402951
0.0363327
0.0254906
0.0305021
0.0263986
0.0283878
1.30453
0.0255162
4.19005
5.85503
0.0253024
0.0336606
0.0406204
0.0254089
3.35985
16.2707
4.43922
3.48922
0.0253508
0.0277938
0.0296997
0.0254916
0.249828
0.0366233
0.0256424
0.0637689
0.0290641
4.57999
0.0424832
6.98069
0.0263025
0.0263527
0.057661
0.0999962
0.0785391
0.025252
18.0166
4.16402
26.312
4.57159
4.73584
4.01324
4.30715
0.0252614
0.0253235
0.0251193
0.259379
0.0454014
0.0782584
7.1527
0.0252217
0.0248423
0.0253457
0.220566
0.024822
0.0293461
0.0268776
4.01439
0.0261303
0.0250935
0.0254131
0.0252114
0.0255177
0.0386443
0.249164
0.0380595
5.49536
0.0253386
0.0251829
4.59085
4.70122
6.81614
3.68052
0.0542275
3.83953
0.0250417
0.0692515
0.0263581
0.0254022
0.0269461
5.04521
0.0260035
0.101552
5.85143
0.0253028
0.0251417
0.0297198
0.197272
0.0256626
4.01684
0.0251034
0.219895
0.0254662
0.0253409
0.0296508
0.110508
0.0253664
0.267788
4.35565
0.191596
5.01388
0.0253142
6.46606
0.276783
0.0253621
7.19273
0.0254861
0.0479293
0.0254375
0.0251372
0.0252471
0.025339
0.0256098
0.0306056
0.0704226
0.0253535
0.0254259
0.0696858
0.0248516
8.35895
0.025467
0.0349286
0.0354431
5.07062
2.5883
0.0254951
0.199058
0.0250495
0.0324649
0.0787777
3.43188
0.0496467
0.0256632
0.113693
0.0864772
0.0868606
0.471295
0.0401364
0.158131
0.0583069
0.0704611
0.0260975
0.0250197
3.29687
5.51352
0.0276857
0.0253224
15.5799
0.0250673
0.044859
0.0252427
0.0925379
7.82928
0.0246452
6.20721
0.0290501
0.0255277
0.163156
0.0251353
0.0458765
3.39793
0.0430304
3.41757
0.0252401
0.0256532
0.0494834
0.0256015
0.0256291
0.0303353
0.03246
0.0712631
0.0966349
0.0253265
0.0438817
0.0250137
0.0253824
0.025587
0.0253658
1.82462
0.0249936
0.0264488
0.29116
0.0250613
0.0253073
4.59584
0.0256334
18.8544
0.0261404
4.65237
0.255296
0.0585545
4.54112
0.0728385
2.15795
0.0254721
0.214044
0.0301241
0.0250047
0.0251292
0.0264284
0.0337428
0.0252052
0.06077
0.0251677
0.0263251
16.855
7.98693
4.5792
0.0268976
0.05218
5.15374
5.8336
0.02553
0.0290505
2.14886
0.0252763
0.0444611
4.01155
3.96086
0.029677
0.0443425
0.0259596
0.377808
0.0256803
0.040321
5.477
0.0253867
0.0250554
8.50779
0.0481507
0.270609
5.11334
0.0986106
0.0256187
0.0251736
0.0253754
4.80553
3.48959
5.36906
0.0628819
0.0253324
4.71224
0.0254438
0.180527
0.029995
0.0261719
0.0455146
0.0253758
6.25372
7.18409
0.0247501
0.072307
0.0464842
4.2671
0.0488919
0.057455
0.26128
0.0355308
0.251741
0.0606496
0.0254473
0.0371245
0.0917001
4.07525
0.0253456
0.629222
0.0517787
0.0603791
0.0256637
7.12484
0.0288298
0.026801
0.025063
0.0437761
0.0423058
0.0633125
0.0254679
0.0258639
0.0641703
25.0871
0.0676924
0.0255091
0.0258278
0.0369638
0.249761
0.0255284
0.100086
9.29275
0.053892
4.2221
0.0403425
8.09209
0.389686
0.0252601
2.60294
0.0256183
0.0281366
0.0345645
0.0368948
0.110296
0.0469042
0.0484706
0.0506857
0.0341403
0.0273157
0.0248143
0.0954603
0.0281909
0.0323198
1.84292
0.0292782
0.033913
0.0252219
4.92026
0.0924016
0.0253271
0.0274898
0.0264575
5.49704
0.173856
0.034535
3.78126
0.335949
1.18326
0.101956
0.277956
0.0251464
0.35287
0.0250325
0.0302201
10.0991
3.34275
0.396778
2.07802
0.0254602
6.5093
0.0251421
0.083193
0.0283808
3.70784
5.91095
0.0283838
0.0253317
0.364624
0.048868
0.0253241
4.35643
0.0253863
0.0268784
0.0281759
0.0254337
0.0338391
0.0265245
0.0253279
0.0386591
0.529616
0.0423117
0.0677753
0.025318
6.69148
3.38727
0.0253063
0.298389
0.0283229
0.0328273
5.16611
0.0253015
0.0258843
0.0313601
4.43344
0.025339
0.025544
0.0430769
3.64681
0.0252837
0.0360703
0.0383675
1.48959
0.0510267
0.042827
0.233171
0.0253941
0.1358
0.0249068
6.61908
0.0331794
0.0253544
0.0293606
0.106416
0.0255011
0.025252
0.153682
3.83511
0.0253547
5.92125
0.0255504
0.0248905
0.070443
0.0253452
0.0249897
6.56169
0.0256651
0.0428195
0.159471
4.58602
1.13694
0.0249091
0.0271637
0.0315632
0.0253993
0.0253009
0.0254254
3.24724
0.0255604
0.228513
0.122434
0.025042
0.0248632
0.0330385
0.122486
0.298166
0.0633202
0.0686335
0.0269983
3.87726
0.0882494
0.032337
0.0419373
0.0742694
0.101005
17.9504
0.0390692
3.81333
4.09787
5.4389
0.0274368
0.0251846
0.0414732
0.038365
0.0249572
0.0253561
0.153105
0.0256248
0.0254691
0.0253672
0.0247218
0.0263428
0.0251641
6.50045
0.0253278
9.19947
0.0254092
0.100686
0.0256601
0.125772
0.0897022
0.0253012
4.96099
0.0271454
0.0256011
0.0414173
0.0250011
0.0345958
0.0251053
3.66797
0.0273166
0.0451486
0.118396
4.89224
0.0317379
0.238384
1.7206
0.0575906
0.025204
0.0259523
0.126273
0.0704725
7.39457
0.024956
5.00057
0.0253044
0.101357
8.58209
0.039608
3.60887
0.0283993
0.0350233
0.0280194
6.95924
0.0342949
0.0254901
0.0552085
0.153838
0.0264597
0.0253452
0.0254914
4.5844
0.0256367
0.0308838
4.79966
0.0292512
0.0252503
0.0638621
0.0281107
4.58548
0.024841
0.0252985
0.0251148
0.0293096
0.0254607
0.0252259
0.0656825
4.46887
0.0252336
0.0254343
5.21042
0.0252365
5.80989
0.0264058
6.70542
0.025071
0.0275136
0.0250459
3.90696
5.02747
0.034034
0.0809705
0.03029
0.0251806
0.0254541
3.73208
0.0254834
0.0823106
0.0249315
0.0425486
0.0255531
5.48078
0.0250786
0.0454128
0.0250844
0.586188
1.11575
0.0249838
0.0501249
6.73845
0.0698603
3.94821
3.52176
0.272385
0.0265765
0.0367083
0.103374
3.69877
0.025168
0.0389873
0.0316244
0.0251997
4.13946
6.06986
0.0717566
0.167886
0.369281
0.0370268
4.46496
0.0249475
0.0249808
0.108407
7.63424
0.243173
0.173913
1.53568
0.025042
7.18647
3.86527
9.35693
0.0255707
5.56032
5.11996
1.19504
4.2028
3.88646
0.0857603
0.0334794
0.183982
0.0288
0.0252071
1.90724
0.097731
0.0247926
4.83735
0.0255512
0.0327878
0.0444692
0.030045
2.56287
0.0391589
6.11088
0.0445472
0.0293902
3.70447
4.90629
0.15095
0.0255896
0.0290091
0.0787898
0.0666792
0.0250723
0.0522453
0.070827
0.156789
0.0252199
0.20809
0.0275105
0.0556062
4.14402
0.237418
0.0262595
0.150077
4.63688
0.0253871
0.0259683
8.59996
0.370988
0.0274112
0.0276047
0.0254203
0.08436
0.0279914
3.5685
0.109947
0.0257097
0.0255981
0.0739912
0.0329641
0.354713
6.6927
0.0251088
0.0253426
0.0308796
0.0255595
0.027154
0.0260756
0.025823
0.0290074
0.0251931
0.0280312
0.0254212
0.047479
3.26713
0.0256524
5.58297
10.8141
0.0249052
0.284648
0.148715
0.0969797
0.0259156
0.0968629
0.0298293
0.0909816
0.0323414
0.0263378
0.0255797
7.24598
0.0300777
3.56791
0.0258971
0.0253321
0.025329
0.079884
0.0252284
0.0527168
0.0614558
1.8325
0.0251827
0.298005
6.03648
4.12379
0.0250329
0.153836
1.11439
6.28817
3.00674
0.0257529
0.0254695
0.17984
1.24453
2.6663
0.0427103
0.300887
0.0256091
0.0250126
0.045206
0.0255612
0.0253853
0.178866
0.0256539
0.102911
0.0250566
5.01912
5.46793
4.49883
4.12458
4.22954
0.0253731
0.0254925
6.55726
0.0249687
0.0249954
0.0248887
0.137609
5.10093
6.74746
0.0310085
0.0251442
0.0262799
0.0420622
5.3729
0.0253501
3.57767
5.11997
0.0255518
0.0255368
4.11309
0.0782656
0.0261112
0.0253502
5.801
4.44307
0.0251284
0.204608
0.0256384
4.06924
3.48397
0.0262406
7.00246
6.62837
5.48128
0.0250434
0.0251682
0.0256269
0.0256817
4.81293
0.0251541
0.270496
0.280958
8.89231
0.0257375
0.0648537
0.308112
0.0529736
6.5096
4.37286
0.0248037
0.028342
0.0285222
0.136991
4.28365
0.0247085
5.54292
0.036045
0.0438967
0.025923
0.025231
0.314431
0.0436489
4.90809
0.025561
0.0611791
0.0256671
0.127916
0.0270671
4.3667
3.06425
0.304444
0.0923694
0.0252153
0.0270729
0.0903581
0.260183
4.35998
6.59854
0.0254999
3.71431
0.104823
4.91494
0.028931
0.0475919
0.0426276
0.0252412
5.57829
0.0253914
0.0350962
3.59371
4.93817
1.60553
4.94723
0.031585
0.0516166
0.0249136
5.0236
0.0305203
6.84974
0.0248968
4.76517
0.0246555
0.0253007
0.0346935
0.0352967
0.0366005
0.0252106
3.77492
0.0441207
0.0251575
0.0414191
3.9834
0.68689
0.0253138
4.60404
0.0275023
0.0358189
0.0339027
0.0248846
0.0694037
0.0252905
9.63626
0.0927266
0.0291346
0.0253291
0.395763
0.0425387
0.0248932
5.00977
4.0124
0.260678
0.0247353
1.08448
0.0254871
0.160863
0.0299625
0.135779
5.59731
3.94351
0.0389258
4.96081
0.0556993
0.0319002
0.0250528
5.19977
0.129685
0.112325
0.0694175
0.0256249
3.71803
0.0952294
0.409233
0.283683
6.34778
3.72801
5.49917
5.037
0.0323853
0.0355657
0.0254257
0.0252291
0.0247338
0.17908
0.0324923
0.037258
4.64393
0.0251986
0.0251079
0.0419014
0.154499
0.0304883
0.0250256
4.53297
0.0272114
0.046729
0.025419
5.65165
0.0323278
5.91002
0.0637669
0.0366546
0.058528
0.0254162
7.93874
0.322671
0.0757497
0.0252695
0.0251811
7.0802
4.48843
3.40004
0.0250088
0.0771761
0.517801
0.0251847
0.0253101
0.0252957
4.97207
0.114876
0.0383611
0.029452
0.0286263
4.70897
0.0993405
0.265493
0.0287035
0.0350881
0.0247105
0.143265
0.0610368
0.0252985
3.68722
4.41527
4.45684
3.85951
4.78602
8.19568
6.50258
0.0263087
0.0249527
5.94395
5.1053
6.87642
0.0252949
0.0424747
0.0253351
0.0252277
3.39012
5.05867
0.0668683
0.025302
0.288693
0.0998203
0.0524695
4.2777
3.03449
0.297108
0.025188
4.34961
2.92987
0.38738
0.0339691
0.0450212
0.0254185
0.0251242
0.0419168
0.0491678
0.0275887
0.0415239
0.0304855
0.0282161
0.242234
4.16181
0.0354833
0.0431078
4.16994
0.212402
0.0254464
0.522321
1.052
4.90519
0.0443574
0.0252844
0.0322498
0.0299577
0.0339111
0.0248815
0.0372362
0.0333418
0.0464805
0.265542
0.0256078
0.0261422
3.8173
3.80923
4.7437
0.341001
0.111284
0.0246386
0.0253425
0.0331888
0.0249086
6.54091
0.0253318
0.0256647
0.0249162
3.63493
19.3929
0.0256195
0.0647243
0.0314106
0.0398552
0.0329187
0.039506
0.0421807
0.0405982
4.75155
0.0288933
4.75871
0.0426071
4.68705
0.0323412
0.025215
0.0250475
0.0998388
0.154964
0.0250635
0.0442306
0.0325284
0.0641452
4.0498
6.62052
4.27341
0.0256644
1.8625
0.0333055
0.0404087
0.0253317
0.0751489
0.0269093
3.79249
2.20796
0.0441205
0.0254014
3.7808
0.0306724
4.39257
5.18047
0.2543
0.0274697
0.139195
4.47706
1.4755
3.91392
0.06512
0.0251453
0.0434968
0.0249908
9.02742
0.0278334
0.0347498
0.289383
4.58415
0.0251117
0.0251991
4.28307
0.0451907
8.18601
0.0368054
0.0253517
0.0459783
0.221824
0.0488561
3.5922
0.0395637
1.04932
0.0281212
0.0256267
0.0251808
0.303093
0.0258594
0.144943
0.0253292
0.0252122
0.284783
0.0286749
0.0252521
0.0253493
0.0386272
0.705016
0.0433066
0.0421197
0.029681
0.0658311
0.0252745
0.172019
0.0333482
0.0456489
0.0786701
0.0299791
0.0975156
0.0508997
0.024976
0.0699222
6.69853
3.38397
0.025228
2.3821
4.35613
0.0252167
0.0258613
0.925262
4.18472
0.031338
4.185
0.393861
0.0251052
0.086289
0.0247339
0.0287914
0.0661609
10.4881
0.583513
0.259794
0.292229
3.77806
4.095
0.0261742
3.83802
0.0253351
3.07305
4.14249
0.0254314
0.0254117
3.54169
0.0253708
0.0254108
0.306647
4.55174
0.240343
0.0286401
4.22803
0.0254378
3.93167
3.94695
0.0255539
0.301033
6.07181
4.59043
3.62623
3.83123
3.75576
0.0251306
0.0263831
0.0663271
0.0677452
0.0254026
0.207599
0.0253472
3.73013
0.30179
0.0555512
0.286856
3.65394
0.298962
0.241199
0.0680378
7.62814
0.517002
0.027894
0.0247946
3.30575
0.0390585
0.0249673
6.83565
0.0252406
3.43795
0.0253921
4.9889
0.0280156
0.025256
20.8271
0.0308978
0.0398819
3.8397
6.54692
2.44604
0.0299612
0.0447622
0.0265128
0.0401885
0.134694
0.0411696
0.0255791
1.76563
0.0656559
0.0366578
4.083
0.0429985
0.0416242
0.224642
0.0795962
0.0452421
0.0252494
0.214279
0.0250452
0.132257
0.254548
4.49705
0.0251261
0.0421191
4.61357
0.0261628
0.0701861
0.0329006
0.0449539
5.98336
0.0647338
0.0266149
15.7193
0.0251418
3.75575
0.0254662
0.0259915
0.129594
3.43563
0.0357853
0.440481
0.660862
0.033265
0.0253392
0.185409
0.0487774
4.5682
0.0298545
13.0086
0.152021
0.0330706
0.0322796
0.116984
0.0406217
0.0842171
0.0642204
0.0428444
0.0273315
0.025145
2.32241
0.0252747
0.0316913
0.0247471
0.111951
0.0320145
0.0631225
3.99721
0.0262071
0.24695
0.0246406
0.0253968
0.0255518
0.0255756
0.0288716
0.0252177
0.0874879
7.91452
0.0619328
0.0476606
0.0276492
0.0252417
0.24635
0.0252643
4.27741
4.84476
4.78747
0.147635
0.038384
0.0295131
0.0255368
0.0334584
0.109344
0.0466771
4.30588
0.0607616
4.93987
0.148933
0.0255806
0.025086
3.43761
0.0251928
0.0323498
0.0729243
0.369718
0.0261671
4.70994
0.025531
0.0289341
0.0253357
0.0258223
0.189602
0.107597
0.0254008
0.0341259
0.0398348
0.0479596
0.0586587
0.573326
0.400491
0.293963
0.132889
0.0284186
0.0260871
0.057411
3.41524
6.40288
3.84784
0.0338566
5.5984
0.104034
0.0258025
0.0252925
0.0614463
0.0254913
0.0339324
5.48364
0.0252336
0.0249871
0.57885
3.42678
0.0470731
1.46957
0.0253676
5.70315
0.0461367
4.76056
0.0331259
0.0252652
3.96523
0.0671628
0.0253008
0.0820263
0.0256375
0.174344
0.0320315
0.0624255
6.93598
0.0376862
5.25764
0.0251987
5.04005
0.0253691
0.0291089
0.0256677
0.0506043
0.0254919
0.0628478
3.70996
1.13087
0.052964
0.0355225
0.0875136
0.0251186
0.025186
0.0259896
0.888743
0.0280351
5.12758
4.55077
0.154925
0.0255876
0.159208
0.244929
0.158188
0.0282434
4.87008
0.0252261
0.0246492
0.0252155
6.03977
0.025239
0.025277
3.83445
0.0252508
0.175075
0.113291
0.0249122
4.42556
0.0301657
4.93996
0.0251308
1.60454
0.025961
0.0804799
9.23497
0.069653
0.0252093
0.0295134
4.48282
0.0338293
0.163687
0.0337257
0.0294712
0.156973
0.0325146
0.0252349
22.7933
0.0324058
0.0303237
0.141074
0.0252328
0.0250902
0.0255525
0.0326061
0.0253646
0.0290817
5.3901
12.8731
0.115499
7.30383
0.0609348
0.0356641
4.66308
4.62738
0.0256456
8.98893
9.1683
3.93656
2.4804
0.0340181
4.395
4.01726
17.6443
2.60951
6.25746
0.0481246
0.0940441
0.0330819
0.0284436
0.0254693
1.55542
0.0256802
4.84607
0.14066
0.37603
0.0247521
0.0764687
0.0516608
0.0267486
0.0256908
0.025459
0.139046
0.026412
0.0253098
0.0411177
4.34784
0.0271294
0.170877
0.0250687
0.142031
0.0941126
0.0253914
0.0298999
0.0252226
5.01884
4.67734
0.174034
8.26914
0.037093
0.0937876
0.0254744
0.0421648
0.02536
0.0254829
0.0256115
4.89535
0.0249822
0.045527
0.821568
0.0310841
0.0334388
0.02529
4.81833
0.210203
13.6376
4.66065
0.180305
0.333432
4.37239
0.365073
0.249246
8.36856
0.14137
0.03845
2.95615
5.07123
0.0253538
5.20189
0.167037
5.55354
0.0247766
0.0654691
4.9461
0.0256643
4.71104
0.0285499
6.83103
0.0254231
0.0253629
0.0735091
0.255022
0.029075
0.0693785
0.0249714
0.0252747
3.68393
5.67059
7.00989
0.0538225
0.025215
0.0256439
0.0254805
0.0404632
1.22216
4.66864
3.63872
3.1289
0.0351728
0.0252377
0.0252784
5.73542
6.3384
0.314967
0.0296364
0.0279198
0.0941058
4.91356
6.09179
0.0246346
0.0252334
5.10102
0.0261275
0.28311
0.0313644
0.025294
0.0361118
0.0522217
4.62603
4.6898
0.02557
0.0249846
0.0278385
0.222096
5.02321
0.0256536
0.143331
4.48299
0.0246484
3.32992
4.03927
12.2797
0.0254445
5.554
4.98614
0.0435516
0.354085
0.0272482
0.348553
0.364768
0.0283409
0.025205
6.49648
1.67874
0.0250038
0.150689
0.151972
0.0325651
0.286492
4.64503
5.52606
5.0093
0.0304027
0.0267212
0.0260698
4.68864
5.1302
4.8673
5.9917
4.68977
0.0248966
0.0455982
0.0253906
0.0254536
0.0280025
0.0252533
0.0253755
0.0252008
4.43025
13.09
6.9028
0.064108
0.20469
0.0402941
0.0250865
0.0252835
4.45736
0.0254841
6.14834
3.77364
0.0255387
0.0250871
3.56808
0.0257291
0.599742
0.0288258
0.0249615
0.0248893
4.49824
0.0248582
4.36655
4.30115
0.0247093
0.0497319
0.02512
0.0259497
0.0249977
0.125976
3.74677
0.0252584
5.19391
0.516919
0.0271828
0.0250719
0.0258365
0.0266604
0.0256022
0.555478
5.47756
5.75157
0.0413915
6.79282
0.0256637
0.0286375
0.0252137
0.18964
0.0265493
4.80926
0.0251129
4.07033
0.302923
5.63085
0.159297
0.025108
0.0473617
0.0251384
4.33733
0.0250616
0.0316807
0.0295065
0.0285202
0.0253481
0.0256349
0.0364609
5.26016
0.0254238
0.0259612
0.0269412
0.0375695
0.179318
0.0255509
5.17442
3.68871
0.0268996
5.12385
4.63411
3.6538
6.2798
0.0246742
0.0262356
3.85124
4.28547
0.149962
3.86669
4.47435
0.0362179
0.0528452
0.0333335
4.41864
0.025345
0.0252547
5.59153
0.136871
4.89039
0.0276593
0.02486
0.0253585
5.00657
0.0751879
0.0265892
0.249499
0.0250047
0.0633069
0.0333156
0.0335831
0.0250599
0.0255518
0.0251867
0.0276655
1.44677
5.20302
0.0247215
0.0251113
4.5424
0.0252841
0.070905
0.0291858
0.0287251
0.0396062
0.025681
4.33748
0.0325185
0.0284043
19.7163
0.0912047
0.026417
0.0346202
0.025306
0.0256694
7.18576
0.323832
3.47586
0.0254176
0.025505
0.0665779
0.0304874
0.0253369
0.0405143
4.34533
0.0290027
0.0451343
0.0285049
0.128272
0.0254521
0.0248401
4.75799
5.24896
5.11731
0.0252297
0.166147
0.0247191
0.0253253
0.0694747
4.77155
0.0725743
0.0312776
0.170205
0.0258559
0.0324313
0.0573093
0.831916
0.0254576
0.0248092
0.025751
0.0267052
0.0296821
0.025236
1.32119
10.0247
0.0252576
0.0359332
0.0256211
0.024782
3.8181
5.9668
5.88584
0.0793556
0.0255959
0.0593433
4.97046
0.107836
0.0995422
0.0380284
0.0333847
5.13264
0.232113
0.806639
0.0249794
0.0341953
0.0253686
0.0335325
6.89585
0.0247952
0.0451929
0.0285699
0.0333838
0.0262324
0.0249583
0.0251349
4.30547
0.0491954
0.0333793
0.0722502
0.0389879
6.4736
0.0349593
0.541197
0.0251758
4.81464
4.96137
6.7916
0.0256529
0.0348008
0.0254132
0.0251963
5.88599
0.0495755
4.82284
0.0252835
0.0504929
0.137174
4.82047
0.0314451
0.0247802
6.665
0.0256803
0.0256789
0.0257751
0.0253446
6.27324
0.0250351
0.0251122
0.0405321
0.0305777
0.159757
0.14349
0.0371978
4.69082
0.0250672
0.186033
0.0249333
4.71035
0.0377016
0.518656
0.154096
2.82578
0.115205
4.61536
0.0261579
6.29079
0.0363957
4.86647
0.211411
0.031358
0.233163
0.0253683
7.41281
0.0261914
0.0416673
0.0304388
7.0728
0.150971
4.3356
0.0346938
0.0252916
4.87255
0.251661
0.0575561
0.15594
8.45221
4.81501
0.0436049
0.287612
0.0454901
0.0251142
0.0536506
0.274397
0.0765968
25.9565
0.131246
0.0249835
0.0251039
0.151455
0.0254153
5.45813
0.0799687
0.0254089
3.64863
2.33811
3.54365
0.119883
0.0251637
0.0325007
0.0289258
4.39269
3.5793
0.0288847
5.13878
0.025075
0.0354168
1.0422
0.0252936
0.0440715
0.0251998
0.0293479
0.0256353
0.182816
0.641715
0.03378
0.0328529
0.0248926
0.151225
0.0250987
0.025053
0.0370742
0.0251898
0.227772
4.76566
3.10095
4.57566
0.0249941
5.06274
0.0255524
0.0416252
0.142416
0.0251763
7.7661
0.0774893
0.0252658
0.0247678
0.0454892
0.0420311
0.199853
0.261979
0.028976
0.0270872
4.14866
0.0664336
0.297568
0.88607
13.4243
4.03191
4.8595
1.23734
0.0253992
0.0254528
0.0520632
0.0254237
0.0562812
0.0393447
6.26732
5.11166
6.71575
0.0248285
0.0249623
0.131115
0.284414
4.4197
1.27819
3.54642
0.0628568
0.0367263
1.17399
0.302874
0.0292492
4.73492
0.0372084
0.0334704
4.43797
0.0437761
0.0250803
4.6454
0.983239
0.0275215
0.150638
0.0263362
4.00627
5.81598
5.86733
0.0253032
0.0248687
0.146503
0.0253096
0.025096
0.0253179
0.0249241
0.0253275
0.0253381
4.73166
0.0310951
0.0520138
4.26382
0.0251591
0.0253512
0.0346982
0.0287032
0.0292602
0.025363
0.0730671
0.0340041
0.0296455
0.0956585
4.44067
0.0253782
0.0456108
0.0253948
0.0253373
0.0247066
0.0254117
4.48694
0.0250995
0.0253021
0.0254297
0.048618
4.30421
4.3072
4.90949
1.62501
0.0482935
4.40857
6.36188
0.0252362
0.0473744
5.85966
0.27467
0.0254489
0.0308762
0.0459423
0.0420327
0.0253817
0.0427296
0.065104
0.0496257
0.024797
0.0588385
4.98436
0.0247224
1.8328
4.90491
0.0474696
0.733687
0.0391707
0.0254183
0.0285848
0.0252853
0.254731
4.74436
0.0248315
0.0485734
0.0252442
0.0252731
0.0254127
0.0256812
0.041805
0.0255296
0.136538
0.155029
0.0289734
0.0277134
0.0492416
0.0253585
0.0495776
0.0353588
0.02556
0.025435
0.0254885
5.13209
0.0252843
0.281346
0.0438155
0.0256382
0.0252758
0.0248941
4.71027
0.0285194
0.0479213
0.0575286
4.9229
0.0316099
4.33747
1.98211
0.0483407
0.0252555
0.24308
0.0420466
5.09262
0.0782667
4.77041
0.0247587
0.0551299
0.0542011
4.66334
0.0252735
0.0476245
5.03679
0.0250838
7.91076
10.4442
3.06199
0.025245
0.0249428
5.15603
0.0253597
4.45469
0.177528
4.27663
4.54313
0.0251389
0.20553
0.245605
5.8512
0.0272705
1.82196