/*--------------------------------*- C++ -*----------------------------------*\
| =========                 |                                                 |
| \\      /  F ield         | OpenFOAM: The Open Source CFD Toolbox           |
|  \\    /   O peration     | Version:  v2012                                 |
|   \\  /    A nd           | Website:  www.openfoam.com                      |
|    \\/     M anipulation  |                                                 |
\*---------------------------------------------------------------------------*/
FoamFile
{
    version     2.0;
    format      ascii;
    class       volScalarField;
    location    "100";
    object      p;
}
// * * * * * * * * * * * * * * * * * * * * * * * * * * * * * * * * * * * * * //

dimensions      [0 2 -2 0 0 0 0];


internalField   nonuniform List<scalar> 
13851
(
-0.136677
-0.0595848
-0.0582433
-0.430469
0.00404506
-0.0706921
-0.0446799
-0.00764012
-0.0891924
0.0320687
-0.164805
0.0127615
0.0413793
-0.105754
-0.0933855
-0.0889898
-0.379868
-0.0238705
-0.22738
-0.137981
-0.107506
-0.0264349
-0.414662
0.00626814
-0.307249
-0.0827801
-0.0940336
-0.209828
-0.081172
-0.0116231
-0.403512
-0.0449063
-0.126442
-0.142089
-0.126528
-0.0858319
0.00634068
-0.358729
-0.325793
0.0101807
-0.205651
-0.0820904
-0.4064
-0.205588
-0.0816198
-0.00198385
-0.0129105
-0.0923134
-0.0324177
0.0420033
-0.297861
0.049744
-0.0890831
-0.0638108
-0.0840057
0.011331
-0.128132
-0.211029
-0.087701
-0.164755
0.0128147
-0.095624
0.0285791
-0.0328005
0.0348433
0.0408082
-0.166128
0.274653
-0.00560447
-0.425667
-0.390938
-0.118698
0.0257646
-0.160867
-0.0719479
-0.00597871
-0.381981
-0.0137844
-0.309863
0.00960032
-0.0068738
-0.288465
-0.122769
-0.111046
-0.159354
-0.398199
-0.0298803
-0.0805641
0.0303603
-0.402883
0.0508187
-0.0463319
-0.317024
-0.400494
-0.309489
-0.168081
0.00461152
-0.0904375
-0.25544
-0.242472
-0.090729
0.187054
0.1819
0.0304657
-0.00612084
-0.124604
-0.0054377
-0.39248
-0.0464162
-0.0230515
-0.0173798
-0.00278363
-0.228109
-0.162343
-0.112428
-0.0630531
-0.00676051
-0.00796521
-0.430755
-0.426092
-0.16918
-0.0181785
5.76756e-05
-0.151469
-0.193978
0.314654
0.00392211
-0.134103
-0.160231
-0.106027
-0.022848
-0.0894464
-0.354519
-0.136138
-0.169815
-0.311012
0.26664
-0.396624
0.159318
-0.101515
-0.284162
0.0451342
0.0310781
0.194734
-0.29396
0.00872887
-0.0136844
-0.402147
-0.0805029
-0.139391
-0.0912238
-0.225637
-0.166878
-0.211769
0.0496897
0.0398819
0.0111712
-0.33022
-0.099372
-0.0490253
0.00648075
-0.0823562
-0.121952
-0.0930926
-0.103677
-0.0822723
-0.0841907
-0.299415
-0.017462
-0.256175
0.0133967
-0.00687081
-0.143164
0.0050925
-0.306098
-0.115035
-0.095252
-0.00748263
-0.0698839
-0.0949206
-0.189874
-0.200424
-0.0224583
-0.103998
-0.386552
-0.0814948
-0.124989
0.124716
0.0450115
-0.0085162
-0.289686
-0.100132
-0.104194
-0.0724255
0.00701633
-0.0897212
-0.123004
-0.0339736
-0.0287232
0.258188
-0.286086
-0.276519
-0.219721
-0.0916579
-0.191729
-0.275676
0.0840971
-0.0932905
-0.0923815
-0.0646952
-0.088617
0.00068603
-0.290363
0.0133054
-0.130513
-0.0100095
0.0406988
-0.152321
-0.0330729
0.358973
-0.00763341
-0.143351
-0.111437
-0.306997
0.113436
-0.0933026
0.0129349
0.200132
0.0139558
-0.126777
-0.43136
0.119878
-0.0645195
0.0283958
-0.215423
-0.0123
-0.404664
-0.227079
-0.232406
0.00660552
-0.339908
-0.15324
-0.081474
-0.0885513
-0.0964222
0.212479
-0.151126
-0.0695355
-0.162492
-0.0381965
-0.0766453
-0.1736
-0.00438271
-0.0705224
-0.0900682
-0.080501
-0.0884472
-0.00823575
0.328938
0.0290285
-0.126502
-0.200005
-0.0723782
-0.121865
-0.177569
0.0184139
0.189627
-0.0939727
-0.18917
0.0226456
0.0410164
0.118542
-0.0982088
-0.428787
-0.111319
-0.0190195
-0.187943
-0.206104
-0.115575
-0.119945
-0.101916
-0.228527
-0.0759456
-0.0877837
-0.371939
-0.00847837
0.0103796
-0.117575
-0.148917
-0.0134299
0.0124898
0.0144921
0.00176615
-0.0929498
0.0106582
-0.0906916
-0.109597
0.00385267
-0.0878789
-0.147975
0.0478678
-0.14192
-0.278543
0.0463027
0.0491411
-0.111868
-0.120183
-0.370098
-0.144508
0.00387274
-0.249945
0.0133423
-0.151596
-0.280703
-0.179518
-0.0477173
-0.356324
-0.337202
-0.386363
-0.227651
0.213663
-0.312036
-0.155596
-0.212428
-0.0299891
-0.400006
-0.0785852
0.314387
0.294794
0.0850166
-0.147889
0.0652289
-0.0804493
0.202886
-0.00201319
-0.0129381
-0.058733
-0.39014
0.352221
-0.00867606
-0.303314
0.0759864
-0.0903567
-0.049126
-0.117342
-0.184356
-0.0894538
-0.0075159
-0.0617033
-0.0911447
0.0449873
-0.211209
-0.0743563
-0.113425
0.0808055
0.0298753
0.00298222
-0.239805
-0.251099
-0.169402
-0.346125
-0.0895804
0.00751016
-0.224101
-0.131628
-0.0184318
-0.177053
-0.135471
-0.258286
-0.0566768
-0.0797978
-0.0887204
-0.341454
-0.237192
-0.0785828
-0.0329021
-0.116431
-0.408329
-0.091452
-0.077742
-0.0993159
-0.236657
-0.0867132
-0.0673567
-0.181611
-0.274953
0.0396195
-0.0733384
-0.154107
-0.0716074
0.000812743
-0.111142
-0.135545
0.0248827
-0.0948569
-0.429202
-0.0544271
-0.346402
-0.0791518
-0.367533
-0.0678024
-0.0819087
-0.147509
-0.199534
-0.125634
-0.0882339
-0.154189
-0.327443
0.019346
-0.235532
-0.100559
-0.0802477
-0.0165133
-0.399054
-0.165966
-0.324789
-0.0612973
-0.182159
-0.100775
-0.42862
-0.0163173
-0.399302
-0.285669
-0.419097
-0.0430546
-0.258703
0.0344237
0.00488168
-0.0826197
-0.103664
0.0328088
-0.059728
-0.096549
-0.004828
-0.1671
-0.14805
-0.135772
-0.06434
-0.0336758
0.0516428
-0.336948
0.00521619
0.0507875
-0.0828116
-0.13978
-0.0192977
-0.0900634
0.0285839
0.00989778
-0.0569076
-0.17266
-0.0753975
0.00130833
-0.0433925
-0.165098
-0.0514384
-0.375299
0.0117806
-0.0636134
-0.0773787
0.0672731
-0.0125295
0.0149539
-0.063796
-0.0365884
-0.308347
-0.0851582
-0.0978244
-0.105951
-0.0587084
0.0164806
-0.131244
-0.0893452
0.128444
0.0231364
-0.152888
0.150631
-0.333947
0.0312015
-0.092325
-0.242227
-0.0787622
-0.156267
-0.0990396
-0.32439
0.0411625
-0.2297
0.0169503
-0.0825269
-0.0795418
-0.121033
-0.0988997
-0.00776262
0.0611697
-0.143834
0.00431364
-0.423936
-0.134273
-0.376985
-0.425247
-0.0832286
-0.349509
-0.205489
0.102808
0.0207415
-0.359752
0.0322344
0.00103501
0.106406
-0.299698
-0.0572289
0.0501067
-0.101155
-0.13425
0.03524
-0.317788
0.00604847
-0.149697
-0.300591
0.00912494
-0.0515645
-0.286207
-0.18459
-0.0127744
-0.367722
-0.394205
-0.0217847
-0.359191
-0.221849
-0.148249
0.0429585
-0.0836417
-0.201978
-0.0222336
-0.253345
-0.00285693
0.0055916
-0.0934682
-0.23782
-0.114875
-0.0740806
0.033205
-0.0855801
-0.156923
-0.321493
-0.0251192
-0.372337
0.00153315
-0.00411772
-0.127035
-0.0594521
-0.0164738
-0.00280746
-0.355213
-0.268487
-0.357241
-0.0551028
0.0285761
-0.0949922
0.0205927
-0.236923
-0.0679047
-0.0740244
-0.0977091
-0.0803943
-0.231592
-0.0711431
-0.407756
-0.0467842
-0.155628
-0.0818383
-0.0853273
0.00428875
0.0178523
0.173626
-0.351735
-0.0892486
-0.0844369
-0.381633
-0.0593193
-0.0845715
-0.429379
-0.318767
-0.132453
-0.146156
-0.108301
-0.087706
-0.0286518
-0.0872343
-0.251369
0.0172785
-0.317918
-0.294522
-0.0227853
-0.103601
0.0152432
0.0710535
-0.156304
-0.413072
0.00605422
0.005453
0.10704
-0.132779
0.0113409
-0.302574
0.00535801
-0.109524
0.0484669
-0.0813108
0.0295523
0.0359337
-0.0938997
-0.370022
-0.127591
-0.310309
-0.0929572
-0.00468819
-0.0208281
-0.146468
-0.0422509
-0.197213
-0.0616732
0.129613
-0.0875591
0.0214341
-0.0917249
0.0128893
-0.0845554
-0.407902
-0.0810549
0.134054
-0.404742
-0.0890639
-0.262414
-0.294734
-0.0270497
-0.326335
0.0702503
-0.0943608
-0.424252
-0.281738
-0.0186748
-0.194559
-0.0333463
-0.0876137
-0.314381
-0.00943655
0.269799
-0.189197
0.0173271
0.0172992
-0.0824506
-0.0906074
-0.0846627
0.0490776
-0.186742
-0.0496517
0.0369035
-0.0873969
-0.186816
-0.241246
-0.0153681
-0.0948639
0.0874468
-0.0797186
0.0650881
0.00859292
-0.148077
0.103502
-0.0932151
-0.115983
-0.119428
-0.11719
-0.283634
-0.228029
-0.0993021
-0.363887
-0.0915487
-0.108666
-0.0204401
-0.0941559
-0.14692
-0.0204536
-0.0833403
-0.222652
-0.0457322
0.00925914
0.00815859
-0.0856336
-0.0785219
-0.0651725
-0.231342
-0.00428988
-0.0850018
-0.0525675
-0.28279
-0.194118
-0.0701778
-0.0588117
-0.284126
-0.24196
-0.0198448
-0.101797
-0.0325248
-0.370877
-0.0854326
-0.112287
-0.0981913
-0.305644
0.0335558
0.0133308
0.080832
0.0374038
-0.0806252
0.00211243
-0.0878564
-0.0945716
-0.198092
-0.317416
-0.25396
-0.113436
-0.27236
0.131406
0.0261904
0.0397728
-0.0127498
-0.0202064
0.00518066
-0.153448
-0.220199
0.088332
-0.207591
-0.00833782
-0.0919291
0.0229887
-0.429894
-0.11463
0.0231854
0.027586
-0.0809124
-0.0715889
-0.0866176
-0.294887
-0.100166
-0.127793
-0.0213369
-0.146356
0.0312974
-0.0583693
-0.0870891
0.0259202
0.0464724
-0.0248098
-0.0818261
-0.0771348
-0.0831125
-0.0990806
-0.291552
-0.32217
0.128113
0.0267277
-0.0849779
-0.0124921
-0.0849448
0.00673233
-0.0520161
-0.299472
-0.101316
-0.114054
-0.198544
-0.128743
0.0244456
0.0223413
-0.159981
-0.0302214
0.024383
-0.0636475
-0.285002
0.00306574
-0.250561
-0.336462
-0.0833944
-0.196419
-0.414104
0.166731
0.0261854
-0.23669
-0.00358843
-0.0741161
-0.0955867
-0.0924091
-0.314334
-0.0844648
-0.0137682
-0.00952159
-0.000960031
0.0125301
-0.0112815
-0.409662
-0.124457
-0.0786455
-0.0846516
-0.102526
0.038641
-0.0112192
-0.372593
-0.138095
-0.0540215
0.0249183
-0.110778
-0.240199
-0.233668
0.0498153
0.00829434
-0.0763251
0.0643348
-0.098404
-0.00463489
-0.297061
-0.00396833
-0.405749
0.0282773
-0.223379
-0.104557
0.0209313
-0.10031
0.0266015
-0.0594471
0.00397309
-0.088352
0.0605183
-0.0883551
-0.0346578
-0.126665
-0.121411
-0.0936124
0.00267403
-0.427998
-0.0831801
-0.0736379
-0.0995291
0.0398885
-0.0840633
-0.0212255
-0.225029
0.0189197
0.00367994
-0.0877344
-0.0985104
0.0149249
-0.0651091
-0.191132
-0.0498917
-0.191628
-0.00740876
-0.107232
0.0229107
0.0030877
0.0481235
-0.0130019
0.0189045
-0.221894
-0.102696
-0.0335242
0.00540365
-0.116575
-0.00324633
-0.427884
-0.241289
-0.106652
-0.314386
-0.0591789
-0.0939039
0.0172371
-0.107391
-0.0405477
-0.0264947
0.00691975
-0.3333
-0.313517
-0.125372
-0.381749
-0.10669
0.0281539
-0.120838
-0.0989642
-0.356525
-0.0907723
-0.0868155
-0.140787
0.0121795
-0.421003
-0.419323
-0.0779038
-0.287917
-0.0933997
0.0384551
0.192617
0.0514705
-0.140677
-0.0442632
-0.00189517
-0.198822
-0.00426893
0.00265409
0.00298049
-0.00285389
-0.298227
-0.216881
-0.00156281
-0.123058
-0.114831
-0.0234213
-0.388444
0.0628004
-0.107478
-0.252508
0.0115153
-0.0891303
-0.0566152
-0.0969393
-0.0222651
-0.00708813
-0.279132
-0.0804716
-0.192494
-0.0345551
-0.083125
-0.0901301
-0.145282
-0.332851
-0.0825723
-0.097277
0.0303531
-0.0130123
0.0182943
-0.0663277
0.026824
-0.160049
-0.0180861
0.0894203
0.126559
0.0364544
-0.0071716
-0.0521521
-0.0519789
-0.0516098
-0.0306023
-0.286676
-0.0888834
-0.0868596
-0.114755
-0.203345
0.0492426
-0.384094
-0.0120494
-0.0223655
0.0623274
-0.0102872
-0.0781064
0.0169664
-0.00203888
0.206244
0.0409375
-0.279836
-0.0402164
-0.320891
-0.196448
-0.169195
-0.248909
-0.0301758
-0.319212
-0.157289
0.0129218
-0.0494987
0.0486174
-0.382699
0.0664812
0.180135
-0.17228
-0.429312
-0.169292
-0.0246719
-0.079672
-0.16985
-0.0909797
-0.0531182
-0.00529175
-0.0247433
-0.142132
0.0324866
-0.199074
-0.240619
0.0208348
-0.134414
-0.284281
-0.0241006
-0.284594
-0.403013
-0.121644
-0.0355898
-0.0811855
-0.150445
0.00741993
-0.0778437
0.0237732
-0.0217993
0.00928839
-0.0705309
-0.0687321
-0.0928729
-0.403921
-0.0803999
-0.0865281
-0.0777858
0.0298851
0.291894
0.00867768
-0.35238
-0.0256926
0.00462561
0.00741547
-0.0307983
-0.107494
-0.0839317
-0.0940748
-0.237349
-0.335698
0.105859
0.0230771
-0.0392865
-0.284609
-0.0253633
-0.0108612
-0.118791
-0.301364
-0.0917616
-0.0125095
-0.085991
-0.101363
-0.158615
-0.402053
-0.021733
-0.0162625
-0.0479287
-0.325416
-0.0620585
-0.16416
0.0115381
0.00844404
-0.0223151
0.00767202
-0.0129904
-0.117142
-0.0887682
-0.085423
0.134021
0.017641
-0.349184
-0.0369091
-0.263075
-0.203661
0.11298
-0.371743
-0.0814946
-0.413014
-0.0817928
-0.088662
-0.108368
-0.0895389
0.0367368
-0.012039
-0.262263
-0.0266858
-0.11862
0.0308728
-0.0874692
-0.32743
-0.011714
0.0462363
-0.0837437
-0.291106
-0.0942004
0.00699836
-0.0696019
0.0753995
-0.0613825
-0.0410806
0.0243092
-0.0825804
-0.0771636
0.0312404
-0.0864995
-0.0693962
0.0167361
-0.090568
-0.0777018
-0.315766
-0.0882815
0.0145304
-0.0240917
-0.0555445
0.0462611
-0.091637
-0.0947447
0.0246086
-0.0948674
0.0999828
-0.124991
-0.104808
-0.116247
0.0745891
-0.0194716
0.193373
-0.148595
-0.148121
0.0200991
-0.0796673
-0.166117
-0.409222
-0.350138
-0.0883583
-0.0859054
-0.140671
0.0212216
0.0278294
-0.0291747
-0.0894104
-0.0762088
-0.151808
-0.416652
-0.0337062
-0.0108513
0.0331565
-0.0906196
-0.0140982
-0.0707256
0.00445947
-0.0787447
0.0472576
-0.00307781
0.0219879
0.00993304
0.00556112
0.0814106
-0.0927045
0.0324083
-0.171787
0.0263847
0.00721221
-0.153195
-0.12261
-0.0781802
-0.0832393
0.143523
-0.0833197
-0.00535391
-0.0683177
-0.0177852
0.0276528
-0.0514556
-0.402067
-0.0470521
-0.14765
-0.363006
-0.0350789
-0.00986688
0.0990586
-0.115646
0.0117718
-0.0833243
-0.0287153
-0.0896074
0.0276507
-0.032746
-0.0749705
0.0964788
0.0422893
-0.0946485
-0.396997
-0.0901596
-0.132304
0.0347296
-0.358215
-0.140854
0.0241152
-0.336571
0.0465567
0.198771
0.0464261
-0.0304516
0.00316481
0.0364889
-0.00646178
0.117123
-0.117832
-0.0257807
0.0291074
0.245616
-0.019636
-0.353141
0.0279469
-0.0963328
-0.0736801
-0.173721
-0.206114
0.0235429
-0.119689
-0.0047791
-0.061513
-0.135779
-0.0838676
-0.098876
0.0110911
-0.093404
0.189151
-0.108334
-0.203925
0.0485934
-0.215786
-0.0866777
-0.110167
0.0453434
-0.0173259
-0.0819888
-0.429338
-0.0434455
0.00782986
-0.395629
-0.00429496
-0.111781
0.00843606
-0.166436
-0.351586
-0.0159436
-0.423244
-0.0702913
0.00823609
-0.0938863
-0.00178725
0.196163
-0.0890397
-0.11507
-0.0802748
0.00299236
0.012108
0.209014
0.0210239
0.0250709
-0.0676713
-0.0873944
-0.121554
-0.176809
0.0301485
-0.0856477
-0.0157726
0.0165784
0.0211123
0.0241585
-0.343909
-0.0257016
0.0649224
-0.090976
-0.00458416
0.00655721
-0.104183
0.0248036
-0.314271
-0.0486241
-0.0908433
-0.170847
0.150067
-0.358426
-0.16526
-0.0819494
-0.0347869
-0.242112
-0.0577757
-0.0173535
-0.000979764
0.0662308
-0.0904873
0.0094794
-0.12861
0.000629081
-0.0222197
-0.399343
-0.301912
-0.249475
-0.0509263
0.201258
-0.238841
-0.429207
0.0210994
-0.0689194
-0.18992
-0.0317712
-0.114174
-0.353628
-0.0806734
-0.0671767
-0.0911442
0.00105724
-0.28793
0.0226149
0.042267
-0.239442
0.0317839
-0.00826979
-0.352697
-0.126977
-0.0943401
-0.135458
-0.0867857
0.045054
0.00110752
-0.0332407
-0.37302
-0.248282
-0.174937
-0.150449
0.0377097
-0.275977
0.0276464
-0.234042
0.117027
-0.045512
-0.112128
0.0189387
-0.286833
-0.331633
-0.0207117
-0.133633
-0.0775499
-0.359466
-0.128779
-0.0824037
-0.0928071
-0.075654
-0.0895191
-0.0877526
0.0272703
-0.0793617
0.287002
-0.0823037
0.0149974
-0.0870547
-0.132993
-0.0803491
0.0125474
-0.345703
-0.068731
0.0314582
-0.0100219
-0.0988253
-0.0954961
0.042457
0.00453981
0.00465823
-0.133286
-0.320094
-0.158031
0.0247118
0.062552
-0.0769707
-0.223599
0.0203289
-0.186815
-0.381931
-0.0908908
-0.0809119
-0.067042
-0.260751
-0.278473
0.0210601
-0.333265
0.00603689
-0.0215031
-0.0792846
-0.0962371
-0.188516
-0.08423
-0.0659502
-0.0895146
-0.0912383
0.00737667
-0.0139464
0.0980413
-0.0652297
0.0649518
-0.202825
-0.0406875
-0.00706779
0.00835994
-0.0802002
-0.179188
0.0308625
-0.060972
0.0797525
-0.12474
-0.235185
-0.0784907
-0.0807605
-0.187098
-0.328063
-0.165194
-0.0891021
0.000903929
0.349719
-0.0111343
0.115555
-0.368309
-0.0965132
-0.264528
-0.338411
0.0264921
-0.122365
0.000468078
-0.0961462
0.0167209
-0.0878855
-0.219686
-0.0499736
0.00307943
-0.262853
0.194783
0.0185836
-0.375601
0.0317288
0.0333635
-0.065494
0.0480523
-0.0865192
0.0812998
0.0379801
-0.0648327
-0.300499
-0.102407
-0.156476
0.0191155
-0.263968
-0.0952076
0.00319136
-0.0951816
0.0198205
0.103269
-0.149301
0.00337371
0.0376839
0.0686279
-0.275192
0.0181343
0.00838136
-0.11701
-0.0945924
0.00272257
0.032954
-0.0275075
-0.192675
-0.131503
-0.116926
-0.129237
0.0311548
0.214268
-0.0100738
-0.172064
-0.0784436
0.0325585
-0.0582598
-0.197747
0.00775359
-0.0313775
-0.162292
-0.0877504
-0.0361767
-0.1488
0.0121911
-0.0108738
-0.144003
0.0138874
-0.0257604
-0.297133
0.0187426
-0.108999
-0.0934399
-0.378795
-0.189036
-0.0249875
0.0904965
0.0973655
0.00918904
0.0320977
0.0218371
-0.0892474
0.0166327
-0.0909984
-0.105371
-0.00856453
-0.0199681
-0.0880049
-0.107002
-0.0933886
0.0135771
-0.160589
-0.000769208
-0.0884865
-0.159148
-0.0593465
-0.0902928
-0.122756
-0.183975
-0.424185
-0.0683877
-0.0880493
-0.131098
-0.428612
-0.0603536
-0.00143537
-0.109478
0.164879
-0.0213824
-0.0366884
-0.10017
0.0124603
-0.0160487
0.0180341
-0.0157272
-0.0494947
-0.0274296
-0.388275
0.00303402
-0.346186
0.00968467
-0.10333
-0.0283419
-0.113828
-0.118322
0.0312113
-0.100886
0.0890117
0.0185377
-0.0956472
-0.0158593
0.0418443
-0.0246342
-0.0886322
-0.0159532
-0.118284
0.306023
-0.0995122
-0.00428786
-0.0912914
-0.207091
-0.112993
-0.0294182
-0.0435292
-0.0838443
-0.152545
-0.332154
-0.0139794
-0.427737
0.0053039
0.167524
-0.377405
-0.0926296
-0.089523
-0.0219924
-0.095562
0.00977201
-0.329738
-0.0812452
0.00540641
-0.104968
-0.195669
-0.0294986
0.0267633
0.00744212
-0.324734
0.0183148
-0.000958661
-0.130878
0.02506
0.0201449
-0.127496
-0.0244956
-0.108616
-0.0111164
0.0292335
-0.0018279
0.109344
-0.0336857
-0.0288599
-0.104892
-0.126006
0.0163136
0.029018
-0.172037
-0.0335479
-0.424958
-0.0405434
-0.350124
-0.00973146
0.0290389
-0.0050422
-0.0803853
-0.126081
-0.00251002
0.0081875
0.119135
0.00392867
0.0280855
-0.0877258
0.00541301
-0.0938783
-0.0115542
-0.0696382
0.0213283
-0.175053
-0.0037551
-0.0860083
-0.00603107
-0.246222
-0.313741
-0.0151825
-0.0723456
-0.311504
-0.108253
-0.0790395
-0.0896208
-0.26173
0.0784728
-0.100975
-0.168626
-0.190944
-0.0312335
-0.0690678
0.0949684
-0.00171124
-0.0853493
-0.428288
-0.120403
-0.159031
-0.268677
-0.0652437
-0.0906019
-0.0212053
-0.0145906
-0.200163
-0.333875
-0.22336
-0.231975
-0.161136
-0.00547405
-0.340847
-0.0790015
-0.380999
0.00830354
-0.338492
-0.411171
-0.318967
-0.129507
-0.11077
-0.0974347
-0.0860056
-0.224741
0.105164
0.00790664
-0.329476
-0.129564
-0.0142167
-0.167079
0.0170282
0.00442963
-0.104539
0.0865895
-0.274269
0.0752755
-0.428651
-0.0807178
0.112289
-0.135724
-0.271273
-0.164212
0.0598943
0.0998037
-0.158308
-0.0595034
-0.00387875
-0.133248
0.0392984
-0.223852
0.0136414
-0.218231
0.00429159
-0.1023
-0.0810702
-0.0897783
0.0769533
-0.205403
-0.375225
0.0327044
0.0035357
-0.382511
-0.286264
-0.0418066
-0.0580542
0.0167861
-0.14441
-0.060248
-0.0838787
-0.19044
0.0462611
0.00732251
0.231398
-0.0267889
-0.149974
-0.303379
-0.00329269
0.0184113
-0.0551987
0.0119018
-0.0527466
-0.000134143
-0.0352986
0.0957274
0.00877438
0.0132014
0.0477178
-0.0869879
-0.196919
0.0113861
-0.171357
-0.371906
-0.0103596
0.0694387
-0.214083
-0.17968
0.0395313
-0.125755
-0.0761013
0.162244
-0.0852087
-0.0285173
0.00724703
-0.337773
-0.0539408
-0.0815505
0.0423741
0.0336094
0.014167
-0.131827
0.0146885
-0.119866
-0.0940158
-0.17368
0.00389993
-0.150287
-0.345885
-0.170462
-0.00569561
-0.230236
0.152676
-0.343235
-0.293795
0.0645458
-0.000961381
-0.239958
-0.154229
-0.0859701
-0.106999
-0.09349
0.005984
-0.0197801
-0.0518661
0.0157726
0.0490262
-0.23958
0.0138244
0.187761
-0.0110148
-0.24144
-0.152971
-0.127004
-0.0783352
-0.173026
0.0449779
0.0211505
-0.291247
-0.0146528
-0.0151947
-0.0111258
-0.195712
-0.154338
-0.334493
0.0869811
-0.0319257
-0.0197016
-0.0263776
-0.107626
0.00435145
-0.0874226
-0.242258
0.0204638
0.025597
-0.084804
-0.0934907
-0.0441102
0.0253002
-0.197527
-0.243828
-0.0262793
-0.128919
0.0138034
-0.156977
-0.255551
-0.0398585
-0.428991
-0.415939
-0.185257
-0.0106886
-0.0314993
0.0188344
0.0246318
-0.125813
0.00221584
-0.23937
-0.0887172
-0.321093
-0.0354047
-0.148907
-0.179011
-0.135348
-0.284891
-0.367845
-0.0113568
-0.0668567
-0.0680946
-0.0878325
-0.0798185
-0.0151793
-0.0779155
-0.0226977
-0.0918177
0.0412113
0.00129584
-0.271729
-0.113779
-0.428294
0.014918
-0.146247
-0.0330216
-0.119663
-0.0575767
-0.122972
-0.136729
-0.251318
-0.0861812
0.0131326
0.00452257
-0.12463
0.00862196
-0.0922266
-0.300451
0.00729779
-0.0849328
0.137244
-0.310591
-0.0513815
-0.123928
-0.116434
-0.0237121
-0.184608
0.0183725
-0.0933724
-0.090791
-0.229364
-0.335874
-0.164794
-0.00913315
-0.117415
-0.0176002
-0.251723
-0.00234509
-0.283725
-0.0180891
-0.108159
-0.0160527
0.0128919
-0.0929133
0.0913933
0.0306395
0.00713135
-0.0798047
-0.0814399
0.00285117
-0.0966497
-0.0791219
-0.261934
0.0341303
-0.368617
-0.0212993
-0.0787097
-0.0708751
-0.00967074
-0.160556
0.013271
-0.371274
-0.09901
-0.056559
0.0274973
-0.290631
-0.113854
-0.0186206
-0.144575
-0.254144
-0.177601
-0.0201611
-0.185012
0.0240067
-0.231417
-0.0686072
-0.179948
-0.281917
-0.0826829
0.158999
-0.158196
-0.117477
0.0123491
-0.00610056
-0.137079
-0.162499
-0.194306
0.241083
0.00762951
-0.0884408
-0.191622
-0.290881
-0.0902687
-0.301104
-0.0795828
-0.357462
-0.347857
0.0101994
0.0910992
0.0228071
-0.0238213
-0.015158
-0.12597
-0.0128856
0.069856
-0.344919
0.00886273
-0.00244995
-0.0786238
-0.191461
-0.0785981
-0.00718522
-0.281618
-0.0514143
-0.081321
0.0175713
-0.397683
0.0697142
-0.215344
0.0213347
-0.100372
-0.131895
0.0230103
-0.431569
-0.174198
-0.167609
0.0125695
-0.000717913
-0.0846008
-0.397624
-0.0860348
-0.0219964
-0.170211
-0.164476
-0.0276738
0.00700692
-0.00541741
-0.151496
0.109407
-0.0681894
-0.0536016
-0.0647693
-0.0914899
-0.180575
-0.181692
-0.0557894
-0.0948631
-0.0158799
-0.193644
-0.142977
0.0283171
-0.0911714
-0.363722
-0.193945
-0.0885303
-0.413091
-0.363826
-0.286623
0.0766637
-0.0251659
-0.226512
-0.288072
-0.285127
0.0146261
-0.108488
0.03836
0.0152298
-0.0919714
-0.23213
-0.121288
0.0143872
-0.110892
-0.144115
-0.129413
-0.119937
-0.303614
-0.097806
-0.000474364
-0.128892
-0.0897794
-0.290374
-0.0731526
-0.115623
0.0491296
-0.000785015
-0.11402
-0.127008
-0.0185498
-0.0882735
-0.0771301
0.014274
-0.0896828
-0.0866651
0.0398817
-0.0863616
-0.176206
-0.0897072
0.0285178
0.304158
-0.136802
-0.0799815
-0.118085
-0.0248956
-0.0859778
-0.0528179
0.0375937
-0.00992482
0.144444
-0.079758
-0.0915403
-0.256252
0.00755934
-0.0251046
-0.0805517
-0.0838346
-0.282136
-0.181631
-0.0917969
-0.0154577
0.0360734
-0.0895151
-0.0169932
-0.314551
0.033843
0.0168873
-0.0120662
-0.0912836
-0.387638
0.0458908
-0.107364
-0.0510384
-0.000771969
-0.0871604
0.148323
-0.102286
-0.105958
-0.428219
-0.0701924
-0.253903
-0.106449
-0.293112
-0.0800841
0.0003828
-0.00620812
-0.13229
-0.167993
-0.00422867
-0.00719824
-0.0829488
-0.153879
-0.0835549
-0.42741
-0.102473
0.0159768
-0.258736
0.00273337
-0.0812149
0.026712
-0.167464
0.00216941
-0.0897729
-0.143439
-0.0923745
0.0258572
-0.0848573
0.109622
-0.0964156
-0.265519
-0.0897605
-0.00500658
-0.191373
-0.0936186
-0.248192
-0.111768
-0.155721
-0.0150563
-0.106179
-0.0235317
-0.366868
0.00861314
-0.0856906
-0.10851
-0.30908
-0.0141163
0.0082635
-0.373516
-0.11947
-0.368811
0.157599
0.0246711
-0.122652
-0.139155
0.157907
-0.0818733
-0.0834249
-0.233762
-0.0541701
0.0176266
0.00484063
-0.277083
0.0583615
-0.180813
0.0389152
-0.0109295
-0.270865
-0.0650918
-0.0222179
0.0134527
-0.088089
-0.21786
-0.0856889
-0.114744
0.0819103
-0.154861
0.0193254
-0.231691
-0.0906339
-0.118089
0.196578
-0.0545083
-0.124777
0.126276
-0.0228077
-0.114248
-0.419149
-0.0910172
-0.0297622
-0.34696
-0.0910124
0.0137191
0.0643086
-0.132688
-0.135442
0.122759
-0.0825518
-0.269967
-0.0309749
-0.105225
-0.0147944
-0.0701854
-0.152265
-0.36441
-0.100784
-0.0913607
-0.164438
-0.0910446
-0.1581
-0.0453544
-0.100969
0.031163
-0.091946
-0.183873
0.021275
0.00451749
-0.0869338
0.0465972
0.0255551
-0.131904
-0.0836551
-0.19526
-0.0629977
-0.182446
0.00455868
-0.083843
-0.0923956
0.00818781
-0.107154
-0.347728
-0.288819
-0.0795445
-0.087502
-0.0830025
-0.000319913
0.0738156
-0.148581
-0.120077
0.0267891
-0.0896121
0.0278915
-0.0835251
-0.116008
0.113065
-0.0983802
-0.0812081
-0.111882
-0.0908218
0.231223
-0.387916
-0.300447
-0.0623428
-0.0138161
-0.0876045
-0.00207565
-0.0140079
-0.344532
0.0179692
-0.084838
0.0480417
-0.189793
-0.0603259
0.0188334
-0.377214
0.113825
0.0746134
-0.086486
-0.284294
-0.329181
-0.0657911
-0.0718783
0.0459405
-0.0777083
-0.151318
-0.0851442
0.0247792
-0.209183
-0.137146
-0.0500739
-0.0783987
-0.112522
-0.006012
-0.249882
-0.159966
-0.0868337
0.0179279
-0.246937
-0.00657851
-0.141179
-0.0881925
-0.191494
-0.00141655
-0.113972
-0.427341
-0.0491864
-0.162368
-0.0674259
-0.120362
-0.227449
-0.129925
0.0765396
-0.41054
-0.000838385
-0.086367
0.0144963
-0.044202
-0.131191
-0.0865828
-0.0602845
0.282496
-0.22293
-0.0759546
-0.0273302
0.0405072
-0.126879
-0.334505
0.109375
-0.356306
-0.15696
-0.0717108
-0.0865223
-0.154496
-0.102441
0.172249
-0.126401
-0.00312341
-0.0475397
-0.0318517
-0.353251
0.0255799
-0.0799713
-0.0123568
-0.108296
-0.0840679
-0.119515
-0.121519
0.0754289
-0.213522
-0.0134541
0.0463603
0.0153004
0.0248845
-0.0585602
0.00645273
-0.104271
-0.234361
-0.1125
-0.114802
-0.058965
-0.0115118
-0.0902172
0.0186094
-0.094942
-0.145576
-0.405157
-0.0952356
-0.0802725
-0.0647283
0.0195731
0.0590847
0.156738
-0.118684
-0.241805
-0.105884
-0.379355
-0.092164
0.00862418
-0.00334873
-0.0897011
0.0078878
-0.0844246
0.216428
-0.265486
-0.0481649
-0.143919
0.0258892
-0.0394912
0.0388058
0.0412822
0.0493059
-0.0973377
-0.0151108
-0.0727085
0.170647
-0.108496
-0.0967624
-0.206789
-0.181582
-0.276514
-0.0894768
-0.0488804
-0.0260853
-0.0913627
-0.0893877
-0.276373
-0.0817486
-0.0810387
-0.241112
-0.0916151
-0.0417628
0.012128
-0.0817545
0.0187267
-0.0683608
-0.411043
0.0150808
-0.0181674
-0.30511
-0.0942225
-0.0835115
-0.334402
0.0447544
-0.0858278
-0.118177
-0.28884
0.133128
0.0147158
-0.0823762
0.250522
0.0318784
-0.10668
0.0208976
-0.224345
-0.0767669
0.244637
-0.33391
0.113118
-0.159468
0.00654254
-0.394102
0.0409854
-0.0658145
-0.00773509
-0.129161
0.00793773
0.0334119
-0.0854787
-0.270541
-0.130507
-0.0484177
0.144827
-0.0101531
-0.00553603
-0.046356
-0.104652
-0.063775
-0.211947
-0.121819
-0.221842
0.0202708
-0.232497
-0.261285
-0.191547
-0.0498121
-0.24236
0.0153152
-0.0150971
0.0132055
-0.332106
-0.0224384
0.0265706
-0.0824813
0.0172904
-0.229931
0.0634294
-0.024283
-0.100783
-0.0558657
-0.196526
-0.0139589
-0.156847
-0.0216881
0.213035
-0.4293
-0.131409
0.0107843
-0.0611212
-0.104364
-0.0687101
-0.234894
-0.0911793
-0.0505125
-0.21537
-0.00361778
-0.033571
-0.376477
-0.0799862
-0.0608695
-0.0882215
0.0169421
-0.00559483
0.00728224
-0.0608724
0.0386546
0.0224098
-0.163009
-0.433071
0.124985
-0.428103
-0.0823411
-0.0619272
-0.310118
-0.389838
0.0530368
-0.370526
-0.353792
-0.0802567
-0.338478
-0.0890091
-0.107515
-0.0805311
-0.422552
-0.337313
-0.264764
0.0763578
0.0847011
0.0544843
-0.0575607
0.000833934
-0.304835
0.0187216
-0.42968
0.0359042
-0.177155
-0.0120951
-0.11355
0.0771736
0.0842847
0.0247359
0.0047328
0.0709415
-0.0507739
-0.0354897
-0.0739535
-0.343029
-0.0583983
-0.236836
-0.0040577
0.0847959
0.113173
0.0395011
0.000613577
0.00630531
-0.182379
-0.0977967
-0.168597
-0.376058
-0.0327728
-0.15042
0.0268334
-0.0812259
0.00122204
-0.0154237
0.0213645
-0.0935033
-0.0115095
-0.0732545
-0.286395
-0.0146198
-0.0861389
0.0203244
-0.334882
-0.242735
-0.420097
-0.102528
-0.236273
-0.236259
-0.0782903
-0.257304
-0.0884457
-0.399463
0.0502495
0.168271
-0.313618
-0.26881
0.0275121
-0.427169
-0.215494
-0.156955
-0.0117256
-0.11392
-0.324996
0.0142749
-0.429645
0.103525
-0.297597
0.00617031
0.0466995
-0.16608
-0.000212373
-0.0601446
-0.159299
-0.0187697
-0.0274198
-0.0816655
-0.189144
-0.426298
-0.0803447
-0.0326997
0.0568547
0.0145597
-0.020422
-0.0990678
-0.0951445
-0.127456
-0.302782
-0.0892949
0.00160556
0.00246703
-0.143047
-0.423004
-0.273332
0.110786
-0.0157737
0.132457
-0.429611
-0.421982
-0.0157158
0.0121905
-0.330701
-0.0311243
-0.156085
0.0723188
0.0165972
-0.037525
0.0960033
-0.171611
-0.324949
0.00738656
-0.018987
-0.0459769
-0.0919507
-0.312683
0.020864
-0.22437
-0.284537
-0.0153875
-0.0937517
-0.0818767
-0.430412
0.0269505
-0.430197
-0.316803
-0.0452146
-0.0486991
-0.0499085
0.330977
-0.257394
-0.0664581
0.0103069
-0.425138
-0.26991
-0.0112386
-0.151668
-0.221901
-0.0861296
-0.217658
-0.309532
-0.15232
-0.289896
-0.0658123
0.0794009
-0.0475865
-0.170772
-0.300333
-0.295763
-0.424503
-0.207913
-0.0169068
-0.0925368
0.00567153
0.00898968
0.0269481
0.00889224
0.0236452
-0.012681
-0.0800065
-0.36434
-0.355733
0.00133836
-0.213571
0.178354
-0.00528561
0.00230972
-0.164808
0.0208225
-0.0875681
-0.0818055
0.023749
-0.016767
-0.0782715
0.00477458
-0.267936
-0.0630067
-0.00833785
-0.0174273
-0.221422
-0.0133737
-0.341143
-0.179091
-0.0148363
-0.123713
-0.0134805
-0.0459757
-0.0270463
-0.185415
-0.0858513
0.00865125
-0.197507
-0.0997474
0.0143646
-0.0187521
0.0335206
-0.0343463
0.0202039
-0.300719
-0.284833
-0.431741
-0.0732639
-0.429248
0.0212253
-0.0672862
-0.0322468
-0.225552
0.0488248
-0.103905
-0.00229967
-0.0876409
-0.146658
-0.386788
-0.0925545
-0.00249915
-0.122029
-0.00647615
-0.209301
-0.0121611
-0.0182562
-0.056934
-0.0677489
-0.00140974
0.0100179
0.0635765
-0.183383
0.0489598
-0.0247784
-0.0563284
0.00283889
-0.102624
0.0195202
-0.425472
-0.0870264
-0.0491385
-0.122704
-0.427916
-0.0879739
-0.264931
-0.0138054
0.0151417
-0.0849385
-0.0831702
-0.228778
-0.0862545
-0.0805888
-0.0417511
-0.13209
-0.0831028
-0.0895326
0.0220639
0.00201629
-0.178564
-0.162003
-0.429948
-0.0620638
-0.0118064
0.0213636
-0.428631
-0.114557
-0.0128972
-0.246714
-0.0212984
-0.0923381
-0.0900405
-0.0916854
-0.029387
0.016149
0.00376412
-0.0617298
-0.196206
-0.271217
-0.0146439
-0.0152772
-0.29401
0.00503699
0.00356432
0.110219
0.102177
-0.0730033
0.0160155
-0.0824823
-0.0839887
0.103722
-0.372025
-0.128508
0.0240988
-0.0610787
0.0327702
0.00386283
-0.423303
0.308573
-0.0819119
-0.0312311
0.0187001
-0.154248
0.0892888
0.0221478
-0.08018
-0.362322
-0.015955
-0.110227
0.0261891
-0.126236
0.0265942
-0.0222918
-0.430019
-0.167906
-0.159627
0.0164442
-0.153544
-0.0197496
0.0215316
-0.0814431
-0.0968192
-0.12404
-0.0738994
-0.164442
-0.0447364