/*--------------------------------*- C++ -*----------------------------------*\
| =========                 |                                                 |
| \\      /  F ield         | OpenFOAM: The Open Source CFD Toolbox           |
|  \\    /   O peration     | Version:  v2012                                 |
|   \\  /    A nd           | Website:  www.openfoam.com                      |
|    \\/     M anipulation  |                                                 |
\*---------------------------------------------------------------------------*/
FoamFile
{
    version     2.0;
    format      ascii;
    class       surfaceScalarField;
    location    "100";
    object      phi;
}
// * * * * * * * * * * * * * * * * * * * * * * * * * * * * * * * * * * * * * //

dimensions      [0 3 -1 0 0 0 0];
oriented        oriented;


internalField   nonuniform List<scalar> 
20580
(
-0.133792
0.0110295
0.122763
0.126369
-0.249101
0.122732
0.259072
-0.132703
0.00657512
0.00259452
-0.00916964
0.584022
-0.619947
0.0359251
0.263659
-0.187724
-0.0759353
-0.300055
0.0474994
0.576051
-0.578841
0.00278926
-0.0195288
0.0157296
0.00379916
0.422959
-0.246734
-0.176224
0.14407
0.0105817
-0.154652
-0.518771
0.313104
0.205667
-0.208107
0.285004
-0.076897
0.00647294
-0.00205879
-0.00441415
0.189757
-0.033044
-0.156713
-0.115194
0.100271
0.0149231
0.00813153
0.0054687
-0.0136002
-0.171248
0.356826
-0.185577
0.0998957
-0.11241
0.0125141
-0.116888
-0.0169039
0.0640511
-0.193811
0.12976
0.234398
-0.202972
-0.0314259
0.0250963
-0.0391602
0.014064
-0.584822
0.59185
-0.00702841
0.0824025
-0.0970967
0.0146942
-0.0026022
0.116777
-0.114175
-0.0171532
-0.0631972
0.0803504
-0.0971063
0.0765901
0.0205162
-0.008026
0.0304085
-0.0223825
0.485056
-0.324519
-0.160537
0.00547409
-0.00308351
-0.00239058
-0.224009
-0.0760466
-0.111814
0.127551
-0.0157372
0.0292042
-0.0203197
-0.00888453
-0.156163
0.150725
0.0054384
-0.0222756
-0.0070198
0.0292954
-0.615202
0.0303807
0.00933951
-0.0701622
0.0608227
0.00088221
0.000511837
-0.00139405
-0.131189
-0.161023
0.292212
-0.00509621
-0.00554972
0.0106459
-0.0328285
0.0248025
0.015228
-0.015228
0.0964393
-0.00277042
-0.0936689
0.0287202
-0.0367266
0.00800642
0.451015
-0.278828
-0.172187
-0.535223
-0.0696536
-0.128995
0.0479444
0.0810503
-0.0519813
-0.212617
0.264598
-0.298596
0.0904888
0.0132261
-0.013345
0.000118909
0.143777
-0.283899
0.140123
-0.101036
-0.0141584
-0.0500014
-0.124973
0.174974
0.0101404
-0.00138422
-0.00875622
0.102602
-0.233791
0.0110226
-0.122837
-0.00904768
0.00395147
-0.0214705
0.0888087
-0.0673382
0.00277679
-0.00208799
-0.000688804
-0.355045
-0.163726
0.0699661
-0.0871194
-0.21806
-0.196767
0.414826
-0.195684
0.143702
-0.043511
0.0917328
-0.0482218
-0.082738
0.039227
0.00319709
-0.000420297
-0.094106
0.0656094
0.354529
-0.249448
-0.105081
0.00443731
0.00370885
-0.00814616
0.00790682
-5.2939e-05
-0.00785388
0.165751
-0.186608
0.0208566
-0.0317197
-0.222363
0.254083
-0.00246084
0.000372852
0.180116
-0.0195381
-0.160578
0.221212
-0.216063
-0.00514877
0.0161717
-0.0080402
0.342696
-0.526624
0.183928
0.0966696
-0.0142671
0.449394
-0.215809
-0.233585
0.246432
0.108098
-0.104967
0.119746
-0.0147784
-0.0227805
-0.133383
-0.00306188
0.00551744
-0.00245556
-0.0012302
-0.00123064
0.00521851
-0.00699521
0.0017767
0.0652543
0.169144
0.0175134
-0.00276206
-0.0147514
0.229371
0.147044
-0.376415
0.00295027
0.00252382
0.267192
-0.123416
-0.304716
0.0807076
0.014489
-0.014489
0.00863598
-0.00341747
-0.00239509
0.00318312
-0.000788029
0.0266321
0.0712834
-0.0979155
0.148461
-0.352744
0.204283
-0.0894391
0.107737
-0.0182978
0.00951394
-0.0104221
0.00090817
0.0174415
0.0971882
-0.11463
-0.110589
0.0211499
0.123378
-0.0485344
-0.0748436
0.0847403
-0.120456
0.0357153
-0.169794
-0.0788521
0.248646
-0.469601
0.131129
0.338472
0.131722
-0.173238
0.0415156
-0.164274
-0.305327
0.00760139
0.00030543
-0.0763919
-0.228324
-0.338144
0.166895
-0.00882028
0.152743
-0.143923
0.338017
0.112999
-0.104176
0.118326
-0.01415
0.0174394
0.112594
-0.130034
-0.118128
0.109261
0.0088676
0.162096
-0.212098
0.169187
-0.398617
0.22943
0.465841
0.11021
-0.00341824
0.00999336
0.00767907
-0.00324176
0.0728354
-0.102938
0.0301026
0.158908
-0.418958
0.26005
-0.275711
0.2892
-0.0134893
0.00472684
-0.0022658
-0.00246104
0.0830948
-0.114876
0.0317809
0.0261572
-0.0663382
0.040181
0.343018
-0.194557
0.0557335
0.0949714
-0.150705
0.00939223
0.00504929
-0.0144415
0.146388
0.0182146
-0.164602
-0.199798
-0.00317425
-0.134774
0.187542
-0.0527675
-0.0765732
0.0859127
0.0170635
0.0121407
-0.00217843
0.146249
-0.000241069
-0.00346655
0.00370762
-0.0477444
-0.00559607
-0.00139915
-0.0106455
0.124171
-0.113525
-0.163959
0.02297
0.140989
-0.109255
0.00428787
0.251352
-0.231416
-0.0199356
-0.0673213
0.296692
-0.0785428
0.000908311
0.0776345
-0.00196913
-0.0647014
0.0666705
-0.0371975
0.230293
-0.193096
0.51525
-0.172554
0.00555247
0.0236935
-0.0200688
-0.00362469
-0.0664046
0.122138
-0.0567427
-0.0538463
-0.114029
0.00985251
-0.106639
0.124078
0.106548
-0.0992732
-0.00727496
-0.216046
-0.0204162
0.236462
0.129389
0.187926
-0.317315
0.310447
0.213515
-0.523961
0.00132354
-0.000441334
-0.1872
0.0916602
0.0955394
-0.0508359
0.209963
-0.159127
-0.416339
-0.164179
0.580519
0.0317379
-0.0267679
-0.00497006
0.16073
-0.0290077
-0.0427181
-0.0862766
0.00276262
0.00371033
-0.031696
0.00614722
0.0255488
-0.0221946
-0.00950148
0.0125167
0.000709447
0.157239
-0.166059
0.0497287
-0.0459188
-0.00380994
0.535101
-0.327424
-0.207676
0.438567
-0.269379
0.158499
-0.143366
-0.0151333
0.55004
-0.110355
-0.439685
-0.0014302
-0.000964885
-0.068326
-0.0222578
0.0905839
0.0901852
-0.104155
0.0139695
0.256595
0.181971
0.18474
-0.165539
-0.0192014
0.1091
-0.0189143
0.103853
-0.0207586
0.123071
0.00740372
-0.174779
0.167375
0.184384
-0.0379962
-0.0153785
0.0153785
0.00764224
0.0160512
0.0924731
0.0350781
-0.0712421
-0.0600963
0.131338
0.229705
0.00524509
-0.23495
-0.13445
-0.2417
0.37615
-0.0747418
0.0727727
-0.129973
-0.057227
-0.00334882
0.00129003
0.131633
0.132026
-0.226312
0.189115
-0.0972346
0.115044
-0.0178096
0.118336
-0.0258634
0.201512
0.104269
-0.305781
0.128039
-0.314191
0.186152
-0.0126297
-0.0707173
0.083347
0.114019
-0.114165
0.000145962
0.00131698
-0.000935247
-0.000381733
0.0102308
-0.00444285
-0.0057879
0.0152228
0.174534
-0.00414114
-0.0511632
0.0553044
0.00255011
-0.00123313
0.194447
-0.211464
0.0170167
0.121303
-0.135571
0.0142676
0.0200789
-0.00800354
-0.0120753
0.203604
-0.0100586
-0.193545
-0.102587
0.106344
-0.00375628
-0.244981
-0.03073
0.00476375
-0.646385
0.396802
0.249583
-0.135882
0.161222
-0.0253398
-0.213737
0.183346
0.0303909
-0.247616
-0.0509802
-0.00950097
0.0864021
-0.0769012
-0.175219
-0.139798
0.315017
-0.00174714
0.0243883
-0.202001
0.458596
0.123003
-0.109057
-0.0139453
-0.00405528
0.000993401
-0.00266612
0.00331394
-0.000647823
0.0330373
-0.13875
0.105713
0.141035
-0.0197317
0.668472
-0.366361
-0.302111
-0.0285262
-0.0500166
0.171048
-0.455465
0.284417
0.0148428
0.00290199
-0.00482096
0.00191897
0.0857511
-0.156993
-0.0356165
0.23922
-0.480424
0.221995
0.00360956
0.00662119
0.227925
0.257131
0.0717444
-0.0466482
0.00728034
-0.0028238
-0.00445654
-0.104057
0.121498
0.143095
-0.559434
-0.0404852
0.0881578
-0.0476726
0.00169866
-0.000464595
-0.00123407
-0.00756223
0.0362824
-0.00231609
0.180536
-0.178627
-0.00190958
0.063993
-0.0604772
-0.00351575
0.0816498
-0.0911507
0.0295413
0.155199
0.100747
-0.0294639
0.153368
-0.158779
0.00541198
0.00131927
-0.0100651
0.00874586
-0.105898
0.117864
-0.0119659
-0.309528
0.646023
-0.336495
0.0595367
0.154154
-0.213691
0.0105023
0.0307427
0.000995203
-0.0123584
-0.0042581
0.0166165
-0.34802
0.213569
0.0505061
0.18537
0.155281
-0.340651
0.0999373
-0.093465
-0.0064723
0.114832
-0.104004
-0.0108276
-0.0986219
0.158159
0.145096
0.0156333
-0.130684
0.0247858
-0.0947041
0.302525
-0.207821
0.0554384
0.0679395
-0.128856
0.0411103
0.0877454
0.105813
-0.0796024
-0.0262104
0.45856
-0.190105
-0.268455
-0.293478
0.045862
0.118788
-0.0173648
0.0264748
-0.00911003
0.0133349
-9.66697e-05
-0.0132382
0.154941
-0.0182609
-0.13668
0.388448
-0.22954
0.0921033
0.0117501
-0.0993788
0.107413
-0.00803459
-0.0922089
0.118351
-0.0261418
0.159372
-0.0142752
-0.0235261
0.00616136
0.00785509
-0.00816882
0.000313728
0.146781
-0.195852
0.0490707
-0.102916
-0.0594021
0.162318
-0.079836
0.0884325
-0.00859647
0.183743
0.167456
-0.351198
0.226394
0.29632
-0.522714
-0.111883
0.0196737
-0.0215794
0.143652
-0.122073
-0.460321
0.230262
0.230058
0.492376
0.131229
-0.623606
0.404807
-0.233759
-0.564147
0.570836
-0.00668869
-0.0186801
-0.153898
0.172578
0.53684
-0.0145944
-0.00493436
-0.0890731
0.153124
0.15237
-0.288652
0.136282
0.00846713
0.00392324
0.0008036
0.057201
0.21462
-0.271821
0.00611446
0.0112646
0.000175511
-0.0114401
0.0698993
0.181453
-0.183414
0.240615
-0.214741
0.125668
0.00304139
-0.0021051
-0.000936295
0.011374
0.00237056
-0.0137446
0.159731
-0.0259598
-0.133772
0.461666
0.122357
0.0506155
-0.000886823
0.180056
0.14428
-0.151612
0.00733242
0.0113563
-9.17673e-05
0.0982612
-0.0856208
-0.0126404
-0.254865
0.204029
-0.0937433
0.0139073
-0.00665156
0.090224
-0.0835725
0.00507432
-0.00634424
0.00126993
0.110818
-0.00129465
-0.109524
0.0451981
-0.110377
0.0651794
-0.000173072
-6.79969e-05
0.00710133
-0.00392664
-0.00317468
-0.0357092
-0.0613971
0.315984
-0.187945
-0.00487987
0.0140759
-0.00919602
-0.011718
0.011718
0.00387435
-0.0312935
0.0274191
-0.0374473
0.0413216
0.144378
0.0500693
0.162703
-0.0299206
-0.132782
0.020471
-0.156006
0.135535
0.00756763
0.00994581
0.0539704
-0.112107
0.058137
-0.215996
-0.300922
0.516918
-0.105364
-0.429859
-0.0488032
0.180412
-0.131608
-0.00229325
0.00736757
0.0272222
0.371056
-0.187313
0.000516998
0.0496431
0.113914
-0.163557
-0.181358
0.0465842
-0.0457121
0.255675
0.00264984
0.000391553
0.0993309
-0.00722763
0.0140081
-0.00915816
-0.204579
0.184227
-0.219844
-0.033212
0.028756
0.00445598
0.246068
-0.0163627
0.00716934
-0.0635682
0.21035
-0.126945
-0.0877956
0.13952
-0.0898772
0.332414
0.290077
-0.137707
0.119218
-0.133921
0.0147036
-0.0214441
0.118632
-0.112809
0.121327
-0.00851772
-0.0832247
-0.0244855
-0.00872649
0.19135
0.038943
0.00283749
-0.105957
0.0899521
0.0160053
-0.192905
0.43118
-0.238275
0.0944465
0.00381467
-0.108229
0.125346
-0.0171163
0.00951415
-2.0535e-07
0.169016
-0.217819
-0.135929
0.00817738
-0.0876696
0.0661991
-0.0867391
0.0804778
0.00626136
0.112765
-0.123485
0.0107198
0.0166318
-0.0136201
-0.00301174
0.289005
-0.237138
-0.0518671
0.0213831
-0.0897092
0.00173071
0.0134973
0.0192086
-0.184286
0.165077
0.0104608
-0.00914157
-0.0298638
-0.152292
0.182155
-0.00969918
0.00424931
0.00544988
0.0813836
-0.1843
-0.032556
-0.129094
0.120804
-0.1164
-0.00440377
0.0588498
-0.0922095
0.0333596
0.307083
-0.177694
0.237101
-0.154118
-0.0829833
0.0931916
-0.114771
0.0145769
-0.294205
-0.0248383
0.319043
-0.00525664
0.160198
-0.0419521
0.00292394
0.0390282
-0.209014
0.177294
-0.073174
-0.0623969
-0.0110341
0.0125096
-0.00147546
0.103354
-0.254961
0.151607
-0.0461326
0.11328
-0.0671477
-0.15636
0.150312
0.00604821
-0.00419952
0.0155736
0.189244
-0.199302
0.128813
-0.131416
-0.0664334
0.0622922
-4.4125e-05
0.164895
-0.156878
-0.00801731
-0.0193239
0.00696554
0.000468463
-0.0884876
0.0480024
-0.280112
0.185408
0.117288
0.00192928
0.154573
-0.180678
0.0261044
-0.122639
-0.0132903
0.417639
-0.207062
-0.210577
-0.0157905
0.0157905
-0.0109637
0.0363033
-0.0253397
-0.0810099
0.0887754
-0.00776552
-0.0553774
0.239604
-0.00988031
0.0839758
-0.076497
-0.00747876
0.0122583
0.00107659
0.48318
-0.213664
-0.269515
-0.0151808
0.0103009
-0.108607
0.103242
0.00536481
-0.00974747
-0.00732227
0.0170697
0.167825
-0.0144572
-0.0188135
-0.0696052
0.0884186
-0.0391608
-0.238243
0.277404
0.567867
-0.0178269
0.000361942
0.0097785
0.0869943
-0.0112296
-0.0757647
0.146053
0.276905
-0.208015
-0.0410858
-0.135232
0.0620582
-0.156733
0.459999
-0.303266
-0.0431416
0.0321779
0.0365664
0.126137
-0.123529
0.0152998
-0.223528
0.218857
0.00467052
0.0134055
0.2756
-0.33013
0.250356
0.0797734
-0.0792374
-0.00750171
-0.0799092
-0.208743
-0.0305614
-0.299568
0.0175849
-0.0671444
0.0495595
-0.0402979
-0.00165424
-0.169838
-0.02996
0.01946
-0.0892962
0.0698362
0.216403
-0.434463
0.515388
-0.219068
0.273292
-0.169938
0.00505528
0.124822
-0.144388
0.0195656
-0.326651
0.0288341
0.297817
-0.315903
0.21429
0.101613
-0.0344838
0.107319
-0.121591
0.297575
-0.175984
-0.0243901
0.0201089
0.00428115
-0.170554
-0.379342
0.549896
-0.151616
-0.0595249
0.211141
-0.0173432
-0.0193834
0.00571825
-0.0957794
0.0900612
0.42948
-0.607079
0.177599
0.498334
-0.19971
-0.298624
-0.196348
-0.0271799
0.320097
-0.125074
-0.195024
0.0865989
-0.0999236
0.0133247
-0.0621785
0.0544383
0.00774024
0.192207
-0.0116711
-0.00967952
-0.0362061
0.0458857
0.217914
0.266064
-0.485924
0.219859
-0.00731381
0.0153299
-0.00801611
-0.0682096
-0.157975
0.0826025
0.0753723
-0.299597
0.273525
0.0260718
0.00483553
-0.125011
0.114366
0.0702394
-0.0182391
-0.0520003
-0.23747
0.0676764
-0.17093
0.00289896
0.168031
-0.0211562
-0.196338
0.168963
0.0273752
-0.0106671
0.00674048
0.0860578
-0.00208205
-0.0912548
0.0102449
-0.234479
0.0836078
0.150871
-0.0032103
-0.16067
-0.148872
0.309542
0.00364067
-0.135822
-0.020538
0.0379143
0.0804222
0.179856
-0.0252832
0.212054
-0.109488
0.115206
0.128579
-0.446212
-0.173736
-0.0140084
0.0132401
0.000768307
0.00542012
-0.0127339
-0.0068044
-0.0175857
-0.00906087
-0.000742896
0.00980376
-0.0445936
0.00636886
-0.0137649
0.007396
0.00340933
0.148807
-0.0263381
-0.122468
0.577226
-0.305753
-0.271474
0.0461635
-0.0922961
0.147447
-0.394181
-0.374827
0.0806221
0.016996
-0.137634
0.120638
0.00167321
-0.000230726
-0.00144249
-0.0600576
-0.185762
0.245819
0.206217
-0.228088
0.0218706
-0.140681
0.0984902
0.0421913
-0.148826
0.01063
0.138196
0.39601
-0.181101
-0.214909
-0.0265656
-0.0191482
0.0457138
0.460377
-0.287433
-0.172944
0.016693
-0.010647
-0.00604605
0.0880008
-0.00140187
0.165431
0.283963
-0.299592
0.205574
0.0940178
0.101007
-0.106404
0.00539668
0.020192
-0.232396
0.0644574
-0.0758263
0.0113689
-0.0377672
0.0839306
-0.142816
0.356815
-0.213999
-0.00374866
0.00377416
-2.54949e-05
-0.0107678
0.110664
0.109113
-0.102788
-0.00632521
-0.0499404
-0.184539
-0.0122503
-0.0548941
-0.00515556
-0.000495725
0.00565128
-0.337497
0.194681
-0.00723647
-0.0843328
0.0915693
0.3693
-0.17895
-0.19035
0.107633
-0.0616355
0.0709579
-0.00932234
-0.00761254
-0.00208664
0.193987
-0.171332
-0.0226552
0.143697
-0.018875
0.231485
-0.405396
0.173911
0.117724
-0.120361
0.0026378
0.0155168
-0.00612459
0.0025148
-0.0019767
-0.000538102
-0.256687
0.396255
-0.139567
-0.0158309
0.00905011
0.00678079
-0.351489
0.119852
-0.00834244
0.16537
-0.159595
-0.00577572
0.334875
0.148304
-0.0775208
-0.138543
0.00295979
-0.0025781
-0.000381687
0.117369
-0.0585192
-0.000788871
0.203984
-0.264042
-0.173753
0.329034
-0.0168858
0.0258936
-0.00900781
0.144493
0.4067
-0.551193
-0.116786
-0.00238562
0.119172
-0.177946
0.244472
-0.0665257
0.181874
-0.164708
-0.0171662
0.190843
-0.0368918
-0.153952
-0.0313874
0.0392147
-0.00782729
0.00818351
-0.000328426
0.0894563
-0.228093
0.138636
0.015319
-0.0135883
0.0893061
0.179244
-0.26855
0.000840809
0.129258
-0.130099
-0.0240002
-0.00882834
0.0101913
-0.0115755
0.28347
-0.31602
0.03255
0.141855
-0.00668739
0.0914277
-0.00296469
0.000386588
0.0103921
-0.0871867
0.0767945
-0.0181273
0.135851
0.091724
-0.0214846
0.185314
-0.0199434
-0.0770562
0.15844
-0.00249012
0.00539211
0.0385293
-0.00484076
-0.0336885
-0.0575662
0.123823
-0.0662572
0.0118322
0.00486083
-0.0818886
0.0921345
-0.0102459
0.00502893
0.0274846
-0.0325135
0.310797
-0.209885
-0.100912
0.0787269
0.0100818
0.0770311
-0.0958446
0.516078
-0.244987
-0.271091
0.0130905
0.00139847
0.0279554
-0.00946929
-0.0184861
0.164642
0.0204252
0.310259
-0.132688
-0.177571
-0.0475596
0.0378801
-0.111704
0.126573
-0.0148692
-0.0256068
0.0420008
-0.016394
-0.263108
0.183198
0.603299
-0.056925
-0.546374
-0.0954897
0.130297
-0.0348072
-0.131073
-0.0177534
-0.503078
0.332524
0.000243009
0.503259
0.10004
-0.0959371
0.0140485
0.224072
-0.214746
-0.0093264
0.010162
-0.132801
-0.253701
0.174849
0.209804
0.186206
-0.134147
-0.00384897
0.137996
-0.00701291
-0.00881798
0.174336
-0.149381
-0.0249548
-0.000152605
0.016612
-0.287092
0.483282
-0.19619
-0.419761
0.01657
0.403191
0.00529522
-0.148661
-0.147974
-0.167928
-0.0998985
0.126723
-0.0268241
-0.265059
0.175453
0.089606
-0.113508
-0.0444673
0.0851238
-0.00639698
0.325488
-0.558007
0.232519
-0.0133065
0.0153887
-0.00208218
0.310848
0.357624
-0.10834
0.0995172
0.00882283
0.0117957
0.00352335
-0.0225256
-0.00680784
0.0293335
0.0186545
0.0251941
-0.0508008
-0.0521982
-0.0884833
0.0954432
-0.11462
0.0191766
0.0229465
0.0050089
0.228136
-0.378846
0.15071
-0.0388192
0.0122536
0.134385
-0.152357
0.171565
-0.000414825
-0.00864604
0.00442654
0.0864258
-0.0908523
-0.350949
0.158043
-0.126227
0.0263288
-0.106855
0.308367
-0.024353
0.029382
-0.0146442
0.0029943
0.0116499
0.0180079
0.191836
-0.209844
0.0529797
-0.0279762
-0.0113504
0.0393266
0.618663
-0.333039
-0.285624
0.384411
0.234252
0.128321
-0.0115442
-0.0149382
0.00163174
-0.0585077
0.0699727
-0.011465
-0.219195
0.0357813
0.124609
-0.111427
-0.0131821
0.159982
-0.281573
0.318739
-0.382023
0.0632842
0.0655745
-0.0823532
0.0167787
0.0082087
0.138186
-0.0945673
-0.0436184
0.164512
0.311328
-0.47584
-0.0643479
-0.0645078
0.0919684
0.0398205
-0.131789
0.0247395
-0.1364
0.11166
-0.266334
0.0861311
0.180203
-0.197599
-0.0287135
-0.128598
0.016894
-0.177281
0.081791
-0.12605
0.0833322
0.0110126
0.154739
-0.125201
-0.0614067
-0.120993
0.0634266
-0.093681
0.0754419
-0.033843
-0.0785667
0.0305117
-0.0465392
0.0160275
-0.00930601
0.0737634
-0.0752206
0.018478
0.00565688
0.00170665
-0.00736353
-0.0248862
-0.103359
0.128245
0.00876093
-0.0703965
5.53805e-05
0.153017
0.188478
-0.341495
0.104156
-0.181212
-0.123124
0.0892806
-0.0135158
0.184505
-0.170989
0.221083
-0.436892
-0.452036
0.245278
0.206759
0.114826
-0.100953
-0.0138727
0.00218154
0.0144503
-0.206114
0.0544975
-0.00540025
0.00257645
0.189097
-0.476189
0.0120498
-0.0705574
-0.0383855
0.098731
-0.0603455
0.012492
-0.00113563
-0.0882678
-0.0379595
-0.0196159
0.208859
0.102348
0.156724
0.00114146
0.0113505
0.0775832
0.0606024
-0.14422
0.119334
0.0104973
-0.316063
0.329469
-0.0886965
0.103089
-0.0143923
0.00648602
-0.0589069
-0.0370301
0.185288
-0.0282382
-0.15705
0.111683
-0.109114
-0.00256861
-0.251004
0.211843
-0.335537
-0.0293552
-0.182109
0.339636
-0.0208969
0.0308857
-0.00846994
-0.0224157
-0.41239
-0.151757
0.0835231
-0.0179486
0.00958901
-0.123161
0.0348936
0.00178378
-0.0010037
-0.000780074
-0.00432868
-0.00609344
-0.0948109
0.035904
-0.0143343
0.109777
0.167246
-0.148592
0.136893
-0.237658
-0.0558199
0.023988
0.337544
-0.361532
-0.00104625
-0.418715
0.392904
0.148061
-0.131768
-0.0162934
-0.0243873
-0.0889998
0.113387
0.105011
-0.0130431
-0.0142206
0.0908107
-0.244367
0.0115913
0.232776
0.00548448
0.486924
0.11009
0.00737515
-0.00478063
0.00959074
-0.144065
0.134474
0.0435532
0.443371
0.232985
0.246291
-0.479275
-0.0195015
0.0287211
-0.00921953
0.0311681
-0.218892
0.0267412
0.0335697
-0.060311
0.0243588
-0.00141235
0.11463
0.0926113
-0.124774
0.0321626
-0.232943
-0.148196
0.381139
0.00396307
-0.0242828
0.00322956
0.158314
-0.161543
0.0589375
-0.244699
0.00277067
0.342449
0.181535
-0.523985
0.0218117
-0.253228
-0.154677
-0.183994
0.338671
-0.0193127
0.147205
-0.127893
-0.0107131
0.0117191
-0.00100604
0.0283802
-0.19407
0.165689
-0.17489
0.175893
-0.00100349
-0.116205
0.00759746
0.00322235
-0.000707548
-0.174343
0.114247
0.0150672
0.137268
-0.152335
0.0322474
-0.00604962
-0.0261978
-0.356525
0.380513
0.0252276
-0.328791
-0.192369
0.521159
0.0477874
0.249788
-0.0803117
-0.0110481
0.0913598
-0.0733806
0.116614
-0.0432331
-0.0187657
-0.0993626
0.118919
-0.0137724
-0.105147
0.0174585
-0.539543
0.314759
0.224783
0.377292
0.219722
0.120648
-0.119807
0.235324
0.0754727
-0.119427
-0.420115
0.198544
-0.223355
0.0248109
0.115941
-0.00489288
-0.111048
-0.398791
0.434556
-0.0357645
0.0950513
-0.109138
0.0140864
0.0245839
-0.0628758
0.0518939
0.0109819
0.000956355
0.117963
-0.00176377
-0.00034767
0.00211144
-0.00420417
0.128375
0.479343
0.121252
-0.119037
-0.00221508
-0.517412
0.237748
0.279665
0.139715
0.0973865
-0.0191451
0.0496568
0.0297857
-0.00102967
-0.000289965
-0.0357141
0.0296644
-0.180296
0.303513
-0.123218
-0.192701
0.210708
0.119935
-0.0788137
-0.0411214
0.224173
-0.209478
-0.0146944
-0.188532
-0.192548
0.381081
-0.0137684
-0.0253918
0.0935865
0.00635086
0.000972353
0.00994382
-0.0109162
-0.0156824
-0.116279
0.0428982
-0.346751
0.305378
0.0413735
0.00734896
-0.331868
0.103403
-0.0566135
-0.0467894
-0.0793033
-0.044226
0.251771
0.490119
0.136535
-0.626654
0.0272978
0.0819629
0.106991
0.000318231
-0.10731
-0.00115094
-0.253495
0.0374483
-0.628618
0.362765
0.265853
-0.0120452
0.00133205
-0.25288
-0.0134539
-0.0179719
-0.159412
0.177384
0.359326
-0.516059
0.000816704
0.000887462
-0.00170417
-0.477613
0.168085
-0.0174445
0.00385619
-0.282446
-0.121766
0.404212
0.0110963
-0.115153
0.180909
-0.154987
-0.0259222
0.133209
-0.0708739
-0.0623352
0.0103983
-0.313495
0.0911317
-0.263389
0.152345
0.111045
0.597307
-0.347071
-0.250236
-0.0168578
-0.0658666
0.0827245
0.0726199
-0.240363
0.167744
-0.0209279
0.0166698
-0.0493014
0.255734
-0.206432
-0.089886
0.0327329
0.0571531
-0.00761273
-0.0110719
0.0186846
0.0170104
-0.176131
0.159121
-0.15915
0.411622
-0.252473
-0.000590664
-0.00834041
0.00893107
-0.0455868
-0.0103049
0.0558917
0.226771
-0.137314
0.0976671
0.0189466
0.0432727
-0.280931
-0.0170023
0.000617312
0.016385
0.325637
-0.17262
-0.0656668
-0.0574569
0.473641
-0.224209
-0.249432
0.427176
0.17013
0.0652523
-0.038511
0.0122168
0.289349
0.208986
-0.181779
0.0568057
-0.00530998
-0.00359094
0.00890093
-0.0542763
0.0661542
-0.0118779
-0.0403274
0.0123512
-0.130511
-0.217509
-0.00290393
0.00856082
0.115152
0.343408
-0.606584
0.207793
-0.228696
0.20828
-0.403833
0.29847
0.286961
-0.550505
0.263544
0.0358233
-0.0125841
-0.0232393
0.0518054
-0.0165509
-0.0352545
-0.276863
0.101645
-0.434981
0.535021
0.145135
0.048852
0.0703671
0.26765
-0.00798181
0.00739115
-0.00223242
-0.00270751
0.000931394
-0.00110447
-0.179855
-0.0835343
-0.08494
0.249635
0.266443
-0.0300381
-0.163773
0.0699935
-0.108379
-0.142486
0.370622
0.1861
-0.514891
-0.104726
0.093832
0.0108937
-0.00559122
-0.00905302
0.123865
-0.0312534
-0.00990984
0.152235
-0.0202872
-0.131948
-0.409797
0.213031
0.159447
-0.00912793
-0.150319
0.11812
-0.0204533
0.0130685
-0.0138355
0.000767011
0.154552
-0.173232
0.0636174
0.00796409
-0.0715815
-0.118759
0.0394555
0.0619787
0.430397
0.0123539
0.00849657
-0.0208505
-0.00379519
0.0161491
0.00172079
0.0125345
-0.0142553
-0.0703153
-0.0570009
0.0672231
-0.0102222
-0.0960074
0.179615
0.0587199
0.00527309
-0.0245362
0.0893556
-0.0648195
-0.192167
0.178652
-0.583047
0.367051
-0.03791
0.034324
0.00358596
-0.234816
0.223704
0.0111123
-0.476108
0.316958
0.0363254
0.247144
-0.219142
-0.0156739
0.000585978
-0.110041
0.225416
-0.38226
0.156844
0.00764891
0.151798
-0.00217751
-0.00187777
-0.125503
-0.117222
0.242725
0.00217296
0.0132056
0.0777123
-0.220797
0.143084
0.00499875
0.104489
-0.109487
-0.000665536
0.00488552
-0.00421999
-0.289564
0.0780119
-0.0676197
-0.221492
0.1142
0.107292
0.178004
-0.160994
-0.065194
0.0109177
-0.0206629
-0.102442
-0.00209107
0.104533
0.153553
0.00734753
-0.0126575
-0.160448
0.32043
-0.159982
0.00179602
-0.0166254
0.0148294
-0.0217281
-0.162558
0.00331038
-0.00224766
-0.00106272
-0.0136696
0.012777
0.0008926
0.014656
-0.01286
0.00214588
0.129083
-0.131229
-0.145082
-0.155314
0.300396
0.119359
-0.299655
-0.324482
0.657656
-0.333174
-0.173812
0.419263
-0.109164
-0.310099
-0.00561783
-0.162952
-0.0118274
0.0209928
-0.153507
0.132514
-0.0554438
-0.118899
0.119345
-0.215353
-0.367391
0.23688
0.000912936
-0.187598
0.186685
-0.175767
0.168665
0.00710215
-0.14985
-0.149742
-0.12564
0.190895
0.0139828
0.00483588
-0.0188187
-0.0128679
-0.0690052
0.081873
0.0246875
0.167274
-0.191961
-0.139669
-0.00349596
0.143165
-0.0273541
-0.0105559
0.228029
-0.0044148
-0.00192944
-0.559055
0.202531
0.142158
0.00109115
-0.143249
-0.135645
0.208265
-0.190156
0.354923
-0.164767
0.111405
-0.141136
0.0297317
-0.158501
0.424565
-0.147811
0.373227
-0.0599632
0.105161
-0.0933298
0.281256
0.102508
0.0134328
-0.300999
0.153025
-0.0130905
0.00119917
0.0118914
-0.0831909
0.0988932
-0.0157023
0.0132815
-0.0966797
0.0833982
0.0820976
-0.089334
0.134428
-0.327739
0.193311
-0.000192921
-0.116184
0.106435
0.00974818
0.528032
0.00873811
-0.0215209
-0.206567
0.000684422
-0.00509922
0.210056
-0.207674
-0.00238233
-0.0650172
0.0649545
0.029492
-0.0115662
0.000532036
-0.126355
0.0900377
0.0363172
0.123826
0.190615
-0.314441
-0.0389496
-0.0251231
0.0900776
0.0139569
-0.109345
-0.112146
0.322596
0.160687
-0.257977
0.386956
-0.128979
0.0622264
0.0975051
0.25551
-0.305422
0.0499116
0.000586414
-0.00574197
0.000502057
0.278252
0.298974
-0.047951
-0.0580064
-0.105489
0.0263536
0.0791349
-0.304263
0.149586
-0.00684815
0.0208309
-0.0105346
-0.00690987
0.106726
-0.0131393
-0.215745
0.166444
0.0083142
0.0309005
0.153356
-0.161781
0.477989
-0.316208
0.00965725
-0.0086849
-0.130362
0.145429
0.37653
-0.260217
-0.116313
0.424651
-0.179905
-0.244747
-0.189884
0.170346
-0.164019
0.138462
0.0255575
0.0144021
-0.0224057
0.000720877
0.0022294
0.021599
0.132849
-0.154448
0.0260002
-0.0059089
-0.0200913
0.068243
-0.214428
0.146185
0.163857
0.159579
-0.323436
-0.0863159
0.0413022
0.0450137
-0.23604
-0.215997
-0.0116879
-0.0806034
0.0922913
-0.399173
0.591906
-0.245649
-0.346258
0.129297
0.0803271
-0.209624
-0.0807391
0.00232686
-0.0183715
0.0160447
-0.0145412
-0.0024611
-0.0772658
0.0897988
-0.0125331
0.00022643
-0.00789941
0.00767298
-0.00647029
0.0245492
-0.0180789
0.122018
0.0267888
-0.0906532
-0.208944
-0.150236
-0.150763
0.0173034
0.138278
0.498249
0.0360996
-0.534349
0.146961
-0.13737
0.0163578
-0.0311773
-0.052843
-0.113797
0.543278
-0.106115
0.143576
-0.0374608
-0.00478421
-0.0995313
0.111729
-0.0121972
-0.00599432
-0.00923368
0.123871
-0.100009
0.434885
-0.165559
0.0943064
-0.0906559
-0.00365049
0.0180503
0.180494
-0.00599151
-0.00845002
0.0265737
-0.300385
-0.328233
0.141419
0.235112
0.441625
-0.273214
-0.16841
0.220259
-0.0369129
0.0962112
-0.0906779
-0.00553324
-0.00591789
0.0334025
0.00608217
-0.0255837
0.0571428
0.110103
0.313436
-0.471937
0.0161334
0.0869554
0.227834
0.0922637
0.0151512
-0.0847564
0.00317747
-0.0036732
0.131549
-0.114553
0.0012454
0.00780471
0.0068855
-0.00558443
0.00382065
0.0189796
0.112179
-0.131158
-0.0249909
0.179543
-0.0102817
0.00737775
0.188365
-0.163677
0.0775327
0.0895608
-0.167093
0.0887839
0.0311512
-0.0195685
0.335796
-0.143477
-0.19232
0.0513009
0.0148534
0.325366
-0.161509
-0.0369821
-0.0142846
0.0512667
0.00305161
-0.374898
-0.184157
0.174132
0.148681
-0.0372766
0.10627
-0.00526288
0.181234
-0.140394
-0.0408394
-0.344446
0.551503
-0.207058
0.0290925
-0.207038
-0.174479
0.212995
-0.0385157
-0.119014
-0.115599
0.234613
0.0157258
0.050362
-0.0660878
0.278961
-0.458535
0.179574
0.00769738
-0.0532842
0.013188
-0.0114673
0.178277
0.147089
-0.181312
0.156321
-0.0291114
-0.134908
-0.487917
0.24293
0.0312369
-0.00145123
-0.00953648
-7.23103e-05
0.0180921
0.00337399
-0.0214661
0.208771
0.244165
-0.452936
0.025719
-0.209353
0.183634
0.0181702
0.173991
-0.192161
-0.221918
-0.0232923
0.24521
-0.0965798
0.0183352
0.0782446
0.0273353
0.38059
-0.598505
0.217914
-0.0154369
0.114418
-0.098981
-0.132497
-0.0447834
-0.0735931
0.0215428
0.0520503
0.150871
0.000472332
0.0384733
-0.212953
-0.222712
0.0540414
0.168671
0.0896857
0.119863
-0.0161053
-0.103757
0.11832
-0.233538
0.367286
-0.133749
0.00895596
-0.00238229
0.00191824
0.000464047
-0.034742
0.0249945
-0.00314655
0.00951541
-0.0503006
0.0133186
0.00380565
0.00163768
0.00167269
0.36622
-0.191813
-0.174406
-0.337781
0.164028
0.181731
0.117693
-0.299424
-0.0137755
-0.0734112
-0.105674
-0.0387137
-0.115046
-0.0140766
0.0134268
0.000649829
-0.318505
0.158057
0.185438
0.336792
-0.522229
0.378932
-0.0138475
-0.0776872
0.301121
0.214129
0.132432
-0.210548
0.0781162
0.0980284
0.0933216
0.0723724
-0.056375
-0.0159974
-0.109811
0.215106
-0.105295
-0.334977
-0.182435
-0.447912
0.257806
-0.141303
0.329531
-0.188228
0.185781
-0.620762
0.123455
-0.112321
-0.0111335
-0.0782878
-0.018292
-0.0441679
0.121701
-0.0532551
0.0129032
0.0403519
-0.201003
0.346314
-0.145311
0.154192
0.00486987
-0.02255
0.0149372
-0.0140889
0.000468794
0.0738741
-0.00392124
-0.0699529
0.0629598
0.0427203
-0.10568
0.0577224
0.033869
0.42613
-0.126908
0.113468
0.0134403
0.0206805
-0.243393
-0.42496
0.142515
-0.186082
0.197143
-0.0110603
0.00354126
0.11258
-0.283008
0.170428
0.113692
0.00617034
-0.0774585
0.0657706
0.297448
-0.193179
-0.303823
0.113667
-0.158445
0.126219
0.0322253
0.00140025
0.366365
0.206115
-0.57248
0.0281688
0.0442036
-0.125291
0.307022
0.0758343
-0.0896097
0.463248
-0.230263
-0.0984139
-0.178449
0.0726525
-0.0630444
-0.0292196
0.092264
0.0572321
0.227772
0.0166381
-0.0798353
0.00368222
0.00391916
-0.092039
-0.0284694
0.0103783
0.0180911
-0.343912
0.105668
0.00087375
0.0121947
-0.0846432
0.0601071
-0.394477
0.299809
0.0946679
-0.0050779
-0.085578
0.0241501
-0.104852
0.0767088
0.0281437
-0.223451
-0.192149
-0.114747
0.306896
0.430665
-0.441728
0.0110632
0.308354
0.253761
-0.0460294
-0.207731
-0.1379
0.141131
-0.00323066
-0.110658
-0.0165363
0.127194
-0.184804
0.308631
-0.21565
0.432053
-0.102971
0.0322536
-0.241675
0.419916
-0.178241
-0.0381755
0.0281017
0.0100738
-0.18222
0.0212962
0.00110452
-0.00209802
0.000993501
0.0696264
-0.105336
0.249885
-0.473801
0.223916
0.0160478
0.244916
-0.53256
0.287644
0.188701
-0.0266047
0.11225
-0.128702
0.0164527
0.0863539
-0.0124797
0.131933
-0.129787
0.336009
-0.593516
0.257508
0.113232
-0.0254863
-0.0871887
0.0383532
0.0488355
0.108762
-0.103763
0.0277851
-0.106078
0.0782931
0.13448
-0.100109
-0.034371
0.106636
-0.131024
-0.0780019
-0.0423595
0.127865
-0.00194872
-0.125916
0.0809294
-0.190741
0.225302
0.192337
0.0681654
-0.00291315
0.0041692
-0.0408963
0.213967
-0.173071
-0.425996