/*--------------------------------*- C++ -*----------------------------------*\
| =========                 |                                                 |
| \\      /  F ield         | OpenFOAM: The Open Source CFD Toolbox           |
|  \\    /   O peration     | Version:  v2012                                 |
|   \\  /    A nd           | Website:  www.openfoam.com                      |
|    \\/     M anipulation  |                                                 |
\*---------------------------------------------------------------------------*/
FoamFile
{
    version     2.0;
    format      ascii;
    class       volVectorField;
    location    "100";
    object      U;
}
// * * * * * * * * * * * * * * * * * * * * * * * * * * * * * * * * * * * * * //

dimensions      [0 1 -1 0 0 0 0];


internalField   nonuniform List<vector> 
13851
(
(1.13804 0.0655548 -8.6867e-21)
(1.07329 -0.02084 0)
(1.07161 -0.0198364 0)
(-0.191973 -0.0145997 0)
(1.00207 -0.000447073 1.50419e-22)
(1.08397 -0.0353917 -2.04777e-20)
(1.05735 0.0163486 -2.85368e-20)
(1.01285 -0.000687409 0)
(0.329282 0.0492143 -3.50446e-20)
(0.991408 -0.00818588 1.04558e-20)
(1.16571 -0.0993974 0)
(1.00139 -0.00824232 1.63995e-21)
(0.981323 -0.0205074 3.70051e-21)
(0.112752 0.0183717 2.99609e-20)
(1.10408 0.0156735 2.11921e-20)
(1.09771 0.0557503 0)
(-0.295588 -0.000880658 0)
(1.03565 -0.0182645 1.01448e-22)
(1.22986 0.0478765 0)
(1.14004 0.0635651 2.42239e-20)
(1.11715 0.0101103 2.28712e-20)
(1.04119 -0.0911169 7.71598e-21)
(0.543266 -0.264598 8.49687e-20)
(1.00008 -0.000226763 0)
(1.16169 -0.0226269 3.26742e-20)
(1.09184 0.0515716 -3.23151e-20)
(1.0815 0.0724217 -2.54617e-20)
(1.15979 0.107574 4.72481e-20)
(0.473338 0.0311882 6.36924e-21)
(1.02056 -0.0116127 0)
(-0.0808913 -0.00726143 -1.43293e-19)
(1.05763 0.0156689 9.10933e-21)
(1.12803 0.0654713 -3.75023e-21)
(0.375387 0.0828828 1.43023e-21)
(1.13394 -0.0830429 -1.04019e-20)
(0.501898 0.029916 0)
(1.00005 -0.000203261 0)
(1.19757 -0.145757 -1.24223e-20)
(0.0113524 0.0106177 1.63127e-19)
(1.00738 -0.0380682 4.70424e-21)
(0.179727 0.0608878 5.87018e-20)
(0.507501 0.0339765 -6.33208e-21)
(-0.231609 -0.00297458 0)
(1.10522 -0.477383 0)
(0.522232 0.0418858 0)
(1.01503 -0.0221323 3.36635e-22)
(1.01831 0.000196604 -3.98514e-21)
(1.09667 0.0570734 -9.73609e-24)
(1.04752 -0.0561858 -1.24495e-20)
(0.980951 -0.0195735 0)
(-0.250366 0.00312538 -1.50203e-19)
(0.974098 -0.0139717 7.42605e-21)
(1.09731 0.0558298 0)
(1.07568 0.0286285 1.31853e-20)
(0.192096 0.0138289 -3.81803e-20)
(1.00634 -0.0383797 -4.36537e-21)
(1.12981 0.0669682 0)
(0.14442 0.0537796 -7.82409e-20)
(1.08118 0.0549147 0)
(-0.0419344 0.0175845 2.0019e-20)
(1.00129 -0.00779403 -4.61692e-21)
(1.08731 0.0720473 4.29652e-20)
(0.99563 -0.00305053 0)
(1.04802 -0.0584544 -8.62777e-21)
(0.880754 -0.449612 1.08817e-22)
(0.862138 -0.470028 -1.32042e-22)
(-0.0630215 0.0128196 1.33034e-20)
(0.695349 -0.126203 7.84659e-20)
(1.0213 -0.0390128 1.29047e-21)
(-0.159193 -0.0093132 1.27791e-19)
(-0.147398 -0.00108694 -1.62524e-19)
(1.12769 0.0146117 4.63763e-22)
(0.994383 -0.0270283 -3.89031e-21)
(-0.0421281 0.015321 0)
(1.08335 0.0260098 1.54801e-20)
(1.02249 -0.0738258 0)
(-0.271401 -0.00301587 -8.15194e-20)
(1.02104 -0.00559294 -2.91293e-21)
(1.22241 -0.0293151 2.94212e-20)
(1.00523 -0.0180706 5.9243e-21)
(1.02256 -0.0396218 0)
(1.26667 -0.0905269 -1.00065e-19)
(1.13023 -0.0847576 0)
(0.097366 0.0191749 -5.05491e-20)
(-0.024346 0.0187421 -9.55145e-21)
(-0.103441 -0.00474143 0)
(1.04452 -0.0922866 -8.53259e-21)
(0.294006 0.00724962 -5.20342e-23)
(0.992138 -0.0124143 3.71316e-22)
(-0.0778793 -0.00602097 0)
(0.972834 -0.0131898 3.84303e-21)
(1.05898 0.0155665 3.70637e-20)
(-0.225527 -0.00298983 1.75399e-19)
(-0.136281 -0.00446754 1.58544e-19)
(-0.0470168 0.0102851 1.29021e-19)
(1.08936 -0.4376 -7.11993e-20)
(1.0102 -0.024013 2.33929e-21)
(1.09645 0.0558498 0)
(-0.200478 0.00728075 8.41052e-21)
(1.21852 -0.192986 7.05443e-20)
(1.09612 0.0559351 0)
(0.812372 -0.119088 -3.31107e-20)
(0.812977 -0.152057 -1.76518e-20)
(0.990347 -0.0288127 0)
(1.01856 -0.0217038 0)
(1.13436 -0.00151923 1.72501e-20)
(1.01782 -0.0214658 1.72413e-21)
(-0.128785 -0.00282915 1.73276e-19)
(1.05919 0.0147401 -2.04041e-20)
(1.03468 -0.0177477 2.90571e-21)
(1.02945 -0.13038 1.85845e-21)
(1.01581 -0.022516 0)
(1.22479 -0.0202904 0)
(1.16716 -0.0435829 0)
(1.11334 0.0653907 1.55938e-20)
(1.07496 0.0272427 -3.24239e-20)
(1.01428 -0.00769477 2.00721e-21)
(1.01353 -0.000803645 2.65569e-21)
(-0.20779 -0.0124361 -1.69305e-20)
(-0.12371 -0.0126491 4.23168e-20)
(1.11846 -0.361086 6.27392e-20)
(1.02878 -0.0150759 -7.24374e-22)
(1.01642 -0.0397165 1.26306e-22)
(0.0831174 0.0397855 8.44454e-21)
(1.19671 0.068388 -9.63383e-23)
(0.616805 -0.207712 0)
(1.01069 -0.0236932 -2.88595e-21)
(1.13349 -0.150191 0)
(0.213084 0.0655971 5.51225e-20)
(1.11553 0.0221581 -3.83944e-21)
(1.03782 -0.0931498 -8.62971e-22)
(1.1015 -0.0635977 0)
(1.30985 -0.164644 9.94348e-20)
(0.358133 0.0806486 3.93943e-20)
(1.17015 -0.0965541 0)
(-0.053273 0.0107616 5.37842e-20)
(0.708422 -0.118557 5.79321e-20)
(-0.118047 -0.00395896 2.2309e-20)
(0.84982 -0.0904459 2.22654e-20)
(1.11075 0.0251027 2.62737e-20)
(1.2638 -0.0942053 9.03825e-20)
(0.97597 -0.0448122 0)
(0.991448 -0.0125758 0)
(0.746528 -0.312597 -1.91139e-20)
(1.11091 0.00199089 4.45433e-21)
(1.00886 -0.072229 0)
(1.02078 -0.00518196 6.95184e-22)
(-0.128113 -0.00487997 -7.9928e-20)
(0.339493 0.028048 -1.38084e-20)
(1.13863 -0.152421 0)
(1.09612 0.0563358 0)
(1.22278 -0.0232506 -7.57384e-21)
(1.17141 -0.0427932 -3.66241e-20)
(1.21449 0.0479065 -7.26111e-20)
(0.973187 -0.0236071 0)
(0.984043 -0.00987599 0)
(1.0014 -0.00655503 -4.08497e-21)
(-0.0239908 0.00787968 -1.63754e-19)
(1.10889 0.021424 0)
(1.06156 0.00560638 -1.33893e-20)
(1.00015 -0.000527148 3.78073e-21)
(0.484743 0.0300621 0)
(1.13134 -0.00068647 0)
(1.097 0.0574571 -3.65197e-20)
(0.117637 0.0173643 -2.80517e-20)
(0.422037 0.0575115 6.72499e-21)
(0.432368 0.0602962 0)
(-0.232598 0.00420223 2.05775e-19)
(1.03013 -0.12544 -9.61745e-21)
(0.700578 0.0761974 0)
(1.00099 -0.00723193 -3.10148e-21)
(1.01418 -0.00730617 1.54619e-21)
(1.15087 -0.00529183 0)
(1.00111 -0.000426148 0)
(-0.0191226 0.014211 -1.18223e-19)
(1.10379 0.0921885 -4.54551e-20)
(1.09634 0.0608906 -7.83885e-21)
(1.01474 -0.00725919 0)
(1.08138 0.0275127 0)
(1.09667 0.0599518 0)
(1.1913 0.0673914 -1.9023e-20)
(1.11185 -0.458726 3.12748e-20)
(1.03558 -0.118299 -4.00933e-21)
(1.11339 0.022254 0)
(-0.240012 -0.00368285 -5.30709e-20)
(0.347831 0.0277366 2.41219e-22)
(1.12597 0.0666624 -1.72236e-20)
(0.890701 -0.067749 -1.49792e-20)
(0.977644 -0.0243791 7.61875e-21)
(1.01912 -0.0159823 -1.182e-21)
(1.20777 -0.0041678 6.62282e-20)
(1.10978 0.0202877 0)
(0.0923217 0.0110134 -1.56276e-20)
(1.0854 -0.0331459 2.11402e-20)
(1.01063 -0.0700953 1.82515e-21)
(1.09686 0.0556583 0)
(1.12421 0.0652014 0)
(1.04567 -0.00866298 -4.79199e-21)
(1.04194 -0.0265298 -7.88591e-21)
(0.711543 -0.161721 0)
(1.26427 -0.105755 4.59436e-20)
(0.00194433 0.0252683 -4.89055e-20)
(0.124128 0.0538603 0)
(1.10236 0.0164675 -3.99093e-20)
(0.949131 -0.718023 -5.9304e-20)
(-0.0311588 0.0238818 0)
(0.93838 -0.021947 0)
(1.10256 0.0314343 -2.92035e-20)
(0.31909 0.0531753 -1.67477e-20)
(1.07837 -0.0435731 0)
(1.09829 0.0563744 -4.2976e-22)
(1.01574 -0.0388896 -2.88926e-22)
(1.26745 -0.101648 -1.37556e-20)
(1.00014 -0.0023344 -2.65768e-22)
(1.13763 -0.0756198 -2.44372e-21)
(1.02634 -0.0816286 3.68653e-21)
(0.982207 -0.0184648 -5.79105e-21)
(1.14999 0.0820557 0)
(1.04557 -0.0176977 -8.57884e-21)
(0.153508 -0.543217 -1.03529e-19)
(1.01475 -0.00685962 -1.28006e-21)
(1.14548 0.0624104 0)
(0.0765756 0.014349 5.11823e-20)
(-0.0388737 0.0111326 7.28992e-20)
(0.902778 -0.077062 0)
(1.1023 0.0323828 2.31455e-20)
(1.00003 -0.00117535 0)
(0.749405 -0.291167 1.87411e-20)
(1.00181 -0.0132992 0)
(1.13422 -0.0769784 0)
(-0.0393924 -0.0376812 -4.18878e-20)
(0.896393 -0.0683769 -2.49633e-20)
(1.07814 -0.0413646 0)
(0.996352 -0.00115238 8.68785e-22)
(0.109566 0.0526934 2.3786e-22)
(1.02122 -0.0114034 3.283e-21)
(0.90228 -0.42978 0)
(0.10158 0.048442 -7.64132e-20)
(1.21107 -0.188176 0)
(1.00011 -0.000504003 -4.38773e-21)
(1.29731 -0.318216 0)
(-0.009615 0.0189195 -7.25658e-20)
(0.550435 0.0434095 0)
(1.09783 0.0563798 0)
(1.10805 -0.00898821 0)
(0.71036 -0.344677 -4.62722e-20)
(1.15054 0.0787018 2.99541e-20)
(1.08092 0.028761 0)
(1.09184 -0.419381 0)
(1.04882 -0.132086 9.23252e-21)
(0.241192 0.00826834 0)
(1.17763 0.0438364 -8.80225e-20)
(1.0101 -0.000742699 -7.75037e-24)
(1.08326 -0.0109232 0)
(1.09662 0.055535 -1.82931e-21)
(0.473542 0.0284065 0)
(0.351981 0.00821601 1.04039e-20)
(1.01862 -0.0152816 1.43033e-21)
(0.592501 -0.203344 0)
(0.993007 -0.0132249 1.93497e-20)
(1.12498 0.0784169 -6.47147e-20)
(1.20237 0.0607705 -3.69062e-21)
(1.08513 -0.0102446 0)
(1.13143 0.00288798 -7.73336e-20)
(1.18187 0.0438708 9.0544e-20)
(1.00006 -0.0250792 -1.20041e-20)
(0.807648 -0.128897 3.8749e-20)
(1.09849 0.0567836 0)
(1.18842 0.110344 -1.80183e-20)
(0.997953 -0.00839862 0)
(0.982087 -0.0174977 -7.35203e-22)
(0.897226 -0.0755808 1.66977e-20)
(0.407544 0.0731059 0)
(-0.258452 -0.00560756 0)
(1.12045 0.0154133 3.47065e-20)
(1.02983 -0.015544 3.76391e-21)
(1.18925 0.0721122 4.39145e-21)
(1.20859 0.0546873 1.06008e-19)
(1.11773 0.0618145 -4.23384e-20)
(1.12919 0.00364605 6.39763e-20)
(0.376138 0.0683998 0)
(-0.165 0.00911022 -3.09501e-20)
(1.08894 -0.0186868 0)
(1.09872 0.0130129 -6.45034e-20)
(1.14768 -0.166161 0)
(1.02055 -0.0208214 1.54215e-21)
(1.00151 -0.00620281 -2.07737e-21)
(1.11949 0.0630903 -9.396e-21)
(1.15064 -0.114792 4.77516e-20)
(1.02257 -0.0115526 7.83223e-21)
(1.00015 -0.002287 -4.0266e-21)
(1.0016 -0.013709 0)
(1.0042 -0.000624014 -9.04876e-24)
(1.10434 -3.50641e-06 -9.5215e-20)
(1.00157 -0.00660769 6.11927e-21)
(0.339124 0.0528404 1.75609e-20)
(1.11903 0.0115937 0)
(1.0122 -0.0320039 -9.94181e-22)
(0.4795 0.0268025 0)
(0.0726606 0.0366588 0)
(0.975357 -0.0191911 0)
(1.14351 0.0647686 -1.9714e-20)
(-0.230459 0.00474856 1.85981e-20)
(0.974874 -0.0471731 0)
(0.973966 -0.0185383 0)
(1.12162 0.0113188 0)
(0.0591821 0.015197 -3.87641e-21)
(0.227236 -0.00406545 -6.84116e-20)
(1.15177 0.00850036 5.15758e-20)
(1.00227 -0.000583637 -5.93707e-22)
(0.738949 0.0807516 0)
(1.0011 -0.00765848 0)
(1.15844 0.00816854 5.17185e-20)
(-0.212717 0.00631897 0)
(1.1867 0.111174 9.10849e-20)
(1.0603 0.00515787 9.92447e-21)
(1.24939 -0.200182 -1.51614e-21)
(1.32264 -0.176053 0)
(-0.0997808 -0.000357798 -1.33101e-19)
(1.22362 -0.0314991 0)
(0.78226 -0.0978348 -3.94338e-20)
(-0.00828106 0.0111768 3.8119e-22)
(0.122751 0.0500977 5.01762e-22)
(1.17775 0.104946 -5.07576e-20)
(1.04333 -0.0272769 8.45082e-21)
(-0.246898 -0.00233418 -9.42226e-20)
(0.17421 0.00201446 -2.88472e-22)
(0.463027 -0.456782 -1.15556e-19)
(0.498332 -0.462815 9.83386e-20)
(0.936833 -0.0231307 1.02453e-20)
(1.15491 -0.00014309 -6.18485e-20)
(0.949446 -0.118399 0)
(0.301715 0.00762549 3.53915e-20)
(0.787755 -0.144925 3.75309e-20)
(1.00799 -0.00185325 -8.67074e-22)
(1.01845 0.000165203 4.24392e-21)
(1.07228 -0.0802522 -2.09899e-20)
(-0.126321 -0.00334657 1.82383e-19)
(0.207415 -0.55012 9.68851e-20)
(1.02053 -0.0200199 -3.4998e-21)
(-0.0555164 0.0106999 -1.32693e-19)
(0.938599 -0.115842 -1.53991e-20)
(1.10233 -0.066659 -1.01484e-20)
(1.06174 0.00652997 1.455e-20)
(0.0512736 0.0116138 -2.36622e-21)
(1.18465 0.071661 0)
(1.09714 0.0554474 0)
(1.02396 -0.0793531 1.07988e-21)
(1.07545 -0.0405762 2.52749e-20)
(0.539128 0.0281986 0)
(0.977504 -0.0259483 -2.38174e-20)
(1.21413 0.0531186 -3.75125e-20)
(1.08736 -0.017451 0)
(1.12306 0.00995515 0)
(0.932795 -0.11815 0)
(0.992362 -0.0132636 -1.32302e-20)
(1.01296 -0.0315668 9.61431e-22)
(1.22979 -0.0886868 0)
(1.22629 -0.188976 2.50689e-21)
(1.17283 0.048409 -9.4283e-20)
(1.35236 -0.178891 2.58144e-22)
(0.548816 0.0292568 7.10072e-21)
(1.01015 -0.0736836 0)
(0.0845343 0.0481478 4.10489e-20)
(1.12897 0.0854481 -1.72925e-20)
(1.02728 -0.00727922 -3.47236e-22)
(1.17259 0.113182 -7.69521e-20)
(1.13976 0.0461718 1.58831e-20)
(-0.185833 0.00918741 -6.08644e-20)
(1.07019 -0.0777419 0)
(1.08971 0.0555831 0)
(1.08324 0.0557007 0)
(1.26813 -0.0942935 8.6727e-20)
(1.22603 -0.0985437 1.15486e-22)
(0.295405 0.00783321 4.62939e-21)
(1.0473 -0.0382237 -7.34227e-21)
(1.10382 0.0946364 5.50165e-20)
(-0.325207 -0.00216823 0)
(1.10342 -0.021559 4.35274e-20)
(0.261834 0.0117584 4.52283e-20)
(1.11083 -0.0235066 -2.06534e-20)
(0.128756 0.0479268 -7.51435e-20)
(1.09783 0.0118291 3.90018e-20)
(1.0784 0.0416777 1.90647e-20)
(1.18565 0.0366511 0)
(1.24908 -0.167354 0)
(0.984135 -0.0107912 0)
(1.08636 -0.024223 1.32013e-20)
(1.1549 -0.117737 4.17267e-21)
(1.08297 0.0272957 0)
(1.01337 -0.0243495 0)
(1.12012 0.0174716 -3.66271e-20)
(0.660549 0.103255 1.34798e-21)
(0.995171 -0.0269501 -9.33364e-21)
(1.10406 0.0303605 0)
(-0.218475 -0.0136603 2.07805e-19)
(1.06832 -0.0381537 -1.28816e-20)
(1.26602 -0.483015 -7.67977e-20)
(1.08912 0.0391894 -2.92357e-21)
(0.286488 -0.00530799 0)
(1.08096 -0.0450189 2.16392e-20)
(1.09113 0.0508146 0)
(0.924205 -0.690807 7.06489e-20)
(1.2017 0.0642741 1.61056e-20)
(1.13503 -0.00724139 1.66496e-20)
(0.332935 0.00629158 3.94618e-23)
(-0.0295782 0.0145902 8.96539e-20)
(1.26527 -0.313868 0)
(0.999297 -0.025166 -4.98048e-21)
(1.22636 -0.0852646 0)
(1.11252 -0.0305564 -4.61238e-20)
(1.08993 0.0544484 0)
(1.02742 -0.0168693 -9.264e-21)
(-0.233822 -0.00171685 5.22625e-22)
(0.605475 0.0986708 -2.7036e-20)
(1.22622 -0.0565426 -1.59537e-19)
(1.07499 -0.0385013 -2.41004e-20)
(1.1855 0.0396779 0)
(1.09159 0.0788196 -5.12668e-20)
(-0.244049 -0.00827805 0)
(1.02344 -0.00225027 4.3168e-21)
(-0.281738 -0.000354941 -1.06119e-19)
(1.25855 -0.154285 1.15875e-20)
(0.294893 -0.179194 1.26142e-21)
(1.05322 -0.13487 -1.16418e-20)
(1.14589 0.0655323 -1.03208e-19)
(0.987959 -0.0178111 1.19855e-20)
(1.00129 -0.000365201 -7.96416e-22)
(0.183304 0.0109009 4.51153e-20)
(1.09416 0.0823653 4.32057e-20)
(0.990738 -0.00880494 -6.01773e-21)
(1.07321 -0.0224272 5.53199e-21)
(1.10588 0.0305871 -7.90243e-21)
(1.01262 -0.00830069 1.21884e-21)
(0.680802 0.102884 0)
(1.15497 0.00288688 1.33305e-20)
(1.1405 0.0445178 0)
(1.07675 0.00422605 9.55971e-21)
(1.04796 -0.0369991 0)
(0.97248 -0.00805142 0)
(1.30944 -0.1069 0)
(1.01103 -0.0313111 0)
(0.973509 -0.00703157 0)
(0.882863 0.0454192 9.54742e-21)
(0.695589 0.1025 0)
(1.0346 -0.0906715 0)
(1.08949 0.0581884 1.83344e-20)
(0.995809 -0.00252972 -9.6214e-22)
(1.00167 -0.00625106 -1.95501e-21)
(1.07071 -0.039022 3.85612e-20)
(1.17631 0.048584 1.0055e-19)
(1.08574 0.0410446 -2.65428e-20)
(1.01329 -0.0258046 0)
(1.05707 -0.0289032 1.40878e-20)
(1.11984 -0.34986 3.21648e-20)
(1.06449 -0.0149172 -1.80599e-20)
(0.331593 -0.0146397 0)
(1.00156 -0.00770206 -2.22856e-21)
(1.07589 0.0163233 2.00118e-20)
(0.528181 0.0441689 1.17573e-20)
(0.940917 -0.161925 0)
(1.01799 -0.000452109 -1.05453e-21)
(1.00056 -0.00679287 -3.5969e-21)
(1.07642 0.00317371 -4.87733e-21)
(1.04851 -0.00736678 0)
(1.2497 -0.36804 3.61847e-20)
(0.803572 0.0457129 -1.11121e-20)
(1.10906 -0.00727022 5.19711e-21)
(0.323062 -1.13643 0)
(1.07238 -0.0374833 -2.02057e-20)
(1.00042 -0.0105438 -4.27047e-21)
(0.262873 0.0668927 -2.47442e-20)
(1.08402 0.0576788 1.85136e-20)
(0.879561 -0.124877 0)
(0.996414 -0.030658 0)
(0.112114 0.0468042 3.81764e-20)
(0.859357 -0.0958194 4.14428e-20)
(1.1886 -0.646862 -1.65299e-20)
(0.989697 -0.0279975 -9.53736e-21)
(1.10424 -0.0580242 0)
(1.23006 -0.0956058 0)
(1.08987 0.0251921 0)
(0.157401 0.0567762 2.38813e-20)
(1.0887 0.0780791 4.7846e-20)
(1.28456 -0.0685602 1.51617e-19)
(0.977847 -0.070967 0)
(1.2256 -0.0282558 6.10873e-22)
(1.00123 -0.0262689 3.82644e-21)
(0.462483 0.0296656 0)
(1.08961 0.0384544 1.04964e-20)
(1.12236 0.0652999 0)
(1.11083 -0.0285497 3.71935e-20)
(1.02444 -0.0761214 2.17636e-21)
(0.947495 -0.159303 0)
(1.15132 -0.0015938 1.23597e-20)
(1.00184 -0.000538815 0)
(-0.27281 -0.00271485 0)
(0.231146 0.0619343 0)
(0.373253 -0.0198787 5.58957e-20)
(-0.183226 -0.00270476 -1.5272e-20)
(0.823802 0.0466476 9.59937e-21)
(-0.220656 0.00375829 -3.67779e-20)
(1.2082 0.059183 -7.8937e-20)
(0.914109 -0.0805754 0)
(0.99972 -0.00328453 -7.94987e-21)
(1.241 -0.483967 -4.66417e-20)
(0.991427 -0.00745151 -8.1151e-21)
(1.01303 -0.0236927 9.63261e-23)
(0.90825 -0.0974184 1.37915e-20)
(0.00253115 0.0171814 7.29265e-20)
(1.07032 -0.013744 -2.65459e-20)
(0.97146 -0.0401793 -7.34936e-23)
(1.07904 -0.281754 -7.58564e-22)
(1.14281 -0.0309695 0)
(0.989386 -0.00299631 9.1759e-22)
(0.665378 0.0130012 6.14368e-20)
(1.00887 -0.0231471 -2.17878e-21)
(0.264371 0.0714522 -2.58708e-20)
(1.23913 -0.352018 -1.25537e-19)
(1.00567 -0.0186476 0)
(1.06433 -0.00480857 -2.10545e-20)
(1.2621 -0.129194 -5.20563e-20)
(1.17593 0.112245 -9.75665e-21)
(1.02197 -0.0118556 4.33804e-22)
(0.980108 -0.0911651 0)
(1.07565 -0.402295 8.45863e-20)
(1.03073 -0.00141031 0)
(-0.0534885 0.006658 3.15648e-20)
(1.22608 0.0496665 -4.74151e-21)
(1.15066 0.0605146 0)
(0.976353 -0.069231 1.25204e-20)
(0.902109 0.046463 -3.91426e-20)
(-0.105409 0.0147116 3.73507e-20)
(1.03147 -0.00157366 -4.73629e-21)
(1.24725 -0.0112278 1.11301e-19)
(1.01885 -0.0393085 4.77502e-22)
(1.00935 -0.0236722 1.07083e-21)
(0.945793 0.0446746 2.56062e-21)
(0.132986 0.0473109 9.26747e-20)
(1.12511 -0.0294776 0)
(1.0845 0.0409255 2.23395e-20)
(0.990778 -0.00622357 -1.07128e-20)
(1.0945 0.0454088 0)
(0.246971 0.0697133 -6.04005e-22)
(-0.0275168 0.00842805 1.143e-19)
(1.03509 -0.00453374 1.24479e-21)
(-0.273009 0.00233017 0)
(1.01289 -0.0251939 0)
(1.02013 -0.0400456 -1.44101e-21)
(1.13595 -0.0050819 2.25563e-21)
(1.07178 0.0209116 0)
(1.02362 -0.00194311 2.32191e-21)
(1.01962 -0.0739759 2.57923e-22)
(-0.0386287 0.00627785 0)
(1.24428 -0.164123 -4.55008e-20)
(-0.0681999 0.00601702 0)
(1.06815 -0.0143241 -2.01577e-20)
(0.993235 -0.0139634 -1.36547e-22)
(0.432826 0.0718748 -7.29741e-21)
(0.999538 -0.00441238 0)
(1.22756 -0.0755594 0)
(1.08026 0.0106707 2.94408e-20)
(1.08538 0.0242511 -3.44904e-20)
(1.10918 -0.0135716 9.23727e-21)
(0.624145 0.0471562 0)
(-0.151449 0.0111919 0)
(1.08436 -0.0286847 -2.19322e-20)
(-0.284122 -0.00126127 0)
(1.05929 0.00294387 4.73083e-21)
(1.16213 -0.0149329 0)
(0.516611 0.0362013 1.88513e-20)
(0.216802 0.02028 1.13499e-21)
(1.01256 -0.0400745 -1.09327e-21)
(1.00048 -0.0262114 4.81425e-21)
(0.820242 -0.160888 0)
(-0.0579038 0.00627727 0)
(1.09705 0.0514798 -5.34553e-20)
(1.09345 0.0451488 0)
(1.07722 -0.565568 1.51559e-20)
(1.07163 0.0216874 0)
(1.09567 0.0123794 0)
(0.0533943 -0.0496444 -8.30593e-20)
(0.614058 0.00822143 8.56046e-20)
(1.09285 -0.340198 -3.19681e-20)
(0.248239 0.0690568 0)
(1.1061 0.0728516 -9.97677e-21)
(0.556682 0.031897 -1.85096e-20)
(1.04298 -0.037011 8.07214e-23)
(1.08299 0.0531781 0)
(1.23223 0.0621538 0)
(1.00006 -0.00913443 4.26905e-21)
(-0.310902 0.000458642 -8.74349e-20)
(0.421377 0.0311208 4.1781e-20)
(1.03532 -0.123618 8.48503e-21)
(1.11281 0.0245332 -2.71919e-20)
(1.003 -0.0356303 2.9879e-22)
(0.470019 -0.850307 -6.99274e-21)
(1.14826 -0.185731 0)
(0.59157 -0.191844 1.68417e-19)
(1.01037 -0.0318325 -1.85782e-21)
(1.00078 -0.000510275 0)
(0.911614 -0.0482752 0)
(1.1414 -0.0338179 1.09333e-20)
(1.00161 -0.00741755 0)
(-0.0276901 0.0153117 -1.2515e-19)
(1.00091 -0.000601791 1.24159e-21)
(1.10816 0.0726328 0)
(0.971085 -0.06774 4.2181e-22)
(1.0909 0.0544493 -8.32338e-21)
(0.991284 -0.0284304 -9.83682e-21)
(0.988673 -0.00316823 -1.05429e-20)
(1.09702 -0.16 0)
(-0.271276 0.000390422 2.06855e-19)
(1.13683 -0.0127229 -6.81045e-20)
(-0.068377 0.0106461 1.51005e-20)
(1.10465 -0.061213 5.2198e-21)
(1.01286 -0.00929633 1.16399e-21)
(1.03044 -0.00964158 5.76432e-21)
(1.15382 -0.00727813 -3.16298e-21)
(1.05595 -0.029986 2.29546e-21)
(1.19775 -0.0296079 9.5458e-20)
(1.07484 -0.0157038 -1.52993e-20)
(0.879414 -0.117123 0)
(1.08277 0.0522583 0)
(0.999418 -0.0041684 4.27991e-21)
(0.347949 0.0044942 0)
(1.00007 -0.00159371 4.18471e-21)
(1.09427 0.0577366 4.68741e-20)
(-0.267917 -0.000845211 0)
(0.489043 0.0538239 0)
(0.883146 -0.0291458 2.65859e-20)
(0.804264 -0.273101 -1.43499e-19)
(1.06775 -0.281276 -4.16314e-20)
(1.22642 -0.239735 -4.20771e-20)
(0.391497 0.0326705 0)
(1.03759 -0.00546818 -2.56904e-21)
(0.574422 0.0112954 2.64897e-20)
(0.94407 -0.120606 0)
(1.10612 -0.0215239 -9.63552e-21)
(-0.170661 -0.00474956 1.07968e-19)
(1.2883 -0.0142939 -7.72166e-21)
(1.02777 -0.00774951 -4.06502e-21)
(1.19528 -0.0319307 -8.96984e-20)
(1.0449 -0.00787908 -4.83617e-21)
(0.524213 0.0288972 3.73457e-21)
(-0.258527 0.00128439 -4.24691e-20)
(1.02534 -0.0413937 1.12909e-22)
(0.693721 -0.151359 -8.04189e-20)
(0.663804 0.100281 5.55765e-20)
(0.999994 -0.00137317 -6.40901e-21)
(0.999992 -0.0018457 -4.77246e-21)
(1.09159 0.0521758 4.04907e-20)
(0.329391 0.00263656 7.17539e-21)
(0.978687 0.0479783 -2.60476e-20)
(0.974144 -0.017161 3.29678e-21)
(1.19057 0.030707 5.90406e-21)
(1.06267 -0.0149536 8.74362e-21)
(0.987591 -0.00429082 0)
(1.08556 0.0495094 5.13435e-21)
(1.19028 0.0342984 0)
(1.22028 -0.175046 3.27603e-20)
(1.02206 -0.00184983 0)
(1.09912 0.0570006 3.16768e-20)
(0.909529 -0.209688 0)
(1.08933 0.0497227 7.28791e-21)
(0.957943 -0.0197281 -3.15862e-20)
(1.00923 -0.0674361 5.52849e-22)
(1.14071 -0.185704 0)
(0.91579 -0.0493351 0)
(1.09757 0.0570366 -1.28665e-20)
(1.12502 0.0155791 3.18085e-20)
(1.12831 0.0122051 5.55189e-22)
(1.08101 -0.327696 4.61211e-20)
(1.18368 -0.660434 -5.42624e-20)
(1.23168 0.042512 -1.0738e-21)
(0.744307 0.0937268 4.57295e-24)
(1.08238 -0.0991866 0)
(1.09642 0.0565312 0)
(0.138988 0.0272466 2.73616e-20)
(1.02624 -0.177141 -9.69227e-21)
(0.915592 0.0439215 0)
(1.14882 0.0631562 0)
(1.03225 -0.0195345 0)
(1.09454 0.0111964 -1.82557e-20)
(1.22601 0.0389744 -1.15259e-19)
(1.05964 -0.0864486 -1.66647e-20)
(1.00528 -0.0174058 -6.80574e-24)
(1.00575 -0.0164584 -2.32687e-21)
(1.09471 0.0566494 2.08683e-20)
(0.287904 0.00521884 1.53394e-20)
(1.07745 0.0162617 -2.10403e-20)
(0.0649701 0.0430163 4.22396e-20)
(1.0127 -0.0096733 1.12189e-21)
(0.949294 0.049295 5.38212e-21)
(1.00602 -0.37324 0)
(-0.238803 0.00437777 1.74867e-19)
(1.19541 -0.0376204 -4.5371e-20)
(1.08327 -0.0443283 -2.26207e-20)
(1.07214 -0.0180727 -1.4599e-20)
(-0.224846 0.00630655 -6.40277e-20)
(1.22205 -0.169784 -1.18102e-19)
(1.02665 -0.170191 9.8114e-21)
(1.09072 0.0816983 -9.94812e-21)
(1.04659 -0.0349445 0)
(1.26415 -0.439224 0)
(1.09481 0.0570501 -1.21435e-20)
(1.11027 0.0741597 -1.87912e-20)
(1.10979 -0.0409781 1.0062e-20)
(1.27499 -0.143411 0)
(0.988689 -0.0182095 7.96534e-21)
(1.00009 -0.00187558 2.71492e-22)
(0.941661 -0.0215188 2.88733e-20)
(0.986981 -0.00512283 -1.80387e-21)
(0.499891 0.0366895 0)
(1.00394 -0.000759744 0)
(1.08604 0.0497227 0)
(0.397594 0.0692043 0)
(1.19883 -0.0394804 0)
(-0.0128303 0.0101139 0)
(-0.186641 0.00855074 0)
(1.1113 0.0755634 0)
(1.23476 -0.235472 9.28909e-20)
(0.886072 -0.0364849 -2.15234e-20)
(0.998628 -0.000947831 -1.13337e-20)
(0.983294 -0.0167263 7.7414e-22)
(1.01998 -0.00581007 0)
(1.02972 -0.00975934 -7.37457e-21)
(1.00107 -0.00055538 -8.80287e-22)
(1.16037 -0.0078824 0)
(1.21931 -0.0127082 -6.02977e-20)
(0.906344 -0.221321 0)
(1.18877 0.10756 -9.3382e-20)
(1.02517 -0.0631682 4.51432e-22)
(0.313347 0.049796 -8.36448e-21)
(0.999974 -0.000203393 -3.4048e-21)
(-0.161317 -0.0183066 -2.26396e-19)
(1.12264 -0.0899797 -8.90728e-21)
(0.999917 -0.000415226 -9.74512e-22)
(0.997071 -0.00146457 -6.64132e-21)
(0.471747 0.0563739 2.81739e-20)
(1.08499 -0.0372286 1.55138e-20)
(1.00221 0.0731233 1.22198e-20)
(0.438403 0.0317849 5.52898e-21)
(1.10918 0.0240423 0)
(1.1348 0.031054 -1.57581e-20)
(1.03016 -0.000630549 -3.9026e-21)
(0.335171 0.0777123 -4.2031e-20)
(0.98691 -0.0816805 0)
(1.0715 -0.0150185 2.79073e-20)
(1.08474 0.0508579 0)
(0.998683 -0.00140993 5.37171e-21)
(0.974835 -0.0430888 -4.36146e-21)
(1.03542 -0.0103194 0)
(1.0917 0.0371363 2.51994e-20)
(0.266663 0.00787949 2.96891e-20)
(1.09545 -0.0575514 -2.8552e-20)
(1.11073 -0.0354545 -3.99943e-20)
(1.26166 -0.161131 0)
(-0.0583633 0.00759999 -1.16963e-19)
(0.888018 -0.0587298 -2.9476e-20)
(0.989383 -0.105443 0)
(0.544286 0.0343543 8.34173e-23)
(1.01954 -0.00562728 0)
(0.533497 0.0331606 -1.23791e-20)
(1.00042 -0.00129704 -1.13855e-21)
(1.06497 -0.0132398 0)
(1.2289 -0.0264048 -3.23603e-20)
(1.10666 0.051154 7.06705e-20)
(1.11525 0.0648265 0)
(1.19437 -0.0977256 -7.84114e-20)
(1.13771 -0.0101298 9.4452e-21)
(0.999534 -0.00146424 -5.01388e-21)
(0.999987 -0.000202885 -7.16553e-21)
(1.16624 -0.0141142 0)
(1.04454 -0.0368445 -5.39197e-21)
(0.999645 -0.0012345 -8.99826e-21)
(1.07585 0.0203314 0)
(1.25096 -0.19886 -1.0122e-19)
(1.00474 -0.00554146 -1.48449e-21)
(1.21447 -0.253974 7.58283e-20)
(1.29006 -0.470736 5.91615e-20)
(1.03871 0.0630168 1.03468e-20)
(1.19296 -0.0931023 4.99598e-20)
(-0.0434496 -0.0127995 8.17404e-20)
(0.840527 -0.0935019 4.85276e-20)
(0.998501 -0.00125194 0)
(1.22445 -0.10954 3.01975e-20)
(1.01218 -0.0101464 0)
(1.08696 -0.0221525 -2.95661e-21)
(0.791324 0.0962839 -1.26859e-20)
(0.558385 0.0284802 3.02545e-20)
(0.565086 0.0126874 1.93353e-20)
(0.581553 0.0375375 0)
(1.02913 -0.0417003 0)
(1.02519 -0.0405557 -1.13305e-22)
(0.983194 -0.280197 -1.31345e-22)
(1.00559 -0.0648405 -2.72324e-22)
(1.0225 -0.0183736 0)
(0.57145 -0.291406 8.51043e-20)
(1.12229 0.079497 2.31244e-20)
(0.249843 0.0146693 0)
(1.09454 0.058159 -5.17888e-20)
(1.10775 0.0517949 -4.73991e-20)
(0.985627 -0.00707854 2.31362e-21)
(1.02039 -0.0120848 0)
(1.31527 -0.323541 5.00747e-20)
(1.14304 0.0431443 6.42251e-20)
(1.06708 -0.0129602 2.40406e-20)
(0.999805 -0.000530886 -2.02456e-21)
(1.11183 0.0644651 -2.01237e-20)
(1.2328 -0.0435697 -4.157e-22)
(0.0772291 0.0432424 0)
(0.973324 -0.0216938 0)
(1.00099 -0.00346026 2.71311e-21)
(0.248295 0.00588368 -2.30701e-20)
(0.959018 -0.0183708 2.59403e-20)
(1.11002 -0.0185755 5.03432e-21)
(1.01223 -0.00784356 0)
(0.0195224 0.0192854 0)
(1.00956 -0.00041831 1.46479e-21)
(-0.258319 -0.00351928 0)
(0.995032 -0.0060718 1.08471e-20)
(1.2031 -0.192097 6.35049e-20)
(1.11497 0.00363737 -2.53515e-20)
(0.959531 -0.284432 3.14925e-21)
(1.11179 -0.0391272 5.91582e-21)
(0.993694 -0.0260826 0)
(1.07304 -0.0253744 0)
(1.00336 -0.00392777 -7.50481e-23)
(1.08849 0.048906 -9.60668e-21)
(0.962209 -0.0273466 0)
(0.374006 0.0105003 -8.96557e-21)
(1.04874 -0.0339501 -3.71288e-21)
(1.04275 0.113347 -2.17505e-20)
(0.310001 0.0701351 0)
(1.10542 -0.0458444 -2.01428e-20)
(1.00393 -0.00282293 -5.81158e-22)
(-0.191174 -0.0188294 -5.23865e-20)
(0.805797 0.0480378 -5.48211e-21)
(1.08681 -0.0284941 4.65602e-20)
(1.10521 0.0511223 -4.72839e-20)
(0.983309 -0.0158004 0)
(0.311281 0.00569478 0)
(1.03317 -0.0201709 2.87927e-21)
(1.22761 0.0345428 0)
(0.99942 -0.00999583 4.98387e-21)
(1.00364 -0.00410464 7.84053e-22)
(1.0347 0.0744159 1.79105e-20)
(1.10994 -0.0116439 0)
(1.00062 -0.00724709 0)
(1.07703 0.0288157 8.50636e-21)
(0.143496 0.05652 0)
(0.728239 -0.802695 9.30666e-21)
(0.611908 0.0971431 -5.74905e-20)
(1.01778 -0.0152916 -1.39505e-21)
(0.157794 0.0312333 -5.91969e-21)
(0.997735 -0.00888149 6.66793e-21)
(1.00454 -0.00522007 1.11726e-21)
(0.974669 -0.0245771 -8.91513e-21)
(1.01844 0.000110348 0)
(0.999904 -0.00255955 -3.77708e-21)
(0.541514 0.0850373 4.94544e-20)
(0.760319 0.100916 0)
(1.04618 -0.0187542 0)
(1.00095 -0.000823001 -2.19452e-21)
(1.12646 -0.0264173 2.62868e-20)
(1.01634 -0.0223867 4.93994e-22)
(-0.159238 -0.0235457 -4.62774e-20)
(1.22849 -0.10602 -8.78824e-21)
(0.121133 0.0216847 -4.43475e-21)
(0.00540545 0.0110143 -5.64243e-20)
(1.07266 -0.0265504 0)
(1.09798 0.0573472 0)
(1.00009 -0.00967015 4.55576e-21)
(1.11741 0.00748466 -2.45818e-20)
(1.00038 -0.355413 2.10737e-21)
(1.03685 -0.00489531 1.01897e-20)
(1.00036 -0.00128056 3.22489e-22)
(1.30369 -0.300259 0)
(-0.248797 0.00141296 -4.60654e-20)
(1.13234 0.0311207 0)
(-0.320475 -0.0044168 6.41513e-20)
(1.11391 0.0390683 0)
(0.995951 -0.00335159 0)
(1.13038 -0.0389312 -3.26181e-20)
(1.10442 0.0515895 4.41506e-20)
(-0.285016 0.000602559 -1.25726e-20)
(1.10213 -0.00121188 0)
(1.09105 0.0660398 -1.4417e-21)
(1.14588 0.0436172 -8.7644e-20)
(1.00025 -0.00253997 5.36984e-21)
(0.375869 -0.120667 0)
(0.272717 -0.0846171 0)
(0.29729 0.0116802 1.28504e-20)
(1.24844 -0.0114142 9.01368e-21)
(0.955693 0.0448692 -1.76244e-20)
(0.980781 -0.071743 3.23625e-21)
(0.73157 -0.358171 5.00843e-20)
(0.972883 -0.00532411 -8.78057e-21)
(1.14334 0.105784 -6.33573e-20)
(1.0585 -0.0831004 1.51479e-20)
(1.00781 -0.00147495 6.96603e-22)
(0.557071 0.0918362 -7.04274e-20)
(1.02137 -0.0623258 -2.00684e-21)
(1.00384 -0.00258881 0)
(1.01383 -0.0400878 1.16754e-21)
(1.0199 -0.0605857 1.83527e-21)
(-0.0114657 0.0173631 0)
(1.21994 0.0461418 4.13848e-20)
(1.01218 -0.0143752 3.18431e-22)
(1.13243 -0.0361168 0)
(0.0778975 0.0164102 6.59803e-20)
(1.03913 -0.0568276 0)
(-0.335368 -0.00224941 9.41084e-20)
(0.958807 -0.0440769 0)
(1.11301 0.0486112 2.70382e-20)
(0.0939117 0.0412884 0)
(1.0014 -0.00685234 0)
(1.09443 0.0503767 2.39867e-21)
(1.0688 -0.0982783 6.41417e-21)
(1.10859 -0.046867 0)
(0.682442 -0.830735 0)
(1.02378 -0.061633 0)
(1.26116 -0.079805 5.72664e-20)
(1.08994 0.0507834 -1.94034e-20)
(0.189739 0.0625529 0)
(1.04605 -0.00201062 1.02727e-20)
(0.337794 0.00892258 -2.69132e-21)
(1.10217 -0.0241448 -8.43048e-21)
(0.0531808 0.0294145 3.44923e-20)
(-0.276553 0.0012244 -1.84484e-19)
(0.314553 0.00612728 2.61286e-20)
(1.10658 0.0266022 0)
(0.99073 -0.0246129 0)
(1.02853 -0.0428986 0)
(0.999976 -0.00134309 0)
(1.07754 0.0404737 1.69657e-20)
(0.997102 -0.00324584 6.96035e-21)
(0.169593 0.05903 2.94652e-20)
(1.03158 -0.115362 3.98995e-21)
(0.927332 -0.0888012 0)
(0.890847 -0.0553231 5.00331e-20)
(0.982808 -0.0703644 0)
(1.01735 -0.0147371 0)
(1.06481 0.0225518 0)
(1.06555 -0.0839979 -8.66918e-21)
(1.0643 -0.00609523 0)
(1.0454 -0.0958568 2.90514e-21)
(0.316964 0.0354227 0)
(1.0912 0.0484201 0)
(1.09892 -0.0152306 -1.63833e-20)
(1.11685 -0.149193 0)
(0.587013 0.0913648 3.45587e-20)
(0.972149 -0.0426394 1.5026e-20)
(-0.10998 0.000739814 -3.64668e-20)
(1.01895 -0.00567211 2.81201e-21)
(1.03318 -0.139591 0)
(0.960405 -0.0260598 1.50128e-20)
(1.02379 -0.0272845 3.65381e-21)
(1.08162 -0.163664 3.7162e-20)
(1.00023 -0.0109292 2.58991e-21)