/*--------------------------------*- C++ -*----------------------------------*\
| =========                 |                                                 |
| \\      /  F ield         | OpenFOAM: The Open Source CFD Toolbox           |
|  \\    /   O peration     | Version:  v2012                                 |
|   \\  /    A nd           | Website:  www.openfoam.com                      |
|    \\/     M anipulation  |                                                 |
\*---------------------------------------------------------------------------*/
FoamFile
{
    version     2.0;
    format      ascii;
    class       volScalarField;
    location    "200";
    object      ddt0(k);
}
// * * * * * * * * * * * * * * * * * * * * * * * * * * * * * * * * * * * * * //

dimensions      [0 2 -3 0 0 0 0];


internalField   nonuniform List<scalar> 
13851
(
-2.54274e-07
5.09435e-08
5.17863e-08
0.000101344
1.1464e-09
6.35044e-08
-2.31654e-08
-7.39102e-09
0.000280877
-1.18804e-08
-3.98503e-08
-2.53527e-09
2.62535e-08
9.89018e-05
6.14897e-08
1.29146e-06
0.000211673
1.22555e-08
1.24408e-05
-4.51071e-07
5.19852e-08
-1.28931e-08
-0.00184292
4.15425e-12
0.00124507
6.29318e-07
0.000249415
0.00264286
-0.000613026
-8.69947e-09
0.000183426
-2.39683e-08
4.498e-07
0.000200979
8.07581e-08
-0.000577528
-2.9088e-11
0.000430231
-0.000642182
-7.13378e-09
-0.000834197
-0.00106094
0.000120333
1.29551e-06
-0.00147142
3.6243e-09
-4.48084e-09
-5.53421e-08
-1.21997e-09
2.53348e-08
-0.000152577
1.63381e-08
1.36811e-06
2.66426e-08
9.62979e-05
-9.00867e-10
-1.66438e-08
-0.000814376
-5.88246e-05
-7.70318e-05
-1.38746e-09
-2.94117e-05
-1.0333e-09
2.32315e-09
-4.01391e-06
-4.61113e-06
-0.000152344
-7.8403e-07
-4.24782e-08
8.48585e-06
0.00038675
-9.5301e-09
3.91608e-08
-9.30001e-05
5.54399e-08
-4.362e-08
0.000226517
-2.02822e-09
-0.000500078
1.52359e-08
-4.52803e-08
-8.59357e-06
9.03274e-08
2.81981e-05
-2.39551e-06
0.000266482
-1.16405e-08
0.000481986
-1.32115e-08
3.82885e-05
1.38378e-08
-2.41472e-08
-1.07246e-05
0.000224905
-2.13257e-05
5.1607e-06
2.26869e-08
3.73172e-07
-0.000474576
2.27316e-07
-5.28027e-07
-4.35717e-07
-7.10601e-07
3.79346e-08
-1.13564e-08
-5.16962e-08
-9.95672e-09
0.00039231
-2.39494e-08
8.56087e-09
7.79357e-08
-7.20668e-10
2.26534e-07
-2.60816e-08
1.18276e-06
1.61292e-08
-1.2568e-09
-6.62729e-09
7.84466e-05
-3.20777e-05
3.94361e-06
-4.11032e-09
-3.45841e-08
0.000424339
2.09976e-06
-4.03397e-06
1.96243e-08
3.24117e-08
9.23715e-05
8.09342e-08
-1.72375e-08
6.31482e-08
-0.000475692
0.000559012
-7.20377e-08
-0.000140211
-1.56647e-06
0.000328922
-3.58066e-07
9.50103e-08
-4.67968e-06
-2.89867e-08
-1.08562e-08
-1.14905e-06
0.00362211
-5.12214e-08
-1.14086e-09
0.000189043
-0.000106921
5.19206e-08
-4.22095e-07
-2.2329e-07
-3.29959e-08
3.54733e-06
2.12232e-08
6.28113e-09
9.52221e-10
-0.000535995
8.75904e-08
-1.67369e-08
-2.65532e-11
-0.000603671
-9.99696e-08
-9.92367e-08
9.41878e-05
0.000300623
0.000589474
-0.000136782
-1.3391e-08
0.00129137
4.49863e-10
-6.58315e-10
-1.33285e-07
4.18877e-10
-2.0925e-05
5.39494e-05
-4.05415e-07
-2.90545e-09
5.28668e-08
-4.84651e-07
-3.24247e-06
-1.68415e-06
-9.59744e-09
7.22961e-08
0.000100048
-0.000130026
5.29346e-07
-1.12095e-07
2.98124e-08
-8.93331e-09
-0.00412208
8.38084e-08
0.000217635
6.41425e-08
-5.08276e-08
7.67319e-07
8.26661e-07
2.13831e-08
1.88868e-08
1.91674e-06
6.60874e-07
-3.52524e-05
-0.000789152
6.88858e-08
0.00316573
-0.000154802
-3.04746e-09
1.57808e-07
0.000587562
6.44922e-08
2.0911e-06
-3.19732e-08
-1.75121e-06
4.17866e-10
3.24608e-08
-3.68779e-08
2.46889e-08
-2.55661e-06
3.53002e-08
-5.88734e-06
-2.19278e-09
-1.21097e-06
-6.39258e-05
-8.13557e-05
6.68712e-09
1.63503e-07
-3.24763e-10
-2.77243e-06
-1.24887e-08
3.37789e-08
0.000482557
4.38867e-08
6.37538e-08
1.82866e-10
-0.00080324
-8.70653e-09
0.0164325
-0.000749848
1.18534e-06
-1.58897e-11
-0.000105549
3.88268e-05
-0.00162749
2.20805e-06
3.57531e-08
1.9025e-06
-4.25087e-06
4.72003e-08
3.88716e-06
3.29724e-09
0.000498404
-2.17758e-06
2.58964e-09
4.09381e-08
2.8417e-07
-0.000398912
9.43515e-05
-7.88509e-09
-2.49625e-06
-1.32149e-08
8.84549e-08
-3.15634e-06
3.53541e-08
-6.87668e-08
-1.85066e-06
4.04178e-08
-8.92854e-07
3.1821e-07
0.00365029
-6.51942e-09
2.17601e-08
-3.4688e-08
0.00194521
-2.8624e-05
-5.13694e-09
-3.71787e-09
-2.2685e-06
3.43987e-06
9.39437e-07
-5.03251e-08
0.00168451
-0.000422507
4.96919e-08
5.0585e-08
0.00533799
-1.47101e-08
1.02942e-09
8.9743e-07
6.84948e-08
-7.75363e-09
3.20504e-10
-1.04663e-08
8.34676e-11
3.67271e-08
1.11929e-10
0.000494014
8.39632e-09
-2.11707e-10
-0.000332768
0.000391998
2.45981e-08
-7.05609e-07
-0.000351506
-2.17709e-08
2.05629e-08
-6.71691e-10
-0.000126922
0.00136878
-2.05908e-07
6.31639e-10
0.00166588
-6.78416e-10
-2.48645e-07
-0.000366543
0.00377035
-1.59464e-08
0.00421237
-0.000156042
0.000575
-4.89764e-08
-1.67363e-08
-0.000231226
0.000434577
0.000293966
2.26672e-08
0.000230523
0.000197538
-6.06937e-06
-1.69561e-06
-2.56938e-09
-1.79969e-07
-3.23673e-08
0.000494078
1.41608e-06
1.22599e-09
-2.22788e-09
3.65103e-08
0.000504376
1.02469e-05
-1.56144e-08
-4.30384e-05
-3.29126e-08
6.047e-08
-1.8096e-08
-0.000264361
-4.08662e-06
6.17178e-07
-4.35044e-08
6.29912e-08
-0.000509434
2.96458e-08
1.18175e-06
4.71033e-08
5.09767e-09
5.17034e-09
-1.27119e-08
-4.23943e-09
-4.3823e-07
5.36607e-07
-2.19811e-06
0.000721831
-0.000632784
-5.24145e-08
-0.000779878
4.16848e-06
3.25564e-09
0.00457165
-3.25846e-07
-0.000490895
3.74367e-08
7.77099e-07
3.464e-06
-0.00726024
-3.91232e-07
0.000532528
2.2001e-08
5.03629e-05
9.23077e-05
4.59657e-08
0.000427479
3.8247e-08
-0.000612529
5.00322e-08
1.14023e-07
-1.26348e-06
4.06908e-06
6.80531e-09
5.51882e-08
2.49823e-08
5.1831e-08
9.99827e-09
3.04431e-08
-0.000196905
3.82212e-08
1.46444e-07
4.40572e-05
5.81083e-08
-0.000611737
1.9264e-07
0.00112985
6.50164e-08
5.47774e-07
-0.000192541
-6.20797e-06
-5.77732e-09
0.000135981
-5.79365e-05
-2.82156e-05
3.86373e-08
-1.16583e-06
4.44743e-08
7.80086e-07
-8.89359e-09
0.000147277
0.000985602
-0.00517707
6.30599e-08
-1.4359e-06
2.5472e-05
-4.4154e-06
9.34395e-09
0.000216407
8.00896e-06
-0.0018205
1.21774e-07
-0.00650115
1.45636e-08
6.57747e-10
0.000150863
6.86577e-06
-1.05756e-08
5.33295e-08
1.44233e-07
3.06255e-09
0.00208652
-1.88261e-07
-3.08885e-07
7.11301e-09
2.36918e-08
9.95745e-09
-0.00360334
5.23149e-09
9.26073e-09
-0.00391468
9.65064e-05
-2.58867e-08
-8.66379e-06
-1.30135e-09
2.77425e-10
5.98491e-08
-2.10226e-06
1.85017e-07
9.19771e-09
5.01325e-08
2.66929e-06
4.05668e-08
0.00032058
-2.22357e-09
5.37582e-09
-0.001426
-3.60635e-08
6.68305e-09
2.44656e-09
1.0892e-08
1.81097e-08
-5.48557e-05
-0.00503687
3.40192e-08
5.66242e-05
6.08596e-08
-9.76546e-09
0.00117179
7.88219e-06
2.50163e-07
3.61944e-08
0.000503558
-9.68946e-08
-0.0934881
3.83549e-08
5.34996e-08
-5.29209e-07
7.19361e-08
0.000412822
6.00307e-05
-0.00557666
-4.40429e-08
-8.0623e-08
4.12336e-08
-0.0004076
1.87141e-07
8.54881e-07
4.23168e-08
-4.27758e-08
-1.41006e-07
-1.11046e-07
7.70546e-10
-5.05259e-05
0.00109266
6.13237e-05
-4.57472e-05
-0.00462773
-1.79938e-05
-4.12198e-06
-3.63233e-08
2.69148e-09
-0.00312524
-1.15549e-08
1.10281e-08
-2.8182e-08
3.36749e-05
3.95636e-08
6.21464e-09
3.81826e-07
4.60288e-08
-3.49899e-09
0.0016626
2.73013e-08
0.000342658
-2.7149e-05
1.65844e-08
1.25092e-08
1.71244e-06
0.00484822
-8.76213e-09
-0.00363242
-0.000384942
1.65755e-08
0.000160142
2.8047e-06
-1.88196e-06
-4.03526e-08
-0.00282973
-0.000315644
1.61987e-08
2.03838e-06
-3.86129e-08
2.69823e-08
-0.00733152
-0.000508543
-9.78818e-09
1.86849e-07
-1.10544e-08
3.52488e-07
9.71434e-05
-0.000424184
1.68114e-08
0.000116205
1.11155e-08
-4.25594e-08
-1.50231e-08
-3.87108e-09
9.85809e-09
-4.8418e-08
4.22779e-05
3.33617e-06
6.35283e-05
3.94382e-08
-8.53292e-09
0.00192456
4.47541e-09
-8.80835e-07
1.38155e-08
5.62367e-08
3.73542e-08
-0.00231699
-0.000459105
6.1491e-08
0.000161712
-1.09498e-08
-8.6157e-08
-0.00126528
-4.5625e-06
-2.33387e-08
3.91701e-08
1.83232e-06
-4.68523e-05
-2.80063e-06
3.6209e-07
0.0644039
-1.7698e-09
4.71102e-08
0.00098615
0.00172431
4.5873e-07
0.000576514
2.13576e-06
-0.00102591
5.11743e-09
-5.2896e-05
-0.00256526
-5.41749e-09
5.0538e-05
-0.00236346
2.06226e-08
8.89952e-08
1.45094e-08
1.12114e-05
5.25935e-08
0.000668669
8.65591e-09
2.19118e-10
1.87527e-08
4.66713e-08
-1.15274e-09
3.79286e-05
3.20072e-10
1.97433e-06
-3.43054e-08
7.80757e-07
3.7634e-08
-3.25079e-09
2.8271e-08
0.000113831
9.56628e-10
-8.44075e-05
5.4099e-08
3.78135e-09
3.57156e-09
-1.13093e-07
4.94293e-08
5.95908e-08
4.28801e-08
-6.93029e-08
-3.20982e-05
4.43307e-09
-8.31768e-05
-1.57026e-10
1.69981e-06
0.000155645
-0.000305129
2.17403e-06
-0.00101515
3.55198e-07
-1.66224e-07
-0.0020485
1.63576e-08
0.0010742
-3.10905e-08
4.14492e-08
-5.575e-05
0.000297901
3.61923e-09
2.9267e-08
1.9931e-08
-0.000565391
-2.75005e-06
-4.29432e-08
1.71055e-06
0.00365985
-1.41105e-10
-9.98982e-11
6.66193e-07
-4.60523e-05
-0.000325169
1.96781e-08
-4.07631e-07
3.96774e-08
-4.12713e-09
-3.46132e-05
-6.43809e-07
3.39384e-07
9.02806e-09
2.62248e-07
-4.04198e-07
4.54155e-07
7.92084e-09
-5.08063e-08
4.62042e-09
-2.60333e-08
9.42799e-08
-3.70879e-08
-7.41892e-09
-6.27835e-07
-0.00957674
6.94512e-06
0.0022182
-0.00556268
-3.20219e-07
0.000125328
4.48168e-09
-0.00727825
-1.54787e-06
-1.50463e-09
3.97266e-08
4.2359e-06
1.5416e-08
1.21212e-08
9.40332e-09
1.54449e-06
0.000516216
7.75404e-09
-0.000749708
4.33715e-09
-0.000411143
-1.30013e-06
-0.00030349
-1.95515e-08
6.499e-08
4.62134e-08
-0.000274605
6.69101e-07
-4.53463e-08
4.28176e-05
2.30582e-08
-0.000262692
1.6863e-06
2.8592e-06
4.9044e-08
1.27367e-05
1.94391e-08
1.58857e-11
-1.87534e-09
-3.81004e-09
-0.00114858
-8.26162e-11
-4.01795e-05
0.00168693
-3.2908e-08
-0.000385396
-0.000493751
3.26963e-06
-4.72128e-06
2.57199e-07
6.01379e-10
1.97822e-08
-3.77672e-09
1.76255e-09
4.54358e-10
-1.27341e-07
3.44585e-07
3.82828e-07
0.00115497
-4.73607e-08
0.00038683
-1.87448e-10
0.000103032
-2.29931e-09
-3.55539e-10
8.79689e-10
-1.38089e-05
6.58805e-08
0.00280253
-0.00216511
9.98984e-08
-1.13511e-07
1.5657e-08
0.000299461
-4.5887e-08
4.02492e-08
-4.01301e-05
1.85268e-09
1.36458e-08
1.37728e-08
1.95631e-07
0.00051818
5.90082e-08
4.57795e-08
4.22229e-06
-0.000351278
-3.53371e-08
-9.10516e-08
-0.00133428
-3.57142e-09
-0.00107
2.52784e-10
3.54933e-08
0.00142182
4.64451e-07
1.3016e-06
-4.46019e-08
7.18776e-09
6.84054e-10
-1.2884e-10
-6.23745e-08
1.31361e-08
2.68497e-10
9.90316e-09
7.86306e-06
-2.2877e-09
3.51539e-06
0.000532507
0.00287118
-1.9233e-07
-0.000293468
8.33879e-08
1.62218e-09
2.73111e-08
5.40174e-09
5.49002e-08
0.00206881
-0.0006813
0.00131683
-0.00200836
-4.31605e-08
-4.77583e-08
-8.62811e-08
-4.82954e-08
-1.58778e-08
-0.00357551
6.44496e-07
0.000272229
1.84733e-06
4.7951e-07
-2.49718e-09
-8.87738e-09
-0.000427929
-4.23386e-07
3.70121e-08
-1.95965e-10
1.22904e-06
-1.78625e-06
-0.000720187
2.28646e-08
1.74155e-09
0.000529709
8.25415e-09
3.95223e-08
3.91428e-09
8.57374e-05
4.49642e-09
0.000181054
-7.27492e-09
-1.98637e-06
1.48262e-08
-2.09293e-07
4.65772e-08
3.68825e-08
5.63295e-08
-9.74789e-10
-4.71941e-05
1.00192e-08
9.50707e-05
3.26909e-08
0.00163401
0.00155595
5.69051e-08
-9.10736e-10
5.24759e-05
-0.00369666
5.89237e-08
4.56302e-07
1.65186e-08
0.000298828
1.38853e-09
1.65752e-06
-9.33994e-09
-1.15538e-09
0.0024416
3.55081e-08
1.72219e-09
2.91539e-08
-0.000642753
9.13967e-06
0.0029982
-6.99983e-09
0.000191538
-8.19055e-09
-2.09675e-09
2.01039e-08
-1.78284e-09
7.15746e-10
0.00325027
0.000737655
3.61813e-08
3.43584e-10
7.82769e-09
-2.3474e-09
8.17078e-05
-2.84917e-07
5.27283e-05
-0.000329102
5.76149e-08
5.05658e-08
-7.36494e-09
8.42602e-10
5.01523e-07
1.72501e-08
2.20631e-10
0.000121256
-1.44556e-05
-9.33067e-08
0.000116412
2.25306e-07
4.63857e-10
3.17782e-09
4.56461e-07
6.5032e-05
3.76049e-08
9.55802e-05
-4.72093e-07
7.85475e-10
0.00201267
0.00178806
0.000469402
0.00407058
-0.00753349
-4.09069e-08
2.21896e-06
7.29e-09
0.000528708
1.73824e-08
1.12027e-09
0.00300315
-5.18192e-08
-6.48875e-10
-2.83774e-08
-5.40152e-08
6.28379e-05
2.49405e-06
9.13634e-09
6.80272e-08
-5.12651e-05
-2.11504e-08
0.000118199
-5.57165e-09
3.81481e-07
-0.000350099
3.93012e-10
-1.27974e-05
1.63968e-08
5.62385e-08
-0.000109685
-5.353e-08
-8.98453e-06
5.37821e-07
-0.000781123
2.60994e-09
0.000400789
4.82482e-08
0.000270801
7.21646e-05
0.000394167
1.11606e-07
3.28473e-08
-4.21706e-08
-4.31199e-10
8.58054e-08
6.50285e-10
0.000252551
-2.76887e-08
-2.9016e-08
1.02979e-07
-3.78583e-08
-4.28275e-09
-1.4366e-08
2.50741e-08
1.58202e-08
-5.07591e-09
-0.000245895
-4.01909e-05
4.46884e-08
6.78955e-08
0.00351033
1.49033e-09
0.000502388
-5.33826e-09
-4.27532e-08
1.02371e-08
-3.18886e-08
3.27167e-08
-1.24085e-08
8.46986e-09
7.4328e-07
8.42255e-09
1.4282e-06
4.57818e-08
4.635e-05
0.000567796
-3.67445e-06
-1.97773e-07
2.82386e-08
-0.000325749
-2.57966e-06
7.6108e-10
1.91428e-08
9.91228e-09
0.000593408
-4.2922e-09
1.5638e-07
0.00469931
2.39189e-05
7.36002e-08
1.97966e-09
-0.00186915
0.00325831
-0.0074883
3.05541e-08
2.85201e-09
1.88594e-08
-2.105e-07
2.63438e-08
-0.00027991
-1.29327e-06
3.38593e-09
4.6546e-06
1.57516e-06
1.09679e-08
-0.000425889
0.000200608
2.4211e-06
3.10609e-08
-0.00227962
-1.48797e-07
-5.8199e-09
0.00037903
-4.25709e-08
4.72305e-09
3.04445e-08
3.72362e-08
1.04602e-07
0.000971025
-2.54291e-05
1.39717e-07
0.000811081
5.81367e-08
4.3937e-09
3.28258e-06
6.66964e-09
0.00124329
1.81864e-08
-2.16602e-10
-5.20166e-08
1.41719e-08
0.00182563
0.000331349
2.30674e-05
-0.000463834
0.000904786
-7.62897e-09
4.08418e-08
4.50001e-08
-8.8553e-06
2.0003e-08
3.43647e-09
-1.81977e-09
0.00340382
2.5384e-05
6.94619e-09
-5.83055e-08
4.53673e-08
-1.89827e-06
0.00011147
1.69958e-08
9.5229e-09
-1.19354e-08
-0.00429019
9.21855e-09
-0.000117887
-4.90676e-08
1.66576e-09
5.43733e-09
2.95149e-08
-3.59252e-08
2.8075e-06
-0.00135839
-0.000107743
6.30322e-08
-1.12299e-08
0.000217826
1.56604e-08
-0.00846638
-0.00032192
1.2967e-08
0.000143694
-0.000982787
-0.00015431
3.45748e-07
3.56548e-08
0.000378658
4.08259e-08
-1.72225e-08
7.26211e-08
5.39788e-06
-2.75907e-09
0.000229138
7.13942e-09
0.00293258
-0.00579409
-5.60963e-09
-3.70052e-08
1.05845e-08
-2.98607e-06
3.57841e-08
1.26688e-09
1.60015e-08
4.13463e-11
2.72861e-09
9.89061e-06
3.92554e-09
-0.00337132
0.000528922
1.20541e-08
3.59605e-08
1.12619e-07
-4.10621e-09
-0.000536443
0.000392938
-0.000284058
0.00012201
-1.10379e-08
-1.98272e-08
3.70183e-08
2.68548e-08
-2.36498e-06
3.95203e-08
-1.04631e-10
3.11444e-07
-3.95274e-08
-0.000218628
2.7463e-08
-0.000193807
3.75885e-10
-3.01461e-08
-1.0257e-06
-6.55535e-07
-2.61247e-07
3.3115e-08
0.000300946
0.000153123
-0.00419599
-5.12936e-05
0.00292451
0.000491387
0.000214488
2.13491e-08
-1.35675e-08
2.26948e-08
6.67629e-06
1.90039e-07
-2.20211e-07
2.69791e-05
4.97698e-09
-3.85954e-09
-8.52444e-09
3.64687e-06
2.61991e-10
2.85721e-08
-5.03771e-08
0.000577025
-1.18286e-08
5.97729e-09
-5.1363e-09
2.45598e-08
3.41638e-10
-7.36569e-08
2.36589e-06
5.89923e-09
0.00443684
-1.64029e-08
3.08299e-08
0.000332799
0.00158816
0.000522868
0.00223508
2.90016e-07
-0.00160219
2.57217e-09
2.57118e-07
-3.15863e-08
-6.59923e-09
-1.75582e-08
0.000214169
3.67094e-08
-7.8281e-07
0.00468594
2.18629e-08
-2.98776e-08
-1.78285e-08
3.89176e-06
-2.92983e-10
0.000301319
2.20484e-08
-4.29355e-06
1.15171e-09
3.57477e-08
5.84548e-08
-4.26891e-07
2.92852e-08
0.000148954
0.000357721
5.0653e-06
0.000795261
1.32061e-08
5.95363e-05
-7.32433e-05
-1.54656e-08
-0.00731495
2.75076e-08
-1.43247e-06
2.57835e-08
-7.87605e-09
-1.70517e-09
-2.24452e-09
-4.9666e-08
-1.00145e-07
7.40736e-08
5.82003e-09
-1.56857e-09
-1.52704e-06
7.62728e-09
-3.17822e-05
1.45838e-10
4.51981e-08
5.42013e-08
-3.98185e-05
-0.00191744
3.94682e-09
2.91678e-06
3.47307e-09
1.73795e-08
3.4438e-08
0.0022569
1.18172e-07
-2.74464e-10
2.72811e-07
4.29682e-07
4.04677e-07
-9.50548e-05
4.24482e-09
-1.6465e-07
3.35056e-07
2.23816e-07
1.14693e-08
-7.34081e-09
0.0022906
3.73487e-05
2.44021e-08
-5.50785e-09
0.000128497
4.5259e-09
2.42879e-08
3.6652e-09
4.69408e-08
-0.0034075
3.87776e-09
-3.81224e-05
6.14422e-08
1.37053e-09
-5.26404e-07
1.03506e-09
-9.13685e-07
6.79468e-05
3.5718e-08
0.00284621
-1.12697e-09
-3.62932e-10
-2.10438e-06
1.34341e-09
5.06836e-11
1.20693e-08
5.18576e-08
-6.01278e-09
6.29505e-08
3.64228e-08
3.52997e-08
-8.76146e-09
-8.38777e-09
1.98975e-09
-1.29538e-08
-0.000171977
1.53784e-08
-7.68533e-09
-8.36137e-06
3.74047e-09
-5.62584e-09
0.00208573
-1.23563e-11
3.32558e-05
3.19463e-08
0.00230907
-8.69571e-06
5.63785e-07
-0.000226579
-1.79182e-08
-4.72635e-05
3.51755e-08
-1.10762e-06
4.56879e-08
-6.15441e-09
5.79008e-09
-5.68784e-09
3.96268e-08
2.74438e-08
5.09053e-08
6.63814e-09
-2.49634e-08
0.000117341
-0.000119894
0.00358798
-1.50915e-08
2.03103e-06
-0.00050271
0.000203364
4.86629e-09
2.45074e-08
-0.000112481
3.21919e-08
9.90394e-08
5.26407e-06
-0.000312461
1.14635e-08
1.16925e-07
-5.30024e-08
7.98422e-07
-5.51058e-10
7.17936e-08
-0.00618635
2.98926e-08
-8.52441e-09
-0.000513256
7.52006e-08
-3.78332e-06
0.000429214
1.26357e-06
1.65069e-08
6.0988e-09
3.61994e-08
0.000152698
-0.000858305
0.00665643
-6.44229e-09
-3.32078e-09
-0.000392976
-9.33383e-11
-6.13961e-07
3.27146e-07
-1.29712e-08
3.92672e-09
-1.08158e-08
-0.00169411
0.000812641
4.78045e-09
-1.69499e-07
1.89285e-07
-0.00180487
-4.72379e-08
3.92535e-07
1.01288e-05
5.42562e-08
-4.724e-05
3.53723e-07
1.62803e-10
7.26549e-08
3.246e-06
-0.00275607
-1.26291e-08
0.000333963
-3.80499e-08
4.57523e-07
-3.0006e-10
0.00105995
3.55205e-08
-3.97149e-08
-1.66685e-08
1.469e-07
1.08553e-07
-4.22304e-07
1.7365e-09
-4.99096e-08
5.51762e-08
3.6871e-06
-2.4359e-08
4.04698e-09
1.15789e-08
7.44583e-08
1.56815e-06
5.18728e-09
2.47034e-07
0.00651561
2.27939e-08
2.9635e-05
9.69133e-08
-0.000447362
-4.06672e-06
2.67916e-08
-0.000253103
-1.56413e-11
-2.1245e-08
4.36042e-08
3.74138e-08
-3.95433e-08
1.8939e-07
2.12257e-08
3.20057e-08
5.50695e-08
-5.0507e-08
1.245e-09
-1.69608e-06
3.33727e-08
-3.18277e-08
0.000267781
1.57083e-08
-9.92838e-08
1.16335e-08
0.000516626
1.30154e-07
3.7153e-08
4.62446e-08
1.48073e-09
-0.000151069
-3.16427e-07
4.37166e-08
-0.00159363
-0.000136639
-0.000104408
-4.45663e-07
-2.27827e-05
1.24678e-08
1.65009e-07
5.89342e-09
8.70945e-08
0.0047965
-0.00052301
-2.65137e-06
-0.00024891
1.23753e-09
-0.000283235
1.217e-08
4.39869e-07
-4.66497e-08
-0.00398106
0.00261456
-1.77089e-08
-3.76382e-12
-6.60446e-06
-9.59208e-07
-1.45877e-08
0.000243656
-1.74589e-09
-3.93618e-08
3.08424e-08
2.37303e-08
5.75744e-08
2.28087e-09
1.99712e-09
-6.16434e-09
1.80378e-05
4.4639e-08
-3.93528e-08
-1.43718e-08
-0.000462848
-0.000681182
-1.31356e-09
-2.36167e-05
-4.61314e-08
3.41995e-09
0.00242883
-1.45107e-09
-1.18907e-08
-3.71943e-08
-0.00036541
-1.51719e-08
1.1966e-09
8.43897e-09
-0.00744235
-1.36014e-09
-2.90274e-08
-2.34767e-07
0.000746056
5.0088e-08
5.04424e-08
1.46007e-06
-1.14257e-09
-9.61891e-08
-5.78171e-09
-0.000124878
5.32957e-08
-8.75973e-09
-1.06161e-08
-3.29792e-07
1.50007e-09
3.14295e-08
-1.92663e-06
-0.00320613
1.39276e-08
-2.11403e-05
2.44712e-09
-5.98954e-09
-1.62509e-07
-1.21585e-08
1.5481e-08
-0.00311876
-4.63398e-10
2.59812e-08
-6.54778e-07
0.000637952
0.00073382
2.13824e-08
-7.02316e-10
-3.64304e-08
-1.21226e-09
2.74925e-08
-2.69385e-09
-0.00260949
3.16215e-09
-5.34634e-06
8.90036e-07
-8.12794e-09
7.25831e-09
5.83592e-08
8.7291e-07
-3.8368e-05
-6.48343e-08
-9.03333e-09
-4.63713e-08
0.000337021
8.1355e-08
1.23946e-08
8.73946e-08
5.34891e-08
-3.21758e-08
-0.000514985
8.65668e-08
0.000134879
0.00215419
0.000244208
4.07754e-08
-1.52406e-08
1.47947e-08
-7.63208e-08
4.11658e-09
1.0483e-08
-4.5898e-07
4.02769e-11
-3.75679e-08
-1.21621e-08
9.27615e-09
2.95338e-09
2.31704e-08
0.000257679
-2.50022e-10
-0.00766776
-6.36452e-10
5.1616e-07
3.19545e-09
9.20066e-07
2.522e-07
3.13432e-08
0.00129391
8.52136e-10
1.18082e-09
5.76323e-08
-7.57467e-09
-2.12716e-08
1.36296e-08
-0.00194076
-2.96296e-08
1.70926e-09
-1.27285e-06
0.00132648
-2.40215e-08
9.9411e-06
-0.000330407
4.06659e-08
2.8001e-08
5.05527e-08
9.14526e-08
-8.98055e-08
4.93247e-05
-7.98024e-09
-3.86588e-05
-1.9535e-08
-2.88305e-06
6.48708e-05
6.99073e-08
-0.0060095
-1.58155e-08
4.07639e-08
-4.87038e-08
0.000589938
5.50635e-08
5.49301e-10
4.44107e-08
-2.66508e-07
-6.79566e-09
-1.71819e-08
1.45228e-09
-0.000591202
-4.65423e-10
-3.50442e-08
0.00111353
-5.12071e-08
3.45028e-08
-9.02064e-09
-2.111e-08
-0.00132697
-3.92234e-09
7.47693e-09
5.62518e-09
-7.53079e-08
3.44551e-08
2.71479e-08
2.31085e-07
0.00136672
3.34034e-08
-2.09619e-10
0.00726257
-9.69195e-10
-3.73965e-05
-2.38608e-08
0.00107409
-1.68826e-08
-4.86155e-08
3.61328e-09
0.000448372
0.00110703
-2.15161e-07
-2.14079e-07
-1.68572e-07
9.49544e-09
5.59779e-10
-0.00229014
6.70073e-10
4.60861e-07
6.36426e-09
1.31914e-07
3.8763e-09
0.00540127
5.0639e-09
1.49404e-07
-3.0569e-09
4.3622e-06
-1.18812e-05
-7.84764e-09
5.52405e-08
-0.0014503
2.34899e-07
0.00189721
-0.0048991
6.60554e-07
-3.42098e-09
4.09399e-08
-4.24705e-07
0.00514046
-7.39932e-09
9.46375e-08
-3.72919e-08
-2.01298e-08
0.000259824
-0.000156024
4.42532e-08
-2.54003e-06
-8.82351e-06
5.46884e-08
0.00177218
5.13661e-09
-9.5038e-09
-2.20623e-07
0.00111875
1.19077e-06
-1.45812e-06
0.00608965
2.14884e-09
0.00100713
8.55237e-05
-0.000604914
6.70728e-10
-6.63643e-06
-0.000161101
-2.3548e-05
-0.00125574
0.000507759
4.49869e-07
5.77749e-08
3.91334e-07
-2.14164e-08
1.69472e-08
-0.000115109
-1.68067e-07
3.56431e-09
1.04474e-05
3.82915e-09
4.70138e-07
5.83039e-08
-2.82658e-08
-0.00637739
3.35317e-08
4.02524e-05
1.67182e-07
7.74847e-08
0.00345486
0.000191702
-1.92588e-06
7.79789e-09
-1.37371e-08
-1.27635e-07
4.46681e-07
4.464e-09
-7.09292e-08
3.55616e-07
-1.3184e-07
3.64358e-08
1.25924e-06
-4.83028e-08
3.02484e-08
-0.00164213
-6.03345e-05
2.94395e-09
-3.30298e-06
0.000196486
3.23713e-08
-5.1995e-08
0.00018298
-1.99936e-06
1.86766e-08
6.12232e-08
-2.32616e-09
-1.53246e-08
8.50764e-10
-0.00104343
-8.14477e-09
9.33473e-09
1.55163e-10
1.8548e-06
-1.53635e-09
-0.000671884
-0.000114466
3.05769e-09
-1.48602e-08
2.64351e-08
2.02514e-09
5.66336e-08
-5.29094e-08
2.93563e-08
-3.14214e-08
3.07149e-08
-4.78191e-08
1.87466e-08
1.75898e-07
0.00278698
-2.27413e-10
0.00299051
0.000120089
-6.49141e-09
-3.10792e-06
2.88863e-06
1.58211e-07
-1.56768e-08
4.07814e-08
5.19469e-08
-1.43911e-06
4.26439e-08
-8.97216e-09
2.88612e-10
5.43875e-05
-1.06721e-08
0.00312203
-1.30388e-08
-9.85111e-09
-1.32758e-08
5.10174e-08
3.19203e-08
-2.0848e-08
2.9959e-07
-0.000202146
1.421e-08
-0.000146791
-0.00175762
0.000112769
1.43743e-09
1.48653e-07
7.49625e-06
-0.00226396
0.000277926
6.05434e-09
-4.51112e-08
1.45973e-06
0.00166308
0.00211298
8.64612e-09
-4.34391e-05
-1.34773e-11
-1.08927e-09
1.20397e-08
2.92456e-09
6.4775e-09
-6.43181e-07
-3.62531e-10
-3.54314e-06
-1.62562e-08
-0.000267614
0.000271824
0.000337658
-0.000842264
5.94631e-05
2.2633e-08
4.45352e-09
-0.0037366
-8.19568e-09
-1.08386e-08
-6.14994e-09
-5.80447e-07
-0.000231993
4.22041e-05
-3.24592e-08
5.56023e-09
-3.3054e-08
3.20148e-09
-2.38166e-05
-6.76162e-10
-0.00394312
-0.000128449
4.04761e-09
1.64981e-09
-3.74646e-05
4.74583e-07
-1.64954e-08
-1.735e-08
0.00369417
-0.000547129
1.90567e-08
-1.47496e-06
-1.89424e-10
0.000322001
-0.000206918
-2.34608e-08
0.000602583
3.26096e-05
0.00676614
-1.38507e-08
-6.28248e-09
2.76652e-11
-9.56622e-11
0.00139494
1.3598e-08
1.07663e-05
-1.66973e-05
5.55513e-05
3.38016e-08
5.15483e-08
-0.000120161
2.06692e-08
-0.00366394
0.000340789
-5.41094e-10
3.8223e-08
4.42321e-08
3.38598e-06
-5.49497e-05
9.1778e-09
0.000522966
1.26423e-07
1.03252e-07
-1.60642e-08
-1.37607e-09
-2.99701e-06
4.49674e-08
0.000124254
2.81013e-09
1.39943e-08
2.32758e-08
8.4232e-07
4.59703e-08
0.00141688
0.00238426
-1.24121e-06
1.1708e-06
3.57065e-08
-5.148e-08
8.63193e-09
-4.45826e-06
0.0016179
-0.00283696
1.32041e-09
-0.00159479
-9.5957e-07
-0.000429839
-1.72527e-08
-8.81082e-10
2.49155e-08
3.21062e-10
0.0056425
-8.0293e-09
3.74527e-08
-4.85779e-05
-0.000625314
0.000185873
-0.000356963
-2.17017e-08
2.56129e-08
-8.20253e-10
-0.00016149
-2.85637e-08
-0.000876469
1.60117e-09
-0.000638621
4.68051e-09
-9.91211e-09
3.61462e-08
-2.68165e-08
-2.79459e-08
1.28874e-08
-6.67036e-06
1.67767e-07
1.63027e-08
6.94107e-08
0.000437379
1.00888e-05
7.31423e-09
0.000490385
-2.10019e-08
6.06074e-08
3.92244e-08
-5.25907e-09
-4.79481e-08
-8.99551e-09
0.00220587
1.83593e-07
-1.11199e-08
-1.32725e-08
2.17199e-06
2.37302e-08
1.73061e-09
0.00247867
-0.00560024
-7.70525e-06
3.76755e-09
0.000788189
3.61036e-09
-3.38778e-07
1.17575e-08
1.74963e-06
-0.00815335
-4.59842e-05
5.82021e-07
-0.000170333
7.25405e-08
-3.43672e-07
-1.12636e-09
0.000111806
7.73658e-08
1.79989e-08
-2.92661e-06
-1.96812e-12
-0.00674678
-1.59123e-07
-1.55843e-07
-1.00408e-05
-0.00225771
2.03677e-05
0.00186737
-2.28817e-05
1.3446e-07
-1.76613e-08
-2.5597e-09
3.09764e-09
8.95475e-09
1.45684e-06
7.20474e-09
4.3171e-08
-0.000319725
2.79868e-08
4.90602e-09
1.40089e-07
-3.40633e-07
4.14751e-08
-4.86004e-09
3.87342e-05
5.31892e-08
1.96418e-07
-2.93881e-09
0.000258408
-3.39844e-08
0.00340816
-5.61864e-07
3.67641e-08
4.22453e-08
-4.38051e-09
3.23525e-05
-7.42544e-05
-7.53858e-08
1.53129e-08
-5.06796e-10
0.000150321
0.000410624
-0.000369931
3.95293e-09
-6.34642e-08
-0.00233385
2.28629e-08
-5.43362e-09
-3.96249e-08
5.13877e-05
9.62275e-07
7.00381e-08
-1.4544e-08
1.5868e-08
0.00252964
8.59223e-08
-5.03417e-06
-1.42951e-08
3.98131e-08
9.22309e-09
5.43252e-07
4.46737e-08
6.44768e-09
-0.00223191
0.000265769
-0.000583696
-0.00375072
-0.000110223
0.000299958
-0.00302112
9.70771e-10
1.51794e-08
0.00430703
-0.000245049
0.000757497
1.98181e-08
3.09362e-08
-2.57977e-09
3.5392e-08
-0.00648771
-0.000480728
-3.96582e-08
-1.03141e-08
3.34464e-05
-5.84662e-07
-8.67324e-08
0.000150167
-0.000448185
1.55618e-05
-8.0361e-10
0.00125324
-0.000792321
6.51725e-06
4.05941e-08
-2.25723e-08
1.15178e-08
1.04992e-08
7.18649e-09
5.45352e-08
-2.86905e-08
9.58828e-08
3.89281e-08
-4.85251e-08
1.63582e-06
-4.84449e-05
-2.94228e-08
1.3307e-07
1.44864e-05
-1.39583e-06
6.44344e-10
-5.06509e-06
2.92149e-05
0.000474828
6.63257e-08
5.05928e-09
4.94605e-08
3.47591e-08
-1.82464e-08
-5.56895e-09
-9.18009e-08
3.46335e-08
1.45501e-07
1.08601e-06
8.85703e-11
-1.89974e-08
-2.43976e-05
-0.00216141
0.000190394
-0.000100084
3.69415e-07
2.69691e-09
-4.67312e-09
5.53246e-08
-1.69332e-09
-0.00143481
-9.81999e-09
-4.2761e-10
-6.57618e-09
-0.00196888
-0.0062407
1.59005e-08
1.76074e-07
2.31597e-08
-6.30591e-09
5.99633e-08
3.85269e-07
3.99713e-08
3.99086e-08
4.68757e-05
4.0957e-08
-0.000520443
2.81377e-08
0.000157492
5.95517e-08
-1.41494e-09
-8.93545e-10
-2.29971e-07
-2.00301e-06
4.40694e-09
-5.8635e-09
6.24485e-08
6.91618e-09
-0.001638
0.000437468
-0.00141151
-4.52976e-10
-0.000319824
-2.84413e-07
8.54636e-09
-1.64085e-08
-5.42423e-08
-5.18726e-08
3.19151e-06
0.000215395
-1.03233e-07
-7.3348e-09
-0.00222455
5.0033e-08
1.48194e-05
-0.000475283
3.83068e-06
-4.37154e-08
-3.91925e-07
0.000920953
-0.00100668
0.000774251
-4.06513e-08
-2.45964e-08
-2.81799e-08
9.3974e-09
-0.000831432
-4.576e-08
5.43392e-08
-5.02881e-06
-0.00014926
-2.45744e-08
2.39557e-08
0.0002606
3.59416e-08
0.000407659
-1.37465e-07
-1.47402e-08
-2.37233e-08
-6.64827e-07
-4.19789e-08
0.00152808
-6.37131e-09
-0.0170695
4.8828e-08
3.90911e-10
1.56906e-08
2.46119e-06
8.95651e-09
1.148e-06
3.75549e-09
-3.63712e-08
1.73872e-06
1.30177e-08
-7.21935e-09
-1.01198e-08
8.14535e-08
-0.000901311
1.31218e-07
4.74064e-08
-2.97548e-08
-2.53086e-08
3.44012e-08
2.11834e-06
5.57932e-08
-1.14581e-08
3.26361e-06
-9.95211e-09
6.96022e-08
-4.29382e-07
6.80587e-09
1.36032e-07
-0.000609393
-6.14969e-05
2.8461e-08
-0.000141039
-3.24574e-05
3.77161e-08
7.77979e-09
9.57892e-06
0.000259731
-1.70694e-07
-5.38426e-06
-1.01574e-05
9.4152e-09
4.51715e-07
8.35568e-09
5.4444e-08
-4.62232e-08
0.00346235
3.34277e-06
-6.60663e-07
-0.000279678
-0.00316526
0.000358863
-1.50116e-08
0.000283383
-1.11408e-08
-0.00315596
-0.000121596
-1.5865e-09
8.54229e-10
0.000201397
1.38417e-08
-5.34037e-09
-7.50744e-06
0.00172292
-2.35835e-06
5.17364e-09
-7.55206e-05
1.01622e-09
-0.0027982
-2.70766e-05
9.05369e-10
0.00128537
-0.00104212
-0.000198066
0.000316595
-7.77069e-05
0.000381819
1.05908e-08
-4.67507e-10
-7.95658e-08
2.88188e-09
-6.90063e-09
1.86628e-06
-1.56447e-08
-0.000118694
6.61955e-07
2.22824e-07
4.84413e-06
-0.000143893
8.5464e-06
-5.72743e-06
-3.88933e-07
0.00024524
1.052e-05
1.52e-08
2.45965e-09
-0.0020542
1.20226e-08
-7.74041e-09
0.000947082
3.52473e-08
-0.000186165
1.32425e-08
-0.00082041
4.98404e-09
2.23027e-08
-0.0100324
-8.36015e-08
4.38737e-08
0.000215036
-0.00458291
0.00013168
8.06435e-09
1.66678e-07
-3.37695e-08
1.1453e-07
-1.5388e-06
1.12285e-07
9.76101e-10
8.68498e-05
-1.52836e-07
3.4055e-08
0.000428887
-8.42457e-09
2.75174e-08
1.36878e-08
-1.3218e-07
1.51632e-07
2.3553e-08
-3.91708e-07
-2.23523e-09
-6.51925e-07
-9.0037e-05
-0.00017775
6.22392e-09
5.83473e-08
1.20643e-05
3.22114e-08
-5.85562e-08
2.3213e-08
-2.11179e-08
0.00408499
-1.05515e-07
-3.01815e-09
-0.00168324
5.30288e-09
-0.00229735
2.95455e-09
5.09513e-08
-1.21403e-07
-0.000575022
8.92291e-09
-3.74628e-06
-3.44983e-06
3.12937e-08
1.39952e-08
-4.87053e-07
-5.35988e-08
-0.000539054
-6.56982e-09
-0.0325496
-2.05938e-06
2.81119e-08
5.82024e-08
-3.19205e-07
5.45599e-08
-5.31176e-07
-7.63043e-08
2.72843e-08
3.54478e-08
7.93148e-09
0.000544477
3.26934e-08
6.5595e-08
6.67793e-09
6.7019e-07
6.29988e-08
3.4483e-10
0.000359657
3.70163e-09
9.73354e-07
3.3226e-09
2.15801e-08
3.5017e-09
1.57633e-09
-8.2609e-09
8.45993e-09
4.83682e-07
-0.000431454
1.13041e-07
-2.84791e-09
2.59052e-09
-3.81393e-08
-2.82907e-05
3.57429e-08
-0.000123697
0.0038753
0.000155365
-2.42963e-07
7.34633e-09
2.71033e-09
4.74633e-09
-3.08643e-08
-1.33092e-06
9.2728e-08
-0.000576066
1.60191e-07
0.000841783
-5.41092e-07
5.5e-10
4.82177e-09
3.34124e-05
2.60431e-08
4.0237e-08
2.58337e-06
-2.30927e-06
4.74067e-09
0.000627335
1.95292e-09
7.60604e-09
-2.10989e-09
-9.06052e-10
-5.15611e-07
4.14882e-07
-4.0309e-08
3.91244e-08
-1.41645e-06
9.84284e-09
2.38474e-07
-4.98515e-06
3.5589e-06
1.96087e-06
1.40076e-06
-1.75734e-08
-1.41861e-08
2.98421e-07
-0.000556387
-0.00240744
-0.00190176
3.47575e-08
-0.00652245
5.34489e-07
4.87233e-08
-7.63096e-09