/*--------------------------------*- C++ -*----------------------------------*\
| =========                 |                                                 |
| \\      /  F ield         | OpenFOAM: The Open Source CFD Toolbox           |
|  \\    /   O peration     | Version:  v2012                                 |
|   \\  /    A nd           | Website:  www.openfoam.com                      |
|    \\/     M anipulation  |                                                 |
\*---------------------------------------------------------------------------*/
FoamFile
{
    version     2.0;
    format      ascii;
    class       volScalarField;
    location    "200";
    object      ddt0(omega);
}
// * * * * * * * * * * * * * * * * * * * * * * * * * * * * * * * * * * * * * //

dimensions      [0 0 -2 0 0 0 0];


internalField   nonuniform List<scalar> 
13851
(
-0.000431179
1.11568e-05
1.12285e-05
0.0190479
8.84875e-08
1.82559e-05
2.27129e-06
-2.84306e-07
0.0428484
-6.68677e-07
-0.000159656
-1.87817e-07
3.17257e-06
-0.0823547
0.000104965
-0.000764318
-0.0455011
6.35818e-07
-0.00247038
-0.000334573
5.44848e-05
-9.50846e-08
0.00420994
3.12315e-10
-0.0349535
0.000632021
0.0384899
0.142322
0.101371
-6.64347e-07
0.0186419
2.90788e-06
0.000704978
-0.0441251
-7.56738e-06
0.107803
-2.16828e-09
0.107509
-0.00381139
1.44714e-07
-0.1129
0.112519
0.183148
0.0260048
0.0967895
3.78914e-07
-1.54844e-07
-0.00136784
9.60408e-07
3.07685e-06
-0.0858166
2.37019e-06
-0.000898841
4.52643e-05
-0.0156562
3.69083e-07
-0.000701301
-0.0950015
0.0127233
0.0700006
-1.00822e-07
0.015958
-1.36471e-07
1.63967e-06
-0.025149
-0.0226339
0.102998
-0.00854543
-3.94425e-06
0.00997381
0.00871835
-5.64679e-06
3.75628e-06
0.0809248
8.19244e-05
-9.6541e-06
-0.0350563
-1.3687e-07
0.0988457
1.13595e-06
-4.29705e-06
-0.0218778
-3.42207e-05
0.00674174
0.0633863
0.0185049
-4.78146e-07
-0.0378294
-8.6139e-07
0.0155448
1.89965e-06
4.87723e-06
-0.0161089
0.00667673
-0.0166373
0.0184546
1.76351e-06
-0.00258784
0.000863443
0.00333052
-0.00320025
-0.00164168
-0.0051957
4.33505e-06
-8.06144e-07
-6.44195e-05
-4.6173e-07
0.0169414
5.15198e-06
4.23895e-07
0.00032094
-5.00811e-08
0.00243448
-0.000214415
0.00202029
3.53734e-05
-6.25657e-08
-3.2527e-07
0.0296661
-0.0229157
0.00960431
-3.69944e-07
-3.39078e-06
0.0239284
-0.0153233
-0.019773
1.62169e-06
0.00103278
-0.0327853
0.00012916
-2.13261e-06
2.01773e-05
0.208482
-0.0262936
-0.000288857
-0.0147446
-0.0105398
0.0160507
-0.00273187
0.000172627
-0.0199285
8.62845e-07
-9.44414e-07
-0.00835164
-0.0872598
-1.11656e-05
-1.1104e-07
0.00553945
0.0377764
0.00042188
-0.00274015
0.00277353
-0.000150213
0.00477284
3.33043e-06
4.68121e-07
7.55298e-08
-0.00817129
0.000136645
7.20023e-06
-2.32799e-09
0.105131
-6.83157e-05
-0.00133532
-0.0634131
0.0513455
0.0508287
-0.066814
8.93073e-06
0.052581
3.75948e-08
-6.75527e-08
-0.000282314
3.16029e-08
-0.011809
0.00725996
-0.00132428
-1.65951e-07
7.77116e-05
-0.00144381
-0.0124616
0.00934186
1.69731e-05
0.000156543
0.139604
0.0415029
0.00092326
-7.77156e-05
4.99566e-06
-7.15762e-07
0.366272
0.00013257
-0.2306
1.87457e-05
-1.08001e-05
-0.0017955
0.00188793
2.11335e-06
1.42627e-06
0.00340098
-0.0121439
-0.0391512
-0.099379
0.000108759
-1.12353
-0.0334949
1.86984e-07
0.00022034
0.0427873
1.65699e-05
-0.000458401
-2.79846e-06
-0.0174713
3.16593e-08
-5.39569e-06
-8.90658e-06
2.86348e-06
-0.00482255
2.35753e-06
0.0492578
-1.69608e-07
-0.00175256
0.061631
-0.0128731
-9.19027e-06
0.000239721
-2.46919e-08
-0.0121006
-9.1442e-07
-7.6258e-06
0.17244
4.59431e-05
1.63993e-05
3.83458e-08
-0.0859562
-6.45691e-07
-0.00090606
-0.0923094
0.000952454
-1.21723e-09
-0.122135
0.0327278
0.0975001
-0.000250561
3.24087e-05
0.0090994
-0.00518169
7.25898e-05
0.0132424
-0.00026993
-0.0210021
-0.00470341
1.99797e-07
2.07148e-05
-0.00260007
0.0965415
-0.0323521
-5.51237e-07
-0.017628
-9.8476e-07
0.00146224
-0.00625592
2.27658e-05
-8.55784e-05
-0.00389023
2.99192e-06
-0.00796562
2.29785e-05
0.553592
-4.91146e-07
2.49213e-06
2.11895e-05
0.0529851
0.0343779
3.90921e-05
-1.34173e-07
-0.0116944
0.00169092
0.00185594
-8.07496e-05
0.0518289
0.0322386
2.11275e-05
8.49589e-05
0.463144
-1.1041e-06
8.05127e-08
0.00197249
0.0001904
-6.04486e-07
2.41563e-08
-8.0019e-07
9.65163e-09
5.1153e-05
1.22925e-08
0.044955
4.37984e-05
-1.31782e-07
0.0949742
0.0267259
3.98306e-06
-0.000350182
-0.0676031
-3.21622e-07
3.28561e-06
2.71133e-05
0.120271
0.225579
-0.000487249
5.45924e-08
0.0596194
-4.84265e-08
-0.000581752
-0.0386249
0.673122
6.74761e-06
0.70162
0.123326
0.0325461
0.000723484
-0.00784217
-0.00661954
0.00804671
0.182631
1.90134e-06
-0.0104466
0.2645
0.0116348
-0.0078446
3.09564e-07
-0.000371729
-1.3457e-05
-0.0434481
0.00875571
9.01563e-08
-1.16266e-07
1.52813e-05
0.0200406
0.0938858
-1.03883e-06
-0.0174729
-6.61197e-05
1.64212e-05
7.35768e-06
0.248472
-0.0107391
-0.00155678
-9.86349e-06
1.47297e-05
0.0904807
4.89358e-06
-0.00215605
2.18359e-05
2.66685e-05
0.000122448
-8.31043e-07
-8.65956e-08
-0.0052989
0.00212673
-0.00516936
0.335555
0.101923
-1.15152e-05
-0.0810761
0.00382964
2.72355e-07
0.707812
-0.000366615
0.00575167
1.57988e-05
0.000752776
-0.0249916
-0.776709
-0.00224637
-0.0231901
2.73506e-06
0.0137144
0.21728
2.38385e-05
-0.00980052
1.65199e-05
-0.106306
7.84254e-05
0.000114228
-0.00125679
0.00313224
5.33505e-07
1.95563e-05
0.000205214
7.68648e-05
7.2241e-07
7.32554e-05
-0.0628743
3.88392e-06
0.000223015
-0.00670882
1.14216e-05
-0.358414
0.000220283
0.223067
1.77486e-05
0.000550956
-0.0524234
-0.0130286
-9.37407e-05
-0.0420188
0.0903836
0.0114926
3.12309e-06
-0.00568576
9.23284e-06
0.000731926
-7.0365e-07
0.199501
-0.105069
-0.458737
1.47988e-05
-0.0032215
0.0210086
0.0363528
7.15576e-07
0.00690149
0.0136298
-0.242611
-0.000100584
-0.153771
1.39371e-06
4.5947e-08
-0.0184021
0.0269821
-7.20997e-07
1.18231e-05
0.000223582
2.96051e-07
-0.0917658
-0.000350633
-0.00104798
2.12441e-05
2.97847e-06
1.41921e-06
-1.23642
1.71819e-07
1.26327e-06
-0.1103
-0.0616687
-4.68603e-06
-0.0063134
-1.73228e-07
2.37454e-08
1.24377e-05
-0.00503989
0.000192334
7.19046e-07
6.36547e-06
0.00564395
7.99795e-06
0.224145
-1.64608e-07
3.13734e-05
0.0907604
-0.000372537
4.96752e-07
1.87431e-07
2.06801e-05
2.48769e-06
-0.0228105
-0.030911
3.25503e-05
-0.0976373
1.29746e-05
-7.38443e-07
0.0190087
-0.0146581
-0.000140406
4.16885e-06
0.0130178
-0.0005784
12.0451
4.29938e-06
1.58106e-05
-0.00438909
0.000106466
-0.00228995
0.0152893
-0.653046
-1.03846e-05
0.00315605
3.32219e-06
0.0900231
0.000227622
0.00208444
1.31875e-05
-9.61594e-06
-0.00184348
-0.000308711
6.2567e-08
0.0733679
0.021643
0.213044
0.0350668
-0.0565382
-0.027517
-0.00629191
-9.16357e-06
2.02033e-07
-0.081933
-8.55645e-07
9.2623e-07
-2.20066e-05
-0.0147498
1.06935e-05
1.45832e-06
0.00659968
-0.000106004
-3.26473e-07
-0.0506869
2.05782e-06
-0.027976
0.0157147
1.25277e-06
7.68224e-06
0.0129114
0.61024
-6.62834e-07
0.11544
-0.102522
1.3036e-06
0.0155783
-0.000595747
-0.00385804
-1.00342e-05
-0.120709
0.0485171
1.32594e-06
0.00382612
-3.68781e-06
2.06201e-06
-0.126006
-0.106105
-2.31737e-05
0.000196919
-7.93002e-07
0.000411218
-0.0392358
-0.0095682
1.34188e-06
-0.0261937
9.04834e-07
-3.93821e-06
-9.81323e-05
2.25827e-05
7.61219e-07
-1.01217e-05
0.0111816
0.00294095
0.00825607
9.54909e-06
-8.28565e-07
0.0527463
3.34596e-07
-0.00323824
3.59615e-05
8.64781e-05
2.76158e-05
0.0708101
0.0298899
1.87236e-05
0.0361043
6.49117e-06
-0.00026663
0.112186
0.0104259
-2.2263e-06
3.4261e-06
0.00872056
0.00512466
-0.0168703
0.000413847
-1.96875
2.10631e-05
7.33422e-05
0.273392
-0.0284423
0.00119454
-0.0120897
0.00461691
0.122297
5.15674e-07
0.0223488
-0.756241
-4.0724e-07
-0.124042
0.0217387
1.39871e-05
0.000163435
1.711e-06
-0.0384927
0.000868739
0.053855
7.41094e-07
1.49926e-08
-1.38327e-05
-0.000107159
-8.34754e-08
-0.0181591
2.6633e-08
0.00476047
-9.65663e-06
0.000744234
4.34646e-06
-3.78306e-07
0.000167914
-0.0263674
-0.000130965
-0.017372
1.7289e-05
2.76713e-07
2.00092e-07
-0.000254168
6.2711e-06
0.00064277
1.24811e-05
-0.000631961
-0.00314777
3.35379e-07
-0.0148468
-1.20876e-08
0.000978615
0.0190369
0.0616006
0.00295376
-0.0123845
0.000137653
0.0105352
0.0275145
1.4268e-06
-0.0195225
-5.45038e-05
1.90931e-05
0.0105633
0.214026
2.01477e-07
0.000917646
2.05629e-06
0.107017
-0.0703365
-4.39696e-06
0.00756089
-0.0801346
-1.17897e-08
-1.28526e-08
0.000623253
-0.00285978
-0.147856
3.1981e-06
-0.00150269
7.26413e-06
-4.11558e-07
-0.00982401
-0.00106455
0.00589509
6.94011e-07
-0.000105452
-0.000461808
0.000489103
2.28703e-06
-1.02657e-05
0.000988054
-1.19141e-06
-0.000585184
1.74029e-05
-3.29154e-05
-0.00244894
-0.110396
-0.00456853
0.0352603
0.0909325
-0.00216692
0.00814566
-0.000488828
-0.0872327
-0.00319812
-3.49517e-07
6.70021e-05
0.00660931
7.75451e-06
8.30945e-07
6.68842e-07
0.000803944
-0.0291944
3.38654e-05
-0.0753169
3.21594e-07
-0.113748
-0.00590155
-0.0837289
0.00116522
1.75726e-05
1.11579e-05
-0.065716
0.00478947
0.000230057
0.0271667
2.56165e-06
0.655222
0.000911302
0.00498112
1.18865e-05
0.0186747
1.42539e-06
1.34943e-09
-3.56116e-07
-3.92828e-07
0.104396
-4.8518e-09
-0.0186731
0.0510525
0.000390136
-0.00696336
0.00743117
0.00467379
0.00842556
0.000629986
5.08175e-08
2.13769e-06
-2.60939e-07
1.62564e-07
3.00527e-08
-0.000376346
-0.000932705
-0.00116915
0.35178
-8.48895e-06
0.0406376
-1.42279e-08
0.00650018
2.00703e-05
-2.67873e-08
7.09304e-08
0.0575328
1.86387e-05
0.0754096
0.0295471
0.000156288
-0.000216342
1.23687e-06
-0.0407246
-1.38193e-05
1.09975e-05
0.0177673
1.41651e-07
1.0016e-06
9.02582e-07
0.000233081
-0.0131775
1.82652e-05
9.47438e-06
0.00929999
-0.0147205
4.88096e-05
-8.35642e-06
0.123682
-2.65838e-07
0.121043
1.87918e-08
8.03425e-06
0.19726
0.000577417
0.00233096
-4.83157e-05
-0.000130274
5.21408e-08
-1.07399e-08
-0.000283392
1.56717e-06
1.91807e-08
3.50638e-05
0.00315222
-1.6716e-07
0.00433604
-0.548369
0.0969399
-0.000671923
-0.0623879
0.00144614
1.2502e-07
0.00274625
4.44165e-07
2.01024e-05
0.0399762
0.0950086
-0.0254642
0.124072
-4.54502e-06
-4.49314e-06
0.00230485
-9.32832e-06
-1.16666e-06
-0.0773356
0.000394292
0.0027042
0.00122718
0.000609349
-2.2971e-07
-6.59257e-07
-0.067368
-0.00109606
9.39074e-06
-1.51268e-08
0.00191
-0.00437028
-0.0836798
3.8824e-06
1.30673e-07
-0.0147102
2.15353e-06
1.8932e-05
3.00396e-07
-0.0163918
2.69099e-07
-0.00347241
-5.87408e-07
9.69949e-05
3.55519e-05
-0.000333692
9.9881e-06
3.67517e-06
1.23425e-05
-6.8138e-08
-0.0283554
2.59695e-06
-0.0229456
3.93727e-06
0.031662
0.0319777
1.62924e-05
-6.814e-08
-0.00374077
-0.046895
1.92398e-05
0.000569743
1.89913e-06
-0.0390041
8.9531e-08
0.00499879
-6.95202e-07
-8.13198e-08
0.0954178
2.84514e-05
1.32079e-07
4.69196e-05
-0.071412
-0.0885826
-0.0858864
-4.32655e-07
0.011896
-5.99955e-07
-1.50522e-07
2.7796e-06
-1.68151e-07
5.64388e-08
-0.051322
0.0382694
2.54524e-06
2.95866e-08
-3.66692e-05
-1.18947e-07
0.0188472
0.00027404
-0.0154874
-0.00357186
1.21133e-05
-0.000618695
-5.54997e-07
4.4332e-05
0.000973098
1.50062e-06
1.6451e-08
0.0725148
-0.0757707
-0.000113095
0.0331116
0.000352219
7.16783e-08
-4.17386e-05
0.00046952
-0.0240163
4.50952e-05
0.181247
-0.00131037
5.8066e-08
0.245812
0.299397
-0.00413439
0.35191
-0.12444
-1.05819e-05
0.00833086
1.0466e-06
0.545282
9.60089e-06
8.042e-08
-0.0871154
-9.22866e-06
-4.84098e-08
-2.53677e-06
-8.59315e-06
-0.0191432
0.00119988
6.77764e-07
-4.50745e-05
0.0796148
-2.73987e-06
0.0609981
-2.449e-07
0.000624042
-0.0873435
3.3647e-08
-0.0267389
2.16432e-05
1.2643e-05
-0.0385869
-8.63847e-06
-0.0182772
0.000529878
-0.0997196
2.55656e-06
-0.0304464
2.15412e-05
0.0341809
-0.0491149
-0.0399438
0.000174493
3.28766e-06
-4.63526e-06
-3.49966e-08
8.60826e-05
5.73261e-08
-0.0143767
2.11669e-05
-1.23939e-05
0.000219877
-1.04887e-05
-3.12129e-07
8.49987e-06
1.07797e-05
7.80415e-06
2.34015e-06
0.0348439
-0.0266397
2.70217e-05
0.000120181
-0.0707696
1.13663e-06
0.0268428
-4.00671e-07
0.000111659
2.82699e-06
-2.2878e-06
9.61806e-05
-9.36865e-07
6.23161e-07
-0.00419565
6.70225e-07
0.00319548
5.37156e-06
-0.0957713
0.0325614
-0.00949964
-0.00239156
1.85989e-06
-0.0123239
-0.00464878
5.87563e-08
9.90181e-06
2.91702e-06
0.041006
1.85187e-07
-0.00294689
0.663164
-0.0168387
0.000376174
1.48118e-07
0.0819487
0.681481
-0.0817921
2.4971e-05
2.21213e-07
1.47633e-06
-0.000510389
2.55561e-06
0.0574555
-0.00335562
2.55095e-07
0.00381204
0.00529444
7.37481e-07
0.0387929
0.00524975
0.00151958
3.73463e-06
0.0883714
-0.000378589
-4.18781e-07
-0.0204815
-1.48762e-05
3.09756e-07
2.30636e-06
6.50817e-05
0.000108508
0.0469998
0.0113398
0.000171156
0.0504262
8.65355e-05
3.45316e-07
0.0169047
5.57464e-07
0.519226
1.34507e-06
-1.09571e-08
-1.3005e-05
1.46952e-06
0.0478278
-0.0356117
0.00103849
0.0263376
0.0427048
-8.1048e-06
4.06792e-06
5.3682e-06
-0.0201323
1.50555e-06
-4.69592e-08
-2.04992e-05
0.00812977
-0.00932939
4.78263e-07
0.000209312
9.40282e-06
-0.004028
0.171861
1.24131e-06
7.3026e-07
7.25691e-06
-0.866683
3.44325e-05
-0.0495004
-1.00421e-05
1.27167e-07
4.10919e-07
2.2834e-06
-7.4538e-06
0.00259163
0.126942
0.0573597
0.000579568
-8.35984e-07
-0.879263
2.50438e-06
0.00252964
0.0321729
0.000342206
-0.0248578
0.104963
-0.0227382
0.000354194
4.66287e-05
0.0251827
2.69706e-05
2.04413e-05
0.00700122
0.00883213
-3.72918e-08
-0.112533
9.68215e-07
0.0383363
-0.659207
-4.20131e-07
-1.00795e-05
2.01422e-05
0.00110457
4.12388e-05
9.55952e-08
3.62496e-05
2.13179e-07
1.93785e-05
0.0661412
3.0279e-07
-0.0203939
-0.018836
1.20599e-06
4.37749e-05
0.00012323
-3.06743e-07
0.0840073
-0.0563244
-0.0096714
0.00322091
-8.31727e-07
-3.50697e-06
1.32971e-05
4.78646e-06
-0.00222947
4.74152e-05
-1.00304e-08
0.000388581
-7.81606e-06
0.00511634
4.71854e-05
0.239326
3.20691e-07
-4.61657e-06
0.000567163
-0.00117547
-0.000653533
2.55459e-06
0.034004
0.0242493
-0.308049
-0.0232029
0.0316824
0.0499737
0.0448999
1.91239e-06
-9.9094e-07
1.27499e-06
-0.0155268
0.000210125
-0.000535441
0.0771632
2.43862e-06
-2.90696e-07
-8.80635e-07
-0.00400847
3.54863e-08
2.42028e-05
-1.14496e-05
-0.0983604
-2.20085e-06
4.44684e-07
-3.82762e-07
2.44754e-06
2.37814e-08
-0.000141536
-0.0016786
0.000117542
-0.0798558
-1.2976e-06
2.29744e-06
-0.0222503
0.0252733
-0.0216265
-0.0153601
0.000235163
-0.135481
2.13674e-07
0.00187111
-4.8068e-06
-4.97873e-07
8.42304e-06
-0.0112964
5.98539e-06
-0.00138421
0.849294
2.23008e-06
-2.14948e-06
-8.02055e-06
0.00457126
-2.21457e-08
-0.107352
1.32986e-06
-0.00521942
3.6776e-08
2.55461e-06
1.97497e-05
-0.00399628
3.8561e-06
0.0190166
0.00753916
-0.0017556
-0.0160227
1.0261e-06
-0.023878
0.139098
-1.16707e-06
-0.732621
5.03054e-06
-0.000335014
3.99286e-06
1.94713e-06
-1.24484e-07
-2.32897e-07
-6.32806e-06
0.000100588
0.000167948
5.36491e-07
-8.46447e-08
-0.00948688
6.02217e-07
0.125483
2.13945e-08
2.02077e-05
8.056e-05
0.0381203
0.0503422
3.05892e-07
0.00209346
2.74859e-07
3.637e-05
-0.0014395
0.0106832
0.00019504
-2.0997e-08
0.000105695
0.000946434
0.000702168
-0.152782
4.0965e-05
-0.00250348
0.000415642
0.000368513
-1.96244e-06
-6.09211e-07
0.109979
-0.00985428
6.45242e-06
-4.14826e-07
0.116098
3.68778e-07
7.92544e-06
2.42679e-07
0.000729675
-0.212726
2.7373e-07
0.0642103
1.77925e-05
1.02781e-07
-0.00140765
7.70391e-08
-0.000121234
0.0109093
-1.61902e-05
0.110024
-8.07877e-08
-2.76531e-08
-0.00686784
1.02388e-07
1.96965e-09
3.43553e-05
2.09976e-05
4.20358e-05
0.00112539
4.44744e-06
0.000157146
-8.11415e-07
-6.30735e-07
1.46731e-07
-9.67723e-07
0.0581374
1.09184e-06
-1.59444e-06
-0.0019431
2.74204e-07
-4.00585e-07
0.0516295
-5.99408e-10
-0.140115
6.19604e-06
0.0540648
-0.00753928
0.0010654
0.0579444
-0.000178444
-0.00917864
2.88664e-06
-0.00573791
1.5579e-05
-4.75735e-07
4.53914e-07
-3.01774e-07
3.02073e-05
2.21383e-06
4.05605e-05
4.98662e-07
-3.55813e-06
0.200671
-0.0873168
-0.2214
8.86686e-06
0.00661199
0.0233015
0.0350043
3.62389e-07
2.22229e-05
-0.0458531
2.10449e-06
1.31051e-05
0.893114
0.061068
3.02035e-05
0.000170913
-8.90025e-06
0.00555534
-4.02538e-08
0.000435321
-0.0774393
4.23512e-06
-3.25894e-07
0.140463
-8.48035e-05
0.00498316
-0.033757
0.000763833
3.36598e-06
4.47885e-07
2.57636e-06
-0.0186527
-1.34748
-0.0657834
-7.49702e-05
-2.50001e-07
-0.00410417
1.45399e-08
-0.00550823
0.00022185
5.88186e-06
2.87991e-05
-8.16031e-07
0.0317532
0.0225433
3.93237e-07
-0.000338626
0.000208448
0.254891
-1.27453e-05
0.00041482
0.000928454
8.55322e-05
-0.0112412
0.000422458
1.68051e-08
0.000110032
0.0128392
-0.102926
-9.56529e-07
0.0743647
-3.29622e-05
0.000476327
-2.3031e-08
0.0914744
2.03124e-05
-1.06611e-05
-1.19678e-06
-3.23755e-05
-1.40873e-05
0.000598343
1.36741e-07
-8.23214e-06
0.000922159
0.00303975
-0.000207423
2.98068e-07
3.33369e-06
0.000109653
0.00353451
3.9068e-07
0.000199296
0.612804
-0.0002239
0.052782
0.000101778
-0.0211144
-0.0116946
2.23511e-06
-0.584998
-1.18545e-09
-3.60153e-06
7.25688e-05
3.77627e-05
-0.00103455
0.000232839
0.000255525
0.0001059
1.39885e-05
-1.27046e-05
7.46506e-08
-0.00584664
1.67892e-05
-7.86848e-06
0.205086
6.46262e-06
-0.000405264
1.03574e-06
-0.0189009
0.00104576
4.45982e-06
1.2547e-05
6.13902e-07
0.114724
-0.00107457
7.17849e-05
0.105279
0.115226
0.0881597
-0.00136296
-0.0267137
9.32527e-07
0.000895778
5.39936e-08
6.17149e-05
0.426856
0.0770544
-0.00797296
0.0188172
9.76841e-08
0.211791
8.87762e-07
0.000413755
-1.46721e-05
-0.180215
-0.0747343
6.40795e-06
1.3557e-09
-0.00926748
-0.00283889
-1.10681e-06
-0.00541009
-1.92657e-07
-1.06579e-05
1.66539e-05
3.62854e-06
1.48685e-05
5.27569e-07
7.41143e-08
3.24064e-06
0.0214811
7.69833e-05
-0.000198111
-1.08083e-06
-0.0096577
0.0854216
-9.49784e-08
0.0143879
-1.48831e-05
-6.42987e-06
-0.0513336
-1.03973e-07
-1.86452e-06
-1.82668e-05
-0.00705082
-1.16045e-06
9.03525e-08
4.35538e-08
-0.0765976
-1.00384e-07
-2.26229e-05
-3.36375e-05
0.554568
-8.69381e-05
-1.44559e-05
0.00653652
-1.54814e-07
-0.00560562
-4.29586e-07
0.0584408
1.16286e-05
-7.52228e-07
1.86046e-05
-0.00112697
1.13249e-07
2.05559e-06
-0.0038707
0.119588
2.41376e-06
0.0313991
1.82482e-07
-4.45692e-07
-0.000390757
-9.10078e-07
1.05546e-06
0.0291494
-3.54965e-08
3.44303e-05
-0.00120623
0.0467858
0.300629
1.60585e-06
1.70057e-06
-1.0088e-05
-8.70278e-08
2.83834e-06
-1.97485e-07
-0.457076
2.38465e-07
-0.0215654
0.00143202
-3.78612e-07
5.20846e-07
1.79272e-05
0.00146382
0.00684395
0.00394057
-0.000157694
-1.05624e-05
0.0456319
0.0013395
2.80107e-05
0.000149012
0.000181273
-0.00100033
-0.425805
9.41615e-05
-0.0133879
0.0579158
0.0782869
1.24263e-05
-1.0765e-06
8.91076e-06
0.000593429
3.19767e-07
2.54402e-06
-0.00234714
3.20472e-09
-3.70543e-06
-9.20988e-07
7.15531e-07
7.14505e-06
1.34742e-06
-0.0315879
-1.52746e-08
0.133089
-4.47575e-08
0.0047988
4.29993e-07
0.00141293
0.00271126
3.22361e-06
0.0359454
1.80615e-06
8.94561e-08
0.000100085
-6.58572e-07
8.40141e-06
6.59514e-07
0.132494
-6.48646e-06
-6.13743e-05
-0.00361667
0.0409192
-4.1877e-05
-0.0306754
-0.254759
-9.27095e-05
1.71666e-06
6.23876e-06
3.4752e-05
-0.00030532
-0.0548766
-5.96752e-07
-0.0274265
-1.68802e-06
-0.00785527
0.221944
4.70262e-05
-0.231407
-3.20813e-06
2.21018e-05
-1.32379e-05
0.0166423
2.62529e-05
4.03699e-08
3.29492e-05
-0.00106257
-8.75667e-08
-1.2913e-06
1.09047e-07
-0.00544467
-3.57054e-08
-1.19683e-06
0.00258485
-1.47853e-05
2.82305e-06
-0.000902925
-3.07361e-06
0.0512375
-2.78297e-07
6.09346e-07
4.7864e-07
-3.82971e-05
2.76935e-06
1.67078e-06
0.000362381
0.0254127
2.67463e-06
-1.23729e-08
-0.047992
2.48269e-06
0.0600144
7.68856e-07
0.0995655
-1.16582e-06
-1.35274e-05
2.53288e-07
-0.00106534
-0.0023372
-0.00043053
0.000515255
0.000569476
1.00457e-06
1.36867e-08
0.131157
4.95726e-08
0.000425124
1.47381e-07
0.000137999
2.92968e-07
-0.0736161
3.87504e-07
0.000203331
-5.8038e-09
-0.0211155
-0.0241694
-6.16162e-07
0.000148067
-0.00980081
0.000400331
-0.0774967
-0.3249
0.00520276
-7.55559e-07
1.37866e-05
-0.00155506
0.391179
2.00001e-06
0.000109776
-1.11857e-05
-1.54187e-06
-0.0222179
-0.0700294
0.000102329
-0.00421453
-0.00917409
-2.13313e-05
0.05181
3.06154e-07
-6.52243e-07
-0.00205318
0.0403787
0.00381178
-0.0053659
0.702069
1.72655e-07
0.0660496
0.0204793
0.153827
5.01035e-08
-0.0380862
-0.0192769
-0.061388
-0.205418
0.0292978
0.00044114
1.46083e-05
0.00178374
5.76532e-05
1.73816e-06
-0.183173
-0.000139479
2.641e-07
0.0469745
2.87261e-07
0.000723951
7.59418e-05
-1.35368e-05
-0.449637
0.000436117
0.000481724
0.000194509
-0.000264407
0.129424
-0.0547045
-0.00418238
1.60975e-06
-6.73554e-06
-0.00036276
0.00434146
3.4352e-07
-7.83269e-05
0.00105015
-0.000859272
3.10868e-06
0.00475799
-1.19175e-05
0.000313998
-0.0948515
-0.0101345
8.07696e-07
0.000114907
-0.015349
4.38455e-06
-8.7651e-06
0.183622
0.0028946
6.59116e-06
1.31333e-05
-1.73007e-07
-0.00087602
1.6632e-05
0.11812
-0.000560641
2.43975e-06
1.16823e-08
0.00350985
-1.20745e-05
0.294573
-0.0673184
6.35137e-08
-1.13374e-06
1.2497e-05
1.54682e-07
1.10963e-05
-8.99923e-06
3.61798e-06
-6.85866e-06
2.34997e-06
-1.322e-05
2.64443e-06
0.000238916
0.500457
-1.6955e-08
-0.086282
-0.0334352
-4.80585e-07
-0.0153638
-0.0004599
-0.000163319
-1.82937e-06
2.35862e-05
2.09416e-05
-0.00590982
3.0644e-05
-2.19071e-07
2.10273e-08
-0.0405955
8.52382e-06
0.0793412
-6.96247e-07
-7.24292e-07
-1.00409e-06
-0.000343346
2.56713e-06
-7.66393e-05
0.000377817
0.00304778
1.05597e-06
-0.0177904
-0.835522
0.0166023
1.63371e-07
0.00105892
0.0481413
-1.04689
0.205444
1.61693e-06
-5.38691e-06
0.000449497
0.869367
0.180464
3.0637e-05
0.0145705
-1.07551e-09
-5.68051e-08
3.26646e-05
2.20496e-07
9.0271e-07
-0.000349144
-2.78504e-08
-0.00831446
-1.19681e-06
-0.10403
-0.0763823
-0.000939065
-0.0992878
0.0224967
2.85045e-06
3.3355e-07
0.0399597
-5.76403e-07
-6.96e-07
-4.53419e-07
-0.0015457
-0.0784516
-0.0462375
-1.33534e-05
2.27149e-06
-4.76174e-06
1.33178e-05
-0.0176124
-4.38399e-08
-0.285697
-0.105548
3.03132e-07
1.29087e-07
0.013957
0.000442957
5.27962e-06
-1.31541e-06
-0.0787631
0.00433044
9.78039e-07
0.00151942
-1.31102e-08
0.0186963
-0.142514
1.66781e-06
0.253905
0.0616057
-0.0621154
-1.10154e-06
2.08516e-06
3.21412e-09
-5.02253e-09
0.014387
1.19514e-06
-0.00125613
-0.0336166
-0.0761331
4.00145e-06
0.000137533
0.143944
-0.000125325
0.0525405
0.0194746
-6.82582e-08
1.74441e-05
1.80518e-05
0.0003798
0.0472493
7.00904e-07
-0.0172538
0.00026204
0.000171036
-1.22691e-06
-1.01943e-07
-0.00748753
3.74677e-05
0.0212057
2.09883e-07
-0.000133334
2.50094e-06
0.00196829
1.07746e-05
0.0316341
0.249394
0.00309531
0.000735389
3.25754e-06
-1.2356e-05
9.6716e-05
-0.0284755
0.0503073
0.00762863
1.01045e-07
-0.190148
-0.00496452
0.0111313
4.49985e-06
-6.04369e-05
-3.84453e-05
6.93518e-08
-0.0680383
-6.01713e-07
3.26903e-05
-0.010917
-0.115822
0.254938
-0.0770307
3.24186e-06
-3.71701e-05
-5.35468e-08
-0.0959356
-9.23152e-06
-0.0441686
4.37385e-08
0.0508125
3.97512e-07
-7.43875e-07
2.65758e-05
1.32667e-05
-7.38669e-06
1.5412e-06
0.0266933
0.000201967
1.31875e-06
2.06807e-05
0.00600216
-0.0241748
6.6842e-07
0.0351038
-4.36364e-06
9.04085e-05
6.44549e-05
-3.87243e-07
-0.000184863
-5.78406e-07
0.330099
0.00195194
1.67465e-05
-1.12407e-06
0.00880771
-3.46348e-05
1.28515e-07
-0.0371973
-1.09723
-0.00938934
2.27756e-07
0.619494
2.78588e-07
-0.00141567
2.95419e-05
0.00458681
0.827466
0.021562
0.00145394
-0.0661986
6.25582e-05
-0.000538066
-1.01339e-07
-0.0361801
-0.00329035
-2.71497e-06
-0.0116281
5.68682e-10
-0.149218
-0.00165968
-0.00402342
-0.008687
0.0135818
0.0254
0.64693
-0.029813
9.07435e-05
2.19195e-05
-1.90432e-07
3.19724e-07
6.86675e-07
8.1799e-06
1.60709e-05
0.00150896
0.00146334
2.06952e-06
3.85292e-07
0.000175285
-0.00287989
2.48083e-05
-1.79408e-07
-0.0367375
1.03861e-05
0.000233376
3.34706e-07
-0.0260342
-1.35732e-05
-0.0631914
0.00282492
1.59362e-05
-1.20845e-06
-3.26535e-07
-0.00192599
0.0935429
-0.000335074
1.87335e-06
-3.96396e-08
-0.0366044
0.0237445
0.0974306
3.33006e-07
-0.000388219
0.525662
1.37725e-06
-4.14927e-07
-3.7774e-06
-0.054535
0.00144948
2.07441e-05
1.08381e-05
2.10637e-05
0.0432593
0.000141959
-0.00900794
1.43685e-05
2.58858e-05
7.1044e-07
0.00549525
4.27182e-05
4.80931e-07
0.128984
0.0186301
-0.0568983
0.110892
-0.00984888
0.192151
0.0396663
5.43974e-07
1.21835e-06
0.0088797
-0.0228856
-0.049937
2.10633e-06
1.9857e-05
-2.71233e-07
2.78713e-06
-0.381638
-0.119951
-2.43504e-05
-7.81832e-07
0.0121291
-0.00114517
-8.09967e-05
0.047934
-0.46185
0.0136131
-5.6798e-08
0.0263585
-0.720067
0.0143511
6.78018e-05
-7.71377e-06
1.69659e-06
7.71493e-07
-2.05063e-05
-7.94281e-05
-6.16161e-06
0.000151978
2.50779e-05
-1.21105e-05
-0.0106651
0.0164235
-2.31861e-05
0.000184293
0.0148083
-0.00633216
4.09652e-08
-0.0372387
0.0302066
-0.0304023
-3.86237e-05
5.35205e-07
2.46064e-05
1.31786e-05
-1.20708e-05
-4.23323e-07
-5.48736e-05
5.81818e-05
0.000196571
0.0088184
5.76245e-09
-1.99839e-06
0.0257587
0.117379
-0.0357485
0.107695
-0.000376956
2.24933e-07
-5.14668e-07
1.9939e-05
-1.09185e-07
-0.0111295
-5.96595e-07
-4.28858e-08
-5.14031e-07
0.1267
0.126699
3.44276e-06
0.000302734
1.068e-05
6.60713e-05
1.72019e-05
0.000649036
6.03459e-05
2.37688e-05
0.0288989
1.95598e-05
0.00655759
4.28707e-06
-0.0178839
1.98071e-05
-9.54417e-08
-3.77105e-08
-0.000136795
-0.00429137
3.27931e-07
0.00050107
1.73561e-05
-8.00921e-05
-0.114059
0.263151
0.0612223
-3.7052e-08
0.517073
-0.000163935
6.88348e-05
-1.21484e-06
-0.000248396
-1.18253e-05
-0.0210282
-0.0212375
8.21113e-05
-5.35219e-07
0.124617
-9.21879e-06
-0.000799504
0.00445879
-0.0154949
-1.04501e-05
-0.000765555
0.0683322
-0.537842
0.0342361
-0.000197445
-1.97348e-06
2.25263e-05
7.08629e-07
0.214315
-1.17199e-05
1.73324e-05
0.00941907
-0.00332088
-1.71278e-06
2.21976e-06
0.000411754
-6.79525e-05
0.224464
-0.000642062
-1.10642e-06
-7.37551e-05
-0.0029391
0.000852363
-0.0431516
5.32861e-05
-0.0961957
1.26513e-05
2.63423e-08
1.41413e-06
0.00617324
2.60936e-06
0.00522432
3.06367e-07
-2.82543e-06
0.00773805
2.15779e-05
-4.11489e-07
-7.63508e-07
8.82846e-06
-0.414117
0.000178007
-3.17656e-05
-1.37856e-05
-0.000110485
3.72449e-06
0.00848027
1.92218e-05
-8.53892e-06
0.00848893
1.26681e-05
0.000466482
-0.000450304
5.29921e-07
0.000257945
-0.188715
0.0037006
1.8346e-06
-0.156525
0.00784118
3.25963e-06
2.45873e-06
0.0225225
0.0440491
-0.000204411
0.016319
-0.0101552
2.00966e-06
0.000699731
6.25429e-07
1.89553e-05
-0.000208159
0.260636
0.0190924
-0.00661457
0.053245
0.120853
0.0107609
6.06854e-06
0.0263205
-9.97607e-07
-0.666493
-0.000425009
-1.12538e-07
6.71902e-08
0.00377304
1.57999e-06
-4.35115e-07
-0.042484
0.0448016
-0.00275827
2.0825e-05
0.0133802
7.15756e-08
0.10047
0.0182172
6.78736e-08
0.0073239
-0.46235
-0.0170854
0.0240452
0.0248062
0.00138486
8.1902e-07
2.76973e-07
-0.00020017
4.47887e-05
-5.19644e-07
-0.00245906
-1.21069e-06
0.0286749
-0.00405442
0.000170299
0.00904062
0.0348867
0.00596269
-0.00746345
-0.00456617
-0.0312484
0.0267443
1.52622e-05
1.84424e-07
-0.338947
1.42737e-05
-6.42609e-07
0.0741511
2.74834e-06
-0.145468
1.8703e-06
-0.115794
1.69985e-05
1.67134e-06
15.9295
3.13508e-05
0.000260841
-0.0129846
0.0599717
0.424341
3.16629e-05
0.000177024
-5.95725e-06
0.000142244
-0.00420406
0.000152852
7.00569e-08
0.0248292
-0.000260463
5.45867e-05
0.00514686
-1.80809e-05
0.000168555
0.00175551
-0.000353822
0.000215258
1.83625e-06
-0.00195002
-1.8149e-07
-0.000450892
-0.0257312
0.0230591
4.63742e-07
1.12949e-06
0.0207147
6.6624e-06
-0.000177849
4.82933e-05
-2.18612e-06
-0.0100183
-0.000231469
-6.16941e-07
-0.110108
4.07885e-07
0.128478
2.2348e-07
6.40253e-06
-0.000735174
0.107598
4.51797e-06
-0.0359848
0.0024009
6.02694e-05
1.16296e-06
0.00117837
-4.02129e-05
-0.00558327
-7.09626e-06
-1.48585
-0.00521896
5.61529e-05
1.89096e-05
0.000816785
-2.84076e-05
4.7029e-05
-0.000121506
0.000357731
8.35429e-06
2.22415e-06
0.116715
3.00636e-06
2.12422e-05
4.90373e-07
0.000828815
1.92479e-05
2.34802e-05
0.0395938
8.28694e-07
0.000461656
2.61344e-07
2.97052e-06
2.64245e-07
1.20397e-07
1.8524e-05
7.28845e-07
0.00066286
0.0268234
0.000193955
-2.69458e-05
1.47187e-05
-3.26621e-06
-0.0122346
3.61702e-06
0.0700942
-0.0229321
-0.00865781
-0.00124857
3.1387e-05
2.52543e-05
3.60653e-07
-1.77496e-05
-0.00546372
-7.74297e-05
-0.00675194
0.000266406
0.0795647
-0.00212237
4.08991e-08
3.71301e-07
0.00472921
2.31039e-06
3.45676e-05
0.00734941
-0.00637408
6.30605e-06
-0.0157558
1.48009e-07
4.88894e-06
-2.03463e-07
9.33764e-09
0.000927227
-0.000426457
-3.9821e-06
6.86198e-05
-0.0042376
4.83251e-05
0.000357804
0.0054184
0.0110964
0.00738331
-0.000751426
4.89063e-06
-1.49867e-06
0.000339033
0.103525
0.0634379
0.104942
6.22013e-05
0.0222766
-0.000192749
5.46345e-06
-6.23345e-07
0.000468868
3.6627e-07
6.03614e-05
0.0190958
2.14382e-06
-2.7066e-07
-0.0116841
-0.264781
0.000233609
-0.0225937
2.57068e-06
-0.010164
-1.76169e-05
-0.0221032
-0.000198183
2.54471e-06
0.0941697
-0.010479
2.32848e-06
0.00314759
-2.29379e-08
-0.00219031
1.65625e-05
-0.00604812
0.0317521
0.00107959
-0.0673423
1.36713e-06
0.0649153
4.02228e-06
1.74463e-05
-6.76774e-06
-4.88343e-05
1.28221e-07
-0.000123062
0.129544
-0.0834387
-0.000124335
4.53602e-05
0.0014926
-1.91873e-06
9.71542e-08
5.71078e-06
-0.300203
1.62257e-05
-0.133923
0.064073
0.00642741
1.61314e-07
-0.00191039
0.00576083
-0.00164466
6.23176e-06
0.0175166
3.35898e-06
3.65966e-07
2.86499e-06
-1.1635
-1.64439e-07
3.14454e-06
0.111489
1.48865e-06
-0.00374963
-0.000172865
1.27846e-06
0.0529939
1.33652e-05
-0.11466
-1.86178e-06
1.22883
-3.60354e-06
0.00944093
0.299408
-0.000317333
2.1549e-06
2.39873e-05
0.0628122
5.76725e-05
0.00284899
2.67759e-05
1.08512e-05
-0.00248869
-8.74242e-05
2.47776e-06
0.0977245
1.85083e-05
2.4496e-05
2.66949e-05
2.87538e-06
-4.84454e-07
4.40779e-08
2.81802e-05
4.36032e-06
-1.44563e-05
-0.077253
-0.32513
0.00185336
-0.0173561
0.000450676
4.50906e-05
0.000858246
0.0459277
3.16318e-06
-0.0438951
0.152729
0.0204472
-0.126124
1.5595e-05
0.0528339
0.0774839
0.0187842
-0.428215
0.044226
3.06803e-05
-0.00100917
-3.6851e-05
1.67523e-05
1.94975e-06
-0.461248
-3.20972e-08
0.0115001
0.00814981
0.00357559
3.07571e-07
0.000374499
-0.000381795
6.498e-07
-7.80133e-09
5.25344e-08
0.00944378
7.42945e-06
2.21677e-06
0.000152692
-0.00851522
1.07774e-05
0.00446795
3.54717e-07
0.0141849
-0.00520189
4.3457e-06
-1.23041e-05
4.97583e-07
-0.111001
0.0531942
-0.00579228
-0.0166005
-4.15976e-05
-0.00114415