/*--------------------------------*- C++ -*----------------------------------*\
| =========                 |                                                 |
| \\      /  F ield         | OpenFOAM: The Open Source CFD Toolbox           |
|  \\    /   O peration     | Version:  v2012                                 |
|   \\  /    A nd           | Website:  www.openfoam.com                      |
|    \\/     M anipulation  |                                                 |
\*---------------------------------------------------------------------------*/
FoamFile
{
    version     2.0;
    format      ascii;
    class       volVectorField;
    location    "200";
    object      ddtCorrDdt0(U);
}
// * * * * * * * * * * * * * * * * * * * * * * * * * * * * * * * * * * * * * //

dimensions      [0 1 -2 0 0 0 0];


internalField   nonuniform List<vector> 
13851
(
(0.0055638 -0.00124494 7.30171e-22)
(0.000114339 -4.77533e-05 0)
(0.000111024 -4.5689e-05 0)
(0.000461254 0.00366828 0)
(7.79079e-06 -5.16776e-06 1.66414e-22)
(0.000100147 -2.40648e-05 2.56756e-21)
(-1.3772e-05 0.000284025 8.39439e-21)
(2.64742e-05 9.99949e-07 0)
(-0.00994641 -0.0016807 4.14808e-21)
(1.24759e-05 -9.56432e-06 -1.48106e-22)
(-0.000128508 0.000722061 0)
(1.81005e-05 -9.76764e-05 3.55481e-22)
(1.98951e-05 -3.82335e-05 1.55901e-23)
(-0.0137595 -8.0837e-05 -2.37132e-21)
(0.000571437 -2.31544e-05 -2.77137e-21)
(-0.00329079 0.00569538 0)
(-0.00598693 0.000947914 0)
(4.48715e-05 7.76985e-05 -2.8631e-23)
(-0.0110516 0.000528408 0)
(0.00525515 -0.00164472 -1.97281e-21)
(0.000579263 -0.000350829 -2.51697e-21)
(0.00015028 0.000104767 -1.43911e-21)
(-0.0099306 0.000694476 1.44523e-21)
(-2.32249e-06 5.94555e-06 0)
(0.00220432 -0.0135388 -1.5495e-21)
(-0.000595201 0.00159241 6.01596e-21)
(0.00252341 0.00152151 3.53058e-21)
(-0.00915066 -0.0273132 -4.32629e-21)
(-0.00679009 0.00919584 -1.35873e-21)
(3.75561e-05 5.14538e-05 0)
(-0.00812487 -0.00561608 -1.12053e-21)
(2.5306e-06 0.000263917 -2.72632e-21)
(0.00496984 0.000507659 3.45423e-22)
(-0.0122983 -0.00164403 2.33155e-23)
(-4.53279e-05 0.000277119 6.6649e-22)
(-0.00200019 0.010749 0)
(-1.34308e-06 5.6349e-06 0)
(0.0117227 0.0113288 -3.06106e-22)
(0.00152221 -0.000955997 -6.8776e-21)
(6.77109e-05 -0.000150175 1.57325e-21)
(0.000913577 -0.010462 -3.66744e-21)
(-0.00616614 0.0101818 1.34239e-21)
(-0.00519421 -0.000363934 0)
(0.00117795 -0.000511533 0)
(-0.00818896 0.00733013 0)
(4.60456e-05 -9.65715e-05 -9.27212e-22)
(1.32242e-05 4.99204e-06 3.06477e-21)
(0.000775924 0.00512431 -8.73218e-24)
(0.000101723 0.000118212 2.40528e-21)
(2.61252e-05 -3.29023e-05 0)
(0.00735192 0.0009073 7.53251e-21)
(7.21042e-06 -6.18149e-05 -4.85353e-23)
(-0.00267041 0.00554984 0)
(0.000112743 0.000465461 -2.81093e-21)
(-0.0158638 -0.000201244 4.89031e-21)
(6.60355e-05 -0.000153461 -1.40931e-21)
(0.00535466 0.000328568 0)
(0.00211231 -0.00961048 4.91618e-21)
(0.00829327 0.00853396 0)
(-0.00723595 -0.00168386 -7.08596e-22)
(1.48333e-05 -0.000104433 -1.01905e-21)
(0.00307572 0.00226046 -5.75758e-21)
(-1.97308e-06 -0.000172845 0)
(0.000107011 0.000124023 1.61145e-21)
(0.000180312 -0.000534459 1.80724e-24)
(0.000142538 -0.000565106 -2.19106e-24)
(-0.00744105 -0.00126244 -5.3572e-22)
(-1.89808e-05 -0.000204961 -4.503e-22)
(8.3023e-05 -4.76241e-05 -1.3486e-21)
(0.00523179 -9.72196e-07 -2.13443e-21)
(-0.0106389 0.00145253 -7.31109e-22)
(0.000700446 -0.000648931 1.38869e-23)
(3.40551e-05 -3.92256e-05 -2.84324e-22)
(-0.00854885 -0.00118464 0)
(0.000243349 0.000410814 -2.79877e-21)
(0.000119153 2.17412e-05 0)
(-0.00639181 0.00158615 8.93205e-22)
(1.2291e-05 2.33572e-05 1.73203e-21)
(-0.00132485 -0.0158132 -1.2434e-21)
(2.46012e-05 3.26206e-05 2.1299e-21)
(8.24845e-05 -3.40222e-05 0)
(-0.00795224 0.00540343 3.81096e-21)
(-2.56516e-05 0.000266481 0)
(-0.0131366 -0.000241962 3.20587e-21)
(-0.0083514 -0.00147194 4.59052e-22)
(-0.010408 -0.00282247 0)
(0.000153112 0.000111661 1.59134e-21)
(-0.00607488 0.00193165 1.68215e-23)
(1.80293e-05 3.06069e-05 3.56067e-24)
(-0.00738007 -0.00642791 0)
(1.19079e-05 -7.84228e-05 -3.76958e-23)
(1.47063e-05 0.000264146 -1.03594e-20)
(0.00255775 -3.85572e-07 -7.55232e-21)
(-0.00943828 -0.00302791 6.48446e-22)
(0.00237859 0.00373395 -5.60245e-21)
(0.000839041 -0.000341075 2.00839e-21)
(4.1281e-05 -9.73809e-05 2.32579e-21)
(-0.000635933 0.00601483 0)
(0.011651 -0.000353821 -6.08431e-22)
(0.00334745 6.28523e-05 -1.72322e-21)
(-0.000116188 0.00627414 0)
(3.6988e-05 -0.000185055 1.31481e-22)
(4.25045e-05 -0.000196543 4.28914e-23)
(4.10996e-05 -7.81033e-05 0)
(5.30787e-05 -6.42893e-05 0)
(0.000224792 -0.000664616 -1.5256e-21)
(5.39564e-05 -7.01256e-05 -1.85341e-21)
(-0.0109666 0.000983327 8.16204e-22)
(2.60193e-05 0.000243994 5.66968e-21)
(4.30517e-05 7.6613e-05 -1.01285e-21)
(0.000219615 4.65431e-05 -4.6859e-22)
(4.85394e-05 -9.40774e-05 0)
(-0.000451592 -0.000552754 0)
(-0.000557903 -0.000190727 0)
(0.00361584 0.00249888 -1.73933e-21)
(0.00011517 0.000444853 6.996e-21)
(3.43882e-05 -1.36127e-05 -1.90206e-21)
(2.47055e-05 2.11057e-06 -2.41573e-21)
(-0.000492243 0.00325599 5.95566e-23)
(0.00553631 0.000539052 -8.23258e-22)
(0.00043296 -2.13937e-05 -1.87954e-21)
(3.7813e-05 8.14531e-05 3.12542e-22)
(8.11552e-05 -9.91247e-05 -8.69264e-22)
(-0.00838508 -0.00268947 -3.46094e-22)
(-0.00441689 -0.0112528 8.83841e-24)
(-5.97591e-05 -0.000223423 0)
(4.30035e-05 -9.34277e-05 -3.05329e-21)
(0.000563195 0.000387509 0)
(-0.00834553 -0.00500128 -1.66552e-21)
(0.000888141 -0.000192736 4.35964e-22)
(0.000156285 9.42997e-05 1.89194e-22)
(5.57458e-05 8.92151e-05 0)
(0.0169294 0.0121948 2.0091e-21)
(-0.0113567 -0.00166111 -1.26594e-21)
(-0.000234267 0.000748177 0)
(0.00107012 0.00232608 -2.1624e-21)
(-9.09877e-06 -0.000189288 -3.47061e-22)
(-0.01067 -0.00159253 1.19127e-22)
(6.92647e-05 -0.000180451 -1.39656e-22)
(0.000892867 2.95231e-05 -3.17211e-21)
(-0.00662727 0.00578966 -3.46872e-21)
(5.81702e-05 -0.000219806 0)
(1.98629e-05 3.98983e-05 0)
(2.19722e-05 -0.00033805 4.27461e-23)
(-0.00173522 -0.00241605 -1.3448e-22)
(0.000116864 -5.24459e-05 0)
(1.19922e-05 1.83632e-05 -4.23171e-22)
(-0.00882784 -0.00412262 -3.44124e-22)
(-0.0145279 0.00204535 2.14944e-21)
(0.000626399 0.000408564 0)
(0.000332127 0.00599209 0)
(-0.000625458 -0.000669773 3.90541e-22)
(-0.000627354 -0.000205672 2.23813e-21)
(-0.00804005 -0.00338976 5.64986e-21)
(2.38196e-05 -0.000144538 0)
(1.4165e-05 4.90365e-05 0)
(9.9346e-06 -9.32148e-05 -1.16218e-21)
(0.00167861 -0.000818218 6.84061e-21)
(0.000769566 -9.07021e-06 0)
(7.63416e-05 8.05848e-05 3.22671e-21)
(-3.90555e-06 1.04571e-05 2.29279e-21)
(-0.00492806 0.00999501 0)
(0.000281815 -0.00062668 0)
(0.00105121 0.0048662 5.79179e-21)
(-0.0138808 -0.000214825 2.21256e-21)
(-0.00770861 -0.00148788 -8.63008e-22)
(-0.00658328 -0.00204951 0)
(0.00698118 0.00107859 -1.02634e-20)
(0.000212627 5.25315e-05 2.19409e-21)
(0.0039356 -0.00505033 0)
(1.07017e-05 -0.000110571 -6.27461e-22)
(3.36168e-05 -1.24977e-05 -1.53708e-21)
(-9.83285e-05 -0.0008629 0)
(-2.60525e-06 -3.69723e-06 0)
(0.00184089 0.004301 5.15946e-21)
(0.00555382 0.00877705 4.3252e-21)
(0.00246704 0.00470407 1.14561e-21)
(3.45801e-05 -1.27721e-06 0)
(0.000201931 0.000450466 0)
(0.00215477 0.00477862 0)
(-0.00277732 -0.0107172 1.47924e-21)
(0.00110892 -0.000346161 -8.64203e-22)
(0.000201422 7.56185e-05 9.09804e-22)
(0.000859719 -0.000125691 0)
(-0.00598539 0.000383901 4.63521e-22)
(-0.0142835 0.00245192 1.45864e-23)
(0.00499281 0.00103086 1.57652e-21)
(4.96994e-05 -0.000199272 8.74165e-23)
(1.51721e-05 -0.000110167 6.52977e-23)
(4.99805e-05 -1.15608e-05 9.75575e-22)
(-0.00267811 -0.00246433 -1.98102e-21)
(0.000755435 -6.60906e-05 0)
(-0.0137224 0.000106233 1.24971e-21)
(0.000101053 -4.00884e-05 -2.71125e-21)
(0.00011399 -4.84955e-05 8.94128e-22)
(-0.00163709 0.00592657 0)
(0.00460664 0.00109899 0)
(4.72208e-05 -3.76967e-05 1.37577e-21)
(6.31142e-05 9.70093e-05 2.07976e-21)
(-2.00968e-06 -0.000206564 0)
(-0.0046336 0.00786722 -1.44202e-21)
(0.0101896 0.00290901 3.71294e-21)
(0.00574336 -0.00873987 0)
(0.000556769 2.59933e-05 5.26599e-21)
(0.00343009 -0.00464825 1.09949e-21)
(0.0110326 0.00238243 0)
(1.81733e-05 -0.000266766 0)
(0.000778383 0.000414331 4.08019e-21)
(-0.00890768 -0.00161087 1.85161e-21)
(9.08881e-05 3.47838e-05 0)
(-0.00422478 0.0050316 8.84806e-23)
(8.13716e-05 -0.000103141 -8.68475e-22)
(-0.00624944 0.00781963 4.95018e-22)
(-5.00214e-06 4.00294e-05 -5.00701e-23)
(-8.32236e-05 0.000206544 1.5975e-22)
(0.000136583 4.56277e-05 -1.45164e-21)
(2.15379e-05 -1.82369e-05 -1.84942e-23)
(0.0101951 -0.00482013 0)
(5.33789e-05 2.45903e-05 2.3022e-21)
(-0.000302092 0.000323542 3.91857e-22)
(3.33633e-05 2.22152e-06 1.20225e-21)
(0.00493696 -0.0026443 0)
(-0.0132973 2.00313e-05 -3.24116e-21)
(0.00122583 0.00330712 -3.08117e-21)
(6.15144e-05 -0.000192168 0)
(0.000748295 0.000453499 -3.23262e-21)
(-1.68638e-06 3.53226e-05 0)
(2.70415e-05 -0.00030521 -4.47365e-23)
(2.93499e-05 1.47985e-05 0)
(-5.19593e-05 0.000216 0)
(-0.00278935 0.00822936 -8.23954e-24)
(5.52495e-05 -0.000204631 8.73498e-23)
(9.00581e-05 2.68822e-05 0)
(3.34961e-07 -0.000178497 -4.71462e-23)
(0.00530109 -0.0083814 1.87163e-23)
(3.54192e-05 5.75522e-05 -1.96542e-21)
(0.00107268 -0.00139802 0)
(0.00754022 -0.00767529 6.04061e-21)
(0.00290164 0.000373674 0)
(-2.74883e-06 1.10034e-05 -2.6585e-21)
(-0.00561538 -0.00291445 0)
(-0.00942552 -0.00144811 3.37825e-21)
(-0.00674057 0.00838524 0)
(-0.00369524 0.00499115 0)
(0.00024877 -0.000254216 0)
(-2.80968e-05 -0.000363131 9.83428e-23)
(0.00887531 -0.00436074 -2.02437e-21)
(0.000182494 0.000474997 0)
(0.000768477 -0.000241289 0)
(0.000248689 8.96456e-05 -1.1299e-21)
(-0.0144876 0.000723313 0)
(-0.000662849 -0.00466837 6.62046e-21)
(1.98345e-05 -6.06596e-06 8.89804e-24)
(0.000167907 -8.78774e-05 0)
(-0.00109841 0.00634753 3.37972e-22)
(-0.0043597 0.00946749 0)
(0.00729877 0.00259364 -3.01982e-21)
(4.90301e-05 -1.74268e-05 -1.15174e-21)
(-4.61825e-05 -0.000216945 0)
(2.0548e-05 3.2505e-05 3.49437e-22)
(0.00688383 0.00271155 5.39453e-21)
(-0.00625041 -0.00845018 2.9084e-22)
(0.000179602 -9.70628e-05 0)
(0.000356977 -0.000661802 7.23809e-21)
(-0.00127161 -0.00482324 -6.8083e-21)
(3.41618e-05 -1.61372e-05 -1.7176e-21)
(4.54543e-05 -0.000182505 -1.53979e-22)
(0.000986909 0.00392147 0)
(-0.00504579 -0.0274412 1.11554e-21)
(1.73384e-05 -0.000143743 0)
(1.94755e-05 -8.24358e-06 7.62948e-25)
(6.76383e-05 -0.000202033 -3.98046e-23)
(-0.0041013 -0.00137998 0)
(0.00142799 0.00112428 0)
(0.000725632 -0.000408117 -3.70271e-21)
(3.84657e-05 8.1215e-05 -1.51778e-21)
(-0.00149989 -0.0121076 -3.392e-22)
(-0.00756006 -0.00605713 -8.53461e-21)
(0.00364893 0.00164946 4.5448e-21)
(0.00040768 -0.000620268 -5.99462e-21)
(-0.0052688 -0.00142897 0)
(0.00801857 -0.00135371 2.12443e-21)
(0.000165367 -0.000110069 0)
(0.000443504 1.32212e-05 8.82129e-21)
(-0.0129836 -0.00745672 0)
(5.49119e-05 -2.14675e-05 -1.1411e-21)
(9.3643e-06 -8.77272e-05 -6.28613e-22)
(0.00395661 0.00158262 9.59966e-22)
(0.000181918 0.000640368 -2.46419e-21)
(3.50573e-05 6.59722e-05 -4.33999e-21)
(-5.08283e-06 3.69905e-05 -8.94632e-22)
(3.07186e-05 2.02693e-05 0)
(1.79598e-05 9.4543e-07 -2.48029e-23)
(0.00034419 -0.000193204 1.13682e-20)
(1.13165e-05 -9.10358e-05 1.77695e-21)
(-0.00884577 -0.00185345 -2.07152e-21)
(0.000623846 -0.000395609 0)
(6.52237e-05 -0.000127804 -1.26008e-21)
(-0.00318708 0.00982953 0)
(-0.00882639 -0.00233564 0)
(1.56163e-05 -9.9055e-05 0)
(0.00545813 -0.00232185 1.58519e-21)
(0.0109811 0.000455703 -1.19134e-21)
(6.31522e-05 -0.000222794 0)
(1.61022e-05 -0.000107959 0)
(0.000624455 -0.000464618 0)
(-0.0124243 -0.000199322 1.8813e-22)
(0.00430711 0.0130694 1.19472e-21)
(0.000114608 -0.00125161 -4.14318e-21)
(1.17278e-05 -6.49982e-06 -6.94201e-22)
(0.00325097 -0.00745542 0)
(1.36165e-05 -0.000109418 0)
(-9.52141e-05 -0.0013632 -4.05056e-21)
(0.0107494 0.00074162 0)
(-0.0022533 -0.0242075 -4.58462e-21)
(7.50924e-05 7.4896e-05 -2.41455e-21)
(-0.0111115 -0.00667194 -1.22712e-23)
(0.0171574 0.00941744 0)
(-0.00955594 0.0047388 -1.09492e-23)
(-0.0009017 -0.000958377 0)
(1.35318e-05 -0.000189865 2.54522e-22)
(0.000190391 0.00252816 -4.20304e-23)
(-0.00798171 -0.00354929 -2.36593e-23)
(-0.00693588 -0.026293 4.49552e-21)
(6.44197e-05 9.67672e-05 -2.22872e-21)
(-0.00904229 -0.00112631 -9.79143e-23)
(-0.0048097 0.000756964 1.18511e-22)
(-0.000339721 -0.000297142 5.16538e-22)
(-0.000312766 -0.000338294 -4.39441e-22)
(1.17931e-05 -0.000274249 -1.21678e-22)
(-0.000128772 -0.00103819 4.74052e-21)
(0.000133623 -0.000122425 0)
(-0.00534934 0.00232313 -8.6319e-21)
(-1.31754e-05 -0.00016624 -1.06603e-22)
(8.97565e-06 -3.72497e-06 2.55256e-21)
(1.48204e-05 3.65074e-06 -3.26381e-21)
(0.000125459 0.000151629 2.3999e-21)
(-0.00926492 0.00400631 -1.12066e-22)
(-0.00035106 0.000305065 -3.9418e-22)
(5.60591e-05 -1.85101e-05 2.46155e-21)
(0.00193077 0.00327144 5.59702e-21)
(0.0001177 -0.000135286 -2.78146e-22)
(5.62669e-05 9.97727e-05 9.05954e-22)
(7.49908e-05 9.91533e-05 -3.50513e-21)
(-0.0128823 -0.000139175 1.16175e-22)
(-9.2192e-05 -0.0115268 0)
(-0.00221813 0.00616816 0)
(0.00012782 3.82334e-05 -5.56768e-22)
(9.48684e-05 2.9213e-05 -3.48108e-21)
(0.00722875 0.00923683 0)
(4.3077e-05 -0.00013863 -2.14144e-22)
(-0.00883323 -0.00500739 2.98904e-21)
(0.000163631 -0.000104973 0)
(0.000590074 -0.000507624 0)
(0.000113246 -0.000144672 0)
(1.93019e-05 3.86613e-05 -2.21383e-22)
(6.50155e-05 -0.000124392 1.2734e-21)
(-0.00265886 0.00205562 0)
(0.00395773 0.000405666 -5.34075e-23)
(0.000316798 -0.00507009 7.15041e-21)
(0.0154479 0.00926461 -5.84445e-23)
(0.0066104 0.0100432 -2.02052e-21)
(0.000117771 -4.79104e-05 0)
(0.0069902 -0.00764555 -3.18932e-21)
(0.00957926 0.00297059 1.24545e-21)
(1.66694e-05 7.47419e-07 1.64686e-22)
(-0.00547937 -0.0229986 4.02718e-21)
(0.00271139 -0.0015523 -1.39239e-21)
(0.0118573 -0.000345713 4.41363e-21)
(0.000119305 0.000146036 0)
(-0.00133052 0.00118154 0)
(0.00625529 0.00856052 0)
(0.0245383 0.0149829 -3.49851e-21)
(-0.0018327 0.00258322 -4.41594e-24)
(-0.00866664 0.00218189 -1.02358e-21)
(7.89576e-05 0.000111207 1.6543e-21)
(0.00752075 0.0102591 -5.19109e-21)
(-0.00740565 -0.000968073 0)
(0.000142174 -0.000180177 -4.83131e-21)
(-0.0145968 0.00109977 -7.70775e-21)
(0.000116077 -0.000215553 2.09901e-21)
(0.00856469 -0.00710905 6.45251e-21)
(0.000430026 8.36798e-06 -5.35614e-21)
(-3.95631e-05 0.000650185 -4.03462e-21)
(-0.00184596 -0.00376493 0)
(0.00574186 0.00344926 0)
(8.3004e-06 5.01358e-05 0)
(0.000130658 -8.35428e-05 -1.75643e-21)
(0.000229264 0.000692016 -2.07792e-22)
(0.000228131 0.000443022 0)
(4.89807e-05 -0.000109878 0)
(0.000786586 -0.000399006 3.90732e-21)
(-0.020686 -0.000105792 -2.89144e-23)
(3.33756e-05 -3.72573e-05 -7.48705e-22)
(0.000849975 0.000373687 0)
(-0.00322201 0.00183386 -1.64211e-22)
(8.73975e-05 4.59765e-05 1.92547e-21)
(0.00493672 0.00149942 8.16053e-22)
(0.000171754 0.000835109 5.26716e-22)
(0.00770344 0.013648 0)
(8.51691e-05 3.25134e-05 -2.63754e-21)
(-0.000509273 0.00147153 0)
(-3.21831e-05 -0.00126487 -8.51657e-22)
(-0.00608675 -0.00987131 -1.27979e-21)
(0.000131323 -0.000608103 -1.43007e-21)
(0.00697475 0.00194596 -1.14288e-23)
(-0.00964849 -0.00119332 -4.17161e-21)
(-0.00531288 -0.00208977 0)
(3.32926e-05 -1.5224e-05 -6.22539e-22)
(-0.00256197 0.00171452 0)
(6.47006e-05 -0.000184396 4.52765e-21)
(-0.00113185 0.00132166 0)
(4.47625e-05 8.48453e-05 4.17999e-21)
(-0.0069759 -3.34605e-05 5.79722e-23)
(-0.0181198 -0.0108717 5.52126e-22)
(0.017086 -0.000880008 9.20019e-21)
(9.2412e-05 2.35071e-05 3.35186e-21)
(-0.00181993 -0.00422439 0)
(0.0013806 0.00307452 6.43133e-21)
(0.00102275 0.00167894 0)
(1.57951e-05 -2.67586e-05 -2.48123e-21)
(-0.0091839 -0.000866296 -3.37617e-23)
(0.00530756 0.00624538 -2.02874e-22)
(-0.00777831 0.00126647 5.76366e-22)
(0.000260995 9.3019e-05 1.4208e-21)
(0.00840047 0.00654122 9.07347e-21)
(1.99066e-05 3.98217e-05 1.47692e-22)
(-1.78019e-06 -3.06444e-06 -7.19619e-22)
(-0.0159664 -0.000132284 -5.78084e-21)
(0.00112642 0.00426665 -5.10389e-21)
(1.53762e-05 5.0646e-06 5.13759e-23)
(0.000106592 -4.3428e-05 -8.59203e-22)
(0.000882294 0.000334104 1.03287e-21)
(3.00012e-05 -4.1597e-05 -1.4865e-21)
(-0.0176314 -0.0119579 0)
(-8.15307e-05 -0.00113195 -1.07456e-21)
(0.002468 -0.00157246 0)
(0.000172466 3.27573e-05 -1.74928e-21)
(7.6004e-05 0.000110414 0)
(3.34162e-06 -6.85672e-05 0)
(0.0171252 0.0182676 0)
(6.17956e-05 -0.000129453 0)
(6.51163e-06 -5.22952e-05 0)
(0.0104968 0.017899 -1.71722e-21)
(-0.0205487 -0.000826429 0)
(0.000152132 8.20525e-05 0)
(0.0056387 0.00697639 -2.81613e-21)
(5.19282e-06 -0.000177978 3.85431e-23)
(1.10563e-05 -8.49663e-05 -6.66263e-22)
(8.75723e-05 4.0689e-05 -5.65301e-21)
(-0.000210294 -0.00530368 -7.62356e-21)
(4.08561e-05 0.000802602 5.06109e-21)
(5.04967e-05 -0.000115276 0)
(7.55084e-05 4.88865e-05 -2.76658e-21)
(0.000347163 -4.64538e-05 -1.02112e-21)
(9.58082e-05 -4.2338e-05 3.37382e-21)
(-9.45563e-05 0.0129102 0)
(1.70756e-05 -9.43039e-05 -5.632e-22)
(0.000169257 0.000231436 -3.9092e-21)
(-0.00796848 0.00637403 -1.92952e-21)
(0.000165149 -0.000120459 0)
(1.11594e-05 -5.51612e-06 7.72923e-22)
(5.95282e-06 -0.000113002 -5.69485e-22)
(0.000176874 1.83525e-05 8.41171e-22)
(5.13895e-05 -3.95745e-05 0)
(-0.00233268 0.00249495 -1.0567e-21)
(0.0104392 0.0173368 2.34727e-21)
(0.000258218 -0.000269799 -5.84564e-22)
(-0.00127319 -2.40523e-06 0)
(8.72512e-05 2.59752e-05 2.98196e-21)
(2.51199e-05 -7.85634e-05 -5.95041e-22)
(-0.00922299 -0.00120194 1.10445e-21)
(0.00611085 0.00706702 -2.82229e-21)
(7.54028e-05 -0.000170789 0)
(4.18713e-05 -9.63162e-05 0)
(-0.00835637 -0.00294304 -1.38143e-21)
(5.44648e-05 -0.000165025 -1.65957e-22)
(-0.000798811 0.000888229 4.49852e-21)
(3.95643e-05 -7.1173e-05 -4.20264e-22)
(4.82949e-05 4.59028e-05 0)
(-0.00227485 0.00260115 0)
(0.00036643 0.000376533 0)
(-0.00813732 -0.0038944 -8.03023e-22)
(0.00130556 0.00235824 -6.0581e-21)
(0.0144986 7.0265e-05 -8.8653e-21)
(9.49763e-05 -0.000167766 0)
(-0.000642864 -0.000920347 -2.96075e-23)
(3.61517e-05 -4.19821e-05 6.42138e-22)
(-0.00621533 0.00899536 0)
(0.000230506 0.000800696 -1.81332e-21)
(0.00450987 0.00134026 0)
(8.33543e-05 -0.000186703 -3.6515e-21)
(0.000123995 3.43973e-05 -1.1073e-21)
(0.000161805 -0.000119459 0)
(-5.96675e-05 -0.000955082 -9.64531e-22)
(6.93605e-06 -5.91323e-06 0)
(0.00239125 -0.000849871 0)
(-0.0091404 -0.00136249 0)
(-0.000374858 0.0126414 4.75344e-22)
(-0.00118824 -0.00229562 -4.96994e-24)
(0.0104316 0.0170453 -1.93549e-21)
(0.00248418 0.000832325 1.52371e-21)
(-0.00791378 -0.00765833 6.33854e-21)
(7.31175e-05 -0.000190191 0)
(-5.41093e-06 2.77294e-05 -2.41421e-22)
(0.00612779 0.000333768 -2.2394e-22)
(1.33149e-05 -1.62286e-05 1.08488e-22)
(4.62298e-05 -0.000106228 -1.26125e-23)
(8.13829e-05 -0.000174267 3.65595e-23)
(0.00295102 0.00501461 -3.53824e-21)
(0.000118028 -5.40176e-05 4.57929e-21)
(4.98007e-05 -0.000223238 -1.41854e-23)
(0.000410617 -0.000238363 -1.66567e-23)
(-0.000180194 -0.000345308 0)
(3.34264e-06 -5.76226e-06 -3.66232e-23)
(0.00895065 -0.010522 -1.69107e-21)
(3.5186e-05 -7.64129e-05 -1.53081e-21)
(-0.00970052 -0.0036033 7.97417e-22)
(-0.0028278 0.00179423 3.47648e-21)
(2.44362e-05 1.99308e-05 0)
(0.000109466 -2.52859e-05 4.42268e-21)
(0.000774765 0.00881955 1.24141e-21)
(-0.00904103 -0.0264714 5.14884e-22)
(3.65183e-05 6.20599e-05 -2.46081e-22)
(0.0170019 0.016581 0)
(0.00602753 0.000514391 -9.72252e-23)
(2.18007e-05 -1.44313e-05 0)
(0.00227958 0.00437904 -1.07363e-21)
(-0.0104969 -0.00143264 3.66223e-22)
(0.00433929 -0.00353509 0)
(9.64909e-05 -0.00017407 5.77959e-22)
(0.00918214 0.0171313 7.37847e-21)
(0.00169119 -0.00229064 -2.16539e-21)
(2.21361e-05 -1.53334e-05 2.15009e-21)
(0.00283037 0.000109591 -4.75802e-21)
(8.0737e-05 -7.23744e-05 -1.16578e-21)
(3.6719e-05 -8.91079e-05 7.54448e-22)
(0.0167071 0.017229 -6.64128e-22)
(0.00912278 -0.00679645 -8.21426e-21)
(1.00558e-06 -0.000262766 0)
(2.06286e-05 0.000774035 -4.26501e-21)
(1.11971e-05 -2.32595e-05 2.2251e-22)
(0.000239413 0.00134182 0)
(-0.0090984 -0.00474517 2.47386e-23)
(0.000531829 0.000440575 -4.59927e-21)
(2.62554e-05 -3.88366e-05 -4.90226e-22)
(-0.00196271 0.00169557 0)
(4.70274e-05 -0.000110614 0)
(8.31801e-05 -5.87457e-05 1.50583e-21)
(0.000152771 -0.000653781 -1.94181e-22)
(0.000103267 0.000325214 0)
(1.66733e-05 -2.33539e-05 -1.33967e-21)
(0.000121963 7.62334e-06 -6.9821e-22)
(0.00366196 0.00315433 0)
(0.00485536 0.00360818 9.25562e-22)
(0.00276568 0.00371291 0)
(0.000109448 -4.93525e-05 3.68961e-21)
(2.11912e-05 3.98381e-05 2.32985e-23)
(-0.00353864 -0.0019005 8.44365e-22)
(-3.43507e-06 -3.63618e-05 0)
(-0.00279141 0.00088644 0)
(0.000225611 0.00011733 -5.18109e-21)
(0.000285397 0.000364443 5.999e-21)
(0.000197509 -0.00024646 -1.0094e-21)
(-0.00300374 0.00967101 0)
(0.00859714 -0.00154958 0)
(0.000113799 -5.8682e-05 2.84118e-21)
(-0.00725286 -0.00160044 0)
(7.91862e-05 4.6382e-05 -1.1478e-21)
(-0.000424663 -0.000724417 0)
(-0.00662341 0.00996022 -3.74047e-21)
(-0.0154339 -0.000312725 -1.41653e-22)
(7.49113e-05 -0.000125376 -1.28719e-21)
(3.69392e-05 -3.42669e-05 6.97697e-22)
(5.27903e-05 -0.00019884 0)
(0.00362542 0.00250948 0)
(-0.00054664 0.0117483 1.03269e-20)
(0.000173698 0.00129685 0)
(0.00775054 -0.00675579 3.8295e-22)
(8.98687e-05 0.000349174 0)
(0.000400044 3.31706e-05 0)
(-0.000521725 0.00937952 4.32616e-22)
(0.0112562 -0.010549 -3.0679e-21)
(0.000433102 -0.000214265 1.2203e-21)
(-0.00937707 -0.00303185 0)
(0.00327132 0.00378226 1.11275e-21)
(0.00276268 0.0120546 4.8343e-21)
(7.75018e-05 0.000112009 -2.50296e-23)
(0.00878814 0.0100162 0)
(0.000457697 0.00690782 0)
(1.88846e-05 -0.000119866 5.01204e-22)
(0.00374466 -5.45601e-05 3.75884e-21)
(-0.00555232 0.00987253 -1.64246e-21)
(0.000210865 6.85954e-05 -1.89185e-21)
(0.000909708 -4.23323e-05 3.28411e-21)
(5.63826e-05 -0.000149593 -2.81234e-23)
(-0.00361806 -0.00131808 1.27061e-22)
(0.000971371 0.000125541 0)
(0.00620507 0.00556314 1.00401e-22)
(6.14569e-05 -0.000133797 -1.12637e-21)
(-6.85512e-06 -1.8895e-06 0)
(3.98431e-05 -0.000213708 0)
(-0.000176186 -0.000295482 -7.93246e-22)
(1.55947e-05 -9.21036e-05 0)
(0.0032682 0.00470189 6.04063e-21)
(-6.04051e-06 -4.99512e-06 9.91989e-22)
(0.00343519 0.0037046 0)
(9.18086e-05 -0.000189814 1.34007e-23)
(-0.00115622 0.00145617 1.61191e-21)
(3.44599e-05 -7.42859e-05 -5.42917e-22)
(5.08327e-06 7.32126e-06 4.31452e-22)
(0.000435473 0.000152557 0)
(-0.00153632 0.00166859 -5.66103e-21)
(3.64748e-05 -0.00055666 5.71576e-21)
(0.00155784 0.00246759 -6.34189e-22)
(4.35594e-05 6.9686e-05 -4.5933e-22)
(2.89772e-05 -4.68074e-05 -1.55581e-21)
(1.94323e-05 1.43524e-05 -2.42137e-21)
(-0.000183882 -0.000851982 2.39012e-22)
(7.41874e-05 5.91388e-05 -4.47125e-22)
(-0.000976893 -0.000471743 -5.34872e-21)
(0.000123271 -6.2347e-05 2.43525e-21)
(7.23173e-05 -0.000171116 0)
(0.00734391 0.0111941 0)
(-3.96249e-06 -3.48329e-05 1.62871e-22)
(0.0119582 0.00144548 0)
(-3.20921e-06 3.97516e-05 8.75122e-22)
(-0.00257953 0.0021358 -9.50781e-21)
(-0.00644493 -0.0020769 0)
(-0.00739135 0.000204243 0)
(1.16893e-05 -0.000215969 -3.2362e-22)
(0.0074351 0.00447047 -1.87553e-22)
(0.000403412 -0.00023152 2.22123e-21)
(0.00203123 -0.00282237 9.6225e-22)
(-0.00455663 0.0101395 0)
(2.35982e-05 -3.91291e-05 1.03328e-21)
(0.00842884 -0.00939563 -1.46293e-21)
(0.000128085 -0.000125751 0)
(0.000136984 -0.000198536 1.04651e-21)
(-0.00203036 -0.00264079 1.92921e-22)
(0.00523121 -0.00241601 8.51042e-22)
(1.89049e-05 4.60902e-06 1.86841e-21)
(-0.000964378 -0.000420709 5.02736e-21)
(4.44874e-05 -3.85909e-05 1.44218e-21)
(0.0023847 0.0108829 -9.74974e-22)
(0.00425452 0.000438526 1.77413e-21)
(8.97187e-05 2.00852e-06 -6.46326e-23)
(-1.37964e-05 -0.000203285 4.63687e-22)
(-0.0109346 -0.0188747 -2.50419e-21)
(-2.70264e-06 4.81749e-05 -5.97985e-22)
(-3.55909e-06 5.27691e-05 -4.126e-22)
(-0.000721893 0.00159412 -7.52612e-21)
(0.0116756 0.00111214 -2.19526e-21)
(0.00651866 0.0168992 4.30575e-21)
(1.50902e-05 -0.000103696 -3.03064e-23)
(-0.00235997 -0.00291061 -4.25869e-22)
(9.22194e-05 -3.93116e-05 -1.70883e-21)
(4.65217e-06 3.1723e-05 0)
(0.00641095 0.0137505 -8.97027e-22)
(-0.00250102 -0.00342691 0)
(0.00326316 0.00130082 -8.22705e-22)
(1.55603e-05 -2.35086e-05 0)
(0.00119128 0.00375427 -4.80647e-21)
(0.000155314 -0.000182371 0)
(-0.000445743 0.00120656 -1.35636e-21)
(1.97e-05 -0.000226031 4.11712e-22)
(0.000109452 -6.6033e-05 -3.03889e-23)
(0.000873216 0.000112646 0)
(4.0442e-05 -0.00021024 0)
(0.000915734 0.00446429 2.07712e-21)
(0.000730328 -0.00056592 -3.17647e-21)
(0.000616109 -0.000654124 1.35949e-23)
(0.000408109 -0.00025053 -1.79466e-21)
(0.00267614 -0.0027686 6.42164e-21)
(-0.00965507 0.00172435 7.74724e-23)
(-0.00126312 0.00194727 -4.12936e-24)
(0.0228547 0.0192259 0)
(0.000381 0.005626 0)
(-0.012549 -0.000417387 -1.95355e-21)
(0.000294552 -2.90503e-05 1.81585e-21)
(0.016962 0.017818 0)
(0.00497202 -0.00331377 0)
(4.80415e-05 9.2329e-05 0)
(0.000379757 3.41875e-05 2.60092e-21)
(-0.00802922 0.000597095 8.70646e-21)
(0.000144517 0.000143647 2.14133e-21)
(2.44853e-05 3.76118e-05 9.00335e-23)
(2.32354e-05 3.68327e-05 -1.14002e-21)
(-0.00215042 0.00262882 -4.05198e-21)
(-0.00770117 0.00188559 -3.54641e-21)
(0.00018372 0.00022247 4.10994e-21)
(0.00852025 -0.00665025 -3.36924e-21)
(2.91654e-05 -5.04749e-05 -1.52921e-21)
(0.00671169 0.0149612 -9.66029e-22)
(0.000418043 -0.0003226 0)
(0.0104568 0.000525954 -1.05454e-20)
(-0.000987499 -0.000336159 2.50807e-21)
(7.94686e-05 1.70687e-05 2.75709e-21)
(0.000114309 -5.04996e-05 2.38009e-21)
(0.0101401 0.000882358 4.00033e-21)
(0.00315673 0.00177627 3.03682e-21)
(0.000287324 -1.52803e-05 -2.14867e-21)
(0.000867066 0.00359578 1.16124e-21)
(7.0816e-05 0.000108786 0)
(0.00557568 0.00355834 0)
(-0.00249161 0.00258532 2.43507e-21)
(0.0037617 0.00374585 1.98086e-21)
(3.8266e-05 -9.13426e-05 -9.09964e-22)
(0.00511248 0.0115772 0)
(2.0847e-05 4.05125e-05 1.49601e-22)
(-3.69918e-06 4.33943e-05 5.11484e-23)
(2.04991e-05 -0.000262919 -3.9794e-22)
(3.84266e-06 4.17124e-05 5.34452e-23)
(-0.00825329 0.00854342 0)
(1.9103e-05 1.3113e-07 0)
(0.00451597 0.0137549 0)
(-0.00478672 -0.00157156 0)
(-0.00106381 -0.00034635 0)
(0.000211298 0.00108178 0)
(0.0114444 -0.0004946 0)
(0.00402368 0.00395061 0)
(0.0027258 -0.00331851 -2.25169e-21)
(2.04479e-05 -0.00021525 2.09144e-22)
(3.63487e-06 -2.7953e-05 7.12348e-22)
(1.94205e-05 1.2243e-05 -8.05042e-25)
(1.60492e-05 3.33329e-05 0)
(2.10865e-05 2.22179e-05 3.09828e-21)
(-2.71614e-06 -6.04091e-06 -7.1002e-22)
(-0.000350893 -0.000884237 0)
(-0.000699153 -0.000155156 3.21933e-21)
(0.000164097 -0.000196391 0)
(-0.00782467 -0.0292025 7.13583e-21)
(0.000110202 1.94163e-05 -2.81275e-22)
(-0.00972795 -0.00160017 9.53478e-22)
(1.98723e-06 1.56516e-05 2.71656e-23)
(-0.000222922 0.00456921 1.34927e-21)
(5.27221e-05 0.000281508 5.88738e-22)
(4.28484e-06 3.24105e-05 9.90138e-24)
(-2.46728e-09 -0.000161707 3.19535e-22)
(-0.00720791 -0.000823693 -3.70653e-21)
(9.7786e-05 -2.01566e-05 -1.94665e-21)
(0.00269889 -0.00235937 -1.67485e-21)
(-0.00432533 0.0112956 -2.69149e-22)
(0.000828718 3.89763e-05 0)
(0.0014168 -0.00102689 1.48448e-21)
(2.15934e-05 1.76219e-06 1.90735e-21)
(-0.011324 -0.00209107 1.31313e-21)
(0.000118457 -0.000113554 0)
(0.000119278 -5.50872e-05 -4.81404e-21)
(0.00748089 0.0123103 0)
(-7.41096e-06 -4.43665e-05 -2.47967e-22)
(5.68979e-05 -0.000219212 -9.66554e-23)
(2.82216e-05 -3.39211e-06 0)
(0.000339588 0.000781222 -4.18746e-21)
(-0.0124276 0.00139221 -5.785e-21)
(7.1233e-05 4.56234e-05 2.85844e-21)
(5.19592e-05 -0.000139116 3.8207e-21)
(0.00670486 0.00576046 0)
(0.000935247 0.00031159 4.74261e-21)
(3.03513e-05 -0.000203592 2.08476e-22)
(0.000148887 -5.93384e-05 0)
(-0.00264349 0.0120724 -1.14999e-22)
(1.60883e-05 3.3773e-05 0)
(-0.00182033 0.0117527 2.86844e-21)
(-7.11253e-06 6.69126e-06 -6.70416e-22)
(9.866e-05 -4.93281e-05 0)
(-0.00350659 -0.0152923 1.16609e-21)
(0.00166825 0.00180668 -9.35244e-21)
(0.00375047 0.00223235 0)
(-0.00063905 0.00129541 3.39596e-21)
(6.01889e-05 -0.000608062 -7.84316e-22)
(-2.45491e-06 5.74367e-05 1.53154e-22)
(7.36483e-07 1.36208e-05 2.02344e-23)
(-0.000500033 -0.000752394 0)
(7.60216e-05 0.000113713 1.29948e-21)
(7.30043e-07 6.90062e-05 3.14344e-22)
(0.000151263 0.000311098 0)
(0.00657469 -0.000837439 1.60749e-21)
(2.00547e-05 1.71537e-05 -2.26256e-21)
(0.00119473 -0.00253528 -2.05657e-21)
(0.00405852 0.00249701 -6.99737e-22)
(0.00309584 0.000636514 -1.43417e-21)
(-0.000729331 0.00114099 -2.17527e-21)
(0.00206626 -0.0100118 -6.13459e-22)
(2.9554e-05 -0.000178954 -2.0848e-22)
(-6.61864e-06 -4.57132e-05 0)
(-0.0010016 0.00304886 -1.04285e-21)
(2.34481e-05 -5.25794e-05 0)
(0.000134318 -9.03018e-05 3.90199e-22)
(-0.00112392 0.00215764 1.68351e-21)
(0.00844576 0.00908826 -8.87985e-21)
(0.00943921 -0.010651 1.48045e-22)
(-0.00169866 0.0131148 0)
(8.47234e-05 3.94233e-05 0)
(8.80113e-05 2.87657e-06 6.48591e-23)
(0.000294653 -0.000228403 9.55721e-22)
(0.000104865 -9.35438e-05 -2.49389e-22)
(5.48718e-05 2.77798e-05 0)
(-0.00740639 -0.000628058 1.68254e-21)
(0.00661826 0.00339021 -1.87954e-21)
(-0.0156701 0.000620202 0)
(-0.00292555 0.00207919 1.05357e-20)
(0.00182657 0.00179418 6.24938e-21)
(7.28737e-06 5.02881e-05 -6.28975e-23)
(4.09878e-05 4.55157e-05 0)
(-0.010303 -0.00300061 -2.03618e-21)
(0.00225425 -0.00188111 -5.56866e-21)
(0.000107639 -4.91091e-05 -4.39069e-21)
(2.75231e-07 7.12759e-05 1.20233e-22)
(0.00338396 0.00254866 2.23641e-21)
(-0.00171192 -0.00161503 -8.13404e-24)
(0.00902354 -0.00638472 0)
(1.46888e-05 -0.000140055 0)
(-4.22167e-06 -3.52752e-05 1.21948e-21)
(-0.0126023 0.00108057 4.44423e-21)
(2.20929e-05 -0.00021479 -3.38124e-22)
(0.000154189 -0.000237523 -5.33698e-22)
(2.76263e-05 -4.0032e-05 0)
(0.00370652 0.00569624 0)
(2.07469e-05 -2.71606e-06 -2.24001e-21)
(-0.0077168 -0.00196268 0)
(1.31569e-05 -0.000134392 -1.06977e-22)
(0.00249222 0.000115111 -1.76711e-21)
(0.0004307 -0.000337423 2.71923e-21)
(0.000266224 -0.00024422 2.75831e-22)
(3.42255e-05 -0.000114631 -5.4533e-22)
(3.56047e-05 -3.12857e-05 0)
(9.81706e-05 -2.72872e-05 0)
(1.96693e-05 -1.23687e-05 1.63841e-23)
(0.00204649 0.0148736 1.77022e-21)
(2.50402e-05 -0.000214607 0)
(0.00641181 0.00346517 2.60186e-21)