/*--------------------------------*- C++ -*----------------------------------*\
| =========                 |                                                 |
| \\      /  F ield         | OpenFOAM: The Open Source CFD Toolbox           |
|  \\    /   O peration     | Version:  v2012                                 |
|   \\  /    A nd           | Website:  www.openfoam.com                      |
|    \\/     M anipulation  |                                                 |
\*---------------------------------------------------------------------------*/
FoamFile
{
    version     2.0;
    format      ascii;
    class       volScalarField;
    location    "200";
    object      k;
}
// * * * * * * * * * * * * * * * * * * * * * * * * * * * * * * * * * * * * * //

dimensions      [0 2 -2 0 0 0 0];


internalField   nonuniform List<scalar> 
13851
(
0.000203972
0.000153821
0.000153615
0.0199049
0.000148182
0.000156328
0.00015455
0.00014685
0.0508985
0.000148003
0.000177733
0.000148181
0.000148496
0.0289414
0.000168055
0.000205461
0.0175421
0.000147849
0.000235301
0.000203774
0.000171166
0.000155286
0.0339029
0.000149695
0.0264959
0.000185668
0.000169404
0.0163636
0.0464118
0.000145933
0.0456491
0.000154523
0.000203959
0.0694678
0.000170079
0.0459463
0.000149782
0.0175562
0.0660207
0.000148237
0.0701591
0.0482112
0.00633404
0.000223027
0.0507179
0.000146975
0.000144484
0.000204494
0.000151889
0.000148467
0.0249885
0.000148709
0.000205412
0.000163493
0.0270147
0.000148242
0.000204284
0.0676713
0.00010194
0.0300021
0.000148241
0.000243137
0.000148327
0.000152156
0.000183851
0.000184474
0.0243893
0.000167371
0.000148473
0.028794
0.0408174
0.000176525
0.000148007
0.0267164
0.000164895
0.000152066
0.0229286
0.000145087
0.0176675
0.000147272
0.000148546
0.00023826
0.000169493
0.0311387
0.0312812
0.0445173
0.000155539
0.0207784
0.00014794
0.0455821
0.000148818
0.000154688
0.00938353
0.0401904
0.0599405
0.000202631
0.000147176
0.000206504
0.0261928
0.000197006
0.000207911
0.000162315
0.000163453
0.000148246
0.000146935
0.000174965
0.000146936
0.043207
0.000154652
0.000147692
0.000159447
0.000146979
0.000204563
0.000179723
0.000203669
0.000162649
0.000145826
0.000146362
0.0173359
0.0322831
0.000192663
0.00014675
0.000148389
0.0489385
0.000227791
0.000173796
0.000147168
0.000172769
0.0650495
0.000175052
0.000155201
0.000161511
0.00479694
0.0684715
0.000178405
0.0596658
0.000166871
0.0430525
0.000160181
0.000174944
0.000231316
0.000149855
0.000147959
0.000172892
0.0296791
0.0001516
0.000145022
0.0407505
0.0409277
0.000173527
0.000207446
0.000203055
0.000180951
0.000225584
0.000148993
0.000148207
0.00014836
0.062132
0.000172409
0.000153099
0.00014952
0.0462685
0.0001743
0.000204525
0.0295258
0.0542373
0.0553107
0.0296359
0.000159124
0.0744235
0.000148366
0.00014584
0.000179514
0.000148649
0.0634246
0.000190573
0.000210222
0.000145745
0.00016493
0.000209212
0.000225813
0.000222733
0.000158484
0.000174775
0.00725726
0.0416042
0.000203962
0.000157117
0.000148797
0.000146402
0.0125452
0.000172361
0.0237794
0.000156549
0.000151337
0.000205993
0.000203124
0.000148945
0.000148952
0.000168254
0.000231235
0.0642126
0.0679361
0.000168086
0.000342076
0.0602598
0.000151628
0.000174788
0.0522693
0.00015544
0.000204873
0.000148332
0.000235417
0.000149459
0.000170664
0.000153176
0.000148388
0.000225343
0.000149033
0.000511399
0.000145718
0.000203511
0.0269188
0.061405
0.000156741
0.000175162
0.0001497
0.000171044
0.000147684
0.00017035
0.033279
0.00015669
0.000155391
0.000148492
0.0658986
0.0001459
0.0179466
0.0669302
0.000193389
0.00014959
0.000307541
0.0319084
0.050697
0.000204821
0.000164388
0.000176536
0.000218759
0.000165194
0.000201689
0.000161053
0.0222741
0.000201774
0.0001465
0.00015668
0.000207056
0.045057
0.0236973
0.000146355
0.000174569
0.00014791
0.00021756
0.000226296
0.000157263
0.000174991
0.000202372
0.000147685
0.000162929
0.000199648
0.00714504
0.000148208
0.000148372
0.000156919
0.0600222
0.0120901
0.000174507
0.000146978
0.000226443
0.000225697
0.000200233
0.000174488
0.0589479
0.0256977
0.000157608
0.00016535
0.0226373
0.000146886
0.000148353
0.000201032
0.00017463
0.000145928
0.000149436
0.000147623
0.000147514
0.000164434
0.000148299
0.0525036
0.000172555
0.000147719
0.0448189
0.0462693
0.000148769
0.000204106
0.0252948
0.000150085
0.000148846
0.000173897
0.02945
0.0777879
0.000182528
0.000148096
0.0713232
0.000148304
0.000184259
0.0303544
0.00514382
0.000152798
0.0109305
0.0006576
0.0482158
0.000202233
0.000163288
0.0647531
0.0553014
0.0136499
0.00014918
0.0250347
0.00833988
0.000218772
0.000213039
0.000151653
0.000181785
0.000157491
0.0219419
0.000163903
0.000146501
0.000143838
0.00015727
0.0447456
0.000386574
0.00014682
0.0587695
0.000157566
0.000161768
0.000153336
0.0255008
0.000226035
0.000206264
0.000152788
0.000154729
0.0441212
0.000148821
0.00022828
0.000157502
0.000173817
0.000158227
0.000147924
0.000147687
0.000198452
0.000200362
0.000202296
0.00129832
0.0449159
0.000151719
0.0648835
0.000225457
0.000145706
0.00671315
0.000192451
0.0308114
0.000156765
0.000187066
0.000214265
0.0103276
0.000196678
0.0245495
0.000150292
0.000163813
0.00688562
0.00016154
0.0271636
0.000163758
0.07008
0.000164991
0.000171338
0.000201355
0.000213342
0.000148215
0.000156921
0.000175738
0.000165193
0.000147163
0.000174864
0.0642117
0.000147978
0.000174854
0.0123069
0.000153332
0.00117609
0.000174141
0.0805574
0.000156106
0.000184117
0.000316085
0.000227455
0.000174292
0.0201385
0.0269599
0.000314249
0.000147728
0.000197837
0.00016378
0.000186711
0.000146834
0.00737857
0.0700543
0.0167624
0.000154663
0.000201964
0.000239467
0.013198
0.000144555
0.0186653
0.000220255
0.0328746
0.000161754
0.0209579
0.000148111
0.000148549
0.023123
0.000229575
0.000148003
0.000153852
0.000175384
0.000146106
0.0663883
0.000182138
0.000191915
0.000156685
0.000150329
0.000148776
0.00535202
0.000147682
0.000148711
0.0275252
0.0626028
0.000154678
0.000252346
0.000148381
0.000148288
0.00015387
0.000202646
0.000173919
0.000147256
0.000151003
0.000191914
0.00015222
0.0801413
0.000148139
0.000159286
0.0512866
0.000160819
0.000144273
0.00014851
0.000156539
0.000149457
0.000293016
0.0360642
0.000164624
0.000601414
0.000153975
0.000148
0.0620947
0.000208979
0.000160163
0.000148059
0.0529491
0.000159569
0.00127805
0.000148254
0.000161852
0.000197572
0.00016662
0.0592986
0.000223131
0.00907042
0.000151904
0.000203499
0.00014767
0.0452099
0.000174027
0.000203088
0.000163594
0.000152463
0.000160849
0.000180067
0.000148277
0.0139257
0.0601687
0.0807243
0.00740977
0.0341088
0.0335074
0.000227651
0.000156172
0.00014923
0.00252159
0.000148014
0.000147134
0.000157483
0.0661464
0.000153503
0.000149852
0.000174994
0.000173455
0.000148065
0.0795646
0.000147189
0.0665905
0.000274628
0.000147255
0.000152564
0.000222934
0.00796864
0.000145969
0.0477603
0.014281
0.000145763
0.0565386
0.000234613
0.000202997
0.000151857
0.0256766
0.0306275
0.000145966
0.00023945
0.000148419
0.000147201
0.020019
0.070964
0.000168022
0.000173322
0.000148022
0.000181168
0.0667538
0.0622145
0.000147021
0.0239339
0.000147223
0.00014849
0.000174538
0.000159459
0.000144505
0.000152064
0.0583994
0.000210484
0.054813
0.000152932
0.000147894
0.0597023
0.000148997
0.000198743
0.000159049
0.000164892
0.000164116
0.049722
0.0303698
0.000156383
0.0174372
0.000152296
0.000181287
0.0489316
0.0329245
0.000148359
0.00014771
0.000163936
0.0560278
0.000242356
0.000180649
0.00674578
0.000159649
0.000164155
0.0410363
0.082306
0.000184459
0.0648503
0.000215359
0.0466652
0.00014974
8.90651e-05
0.00493313
0.000148162
0.0107279
0.0866039
0.000159235
0.00017489
0.000148164
0.00051714
0.000177007
0.0521562
0.000147712
0.000148872
0.000154792
0.000172933
0.000148218
0.0630203
0.000148825
0.000214494
0.000151931
0.00018734
0.000148221
0.000148083
0.000168145
0.0241758
0.000174009
0.05774
0.000161889
0.000146195
0.000146353
0.000179822
0.000150968
0.000190034
0.000154296
0.000159828
0.000100998
0.00014901
0.0195567
0.000149614
0.000194132
0.0199826
0.0537708
0.000156235
0.0431758
0.000174363
0.000206654
0.0865263
0.00014766
0.0839648
0.000157626
0.000162394
0.00941332
0.000143116
0.000145844
0.000189464
0.000148842
0.0454294
0.0258641
0.000148867
0.000168138
0.0696535
0.000149696
0.000149604
0.000185895
0.0163365
0.0162596
0.000148861
0.000201071
0.000151804
0.000148099
0.00010253
0.000201545
0.00019601
0.00014434
0.000199675
0.000164244
0.000182154
0.000149938
0.000151053
0.000175715
0.000154561
0.000202143
0.000176329
0.000176243
0.000180495
0.000151511
0.000236167
0.0528108
0.0361019
0.000205981
0.0375282
0.000163639
0.0236046
0.000204085
0.000147561
0.000163546
0.00023046
0.000156395
0.000147284
0.000147238
0.000194422
0.0220029
0.000159511
0.0639167
0.000146229
0.0203532
0.000180202
0.0240138
0.000188983
0.000156279
0.000153654
0.0281655
0.000196037
0.000163218
0.000227453
0.000149966
0.00219704
0.000194491
0.000214759
0.000162888
0.000263183
0.000148096
0.000149546
0.000151218
0.000148107
0.0491365
0.000147509
0.000140094
0.0588497
0.000189584
0.0640188
0.029044
0.00021685
0.000210905
0.000156284
0.000148994
0.000148305
0.000145138
0.00014633
0.000148667
0.000181776
0.000203644
0.000165093
0.0108181
0.000150992
0.05087
0.000149946
0.0230658
0.000168022
0.000149862
0.000148612
0.0542307
0.000156578
0.0197068
0.0867079
0.000173687
0.000184595
0.000145591
0.0688429
0.000152718
0.000153603
0.00010045
0.000149022
0.000149832
0.000147384
0.000174042
0.0236011
0.000159669
0.000163347
0.000225107
0.0584989
0.000156697
0.000155475
0.0481839
0.000145103
0.0474627
0.000149178
0.000152287
0.0149334
0.000190139
0.000203203
0.000184925
0.000174252
0.00014939
0.000149947
0.000182707
0.000149897
0.000149452
0.00016025
0.000219807
0.000147385
0.000203066
0.000680205
0.0127769
0.000184701
0.0456794
0.000160381
0.000148957
0.000195473
0.000146335
0.000157045
0.0484057
0.0445499
0.0835119
0.0486921
0.000149056
0.000148738
0.000170085
0.000150744
0.000146696
0.0273774
0.000218383
0.0289092
0.000194261
0.00019061
0.000148142
0.00014598
0.00266976
0.000191852
0.000152862
0.000149604
0.00020317
0.00020724
0.0656038
0.000148954
0.000148761
0.0202076
0.000149891
0.000163944
0.000146134
0.0676369
0.000147369
0.0224396
0.000148162
0.000190452
0.000169132
0.000169642
0.000163209
0.000148003
0.00015383
0.000147689
0.000162605
0.000149883
0.0280108
0.00015018
0.0213603
0.0622877
0.000161544
0.000147534
0.0137594
0.0364026
0.000156948
0.00019005
0.000148298
0.0190972
0.000147685
0.000228833
0.000148066
0.000147663
0.0150663
0.000164344
0.000148429
0.000163992
0.0652781
0.000472265
0.0726537
0.000146352
0.0400504
0.000148158
0.000147442
0.000148986
0.000143463
0.000149449
0.0786005
0.0528191
0.000149084
0.000148793
0.000168351
0.000146988
0.0173069
0.000196488
0.0331328
0.0661117
0.000153757
0.000202023
0.000148107
0.000171072
0.00017687
0.000147462
0.000149248
0.000437308
0.027623
0.000183946
0.00862564
0.000182765
0.000148359
0.000169417
0.000190475
0.0207446
0.000163379
0.00122802
0.000192451
0.000149366
0.0578675
0.0560705
0.0288317
0.00721693
0.0189568
0.000151837
0.000176234
0.000148717
0.000420405
0.000155905
0.000146521
0.0756872
0.000150757
0.00014754
0.000148364
0.000150461
0.0644087
0.000228731
0.000146597
0.000169954
0.0297116
0.000151219
0.00788608
0.000150925
0.000189022
0.0698267
0.000148323
0.000244124
0.000158828
0.000162613
0.000491029
0.000150742
0.000236986
0.00018365
0.0690661
0.000149252
0.0262392
0.000161106
0.0411047
0.021847
0.0212321
0.000173765
0.000148105
0.000149119
0.000149694
0.000170077
0.000148535
0.061344
0.000157719
0.000156054
0.000156523
0.000151735
0.000146315
0.000158359
0.000157021
0.000152542
0.000156279
0.0852356
0.000186175
0.000160693
0.000170259
0.0752193
0.000149934
0.0478857
0.000145169
0.000160784
0.000149908
0.000147577
0.000167154
0.000147961
0.000146551
0.00016329
0.000148247
0.000216491
0.00015058
0.0094731
0.00169429
0.000218445
0.00022843
0.000148518
0.0604729
0.000207224
0.000149387
0.000156847
0.000149654
0.0514444
0.000150906
0.000162932
0.00559919
0.0101108
0.000178924
0.000148676
0.0506145
0.00357524
0.0226758
0.000158726
0.000146121
0.000146883
0.000182614
0.000148105
0.026225
0.000199266
0.000149151
0.000226078
0.000219338
0.000147256
0.0858825
0.0203862
0.000217461
0.000150436
0.0498479
0.000181582
0.000147704
0.0235324
0.000155296
0.000146998
0.000147263
0.000163839
0.0001703
0.0552162
0.0489995
0.000171119
0.0557518
0.00016528
0.000147947
0.000169275
0.000147281
0.00108621
0.000147244
0.000147886
0.000152336
0.000149797
0.0605587
0.0215316
0.00023577
0.0295078
0.0849053
0.000156736
0.000148008
0.000150584
0.000238034
0.000147074
0.000147608
0.000168948
0.0221441
0.000240579
0.000144957
0.000165517
0.000163485
0.000202379
0.0074373
0.000145742
0.000144397
0.000152618
0.00701001
0.000160183
0.0667616
0.000151007
0.000148855
0.000147068
0.000147228
0.000153157
0.000216838
0.0467693
0.0534514
0.000156478
0.000148004
0.00129367
0.000149483
0.0298645
0.0376486
0.000157889
0.0273695
0.0483085
0.0410889
0.000179222
0.000163169
0.0445234
0.000161533
0.000160187
0.000170454
0.00020759
0.000149745
0.000498826
0.000147975
0.0429646
0.0144092
0.000145202
0.000151994
0.000167469
0.000231857
0.000164389
0.000148683
0.000159333
0.000150908
0.000156359
0.000242813
0.000148856
0.0402055
0.0235777
0.000148008
0.00016226
0.000169978
0.000148209
0.0436613
0.0114061
0.062507
0.0332293
0.000147869
0.000153455
0.000156154
0.000149001
0.000232899
0.000164804
0.000149636
0.000182698
0.000154194
0.0327634
0.000169282
0.0253411
0.000150779
0.000151239
0.00016391
0.000191344
0.000184268
0.000147699
0.00903103
0.0447339
0.0255055
0.0378802
0.0472155
0.0543928
0.0390945
0.000147704
0.000147882
0.000148201
0.000239743
0.000173456
0.000183881
0.0141215
0.000149037
0.000144849
0.000148022
0.000223713
0.00014494
0.000157345
0.000151887
0.0238743
0.000150445
0.000146391
0.000148244
0.000147664
0.000148849
0.000159915
0.00023275
0.000160288
0.0590247
0.000147894
0.000147241
0.0649904
0.0647976
0.0206689
0.01361
0.000164207
0.0186839
0.000146078
0.000170045
0.000151228
0.0001482
0.000153994
0.0265948
0.000151298
0.000191796
0.00241859
0.000149157
0.000147502
0.000154538
0.000217015
0.000149766
0.0239134
0.000148103
0.000222532
0.000148555
0.000149057
0.000157139
0.00017252
0.000148523
0.000131787
0.0418038
0.000213034
0.0683105
0.000148111
0.0245895
0.000115265
0.000147977
0.0132124
0.000148981
0.000162009
0.00014881
0.000148909
0.000147219
0.000148081
0.000149462
0.000155221
0.000183948
0.000148877
0.000148333
0.000166534
0.000145668
0.0839163
0.000148559
0.000162578
0.000165212
0.0349081
0.00311924
0.000148731
0.000217559
0.000146085
0.00016231
0.000174169
0.0105653
0.000175094
0.000149769
0.000198596
0.000168545
0.000190279
9.51679e-05
0.000160901
0.000199943
0.000180646
0.000184667
0.000150354
0.000146863
0.0126846
0.0117044
0.000153635
0.000147673
0.00857216
0.000146264
0.000170498
0.000147295
0.000178272
0.00983947
0.000143949
0.0159898
0.000156207
0.000148918
0.000209528
0.000146517
0.000161435
0.034922
0.000168523
0.0144222
0.00014718
0.000149707
0.000162492
0.000149385
0.000149549
0.000159226
0.000160347
0.00018399
0.00017973
0.000148338
0.000165494
0.000146678
0.000148054
0.000149295
0.000147996
0.000491287
0.000147439
0.000150996
0.00024843
0.000146221
0.000147582
0.0622194
0.000149577
0.0117642
0.000151631
0.0599527
0.000225682
0.000164795
0.00172034
0.000178334
0.000283304
0.000149516
0.000208591
0.000156629
0.00014673
0.000146992
0.00015097
0.00016192
0.000147598
0.000171898
0.000146802
0.000151218
0.00700863
0.024831
0.000380576
0.00015384
0.000163514
0.0366637
0.0294757
0.000148945
0.000157036
0.000331454
0.000148827
0.000167664
0.00059142
0.0532674
0.000158176
0.000171863
0.000150218
0.000222279
0.000149876
0.000161134
0.019854
0.0001486
0.000147018
0.08283
0.000170147
0.000242469
0.0690841
0.000194825
0.000149348
0.000146828
0.000149178
0.032037
0.00396001
0.0495002
0.00017496
0.000148122
0.042023
0.000148425
0.000202337
0.000154803
0.000152117
0.000171058
0.000148025
0.0866018
0.0853406
0.000145472
0.000183566
0.000174298
0.00213126
0.000170987
0.000180412
0.000238009
0.000165188
0.000208169
0.000181678
0.000148445
0.0001664
0.000169173
0.0295038
0.00014784
0.000862401
0.000172181
0.000181883
0.000149772
0.083276
0.000156492
0.000151606
0.000146753
0.000166174
0.000165498
0.000166948
0.000148577
0.000149979
0.000172766
0.00830575
0.000176234
0.000148812
0.00014986
0.00016635
0.000218272
0.000148936
0.000181459
0.0173144
0.000168199
0.0544771
0.000169822
0.0255833
0.000237043
0.000147721
0.000843938
0.000149482
0.000153845
0.000163864
0.000164888
0.000190382
0.000174141
0.000166157
0.000167581
0.000161122
0.000152511
0.000144879
0.000170565
0.000155578
0.000156908
0.00214555
0.000155416
0.00015865
0.000147223
0.0253949
0.000180094
0.000148337
0.000154263
0.000151
0.029378
0.000199329
0.000163889
0.0502643
6.28092e-05
0.000361038
0.000190232
0.000248181
0.000146764
0.000187721
0.000147545
0.000154999
0.0177513
0.0433908
0.000246352
0.000519614
0.000148519
0.0258086
0.000146737
0.000189937
0.000153762
0.0155531
0.0787872
0.000156934
0.000147693
0.000239973
0.000162285
0.000147765
0.0382162
0.00014815
0.000151717
0.000155626
0.000148797
0.000160603
0.000151119
0.000148132
0.000162686
0.000251724
0.000169344
0.000176281
0.00014774
0.0298204
0.0439913
0.000147547
0.000243084
0.000153684
0.000156899
0.0490549
0.000147521
0.000149955
0.000156168
0.0461361
0.000147824
0.00014902
0.000168177
0.0218258
0.000147408
0.000159433
0.000161425
0.00144376
0.000171318
0.000167817
0.000224845
0.00014818
0.000174095
0.00014528
0.0282747
0.000159763
0.000148025
0.000158238
0.000187566
0.000148752
0.000148718
0.00020324
0.0460345
0.000149442
0.0296931
0.000149068
0.000145216
0.000181698
0.000147833
0.000147447
0.084871
0.000149782
0.000169146
0.000208652
0.0539208
0.00103432
0.000146916
0.000152018
0.000156016
0.000148132
0.000148107
0.000148315
0.00448811
0.000149135
0.000238676
0.000200047
0.000146985
0.000145796
0.000160286
0.00020003
0.000246683
0.000167107
0.000177268
0.000152125
0.0522356
0.000177282
0.000162237
0.000170131
0.000172787
0.000188557
0.0258707
0.000168848
0.0295927
0.0203144
0.0235165
0.000154194
0.000147623
0.000166024
0.00015929
0.000146662
0.000149486
0.000179752
0.000149529
0.000149067
0.000147966
0.00014437
0.000152373
0.000148239
0.0220935
0.000147668
0.0355913
0.000148194
0.000174767
0.000149867
0.000200528
0.000174507
0.000148127
0.0544379
0.000151959
0.000149385
0.000169358
0.000146564
0.000158525
0.000147862
0.0469626
0.000152756
0.00016984
0.00017136
0.0512413
0.0001571
0.000218433
0.0021095
0.000170181
0.000148466
0.000150929
0.000177035
0.000180725
0.0246516
0.000145998
0.0326638
0.000148254
0.00017039
0.0819925
0.000164114
0.0138019
0.000154217
0.000162816
0.000153372
0.0851509
0.000160578
0.000148676
0.000169247
0.000200279
0.000151577
0.00014793
0.00014869
0.0649596
0.000149606
0.000156382
0.0663985
0.000154606
0.000147711
0.000172167
0.000153832
0.0375231
0.000144852
0.00014793
0.000146496
0.000154243
0.000149408
0.000148518
0.000182804
0.0622831
0.000147559
0.000148378
0.0431954
0.000149177
0.0164052
0.000153066
0.0807636
0.000146835
0.000152638
0.000146076
0.0309531
0.0676899
0.000158652
0.000169946
0.000155034
0.000147489
0.000148486
0.0470894
0.000148632
0.0001898
0.000146479
0.000171527
0.000149086
0.0568563
0.000146303
0.000173048
0.000146962
0.000226998
0.000295955
0.000146347
0.000166576
0.0862233
0.000184442
0.0202136
0.0108079
0.0002059
0.000151216
0.00016396
0.000190571
0.0110352
0.000149047
0.000168603
0.000156149
0.000147711
0.0276369
0.0377133
0.000184481
0.000206466
0.000237573
0.000161778
0.059085
0.000146591
0.000146271
0.000188348
0.0849242
0.00021673
0.000200795
0.00226323
0.000146097
0.0843106
0.0356883
0.0804716
0.000149186
0.0313235
0.0459809
0.000307387
0.000394501
0.0464511
0.000190636
0.000160284
0.000204532
0.000153752
0.000147671
0.000846444
0.000192106
0.000144737
0.0359961
0.000149077
0.000157829
0.000170788
0.000154957
0.000677599
0.00016028
0.0122997
0.000172697
0.000154361
0.012239
0.0727598
0.000202224
0.000149298
0.000153905
0.000183439
0.000169208
0.000146217
0.000172636
0.000168078
0.00019844
0.000147657
0.000209965
0.000152795
0.000169202
0.0312573
0.000211617
0.000150688
0.000186583
0.0335268
0.0001486
0.000150227
0.0792038
0.000225729
0.000153243
0.000154011
0.000148277
0.000175599
0.000155728
0.0479271
0.000189965
0.000149574
0.000149356
0.000167299
0.000158377
0.000158372
0.0289016
0.000146824
0.000147843
0.0001572
0.000149124
0.000153204
0.000150484
0.000150414
0.000154055
0.000147269
0.000153377
0.000148742
0.000174356
0.00992309
0.000149701
0.0648826
0.0163977
0.000145285
0.000184506
0.000188401
0.000180298
0.000150034
0.000192173
0.000157447
0.000169406
0.000160436
0.000151341
0.00014924
0.0243207
0.000159516
0.0148226
0.00015
0.000148021
0.000147749
0.000174205
0.000147487
0.000175151
0.000181716
0.000308347
0.000146973
0.000205093
0.00534663
0.0467854
0.000146029
0.000195457
0.00022735
0.00697877
0.000799074
0.000149703
0.000148929
0.000194817
0.00144744
0.00653124
0.000169257
0.00024774
0.000149423
0.000147
0.000164712
0.000149139
0.000148578
0.000199994
0.000149712
0.000170456
0.000146765
0.0728292
0.0647088
0.0305863
0.0295171
0.043701
0.000148536
0.000148718
0.0822554
0.000146159
0.000146452
0.000145238
0.000184907
0.0706989
0.0260103
0.000155724
0.000148709
0.000151086
0.000163
0.0297784
0.000147813
0.0117641
0.074433
0.000149079
0.000148979
0.0355835
0.000188606
0.000152018
0.000147931
0.0721215
0.0445572
0.000148045
0.000218652
0.000149615
0.0486996
0.000164653
0.000152671
0.0269122
0.0163629
0.052943
0.000146583
0.000148994
0.000149544
0.000149883
0.0660624
0.000147139
0.000199891
0.000245498
0.0227621
0.000150221
0.000174559
8.40633e-05
0.000173198
0.0805671
0.0523061
0.000144614
0.000155769
0.00015592
0.000203359
0.0540194
0.000144229
0.0241799
0.000160225
0.000171349
0.000150055
0.000147096
0.000222598
0.000167333
0.0191
0.000149138
0.000174182
0.000149975
0.000200771
0.000153487
0.0607381
0.00680233
0.000204869
0.00019314
0.0001476
0.00015218
0.000190331
0.00018428
0.0586025
0.0859549
0.000148742
0.0147961
0.00017163
0.0728736
0.000157888
0.000169621
0.000167502
0.000148431
0.0599684
0.000148109
0.000163212
0.0307567
0.0713496
0.000525262
0.0698117
0.000157075
0.000174554
0.000145943
0.0733425
0.000156077
0.0338958
0.000145863
0.0449609
0.000143997
0.000147607
0.000162685
0.000158326
0.000159686
0.000147702
0.0376757
0.000172218
0.000147172
0.000165328
0.0317764
0.000251262
0.000148075
0.0570851
0.000153085
0.000165192
0.000163618
0.000145083
0.000178344
0.000147562
0.0142335
0.000174153
0.000157902
0.000147887
0.000229249
0.000168055
0.000145855
0.0432042
0.00459896
0.000225506
0.000145298
0.000706877
0.000148679
0.000192259
0.000158592
0.000182948
0.00869521
0.0366733
0.00015948
0.069674
0.000170317
0.000157049
0.000146316
0.0549916
0.000181316
0.000190556
0.000166181
0.000149525
0.0192372
0.000183965
0.000234126
0.000248594
0.0865458
0.0378507
0.00278864
0.0332905
0.00015745
0.000158498
0.000148317
0.000148355
0.000144398
0.000212404
0.000157782
0.000159789
0.0627405
0.000147237
0.000146417
0.000170619
0.000200715
0.000158502
0.00014641
0.065526
0.000153224
0.000174297
0.000148711
0.0232048
0.000156722
0.0770139
0.000167199
0.000164072
0.000171974
0.000148263
0.0106575
0.000115212
0.000180457
0.000148056
0.000146787
0.0232225
0.0453434
0.0448235
0.00014717
0.000180725
5.04828e-05
0.000148331
0.000147601
0.000148291
0.0694355
0.000172984
0.000162696
0.00015857
0.000156501
0.0457381
0.000180581
0.000226714
0.000157268
0.00016303
0.000144326
0.000184734
0.000173612
0.000147897
0.0458161
0.0544051
0.0626899
0.0446038
0.0420694
0.0841403
0.0839354
0.000150781
0.000147148
0.0691079
0.0382485
0.0294554
0.00014818
0.000168783
0.000148133
0.000147525
0.00900576
0.0730184
0.0001821
0.000147616
0.00020959
0.000191718
0.000173723
0.0379815
0.00147106
0.000239094
0.000146829
0.0606087
0.00311135
0.000226591
0.000163569
0.000170179
0.000148733
0.000146644
0.000166905
0.000171404
0.000153109
0.00016969
0.000158471
0.000153623
0.000233309
0.0353282
0.000158993
0.000171112
0.0460322
0.000220651
0.000148443
0.000196562
0.000234451
0.0268249
0.000168212
0.000148601
0.000160082
0.000156328
0.000158112
0.000145078
0.000158889
0.000162452
0.000173495
0.000203662
0.000149418
0.000150919
0.0375696
0.0489573
0.0701856
0.000105714
0.000198122
0.000143825
0.000148068
0.000160644
0.000145842
0.0860042
0.000148028
0.00014978
0.000145503
0.0457972
0.0180767
0.00014935
0.000182195
0.000157526
0.000161674
0.000160124
0.000159792
0.000169172
0.000165338
0.0212071
0.000156489
0.0403906
0.000166428
0.0691799
0.000159198
0.000146986
0.000146252
0.000192707
0.000202974
0.000146159
0.000163184
0.000159504
0.000176097
0.0270218
0.0242425
0.0299957
0.000149778
0.000298362
0.000158118
0.000164063
0.000147882
0.000179928
0.000151903
0.028758
0.000295674
0.000165923
0.000148189
0.0483356
0.000155283
0.0349182
0.0372058
0.000235662
0.000152791
0.0001976
0.0373885
0.000223333
0.0503855
0.000177243
0.000147676
0.000166608
0.000147179
0.0817337
0.000153172
0.000161174
0.000210556
0.0667644
0.00014744
0.000147559
0.041711
0.000168581
0.0812442
0.000158675
0.000147933
0.000169619
0.000222787
0.000162774
0.0115335
0.000163821
0.000210669
0.000154475
0.000149543
0.000147448
0.000215354
0.00014993
0.000184047
0.00014817
0.000147963
0.000211262
0.00015663
0.000148434
0.000147857
0.000163402
0.00016501
0.000171453
0.000167217
0.000154606
0.000178126
0.000148056
0.000192405
0.000160836
0.000170576
0.000167612
0.000159278
0.000175691
0.000163454
0.000146983
0.000184021
0.0486659
0.0338961
0.000148578
0.000432755
0.0343798
0.000147573
0.000149938
0.000230162
0.0403965
0.000155772
0.033937
0.000242937
0.000148469
0.000190299
0.000144367
0.000156152
0.000178828
0.0259925
0.000207337
0.000245542
0.000134155
0.0444869
0.053164
0.000152203
0.0448178
0.000147969
0.00298774
0.0501446
0.00014835
0.000148187
0.0330536
0.000148516
0.000148237
0.000256012
0.0568786
0.000217788
0.000156701
0.0452665
0.000148358
0.0483085
0.038887
0.000149081
0.000136148
0.00583946
0.0439631
0.0357265
0.0397428
0.0321436
0.000146684
0.00015089
0.000179478
0.000182661
0.000148199
0.000218518
0.000147948
0.0405484
0.000258645
0.000164715
0.000246892
0.0413175
0.000257841
0.000229399
0.000166436
0.0193034
0.000248555
0.000155337
0.00014471
0.00540308
0.000161317
0.000146094
0.0824578
0.000147639
0.00786482
0.000148618
0.0709985
0.000155714
0.000147605
0.00416495
0.000155509
0.000160545
0.0297386
0.074107
0.000394183
0.000158734
0.000173154
0.000151104
0.000169427
0.000200025
0.000169832
0.000149242
0.000340631
0.000180346
0.000161239
0.0312867
0.000168884
0.000162374
0.000200091
0.000183668
0.00017273
0.000147573
0.00020704
0.000146261
0.000200405
0.000122914
0.0410969
0.000146558
0.000166806
0.0255225
0.000151731
0.000178733
0.000162665
0.000169011
0.0746036
0.000180546
0.000151246
0.0259517
0.00014663
0.0477132
0.000148553
0.000151033
0.00020055
0.0456683
0.000160909
0.000191722
0.000222059
0.000162637
0.000148864
0.000178736
0.000170964
0.0627573
0.000154695
0.00369095
0.000203448
0.000162653
0.000159911
0.000179624
0.000165119
0.000168302
0.000180619
0.000162747
0.000153316
0.000148661
0.000637288
0.00014793
0.00015885
0.000144482
0.00019741
0.000159407
0.000180728
0.0429373
0.000150593
0.000217971
0.000143619
0.00014864
0.00014908
0.000149218
0.000157374
0.000147157
0.000190756
0.0254718
0.000180715
0.000172444
0.00015506
0.000148102
0.000220638
0.000147993
0.0305603
0.0349642
0.0285207
0.000206086
0.000162984
0.000158173
0.000148989
0.000157719
0.000171737
0.000168601
0.0480581
0.00018066
0.0586616
0.00020663
0.000149249
0.000146291
0.0335198
0.0001475
0.000160578
0.00016716
0.000239512
0.000151971
0.0661593
0.000148941
0.00015501
0.000148141
0.000149825
0.00017859
0.000196853
0.000148846
0.000163856
0.000159767
0.000173186
0.000180275
0.000219944
0.00020161
0.000212397
0.000203245
0.000157038
0.00015079
0.000180019
0.045074
0.0808436
0.0501237
0.000163005
0.026458
0.00019631
0.000150563
0.000147558
0.000182393
0.00014871
0.000163829
0.0227129
0.000147483
0.000146635
0.000268289
0.0112705
0.000174437
0.000431099
0.000148509
0.0270417
0.000168367
0.0705762
0.000156832
0.000148025
0.0490598
0.00016561
0.000148064
0.000172952
0.000149609
0.000191353
0.000158802
0.000164484
0.084472
0.000159508
0.0501165
0.000147126
0.0533651
0.00014853
0.000155946
0.000149561
0.000170847
0.000148695
0.000166753
0.0481115
0.000262929
0.000174068
0.000160464
0.000169082
0.000147341
0.000148289
0.000151193
0.000833184
0.000155393
0.0733755
0.035294
0.000189958
0.0001493
0.000193001
0.000206049
0.000201434
0.000156716
0.0389176
0.000147665
0.00014384
0.000147528
0.00514462
0.000148354
0.000147962
0.0495534
0.000147542
0.000201636
0.000173048
0.000146736
0.0600924
0.000159578
0.070581
0.000147578
0.00202345
0.000150497
0.000167865
0.0292859
0.000182473
0.000147307
0.000158302
0.0352009
0.000163658
0.000194245
0.000161754
0.000155798
0.000188456
0.000157644
0.000149195
0.00697141
0.000159314
0.000159566
0.000204715
0.000147596
0.000146745
0.00014907
0.000162579
0.000148516
0.000154459
0.0559133
0.0152226
0.000172719
0.00956835
0.000182073
0.000165811
0.0683208
0.0503883
0.000149422
0.0162088
0.0494951
0.0355282
0.000836448
0.000160913
0.0323535
0.0520695
0.0471483
0.000851291
0.0818825
0.000163173
0.000170526
0.000157417
0.00015674
0.000149385
0.000242921
0.000149876
0.0186805
0.000175815
0.000201013
0.000144303
0.000186744
0.000164117
0.000151452
0.000149942
0.000148478
0.000175276
0.000152537
0.000149224
0.00017022
0.0561248
0.000153535
0.000193066
0.000146206
0.000175226
0.00017021
0.000148629
0.000155452
0.000147173
0.071152
0.0617526
0.000206899
0.00454023
0.000160966
0.000189257
0.000148604
0.000170697
0.000148274
0.000149146
0.000149447
0.0528493
0.000146037
0.000173772
0.000248686
0.000156669
0.000161899
0.000147675
0.0672734
0.00020657
0.0421935
0.0339247
0.00020157
0.000233652
0.0313397
0.000240623
0.000162015
0.0169041
0.000175734