/*--------------------------------*- C++ -*----------------------------------*\
| =========                 |                                                 |
| \\      /  F ield         | OpenFOAM: The Open Source CFD Toolbox           |
|  \\    /   O peration     | Version:  v2012                                 |
|   \\  /    A nd           | Website:  www.openfoam.com                      |
|    \\/     M anipulation  |                                                 |
\*---------------------------------------------------------------------------*/
FoamFile
{
    version     2.0;
    format      ascii;
    class       volScalarField;
    location    "200";
    object      k_0;
}
// * * * * * * * * * * * * * * * * * * * * * * * * * * * * * * * * * * * * * //

dimensions      [0 2 -2 0 0 0 0];


internalField   nonuniform List<scalar> 
13851
(
0.000203976
0.00015382
0.000153615
0.0199035
0.000148182
0.000156327
0.000154551
0.00014685
0.0508941
0.000148003
0.000177734
0.000148181
0.000148496
0.0289399
0.000168054
0.000205443
0.017539
0.000147849
0.000235134
0.000203781
0.000171165
0.000155286
0.0339361
0.000149695
0.0264797
0.000185659
0.000166248
0.0163277
0.0464208
0.000145933
0.0456466
0.000154523
0.000203953
0.0694654
0.000170078
0.0459548
0.000149782
0.0175488
0.06603
0.000148237
0.0701712
0.0482267
0.00633231
0.000223003
0.0507391
0.000146975
0.000144484
0.000204495
0.000151889
0.000148466
0.0249907
0.000148708
0.000205393
0.000163493
0.0270134
0.000148242
0.000204284
0.0676831
0.000102687
0.0300032
0.000148241
0.000243471
0.000148327
0.000152156
0.000183907
0.000184534
0.0243915
0.000167387
0.000148474
0.0287938
0.0408118
0.000176525
0.000148007
0.0267177
0.000164894
0.000152066
0.0229253
0.000145087
0.0176768
0.000147272
0.000148546
0.000238378
0.000169491
0.0311382
0.0312813
0.0445135
0.000155539
0.0207714
0.00014794
0.0455817
0.000148818
0.000154688
0.00938367
0.0401873
0.0599409
0.000202551
0.000147176
0.000206499
0.0261997
0.000197004
0.000207919
0.00016232
0.000163464
0.000148245
0.000146935
0.000174966
0.000146936
0.0432014
0.000154652
0.000147692
0.000159446
0.000146979
0.000204561
0.000179723
0.000203652
0.000162648
0.000145826
0.000146363
0.0173347
0.0322835
0.000192611
0.00014675
0.00014839
0.0489325
0.000227759
0.000173854
0.000147167
0.000172768
0.0650485
0.00017505
0.000155201
0.000161511
0.0048019
0.068464
0.000178406
0.0596679
0.000166896
0.0430479
0.000160186
0.000174943
0.000231375
0.000149855
0.00014796
0.000172911
0.029627
0.000151601
0.000145022
0.0407478
0.0409294
0.000173526
0.000207452
0.000203059
0.000180951
0.000225532
0.000148993
0.000148207
0.00014836
0.0621398
0.000172408
0.000153099
0.00014952
0.0462774
0.000174302
0.000204527
0.0295244
0.0542326
0.0553018
0.0296378
0.000159124
0.0744062
0.000148366
0.00014584
0.000179516
0.000148649
0.0634251
0.000189831
0.000210227
0.000145745
0.000164929
0.000209219
0.000225856
0.000222749
0.000158484
0.000174774
0.00725579
0.0416062
0.000203954
0.000157118
0.000148796
0.000146403
0.0125995
0.00017236
0.0237763
0.000156548
0.000151338
0.000205982
0.000203112
0.000148945
0.000148951
0.000168229
0.000231225
0.064213
0.0679474
0.000168085
0.000281552
0.0602619
0.000151628
0.000174786
0.0522605
0.000155439
0.000204843
0.000148332
0.000235435
0.000149459
0.000170663
0.000153176
0.000148388
0.000225377
0.000149033
0.000511481
0.000145718
0.000203529
0.0269197
0.0614063
0.000156741
0.00017516
0.0001497
0.000171086
0.000147685
0.00017035
0.0332718
0.00015669
0.00015539
0.000148492
0.0659101
0.000145901
0.0177728
0.066941
0.000193385
0.00014959
0.000308332
0.0319078
0.0507204
0.00020479
0.000164387
0.000176511
0.000218824
0.000165194
0.00020163
0.000161053
0.022267
0.000201806
0.0001465
0.000156679
0.000207052
0.0450629
0.0236958
0.000146355
0.000174608
0.00014791
0.000217561
0.000226337
0.000157263
0.000174992
0.000202398
0.000147684
0.000162943
0.000199643
0.00709339
0.000148208
0.000148372
0.00015692
0.0599939
0.0120905
0.000174507
0.000146978
0.000226474
0.000225642
0.000200219
0.000174488
0.0589233
0.0257038
0.000157608
0.000165349
0.0225618
0.000146886
0.000148353
0.000201019
0.000174629
0.000145929
0.000149436
0.000147623
0.000147514
0.000164434
0.000148299
0.0524962
0.000172555
0.000147719
0.0448238
0.0462637
0.000148768
0.000204118
0.0252998
0.000150085
0.000148846
0.000173897
0.0294518
0.0777682
0.000182531
0.000148096
0.0713007
0.000148304
0.000184262
0.0303596
0.00508954
0.000152798
0.0108609
0.000658623
0.0482075
0.000202233
0.000163291
0.0647566
0.0552953
0.0136501
0.000149179
0.0250314
0.00833702
0.000218871
0.00021307
0.000151653
0.000181787
0.000157492
0.0219347
0.00016388
0.000146501
0.000143838
0.00015727
0.0447383
0.000386415
0.00014682
0.0587702
0.000157567
0.000161768
0.000153336
0.0255046
0.000226092
0.000206256
0.000152789
0.000154728
0.0441286
0.00014882
0.000228263
0.000157501
0.000173817
0.000158227
0.000147924
0.000147688
0.000198457
0.000200354
0.000202328
0.00128498
0.0449252
0.00015172
0.0648947
0.000225393
0.000145706
0.00664724
0.000192456
0.0308185
0.000156764
0.000187055
0.000214186
0.0104322
0.000196684
0.0245418
0.000150291
0.000163233
0.0068843
0.000161539
0.0271575
0.000163757
0.0700886
0.00016499
0.000171336
0.000201372
0.000213284
0.000148215
0.00015692
0.000175738
0.000165192
0.000147163
0.000174863
0.0642141
0.000147977
0.000174852
0.0123063
0.000153331
0.0011864
0.000174138
0.0805411
0.000156105
0.000184109
0.00031856
0.000227549
0.000174292
0.0201364
0.0269608
0.000314633
0.000147728
0.000197852
0.000163779
0.0001867
0.000146834
0.00737643
0.0700392
0.0168383
0.000154662
0.000201984
0.000239135
0.013198
0.000144555
0.0186622
0.000220143
0.0329013
0.000161753
0.0210518
0.00014811
0.000148549
0.0231209
0.000229496
0.000148003
0.000153851
0.000175382
0.000146106
0.066357
0.000182141
0.00019192
0.000156684
0.000150329
0.000148776
0.00540342
0.000147682
0.000148711
0.0275802
0.0626007
0.000154678
0.000252473
0.000148381
0.000148288
0.000153869
0.000202676
0.000173916
0.000147256
0.000151003
0.00019188
0.00015222
0.0801369
0.000148139
0.000159286
0.051307
0.000160819
0.000144273
0.00014851
0.000156539
0.000149457
0.000293725
0.0361361
0.000164624
0.000600573
0.000153974
0.000148
0.062078
0.000208902
0.000160159
0.000148058
0.052942
0.000159571
0.00268308
0.000148253
0.000161851
0.00019758
0.000166619
0.0592929
0.000222312
0.00915284
0.000151905
0.0002035
0.000147669
0.045216
0.000174024
0.000203076
0.000163594
0.000152464
0.000160851
0.000180069
0.000148277
0.0139264
0.0601531
0.0807237
0.00741046
0.0341745
0.0335076
0.0002277
0.000156173
0.00014923
0.00252221
0.000148014
0.000147133
0.000157484
0.066146
0.000153503
0.000149852
0.000174989
0.000173455
0.000148065
0.0795402
0.000147189
0.066586
0.000275094
0.000147255
0.000152563
0.000222901
0.00789925
0.000145969
0.0478106
0.0143016
0.000145763
0.0565361
0.00023456
0.000203025
0.000151858
0.0257159
0.0306321
0.000145966
0.000239431
0.00014842
0.000147201
0.0201245
0.0709711
0.000168022
0.00017332
0.000148022
0.000181163
0.0667528
0.0622207
0.000147021
0.0239322
0.000147223
0.000148491
0.000174539
0.000159459
0.000144505
0.000152065
0.0583986
0.000210436
0.0548119
0.000152931
0.000147894
0.0596743
0.000148997
0.000198757
0.000159049
0.000164891
0.000164116
0.0497549
0.0303764
0.000156383
0.0174349
0.000152296
0.000181289
0.04895
0.0329246
0.000148359
0.000147709
0.000163912
0.0560283
0.000242383
0.000180644
0.00600514
0.000159649
0.000164155
0.0410218
0.0822808
0.000184453
0.0648424
0.000215328
0.0466803
0.00014974
8.98724e-05
0.00497954
0.000148163
0.0107272
0.0866384
0.000159235
0.000174889
0.000148164
0.000516974
0.000177006
0.0521473
0.000147711
0.000148872
0.000154791
0.000172933
0.000148218
0.0630198
0.000148825
0.000214464
0.000151931
0.000187329
0.000148221
0.000148083
0.000168144
0.0241741
0.000174009
0.0577413
0.000161888
0.000146195
0.000146353
0.000179823
0.000150968
0.000190033
0.000154295
0.000159829
0.000101507
0.00014901
0.0195579
0.000149614
0.000194108
0.0199804
0.0537747
0.000156203
0.043191
0.000174359
0.000206638
0.0865564
0.00014766
0.0839489
0.000157626
0.000162393
0.00941414
0.00013679
0.000145844
0.000189464
0.000148842
0.0454377
0.0258642
0.000148867
0.000168117
0.0695997
0.000149696
0.000149604
0.000185885
0.0163371
0.0162628
0.00014886
0.000201077
0.000151804
0.000148099
0.000103044
0.000201553
0.000196003
0.00014434
0.000199672
0.00016425
0.000182148
0.000149937
0.000151054
0.000175715
0.000154561
0.000202142
0.00017633
0.000176243
0.000180504
0.000237888
0.000236072
0.0527796
0.03618
0.000205986
0.0375263
0.000163638
0.0237093
0.000204109
0.000147561
0.000163546
0.000230406
0.000156395
0.000147284
0.000147238
0.0001944
0.0219954
0.000159511
0.0639274
0.000146229
0.0203577
0.000180219
0.0240181
0.000188984
0.000156278
0.000153653
0.0281694
0.000196028
0.000163219
0.000226893
0.000149966
0.00219885
0.000194466
0.000214716
0.000162888
0.000263009
0.000148096
0.000149546
0.000151218
0.000148107
0.0491531
0.000147509
0.000140594
0.058825
0.000189585
0.0640245
0.0290511
0.000216803
0.000210993
0.00015628
0.000148994
0.000148305
0.000145138
0.00014633
0.000148667
0.000181778
0.000203639
0.000165088
0.0108035
0.000150993
0.0508641
0.000149946
0.0230643
0.000168022
0.000149862
0.000148612
0.0542304
0.000156577
0.0196672
0.0867397
0.000173686
0.000184596
0.000145591
0.0688391
0.000152719
0.000153603
0.000101031
0.000149022
0.000149831
0.000147384
0.000174039
0.0235936
0.000159668
0.000163347
0.00022505
0.0585041
0.000156698
0.000155477
0.0482034
0.000145103
0.0474783
0.000149178
0.000152286
0.014912
0.000190132
0.000203184
0.000184925
0.000174252
0.00014939
0.000149947
0.000182708
0.000149897
0.000149452
0.00016025
0.0002197
0.000147386
0.000203022
0.000676931
0.0127358
0.000184704
0.0456837
0.00016038
0.000148957
0.000195472
0.000146334
0.000157044
0.0483768
0.0445598
0.0834925
0.0487212
0.000149056
0.000148739
0.000170087
0.000150745
0.000146696
0.0274303
0.000218377
0.0289053
0.000194235
0.000190603
0.000148142
0.000145981
0.00267639
0.000191859
0.000152861
0.000149604
0.000203152
0.000207267
0.0656141
0.000148954
0.000148761
0.0202
0.000149891
0.000163944
0.000146134
0.0676357
0.000147369
0.022437
0.000148163
0.000190485
0.000169132
0.000169645
0.000163208
0.000148003
0.000153829
0.000147689
0.000163332
0.000149883
0.0280093
0.00015018
0.0213354
0.0622654
0.000161543
0.000147534
0.0137586
0.0364547
0.000156947
0.000190043
0.000148297
0.0190928
0.000147685
0.000228806
0.000148066
0.000147663
0.0150317
0.000164344
0.000148429
0.000163992
0.0652876
0.000472928
0.0726096
0.000146352
0.0400475
0.000148158
0.000147442
0.000148986
0.000143463
0.000149449
0.0785531
0.0528093
0.000149083
0.000148792
0.000168351
0.000146988
0.0173057
0.000196492
0.033132
0.0661166
0.000153756
0.000202022
0.000148107
0.000171072
0.000176862
0.000147461
0.000149248
0.000438839
0.0276232
0.000183947
0.00862394
0.000182762
0.000148359
0.000169417
0.000190469
0.0207436
0.000163378
0.00122751
0.000192458
0.000149366
0.0578386
0.0560445
0.028825
0.00715514
0.0190656
0.000151838
0.000176203
0.000148717
0.000412672
0.000155904
0.000146521
0.0756433
0.000150758
0.00014754
0.000148365
0.000150462
0.0644078
0.0002287
0.000146597
0.000169954
0.0297123
0.000151219
0.00788435
0.000150925
0.000189017
0.0698315
0.000148323
0.000244298
0.000158827
0.000162613
0.000492454
0.000150743
0.000237119
0.000183642
0.0690774
0.000149252
0.0262333
0.000161106
0.0411008
0.021846
0.0212263
0.000173763
0.000148105
0.000149119
0.000149695
0.000170076
0.000148535
0.0613407
0.000157719
0.000156055
0.000156522
0.000151736
0.000146315
0.000158359
0.00015702
0.000152541
0.000156279
0.0852397
0.000186753
0.000160693
0.000170258
0.0751682
0.000149934
0.0478784
0.000145169
0.000160785
0.000149908
0.000147578
0.000167154
0.000147961
0.000146551
0.000163283
0.000148246
0.000216457
0.00015058
0.00947242
0.00168677
0.000218498
0.000228437
0.000148518
0.0604778
0.000207261
0.000149387
0.000156846
0.000149654
0.0514358
0.000150906
0.00016293
0.00553121
0.0101104
0.000178923
0.000148676
0.0506412
0.00352772
0.022784
0.000158725
0.000146121
0.000146882
0.000182617
0.000148104
0.0262291
0.000199285
0.000149151
0.000226011
0.000219321
0.000147256
0.0858892
0.0203833
0.000217429
0.000150436
0.0498804
0.000181584
0.000147704
0.023527
0.000155296
0.000146998
0.000147263
0.000163838
0.000170298
0.0552019
0.0490001
0.000171117
0.0557397
0.000165279
0.000147947
0.000169226
0.000147281
0.0010648
0.000147244
0.000147886
0.000152337
0.000149797
0.0605322
0.0215267
0.000235444
0.0295145
0.084892
0.000156736
0.000148007
0.000150584
0.000238159
0.000147074
0.000147608
0.000168948
0.0220988
0.00024021
0.000144957
0.000165518
0.000163484
0.000202407
0.0074357
0.000145742
0.000144396
0.000152618
0.00707263
0.000160183
0.0667636
0.000151008
0.000148855
0.000147068
0.000147227
0.000153158
0.000216799
0.0467892
0.0534525
0.000156477
0.000148004
0.00129211
0.000149483
0.0299875
0.0376533
0.000157889
0.0273673
0.0483228
0.0410912
0.000179217
0.000163168
0.0445178
0.000161533
0.000160187
0.000170453
0.000207493
0.000149745
0.000494877
0.000147975
0.042923
0.0144944
0.000145202
0.000151994
0.000167469
0.000231893
0.000164389
0.000148683
0.000159333
0.000150908
0.000156359
0.000242663
0.000148856
0.0402531
0.0235701
0.000148008
0.000162259
0.000169977
0.000148209
0.0436691
0.0114004
0.0625112
0.0332274
0.000147869
0.000153456
0.000156154
0.000149
0.000232921
0.000164804
0.000149636
0.000182693
0.000154195
0.0327654
0.000169282
0.0253439
0.000150779
0.000151239
0.000163922
0.000191353
0.000184271
0.000147698
0.00902665
0.0447318
0.0255568
0.037881
0.0471739
0.0543853
0.0390913
0.000147704
0.000147883
0.000148201
0.000239647
0.000173453
0.000183885
0.0141211
0.000149036
0.000144849
0.000148022
0.00022366
0.00014494
0.000157345
0.000151888
0.0238646
0.000150445
0.000146391
0.000148244
0.000147663
0.000148849
0.000159916
0.000232699
0.000160288
0.0589594
0.000147895
0.000147241
0.0649859
0.064775
0.0206614
0.013577
0.000164203
0.0187054
0.000146078
0.000170041
0.000151229
0.0001482
0.000153994
0.0265917
0.000151298
0.000191807
0.00234264
0.000149156
0.000147502
0.000154538
0.00021696
0.000149766
0.0239077
0.000148102
0.000222597
0.000148555
0.000149056
0.000157138
0.000172529
0.000148523
0.000130363
0.0417987
0.000212962
0.0682996
0.000148111
0.0245886
0.000116185
0.000147978
0.0133191
0.000148981
0.000162029
0.00014881
0.000148909
0.000147219
0.000148082
0.000149463
0.000155222
0.000183947
0.000148877
0.000148333
0.00016656
0.000145668
0.0839171
0.000148559
0.000162577
0.000165211
0.0349088
0.00315209
0.000148731
0.000217517
0.000146085
0.00016231
0.000174169
0.0105321
0.000175092
0.000149769
0.000198592
0.000168533
0.000190273
9.57893e-05
0.000160901
0.000199945
0.000180641
0.000184664
0.000150354
0.000146863
0.0126524
0.0117039
0.000153635
0.000147673
0.00857031
0.000146264
0.000170498
0.000147295
0.000178271
0.00988696
0.000143949
0.0159903
0.000156206
0.000148918
0.000209536
0.000146517
0.000161447
0.0349209
0.000168523
0.0143818
0.00014718
0.000149707
0.000162524
0.000149385
0.000149549
0.000159226
0.000160346
0.00018399
0.000179729
0.000148337
0.000165494
0.000146678
0.000148055
0.000149295
0.000147996
0.000488189
0.000147438
0.000150997
0.000248534
0.000146221
0.000147582
0.0621893
0.000149577
0.0117637
0.000151631
0.0599191
0.000225808
0.000164787
0.0017283
0.000178334
0.000283635
0.000149515
0.00020861
0.000156628
0.00014673
0.000146992
0.00015097
0.000161919
0.000147598
0.000171897
0.000146802
0.000151218
0.00700694
0.0248327
0.000293128
0.000153841
0.000163485
0.036671
0.0294727
0.000148945
0.000157036
0.000332545
0.000148827
0.000167663
0.000604708
0.0532714
0.000158176
0.000171862
0.000150219
0.000222263
0.000149876
0.000161133
0.0199426
0.0001486
0.000147018
0.0828379
0.000170146
0.00024255
0.0690784
0.000194807
0.000149347
0.000146828
0.000149177
0.0320347
0.00397442
0.0494032
0.00017496
0.000148122
0.0420286
0.000148425
0.000202347
0.000154798
0.000152117
0.000171058
0.000148025
0.0866269
0.0853286
0.000145472
0.000183568
0.000174295
0.00215791
0.000170987
0.000180406
0.000237833
0.000165187
0.000208843
0.000181673
0.000148445
0.000166399
0.000169127
0.029542
0.00014784
0.000858339
0.000172181
0.000181877
0.000149772
0.0832605
0.000156491
0.000151607
0.000146754
0.000166172
0.000165496
0.000166954
0.000148577
0.00014998
0.000172765
0.00830568
0.000176235
0.000148812
0.00014986
0.000166349
0.000218251
0.000148935
0.000181455
0.0172229
0.000168199
0.054476
0.000169821
0.0255898
0.000237109
0.000147721
0.000847182
0.000149482
0.000153845
0.000163864
0.000164887
0.000190382
0.000174138
0.000166156
0.00016758
0.000161121
0.000152512
0.000144879
0.000170588
0.000155577
0.000156909
0.00214322
0.000155416
0.000158652
0.000147223
0.0253874
0.000180092
0.000148336
0.000154263
0.000151
0.0293802
0.000199334
0.000163888
0.0502873
6.47675e-05
0.0003606
0.000190238
0.000248494
0.000146764
0.000187716
0.000147545
0.000154998
0.0176783
0.0433984
0.00024639
0.000523697
0.000148519
0.0258127
0.000146737
0.000189931
0.000153762
0.015609
0.078749
0.000156934
0.000147693
0.000240074
0.000162299
0.000147765
0.0382127
0.00014815
0.000151718
0.000155625
0.000148797
0.000160602
0.000151119
0.000148132
0.000162686
0.000251445
0.000169343
0.000176281
0.000147741
0.0298271
0.0440012
0.000147547
0.00024338
0.000153685
0.000156899
0.0490182
0.000147521
0.000149956
0.000156169
0.0461413
0.000147824
0.00014902
0.000168177
0.0219335
0.000147408
0.000159434
0.000161428
0.00143358
0.000171318
0.000167816
0.000224821
0.00014818
0.0001741
0.00014528
0.0282765
0.000159762
0.000148025
0.000158238
0.00018757
0.000148752
0.000148718
0.000203268
0.0460811
0.000149441
0.0296934
0.000149068
0.000145216
0.0001817
0.000147833
0.000147447
0.0849163
0.000149782
0.000169146
0.000208661
0.0539115
0.00102411
0.000146916
0.000152018
0.000156016
0.000148132
0.000148107
0.000148315
0.00452448
0.000149135
0.00023878
0.000200034
0.000146985
0.000145796
0.000160285
0.000200017
0.000247262
0.000167108
0.000177269
0.000152125
0.0522304
0.000177281
0.000162237
0.00017013
0.000172786
0.000188557
0.0258785
0.000168847
0.0295907
0.0202818
0.0235129
0.000154193
0.000147623
0.000166024
0.000159292
0.000146661
0.000149486
0.000179758
0.000149529
0.000149068
0.000147966
0.000144369
0.000152373
0.000148238
0.0220898
0.000147668
0.0357037
0.000148194
0.00017476
0.000149867
0.000200514
0.000174504
0.000148127
0.0544201
0.000151959
0.000149385
0.000169357
0.000146565
0.000158525
0.000147862
0.0469909
0.000152756
0.00016984
0.000171374
0.0512231
0.000157101
0.000218393
0.00211765
0.000170181
0.000148466
0.000150928
0.000177033
0.000180726
0.0246508
0.000145998
0.0326643
0.000148254
0.000170433
0.0819918
0.000164113
0.0138875
0.000154217
0.000162815
0.000153373
0.085142
0.000160577
0.000148676
0.000169247
0.000200282
0.000151577
0.00014793
0.00014869
0.0649682
0.000149606
0.000156382
0.0663829
0.000154607
0.000147711
0.000172167
0.000153833
0.0375424
0.000144852
0.00014793
0.000146496
0.000154244
0.000149408
0.000148518
0.0001828
0.0622636
0.000147559
0.000148378
0.0430896
0.000149177
0.0164058
0.000153066
0.0807478
0.000146835
0.000152639
0.000146076
0.0309466
0.0676745
0.000158655
0.000169948
0.000155036
0.000147489
0.000148486
0.0471228
0.000148632
0.000189793
0.000146479
0.000171525
0.000149086
0.0567772
0.000146303
0.000173046
0.000146962
0.000226973
0.000296127
0.000146347
0.000166575
0.0862436
0.000184439
0.0201851
0.0108772
0.00020589
0.000151216
0.000163959
0.000190577
0.0109627
0.000149047
0.000168602
0.000156149
0.000147711
0.0276331
0.0377154
0.000184481
0.000206503
0.000237698
0.000161777
0.059059
0.000146591
0.000146271
0.000188351
0.0849082
0.000216713
0.000200817
0.00218833
0.000146097
0.0842959
0.0356872
0.0804804
0.000149186
0.0313236
0.0459834
0.000307748
0.000406627
0.0464437
0.000190629
0.000160283
0.000204527
0.000153752
0.00014767
0.000848525
0.000192109
0.000144737
0.0359961
0.000149077
0.000157822
0.000170787
0.000154957
0.000752481
0.000160279
0.0122991
0.000172694
0.00015436
0.0121877
0.0727569
0.000202252
0.000149298
0.000153905
0.00018344
0.000169202
0.000146217
0.000172637
0.000168073
0.000198442
0.000147657
0.000209948
0.000152796
0.000169202
0.0312795
0.000212499
0.000150688
0.000186633
0.0335239
0.0001486
0.000150228
0.0792015
0.000225761
0.000153242
0.00015401
0.000148277
0.000175599
0.000155728
0.0479424
0.000189965
0.000149573
0.000149356
0.000167275
0.000158377
0.000169958
0.0289032
0.000146824
0.000147843
0.0001572
0.000149124
0.000153203
0.000150485
0.000150414
0.000154055
0.000147268
0.000153377
0.000148742
0.000174353
0.00988474
0.000149701
0.0648383
0.0163959
0.000145285
0.000184545
0.000188384
0.000180295
0.000150034
0.000192173
0.000157446
0.000169426
0.000160435
0.000151341
0.00014924
0.0243199
0.000159516
0.0147778
0.000150001
0.000148021
0.000147749
0.000174204
0.000147486
0.000175151
0.000181712
0.000311298
0.000146973
0.000206857
0.00536994
0.0467839
0.000146029
0.000195455
0.000227254
0.00701073
0.00079553
0.000149703
0.00014893
0.000194793
0.00142475
0.0065011
0.000169257
0.000248337
0.000149423
0.000147
0.000164712
0.000149139
0.000148578
0.000200004
0.000149712
0.000170508
0.000146766
0.0728328
0.0647041
0.0305801
0.0295278
0.0437002
0.000148536
0.000148718
0.0823097
0.000146159
0.000146452
0.000145238
0.000184921
0.0707026
0.0260097
0.000155724
0.000148708
0.000151086
0.000163
0.0297787
0.000147813
0.0118194
0.0744345
0.000149079
0.000148979
0.035584
0.0001886
0.000152018
0.000147931
0.0720674
0.0445651
0.000148045
0.000218674
0.000149615
0.0486951
0.000173004
0.000152671
0.0269035
0.0163624
0.0528448
0.000146583
0.000148994
0.000149544
0.000149883
0.0660427
0.000147139
0.000199679
0.000245727
0.0227613
0.00015022
0.000174558
8.58676e-05
0.000173198
0.0806207
0.0523011
0.000144614
0.000155768
0.00015592
0.000203311
0.0540195
0.000144229
0.0241724
0.000160223
0.000171348
0.000150055
0.000147096
0.000222644
0.000167332
0.0190982
0.000149137
0.000174182
0.000149974
0.000200759
0.000153486
0.0607178
0.00676668
0.000204837
0.000193123
0.000147599
0.000152181
0.000190331
0.000184345
0.0585788
0.0859958
0.000148742
0.0148175
0.000171645
0.0728801
0.000157889
0.000169621
0.000167502
0.000148431
0.0598861
0.000148109
0.000163212
0.0307573
0.0713585
0.000522091
0.0698172
0.000157075
0.000174554
0.000145943
0.0733446
0.000156077
0.0339056
0.000145863
0.0449707
0.000143997
0.000147608
0.000162684
0.000158326
0.000159686
0.000147702
0.0376758
0.000172216
0.000147172
0.000165327
0.0317702
0.000251256
0.000148075
0.0570778
0.000153085
0.000165191
0.000163617
0.000145083
0.000178345
0.000147563
0.0141966
0.000174151
0.000157902
0.000147887
0.000229207
0.000168055
0.000145855
0.0431666
0.00468446
0.00022561
0.000145298
0.000695835
0.000148679
0.000192261
0.000158592
0.000182926
0.0087975
0.036674
0.000159471
0.0696769
0.000170316
0.000157054
0.000146316
0.0549891
0.000181314
0.000190556
0.000166225
0.000149525
0.0193339
0.000183967
0.000234135
0.000248746
0.0865787
0.0378505
0.00276263
0.0332908
0.000157449
0.000158498
0.000148317
0.000148355
0.000144398
0.000212384
0.000157782
0.000159788
0.0627449
0.000147237
0.000146417
0.000170617
0.00020072
0.000158501
0.00014641
0.0655253
0.000153223
0.000174294
0.000148711
0.0232011
0.000156723
0.0769644
0.000167207
0.000164071
0.000171973
0.000148263
0.010657
0.000116348
0.000180458
0.000148056
0.000146787
0.0232204
0.0453376
0.044829
0.00014717
0.000180725
7.93315e-05
0.000148331
0.000147601
0.000148292
0.0694352
0.000172973
0.000162695
0.00015857
0.000156501
0.0457025
0.00018058
0.000226778
0.000157268
0.000163029
0.000144326
0.000184727
0.000173611
0.000147897
0.0458489
0.0544011
0.0626985
0.0446582
0.042071
0.0841362
0.0839797
0.000150781
0.000147148
0.0690465
0.038252
0.029436
0.00014818
0.000168783
0.000148133
0.000147525
0.00909886
0.0730251
0.0001821
0.000147616
0.000209083
0.000191726
0.000173724
0.0379793
0.00147781
0.000238845
0.000146829
0.0605908
0.00312164
0.000226492
0.000163568
0.000170179
0.000148733
0.000146644
0.000166905
0.000171403
0.00015311
0.000169689
0.00015847
0.000153623
0.000233261
0.0353289
0.000158994
0.00017111
0.0460322
0.000220675
0.000148443
0.000196633
0.000234022
0.026818
0.000168212
0.000148601
0.000160081
0.000156327
0.000158112
0.000145078
0.00015889
0.000162452
0.000173493
0.000203654
0.000149418
0.000150919
0.0375701
0.0489886
0.0701827
0.000107176
0.000198117
0.000143825
0.000148068
0.000160644
0.000145842
0.0860245
0.000148028
0.00014978
0.000145503
0.0458258
0.0181085
0.00014935
0.000182193
0.000157525
0.000161674
0.000160123
0.000159786
0.000169172
0.000165337
0.0212064
0.000156488
0.0403981
0.000166427
0.0691777
0.000159197
0.000146986
0.000146252
0.000192711
0.000203003
0.000146159
0.000163184
0.000159503
0.000176097
0.0270439
0.0242361
0.0300168
0.000149778
0.000280675
0.000158122
0.000164063
0.000147882
0.000179928
0.000151904
0.0287578
0.00029312
0.000165925
0.000148189
0.0483678
0.000155282
0.0349179
0.0372126
0.000235605
0.000152792
0.000197605
0.0373764
0.000236886
0.0503742
0.000177243
0.000147676
0.000166608
0.000147179
0.081746
0.000153173
0.000161173
0.000210619
0.0667667
0.00014744
0.000147559
0.0417071
0.00016858
0.0812386
0.000158677
0.000147933
0.000169619
0.000222802
0.000162774
0.0115105
0.000163821
0.000421811
0.000154474
0.000149543
0.000147448
0.000215317
0.00014993
0.000184036
0.00014817
0.000147964
0.000211235
0.00015663
0.000148435
0.000147857
0.000163401
0.000176095
0.000171451
0.000167216
0.000154606
0.000178126
0.000148055
0.000192367
0.000160835
0.000170577
0.000167566
0.000159278
0.00017569
0.00016346
0.000146983
0.000184019
0.0486745
0.0338968
0.000148578
0.000433007
0.0343802
0.000147572
0.000149938
0.000230007
0.0403927
0.000155775
0.0339371
0.000243093
0.000148469
0.000190292
0.000144366
0.000156151
0.000178829
0.0259395
0.000207294
0.000245556
0.000136923
0.044533
0.053159
0.000152204
0.0448135
0.000147969
0.0030319
0.0501465
0.00014835
0.000148187
0.0330506
0.000148516
0.000148237
0.000256144
0.0568532
0.00021782
0.000156701
0.0452677
0.000148358
0.0483489
0.0388873
0.000149081
0.000126926
0.0058548
0.0439659
0.035722
0.0397439
0.032138
0.000146684
0.00015089
0.000179479
0.000182661
0.000148199
0.000218494
0.000147948
0.0405501
0.000258638
0.000164712
0.000246829
0.0413196
0.000257734
0.000229477
0.000166445
0.0192998
0.000248416
0.000155337
0.00014471
0.00543142
0.000161317
0.000146094
0.0824438
0.000147638
0.00786622
0.000148618
0.0710104
0.000155714
0.000147605
0.00430266
0.00015551
0.000160545
0.0297354
0.0741735
0.000391825
0.000158734
0.000173152
0.000151104
0.000169425
0.000200048
0.000169831
0.000149242
0.00033937
0.000180348
0.000161239
0.0312805
0.000168884
0.000162374
0.000200091
0.00018367
0.000172728
0.000147572
0.000207042
0.000146261
0.000200414
0.000124211
0.0410996
0.000146558
0.000166805
0.0255223
0.000151731
0.000178734
0.000162665
0.000169012
0.0745451
0.000180548
0.000151246
0.0259744
0.00014663
0.0477468
0.000148553
0.000151032
0.000200552
0.0456768
0.000160909
0.000191771
0.000222105
0.000162637
0.000148864
0.000178739
0.000170965
0.062765
0.000154695
0.00404452
0.000203478
0.000162652
0.00015991
0.000179628
0.000165118
0.000168307
0.000180621
0.000162747
0.000153315
0.000148661
0.000627468
0.000147929
0.000158849
0.000144482
0.0001974
0.000159406
0.000180728
0.042932
0.000150593
0.000217955
0.000143619
0.00014864
0.00014908
0.000149217
0.000157375
0.000147157
0.000190749
0.0254781
0.000180714
0.000172444
0.00015506
0.000148102
0.000221082
0.000147992
0.0305633
0.0349062
0.0285185
0.000206089
0.000162984
0.000158173
0.000148989
0.000157719
0.000171758
0.0001686
0.0480664
0.000180658
0.0586493
0.000206638
0.000149249
0.000146291
0.0335192
0.000147499
0.000160577
0.000167125
0.000239553
0.000151971
0.0661507
0.000148941
0.00015501
0.000148141
0.000149825
0.000178593
0.000196847
0.000148846
0.000163855
0.000159789
0.000173186
0.000180271
0.000220009
0.000201555
0.000212367
0.000203226
0.000157038
0.00015079
0.000180015
0.0450822
0.0808794
0.050151
0.000163004
0.0265524
0.000196303
0.000150562
0.000147558
0.000182386
0.00014871
0.000163829
0.0227116
0.000147482
0.000146635
0.000268485
0.0113777
0.000174434
0.000436065
0.000148509
0.0270409
0.000168365
0.0705733
0.00015684
0.000148025
0.0490967
0.000165654
0.000148064
0.000172954
0.000149609
0.000191394
0.000158801
0.000164524
0.0844615
0.000159507
0.0500521
0.000147126
0.0533589
0.00014853
0.000155945
0.000149562
0.000170847
0.000148695
0.000166749
0.0481404
0.000263118
0.000174069
0.000160464
0.000169086
0.000147341
0.000148289
0.000151192
0.000832629
0.000155392
0.0733858
0.0352931
0.000189951
0.0001493
0.000193008
0.000206048
0.000201438
0.000156716
0.0389251
0.000147665
0.00014384
0.000147527
0.00520309
0.000148354
0.000147961
0.049583
0.000147541
0.000201644
0.000173047
0.000146735
0.0600652
0.000159578
0.0705929
0.000147578
0.00198695
0.000150498
0.000167817
0.0292728
0.000182476
0.000147306
0.000158302
0.035218
0.000163658
0.000194234
0.000161753
0.000155797
0.000188418
0.000157647
0.000149195
0.00697048
0.000159313
0.000159566
0.000204675
0.000147596
0.000146745
0.00014907
0.000162579
0.000148515
0.00015446
0.0558559
0.0152256
0.000172729
0.00956819
0.000182066
0.00016581
0.0683246
0.0503805
0.000149422
0.0162067
0.0495811
0.0355274
0.000843316
0.000160912
0.0323778
0.0520871
0.0471395
0.000855055
0.081882
0.000163174
0.000170531
0.000157417
0.00015674
0.000149385
0.000240622
0.000149876
0.0186792
0.000175788
0.000200964
0.000144303
0.000186741
0.000164117
0.000151452
0.000149942
0.000148478
0.000175244
0.000152536
0.000149224
0.000170218
0.0561301
0.000153534
0.000193059
0.000146206
0.000175187
0.000170223
0.000148629
0.000155453
0.000147172
0.0711634
0.0617183
0.000206939
0.00455287
0.00016097
0.000189264
0.000148604
0.000170695
0.000148273
0.000149147
0.000149447
0.052821
0.000146037
0.00017377
0.000248033
0.000156669
0.000161898
0.000147675
0.0672823
0.000206596
0.0421747
0.0339234
0.000201591
0.000233588
0.0313366
0.000240714
0.000162623
0.0169011
0.0001757