/*--------------------------------*- C++ -*----------------------------------*\
| =========                 |                                                 |
| \\      /  F ield         | OpenFOAM: The Open Source CFD Toolbox           |
|  \\    /   O peration     | Version:  v2012                                 |
|   \\  /    A nd           | Website:  www.openfoam.com                      |
|    \\/     M anipulation  |                                                 |
\*---------------------------------------------------------------------------*/
FoamFile
{
    version     2.0;
    format      ascii;
    class       volScalarField;
    location    "200";
    object      p;
}
// * * * * * * * * * * * * * * * * * * * * * * * * * * * * * * * * * * * * * //

dimensions      [0 2 -2 0 0 0 0];


internalField   nonuniform List<scalar> 
13851
(
-0.133168
-0.0577065
-0.0564203
-0.419893
0.00378014
-0.0684267
-0.0439812
-0.00785589
-0.0951543
0.0311119
-0.161235
0.0123453
0.0407983
-0.1127
-0.089809
-0.0765892
-0.377595
-0.0232951
-0.21232
-0.134274
-0.103613
-0.0248319
-0.409166
0.0059576
-0.30871
-0.0757197
-0.0935452
-0.20021
-0.0668779
-0.0115411
-0.404197
-0.0441733
-0.123112
-0.145376
-0.123243
-0.0669516
0.00602842
-0.358588
-0.321614
0.0104724
-0.197837
-0.0678788
-0.405545
-0.200537
-0.0730639
-0.00179795
-0.0135715
-0.0843206
-0.0310235
0.041377
-0.280367
0.0489249
-0.0771733
-0.0612546
-0.088771
0.011608
-0.12494
-0.202354
-0.0808387
-0.164489
0.0123884
-0.0947774
0.0274035
-0.0313664
0.0376446
0.0436063
-0.165757
0.274563
-0.00500136
-0.417331
-0.389915
-0.114404
0.0255465
-0.16137
-0.0688888
-0.00485564
-0.379785
-0.0139089
-0.309734
0.00946257
-0.00622852
-0.284772
-0.119549
-0.117729
-0.159962
-0.398453
-0.0282092
-0.0657237
0.0296044
-0.40368
0.0499679
-0.0454757
-0.30586
-0.400603
-0.293726
-0.16345
0.00470851
-0.0804302
-0.236575
-0.239849
-0.0809338
0.187261
0.182392
0.0302248
-0.00586282
-0.120311
-0.00520416
-0.391664
-0.045538
-0.0225171
-0.0156044
-0.00256812
-0.220307
-0.157687
-0.109237
-0.0606152
-0.00683043
-0.00818309
-0.420423
-0.417166
-0.164713
-0.0178496
0.000574651
-0.153455
-0.184715
0.314781
0.00402516
-0.131118
-0.160912
-0.101954
-0.0212823
-0.086746
-0.353974
-0.139889
-0.166152
-0.299168
0.266521
-0.396616
0.159319
-0.0974487
-0.280459
0.0451282
0.0303126
0.195956
-0.282342
0.00961933
-0.013831
-0.402445
-0.077879
-0.136376
-0.0820406
-0.218217
-0.162079
-0.199744
0.0491418
0.0389351
0.0107733
-0.326311
-0.0954616
-0.0478405
0.0061651
-0.0661033
-0.117731
-0.0855266
-0.110701
-0.0867689
-0.0893291
-0.282369
-0.0157098
-0.234172
0.0129422
-0.006952
-0.13827
0.00480834
-0.29003
-0.11581
-0.0894149
-0.00756287
-0.0668882
-0.0887032
-0.181272
-0.195383
-0.0207023
-0.0999631
-0.384612
-0.0781856
-0.12187
0.124631
0.0445283
-0.00835153
-0.278881
-0.0962335
-0.111502
-0.0701056
0.00789567
-0.0787637
-0.119778
-0.0333044
-0.0278272
0.258339
-0.282414
-0.254119
-0.208022
-0.0881277
-0.186278
-0.2536
0.0834724
-0.0891626
-0.0990462
-0.0625913
-0.0754104
0.00117309
-0.286621
0.0127886
-0.127114
-0.00871994
0.0400543
-0.149059
-0.0322213
0.35995
-0.00772345
-0.139268
-0.118286
-0.29324
0.113517
-0.088973
0.0124279
0.201241
0.01361
-0.123464
-0.418966
0.119854
-0.0624257
0.027029
-0.204557
-0.0122104
-0.398451
-0.213542
-0.229635
0.00628686
-0.334705
-0.154951
-0.0719378
-0.0758378
-0.0931545
0.213714
-0.147709
-0.0665041
-0.157937
-0.0361608
-0.0730839
-0.166545
-0.00456999
-0.0682224
-0.0795533
-0.0635964
-0.0629609
-0.00809119
0.328973
0.0283241
-0.124665
-0.189742
-0.0700006
-0.11762
-0.170118
0.0182654
0.189897
-0.086943
-0.184733
0.0219066
0.0403335
0.11858
-0.105745
-0.419045
-0.107224
-0.0186561
-0.179844
-0.194837
-0.112002
-0.11575
-0.109337
-0.214836
-0.0734732
-0.0844174
-0.375755
-0.00819909
0.0100001
-0.114147
-0.145646
-0.0133137
0.0120027
0.0141428
0.00153698
-0.0896793
0.0102758
-0.0970423
-0.105603
0.00413681
-0.0698334
-0.15025
0.0472215
-0.138075
-0.258061
0.04633
0.0484678
-0.107823
-0.12621
-0.365211
-0.139376
0.00361309
-0.228889
0.0128975
-0.146162
-0.260201
-0.176665
-0.0466072
-0.360453
-0.336857
-0.384205
-0.220873
0.213596
-0.300281
-0.156984
-0.200875
-0.02904
-0.399422
-0.0642848
0.315368
0.295897
0.0844374
-0.142725
0.0660626
-0.0650386
0.203341
-0.00219862
-0.0135655
-0.0566467
-0.388253
0.353225
-0.00840832
-0.289009
0.0767323
-0.0876489
-0.0479436
-0.123637
-0.176795
-0.0778939
-0.00631104
-0.0596876
-0.0652716
0.0445218
-0.199043
-0.0719344
-0.109369
0.0815258
0.02916
0.00326853
-0.235775
-0.248605
-0.162803
-0.346427
-0.0643212
0.00844863
-0.211456
-0.130285
-0.0183913
-0.173851
-0.130985
-0.238969
-0.0546386
-0.071673
-0.0818556
-0.33567
-0.233357
-0.0663588
-0.0317084
-0.117529
-0.407481
-0.0884707
-0.0742762
-0.0961098
-0.22111
-0.0834253
-0.0635749
-0.173777
-0.272791
0.0387214
-0.0709759
-0.150834
-0.0685064
0.000999785
-0.107014
-0.138127
0.0246766
-0.0907264
-0.419629
-0.052632
-0.338695
-0.0746093
-0.362418
-0.0656101
-0.0751591
-0.142758
-0.18936
-0.12139
-0.0630886
-0.15565
-0.322301
0.0191773
-0.231391
-0.0973762
-0.0724444
-0.0161744
-0.398154
-0.165948
-0.322085
-0.059301
-0.174231
-0.10107
-0.418638
-0.0166094
-0.398576
-0.283161
-0.412594
-0.0409497
-0.23441
0.0338107
0.00460143
-0.0870206
-0.104328
0.0318675
-0.0578448
-0.092359
-0.00490322
-0.167121
-0.142826
-0.131223
-0.0622536
-0.0324814
0.0506539
-0.331158
0.0054572
0.0497635
-0.0668367
-0.141949
-0.0177949
-0.0838961
0.0273285
0.00953244
-0.0550374
-0.165709
-0.0709176
0.00152155
-0.0420143
-0.160772
-0.0499205
-0.371385
0.0113842
-0.0614233
-0.0701495
0.0685308
-0.0129832
0.0144379
-0.0617504
-0.0358405
-0.301339
-0.0676089
-0.0944806
-0.0992527
-0.0567948
0.0160041
-0.135637
-0.0831242
0.128977
0.0230582
-0.154825
0.150766
-0.327885
0.0309255
-0.0895468
-0.23835
-0.0753562
-0.157604
-0.099509
-0.321372
0.0416515
-0.22257
0.0168591
-0.0673915
-0.0751038
-0.117953
-0.0957446
-0.00657999
0.062494
-0.138851
0.00404403
-0.417362
-0.138374
-0.373492
-0.418362
-0.0668624
-0.346952
-0.194227
0.102998
0.0198802
-0.351557
0.0312382
0.00120045
0.106764
-0.281855
-0.0554781
0.0499614
-0.0978074
-0.130101
0.0340059
-0.316678
0.00610272
-0.151765
-0.294161
0.0090105
-0.050134
-0.282979
-0.181076
-0.0126599
-0.363647
-0.384581
-0.0219345
-0.356578
-0.207877
-0.143736
0.0433932
-0.0692253
-0.194203
-0.0223457
-0.243484
-0.00230494
0.00566817
-0.0687727
-0.221424
-0.111267
-0.0697066
0.0321403
-0.0800653
-0.158034
-0.314427
-0.0249773
-0.369705
0.0017211
-0.00352584
-0.12271
-0.0574902
-0.0167897
-0.00173776
-0.353047
-0.266066
-0.354776
-0.0534351
0.0279074
-0.102593
0.0197736
-0.232542
-0.0655548
-0.0709106
-0.0944512
-0.0701315
-0.217233
-0.0688567
-0.40696
-0.0457011
-0.150459
-0.0687276
-0.0901303
0.00473012
0.0177397
0.174198
-0.349571
-0.0765119
-0.0789447
-0.37585
-0.0573445
-0.081373
-0.416163
-0.318994
-0.128464
-0.148646
-0.106501
-0.0655786
-0.0275697
-0.0795263
-0.228732
0.016744
-0.307374
-0.273261
-0.0209902
-0.0995224
0.0154026
0.0747279
-0.153227
-0.400472
0.00629379
0.00516133
0.106822
-0.128718
0.010952
-0.285417
0.00506863
-0.107672
0.0488247
-0.0733166
0.0293259
0.0347072
-0.0912019
-0.367373
-0.123362
-0.297562
-0.0901778
-0.00474256
-0.0206199
-0.141484
-0.0408954
-0.19105
-0.0597349
0.130066
-0.0786502
0.0205617
-0.0632702
0.0123852
-0.0739972
-0.406911
-0.0818562
0.133535
-0.392799
-0.0858251
-0.259535
-0.272489
-0.0268304
-0.325134
0.0710927
-0.0912871
-0.417535
-0.271844
-0.0185987
-0.188621
-0.0327301
-0.0654012
-0.302869
-0.00871693
0.269824
-0.185749
0.0166332
0.0166083
-0.0751248
-0.0625297
-0.0724804
0.0483583
-0.178523
-0.0482043
0.0357385
-0.0766671
-0.178486
-0.238546
-0.0157096
-0.0881678
0.0888883
-0.0733793
0.0644267
0.00941647
-0.145023
0.103303
-0.0858014
-0.11175
-0.115145
-0.113428
-0.277813
-0.213237
-0.107915
-0.359055
-0.0828869
-0.11533
-0.0183188
-0.0694523
-0.142638
-0.0199436
-0.0802324
-0.209189
-0.0438456
0.00911294
0.0080176
-0.07553
-0.0653501
-0.0628797
-0.217004
-0.00433805
-0.0738304
-0.0492278
-0.262548
-0.188448
-0.0679222
-0.0569753
-0.264077
-0.239222
-0.0177591
-0.102698
-0.0313911
-0.361913
-0.0749006
-0.110273
-0.0951637
-0.302886
0.0329664
0.0128117
0.0802
0.0362782
-0.0695897
0.00187983
-0.0765477
-0.101934
-0.192441
-0.308785
-0.235396
-0.111678
-0.269865
0.130967
0.0247516
0.0390768
-0.0128613
-0.0200145
0.00489503
-0.14821
-0.21201
0.0898338
-0.198994
-0.00730522
-0.0983107
0.0218763
-0.418956
-0.111616
0.0220533
0.0262403
-0.0832423
-0.069293
-0.0906978
-0.271297
-0.0961715
-0.12317
-0.021552
-0.149252
0.032027
-0.0565662
-0.0777812
0.0245827
0.0464114
-0.0244482
-0.0774384
-0.0699697
-0.0805443
-0.0959866
-0.289322
-0.315613
0.127973
0.0277873
-0.0676199
-0.0126171
-0.0664557
0.00641185
-0.0504894
-0.298177
-0.0963401
-0.110828
-0.194714
-0.124435
0.0232102
0.0212973
-0.154614
-0.0291087
0.0231346
-0.061368
-0.283299
0.00284722
-0.247665
-0.328059
-0.0837803
-0.192494
-0.412782
0.166754
0.0248212
-0.233067
-0.00364404
-0.0717214
-0.103807
-0.0657589
-0.313559
-0.0672508
-0.0129576
-0.00881392
0.00155695
0.0132598
-0.0110052
-0.403899
-0.122872
-0.078321
-0.0736337
-0.0976156
0.037589
-0.0111239
-0.368355
-0.133319
-0.0524053
0.0235083
-0.107375
-0.234324
-0.218519
0.0492292
0.00794415
-0.0698064
0.0636338
-0.0951735
-0.00472097
-0.277358
-0.00415075
-0.405128
0.0272726
-0.220501
-0.100843
0.0232929
-0.0972099
0.026338
-0.057568
0.00372392
-0.0752454
0.0600284
-0.0632788
-0.0334665
-0.129215
-0.126975
-0.0907361
0.00244195
-0.419048
-0.0692661
-0.0712711
-0.0944139
0.0391592
-0.0622875
-0.0206841
-0.211535
0.0183544
0.00343792
-0.090912
-0.0952024
0.0144189
-0.0624225
-0.186113
-0.0456192
-0.187385
-0.00727928
-0.113825
0.0221838
0.00286543
0.0476232
-0.0136203
0.0181372
-0.209079
-0.10987
-0.0326334
0.00511289
-0.112877
-0.00303417
-0.418789
-0.237601
-0.113583
-0.303863
-0.0573057
-0.0867912
0.0167131
-0.103528
-0.0373829
-0.0262904
0.00659458
-0.329763
-0.301336
-0.120818
-0.379564
-0.10226
0.0269924
-0.117182
-0.0937071
-0.353925
-0.0875953
-0.0864833
-0.13591
0.0117049
-0.40684
-0.405339
-0.069431
-0.278428
-0.0673485
0.0389742
0.194051
0.0503977
-0.1413
-0.0424191
-0.00208296
-0.19159
-0.00331832
0.00242005
0.00344533
-0.00194957
-0.279618
-0.204001
-0.00155519
-0.119303
-0.121251
-0.0222027
-0.386679
0.0626561
-0.102979
-0.233001
0.0111132
-0.0758892
-0.054511
-0.0939827
-0.0191998
-0.00609727
-0.275517
-0.0737794
-0.187338
-0.0340531
-0.0636837
-0.0872115
-0.148117
-0.327825
-0.0628948
-0.0932507
0.0299994
-0.0121949
0.0175493
-0.0627753
0.0256627
-0.160773
-0.0164063
0.0897758
0.126368
0.0369588
-0.00705934
-0.0508052
-0.0499944
-0.0501736
-0.0288937
-0.261593
-0.0741017
-0.0839799
-0.111904
-0.195555
0.0491525
-0.381635
-0.0121841
-0.0204619
0.0617779
-0.00982163
-0.0755239
0.0164841
-0.00203032
0.20628
0.0399664
-0.277944
-0.0389278
-0.311596
-0.189191
-0.163671
-0.239707
-0.0294555
-0.311149
-0.152365
0.0124207
-0.0475462
0.0484479
-0.379925
0.0662311
0.18054
-0.172259
-0.419618
-0.166213
-0.0238469
-0.0704873
-0.169199
-0.0653391
-0.0510626
-0.00533671
-0.024669
-0.137074
0.0320152
-0.191979
-0.236351
0.0199795
-0.132875
-0.282438
-0.0237683
-0.258688
-0.402386
-0.119944
-0.0343447
-0.0697282
-0.145275
0.00715028
-0.0774363
0.0248378
-0.0214583
0.0092567
-0.0676206
-0.0650081
-0.0997776
-0.405111
-0.0763931
-0.0925455
-0.0745428
0.0293187
0.291931
0.00851338
-0.353684
-0.025514
0.00436389
0.00840638
-0.029706
-0.114484
-0.062802
-0.0901656
-0.221763
-0.336288
0.106092
0.0229678
-0.0380149
-0.280995
-0.0252397
-0.0111848
-0.115726
-0.300749
-0.0716588
-0.0129745
-0.0834252
-0.0981892
-0.153134
-0.40117
-0.0219087
-0.0166129
-0.0467863
-0.320963
-0.0598846
-0.164213
0.0123177
0.00808746
-0.0219725
0.00768595
-0.0116595
-0.115448
-0.0658053
-0.0882331
0.133635
0.0171334
-0.339906
-0.036171
-0.237188
-0.195638
0.113297
-0.369059
-0.069358
-0.411344
-0.0764046
-0.085537
-0.114864
-0.0865643
0.0381545
-0.00940077
-0.259355
-0.0256298
-0.113185
0.0302957
-0.0954607
-0.323488
-0.0118506
0.0466416
-0.0810991
-0.287743
-0.0909201
0.00667704
-0.0671641
0.0748077
-0.0594373
-0.0372506
0.0232528
-0.0696828
-0.0682825
0.03069
-0.0834684
-0.0657074
0.0162116
-0.0634423
-0.0642845
-0.30603
-0.0641617
0.0141258
-0.02264
-0.0535497
0.0458736
-0.0859466
-0.0914246
0.0232788
-0.0898691
0.0998228
-0.128394
-0.101045
-0.122907
0.0739428
-0.0182815
0.193826
-0.143239
-0.142812
0.0198812
-0.0645895
-0.165574
-0.402551
-0.347704
-0.0966811
-0.0914038
-0.144074
0.0209364
0.0271715
-0.0286093
-0.0776188
-0.0718196
-0.146394
-0.413243
-0.0332302
-0.0110843
0.0321471
-0.072811
-0.0142544
-0.0683864
0.00544647
-0.0709292
0.0473692
-0.00313896
0.0212676
0.0100645
0.00526715
0.0824231
-0.0875703
0.0338562
-0.171186
0.0256975
0.00724944
-0.154885
-0.128149
-0.0665625
-0.0767647
0.144466
-0.0694471
-0.00542356
-0.0654838
-0.016616
0.0266635
-0.0501454
-0.401597
-0.0457279
-0.142382
-0.364956
-0.0343671
-0.00942651
0.0989176
-0.114112
0.0113051
-0.0742349
-0.0281877
-0.0781527
0.0263441
-0.0318454
-0.0725567
0.0984641
0.0417417
-0.0949926
-0.396417
-0.0731174
-0.136698
0.0340777
-0.355642
-0.140381
0.0234246
-0.331572
0.0461106
0.198691
0.0459333
-0.0303933
0.00297365
0.0352306
-0.00567096
0.116753
-0.11344
-0.0249101
0.0278386
0.2458
-0.0196354
-0.349955
0.0265702
-0.0932235
-0.070525
-0.171922
-0.195765
0.0225905
-0.118197
-0.00488343
-0.0592133
-0.132744
-0.0763375
-0.0947794
0.0106468
-0.0862557
0.190134
-0.10389
-0.19484
0.0500066
-0.207944
-0.0813321
-0.105761
0.0454509
-0.0169796
-0.0839399
-0.420164
-0.0417584
0.00755411
-0.394549
-0.00432134
-0.107899
0.00826286
-0.163359
-0.346922
-0.0164756
-0.417224
-0.0680325
0.00788362
-0.0872734
-0.00197325
0.196
-0.0643382
-0.111352
-0.0813643
0.00280901
0.0116304
0.20889
0.0201268
0.0236322
-0.0653083
-0.0845641
-0.117115
-0.173737
0.0299802
-0.0830776
-0.0154641
0.0160835
0.02022
0.0234543
-0.342284
-0.02538
0.064757
-0.0854336
-0.00461656
0.00630939
-0.111528
0.0234407
-0.302483
-0.0472364
-0.0984936
-0.165422
0.151022
-0.35354
-0.161359
-0.0777934
-0.0337593
-0.23594
-0.0557272
-0.0170301
-0.000805073
0.0660204
-0.0874555
0.00959853
-0.125641
0.00052499
-0.0210011
-0.398562
-0.285389
-0.243976
-0.0496468
0.201439
-0.222947
-0.417297
0.0202566
-0.0666608
-0.184921
-0.0309643
-0.111083
-0.35659
-0.0818453
-0.0649022
-0.0871987
0.00187348
-0.286289
0.0215467
0.0437375
-0.217576
0.0317025
-0.00849636
-0.348808
-0.123444
-0.0911932
-0.139485
-0.0772078
0.0448861
0.000993909
-0.0323075
-0.370259
-0.226664
-0.173871
-0.146901
0.0366559
-0.255034
0.0264861
-0.228181
0.116474
-0.0445166
-0.108195
0.0183853
-0.262931
-0.332409
-0.0211539
-0.128851
-0.0730478
-0.362653
-0.125021
-0.0767869
-0.0884693
-0.0724681
-0.0731451
-0.0823725
0.0261175
-0.0759835
0.286981
-0.068904
0.0145891
-0.0854918
-0.129137
-0.0741845
0.0120538
-0.3447
-0.0665015
0.0320164
-0.00974685
-0.0960794
-0.0927939
0.0444838
0.00426831
0.00539058
-0.130294
-0.310169
-0.154493
0.0236353
0.061971
-0.0736522
-0.211481
0.0195319
-0.183634
-0.387241
-0.0882024
-0.0823338
-0.0635032
-0.241208
-0.274856
0.0208097
-0.328444
0.00573187
-0.020051
-0.0762043
-0.0929019
-0.181941
-0.0798822
-0.0634669
-0.0868668
-0.0884323
0.00838776
-0.0141251
0.0999292
-0.0631482
0.0657487
-0.194949
-0.0389106
-0.00542586
0.00822972
-0.0662112
-0.176008
0.030661
-0.0590559
0.0789498
-0.130309
-0.230474
-0.0754109
-0.0700092
-0.180942
-0.325955
-0.158914
-0.0749019
0.000870441
0.350013
-0.0114678
0.115127
-0.372913
-0.0687584
-0.257319
-0.3341
0.0253606
-0.128269
0.000432705
-0.0904756
0.0177526
-0.069068
-0.207977
-0.0488385
0.00283701
-0.256125
0.194875
0.0181312
-0.372763
0.0304348
0.0339271
-0.0633997
0.0474463
-0.083885
0.0805532
0.0370247
-0.0625295
-0.297432
-0.0986643
-0.152874
0.018653
-0.24402
-0.0669562
0.00295832
-0.0935379
0.0207997
0.103587
-0.150934
0.00313924
0.0378616
0.0692885
-0.254109
0.0176772
0.00802312
-0.113378
-0.0677261
0.00249706
0.0343037
-0.02553
-0.185961
-0.127881
-0.113372
-0.127757
0.0298466
0.215402
-0.0102121
-0.170473
-0.0759923
0.0314893
-0.0564381
-0.192807
0.00741569
-0.0306119
-0.156497
-0.0658267
-0.0354947
-0.151126
0.011725
-0.0110094
-0.13893
0.0135044
-0.0254616
-0.272971
0.0179698
-0.10522
-0.0862783
-0.375461
-0.183566
-0.024935
0.0897898
0.0975964
0.00884954
0.031657
0.0211008
-0.0689323
0.0159986
-0.0719848
-0.10117
-0.00879695
-0.0199328
-0.0852767
-0.102937
-0.0905448
0.0157916
-0.156739
0.000294591
-0.0943284
-0.156083
-0.0572101
-0.0865043
-0.119751
-0.177683
-0.417458
-0.0649017
-0.0637678
-0.132964
-0.418457
-0.0584717
-0.00108091
-0.106401
0.164678
-0.0211108
-0.0359998
-0.0965106
0.0119726
-0.0152102
0.0175258
-0.0160621
-0.0482019
-0.026761
-0.386593
0.00279339
-0.341133
0.00933173
-0.100024
-0.0272526
-0.110308
-0.115132
0.030817
-0.108643
0.088337
0.0177949
-0.0919547
-0.0155768
0.0430302
-0.0240605
-0.0657478
-0.0146521
-0.114458
0.306107
-0.107321
-0.00278143
-0.0715088
-0.198035
-0.110155
-0.0287016
-0.042197
-0.0803883
-0.147426
-0.326754
-0.0138398
-0.417834
0.00570386
0.168849
-0.372553
-0.089958
-0.0671117
-0.0204992
-0.0924258
0.0108378
-0.330122
-0.0787447
0.00511674
-0.102193
-0.187012
-0.0281619
0.0260418
0.00711178
-0.319758
0.0175703
0.000477091
-0.13532
0.0260851
0.0199463
-0.124554
-0.0230079
-0.114281
-0.0113436
0.0287024
-0.00191334
0.108851
-0.0326875
-0.0281123
-0.100419
-0.130965
0.016174
0.0277085
-0.171556
-0.0331607
-0.417832
-0.0401275
-0.348625
-0.00944273
0.0297646
-0.00513427
-0.0651934
-0.131245
-0.000904953
0.010675
0.118647
0.00414538
0.0267903
-0.0657553
0.00512301
-0.0878632
-0.0119196
-0.0657
0.020448
-0.173818
-0.00381225
-0.0818329
-0.00622499
-0.24049
-0.308159
-0.0149481
-0.069794
-0.303594
-0.103815
-0.0721236
-0.068395
-0.259478
0.0778891
-0.0977349
-0.162171
-0.185687
-0.0311173
-0.0656093
0.0952847
-0.00133075
-0.062975
-0.4177
-0.115988
-0.153813
-0.263926
-0.0629591
-0.0979312
-0.0209617
-0.0143757
-0.195029
-0.334767
-0.211835
-0.226391
-0.1604
-0.00552167
-0.340793
-0.0782098
-0.379128
0.00794512
-0.33483
-0.411291
-0.31264
-0.124744
-0.117104
-0.0919091
-0.0833765
-0.216644
0.104665
0.00809184
-0.325092
-0.12518
-0.0144344
-0.166324
0.0163811
0.00590937
-0.100704
0.0867903
-0.258501
0.0763773
-0.418693
-0.0764821
0.111733
-0.137872
-0.248181
-0.158155
0.058953
0.0994615
-0.152843
-0.0567675
-0.0039832
-0.129283
0.0414136
-0.21778
0.0136679
-0.207578
0.00536476
-0.0995336
-0.0701319
-0.0725098
0.0761512
-0.202265
-0.372478
0.0325844
0.00431424
-0.38061
-0.282768
-0.04017
-0.0561617
0.0162447
-0.141338
-0.0583835
-0.0675246
-0.184147
0.0461186
0.00698727
0.231798
-0.0249909
-0.149057
-0.287459
-0.00310693
0.0179299
-0.0531547
0.0114437
-0.0509899
0.000728406
-0.0340469
0.0955812
0.00876926
0.0142296
0.0469674
-0.0826869
-0.190213
0.0109329
-0.170741
-0.369304
-0.0104885
0.0720128
-0.211131
-0.176587
0.0397026
-0.121551
-0.0736294
0.163529
-0.0823706
-0.0272197
0.00691437
-0.333876
-0.0524037
-0.0809557
0.0424626
0.0327243
0.0138003
-0.128775
0.014565
-0.115639
-0.0890906
-0.168756
0.00383741
-0.149005
-0.341114
-0.169298
-0.00576083
-0.22586
0.154945
-0.337465
-0.291092
0.0636555
-0.000329842
-0.237008
-0.154127
-0.0855391
-0.103225
-0.0915161
0.00568028
-0.0194115
-0.0495335
0.0151749
0.0479189
-0.23502
0.0132841
0.18891
-0.010724
-0.223236
-0.154676
-0.129842
-0.0687977
-0.171395
0.0442485
0.0203507
-0.265953
-0.0144699
-0.0149373
-0.0112521
-0.192575
-0.155937
-0.329947
0.0872943
-0.0315495
-0.0185262
-0.0243328
-0.114413
0.00409635
-0.0681075
-0.223508
0.0196409
0.0243182
-0.0892616
-0.0875993
-0.0432328
0.0246055
-0.192056
-0.226776
-0.0256547
-0.127171
0.0132656
-0.157892
-0.250084
-0.0394742
-0.419078
-0.413
-0.182784
-0.0104387
-0.0313131
0.0180646
0.0232553
-0.130945
0.0023533
-0.23564
-0.0761894
-0.311973
-0.0342153
-0.145605
-0.174216
-0.131279
-0.258137
-0.364644
-0.0116362
-0.0647081
-0.0659017
-0.0744238
-0.0804292
-0.0155523
-0.0673388
-0.0208286
-0.0879305
0.0413422
0.00109772
-0.267863
-0.11064
-0.41851
0.0143541
-0.142789
-0.0318864
-0.116312
-0.0557963
-0.128287
-0.138542
-0.247715
-0.0769638
0.0131457
0.00552895
-0.120351
0.0116568
-0.0995115
-0.2819
0.00696989
-0.0701452
0.138864
-0.2981
-0.050106
-0.120487
-0.112964
-0.0229544
-0.181992
0.0178108
-0.0902131
-0.0640427
-0.215611
-0.337109
-0.16491
-0.0075761
-0.113253
-0.0174759
-0.232124
-0.000929659
-0.266816
-0.0179926
-0.114452
-0.0165555
0.0125926
-0.0897887
0.0920808
0.0320673
0.00734698
-0.0798406
-0.0772837
0.00298469
-0.0939246
-0.0683077
-0.255852
0.033455
-0.365258
-0.019913
-0.0754909
-0.0679964
-0.00987463
-0.156235
0.0129761
-0.373593
-0.0957844
-0.0548611
0.0268173
-0.287634
-0.110207
-0.0185297
-0.146177
-0.231356
-0.171181
-0.020652
-0.180071
0.0230329
-0.228397
-0.066249
-0.176558
-0.265603
-0.0862426
0.158953
-0.159329
-0.114594
0.0136994
-0.0060213
-0.139811
-0.159
-0.188031
0.24119
0.00728594
-0.065774
-0.187523
-0.287265
-0.0831848
-0.282638
-0.0782161
-0.358551
-0.345206
0.0116049
0.0918294
0.0220214
-0.023088
-0.0154763
-0.123775
-0.0112545
0.0708813
-0.34318
0.00881818
-0.00256561
-0.074688
-0.182878
-0.0759921
-0.00739284
-0.259109
-0.0496691
-0.0768327
0.0178476
-0.39691
0.0704278
-0.204981
0.0235264
-0.0971028
-0.128834
0.0222384
-0.421588
-0.170041
-0.163013
0.0127765
-0.000907671
-0.0897469
-0.397382
-0.0661737
-0.0216184
-0.165657
-0.162523
-0.0269703
0.00675132
-0.00484647
-0.153541
0.111315
-0.0658555
-0.0521218
-0.0626811
-0.0998554
-0.177493
-0.17473
-0.0541636
-0.0916983
-0.0162409
-0.190342
-0.139707
0.0277928
-0.0659764
-0.360754
-0.188295
-0.0657258
-0.412633
-0.358761
-0.260637
0.0759687
-0.0249697
-0.212375
-0.268149
-0.269232
0.0148225
-0.104763
0.0372273
0.015114
-0.0678796
-0.21757
-0.116837
0.0140542
-0.11186
-0.139036
-0.125201
-0.125575
-0.303057
-0.0968284
-0.000668048
-0.133673
-0.0693203
-0.287821
-0.0702163
-0.111743
0.048206
-0.000795925
-0.110639
-0.123147
-0.0171874
-0.0845298
-0.0745626
0.0153246
-0.0750427
-0.0919477
0.0411446
-0.0824409
-0.173915
-0.0777141
0.0271946
0.305062
-0.132302
-0.0642494
-0.114722
-0.024091
-0.0831789
-0.0508536
0.0387844
-0.0101228
0.144552
-0.0768073
-0.0874455
-0.253721
0.00721804
-0.023891
-0.081916
-0.067743
-0.259118
-0.176354
-0.0839863
-0.0160035
0.0348971
-0.0866828
-0.0168912
-0.307566
0.0329233
0.0162133
-0.0120946
-0.0653625
-0.381523
0.0456714
-0.102977
-0.0490444
0.00104265
-0.0844441
0.148576
-0.0985834
-0.102964
-0.418359
-0.0679147
-0.234982
-0.103508
-0.27201
-0.0775906
0.000176373
-0.00615485
-0.127854
-0.161609
-0.00433845
-0.00519237
-0.0803761
-0.150019
-0.0717629
-0.418338
-0.108588
0.015345
-0.238493
0.00426753
-0.0787157
0.0260454
-0.163142
0.0031719
-0.0635247
-0.138763
-0.0897357
0.0249799
-0.0666803
0.109431
-0.103373
-0.24533
-0.0742223
-0.00382314
-0.183231
-0.10129
-0.227845
-0.118054
-0.151514
-0.0145254
-0.103275
-0.023194
-0.361028
0.00966797
-0.0831076
-0.109818
-0.295136
-0.0136523
0.00840179
-0.370537
-0.116113
-0.36396
0.1574
0.0239904
-0.118993
-0.136878
0.158523
-0.0727389
-0.0809012
-0.216105
-0.0522889
0.0169202
0.00502461
-0.273883
0.0579701
-0.177302
0.037938
-0.0103651
-0.268061
-0.062981
-0.0214627
0.0130721
-0.08549
-0.204039
-0.081706
-0.111278
0.0821491
-0.15033
0.0193586
-0.228913
-0.0877849
-0.114156
0.197424
-0.0529297
-0.121493
0.127297
-0.0224974
-0.109881
-0.41483
-0.0644259
-0.0290044
-0.341032
-0.0973445
0.0136991
0.0636995
-0.1283
-0.13951
0.122399
-0.0864976
-0.264956
-0.0306124
-0.100596
-0.015119
-0.0679259
-0.147482
-0.368402
-0.0966969
-0.0718775
-0.16187
-0.0659014
-0.158887
-0.044392
-0.107776
0.030324
-0.0686251
-0.180146
0.0205539
0.00424761
-0.0641174
0.0457076
0.0246621
-0.131801
-0.0894195
-0.185701
-0.060957
-0.178872
0.00428584
-0.0678773
-0.0987292
0.00783394
-0.109128
-0.344206
-0.268816
-0.0690777
-0.0928657
-0.0646835
-0.000332549
0.0733294
-0.143639
-0.115654
0.0258559
-0.0755506
0.0271208
-0.0872752
-0.116607
0.114322
-0.0971448
-0.0827726
-0.112463
-0.0837147
0.231552
-0.386117
-0.297921
-0.0603829
-0.0140425
-0.0691675
-0.000287725
-0.0138524
-0.343961
0.0178121
-0.0707597
0.0471577
-0.185471
-0.058461
0.0185822
-0.370698
0.113638
0.0757892
-0.063494
-0.25742
-0.321427
-0.0635351
-0.0675754
0.0461964
-0.0739279
-0.146326
-0.0813417
0.0235181
-0.204
-0.132285
-0.047949
-0.0692837
-0.10875
-0.0041
-0.247336
-0.154371
-0.082725
0.0177032
-0.241933
-0.0065057
-0.136992
-0.0756981
-0.186164
-0.00151016
-0.110693
-0.418834
-0.047793
-0.158118
-0.0647632
-0.116798
-0.21329
-0.125258
0.0760715
-0.398508
-0.000949194
-0.0662207
0.0139913
-0.0428291
-0.127527
-0.0660247
-0.0580714
0.283498
-0.217542
-0.0730387
-0.0264573
0.0431486
-0.123115
-0.332323
0.109105
-0.350476
-0.151722
-0.0689023
-0.0837754
-0.151119
-0.0995696
0.173377
-0.121843
-0.00119084
-0.0458199
-0.0314587
-0.351166
0.0252902
-0.0774656
-0.0127903
-0.104209
-0.0814321
-0.115103
-0.126927
0.074576
-0.201583
-0.013984
0.0456429
0.0147247
0.0236373
-0.0567496
0.00632565
-0.0995618
-0.219492
-0.108175
-0.110776
-0.0571765
-0.0109121
-0.0724783
0.0186313
-0.102037
-0.147083
-0.404655
-0.0890917
-0.0777938
-0.0625553
0.0188161
0.060024
0.158222
-0.115513
-0.225149
-0.101519
-0.375799
-0.0840341
0.00825709
-0.00346018
-0.0642541
0.00801057
-0.0815773
0.217012
-0.25983
-0.0469309
-0.146708
0.024574
-0.0377564
0.03763
0.0413458
0.0519206
-0.0915463
-0.0143157
-0.0697289
0.170369
-0.104492
-0.0921552
-0.201616
-0.176796
-0.273929
-0.0789167
-0.0478273
-0.0248756
-0.0864838
-0.0656458
-0.24894
-0.0700432
-0.0779979
-0.219212
-0.0839911
-0.0404921
0.0118475
-0.0755235
0.018046
-0.0655288
-0.409541
0.014928
-0.0178702
-0.301402
-0.067871
-0.0790782
-0.334984
0.0439816
-0.0913575
-0.11502
-0.266654
0.132813
0.0148606
-0.068581
0.250485
0.0313832
-0.10357
0.0199912
-0.221464
-0.0743504
0.244536
-0.334445
0.113697
-0.160168
0.0064622
-0.394281
0.0404707
-0.0636652
-0.00690297
-0.125676
0.00759703
0.0354762
-0.0662187
-0.264485
-0.126219
-0.0463329
0.146235
-0.00974358
-0.00572125
-0.0450413
-0.107909
-0.0617545
-0.202096
-0.127446
-0.218946
0.0194348
-0.229238
-0.258418
-0.182867
-0.0486958
-0.22569
0.0152864
-0.0156064
0.0131754
-0.32675
-0.0217048
0.0262864
-0.0685484
0.0170621
-0.223772
0.0656593
-0.0241682
-0.108171
-0.0541618
-0.190655
-0.013456
-0.156344
-0.0205657
0.213759
-0.420902
-0.126695
0.0107055
-0.0591195
-0.110672
-0.065911
-0.231463
-0.0881658
-0.0486027
-0.212439
-0.002078
-0.0332092
-0.373974
-0.0775004
-0.0588089
-0.0747762
0.0168093
-0.00539083
0.0069502
-0.0585885
0.0382676
0.0234387
-0.163444
-0.425325
0.12676
-0.418203
-0.0762965
-0.0592794
-0.297401
-0.388496
0.0526161
-0.36784
-0.349128
-0.0808231
-0.335288
-0.0863006
-0.113261
-0.0751891
-0.414317
-0.333114
-0.239008
0.0777897
0.0866512
0.0554362
-0.0558293
0.000618584
-0.29754
0.0179478
-0.419309
0.0384644
-0.172475
-0.0124372
-0.109187
0.0786677
0.0835426
0.0233201
0.00445656
0.0732239
-0.0494053
-0.0347873
-0.0700944
-0.341145
-0.0565515
-0.234013
-0.00415133
0.0870023
0.114862
0.0391342
0.0019601
0.00616797
-0.179578
-0.105563
-0.162383
-0.370258
-0.0307773
-0.144901
0.0256293
-0.0772851
0.00100362
-0.0145745
0.0204372
-0.101343
-0.0113916
-0.0688074
-0.279809
-0.0130413
-0.0831519
0.0199386
-0.33312
-0.237437
-0.411087
-0.109595
-0.230943
-0.222152
-0.0773127
-0.248871
-0.0743236
-0.398734
0.0527404
0.167916
-0.312266
-0.245623
0.026723
-0.418506
-0.21243
-0.158028
-0.0120383
-0.109569
-0.321529
0.0137159
-0.419311
0.102963
-0.279558
0.0058754
0.0455528
-0.161984
0.00284325
-0.058225
-0.154629
-0.0185002
-0.0265976
-0.0657882
-0.1857
-0.416149
-0.0750154
-0.0324193
0.0562863
0.0140438
-0.0184465
-0.0947687
-0.103054
-0.129047
-0.301279
-0.0866228
0.00140527
0.00224541
-0.146414
-0.416762
-0.269557
0.110358
-0.0144088
0.134026
-0.418668
-0.415576
-0.0162643
0.0120298
-0.325739
-0.0298396
-0.15168
0.0729011
0.0167281
-0.035533
0.0973154
-0.170185
-0.318103
0.00705099
-0.0186866
-0.0442383
-0.071837
-0.30156
0.0199543
-0.22106
-0.263902
-0.0158999
-0.0684111
-0.0692783
-0.417147
0.025858
-0.419311
-0.306207
-0.0429583
-0.0451679
-0.0487341
0.3315
-0.248079
-0.0643284
0.0102548
-0.417826
-0.253654
-0.0115871
-0.14693
-0.216102
-0.0832367
-0.204974
-0.296148
-0.153826
-0.267247
-0.0635023
0.0788748
-0.0463284
-0.169724
-0.283311
-0.277637
-0.417604
-0.198976
-0.0168324
-0.0885089
0.00539109
0.00863462
0.0278111
0.00869769
0.0229339
-0.0133155
-0.0811696
-0.357903
-0.353123
0.00367542
-0.203187
0.178076
-0.00510563
0.00208434
-0.164451
0.0200498
-0.063165
-0.0689007
0.0227047
-0.016304
-0.0751383
0.00544813
-0.262273
-0.0609246
-0.00843972
-0.0173583
-0.209405
-0.0134852
-0.33914
-0.176316
-0.0152125
-0.119617
-0.0130083
-0.0447109
-0.026745
-0.182246
-0.090725
0.00844934
-0.191446
-0.0957332
0.0152693
-0.0182871
0.0337507
-0.0329268
0.0193625
-0.297239
-0.264672
-0.421604
-0.0693514
-0.417653
0.0202862
-0.0651101
-0.0320079
-0.222554
0.0490639
-0.110809
-0.00242455
-0.0638907
-0.145254
-0.384819
-0.084796
-0.00263507
-0.118766
-0.00610968
-0.200088
-0.0126025
-0.0166071
-0.0549251
-0.0655721
-0.000864629
0.00960826
0.0646284
-0.180539
0.0482161
-0.0236169
-0.0545586
0.00454301
-0.0995285
0.0187518
-0.417576
-0.0659144
-0.0474614
-0.128125
-0.418227
-0.0672379
-0.239037
-0.0142634
0.015828
-0.0751841
-0.0875875
-0.224879
-0.0661579
-0.0835525
-0.0397239
-0.127832
-0.0801353
-0.0630146
0.0214857
0.00180807
-0.176769
-0.15602
-0.419177
-0.060121
-0.0121954
0.0207756
-0.418357
-0.110197
-0.0134917
-0.243974
-0.0209358
-0.087132
-0.0871613
-0.0887376
-0.0293048
0.0155391
0.00368573
-0.0597626
-0.191338
-0.265019
-0.0149967
-0.0147901
-0.273688
0.00541182
0.00597836
0.1096
0.101737
-0.0693177
0.0153808
-0.0639078
-0.0810952
0.103042
-0.369378
-0.124102
0.0246967
-0.0585798
0.0321778
0.00452337
-0.415351
0.309222
-0.0663237
-0.0302582
0.0180044
-0.150853
0.0895244
0.0215895
-0.0763788
-0.359532
-0.014483
-0.107291
0.0270982
-0.122823
0.0254937
-0.0223555
-0.419169
-0.167799
-0.160227
0.0163443
-0.148875
-0.0202369
0.0210207
-0.0741198
-0.104836
-0.119543
-0.0715439
-0.158623
-0.0434841
-0.0782447
0.231468
0.195965
-0.0236784