/*--------------------------------*- C++ -*----------------------------------*\
| =========                 |                                                 |
| \\      /  F ield         | OpenFOAM: The Open Source CFD Toolbox           |
|  \\    /   O peration     | Version:  v2012                                 |
|   \\  /    A nd           | Website:  www.openfoam.com                      |
|    \\/     M anipulation  |                                                 |
\*---------------------------------------------------------------------------*/
FoamFile
{
    version     2.0;
    format      ascii;
    class       surfaceScalarField;
    location    "200";
    object      phi_0;
}
// * * * * * * * * * * * * * * * * * * * * * * * * * * * * * * * * * * * * * //

dimensions      [0 3 -1 0 0 0 0];
oriented        oriented;


internalField   nonuniform List<scalar> 
20580
(
-0.13371
0.0103074
0.123403
0.126875
-0.249339
0.122464
0.259135
-0.13226
0.00642796
0.00256813
-0.00899609
0.584033
-0.619964
0.0359312
0.263559
-0.18806
-0.0754991
-0.300256
0.0470982
0.576283
-0.579089
0.00280654
-0.016956
0.0135156
0.00344039
0.422897
-0.246698
-0.176199
0.143763
0.0107841
-0.154547
-0.518739
0.313176
0.205563
-0.208047
0.284913
-0.0768656
0.00409438
-0.00106091
-0.00303347
0.190147
-0.0336414
-0.156505
-0.114602
0.0993515
0.0152504
0.00833395
0.00558725
-0.0139212
-0.170994
0.356848
-0.185854
0.0994068
-0.110565
0.0111584
-0.117589
-0.0161217
0.0633467
-0.193546
0.130199
0.234158
-0.202926
-0.0312315
0.0249263
-0.0388296
0.0139033
-0.584817
0.591849
-0.00703162
0.0815834
-0.096441
0.0148576
-0.00220082
0.116304
-0.114103
-0.0181184
-0.0637687
0.0818872
-0.0941005
0.0762051
0.0178954
-0.00854393
0.0289488
-0.0204049
0.485195
-0.324769
-0.160426
0.00612993
-0.00335498
-0.00277495
-0.224586
-0.0756703
-0.112917
0.12812
-0.0152029
0.0267016
-0.0190156
-0.00768596
-0.155808
0.150611
0.00519753
-0.0202046
-0.00781653
0.0280212
-0.615202
0.0303851
0.00871372
-0.0696354
0.0609217
0.0016683
-4.3018e-05
-0.00162528
-0.13139
-0.1608
0.292189
-0.00534032
-0.00464388
0.00998421
-0.0313994
0.0228555
0.0155229
-0.0155229
0.0962649
-0.00292213
-0.0933428
0.0261411
-0.0345523
0.00841121
0.45098
-0.279013
-0.171968
-0.535755
-0.0696885
-0.129026
0.0483614
0.080665
-0.0522457
-0.212418
0.264663
-0.298506
0.0904591
0.0125341
-0.0127015
0.000167472
0.143734
-0.283809
0.140075
-0.100171
-0.0144305
-0.0494466
-0.125587
0.175034
0.00755703
-0.00127193
-0.0062851
0.102411
-0.2338
0.0104865
-0.123403
-0.00871742
0.0033771
-0.0234295
0.0903945
-0.066965
0.00311574
-0.00282756
-0.000288177
-0.355112
-0.163627
0.0701232
-0.0882417
-0.218118
-0.196677
0.414796
-0.195718
0.143473
-0.0434252
0.0914658
-0.0480406
-0.0824979
0.0390727
0.00375821
-0.000642471
-0.0939382
0.065437
0.354388
-0.249548
-0.10484
0.00465194
0.00349806
-0.00815
0.00835108
-3.98872e-05
-0.00831119
0.16612
-0.186363
0.0202433
-0.0316343
-0.222355
0.253989
-0.00307028
0.000242716
0.180006
-0.0189871
-0.161019
0.221006
-0.216019
-0.00498655
0.0166039
-0.00826995
0.343142
-0.526957
0.183814
0.0963626
-0.0147793
0.449351
-0.215721
-0.23363
0.246515
0.107872
-0.104684
0.119618
-0.0149339
-0.0224413
-0.133367
-0.00155443
0.00341908
-0.00186465
-0.00209919
-0.000971093
0.00559635
-0.00752423
0.00192787
0.065033
0.169125
0.0157164
-0.00233989
-0.0133766
0.229353
0.147007
-0.37636
0.00343071
0.00269922
0.267099
-0.123365
-0.30495
0.0803639
0.0143312
-0.0143312
0.00920507
-0.00360872
-0.0028481
0.00320474
-0.000356632
0.0263935
0.0712177
-0.0976111
0.148736
-0.352831
0.204096
-0.0886699
0.107508
-0.018838
0.00879184
-0.00962658
0.000834741
0.0175774
0.0971523
-0.11473
-0.110443
0.0217734
0.123177
-0.0484106
-0.0747667
0.0845671
-0.120257
0.0356902
-0.169819
-0.0787409
0.248559
-0.469556
0.130917
0.338639
0.132266
-0.173187
0.0409214
-0.16404
-0.305517
0.00806808
0.000283006
-0.0760447
-0.228905
-0.338181
0.167187
-0.0086594
0.152523
-0.143863
0.338238
0.112742
-0.103707
0.117723
-0.0140159
0.0170877
0.1126
-0.129688
-0.118622
0.109918
0.00870357
0.162711
-0.212158
0.169426
-0.398819
0.229393
0.466061
0.110222
-0.00336897
0.00979692
0.0076173
-0.00296536
0.072889
-0.102669
0.02978
0.158687
-0.419084
0.260397
-0.275518
0.28919
-0.0136718
0.00371678
-0.00183051
-0.00188627
0.0845624
-0.114687
0.0301245
0.0261751
-0.0662077
0.0400326
0.343089
-0.194353
0.0554869
0.0950077
-0.150495
0.0088497
0.00421991
-0.0130696
0.147037
0.0176806
-0.164718
-0.199589
-0.00333732
-0.13501
0.187362
-0.0523528
-0.0769928
0.0857066
0.0160586
0.010643
-0.00234901
0.146112
-0.000752764
-0.00331142
0.00406419
-0.0477288
-0.00605237
-0.00147186
-0.0106762
0.124039
-0.113363
-0.164436
0.0236105
0.140825
-0.1091
0.00441575
0.251196
-0.23139
-0.0198065
-0.0672872
0.29664
-0.0783556
0.000925781
0.0774298
-0.00334611
-0.0641303
0.0674764
-0.037008
0.230063
-0.193055
0.515582
-0.17244
0.00585009
0.0203894
-0.01771
-0.00267937
-0.0664954
0.121982
-0.0571302
-0.0533131
-0.113543
0.00983552
-0.106621
0.123708
0.10501
-0.0990058
-0.00600381
-0.215995
-0.0203552
0.23635
0.129291
0.187946
-0.317236
0.310539
0.213406
-0.523945
0.00197814
-0.000309838
-0.187276
0.0913539
0.0959217
-0.0503334
0.209895
-0.159562
-0.416329
-0.164186
0.580516
0.0305752
-0.0248363
-0.00573893
0.160641
-0.0283751
-0.0431578
-0.0858685
0.00170068
0.0023937
-0.0286764
0.00581891
0.0228575
-0.01971
-0.00896639
0.0120108
0.000523267
0.157181
-0.16584
0.0489931
-0.0443745
-0.00461865
0.535074
-0.327487
-0.207587
0.438747
-0.269321
0.158012
-0.143472
-0.0145404
0.550042
-0.110361
-0.439681
-0.00135439
-0.00149371
-0.0696759
-0.0219842
0.0916601
0.0899003
-0.104567
0.0146662
0.256843
0.181904
0.184562
-0.165922
-0.01864
0.109453
-0.0195527
0.103693
-0.0191308
0.122658
0.0072497
-0.17456
0.167311
0.18435
-0.0373123
-0.0156759
0.0156759
0.00621348
0.0141759
0.093337
0.0347826
-0.0711863
-0.0600261
0.131212
0.229657
0.00518994
-0.234847
-0.134222
-0.24196
0.376183
-0.0755832
0.072237
-0.130538
-0.056738
-0.00185944
0.00079853
0.132006
0.131552
-0.226118
0.18911
-0.0964253
0.114647
-0.0182216
0.118955
-0.025618
0.202062
0.103833
-0.305895
0.127706
-0.314177
0.186471
-0.0125258
-0.0706282
0.083154
0.113734
-0.113972
0.000237893
0.00156863
-0.00148172
-8.69141e-05
0.00965379
-0.00464716
-0.00500663
0.0157994
0.174348
-0.00405019
-0.0510017
0.0550518
0.00226985
-0.000701219
0.19435
-0.21132
0.0169707
0.120942
-0.135728
0.0147866
0.0173198
-0.00704989
-0.0102699
0.203847
-0.0104496
-0.193397
-0.101904
0.105295
-0.0033908
-0.244989
-0.0305296
0.00463362
-0.646378
0.396756
0.249621
-0.135454
0.161017
-0.025563
-0.213555
0.183324
0.0302312
-0.247535
-0.0509716
-0.00851984
0.0864601
-0.0779403
-0.175719
-0.139423
0.315142
-0.00174997
0.0242677
-0.201937
0.45878
0.122905
-0.109805
-0.0130997
-0.00224218
0.000687744
-0.00230077
0.00353445
-0.00123367
0.0330078
-0.13861
0.105603
0.141142
-0.0202
0.668471
-0.366383
-0.302088
-0.0284803
-0.0498753
0.17098
-0.455439
0.284459
0.015157
0.00274863
-0.004629
0.00188037
0.0856543
-0.156841
-0.0351925
0.239039
-0.480399
0.222028
0.00307049
0.0065833
0.227808
0.257386
0.071264
-0.0463377
0.00702883
-0.00318562
-0.00384321
-0.103976
0.121553
0.143103
-0.559433
-0.0397903
0.088229
-0.0484387
0.00241671
-0.00154075
-0.000875963
-0.00846584
0.0346069
-0.00255289
0.180018
-0.178751
-0.0012674
0.0638053
-0.0603227
-0.00348256
0.0825919
-0.0911118
0.0289814
0.15558
0.100447
-0.0292292
0.153118
-0.158688
0.00556984
0.000840763
-0.00805068
0.00720992
-0.106721
0.117532
-0.0108119
-0.309589
0.646198
-0.336609
0.0589568
0.154663
-0.21362
0.0110825
0.0288916
0.0016836
-0.0117356
-0.00435738
0.016093
-0.348003
0.213781
0.0503944
0.185353
0.155249
-0.340602
0.100417
-0.0944532
-0.00596406
0.113054
-0.103892
-0.00916205
-0.0989874
0.157944
0.145597
0.0150442
-0.130361
0.0236407
-0.0947855
0.302499
-0.207714
0.0553109
0.0678664
-0.128944
0.0414293
0.0875144
0.103237
-0.0791689
-0.0240681
0.458502
-0.189984
-0.268518
-0.293396
0.0458611
0.118662
-0.0158081
0.0238629
-0.00805483
0.0131692
-0.000112768
-0.0130564
0.154585
-0.017675
-0.13691
0.388504
-0.229818
0.0934567
0.0102364
-0.099278
0.105914
-0.00663622
-0.0929181
0.118779
-0.0258609
0.159216
-0.0136194
-0.0211615
0.0053534
0.00744638
-0.00770127
0.000254891
0.147288
-0.195872
0.0485838
-0.102356
-0.0599443
0.1623
-0.0793695
0.0877572
-0.00838763
0.184069
0.167277
-0.351346
0.226295
0.296406
-0.522702
-0.112372
0.0194538
-0.0217614
0.143598
-0.121836
-0.460483
0.230164
0.230319
0.49234
0.131269
-0.623609
0.404771
-0.23379
-0.564201
0.570885
-0.00668361
-0.0180372
-0.154356
0.172393
0.536834
-0.0125113
-0.00444472
-0.0895809
0.152928
0.152607
-0.288675
0.136068
0.00868697
0.0029891
0.000727677
0.0571565
0.214563
-0.27172
0.00531594
0.0104311
0.000188756
-0.0106199
0.0697491
0.181447
-0.183365
0.240521
-0.214834
0.125253
0.00152305
-0.000703649
-0.000819399
0.0113251
0.0022099
-0.013535
0.159733
-0.0265542
-0.133179
0.461689
0.122345
0.0485707
0.000422462
0.179962
0.144408
-0.151073
0.00666523
0.0105886
-0.000157437
0.0959882
-0.0851027
-0.0108855
-0.254993
0.20466
-0.0931059
0.0137363
-0.0060401
0.0900523
-0.0840122
0.00543293
-0.00679302
0.00136009
0.110426
-0.00129542
-0.10913
0.0450657
-0.110194
0.0651286
-0.000105617
-0.000647147
0.00601781
-0.00319849
-0.00281932
-0.0329885
-0.061112
0.315902
-0.188196
-0.00502175
0.0145163
-0.00949456
-0.0103186
0.0103186
0.00382587
-0.0311515
0.0273256
-0.0373309
0.0411567
0.144282
0.0500671
0.162158
-0.0292674
-0.132891
0.0203935
-0.155812
0.135418
0.00663881
0.00907763
0.0538325
-0.111913
0.0580809
-0.215997
-0.30101
0.517007
-0.105522
-0.430233
-0.0485036
0.180214
-0.131711
-0.0023897
0.00782263
0.0270824
0.371169
-0.187099
0.000903962
0.0495484
0.113816
-0.163364
-0.181276
0.0462659
-0.0461471
0.256042
0.00113002
0.000393032
0.099063
-0.00560629
0.0144756
-0.00897496
-0.20458
0.184512
-0.219704
-0.0326205
0.0276855
0.00493502
0.245954
-0.0162975
0.00573161
-0.0630371
0.210325
-0.126544
-0.0882902
0.139352
-0.0898034
0.33236
0.290056
-0.137449
0.119135
-0.133755
0.0146196
-0.0215423
0.118695
-0.113556
0.12103
-0.00747427
-0.0830329
-0.0233157
-0.00930484
0.19126
0.0388027
0.00238167
-0.106708
0.0912388
0.0154697
-0.193352
0.431468
-0.238115
0.0935986
0.00238962
-0.107646
0.12554
-0.0178937
0.00878112
1.0719e-05
0.169067
-0.21757
-0.135396
0.00768349
-0.0886416
0.0652121
-0.0862483
0.080217
0.00603128
0.112553
-0.123348
0.0107953
0.0148324
-0.0118638
-0.00296862
0.289121
-0.23703
-0.0520914
0.0212816
-0.0909575
0.00178916
0.0137338
0.018638
-0.184002
0.165364
0.00857734
-0.00773658
-0.0293141
-0.152588
0.181902
-0.00954829
0.00377328
0.00577502
0.0818744
-0.18423
-0.0319362
-0.129509
0.119487
-0.116145
-0.00334175
0.0588185
-0.0922337
0.0334152
0.30699
-0.177699
0.23705
-0.154541
-0.0825097
0.0929663
-0.114728
0.0140841
-0.294005
-0.02505
0.319055
-0.00577369
0.160359
-0.0385318
0.00224064
0.0362911
-0.208927
0.177292
-0.0737902
-0.0619381
-0.0108389
0.012346
-0.00150713
0.102931
-0.254854
0.151923
-0.0460275
0.112738
-0.0667109
-0.156011
0.150389
0.00562185
-0.00402717
0.0153523
0.188857
-0.199306
0.128841
-0.131042
-0.0661732
0.062123
-0.00163295
0.1643
-0.156905
-0.00739507
-0.0185592
0.00682354
0.000317524
-0.0883923
0.0486021
-0.280097
0.185312
0.11713
0.00200517
0.154966
-0.180619
0.0256535
-0.122605
-0.0127912
0.417742
-0.206914
-0.210828
-0.0161163
0.0161163
-0.00956539
0.0332871
-0.0237217
-0.0799728
0.0880433
-0.00807048
-0.0549692
0.239481
-0.0108747
0.0852198
-0.0774077
-0.00781212
0.0120616
0.00110765
0.483521
-0.213581
-0.26994
-0.0155684
0.0105466
-0.108508
0.103214
0.00529475
-0.00952411
-0.00734447
0.0168686
0.167696
-0.0145778
-0.0170914
-0.0697305
0.0868218
-0.0391738
-0.23817
0.277344
0.567866
-0.0178246
0.000352939
0.0072041
0.088117
-0.0113689
-0.0767481
0.146015
0.276882
-0.20791
-0.0414292
-0.135437
0.0616471
-0.15658
0.460061
-0.303482
-0.0398967
0.0303314
0.0359147
0.126243
-0.12373
0.0160833
-0.223279
0.21914
0.0041389
0.0136679
0.275453
-0.330006
0.250281
0.0797251
-0.0789881
-0.00726018
-0.08018
-0.208495
-0.0305144
-0.299492
0.0194168
-0.0675685
0.0481518
-0.037515
-0.00101677
-0.169808
-0.0297813
0.0210121
-0.0900836
0.0690714
0.216324
-0.434442
0.51538
-0.218974
0.273123
-0.170193
0.0039763
0.125273
-0.144321
0.0190485
-0.326473
0.0286098
0.297863
-0.315943
0.214661
0.101282
-0.034218
0.107107
-0.121037
0.297502
-0.176465
-0.0240748
0.019777
0.00429777
-0.170428
-0.379411
0.549839
-0.152277
-0.0590047
0.211282
-0.0153315
-0.0192208
0.00575835
-0.095669
0.0899107
0.429873
-0.607539
0.177667
0.49831
-0.199637
-0.298672
-0.196651
-0.0266279
0.320146
-0.124643
-0.195503
0.0868761
-0.0996684
0.0127923
-0.0626803
0.0535935
0.00908681
0.192219
-0.0122001
-0.00957273
-0.0360135
0.0455862
0.218154
0.265958
-0.485895
0.219936
-0.00678387
0.0136696
-0.00688571
-0.0676294
-0.157761
0.0824968
0.0752642
-0.299474
0.273517
0.0259569
0.0041873
-0.124869
0.114192
0.0699062
-0.018048
-0.0518582
-0.237416
0.0675971
-0.171082
0.00330163
0.167781
-0.021202
-0.196297
0.169424
0.0268728
-0.00943244
0.00623396
0.0871247
-0.00190489
-0.0907053
0.0107325
-0.234358
0.0836428
0.150715
-0.00311678
-0.160754
-0.148739
0.309493
0.00411253
-0.136046
-0.019965
0.0383749
0.0805801
0.179673
-0.0247066
0.212031
-0.109317
0.115075
0.128745
-0.446215
-0.17375
-0.0139992
0.0132816
0.000717638
0.00456289
-0.0113468
-0.00694944
-0.0171253
-0.00913076
-0.000748226
0.00987899
-0.0432635
0.00663642
-0.0142928
0.00765634
0.00202235
0.148649
-0.0262934
-0.122356
0.57721
-0.305673
-0.271537
0.0456516
-0.0916791
0.147433
-0.394131
-0.374851
0.0808456
0.0169714
-0.13748
0.120508
0.00201981
-1.22099e-05
-0.0020076
-0.0595391
-0.186298
0.245837
0.20618
-0.227937
0.0217566
-0.140395
0.0984381
0.0419567
-0.14837
0.0102072
0.138163
0.395952
-0.1811
-0.214852
-0.0257487
-0.0195756
0.0453244
0.460274
-0.287513
-0.172761
0.0150786
-0.00997514
-0.00510345
0.0876966
-0.000820499
0.165341
0.28401
-0.299796
0.206185
0.0936111
0.100839
-0.10622
0.00538057
0.0181343
-0.232674
0.0637591
-0.075452
0.0116929
-0.0372944
0.082946
-0.143341
0.357243
-0.213902
-0.00441587
0.00420193
0.000213946
-0.00944552
0.108852
0.108969
-0.103539
-0.00543016
-0.0499991
-0.184359
-0.0142037
-0.0533649
-0.00525504
-0.000278123
0.00553317
-0.337984
0.194643
-0.00760899
-0.0833964
0.0910054
0.369192
-0.179111
-0.190081
0.107443
-0.0609521
0.0713611
-0.0104091
-0.00712761
-0.00242069
0.193651
-0.171492
-0.0221587
0.143586
-0.018313
0.231443
-0.405346
0.173902
0.117981
-0.120313
0.00233215
0.0140216
-0.00517186
0.0032288
-0.00225035
-0.000978454
-0.257266
0.396565
-0.1393
-0.0162579
0.00931627
0.00694164
-0.351523
0.119644
-0.00888773
0.165156
-0.159951
-0.00520495
0.335333
0.148188
-0.0776256
-0.138394
0.0034516
-0.00319231
-0.000259289
0.117341
-0.0585227
-0.000964279
0.204539
-0.264078
-0.173734
0.328982
-0.0153624
0.0234322
-0.00806972
0.144521
0.406663
-0.551185
-0.116681
-0.00231343
0.118994
-0.178588
0.24463
-0.0660421
0.181788
-0.165182
-0.0166064
0.190457
-0.0362548
-0.154203
-0.029175
0.0380282
-0.00885323
0.00765746
-0.000211077
0.0889841
-0.228011
0.139027
0.0157086
-0.0139195
0.0888515
0.179868
-0.26872
0.000293018
0.129317
-0.12961
-0.0219104
-0.009489
0.0078022
-0.00907413
0.28355
-0.315885
0.032335
0.141745
-0.00670333
0.0912704
-0.00355893
0.000366628
0.0117508
-0.0869885
0.0752378
-0.01774
0.135721
0.0913272
-0.021421
0.1856
-0.0204442
-0.0764646
0.158339
-0.00247961
0.00522824
0.0382536
-0.0051292
-0.0331244
-0.0572151
0.123521
-0.0663057
0.0110003
0.00407831
-0.0824797
0.0928845
-0.0104048
0.00571018
0.0260586
-0.0317688
0.310705
-0.210037
-0.100668
0.0784851
0.0119094
0.076969
-0.0940604
0.516048
-0.244876
-0.271172
0.0130294
0.00130181
0.0280147
-0.0102819
-0.0177327
0.164431
0.0199141
0.310181
-0.132492
-0.177689
-0.0473389
0.0377661
-0.111468
0.126503
-0.0150353
-0.025239
0.0412363
-0.0159973
-0.263191
0.183011
0.603292
-0.0569232
-0.546368
-0.0954024
0.130186
-0.034784
-0.131084
-0.0172863
-0.503047
0.332619
0.000665421
0.503258
0.100034
-0.096712
0.0142323
0.223983
-0.214566
-0.00941689
0.0097613
-0.132366
-0.253593
0.174852
0.209806
0.186146
-0.134159
-0.00363859
0.137797
-0.0072055
-0.00905241
0.17382
-0.149464
-0.0243564
0.000223022
0.0162802
-0.287326
0.483393
-0.196067
-0.419756
0.0162715
0.403484
0.00471943
-0.148191
-0.14772
-0.168223
-0.0993629
0.126289
-0.0269263
-0.265083
0.17595
0.0891327
-0.113366
-0.0443949
0.0867043
-0.00821919
0.325441
-0.557986
0.232546
-0.0130051
0.0151912
-0.00218606
0.310879
0.357592
-0.107734
0.0986757
0.00905876
0.0120411
0.00366755
-0.019953
-0.00706083
0.0270138
0.0186121
0.0248009
-0.0500399
-0.0519551
-0.0884397
0.0953276
-0.114798
0.01947
0.0224142
0.00560046
0.228757
-0.379206
0.150449
-0.038203
0.0124543
0.134209
-0.152617
0.171255
-0.000437476
-0.00869329
0.00587957
0.0852278
-0.0911074
-0.351251
0.157898
-0.125867
0.0265041
-0.106476
0.308538
-0.0228519
0.0285621
-0.014411
0.00301795
0.011393
0.0182563
0.191682
-0.209939
0.0529112
-0.0267432
-0.00964751
0.0363907
0.618653
-0.333071
-0.285582
0.384452
0.234202
0.12807
-0.0117657
-0.0146674
0.00166228
-0.056797
0.0704063
-0.0136093
-0.219124
0.0357595
0.123374
-0.111207
-0.0121665
0.160504
-0.281541
0.318646
-0.381978
0.0633323
0.0635951
-0.0821145
0.0185193
0.00722894
0.138194
-0.0944983
-0.0436959
0.164392
0.311789
-0.476182
-0.0645623
-0.0643813
0.0917808
0.0397855
-0.131566
0.0242426
-0.13605
0.111807
-0.266232
0.0861382
0.180094
-0.197581
-0.0285372
-0.128541
0.017073
-0.177134
0.0817319
-0.126193
0.083035
0.0116568
0.154463
-0.125577
-0.0607866
-0.120713
0.0634981
-0.0933317
0.0752837
-0.0325464
-0.0780188
0.0291592
-0.0440602
0.014901
-0.00972717
0.0734863
-0.0750378
0.0179076
0.00406666
0.00138906
-0.00545572
-0.0247076
-0.103321
0.128029
0.00974239
-0.0706945
-0.000835397
0.152804
0.188727
-0.34153
0.104602
-0.181066
-0.121516
0.0889694
-0.0132912
0.184271
-0.17098
0.221145
-0.436866
-0.452021
0.245198
0.206823
0.114088
-0.100449
-0.0136383
0.00205834
0.012774
-0.206249
0.0539717
-0.00537119
0.00218556
0.188951
-0.476277
0.0138797
-0.0706767
-0.0381595
0.0984338
-0.0602743
0.0116226
-0.00103405
-0.0882109
-0.0376561
-0.0199773
0.208834
0.101906
0.157229
0.000962951
0.0106597
0.0776271
0.0605672
-0.143977
0.119269
0.0107093
-0.315932
0.3296
-0.0879663
0.102418
-0.0144517
0.00635327
-0.0596019
-0.03711
0.184906
-0.0277399
-0.157166
0.111425
-0.109038
-0.00238676
-0.25096
0.211786
-0.335499
-0.0292876
-0.182033
0.339608
-0.0209614
0.0292611
-0.00900832
-0.0202528
-0.412419
-0.151782
0.0833492
-0.019754
0.00850049
-0.122854
0.0346427
0.00242979
-0.00118406
-0.00124573
-0.003956
-0.00567059
-0.0956302
0.0360283
-0.0146121
0.10994
0.167082
-0.14847
0.136827
-0.23757
-0.0558253
0.0242341
0.337604
-0.361839
-0.00075787
-0.418998
0.392897
0.148072
-0.131269
-0.0168038
-0.024139
-0.08855
0.112689
0.104828
-0.0130476
-0.0118141
0.0880192
-0.244134
0.0114224
0.232712
0.00480851
0.486947
0.110067
0.00717672
-0.00460859
0.00932119
-0.143802
0.13448
0.0435846
0.443363
0.233
0.246257
-0.479257
-0.0171018
0.0261461
-0.00904426
0.030705
-0.218765
0.0248697
0.0337286
-0.0585984
0.0245476
-0.00213337
0.114964
0.0932723
-0.124908
0.0316359
-0.233485
-0.148065
0.38155
0.00315868
-0.0221743
0.00334651
0.158142
-0.161489
0.0584328
-0.244731
0.00458981
0.342507
0.181461
-0.523969
0.0216736
-0.253063
-0.154368
-0.184391
0.338759
-0.0188266
0.147004
-0.128177
-0.00888321
0.0100158
-0.00113261
0.0279655
-0.193775
0.165809
-0.174916
0.175421
-0.000504655
-0.116233
0.00772465
0.00366484
-0.000436037
-0.174164
0.114138
0.0151569
0.137086
-0.152243
0.0313043
-0.00697148
-0.0243328
-0.356609
0.380843
0.0234878
-0.328777
-0.192376
0.521153
0.0472814
0.25022
-0.0795264
-0.011871
0.0913974
-0.073722
0.116814
-0.0430922
-0.0185519
-0.10007
0.118847
-0.013882
-0.104965
0.0169154
-0.539497
0.314824
0.224673
0.37731
0.219705
0.120053
-0.11976
0.235483
0.075222
-0.119344
-0.420152
0.199056
-0.223332
0.0242754
0.116108
-0.00491598
-0.111192
-0.398777
0.434592
-0.0358156
0.094899
-0.109285
0.014386
0.024772
-0.0612807
0.0526001
0.00868057
0.00109478
0.117752
-0.00220727
-0.000381624
0.0025889
-0.00415999
0.128199
0.479334
0.121051
-0.118929
-0.00212248
-0.51755
0.237967
0.279583
0.139254
0.0977963
-0.0179827
0.0471419
0.0294654
-0.00177983
5.05802e-05
-0.0348234
0.0278519
-0.180507
0.303496
-0.122988
-0.192575
0.210832
0.119657
-0.0787118
-0.0409453
0.223988
-0.209457
-0.0145304
-0.188783
-0.192378
0.381162
-0.0136966
-0.0251329
0.0945284
0.00588887
0.00100104
0.00798181
-0.00898284
-0.015762
-0.11655
0.0428276
-0.346721
0.305289
0.0414323
0.00716653
-0.331935
0.103018
-0.0559138
-0.0471037
-0.0802046
-0.0435251
0.25182
0.490193
0.136447
-0.62664
0.0275794
0.0823387
0.106789
0.00024063
-0.107029
-0.00159791
-0.253387
0.0373925
-0.628606
0.362784
0.265822
-0.0100941
0.00121088
-0.252745
-0.0134874
-0.0173987
-0.159678
0.177076
0.359569
-0.516148
0.00100093
0.00123019
-0.00223112
-0.477727
0.168138
-0.0179297
0.0040102
-0.282354
-0.121828
0.404182
0.0112479
-0.115224
0.180628
-0.155296
-0.025332
0.132925
-0.0706603
-0.0622649
0.0099896
-0.313407
0.091052
-0.263498
0.152755
0.110743
0.597325
-0.347135
-0.25019
-0.0183419
-0.064134
0.0824759
0.0725178
-0.240219
0.167701
-0.0201935
0.0158361
-0.0495906
0.25589
-0.206299
-0.0869868
0.0310006
0.0559862
-0.00647535
-0.0101922
0.0166675
0.016584
-0.17584
0.159256
-0.159123
0.411642
-0.252519
-0.000715354
-0.00818361
0.00889897
-0.0439839
-0.0119287
0.0559126
0.226643
-0.137658
0.0976715
0.0191428
0.0432897
-0.28086
-0.0161216
0.000669049
0.0154526
0.325679
-0.172876
-0.0643231
-0.0571927
0.473594
-0.22409
-0.249504
0.42723
0.170095
0.06394
-0.0390703
0.0117064
0.289415
0.208895
-0.182029
0.0564421
-0.00451258
-0.0036644
0.00817698
-0.0540716
0.0658799
-0.0118083
-0.0374848
0.0107416
-0.130277
-0.217727
-0.00236766
0.00643432
0.115052
0.34345
-0.606626
0.207849
-0.228592
0.208237
-0.404236
0.298714
0.286898
-0.550504
0.263606
0.0333723
-0.0108706
-0.0225017
0.0486475
-0.0151706
-0.0334769
-0.277037
0.101318
-0.434982
0.535016
0.14535
0.0483009
0.070581
0.267657
-0.00791875
0.0072034
-0.00229715
-0.00164441
0.00153471
-0.00164033
-0.179621
-0.0838774
-0.0847635
0.249713
0.266335
-0.0294298
-0.164116
0.0699418
-0.108101
-0.142147
0.370904
0.186108
-0.514885
-0.105432
0.0937745
0.0116573
-0.00560491
-0.00880608
0.123792
-0.0305201
-0.0100887
0.152568
-0.0207213
-0.131847
-0.409755
0.213077
0.159076
-0.00868179
-0.150394
0.118263
-0.0205918
0.0134321
-0.0142143
0.000782213
0.15496
-0.172997
0.0634885
0.0096111
-0.0730996
-0.118952
0.0387479
0.0619415
0.430399
0.0119618
0.00840448
-0.0203662
-0.00372294
0.0156847
0.00174699
0.0107096
-0.0124566
-0.0697036
-0.056612
0.0676245
-0.0110125
-0.0958252
0.179468
0.0585594
0.00524587
-0.024055
0.0901612
-0.0661061
-0.191945
0.178654
-0.583132
0.367135
-0.0348453
0.0321632
0.00268208
-0.234597
0.22365
0.0109478
-0.47613
0.317007
0.0365468
0.247004
-0.21912
-0.0154771
0.000988716
-0.108451
0.225647
-0.382313
0.156666
0.00720191
0.151874
-0.000842862
-0.00139931
-0.125652
-0.117009
0.242661
0.00221601
0.0134599
0.0775796
-0.220643
0.143063
0.00467666
0.104858
-0.109535
-0.000180242
0.00479138
-0.00461114
-0.28964
0.077746
-0.0659952
-0.221327
0.113979
0.107348
0.177691
-0.161107
-0.0649394
0.0108679
-0.0204844
-0.102502
-0.00195799
0.10446
0.153083
0.00725231
-0.0117649
-0.160135
0.320659
-0.160524
0.00190429
-0.0155825
0.0136782
-0.021177
-0.162825
0.00210534
-0.0017675
-0.000337837
-0.0138885
0.0129496
0.000938854
0.013742
-0.0118377
0.00153082
0.129545
-0.131076
-0.145076
-0.155247
0.300323
0.119145
-0.299652
-0.324444
0.65766
-0.333216
-0.173642
0.419224
-0.109111
-0.310112
-0.00521253
-0.162886
-0.0116739
0.0209437
-0.153345
0.132401
-0.055375
-0.118789
0.119354
-0.21518
-0.367404
0.237127
0.00148079
-0.188245
0.186764
-0.175736
0.16839
0.00734609
-0.149587
-0.150209
-0.125682
0.190715
0.0135669
0.00512105
-0.018688
-0.01419
-0.067247
0.0814369
0.0241272
0.167598
-0.191726
-0.139639
-0.00330699
0.142946
-0.0260654
-0.00877995
0.227854
-0.00475334
-0.00203968
-0.559396
0.202787
0.141943
0.00122503
-0.143168
-0.135627
0.208145
-0.189939
0.354887
-0.164949
0.111125
-0.141006
0.0298808
-0.158582
0.42454
-0.147614
0.373261
-0.0599164
0.104982
-0.0932489
0.281195
0.102627
0.0134817
-0.301073
0.153353
-0.0130294
0.00112758
0.0119018
-0.0844792
0.0981053
-0.0136261
0.0120014
-0.0964066
0.0844052
0.0813242
-0.0889332
0.134082
-0.327811
0.193729
0.00017944
-0.115943
0.107266
0.00867705
0.528025
0.00853539
-0.0214018
-0.206535
0.000774592
-0.00552793
0.20997
-0.207518
-0.00245199
-0.0649464
0.0658898
0.0277088
-0.0113875
0.000548594
-0.126295
0.089825
0.0364703
0.123582
0.190854
-0.314436
-0.0376408
-0.0238226
0.0897124
0.0147491
-0.109396
-0.111931
0.322837
0.160556
-0.25854
0.387275
-0.128735
0.0626881
0.0970448
0.255453
-0.305348
0.0498956
0.000507653
-0.0057627
0.000449042
0.278298
0.298912
-0.0476086
-0.0590999
-0.105559
0.0263408
0.0792179
-0.304336
0.149968
-0.00708166
0.0206486
-0.0108347
-0.00709497
0.107269
-0.0127409
-0.215845
0.166255
0.00918307
0.0288452
0.152792
-0.161873
0.478016
-0.316143
0.00771278
-0.00671174
-0.130198
0.145355
0.376617
-0.260504
-0.116113
0.424581
-0.179759
-0.244822
-0.189773
0.170786
-0.163855
0.138911
0.0249444
0.0127234
-0.0197733
0.00084242
0.00258829
0.0210566
0.133274
-0.154331
0.0233292
-0.00551927
-0.0178099
0.0677957
-0.214513
0.146717
0.163841
0.159533
-0.323375
-0.0861176
0.0411603
0.0449573
-0.235977
-0.216044
-0.0121019
-0.080761
0.0928628
-0.399413
0.591926
-0.245602
-0.346324
0.12909
0.0803742
-0.209464
-0.0804497
0.00243979
-0.0166255
0.0141857
-0.0135451
-0.00257658
-0.0772864
0.090745
-0.0134586
0.000280141
-0.00742581
0.00714567
-0.00628049
0.023908
-0.0176275
0.121896
0.0267536
-0.0905188
-0.208955
-0.150001
-0.151072
0.0171168
0.138026
0.498538
0.0361368
-0.534675
0.146677
-0.137356
0.0168362
-0.0311029
-0.0512409
-0.113839
0.543711
-0.106227
0.143458
-0.037231
-0.00519879
-0.100251
0.111423
-0.0111715
-0.00611597
-0.00940698
0.123759
-0.0998303
0.435163
-0.166142
0.093346
-0.0902775
-0.00306847
0.0186776
0.180379
-0.00506067
-0.00800894
0.0264064
-0.300372
-0.328234
0.141144
0.235473
0.441541
-0.273289
-0.168252
0.220065
-0.0367408
0.096755
-0.0915294
-0.00522554
-0.00675444
0.0328131
0.00593951
-0.0230413
0.0570681
0.110014
0.31334
-0.471921
0.0164342
0.0859838
0.228239
0.0919069
0.0141438
-0.0838743
0.00319214
-0.00347026
0.131395
-0.114424
0.001302
0.00801427
0.00735071
-0.00607672
0.00386945
0.0185667
0.112422
-0.130989
-0.0243951
0.179355
-0.00823639
0.00586873
0.188094
-0.163967
0.0775074
0.0894003
-0.166908
0.0886583
0.0309987
-0.0198987
0.335714
-0.143232
-0.192482
0.0511264
0.0147535
0.325298
-0.161457
-0.0352509
-0.0138634
0.0491142
0.00264061
-0.375005
-0.184391
0.173984
0.148516
-0.0373914
0.10608
-0.00524084
0.181162
-0.140912
-0.0402493
-0.344465
0.551497
-0.207032
0.0285461
-0.207134
-0.174417
0.212857
-0.0384397
-0.118501
-0.116253
0.234754
0.0156238
0.050219
-0.0658429
0.278967
-0.458516
0.179549
0.0090863
-0.0530702
0.0114278
-0.00968083
0.178253
0.147046
-0.181116
0.156721
-0.0285262
-0.135329
-0.487892
0.243015
0.0303283
-0.000862964
-0.00826023
0.000350657
0.0170656
0.00359908
-0.0206646
0.208684
0.244231
-0.452914
0.0255188
-0.20915
0.183631
0.017899
0.174046
-0.191945
-0.221881
-0.0232049
0.245086
-0.0974643
0.0196358
0.0778285
0.0268058
0.380666
-0.598504
0.217838
-0.0151049
0.114339
-0.0992339
-0.132417
-0.0447169
-0.0704719
0.0200884
0.0503835
0.151198
0.000287154
0.0384053
-0.212823
-0.222735
0.0542069
0.168528
0.0895227
0.119369
-0.0152279
-0.104141
0.117854
-0.233526
0.3672
-0.133675
0.00797867
-0.00161229
0.00144788
0.000164416
-0.0343947
0.0248706
-0.00332555
0.00996197
-0.0479461
0.0126953
0.00361914
0.000886008
0.00121933
0.366148
-0.19175
-0.174398
-0.337734
0.164
0.182238
0.117383
-0.299621
-0.0149493
-0.0720393
-0.106166
-0.0381555
-0.115159
-0.014252
0.0136358
0.000616185
-0.318709
0.158574
0.185423
0.337057
-0.52248
0.378877
-0.0139806
-0.0761363
0.301514
0.214069
0.133002
-0.210565
0.0775633
0.0978514
0.093409
0.0713981
-0.0568794
-0.0145187
-0.109636
0.214954
-0.105318
-0.334945
-0.182605
-0.447872
0.257889
-0.141105
0.329454
-0.188349
0.185773
-0.620755
0.123309
-0.112161
-0.011148
-0.0781133
-0.0193511
-0.0440477
0.121555
-0.0498536
0.0113007
0.0385529
-0.201001
0.34627
-0.145269
0.154027
0.00404642
-0.0204462
0.0139709
-0.0123946
0.000530804
0.0717532
-0.00173551
-0.0700177
0.0628545
0.0426393
-0.105494
0.0562026
0.0337431
0.426318
-0.126644
0.113376
0.013268
0.0204996
-0.243234
-0.424931
0.142577
-0.185896
0.197397
-0.011501
0.00368162
0.112099
-0.283024
0.170925
0.114048
0.00532114
-0.0772528
0.065151
0.297517
-0.193684
-0.303795
0.113856
-0.158305
0.126126
0.0321798
0.00112477
0.366385
0.206093
-0.572479
0.0289844
0.0424137
-0.124947
0.307185
0.0746503
-0.0895996
0.463226
-0.230226
-0.0988669
-0.17817
0.0721018
-0.0628694
-0.0291707
0.0920401
0.0572297
0.227683
0.0176211
-0.0813899
0.0039179
0.00415018
-0.090836
-0.0260651
0.00901238
0.0170528
-0.343841
0.105671
0.000907744
0.0125244
-0.0856001
0.061545
-0.394483
0.299761
0.0947221
-0.0053719
-0.0849056
0.0240728
-0.104693
0.0766363
0.028057
-0.223402
-0.192761
-0.11452
0.307281
0.430651
-0.441768
0.0111178
0.308277
0.253589
-0.0458107
-0.207779
-0.13778
0.141011
-0.00323081
-0.111188
-0.0159461
0.127134
-0.185037
0.30862
-0.215701
0.432025
-0.102761
0.0321332
-0.242143
0.420214
-0.17807
-0.0379014
0.0282304
0.00967104
-0.181931
0.0207698
0.000920987
-0.00239282
0.00147183
0.0710331
-0.104022
0.249858
-0.473779
0.223921
0.0157398
0.244819
-0.532669
0.287851
0.188778
-0.0260665
0.112014
-0.12864
0.0166263
0.0864341
-0.014681
0.131677
-0.130146
0.336027
-0.593516
0.257489
0.113247
-0.0257327
-0.0869961
0.0382481
0.048748
0.10886
-0.104184
0.0252602
-0.105166
0.0799055
0.134322
-0.0999389
-0.0343834
0.106201
-0.13034
-0.0783163
-0.041997
0.128295
-0.00239829
-0.125897
0.0809911
-0.190627
0.22558
0.192163
0.0682066
-0.00426664
0.00416238
-0.0406098
0.213726
-0.173116
-0.426047
0.264173
-0.0122026
-0.00391371