/*--------------------------------*- C++ -*----------------------------------*\
| =========                 |                                                 |
| \\      /  F ield         | OpenFOAM: The Open Source CFD Toolbox           |
|  \\    /   O peration     | Version:  v2012                                 |
|   \\  /    A nd           | Website:  www.openfoam.com                      |
|    \\/     M anipulation  |                                                 |
\*---------------------------------------------------------------------------*/
FoamFile
{
    version     2.0;
    format      ascii;
    class       volVectorField;
    location    "200";
    object      U;
}
// * * * * * * * * * * * * * * * * * * * * * * * * * * * * * * * * * * * * * //

dimensions      [0 1 -1 0 0 0 0];


internalField   nonuniform List<vector> 
13851
(
(1.14332 0.0582347 -8.50932e-21)
(1.07341 -0.0230496 0)
(1.07178 -0.0220297 0)
(-0.187815 -0.0147013 0)
(1.00209 -0.000461554 1.4163e-22)
(1.08367 -0.0375177 -1.9951e-20)
(1.05913 0.0142757 -2.82727e-20)
(1.01327 -0.000727699 0)
(0.283328 0.0458529 -3.79375e-20)
(0.991271 -0.00817428 1.02073e-20)
(1.16424 -0.100748 0)
(1.00137 -0.00848116 1.59678e-21)
(0.981009 -0.020525 3.67545e-21)
(0.0718711 0.0158894 3.23391e-20)
(1.10457 0.0121893 2.05033e-20)
(1.08834 0.0595293 0)
(-0.302684 -0.000928785 0)
(1.03599 -0.0192048 1.05338e-22)
(1.21405 0.0338723 0)
(1.14488 0.0560439 2.37035e-20)
(1.11725 0.00623533 2.21803e-20)
(1.04041 -0.0918747 7.31676e-21)
(0.538107 -0.262513 8.4419e-20)
(1.00008 -0.000220017 0)
(1.1542 -0.0190701 3.29227e-20)
(1.08979 0.048775 -2.97158e-20)
(1.09768 0.082224 -2.53754e-20)
(1.13027 0.0765041 4.49175e-20)
(0.442449 0.0441477 5.3416e-21)
(1.02092 -0.0120588 0)
(-0.0902387 -0.00827497 -1.43932e-19)
(1.05936 0.0135931 9.03572e-21)
(1.13375 0.0600265 -3.66963e-21)
(0.346114 0.0684263 1.30173e-21)
(1.13263 -0.0847285 -1.02013e-20)
(0.476983 0.0431649 0)
(1.00004 -0.000197291 0)
(1.19543 -0.138095 -1.25087e-20)
(0.000555541 0.0174485 1.61988e-19)
(1.00714 -0.0387837 4.85526e-21)
(0.170738 0.0485647 5.59264e-20)
(0.477876 0.0483284 -5.31983e-21)
(-0.235855 -0.00300651 0)
(1.10083 -0.477596 0)
(0.487912 0.0560144 0)
(1.01506 -0.0228054 3.07524e-22)
(1.0193 0.000129126 -4.21247e-21)
(1.09517 0.0626816 -1.17503e-23)
(1.04713 -0.0571282 -1.20059e-20)
(0.980654 -0.0195702 0)
(-0.238538 0.00452821 -1.42772e-19)
(0.973769 -0.0139483 7.36272e-21)
(1.08897 0.0596807 0)
(1.07695 0.0253893 1.27437e-20)
(0.142113 0.0134 -4.08222e-20)
(1.00609 -0.0390894 -4.50118e-21)
(1.13575 0.0611333 0)
(0.138381 0.042492 -7.46097e-20)
(1.08789 0.0764127 0)
(-0.0549758 0.0144908 2.01701e-20)
(1.00126 -0.00802447 -4.49363e-21)
(1.09889 0.0807466 4.25084e-20)
(0.995545 -0.00319123 0)
(1.04759 -0.0593964 -8.31226e-21)
(0.87794 -0.448812 1.1756e-22)
(0.859311 -0.469059 -1.42642e-22)
(-0.0763968 0.0105781 1.3363e-20)
(0.694166 -0.125281 7.89622e-20)
(1.02114 -0.0397659 1.13809e-21)
(-0.157991 -0.0131423 1.26069e-19)
(-0.155547 -0.000696345 -1.62569e-19)
(1.12768 0.0101831 4.59829e-22)
(0.994136 -0.0272474 -3.8866e-21)
(-0.0576271 0.0124699 0)
(1.08428 0.022816 1.49141e-20)
(1.02189 -0.0744789 0)
(-0.278706 -0.00305203 -8.13714e-20)
(1.02163 -0.00606453 -2.95687e-21)
(1.21749 -0.0231604 2.9437e-20)
(1.00517 -0.0182605 5.87608e-21)
(1.02239 -0.0403696 0)
(1.26488 -0.0921081 -9.93653e-20)
(1.12896 -0.0864244 0)
(0.0597809 0.016229 -5.41691e-20)
(-0.0395266 0.015172 -9.70913e-21)
(-0.112461 -0.0048734 0)
(1.04372 -0.0930745 -8.09072e-21)
(0.263545 0.01016 -2.88657e-23)
(0.991984 -0.0123712 3.6431e-22)
(-0.0872219 -0.00751116 0)
(0.972507 -0.013167 3.81956e-21)
(1.06067 0.0134151 3.66102e-20)
(-0.223388 -0.00245083 1.70432e-19)
(-0.144948 -0.00484318 1.59004e-19)
(-0.0452548 0.0179547 1.22821e-19)
(1.08537 -0.438158 -6.96791e-20)
(1.01013 -0.0246005 2.41246e-21)
(1.09143 0.0618895 0)
(-0.185514 0.00639925 7.88748e-21)
(1.21881 -0.194261 7.01928e-20)
(1.09173 0.0629577 0)
(0.811182 -0.118528 -3.33707e-20)
(0.811639 -0.151501 -1.78125e-20)
(0.990061 -0.0290703 0)
(1.01865 -0.0223798 0)
(1.13351 -0.00561384 1.67596e-20)
(1.01791 -0.0221425 1.66264e-21)
(-0.137127 -0.00237632 1.73267e-19)
(1.06083 0.0125953 -2.01499e-20)
(1.03503 -0.0186511 2.85621e-21)
(1.02837 -0.131004 1.68137e-21)
(1.01584 -0.0232024 0)
(1.21884 -0.0199824 0)
(1.16487 -0.0459596 0)
(1.1196 0.0636132 1.52148e-20)
(1.07626 0.0240803 -3.13707e-20)
(1.0146 -0.00803987 2.03976e-21)
(1.01398 -0.000851085 2.74724e-21)
(-0.203879 -0.0124087 -1.66595e-20)
(-0.122081 -0.0172054 4.16282e-20)
(1.11501 -0.362738 6.15102e-20)
(1.02915 -0.0157752 -7.15903e-22)
(1.01622 -0.0404839 2.72535e-23)
(0.0661834 0.0321117 8.57929e-21)
(1.19345 0.0503436 -6.32579e-23)
(0.615508 -0.206488 0)
(1.01064 -0.0242849 -2.97373e-21)
(1.13234 -0.151448 0)
(0.195054 0.0534458 5.51658e-20)
(1.11613 0.0182155 -3.71602e-21)
(1.03703 -0.0938811 -8.08168e-22)
(1.10063 -0.065423 0)
(1.31164 -0.157326 1.00038e-19)
(0.329748 0.0662942 4.01819e-20)
(1.16863 -0.0978886 0)
(-0.0553796 0.0189323 5.1954e-20)
(0.707267 -0.11766 5.82964e-20)
(-0.126877 -0.00384874 2.23446e-20)
(0.848835 -0.0900717 2.23975e-20)
(1.1115 0.0214017 2.53856e-20)
(1.26188 -0.0954052 8.97568e-20)
(0.975473 -0.0452924 0)
(0.991289 -0.012509 0)
(0.744692 -0.311609 -1.93442e-20)
(1.11423 0.0173393 4.33407e-21)
(1.00826 -0.0728463 0)
(1.02138 -0.00564552 7.07609e-22)
(-0.13692 -0.00567424 -8.01774e-20)
(0.293475 0.0334253 -1.34947e-20)
(1.1375 -0.153693 0)
(1.09283 0.0632198 0)
(1.21739 -0.0231151 -7.37243e-21)
(1.16898 -0.0451185 -3.57898e-20)
(1.20387 0.0341158 -6.8863e-20)
(0.972816 -0.0237966 0)
(0.983827 -0.00967134 0)
(1.00137 -0.0067445 -3.96614e-21)
(-0.0342678 0.0140434 -1.62168e-19)
(1.10952 0.0177628 0)
(1.0627 0.00344738 -1.31525e-20)
(1.00015 -0.000512978 3.62247e-21)
(0.456375 0.0432293 0)
(1.13064 -0.00473992 0)
(1.0963 0.062795 -3.38526e-20)
(0.0757978 0.014491 -3.02763e-20)
(0.377132 0.0578048 7.15171e-21)
(0.388422 0.0596511 0)
(-0.221652 0.00613576 1.95682e-19)
(1.02908 -0.126076 -8.80892e-21)
(0.682546 0.0590658 0)
(1.00096 -0.00743716 -3.01596e-21)
(1.01451 -0.00763684 1.57721e-21)
(1.14915 -0.00956116 0)
(1.00111 -0.000433295 0)
(-0.018059 0.0225227 -1.12346e-19)
(1.1176 0.0876892 -4.60066e-20)
(1.09948 0.0678223 -7.42878e-21)
(1.01509 -0.00758002 0)
(1.08237 0.0242912 0)
(1.09886 0.0665467 0)
(1.18924 0.0502607 -1.82638e-20)
(1.10752 -0.459151 3.06441e-20)
(1.03458 -0.118987 -3.69402e-21)
(1.11402 0.0184057 0)
(-0.244511 -0.00367283 -5.30475e-20)
(0.30247 0.033854 3.46661e-22)
(1.13209 0.0617837 -1.69103e-20)
(0.889838 -0.0676173 -1.50598e-20)
(0.977284 -0.0245461 7.59404e-21)
(1.01935 -0.0165423 -1.16432e-21)
(1.21069 0.012103 6.4081e-20)
(1.11036 0.0165767 0)
(0.0523135 0.00965338 -1.68882e-20)
(1.08511 -0.0353507 2.05956e-20)
(1.01005 -0.0707273 2.03722e-21)
(1.0901 0.0607617 0)
(1.13009 0.0606545 0)
(1.0464 -0.0102454 -4.72794e-21)
(1.04208 -0.0275718 -7.68949e-21)
(0.710274 -0.160779 0)
(1.26192 -0.106441 4.56329e-20)
(0.0114412 0.0262875 -4.49576e-20)
(0.121581 0.0434221 0)
(1.10289 0.013027 -3.86014e-20)
(0.945155 -0.716245 -5.78823e-20)
(-0.0199862 0.0245969 0)
(0.937808 -0.0221199 0)
(1.10337 0.028103 -2.80573e-20)
(0.275096 0.0476517 -1.81729e-20)
(1.07799 -0.0453984 0)
(1.08764 0.0586922 -3.67681e-22)
(1.01555 -0.0396573 -3.83235e-22)
(1.26506 -0.102747 -1.36611e-20)
(1.00013 -0.00225267 -2.57194e-22)
(1.13628 -0.0774427 -2.39499e-21)
(1.02564 -0.0822744 3.29837e-21)
(0.98192 -0.0184387 -5.73872e-21)
(1.15752 0.0710054 0)
(1.04596 -0.0190961 -8.41558e-21)
(0.152877 -0.540394 -1.046e-19)
(1.0151 -0.00716286 -1.30618e-21)
(1.14967 0.0540484 0)
(0.0401194 0.0124055 5.48331e-20)
(-0.0394848 0.0195543 6.97388e-20)
(0.901857 -0.0769915 0)
(1.10306 0.0290852 2.22443e-20)
(1.00003 -0.00112576 0)
(0.747621 -0.290216 1.8934e-20)
(1.00177 -0.0134402 0)
(1.13292 -0.078771 0)
(-0.0379661 -0.0353133 -4.09806e-20)
(0.895514 -0.0682672 -2.512e-20)
(1.0778 -0.0432292 0)
(0.9963 -0.0012505 8.32157e-22)
(0.107486 0.0425335 2.49232e-22)
(1.0216 -0.0118592 3.28445e-21)
(0.896344 -0.427761 0)
(0.101591 0.0390073 -7.17846e-20)
(1.21107 -0.189386 0)
(1.0001 -0.000490063 -4.20409e-21)
(1.29812 -0.327734 0)
(-0.0273766 0.0151889 -7.39654e-20)
(0.518547 0.0588933 0)
(1.08811 0.0587998 0)
(1.10783 -0.0122244 0)
(0.708474 -0.343498 -4.68839e-20)
(1.15724 0.0680679 2.9406e-20)
(1.08192 0.0254921 0)
(1.08798 -0.420121 0)
(1.04772 -0.132865 8.82151e-21)
(0.196211 0.0100295 0)
(1.17538 0.0333 -8.489e-20)
(1.01037 -0.00078887 -7.75726e-24)
(1.08348 -0.0135821 0)
(1.09048 0.0617912 -1.6223e-21)
(0.445626 0.0407319 0)
(0.33929 0.0115952 7.47137e-21)
(1.01886 -0.0158349 1.41488e-21)
(0.59129 -0.202078 0)
(0.992859 -0.0131968 1.90133e-20)
(1.13348 0.072954 -6.41215e-20)
(1.19642 0.0440363 -3.53123e-21)
(1.08533 -0.012954 0)
(1.13084 -0.00129432 -7.51007e-20)
(1.17891 0.0329873 8.73084e-20)
(0.999882 -0.0253217 -1.19906e-20)
(0.806433 -0.128301 3.90496e-20)
(1.09848 0.0598662 0)
(1.177 0.0855872 -1.76225e-20)
(0.997888 -0.00863441 0)
(0.981808 -0.0174456 -7.27571e-22)
(0.896313 -0.0754706 1.68196e-20)
(0.368805 0.0632176 0)
(-0.25468 -0.00614153 0)
(1.12068 0.0113151 3.36399e-20)
(1.0302 -0.0162793 3.71804e-21)
(1.1887 0.054465 4.21984e-21)
(1.20016 0.0391469 1.00845e-19)
(1.12295 0.0588059 -4.12627e-20)
(1.12873 -0.000488745 6.21384e-20)
(0.337414 0.0585389 0)
(-0.155877 0.00731157 -2.94644e-20)
(1.08889 -0.021315 0)
(1.09921 0.00966676 -6.24334e-20)
(1.13742 -0.162319 0)
(1.0207 -0.0214625 1.50525e-21)
(1.0015 -0.00638576 -2.01592e-21)
(1.12505 0.0597239 -9.18587e-21)
(1.14936 -0.116107 4.69873e-20)
(1.02297 -0.0120443 7.81831e-21)
(1.00014 -0.00221167 -3.89634e-21)
(1.00155 -0.0138404 0)
(1.00429 -0.00063788 -7.96602e-24)
(1.10443 -0.00333402 -9.24687e-20)
(1.00155 -0.00680694 5.94027e-21)
(0.294255 0.0484668 1.90123e-20)
(1.11915 0.0076169 0)
(1.01207 -0.0327333 -1.08384e-21)
(0.45296 0.0391861 0)
(0.0546743 0.029798 0)
(0.975003 -0.0192626 0)
(1.14827 0.0565254 -1.92932e-20)
(-0.214297 0.00498114 1.74189e-20)
(0.974361 -0.047659 0)
(0.973609 -0.0185972 0)
(1.12167 0.007237 0)
(0.0279701 0.0126502 -4.13815e-21)
(0.223707 -0.00545141 -6.81271e-20)
(1.15034 0.00334061 5.00475e-20)
(1.00231 -0.000604132 -5.57864e-22)
(0.7191 0.0615796 0)
(1.00107 -0.00788203 0)
(1.15654 0.00284756 5.01863e-20)
(-0.197091 0.00684174 0)
(1.17965 0.0893886 8.98115e-20)
(1.06146 0.00303622 9.75452e-21)
(1.24226 -0.196663 -1.53993e-21)
(1.32558 -0.170369 0)
(-0.107379 6.94462e-05 -1.32848e-19)
(1.21922 -0.0310912 0)
(0.781139 -0.0971792 -3.96756e-20)
(-0.0122812 0.0205421 5.78821e-22)
(0.10656 0.0406229 3.92124e-22)
(1.15295 0.073512 -4.83716e-20)
(1.04345 -0.028357 8.2402e-21)
(-0.254528 -0.00251098 -9.4455e-20)
(0.152856 0.00307779 -4.59405e-23)
(0.461468 -0.454699 -1.1674e-19)
(0.49671 -0.460768 9.93375e-20)
(0.936234 -0.0233104 1.02427e-20)
(1.15305 -0.00478746 -6.00757e-20)
(0.948402 -0.11856 0)
(0.272198 0.010999 2.89087e-20)
(0.786348 -0.144185 3.78649e-20)
(1.00816 -0.0019219 -9.55147e-22)
(1.01941 8.20367e-05 4.48606e-21)
(1.0715 -0.0814438 -2.03731e-20)
(-0.134029 -0.00296573 1.81971e-19)
(0.206608 -0.547278 9.77659e-20)
(1.02069 -0.0206494 -3.41245e-21)
(-0.0546134 0.0182538 -1.26936e-19)
(0.937544 -0.115927 -1.56485e-20)
(1.10143 -0.0684425 -9.9079e-21)
(1.06293 0.00436017 1.42883e-20)
(0.0193022 0.00962698 -2.54161e-21)
(1.18504 0.0548456 0)
(1.08923 0.0605915 0)
(1.0233 -0.0800058 9.34517e-22)
(1.07515 -0.0423954 2.46108e-20)
(0.522624 0.0387617 0)
(0.977155 -0.0261573 -2.37317e-20)
(1.20399 0.0376487 -3.56571e-20)
(1.08737 -0.0200731 0)
(1.12303 0.00584624 0)
(0.931696 -0.118241 0)
(0.992205 -0.0132153 -1.29991e-20)
(1.01285 -0.0322953 1.05229e-21)
(1.22819 -0.0892563 0)
(1.22676 -0.189954 2.4982e-21)
(1.17185 0.0376712 -9.10774e-20)
(1.35537 -0.172032 4.55906e-22)
(0.532021 0.0405176 5.19273e-21)
(1.00952 -0.074301 0)
(0.0850514 0.0388357 3.86289e-20)
(1.13919 0.0784396 -1.71634e-20)
(1.02793 -0.00808433 -3.48953e-22)
(1.1595 0.0924855 -7.57128e-20)
(1.14197 0.0396766 1.54455e-20)
(-0.170673 0.00826694 -5.6956e-20)
(1.06945 -0.0789188 0)
(1.0862 0.0513729 0)
(1.08483 0.0751378 0)
(1.26181 -0.0966067 8.57874e-20)
(1.22446 -0.0991611 1.14274e-22)
(0.261059 0.011415 3.96089e-21)
(1.0472 -0.0392801 -7.11806e-21)
(1.12026 0.0896107 5.57119e-20)
(-0.331656 -0.00253087 0)
(1.10304 -0.0244002 4.23829e-20)
(0.216556 0.0143721 4.3652e-20)
(1.11026 -0.0264182 -2.01143e-20)
(0.128544 0.0387796 -7.01191e-20)
(1.0983 0.00853552 3.7754e-20)
(1.07916 0.0374995 1.80822e-20)
(1.18156 0.026842 0)
(1.24948 -0.166922 0)
(0.983905 -0.0105956 0)
(1.08624 -0.026667 1.28593e-20)
(1.15364 -0.119029 4.10849e-21)
(1.0839 0.0240708 0)
(1.01335 -0.0250289 0)
(1.12045 0.0133372 -3.54851e-20)
(0.613455 0.0889282 1.36594e-21)
(0.994929 -0.0271733 -9.31606e-21)
(1.10492 0.0270015 0)
(-0.215234 -0.0125472 2.04687e-19)
(1.06811 -0.0398378 -1.254e-20)
(1.25806 -0.482933 -7.55311e-20)
(1.08939 0.0358764 -2.77275e-21)
(0.283592 -0.00718679 0)
(1.08052 -0.046862 2.10789e-20)
(1.0894 0.0478123 0)
(0.920179 -0.689144 6.88223e-20)
(1.1966 0.0465166 1.53883e-20)
(1.13404 -0.0111187 1.61971e-20)
(0.320414 0.0088741 2.85763e-23)
(-0.0478712 0.0115501 9.13525e-20)
(1.2641 -0.321961 0)
(0.999107 -0.0253987 -4.97491e-21)
(1.22468 -0.0858291 0)
(1.1118 -0.0333108 -4.49438e-20)
(1.08683 0.0506657 0)
(1.02773 -0.0174992 -9.13546e-21)
(-0.238547 -0.00162518 5.6738e-22)
(0.559696 0.0829097 -2.69108e-20)
(1.21636 -0.0617656 -1.58619e-19)
(1.07473 -0.0403521 -2.34682e-20)
(1.18166 0.0292661 0)
(1.10418 0.0822394 -5.15695e-20)
(-0.240192 -0.00861623 0)
(1.02432 -0.00283114 4.41859e-21)
(-0.289196 -0.000487074 -1.06373e-19)
(1.25809 -0.153192 1.1551e-20)
(0.289655 -0.178764 1.39787e-21)
(1.05209 -0.135685 -1.11231e-20)
(1.13259 0.0488486 -9.43554e-20)
(0.987726 -0.0177337 1.18483e-20)
(1.00129 -0.000371608 -7.555e-22)
(0.133139 0.0106622 4.8322e-20)
(1.10713 0.083446 4.36456e-20)
(0.990596 -0.00875976 -5.88765e-21)
(1.0733 -0.0246002 5.39019e-21)
(1.10674 0.027168 -7.61222e-21)
(1.01287 -0.0086803 1.24442e-21)
(0.632993 0.0866541 0)
(1.15317 -0.00197072 1.29457e-20)
(1.14239 0.0380604 0)
(1.0775 0.00154079 9.31069e-21)
(1.04788 -0.0380906 0)
(0.97216 -0.00795971 0)
(1.30475 -0.108546 0)
(1.0109 -0.0320164 0)
(0.973208 -0.00690833 0)
(0.879365 0.0697779 8.07069e-21)
(0.647263 0.0881629 0)
(1.03383 -0.0913787 0)
(1.0912 0.0744174 1.72156e-20)
(0.995737 -0.00266717 -9.2575e-22)
(1.00166 -0.00644241 -1.89523e-21)
(1.07047 -0.0407492 3.75403e-20)
(1.17474 0.0374737 9.71249e-20)
(1.08598 0.0374242 -2.51177e-20)
(1.01324 -0.0264981 0)
(1.05712 -0.0304475 1.37334e-20)
(1.11658 -0.351619 3.15393e-20)
(1.06487 -0.0170159 -1.76387e-20)
(0.326154 -0.0121885 0)
(1.00154 -0.00793032 -2.16921e-21)
(1.07698 0.0134938 1.94387e-20)
(0.493268 0.0579633 1.09586e-20)
(0.939578 -0.161981 0)
(1.01879 -0.000575353 -1.09947e-21)
(1.00052 -0.00695546 -3.49603e-21)
(1.07715 0.000501657 -4.74884e-21)
(1.04928 -0.00905563 0)
(1.24502 -0.373518 3.56327e-20)
(0.798401 0.067388 -9.02186e-21)
(1.10885 -0.0105693 5.05006e-21)
(0.321266 -1.13133 0)
(1.07216 -0.0392883 -1.9674e-20)
(1.00037 -0.0107789 -4.17628e-21)
(0.236439 0.0544377 -2.5516e-20)
(1.08698 0.0757962 1.74278e-20)
(0.878366 -0.124639 0)
(0.99615 -0.0310439 0)
(0.0948443 0.0380269 3.8791e-20)
(0.858301 -0.0954556 4.1744e-20)
(1.18346 -0.646201 -1.63469e-20)
(0.989414 -0.0282267 -9.51807e-21)
(1.10339 -0.0599937 0)
(1.22846 -0.0962343 0)
(1.09063 0.021974 0)
(0.14055 0.0462012 2.42244e-20)
(1.10308 0.082448 4.81073e-20)
(1.27621 -0.0742056 1.50943e-19)
(0.977164 -0.0714381 0)
(1.2207 -0.0275861 5.9584e-22)
(1.00104 -0.0265897 3.83074e-21)
(0.43219 0.0420136 0)
(1.08997 0.0351534 9.97981e-21)
(1.12836 0.0611186 0)
(1.11018 -0.0313311 3.62491e-20)
(1.02381 -0.0767886 1.90887e-21)
(0.946129 -0.159456 0)
(1.14964 -0.00608515 1.20068e-20)
(1.00186 -0.000555347 0)
(-0.272725 -0.00420716 0)
(0.206012 0.0503257 0)
(0.366917 -0.0164202 5.56844e-20)
(-0.184459 -0.00274426 -1.51123e-20)
(0.81873 0.0694443 7.89469e-21)
(-0.229157 0.00413295 -3.65476e-20)
(1.20045 0.0422332 -7.51514e-20)
(0.913193 -0.0805782 0)
(0.999696 -0.00313188 -7.66917e-21)
(1.2313 -0.482348 -4.57624e-20)
(0.991293 -0.00745064 -7.92533e-21)
(1.01301 -0.0243538 9.56847e-23)
(0.907238 -0.0973651 1.39257e-20)
(0.0048445 0.0253259 6.88821e-20)
(1.07067 -0.0160318 -2.58994e-20)
(0.970973 -0.0406024 -8.26586e-23)
(1.0768 -0.282999 -7.33469e-22)
(1.14126 -0.0339883 0)
(0.989247 -0.00290199 8.91916e-22)
(0.65907 0.0210909 6.17396e-20)
(1.00879 -0.0236577 -2.21458e-21)
(0.242252 0.0585212 -2.60636e-20)
(1.23515 -0.357796 -1.23621e-19)
(1.00561 -0.0188725 0)
(1.06504 -0.0070464 -2.06104e-20)
(1.26016 -0.12862 -5.17652e-20)
(1.15787 0.0884327 -9.62618e-21)
(1.02235 -0.0123296 4.32931e-22)
(0.974097 -0.0839894 0)
(1.06414 -0.398355 8.31997e-20)
(1.03178 -0.00227163 0)
(-0.0628121 0.00520717 3.14491e-20)
(1.21229 0.0350245 -4.48839e-21)
(1.15407 0.0514212 0)
(0.97569 -0.0696993 1.27262e-20)
(0.897208 0.0719982 -3.28373e-20)
(-0.104689 0.0115763 3.62411e-20)
(1.03252 -0.00247114 -4.78875e-21)
(1.2385 -0.00618127 1.07855e-19)
(1.01867 -0.0400655 3.46021e-22)
(1.00927 -0.0242191 1.09021e-21)
(0.948017 0.0584281 1.93363e-21)
(0.132838 0.0389346 8.5794e-20)
(1.1241 -0.0324166 0)
(1.08481 0.0372263 2.11439e-20)
(0.990643 -0.00617986 -1.04503e-20)
(1.0943 0.0428077 0)
(0.226715 0.0569558 -5.15374e-22)
(-0.0353801 0.0163892 1.12168e-19)
(1.036 -0.00568635 1.2466e-21)
(-0.280407 0.00211819 0)
(1.01285 -0.0258678 0)
(1.01995 -0.040798 -1.27078e-21)
(1.13497 -0.00907209 2.19233e-21)
(1.07312 0.018085 0)
(1.02453 -0.0025135 2.38087e-21)
(1.01902 -0.0746219 9.11263e-23)
(-0.0486363 0.00510722 0)
(1.24435 -0.163793 -4.53395e-20)
(-0.0779528 0.00485461 0)
(1.06851 -0.0165455 -1.96808e-20)
(0.993084 -0.0139306 -1.32223e-22)
(0.39314 0.0633489 -7.90044e-21)
(0.999503 -0.00433415 0)
(1.22581 -0.0759754 0)
(1.0811 0.00780294 2.86029e-20)
(1.08625 0.0210759 -3.32533e-20)
(1.10884 -0.0167113 8.98825e-21)
(0.597322 0.0650602 0)
(-0.141705 0.00905752 0)
(1.08418 -0.0309815 -2.13657e-20)
(-0.291059 -0.00180782 0)
(1.06038 0.000874541 4.64917e-21)
(1.15971 -0.0187022 0)
(0.486332 0.0509398 1.62045e-20)
(0.16698 0.0197012 1.21497e-21)
(1.01232 -0.0408358 -1.23875e-21)
(1.0003 -0.0265052 4.81286e-21)
(0.818878 -0.160353 0)
(-0.0683375 0.00559815 0)
(1.08627 0.0657813 -4.61029e-20)
(1.09318 0.042415 0)
(1.07197 -0.564382 1.5e-20)
(1.07299 0.0188442 0)
(1.09619 0.00911757 0)
(0.0516578 -0.0472801 -8.10773e-20)
(0.607307 0.0125767 8.6368e-20)
(1.08986 -0.341526 -3.1175e-20)
(0.226273 0.0564567 0)
(1.11537 0.0729619 -9.85765e-21)
(0.537304 0.04544 -1.40477e-20)
(1.04289 -0.037957 8.49376e-23)
(1.08816 0.0762194 0)
(1.21751 0.0442908 0)
(1.00001 -0.00938756 4.16442e-21)
(-0.308215 0.00149126 -8.50292e-20)
(0.415468 0.0431349 3.91042e-20)
(1.03428 -0.124292 7.79196e-21)
(1.11353 0.020741 -2.62776e-20)
(1.00275 -0.0362569 2.98549e-22)
(0.466625 -0.847131 -7.41887e-21)
(1.14723 -0.187169 0)
(0.581389 -0.187134 1.64302e-19)
(1.01022 -0.0325438 -1.93465e-21)
(1.00077 -0.000512294 0)
(0.910836 -0.0482543 0)
(1.13988 -0.0367256 1.06747e-20)
(1.00159 -0.00763841 0)
(-0.0242814 0.0230757 -1.18146e-19)
(1.0009 -0.00060908 1.18223e-21)
(1.11698 0.0723183 0)
(0.970417 -0.0681869 4.27526e-22)
(1.08763 0.0510599 -7.56345e-21)
(0.990995 -0.0286881 -9.82339e-21)
(0.988529 -0.0030444 -1.02492e-20)
(1.09579 -0.161126 0)
(-0.278751 0.000186443 2.05916e-19)
(1.13566 -0.0164091 -6.62788e-20)
(-0.0689328 0.0182927 1.45233e-20)
(1.10376 -0.0631204 5.09753e-21)
(1.01309 -0.00970959 1.18782e-21)
(1.03102 -0.0105401 5.74578e-21)
(1.15192 -0.011476 -3.07466e-21)
(1.05598 -0.0314652 2.2366e-21)
(1.19384 -0.031518 9.3104e-20)
(1.07507 -0.0180651 -1.49125e-20)
(0.878263 -0.116888 0)
(1.08463 0.0741592 0)
(0.999382 -0.00407767 4.13761e-21)
(0.341965 0.00653426 0)
(1.00007 -0.00153024 4.04868e-21)
(1.08771 0.0552294 4.11899e-20)
(-0.274693 -0.00166785 0)
(0.447356 0.060682 0)
(0.882354 -0.0289414 2.66553e-20)
(0.791372 -0.267743 -1.39886e-19)
(1.06553 -0.282391 -4.02978e-20)
(1.22697 -0.242933 -4.19409e-20)
(0.386078 0.043617 0)
(1.03848 -0.0067425 -2.57426e-21)
(0.56683 0.0190144 2.6581e-20)
(0.94299 -0.120726 0)
(1.10568 -0.0244146 -9.38317e-21)
(-0.172205 -0.00480637 1.06898e-19)
(1.28447 0.00142333 -7.50107e-21)
(1.0284 -0.00856059 -4.07353e-21)
(1.19164 -0.0338465 -8.74845e-20)
(1.04566 -0.00943798 -4.78002e-21)
(0.503725 0.0414118 2.83787e-21)
(-0.25417 0.00332195 -4.128e-20)
(1.02516 -0.0421327 1.05114e-22)
(0.692502 -0.150403 -8.0949e-20)
(0.620095 0.0811608 5.45561e-20)
(0.999989 -0.00129603 -6.19539e-21)
(0.999985 -0.00174778 -4.61294e-21)
(1.08921 0.0493154 3.72197e-20)
(0.323623 0.00421944 4.9727e-21)
(0.972616 0.0761084 -2.27296e-20)
(0.973806 -0.0172014 3.26779e-21)
(1.18536 0.0217764 5.68806e-21)
(1.06307 -0.0170021 8.54451e-21)
(0.987427 -0.00412145 0)
(1.0834 0.0725406 4.51583e-21)
(1.18526 0.0246349 0)
(1.22027 -0.17582 3.25816e-20)
(1.02293 -0.00234479 0)
(1.09971 0.0598248 2.97717e-20)
(0.907899 -0.209558 0)
(1.08797 0.0462151 6.78473e-21)
(0.95748 -0.0199324 -3.14617e-20)
(1.00868 -0.0680751 5.44388e-22)
(1.13962 -0.187119 0)
(0.915017 -0.0493319 0)
(1.09695 0.0613155 -1.1893e-20)
(1.12513 0.0112479 3.08382e-20)
(1.12817 0.00782761 5.46497e-22)
(1.07821 -0.328909 4.49647e-20)
(1.17906 -0.65974 -5.3459e-20)
(1.21582 0.0306323 -8.50386e-22)
(0.70427 0.0846546 -1.72461e-23)
(1.07784 -0.0929216 0)
(1.09358 0.0626932 0)
(0.100346 0.0228299 2.93596e-20)
(1.02483 -0.177762 -8.80302e-21)
(0.91808 0.0589106 0)
(1.15286 0.0541399 0)
(1.03253 -0.020309 0)
(1.09505 0.00797838 -1.76912e-20)
(1.21179 0.0280959 -1.08999e-19)
(1.05885 -0.087428 -1.61005e-20)
(1.00523 -0.0175844 -8.72556e-24)
(1.00572 -0.0166395 -2.30216e-21)
(1.08884 0.0552853 1.85641e-20)
(0.255072 0.0083693 1.28533e-20)
(1.07847 0.0133844 -2.04374e-20)
(0.0677529 0.0347173 3.96265e-20)
(1.01291 -0.0100964 1.1399e-21)
(0.942172 0.0768584 4.5371e-21)
(1.00308 -0.373553 0)
(-0.223024 0.00483031 1.64251e-19)
(1.19201 -0.0392254 -4.43379e-20)
(1.08281 -0.0462301 -2.2034e-20)
(1.07235 -0.0203183 -1.42338e-20)
(-0.209614 0.0071716 -5.9994e-20)
(1.22191 -0.170411 -1.17398e-19)
(1.02527 -0.17081 8.76636e-21)
(1.10522 0.0837194 -1.00452e-20)
(1.04654 -0.0360195 0)
(1.25253 -0.438933 0)
(1.0883 0.0554718 -1.07132e-20)
(1.11916 0.0728486 -1.85213e-20)
(1.10901 -0.0434098 9.8206e-21)
(1.27313 -0.141297 0)
(0.98846 -0.01814 7.87644e-21)
(1.00008 -0.00180063 2.62732e-22)
(0.941109 -0.0217094 2.8834e-20)
(0.986805 -0.00493579 -1.76221e-21)
(0.466739 0.0506476 0)
(1.00403 -0.000778631 0)
(1.08102 0.0708696 0)
(0.357606 0.0605458 0)
(1.1955 -0.0409292 0)
(-0.0194971 0.0188209 0)
(-0.17224 0.00739929 0)
(1.12056 0.0738885 0)
(1.23585 -0.238598 9.24694e-20)
(0.885274 -0.0363124 -2.16026e-20)
(0.998606 -0.000773125 -1.0785e-20)
(0.983028 -0.0166455 7.66091e-22)
(1.02052 -0.00621518 0)
(1.03029 -0.0106185 -7.35214e-21)
(1.00106 -0.000565851 -8.38016e-22)
(1.15806 -0.0120825 0)
(1.21263 -0.0134516 -5.85306e-20)
(0.904661 -0.221173 0)
(1.1676 0.0771541 -9.01421e-20)
(1.02469 -0.0638709 3.9303e-22)
(0.268266 0.0452173 -9.06209e-21)
(0.999977 -0.000180196 -3.26466e-21)
(-0.157004 -0.0183181 -2.22154e-19)
(1.12145 -0.0915439 -8.73215e-21)
(0.999923 -0.000363113 -9.34505e-22)
(0.997029 -0.00151177 -6.36601e-21)
(0.428871 0.0610561 2.94609e-20)
(1.08464 -0.0393375 1.51159e-20)
(0.978666 0.0868218 1.26003e-20)
(0.4331 0.04157 5.12565e-21)
(1.10988 0.0203833 0)
(1.13558 0.0256894 -1.52803e-20)
(1.03127 -0.00142105 -3.96975e-21)
(0.30864 0.0638745 -4.26529e-20)
(0.986183 -0.0821631 0)
(1.0718 -0.0173118 2.72268e-20)
(1.0851 0.0738323 0)
(0.998651 -0.00125975 5.13189e-21)
(0.97435 -0.0435492 -4.38401e-21)
(1.03603 -0.0114573 0)
(1.09215 0.0339485 2.40115e-20)
(0.225903 0.0106784 2.71844e-20)
(1.09471 -0.0594178 -2.785e-20)
(1.10999 -0.0380444 -3.9003e-20)
(1.26164 -0.159835 0)
(-0.0659916 0.0146737 -1.1481e-19)
(0.887121 -0.0585786 -2.96177e-20)
(0.988475 -0.105855 0)
(0.519648 0.0495506 -8.08405e-23)
(1.02008 -0.00602259 0)
(0.50949 0.0475364 -9.93862e-21)
(1.00041 -0.00128091 -1.09168e-21)
(1.0654 -0.015394 0)
(1.22621 -0.0164035 -3.22627e-20)
(1.10864 0.0497164 6.77216e-20)
(1.12131 0.0625017 0)
(1.19279 -0.0987319 -7.73552e-20)
(1.13655 -0.0139449 9.19718e-21)
(0.999523 -0.0012639 -4.79559e-21)
(0.999988 -0.000183369 -6.87594e-21)
(1.16359 -0.0179088 0)
(1.04446 -0.0378361 -5.22547e-21)
(0.99964 -0.00104216 -8.59461e-21)
(1.07701 0.0174123 0)
(1.2528 -0.199518 -1.01131e-19)
(1.00482 -0.00563722 -1.38771e-21)
(1.21447 -0.257549 7.52583e-20)
(1.28249 -0.471773 5.81818e-20)
(1.02244 0.0851269 1.03673e-20)
(1.19129 -0.0941588 4.92826e-20)
(-0.0502414 -0.0184096 8.16731e-20)
(0.839423 -0.0930811 4.88987e-20)
(0.998475 -0.00110312 0)
(1.22299 -0.110119 2.99364e-20)
(1.01236 -0.0105688 0)
(1.08687 -0.0246524 -2.87966e-21)
(0.751806 0.0883932 -1.36102e-20)
(0.542968 0.0387765 2.17251e-20)
(0.557169 0.0190096 1.94398e-20)
(0.55871 0.0540345 0)
(1.02896 -0.0424402 0)
(1.02503 -0.0412908 -1.05482e-22)
(0.98105 -0.280522 6.59722e-22)
(1.00506 -0.0654832 -3.3085e-22)
(1.02273 -0.0189561 0)
(0.565855 -0.289984 8.44778e-20)
(1.13137 0.074455 2.29033e-20)
(0.201526 0.0166443 0)
(1.08734 0.0554383 -4.54769e-20)
(1.11 0.0503224 -4.54259e-20)
(0.985438 -0.00687566 2.26487e-21)
(1.02074 -0.0125449 0)
(1.30288 -0.332455 4.96734e-20)
(1.14459 0.0363555 6.23578e-20)
(1.06748 -0.0151825 2.34711e-20)
(0.999803 -0.000369892 -1.9228e-21)
(1.1178 0.0630893 -1.96268e-20)
(1.22992 -0.0424937 -5.22475e-22)
(0.0798998 0.0349884 0)
(0.972952 -0.0218558 0)
(1.00097 -0.00350825 2.61549e-21)
(0.207273 0.00811648 -2.12872e-20)
(0.958575 -0.0185531 2.58405e-20)
(1.10956 -0.0216088 4.90115e-21)
(1.01248 -0.00820416 0)
(0.0231232 0.0267414 0)
(1.00982 -0.000444914 1.54045e-21)
(-0.265622 -0.00418973 0)
(0.994946 -0.00624998 1.05337e-20)
(1.20294 -0.193515 6.30616e-20)
(1.11491 -5.20106e-05 -2.46127e-20)
(0.957391 -0.28456 3.43611e-21)
(1.11098 -0.0416332 5.77113e-21)
(0.993454 -0.0262689 0)
(1.07306 -0.0274717 0)
(1.00342 -0.00403573 -7.46284e-23)
(1.07888 0.0682725 -8.26875e-21)
(0.961746 -0.0276218 0)
(0.359357 0.0150039 -6.44202e-21)
(1.04871 -0.0351264 -3.61008e-21)
(1.00837 0.101824 -2.21104e-20)
(0.279517 0.0571874 0)
(1.10465 -0.0481009 -1.96501e-20)
(1.004 -0.00288774 -5.3158e-22)
(-0.189195 -0.0167085 -5.17233e-20)
(0.797357 0.0712803 -4.67773e-21)
(1.0866 -0.0308483 4.53577e-20)
(1.10689 0.0498992 -4.51607e-20)
(0.983046 -0.0156977 0)
(0.293418 0.00803285 0)
(1.03345 -0.0209742 2.82573e-21)
(1.21315 0.0252911 0)
(0.999368 -0.0102403 4.86634e-21)
(1.0037 -0.00420863 7.36089e-22)
(1.0156 0.0900235 1.8248e-20)
(1.10963 -0.0148486 0)
(1.00059 -0.0074395 0)
(1.07822 0.0255558 8.19634e-21)
(0.134687 0.0451815 0)
(0.725382 -0.799502 9.19735e-21)
(0.570177 0.0783595 -5.63685e-20)
(1.018 -0.0158516 -1.37999e-21)
(0.118443 0.0261256 -6.36218e-21)
(0.997665 -0.00911608 6.50341e-21)
(1.00461 -0.00531556 1.04431e-21)
(0.974289 -0.0247251 -8.8932e-21)
(1.0194 1.42308e-05 0)
(0.999891 -0.00242454 -3.64973e-21)
(0.512476 0.0660767 4.69096e-20)
(0.717838 0.0887772 0)
(1.04654 -0.0201511 0)
(1.00094 -0.000833133 -2.0916e-21)
(1.12545 -0.0294725 2.56136e-20)
(1.01639 -0.0230691 4.65809e-22)
(-0.15743 -0.0209825 -4.56074e-20)
(1.22696 -0.106601 -8.71048e-21)
(0.0817642 0.0182078 -4.76865e-21)
(-8.41803e-05 0.0205129 -5.45889e-20)
(1.07266 -0.0286117 0)
(1.09801 0.0613456 0)
(1.00004 -0.00992199 4.44835e-21)
(1.11741 0.00363712 -2.38544e-20)
(0.997622 -0.35574 1.9051e-21)
(1.03775 -0.00611838 1.01775e-20)
(1.00035 -0.00126065 3.09485e-22)
(1.30643 -0.310083 0)
(-0.243856 0.00381575 -4.456e-20)
(1.13321 0.0259494 0)
(-0.326904 -0.0043772 6.40904e-20)
(1.11545 0.0355538 0)
(0.995868 -0.00350956 0)
(1.12915 -0.0416229 -3.18462e-20)
(1.10601 0.0505989 4.21865e-20)
(-0.29253 0.000603436 -1.25193e-20)
(1.10222 -0.00446944 0)
(1.10249 0.0857651 -1.43567e-21)
(1.14727 0.0365542 -8.50976e-20)
(1.00023 -0.00246672 5.19607e-21)
(0.366472 -0.118557 0)
(0.265037 -0.083235 0)
(0.257581 0.0158951 1.16181e-20)
(1.24815 0.00524652 8.76048e-21)
(0.957576 0.055565 -1.29892e-20)
(0.980117 -0.072242 3.30542e-21)
(0.729584 -0.356986 5.07439e-20)
(0.972577 -0.00519109 -8.65785e-21)
(1.1616 0.097529 -6.36649e-20)
(1.05775 -0.0840789 1.46258e-20)
(1.00798 -0.00152743 7.65293e-22)
(0.520443 0.0730503 -6.78171e-20)
(1.0209 -0.0630185 -1.50054e-21)
(1.00392 -0.00265069 0)
(1.01361 -0.0408485 1.32288e-21)
(1.01945 -0.0612801 1.26281e-21)
(-0.00682158 0.0245622 0)
(1.20766 0.0327698 3.92678e-20)
(1.01229 -0.0148726 3.20804e-22)
(1.13116 -0.0389085 0)
(0.0432631 0.0141049 7.05328e-20)
(1.03875 -0.0576354 0)
(-0.342253 -0.0022484 9.41922e-20)
(0.958237 -0.0444505 0)
(1.11545 0.0458972 2.60907e-20)
(0.0980984 0.0351297 0)
(1.00138 -0.00705715 0)
(1.0821 0.0663083 2.06392e-21)
(1.06788 -0.099301 6.21022e-21)
(1.10776 -0.0491401 0)
(0.679785 -0.827997 0)
(1.02332 -0.0623337 0)
(1.2602 -0.0811796 5.68841e-20)
(1.08822 0.0474505 -1.78488e-20)
(0.178436 0.0501667 0)
(1.04708 -0.00357006 1.01826e-20)
(0.314319 0.013518 -2.0685e-21)
(1.10177 -0.0268992 -8.21132e-21)
(0.0329838 0.0239668 3.56905e-20)
(-0.280541 0.00238268 -1.82314e-19)
(0.292475 0.00932113 2.01062e-20)
(1.10735 0.0230687 0)
(0.990473 -0.0247208 0)
(1.02833 -0.0436386 0)
(0.999972 -0.00125997 0)
(1.07845 0.0363723 1.61663e-20)
(0.997043 -0.00333813 6.69957e-21)
(0.153262 0.0479498 2.96218e-20)
(1.03061 -0.116021 3.67617e-21)
(0.926408 -0.0888833 0)
(0.889985 -0.0551787 5.02996e-20)
(0.982165 -0.0708638 0)
(1.01757 -0.0152882 0)
(1.06656 0.019903 0)
(1.06477 -0.0850721 -8.38756e-21)
(1.06496 -0.00831734 0)
(1.04457 -0.0966481 2.76911e-21)
(0.31338 0.0406776 0)
(1.07768 0.0656233 0)
(1.09876 -0.0181364 -1.59459e-20)
(1.11567 -0.150415 0)
(0.550565 0.071691 3.349e-20)
(0.971653 -0.0430848 1.50955e-20)
(-0.117495 0.000937305 -3.63523e-20)
(1.01947 -0.00602326 2.8635e-21)
(1.03203 -0.140243 0)
(0.959957 -0.0263206 1.49774e-20)
(1.02384 -0.0279778 3.51178e-21)
(1.08035 -0.164703 3.61732e-20)
(1.00018 -0.0111541 2.53306e-21)