/*--------------------------------*- C++ -*----------------------------------*\
| =========                 |                                                 |
| \\      /  F ield         | OpenFOAM: The Open Source CFD Toolbox           |
|  \\    /   O peration     | Version:  v2012                                 |
|   \\  /    A nd           | Website:  www.openfoam.com                      |
|    \\/     M anipulation  |                                                 |
\*---------------------------------------------------------------------------*/
FoamFile
{
    version     2.0;
    format      ascii;
    class       volVectorField;
    location    "200";
    object      U_0;
}
// * * * * * * * * * * * * * * * * * * * * * * * * * * * * * * * * * * * * * //

dimensions      [0 1 -1 0 0 0 0];


internalField   nonuniform List<vector> 
13851
(
(1.14324 0.0582536 -8.5145e-21)
(1.07341 -0.0230488 0)
(1.07178 -0.022029 0)
(-0.187819 -0.0147542 0)
(1.00209 -0.00046148 1.39883e-22)
(1.08367 -0.0375173 -1.99714e-20)
(1.05913 0.0142717 -2.83201e-20)
(1.01327 -0.000727713 0)
(0.283471 0.0458771 -3.7964e-20)
(0.991271 -0.00817416 1.01986e-20)
(1.16424 -0.100759 0)
(1.00137 -0.00847975 1.59161e-21)
(0.981009 -0.0205245 3.67279e-21)
(0.0720704 0.0158905 3.23492e-20)
(1.10456 0.0121897 2.05236e-20)
(1.08839 0.059447 0)
(-0.302595 -0.000942291 0)
(1.03599 -0.0192059 1.05428e-22)
(1.21421 0.0338617 0)
(1.1448 0.0560685 2.37176e-20)
(1.11724 0.00624051 2.21995e-20)
(1.04041 -0.0918763 7.33144e-21)
(0.53825 -0.262516 8.44129e-20)
(1.00008 -0.000220105 0)
(1.15416 -0.018876 3.29426e-20)
(1.0898 0.0487521 -2.97636e-20)
(1.09765 0.0822022 -2.54036e-20)
(1.1304 0.0768955 4.49621e-20)
(0.442549 0.0440158 5.35436e-21)
(1.02092 -0.0120595 0)
(-0.0901237 -0.00819134 -1.43908e-19)
(1.05936 0.0135893 9.05102e-21)
(1.13368 0.0600199 -3.67211e-21)
(0.346293 0.0684518 1.30143e-21)
(1.13263 -0.0847325 -1.0207e-20)
(0.477015 0.0430098 0)
(1.00004 -0.000197374 0)
(1.19527 -0.138252 -1.25026e-20)
(0.000532157 0.017463 1.6204e-19)
(1.00714 -0.0387815 4.83573e-21)
(0.170723 0.0487162 5.59593e-20)
(0.477967 0.0481824 -5.33239e-21)
(-0.235782 -0.00300109 0)
(1.10081 -0.477587 0)
(0.488031 0.0559106 0)
(1.01506 -0.022804 3.16582e-22)
(1.0193 0.000129055 -4.23372e-21)
(1.09516 0.062608 -1.16908e-23)
(1.04713 -0.0571299 -1.20276e-20)
(0.980654 -0.0195697 0)
(-0.238643 0.00451519 -1.42843e-19)
(0.973769 -0.0139475 7.3584e-21)
(1.08901 0.0596004 0)
(1.07694 0.0253826 1.27616e-20)
(0.142343 0.013403 -4.08538e-20)
(1.00609 -0.0390872 -4.48358e-21)
(1.13568 0.0611293 0)
(0.138349 0.042631 -7.46539e-20)
(1.08777 0.0762925 0)
(-0.0548724 0.0145154 2.0172e-20)
(1.00126 -0.00802297 -4.4789e-21)
(1.09885 0.0807138 4.25533e-20)
(0.995545 -0.00318874 0)
(1.04759 -0.0593982 -8.32691e-21)
(0.877937 -0.448804 1.17458e-22)
(0.859309 -0.469052 -1.42518e-22)
(-0.0762905 0.0105965 1.33648e-20)
(0.694166 -0.125278 7.89547e-20)
(1.02114 -0.0397652 1.15168e-21)
(-0.158066 -0.0131442 1.261e-19)
(-0.155392 -0.000715409 -1.62546e-19)
(1.12767 0.0101926 4.59798e-22)
(0.994135 -0.0272469 -3.88099e-21)
(-0.0575045 0.0124874 0)
(1.08427 0.0228101 1.49331e-20)
(1.02188 -0.0744792 0)
(-0.278612 -0.00307466 -8.13739e-20)
(1.02163 -0.00606488 -2.9696e-21)
(1.21751 -0.0229325 2.94516e-20)
(1.00517 -0.018261 5.84962e-21)
(1.02239 -0.0403691 0)
(1.265 -0.0921892 -9.94032e-20)
(1.12896 -0.0864283 0)
(0.0599712 0.0162325 -5.41779e-20)
(-0.0394068 0.0151937 -9.70959e-21)
(-0.112311 -0.00482994 0)
(1.04372 -0.0930761 -8.10696e-21)
(0.263635 0.0101322 -2.91021e-23)
(0.991984 -0.0123717 3.6394e-22)
(-0.0871178 -0.00741632 0)
(0.972507 -0.0131659 3.81746e-21)
(1.06067 0.0134113 3.667e-20)
(-0.223425 -0.00245076 1.70497e-19)
(-0.144813 -0.00479729 1.58987e-19)
(-0.0452882 0.0179016 1.22871e-19)
(1.08536 -0.438152 -6.96983e-20)
(1.01013 -0.0245991 2.38705e-21)
(1.09144 0.061803 0)
(-0.185683 0.006404 7.89394e-21)
(1.21876 -0.194261 7.02047e-20)
(1.09173 0.0628675 0)
(0.811182 -0.118526 -3.33656e-20)
(0.811638 -0.151498 -1.78098e-20)
(0.990061 -0.0290692 0)
(1.01865 -0.0223789 0)
(1.13351 -0.00560419 1.67718e-20)
(1.01791 -0.0221415 1.67983e-21)
(-0.136968 -0.00238835 1.73241e-19)
(1.06082 0.0125918 -2.01827e-20)
(1.03502 -0.0186523 2.86402e-21)
(1.02837 -0.131005 1.68669e-21)
(1.01584 -0.0232011 0)
(1.21884 -0.0199737 0)
(1.16488 -0.0459569 0)
(1.11955 0.0635773 1.52277e-20)
(1.07626 0.0240739 -3.1415e-20)
(1.01459 -0.00803968 2.05559e-21)
(1.01398 -0.000851115 2.76628e-21)
(-0.20387 -0.0124556 -1.6661e-20)
(-0.12216 -0.0172156 4.164e-20)
(1.115 -0.362737 6.15265e-20)
(1.02915 -0.0157764 -7.18335e-22)
(1.01622 -0.0404825 3.64364e-23)
(0.0663043 0.0321514 8.57927e-21)
(1.19352 0.0505046 -6.34077e-23)
(0.615509 -0.206485 0)
(1.01064 -0.0242835 -2.94056e-21)
(1.13233 -0.151454 0)
(0.195174 0.0535197 5.5162e-20)
(1.11612 0.0182184 -3.71932e-21)
(1.03703 -0.0938825 -8.10158e-22)
(1.10063 -0.0654243 0)
(1.3114 -0.157497 9.99954e-20)
(0.329914 0.0663196 4.01766e-20)
(1.16863 -0.0978995 0)
(-0.0553949 0.0188998 5.19717e-20)
(0.707267 -0.117658 5.82906e-20)
(-0.126724 -0.00382332 2.23415e-20)
(0.848834 -0.0900692 2.23938e-20)
(1.11148 0.0214014 2.54094e-20)
(1.26197 -0.0954915 8.97913e-20)
(0.975473 -0.0452892 0)
(0.991289 -0.0125096 0)
(0.744692 -0.311604 -1.93414e-20)
(1.11426 0.0173788 4.3349e-21)
(1.00825 -0.0728456 0)
(1.02138 -0.00564579 7.10704e-22)
(-0.136794 -0.00561265 -8.01686e-20)
(0.293686 0.0333966 -1.35111e-20)
(1.13749 -0.153699 0)
(1.09283 0.0631337 0)
(1.2174 -0.0231049 -7.37608e-21)
(1.16899 -0.0451156 -3.58093e-20)
(1.20399 0.0341624 -6.89184e-20)
(0.972816 -0.0237946 0)
(0.983827 -0.00967207 0)
(1.00137 -0.00674316 -3.95057e-21)
(-0.0342933 0.0140554 -1.62221e-19)
(1.10951 0.017763 0)
(1.0627 0.00344626 -1.31728e-20)
(1.00015 -0.000513131 3.59642e-21)
(0.456449 0.0430856 0)
(1.13064 -0.0047308 0)
(1.09629 0.0627252 -3.39011e-20)
(0.0759988 0.014494 -3.02857e-20)
(0.377243 0.0578265 7.15756e-21)
(0.388516 0.0596808 0)
(-0.221752 0.00612034 1.95779e-19)
(1.02908 -0.126077 -8.83352e-21)
(0.68249 0.0591329 0)
(1.00096 -0.00743558 -3.00659e-21)
(1.01451 -0.00763665 1.59002e-21)
(1.14916 -0.00954867 0)
(1.00111 -0.000433243 0)
(-0.0180846 0.0224615 -1.12392e-19)
(1.11752 0.0875609 -4.60353e-20)
(1.09944 0.0677548 -7.43812e-21)
(1.01509 -0.00758 0)
(1.08236 0.0242848 0)
(1.09883 0.0664782 0)
(1.18929 0.0504144 -1.82772e-20)
(1.1075 -0.459145 3.06519e-20)
(1.03458 -0.118988 -3.70407e-21)
(1.11401 0.0184077 0)
(-0.244423 -0.0036783 -5.30479e-20)
(0.302677 0.0338196 3.46454e-22)
(1.13202 0.0617694 -1.69214e-20)
(0.889837 -0.0676145 -1.50565e-20)
(0.977284 -0.0245445 7.58891e-21)
(1.01935 -0.0165421 -1.17285e-21)
(1.21072 0.012147 6.40948e-20)
(1.11035 0.0165778 0)
(0.0525123 0.00965179 -1.68938e-20)
(1.08511 -0.0353501 2.06168e-20)
(1.01005 -0.0707266 2.02635e-21)
(1.09012 0.0606763 0)
(1.13002 0.0606391 0)
(1.04639 -0.0102448 -4.73743e-21)
(1.04208 -0.0275732 -7.70597e-21)
(0.710274 -0.160776 0)
(1.26198 -0.106557 4.56457e-20)
(0.0112954 0.0262445 -4.4999e-20)
(0.121496 0.0435477 0)
(1.10289 0.0130268 -3.864e-20)
(0.945148 -0.716225 -5.78973e-20)
(-0.0201444 0.0245615 0)
(0.937808 -0.022116 0)
(1.10336 0.0280972 -2.80874e-20)
(0.275225 0.0476746 -1.81844e-20)
(1.07799 -0.0453989 0)
(1.0877 0.0586194 -3.68516e-22)
(1.01555 -0.0396558 -3.7386e-22)
(1.26515 -0.102863 -1.36659e-20)
(1.00013 -0.00225326 -2.56413e-22)
(1.13628 -0.0774457 -2.39636e-21)
(1.02564 -0.082275 3.31405e-21)
(0.98192 -0.0184385 -5.73441e-21)
(1.15737 0.0710772 0)
(1.04596 -0.0190965 -8.4326e-21)
(0.152882 -0.540399 -1.0459e-19)
(1.0151 -0.0071629 -1.31606e-21)
(1.1496 0.0540874 0)
(0.040312 0.0124052 5.48419e-20)
(-0.039502 0.0195076 6.97653e-20)
(0.901856 -0.0769888 0)
(1.10305 0.0290789 2.22681e-20)
(1.00003 -0.00112628 0)
(0.747621 -0.290211 1.89314e-20)
(1.00177 -0.0134404 0)
(1.13292 -0.0787742 0)
(-0.0379237 -0.0354309 -4.09812e-20)
(0.895513 -0.0682643 -2.51139e-20)
(1.07779 -0.0432296 0)
(0.9963 -0.00124794 8.31472e-22)
(0.107408 0.0426542 2.48947e-22)
(1.0216 -0.01186 3.29994e-21)
(0.896354 -0.427734 0)
(0.10148 0.0391173 -7.18479e-20)
(1.21103 -0.189391 0)
(1.0001 -0.000490225 -4.17388e-21)
(1.2982 -0.327696 0)
(-0.027241 0.0152102 -7.39682e-20)
(0.518645 0.0587744 0)
(1.08817 0.0587273 0)
(1.10783 -0.0122207 0)
(0.708474 -0.343493 -4.68767e-20)
(1.15711 0.0681328 2.94194e-20)
(1.08191 0.0254853 0)
(1.08797 -0.420117 0)
(1.04771 -0.132866 8.83339e-21)
(0.196422 0.0100193 0)
(1.17539 0.0333671 -8.49469e-20)
(1.01037 -0.000788782 -7.79083e-24)
(1.08348 -0.0135808 0)
(1.0905 0.0616998 -1.62535e-21)
(0.445692 0.0405955 0)
(0.339187 0.0115575 7.50557e-21)
(1.01886 -0.0158347 1.42483e-21)
(0.59129 -0.202075 0)
(0.992859 -0.0131973 1.89928e-20)
(1.13338 0.0729156 -6.41559e-20)
(1.19651 0.0441564 -3.53396e-21)
(1.08533 -0.0129525 0)
(1.13084 -0.00128468 -7.5158e-20)
(1.17893 0.0330565 8.73669e-20)
(0.999882 -0.0253215 -1.19641e-20)
(0.806433 -0.128299 3.90437e-20)
(1.09846 0.0598098 0)
(1.17708 0.0859872 -1.76308e-20)
(0.997888 -0.00863234 0)
(0.981808 -0.0174455 -7.27043e-22)
(0.896313 -0.0754677 1.68154e-20)
(0.368866 0.0632365 0)
(-0.254699 -0.0061581 0)
(1.12067 0.0113211 3.36683e-20)
(1.0302 -0.0162804 3.72971e-21)
(1.18873 0.0546392 4.22288e-21)
(1.20027 0.0392321 1.00928e-19)
(1.1229 0.0587824 -4.12963e-20)
(1.12873 -0.000479706 6.21859e-20)
(0.337491 0.0585586 0)
(-0.155994 0.00733094 -2.94857e-20)
(1.08889 -0.0213134 0)
(1.0992 0.00966668 -6.24975e-20)
(1.13762 -0.162207 0)
(1.0207 -0.0214622 1.51533e-21)
(1.0015 -0.0063845 -2.00764e-21)
(1.12499 0.0597014 -9.19285e-21)
(1.14936 -0.116116 4.70088e-20)
(1.02297 -0.0120452 7.85212e-21)
(1.00014 -0.00221222 -3.88325e-21)
(1.00155 -0.0138407 0)
(1.00429 -0.000637894 -7.72155e-24)
(1.10442 -0.00333115 -9.25543e-20)
(1.00155 -0.00680563 5.91659e-21)
(0.294383 0.0484933 1.90256e-20)
(1.11914 0.00762273 0)
(1.01207 -0.0327314 -1.0701e-21)
(0.453009 0.0390444 0)
(0.0548016 0.0298325 0)
(0.975003 -0.0192612 0)
(1.1482 0.0565599 -1.93045e-20)
(-0.214455 0.0049744 1.74313e-20)
(0.97436 -0.0476558 0)
(0.973609 -0.0185957 0)
(1.12166 0.00724382 0)
(0.02815 0.0126532 -4.13813e-21)
(0.223649 -0.00564138 -6.81351e-20)
(1.15034 0.00335872 5.00816e-20)
(1.00231 -0.000604038 -5.5062e-22)
(0.719053 0.0616815 0)
(1.00107 -0.00788046 0)
(1.15654 0.00286726 5.02199e-20)
(-0.197245 0.00683086 0)
(1.17968 0.0897426 8.98356e-20)
(1.06146 0.00303518 9.76977e-21)
(1.24243 -0.196565 -1.53956e-21)
(1.32533 -0.170499 0)
(-0.107239 2.46865e-06 -1.32834e-19)
(1.21923 -0.0310769 0)
(0.781139 -0.0971765 -3.96708e-20)
(-0.012284 0.020507 5.78487e-22)
(0.106675 0.0406752 3.92711e-22)
(1.15305 0.0738883 -4.84171e-20)
(1.04345 -0.0283584 8.25786e-21)
(-0.254398 -0.0024936 -9.44492e-20)
(0.152927 0.00306666 -4.76308e-23)
(0.461473 -0.454695 -1.16729e-19)
(0.496714 -0.460763 9.9328e-20)
(0.936233 -0.0233064 1.02395e-20)
(1.15305 -0.00477245 -6.01153e-20)
(0.9484 -0.118558 0)
(0.272278 0.0109655 2.89937e-20)
(0.786348 -0.144183 3.78592e-20)
(1.00816 -0.00192185 -9.78126e-22)
(1.01941 8.19838e-05 4.50869e-21)
(1.0715 -0.081446 -2.0395e-20)
(-0.133894 -0.00302221 1.81954e-19)
(0.206613 -0.547283 9.77576e-20)
(1.02069 -0.0206491 -3.43418e-21)
(-0.0546405 0.0182075 -1.26985e-19)
(0.937542 -0.115925 -1.5641e-20)
(1.10143 -0.068444 -9.91563e-21)
(1.06293 0.00435878 1.43103e-20)
(0.0194888 0.00962905 -2.54156e-21)
(1.18505 0.0550118 0)
(1.08926 0.0605025 0)
(1.0233 -0.0800064 9.40617e-22)
(1.07515 -0.0423958 2.46388e-20)
(0.522522 0.038627 0)
(0.977154 -0.0261554 -2.37155e-20)
(1.20412 0.0377182 -3.56861e-20)
(1.08737 -0.0200716 0)
(1.12302 0.00585368 0)
(0.931694 -0.118239 0)
(0.992205 -0.0132159 -1.29852e-20)
(1.01285 -0.0322936 1.03844e-21)
(1.22823 -0.0892869 0)
(1.2267 -0.189959 2.49852e-21)
(1.17184 0.0377443 -9.11377e-20)
(1.35515 -0.172161 4.57032e-22)
(0.531929 0.0403713 5.21519e-21)
(1.00952 -0.0743003 0)
(0.0849485 0.0389455 3.86621e-20)
(1.13905 0.078398 -1.71705e-20)
(1.02793 -0.00808435 -3.50126e-22)
(1.15958 0.0928224 -7.57352e-20)
(1.14193 0.0396995 1.54561e-20)
(-0.170845 0.0082717 -5.70026e-20)
(1.06945 -0.0789209 0)
(1.08622 0.0513559 0)
(1.08474 0.0750167 0)
(1.26145 -0.0968304 8.58247e-20)
(1.22448 -0.0991991 1.14313e-22)
(0.261187 0.0113838 3.97049e-21)
(1.0472 -0.0392817 -7.13188e-21)
(1.12014 0.089461 5.57463e-20)
(-0.331551 -0.00251674 0)
(1.10303 -0.0243976 4.24205e-20)
(0.216768 0.0143566 4.37136e-20)
(1.11026 -0.0264151 -2.01309e-20)
(0.128418 0.0388809 -7.01896e-20)
(1.0983 0.00853551 3.77929e-20)
(1.07916 0.0374902 1.81094e-20)
(1.18158 0.0268959 0)
(1.2494 -0.16697 0)
(0.983905 -0.0105963 0)
(1.08623 -0.0266658 1.28728e-20)
(1.15363 -0.119039 4.1103e-21)
(1.0839 0.0240645 0)
(1.01335 -0.0250273 0)
(1.12043 0.0133431 -3.5515e-20)
(0.613755 0.0889333 1.36556e-21)
(0.994929 -0.0271728 -9.3018e-21)
(1.10491 0.0269963 0)
(-0.215186 -0.0125724 2.04698e-19)
(1.06811 -0.0398384 -1.25554e-20)
(1.25798 -0.482951 -7.55323e-20)
(1.08939 0.0358645 -2.77653e-21)
(0.283484 -0.00738585 0)
(1.08052 -0.0468625 2.11004e-20)
(1.0894 0.0477912 0)
(0.920189 -0.689118 6.88494e-20)
(1.19669 0.0466572 1.54004e-20)
(1.13403 -0.0111098 1.62087e-20)
(0.320316 0.00884582 2.87038e-23)
(-0.0477324 0.0115677 9.13558e-20)
(1.26418 -0.321933 0)
(0.999106 -0.0253985 -4.96488e-21)
(1.22472 -0.0858547 0)
(1.1118 -0.0333081 -4.49801e-20)
(1.08685 0.0506467 0)
(1.02773 -0.0175004 -9.1688e-21)
(-0.238447 -0.00162445 5.67213e-22)
(0.559956 0.083071 -2.69061e-20)
(1.21611 -0.0617584 -1.58728e-19)
(1.07472 -0.0403525 -2.34951e-20)
(1.18168 0.0293266 0)
(1.10416 0.0821932 -5.16187e-20)
(-0.240205 -0.00864069 0)
(1.02432 -0.00283075 4.43568e-21)
(-0.289063 -0.000473836 -1.06367e-19)
(1.25801 -0.153281 1.15519e-20)
(0.28977 -0.178785 1.39591e-21)
(1.05209 -0.135687 -1.11381e-20)
(1.13247 0.0487476 -9.4453e-20)
(0.987726 -0.0177343 1.18376e-20)
(1.00129 -0.000371565 -7.47777e-22)
(0.13337 0.0106641 4.83593e-20)
(1.10711 0.0833827 4.36837e-20)
(0.990596 -0.00875985 -5.88254e-21)
(1.07329 -0.0245995 5.39666e-21)
(1.10673 0.0271634 -7.61988e-21)
(1.01287 -0.0086797 1.25725e-21)
(0.633245 0.0868315 0)
(1.15318 -0.00195435 1.29546e-20)
(1.14236 0.0380834 0)
(1.07749 0.00154038 9.32252e-21)
(1.04788 -0.0380922 0)
(0.97216 -0.00795876 0)
(1.30451 -0.108816 0)
(1.0109 -0.0320145 0)
(0.973207 -0.00690762 0)
(0.879216 0.0695217 8.08556e-21)
(0.647561 0.088179 0)
(1.03383 -0.0913799 0)
(1.09112 0.0743186 1.72389e-20)
(0.995737 -0.00266461 -9.24938e-22)
(1.00166 -0.00644119 -1.88672e-21)
(1.07046 -0.0407498 3.75857e-20)
(1.17475 0.0375501 9.71893e-20)
(1.08598 0.0374128 -2.51535e-20)
(1.01324 -0.0264965 0)
(1.05712 -0.0304482 1.37548e-20)
(1.11658 -0.351618 3.15483e-20)
(1.06487 -0.0170153 -1.76631e-20)
(0.326159 -0.0123727 0)
(1.00154 -0.00792896 -2.16141e-21)
(1.07697 0.0134905 1.94643e-20)
(0.493384 0.0578735 1.09734e-20)
(0.939575 -0.161979 0)
(1.01879 -0.000575274 -1.10499e-21)
(1.00052 -0.00695384 -3.48665e-21)
(1.07715 0.000501448 -4.75464e-21)
(1.04928 -0.00905505 0)
(1.24505 -0.373556 3.56408e-20)
(0.798252 0.0671393 -9.04456e-21)
(1.10884 -0.0105653 5.05454e-21)
(0.321285 -1.13133 0)
(1.07215 -0.0392886 -1.96978e-20)
(1.00037 -0.0107777 -4.16616e-21)
(0.236574 0.0544558 -2.55159e-20)
(1.08689 0.0756965 1.74508e-20)
(0.878365 -0.124637 0)
(0.99615 -0.0310426 0)
(0.0949649 0.0380704 3.87894e-20)
(0.8583 -0.0954533 4.17361e-20)
(1.18353 -0.646229 -1.63647e-20)
(0.989414 -0.0282258 -9.50747e-21)
(1.10339 -0.0599944 0)
(1.22849 -0.0962728 0)
(1.09062 0.0219687 0)
(0.140667 0.0462587 2.42224e-20)
(1.10306 0.0824121 4.8154e-20)
(1.276 -0.0742126 1.51048e-19)
(0.977162 -0.0714357 0)
(1.22071 -0.0275722 5.9612e-22)
(1.00104 -0.0265891 3.82134e-21)
(0.432283 0.0418844 0)
(1.08997 0.0351419 9.99288e-21)
(1.1283 0.0610997 0)
(1.11018 -0.0313284 3.62783e-20)
(1.02381 -0.0767891 1.92082e-21)
(0.946127 -0.159454 0)
(1.14965 -0.00607133 1.20148e-20)
(1.00186 -0.000555263 0)
(-0.27276 -0.00419556 0)
(0.206145 0.0503461 0)
(0.366926 -0.0166002 5.56705e-20)
(-0.184444 -0.00271057 -1.51135e-20)
(0.818581 0.0692003 7.9125e-21)
(-0.229193 0.00412032 -3.65617e-20)
(1.20057 0.0423414 -7.52127e-20)
(0.913192 -0.0805755 0)
(0.999696 -0.0031323 -7.65731e-21)
(1.23121 -0.482351 -4.57564e-20)
(0.991293 -0.00745041 -7.91854e-21)
(1.01301 -0.0243523 9.57355e-23)
(0.907237 -0.0973626 1.39216e-20)
(0.00480274 0.0252543 6.89155e-20)
(1.07067 -0.016031 -2.59326e-20)
(0.970972 -0.0405992 -8.25884e-23)
(1.0768 -0.282995 -7.33324e-22)
(1.14126 -0.0339833 0)
(0.989247 -0.00290192 8.91328e-22)
(0.658938 0.0212444 6.17635e-20)
(1.00879 -0.0236566 -2.19735e-21)
(0.242393 0.0585749 -2.60607e-20)
(1.23519 -0.357823 -1.23647e-19)
(1.00561 -0.0188728 0)
(1.06504 -0.007046 -2.06404e-20)
(1.26015 -0.128748 -5.17741e-20)
(1.158 0.0888188 -9.62901e-21)
(1.02235 -0.0123304 4.34863e-22)
(0.973858 -0.0842259 0)
(1.06406 -0.398361 8.31926e-20)
(1.03178 -0.00227141 0)
(-0.0628435 0.00514222 3.14586e-20)
(1.21244 0.0350419 -4.49199e-21)
(1.15401 0.051473 0)
(0.975689 -0.0696968 1.27149e-20)
(0.897078 0.0717538 -3.29029e-20)
(-0.104715 0.0116094 3.62592e-20)
(1.03252 -0.00247091 -4.80281e-21)
(1.23846 -0.00618063 1.079e-19)
(1.01867 -0.0400645 3.58156e-22)
(1.00927 -0.0242178 1.08172e-21)
(0.947777 0.0581768 1.94079e-21)
(0.132705 0.0390313 8.58847e-20)
(1.1241 -0.0324128 0)
(1.0848 0.0372153 2.1174e-20)
(0.990643 -0.00617953 -1.0442e-20)
(1.0943 0.0427884 0)
(0.226847 0.0570261 -5.15902e-22)
(-0.0353887 0.0163838 1.12203e-19)
(1.03599 -0.00568578 1.24986e-21)
(-0.280377 0.00209347 0)
(1.01285 -0.0258662 0)
(1.01995 -0.0407971 -1.28595e-21)
(1.13497 -0.0090626 2.1939e-21)
(1.07312 0.0180803 0)
(1.02453 -0.00251316 2.39e-21)
(1.01902 -0.074622 9.90132e-23)
(-0.0486882 0.00505979 0)
(1.24428 -0.163843 -4.53446e-20)
(-0.0779915 0.0047994 0)
(1.06851 -0.0165447 -1.97073e-20)
(0.993084 -0.0139312 -1.32323e-22)
(0.393192 0.0633753 -7.90596e-21)
(0.999503 -0.00433364 0)
(1.22585 -0.0759889 0)
(1.0811 0.00780132 2.86381e-20)
(1.08624 0.0210707 -3.32944e-20)
(1.10883 -0.0167077 8.99606e-21)
(0.597366 0.0649232 0)
(-0.141831 0.00907963 0)
(1.08418 -0.0309807 -2.13878e-20)
(-0.290955 -0.00178422 0)
(1.06038 0.00087391 4.65642e-21)
(1.15971 -0.0186918 0)
(0.48643 0.0507972 1.62381e-20)
(0.167203 0.0197057 1.21587e-21)
(1.01232 -0.040834 -1.22437e-21)
(1.0003 -0.0265047 4.80216e-21)
(0.818877 -0.16035 0)
(-0.0683891 0.00556014 0)
(1.08628 0.0656124 -4.61992e-20)
(1.09318 0.0423964 0)
(1.07184 -0.564326 1.5e-20)
(1.07299 0.0188393 0)
(1.09618 0.00911719 0)
(0.0516676 -0.0474144 -8.10858e-20)
(0.607145 0.012729 8.64155e-20)
(1.08986 -0.341523 -3.11869e-20)
(0.226409 0.056502 0)
(1.11532 0.072907 -9.8658e-21)
(0.537267 0.0452654 -1.40998e-20)
(1.04289 -0.0379586 8.5025e-23)
(1.08803 0.076078 0)
(1.2175 0.0441844 0)
(1.00001 -0.00938583 4.1551e-21)
(-0.30827 0.00149211 -8.50618e-20)
(0.41555 0.0429948 3.9118e-20)
(1.03428 -0.124293 7.81311e-21)
(1.11352 0.0207418 -2.63022e-20)
(1.00275 -0.0362547 2.98659e-22)
(0.466678 -0.847112 -7.41523e-21)
(1.14721 -0.187171 0)
(0.581302 -0.187212 1.64294e-19)
(1.01022 -0.0325419 -1.9217e-21)
(1.00077 -0.000512268 0)
(0.910835 -0.0482512 0)
(1.13989 -0.0367213 1.06814e-20)
(1.00159 -0.00763708 0)
(-0.0243274 0.0230084 -1.18202e-19)
(1.0009 -0.000609009 1.17142e-21)
(1.11693 0.0722645 0)
(0.970416 -0.0681842 4.27215e-22)
(1.08765 0.0510389 -7.57658e-21)
(0.990994 -0.0286871 -9.81125e-21)
(0.988529 -0.00304452 -1.02426e-20)
(1.09578 -0.161128 0)
(-0.278727 0.000162076 2.05962e-19)
(1.13566 -0.0164011 -6.63254e-20)
(-0.0689549 0.0182581 1.45287e-20)
(1.10376 -0.0631215 5.1014e-21)
(1.01309 -0.00970891 1.20143e-21)
(1.03102 -0.0105403 5.76338e-21)
(1.15192 -0.0114636 -3.07666e-21)
(1.05598 -0.0314661 2.24009e-21)
(1.19386 -0.031511 9.31524e-20)
(1.07506 -0.0180642 -1.49304e-20)
(0.878262 -0.116886 0)
(1.08452 0.0740004 0)
(0.999382 -0.00407719 4.13104e-21)
(0.341794 0.00651313 0)
(1.00007 -0.00153082 4.03558e-21)
(1.08774 0.0551985 4.12745e-20)
(-0.274601 -0.00163748 0)
(0.447462 0.0606804 0)
(0.882354 -0.0289383 2.66507e-20)
(0.791266 -0.267805 -1.39877e-19)
(1.06553 -0.282388 -4.03215e-20)
(1.22694 -0.242892 -4.19477e-20)
(0.386146 0.0434725 0)
(1.03848 -0.00674194 -2.58126e-21)
(0.5667 0.019152 2.65889e-20)
(0.942988 -0.120724 0)
(1.10568 -0.0244117 -9.39135e-21)
(-0.172177 -0.00476756 1.06903e-19)
(1.2844 0.00146682 -7.50513e-21)
(1.0284 -0.00856066 -4.08692e-21)
(1.19165 -0.0338403 -8.753e-20)
(1.04566 -0.00943741 -4.78986e-21)
(0.503693 0.0412541 2.84837e-21)
(-0.254232 0.00331582 -4.12956e-20)
(1.02516 -0.0421327 1.05739e-22)
(0.692502 -0.150401 -8.09414e-20)
(0.620249 0.0814359 5.45702e-20)
(0.999989 -0.00129673 -6.18218e-21)
(0.999985 -0.00174856 -4.60344e-21)
(1.08922 0.0492925 3.72793e-20)
(0.323457 0.00420318 4.9981e-21)
(0.972523 0.075868 -2.27652e-20)
(0.973806 -0.0172 3.2659e-21)
(1.1854 0.0218179 5.69186e-21)
(1.06306 -0.0170015 8.55688e-21)
(0.987427 -0.00412192 0)
(1.08331 0.0723444 4.52381e-21)
(1.1853 0.0246838 0)
(1.22022 -0.175838 3.25872e-20)
(1.02293 -0.00234445 0)
(1.09969 0.0597708 2.98106e-20)
(0.907897 -0.209556 0)
(1.08797 0.0461978 6.79503e-21)
(0.95748 -0.0199292 -3.1449e-20)
(1.00868 -0.0680741 5.44529e-22)
(1.1396 -0.18712 0)
(0.915017 -0.0493289 0)
(1.09694 0.0612513 -1.19103e-20)
(1.12512 0.0112562 3.0863e-20)
(1.12817 0.00783717 5.46506e-22)
(1.07821 -0.328905 4.49824e-20)
(1.17901 -0.659697 -5.34929e-20)
(1.21596 0.0306054 -8.51578e-22)
(0.704291 0.0846235 -1.71969e-23)
(1.07751 -0.0931984 0)
(1.09357 0.0626123 0)
(0.100528 0.0228358 2.93668e-20)
(1.02483 -0.177761 -8.8245e-21)
(0.917837 0.0586512 0)
(1.15279 0.0541887 0)
(1.03253 -0.0203103 0)
(1.09505 0.00797798 -1.77099e-20)
(1.2119 0.0280854 -1.09085e-19)
(1.05885 -0.0874301 -1.61207e-20)
(1.00523 -0.017585 -9.6211e-24)
(1.00572 -0.0166401 -2.28876e-21)
(1.08887 0.0552473 1.85997e-20)
(0.255186 0.00834227 1.28873e-20)
(1.07847 0.0133813 -2.04643e-20)
(0.0676281 0.0348125 3.9662e-20)
(1.01291 -0.0100957 1.15337e-21)
(0.942076 0.0766462 4.54561e-21)
(1.00308 -0.373548 0)
(-0.223174 0.00482262 1.64358e-19)
(1.19203 -0.0392205 -4.43605e-20)
(1.08281 -0.0462304 -2.20565e-20)
(1.07235 -0.0203176 -1.42514e-20)
(-0.20976 0.00715878 -6.00354e-20)
(1.22186 -0.170436 -1.1742e-19)
(1.02527 -0.17081 8.79197e-21)
(1.10521 0.0836653 -1.00538e-20)
(1.04654 -0.0360211 0)
(1.25245 -0.438984 0)
(1.08833 0.0554343 -1.07347e-20)
(1.11911 0.0727943 -1.85355e-20)
(1.10901 -0.0434085 9.82808e-21)
(1.27305 -0.141463 0)
(0.98846 -0.0181406 7.86877e-21)
(1.00008 -0.00180127 2.61935e-22)
(0.941109 -0.0217056 2.88249e-20)
(0.986805 -0.00493641 -1.76104e-21)
(0.46686 0.0505261 0)
(1.00403 -0.000778633 0)
(1.08095 0.0706736 0)
(0.357676 0.0605675 0)
(1.19551 -0.0409242 0)
(-0.0195008 0.0188065 0)
(-0.172405 0.00740593 0)
(1.1205 0.0738313 0)
(1.23582 -0.23855 9.24861e-20)
(0.885274 -0.0363093 -2.15985e-20)
(0.998606 -0.000772746 -1.07757e-20)
(0.983028 -0.0166457 7.65534e-22)
(1.02052 -0.00621566 0)
(1.03029 -0.0106188 -7.37461e-21)
(1.00106 -0.000565765 -8.30289e-22)
(1.15807 -0.0120697 0)
(1.21264 -0.0134488 -5.85606e-20)
(0.904659 -0.22117 0)
(1.16771 0.077574 -9.02088e-20)
(1.02469 -0.0638712 3.96011e-22)
(0.268406 0.0452401 -9.06808e-21)
(0.999977 -0.000180427 -3.26052e-21)
(-0.156998 -0.0183841 -2.22178e-19)
(1.12145 -0.091548 -8.73731e-21)
(0.999923 -0.000363589 -9.33336e-22)
(0.997029 -0.00150946 -6.36048e-21)
(0.428974 0.0610692 2.9486e-20)
(1.08464 -0.0393372 1.51314e-20)
(0.978627 0.0868558 1.26124e-20)
(0.433165 0.0414086 5.12823e-21)
(1.10987 0.0203829 0)
(1.13555 0.0257045 -1.52918e-20)
(1.03127 -0.00142107 -3.98214e-21)
(0.308805 0.0639065 -4.26476e-20)
(0.986182 -0.0821614 0)
(1.0718 -0.017311 2.72617e-20)
(1.08499 0.0736573 0)
(0.998651 -0.00125914 5.12705e-21)
(0.974349 -0.0435461 -4.38088e-21)
(1.03603 -0.0114572 0)
(1.09215 0.0339373 2.40418e-20)
(0.226084 0.0106586 2.72344e-20)
(1.09471 -0.0594185 -2.7874e-20)
(1.10999 -0.0380424 -3.90338e-20)
(1.26154 -0.159916 0)
(-0.0660059 0.0146699 -1.14846e-19)
(0.887121 -0.0585757 -2.96114e-20)
(0.988473 -0.105854 0)
(0.519689 0.0493769 -7.92015e-23)
(1.02008 -0.00602309 0)
(0.509519 0.047367 -9.9672e-21)
(1.00041 -0.00128101 -1.08402e-21)
(1.06539 -0.0153933 0)
(1.22626 -0.0161808 -3.22755e-20)
(1.10861 0.0496905 6.77931e-20)
(1.12125 0.0624697 0)
(1.1928 -0.0987509 -7.73848e-20)
(1.13655 -0.0139361 9.20359e-21)
(0.999523 -0.00126475 -4.79037e-21)
(0.999988 -0.000183572 -6.86695e-21)
(1.1636 -0.017898 0)
(1.04446 -0.0378377 -5.23639e-21)
(0.99964 -0.00104317 -8.58541e-21)
(1.07701 0.0174079 0)
(1.25271 -0.199504 -1.01138e-19)
(1.00482 -0.00563747 -1.36457e-21)
(1.21445 -0.257512 7.52746e-20)
(1.28243 -0.471808 5.81838e-20)
(1.0224 0.0851205 1.03774e-20)
(1.1913 -0.0941755 4.93016e-20)
(-0.050273 -0.0182666 8.16876e-20)
(0.839422 -0.0930786 4.88903e-20)
(0.998475 -0.00110248 0)
(1.223 -0.110164 2.99452e-20)
(1.01236 -0.010568 0)
(1.08687 -0.0246511 -2.88264e-21)
(0.751826 0.0883588 -1.36234e-20)
(0.542849 0.0386437 2.18253e-20)
(0.557028 0.0191538 1.94498e-20)
(0.558737 0.053846 0)
(1.02896 -0.0424408 0)
(1.02503 -0.0412908 -1.06109e-22)
(0.981046 -0.280518 6.45956e-22)
(1.00506 -0.0654818 -3.27922e-22)
(1.02273 -0.0189565 0)
(0.565973 -0.289977 8.44736e-20)
(1.13127 0.0744066 2.29151e-20)
(0.201754 0.0166357 0)
(1.08738 0.0554082 -4.55707e-20)
(1.10997 0.0502967 -4.54737e-20)
(0.985437 -0.00687641 2.26341e-21)
(1.02074 -0.0125455 0)
(1.30303 -0.332415 4.96951e-20)
(1.14456 0.0363831 6.2401e-20)
(1.06748 -0.0151818 2.35026e-20)
(0.999803 -0.000370936 -1.92098e-21)
(1.11775 0.0630527 -1.96434e-20)
(1.22994 -0.0424703 -5.2256e-22)
(0.0797679 0.0350795 0)
(0.972951 -0.0218538 0)
(1.00097 -0.00350775 2.60084e-21)
(0.207457 0.0081011 -2.13252e-20)
(0.958574 -0.0185501 2.583e-20)
(1.10956 -0.0216054 4.90532e-21)
(1.01248 -0.00820358 0)
(0.0230712 0.0266596 0)
(1.00982 -0.000444875 1.5596e-21)
(-0.265512 -0.00416069 0)
(0.994946 -0.00624805 1.05231e-20)
(1.20291 -0.193516 6.30749e-20)
(1.1149 -4.70487e-05 -2.46336e-20)
(0.957387 -0.284557 3.43138e-21)
(1.11098 -0.0416315 5.77557e-21)
(0.993454 -0.0262685 0)
(1.07306 -0.0274713 0)
(1.00342 -0.00403555 -7.46924e-23)
(1.07885 0.0680591 -8.28505e-21)
(0.961745 -0.0276188 0)
(0.359267 0.0149535 -6.47148e-21)
(1.04871 -0.0351278 -3.61706e-21)
(1.0085 0.101669 -2.21091e-20)
(0.279639 0.0571911 0)
(1.10465 -0.0481003 -1.9666e-20)
(1.004 -0.00288777 -5.20304e-22)
(-0.189121 -0.0167254 -5.17242e-20)
(0.797234 0.0710691 -4.68631e-21)
(1.0866 -0.0308472 4.54039e-20)
(1.10687 0.0498716 -4.52109e-20)
(0.983046 -0.015698 0)
(0.293382 0.00800787 0)
(1.03345 -0.0209756 2.83369e-21)
(1.21325 0.0252671 0)
(0.999368 -0.0102387 4.8567e-21)
(1.0037 -0.00420854 7.25509e-22)
(1.01555 0.0900569 1.82668e-20)
(1.10963 -0.0148448 0)
(1.00059 -0.00743781 0)
(1.07821 0.025549 8.20776e-21)
(0.13471 0.0453055 0)
(0.725387 -0.79948 9.19531e-21)
(0.570311 0.0786288 -5.63829e-20)
(1.018 -0.0158512 -1.38969e-21)
(0.118621 0.0261332 -6.36408e-21)
(0.997664 -0.00911418 6.4938e-21)
(1.00461 -0.00531577 1.02685e-21)
(0.974289 -0.0247235 -8.88776e-21)
(1.0194 1.41696e-05 0)
(0.999892 -0.00242533 -3.64291e-21)
(0.512441 0.0663102 4.69538e-20)
(0.71794 0.0886848 0)
(1.04654 -0.0201515 0)
(1.00094 -0.000833048 -2.07309e-21)
(1.12545 -0.0294681 2.56324e-20)
(1.01639 -0.0230678 4.73457e-22)
(-0.157342 -0.0210102 -4.56075e-20)
(1.22699 -0.106647 -8.71316e-21)
(0.0819533 0.0182119 -4.76993e-21)
(-8.40977e-05 0.0204876 -5.46051e-20)
(1.07265 -0.0286114 0)
(1.09799 0.0612846 0)
(1.00004 -0.00992044 4.43874e-21)
(1.11741 0.00364263 -2.38744e-20)
(0.997616 -0.355735 1.90812e-21)
(1.03775 -0.00611778 1.02027e-20)
(1.00035 -0.00126079 3.0741e-22)
(1.3065 -0.309984 0)
(-0.243919 0.00380662 -4.45775e-20)
(1.13319 0.0259624 0)
(-0.326796 -0.00438485 6.40915e-20)
(1.11543 0.035548 0)
(0.995868 -0.00350695 0)
(1.12915 -0.0416202 -3.18676e-20)
(1.10599 0.0505696 4.22333e-20)
(-0.292552 0.000592982 -1.25234e-20)
(1.10222 -0.00446683 0)
(1.10237 0.0857727 -1.43707e-21)
(1.14724 0.0365848 -8.51563e-20)
(1.00023 -0.00246718 5.17861e-21)
(0.36637 -0.118685 0)
(0.264963 -0.0833718 0)
(0.257754 0.0158624 1.16403e-20)
(1.24817 0.00530491 8.76295e-21)
(0.95733 0.0553489 -1.30435e-20)
(0.980116 -0.0722397 3.30198e-21)
(0.729584 -0.356981 5.07361e-20)
(0.972577 -0.00519032 -8.65407e-21)
(1.16129 0.0974333 -6.36672e-20)
(1.05775 -0.0840809 1.46452e-20)
(1.00798 -0.00152739 7.82995e-22)
(0.520506 0.0733137 -6.78586e-20)
(1.02089 -0.0630184 -1.52806e-21)
(1.00392 -0.0026507 0)
(1.01361 -0.0408468 1.30753e-21)
(1.01945 -0.0612799 1.29428e-21)
(-0.00688634 0.0244904 0)
(1.20779 0.032798 3.92996e-20)
(1.01229 -0.0148717 3.29402e-22)
(1.13117 -0.0389052 0)
(0.0434488 0.0141023 7.05375e-20)
(1.03874 -0.0576369 0)
(-0.342122 -0.00225479 9.41887e-20)
(0.958236 -0.044447 0)
(1.11542 0.0458816 2.61152e-20)
(0.09794 0.0351762 0)
(1.00138 -0.00705574 0)
(1.0821 0.0661204 2.06825e-21)
(1.06788 -0.0993033 6.21698e-21)
(1.10776 -0.0491394 0)
(0.679797 -0.827961 0)
(1.02332 -0.0623339 0)
(1.26032 -0.0812167 5.69071e-20)
(1.08823 0.0474313 -1.7878e-20)
(0.178463 0.0503079 0)
(1.04708 -0.00356983 1.02028e-20)
(0.314333 0.0134698 -2.07606e-21)
(1.10177 -0.0268969 -8.21867e-21)
(0.0331242 0.0239915 3.56887e-20)
(-0.280589 0.00238314 -1.82384e-19)
(0.29248 0.00928805 2.01797e-20)
(1.10734 0.0230663 0)
(0.990472 -0.0247206 0)
(1.02833 -0.0436391 0)
(0.999972 -0.00126071 0)
(1.07845 0.0363633 1.61908e-20)
(0.997043 -0.0033357 6.69306e-21)
(0.153376 0.0480167 2.96202e-20)
(1.0306 -0.116022 3.68617e-21)
(0.926407 -0.0888807 0)
(0.889984 -0.0551758 5.02887e-20)
(0.982164 -0.0708616 0)
(1.01757 -0.0152877 0)
(1.06656 0.0198976 0)
(1.06477 -0.0850742 -8.39759e-21)
(1.06496 -0.00831686 0)
(1.04456 -0.0966497 2.77391e-21)
(0.313357 0.040539 0)
(1.07769 0.0654044 0)
(1.09876 -0.0181339 -1.59608e-20)
(1.11566 -0.150419 0)
(0.550613 0.0719663 3.35082e-20)
(0.971652 -0.0430816 1.50851e-20)
(-0.117377 0.00086094 -3.63509e-20)
(1.01947 -0.00602384 2.87772e-21)
(1.03202 -0.140244 0)
(0.959957 -0.0263172 1.49708e-20)
(1.02384 -0.0279778 3.53185e-21)
(1.08034 -0.164704 3.61985e-20)
(1.00018 -0.0111531 2.52746e-21)