/*--------------------------------*- C++ -*----------------------------------*\
| =========                 |                                                 |
| \\      /  F ield         | OpenFOAM: The Open Source CFD Toolbox           |
|  \\    /   O peration     | Version:  v2012                                 |
|   \\  /    A nd           | Website:  www.openfoam.com                      |
|    \\/     M anipulation  |                                                 |
\*---------------------------------------------------------------------------*/
FoamFile
{
    version     2.0;
    format      ascii;
    class       volScalarField;
    location    "300";
    object      ddt0(omega);
}
// * * * * * * * * * * * * * * * * * * * * * * * * * * * * * * * * * * * * * //

dimensions      [0 0 -2 0 0 0 0];


internalField   nonuniform List<scalar> 
27915
(
5.13472e-07
-0.00109062
0.0115364
0.0243843
6.82721e-05
-9.52225e-07
-0.0417793
-0.000143917
0.000140694
-1.64543e-05
8.16667e-07
-2.17886e-06
-0.0118742
-0.0290572
0.0494135
8.63656e-06
-0.000154685
4.58362e-05
0.0213973
-3.11728e-06
-0.0291297
-1.75986e-06
-0.00132096
6.07231e-07
6.96846e-08
-1.39234e-06
1.10603e-06
0.0181897
0.0265724
-0.00260358
-0.000551896
4.80745e-07
0.0013995
-3.22021e-06
0.02044
1.1368e-06
-2.23463e-07
5.69465e-06
-0.00257833
-2.63256e-06
3.44262e-08
4.00608e-06
-8.51951e-08
0.000547849
0.000907615
5.28732e-09
-3.26612e-07
-4.47098e-05
5.89266e-07
2.94858e-07
-4.7853e-05
0.000688052
0.000801533
-1.7845e-06
-0.0695754
-0.0192658
0.0237162
1.01043e-08
-1.89212e-06
0.00185006
4.81034e-07
1.99459e-05
0.000268111
-0.160507
1.55999e-08
-1.01605e-05
-0.000116527
-0.00119772
0.0372365
-8.05202e-07
2.90617e-06
0.000669909
-5.04537e-08
-9.77086e-07
8.42153e-06
-7.86416e-05
0.000505847
1.33312e-05
0.0081815
-2.6597e-06
5.90036e-06
-1.73984e-06
-1.33372e-06
4.98705e-07
-0.0337997
-8.73844e-08
6.40532e-07
-1.48891e-06
-0.243381
-5.38875e-05
1.1873e-06
-0.0118914
8.78056e-06
-0.000529888
-2.70788e-06
-5.46544e-05
0.00331683
-1.34602e-05
7.30527e-07
0.0325157
4.32894e-07
7.49138e-09
0.0524959
3.97456e-06
-5.68029e-08
-1.75946e-06
2.8165e-07
-6.43629e-05
-2.07871e-05
-2.31445e-05
-2.14085e-07
-4.22949e-06
-0.448683
0.00372157
-0.0260676
0.000781979
-0.0378478
2.4968e-08
0.000139082
1.14212e-07
-0.000608457
0.00013711
-0.000238262
3.67597e-05
2.5047e-06
1.54517e-07
-4.1038e-06
-0.0141111
9.59927e-05
8.72719e-06
-1.64174e-06
1.04085e-07
-5.84993e-08
0.0170078
-0.00636231
-0.0118437
4.79715e-08
-9.88109e-07
-6.89046e-06
-9.69344e-08
0.0204049
-0.000712677
-6.56206e-06
0.0440872
-6.2103e-05
5.21798e-08
-7.79796e-07
0.0148646
-9.92311e-05
-5.43296e-08
4.85459e-08
1.3194e-05
0.000636493
0.000368104
0.000288686
1.32315e-05
-1.55375e-06
-2.60888e-07
-7.3132e-06
-4.96875e-06
-0.00145098
6.70692e-05
0.000501004
6.26253e-07
-2.08387e-06
-3.66065e-06
0.00142078
-0.000893069
-1.355e-06
-0.000951112
-0.0127781
-2.30141e-07
-0.00221239
-8.81212e-08
3.25595e-09
0.000988606
-1.08775e-05
5.36293e-07
-1.17404e-06
-0.0739526
-2.78261e-07
-0.000123488
-1.12942e-07
0.137372
0.00144902
0.000136651
0.000426348
-4.37797e-08
0.0135375
4.83968e-06
-2.83955e-06
-0.00206601
-4.15027e-08
-6.12307e-08
-5.38911e-08
-0.00900297
-2.18274e-06
9.44695e-06
-0.00421318
-0.0466777
-0.000152769
-0.329385
3.27271e-06
-0.0286962
-3.92761e-07
-1.10252e-05
0.030959
1.15396e-05
-2.25362e-05
0.000951247
-0.0376253
3.4792e-07
0.029858
-3.79496e-06
-5.76771e-05
4.42884e-07
0.000865258
-0.0334589
0.000146837
-2.52705e-05
0.0173091
-0.000427195
-0.000659062
-2.98495e-07
1.18445e-05
6.26666e-06
-5.91954e-05
-2.93883e-06
-0.0969171
4.45678e-07
-0.0344184
-1.29358e-07
0.0536396
1.21103e-05
-2.52689e-07
1.2184e-06
0.284658
-1.04187e-06
0.170267
1.24808e-07
-1.18862e-07
-0.0141864
-6.88106
0.000132041
-3.35686e-07
-2.48721e-06
0.00118057
-3.67231e-06
-0.00824216
0.000634658
-8.70693e-09
-6.73348e-05
0.000756565
5.12317e-07
1.28452e-05
-2.81601e-06
-6.98155e-05
-3.27888e-06
-0.0014476
0.035887
0.00133002
8.20283e-07
-4.80881e-08
4.5795e-07
1.14388e-05
0.000796551
3.54283e-08
-2.44094e-07
0.000458773
-8.2216e-08
-1.35395e-06
6.21086e-08
0.0205893
-5.94469e-05
-4.53455e-06
-0.0397495
-4.23729e-06
0.0156352
-0.0134701
-0.0240531
0.000253314
-0.0122462
1.0106e-05
-0.00377707
-6.92962e-06
9.50013e-06
-5.58756e-05
-4.37201e-06
-0.123831
-0.00118048
0.000609476
1.28462e-05
1.52858e-07
-0.000524113
-1.46248e-05
-1.40883e-07
-2.53994e-06
-0.0179175
-0.000581879
9.75244e-07
0.000622754
-6.10352e-07
-3.61246e-06
-4.59518e-08
0.000547852
0.0261393
4.44511e-07
-0.070946
1.35323e-07
0.000200796
-0.238702
-0.00144265
0.0405046
-4.29447e-06
0.00247341
-1.34817e-07
4.14724e-08
-1.37833e-07
-6.41247e-05
-0.000358909
-0.00994013
-5.02356e-08
-6.42313e-07
-7.19242e-07
0.00143298
-2.74705e-06
2.75417e-07
-9.97932e-05
-0.000131853
0.00012349
1.9988e-07
-0.0367369
-2.28588e-06
-0.00793488
-0.0174895
0.000136021
0.000244274
0.000714467
-0.00046175
-2.86099e-06
1.18573e-05
-5.47368e-05
3.66025e-05
-0.00135382
-0.410771
-0.000596735
-1.49463e-06
-0.000197266
0.00768487
-1.20382e-05
-3.98369e-05
0.0356669
0.000732758
1.10071e-05
0.00793307
-0.000211016
6.85167e-06
9.8937e-07
-0.0102458
-0.000197407
0.0264746
-6.6836e-07
1.08749e-08
-0.00144641
-9.90268e-05
5.66149e-08
-4.1856
0.00487878
2.60334e-05
1.0834e-05
5.59691e-06
-0.000203176
8.88664e-06
1.07809e-05
0.000211574
-4.10175e-06
-4.21293e-07
7.45457e-07
0.00768919
-1.9449e-06
-0.00174427
-2.88871e-06
0.00138177
-8.12838e-05
2.93818e-07
-6.42203e-05
0.000153163
4.62062e-06
-0.0449557
-0.000141826
0.0104149
8.35308e-06
6.69053e-05
1.80482e-05
-1.9952e-06
4.93744e-05
6.12737
0.329835
-3.25133e-06
0.00132676
0.044326
9.05825e-06
-3.07177e-07
1.93271e-08
0.0285374
-1.37837e-06
-0.000314579
-3.0754e-07
0.000196909
-1.45584e-05
2.57253e-07
-4.62189e-05
4.83113e-08
-1.27433e-05
-1.33796e-06
0.000611245
1.78278e-07
-0.00117967
0.000150172
1.41786e-07
0.000629967
-0.00126589
0.000219241
-0.0239208
-3.74954e-05
0.25746
4.50743e-06
-4.27684e-07
2.74462e-07
-4.59958e-06
5.73056e-07
9.63942e-06
-7.82016e-05
-0.000631427
0.0194451
6.5778e-07
-2.91898e-07
0.0408483
2.88678e-07
-0.162004
5.10143e-08
-1.42959e-07
-0.215126
0.000908423
1.95661e-07
0.000275634
-1.98435e-05
0.0186104
6.1951e-06
1.08363e-06
-6.78218e-06
-1.35006e-05
-3.84429e-08
0.03479
-2.62697e-07
2.87291e-06
0.00117673
-1.01962e-06
9.00472e-06
0.0304804
-0.0427052
1.3101e-07
0.000521841
-3.30213e-05
-0.0736224
-3.12407e-05
0.322722
0.0305049
-3.46765e-06
8.62203e-05
0.000902469
-8.08978e-07
-0.0153638
6.27602e-08
2.90211e-09
0.000751474
-0.00168549
-0.0322693
-4.48317e-06
3.69925e-05
4.19286e-05
-2.616e-05
-0.0327542
-0.0026579
1.16921e-06
4.81425e-07
5.38504e-06
3.00104e-06
4.48188e-05
-2.70347e-06
-1.12293e-06
-1.60973e-05
-0.0806497
2.11194e-06
5.81435e-06
7.59626e-06
5.24713e-09
-1.15275e-05
0.000914607
2.92993e-06
-1.18058e-06
-2.28066e-06
-0.000194349
0.0554567
0.0393439
-2.57207e-05
0.000136537
3.21041e-08
0.000480694
-4.48336e-07
1.63325e-07
3.18175e-07
-8.07396e-05
-1.10886e-07
0.0364235
-0.00507273
1.36989e-05
-1.54881e-06
0.00271295
3.85977e-05
0.000450293
2.45824e-07
-1.39773e-08
0.195246
-4.80707e-05
1.56363e-06
0.000805399
-2.23684e-06
-2.94908e-06
1.47335e-06
-2.68387e-06
-2.04226e-06
1.7404e-08
-2.82888e-07
-4.53351e-06
7.72964e-06
1.45381e-07
-0.00554015
-0.000216356
4.29127e-05
2.49626e-09
-1.27997e-06
2.42828e-07
-5.1835e-05
3.82342e-08
2.97034e-07
3.14018e-06
9.26104e-07
-0.018244
-5.6057e-08
-0.00764416
-0.0254504
-0.00171728
-1.47983e-07
0.0225622
0.000132959
7.91219e-07
-6.20282e-07
-0.0482183
5.17608e-06
9.07089e-05
-1.31577e-09
-6.03948
-1.57464e-06
0.000506938
4.79732e-06
-3.1591e-07
0.000216521
-0.0230094
1.88506e-06
1.18391e-06
3.65797e-09
9.76116e-07
0.00036204
2.63282e-06
5.50755e-08
-0.0132822
0.0182404
-0.0550046
-2.32313e-06
0.0010599
-0.000219286
2.37001e-07
7.74496e-07
0.000836769
-3.8294e-05
3.49016e-06
0.000438913
-0.0139366
-2.95538e-05
0.000334932
-1.92421e-06
-4.04776e-08
-0.0124266
-0.0217502
-0.000434876
0.321567
-0.0401735
0.0287135
-1.23974e-05
0.0228709
0.0363679
0.00564926
-2.37715e-05
0.000748162
3.28614e-06
-1.41775e-06
5.17408e-07
8.66884e-06
-0.0003528
2.72704e-07
-1.37764e-07
5.06483e-06
8.68581e-06
0.000615715
-0.00433579
7.13204e-06
3.47393e-07
-5.51833e-08
-2.7855e-06
-7.08686e-06
0.0343717
-0.0369539
-0.000759952
-1.58658e-07
-0.0102994
-3.08564e-06
-8.38409e-07
0.000294036
-1.35234e-05
3.24752e-09
0.000340553
-4.06673e-06
-0.00378386
-6.40732e-05
1.61847e-05
-0.00343851
-0.000273294
-0.000103623
7.14049e-09
4.41969e-08
4.54987e-08
-0.042041
0.000655964
-5.26957e-05
0.0161233
5.02801e-06
-0.00474062
2.62207e-07
-6.48632
3.39966e-07
-1.89305e-06
3.81537e-06
6.65761e-07
-0.000825201
-3.08399e-06
1.25674e-06
-1.23506e-05
-3.37758e-06
-0.0874786
-1.87603e-06
-1.73705e-07
-0.000209188
-1.59442e-05
1.21243e-05
-3.57968e-07
7.01678e-07
-0.00037815
1.04613e-06
2.94447e-07
-6.15027e-08
1.62328e-07
0.000248941
1.84555e-07
3.99645e-07
0.000767232
-5.18979e-06
3.43159e-06
0.0238067
7.51329e-08
1.51132e-05
0.0129642
-0.00525578
0.238269
9.49415e-08
-3.3088e-05
-3.35753e-05
-2.96135e-08
1.93028e-06
-1.01474e-05
7.85564e-06
-2.22728e-07
7.58702e-08
2.79072e-06
-0.00201199
0.0190235
0.000368244
-0.000163935
-0.309716
8.54937e-06
1.26848e-08
0.00034417
-0.000682261
-1.85249e-07
3.49374e-05
1.05578e-06
-0.0020981
3.3113e-06
-0.00290378
1.11825e-05
1.80502e-07
0.0346409
1.51842e-06
0.042091
0.000801149
0.0196234
5.10827e-06
-5.92255e-05
3.73502e-07
1.3762e-07
-1.69929e-07
7.16001e-09
-6.68921e-05
3.52579e-07
-1.2903e-05
-4.08743e-06
-8.23558e-06
-1.65989e-06
0.000607478
-0.0542299
-1.91009e-06
1.23343e-07
4.21343e-07
6.48696e-05
-2.85721e-07
4.24917e-05
-2.39064e-05
2.06546e-07
8.36519e-09
0.000697266
0.000531412
3.21049e-06
-3.58924e-05
-0.00232323
2.47439e-07
-7.25246e-06
0.00616991
-2.21835e-06
0.0289467
-2.16087e-08
1.30467e-06
-8.90213e-05
-0.00100425
-2.04219e-07
-4.11751e-06
-0.000151827
-1.64724e-05
1.41588e-05
-0.05049
0.00423825
1.10564e-06
0.0253896
7.4462e-08
0.000100908
6.50276e-07
0.000113782
0.00160775
-9.18211e-05
-6.72483e-05
6.56616e-07
4.58203e-05
-1.87531e-06
-1.72748e-05
-1.0415e-05
1.59497e-07
-3.18183e-06
0.000362559
0.0503014
-0.000163307
9.55031e-06
-1.97018e-06
-1.7255e-06
-0.00377482
5.00556e-07
-3.36788e-07
-0.000977724
1.09688e-07
-1.25501e-05
0.00373173
0.0189258
-4.12318e-07
1.10262e-07
2.50862e-07
-1.54593e-06
-3.26787e-05
-2.27997e-08
-0.00142895
-0.629536
-2.05991e-05
0.000190162
-4.16651e-06
0.000844554
3.5934e-07
3.76258e-06
0.00911224
3.1886e-06
-0.000277576
2.42235e-06
0.0146173
5.62444e-05
7.21679e-07
3.59177e-07
0.465071
1.15163e-06
-1.41676e-07
-0.0195164
0.0006954
0.00287139
-9.69427e-08
1.2442e-05
0.188672
0.0259055
-0.0618982
0.0574325
-2.0172e-07
1.11213e-05
3.43964e-06
-0.000213914
-0.000259825
-0.00823638
-3.75329e-06
0.00049959
-4.37547e-05
6.32149e-05
0.0344453
1.67716e-07
-0.0360917
0.000509701
0.0410731
4.92338e-08
-0.000110988
1.28313e-06
3.92032e-08
2.87968e-06
1.32911e-06
-2.66629e-05
-9.71871e-05
-9.16808e-08
-0.000131151
-2.67197e-05
-5.89351e-05
8.41056e-06
5.78348e-07
-0.0388832
0.000558496
0.00140809
-6.67894e-07
-3.79028e-06
0.00112158
2.68912e-06
0.000650471
0.052565
-0.0189589
-4.48882
-1.11285e-07
-2.76554e-05
-0.0015179
-0.0244646
-1.82186e-06
7.82077e-06
2.87975e-06
0.000682341
3.80563e-07
0.000462961
-0.0271221
-7.56813e-07
8.73324e-06
-5.01505e-06
0.00310433
-7.86397e-07
9.87029e-08
-1.05811e-06
-1.25898e-06
0.00020933
1.28433e-07
2.6405e-07
3.94494e-07
-8.54711e-06
-0.0111232
2.95426e-07
-4.89314e-07
2.82037e-07
8.97403e-07
2.12643e-06
-0.0372402
-1.33283e-06
2.81049e-07
0.00014
-4.28466e-05
1.29335e-07
-1.92915e-06
6.75718e-05
0.0223111
3.26095e-06
7.19895e-07
4.25086e-06
-6.74627e-07
0.000762917
0.000328297
0.0204313
-4.5214e-06
0.0163051
-3.51578e-07
9.95562e-07
6.05163e-07
-0.00120032
0.0465799
8.90628e-08
0.000132634
-3.64385e-07
4.39954e-06
-2.13638e-07
-0.0334142
1.47316e-07
0.000142603
0.0221704
1.1788e-07
-4.01227e-05
-1.14451e-06
2.93091e-06
-2.93319e-05
7.8166e-05
-0.0496582
-8.59925e-05
-1.42292e-06
-5.47251e-08
0.0447793
-4.90844e-07
7.56565e-06
-0.000799393
-6.66741e-08
8.12773e-07
1.16712e-06
-4.02613e-07
0.000428469
-0.0168864
2.43479e-06
-0.00143797
-0.0264391
-0.0272165
-0.00713716
0.000844425
-0.0375239
-3.00842e-06
2.78217e-07
3.51512e-07
0.034295
0.0554775
-1.88661e-07
9.42883e-07
-2.55127e-06
-0.00015775
0.0169904
-0.040327
4.60904e-06
-1.57057e-07
-1.207e-07
-7.38752e-08
-1.71985e-06
0.000833163
-8.43019e-07
-0.0270817
1.01236e-07
1.51045e-07
2.17429e-07
0.000482165
-0.0002367
-0.0388607
-2.54744e-05
-3.16852e-06
-1.76347e-06
0.000146692
-0.0396264
0.00208271
0.000108718
-2.67948e-07
-1.29676e-06
-0.000579836
0.00078416
0.0392433
3.29346e-06
3.11018e-07
6.26489e-06
-5.18984e-08
-0.0337473
5.23778e-05
0.00116467
-4.04461e-05
1.85087e-07
2.47827e-08
6.73589e-08
8.11778e-06
9.18662e-07
-0.0365546
-0.000417557
2.05702e-05
-0.00621965
4.96252e-09
1.17656e-05
0.0156871
-5.15554e-08
6.26254e-05
-1.59737e-06
-0.0282928
2.99291e-08
4.40772e-07
-0.00170109
-0.0482448
0.0377625
1.19551e-07
-5.91976e-07
0.017839
-3.76814e-05
-2.06422e-06
2.22373e-07
0.0798003
9.87442e-06
-5.17489e-07
0.00301796
-0.00117114
4.85469e-05
0.0104173
5.22498e-07
1.2727e-05
-0.00532159
1.15842e-06
2.95969e-07
3.07366e-07
-0.000997194
1.89286e-06
-1.27015e-07
0.000315808
0.182872
-0.000105307
5.65083e-05
4.95877e-07
5.03931e-08
0.000371641
1.76934e-05
4.21613e-06
9.79778e-07
-4.791e-07
3.71131e-08
0.000424361
-3.87715e-05
-0.000682708
-1.2496e-05
-0.000949025
8.2773e-08
3.24513e-06
-3.6782e-08
-0.000386078
-1.08427e-06
-0.00790777
2.64344e-06
-3.75905e-07
0.0182699
1.97978e-07
0.000892232
-1.86478e-05
7.9688e-06
0.000976976
2.26924e-07
9.66192e-08
8.36395e-06
3.78276e-07
-0.0109829
0.000610323
-2.93929e-06
0.00107534
0.000507666
5.68534e-05
3.77269e-07
0.016108
-1.50169e-07
0.000317838
-1.30126e-07
0.0274747
-0.00413428
-0.00121436
-0.0385979
8.51469e-08
0.00466917
-1.30316e-06
-6.60523e-07
-8.65098e-05
0.000520145
4.25717e-05
3.47333e-05
2.60279e-06
4.54988e-06
-3.81097e-08
1.07335e-05
0.043589
6.93041e-06
0.0217565
0.000392383
5.72585
2.31128e-07
2.98696e-05
0.000985647
-0.0328852
2.98278e-06
0.000149007
-2.96351e-05
-2.35111e-05
-5.02973e-08
0.00497694
6.99901e-07
5.17765e-08
-0.0158044
4.39759e-06
-1.26624e-07
0.0995953
0.01994
7.07414e-06
9.3249e-07
8.45211e-06
0.00116542
-0.0344427
2.16759e-07
2.41158e-07
0.000112115
5.39124e-06
-0.0110034
-3.21077e-08
-0.0454051
5.87839e-06
-0.0436018
-6.89645e-08
-8.68352e-05
0.0542377
-0.0246357
0.0114418
-0.0271132
-3.22918e-07
-0.0539168
-2.12674e-06
-0.000173272
-8.04313e-07
-5.82386e-08
0.000471834
0.00119699
0.000737715
-1.93047e-06
0.0255193
4.98587e-08
-2.96135e-05
-4.996e-08
8.84389e-07
-0.021204
-8.13559e-07
0.013605
3.70277e-07
-1.68965e-08
0.0338843
-1.05691e-06
1.25441e-05
-1.66775e-07
-1.83631e-07
2.56499e-05
2.81067e-08
-4.58869e-05
1.75995e-05
4.30798e-08
7.61865e-07
0.0130336
-0.000128505
-0.000372601
-0.0304446
3.1002e-06
3.0304e-05
1.79318e-06
0.00214574
0.0106697
-0.0798932
-1.08523e-06
0.000665707
2.0994e-07
0.00409779
-0.000214986
9.84036e-08
0.00106428
0.000846576
8.43341e-05
2.93838e-08
1.61106e-05
-4.45959e-06
-0.0244151
-0.000113002
4.85388e-07
4.38863e-07
0.0343013
1.16002e-05
0.000943683
-2.22573e-05
-0.0507893
-7.60383e-06
0.000616692
2.26706e-05
-1.00727e-07
0.00710158
-0.000379673
-1.81256e-07
-0.000116608
0.000964879
-0.000960451
-4.258e-05
0.00403918
0.000607397
0.00575203
-6.78717e-06
-0.0125486
3.70685e-08
1.31473e-08
0.0856944
0.0637841
0.00651159
3.50199e-06
4.18596e-07
-3.31613e-07
-2.37882e-06
0.0307644
6.03292e-08
0.000111161
-0.00129982
0.000864669
-0.0205871
2.5597e-07
-0.00110504
6.51306e-08
0.00354025
3.70812e-05
5.33779e-06
-2.74242e-07
-2.03716e-06
3.67491e-07
-0.0327181
1.76575e-05
-0.0496857
0.00293278
-1.73782e-06
0.000706619
0.0104194
4.95989e-07
2.28486e-06
-8.7472e-06
3.71119e-05
2.90992e-07
6.73655e-06
-8.74241e-08
1.09194e-07
-2.10944e-06
-2.83859e-05
-0.00812035
6.51433e-05
6.68295e-06
0.110101
0.0133328
2.28841e-08
0.00833179
-3.25632e-08
-1.13927e-07
-4.05191e-06
-3.23442e-06
-0.0218868
-0.350082
0.00086859
-5.54741e-08
0.00156942
0.000194974
-5.09586e-08
-1.52127e-07
-0.000133315
4.75547e-07
6.32393e-09
3.11648e-06
-0.0395891
-0.0108191
-3.9224e-06
-0.000640641
0.000563223
0.000763462
8.75763e-06
-0.00388488
0.244241
3.87027e-06
9.41431e-06
0.00530199
-0.000810953
1.66353e-07
4.00669e-05
1.14782e-07
-2.04355e-06
9.1478e-07
1.09059e-06
-0.000532005
1.18955e-08
8.44592e-07
2.46685e-07
-0.0492632
1.1108e-06
-0.000387996
0.0018078
-0.179713
1.16117e-07
3.59871e-07
-0.000272788
-1.56813e-05
2.15527e-05
7.50329e-06
-0.0124811
4.65524e-07
-0.019419
-6.10751e-07
1.07819e-07
-0.036566
6.32565e-06
-0.0256677
-2.07142e-06
1.05452e-06
2.63188e-05
-0.00648861
4.43509e-07
5.70491e-05
-0.00599773
4.25409e-07
4.04871e-07
8.93822e-06
0.0403977
-1.56447e-07
-2.40941e-06
-0.000239323
0.00983653
-0.0158673
-1.06334e-07
-0.00821507
1.02297e-08
-0.000126384
0.201291
-0.00544545
1.23272e-07
0.0624585
3.67418e-07
-0.00956162
0.0471761
-0.00523329
-0.000654563
4.7262e-07
-0.00212259
0.000265546
-0.00199959
1.11546e-06
-2.60843e-08
2.83549e-05
-0.000421196
6.57739e-08
1.0131e-06
-0.000108731
5.04346e-08
1.21213e-06
0.000176981
0.019037
-0.0231158
-7.39833e-07
0.0260015
0.163915
4.43786e-05
-1.8807e-07
0.0241847
7.03295e-05
-1.42513e-05
3.75583e-07
-1.58897e-07
1.12612e-07
1.05228e-06
-3.35214e-07
-0.00775681
-0.006738
3.09408e-08
-3.96061e-08
-0.00110965
1.14708e-06
-0.400102
0.000222408
-1.67916e-06
-0.000590196
0.0160399
-3.12671e-05
8.60538e-09
0.00244847
-4.72351e-06
4.94783e-07
-5.13097e-08
-6.28889e-06
-2.49562e-05
7.54365e-08
-0.0163024
-2.2018e-07
-1.50365e-06
-0.0312702
0.000789936
0.000494104
-6.13269e-05
-0.000869754
-0.0226822
4.17139e-06
6.16056e-06
-0.00583403
-9.48303e-05
8.63142e-08
-0.0283659
0.00771947
4.67513e-06
-2.21836e-06
0.0420915
-1.82319e-05
0.0279269
-1.22777e-06
-1.88925e-07
1.88822e-06
0.000698494
3.35532e-06
-3.80748e-06
-2.45145e-06
-0.0352793
0.022022
0.000144468
5.96997e-08
-6.6802e-08
-0.0363959
9.67785e-09
-2.28356e-05
-0.0140879
0.00185667
-2.5804e-06
-2.17889e-08
-0.0052573
-9.63299e-05
-0.00269213
-0.0134488
4.16734e-06
-3.5295e-06
-8.08679e-06
-1.56527e-05
-1.4545e-07
-7.41875e-08
-0.000983869
-1.83088e-06
0.0439785
-0.029095
2.53757e-05
0.00555359
0.000591243
-3.76715e-06
-6.34867e-05
0.0261925
4.67773e-06
-0.000524397
0.00142468
0.100579
0.00423039
-7.31056e-06
1.4397e-08
3.45808e-05
3.5481e-07
-0.000573285
4.56508e-06
1.58088e-07
0.000761228
0.0365126
0.000348953
6.87603e-06
-0.010128
0.0069312
6.65571e-05
0.000383672
0.000509927
0.0318061
9.23211e-07
-0.000362733
-0.0390998
-0.00120455
4.35667e-05
2.54092e-07
0.170876
0.000483378
-0.0070871
0.0263688
-1.63079e-07
-0.000131004
-3.08856e-06
0.00109441
8.05578e-08
9.45502e-08
0.0605123
-0.000177722
-3.28624e-07
-2.82027e-07
-1.47865e-07
2.22243e-09
7.90103e-06
0.0440255
0.0144762
-5.61232e-07
-3.89442e-07
-2.37596e-06
2.22396e-07
0.000640546
-0.0222955
-0.000170452
0.00132398
-1.70853e-05
-3.66012e-05
-0.0234191
-5.04345e-08
-0.0322369
-0.0786531
-0.000594078
2.08691e-07
-2.42511e-05
0.139656
0.00149375
-1.55524e-07
-1.11313e-06
6.61701e-07
-7.27082e-08
-0.0256095
-1.59006e-06
4.15587e-07
-6.39794e-06
-0.0352294
-0.000831196
-1.20376e-06
0.0994639
3.00252e-06
-1.37734e-07
0.000968895
0.016677
3.65491e-07
3.47283e-07
2.93787e-07
-1.16287e-07
3.40787e-05
-6.20848e-05
-4.95348e-07
1.2629e-06
-9.22204e-07
0.000251068
-0.000818264
-9.10948e-07
-6.24083e-07
0.00025596
-1.31329e-07
-2.2219e-05
-8.91581e-08
1.11813e-05
-3.67556e-07
3.0373e-07
-1.19098e-06
4.40568e-06
-1.96838e-06
-1.10478e-07
-1.02245e-06
-0.00730035
6.00119e-07
-3.27104e-06
-6.36499e-07
-2.16831e-07
-0.000120482
-2.75859e-05
-0.000201793
-1.51156e-07
-1.5801e-05
3.41409e-05
-1.9351e-07
-3.73864e-07
-2.38574e-05
0.000216948
0.00790918
5.6073e-09
-0.00903929
0.0431133
2.14656e-07
1.87446e-06
0.0609217
5.39549e-07
-0.0491697
0.0017782
0.0152744
0.00159592
-2.19873e-06
0.0154574
0.000111633
-0.000352901
0.000457661
4.55772e-09
5.77654e-07
-0.000422474
6.859e-07
-0.0148757
7.04479e-06
-2.25822e-06
6.79005e-06
3.74489e-06
3.95703e-07
-0.0439363
-0.0382231
0.000503358
7.78569e-06
0.0228153
5.672e-08
-3.81796e-06
-1.77669e-06
-2.60217e-07
0.000106292
8.79568e-06
-3.71308e-06
-0.00037791
1.55503e-07
-4.16307e-06
-0.021916
-0.00053078
-0.0115269
-8.41719e-06
-2.86117e-06
-2.23059e-06
0.000848122
2.04654e-08
-1.40628e-05
-0.0147718
0.00464122
-5.55242e-08
5.86284e-07
-1.64438e-06
1.51106e-07
-7.96974e-05
-0.00368416
7.64881e-09
4.76656e-07
5.41063e-06
-5.19789e-07
-0.406423
-1.22961e-06
-2.63211e-06
-6.16278e-08
0.000754714
0.0306478
-3.35706e-06
-0.121568
0.000144142
0.000181647
-0.0414764
0.0150802
0.0140007
0.0151213
-0.0604445
3.08056e-08
5.40198e-08
-2.80641e-06
6.37034e-05
0.025598
-0.0041155
-1.01276e-06
0.00010332
4.21031e-07
4.01614e-07
-5.61292e-07
-6.50766e-05
0.0039259
4.88868e-08
-0.0373352
-4.72448e-08
-2.42955e-06
0.010221
-2.2154e-06
-0.0527187
5.28397e-07
-0.000448345
9.26597e-06
0.00644603
2.72996e-07
3.01072e-06
-5.83989e-08
-5.837e-08
-0.0546641
-0.330437
5.17098e-07
-1.60547e-07
-0.0153091
-0.00113646
3.66627e-06
-0.0160506
-0.0156053
9.97509e-06
-5.2936e-06
-0.00220424
0.0236492
-0.0127085
-3.71765e-05
8.65089e-07
0.037115
-2.65894e-07
-0.0256282
1.1854e-06
0.0204658
-2.17323e-06
0.000254144
-1.01315e-06
-2.41296e-07
-7.05078e-05
0.00124814
-0.00091729
8.46749e-07
-3.84855e-07
0.0204862
0.00196009
1.28494e-08
0.0189134
2.19032e-06
3.69032e-07
-2.95158e-06
0.00295958
2.79229e-07
0.0629814
1.04152e-06
-0.000270933
0.00681602
-7.69902e-07
0.00278018
9.58991e-08
0.00122199
9.25471e-05
-3.39629e-07
-1.24551e-09
-0.313402
-2.24698e-06
0.00103947
-0.00128286
0.000956744
7.59847e-08
3.49482e-07
-0.000380662
-7.89953e-07
2.07745e-06
4.61422e-08
-0.0327994
6.83328e-06
9.51034e-06
-3.21127e-06
-0.0183136
-8.1111e-06
1.17731e-06
-1.01494e-06
-0.0643323
2.63491e-07
0.0285913
5.75972e-06
-0.00284816
3.23514e-06
0.000317052
0.00140005
-7.98881e-07
-1.1437e-06
8.69433e-06
0.022167
8.71976e-07
-0.0375693
-9.14913e-05
5.94888e-06
3.49687e-05
0.0536876
6.00531e-07
4.28268e-06
-2.84932e-06
-2.48525e-06
-8.85427e-08
4.4083e-08
0.000330286
5.47143e-05
0.00376236
3.52292e-09
-0.0382712
0.000211787
-1.87254e-07
0.174551
0.000141704
0.000751387
0.0132357
8.67651e-06
-0.00267685
0.0200379
-1.06803e-07
1.66505e-07
-1.06306e-07
-1.23225e-06
-3.54834e-05
0.000552977
6.95298e-07
-0.000129718
-1.27016e-08
0.000119757
-3.04397e-08
8.2521e-07
0.000471281
-0.000131992
5.10117e-07
-2.91703e-07
-0.0053655
-0.0149395
0.225335
5.18795e-07
4.85982e-06
-0.0112402
9.98299e-07
0.0212549
-9.8087e-07
-3.93552e-05
9.79984e-06
-2.16921e-06
1.48075e-07
0.000302114
2.09919e-05
0.0203685
6.69641e-09
1.79559e-06
-1.62702e-07
-6.14706e-05
7.50465e-07
4.22169e-07
0.0149519
1.80907e-07
0.0157144
-0.000121171
-0.0300995
-1.20588e-05
0.00233822
0.000210005
1.0343e-05
-2.84418e-06
0.00296971
0.00101932
-0.017382
-0.0485896
6.11926e-06
0.0314139
4.80685e-07
5.86934e-06
-0.0482663
6.69522e-08
-4.78031e-05
-1.60887e-07
0.698256
1.04284e-08
-5.90593e-05
2.44294e-06
0.000712823
4.22866e-06
-3.23501e-06
3.75622e-05
9.40578e-07
-0.000731652
0.00265535
0.000411493
5.20993e-07
5.99355e-05
-0.0243284
-5.40453e-08
0.000543872
-2.80013e-07
0.000992802
-0.000136224
-1.25955e-06
-0.000378337
3.0553e-05
-0.000478591
6.97668e-06
-1.68682e-07
-0.000222302
-0.0186128
-0.000143466
5.50511e-07
0.0308321
-2.06427e-06
0.0278338
-0.144239
-0.0192782
-0.00142955
0.00052609
0.0465868
1.72402e-07
-0.000164929
-5.42118e-07
-3.71603e-06
-0.0001075
-7.3685e-07
-0.0138465
0.0446033
0.000884609
-0.0152207
-3.69294e-05
-1.26858e-07
-0.000584421
0.0057712
5.86579e-07
-7.9492e-05
1.11999e-05
-0.0267673
-2.47315e-07
0.000717808
0.0410022
-0.00239092
0.00022422
4.56998e-07
-3.97291e-06
9.00486e-08
1.8496e-06
-0.0415447
0.0381468
-0.00217376
0.000991939
0.0197695
5.08834e-07
2.67035e-07
-0.000864009
-0.00757088
0.00887537
-3.20324e-06
0.000476429
-0.00537861
-1.26132e-05
-1.6174e-05
2.07129e-07
-0.00868395
9.91918e-08
0.000168049
0.0965651
0.0411059
-9.00849e-07
0.0457094
2.21091e-07
3.83125e-06
1.94131e-06
-7.49746e-08
-0.000180187
1.04123e-05
0.00747933
-0.0138511
0.000356833
0.00136938
4.24354e-05
4.42144e-07
9.87625e-10
5.30915e-06
-5.63097e-08
0.0399281
5.08878e-05
1.00734e-05
1.60453e-08
0.0428137
-0.00995773
3.21923e-07
4.38709e-06
-1.24682e-06
-0.0340445
0.0262385
2.98638e-05
-3.35278e-07
-2.87741e-07
-1.34344e-07
-8.33484e-06
0.0127342
1.34762e-08
0.000440842
-0.00104051
1.03696e-06
-0.0610874
-0.0313027
5.01279e-06
0.0152947
-1.03008e-06
-0.0119762
-0.00248548
0.0168203
5.38673e-06
-0.00982317
-2.64893e-07
0.000239529
3.5794e-05
-0.000124557
-1.55162e-06
1.10048e-05
8.38965e-08
-3.57388e-07
-0.0328443
0.000384949
-6.86998e-07
0.00074956
-0.00552389
3.44511e-07
7.82549e-06
-3.45969e-06
-0.266549
0.033547
0.000894235
0.000510845
0.154605
-0.0440594
0.00833293
-0.000118257
4.56376e-06
0.0108025
-0.00884163
-0.0154429
0.000307162
0.000119191
-2.98225e-07
4.88485e-08
2.34975e-06
-1.04613e-08
7.45488e-07
0.0568403
4.63737e-07
1.314e-06
-1.41406e-06
0.170574
-2.23991e-07
-2.85064e-07
9.68129e-08
-0.000131137
3.21118e-06
1.12948e-06
-3.33249e-06
-1.98096e-07
-1.87526e-05
-3.38227e-06
2.95036e-07
0.040261
4.84038e-07
-1.23869e-06
7.03832e-05
-1.7195e-06
1.14102e-05
-1.02556e-06
-0.00421163
0.000249002
1.08404e-06
4.44832e-05
3.15672e-07
3.86931e-07
0.0194059
2.26941e-05
3.00591e-07
-0.0239053
-1.08444e-07
0.00105294
-0.000318531
1.83286e-07
0.000687854
8.67015e-07
-0.0069386
0.00103721
3.86542e-06
0.000328834
6.2895e-06
-7.99486e-08
-4.40702e-05
-0.0101456
1.28895e-08
-5.30256e-06
-5.97545e-07
5.14042e-06
-3.04759e-07
1.07044e-05
4.343e-05
-0.0355468
3.37248e-06
2.32962e-07
-0.00737177
-1.46566e-06
0.00415899
-7.35195e-07
-0.000664811
4.43169e-06
0.000185482
-9.40113e-07
-0.0102629
0.0491637
-6.17637e-06
-0.0147306
0.000124538
-1.30667e-07
0.0217262
-7.68332e-08
9.19844e-07
1.05925e-06
7.03256e-06
5.84608e-06
-0.010742
5.28678e-09
8.34662e-06
7.64733e-06
0.0208619
-1.09846e-07
8.22634e-06
-9.30547e-07
-3.67584e-05
-4.81e-07
-2.53079e-08
-1.00791e-07
-6.02173e-08
0.000563861
1.24635e-07
0.0141232
0.0395299
2.13754e-07
-0.0473955
-6.98578e-05
-2.22639e-05
0.0442521
-0.0516408
-0.0560075
0.0976191
0.012392
0.194806
6.87762e-06
-3.25697e-06
3.66639e-06
8.10772e-06
-0.145409
-1.24032e-06
-0.000155814
-0.0995443
2.6463e-06
0.000830848
0.000287049
0.0240734
-1.62712e-06
-4.77022e-06
1.48759e-07
-2.38027e-07
0.000344445
0.0261692
0.000266798
-0.0526616
-4.54266e-05
-6.25655e-08
0.0192631
-0.000223348
0.000913965
3.15816e-06
2.47325e-07
-0.0252548
0.0181466
1.9574e-06
-2.43599e-06
-9.10297e-08
5.45233e-07
-3.50198e-07
-5.34424e-06
-0.0144373
6.12796e-06
-1.65105e-06
-0.036965
-0.0185933
-3.03915e-07
-4.14689e-07
-1.12257e-08
-0.00805264
8.39398e-08
1.62391e-07
0.0472317
-0.0263398
-6.59589e-08
-3.63172e-05
0.0339829
-0.00012892
-5.14462e-05
-7.41347e-05
-6.19502e-07
0.0249303
-7.76429e-08
-0.00106545
-0.0474548
-1.4394e-05
-0.000809861
-0.000423004
2.19096e-05
1.46197e-08
-7.10649e-07
5.92579e-07
0.0010509
-1.97264e-06
-9.98548e-07
-9.52406e-08
8.66454e-06
0.0011992
-0.00863255
-1.58415e-06
-5.45185e-08
3.00122e-07
5.69935e-08
0.0461667
-0.0151463
0.0259929
-3.22482e-05
5.04474e-06
-1.12052e-06
2.7841e-06
-3.58815e-07
0.0227694
-1.48904e-05
-5.44369e-05
-0.0292698
-0.155403
-0.000526308
1.13848e-05
-4.69472e-06
9.14877e-07
1.07926e-06
3.7643e-08
-1.50114e-06
1.90161e-07
-8.91562e-07
2.72682e-06
-0.0308529
0.000209787
-9.95635e-07
-8.94992e-05
3.27788e-07
-0.0376696
-0.00698878
-0.000127114
0.00574295
-0.01737
-6.25994e-06
0.0213311
-0.00088941
8.76359e-07
-0.00479101
0.0629874
-0.00111918
1.70692e-05
-1.29981e-07
3.9921e-07
-1.56454e-07
-0.0455729
0.000250827
5.64392e-06
-0.000332288
1.86591e-05
3.3941e-07
-0.0466413
-0.0341625
0.000121923
0.000693218
2.93502e-07
0.000844481
6.47363e-06
0.00899555
0.000633112
-0.0121385
2.08236e-06
6.08377e-06
-6.52262e-05
-0.000210706
3.2402e-07
-0.0189303
-0.0459287
-0.000136436
0.0462644
0.253415
-0.00687389
-0.0289513
-0.00277468
-4.25022e-06
0.000270268
-0.00148842
1.12601e-05
0.00813051
-1.40161e-08
2.82056e-06
-0.044056
8.9906e-07
-2.5645e-07
-2.96353e-07
-0.000215447
-2.57319e-06
1.17106e-07
0.0488369
6.44671e-08
-0.0051751
-0.0473492
-0.153274
0.0487197
1.25439e-07
-1.29074e-05
3.33249e-07
-0.000100684
-0.000396017
1.01092e-07
-0.0626726
-0.000693783
4.79578e-05
-2.99875e-07
-0.00087547
2.32441e-05
-0.0038839
0.000339326
9.44983e-06
2.24735e-06
4.38264e-06
-0.0203315
-8.26912e-05
1.97619e-06
0.0890929
-4.88936e-06
1.92395e-07
-6.61937e-07
-0.0583282
1.42892e-07
6.94557e-05
1.76212e-08
-0.0178822
2.20715e-06
-0.00332754
-0.000545663
0.0477569
-0.00176449
-0.000839467
2.67663e-06
8.21675e-06
-0.000195114
1.00046e-05
-2.07076e-06
-3.64266e-06
-0.0152608
-0.000600527
3.18492e-07
3.42263e-05
0.0227432
1.16082e-06
0.000117436
6.41657e-07
0.0395098
0.0171733
-1.9867e-06
-2.42535e-06
-1.41979e-07
0.0254694
1.08095e-06
0.0481248
0.00365165
-0.000823969
0.0382586
-0.0142749
1.64721e-08
5.27833e-08
5.08365e-07
0.0179318
-1.54746e-06
-0.0179637
1.12584e-07
0.000297787
3.00935e-06
0.000510564
-2.03269e-07
0.00066354
0.000855541
-0.000222571
-0.000898562
-0.013365
0.010475
2.22598e-07
-0.000185565
-0.00344292
6.87337e-09
0.00240358
-4.92158e-07
-8.63763e-05
1.08472e-05
-3.9746e-05
3.82407e-07
0.0451441
1.16766e-08
0.0322348
9.19924e-09
0.0201057
0.000204821
1.00824e-07
9.25696e-08
-0.00221123
-2.15084e-05
-1.44334e-06
-0.00189236
-5.50955e-06
0.000222095
0.000505801
-0.000107355
5.19747e-08
-0.3387
-0.000926484
0.0227914
0.000981128
-7.73281e-09
-0.0229184
0.00552903
0.000770253
1.75481e-07
-0.0102159
9.85968e-06
1.9803e-07
0.0548413
-0.0199409
1.12133e-06
6.02806e-06
-6.4534e-07
-8.33597e-05
3.71728e-05
-0.000161161
0.0294673
0.00369215
-6.37351e-05
-2.54301e-07
-1.57366e-05
-0.000262351
8.92363e-07
-0.000218288
2.87511e-07
-1.28832e-06
0.000610357
-2.2648e-06
2.11677e-06
-0.000314911
-5.58187e-07
-9.27454e-07
-4.02113e-05
0.000522531
1.26007e-07
-5.07249e-06
-1.15069e-07
5.99214e-06