/*--------------------------------*- C++ -*----------------------------------*\
| =========                 |                                                 |
| \\      /  F ield         | OpenFOAM: The Open Source CFD Toolbox           |
|  \\    /   O peration     | Version:  v2012                                 |
|   \\  /    A nd           | Website:  www.openfoam.com                      |
|    \\/     M anipulation  |                                                 |
\*---------------------------------------------------------------------------*/
FoamFile
{
    version     2.0;
    format      ascii;
    class       surfaceScalarField;
    location    "300";
    object      ddtCorrDdt0(phi);
}
// * * * * * * * * * * * * * * * * * * * * * * * * * * * * * * * * * * * * * //

dimensions      [0 3 -2 0 0 0 0];
oriented        oriented;


internalField   nonuniform List<scalar> 
41582
(
-1.95918e-05
1.30451e-05
6.54383e-06
7.93411e-05
-7.44981e-05
-4.84328e-06
1.68047e-05
-1.3198e-05
-3.60766e-06
-0.000190458
-4.08652e-05
0.000231323
-4.99482e-05
8.67918e-05
-3.68396e-05
2.49844e-05
-2.79187e-05
2.93435e-06
-3.0573e-05
-0.000263441
0.000294009
4.865e-05
-1.21253e-05
-3.6524e-05
-1.24045e-06
7.98901e-05
-7.86559e-05
-0.000103079
7.73587e-05
2.57216e-05
2.09854e-05
-2.87337e-05
7.74823e-06
3.10496e-05
-2.47722e-05
-6.27621e-06
-5.37255e-05
8.19591e-05
-2.82373e-05
0.000465234
-0.00042318
-4.20584e-05
-0.000407231
0.000175575
0.000231646
3.88863e-06
1.82371e-05
-2.21249e-05
7.43935e-05
-0.000234668
0.000160292
2.46577e-05
1.76359e-05
-4.22927e-05
9.03884e-05
7.59198e-05
-0.000166308
-5.4461e-07
1.39319e-05
-1.33887e-05
2.90459e-05
0.000436187
2.6512e-05
-2.30929e-05
-3.41843e-06
0.000190409
-0.000116018
-1.25109e-05
-7.0821e-06
8.4691e-06
-2.87455e-06
-5.59521e-06
-4.31906e-06
1.83159e-05
-1.39962e-05
6.10684e-06
7.77883e-06
-1.38861e-05
5.96201e-05
-1.52666e-05
-0.000228145
3.76816e-05
-9.50311e-05
2.15634e-06
9.28731e-05
-1.97938e-05
1.86771e-05
1.1158e-06
-1.18297e-05
3.00206e-06
8.82833e-06
0.000117388
-0.000243738
0.000126417
-1.28947e-05
1.23496e-05
-2.63028e-05
0.000116691
1.53141e-05
-9.20863e-06
1.84778e-05
-3.04239e-05
1.19444e-05
3.76847e-05
-4.01793e-05
2.49621e-06
3.63122e-05
-3.43822e-05
-1.92971e-06
-9.87087e-06
3.09203e-05
-2.10505e-05
8.41012e-06
-6.1955e-06
-2.21492e-06
3.78815e-05
-3.00279e-05
-7.85331e-06
9.26371e-06
-1.04101e-05
1.14605e-06
0.000123018
-0.000232969
0.000109916
0.000152195
1.18187e-05
-0.000164018
-3.22559e-06
-1.37685e-06
4.6025e-06
3.00987e-05
-3.7213e-05
7.1138e-06
6.88908e-05
-5.01859e-06
-6.38733e-05
-1.79594e-05
1.24547e-05
5.50479e-06
-5.84983e-06
-1.2138e-05
1.79881e-05
1.8643e-05
5.0246e-05
0.000224245
-0.00010123
0.000223277
-8.9067e-05
-0.000134204
2.82188e-05
-3.49761e-05
6.75754e-06
0.000107869
5.6271e-06
-0.000113494
-1.20073e-05
-1.12322e-05
-0.000217645
0.000392307
-0.000174663
4.23927e-06
1.94543e-05
7.05803e-06
6.68198e-05
2.57957e-05
-9.26292e-05
-2.90811e-06
-8.92132e-06
-2.78269e-05
-1.33974e-06
2.91636e-05
5.5252e-05
-0.000124317
6.90681e-05
2.51687e-05
-1.9474e-05
-5.68746e-06
-5.89665e-06
7.52101e-06
-1.62572e-06
3.18394e-05
2.03404e-05
-5.21769e-05
5.26894e-05
-4.71432e-05
-5.54596e-06
-0.00010333
0.000116379
-1.30534e-05
0.000230955
-0.000425384
0.000194418
1.57652e-05
2.35274e-06
-1.81185e-05
-3.90479e-05
2.74956e-05
1.15544e-05
4.9801e-06
-0.000100008
-7.31819e-06
2.16225e-06
5.15642e-06
-1.52539e-05
1.747e-05
-2.21604e-06
-2.8512e-05
2.01413e-05
8.36879e-06
1.14357e-05
-1.77592e-05
6.32381e-06
-6.66773e-05
0.000164236
-9.75567e-05
-2.51103e-05
2.17099e-05
3.39739e-06
-3.59092e-05
2.17837e-05
2.102e-06
-2.38836e-05
2.67514e-05
1.11306e-05
1.83477e-05
-1.68793e-05
1.25606e-05
1.57302e-05
-2.158e-05
-2.1389e-05
1.16449e-05
-1.14062e-05
-2.38718e-07
-1.23744e-05
-5.58408e-06
1.8746e-05
-2.98163e-06
0.000365437
0.000129591
-0.00049505
2.06049e-05
1.81377e-05
-3.8746e-05
-5.29858e-06
1.87688e-05
-1.34702e-05
0.000436989
-0.000304628
-0.000132361
-2.10143e-05
2.49029e-05
-2.09838e-05
1.18992e-06
1.70959e-06
-1.56945e-05
1.39872e-05
-4.33197e-05
6.1961e-05
8.33098e-05
6.21477e-05
-0.000145454
5.15899e-05
-2.52778e-05
-2.63134e-05
1.5668e-05
7.78191e-06
-2.34508e-05
1.27202e-05
0.000120386
-0.000133095
1.61028e-05
5.72075e-06
-2.18232e-05
-4.28797e-06
1.0624e-06
0.000184976
-9.16334e-05
-9.33505e-05
-1.22962e-05
-7.9873e-06
2.15014e-06
5.83695e-06
2.95148e-05
-2.62256e-05
-3.28869e-06
1.83112e-06
8.70142e-07
-2.69945e-06
-2.63838e-05
2.23399e-05
4.04472e-06
-3.17727e-05
8.00916e-07
3.09732e-05
-3.09512e-05
-7.2126e-05
6.39813e-06
1.90155e-05
-2.54141e-05
2.17252e-05
-1.24427e-05
-9.28451e-06
0.000260942
0.000104469
-0.000101715
0.000281111
-0.000179188
9.8146e-05
-6.26337e-05
-3.54942e-05
0.000182823
0.000242928
-0.000273498
2.01324e-05
5.71725e-06
-2.58495e-05
-7.80012e-06
8.11323e-05
-7.33352e-05
-6.03042e-06
3.97314e-06
2.05588e-06
0.000188324
-8.89775e-05
-9.93297e-05
7.9959e-05
-7.44041e-06
-7.25183e-05
3.2837e-05
-2.1084e-05
-1.1756e-05
4.54583e-05
-2.07995e-05
-2.09183e-05
2.23619e-05
-1.44494e-06
-2.89315e-06
-3.1381e-06
1.17406e-05
9.98382e-06
0.000293949
-0.000261325
-3.26249e-05
0.000103556
-2.57216e-05
-7.78351e-05
-1.92177e-05
2.38882e-05
-4.66938e-06
-2.52407e-05
-9.73424e-06
-8.34541e-06
8.96667e-06
-6.20987e-07
6.65488e-06
4.99003e-06
1.27323e-05
4.07133e-06
-0.000369478
0.000327266
1.72293e-07
4.89847e-06
3.51103e-06
-1.85472e-05
3.2934e-06
-1.46113e-05
1.98245e-05
-5.21338e-06
-1.02785e-05
-1.12745e-06
0.000199333
-0.000132476
-6.6874e-05
-5.20429e-05
0.000118857
4.24505e-05
-3.06442e-05
-1.18062e-05
-0.000177113
-0.000230138
-2.1602e-05
-4.7809e-06
5.98323e-08
4.1779e-06
-1.82757e-05
1.92367e-05
-9.60856e-07
-0.000269976
0.000386327
-0.000116352
0.000127259
6.10723e-05
5.51982e-06
-3.00458e-06
-2.51496e-06
-6.17237e-06
7.04631e-06
-8.74409e-07
-2.26712e-05
-2.43985e-06
-0.000145166
0.000200432
-5.52664e-05
-0.000117274
-6.59887e-05
0.000121243
-1.2244e-05
-1.04268e-05
-3.03797e-05
9.86977e-06
2.05092e-05
-1.90796e-05
-7.78971e-07
1.98592e-05
-9.93087e-07
-1.43726e-05
1.53676e-05
-4.50467e-05
1.61298e-05
2.89202e-05
3.87274e-05
-2.41454e-06
-0.000144551
0.00010476
3.97889e-05
7.76268e-05
-0.000144304
2.89769e-06
9.55751e-06
1.62028e-05
-2.02269e-05
4.02492e-06
-3.58859e-05
4.22885e-06
3.1655e-05
3.7025e-06
0.000108271
-7.38447e-05
-3.44245e-05
-4.02421e-06
-2.63575e-05
5.73229e-05
2.20174e-05
0.00010959
-3.08902e-05
-7.87116e-05
3.66793e-06
-2.27461e-05
-3.98464e-05
0.000230246
6.43334e-06
-7.19204e-06
7.58634e-07
-5.8964e-06
0.000265807
-3.96875e-05
-0.000226101
5.50616e-05
-7.41139e-05
1.9053e-05
3.11054e-06
9.93257e-06
-1.95876e-05
1.31149e-06
-0.000116313
1.4909e-05
0.000101419
1.81259e-05
5.37289e-06
-2.34978e-05
3.99998e-06
4.86897e-05
7.49266e-06
-1.05927e-06
-8.39466e-05
0.000201496
-0.000117553
-0.000261124
0.000159549
7.21581e-05
-3.35546e-06
0.000114544
-0.000111181
-1.00801e-05
7.81005e-06
2.26984e-06
-1.77499e-05
8.3961e-06
9.35306e-06
-1.90181e-05
2.78859e-05
-8.86908e-06
-2.13527e-05
2.2334e-06
1.91194e-05
-0.000103046
0.000303607
-0.000200561
-3.47587e-06
-6.60424e-06
-8.20204e-06
8.17924e-06
2.29505e-08
-5.17194e-06
-2.14621e-06
2.02867e-05
0.000378775
-0.000398969
1.92652e-05
1.17859e-05
4.9848e-05
-4.85148e-05
-1.3327e-06
8.97344e-06
-1.86742e-05
-0.000244768
-2.26776e-05
7.13621e-06
1.5543e-05
-0.000194524
0.000499009
-0.000304473
-5.5069e-05
5.17928e-05
3.2749e-06
0.000305017
0.000131971
-8.70614e-07
3.09686e-05
4.67312e-05
-1.48935e-05
-0.00039051
0.000217902
0.0001726
1.09716e-05
1.27848e-05
-2.37565e-05
-2.16498e-05
3.94291e-05
-0.000172588
-6.03713e-05
0.000232961
0.00014451
9.72385e-06
-0.00015424
1.51645e-05
-1.20557e-05
-0.000125296
0.000138021
2.21001e-05
-1.03605e-05
7.53042e-05
-7.39616e-05
-1.3386e-06
-4.46129e-06
7.03703e-06
-2.57521e-06
7.93823e-05
0.000186433
0.000312514
-6.958e-05
6.81189e-05
2.6089e-05
-9.42033e-05
-4.04564e-05
-1.6974e-05
5.7427e-05
0.000377144
-0.00026008
-0.000117069
0.00026378
-0.000289247
2.54516e-05
-1.79866e-06
6.05456e-05
-5.87463e-05
-7.28503e-06
1.78321e-05
-1.05469e-05
-2.85905e-05
2.37331e-05
4.85473e-06
2.49844e-06
3.51859e-05
2.68645e-05
-1.60429e-06
-2.52532e-05
-2.79712e-06
2.30094e-05
-2.02129e-05
0.000109465
-1.59346e-06
1.16308e-05
-8.73252e-06
-0.000231018
0.000163853
-1.19005e-05
1.62228e-06
0.000131246
5.37295e-05
-2.32799e-05
1.10355e-05
1.73467e-05
2.10337e-05
-1.0342e-05
-1.06915e-05
-0.000119992
3.60353e-05
1.63954e-06
2.33453e-05
6.72248e-05
0.000343957
-0.000411162
-3.1864e-06
-7.53648e-06
1.07224e-05
-7.38605e-06
1.17339e-06
6.21248e-06
6.01284e-05
4.94552e-05
-0.000425998
0.000250822
0.000175187
6.53962e-05
-7.28368e-05
9.01618e-07
-7.89267e-06
6.99125e-06
-1.4875e-05
1.92219e-05
-4.34648e-06
-0.000163849
-1.88662e-05
0.000182714
9.20521e-06
2.07981e-05
-7.45256e-05
-0.000181849
3.66845e-05
-1.11495e-05
9.9552e-06
1.19531e-06
1.65794e-05
4.19194e-05
-5.84963e-05
0.000238079
-0.000140439
-9.7637e-05
2.47428e-05
-8.63987e-06
-4.69288e-05
4.39847e-05
2.9427e-06
-2.04341e-05
1.66239e-05
3.81078e-06
-2.81187e-05
4.46992e-05
-4.63212e-06
-3.12557e-05
-4.72675e-05
0.000173844
-0.000126555
-0.000159458
9.85635e-05
6.08888e-05
4.77045e-06
6.44565e-05
-6.92285e-05
2.37013e-05
-1.02566e-05
-1.34449e-05
7.88168e-06
-5.71925e-06
-3.55005e-06
8.45732e-06
-4.90698e-06
3.9764e-05
-4.8168e-05
8.40227e-06
0.000125122
0.000112939
1.1249e-05
-6.72553e-06
-4.52335e-06
2.11428e-05
-1.47445e-05
9.5048e-05
-9.83982e-05
2.84937e-05
-2.93648e-05
1.18982e-05
-2.31936e-05
1.12963e-05
-1.06815e-05
2.33603e-06
1.24101e-05
0.000183522
-0.000195945
-2.05087e-05
4.11143e-05
1.8029e-05
-1.2565e-05
-5.46202e-06
8.75142e-07
-0.000125928
0.000125054
-1.1161e-05
-3.38834e-05
0.000107167
0.000373113
-0.000373638
5.19138e-07
-7.30177e-05
-4.31077e-05
0.000116113
0.000261677
2.08016e-06
6.93339e-05
0.000224607
-5.16523e-06
2.34007e-05
-4.13834e-05
4.361e-05
-2.22742e-06
-1.90396e-05
4.42832e-06
2.18393e-05
-2.55456e-05
3.7069e-06
5.55331e-05
-0.000100916
4.53922e-05
2.1798e-05
-1.32357e-05
-8.5641e-06
-0.000299514
0.000366749
-4.70404e-05
5.18069e-05
-0.000133129
0.000177025
-4.38984e-05
-7.16525e-06
-3.30482e-05
1.38366e-05
1.92101e-05
7.63505e-06
1.10417e-05
2.6215e-05
2.69586e-05
-5.31752e-05
-7.10292e-06
4.64693e-06
2.45528e-06
-9.67683e-07
-2.03856e-05
-5.09562e-05
-9.95664e-05
0.000150522
7.42245e-05
-7.60209e-05
-5.59958e-06
-1.69609e-05
2.25601e-05
-0.000368189
5.91133e-05
0.000309066
-2.35809e-05
1.41472e-05
9.43249e-06
2.65482e-05
-5.56252e-06
-1.37475e-06
1.06384e-05
-0.000171221
3.80909e-05
-0.000199148
-2.90021e-05
3.84972e-06
-8.31087e-06
-6.8459e-06
-9.86154e-06
2.99934e-05
-1.13561e-05
-8.82619e-05
9.95999e-05
6.8236e-05
-4.30651e-05
0.000425216
-0.000404965
-6.8736e-05
-0.000115935
0.000184671
9.35468e-06
3.90084e-05
-9.10612e-05
-6.35039e-06
-7.52431e-07
3.49109e-06
2.02881e-06
-2.40258e-06
-9.49755e-06
-4.63103e-05
1.88226e-05
2.74855e-05
2.37179e-05
1.13713e-05
-3.50957e-05
-5.3124e-05
0.000136439
9.32137e-06
9.04524e-07
-1.02252e-05
3.26546e-05
-3.36063e-06
-9.33702e-06
-1.78612e-05
2.71986e-05
0.000302427
-5.65442e-05
-0.000245877
1.52645e-05
-1.70741e-07
-1.50916e-05
8.50683e-06
9.60709e-06
-1.81126e-05
8.94294e-05
-4.24066e-05
-4.70188e-05
5.19829e-05
-5.89456e-05
6.95967e-06
-3.18053e-05
9.99236e-05
-2.20072e-05
-1.10411e-05
-0.000155893
6.35704e-05
9.23226e-05
4.72443e-06
1.50999e-05
-8.02177e-06
-3.33605e-05
-0.000117469
4.44429e-05
7.98908e-05
-0.00010476
3.87735e-05
-6.16589e-05
-0.000306531
1.57848e-05
-8.15071e-06
-6.71369e-06
-1.37202e-05
2.3053e-05
-1.20817e-05
8.76723e-05
-1.23653e-05
1.37593e-05
-3.86991e-05
2.49416e-05
-9.99449e-06
3.37101e-05
-6.5587e-05
3.74523e-06
6.18393e-05
6.09412e-05
-0.000141636
8.07098e-05
-1.11945e-05
3.33969e-05
-1.67851e-06
-3.17199e-05
-2.94594e-05
3.91224e-05
-9.66624e-06
5.11613e-05
-3.14817e-05
0.000114843
-5.93065e-05
0.000165657
-5.53774e-05
-0.000110279
-0.00026337
0.000181754
8.16034e-05
-7.5695e-06
5.74175e-05
-0.000189226
0.000315592
-0.00012627
1.72463e-05
1.55871e-05
1.56972e-05
-2.94567e-05
1.37578e-05
1.67748e-05
-2.23745e-05
-9.6646e-06
0.000388455
3.87377e-05
-4.35275e-05
4.78853e-06
-0.000390846
0.000173205
2.29745e-05
-5.2575e-06
-1.77168e-05
-9.15527e-07
6.30496e-06
-5.38823e-06
-0.000136241
4.17351e-05
4.76963e-05
1.29068e-05
-1.2899e-05
-7.46567e-09
0.000177436
-0.000151005
-2.64493e-05
1.01671e-05
-3.96266e-05
-1.62411e-05
2.62585e-05
-1.00158e-05
-4.08351e-05
-7.33501e-06
-1.46206e-05
-1.54078e-05
0.000193844
4.76238e-05
-0.000241475
-2.18606e-06
-1.72527e-05
1.94382e-05
1.26649e-05
-3.01097e-05
1.74493e-05
-1.64522e-05
7.97132e-05
-6.32641e-05
-4.4678e-06
1.85489e-05
-1.40753e-05
1.45892e-05
2.56196e-06
-1.71504e-05
1.9316e-05
-1.17027e-05
-7.61558e-06
0.000293669
-0.000381423
8.77486e-05
3.87103e-06
8.1118e-05
-5.40805e-05
-2.70347e-05
2.53705e-05
-3.58647e-06
2.19322e-05
-0.000185784
9.5593e-05
-5.38558e-05
1.89912e-06
6.03099e-06
-7.92923e-06
-2.21476e-05
3.44809e-05
-1.23324e-05
9.91829e-06
9.36331e-05
-3.18843e-05
3.73709e-05
-5.48931e-06
0.000216235
2.00548e-05
-0.000236292
-8.9762e-06
-6.17199e-05
7.06961e-05
-6.8448e-05
3.7994e-05
2.16354e-05
-5.11736e-05
2.95374e-05
-3.50338e-05
1.28853e-05
-4.43754e-05
4.97259e-05
-5.35274e-06
3.40107e-05
-4.49617e-06
-4.4374e-05
0.000110303
-6.59319e-05
7.56105e-05
0.000101833
3.88213e-05
1.59898e-05
-5.48195e-05
-2.29608e-05
2.43068e-05
-1.34539e-06
0.000164506
0.000104466
-0.000268986
0.000126813
-0.000195558
5.38075e-05
-3.04398e-05
-2.33713e-05
-2.24184e-06
-8.30288e-06
1.0544e-05
-5.86112e-06
7.14647e-06
-1.28722e-06
-0.000220374
2.12213e-05
3.19536e-05
-2.66538e-05
-5.30178e-06
-5.49035e-06
-1.7187e-05
1.04969e-05
-9.59593e-06
-4.75358e-06
-8.52191e-05
8.99766e-05
5.73516e-05
-1.24121e-05
-4.49403e-05
-3.22316e-06
8.14779e-06
-4.92407e-06
-8.15924e-06
6.20751e-05
-5.3917e-05
-6.2689e-07
1.35339e-05
-9.02924e-05
2.22988e-05
6.79947e-05
1.22616e-05
-2.15981e-05
5.44768e-05
-1.12927e-05
-4.31854e-05
3.90404e-06
4.21806e-06
-8.12192e-06
2.16025e-05
-0.000124933
-2.77956e-05
1.1554e-05
7.78709e-06
-1.0973e-05
-8.44961e-05
0.000123503
-4.55691e-05
-1.93552e-05
6.49227e-05
5.96836e-05
-7.61349e-05
6.27719e-05
-0.000105879
-1.98852e-06
-1.66865e-05
1.86787e-05
2.51615e-05
-4.85732e-05
2.34106e-05
5.04841e-05
6.86681e-06
6.64153e-06
1.63331e-05
-2.29488e-07
2.0605e-06
2.13324e-05
-1.32816e-05
-8.05048e-06
2.11047e-05
-1.82097e-05
-2.89381e-06
3.94279e-05
1.4377e-05
3.67929e-05
5.88007e-05
6.55951e-06
4.79157e-05
-3.45069e-06
0.000139816
-0.00013635
2.06629e-05
4.41636e-07
-1.08325e-05
-6.60334e-06
1.74362e-05
-5.5002e-05
-0.000279559
0.000334565
-7.20391e-06
-7.90066e-07
7.99459e-06
2.73828e-05
-4.68476e-05
-2.04439e-06
2.94685e-05
-2.74232e-05
3.39556e-06
6.71832e-06
-1.01138e-05
-5.51712e-05
0.00027141
-8.13867e-05
-0.000127543
0.000208917
-3.81258e-06
7.71675e-06
-3.74995e-05
-9.53279e-05
0.000132826
-3.50489e-05
-5.52416e-05
-0.000381349
0.000121268
-3.94924e-05
2.57095e-05
1.37839e-05
-2.23615e-05
1.20085e-05
1.03509e-05
1.98192e-05
2.26308e-05
2.60431e-05
2.55464e-05
-8.98205e-06
-2.16645e-06
-7.28205e-05
0.00016478
-9.19607e-05
6.69015e-06
-2.38665e-06
-4.30216e-06
2.28874e-05
-6.64501e-06
-1.62419e-05
1.03334e-05
-1.12472e-05
1.80337e-05
-6.786e-06
-1.89912e-05
1.68047e-05
8.11418e-05
8.45172e-05
5.15038e-05
9.29986e-05
-4.50909e-06
-7.83426e-06
1.23433e-05
-0.000171293
0.000323471
-0.000152133
-3.24692e-05
-2.05483e-05
5.30179e-05
-0.000196719
0.000209121
2.27734e-05
-5.5242e-05
0.000102989
-0.000115104
1.21809e-05
0.00018468
2.32946e-05
-0.000207976
-1.6889e-05
-2.2822e-06
1.91718e-05
-7.63209e-05
2.6375e-05
6.40303e-05
0.000125704
-0.000189737
-1.1022e-05
2.36989e-05
-1.26779e-05
5.09819e-05
0.00032213
-5.46629e-06
4.00722e-06
1.45954e-06
4.80627e-06
-4.80584e-06
-0.000101305
0.000221049
-0.000119756
-6.53175e-05
1.97481e-05
-7.98959e-05
-7.59985e-05
8.09673e-06
-5.58489e-05
7.49071e-05
-1.90565e-05
-9.11265e-05
4.67518e-05
1.37757e-05
-2.33932e-06
0.000141423
-7.78515e-05
-0.000338414
0.000367376
-2.89604e-05
-1.89107e-05
9.69366e-06
9.21816e-06
-8.5696e-06
5.01994e-06
2.2424e-05
-5.31424e-06
-1.71066e-05
7.06538e-06
1.58222e-05
-7.23477e-05
1.65007e-05
-5.6606e-06
1.58553e-05
-1.01935e-05
1.18429e-05
-1.84525e-05
6.61029e-06
-2.34034e-05
-2.7846e-05
5.12496e-05
-1.39296e-06
9.95524e-05
-5.0062e-06
1.85062e-05
-1.35e-05
-2.68495e-05
1.22286e-05
-3.25763e-05
5.42104e-05
-5.8611e-06
2.76972e-05
2.1748e-05
-4.94411e-05
-0.000102498
0.000267365
-0.00016487
1.31167e-05
7.546e-06
3.50172e-05
-2.49245e-05
-1.00897e-05
9.38804e-06
-1.50353e-05
5.64736e-06
-6.50824e-05
-8.91871e-05
0.000154273
0.000129299
-0.000368252
0.00023894
-0.000174165
0.000183355
-9.19051e-06
-0.000255189
9.01767e-05
0.000164972
4.71101e-05
-4.19723e-05
-5.14005e-06
7.9778e-06
3.27169e-06
-0.000169029
0.000146442
2.25861e-05
-1.44752e-06
1.60371e-05
-5.76983e-06
2.87592e-06
-2.99859e-06
1.24851e-05
-9.4864e-06
6.8898e-06
4.02205e-05
1.0975e-05
-9.86285e-06
-1.11208e-06
-9.27459e-05
0.000323699
-9.4802e-05
0.000155747
2.25015e-05
-3.15524e-05
9.0485e-06
9.77695e-06
2.89217e-05
5.21879e-05
-2.98318e-05
6.22352e-05
-3.24018e-05
-3.50325e-06
-2.82684e-05
-8.66506e-06
-9.79799e-06
1.84634e-05
-2.23831e-06
6.61034e-06
-4.37449e-06
-8.11723e-05
-6.06136e-05
5.24528e-05
-1.72481e-05
2.17842e-05
-4.53741e-06
4.95926e-05
0.000173684
-2.46368e-05
-5.84097e-07
2.52201e-05
-9.33469e-06
-8.63391e-06
1.79691e-05
9.4975e-06
1.42039e-05
1.09637e-05
2.4116e-05
-4.66179e-06
-1.04087e-05
-2.72725e-07
2.40213e-06
5.56021e-06
-7.96319e-06
1.29347e-05
-1.74021e-05
-3.5287e-06
2.25357e-05
-1.90069e-05
-2.49456e-06
1.28176e-06
1.21128e-06
-6.55935e-05
5.75686e-05
-0.000146857
8.17791e-05
-3.18758e-05
3.26762e-05
-2.12288e-06
1.57787e-06
5.44894e-07
1.77184e-05
-2.62191e-05
8.50046e-06
-1.82583e-05
9.59346e-06
-2.55358e-05
3.52076e-05
-9.66786e-06
-6.17944e-06
6.97459e-09
5.78056e-06
-9.8374e-06
4.05641e-06
1.95467e-05
-6.43032e-06
1.2729e-05
2.16832e-06
-1.4899e-05
-0.000198237
0.000369227
-0.000170976
-6.43068e-06
-1.55677e-06
0.000250807
-0.000305809
0.000428254
-8.90598e-05
-0.000339184
0.000199835
-0.000302883
1.48999e-05
-9.87083e-06
-5.02918e-06
0.000153725
-0.000157166
-0.000249225
0.000272778
-2.35935e-05
6.93338e-06
-8.07723e-07
-6.12587e-06
-2.58912e-05
1.95159e-05
6.37542e-06
-4.41748e-05
-0.000111564
0.000155734
1.97712e-06
2.04487e-05
6.84429e-05
-1.6461e-05
-2.96104e-05
-9.80042e-06
3.94118e-05
0.000260171
-0.000686165
-2.70086e-05
6.39985e-06
2.06099e-05
0.00010654
0.000195872
-3.84493e-05
6.56184e-06
5.93008e-06
-8.22263e-07
-5.10686e-06
-0.00021512
-7.41298e-05
-3.53267e-05
0.000124324
-8.89997e-05
-2.06846e-05
1.56783e-05
-1.74892e-05
1.21906e-05
-2.91722e-06
2.56623e-06
3.50832e-07
-4.07048e-06
-6.75248e-06
1.08231e-05
5.80266e-05
-0.000129547
7.15248e-05
5.06953e-06
-2.06955e-05
1.56267e-05
5.10661e-06
-6.02254e-06
-2.05728e-05
-9.68957e-05
7.7374e-05
-0.000202671
-2.81226e-05
9.1817e-05
-6.3699e-05
1.6306e-05
-6.91755e-06
-4.29321e-05
0.000207437
-0.000248414
3.3292e-05
8.65222e-06
-5.15501e-06
-3.49362e-06
-8.75642e-06
2.44241e-05
-0.000237813
0.000237981
-1.83676e-07
-2.99968e-05
2.16844e-06
-2.39734e-05
7.84958e-06
1.61224e-05
-0.000138818
-3.02135e-05
0.000391327
-0.000400978
-3.25511e-05
-3.16676e-05
2.81667e-05
1.87745e-05
5.34117e-06
5.42741e-06
2.45451e-06
-0.000142548
0.000115994
-8.43825e-05
5.48875e-05
1.62683e-05
3.17327e-05
-4.80056e-05
0.000315882
-0.000299901
-0.00032758
0.000339156
-1.1605e-05
0.00018769
-9.1479e-05
-9.62135e-05
4.80383e-05
-0.000288268
-0.000105098
0.00039337
-0.000313116
0.000181758
0.000131351
-0.000119323
-4.64757e-05
0.000165806
2.39719e-05
3.24615e-05
-5.64357e-05
0.000288207
-3.65595e-05
-0.000251645
-1.1996e-05
6.726e-06
-2.35874e-05
1.68624e-05
-1.71756e-05
-1.9602e-06
1.91357e-05
-1.51734e-05
2.4343e-05
-9.16972e-06
0.000126528
-5.68575e-05
-6.96731e-05
6.47735e-06
-1.62753e-05
-2.16784e-05
1.47461e-05
6.93432e-06
-3.32304e-05
3.70309e-05
-3.80346e-06
6.52586e-06
7.24917e-06
-0.000180542
6.46748e-05
0.000115874
0.000250545
-0.000181207
6.01448e-06
-2.1087e-05
1.50737e-05
-1.97794e-05
2.11363e-06
1.76656e-05
-7.60425e-06
5.14846e-06
2.45586e-06
-1.5191e-05
1.69013e-05
4.63368e-05
-4.93134e-06
-4.14068e-05
-9.59394e-07
-0.000173207
-0.000371577
4.39824e-05
-0.000153632
-0.000101574
-4.79704e-06
8.19245e-06
-0.000324792
0.000126558
1.48824e-06
1.24433e-05
-1.67302e-05
3.00614e-05
-1.33299e-05
0.000134515
-0.000104101
-3.04139e-05
-2.71308e-05
4.88799e-05
-9.03771e-08
-2.82701e-06
-6.83718e-05
-5.24935e-05
0.000120861
-2.74187e-07
1.45633e-05
-1.42883e-05
0.000401153
-9.71073e-07
-0.000400145
7.3167e-06
-5.39873e-05
4.66711e-05
-4.19779e-05
4.2529e-05
-5.51531e-07
-4.33262e-05
-2.22617e-05
5.90644e-05
9.15468e-05
-0.000150605
5.92137e-06
3.09358e-06
-9.013e-06
3.77651e-06
3.7439e-06
-2.27728e-05
1.09735e-06
2.16756e-05
-1.3296e-05
1.18981e-05
1.39938e-06
-3.68647e-05
7.79143e-05
-4.10509e-05
-0.000170554
0.000220626
-5.00724e-05
5.51526e-07
-8.58005e-07
3.17254e-07
-0.000107112
0.000184482
-2.88864e-05
-1.12899e-05
-4.91505e-06
1.3808e-05
-2.8802e-06
-1.09278e-05
0.000116935
-0.000154167
3.72155e-05
9.44811e-06
-3.66733e-06
-1.69328e-06
-2.29436e-05
2.61781e-05
-2.22758e-05
-3.90085e-06
-1.92014e-05
6.82856e-06
5.16328e-05
5.66416e-05
1.40106e-05
-1.25226e-05
-9.98496e-06
-8.92469e-06
-3.02609e-05
-1.15617e-05
4.18182e-05
4.47904e-06
-2.13675e-05
-7.03693e-05
4.22428e-05
-1.97604e-05
2.62783e-05
-6.51876e-06
1.02741e-05
-2.55116e-06
-7.72303e-06
3.69245e-05
1.81199e-06
-2.16754e-05
4.78898e-05
-8.66637e-06
-1.99262e-05
5.40831e-06
-1.65884e-05
1.11805e-05
-1.23604e-05
-6.84023e-06
1.24398e-05
-4.85486e-06
2.16289e-05
-2.96945e-06
-9.65676e-06
1.26261e-05
-1.39801e-05
-7.697e-06
-5.13836e-06
2.13361e-06
7.70427e-05
-8.839e-05
1.04249e-06
-3.93093e-06
2.89057e-06
1.11154e-05
-4.32355e-06
-6.79078e-06
0.000191125
-8.42456e-05
-0.000106878
-1.17092e-05
1.14347e-05
2.02688e-05
5.90846e-06
-0.000176297
8.90105e-05
8.72852e-05
8.85704e-06
-3.95899e-06
2.00647e-06
-0.000277481
8.82525e-05
-0.000116313
6.22361e-05
-0.000209279
0.000339203
-0.000129924
6.32551e-06
1.64122e-06
-7.96669e-06
1.22576e-05
-5.7285e-06
3.57115e-05
-5.62584e-05
-1.09826e-05
1.57131e-05
-4.73025e-06
-2.41163e-05
1.22862e-05
1.18306e-05
7.44512e-05
-1.93892e-05
-2.4327e-05
9.15365e-06
1.25239e-06
5.438e-06
-1.02157e-05
2.86935e-05
1.29905e-05
7.63504e-06
-2.06257e-05
-1.36582e-05
-7.19879e-07
1.4381e-05
4.01712e-05
-0.00010737
-2.26797e-05
0.000130049
6.15304e-05
-7.05089e-05
6.52311e-06
-7.21111e-05
-1.59119e-05
2.098e-05
-1.09018e-06
3.79155e-05
-0.000106291
-3.75105e-05
3.43434e-05
3.17079e-06
4.97647e-06
5.19429e-06
-1.01718e-05
-1.13531e-05
1.55489e-05
-4.19395e-06
1.50162e-05
-1.9871e-05
0.000308895
-7.16568e-05
-0.000237239
1.97082e-05
-3.08716e-06
-1.66208e-05
1.50783e-05
-3.71375e-05
2.20595e-05
-1.20875e-05
2.49062e-05
-1.28189e-05
4.58525e-06
-3.54406e-06
-0.000129596
-1.46184e-05
-0.000102455
-5.7022e-05
-0.00027194
0.000169438
4.43231e-05
-6.86916e-05
2.43707e-05
4.14025e-06
8.94531e-06
1.29677e-05
-3.39655e-06
-9.57003e-06
8.32043e-06
-1.28289e-05
-2.84478e-06
-5.78995e-06
8.6358e-06
5.22627e-06
-5.22608e-06
4.92366e-05
1.46436e-05
-2.7267e-05
1.26234e-05
-4.75805e-05
2.04507e-05
-5.78465e-05
2.37815e-05
3.40631e-05
1.27667e-05
3.35688e-05
-6.22502e-06
1.61949e-05
-9.96949e-06
-8.08706e-05
-9.96686e-05
-0.000132594
6.20494e-05
7.05284e-05
1.07299e-05
-3.04911e-05
8.41395e-06
-8.24002e-06
-1.7444e-07
-2.4285e-07
-1.69328e-05
9.51113e-05
-7.73091e-05
-1.78026e-05
3.54375e-06
-2.60534e-05
-1.26417e-05
4.62674e-05
-7.07459e-05
2.44817e-05
-1.85742e-05
8.17814e-06
1.03951e-05
-5.5534e-06
4.75357e-06
7.99766e-07
-0.000146288
0.000216594
-7.03074e-05
0.000208094
0.000124538
-0.000332604
-1.25638e-05
-1.0343e-05
2.29046e-05
-1.68598e-05
5.2572e-05
9.68611e-05
0.000153685
3.21868e-06
1.05889e-05
2.0549e-05
-4.28052e-05
2.22569e-05
0.000342284
-0.000203546
-0.000138549
-4.74711e-05
1.59689e-05
3.14982e-05
1.02217e-05
-2.69567e-06
-7.52403e-06
-1.37783e-05
2.79566e-06
2.11387e-05
-2.8708e-05
7.5702e-06
-1.93703e-05
7.79861e-05
-5.86149e-05
-8.34215e-05
-3.1959e-05
0.000115384
3.61715e-06
-6.46138e-06
-1.80435e-05
1.95348e-05
-1.49268e-06
2.22253e-05
-3.02935e-06
-1.91957e-05
-1.99157e-05
1.79294e-05
3.21422e-05
-9.6432e-06
-1.80154e-05
6.23418e-05
-0.000162059
4.27408e-05
2.92888e-05
-8.15017e-06
-8.63148e-05
-8.9984e-05
9.66102e-07
7.50262e-06
-8.71016e-06
-4.94398e-06
6.80464e-06
1.79672e-05
4.25828e-06
-0.000146872
4.88803e-05
-2.29161e-07
-4.57166e-06
-6.93894e-05
1.12742e-05
-1.49677e-05
3.69443e-06
3.16317e-05
4.454e-05
-7.61709e-05
9.63046e-06
-3.14142e-05
4.90081e-05
-1.75944e-05
-2.54848e-05
-4.51502e-06
-7.90487e-06
4.09228e-06
-2.05726e-05
1.77756e-05
-0.000125595
1.82244e-05
2.58737e-05
-0.000117508
-1.94311e-06
2.49855e-06
3.53545e-05
-4.75387e-05
1.21817e-05
1.7442e-05
1.00228e-05
-2.74663e-05
-2.58562e-05
-1.98531e-07
2.60543e-05
-1.78219e-05
7.70508e-05
-5.92252e-05
-1.15185e-05
5.41192e-06
6.10763e-06
-1.4946e-05
7.66156e-06
1.96099e-05
-0.000103029
7.44405e-06
4.60439e-07
-7.9053e-06
2.06592e-05
3.05025e-05
7.05021e-05
1.59887e-05
-8.64919e-05
9.18388e-05
0.000107488
-1.55129e-05
2.38758e-05
-8.36283e-06
-4.42884e-06
-7.89079e-07
5.21598e-06
-6.08843e-06
2.86556e-06
-1.185e-05
-3.56227e-05
8.85652e-05
-1.80627e-05
7.31651e-06
-5.98327e-06
-1.33198e-06
4.30106e-05
-6.2367e-05
0.000149438
-2.0206e-05
6.64755e-05
-8.58177e-05
8.10681e-05
-1.84647e-05
4.18897e-07
0.00020566
-0.000141631
-1.78085e-06
-7.15297e-07
2.67684e-06
1.92487e-05
-2.19284e-05
-2.97782e-05
1.59824e-05
1.37951e-05
-7.5732e-06
2.15954e-05
-1.40217e-05
-9.62384e-05
-4.48609e-05
0.000141099
2.19017e-05
5.24493e-06
-2.71455e-05
-0.000190162
3.90171e-05
0.000151138
-3.09719e-05
6.2604e-05
1.37265e-05
-2.45355e-06
-6.83759e-06
8.73597e-06
0.000215213
-0.000112187
-6.55839e-06
-1.09311e-05
-1.02162e-06
2.95141e-05
-0.000277399
-9.65492e-05
0.000373994
0.000118249
-0.000289525
-0.000104503
0.000160083
-5.55823e-05
-2.903e-05
3.42147e-05
-5.18509e-06
1.70594e-05
6.30644e-06
-2.33658e-05
0.000334795
-1.89181e-05
-0.000400051
0.000186516
0.000213546
-2.60334e-05
0.000148261
-0.00012223
6.22856e-05
-1.97586e-05
-4.25283e-05
-7.17722e-06
1.21523e-05
-2.49932e-05
1.29058e-05
-1.27965e-05
-1.11766e-05
-1.83194e-05
3.37666e-05
-1.54453e-05
-8.77882e-05
-4.9226e-05
-6.70807e-05
-5.58007e-06
1.71077e-05
-1.15271e-05
3.39506e-05
-0.000150701
0.000116751
1.68155e-05
7.50163e-06
-2.43151e-05
-5.46008e-05
-8.99512e-05
0.000420421
-0.000533265
0.000112919
-1.57349e-05
-4.04448e-06
-0.000109571
0.00011045
0.000133968
-0.000166425
3.24562e-05
0.000133857
-0.000189016
4.06626e-06
-8.14084e-06
1.40615e-05
2.27849e-05
-9.39086e-06
-1.33924e-05
3.91839e-06
9.00744e-06
-1.29264e-05
-3.96706e-05
-1.53995e-05
1.18538e-05
1.09326e-05
2.87003e-05
2.85177e-05
-5.72205e-05
-1.68991e-05
5.4704e-05
-3.78029e-05
-2.56849e-05
3.66847e-06
2.20167e-05
-2.88161e-05
7.75796e-06
2.10575e-05
5.26721e-05
1.87249e-05
-2.72149e-05
8.49056e-06
-2.37702e-05
2.75585e-06
8.96212e-06
1.23207e-05
-2.1282e-05
7.87282e-05
-0.000353264
0.000274529
-3.72562e-05
-3.60647e-05
2.73588e-05
-1.70994e-05
2.55996e-06
1.4538e-05
-2.28644e-05
-3.4983e-05
-0.000219256
4.66718e-05
-1.36015e-05
2.08581e-05
-7.25804e-06
2.98816e-05
-5.85333e-05
-9.3875e-05
0.000152425
-3.9523e-05
-4.4859e-05
-3.40703e-05
-9.51234e-07
-9.45903e-06
1.82399e-05
4.54279e-06
-2.27833e-05
-3.74219e-05
3.0705e-05
6.72221e-06
-0.000384145
8.27955e-05
0.000301322
-1.25131e-05
1.84298e-05
-5.91613e-06
4.67869e-05
-3.16984e-05
-1.50916e-05
1.40829e-05
-2.55538e-05
1.14705e-05
7.43375e-05
-5.1003e-06
7.61782e-06
-2.51863e-06
4.37597e-05
9.61907e-05
-0.000139949
-8.24627e-05
0.000133637
-5.12123e-05
-1.43592e-05
1.92394e-05
-4.88029e-06
1.6346e-05
-1.40326e-05
1.88059e-05
-4.77043e-06
-1.51255e-05
-2.09388e-05
1.73107e-07
1.44907e-05
-1.46648e-05
2.37736e-05
-7.39449e-06
-1.63781e-05
1.35099e-05
-2.45326e-05
-1.47467e-05
0.000107691
-2.98737e-05
-7.78018e-05
8.94773e-07
-5.32555e-06
1.59605e-05
-9.4836e-06
2.66291e-05
-1.19852e-05
-2.16212e-05
-7.19561e-06
-5.0697e-05
-8.02744e-05
0.000130974
-1.17851e-05
2.09306e-05
-9.14586e-06
-2.10628e-05
1.04849e-06
2.0016e-05
9.86914e-06
-2.16547e-05
1.24085e-05
-1.76664e-05
5.25619e-06
2.0214e-05
1.68783e-06
-0.000133441
-9.76523e-05
-1.3585e-05
1.9227e-05
-5.64377e-06
-2.36045e-05
-5.03692e-06
2.86403e-05
6.26083e-06
-7.88374e-05
7.25812e-05
5.25924e-05
-5.76077e-05
-1.57931e-06
1.35705e-05
-1.88723e-05
7.52034e-06
-0.000116391
0.000391005
-0.00027462
-2.30107e-05
1.54378e-05
2.20491e-05
-1.30866e-05
-1.75315e-05
2.37898e-05
-6.25638e-06
-1.68171e-06
-1.54183e-05
0.00022655
0.000142144
-3.29199e-05
-0.000109224
1.70203e-06
8.52042e-06
4.74805e-06
-0.000187208
-9.02702e-05
-2.25072e-05
7.64878e-06
1.48595e-05
-3.04641e-06
1.07705e-05
-7.72436e-06
2.01907e-05
6.09813e-05
-8.11736e-05
-5.36374e-05
3.70563e-05
1.6579e-05
4.31879e-05
0.000104854
-0.000148027
1.38127e-05
9.96076e-06
-9.38053e-05
6.2e-05
-2.32152e-05
7.70288e-06
2.12668e-05
-4.28643e-05
2.15926e-05
-1.93049e-05
2.0101e-05
-7.94444e-07
-0.000194838
-5.89595e-05
0.000253798
-3.59144e-06
-3.90312e-06
7.49465e-06
-7.9556e-05
-0.000272732
8.55262e-05
-2.81334e-05
1.5344e-05
1.27895e-05
2.14398e-05
6.6235e-05
1.49812e-05
1.0555e-05
-2.55362e-05
-2.30705e-06
-1.8612e-05
2.59283e-05
3.30258e-05
-5.89543e-05
1.15178e-05
8.35935e-05
-0.00010435
0.00026531
-0.000160954
4.48431e-05
-6.17414e-05
1.44029e-05
3.91346e-06
-3.58912e-06
-2.20952e-05
0.000170004
1.82879e-05
-5.00473e-06
-1.32833e-05
2.09375e-05
-2.28313e-05
1.89327e-06
-2.88893e-05
-8.52917e-06
7.75775e-06
-1.51072e-05
7.34988e-06
1.90204e-05
-6.6105e-06
-9.33387e-06
-7.1408e-06
1.64743e-05
-2.96871e-06
-1.80931e-05
-5.45703e-05
6.31101e-05
-1.02369e-05
-5.28773e-05
-9.76822e-06
2.16482e-05
-1.18803e-05
1.22402e-06
-3.87327e-05
-0.000560102
0.000173357
0.000386734
0.000452873
-0.000397659
-5.52193e-05
0.00031433
-0.000314279
9.13569e-05
9.97715e-05
9.36256e-05
4.77984e-05
5.4162e-06
-1.47506e-05
-3.26689e-06
2.1336e-07
3.05706e-06
3.61653e-06
9.35116e-06