/*--------------------------------*- C++ -*----------------------------------*\
| =========                 |                                                 |
| \\      /  F ield         | OpenFOAM: The Open Source CFD Toolbox           |
|  \\    /   O peration     | Version:  v2012                                 |
|   \\  /    A nd           | Website:  www.openfoam.com                      |
|    \\/     M anipulation  |                                                 |
\*---------------------------------------------------------------------------*/
FoamFile
{
    version     2.0;
    format      ascii;
    class       volScalarField;
    location    "300";
    object      k;
}
// * * * * * * * * * * * * * * * * * * * * * * * * * * * * * * * * * * * * * //

dimensions      [0 2 -2 0 0 0 0];


internalField   nonuniform List<scalar> 
27915
(
0.000149217
0.000202844
0.0292895
0.0577569
0.000174699
0.000151738
0.0837702
0.000177817
0.000176871
0.000180489
0.000159911
0.000149011
0.00026418
0.0444382
0.0649716
0.000153847
0.0390186
0.000170711
0.0784629
0.000150765
0.043444
0.000147731
0.0404198
0.000149196
0.000147007
0.000147192
0.000147717
0.000259762
0.0597938
0.0595697
0.000191654
0.000146019
0.039273
0.000150807
0.0843227
0.000147709
0.000148004
0.000161832
0.000168204
0.000154919
0.000147537
0.000160973
0.000148005
0.000206801
0.000208073
0.00014906
0.000148534
0.000166663
0.00014838
0.000147647
0.000167618
0.000206594
0.000203407
0.000154852
0.000449542
0.0260956
0.0531988
0.000149048
0.000147706
0.0587727
0.000146033
0.000168986
0.000188411
0.00204801
0.000149906
0.00015752
0.000172443
0.00021291
0.0574756
0.00015348
0.00016131
0.0633218
0.000147696
0.000146935
0.000160329
0.000172134
0.000190964
0.000157675
0.00994791
0.000149142
0.000160834
0.000155028
0.000147143
0.000147589
0.0248699
0.000145594
0.000148361
0.000153415
0.00019147
0.000170958
0.000147857
0.000566419
0.000153648
0.000191242
0.00015283
0.000167896
0.025229
0.000157215
0.00014756
0.0707927
0.000147224
0.000149156
0.0815054
0.000161375
0.0001479
0.00014995
0.000148061
0.000172142
0.000172912
0.000179922
0.000148778
0.000150755
0.000995283
0.0485261
0.0164155
0.000207103
0.0815742
0.000147517
0.000176733
0.000144515
0.000229078
0.000176449
0.000182015
0.000171242
0.000151129
0.000144756
0.000150802
0.0485141
0.000190881
0.000153613
0.000154735
0.000147785
0.00014558
0.0302699
0.0225773
0.0135804
0.00014748
0.00014698
0.000155473
0.000145586
0.0651293
0.061217
0.000153629
0.064514
0.000171305
0.000150365
0.000149655
0.0510167
0.000226388
0.000148244
0.000148005
0.000157736
0.000205224
0.0408171
0.000189704
0.000157322
0.000149084
0.000148725
0.000152904
0.000153125
0.000168642
0.000193579
0.000190685
0.000148425
0.000148367
0.000153802
0.0069354
0.00020764
0.000148912
0.000199938
0.0717707
0.000148698
0.040397
0.000147838
0.000149949
0.000208459
0.000172415
0.000149276
0.000149509
0.000532643
0.000148627
0.000173172
0.00014792
0.0115514
0.047093
0.000176856
0.000189048
0.000148141
0.0273239
0.000161931
0.000148499
0.000227899
0.00014817
0.000148079
0.000147771
0.0249709
0.00014901
0.0001638
0.0110787
0.0853377
0.00018777
0.000850003
0.000162312
8.35688e-05
0.000148488
0.000157668
0.056565
0.000155814
0.000159404
0.000209558
0.0705736
0.000149119
0.0701135
0.000150754
0.000177516
0.0001478
0.00020959
0.0780617
0.000177964
0.000162114
0.051738
0.000219745
0.000191926
0.000148637
0.000159294
0.000162215
0.000174902
0.000148635
0.000456679
0.000148295
0.044148
0.00014563
0.0803446
0.000157106
0.000148743
0.00014939
0.00757532
0.000151909
0.000175249
0.00014709
0.000148169
0.0715785
0.00755377
0.000176555
0.000148465
0.000153503
0.000210401
0.000150794
0.00026381
0.000205403
0.000147961
0.000166923
0.000204934
0.000147244
0.000165737
0.000152274
0.000167215
0.000153682
0.000227033
0.0554462
0.0503898
0.000149762
0.000147655
0.000145933
0.000165263
0.000205785
0.000144348
0.00014873
0.000188965
0.000148436
0.000147687
0.00014783
0.0519748
0.000170221
0.00015071
0.0751496
0.000152807
0.052283
0.0479587
0.0711103
0.00021941
0.0475737
0.000154174
0.0288027
0.000155338
0.000154135
0.000191631
0.000150753
7.43988e-05
0.0474116
0.000204627
0.000165716
0.000148035
0.000191042
0.00015781
0.000145485
0.000148464
0.0596033
0.000192221
0.000148044
0.000225998
0.00014749
0.000159872
0.000147951
0.000203675
0.0582213
0.000147822
0.000513829
0.000147503
0.000199194
0.00303456
0.0213323
0.0618006
0.000150794
0.0603642
0.000145518
0.000147428
0.000145623
0.000175864
0.000194487
0.0342362
0.000146201
0.000149375
0.000152539
0.000225372
0.000153429
0.000147061
0.000183749
0.000173112
0.000177969
0.000148056
0.0716456
0.000155619
0.0325499
0.068324
0.000177069
0.000189952
0.000224488
0.000190554
0.000152194
0.000156078
0.000178405
0.000175292
0.000194506
0.000289666
0.0486544
0.000147701
0.0001739
0.000168587
0.000156134
0.000190992
0.0554102
0.000209234
0.00016412
0.0487549
0.000183243
0.000159686
0.000148024
0.0265037
0.000191837
0.0543002
0.000147326
0.000148142
0.00022943
0.000183275
0.000149688
0.0036761
0.00016879
0.000162105
0.000165293
0.00016053
0.000217144
0.000153575
0.000161288
0.000180907
0.000150149
0.00014917
0.000149169
0.0528446
0.000153579
0.0701267
0.000149175
0.000210727
0.000184187
0.000147829
0.0001747
0.000191279
0.000160241
0.00117867
0.000190116
0.0273024
0.000164545
0.000175045
0.000167918
0.000150107
0.000177942
0.012836
0.00596782
0.000149182
0.000209971
0.0643752
0.000162153
0.000148499
0.000149903
0.0601404
0.000148988
0.000185776
0.000148496
0.00017874
0.000173035
0.000147517
0.000165419
0.000149723
0.000171233
0.000152411
0.000218518
0.000147545
0.000214008
0.000161666
0.000147068
0.062402
0.000205974
0.000180624
0.0707959
0.000168004
0.000185904
0.000173119
0.000147381
0.000148049
0.000150743
0.000155851
0.000162539
0.000183913
0.000216096
0.0509125
0.000155982
0.000148638
0.0332571
0.000147429
0.00147587
0.000149293
0.000148416
0.000192774
0.000200381
0.000147505
0.000194316
0.000170521
0.0528782
0.000161767
0.000147619
0.000153879
0.000157629
0.00014799
0.0856852
0.000148267
0.000150383
0.00495214
0.000146873
0.000153743
0.0536703
0.0732806
0.000146914
0.000233317
0.000162075
0.0305106
0.000161906
0.003722
0.0606126
0.000148674
0.000173958
0.000198016
0.000147408
0.0467173
0.000148086
0.000149957
0.000206049
0.000210882
0.0694211
0.000150783
0.000170871
0.000177704
0.00017271
0.0701396
0.0517993
0.000149024
0.000146022
0.000151165
0.000150423
0.000169912
0.0001523
0.000146978
0.000158466
0.00243102
0.000150163
0.000160355
0.000164509
0.000149952
0.000157744
0.000211821
0.000156495
0.000154417
0.000147796
0.000208481
0.0606953
0.0675608
0.000214955
0.000180468
0.000144363
0.000196784
0.000149189
0.000145269
0.000148265
0.000182219
0.000148024
0.0571971
0.0518591
0.000163616
0.000154629
0.072173
0.000167811
0.000171556
0.000147045
0.000148142
0.00858624
0.0001655
0.000152145
0.000203959
0.000149336
0.000148175
0.000149873
0.000152333
0.000147741
0.000147861
0.000148244
0.000150034
0.000152974
0.000149427
0.034484
0.000207868
0.000173729
0.000149408
0.000153065
0.000147027
0.000175883
0.000146951
0.000145831
0.00015601
0.000147562
0.000191893
0.000147977
0.0419789
0.0444901
0.000227795
0.000148606
0.0521398
0.000220274
0.000147836
0.00014893
0.000252117
0.0001512
0.000173752
0.00014914
0.00145366
0.000152439
0.000229837
0.000160302
0.000148337
0.000219276
0.0670359
0.000149968
0.000147848
0.000149784
0.000147782
0.000192435
0.000156446
0.000148111
0.0658075
0.0679365
0.00030268
0.00014777
0.000210445
0.000218144
0.000145418
0.000147546
0.000211085
0.000168984
0.000149934
0.000196292
0.029378
0.000175861
0.000170951
0.00014772
0.000147586
0.024417
0.0292786
0.000181965
0.000306499
0.040216
0.086972
0.000157862
0.0299378
0.0688146
0.0353627
0.000161268
0.000222885
0.000161813
0.000151555
0.000147815
0.000153804
0.000195765
0.000147099
0.000148686
0.000160569
0.000172817
0.000192189
0.0455667
0.000157896
0.000147462
0.00014781
0.000153093
0.000156869
0.0620422
0.0391448
0.000216689
0.000148357
0.000203915
0.000150777
0.000147737
0.000183143
0.00015808
0.000149825
0.000184482
0.000153255
0.0256854
0.000166804
0.000165976
0.0378243
0.000207771
0.000175119
0.000149911
0.000149647
0.000146583
0.000582991
0.000205624
0.000180177
0.0670854
0.000161911
0.0231038
0.000146741
0.000771708
0.000145881
0.000149288
0.000152312
0.000148379
0.000204071
0.000150737
0.000148972
0.000156232
0.000148698
0.00117056
0.000151535
0.00014817
0.000191018
0.00015803
0.000159234
0.000146272
0.000148361
0.000220623
0.000148005
0.000148242
0.000148554
0.000145722
0.000199871
0.000144276
0.00014694
0.000197034
0.00015339
0.000152281
0.0873544
0.000147444
0.000166032
0.0509436
0.0680157
0.000818482
0.000147623
0.000173383
0.000162091
0.000148816
0.000150142
0.000172792
0.000153493
0.000148233
0.000147961
0.00014947
0.0868061
0.0265504
0.000185672
0.000190687
0.000306838
0.000156248
0.000149905
0.000184487
0.0001693
0.000148499
0.00016994
0.000147988
0.000231081
0.000155654
0.000165705
0.000156895
0.000144272
0.0655899
0.000150075
0.0573507
0.000212608
0.000290604
0.000160554
0.000176044
0.000146869
0.000146896
0.000148146
0.000149955
0.00016703
0.000147449
0.000157965
0.000159609
0.000157141
0.000152306
0.000191897
0.0789776
0.000151356
0.000147313
0.000147749
0.000179203
0.0001483
0.000175339
0.000165799
0.000147003
0.000149667
0.00020573
0.000234687
0.000149856
0.000162269
0.0440215
0.00014674
0.000154168
0.048655
0.00015894
0.0390993
0.000148878
0.000155928
0.000177643
0.000207828
0.000148174
0.000150189
0.000167363
0.000167682
0.000164067
0.000302701
0.0380957
0.000155834
0.0871373
0.000146924
0.0853171
0.000149194
0.000167403
0.0411839
0.000177901
0.000177308
0.000148054
0.000170936
0.000152386
0.000158284
0.000168239
0.000147532
0.000148707
0.000185443
0.0825824
0.000179633
0.000162534
0.000151315
0.000148192
0.0474928
0.000146778
0.000148596
0.000209056
0.000147244
0.000156333
0.0595698
0.0664301
0.00015159
0.000144169
0.000147499
0.000158663
0.0556157
0.000147576
0.000205056
0.00127333
0.000166056
0.000178704
0.000150143
0.000198268
0.000154939
0.000161341
0.045115
0.000149611
0.000204724
0.00015076
0.0702807
0.000171177
0.000148044
0.000147798
0.00306298
0.000147862
0.000148407
0.0472219
0.000233693
0.0414079
0.000148861
0.000156586
0.000306842
0.0526964
0.015814
0.000265331
0.000148524
0.000156685
0.000149882
0.000182429
0.000208322
0.0643814
0.000149547
0.000193018
0.000167244
0.00019353
0.0561008
0.000147388
0.0740128
0.000203219
0.00011428
0.000148117
0.000175497
0.000153876
0.000149785
0.000161963
0.000153964
0.000161573
0.000172935
0.000146998
0.000162178
0.00016163
0.000161019
0.000153362
0.000148599
0.0434489
0.000203891
0.0869935
0.000146722
0.000159403
0.000209348
0.00015609
0.000205667
0.0607556
0.03179
0.00632417
0.000148036
0.000171563
0.000166536
0.0485724
0.000153648
0.000161798
0.000149969
0.000206177
0.000145437
0.000191611
0.0737509
0.000153619
0.00016225
0.000150668
0.0857675
0.000146753
0.000146891
0.000147443
0.000152298
0.000200163
0.000144183
0.00014712
0.000147428
0.000162053
0.0308158
0.000147101
0.000146979
0.000147095
0.000148403
0.00015076
0.0450048
0.000147459
0.0001479
0.000177477
0.000166407
0.000147593
0.000153148
0.00016953
0.0514796
0.000149679
0.000148676
0.000151933
0.00014668
0.000224599
0.000189032
0.0359075
0.000150759
0.051879
0.000148438
0.0001478
0.000176451
0.000200698
0.0679683
0.000146882
0.000177061
0.000151401
0.000160143
0.00014642
0.0833855
0.000147484
0.000177611
0.0538223
0.000147384
0.000178728
0.000149939
0.000150942
0.000161736
0.000179946
0.085888
0.000172503
0.000147211
0.00014701
0.0657365
0.000146352
0.000153005
0.000166574
0.000148792
0.000148365
0.000147812
0.000146988
0.000218266
0.00031815
0.000149889
0.000169014
0.0224382
0.04447
0.0254281
0.000198152
0.0724725
0.000148125
0.000148028
0.000146886
0.0638916
0.0618333
0.000148354
0.000148354
0.000149486
0.000180891
0.0695385
0.04485
0.000158243
0.000148687
0.000145532
0.000148957
0.000150016
0.000209474
0.00014679
0.0433722
0.000146351
0.000146432
0.000147518
0.000241409
0.000165629
0.0184662
0.000161311
0.000152687
0.000148842
0.000199115
0.0194663
0.0485581
0.000193871
0.000148218
0.000147449
0.00019447
0.0002036
0.000185132
0.000159928
0.000146796
0.000160181
0.000146623
0.0376848
0.000169193
0.000210417
0.000179379
0.000145662
0.000146469
0.000146474
0.000153169
0.000147546
0.000311058
0.000163379
0.000176199
0.0450625
0.000146487
0.00016829
0.0252565
0.00014883
0.000161455
0.000153667
0.000278588
0.000149809
0.000148338
0.041677
0.0162897
0.0847977
0.000147188
0.000147228
0.0495772
0.00016251
0.000147731
0.00014856
8.96927e-05
0.000154337
0.000146412
0.0472137
0.000230482
0.000178843
0.0337357
0.000146433
0.000156871
0.0446891
0.000147648
0.000148041
0.000146797
0.000161024
0.000151191
0.000148065
0.000185003
0.0114976
0.000182769
0.00016978
0.000147847
0.000149376
0.000189477
0.000171845
0.000151869
0.00014939
0.000146352
0.000149817
0.000196146
0.000162433
0.000196826
0.00015695
0.000208337
0.000144699
0.000156115
0.000146321
0.000188461
0.000147678
0.0537804
0.000149425
0.000146305
0.0485184
0.000147941
0.000199348
0.000158786
0.000159124
0.000200211
0.000147094
0.000146428
0.000153315
0.000147964
0.0363734
0.000214546
0.000148552
0.000209304
0.000234567
0.000169598
0.000151216
0.0482308
0.000148587
0.000184736
0.000145713
0.0869012
0.0330241
0.000201719
0.0787573
0.000147395
0.0261986
0.0001477
0.000147433
0.000162297
0.000218471
0.000168709
0.00016755
0.000151077
0.000159757
0.000147736
0.000157218
0.000217256
0.000167106
0.0521499
0.000196248
0.00355517
0.000147073
0.000176619
0.000210873
0.0440001
0.000149708
0.000189547
0.000171559
0.000169025
0.000148118
0.0164501
0.000162194
0.000146595
0.0579794
0.000159378
0.000148825
6.46587e-05
0.0294819
0.000158378
0.000148056
0.000153353
0.000208764
0.043947
0.000147223
0.000147019
0.000189776
0.000152974
0.0540008
0.000147705
0.0203952
0.000152982
0.0461544
0.000144743
0.000190011
0.0602611
0.0722198
0.0365299
0.0686807
0.000148464
0.0863313
0.000147754
0.00022129
0.000151639
0.000147881
0.000191587
0.0578921
0.000210477
0.000148369
0.0527213
0.000147943
0.000190345
0.000148221
0.000149456
0.0631099
0.000154178
0.0445357
0.000148089
0.000147908
0.0567166
0.000146926
0.00016125
0.000145612
0.000150975
0.000161402
0.000147288
0.000163732
0.000157738
0.000149266
0.000148394
0.032191
0.000181955
0.000220425
0.000259455
0.000149629
0.000171163
0.000155829
0.000165837
0.050801
0.000188976
0.000154403
0.000209587
0.000147273
0.000174962
0.000188138
0.000147824
0.000210753
0.00020865
0.0001939
0.000149856
0.000161471
0.000149854
0.0246214
0.000183061
0.000148075
0.000147815
0.0557975
0.000160291
0.000211885
0.000161093
0.0782466
0.000154385
0.000163348
0.000166295
0.000147084
0.0554929
0.000188283
0.000146399
0.000182586
0.000207971
0.0001688
0.000177283
0.000241065
0.000220408
0.0865166
0.000166767
0.0183049
0.000149695
0.00014663
0.00960737
0.0640722
0.0299109
0.000152732
0.00014722
0.000148362
0.000153614
0.042171
0.000149661
0.00017336
0.0294747
0.000212029
0.000221808
0.000145387
0.0592883
0.000149613
0.000300637
0.000168078
0.000164105
0.000145503
0.000150628
0.000147165
0.00019358
0.000165068
0.0863227
0.000246464
0.000148897
0.000206611
0.0269973
0.000147547
0.000163633
0.000174946
0.000169452
0.000147449
0.000156512
0.000147996
0.000144734
0.000147985
0.000161793
0.0299504
0.000171868
0.000156413
0.000203744
0.046316
0.000149903
0.0824418
0.000148042
0.000148821
0.000149603
0.000170136
0.000264343
0.000599577
0.000198772
0.000147973
0.000165997
0.000221153
0.000148771
0.000148382
0.000177065
0.000147217
0.000148746
0.000156203
0.000298012
0.0482891
0.000149773
0.000247041
0.000174735
0.000216235
0.000153676
0.0492263
0.00015523
0.000153826
0.000169658
0.000244315
0.00018079
0.000147745
0.000168496
0.000146789
0.000147821
0.000151846
0.000149455
0.000185611
0.000149663
0.000157495
0.000147914
0.0766277
0.000147754
0.000221321
0.000280376
0.000126118
0.000144186
0.000148024
0.000185506
0.000160933
0.000171273
0.000158477
0.0568273
0.000147368
0.000187142
0.000148372
0.000146759
0.000233861
0.000166763
0.0250917
0.000147794
0.000147692
0.000173681
0.0340451
0.000148091
0.00017324
0.0744121
0.000147915
0.000147533
0.000160876
0.0830983
0.000148868
0.000148411
0.000187763
0.054416
0.0253523
0.000147645
0.0277211
0.000149708
0.000174865
0.00663709
0.0112499
0.000147145
0.0627932
0.000145491
0.0345061
0.000286329
0.0464193
0.00019245
0.000148307
0.000185157
0.000212754
0.0341735
0.000147859
0.000145653
0.000160149
0.00022154
0.000149078
0.000147646
0.000170155
0.000149469
0.000147842
0.000204092
0.0374334
0.000187199
0.000146763
0.054724
0.00119129
0.000168788
0.000148204
0.0307211
0.000174264
0.000158117
0.000148068
0.000145588
0.000144217
0.000147789
0.000148332
0.0744338
0.0359582
0.000149233
0.000148804
0.000207047
0.000147809
0.00147163
0.000193354
0.000147527
0.000254072
0.000208889
0.000161957
0.000149707
0.0637133
0.000151025
0.000147553
0.000148019
0.000156653
0.000162019
0.00014713
0.0286339
0.000146191
0.000148188
0.0430366
0.000205494
0.000214131
0.000168756
0.000194087
0.0625403
0.000153891
0.000162986
0.0298783
0.000177801
0.00014669
0.0766208
0.0522365
0.000151555
0.00014944
0.0716991
0.000166846
0.0586949
0.000151727
0.000148814
0.000150265
0.000208688
0.00016229
0.000148775
0.000150709
0.0729877
0.000174341
0.000176325
0.000149358
0.000148917
0.045677
0.000149661
0.000161877
0.0318787
0.0431488
0.000149044
0.000149098
0.0590371
0.000193326
0.0473421
0.0554377
0.000161631
0.000151874
0.000176924
0.000158328
0.000148663
0.000146069
0.000197956
0.000150429
0.0573796
0.0760259
0.000166789
0.0534599
0.00020911
0.000178797
0.000159153
0.0549596
0.000161335
0.000212169
0.000244194
0.0257259
0.000244746
0.000156875
0.000156627
0.0001674
0.000148321
0.0484822
0.000151381
0.000152409
0.000220107
0.0534919
0.000195705
0.000152675
0.000292215
0.000168998
0.000171256
0.000196344
0.000167219
0.0863694
0.000147538
0.000185524
0.0863218
0.000240698
0.000174258
0.000145097
0.000215891
0.000172834
0.027172
0.025092
0.000148634
0.000177008
0.000149148
0.000208643
0.000146676
0.000147811
0.062193
0.000178926
0.000148604
0.00014601
0.000145581
0.000149474
0.000164834
0.0574717
0.0496936
0.000148785
0.000148446
0.000148281
0.000145135
0.000209907
0.049292
0.000166244
0.000207921
0.000204145
0.000164933
0.000213208
0.000148816
0.000297824
0.000932635
0.000191878
0.000149095
0.000169614
0.000276343
0.0629985
0.000148119
0.000146946
0.000147564
0.000148062
0.0434423
0.00014902
0.00015671
0.000154747
0.0771052
0.000196545
0.000153703
0.000209803
0.000156275
0.00014802
0.000211179
0.0517288
0.000146978
0.000145745
0.000145001
0.000145576
0.000169147
0.000180776
0.000149672
0.000149248
0.000147339
0.000190397
0.000204401
0.000147352
0.000152309
0.000184369
0.000148178
0.000169283
0.000146004
0.000160727
0.000148492
0.000147802
0.00016296
0.000159853
0.000151431
0.000148044
0.000146903
0.0379532
0.000148057
0.000148701
0.000149021
0.000148269
0.00015898
0.000160372
0.000192165
0.000148543
0.000160516
0.000177974
0.000146217
0.000148477
0.0675848
0.000173775
0.0245682
0.000148747
0.0347391
0.0374526
0.000147994
0.000149654
0.0636333
0.000147789
0.0138397
0.000245721
0.0597982
0.00020891
0.000147745
0.0635642
0.000180337
0.000207816
0.000189145
0.000148921
0.000147589
0.0308693
0.000148162
0.0284014
0.000168694
0.000150279
0.000152559
0.000152073
0.000145925
0.000311028
0.0146474
0.0473981
0.000156343
0.0325209
0.000147354
0.000148811
0.000147502
0.000148646
0.000252181
0.000173121
0.0001501
0.000166234
0.000148008
0.000150947
0.0634784
0.00016852
0.0511428
0.000152772
0.000152569
0.00014778
0.000212522
0.000149201
0.000162011
0.0306811
0.0475222
0.000147875
0.000147622
0.000152295
0.000147652
0.000172317
0.056613
0.000149709
0.000147319
0.000161704
0.000146406
0.00224075
0.000148829
0.00015075
0.00014878
0.000207107
0.0561458
0.000155223
0.0386095
0.000184885
0.000190427
0.0157832
0.0304282
0.0584407
0.0321582
0.0116612
0.000149242
0.000147029
0.000153149
0.000175267
0.0532744
0.0242637
0.000158785
0.000180164
0.000145366
0.000147488
0.000147281
0.000171114
0.0367195
0.000149337
0.0437102
0.00014849
0.000148375
0.0499374
0.000147767
0.0858309
0.000146434
0.000189531
0.000154026
0.000174341
0.000147064
0.000150158
0.000148089
0.000148026
0.0189195
0.00089715
0.000148078
0.000148474
0.0570765
0.000167258
0.000163169
0.0297686
0.0601116
0.000157653
0.000150713
0.000210963
0.0617533
0.0298929
0.000164752
0.00014782
0.0842728
0.000146969
0.0647184
0.000152046
0.000249667
0.000147992
0.000188156
0.000146931
0.000148472
0.000172128
0.000214291
0.000196817
0.000152078
0.000146978
0.0520308
0.0467149
0.000146811
0.0510015
0.000151162
0.000148361
0.000148607
0.0609472
0.0001483
0.0645656
0.00014778
0.00018395
0.0461978
0.00014672
0.0226805
0.000149159
0.000208357
0.000204504
0.000148355
0.000149156
0.00526872
0.000150238
0.000205255
0.0363573
0.000207074
0.000147736
0.000147208
0.000178887
0.000152279
0.000151096
0.000149286
0.0430192
0.000152419
0.000158948
0.00015401
0.0278657
0.000154652
0.00014798
0.000146873
7.01872e-05
0.000149181
0.0296959
0.000160587
0.000232527
0.000149689
0.000184051
0.000239854
0.000147671
0.000147149
0.000164505
0.0535539
0.000147674
0.0762808
0.00019424
0.000156637
0.000167491
0.0666792
0.000148069
0.000162
0.000155372
0.000155734
0.000148266
0.000149523
0.000166399
0.000178529
0.0616466
0.000152063
0.000190348
0.00021702
0.000147361
0.000376187
0.000177294
0.000206916
0.0514579
0.000159077
0.0530989
0.050583
0.000150749
0.00014785
0.000145527
0.000153693
0.000178239
0.000196842
0.000148154
0.000177865
0.000147517
0.000174897
0.000151079
0.000147681
0.000188992
0.000172973
0.000147665
0.000146043
0.0480475
0.0583298
0.000149079
0.000146766
0.000160056
0.0201437
0.000147948
0.0666788
0.000147698
0.000173095
0.000156497
0.000147809
0.000153767
0.000185119
0.000159314
0.0513103
0.000149095
0.000152183
0.000144233
0.000184498
0.000147822
0.000146017
0.0637863
0.000147861
0.000204598
0.000176691
0.0231958
0.000156204
0.000295211
0.000242575
0.000162476
0.000153971
0.0325614
0.000208319
0.0235907
0.000175693
0.000158781
0.0551024
0.000147669
0.00015638
0.000624737
0.000146591
0.000166506
0.000148729
0.000259651
0.000146509
0.000176355
0.000159811
0.000213743
0.000152123
0.000153896
0.000182922
0.000156058
0.000193901
0.0665581
0.000221282
0.000147899
0.000183775
0.0656503
0.00014783
0.000197062
0.000148689
0.000206792
0.000166982
0.000153045
0.000172313
0.000178623
0.000190263
0.000161617
0.000148515
0.0398067
0.0273613
0.000167955
0.000147258
0.0860998
0.000148304
0.0566052
0.000248772
0.046371
0.000246235
0.000220831
0.00946818
0.0001634
0.000205019
0.000148697
0.000152452
0.0001784
0.000146752
0.0513746
0.0243908
0.000207023
0.0496624
0.000162277
0.000144299
0.000222478
0.0165572
0.000147287
0.000172557
0.000171943
0.0691303
0.000148544
0.000209183
0.0571975
0.000230861
0.000208921
0.000145964
0.000149574
0.000144356
0.000153884
0.0730718
0.000370848
0.000229363
0.0150253
0.0696035
0.000147875
0.000145035
0.000203206
0.027097
0.0440021
0.000152059
0.000202736
0.000271712
0.000157515
0.000171677
0.000147169
0.035839
0.000147503
0.000181139
0.000220495
0.000222269
0.000146982
0.0584685
0.000147038
0.000161478
0.00017287
0.000146023
0.000195461
0.000157686
0.0533577
0.0590816
0.000192121
0.0528716
0.000159336
0.000151828
0.000149039
0.000151276
0.000147762
0.0577361
0.000169677
0.0001554
0.000149667
0.0582344
0.0427595
0.000144904
0.000157548
0.00014716
0.0456307
0.0611325
0.000176523
0.000148483
0.000148488
0.00014808
0.000154586
0.042412
0.000149713
0.000202277
0.0582465
0.000147612
0.017681
0.0675686
0.000153824
0.0337041
0.000147161
0.0198731
0.000165018
0.0399626
0.000160886
0.0354855
0.000145926
0.000211682
0.000171429
0.000178422
0.000150188
0.000157287
0.000146647
0.000148539
0.0399678
0.00021884
0.000152831
0.0699044
0.0320918
0.000145832
0.0396361
0.000151931
0.00430408
0.0640401
0.000211571
0.000190427
0.000114684
0.085945
0.0596824
0.000181289
0.000153716
0.052701
0.0275284
0.0307364
0.000191885
0.000181918
0.00014855
0.000149685
0.000149073
0.000144356
0.000147841
0.0664742
0.000145919
0.000153881
0.000148902
0.000186235
0.000148571
0.000146081
0.000147979
0.000178574
0.000150721
0.000149162
0.000148739
0.000148213
0.000165647
0.000151784
0.000145923
0.0582739
0.000147769
0.000147134
0.000165772
0.000150354
0.000156398
0.000147643
0.000247089
0.000195113
0.000147719
0.000161474
0.000148122
0.000147357
0.037489
0.000161053
0.000147837
0.0241504
0.000144686
0.000214113
0.000186557
0.000147406
0.00016539
0.000156219
0.00028866
0.000211239
0.000150557
0.000184571
0.000152261
0.000148246
0.000185005
0.0529407
0.000148367
0.000149998
0.000146991
0.000155956
0.000144012
0.000156189
0.000174248
0.0429364
0.000156258
0.000147464
0.0606482
0.000152353
0.0400503
0.000147716
0.000194164
0.000162718
0.000194644
0.00014773
0.000294327
0.0591837
0.000153418
0.0281885
0.000194163
0.000148255
0.067532
0.000148784
0.000147792
0.00014782
0.000159651
0.000152418
0.0294439
0.000149201
0.000158896
0.000152996
0.0731097
0.000148295
0.000156338
0.000146797
0.000173677
0.000145495
0.000149108
0.000145831
0.000148824
0.000210814
0.000147263
0.0380286
0.0716627
0.000147024
0.000613527
0.000178144
0.000171289
0.0461814
0.0777179
0.0149216
0.00019342
0.0429585
0.000153807
0.000168677
0.000149744
0.000153848
0.000156375
0.00576394
0.000148096
0.000178829
0.0123507
0.000149477
0.0684507
0.000190767
0.0328788
0.000148221
0.000156185
0.000148049
0.000145605
0.000184879
0.0547269
0.000195697
0.000226268
0.000172237
0.000148034
0.00142503
0.000184571
0.000207483
0.000153931
0.000145513
0.0462658
0.0574532
0.000149712
0.000149951
0.000148142
0.000147268
0.000148406
0.000153129
0.0509269
0.000152565
0.00014774
0.0702013
0.0333545
0.000147478
0.000153938
0.000146436
0.0395482
0.000146829
0.000147145
0.0625607
0.0649959
0.000148107
0.000162401
0.0852057
0.000173593
0.000180077
0.000177776
0.000146639
0.0547131
0.000148292
0.00021766
0.0870107
0.000162121
0.000203757
0.000172267
0.000165466
0.000149917
0.000152305
0.000148244
0.000206775
0.000148267
0.00014771
0.000148702
0.00015866
0.000236324
0.0253425
0.000151975
0.000145474
0.000144942
0.000149346
0.0653608
0.0236776
0.0278188
0.000169751
0.000152321
0.000146967
0.000149414
0.000156594
0.0323859
0.000157885
0.00018532
0.0482217
0.000176775
0.000192077
0.000156427
0.000150901
0.000147505
0.00014785
0.000149718
0.00015377
0.000147592
0.000146975
0.000149425
0.0733292
0.000187476
0.000147337
0.000171094
0.000145566
0.0216221
0.0438602
0.000173356
0.0526436
0.0608568
0.000155049
0.0866949
0.000243903
0.000147507
0.0260177
0.0636039
0.000217093
0.000167862
0.000148289
0.000147467
0.000146722
3.94375e-05
0.000181318
0.000177067
0.00018706
0.000165471
0.000147158
0.0754642
0.0775614
0.000176612
0.000220752
0.000147817
0.000208992
0.000160917
0.0438637
0.000217038
0.0575897
0.000153956
0.000152267
0.000184808
0.000182448
0.000145649
0.0210128
0.0760583
0.000178451
0.0592337
0.00153644
5.33088e-05
0.017954
0.000241133
0.000152701
0.000200803
0.000235026
0.000158071
0.0537016
0.000150422
0.000151982
0.0847578
0.000147517
0.000144548
0.000144481
0.000183793
0.000150655
0.000147512
0.0626082
0.000149419
0.0291161
0.0771058
0.000779366
0.000337595
0.000147878
0.00016621
0.00014548
0.000194779
0.000203967
0.000147718
0.000284807
0.000200896
0.000169982
0.000146077
0.000198822
0.000166327
0.00029008
0.000184404
0.000156527
0.000149715
0.000151595
0.0633952
0.000172748
0.00016817
7.78083e-05
0.000150736
0.000147929
0.00014698
0.0849344
0.000147015
0.000180348
0.000145666
0.0281763
0.000149955
0.000472554
0.000172445
0.068131
0.000216125
0.0494362
0.000152766
0.000169687
0.000190946
0.000155504
0.000148974
0.000159231
0.0311896
0.000196369
0.000147487
0.000172621
0.0389246
0.000147648
0.000173096
0.000147698
0.0583079
0.0545569
0.000149885
0.00015073
0.000151289
0.0286837
0.000147742
0.0678331
0.0643697
0.000208205
0.0601156
0.031535
0.000149776
0.000149581
0.000147163
0.0349493
0.000151516
0.0206425
0.000147362
0.000182821
0.000149919
0.000192819
0.000151052
0.000236255
0.000198356
0.00018725
0.000216651
0.0324518
0.0473216
0.000148475
0.000181821
0.052947
0.000148998
0.000243346
0.000149985
0.000170615
0.000156348
0.000164841
0.000147475
0.0622512
0.000149711
0.0563838
0.000149245
0.0524039
0.000173561
0.000148367
0.000146669
0.000168509
0.000162133
0.000151937
0.000211796
0.000153341
0.00018812
0.000190862
0.000169475
0.00014748
0.000812602
0.000183327
0.0628368
0.000213924
0.000147208
0.0145196
0.000243173
0.000205108
0.000148352
0.0353838
0.000159701
0.000148069
0.0625409
0.033609
0.000147941
0.000156324
0.000146755
0.000176073
0.000181724
0.000176474
0.0570133
0.0404837
0.000171925
0.000148392
0.000157968
0.000177146
0.000147486
0.000183871
0.000147514
0.000149475
0.00021203
0.000159017
0.000155192
0.000187562
0.000153838
0.000147385
0.000166667
0.000203409
0.00014745
0.000155879
0.00014873
0.000161609
0.000194579
0.0563108
0.0231515
0.000237938
0.00014549
0.0517319
0.000172265
0.00015262
0.000171998
0.000153805
0.000190238
0.000168576
0.0509525
0.00014995
0.00014797
0.000215924
0.085133
0.0335133
0.000145507
0.000146245
0.000148481
0.000146597
0.0189037
0.000203292
0.000150145
0.000149417
0.0238799
0.0544913
0.000281133
0.0742586
0.000146754
0.000170108
0.000169067
0.000168054
0.000200263
0.000147258
0.038335
0.000190448
0.0248187
0.000146967
0.0611766
0.000260974
0.000149664
0.000176807
0.0302132
0.00014586
0.000149351
0.0465278
0.0470947
0.0587362
0.000150206
0.000150428
0.000149313
0.0536384
0.0618784
0.000173045
0.0540059
0.000148225
0.0316872
0.0670487
0.000148505
0.0517483
0.00014985
0.000195502
0.000203822
0.0737143
0.000146842
0.000154179
0.000171048
0.0736953
0.000152128
0.0627886
0.000167542
0.085762
0.000172572
0.000153954
0.000147364
0.000179109
0.000148361
0.000145807
0.000147126
0.000219368
0.000159828
0.000149809
0.0288556
0.000158188
0.0468284
0.000147275
0.000154869