/*--------------------------------*- C++ -*----------------------------------*\
| =========                 |                                                 |
| \\      /  F ield         | OpenFOAM: The Open Source CFD Toolbox           |
|  \\    /   O peration     | Version:  v2012                                 |
|   \\  /    A nd           | Website:  www.openfoam.com                      |
|    \\/     M anipulation  |                                                 |
\*---------------------------------------------------------------------------*/
FoamFile
{
    version     2.0;
    format      ascii;
    class       volScalarField;
    location    "300";
    object      nut;
}
// * * * * * * * * * * * * * * * * * * * * * * * * * * * * * * * * * * * * * //

dimensions      [0 2 -1 0 0 0 0];


internalField   nonuniform List<scalar> 
27915
(
0.00298883
0.000319311
0.00543349
0.0140821
0.000857652
0.00193175
0.0104741
0.000474677
0.00097298
0.00166455
0.000224339
0.00199646
0.000421251
0.0129457
0.0123398
0.000861965
0.00861241
0.000573107
0.00754358
0.00112727
0.0127574
0.00412013
0.0100219
0.00280239
0.00582946
0.00585033
0.00583833
2.61571e-05
0.0143602
0.0119192
0.000225652
0.00585935
0.00881157
0.00122307
0.00763775
0.00583885
0.00396462
0.000810436
7.84459e-05
0.00156337
0.00583074
0.000701055
0.00583233
0.000537137
0.00111195
0.00583368
0.00271998
0.00174567
0.00376028
0.00408277
0.00178971
0.000597419
0.00135122
0.00156444
0.000217571
0.00463394
0.0113132
0.00592421
0.00401845
0.0139273
0.00585909
0.000184709
0.0005857
0.000406182
0.00583628
0.00194165
0.00198245
0.000409145
0.0131154
0.000564929
0.000653615
0.0119214
0.00583043
0.00584335
0.000509633
0.000287597
0.00117642
0.000587192
0.000360728
0.00188322
0.000698118
0.00154958
0.00584857
0.00450007
0.0039591
0.0058347
0.003721
0.000672846
0.000231175
0.000548715
0.00584282
0.000301073
0.000849692
0.000245689
0.000711396
0.00168898
0.00441626
0.00211245
0.00584241
0.0117813
0.00583596
0.00583411
0.00607026
0.000707748
0.00583085
0.00434925
0.00583745
0.000205076
0.000151425
0.00156699
0.0058337
0.00119074
0.000428331
0.0134218
0.00186624
0.00114317
0.0102441
0.0058454
0.000955798
0.00583499
0.000499173
0.000958992
0.000165955
0.000619763
0.00180556
0.00583836
0.00109522
0.0117978
0.00193044
0.000978306
0.00149354
0.00583224
0.0058349
0.00524085
0.00405668
0.00187362
0.00583064
0.00584378
0.000438907
0.00583403
0.0148001
0.014285
0.00279714
0.0120595
0.000201312
0.00594182
0.00181123
0.0110034
0.000510009
0.00589445
0.00588077
0.000543249
0.0012901
0.009702
0.000553858
0.000532755
0.00521732
0.00442348
0.000661008
0.00280183
6.97943e-05
0.000510234
0.00119064
0.00365367
0.00271793
0.00200309
0.000987181
0.00037907
0.00491568
0.00030533
0.0112445
0.00423697
0.00927137
0.00583155
0.00583644
0.00107126
0.00148482
0.00290086
0.00187853
0.0002207
0.00447657
0.00198216
0.00583317
0.00206008
0.0131538
0.000933862
0.00064503
0.00583129
0.00489629
0.00048191
0.00264524
0.00082568
0.00583138
0.00583209
0.00583054
0.00542763
0.00205571
0.00120792
0.00165563
0.0112578
0.00017324
0.000398367
0.00121222
0.000124698
0.0028359
0.00178817
0.0129853
0.000809249
0.00270743
0.000803023
0.014469
0.00324953
0.0119624
0.0012756
0.00170531
0.00583459
0.00104961
0.00991031
0.000792694
0.00174128
0.0110514
0.000906927
0.00037067
0.00583352
0.00051743
0.000806674
0.000408835
0.00236968
0.000198413
0.00432562
0.0104739
0.00583374
0.00702857
0.000680516
0.00417956
0.00262473
0.00164676
0.00194174
0.000315394
0.00583033
0.0058343
0.0119847
0.00034669
0.000852844
0.00583323
0.000626182
0.00104824
0.00114916
0.000423215
0.00127967
0.00583286
0.00219385
0.00131939
0.00583546
0.000720821
0.000809751
0.0021172
0.00193427
0.000524814
0.0141565
0.0107384
0.00183694
0.00583033
0.00586159
0.000761283
0.00129147
0.00583643
0.00583362
0.000716653
0.0028784
0.00502547
0.00583226
0.00324963
0.000556896
0.00115842
0.0148625
0.00262895
0.0114531
0.0134196
0.0149184
0.000919073
0.0103951
0.00086734
0.00576934
0.000444412
0.000882078
0.000452936
0.00119063
0.000111993
0.0104105
0.0013034
0.000728417
0.00409347
0.000224771
0.00214603
0.00582984
0.00264463
0.0131688
0.000367507
0.00446305
0.000895307
0.00446516
0.000234972
0.0058323
0.00133842
0.0141672
0.00583428
0.000236118
0.00569823
0.00152606
0.000423703
0.00378897
0.0146048
0.00109212
0.0142127
0.00583003
0.00588102
0.00583319
0.000470143
0.00014514
0.00586695
0.00583268
0.00180101
0.00176455
0.000835754
0.000608822
0.00583258
0.000385
0.000632284
0.000895685
0.00358714
0.0147194
0.000416887
0.00741742
0.0148297
0.000968064
0.000519508
0.000908674
0.000214903
0.000975885
0.000709794
0.00165199
0.00043878
0.00014527
0.000173566
0.0113661
0.00396371
0.00012906
8.10905e-05
0.00266492
0.000448625
0.0141303
0.00116807
0.00115896
0.0134164
0.000178291
0.000660455
0.00481505
0.00618802
0.00204526
0.0119018
0.00503069
0.00583505
0.000543687
0.000458513
0.00583578
0.000271361
7.76121e-05
0.00037309
0.000722503
0.000603227
0.000943094
0.000897605
0.000239954
0.000665466
0.00129648
0.00371805
0.00293999
0.0124992
0.000613684
0.0107688
0.00184468
0.00103985
0.000427356
0.00583354
0.000144059
0.00177311
0.000967557
0.000727974
0.000398275
0.00510562
0.00130805
0.00014121
0.00076448
0.00396479
0.00141659
0.00057271
0.00141959
0.00188892
0.00104639
0.0147252
0.00103995
0.00583324
0.00583629
0.0144122
0.00215947
0.00018756
0.00583326
0.000961025
0.000560005
0.0058319
0.0019733
0.00583588
0.00147173
0.00195812
0.000354144
0.00583164
0.000398727
0.0004316
0.00583043
0.0144772
0.000303654
0.000699387
0.0149033
0.000275877
3.68017e-05
0.000679414
0.00460018
0.00583783
0.00117046
0.000491281
0.00110908
0.00044548
0.000337919
0.0136549
0.000421184
0.00583352
0.00434438
0.00583183
0.000311735
0.00583479
0.00583249
0.000139633
0.000772959
0.00583155
0.000524777
0.0015344
0.011751
0.000631686
0.00584009
0.00263204
0.00208096
0.00583291
0.00717143
0.00583389
0.00131585
0.000786031
0.00584489
0.000830912
0.0139038
0.0135303
0.00583038
0.000779384
0.00196757
0.00213117
0.00207427
0.000898086
0.0144732
0.00259299
0.000794813
0.000896489
0.00569375
0.0132384
0.00589465
0.00583645
0.000597481
0.000319178
0.0146464
0.00109969
0.000991112
0.00137791
0.000312019
0.0147128
0.0136982
0.00287879
0.00586293
0.00145783
0.00149782
0.00103648
0.000780285
0.00584656
0.00204235
0.000408178
0.00200901
0.00070993
0.00127811
0.00583645
0.00190864
0.000666662
0.000411498
0.0014782
0.00403019
0.000442489
0.0131072
0.00346001
0.000947542
0.00010416
0.00583731
0.00170118
0.00376889
0.00584821
0.0041664
9.54805e-05
0.00583221
0.0118753
0.0121876
0.000224718
0.00149741
0.0103954
0.000906898
0.000145721
0.00583214
0.00583499
0.00165248
0.00177225
0.000959783
0.00136236
0.00167039
0.00293339
0.00167231
0.000803639
0.00443062
0.00583222
0.00583359
0.00138008
0.0010769
0.00592949
0.00827103
0.000459953
0.000143154
0.00583488
0.00180364
0.00583268
0.000137099
0.0058599
0.00584692
0.000409819
0.00461878
0.00059105
0.00583095
0.00534127
0.0129189
0.000823957
0.00583302
0.0138374
0.000907306
0.00583675
0.00449699
0.000138869
0.00142218
0.000695419
0.0058343
0.000136809
0.00187608
0.000836068
0.000920321
0.00583369
0.000916382
0.0146488
0.00233947
0.00584185
0.0058359
0.00583766
0.00154559
0.000516632
0.00583522
0.0145478
0.0118987
0.000166325
0.00369859
0.000871665
0.000930157
0.0058392
0.00584156
0.00112862
0.000209227
0.00193346
0.00163427
0.00758637
0.00045726
0.00015399
0.00384745
0.00583023
0.00332904
0.00562622
6.28563e-05
0.000145361
0.012299
0.00771116
0.00185903
0.00413157
0.00457511
0.00703736
0.00190136
0.000924154
0.000688581
0.0022535
0.00404058
0.000909613
0.000404444
0.00583212
0.00425592
0.000937307
0.00031265
0.000851605
0.00992646
0.000329618
0.00451984
0.00583057
0.000675163
0.00175136
0.00310339
0.0120576
0.000912575
0.00583241
0.00067833
0.00127773
0.00429878
0.000985215
0.00191846
0.00583606
0.000912323
0.000619453
0.00604595
0.00214152
0.000730019
0.0096723
0.00044947
0.000295872
0.00583628
0.00583554
0.00583042
0.00022341
0.00127917
0.000259722
0.0115274
0.000802773
0.00285564
0.00588491
0.000108956
0.00584858
0.00181938
0.00149597
0.00376491
0.000347497
0.00115946
0.00291699
0.00245555
0.00219403
0.000382436
0.00256182
0.00583241
0.00211096
0.0021379
0.000530436
0.00584145
0.00365023
0.000898172
0.00493061
0.00407169
0.0042815
0.00584565
0.00148891
0.00582887
0.00588455
0.000985036
0.000585122
0.0014474
0.008276
0.00583073
0.00070828
0.0137492
0.00982419
0.000354484
0.00583147
0.000304069
0.00207101
0.00583324
0.00170766
0.00144108
0.00105996
0.00583398
0.00405624
0.00227975
0.00937321
0.00382356
0.000906831
0.000393077
0.000181862
0.000521929
0.00583628
0.000939311
0.00011581
0.00583349
0.000280145
0.00517697
0.000793584
0.000462961
0.000125786
0.000664803
0.00582843
0.00425374
0.00161428
0.0135921
0.000625661
0.000320308
0.000960102
0.000148951
0.00588463
0.00583052
0.00583357
0.00583645
0.00219571
0.00584254
0.0019769
0.00156823
0.00193473
0.000794272
0.000901609
0.0140186
0.00262918
0.0058307
0.00414699
0.00143281
0.00583382
0.000435255
0.00161149
0.00583183
0.00583555
0.00128002
0.000773339
0.00199179
0.0019961
0.00998461
0.00588527
0.00260092
0.0134275
0.00136398
0.00633338
0.00583342
0.00125835
0.00169752
0.00037305
0.00583355
0.00125903
0.000416755
0.000305004
0.000201691
0.000302906
0.00801176
0.00125759
0.00826336
0.00582908
0.00884722
0.0029268
0.000398441
0.00948002
0.000447905
0.00165838
0.00542332
0.00114723
0.000861249
0.00229441
0.000195222
0.00583151
0.00255174
0.000943262
0.00459863
0.000227848
0.000971466
0.00264841
0.00319131
0.0106455
0.00587665
0.00583344
0.000391481
0.00583042
0.00236997
0.0115163
0.0148627
0.00194027
0.00582816
0.00583198
0.00138598
0.0108574
0.00583036
0.000299397
0.000636356
0.0016068
0.000994838
0.00141833
0.000977273
0.00598039
0.000269211
0.00913161
0.00205497
0.000425593
0.00198226
0.0149345
0.00105955
0.00561603
0.00583345
0.000792104
0.00584162
0.00299946
0.0133215
0.000780107
0.0105476
0.00583361
0.000647889
0.000198338
0.01065
0.00089785
0.000365368
0.00583349
0.000767467
0.00191884
0.000152399
0.000464345
0.00921573
0.00167855
0.00133741
0.000282218
0.00045087
0.0111484
0.0047977
0.0148904
0.00135261
8.05901e-05
0.0058352
0.000313621
0.000644452
0.00583601
0.00125219
0.000624999
0.00190893
0.00179167
0.00583686
0.000169574
0.00193681
0.000430558
0.000958667
0.00251751
0.0128239
0.00132774
0.00971214
0.00584827
0.00141492
0.000769199
0.00041808
0.00127646
0.0144493
0.00675858
0.000360205
0.00583232
0.000375184
0.000144436
0.0134143
0.000627115
0.00105783
0.00211091
0.00126353
0.00584377
0.0012831
0.0149743
0.000630454
0.00101774
0.00115296
0.00889749
0.00584747
0.00583349
0.00540782
0.00189835
0.00146565
0.00582791
0.00583186
0.00584159
0.000170389
0.00600467
0.00583419
0.00583971
0.0058345
0.00353519
0.00199874
0.0116287
0.00485875
0.00436427
0.00102033
0.00169039
0.00583148
0.000626807
0.000287869
0.00886205
0.00209891
0.00262359
0.00136103
0.00584689
0.000912658
0.00064203
0.00636262
0.00111149
0.0138537
0.0025199
0.00583817
0.00144189
0.000285998
0.0147044
0.00583311
0.000925486
0.00205045
0.00102858
0.0058859
0.00933663
0.00583124
0.00102619
0.0140121
0.00584242
0.0014483
0.00137413
0.00176088
0.00196271
0.00141458
0.0103014
0.00183468
0.00558347
0.00583674
0.0147445
0.00583817
0.00099527
0.000158599
0.00583334
0.0035672
0.00393276
0.00583908
0.000929115
0.000223415
0.00220628
0.000109604
0.0046898
0.0129322
0.00484031
0.00102454
0.0147706
0.0034776
0.00583834
0.00588533
0.0117582
0.0144543
0.0058338
0.00348002
0.00158882
0.00015483
0.0149385
0.0130017
0.000308888
0.00583347
0.005832
0.00583375
0.00139595
0.00117652
0.00584786
0.0127277
0.00585683
0.00585271
0.00583168
0.000681763
0.000138931
0.00453316
0.000291903
0.000712542
0.00211396
0.00152745
0.00412134
0.0134416
0.000498571
0.00583355
0.00573252
0.000276987
0.00137535
4.19018e-05
0.000248284
0.0058846
0.000608776
0.00585309
0.0116992
0.00100346
0.000963294
0.000152943
0.00585393
0.00585163
0.00585226
0.00104844
0.00584069
0.000227808
0.000312705
0.00137014
0.0127793
0.00583041
0.000195395
0.00347101
0.00583342
0.00041036
0.000604793
0.000186539
0.00583608
0.00384743
0.00567564
0.00403325
0.00699741
0.00583042
0.00520476
0.00928427
0.0021413
0.00382252
0.00590894
0.000119004
0.000861154
0.00583787
0.013159
0.000185861
0.00140817
0.00446836
0.00586805
0.000596644
0.0101596
0.00584032
0.00583773
0.00588476
0.000390362
0.00180495
0.00583284
0.00119364
0.00214129
0.000412094
0.000896088
0.00456777
0.00583496
0.000650141
0.0014321
0.0015685
0.00264216
0.00583863
0.00583611
0.00173914
0.00213356
0.00032645
0.00209915
0.000373864
0.00584411
0.000454057
0.00583608
0.000202654
0.00476204
0.0125966
0.00230749
0.0058417
0.00906884
0.00431208
0.00101273
0.00201846
0.00064875
0.000928193
0.00583145
0.00585224
0.000888925
0.00452474
0.00880327
0.000951024
0.0026186
0.000819809
0.000773382
0.000907573
0.00594857
0.00911454
0.00583293
0.00123002
0.00587024
0.00816258
0.00687281
0.000287626
0.0144903
0.00583065
0.00475893
0.00424886
0.00456864
0.000380721
0.000737127
0.000916469
0.000280738
0.0018155
0.000883177
0.00583075
0.000690009
0.000168236
0.000188573
0.0138533
0.0017339
0.000209858
0.00583152
0.00136052
0.000906009
0.012886
0.00219267
0.00171045
0.000546384
0.00149534
0.0058315
0.00462273
0.000652497
0.00583045
0.0129522
0.000903592
0.00583353
7.26801e-05
0.00390043
0.000736214
0.00459954
0.000985543
0.000800977
0.0128822
0.00518859
0.00583287
0.00192626
0.0012048
0.0125455
0.00583071
0.00448535
0.00125605
0.0122538
0.00584792
0.00205951
0.0113805
0.0149575
0.00777337
0.0147222
0.00583321
0.0108024
0.00426575
0.000734878
0.00208505
0.00583073
0.00120863
0.0137547
0.00109184
0.00278944
0.0116217
0.00583309
0.00196513
0.00583473
0.00267921
0.0134032
0.00150512
0.0108479
0.00538921
0.00583222
0.0126948
0.00584829
0.000256062
0.00586834
0.00215321
0.000490928
0.00504574
0.00211501
0.000302119
0.00583473
0.00364606
0.00597744
0.000400905
0.00073384
2.5551e-05
0.00215625
0.00122941
0.000431342
0.000150063
0.0116955
3.8299e-05
0.00150656
0.00111413
0.00503778
4.94922e-05
0.000357222
0.00583241
0.000928824
0.00116959
0.000511475
0.00583623
0.000320277
0.00143462
0.00371128
0.000418031
0.00574083
0.00472924
0.0110814
0.00051624
0.00063257
0.000200693
0.0144165
0.00264041
0.000331272
0.000880488
0.00584848
0.00894497
0.000175781
0.00588497
0.000412853
0.00106256
8.43778e-05
0.000441414
0.000746401
0.000567561
0.00875651
0.00051639
0.00205546
0.00583566
0.0058541
0.00164089
0.0141698
0.00531387
0.000692594
0.00583615
0.00583363
0.000586062
0.00675027
0.00583569
0.000658004
0.00622243
0.000658614
0.000175427
0.00583935
0.013967
0.00583557
0.000344424
0.000888208
0.00130036
0.00586741
0.00359056
0.0058353
0.000593959
0.000877819
0.0106545
0.000715995
0.00206032
0.000610809
0.00506064
0.00584329
0.00122132
0.000127358
0.00104104
0.00583198
0.000468568
0.00583226
0.00584422
0.00353902
0.00189849
0.00552614
0.000183974
0.000511779
3.93214e-05
0.00894891
0.00583631
0.00889399
0.00583347
0.00583353
0.00164276
0.000383684
0.000415646
0.000448466
0.00113996
0.00583097
0.000144564
0.000577734
0.00583318
0.00583384
0.000309116
0.00583553
0.00583281
0.000428364
0.000312165
0.0117846
0.00157685
0.000625729
4.99462e-05
0.000652081
0.000947177
0.0109601
8.46181e-05
0.000715525
0.00146097
0.000728522
6.6115e-05
0.00583232
0.000949717
0.00583033
0.00379659
0.0010268
0.00265835
0.000302749
0.00583558
0.000337362
0.00583388
0.0144206
0.00584339
0.000894137
0.000369663
0.000227862
0.00582819
0.00583882
0.00019024
0.00171026
0.0012011
0.000338381
0.0131658
0.00561857
4.30032e-05
0.00309834
0.00583056
0.000167677
0.000199859
0.00536691
0.00365784
0.00583731
0.000405321
0.00697337
0.00507201
0.000650046
0.01271
0.00454105
0.00541123
0.000503098
0.00813744
0.00583385
0.00285781
0.000369675
0.0136351
0.00537666
0.00583222
0.00633172
0.00583571
0.00041538
0.00115408
0.00143161
0.00583032
0.0139366
0.00584429
0.00783548
0.00032248
0.0105176
0.000254392
0.00334299
6.05775e-05
0.00103406
0.00830529
0.0058408
0.00586758
0.000230037
0.000888411
0.00331261
0.00429159
0.000380202
0.00583502
0.005843
0.000470294
0.00769701
4.17475e-05
0.00584007
0.0140572
0.000559641
0.000390651
0.00583416
0.00453525
0.000589171
0.00198171
0.00428684
0.00583147
0.00582867
0.00583848
0.00583328
0.0119569
0.00841483
0.00583462
0.00583323
0.000243605
0.00399765
0.000508637
0.000548602
0.0046816
0.000717263
0.000104448
0.00195944
0.00583571
0.0146464
0.00103821
0.00570914
0.00583104
0.00175127
0.00180163
0.00586555
0.00696085
0.0058424
0.00320647
0.0127083
0.00130161
0.00100799
0.000388704
0.000325537
0.0136432
0.000681625
0.00121222
0.006583
0.00182912
0.00583035
0.0113916
0.0113869
0.00149205
0.00171273
0.00936888
0.000519526
0.0142469
0.00210467
0.00583375
0.00205764
0.0011809
0.000670504
0.00225948
0.00118225
0.0148608
5.84691e-05
0.000721569
0.00583495
0.00583362
0.0112254
0.00583556
0.00186084
0.00668231
0.00929973
0.00181047
0.00583418
0.0138506
0.000445053
0.0132583
0.0126229
0.000479921
0.000950799
0.00147209
0.00202437
0.00583323
0.005829
0.000282428
0.00362687
0.0120723
0.0098943
0.000610195
0.0125482
0.00112199
0.000496737
0.000356709
0.00941446
0.000802321
0.000449675
0.000599451
0.000686936
0.000717654
0.00173956
0.00122519
0.000695471
0.00341445
0.00929748
0.00155679
0.000717146
0.000573815
0.00813192
0.00176716
0.000999217
0.000349693
8.13125e-05
0.000976072
0.00172822
0.000145424
0.00743997
0.00584018
0.000308617
0.00961055
0.000720854
0.000410841
0.00583402
0.000199971
0.000741553
0.00681239
0.00329974
0.00583315
0.000139158
0.00195922
0.000689577
0.0058305
0.00583238
0.0140066
0.000331891
0.00583347
0.00583532
0.00583182
0.00583494
0.000658603
0.0120391
0.00895562
0.00461784
0.00583335
0.00297429
0.00583478
0.00110081
0.0134507
0.000138024
0.000234699
0.000452922
0.00159672
4.50774e-05
0.00583339
0.000296847
0.000241305
0.000253971
0.00313639
0.000560275
0.00027263
0.0145586
0.00583236
0.00584637
0.00584287
0.00583344
0.0127219
0.00215158
0.00120504
0.00234182
0.0148934
0.000330251
0.000623535
3.72625e-05
0.000445266
0.00360978
0.000882691
0.00909816
0.00588603
0.00586159
0.00583392
0.00583302
0.00106001
0.000504803
0.00318495
0.00271823
0.00591364
0.0016729
0.000382769
0.00591349
0.00207704
0.00117259
0.00583429
0.00149041
0.005829
0.000475706
0.00583344
0.00583373
0.00128264
0.000905267
0.00260398
0.00583282
0.00584507
0.00940382
0.00534067
0.00211517
0.00436307
0.00583261
0.000376151
0.00227004
0.00202024
0.005833
0.00164825
0.00138642
0.00584346
0.00583341
0.0149393
0.000655698
0.00304463
0.00583277
0.00737463
0.00154343
0.00583461
0.00233914
0.0143644
0.00583456
0.00356997
0.000701849
0.00943543
0.000217231
0.00390697
0.0117378
0.000598664
0.00044672
0.0007703
0.00590807
0.00414701
0.00681502
0.00373094
0.00517944
0.000196574
0.00411273
0.000709254
0.00151166
0.00586438
0.000295413
0.00380532
0.0132295
0.000471854
0.00576905
0.00489829
0.00215736
0.00511288
0.00583343
0.000610719
0.000584256
0.00136187
0.000136139
0.00583444
0.00104363
0.014179
0.000117229
0.0135729
0.000683001
0.000719544
0.00373335
0.000630651
0.0058344
0.000476486
0.00637903
0.0131943
0.00583071
0.00440257
0.000809558
0.00583188
0.00179791
0.0118647
0.00583571
0.00574531
0.00050305
0.00583842
0.000866571
0.00216194
0.00126922
0.00583326
0.00124033
0.0114836
0.000477649
0.00135419
0.00141522
0.0017712
0.00402939
0.00527556
0.00957055
0.00593272
0.00313301
0.00583466
0.00582915
0.000648751
0.0011123
0.00839075
0.00477338
0.0060029
0.000614815
0.00584537
0.00551152
0.00507652
0.000401061
0.00820317
0.00583486
0.0128597
0.00423535
0.00277556
0.0107224
0.00418473
0.010999
0.00586726
0.000211246
0.000868524
6.48911e-05
0.00583246
0.00210471
0.00583125
0.00583111
0.00423028
0.000545266
0.00514432
0.00583269
0.0128818
0.000157076
0.000677198
0.00601859
0.0129756
0.000669724
0.0011142
0.000251879
0.00882706
0.00813363
0.00167414
0.00583715
0.00769016
0.00583785
0.0139284
0.00170351
0.000311269
0.00334862
0.00060078
0.00584425
0.00289477
0.00174809
0.000982754
0.000277796
0.00155417
0.00583868
0.0138495
0.0102055
0.00583324
0.0136885
0.00183555
0.00317078
0.00242814
0.0143085
0.00403294
0.0143024
0.00583815
0.000329548
0.00951528
0.00584089
0.00462303
0.00316073
0.000836074
0.000475876
0.00583325
0.00583437
0.000492848
0.00419564
0.000860153
0.00511784
0.000703217
0.00583184
0.00529171
0.000232884
0.000834533
0.0017093
0.00583478
0.0127184
0.00105328
0.000316264
0.00182987
0.0051174
0.00237847
0.00335666
0.00584577
0.000139489
0.00306258
0.00456923
0.000988332
0.000775751
0.00200501
0.000953929
0.000580274
0.00483536
0.00584658
0.000657973
0.0117745
0.00563899
0.0148798
0.000424944
0.000857052
0.00100426
0.0111622
0.00520593
0.000739747
0.00159994
0.00157429
0.00583435
0.00583515
0.000128503
0.000539865
0.0144152
0.00178641
0.000591227
0.000501345
0.00590501
0.000295267
0.00101881
0.00124667
0.0115373
0.000353192
0.0133207
0.00916975
0.0022029
0.00446898
0.00583236
0.000631966
0.000509534
0.0015407
0.00447973
0.00180326
0.00583029
0.00111324
0.00210795
0.00584477
0.000714985
0.000401009
0.00490638
0.00583446
0.0108344
0.0128769
0.000107795
0.00587555
0.000933883
0.00338365
0.00346829
0.0147408
0.0043675
0.000129771
0.000462535
0.00388875
0.000636486
0.00118507
0.00022327
0.0109213
0.00583398
0.000901922
0.0058381
0.000443966
0.00583612
0.0058659
0.0117202
0.00453727
0.000102459
0.00179112
0.00504072
0.0024951
0.000293742
0.000584914
0.000981992
0.00207187
0.00645936
0.000887915
0.00443792
0.00052613
0.00070858
0.0118823
0.00583345
0.000912986
0.000386215
0.00583005
0.00180423
0.00583339
0.000143988
0.00583045
0.000444645
0.000222662
0.0009944
0.00152586
0.00186654
0.00149914
0.00111097
0.000333195
0.0116904
0.000562615
0.00583538
0.000149282
0.0144438
0.00583076
0.00156333
0.00583355
0.000751878
0.000132761
0.00173871
0.000105468
9.95937e-05
0.000224724
0.000561032
0.00583277
0.00998552
0.00471675
0.000122466
0.00583479
0.00807026
0.00285347
0.0139866
2.81222e-05
0.0132015
0.000633359
0.000563403
0.00144978
0.00132759
0.000435485
0.00469759
0.00276341
0.000232783
0.00584835
0.0134653
0.00353147
0.00119259
0.0135443
0.00208169
0.00583885
0.000880647
0.00298301
0.00583534
0.00177561
0.00130316
0.0147653
0.00583314
0.00117111
0.0142348
0.000791588
0.000220868
0.00585588
0.00167117
0.00583246
0.000722612
0.0146086
0.000239293
0.000807093
0.00289323
0.0149109
0.00447852
0.00583439
0.000342802
0.00438925
0.00884583
0.000788136
0.00136836
0.000331876
0.00200925
0.00155249
0.00583739
0.00779075
0.00583106
0.000633861
0.000248452
0.000198366
0.00590656
0.0142635
0.00583194
0.000751815
0.00058346
0.00583029
0.000415257
0.000709986
0.0137858
0.0128122
0.00160229
0.0137014
0.000230959
0.00595812
0.00583384
0.00155446
0.00583049
0.0129987
0.000985228
0.000673231
0.00583561
0.00786001
0.0106252
0.00583376
0.000885666
0.0058475
0.0117089
0.0104853
0.0013341
0.00583325
0.00258331
0.00583228
0.00263374
0.0100713
0.00583574
0.00138391
0.0137783
0.00584057
0.00401535
0.0138143
0.000721893
0.00641119
0.00584559
0.00365949
0.000102612
0.0087168
0.00105439
0.00614687
0.00583439
0.000275799
0.0011534
6.78089e-05
0.00355927
0.000696542
0.00583
0.00583342
0.0121039
0.000969254
0.00179578
0.0150217
0.00557766
0.00586391
0.00984526
0.00086356
0.00135692
0.0121487
0.00105022
0.00112261
8.78707e-05
0.0105484
0.0141909
0.000399785
0.000688263
0.0119291
0.00579336
0.00826633
0.00152613
0.000627999
0.00583329
0.00583576
0.0025205
0.00583772
0.00583635
0.0114263
0.00585541
0.000657854
0.00206287
3.40009e-05
0.00583321
0.00583373
0.00583363
0.00184602
0.00187833
0.00279206
0.00226595
0.00583255
0.00153962
0.000924699
0.00586722
0.0138798
0.00469458
0.00584764
0.000381117
0.00356023
0.000770617
0.00407635
0.000707535
0.00180384
0.005838
0.000307327
0.00437915
0.00584008
0.00759027
0.000208358
0.00466156
0.00363075
0.00584729
0.000955246
0.0001972
0.00584238
0.00011265
0.00118821
0.000367291
0.000697842
0.00149485
0.00102605
0.00132868
0.0058345
0.000449748
0.0123413
0.00445478
0.00134135
0.00584048
0.000421426
0.00583703
0.000612654
0.000419547
0.0127277
0.00043775
0.00583168
0.0140859
0.000856607
0.00821616
0.00467937
0.000285146
0.000532665
0.000483214
0.0045788
0.000297067
0.0111191
0.00300228
0.00618487
0.000490066
0.00583212
0.00362241
0.00583335
0.00583714
0.00545613
0.000624225
0.00134843
0.00716583
0.00583414
0.000342878
0.000956184
0.00694775
0.00583413
0.00051237
0.00590314
0.000399117
0.00587004
0.00583426
0.00583417
0.00583345
0.00109275
0.0058306
0.00815483
0.00381068
0.0058317
0.000205041
0.000148041
0.000197099
0.00452602
0.0144454
0.00381693
0.000197863
0.0103078
0.000143924
0.000218684
0.00162623
0.00065144
0.000489249
0.00171387
0.00308937
0.00181848
0.00285359
0.00224054
0.0115196
0.00149415
0.00580837
0.00325975
0.00167843
0.0058373
0.00586938
0.000917228
0.00896026
0.00176813
0.000167939
0.000212136
0.00583161
0.000319292
0.00197621
0.00113054
0.000720389
0.00584101
0.0132057
0.00929516
0.00236425
0.00130936
0.00583436
0.00583437
0.00583356
0.0030302
0.0135272
0.00119348
0.00386575
0.0144433
0.00945792
0.00426576
0.00149108
0.0058356
0.00898504
0.00582906
0.0058371
0.0146367
0.0138324
0.00583404
0.00180367
0.00777041
0.00203111
0.000507169
0.0015993
0.00584649
0.0136504
0.00583423
0.000360164
0.0109894
0.000276966
0.000385612
0.000110724
0.000400008
0.00583631
0.00175163
0.00371189
0.000723553
0.00298415
0.00384263
0.00230635
0.000664563
0.000760723
0.00471221
0.00088721
0.00583293
0.00583421
0.00583481
0.0107277
0.00460766
0.00413401
0.000195291
0.000964651
0.00584543
0.00230381
0.0012668
0.00581209
0.00204453
0.000450214
0.0133444
0.000149955
0.000241413
0.000714353
0.00107167
0.0046713
0.00584014
0.00583586
0.00061727
0.00583193
0.00584281
0.00220103
0.0122938
0.000542641
0.00584736
0.000420414
0.00585789
0.00477221
0.0124607
0.00219461
0.0138136
0.0138865
0.00214198
0.00822879
0.000608929
0.00583958
0.00645242
0.0141855
0.000903151
0.000732869
0.00583217
0.00584248
0.0058921
5.8371e-05
0.000974132
0.00058207
0.000217464
0.000835864
0.00583567
0.0144924
0.0148837
0.00109654
0.000556598
0.00583341
0.000623077
0.000971768
0.0111641
0.00100305
0.0126072
0.00064477
0.00144083
0.000435589
0.000323163
0.00586013
0.00418054
0.0147287
0.00034077
0.0138624
0.000632507
4.93448e-05
0.00445883
0.000594809
0.00271366
0.00143374
0.000757256
0.000349083
0.00887058
0.00593249
0.000798437
0.0108368
0.0058402
0.00584706
0.00584621
0.00195811
0.00120018
0.00583121
0.0146291
0.00583499
0.00512889
0.0147342
0.000207962
0.000256399
0.00583307
0.000530917
0.00584242
0.00182228
0.000423478
0.00583187
0.000250714
0.000366713
0.000926584
0.00583419
0.000308757
0.000861091
0.000389178
0.000830981
0.00050615
0.00228921
0.00150059
0.0142347
0.00177965
0.0002304
8.9899e-05
0.0011239
0.0058338
0.00584097
0.0129006
0.00583045
9.26308e-05
0.00586684
0.00540236
0.00210185
0.000223464
0.000637615
0.0129805
0.000710354
0.0107405
0.00141147
0.00131177
0.000373412
0.000606665
0.00208912
0.00143041
0.00877531
0.000312217
0.00584341
0.000490443
0.00681712
0.00583933
0.000814554
0.00583428
0.00186768
0.0127367
0.00137377
0.00126471
0.00202948
0.00453979
0.00584363
0.0129757
0.0147205
0.000386788
0.0144804
0.00774078
0.00583588
0.00583535
0.00588469
0.0066899
0.0023051
0.00233336
0.00583073
0.000951783
0.00211156
0.001285
0.0059443
0.000757443
0.000872807
0.000349116
0.0009228
0.00854652
0.0106796
0.00296068
0.000318844
0.013442
0.00583353
0.000661315
0.00286139
0.000431747
0.000576897
0.00188219
0.00583246
0.0146254
0.00583573
0.0140697
0.0058343
0.0111591
0.000821816
0.00309345
0.0058299
7.47265e-05
0.000308526
0.000924355
0.000332378
0.00305493
0.000518654
0.00107354
0.000380186
0.00584458
0.000519235
6.43919e-05
0.00867737
0.000960783
0.00583031
0.00299225
0.000733246
0.00131255
0.00295677
0.00788418
0.000549058
0.00590184
0.0127015
0.00984607
0.00553462
0.000467051
0.00583922
0.00169413
0.00153978
0.000234175
0.0140728
0.00994185
0.000325551
0.00583294
0.00211342
0.000148
0.00479523
0.000343604
0.00439784
0.00180895
0.00106437
0.00135923
0.00117289
0.000334898
0.000617864
0.00572596
0.00167975
0.00134297
0.00584338
0.0017122
0.0024241
0.000565637
0.00183797
0.00259909
0.00433884
0.000747352
0.00584133
0.0136936
0.00144056
0.000700876
0.00170141
0.000634934
0.00109324
8.76608e-05
0.0136995
0.00365055
0.00536071
0.000925549
0.0118753
0.00670126
0.00584225
0.00583058
0.00289232
0.00584707
0.00369664
0.000345278
0.00130754
0.00583509
0.00276685
0.012062
0.000180202
0.00985847
0.00584473
0.000157372
0.000558036
0.00100187
0.000816109
0.00507678
0.0047482
0.000255834
0.00424264
0.00583033
0.0145744
0.000541098
0.0058356
0.00140183
0.007743
0.00585077
0.00583457
0.0103344
0.0132976
0.00920981
0.00116409
0.00157675
0.0058345
0.0139707
0.0143034
0.000671644
0.0119099
0.00312272
0.00743256
0.0136681
0.00583217
0.0138436
0.00583612
0.000455957
0.000497476
0.0148081
0.00584649
0.00149674
0.00019124
0.0113077
0.000992982
0.00672547
0.000214146
0.00770047
0.000494741
0.0024775
0.00584147
0.00183585
0.00583282
0.00585009
0.00591217
3.77092e-05
0.000222938
0.00583596
0.00511551
0.000303401
0.00627285
0.0058358
0.000952189
0.000884418
0.00886422
0.00497813
0.000453108
0.00583289
0.00974405
0.000851951
0.00758515
0.00293298
0.000415962
0.00718495
0.00583177
0.00154242
0.00583409
0.00131729
0.000443613
0.00252644
0.00415117
0.00583347
0.000777147
0.00113701
0.000347648
0.00056861
0.000342673
0.00389319
0.00583495
0.00583249
0.000549003
0.00383091
0.00167113
0.000269771
0.0096902
0.0059033
0.00582982
0.00918494
0.00213942
0.00204149
0.000160657
0.00122687
0.000314086
0.00233676
0.00583364
0.0033363
0.000267867
0.00147662
0.00155928
0.00583136
6.82456e-05
3.01225e-05
0.00583294
0.00583122
0.000912578
0.000825214
0.00700997
0.00113752
0.000812074
0.00583217
0.00314345
0.00110829
0.0148271
0.00369721
0.000153024
0.00167861
0.00178989
0.0101916
0.00583932
0.000612273
0.00584611
0.00114097
0.000213782
0.00228532
0.000550498
0.00583251
5.78927e-05
0.00583416
0.000640588
0.00153088
0.00288559
0.00105796
0.000863998
0.00188376