/*--------------------------------*- C++ -*----------------------------------*\
| =========                 |                                                 |
| \\      /  F ield         | OpenFOAM: The Open Source CFD Toolbox           |
|  \\    /   O peration     | Version:  v2012                                 |
|   \\  /    A nd           | Website:  www.openfoam.com                      |
|    \\/     M anipulation  |                                                 |
\*---------------------------------------------------------------------------*/
FoamFile
{
    version     2.0;
    format      ascii;
    class       volScalarField;
    location    "300";
    object      omega_0;
}
// * * * * * * * * * * * * * * * * * * * * * * * * * * * * * * * * * * * * * //

dimensions      [0 0 -1 0 0 0 0];


internalField   nonuniform List<scalar> 
27915
(
0.025407
0.205803
5.39046
4.10125
0.052669
0.0262796
6.69118
0.0693021
0.0551989
0.0598116
0.0397083
0.0255084
0.627233
3.43289
5.11365
0.0282126
4.03516
0.0492827
10.4011
0.0262787
3.40562
0.0252334
4.03316
0.0254029
0.025218
0.0251596
0.0253012
1.69916
4.16363
4.96671
0.163736
0.0249206
4.06331
0.0262959
9.97182
0.0252977
0.0252901
0.0350694
0.0843116
0.0279444
0.0253032
0.0351105
0.0253766
0.176465
0.187118
0.0255516
0.0253834
0.0373132
0.0252032
0.0251543
0.0384802
0.174102
0.147291
0.0279585
2.06676
5.63156
4.45006
0.0251591
0.0252322
4.21996
0.0249242
0.0646985
0.0949509
5.04341
0.0256852
0.0291921
0.0442897
0.245502
4.382
0.0285344
0.0353913
5.31159
0.0253319
0.0251457
0.0354828
0.0644301
0.0930387
0.0321594
18.5697
0.0255532
0.0349028
0.02806
0.0251588
0.0251454
6.28196
0.0249531
0.0252021
0.0283652
0.830208
0.0504948
0.0253057
1.88145
0.0280505
0.160435
0.0278436
0.038759
5.71271
0.0288414
0.0252567
5.47167
0.0252271
0.0255662
12.086
0.035496
0.025365
0.0254026
0.0253639
0.0753677
0.0897355
0.0584879
0.0255031
0.0262836
2.32725
3.61544
8.79622
0.18116
6.70796
0.0252364
0.0551915
0.024767
0.319957
0.0548813
0.132392
0.0502445
0.0261696
0.024794
0.026301
4.0694
0.0909302
0.0279348
0.0278855
0.0253392
0.0249498
5.77564
5.56551
7.2483
0.025294
0.0251515
0.0308974
0.0249546
4.40045
4.2854
0.0267299
5.17809
0.0720707
0.0253063
0.0257134
4.3689
0.303432
0.0251498
0.0251675
0.0323234
0.159072
4.06229
0.0998946
0.0317964
0.025181
0.0251899
0.0279253
0.0265722
0.0875404
0.122564
0.0921434
0.0252072
0.0253217
0.0271071
7.02545
0.223741
0.0251433
0.186446
5.94598
0.0251906
4.02445
0.0253514
0.0256918
0.172227
0.045429
0.0254132
0.0256591
2.41399
0.0251647
0.0453791
0.0253584
5.60613
3.58018
0.0556139
0.0926508
0.0254046
5.58043
0.0379423
0.0253721
0.276031
0.0254091
0.0253904
0.0253442
4.60078
0.0255065
0.0356066
6.69158
6.58725
0.163793
2.13671
0.0339034
0.670449
0.0253719
0.0293289
4.35584
0.0298966
0.0300406
0.18012
4.87789
0.0253765
5.47047
0.0262701
0.0534036
0.0253317
0.177615
6.7674
0.0594515
0.0327802
4.39733
0.2423
0.131346
0.0254797
0.0342352
0.0355111
0.0639976
0.0254055
2.30243
0.0251798
3.88302
0.0249634
11.4307
0.0315544
0.0251912
0.0254926
4.59787
0.0263625
0.554515
0.0252284
0.0253962
5.97261
21.8731
0.0552562
0.0254517
0.0284845
0.20071
0.0262891
0.623423
0.160507
0.0253669
0.0371733
0.155319
0.0252326
0.040044
0.0273108
0.0374918
0.0270598
0.313511
3.91638
4.69247
0.0257404
0.0253254
0.0248965
0.0395373
0.159335
0.0247322
0.0254953
0.0918887
0.0253626
0.0252329
0.0253469
15.9939
0.0488847
0.0262638
5.05666
0.0264243
4.35879
3.57388
4.76681
0.238728
4.0916
0.0285083
4.99239
0.0307054
0.0283979
0.115642
0.026277
0.665246
4.55422
0.15699
0.0400186
0.0252969
0.162559
0.0292104
0.0249552
0.0253644
4.52624
0.131358
0.0253155
0.25242
0.02515
0.0395523
0.0253675
0.152171
4.10936
0.0253369
2.17671
0.0252377
0.130527
7.16393
5.6301
4.2312
0.0262992
4.24719
0.0249602
0.0250684
0.0249645
0.0639525
0.240796
5.8355
0.0250658
0.0256297
0.0266609
0.254888
0.0284705
0.0252137
0.0893577
0.0524143
0.0592774
0.0253008
4.86772
0.0312136
4.38837
4.6074
0.0558098
0.101173
0.247044
0.159369
0.0272557
0.0302008
0.0551467
0.0628977
0.240382
1.48036
4.28067
0.0252337
0.100046
0.0858374
0.027919
0.112473
3.92109
0.179122
0.0359596
3.63392
0.138297
0.0337025
0.0253154
4.28314
0.0937977
4.43135
0.0251318
0.0253883
0.320347
0.0868862
0.0256499
13.5847
0.0874948
0.0393993
0.0395965
0.0346386
0.230249
0.0280939
0.0417303
0.0671682
0.0259776
0.0253161
0.0254053
4.22779
0.0284955
5.78915
0.0255667
0.20264
0.089996
0.0253412
0.0998089
0.0923144
0.0329303
1.61755
0.118843
5.34744
0.0362119
0.104828
0.0430366
0.0254462
0.0550361
22.4293
4.20124
0.0255676
0.18004
4.37143
0.0343666
0.0254575
0.0256847
4.17266
0.0255018
0.14693
0.0254568
0.0590844
0.0534066
0.0252949
0.0358727
0.0256556
0.0437563
0.0265901
0.329637
0.0253008
0.253564
0.0384722
0.0252242
4.31036
0.241078
0.0664052
4.75054
0.0545579
0.305201
0.0534245
0.0251371
0.0253604
0.0262805
0.0312425
0.0347475
0.0883024
0.318112
3.72835
0.0314196
0.02548
7.65489
0.0252801
4.73569
0.0255867
0.0254465
1.38109
0.135875
0.0252944
0.121457
0.042719
4.38593
0.0358618
0.0252768
0.0268397
0.0291268
0.0253715
9.80857
0.0254149
0.0260023
6.30017
0.0251285
0.0282136
3.85987
5.05541
0.0251981
0.299357
0.0324661
14.317
0.0323356
4.14201
4.18767
0.025414
0.0512303
0.12458
0.0252092
3.52905
0.0251222
0.0256932
0.170565
0.272628
4.74008
0.0262998
0.045058
0.0548248
0.0655671
4.76753
3.78148
0.0253817
0.024906
0.0263153
0.0260207
0.043538
0.0273452
0.0251393
0.0297341
5.95645
0.0257548
0.034436
0.0361388
0.0256923
0.0293084
0.197577
0.0321947
0.0277247
0.0252249
0.201297
4.63024
19.5259
0.226856
0.157397
0.024731
0.115671
0.0253161
0.0248399
0.0251647
0.171419
0.0253805
4.4156
4.2551
0.0475105
0.0278465
5.75162
0.0414336
0.0828172
0.0252129
0.0253886
5.19443
0.0359182
0.0271013
0.149703
0.0256148
0.0252957
0.0257844
0.0273619
0.0252318
0.0253525
0.0254122
0.0259109
0.0274334
0.0252006
4.1693
0.199477
0.0963878
0.0256061
0.0269437
0.0252075
0.105675
0.0250775
0.0249415
0.0314281
0.0251093
0.295471
0.0253778
7.85941
3.444
0.276478
0.0254767
3.76786
0.242777
0.0253284
0.0252063
1.8159
0.0263249
0.0534764
0.0255625
10.6257
0.0265785
0.274899
0.0329983
0.0254276
0.239283
4.5764
0.0256924
0.0253083
0.0256659
0.0253152
0.0972616
0.031362
0.0253823
4.48873
5.52749
1.82024
0.0252209
0.182397
0.234526
0.0249038
0.025258
0.187022
0.0649943
0.0257416
0.113221
3.87258
0.063937
0.0790031
0.0252303
0.025314
7.33464
5.20414
0.211067
2.10598
3.27019
9.61465
0.0294239
7.24592
15.0408
5.02494
0.0319281
0.241172
0.0359433
0.0261578
0.0251803
0.0280344
0.140524
0.0252222
0.0251972
0.0331718
0.0654815
0.101506
4.12916
0.0345912
0.0251265
0.0253508
0.0280856
0.0288921
19.9915
3.24677
0.237455
0.0254367
0.300694
0.0262787
0.0252487
0.0700526
0.0295373
0.0256723
0.0742112
0.0282732
4.2484
0.0371074
0.0402149
3.91061
0.200694
0.0722947
0.025686
0.0256442
0.0251411
2.60985
0.160743
0.0981654
5.51845
0.035269
8.09062
0.0249351
7.09781
0.024943
0.0256008
0.0268026
0.0252102
0.201561
0.0262569
0.0253767
0.0280678
0.0254228
3.0615
0.0260445
0.0254047
0.0904904
0.0293475
0.0342172
0.0250403
0.0252091
0.245638
0.0253151
0.0251526
0.0251692
0.0249283
0.134238
0.0247519
0.0249705
0.118482
0.0283985
0.0267652
9.25399
0.0252875
0.0403051
3.70511
5.78561
2.30703
0.025315
0.0672305
0.0324294
0.0255116
0.0258945
0.046076
0.0277702
0.0254086
0.0252857
0.0255678
8.61015
6.94375
0.0770857
0.120166
1.68438
0.0311164
0.025685
0.0743207
0.081089
0.0254562
0.0586553
0.0253156
0.291204
0.0310433
0.0609759
0.0309229
0.0247532
15.419
0.0258712
4.01049
0.201827
0.907034
0.0331654
0.108787
0.0249581
0.0251944
0.0253954
0.0256928
0.0373349
0.0252372
0.0294252
0.0311527
0.0290571
0.0273217
0.100401
5.51059
0.0259919
0.025265
0.0251707
0.0577168
0.0254207
0.0631334
0.0367406
0.025207
0.0256475
0.160719
0.303468
0.0256998
0.0326101
4.11289
0.0249335
0.0270346
3.62347
0.0307455
6.17329
0.0255216
0.0290106
0.0535158
0.221874
0.0254002
0.0259905
0.0491017
0.0530612
0.0492132
0.999674
4.75494
0.0289311
9.54179
0.0252054
8.7667
0.025408
0.0488428
4.09312
0.0692199
0.053028
0.0253318
0.0443429
0.027363
0.0294838
0.062412
0.0252991
0.0254232
0.0761464
13.0496
0.0953668
0.0350614
0.0259604
0.0253122
4.46133
0.0249765
0.0254732
0.22835
0.0252544
0.0280418
5.17261
4.46945
0.0262527
0.0247367
0.0252915
0.0305757
4.84694
0.0253116
0.233714
2.00514
0.0370609
0.0588747
0.025969
0.125769
0.0259078
0.040593
4.94045
0.0256332
0.185666
0.026006
4.70581
0.0446848
0.0253329
0.0253363
3.86314
0.0253119
0.0253577
3.54494
0.29956
3.92578
0.0255178
0.0309863
1.54551
4.51876
17.6136
0.725731
0.0254605
0.0307108
0.0257241
0.141601
0.202441
5.79503
0.0256958
0.100099
0.0530413
0.122424
4.83265
0.0251174
4.97081
0.150238
1.41777
0.0253834
0.0727967
0.0286766
0.0256657
0.0335938
0.0287466
0.0321531
0.0453007
0.0251844
0.0469122
0.0322268
0.0374303
0.0278083
0.0253538
3.38842
0.153558
8.71887
0.0250881
0.030989
0.179678
0.0315713
0.161117
4.20431
4.7038
17.5977
0.0253821
0.0568738
0.0615093
3.62114
0.0285771
0.034073
0.0257258
0.16317
0.0248876
0.0947558
4.92537
0.0285426
0.0345335
0.0262497
8.88286
0.0250969
0.0251807
0.0252099
0.0265316
0.136568
0.0247402
0.025227
0.0252377
0.0465639
5.13207
0.0252136
0.0251689
0.0252112
0.025228
0.0260032
3.87045
0.0252046
0.0252805
0.0559923
0.037106
0.0253096
0.0281777
0.0574951
4.56972
0.0256594
0.0253713
0.0266205
0.0250869
0.246087
0.0950868
5.64335
0.0262908
3.74465
0.0253242
0.0253161
0.0521612
0.206234
4.62194
0.0251807
0.0571148
0.0261621
0.0324513
0.0248764
7.27723
0.025292
0.0564363
3.84095
0.0252266
0.05593
0.0258706
0.0260986
0.032241
0.0593092
6.42639
0.044771
0.0251595
0.0251869
4.45801
0.0250682
0.0275495
0.0615666
0.0255071
0.0252175
0.0251439
0.0251731
0.234915
1.42405
0.0256825
0.0791675
4.78467
3.43891
5.25345
0.123788
4.90684
0.0252862
0.0253545
0.024958
5.24832
4.27741
0.0254301
0.0252227
0.0256714
0.129541
4.65486
3.44987
0.0353414
0.0254886
0.0249541
0.0255337
0.0259088
0.178038
0.0251015
3.40792
0.0249881
0.0250195
0.0252959
0.35378
0.0599558
4.0739
0.0403855
0.0277318
0.0254626
0.130356
4.72363
3.6125
0.1228
0.0254078
0.0252044
0.1656
0.148029
0.289186
0.0392081
0.0249458
0.0343019
0.0250505
3.22141
0.0427567
0.182893
0.121496
0.0248827
0.0250304
0.0250286
0.0275661
0.0252617
1.36564
0.0435757
0.0520338
3.52627
0.0251246
0.0631372
7.27629
0.0255132
0.0383341
0.0285778
1.4937
0.0256695
0.0251801
7.34315
4.03924
9.90206
0.0252449
0.025121
4.48752
0.0327072
0.0252283
0.0251415
0.75299
0.028552
0.0250797
3.58791
0.620963
0.056897
7.54981
0.0249544
0.0313394
4.39875
0.0252808
0.0253593
0.0249452
0.269239
0.0261728
0.0253848
0.0742307
5.36799
0.0863324
0.0441903
0.0252777
0.0256002
0.0966363
0.044918
0.0265884
0.0254838
0.0250662
0.0256707
0.11278
0.032655
0.165971
0.0286785
0.226984
0.0247599
0.0315695
0.0250718
0.153953
0.0252362
4.26948
0.0255508
0.025045
4.56623
0.0252845
0.128825
0.0298873
0.033108
0.135072
0.0252242
0.0250209
0.0278126
0.0251066
4.13189
0.22559
0.0253834
0.178274
0.303296
0.0438414
0.0254206
5.2915
0.0254738
0.0735259
0.0248223
9.27894
4.80507
0.210578
5.31822
0.0252794
5.5051
0.0252373
0.0251454
0.0396749
0.29638
0.0424643
0.0539373
0.0261461
0.0325496
0.0253374
0.0311936
1.29105
0.0591414
3.76428
0.11318
16.9208
0.0252203
0.052669
0.185714
3.41483
0.0256444
0.0861971
0.0516953
0.0406492
0.0253996
3.55849
0.0362958
0.025143
4.47655
0.0322374
0.025512
0.888788
7.55846
0.0321199
0.0253153
0.0277384
0.176267
3.41172
0.0250973
0.0252052
0.0867197
0.0272687
4.30447
0.0253323
4.54744
0.0272975
3.76688
0.0247512
0.0871308
4.68086
4.82853
4.69926
4.66531
0.0254515
6.38628
0.0252309
0.301129
0.0262549
0.0253623
0.0948962
4.20888
0.192767
0.0253204
4.53623
0.0253627
0.0883089
0.0254032
0.0254912
4.70874
0.027617
4.10534
0.0253381
0.0253605
4.41419
0.025123
0.0415786
0.0248131
0.0259991
0.0370958
0.0251111
0.0336786
0.0345514
0.0255824
0.0252197
5.38532
0.0848559
0.300373
1.67036
0.0256273
0.0445298
0.0311988
0.0585667
4.31071
0.351084
0.027733
0.188112
0.0251039
0.152391
0.114368
0.0253453
0.184128
0.17291
0.122691
0.0256769
0.0398814
0.0258319
6.63439
0.0873752
0.0253356
0.0250875
4.81589
0.0354977
0.196166
0.0426046
5.33825
0.0271227
0.0434147
0.040098
0.025149
5.23233
0.167559
0.0248768
0.0861665
0.1698
0.084993
0.0681483
0.319689
0.250627
8.98141
0.0437877
8.90563
0.0256517
0.0250474
5.8541
4.52122
5.62877
0.027792
0.0252255
0.0254322
0.0285783
6.24705
0.0256458
0.0518965
4.73687
0.197917
0.539252
0.0248978
4.24491
0.0256381
0.872845
0.0419097
0.0356615
0.0247984
0.0256327
0.0252198
0.326178
0.0384481
6.54904
0.344204
0.0254744
0.173769
5.33467
0.0252507
0.0350907
0.106865
0.0429611
0.0252828
0.0315383
0.0253754
0.0247653
0.0252722
0.0323189
5.41983
0.0769266
0.0314388
0.582233
4.47907
0.0256846
9.26931
0.0253781
0.0255114
0.025717
0.054113
0.636149
1.33976
0.126032
0.0253771
0.059443
0.259269
0.0255043
0.0254347
0.0786337
0.0252277
0.0255016
0.0316083
0.95498
4.09771
0.0257847
0.39481
0.151968
0.21783
0.0279607
4.49146
1.83267
0.0285546
0.0420224
0.335315
0.194193
0.0253321
0.0420783
0.0251768
0.0252216
0.0269023
0.0254994
0.111622
0.0256466
0.0340934
0.0253544
5.31415
0.0252857
0.247528
0.758463
0.554925
0.0247393
0.0253517
0.144854
0.031855
0.0446685
0.0352151
4.3164
0.025017
0.314686
0.0253094
0.0251706
0.694877
0.0576269
4.67546
0.0252174
0.0253014
0.0611123
4.88222
0.025336
0.0527915
5.85467
0.0251054
0.0250307
0.0362434
9.52353
0.0255179
0.0253532
0.111654
3.99079
4.71537
0.0253153
4.3782
0.0256538
0.0634193
5.74942
7.85824
0.025238
4.50512
0.0248946
4.40391
0.887545
4.41354
0.161776
0.0253458
0.248702
0.205744
4.11468
0.0253148
0.0248234
0.0398809
0.24937
0.0253479
0.0251226
0.0546054
0.0256159
0.0253024
0.173161
4.86321
0.318388
0.0251304
3.89274
2.12741
0.0520289
0.0254028
6.77366
0.0553943
0.0294925
0.0251263
0.0249659
0.0247426
0.0253129
0.0254285
5.88528
4.27325
0.0255772
0.0255097
0.277699
0.0251492
2.89652
0.116759
0.0252046
0.354229
0.459933
0.0324103
0.0256537
4.3501
0.0264424
0.0252495
0.0253846
0.0287845
0.032672
0.0250837
4.11369
0.0250224
0.0253118
3.38675
0.157871
0.212429
0.0513864
0.148786
4.58417
0.028608
0.0346054
4.53875
0.0536828
0.0251597
6.32883
4.24988
0.0264522
0.0256598
5.39012
0.0442117
4.11961
0.0262264
0.0255091
0.0257999
0.176714
0.0364467
0.0254413
0.0262409
4.9117
0.137666
0.0554394
0.0255971
0.0255274
3.88097
0.0256464
0.0326
4.77072
4.63978
0.0255224
0.0255559
4.26248
0.12566
3.57076
4.39194
0.037276
0.0270189
0.052911
0.0296036
0.0254854
0.0250591
0.18656
0.0255709
4.75265
6.36932
0.0408396
3.89651
0.186369
0.0693604
0.0357482
4.89825
0.0345829
0.228155
0.357254
36.7843
0.341001
0.0289206
0.0293696
0.0423087
0.025347
4.2046
0.0263616
0.027509
0.247467
6.45713
0.110743
0.0273455
0.8357
0.0870271
0.0455242
0.113608
0.0643374
9.70012
0.0252626
0.111005
7.1631
0.333917
0.0627242
0.0248709
1.07831
0.0509414
3.98867
7.60403
0.0254809
0.110913
0.0255553
0.178476
0.0251567
0.0253431
4.43978
0.0814701
0.0254744
0.0250217
0.0249633
0.0256171
0.0392406
4.77338
4.78802
0.0251743
0.0254478
0.0253037
0.0248742
0.19068
3.66481
0.0617885
0.306548
0.175107
0.0354618
0.753431
0.0255111
1.00356
3.86561
0.161188
0.0253614
0.0477294
1.01249
4.32722
0.0253961
0.0251345
0.0252554
0.0253815
3.41497
0.0255101
0.0294861
0.0274546
5.17744
0.163718
0.0286113
0.705411
0.0316882
0.0252936
0.186595
4.88231
0.0249706
0.0248644
0.0248549
0.0249572
0.0420974
0.0749884
0.0254653
0.0254449
0.0249151
0.0895745
0.197846
0.0249179
0.0265739
0.071594
0.0253978
0.0410702
0.0250479
0.0362894
0.0254554
0.0253357
0.0342904
0.0325969
0.0259946
0.0253812
0.0251328
4.03599
0.0253338
0.0254257
0.0252284
0.0254207
0.0355602
0.0307857
0.0951214
0.0254659
0.0314961
0.0549359
0.0250223
0.0254529
4.52396
0.0534435
8.06929
0.0255019
4.71069
20.2795
0.0253649
0.0255962
4.42943
0.0253299
3.87709
0.350091
5.32374
0.308202
0.0252269
5.41524
0.0691195
0.203096
0.0923838
0.0252064
0.0251399
4.5296
0.0253216
5.48361
0.0622211
0.0254692
0.0276249
0.0266691
0.0248833
1.05321
3.8495
3.58275
0.0315987
5.63695
0.0251177
0.0254485
0.0252007
0.0254818
0.412921
0.0533506
0.0259487
0.0616477
0.0253679
0.0263978
4.47711
0.0746291
3.76808
0.0278036
0.0276584
0.0252189
0.201948
0.0255726
0.0379685
4.8098
3.6017
0.0253614
0.0251449
0.0273122
0.025318
0.0445922
4.77156
0.025654
0.025018
0.0373377
0.0250763
2.58905
0.0254572
0.0262618
0.0255054
0.166972
4.39881
0.0303889
28.5114
0.0717441
0.0893459
3.91735
5.76765
5.27139
5.42037
3.72254
0.0255786
0.0252231
0.0281115
0.051508
4.80508
5.08315
0.0264513
0.0683246
0.0248686
0.0250315
0.0251255
0.0552684
4.47622
0.025594
3.3993
0.0251632
0.0253468
4.31208
0.0252292
6.27694
0.0249578
0.157624
0.0283291
0.134826
0.0252148
0.0257978
0.0253958
0.0253855
4.47284
1.64801
0.025334
0.0254555
4.4309
0.0644666
0.0373422
4.94623
4.63281
0.0316128
0.0262738
0.323619
5.26487
3.67533
0.0352823
0.0253239
9.44115
0.0251752
4.55333
0.026551
0.672807
0.0252719
0.0942424
0.0251411
0.0253697
0.0444089
0.218041
0.182291
0.0265615
0.0251731
3.75671
4.21858
0.0251679
3.72571
0.0261706
0.0253499
0.0254002
4.25947
0.0251634
4.51381
0.0253127
0.100023
4.85506
0.0251194
4.90596
0.0253653
0.173723
0.175781
0.0254327
0.025565
10.6931
0.0254665
0.158507
7.10405
0.170597
0.0253326
0.0250901
0.0955998
0.027278
0.0261369
0.0255855
3.38271
0.0271487
0.0360693
0.0272994
5.44543
0.0272322
0.0251974
0.0251247
0.503726
0.0253789
6.49888
0.032902
0.299768
0.0256554
0.0729629
0.375767
0.0252393
0.0251683
0.0387371
4.41171
0.025269
5.12678
0.130328
0.0301241
0.0404782
5.15474
0.025333
0.0356023
0.0282066
0.0284511
0.0254126
0.0256246
0.0633099
0.0666152
4.27647
0.0264868
0.322262
0.237727
0.0249552
1.27265
0.0560244
0.165969
4.33821
0.0362006
3.9862
4.51904
0.0259001
0.0252731
0.0249517
0.0286468
0.0676659
0.11603
0.0253213
0.053562
0.0253018
0.0509268
0.0260373
0.0252671
0.0913145
0.059664
0.02507
0.0250311
4.43478
4.52991
1.38069
0.024979
0.0328232
5.95334
0.0251908
4.48521
0.0252399
0.0939122
0.0316624
0.0252234
0.0286672
0.0739035
0.0384193
4.49423
0.0255563
0.0271237
0.0247054
0.0895125
0.0253289
0.0248925
5.44228
0.0252753
0.411339
0.0514878
4.60193
0.0280356
1.00496
0.379289
0.0349659
0.0272907
5.04094
0.172356
5.31585
0.313828
0.0325627
4.48831
0.0253141
0.0298944
1.61798
0.025144
0.0371314
0.0254961
1.16009
0.0251283
0.0646334
0.0395199
0.214941
0.0267192
0.0271948
0.0658099
0.029067
0.147149
5.61287
0.255819
0.0253452
0.151284
4.54542
0.0253534
0.116766
0.0254886
0.166568
0.0652963
0.0269153
0.0976308
0.144572
0.15924
0.0366311
0.0254621
3.98644
5.80104
0.0712554
0.025238
9.32303
0.0253315
4.04689
1.51031
3.5127
0.388788
0.251827
6.5304
0.0346955
0.18065
0.0251544
0.0262882
0.0928296
0.0250929
3.81545
6.90635
0.16503
3.66677
0.0325677
0.0247136
0.252635
5.55045
0.0252405
0.0449534
0.0451516
4.68218
0.0254655
0.178614
4.01783
0.291662
0.317345
0.024926
0.0257037
0.0247504
0.0286416
5.00231
1.54952
0.284201
5.19325
4.6678
0.02528
0.0248587
0.201155
6.17357
4.43941
0.0271988
0.148156
0.818727
0.0291092
0.0443416
0.0252115
4.60027
0.0252961
0.0703731
0.886648
1.12015
0.0248845
4.09881
0.0252125
0.0349942
0.0524062
0.0250455
0.138408
0.0317398
3.87042
4.61145
0.0962561
3.85884
0.0385212
0.0254826
0.0255473
0.0263687
0.025343
4.44135
0.04336
0.0299446
0.0256472
7.40861
4.02441
0.0248388
0.0307644
0.0251663
3.89738
5.20148
0.0526539
0.0254545
0.0253728
0.0253897
0.0272077
4.21105
0.0256545
0.14616
4.2274
0.0252736
4.40384
4.69531
0.0284804
5.25695
0.0251747
5.43066
0.0611673
4.58441
0.0333996
5.77302
0.0250113
0.316227
0.0447614
0.167043
0.025508
0.0313702
0.0251539
0.0254635
3.30233
0.225779
0.0268291
4.65354
5.75368
0.0248694
4.02591
0.0270582
3.17402
5.27109
0.201447
0.0915298
1.30403
6.86294
4.20561
0.0833801
0.0283918
4.27472
4.75179
3.71839
0.095242
0.072805
0.0254659
0.0256496
0.0254418
0.0247281
0.0253311
5.12854
0.0249204
0.0287005
0.0254728
0.313476
0.0254698
0.0250408
0.0253666
0.0549983
0.026019
0.0254222
0.0254299
0.0254114
0.0366533
0.0269535
0.0248708
4.19813
0.025087
0.0251613
0.0457682
0.0255573
0.0304671
0.0251789
0.349259
0.108163
0.025303
0.0398522
0.0251293
0.025232
4.93894
0.0424614
0.0252752
6.65183
0.024744
0.224136
0.148286
0.0252305
0.0628445
0.0291742
0.785983
0.19389
0.0260648
0.0732061
0.0268945
0.0254084
0.0904873
4.28978
0.0251378
0.0259014
0.0251676
0.0315641
0.0246722
0.030932
0.062111
3.37374
0.0316665
0.0252867
4.30565
0.0273477
4.39231
0.0252482
0.163212
0.0383614
0.123609
0.0252463
0.990875
4.7854
0.0266007
4.55777
0.12306
0.0254204
18.6427
0.0255057
0.0253193
0.0252876
0.0337378
0.0269732
4.10903
0.0255738
0.0360453
0.027575
10.5226
0.0254185
0.0313765
0.0248676
0.0616434
0.024786
0.0255573
0.024996
0.0255123
0.192915
0.025257
4.66321
18.8054
0.0252112
2.9928
0.116013
0.0725118
10.2032
5.38053
3.90977
0.976783
4.16747
1.06702
0.0617979
0.0257678
0.0286156
0.031527
3.36429
0.025298
0.0552217
4.32891
0.0255626
5.71857
0.090906
5.66039
0.0253185
0.0285447
0.0253626
0.0248076
0.0742265
4.85941
0.110678
0.616321
0.0754041
0.0253847
4.46295
0.0687959
0.167337
0.0286681
0.0249123
3.50367
5.1519
0.0256092
0.0258777
0.0253912
0.0252415
0.0254401
0.0264684
3.76488
0.0270551
0.0252014
4.86078
3.52677
0.0251437
0.0274998
0.0250935
4.40163
0.0251891
0.0252085
4.27386
4.69904
0.0253867
0.0326617
9.36926
0.0458879
0.0726368
0.0537418
0.0250816
4.00798
0.0254175
0.313651
6.82267
0.0421302
0.193386
0.0982294
0.044862
0.0256869
0.0265639
0.0253357
0.167042
0.0253248
0.0251889
0.0254209
0.032638
0.310647
5.37812
0.0270389
0.0249401
0.0248435
0.0255958
5.18012
5.13887
6.72903
0.067053
0.0271751
0.0251421
0.0255539
0.0293017
5.57198
0.0292852
0.0922872
3.61386
1.1787
0.16289
0.0304949
0.0263846
0.0251002
0.0253161
0.0256548
0.0286591
0.0253075
0.0251548
0.0255815
4.9247
0.0927822
0.0251972
0.0547547
0.0248495
4.53114
3.51994
0.045544
3.81095
4.38259
0.0276821
9.72562
0.392571
0.0252598
4.03227
4.48322
0.240382
0.0428624
0.025426
0.0252405
0.0249014
0.675996
0.065254
0.0621851
0.141948
0.0390225
0.025217
5.16964
5.21143
0.0540977
0.249857
0.0253397
0.184217
0.033457
3.92893
0.216373
4.56808
0.0286909
0.0269025
0.09132
0.0959951
0.0248542
5.02648
5.16432
0.0799588
4.27259
2.4271
1.08034
4.02684
0.388798
0.026402
0.140053
0.310377
0.035101
5.13012
0.0253557
0.0271373
6.39138
0.0252588
0.0247215
0.0247135
0.0665658
0.0262081
0.0252969
4.27932
0.0256074
5.67692
5.23351
3.74905
1.31629
0.0253517
0.0430362
0.0249006
0.106889
0.182775
0.0253295
1.13648
0.176118
0.0442475
0.025038
0.182347
0.0400817
0.745413
0.0749709
0.031515
0.0256204
0.0264571
4.45375
0.0451327
0.0593944
0.864836
0.0262736
0.0253572
0.0251636
6.01909
0.0252151
0.158224
0.0248286
5.21571
0.0256995
2.11472
0.0505699
5.24832
0.304264
4.6028
0.0269977
0.042061
0.120756
0.0300727
0.0255008
0.0308954
3.55437
0.166011
0.0252399
0.055354
5.70965
0.025285
0.0499476
0.0253156
31.2191
4.27886
0.0258426
0.0262384
0.0261348
6.31809
0.0252825
5.22731
4.37276
0.219793
4.15122
4.074
0.0256647
0.0256335
0.0250078
5.22404
0.0261205
8.84683
0.0252734
0.0692301
0.0257152
0.0996046
0.0254113
0.311906
0.125711
0.110852
0.234782
3.79719
4.32996
0.0253705
0.0929757
3.93896
0.0255417
0.367954
0.0255831
0.0532677
0.0310939
0.0353052
0.0252852
4.25602
0.0256543
4.00719
0.0255807
4.42627
0.0507782
0.0253503
0.0251581
0.0874817
0.0421152
0.0270268
0.275013
0.0265898
0.0945063
0.0929055
0.0528351
0.0252336
1.56773
0.222509
5.32105
0.222649
0.0252488
4.85261
0.331596
0.156261
0.0253478
4.48804
0.0347637
0.0250885
4.92347
3.41361
0.0253129
0.0315832
0.0251327
0.050711
0.0628904
0.0881228
4.05108
4.07202
0.0640262
0.0254403
0.0292815
0.113865
0.0250913
0.0981961
0.0251359
0.0256498
0.199203
0.0307761
0.0285392
0.113312
0.0287088
0.0252046
0.0374046
0.151458
0.0252337
0.0283425
0.0254243
0.036476
0.105867
21.6652
5.33599
0.31836
0.0249069
3.77785
0.0455122
0.027691
0.0443219
0.0286608
0.0911762
0.08313
3.71917
0.0254496
0.0253159
0.233295
6.32343
5.00107
0.0249059
0.0250824
0.025371
0.025072
5.11393
0.198603
0.0259689
0.0256067
8.63069
4.49102
1.56046
6.43897
0.0251087
0.0748996
0.0469894
0.0412082
0.135832
0.0250967
8.07357
0.147535
5.85003
0.0252074
4.1972
0.481947
0.0256468
0.052852
3.90214
0.02493
0.0255976
4.3178
3.54181
5.19055
0.0259922
0.025999
0.0255914
3.83919
4.32619
0.0515868
4.31404
0.0253175
4.26336
4.90569
0.025463
3.73797
0.0256764
0.140129
0.168696
4.97828
0.0251164
0.0276308
0.0733824
5.63212
0.0270794
8.10446
0.0602507
10.4701
0.0554921
0.0269207
0.0252272
0.0558283
0.0254355
0.0249239
0.0248853
0.862077
0.0396543
0.0256701
5.64084
0.0353365
7.46495
0.0252364
0.0290062
0.109147
4.16323
0.0251601
0.0308751
0.025435
6.82015
0.0273273
4.54018
0.0262413
0.0318668
4.53487
0.0254308
0.060238
0.0252929
0.0517515
7.07864
0.0253869
0.0252274
0.0254538
0.0291377
0.026283
0.0938222
0.062786
0.185256
11.6669
0.0252263
0.0252001
0.0374122
4.33256
16.4915
0.673576
3.97392
0.0249451
0.0247996
3.94764
0.0284507
0.0298164
0.0463381
0.0281741
0.147352
7.71073
0.0253988
0.025335
0.614129
0.0270341
0.12734
0.025248
0.22207
1.27326
0.0253589
0.0252223
0.0447937
0.161884
4.6655
0.0287184
0.0759786
0.0254642
5.26746
4.90494
4.88738
3.59627
1.14466
0.035204
0.0528611
7.04165
0.0253198
0.170308
0.0249702
0.026804
0.459349
0.0260424
0.0684445
0.0252269
0.17506
0.0255662
0.306859
0.0424278
0.0264465
0.0926616
0.159687
0.0255727
0.0290293
0.148411
0.0252121
6.77463
0.0462601
0.0252479
0.254283
0.0279856
1.95422
0.0339799
4.6354
0.124391
1.01666
0.0959345
0.0769597
0.163348
4.42997
0.0254482
0.02739
0.0253126
0.0912871
0.0270296
0.0254624
0.0297115
0.0247959
4.90751
4.8728
0.0380585
0.0268897
0.0254879
3.32172
0.0277297
0.037863
0.146093
0.29901
0.0256122
0.0251263
6.11114
4.05325
0.0306241
5.04427
0.0253179
5.69887
0.0253626
5.86991
0.0255797
0.306138
0.0250061
2.25156
7.53041
0.0297532
0.0272571
5.50577
0.025614
0.0255868
0.200622
0.171595
0.0435956
0.0256935
0.0849395
0.0302271
4.70695
0.0248295
0.0254716
0.0254681
0.0250788
0.0256723
5.42405
3.92852
0.0253578
3.62246
0.0909596
0.025777
0.0246603
0.0253217
0.0253061
0.0643526
0.170414
4.0099
0.0255613
0.0252343
3.6525
4.69114
0.0320957
3.80857
3.88041
0.0415657
0.0253928
0.0253696
5.59122
0.157564
0.115212
0.0514085
3.9275
0.0256129
0.0987606
0.0251383
0.0659414
8.08879
0.0253299
0.319456
4.29352
0.230538
0.0272455
0.0251422
0.215295
0.113795
0.0334884
4.44083
0.0681225
4.56854
8.03882
4.88319
10.3493
4.06805
5.05196
0.0714255
0.125847
12.4257
0.0253268
3.79992
6.34501
5.10171
3.7742
4.18983
0.0251186
4.47844
4.48462
0.0251242
0.0246892
0.0269838
4.88089
0.0254209
0.0368518
0.0255927
4.9216
2.36693
0.0287178
0.0669818
0.041249
0.0251331
0.0248676
0.0413372
0.0447349
0.74504
3.49697
3.53511
0.0253476
5.40372
3.25426
3.36803
0.0433062
0.0265487
0.0374214
4.68126
0.149415
4.4328
0.176594
0.0254257
0.0251275
3.84629
0.0253975
4.58452
0.0250945
0.209587
14.5444
0.731124
0.0254869
16.0846
0.0251495
0.0260592
0.0254962
0.0253386
0.0946538
0.150064
0.026467
0.24111
0.820394
3.64202
0.0252309
0.109446
0.171581
6.78747
0.0248949
0.0250326
7.11988
0.173386
0.451969
0.0279327
0.024876
3.79367
0.0287394
0.0248536
0.0286722
0.340471
0.0251396
0.0256643
0.0253672
0.024824
0.0679519
0.384538
3.49924
0.0247564
17.3959
0.0257133
0.0267357
0.0256546
0.0409516
0.0302761
0.0295518
0.0331581
4.93418
0.0369411
0.076014
0.0972888
13.6109
0.0531091
14.6441
4.62889
0.215358
0.0250619
0.264994
0.0249462
0.0255658
0.0907454
0.0257756
0.0253308
0.0342621
0.332389
0.377381
0.0693286
0.0256251
0.0253077
0.0315936
0.0347607
0.0253573
6.26958
4.59592
2.5803
0.0260155
5.43204
0.217632
0.0268925
0.025438
0.0256481
0.0253712
4.27029
0.0253412
0.0369268
7.19224
3.61763
0.0248155
0.15151
0.253057
0.0250867
0.0585378
0.0259526
0.0260996
0.216165
0.358316
0.811288
0.0264144
0.0439213
0.15504
0.0270019
4.57198
0.0251
0.0256945
0.115554
0.0248844
0.0850804
0.142719
0.0274092
4.27725
0.02472
0.119469
0.138809
0.0310052
0.0261425
0.0255815
0.0253531
1.24194
0.0251003
0.0270073
0.154106
0.0413056
0.0252702
0.0283651
12.053
4.69552
0.0691993
0.0246721
5.22698
7.13925
0.0246042
0.0274152
0.0320499
0.0250283
0.0255463
3.6641
0.0264307
4.07119
0.0599515
0.0253432
0.0253364
0.02517
0.0252911
0.163525
0.063487
0.0552359
0.220365
0.0254356
0.0249559
0.0593338
0.0859254
5.67427
0.0256092
0.0288257
0.241775
6.21216
0.0256001
0.226386
0.0611083
5.91959
0.0254698
0.812583
0.0273544
0.394098
0.0482298
0.170551
0.0268911
0.11197
4.43381
0.0280993
5.55379
0.0252939
0.0497047
0.0363926
0.210573
28.4385
0.0332625
4.65736
2.93055
0.0253422
3.94849
0.0253239
0.0663039
4.49869
5.62207
0.245254
5.1389
0.0309211
0.0253631
0.0251841
0.0292053
0.315566
0.0428372
4.55087
4.90895
0.0444414
0.741529
8.61696
0.0249584
0.398407
0.119201
0.0253107
0.0256756
0.026956
0.0275201
0.0253403
0.0419356
0.025403
0.0498021
0.025333
0.158998
0.0251984
4.32194
5.02744
0.024897
0.0263044
0.0299827
0.0254439
0.117483
0.0880056
0.0422231
0.0252314
0.0254728
0.0914678
0.235239
0.0256105
0.0271029
0.0252925
0.214299
0.0255998
0.0255742
0.119706
0.026953
0.026112
5.45112
0.766245
5.15348
0.0270264
0.0249678
0.0260152
4.70484
0.0370093
0.0254594
3.92649
3.56275
0.0251993
0.184994
0.507259
0.0248255
6.75851
0.0256193
0.0249902
0.0287414
3.83726
5.28429
0.0347892
0.040628
0.0532383
0.0269619
6.04218
0.0249324
0.02542
7.95592
0.0362156
0.0362558
0.0316605
0.0253486
4.00622
0.0251282
0.0736424
0.025398
4.92391
0.0313808
3.86037
4.76568
3.5764
0.025454
0.0255764
0.0546584
0.0246968
0.0409559
6.28531
0.0731044
0.0688594
4.51134
0.0287771
3.92813
4.41343
0.0251337
0.0256051
0.0256856
0.0248187
0.0251187
0.0248808
6.53581
0.024902
0.0275889
0.0255983
0.0316915
2.58236
0.0275842
0.32687
0.207234
0.0697051
4.38303
0.0266658
0.0251906
0.0427737
0.025428
0.167932
0.254926
0.0368174
0.342261
0.0309756
0.0254509
0.163573
4.08928
0.121866
0.110067
0.35526
0.025638
4.52677
4.59747
0.025528
1.39189
4.00988
0.0277462
0.0409425
0.614451
4.15909
0.0251733
0.0287442
0.164815
4.51914
6.85981
2.25242
9.9991
0.149284
4.25778
0.0439634
0.0255906
0.025488
0.0248547
4.30907
8.50908
0.0252834
0.0700339
0.0254137
0.0294738
0.32276
0.0251201
3.98237
0.0246629
0.0253185
0.026217
0.025331
0.346318
0.0504251
0.0317279
0.107801