/*--------------------------------*- C++ -*----------------------------------*\
| =========                 |                                                 |
| \\      /  F ield         | OpenFOAM: The Open Source CFD Toolbox           |
|  \\    /   O peration     | Version:  v2012                                 |
|   \\  /    A nd           | Website:  www.openfoam.com                      |
|    \\/     M anipulation  |                                                 |
\*---------------------------------------------------------------------------*/
FoamFile
{
    version     2.0;
    format      ascii;
    class       volScalarField;
    location    "300";
    object      p;
}
// * * * * * * * * * * * * * * * * * * * * * * * * * * * * * * * * * * * * * //

dimensions      [0 2 -2 0 0 0 0];


internalField   nonuniform List<scalar> 
27915
(
-0.0331478
-0.24267
-0.419363
-0.190081
-0.117182
-0.0473147
-0.265987
-0.155629
-0.1091
-0.0848239
0.145991
0.0461544
-0.305374
-0.0788861
-0.116331
-0.0146035
-0.077538
-0.122758
-0.366094
0.0345505
-0.0773008
0.0136857
-0.0763961
-0.0324153
-0.000324587
0.00254645
0.0223263
0.168848
-0.186644
-0.385978
-0.222856
-0.0188548
-0.0784247
0.0359108
-0.373254
0.022429
0.0277268
-0.0898575
0.24455
-0.061865
0.00344251
-0.0760828
0.0096685
-0.169725
-0.0773944
0.00504568
0.0420089
-0.0721709
-0.0285784
-0.011112
-0.0730696
-0.1671
-0.100315
-0.0622507
-0.330873
-0.113244
-0.0850385
-0.014304
0.0130246
-0.258379
-0.0185099
-0.0595073
-0.156145
-0.350884
0.0218293
-0.0630154
-0.067583
-0.24024
-0.0913624
0.084162
-0.0804128
-0.384939
0.00274572
0.00127689
-0.0458786
-0.124941
-0.10491
-0.0254221
-0.422504
0.0465646
-0.0765947
-0.0624279
0.00244478
-0.0114564
-0.11874
-0.00960856
-0.0280082
0.0824141
-0.101208
-0.12426
0.0276951
-0.078526
-0.0153334
-0.22027
0.0849321
-0.0728844
-0.188569
-0.0588109
0.0188247
-0.154731
0.00895669
0.00509845
-0.397814
-0.08011
0.00332822
-0.0352578
0.030449
-0.101973
-0.069763
-0.0841596
0.0175652
0.0410201
-0.100778
-0.0912794
-0.332869
-0.0771411
-0.262834
0.0163903
-0.110848
-0.0130193
-0.241282
-0.11177
-0.165949
-0.12497
-0.0374585
-0.0128254
0.0403377
-0.081286
-0.0844164
-0.0245851
-0.0610801
0.00882264
-0.00992532
-0.419434
-0.0808154
-0.419379
0.00318789
0.0016972
0.118345
-0.00944935
-0.203837
-0.255539
-0.0459914
-0.116697
-0.0948187
-0.0143606
0.00650941
-0.0831201
-0.237813
-0.0105987
-0.00853452
-0.0229845
-0.0905361
-0.0786253
-0.157776
-0.0195833
-0.0315754
-0.0326791
0.0920266
-0.0475839
0.241522
-0.179825
-0.105464
-0.0285262
0.00352241
-0.0560393
-0.416102
-0.242028
-0.0310263
-0.237131
-0.185774
-0.0322543
-0.0827786
0.00244238
0.0219122
-0.114695
-0.0842674
-0.033133
0.00655789
-0.337127
-0.03187
-0.0681844
0.00226485
-0.22388
-0.0939303
-0.112471
-0.138996
0.00368384
-0.41916
-0.0531622
0.0288605
-0.102468
0.00385159
0.00307251
0.0029731
-0.0770524
0.0453611
-0.0885486
-0.42112
-0.266415
-0.199199
-0.114571
-0.0840835
-0.0784557
0.0412243
-0.0637193
-0.0885983
-0.028478
-0.0525059
-0.135512
-0.326196
-0.0327982
-0.151459
0.03815
-0.0808977
0.0173536
-0.115603
-0.262839
-0.122358
-0.0693461
-0.0840375
-0.0888225
-0.206458
0.0179482
-0.0343644
-0.0917948
-0.144887
0.0322046
-0.335841
-0.02822
-0.0782882
-0.00905724
-0.401452
-0.018215
-0.0323311
-0.0314535
-0.222532
-0.0483972
-0.116581
0.00129284
0.023848
-0.187111
-0.366548
-0.113183
0.0152367
0.0800484
-0.0785083
0.0373733
-0.309785
-0.0900163
0.0127999
-0.0638044
-0.0976151
0.00869244
-0.104166
0.0565589
-0.0637352
-0.055424
-0.242732
-0.113316
-0.397905
-0.00162792
0.00252726
-0.0198047
-0.102822
-0.098435
-0.0160244
0.0176057
-0.137282
0.0406095
0.0145939
0.00906233
-0.394015
-0.121343
0.0489754
-0.291561
-0.0467917
-0.0837688
-0.082828
-0.277031
-0.0892301
-0.0798834
-0.0164436
-0.110577
0.11658
-0.0223447
-0.182598
0.043819
-0.118268
-0.399546
-0.0876591
-0.105004
0.0293652
-0.222681
-0.0591424
-0.00802171
0.0294884
-0.35933
-0.207076
0.0336582
-0.114647
-0.00631494
0.141609
0.00948218
-0.0872778
-0.183746
0.0169396
-0.332225
0.0159315
-0.0789218
-0.349545
-0.076786
-0.158261
0.0431989
-0.253374
-0.00782448
-0.0108644
-0.00886361
-0.146292
-0.207336
-0.189409
-0.00501596
0.0590052
-0.0512467
-0.145768
0.0920664
0.00363346
-0.174592
-0.12721
-0.121119
0.0299206
-0.306903
0.117635
-0.111362
-0.274469
-0.110694
-0.160208
-0.113659
-0.217476
0.0567444
-0.0296118
-0.0814175
-0.144525
-0.213611
-0.221463
-0.327098
0.0144324
-0.065572
0.193621
-0.0477874
-0.17974
-0.124182
-0.0949053
-0.0889818
-0.0928646
-0.173308
-0.0671944
0.0332227
-0.0771132
-0.0748817
-0.0856428
-0.0062006
0.0265366
-0.243895
-0.172332
0.0156893
-0.323381
0.200641
-0.0359173
-0.103597
-0.0738298
-0.0867325
-0.00560428
0.0706673
-0.130604
0.0540775
-0.034689
-0.031829
-0.0830111
0.0822448
-0.172587
0.0463106
-0.0782438
-0.175095
0.0144883
-0.091921
-0.085044
-0.0833988
-0.292271
-0.197234
-0.107458
-0.0874712
-0.0886266
-0.111339
-0.0356305
-0.090988
-0.362498
-0.212863
0.0439719
-0.121305
-0.160697
-0.0889752
0.0143947
0.0207247
-0.182101
0.0493016
-0.191709
0.0150177
-0.110555
-0.130812
0.00642445
-0.0693302
0.0154451
-0.0837179
-0.0500875
-0.276008
0.00592139
-0.244123
-0.0332147
0.00130983
-0.250529
-0.257375
-0.128716
-0.279221
-0.0817768
0.150981
-0.128966
-0.00644987
0.0308301
0.0465413
0.0962749
-0.0902108
-0.173284
-0.272873
-0.103199
0.0964893
0.0173033
-0.298848
0.0057725
-0.345076
0.0155075
0.00804346
-0.288241
-0.128219
0.00550755
-0.17025
-0.0829509
-0.0846453
-0.0839639
0.0206129
-0.0466779
-0.059854
0.0125164
-0.387553
0.023545
-0.00562386
-0.41197
-0.000833383
-0.00523882
-0.125696
-0.319629
0.000379705
-0.120429
-0.0637608
-0.391199
-0.0636462
-0.241237
-0.178336
0.0271767
-0.115238
-0.124545
0.0108379
-0.0818597
-0.0118128
0.0221836
-0.163664
-0.262497
-0.309072
0.0459199
-0.103001
-0.0913038
-0.129549
-0.304144
-0.0838445
-0.0295755
-0.0199871
-0.0229578
-0.0069527
-0.101175
0.0528276
0.000150085
-0.061918
-0.327955
-0.0334353
-0.071614
-0.0868666
0.0208442
-0.0628122
-0.159704
0.094202
-0.05992
0.00632193
-0.208999
-0.100246
-0.383476
-0.0815953
-0.106296
-0.0162809
-0.0920211
-0.0350524
-0.0127064
-0.0285299
-0.115945
0.00888109
-0.0929356
-0.32846
0.0306188
-0.0610005
-0.171716
-0.104093
-0.0598652
0.00301696
0.0270434
-0.21598
-0.0687813
0.0228688
-0.101399
0.0539376
0.0137684
-0.00273795
0.0547852
0.0125102
0.00885128
0.0199031
0.05303
-0.0251578
-0.0140729
-0.110738
-0.208776
-0.071942
0.00534691
-0.0535448
0.00305644
-0.105909
-0.00817366
-0.0140971
0.0912782
-0.0177036
-0.0861051
0.00352422
-0.302164
-0.0791929
-0.101462
0.00968112
-0.101924
-0.0904635
0.0233101
-0.0330328
-0.317998
-0.0246008
-0.128931
0.0205243
-0.28798
-0.0510306
-0.145934
-0.0840582
0.0235233
-0.0880741
-0.292556
-0.0325968
0.0273545
0.00640768
0.0231444
-0.092827
0.0315481
0.0264794
-0.273054
-0.150809
-0.342225
0.00573337
-0.120386
-0.0877203
-0.0128969
0.0183337
-0.101305
-0.0556814
-0.0241344
-0.0914575
-0.077467
-0.14724
-0.0583039
0.0118872
0.00229171
-0.350879
-0.122219
-0.0157441
-0.210468
-0.0764844
-0.38482
-0.0636284
-0.274954
-0.390785
-0.338977
-0.0664473
-0.11153
-0.083865
-0.0466351
-0.011249
-0.0302243
-0.200772
0.0033971
-0.0322675
-0.0850819
-0.130036
-0.12933
-0.0787428
0.103296
-0.0115101
0.00282366
0.0873284
-0.0644341
-0.37766
-0.0777847
-0.0812361
0.0081498
-0.0858154
0.032814
0.0184958
-0.114467
-0.063119
0.00649836
-0.117046
0.0962661
-0.0756426
-0.0648018
-0.104995
-0.11116
-0.212105
-0.146482
0.0217073
0.0216598
-0.00166831
-0.347873
-0.0919589
-0.175302
-0.149431
-0.0897637
-0.336415
-0.0238821
-0.269075
-0.0144508
0.0537949
-0.0420717
-0.0280519
-0.236717
0.031544
-0.028796
-0.0517345
0.0278696
-0.349032
-0.0458737
0.00953979
-0.0747134
-0.0593331
-0.0316264
-0.00745715
-0.0275432
-0.0899458
0.0324948
-0.0287886
-0.0315554
-0.0103271
-0.0793207
-0.0131111
-0.0235318
-0.115971
0.0985664
-0.0426496
-0.379423
0.00319224
-0.106274
-0.093636
-0.169125
-0.182073
0.00563439
-0.134253
-0.0626311
0.00726585
-0.00310877
-0.0853589
-0.0286022
0.0237605
0.0271213
-0.0230701
-0.346748
-0.200411
-0.114437
-0.198775
-0.224219
0.0292326
0.0220891
-0.118019
0.0490674
0.0258351
-0.104674
0.0321162
-0.106457
0.0998318
0.102606
-0.0386954
-0.0131061
-0.392362
-0.00225759
-0.114666
-0.16237
-0.317539
-0.0855857
-0.102718
-0.0237157
0.000375697
0.0186958
0.0212356
-0.0647301
0.0150758
-0.0622996
-0.0751551
-0.0651343
0.0494015
-0.129315
-0.31904
-0.0452309
0.00274798
-0.0110137
-0.0910605
0.0237429
-0.146269
-0.0773631
0.00230256
0.0067307
-0.0934147
-0.124079
-0.0259848
-0.0628771
-0.0785972
-0.024259
-0.0498512
-0.0918782
-0.0751476
-0.417857
0.00741151
-0.0651307
-0.0783485
-0.239767
0.0188648
0.0564738
-0.0907973
-0.0797269
0.0277546
-0.323905
-0.339875
-0.06475
-0.380007
-0.000611597
-0.354891
-0.0324914
-0.0915258
-0.0787826
-0.154354
-0.0798611
0.0343116
-0.0946116
0.0512806
-0.0587102
-0.0476129
0.00542465
0.0327703
-0.113118
-0.400797
-0.170358
-0.0920264
-0.0447158
0.0262169
-0.394859
-0.0215227
0.0182036
-0.241891
0.00211464
-0.0485809
-0.392791
-0.205325
-0.0460742
-0.0133169
0.00671375
-0.0743666
-0.390529
0.00263045
-0.253637
-0.117916
-0.0783317
-0.10904
0.0562755
-0.125915
-0.0141409
0.0325402
-0.409988
-0.0205276
-0.212363
-0.0367298
-0.20505
-0.0959138
0.0338365
0.0140841
-0.236724
0.0276942
0.0397866
-0.0808967
-0.121357
-0.131029
0.023542
-0.0135592
-0.207919
-0.0906601
-0.379132
-0.304122
0.0255754
-0.037
-0.0227384
-0.159288
-0.212271
-0.169616
0.023406
-0.0999462
-0.0719711
-0.181979
-0.0958755
-0.0111029
-0.286279
-0.0861103
-0.288919
0.0270024
-0.149668
0.0500518
0.0190694
-0.0833699
0.0482657
-0.0656315
-0.072717
0.00423462
0.151244
-0.0665592
-0.0265062
-0.013896
-0.00802711
-0.0761753
-0.086546
-0.353524
-0.00558
-0.0743555
-0.136737
0.0869044
-0.0913358
-0.121216
-0.121254
-0.340106
0.00947431
-0.126484
0.0264147
-0.0798225
0.0740855
-0.0885396
-0.0289952
-0.0927014
-0.0149474
-0.100279
-0.271474
0.0771874
-0.0897252
0.0535001
-0.356161
-0.0046125
0.00199392
0.0111607
-0.0501956
-0.0775507
-0.0131615
0.00339255
0.0147446
0.153771
-0.379538
0.00536981
0.00356538
0.00546505
-0.0269304
-0.0367478
-0.0790528
0.00966549
0.0262712
-0.106131
-0.0725001
0.005715
0.0944441
-0.100976
-0.0870176
-0.0201741
-0.00760845
-0.0383737
-0.00531757
-0.11237
-0.149344
-0.420567
0.0484929
-0.0951827
-0.00350752
0.0240919
-0.0873213
-0.244952
-0.161451
0.00176465
-0.1196
-0.0449068
-0.0830028
-0.0245624
-0.30137
0.00465756
-0.107507
-0.0950899
0.013176
-0.0823612
0.0648128
-0.0361626
-0.0646759
-0.091626
-0.262069
-0.0729492
0.00199818
0.00467877
-0.161267
-0.00499055
-0.0101145
0.0322545
0.00903802
-0.0269564
-0.0195718
0.00402122
-0.087044
-0.283568
-0.0303216
0.0544058
-0.119534
-0.0793951
-0.0878215
-0.116639
-0.302507
0.0139134
0.0304219
-0.0240496
-0.125235
-0.123449
0.0266412
-0.0262584
0.0555517
-0.153259
-0.206706
-0.0781198
0.105401
0.0241391
-0.00884332
0.0236648
0.0657733
-0.101196
-0.00424995
-0.079285
-0.0101307
-0.0121091
0.00602663
-0.216959
0.0978136
-0.0873512
0.03111
0.0845199
0.044579
-0.0774871
-0.120051
-0.0903904
-0.18049
0.0196691
0.0100126
-0.230176
-0.099402
0.144847
0.124882
-0.0237956
-0.0697775
-0.0100958
-0.0756704
-0.101776
-0.124005
-0.144522
-0.0125478
-0.0109329
-0.0113773
-0.0249917
0.0184649
-0.290328
-0.0286787
-0.0905057
-0.0877549
-0.00228482
-0.043866
-0.313929
0.00894263
-0.0293744
0.0796204
-0.313966
0.0190074
-0.0288535
-0.277181
-0.0874164
-0.391765
0.00186097
-0.00647256
-0.0868072
-0.0609972
0.0106577
-0.0136305
-0.180504
-0.0240584
-0.00423195
-0.0893664
-0.255469
-0.0898044
-0.278999
-0.0199617
-0.0150351
-0.395477
0.0210934
0.0299532
-0.024129
-0.0787476
-0.0401436
0.012385
-0.107537
-0.223679
-0.173065
-0.10794
0.0254844
0.0125732
-0.150011
-0.0878179
-0.0371053
-0.0322509
-0.00538754
0.017117
-0.0903772
-0.0602329
-0.228737
-0.0585914
-0.243548
-0.0176763
0.0899186
-0.00528
-0.209417
0.0156615
-0.331595
-0.0249171
-0.00726044
-0.0901902
0.0269537
-0.112623
-0.0605141
-0.0623941
-0.126531
0.00260553
-0.0116422
-0.0114008
-0.026939
-0.119663
-0.080111
0.0293472
-0.132535
-0.122925
-0.106627
-0.0137919
-0.41021
0.00942539
-0.10748
-0.0222803
-0.383953
-0.140334
-0.247733
-0.26816
0.00296023
-0.0998491
0.0154911
-0.00597341
-0.0392438
-0.0838351
-0.104534
-0.075752
-0.0378825
-0.0817648
0.00358029
-0.0433421
-0.284351
-0.0247944
-0.100775
-0.0899064
-0.313557
0.00264424
-0.0902247
-0.126918
-0.0788936
-0.0251775
-0.0872134
-0.126726
-0.08095
0.00326759
-0.0785651
-0.0873467
-0.00145774
-0.360859
-0.0799917
0.0238251
-0.232238
-0.280329
-0.061662
0.0341783
-0.0228327
-0.133813
-0.0780277
-0.0113092
0.00330962
-0.0842214
-0.0399392
-0.34576
0.00360206
-0.10714
-0.0390258
-0.078957
-0.0186682
-0.0780783
-0.0986945
-0.274512
-0.178972
-0.294775
0.0146581
-0.266603
0.0113065
-0.0836064
-0.0465136
0.00318084
-0.101277
-0.261833
-0.0854687
0.00260743
-0.0864557
0.0133642
-0.0785533
0.02824
-0.0330272
-0.360041
-0.0587512
-0.180817
0.0352984
0.00906287
-0.0858434
-0.00201167
0.0675063
-0.0220139
-0.0426032
-0.0497998
-0.00989973
-0.0579414
0.129322
0.0143759
-0.0275202
-0.178316
-0.172466
-0.0856746
0.124828
-0.0238989
-0.0933301
0.0995469
0.0382518
-0.0844391
0.0900988
-0.0598244
-0.0850411
-0.0110143
0.275168
-0.198417
0.00961092
-0.122985
-0.113309
-0.177332
0.0169343
-9.18528e-05
0.0503898
-0.382675
-0.175737
0.0349262
-0.0257803
-0.0990017
-0.043209
-0.154923
0.126186
-0.3015
-0.04997
-0.031144
-0.103667
-0.00466493
-0.121905
-0.200067
-0.0242584
-0.174952
-0.112322
0.175589
-0.15315
-0.152907
-0.194572
-0.358326
-0.103759
-0.331529
0.0217882
-0.0106413
-0.240519
-0.119992
-0.152685
0.0910115
0.00873674
0.0231192
0.0926748
-0.417957
0.0188966
-0.124592
-0.100339
-0.158583
-0.245326
-0.0132616
-0.264295
0.01866
-0.309027
-0.105516
-0.0856969
-0.0218227
-0.0392478
0.00713403
-0.0849772
-0.100938
-0.269523
-0.103968
0.0455669
-0.166142
-0.42079
0.0181416
-0.0845345
-0.0746549
-0.100821
0.00609632
0.0399398
0.00907691
-0.0176284
0.0187175
-0.0658203
-0.369785
-0.0900689
0.0423721
0.00720396
-0.0864232
0.0210921
-0.357464
0.0163666
0.0234647
0.0269255
-0.116227
-0.309113
-0.0959064
-0.111507
0.00370782
0.0441479
-0.204447
0.00781485
0.0266383
-0.157836
0.0081145
0.00468839
0.0819841
-0.320983
-0.0774148
0.0261389
-0.239448
0.264834
-0.158697
-0.0265099
-0.391716
-0.205618
0.0364489
-0.0887286
-0.154409
-0.0170344
0.0089655
-0.103131
-0.000270698
0.00337065
0.0230303
-0.0322457
-0.19826
0.00725787
0.128935
0.0173134
-0.319871
0.0245723
-0.0918243
-0.315706
-0.0961752
-0.0131885
0.0308949
-0.191933
-0.0702595
-0.094519
0.0770604
-0.32915
-0.0242823
0.0646163
-0.00288684
-0.000554831
-0.245231
-0.0193059
-0.108379
0.00272801
0.0208192
-0.139158
-0.369928
0.0353924
-0.128163
-0.181893
-0.0264299
-0.0253799
-0.0491944
-0.392614
0.0171817
0.0291164
-0.196467
-0.0860158
-0.0792411
0.00154671
-0.0818255
0.00739339
-0.144936
-0.265303
-0.420282
0.00155882
-0.110394
-0.0149849
-0.126908
-0.313757
-0.393549
-0.224594
0.0413679
-0.0286913
-0.0853285
-0.101854
0.0274262
-0.0217244
0.127521
-0.0911383
-0.0333614
-0.0182657
-0.115397
0.0219621
0.0273905
-0.193545
-0.247084
0.0853778
-0.00021694
-0.0956949
-0.234557
-0.103572
0.0235678
-0.418907
-0.133007
-0.0617339
-0.0276074
-0.00830443
-0.0130593
0.0245104
0.0166717
-0.18511
-0.128413
0.0141961
0.00769349
-0.262825
-0.0185911
-0.0992723
-0.168659
0.00860381
-0.108037
-0.204168
-0.0647646
0.00710512
-0.241581
0.0539811
0.0181905
0.0036479
-0.0644812
-0.0683491
-0.00879164
-0.0796548
-0.00876532
0.0267707
-0.080487
-0.0993589
-0.0857645
-0.10479
-0.220347
-0.348192
0.0349526
-0.0856232
-0.096141
-0.0779252
-0.000891807
-0.224832
-0.0847938
-0.0332659
0.055351
-0.153111
-0.10329
-0.179407
-0.0472853
0.0172157
-0.0344822
-0.0942353
-0.0872547
0.024896
0.0285638
-0.294346
0.127087
-0.118876
0.0154562
0.0238774
-0.0788721
0.0069776
-0.0695068
-0.396997
-0.407878
0.0455864
0.0207582
-0.281722
-0.190791
-0.0882051
-0.362662
-0.0555723
0.0598506
-0.0869262
-0.0611047
0.0107029
-0.00470423
-0.239215
-0.0386614
-0.0954145
-0.229958
-0.105383
-0.0853587
-0.0839849
-0.153417
0.0415395
-0.0980431
-0.087471
-0.222912
-0.216516
-0.384779
-0.162269
-0.0651429
-0.0695243
-0.109525
0.041988
-0.0818151
-0.0319616
0.0912946
-0.190628
-0.411744
-0.088382
-0.00649339
-0.320684
0.1846
-0.103386
-0.0889796
0.0135337
-0.385679
0.0180332
-0.196268
-0.298663
-0.1004
-0.142352
-0.0122283
-0.192417
-0.122719
-0.0756603
-0.292779
0.0105146
-0.119517
0.0441494
-0.146995
-0.00113781
0.00993239
-0.107091
-0.167571
0.0176001
-0.00716298
-0.00847336
0.00540066
-0.101921
-0.0954267
-0.0944847
-0.0324246
0.0194336
0.00397415
-0.0121958
-0.0844423
-0.0805307
0.0739348
-0.260075
-0.197234
-0.0714921
-0.0391291
0.00858392
-0.324231
-0.323577
-0.223009
-0.0330675
-0.118821
-0.223429
-0.245658
0.00940097
-0.000337617
0.0187107
0.0165169
-0.0802239
0.048973
-0.069661
-0.0552336
-0.270174
-0.225473
0.0766601
-0.013734
0.0850552
0.0282374
-0.125707
-0.100057
-0.0239117
-0.0203791
-0.0125862
-0.00905225
-0.0969126
-0.158126
-0.0373536
-0.0305429
-0.0261268
-0.0907051
-0.231744
-0.0263704
-0.0493559
-0.102203
0.0244683
-0.0821026
-0.00500161
-0.0410121
0.0202794
0.01485
-0.0820725
-0.0819453
-0.0454451
0.012639
-0.000308558
-0.12136
0.0344177
0.030627
-0.0335647
0.0105571
0.0384044
-0.0541343
-0.0743889
0.00987334
-0.0693058
-0.0890548
-0.00908954
0.019661
-0.238315
-0.127732
-0.315233
0.00463734
-0.379455
-0.414717
0.0217254
-0.0305734
-0.124163
0.0174465
-0.0820051
-0.160645
-0.12952
-0.264743
0.00940666
-0.136872
-0.143103
-0.215747
-0.136704
-0.0116279
-0.0126962
-0.101275
0.036097
-0.381533
-0.0561884
-0.0351328
0.0913572
-0.0402737
-0.020782
-0.328054
-0.0842234
-0.0904921
0.0542359
-0.288363
-0.0102918
0.0259562
0.00808288
0.0148069
-0.243286
-0.130396
0.0574604
0.0660672
0.0213156
0.0585029
-0.315976
0.051397
-0.0815718
0.0926272
0.0859886
0.00418896
-0.16374
0.0204648
-0.0556754
-0.399967
-0.0932359
0.00302273
-0.0123076
0.0458143
0.00708392
-0.0742127
-0.389343
0.0068414
-0.0238716
-0.0582106
-0.00463281
-0.0998487
0.0460124
0.0298427
0.00839233
-0.0958083
-0.0880546
0.100078
-0.397015
-0.0922098
-0.0875445
-0.0809429
-0.175824
-0.120952
-0.18596
-0.084233
0.0146928
-0.000169967
0.0895274
-0.10136
-0.0966918
-0.0813163
-0.0112618
-0.141426
-0.0159914
-0.0249644
-0.00674349
-0.12303
-0.152237
0.0127865
-0.077823
-0.0312239
0.0281193
-0.084342
0.0100393
-0.269306
-0.0195904
-0.215243
-0.0197429
0.122352
0.00352295
-0.029784
0.0040735
0.00391025
-0.10582
-0.0996666
0.03512
0.009024
-0.360031
0.0196975
-0.0933025
-0.39917
-0.36684
-0.0480139
0.0552925
-0.27069
-0.12102
-0.0761322
-0.0706318
0.0234509
-0.390962
0.004196
-0.323289
-0.0454961
-0.289508
0.0181594
-0.156003
0.000775008
0.0426328
-0.0755152
-0.0824066
-0.236019
-0.046511
0.00440882
-0.0994732
-0.0826389
0.00104979
-0.101368
-0.039043
0.0411512
0.0309994
-0.247214
-0.02909
-0.124683
0.0236225
-0.187539
-0.408199
-0.00117434
-0.0752857
-0.0337478
-0.130758
-0.19643
0.0167209
0.0200206
-0.372789
-0.0352494
-0.128487
-0.268421
-0.146515
0.00717
-0.0123506
-0.165708
0.0420003
-0.0391065
0.0149181
-0.077909
-0.0101208
0.0693242
-0.0575702
-0.388506
-0.0498709
-0.0158297
-0.00136105
-0.0786748
-0.0334377
-0.274466
-0.084698
-0.107408
-0.0217789
-0.11561
-0.253936
0.0166631
0.00417768
-0.100015
-0.0843543
0.0218534
-0.281073
-0.19266
-0.059388
-0.0999153
-0.123598
0.0349063
-0.0891471
-0.0636077
-0.0649808
0.027586
0.0219172
0.0789045
-0.146918
-0.243126
-0.0483493
-0.0881917
-0.20161
-0.0267974
-0.226425
-0.109117
-0.096627
-0.0820011
0.0718555
-0.0825294
-0.0865524
-0.0414746
0.0245021
-0.00904172
0.0705971
-0.150644
-0.0953355
0.0359449
-0.0748443
0.00238211
-0.101427
-0.0429516
0.0221171
-0.135185
-0.135277
-0.0246006
-0.00652865
-0.392527
-0.36384
-0.202622
-0.021166
-0.0837001
-0.075546
-0.0151634
-0.202547
0.0165215
-0.0638002
0.0517795
0.00486827
0.0669186
-0.102932
0.161154
-0.0862555
0.00766184
0.0210626
-0.0167526
-0.173049
0.0219384
-0.0209817
-0.137382
0.0250444
-0.194552
-0.074824
-0.106417
-0.0509485
-0.323054
-0.254842
-0.0910657
-0.0572144
-0.151306
-0.126399
-0.410358
-0.0875543
-0.0629518
-0.0869128
0.012418
-0.0574084
-0.128838
-0.00175013
-0.0710366
0.0239464
-0.203565
-0.00208531
-0.148906
0.14762
-0.0828565
-0.0397118
-0.0565747
-0.0872833
-0.0663008
-0.217206
-0.384136
-0.197468
0.0220422
-0.167643
-0.308321
0.00334646
-0.0945485
0.0172757
-0.135904
0.0630341
-0.0535735
-0.0153614
-0.0864733
-0.219656
-0.0689672
0.0092995
-0.128827
-0.380183
0.0557029
0.008295
-0.384831
0.0276838
-0.171501
0.078465
-0.0818928
-0.234974
-0.193506
-0.313783
-0.0831772
-0.199975
-0.0319201
-0.0461999
-0.160355
-0.00521599
-0.0810963
-0.26615
-0.107667
-0.0827376
-0.0610914
-0.0168898
-0.093226
-0.416805
0.00979525
-0.0752366
-0.0888712
-0.291586
0.0124488
-0.0957235
-0.102364
-0.105337
-0.263885
-0.0174036
0.0247327
-0.0131173
0.0453611
-0.314852
-0.334091
-0.103371
-0.416995
-0.20219
0.0261598
-0.0125812
-0.238283
-0.358411
-0.0851963
0.0798299
-0.084973
-0.299354
-0.0612652
-0.0834634
0.00798879
-0.380995
0.00423924
-0.141
-0.187436
-0.279819
-0.0255044
-0.103269
0.00264511
-0.0867707
-0.12775
-0.00500993
-0.197373
-0.0464159
-0.0862148
-0.370097
-0.0935848
-0.0853216
0.164652
-0.01337
0.00754756
-0.0227697
0.00278852
-0.0884077
-0.102283
0.0120862
0.00788936
-0.410504
-0.0773763
-0.0129526
-0.0677814
0.00373267
-0.0766952
-0.116441
-0.0918132
0.015499
0.0432396
0.00903916
-0.0492944
-0.182251
0.00804983
-0.0838304
-0.268497
0.0205513
-0.103953
-0.323311
0.0282173
-0.20314
0.0052742
-0.418554
0.195793
-0.245156
-0.0860861
-0.182663
-0.00734479
-0.270002
-0.0931783
-0.00394241
-0.0380003
-0.0416395
-0.00140327
0.0201326
-0.0778441
-0.100218
-0.0524159
-0.231417
-0.184539
-0.0208249
-0.132644
0.0597549
-0.115979
-0.123779
-0.0829163
-0.107564
-0.195338
-0.283862
-0.23383
-0.171446
0.0262346
-0.0817993
-0.087419
-0.0773628
-0.0918769
-0.143307
0.0144425
0.0133697
-0.0222377
-0.0164752
0.0227837
-0.12429
-0.0174536
0.0547204
0.0472364
0.169376
0.0123573
-0.00594051
0.016958
-0.0753351
-0.0332597
-0.0304544
0.0315319
0.0104411
-0.0784611
0.0622932
-0.0215721
-0.0950297
-0.0252504
0.00301769
-0.0751972
-0.0386009
-0.0323666
-0.00346517
-0.107181
-0.0855454
0.0217804
0.00372839
-0.0280961
0.0128488
-0.273666
0.120636
0.0249503
-0.383001
-0.0184692
-0.0792684
-0.198575
0.013816
0.201551
-0.0677896
-0.3165
-0.155991
-0.0102809
-0.108267
-0.0313272
0.0279526
-0.172491
-0.348216
-0.0305061
0.0513618
0.00368423
0.108954
-0.0166966
0.0143656
-0.141648
-0.0772218
0.0768632
0.00570599
-0.281933
0.0477549
-0.085685
0.0187709
-0.22764
-0.0736986
-0.172761
0.0178644
-0.319807
-0.098466
-0.0439301
-0.0864747
-0.177713
0.00727502
-0.416251
0.00942728
0.0230099
0.0263624
-0.0653301
-0.0332378
-0.0817557
0.00518554
0.0783549
-0.00781068
-0.366099
0.0273219
0.035289
-0.0250465
-0.138829
-0.0220613
0.020277
-0.00726998
0.00932939
-0.0872303
0.00246891
-0.204195
-0.420163
0.00228856
-0.334139
-0.132454
-0.0905573
-0.416708
-0.317184
-0.0887041
-0.232312
-0.178502
-0.190325
-0.0621372
0.0211651
0.0400561
0.0484519
-0.0833161
0.0256028
-0.0722833
-0.11274
-0.0246737
-0.382299
-0.0915414
-0.272816
0.0281203
-0.0644229
0.0295302
-0.0221293
-0.109569
-0.097135
-0.086167
-0.2378
-0.105184
0.00295419
-0.30651
-0.0735772
-0.109901
0.0416547
-0.013346
-0.079667
-0.114593
-0.0305139
0.0641924
0.0237103
0.00812208
0.0229319
-0.043468
-0.0816561
-0.0344389
-4.05077e-05
-0.326303
-0.0777383
-0.00760964
-0.0573719
-0.0046776
-0.381221
-0.000921709
0.00754978
-0.147528
-0.345864
0.0213786
-0.0619681
-0.389155
-0.0666257
-0.155301
-0.0794833
-0.00572058
-0.173247
0.0278099
-0.271043
-0.286416
0.0131332
-0.227901
-0.00760809
-0.0740949
0.0205632
-0.0500481
0.0395047
-0.137313
0.0266459
-0.00356248
0.0487298
-0.0577597
-0.127045
-0.0896723
0.0415143
-0.00963162
-0.0129466
0.0202989
-0.126645
-0.0787185
-0.287223
-0.0721681
0.00510557
0.000738003
-0.0234647
-0.0692418
-0.207002
-0.0600578
-0.174617
-0.0793706
-0.197479
-0.225281
-0.0340714
0.0566943
-0.0178863
0.026793
0.0132541
0.0732611
0.00722897
0.00224783
-0.0162925
-0.27802
-0.158102
0.00871495
-0.124086
-0.0197833
-0.103904
-0.088171
-0.0668866
-0.0874971
-0.318102
-0.0577055
-0.380443
-0.261931
0.0170652
-0.0754481
-0.115654
-0.0819486
-0.11068
0.00717862
0.0157255
-0.025132
-0.128627
-0.11358
-0.140757
-0.202745
-0.102548
0.00727137
-0.313025
-0.263891
-0.104614
-0.189857
0.013779
-0.162324
-0.0867981
-0.142708
-0.100587
-0.372453
0.0439319
-0.0304815
-0.175261
-0.183363
-0.020209
-0.140746
-0.302993
-0.1656
-0.0974619
-0.180375
-0.279581
-0.0888063
-0.261345
-0.0469328
-0.0780194
-0.110616
0.117952
-0.114701
-0.0120012
0.0855195
-0.253861
0.0174591
-0.0185659
-0.0183882
-0.0731032
0.025487
0.00462027
-0.144566
0.0202242
-0.359815
-0.298132
-0.340585
-0.331026
0.0130336
-0.0995528
-0.0142112
-0.0752955
-0.212313
0.00732421
-0.279137
-0.223624
-0.105897
-0.00616551
-0.234859
-0.104251
-0.313327
-0.122688
0.0372757
-0.0293661
-0.0344611
-0.310016
-0.0740372
-0.0598866
-0.185557
0.053097
0.0169944
0.00325413
-0.277694
0.00101053
-0.0972471
-0.0217731
-0.396646
-0.0313961
-0.344473
-0.123883
-0.13365
-0.0840462
-0.396794
-0.0473281
-0.0879653
-0.196181
0.0134455
0.0461612
-0.074032
-0.076131
-0.22947
0.0161604
-0.131842
-0.417971
0.0210816
-0.115919
0.0151881
-0.40885
-0.0849971
0.0629863
0.0268
-0.0441002
-0.186619
0.0242001
-0.131709
-0.237443
-0.235416
-0.156463
-0.0869282
0.0224918
0.0217171
-0.0228592
-0.302814
-0.0463811
-0.332835
0.00300942
-0.114796
-0.0278646
-0.100744
-0.0112407
-0.125762
-0.123452
-0.195833
-0.0823344
-0.082212
-0.0844265
0.0436817
-0.180297
-0.0829261
0.00506005
-0.226014
-0.0388565
-0.120909
0.0142483
-0.0702192
0.00741264
-0.150105
0.00771361
-0.0955754
0.00612193
-0.0842422
-0.11637
0.0409842
-0.00134095
0.255054
0.00928297
0.0393757
-0.265064
-0.0455595
-0.158483
-0.107085
-0.110933
0.0151501
-0.0972225
-0.0438738
-0.125504
-0.0795249
0.000410126
-0.140958
-0.157985
-0.0967183
0.0391563
-0.400801
-0.0374431
-0.0132237
-0.108488
-0.076451
0.0305794
0.0601493
-0.000188537
-0.0781082
-0.086825
-0.14689
-0.168371
-0.142026
-0.121857
0.011866
-0.0584577
-0.116892
-0.0187258
-0.186403
-0.0111105
0.00726939
-0.0877521
-0.0744971
-0.0604589
-0.198452
0.0696452
0.0101064
-0.0736264
-0.0854109
0.0147828
-0.0630981
0.0494742
-0.0708165
-0.0757088
-0.411988
-0.079692
-0.130149
-0.013576
-0.0859491
-0.0878214
0.0926277
-0.0768727
0.0630769
-0.109674
0.158604
-0.0996606
-0.0373122
0.0314669
-0.0809444
-0.256132
-0.360223
-0.0139016
-0.00390689
0.0435976
-0.00664482
-0.153179
-0.235671
0.0576382
0.0168263
-0.321813
-0.0905383
-0.320465
-0.233976
-0.00297323
-0.0507896
-0.116429
-0.10054
-0.129791
-0.0120658
-0.303052
-0.218453
-0.397392
0.000679669
-0.149739
-0.197445
0.00756495
-0.0886324
-0.0795903
-0.015731
0.00531249
-0.0852633
-0.0794717
-0.116325
0.066205
-0.0104335
0.0061962
-0.0924339
-0.269512
-0.125834
-0.0845314
0.0277381
-0.0955757
-0.354669
0.00422735
-0.0924949
0.00561847
-0.201357
-0.186128
-0.297512
-0.00232089
-0.058568
-0.082927
-0.170691
0.0195056
-0.409637
-0.0318281
-0.385814
-0.131811
-0.0490493
0.0128698
-0.0729734
0.0115596
-0.0156713
-0.0253302
-0.0584859
0.16298
0.00563053
-0.139552
0.118614
-0.417339
0.00952505
-0.0269861
-0.127246
-0.126134
-0.0316498
0.102984
0.0120818
-0.265464
0.0440289
-0.400116
-0.0452369
0.121126
-0.119139
0.00480773
-0.0859819
0.0125829
-0.0920328
-0.366954
0.0422757
0.00881149
0.0229181
-0.0281623
0.0507469
-0.182074
-0.142034
-0.233933
-0.417285
0.00747428
0.00268075
-0.0702892
-0.101285
-0.413777
-0.102541
-0.0789585
-0.0265071
-0.0125881
-0.0788239
-0.0576082
-0.0596591
0.191991
-0.0571679
-0.218954
-0.39935
0.0192398
0.0379081
-0.279538
-0.0469299
-0.0769916
0.00356212
-0.0557287
0.0721737
0.0127141
0.00222703
-0.106543
-0.130251
-0.398163
-0.0621534
-0.12448
0.00428281
-0.42054
-0.266954
-0.296583
-0.0794693
-0.23863
-0.0694602
-0.0753213
-0.281953
0.0265579
-0.162312
-0.0125536
-0.00564597
-0.114046
-0.0456273
-0.149526
0.00441263
0.0752761
0.0232945
-0.087196
-0.0803213
-0.0452297
-0.109157
-0.127251
0.0430234
-0.0604468
-0.219016
-0.000133562
-0.268279
0.0492598
0.00842323
-0.198972
-0.0517722
-0.324625
-0.0852474
-0.271329
-0.126328
-0.325996
-0.12515
-0.154171
-0.227285
-0.12637
0.00515183
-0.0558994
0.015275
-0.152501
0.0183822
0.00430554
-0.0603505
-0.0223831
-0.107102
-0.0985614
-0.0667214
0.0249582
0.0179373
-0.0766358
0.0865282
-0.0175643
-0.215896
-0.0844131
-0.0386649
-0.00143442
-0.180352
-0.164611
0.118305
-0.0861644
0.0128178
-0.170358
0.00780157
-0.200462
0.0152565
-0.121323
-0.0232578
-0.262734
-0.286452
0.00765272
-0.00946937
-0.143302
0.0199479
0.00970709
-0.0833935
-0.189069
-0.105024
0.0225799
0.166857
0.0998943
-0.204118
-0.0158364
-0.0377603
0.00432406
-0.00404983
0.0225493
-0.0752245
-0.127559
0.0103267
-0.0820012
0.00322148
0.0271258
-0.0180687
-0.0279243
0.0208116
-0.145321
-0.110865
-0.169892
0.0195004
0.0141209
-0.0800001
-0.0969414
-0.0673834
-0.0772891
-0.126316
0.0752342
0.0242778
0.0166312
-0.401101
-0.215006
-0.0935635
-0.102918
-0.0961167
-0.038709
-0.0988982
0.000300803
-0.147086
-0.335497
0.0325661
-0.134633
-0.0909898
-0.222692
-0.00733102
-0.00204927
-0.0869692
-0.138762
-0.0582874
-0.347363
-0.00159595
-0.0884045
-0.302378
-0.101377
-0.362485
-0.176952
-0.237582
-0.036841
-0.0760694
-0.376016
0.0224035
-0.0785144
-0.399779
-0.317598
-0.100553
-0.358852
-0.00244441
-0.102512
-0.139129
-0.0190553
-0.016729
0.0322275
-0.126081
0.00467008
-0.0628428
0.00524263
-0.346654
-0.0793524
0.0658863
-0.0869634
-0.0808054
-0.0180253
-0.0156184
-0.0794328
-0.10785
-0.182315
-0.0787082
-0.0794055
0.0215954
-0.181857
-0.0750302
-0.0762407
-0.0760849
-0.0358486
-0.0931352
-0.38972
-0.221923
-0.119885
-0.171882
0.0108984
-0.0313355
-0.112432
0.0208535
-0.398547
-0.00343951
-0.247632
-0.392696
-0.313087
0.0145118
-0.415752
-0.0193439
-0.0203279
-0.0240725
0.0356265
-0.165549
-0.199068
-0.047396
-0.110163
-0.319365
-0.0791326
0.0131631
-0.086937
-0.189833
-0.327859
-0.0248789
-0.00556379
-0.28517