/*--------------------------------*- C++ -*----------------------------------*\
| =========                 |                                                 |
| \\      /  F ield         | OpenFOAM: The Open Source CFD Toolbox           |
|  \\    /   O peration     | Version:  v2012                                 |
|   \\  /    A nd           | Website:  www.openfoam.com                      |
|    \\/     M anipulation  |                                                 |
\*---------------------------------------------------------------------------*/
FoamFile
{
    version     2.0;
    format      ascii;
    class       surfaceScalarField;
    location    "300";
    object      phi;
}
// * * * * * * * * * * * * * * * * * * * * * * * * * * * * * * * * * * * * * //

dimensions      [0 3 -1 0 0 0 0];
oriented        oriented;


internalField   nonuniform List<scalar> 
41582
(
-0.229764
0.178662
0.0511026
0.00551319
0.0669894
-0.0725026
0.0059627
-0.00377034
-0.00219236
0.00079007
0.00165927
-0.00244934
0.0113228
0.0836305
-0.0949533
0.110929
-0.219819
0.10889
0.0179507
0.00751751
-0.0254682
0.112602
-0.101116
-0.0114861
-0.104745
0.0987272
0.00601826
0.0374149
-0.1031
0.0656851
-0.00765281
-0.0620378
0.0696906
0.0174457
-0.148425
0.13098
0.0906365
-0.0862546
-0.00438188
0.0182596
-0.0152699
-0.00298976
-0.0261354
0.0241523
0.00198315
0.0199008
0.114109
-0.13401
0.0373861
-0.0360684
-0.00131766
0.0991887
0.0114482
-0.110637
0.00912728
0.0326353
-0.0417626
0.0391808
0.103874
-0.143055
0.00218361
0.016076
0.081656
-0.20253
0.120874
0.0401501
-0.00276401
-0.169705
-0.0600596
0.47021
-0.242909
-0.227301
-0.135125
0.285889
-0.150764
0.270578
-0.123106
-0.147472
0.0421362
-0.018809
0.00309467
-0.0023046
0.000665218
0.00142406
-0.00208927
0.0702174
-0.0840595
0.0138421
-0.373337
0.107674
0.265662
0.0369054
-0.0335041
-0.00340128
-0.0863183
0.125499
-0.0197801
0.0289074
0.168898
0.10168
-0.118334
-0.0715356
0.189869
0.13476
-0.139985
0.00522517
0.0549038
-0.0109923
-0.0439114
-0.146961
0.145492
0.00146894
0.459868
-0.260378
-0.199491
0.139396
-0.141744
0.00234771
0.361953
-0.193177
-0.168776
0.0745072
-0.0905211
0.0160139
0.0496822
-0.0681811
0.0184989
-0.405931
0.0683463
0.337585
-0.110727
-0.0692474
0.179975
0.00217507
-0.12523
0.123054
-0.267978
0.207465
0.0605122
0.111644
-0.227499
0.115855
0.124675
-0.1225
0.0848616
-0.0103544
-0.0719184
0.0821178
-0.0101995
0.16321
-0.112907
-0.0503034
-0.065994
-0.00158027
0.0675743
0.00128279
-0.00179453
-0.0218198
0.028911
-0.00709111
-0.523292
0.196807
-0.115151
-0.00231986
0.00207975
0.000240118
-0.11637
-0.256967
-0.0922654
0.00731979
0.0849456
0.0224
-0.0890532
0.0666533
-0.0530012
0.0781308
-0.0251296
-0.296865
-0.00571562
0.302581
-0.171793
0.151313
0.02048
-0.00831614
0.0984757
-0.0901596
-0.0613697
-0.0153888
0.0767585
0.0230767
-0.0272062
0.00412943
-0.0159293
0.0917236
-0.0757944
-0.144107
0.128836
0.0152706
0.000485459
0.000179759
-0.416532
0.243802
0.172729
-0.144597
0.290946
-0.146349
-0.129197
0.112323
0.0168734
0.103094
-0.117574
0.0144805
-0.0840311
0.0121876
0.0718435
-0.116345
0.118764
-0.00241915
0.00018977
0.167283
-0.162854
-0.00442933
0.126664
0.0127323
0.0162492
-0.271055
0.135929
0.24057
-0.128926
-0.000686661
0.314883
-0.107797
-0.207086
-0.198664
-0.0693136
0.0882225
-0.104152
0.00114033
-0.0582846
0.0571442
0.0158854
0.0914054
-0.107291
-0.22993
0.138452
0.0914783
0.00157759
0.0466243
-0.0482019
-0.132885
0.152786
0.082793
-0.0125757
0.120704
-0.124603
0.0038981
0.134257
-0.00958234
0.00894007
-0.0524298
0.0434897
-0.0167021
-0.130241
0.146943
-0.122561
0.244589
-0.122028
0.0230574
-0.00371586
-0.0193416
-0.115472
0.306131
-0.190659
-0.433979
0.0280475
0.0192807
-0.00511356
-0.0141671
-0.0174425
-0.454221
0.245161
0.20906
0.102356
0.113179
-0.215535
0.176344
0.112842
-0.289186
-0.0801701
0.0939342
-0.0137641
-0.0665622
-0.0191011
0.0856633
-0.055681
0.0930958
0.38414
-0.179414
-0.204727
0.182099
-0.0602094
-0.12189
0.0520197
-0.0508793
-0.00812909
0.0116271
-0.003498
-0.00975138
0.0596249
-0.0498735
-0.0166457
-0.00729304
0.0252438
-0.101464
0.214824
-0.11336
-0.114859
0.109575
0.00528382
-0.471616
0.233426
0.238191
0.0525938
-0.0719303
0.0193366
0.111093
-0.123949
0.0128564
0.0779037
0.000582043
-0.0784858
0.120788
-0.0215993
-0.165007
0.175041
-0.0100342
-0.192927
-0.27869
0.0639758
0.118124
0.0276568
-0.0316836
0.00402671
-0.0711593
-0.00811585
0.0792752
-0.122841
0.143837
-0.0209962
-0.161445
0.0485381
-0.354064
0.209001
0.145063
0.0322113
0.282672
0.00368082
0.00228188
-0.00605289
0.00535453
0.00231477
0.270192
0.189676
-0.282682
0.138085
-0.108922
0.0531192
0.0558028
-0.348002
0.240206
-0.00475306
0.00276267
0.00199039
-0.00108206
-0.0012378
-0.0866281
-0.0881195
0.174748
-0.0235031
-0.00263231
-0.0881397
0.0079696
-0.237367
-0.285925
-0.12954
0.1827
-0.0531597
-0.0254764
0.0322241
-0.00674769
-0.0257523
0.0783461
0.499029
-0.293507
-0.205522
-0.45252
0.456776
-0.00425673
-0.118993
0.00264742
0.0682204
-0.0687415
0.000521107
0.000837022
-0.058579
0.0809789
-0.080252
-0.0387406
-0.0559634
0.209594
-0.153631
-0.254844
0.217006
0.0378377
0.1155
-0.121056
0.00555626
-0.0443292
0.166661
-0.122332
0.0255777
0.0293261
-0.0962241
0.0921017
0.00412244
-0.0872257
0.00319455
0.0905696
0.116896
0.208679
-0.198049
-0.0106299
-0.182482
0.182364
0.000117642
0.0017198
-0.0101174
0.0826937
-0.0725763
-0.232987
0.177024
-0.0747793
0.0802925
-0.0379773
0.0162977
0.0216796
-0.19333
-0.0615139
0.01447
0.0256801
0.38123
-0.406192
0.0249615
0.119801
-0.0474505
0.071535
-0.0240845
-0.0942246
-0.00311278
0.0973374
0.088832
0.0898299
-0.179538
0.0499974
0.0686219
0.00755394
-0.0761759
-0.112941
0.233295
-0.120354
0.0865781
-0.0948942
0.427594
-0.0463633
0.0484114
-0.0649887
0.0165773
-0.0116897
0.00356059
-0.00376595
0.0804744
0.0146159
-0.0950902
-0.520839
0.355532
0.165308
-0.00572043
0.0028399
0.00288052
-0.10655
0.126914
-0.0203632
-0.168069
0.167361
0.000707497
0.0705078
-0.0574724
-0.0130354
-0.198031
-0.322809
-0.421844
0.427356
-0.00551167
-0.162258
-0.254273
0.000748887
0.00716
-0.00790889
0.135425
-0.117979
0.132958
-0.0142965
-0.118662
0.00354153
-0.0123264
0.0198439
0.000270136
-0.0750329
0.0747628
-0.0756085
0.0295774
0.0460311
-0.121342
-0.00301329
0.124355
-0.0511416
0.0527192
-0.198855
0.0881278
-0.0199331
-0.15186
-0.0256115
0.0216044
0.00400712
0.0787429
0.0544511
-0.133194
-0.0526702
-0.127813
-0.0837911
0.0686129
0.0151783
-0.000321039
0.000390957
-6.99179e-05
0.214508
-0.125676
0.00414662
0.0189108
0.192115
-0.128139
-0.0011723
0.107148
-0.105976
-0.0886676
0.239776
-0.151108
-0.0669531
0.0195026
-0.0305783
0.0232853
0.123254
-0.0364244
-0.0868294
0.146011
-0.137205
-0.0088064
0.0297879
-0.0246039
-0.00518399
-0.072428
0.0726017
-0.000173675
0.0946505
-0.0278644
-0.066786
0.261451
0.107866
-0.369317
-0.12976
0.125083
0.00467663
0.0128851
0.121875
0.10015
-0.086168
-0.0139817
0.166976
-0.00770719
-0.159269
-0.0720712
0.00607714
0.210079
-0.11951
-0.0277669
-0.00314158
-0.137038
-0.210965
0.0191588
0.000121864
-0.120281
0.0400292
0.104065
0.226489
-0.10471
-0.121779
0.0645685
-0.0161571
-0.0629737
0.173903
-0.0742595
0.0260778
0.0481817
0.176611
-0.413983
0.237372
-0.32593
0.245059
0.0808704
-0.0170905
-0.0208868
-0.0453557
0.0536719
-0.00831624
-0.00922407
-0.114725
-0.231326
-0.0277922
0.259118
0.00453171
0.0965518
-0.101083
0.0659194
-0.0579691
-0.00795034
0.105796
0.0220005
0.068636
0.0681925
2.78741e-05
-0.144809
0.314608
-0.169799
0.100207
-0.119453
0.0192454
-0.0652737
0.0807289
-0.0154552
0.162782
-0.278255
-0.134378
0.126457
0.00792021
-0.166485
0.0879133
0.0785722
0.119747
-0.0195399
-0.15569
-0.0267919
0.0665013
0.00547066
-0.071972
-0.00459521
-0.00546226
0.0100575
0.00334928
-0.00465602
0.00130673
0.187472
-0.133964
-0.0535074
0.468465
-0.224662
-0.16246
0.281669
-0.119209
0.121783
-0.139771
0.0179876
-0.0790479
0.0137742
0.0721864
-0.339686
0.2675
0.189533
0.194607
0.0851783
-0.00470389
-0.0987145
-0.10014
0.268532
-0.166863
-0.101669
-0.211369
-0.142695
0.0178807
0.0242106
-0.0420912
-0.0971285
0.113014
0.142644
-0.0269603
-0.115684
0.00389241
-0.00174872
-0.0021437
-0.181125
0.136795
0.00431141
0.0138397
-0.0152448
0.0014051
0.00156315
-0.00166862
0.000105463
-0.0639162
-0.00851178
-0.00355987
0.0312167
-0.0237022
0.137811
-0.000710296
0.00228799
-0.0015777
-0.0283732
-0.0805489
0.1359
-0.150184
0.0142842
-0.00310119
-0.0587887
0.0618899
0.180801
-0.057754
-0.123047
-0.0341974
-0.0400622
0.00528491
-0.00193563
0.0505272
-0.0689687
0.0184415
-0.0125943
-0.0417004
-0.11752
0.15922
-0.0751614
-0.00889815
0.137743
-0.152495
0.0147521
-0.332996
0.333507
-0.000510857
-0.177252
0.00918306
0.000254127
0.00310658
-0.00336071
0.0855845
0.009066
-0.266401
0.177751
0.0886496
0.0580986
-0.072046
0.0139474
-0.175148
0.226717
-0.051569
0.0694962
-0.077149
0.176823
0.185129
0.0710258
-0.0204986
0.00135746
0.0017372
0.183483
-0.272151
-0.00344925
-0.239289
0.137825
-0.0562872
0.0737483
-0.0174611
0.0161387
-0.06914
0.007533
-0.00678412
-0.00220575
0.00619108
-0.00398533
0.120592
-0.0019348
0.00085274
-0.408482
0.0754862
0.339133
0.159896
0.205747
-0.342785
-0.107941
0.102577
0.00536456
0.0856802
-0.0489217
-0.0367585
0.0469824
-0.0380423
0.392444
-0.00838844
-0.384055
0.0545913
-0.159711
0.0352349
-0.178929
0.143694
0.0190254
0.0541593
-0.0731847
0.113954
-0.104069
-0.00988513
0.393052
-0.179364
-0.213688
0.098375
-0.104486
0.00611092
0.102727
-0.113826
0.0110996
0.0405788
0.082675
-0.162169
0.120468
0.000263078
0.0010394
-0.00130247
0.076789
-0.0236698
0.00245339
-0.00316369
0.00119426
0.000368889
0.00482922
-0.0766511
0.0180721
0.0711431
-0.0130445
-0.0816141
0.00645275
-0.0985638
-0.0679216
0.127963
-0.04922
-0.0934428
0.0922705
0.095071
-0.0999543
0.00488325
0.0494084
0.0362718
-0.0693367
0.015858
0.0534787
-0.0012486
0.00543382
-0.00418521
0.0660024
0.05984
0.0112049
-0.0710449
0.00178217
0.047087
-0.0488691
-0.115921
-0.0585035
0.0787168
-0.0818179
-0.00311511
0.00776905
-0.00465394
0.0691125
-0.0794224
0.0103099
0.104294
0.0286645
-0.00361842
0.0119598
-0.00834136
-0.0117462
0.0896499
0.109877
-0.135964
0.0260871
-0.12541
-0.140991
-0.000736084
0.00789608
-0.02034
0.0869692
-0.0666292
-0.0281328
0.00631293
0.148859
0.100216
-0.249075
0.231261
0.0845558
-0.315817
-0.00542902
0.0941805
0.00419448
-0.214271
-0.146868
0.361138
0.0404411
-0.0565607
0.0161196
0.040312
-0.0385298
-0.0844951
0.117564
-0.0330691
-0.132945
-0.00682568
-0.105749
-0.035995
-0.0563244
-0.00678438
0.0631088
-0.0121785
-0.108853
0.121032
-0.00257173
-0.0726483
0.0752201
0.0485472
0.0355384
-0.0840856
-0.174781
0.136043
0.0387382
0.227329
-0.16339
-0.0639394
0.231598
-0.151981
-0.0796171
0.0255535
-0.0297704
0.00421691
0.0927542
0.00590929
0.0192448
-0.0251541
0.0354138
0.13187
0.0609394
0.00498004
0.104472
-0.0102913
0.182621
0.0911504
-0.273771
-0.0728453
0.0765837
-0.00373834
0.0156072
-0.0867665
-0.135442
0.132132
0.00330933
0.0624298
-0.0717009
0.00927113
0.0848259
-0.083966
-0.000859948
-0.00270925
0.00224185
0.164137
-0.0946143
-0.0695228
-0.079082
0.0062367
-0.110374
0.126516
-0.016142
-0.0952314
0.197588
-0.102471
0.00869694
0.0937741
-0.0110032
0.0514444
-0.0523139
-0.0118075
0.0641213
-0.158598
0.0292522
0.129346
0.0700089
-0.0646073
-0.00540165
-0.00869048
0.00648474
0.121081
-0.132223
0.0111411
0.193179
-0.350275
0.157096
-0.332607
0.0196761
0.312931
0.0036532
-0.00229574
0.0946293
0.0719816
-0.166611
0.0790554
-0.0787852
0.119212
-0.350538
0.112942
-0.105815
-0.00712756
0.109295
0.00600031
-0.115295
-0.101154
0.321094
-0.219939
0.137322
-0.0964266
-0.0408956
-0.37985
0.16558
-0.000739708
0.101319
-0.100579
0.155161
-0.119927
-0.0641419
0.00126334
0.0628786
0.165328
0.189405
-0.354732
-0.0722924
0.0109227
-0.119605
0.0351104
0.390387
-0.213777
-0.000355225
-0.00157958
0.0166379
0.0679465
-0.0845844
0.0915803
-0.0430332
-0.00221355
0.00054493
-0.00907882
-0.0755974
0.0846762
0.00908924
-0.0428634
0.0337741
0.11509
-0.00579468
-0.0782493
0.227108
-0.0477801
0.224124
0.174093
-0.0442325
-0.12986
0.134368
-0.0454282
-0.0889394
0.146964
-0.0258827
0.0893314
0.0151404
0.00520788
-0.0693498
0.00707126
0.00228685
-0.00935811
0.0672064
0.0671612
0.1968
-0.372896
0.176096
-0.0288648
0.0558134
-0.0269486
-0.163208
-0.162765
0.325973
0.0453784
0.0327524
-0.40095
0.274277
0.126673
0.233891
0.166591
-0.400482
0.0757938
-0.013364
0.0817357
-0.0912048
0.00946911
-0.177806
0.343134
-0.0236727
-0.0555442
0.0792169
-0.11223
0.111491
-0.0289672
0.00436328
-0.143322
0.121499
0.0218225
-0.117878
0.233493
-0.115615
-0.159988
0.0733598
0.137233
-0.153935
-0.307518
0.162709
-0.0154764
0.0177783
-0.00230197
0.342159
-0.181353
-0.160806
0.194702
-0.0937378
-0.100965
0.00264338
-0.182091
0.30187
-0.119779
-0.116307
0.104129
-0.00668313
0.00356802
-0.00140498
0.00108394
0.164698
-0.391635
0.226937
-0.0677673
0.0107044
0.0570629
-0.126443
0.133892
-0.00744866
-0.0429603
0.0608409
-0.133669
0.00722582
0.0697033
-0.0231617
-0.0465416
-0.00181284
-0.00244654
0.00425938
0.00848964
-0.151585
0.143095
-0.0819854
0.0933082
-0.076606
0.0754453
0.00116071
0.106953
0.129885
-0.236837
0.000989311
0.0128504
-0.482983
0.351428
0.131555
0.257409
0.159258
-0.0651154
0.0800808
-0.0149654
0.0767443
-0.0601064
0.000933607
-0.000670529
0.116339
0.00897474
0.100314
-0.109288
0.00161207
-0.104083
0.0959754
0.00711825
7.19224e-05
0.000967473
-0.0148852
0.0187112
-0.00382603
-0.222722
0.103129
0.119593
-0.275159
0.1127
0.175369
-0.0582758
-0.117093
0.0943968
0.100306
-0.106543
0.115518
0.0255844
0.092768
-0.118352
0.178041
-0.294636
0.116595
-0.127615
0.147373
-0.019758
0.0475168
-0.0572682
-0.0391598
0.161996
-0.122836
-0.127447
0.0216982
0.0770702
0.0870669
0.0840598
-0.168398
0.141767
0.026631
-0.0660235
0.0803803
-0.0143568
-0.021022
0.0882284
0.137912
-0.163199
0.0252866
0.0929171
-0.188179
0.0952622
-0.0769134
0.00746461
0.0694488
0.0208632
-0.0251267
0.00426349
-0.0303605
0.0362071
-0.00584662
0.0600554
-0.0555941
-0.00446126
0.0613611
-0.0753283
0.0139672
0.283439
-0.211252
0.0510424
-0.0779495
0.0269071
0.167329
0.0600008
-0.455494
0.262567
-0.118582
0.23596
-0.117378
-0.011424
0.0727851
0.210567
-0.37944
0.168873
0.00394879
0.0191279
0.0037234
-0.004972
0.0801248
-0.0859092
0.00578437
-0.0235328
0.0190986
-0.0131893
-0.121441
0.11132
0.0101217
0.00541136
-0.0719736
0.176579
-0.343665
0.167085
0.209694
0.0906787
-0.300373
0.0122546
0.114809
0.0225136
-0.128449
0.15805
-0.0296008
-0.0670511
-0.00486726
-0.148568
0.142962
0.00560576
-0.177665
-0.0202198
0.197884
0.0264657
0.161006
0.113498
0.104697
0.0921096
-0.403154
0.191785
0.218001
0.108183
-0.326184
-0.0228478
-0.151933
-0.0179616
0.142702
-0.124741
0.267072
0.151351
-0.418423
-0.00112165
0.00357504
-0.0710453
-0.00586812
-0.0767529
0.0576518
-0.402434
0.41917
-0.016736
0.165153
-0.144477
-0.0206758
-0.170258
0.346837
-0.0849177
0.0790693
0.00584844
-0.343407
-0.109112
0.105389
-0.3162
0.210811
0.0689721
-0.0899941
0.106407
0.133417
-0.239823
0.0397888
-0.0598564
0.0200676
-0.283694
-0.170527
-0.0501726
0.0213077
0.0156709
-0.00395562
-0.0117152
0.00556799
0.0649398
0.219311
0.0602654
-0.279576
0.0102485
-0.00317722
0.071958
-0.063234
-0.00872405
0.290524
-0.137992
-0.152532
-0.0934177
-0.129004
0.222422
0.060687
0.000621799
-0.0613088
0.0302811
0.145088
0.127859
-0.0251325
0.307333
-0.385171
0.0778374
-0.0118415
-0.0335142
-0.194091
0.131576
0.0625146
-0.0403006
0.0593259
-0.143213
0.0077712
0.330262
-0.148339
-0.181923
0.054472
0.0181296
-0.000184006
-0.000776102
0.000960109
-0.191066
0.151906
-0.157954
-0.0719759
-0.366859
-0.0501555
0.417015
0.141793
-0.274106
0.132313
-0.074648
0.0630668
0.0115812
0.000289884
-0.0948301
0.0945402
0.261146
-0.0298848
0.000373241
0.000821024
0.0300475
-0.0259009
0.0595865
-0.0697926
0.0102062
0.203157
-0.11024
0.0703306
-0.000321633
0.0651377
-0.0106657
0.394319
-0.289254
-0.105065
-0.236059
0.113498
0.0128663
-0.0617525
0.0488862
-0.0876508
-0.00461455
-0.213082
0.0959773
0.117104
0.0794568
-0.0284144
0.0082703
-0.00900639
-0.0128704
-0.0715478
0.0769592
0.201857
-0.0971594
0.242163
0.226302
0.00903036
-0.00734655
0.00120404
-0.00162802
0.0191411
0.0423486
-0.0614898
0.0572973
-0.0691047
-0.0119177
0.0181139
-0.00619618
0.0214765
-0.0182336
-0.00324289
-0.0170842
0.0106612
0.0430139
-0.0536752
-0.0515794
0.0389789
0.0126005
0.00644932
0.0024957
-0.00894502
0.117955
-0.14073
0.0227751
-0.0536955
0.0661295
-0.012434
-0.0144859
-0.0855353
-0.10199
0.187526
-0.0409672
-0.15464
0.195607
-0.100866
0.147821
-0.0469548
0.0786205
-0.0929096
0.0142891
-0.181347
-0.162318
-0.0894543
0.231631
-0.142176
-0.141346
0.119283
0.0220632
0.0837662
0.0122092
-0.0647434
0.075495
-0.0107516
0.0303031
-0.033863
0.0766149
-0.0832672
0.00665236
-0.102619
-0.136032
0.23865
-0.413545
0.179903
0.233642
-0.0156117
0.136316
0.110747
-0.150108
0.0393616
0.00845298
-0.0388135
-0.0168386
0.00492087
0.065755
-0.00569967
-0.100308
0.334199
0.0608716
-0.0210828
-0.0159291
0.119803
-0.242248
0.147714
0.0945348
0.0136724
-0.0991186
0.0854462
0.161021
-0.0192547
-0.457305
0.0904461
-0.113682
0.0641165
0.0495651
0.12258
-0.0154722
-0.107108
0.00851527
0.000665375
-0.00918064
0.118046
0.0172501
-0.135296
-0.11899
0.114902
0.00408826
-0.00433258
0.00321093
0.0772237
-0.00897854
-0.0682452
0.107711
-0.0442471
-0.063464
-0.252277
0.246561
-0.192486
0.410369
-0.217884
-0.147389
0.344077
-0.196687
0.0658667
-0.00803826
-0.0578284
0.0803754
-0.0699978
-0.0103776
-0.0705423
0.0892205
-0.0186782
0.00691607
0.0231315
-0.112524
-0.0274612
0.000699321
0.279881
-0.225654
-0.0542275
0.0354568
-0.0588696
0.0234128
0.290624
-0.185236
-0.140388
-0.00817959
0.169019
-0.151374
-0.0176449
-0.286241
0.0875765
-0.0797407
0.0696233
0.108511
-0.12444
-0.108939
-0.113783
0.168979
-0.157904
-0.0110754
0.129516
-0.121027
0.0706912
-0.0111047
0.102183
0.0985816
-0.200764
0.39165
-0.203997
-0.187653
-0.0808211
0.0604811
0.147084
-0.00934142
-0.0221544
-0.107606
-0.154034
-0.134673
0.288708
-0.193299
-0.0929419
0.00804182
-0.240847
0.115436
-0.1425
-0.0918058
0.234305
-0.241071
0.151616
-0.448697
0.15519
-0.0704505
0.0141632
0.159884
-0.308463
0.14858
0.274413
-0.182967
-0.0914464
-0.00402578
0.0700975
-0.0660717
0.0358078
0.0867726
0.135969
0.0330493
-0.0229509
0.0021967
0.0207542
0.461464
-0.191271
0.00746748
-0.0123304
0.00871199
-0.00712157
0.0263663
-0.00732345
0.0604786
-0.0531551
0.185992
0.174173
-0.360165
0.0871063
-0.00334007
0.109487
0.024405
-0.431058
0.170223
0.260835
-0.18467
0.0577709
0.126899
-0.00330151
-0.0909231
-0.148257
0.0473916
0.211755
0.130405
-0.222413
0.10408
0.086185
0.110993
-0.197178
-0.0259082
0.0267892
-0.000880929
0.000234086
0.0617832
-0.0811389
0.0193557
0.0875728
-0.0027469
-0.0100742
-0.0592625
-0.100432
0.100722
0.37721
-0.0620264
-0.0516551
-0.078117
0.0581998
0.0199171
-0.313877
0.287067
0.0268097
-0.0650723
0.0869387
-0.0218664
-0.126573
-0.114274
-0.0584867
0.0693669
-0.0108801
0.117441
-0.0963911
-0.02105
-0.00484843
-0.0583096
0.0631581
-0.0897532
0.135734
-0.0459811
0.365743
-0.205859
-0.0273688
-0.158204
0.0033052
-0.00790042
-0.0834711
0.0174476
0.0630128
0.00138196
-0.0643948
-0.0092139
-0.00833402
0.309738
-0.190742
-0.118996
0.378799
-0.214102
-0.250649
-0.0330036
0.283653
0.271383
0.145283
-0.00140664
-0.124979
-0.115545
0.240524
0.0187813
0.14224
-0.0795986
0.127212
-0.0476131
0.145441
-0.0346941
0.00876233
0.0997162
-0.108478
-0.0836846
0.0189411
-0.00263951
0.00460462
-0.00196511
0.194599
-0.0924168
0.235203
-0.406248
0.171045
0.126534
-0.167502
0.00733654
0.0804094
-0.087746
0.148908
-0.00393411
-0.0960202
-0.112418
0.012504
0.0999139
-0.172152
-0.158757
0.330909
-0.270087
-0.133975
0.404062
0.0702256
-0.0630197
-0.00720592
0.0731058
-0.0612465
-0.0118593
-0.0858721
-0.112215
0.198087
0.14008
-0.0305935
-0.00302345
0.0333266
0.243186
0.0366953
0.143045
0.00973059
-0.152776
0.0119877
-0.0104057
-0.00158196
-0.118973
0.137445
-0.0184717
0.00116601
-0.00302267
0.00185666
-0.140639
-0.290419
0.125546
-0.1426
0.0170539
0.113204
-0.111227
-0.00197719
0.0736459
-0.0759145
0.00226869
-0.0218025
-0.228847
-0.191387
0.0872142
0.104173
0.0907939
0.00851185
-0.0993057
-0.0898988
0.08082
0.0904705
-0.0103457
0.0679043
-0.00489142
0.00831171
-0.00186239
0.144492
-0.0189462
-0.0189403
-0.00401061
0.154081
0.316129
-0.0258156
-9.26898e-05
0.061893
0.0984945
-0.00770057
-0.0365276
0.0484657
0.0641367
0.0927267
0.0144211
-0.165365
-0.0497871
0.215152
-0.104929
0.113158
-0.00822948
0.10153
-0.114693
-0.0480601
0.162753
-0.0797706
-0.00788022
-0.354833
0.177027
-0.0209874
0.187964
-0.0209888
0.082772
0.00957962
-0.0146932
-0.0867937
0.0162514
0.143775
-0.131749
-0.0120263
-0.127733
0.19759
-0.0698574
-0.192886
0.169889
0.0229971
0.00456163
-0.00573134
0.00116971
-0.285633
0.129117
0.156516
-0.00257097
0.264022
0.0815116
-0.00786572
0.392564
-0.152984
-0.23958
-0.144077
0.0281567
-0.000435342
-0.000628293
0.00106364
-0.00292054
-0.00183253
-0.0692099
0.181572
-0.112363
-0.222798
-0.194495
0.417293
-0.260451
0.159297
-0.130236
0.0112631
-0.00284337
0.00240803
0.423828
-0.240976
-0.182852
-0.00510174
0.0730483
-0.0495307
-0.109959
-0.0024588
0.0201373
0.0928052
-0.0567217
-0.134666
0.00040327
-0.0770093
0.361744
-0.0946716
-0.0212737
0.0779285
-0.0566548
0.00129035
0.00226369
-0.00355404
-0.112678
0.197791
-0.0851139
0.0104662
-0.0757807
0.0653144
0.179976
0.0403689
-0.220345
0.00714132
-0.00137771
-0.00576361
-0.111793
0.00686421
0.0980842
-0.263449
-0.126865
0.309486
0.0221639
0.0475394
-0.263651
0.105697
-0.183278
0.0845635
-0.0111414
-0.00353122
0.0146726
-0.0639974
-0.00376983
0.00335317
-0.00204632
-0.00130685
0.178449
0.174299
-0.352748
0.101034
0.0196644
-0.120698
0.0659253
-0.00862807
-0.031765
0.0217439
0.0100211
0.012303
0.037311
-0.0496141
-0.00582533
0.0654839
-0.0596586
-0.296505
-0.0173715
-0.137965
0.0482116
-0.0794094
-0.133672
0.00643126
0.0695708
-0.076002
0.00617842
-0.0314642
0.0243427
-0.0203015
0.157692
-0.137391
-0.0887651
0.0773992
0.0113659
0.0686398
0.0313204
-0.0999602
-0.0641864
-0.0320377
0.0319366
-0.0281491
-0.00378755
-0.238545
0.135926
0.0021558
0.00173661
-0.0599733
0.0717578
-0.0117845
0.0662459
0.00954796
0.29425
0.0199424
0.0877687
0.140434
-0.0264865
-0.113947
-0.445688
0.310128
0.13556
0.0114581
-0.1328
0.0487463
0.0916875
-0.147146
0.134033
0.0131135
-0.0917998
-0.00600936
0.0978091
-0.337835
0.235983
0.101852
-0.0645864
0.0574952
0.00709112
-0.0291911
0.094531
-0.116531
0.022
-0.150894
0.0180083
-0.0391148
0.186481
-0.147366
-0.000289202
-0.013766
0.0140552
0.0110525
-0.0304595
0.0046439
-0.117125
-0.156182
0.273307
-0.129108
0.0495096
-0.028196
-0.0555951
0.0119324
0.0810327
-0.0929652
0.0116339
-0.0114649
0.00874187
0.00272304
-0.000881516
0.00208555
-0.0211039
0.174767
-0.367944
0.0140233
0.088294
-0.102317
-0.076755
0.0742374
0.00251758
-0.0187637
0.00437404
0.0143897
-0.011742
0.10922
-0.0974777
0.114038
-0.134939
0.0209013
0.112199
-0.227403
0.115204
0.000227789
-0.182831
0.315799
-0.132968
-0.0962499
0.0282291
0.0680209
-0.00170998
-0.00172757
0.00343756
-0.00508133
0.105302
-0.10022
-0.0181849
-0.0194931
0.14289
-0.123396
-0.024426
-0.00603343
-0.144038
0.274529
-0.130491
0.15821
0.136652
-0.294862
0.236378
-0.129425
-0.0389292
-0.0124436
-0.0570767
0.0695203
0.160625
-0.383423
0.15703
-0.338377
0.112296
-0.237275
-0.00441207
-0.0601743
0.00229845
0.00732936
-0.00962781
0.109709
0.165078
-0.274787
-0.320519
0.171305
0.149214
0.269887
-0.160178
0.18778
-0.25235
0.0645699
0.165011
0.0149647
0.0024394
-0.0302063
-0.27899
0.180615
0.0983745
0.0863587
-0.204118
0.117759
-0.105769
0.0287549
0.0770141
-0.108352
-0.0168772
-0.168841
0.100027
-0.0982717
0.0331994
0.000900796
0.0245565
-0.0254573
-0.20841
0.095733
0.147796
-0.18691
-0.127635
0.162269
-0.0346337
0.160365
-0.27749
0.0174475
0.0719531
0.0154112
-0.0873643
-0.00220732
0.00337333
0.0984115
-0.00343584
-0.00889458
-0.17845
-0.0203132
0.198763
0.175973
0.085638
-0.261611
0.0960141
-0.0978745
0.00186038
0.073647
-0.00247882
-0.0711682
0.00362025
-0.0107387
0.00711848
0.303053
-0.144843
-0.0654304
0.106009
-0.188083
0.118873
0.00645363
-0.132551
0.126097
-0.253868
-0.00854383
0.262412
0.00430691
0.0234565
-0.0277634
-0.175835
-0.175749
0.351584
-0.0856318
-0.0136668
0.0102309
-0.115634
-0.121342
0.236976
-0.0934461
3.28162e-06
0.184833
-0.147053
-0.0377801
-0.0177938
-0.147213
-0.140246
0.126783
0.0134633
0.0865577
-0.0792211
-0.00680079
-0.009698
0.0164988
-0.101527
0.00972706
0.198435
0.0874544
-0.24548
-0.0923555
-0.00507024
0.328301
-0.20868
-0.119621
0.132708
-0.149911
0.0172033
-0.0713075
-0.00544752
-0.307852
-0.0641367
0.371989
0.278493
-0.0907135
-0.0641999
-0.16314
0.22734
-0.22758
-0.0929393
0.00881335
0.0770437
-0.0433382
-0.0337056
-0.0812961
0.198253
-0.116957
-0.0124753
-0.0656416
-0.049391
0.0420687
0.00732229
0.0171146
-0.0140558
-0.00305881
0.00581631
-0.00566658
-0.0641031
0.0600773
-0.00153446
0.00160638
-0.0304135
-0.147251
-0.258224
0.135465
0.122759
0.216024
0.0937139
0.015065
-0.0290891
0.0140241
-0.00322901
-0.0082359
-0.151731
-0.163
0.314731
-0.204425
-0.0479246
-0.155051
0.143683
0.0113684
-0.073522
0.0799532
0.00422078
-0.0181707
0.0178815
-0.00484118
0.0814561
-0.381792
0.275242
0.10655
-0.357072
0.150051
0.207021
0.17474
0.177757
-0.352497
0.0574121
0.127421
0.0577168
-0.0448504
0.124734
-0.268771
0.00184471
-0.187301
-0.261396
-0.291981
0.238301
0.0536803
0.331771
-0.142366
0.0680246
-0.0636803
-0.00434434
0.0696176
-0.0744661
-0.0496316
0.0435846
0.00604701
-0.0891291
0.0678554
-0.0114232
-0.113179
0.0983969
0.0874009
-0.185798
0.0626545
-0.0750981
-0.03886
-0.0105309
-0.00935782
-0.00234795
0.0117058
0.0875847
0.00451696
-0.0276094
0.24561
-0.122525
-0.156465
0.00199563
0.0755579
-0.0775535
0.0198394
0.0622784
0.0508512
-0.041762
0.0714115
-0.0737593
0.00234784
0.323854
-0.10783
-0.0175703
0.283348
-0.177306
-0.106042
-0.00356615
-0.0136317
0.107787
-0.118212
0.0104241
0.0758623
-0.0667388
-0.00912345
0.0031379
-0.0766599
-0.211075
-0.244419
0.286548
-0.103763
-0.182785
0.18679
0.0997581
0.124811
-0.142773
-0.129358
-0.106701
0.0377835
0.0392602
0.101937
0.00346781
-0.105405
0.106952
-0.104569
-0.00238252
-0.0022556
-0.00847561
0.0107312
-0.206362
-0.140409
0.346772
-0.0905128
0.0107422
0.00160735
0.0392956
-0.347148
-0.0250745
0.0914705
-0.00588644
0.0665735
-0.180233
-0.265455
0.0914969
-0.0375434
0.0482047
-0.0386398
-0.0109918
-0.0152645
0.0166515
-0.00138691
0.247859
0.144705
0.129367
0.118141
-0.247509
-0.00564086
-0.0268849
0.0325258
0.124765
-0.118733
-0.00603197
-0.106466
0.207654
-0.101188
0.409837
-0.356083
-0.0537537
-0.0669368
0.0596133
0.0353907
0.100509
0.318462
-0.118807
-0.199655
0.000297987
0.0136674
-0.0584347
0.0447673
-0.00675386
0.0871633
-0.0535084
-0.00174036
0.0552488
-0.283005
0.136588
0.146417
-0.0192475
0.00646556
-0.00190393
-0.234525
0.116647
-0.135299
-0.122925
0.0982001
0.00506821
0.0488132
-0.0538814
-0.214849
0.0969389
0.11791
0.149982
0.151599
-0.301582
-0.0556992
0.0854433
-0.0297441
-0.0518088
-0.0131799
0.081227
-0.0954921
0.0142651
0.110917
-0.105365
-0.0055523
0.0868265
0.120017
-0.206844
0.202708
-0.356431
0.153723
0.0834633
-0.0115102
-0.120138
0.101011
0.019127
-0.160519
0.0328839
0.235621
-0.157759
-0.0778615
0.270842
0.0574591
-0.414301
0.0351731
0.379127
0.0754149
0.00404189
0.0140785
0.110687
0.0751285
0.00679086
-0.0819194
0.019696
-0.149937
0.00677919
-0.331209
0.16301
0.168199
0.0809045
0.393801
-0.00135731
-0.000635609
0.0774845
-0.0768489
0.261647
-0.159311
-0.102336
-0.00131025
0.00503365
-0.114458
-0.0843885
0.198846
-0.283048
0.129013
-0.03298
0.0338808
-0.136054
0.0651708
-0.0795738
0.014403
0.157501
-0.139845
-0.0176556
0.112812
0.0145531
-0.127366
0.082139
0.169378
0.174949
-0.344327
-0.105191
-0.0181857
-0.241753
0.103737
0.138016
-0.00309791
0.000953092
0.00214482
0.0657654
-0.0596133
-0.00615206
0.161808
0.00555301
-0.0758469
0.0647421
0.0111048
0.00910837
0.00912734
0.10179
-0.0139265
0.423763
-0.00101893
0.00230928
0.344685
-0.125374
-0.0843974
0.0286982
0.166288
0.100781
-0.267068
0.0025362
0.000573611
-6.43042e-05
-0.000509307
0.0685452
-0.00421947
0.00696353
-0.00274407
0.224558
0.236906
-0.00089039
0.00258679
-0.0016964
0.0947845
-0.253398
0.0299742
0.08759
0.0482517
-0.0558718
0.00762005
0.122375
-0.113248
0.0929657
-0.0243259
0.21541
-0.113058
0.130297
-0.0172389
0.26051
-0.413207
0.152696
0.123646
-0.132031
0.00838465
0.0750682
-0.00882237
-0.0773608
0.0801349
-0.00277413
-0.00801906
0.0104647
-0.00244559
0.0765848
-0.00116985
0.0190759
0.0345961
0.331159
-0.161781
0.108564
0.0789891
-0.0161403
-0.0628488
-0.0141154
0.0162472
-0.00213183
-0.198915
0.113043
-0.00459579
0.0738019
-0.0692061
-0.0150078
0.106413
-0.109978
0.101337
0.00864056
-0.298053
-0.123791
0.0141403
-0.0496699
-0.127984
0.11072
0.0172639
-0.337616
0.190227
0.00313828
-0.00382888
0.000690601
0.0123814
-0.12544
-0.18174
0.36019
0.0328588
-0.0711248
0.038266
0.00230499
-0.0213661
0.130392
-0.109026
0.0105071
0.167244
-0.141763
0.0189219
-0.007234
-0.013448
0.0163826
-0.00293451
-0.140376
0.244434
-0.104058
0.135947
0.257105
0.0764463
-0.0845622
-0.154475
0.125147
0.0293286
0.00504278
-0.00447757
-0.000565205
-0.0304879
0.290998
-0.0390625
0.050652
-0.0115895
-0.140003
-0.0144719
-0.0296302
0.0261402
0.00349004
0.221759
0.11015
-0.331909
-0.0722684
0.0774498
-0.00518145
-0.00122928
0.0220925
0.000912668
-0.00262265
0.000290663
0.0018447
-0.00213536
-0.00128752
0.00110351
0.312391
-0.00511005
0.0147228
-0.00961277
0.0953908
-0.00698955
0.0552413
-0.148334
-0.0714852
0.442959
-0.197799
-0.0461512
-0.0500987
0.00157613
-0.00222186
0.000645729
0.0607605
0.0102567
-0.0710172
0.0573757
0.151303
-0.0072085
0.182087
0.103344
-0.285431
0.0133911
-0.0856594
-0.34004
0.197793
0.142246
0.0832347
0.152386
-0.00151121
0.00176534
0.142146
-0.163567
0.0214215
0.00146884
-0.000504085
-0.000964759
0.176201
-0.27393
0.0977286
-0.226331
-0.0150138
-0.0105978
-0.288602
0.171199
0.117403
-0.0812655
0.0786937
0.28406
-0.117772
-0.0743154
-0.115792
0.190107
0.0158539
-0.122404
0.105149
0.131251
-0.236399
-0.130986
-0.00677241
-0.10622
0.0282419
0.0779784
0.317603
0.0545592
-0.372162
0.0851944
-0.00230583
0.00259649