/*--------------------------------*- C++ -*----------------------------------*\
| =========                 |                                                 |
| \\      /  F ield         | OpenFOAM: The Open Source CFD Toolbox           |
|  \\    /   O peration     | Version:  v2012                                 |
|   \\  /    A nd           | Website:  www.openfoam.com                      |
|    \\/     M anipulation  |                                                 |
\*---------------------------------------------------------------------------*/
FoamFile
{
    version     2.0;
    format      ascii;
    class       surfaceScalarField;
    location    "300";
    object      phi_0;
}
// * * * * * * * * * * * * * * * * * * * * * * * * * * * * * * * * * * * * * //

dimensions      [0 3 -1 0 0 0 0];
oriented        oriented;


internalField   nonuniform List<scalar> 
41582
(
-0.229764
0.178662
0.0511025
0.00551255
0.06699
-0.0725026
0.00596256
-0.00377023
-0.00219234
0.000791604
0.0016596
-0.0024512
0.0113232
0.0836298
-0.094953
0.110929
-0.219819
0.10889
0.017951
0.00751963
-0.0254706
0.112602
-0.101116
-0.0114858
-0.104745
0.0987266
0.0060189
0.0374157
-0.103101
0.0656849
-0.00765298
-0.0620376
0.0696906
0.0174455
-0.148425
0.13098
0.0906369
-0.0862553
-0.00438165
0.0182558
-0.0152664
-0.00298941
-0.0261322
0.0241509
0.00198128
0.0199007
0.114109
-0.13401
0.0373854
-0.0360665
-0.00131895
0.0991885
0.0114481
-0.110637
0.00912655
0.0326347
-0.0417613
0.0391808
0.103874
-0.143055
0.00218337
0.0160725
0.0816558
-0.20253
0.120874
0.0401485
-0.00276308
-0.169705
-0.0600596
0.47021
-0.242909
-0.227301
-0.135125
0.285889
-0.150764
0.270578
-0.123106
-0.147472
0.0421357
-0.0188089
0.00309651
-0.00230491
0.000665986
0.00142404
-0.00209002
0.0702175
-0.0840597
0.0138421
-0.373337
0.107674
0.265662
0.0369045
-0.0335022
-0.00340229
-0.0863182
0.125499
-0.0197799
0.0289064
0.168898
0.10168
-0.118334
-0.0715353
0.189869
0.13476
-0.139985
0.00522515
0.0549035
-0.0109921
-0.0439114
-0.146961
0.145492
0.00146911
0.459868
-0.260378
-0.199491
0.139396
-0.141744
0.00234777
0.361953
-0.193177
-0.168776
0.0745062
-0.0905192
0.016013
0.0496809
-0.0681812
0.0185003
-0.405931
0.0683464
0.337585
-0.110727
-0.0692471
0.179975
0.00217451
-0.125229
0.123055
-0.267978
0.207465
0.0605122
0.111644
-0.227499
0.115855
0.124675
-0.1225
0.0848598
-0.0103535
-0.0719202
0.0821185
-0.0101984
0.16321
-0.112907
-0.0503034
-0.0659949
-0.00158031
0.0675752
0.00128289
-0.00179444
-0.0218181
0.0289078
-0.00708969
-0.523292
0.196807
-0.115151
-0.00232041
0.00207954
0.000240865
-0.11637
-0.256967
-0.0922651
0.0073198
0.0849453
0.0223995
-0.0890522
0.0666527
-0.0530014
0.078131
-0.0251295
-0.296865
-0.00571568
0.302581
-0.171794
0.151313
0.0204804
-0.00831657
0.0984761
-0.0901595
-0.0613688
-0.0153897
0.0767586
0.0230749
-0.0272027
0.00412785
-0.0159294
0.0917236
-0.0757942
-0.144106
0.128836
0.0152705
0.000485421
0.000180565
-0.416532
0.243802
0.172729
-0.144597
0.290946
-0.146349
-0.129196
0.112323
0.0168733
0.103094
-0.117574
0.0144805
-0.0840306
0.0121863
0.0718443
-0.116345
0.118764
-0.00241918
0.000190031
0.167283
-0.162854
-0.00442913
0.126664
0.0127322
0.0162491
-0.271054
0.135929
0.24057
-0.128926
-0.00068649
0.314883
-0.107797
-0.207086
-0.198664
-0.0693135
0.0882223
-0.104152
0.00113736
-0.0582856
0.0571482
0.0158853
0.0914053
-0.107291
-0.22993
0.138452
0.0914784
0.00157407
0.0466268
-0.0482009
-0.132885
0.152786
0.0827932
-0.0125757
0.120704
-0.124602
0.00389798
0.134257
-0.00958285
0.00893941
-0.0524303
0.0434909
-0.0167026
-0.130241
0.146943
-0.122561
0.244589
-0.122027
0.0230573
-0.00371683
-0.0193405
-0.115473
0.306131
-0.190659
-0.433978
0.0280475
0.0192792
-0.00511282
-0.0141663
-0.0174424
-0.454221
0.245161
0.20906
0.102356
0.113179
-0.215535
0.176344
0.112842
-0.289186
-0.0801699
0.0939341
-0.0137641
-0.066562
-0.0191011
0.085663
-0.0556807
0.0930964
0.38414
-0.179414
-0.204726
0.182099
-0.0602093
-0.12189
0.0520175
-0.0508802
-0.00812828
0.0116248
-0.00349655
-0.00975217
0.0596254
-0.0498732
-0.0166471
-0.007295
0.025246
-0.101464
0.214824
-0.11336
-0.114858
0.109574
0.00528442
-0.471616
0.233426
0.238191
0.0525923
-0.0719296
0.0193374
0.111092
-0.123949
0.012857
0.0779035
0.000582214
-0.0784857
0.120788
-0.0215991
-0.165006
0.175041
-0.0100342
-0.192927
-0.27869
0.0639757
0.118124
0.0276545
-0.0316814
0.00402697
-0.0711602
-0.00811564
0.0792758
-0.122841
0.143837
-0.0209962
-0.161445
0.0485382
-0.354064
0.209001
0.145063
0.0322113
0.282672
0.00368071
0.00228185
-0.00604991
0.00535189
0.00231476
0.270192
0.189676
-0.282681
0.138084
-0.108922
0.0531191
0.0558029
-0.348002
0.240206
-0.00475467
0.00276374
0.00199093
-0.00108165
-0.00123876
-0.0866285
-0.0881193
0.174748
-0.0235017
-0.00263046
-0.0881395
0.00796964
-0.237367
-0.285925
-0.12954
0.1827
-0.0531597
-0.0254743
0.032221
-0.00674674
-0.0257534
0.0783456
0.499029
-0.293507
-0.205522
-0.45252
0.456776
-0.00425673
-0.118992
0.00264744
0.0682216
-0.0687431
0.000521561
0.000837962
-0.0585784
0.0809779
-0.0802519
-0.0387406
-0.0559631
0.209594
-0.153631
-0.254844
0.217006
0.0378376
0.1155
-0.121056
0.00555613
-0.0443288
0.166661
-0.122332
0.0255774
0.0293261
-0.096223
0.0921009
0.00412211
-0.0872263
0.00319572
0.0905696
0.116896
0.208678
-0.198048
-0.01063
-0.182482
0.182364
0.000117386
0.00171977
-0.0101183
0.0826943
-0.0725761
-0.232987
0.177024
-0.0747798
0.0802923
-0.0379782
0.016298
0.0216802
-0.19333
-0.0615137
0.0144703
0.0256782
0.38123
-0.406192
0.0249615
0.119801
-0.0474527
0.0715353
-0.0240826
-0.0942251
-0.00311218
0.0973373
0.0888319
0.0898298
-0.179537
0.0499974
0.0686229
0.00755382
-0.0761767
-0.112941
0.233295
-0.120354
0.0865781
-0.0948946
0.427594
-0.0463633
0.0484121
-0.0649903
0.0165783
-0.0116876
0.0035593
-0.00376653
0.0804744
0.0146149
-0.0950893
-0.520839
0.355532
0.165308
-0.00572028
0.00283984
0.00288044
-0.10655
0.126913
-0.0203632
-0.168068
0.167361
0.000707342
0.0705086
-0.0574749
-0.0130338
-0.198031
-0.322809
-0.421844
0.427356
-0.00551167
-0.162258
-0.254273
0.000748723
0.00715694
-0.00790566
0.135425
-0.117979
0.132958
-0.0142961
-0.118662
0.00354145
-0.0123262
0.0198458
0.000270321
-0.075033
0.0747627
-0.0756069
0.0295734
0.0460335
-0.121341
-0.0030137
0.124355
-0.0511441
0.0527181
-0.198855
0.0881275
-0.0199335
-0.15186
-0.0256084
0.0216027
0.00400572
0.0787428
0.054451
-0.133194
-0.05267
-0.127814
-0.0837897
0.0686133
0.0151764
-0.000322204
0.000390876
-6.86721e-05
0.214508
-0.125676
0.00414763
0.0189097
0.192114
-0.128139
-0.00117291
0.107148
-0.105976
-0.0886676
0.239776
-0.151108
-0.0669538
0.0195011
-0.0305809
0.0232859
0.123253
-0.0364246
-0.0868286
0.146011
-0.137205
-0.00880687
0.0297848
-0.0246018
-0.00518303
-0.0724301
0.072604
-0.000173889
0.0946505
-0.0278649
-0.0667856
0.261451
0.107866
-0.369317
-0.12976
0.125083
0.00467659
0.0128851
0.121875
0.100149
-0.086168
-0.0139815
0.166976
-0.00770738
-0.159269
-0.0720721
0.00607715
0.210079
-0.119509
-0.027765
-0.00314289
-0.137038
-0.210965
0.0191577
0.00012143
-0.120281
0.0400291
0.104065
0.226489
-0.10471
-0.121779
0.0645695
-0.0161574
-0.0629737
0.173903
-0.07426
0.0260749
0.0481851
0.176611
-0.413983
0.237372
-0.32593
0.245059
0.0808703
-0.017091
-0.0208872
-0.0453533
0.0536695
-0.00831615
-0.0092246
-0.114724
-0.231326
-0.0277921
0.259118
0.00453184
0.0965516
-0.101083
0.0659208
-0.0579689
-0.00795181
0.105796
0.0220004
0.0686366
0.068194
2.75719e-05
-0.144809
0.314608
-0.169799
0.100207
-0.119453
0.0192458
-0.0652756
0.08073
-0.0154544
0.162782
-0.278255
-0.134377
0.126457
0.00792019
-0.166485
0.0879132
0.0785721
0.119747
-0.0195402
-0.15569
-0.0267917
0.0665017
0.00546925
-0.071971
-0.00459393
-0.00546306
0.010057
0.00334924
-0.00465653
0.00130729
0.187471
-0.133964
-0.0535073
0.468465
-0.224662
-0.16246
0.281669
-0.119209
0.121783
-0.139771
0.0179876
-0.0790489
0.0137733
0.0721863
-0.339686
0.2675
0.189533
0.194608
0.0851775
-0.00470309
-0.0987147
-0.10014
0.268532
-0.166863
-0.10167
-0.211369
-0.142695
0.0178806
0.0242091
-0.0420896
-0.0971283
0.113014
0.142644
-0.0269602
-0.115684
0.0038924
-0.0017477
-0.0021447
-0.181125
0.136796
0.00431054
0.0138367
-0.0152418
0.0014051
0.00156374
-0.00166826
0.000104523
-0.0639183
-0.00851179
-0.00356042
0.0312149
-0.0237022
0.137811
-0.000709962
0.00228765
-0.00157769
-0.028373
-0.0805489
0.1359
-0.150184
0.0142841
-0.00310164
-0.0587879
0.0618896
0.180801
-0.0577539
-0.123047
-0.0341949
-0.0400651
0.00528529
-0.00193604
0.0505283
-0.0689701
0.0184419
-0.0125943
-0.0417001
-0.11752
0.15922
-0.0751614
-0.00889824
0.137742
-0.152495
0.0147526
-0.332996
0.333507
-0.000510877
-0.177252
0.00918323
0.00025454
0.00310738
-0.00336192
0.0855839
0.00906661
-0.266401
0.177751
0.0886494
0.0581015
-0.0720464
0.0139449
-0.175148
0.226717
-0.051569
0.069496
-0.077149
0.176823
0.185129
0.0710272
-0.0204989
0.00135907
0.00173744
0.183483
-0.272151
-0.00344919
-0.239289
0.137825
-0.0562871
0.0737491
-0.0174619
0.0161382
-0.0691396
0.00752957
-0.00678084
-0.0022052
0.00619202
-0.00398682
0.120592
-0.00193512
0.000853475
-0.408482
0.0754862
0.339133
0.159896
0.205747
-0.342785
-0.107941
0.102577
0.00536434
0.08568
-0.0489218
-0.0367582
0.0469828
-0.0380434
0.392444
-0.00838845
-0.384055
0.054591
-0.159711
0.0352349
-0.178928
0.143694
0.0190229
0.0541597
-0.0731827
0.113954
-0.104069
-0.00988501
0.393052
-0.179364
-0.213688
0.0983742
-0.104486
0.0061113
0.102726
-0.113826
0.0110995
0.0405791
0.0826742
-0.162169
0.120469
0.000264337
0.00103888
-0.00130322
0.076789
-0.0236699
0.00245347
-0.00316343
0.00119522
0.000368525
0.00482858
-0.0766502
0.0180718
0.0711435
-0.013042
-0.0816143
0.00645282
-0.0985638
-0.0679215
0.127963
-0.0492199
-0.0934435
0.0922706
0.0950709
-0.099954
0.00488305
0.0494085
0.0362715
-0.0693362
0.015858
0.0534782
-0.00124909
0.00543496
-0.00418587
0.0660025
0.0598398
0.0112049
-0.0710447
0.00178241
0.0470866
-0.0488691
-0.115921
-0.0585032
0.0787158
-0.0818175
-0.00311645
0.00776951
-0.00465306
0.0691146
-0.0794239
0.0103092
0.104294
0.028664
-0.00361689
0.0119572
-0.00834035
-0.0117463
0.0896498
0.109877
-0.135964
0.026087
-0.125411
-0.14099
-0.000736004
0.00789294
-0.0203403
0.0869696
-0.0666293
-0.0281296
0.00631152
0.148859
0.100216
-0.249075
0.231261
0.0845557
-0.315817
-0.00542792
0.0941801
0.0041941
-0.214271
-0.146867
0.361138
0.0404401
-0.0565598
0.0161198
0.0403119
-0.0385295
-0.0844949
0.117564
-0.033069
-0.132945
-0.00682562
-0.105749
-0.0359949
-0.056326
-0.00678475
0.0631107
-0.0121785
-0.108853
0.121032
-0.00257183
-0.0726481
0.0752199
0.0485473
0.0355377
-0.0840851
-0.174781
0.136043
0.0387383
0.227329
-0.16339
-0.0639393
0.231598
-0.151981
-0.079617
0.0255511
-0.0297673
0.00421619
0.0927541
0.00590864
0.0192452
-0.0251539
0.0354136
0.13187
0.0609392
0.00498154
0.104471
-0.0102909
0.182621
0.0911504
-0.273771
-0.0728451
0.0765834
-0.00373824
0.0156071
-0.0867673
-0.135442
0.132132
0.00330938
0.0624281
-0.0717014
0.00927331
0.084826
-0.0839655
-0.000860519
-0.00270871
0.00224155
0.164137
-0.0946138
-0.0695231
-0.0790817
0.00623659
-0.110374
0.126516
-0.016142
-0.0952317
0.197588
-0.102471
0.00869604
0.0937746
-0.0110034
0.0514435
-0.0523142
-0.0118076
0.0641217
-0.158598
0.029252
0.129346
0.0700076
-0.0646081
-0.00539947
-0.00869151
0.00648631
0.121081
-0.132222
0.0111413
0.193179
-0.350275
0.157096
-0.332607
0.019676
0.312931
0.00365498
-0.00229592
0.094629
0.0719818
-0.166611
0.0790554
-0.0787851
0.119212
-0.350538
0.112942
-0.105814
-0.00712829
0.109295
0.00600041
-0.115295
-0.101154
0.321093
-0.219939
0.137322
-0.0964271
-0.0408952
-0.37985
0.16558
-0.000738977
0.101318
-0.100579
0.155161
-0.119926
-0.0641423
0.00126343
0.0628789
0.165328
0.189404
-0.354732
-0.0722925
0.0109237
-0.119605
0.0351103
0.390387
-0.213777
-0.000354547
-0.00158058
0.0166382
0.0679467
-0.084585
0.0915799
-0.0430326
-0.00221405
0.000545787
-0.0090788
-0.0755973
0.084676
0.00908903
-0.042863
0.0337739
0.115089
-0.00579473
-0.0782494
0.227108
-0.0477801
0.224124
0.174093
-0.0442324
-0.12986
0.134367
-0.045428
-0.0889394
0.146964
-0.0258828
0.0893311
0.0151399
0.00520783
-0.0693502
0.0070713
0.00228572
-0.00935701
0.0672062
0.0671612
0.1968
-0.372896
0.176096
-0.0288644
0.0558157
-0.0269513
-0.163208
-0.162765
0.325973
0.0453782
0.0327527
-0.40095
0.274277
0.126673
0.233891
0.166591
-0.400482
0.0757939
-0.0133658
0.0817364
-0.0912038
0.00946743
-0.177806
0.343134
-0.0236724
-0.0555434
0.0792158
-0.11223
0.111491
-0.0289641
0.0043623
-0.143321
0.121499
0.0218224
-0.117878
0.233493
-0.115615
-0.159988
0.0733596
0.137233
-0.153935
-0.307518
0.162709
-0.0154758
0.017777
-0.00230123
0.342159
-0.181353
-0.160806
0.194702
-0.0937378
-0.100964
0.00264328
-0.182091
0.30187
-0.119779
-0.116307
0.104129
-0.00668379
0.00356734
-0.00140539
0.00108319
0.164698
-0.391635
0.226937
-0.0677659
0.0107017
0.0570641
-0.126443
0.133892
-0.00744908
-0.0429587
0.0608392
-0.133669
0.00722627
0.0697025
-0.0231608
-0.0465417
-0.00181433
-0.00244673
0.00426106
0.00848978
-0.151585
0.143095
-0.0819848
0.093308
-0.0766065
0.0754443
0.00116224
0.106953
0.129885
-0.236837
0.000988895
0.0128478
-0.482983
0.351428
0.131555
0.257409
0.159258
-0.0651146
0.080079
-0.0149644
0.0767448
-0.0601066
0.000934249
-0.000669912
0.116339
0.00897519
0.100313
-0.109288
0.00161281
-0.104083
0.0959753
0.00711827
7.07791e-05
0.000968099
-0.0148824
0.0187082
-0.0038258
-0.222722
0.103129
0.119593
-0.275159
0.1127
0.175369
-0.0582758
-0.117093
0.0943967
0.100306
-0.106543
0.115518
0.0255845
0.0927679
-0.118352
0.178041
-0.294636
0.116595
-0.127615
0.147373
-0.0197584
0.0475168
-0.057269
-0.0391598
0.161995
-0.122836
-0.127447
0.0216981
0.0770705
0.0870664
0.0840598
-0.168398
0.141766
0.0266314
-0.0660226
0.0803781
-0.0143555
-0.0210221
0.0882283
0.137912
-0.163199
0.0252867
0.092917
-0.188179
0.0952622
-0.0769129
0.00746534
0.0694476
0.0208621
-0.0251237
0.00426156
-0.0303591
0.0362056
-0.00584655
0.0600574
-0.0555948
-0.00446259
0.0613608
-0.075328
0.0139672
0.283438
-0.211252
0.0510438
-0.0779507
0.0269069
0.167329
0.0600007
-0.455494
0.262567
-0.118582
0.23596
-0.117378
-0.011424
0.0727848
0.210567
-0.37944
0.168873
0.00394955
0.0191253
0.00372417
-0.00497326
0.0801247
-0.085909
0.0057843
-0.0235328
0.0190983
-0.0131897
-0.121441
0.111319
0.0101219
0.00541139
-0.0719733
0.17658
-0.343665
0.167085
0.209694
0.0906786
-0.300373
0.0122553
0.114809
0.0225132
-0.128449
0.15805
-0.0296007
-0.0670515
-0.00486867
-0.148568
0.142962
0.00560556
-0.177665
-0.0202197
0.197884
0.0264656
0.161006
0.113498
0.104697
0.0921097
-0.403154
0.191785
0.218001
0.108183
-0.326184
-0.0228479
-0.151933
-0.0179615
0.142702
-0.124741
0.267072
0.151351
-0.418423
-0.00112112
0.00357458
-0.0710441
-0.00586878
-0.0767526
0.0576515
-0.402434
0.41917
-0.016736
0.165153
-0.144477
-0.0206759
-0.170258
0.346837
-0.0849175
0.079069
0.00584851
-0.343407
-0.109112
0.105388
-0.3162
0.210811
0.0689719
-0.0899941
0.106406
0.133417
-0.239823
0.0397904
-0.0598594
0.0200689
-0.283694
-0.170527
-0.0501746
0.0213102
0.0156674
-0.00395489
-0.0117125
0.00556637
0.0649423
0.219311
0.0602654
-0.279576
0.0102472
-0.00317595
0.07196
-0.0632362
-0.00872385
0.290524
-0.137992
-0.152532
-0.0934175
-0.129004
0.222422
0.0606874
0.000622694
-0.0613101
0.0302811
0.145088
0.127859
-0.0251323
0.307333
-0.38517
0.0778371
-0.011843
-0.0335104
-0.19409
0.131576
0.0625144
-0.0403014
0.0593243
-0.143213
0.00777115
0.330262
-0.148339
-0.181923
0.0544738
0.0181302
-0.000183716
-0.000777109
0.000960826
-0.191066
0.151906
-0.157954
-0.071976
-0.366859
-0.0501555
0.417015
0.141793
-0.274106
0.132313
-0.0746485
0.0630678
0.0115807
0.000289843
-0.0948299
0.0945401
0.261146
-0.0298848
0.000373411
0.000821804
0.0300469
-0.0258993
0.0595867
-0.0697934
0.0102067
0.203157
-0.11024
0.0703309
-0.000323309
0.0651397
-0.010666
0.394319
-0.289254
-0.105065
-0.236059
0.113498
0.0128683
-0.0617544
0.0488862
-0.0876506
-0.00461456
-0.213081
0.0959773
0.117104
0.0794579
-0.0284141
0.00826714
-0.00900315
-0.0128702
-0.0715476
0.076959
0.201857
-0.0971595
0.242162
0.226302
0.00903151
-0.00734749
0.00120473
-0.00162847
0.019141
0.0423484
-0.0614894
0.0572947
-0.0691023
-0.0119151
0.0181112
-0.00619608
0.021475
-0.0182329
-0.00324211
-0.0170846
0.0106636
0.0430148
-0.0536783
-0.0515769
0.0389774
0.0125995
0.00645028
0.00249607
-0.00894636
0.117955
-0.140731
0.0227755
-0.0536978
0.0661298
-0.012432
-0.0144858
-0.0855354
-0.10199
0.187526
-0.040967
-0.15464
0.195607
-0.100866
0.14782
-0.0469547
0.0786195
-0.0929092
0.0142897
-0.181347
-0.162318
-0.0894541
0.23163
-0.142176
-0.141346
0.119283
0.0220632
0.0837662
0.0122091
-0.064742
0.0754945
-0.0107525
0.0303011
-0.0338615
0.0766148
-0.0832671
0.00665224
-0.102618
-0.136032
0.23865
-0.413545
0.179903
0.233642
-0.0156116
0.136316
0.110746
-0.150108
0.039362
0.00845299
-0.0388121
-0.0168356
0.00492051
0.0657563
-0.00569886
-0.100308
0.334199
0.0608742
-0.0210838
-0.0159291
0.119803
-0.242248
0.147713
0.0945349
0.0136713
-0.0991177
0.0854465
0.161021
-0.0192551
-0.457305
0.0904461
-0.113681
0.0641169
0.0495641
0.12258
-0.0154723
-0.107108
0.00851203
0.000665381
-0.00917741
0.118046
0.0172506
-0.135297
-0.11899
0.114901
0.00408827
-0.00433224
0.00321112
0.0772233
-0.00897928
-0.068244
0.107711
-0.0442471
-0.063464
-0.252277
0.246561
-0.192486
0.410369
-0.217884
-0.147389
0.344077
-0.196687
0.065867
-0.00803889
-0.0578281
0.0803768
-0.0699996
-0.0103772
-0.0705423
0.0892206
-0.0186782
0.00691693
0.02313
-0.112524
-0.0274612
0.000699361
0.279881
-0.225654
-0.0542274
0.0354551
-0.0588679
0.0234128
0.290624
-0.185236
-0.140388
-0.00817941
0.169019
-0.151374
-0.0176449
-0.286241
0.0875765
-0.0797411
0.0696229
0.108511
-0.12444
-0.108939
-0.113783
0.16898
-0.157904
-0.0110757
0.129516
-0.121026
0.0706918
-0.0111051
0.102183
0.0985814
-0.200764
0.39165
-0.203997
-0.187653
-0.0808214
0.0604811
0.147084
-0.00934181
-0.0221543
-0.107605
-0.154034
-0.134673
0.288708
-0.193299
-0.0929418
0.00804171
-0.240847
0.115436
-0.1425
-0.0918057
0.234305
-0.24107
0.151616
-0.448697
0.15519
-0.0704511
0.014164
0.159884
-0.308463
0.14858
0.274413
-0.182967
-0.0914463
-0.00402732
0.0700982
-0.0660708
0.0358079
0.0867725
0.135969
0.0330492
-0.0229495
0.00219598
0.0207535
0.461464
-0.191271
0.00746746
-0.0123282
0.00871128
-0.00712064
0.0263659
-0.00732176
0.0604758
-0.0531541
0.185992
0.174173
-0.360165
0.0871062
-0.00334003
0.109486
0.0244054
-0.431058
0.170223
0.260835
-0.18467
0.0577708
0.126899
-0.00330211
-0.090923
-0.148257
0.0473916
0.211755
0.130405
-0.222413
0.104079
0.0861849
0.110993
-0.197178
-0.0259081
0.0267892
-0.000881047
0.000233761
0.0617841
-0.0811387
0.0193546
0.0875723
-0.00274633
-0.0100743
-0.0592619
-0.100432
0.100721
0.37721
-0.0620268
-0.0516543
-0.0781167
0.0581996
0.0199171
-0.313877
0.287067
0.0268098
-0.0650722
0.0869386
-0.0218664
-0.126573
-0.114274
-0.0584892
0.0693674
-0.0108782
0.117441
-0.0963911
-0.0210498
-0.00484855
-0.0583093
0.0631579
-0.0897531
0.135734
-0.045981
0.365743
-0.205859
-0.0273678
-0.158204
0.00330603
-0.00789996
-0.0834689
0.0174462
0.0630125
0.00138252
-0.064395
-0.00921394
-0.0083341
0.309738
-0.190742
-0.118996
0.378799
-0.214102
-0.250649
-0.0330035
0.283653
0.271383
0.145283
-0.00140704
-0.124979
-0.115545
0.240524
0.0187817
0.14224
-0.0795982
0.127212
-0.0476134
0.145441
-0.0346943
0.00876238
0.099716
-0.108478
-0.0836839
0.0189419
-0.00263844
0.00460412
-0.00196568
0.194599
-0.0924165
0.235203
-0.406248
0.171045
0.126534
-0.167502
0.00733577
0.08041
-0.0877458
0.148908
-0.0039339
-0.0960201
-0.112418
0.0125045
0.0999137
-0.172152
-0.158757
0.330909
-0.270087
-0.133975
0.404062
0.0702268
-0.0630214
-0.00720534
0.0731041
-0.0612475
-0.0118566
-0.085872
-0.112215
0.198087
0.14008
-0.030594
-0.00302422
0.0333253
0.243186
0.0366952
0.143045
0.00973093
-0.152776
0.0119849
-0.0104041
-0.00158084
-0.118972
0.137444
-0.0184719
0.00116592
-0.00302264
0.00185672
-0.140638
-0.290419
0.125546
-0.1426
0.0170539
0.113204
-0.111228
-0.00197672
0.0736465
-0.0759143
0.00226776
-0.0218025
-0.228847
-0.191387
0.0872141
0.104173
0.0907937
0.00851187
-0.0993056
-0.0898987
0.0808199
0.0904703
-0.0103456
0.0679044
-0.00489193
0.00831302
-0.00186274
0.144492
-0.0189461
-0.0189396
-0.00400989
0.154081
0.316129
-0.0258155
-9.26465e-05
0.061893
0.0984943
-0.00770061
-0.0365264
0.0484653
0.0641367
0.0927267
0.0144217
-0.165365
-0.049787
0.215152
-0.104929
0.113158
-0.00822887
0.10153
-0.114692
-0.0480605
0.162753
-0.0797704
-0.00788018
-0.354833
0.177027
-0.0209873
0.187963
-0.0209878
0.0827718
0.00957941
-0.0146922
-0.0867937
0.0162514
0.143775
-0.131749
-0.0120264
-0.127733
0.19759
-0.0698572
-0.192886
0.169889
0.0229969
0.00456177
-0.00573196
0.00117019
-0.285633
0.129117
0.156516
-0.00257085
0.264022
0.0815114
-0.00786489
0.392564
-0.152984
-0.23958
-0.144078
0.0281565
-0.000435912
-0.00062842
0.00106433
-0.00292128
-0.00183339
-0.0692098
0.181572
-0.112362
-0.222798
-0.194495
0.417292
-0.260451
0.159297
-0.130236
0.0112634
-0.00284409
0.00240818
0.423828
-0.240976
-0.182852
-0.00510209
0.0730488
-0.0495319
-0.109959
-0.00245934
0.020138
0.0928045
-0.0567216
-0.134666
0.00040161
-0.0770081
0.361744
-0.0946716
-0.0212738
0.0779283
-0.0566546
0.00129059
0.00226356
-0.00355415
-0.112677
0.197791
-0.0851138
0.010467
-0.0757803
0.0653133
0.179976
0.0403688
-0.220345
0.00714285
-0.00137802
-0.00576483
-0.111793
0.0068637
0.0980841
-0.263449
-0.126865
0.309485
0.0221622
0.0475403
-0.263651
0.105697
-0.183278
0.0845633
-0.0111391
-0.00353044
0.0146696
-0.0639984
-0.00376749
0.00335402
-0.00204762
-0.0013064
0.17845
0.174299
-0.352748
0.101034
0.0196643
-0.120698
0.0659227
-0.00862792
-0.0317618
0.0217424
0.0100194
0.0123033
0.0373098
-0.0496131
-0.00582583
0.065484
-0.0596582
-0.296505
-0.0173716
-0.137965
0.0482115
-0.0794093
-0.133672
0.00643141
0.0695705
-0.0760019
0.00617913
-0.0314638
0.0243432
-0.0203015
0.157692
-0.137391
-0.0887654
0.0774004
0.0113649
0.0686397
0.0313203
-0.09996
-0.064186
-0.032037
0.0319332
-0.0281447
-0.00378846
-0.238545
0.135926
0.00215668
0.00173572
-0.0599744
0.0717591
-0.0117847
0.0662445
0.00954941
0.29425
0.0199425
0.0877686
0.140434
-0.0264865
-0.113947
-0.445688
0.310128
0.13556
0.0114585
-0.1328
0.0487462
0.0916874
-0.147147
0.134033
0.013114
-0.0917996
-0.0060098
0.0978094
-0.337835
0.235983
0.101852
-0.0645861
0.0574952
0.00709095
-0.0291916
0.0945308
-0.116531
0.0219999
-0.150893
0.0180083
-0.0391149
0.186481
-0.147366
-0.000289833
-0.0137631
0.014053
0.0110528
-0.0304592
0.00464367
-0.117125
-0.156182
0.273307
-0.129108
0.0495099
-0.0281942
-0.0555955
0.0119325
0.0810326
-0.0929651
0.0116337
-0.0114644
0.00874263
0.00272181
-0.000881198
0.00208592
-0.0211047
0.174767
-0.367944
0.0140232
0.0882939
-0.102317
-0.0767547
0.0742372
0.00251753
-0.0187606
0.00437337
0.0143873
-0.0117419
0.109219
-0.0974776
0.114037
-0.134939
0.0209014
0.112199
-0.227402
0.115203
0.000227182
-0.182831
0.315799
-0.132968
-0.0962503
0.0282283
0.068022
-0.00170931
-0.00172865
0.00343797
-0.00508121
0.105301
-0.10022
-0.018185
-0.019493
0.142889
-0.123396
-0.0244259
-0.00603325
-0.144038
0.274529
-0.130491
0.15821
0.136652
-0.294861
0.236378
-0.129425
-0.0389291
-0.0124445
-0.0570765
0.069521
0.160625
-0.383423
0.15703
-0.338377
0.112296
-0.237275
-0.0044119
-0.0601742
0.00229886
0.00733
-0.00962886
0.109709
0.165077
-0.274787
-0.320519
0.171305
0.149214
0.269887
-0.160177
0.18778
-0.252349
0.0645699
0.165011
0.0149647
0.00244047
-0.0302055
-0.278989
0.180615
0.0983746
0.0863589
-0.204118
0.117759
-0.105769
0.0287556
0.0770135
-0.108353
-0.0168767
-0.168841
0.100027
-0.0982716
0.0331994
0.000901743
0.0245533
-0.0254551
-0.20841
0.0957328
0.147795
-0.18691
-0.127635
0.162268
-0.0346336
0.160365
-0.27749
0.0174457
0.071952
0.0154114
-0.0873634
-0.00220733
0.00337326
0.0984114
-0.00343432
-0.00889386
-0.178449
-0.0203133
0.198763
0.175973
0.0856379
-0.261611
0.0960139
-0.097875
0.00186104
0.0736474
-0.00247912
-0.0711683
0.0036199
-0.0107396
0.00711968
0.303053
-0.144843
-0.0654296
0.106009
-0.188083
0.118873
0.00645346
-0.132551
0.126097
-0.253868
-0.00854399
0.262412
0.00430848
0.023457
-0.0277654
-0.175835
-0.175749
0.351584
-0.0856311
-0.0136646
0.0102303
-0.115634
-0.121342
0.236976
-0.0934463
2.75007e-06
0.184833
-0.147053
-0.0377799
-0.0177938
-0.147213
-0.140246
0.126783
0.0134638
0.0865576
-0.0792218
-0.00679994
-0.00970015
0.0165001
-0.101527
0.00972756
0.198435
0.0874543
-0.24548
-0.0923553
-0.00507161
0.328301
-0.20868
-0.119621
0.132708
-0.149911
0.0172032
-0.0713072
-0.00544745
-0.307852
-0.0641366
0.371989
0.278493
-0.0907134
-0.0641998
-0.16314
0.22734
-0.22758
-0.0929392
0.00881378
0.0770432
-0.0433381
-0.0337051
-0.081296
0.198253
-0.116957
-0.0124753
-0.0656413
-0.0493864
0.0420673
0.00731917
0.0171109
-0.0140525
-0.00305836
0.00581378
-0.00566405
-0.0641039
0.0600765
-0.00153521
0.00160599
-0.0304135
-0.147251
-0.258224
0.135465
0.122759
0.216024
0.0937139
0.0150654
-0.029087
0.0140217
-0.00322767
-0.00823678
-0.151731
-0.163
0.314731
-0.204425
-0.0479246
-0.155051
0.143683
0.0113682
-0.0735217
0.0799531
0.00422157
-0.0181682
0.0178783
-0.00484105
0.0814559
-0.381792
0.275242
0.10655
-0.357072
0.150051
0.207021
0.17474
0.177756
-0.352497
0.0574119
0.127421
0.0577185
-0.0448502
0.124733
-0.268771
0.00184447
-0.187301
-0.261396
-0.291981
0.238301
0.0536802
0.331771
-0.142366
0.0680234
-0.0636783
-0.00434503
0.0696173
-0.0744659
-0.0496283
0.0435821
0.00604623
-0.0891289
0.0678552
-0.0114231
-0.113179
0.0983971
0.0874007
-0.185798
0.0626543
-0.0750988
-0.0388591
-0.0105273
-0.00935654
-0.00234679
0.0117033
0.0875836
0.00451725
-0.0276093
0.24561
-0.122525
-0.156465
0.00199588
0.0755579
-0.0775538
0.0198384
0.0622801
0.0508508
-0.0417618
0.0714114
-0.0737591
0.00234769
0.323854
-0.10783
-0.0175702
0.283348
-0.177306
-0.106042
-0.00356641
-0.0136287
0.107787
-0.118211
0.0104245
0.0758611
-0.0667396
-0.00912149
0.00313804
-0.0766598
-0.211075
-0.244419
0.286548
-0.103763
-0.182785
0.18679
0.099758
0.124811
-0.142772
-0.129359
-0.1067
0.0377835
0.0392597
0.101937
0.00346782
-0.105404
0.106951
-0.10457
-0.00238182
-0.0022546
-0.00847396
0.0107286
-0.206362
-0.14041
0.346772
-0.0905125
0.0107421
0.00160738
0.0392955
-0.347148
-0.0250744
0.0914704
-0.00588734
0.0665747
-0.180233
-0.265455
0.0914968
-0.0375443
0.0482078
-0.0386376
-0.0109907
-0.015264
0.0166501
-0.00138613
0.247859
0.144705
0.129367
0.118141
-0.247508
-0.00563963
-0.0268827
0.0325224
0.124766
-0.118733
-0.00603236
-0.106466
0.207654
-0.101188
0.409837
-0.356083
-0.0537537
-0.0669329
0.0596111
0.0353907
0.100509
0.318462
-0.118807
-0.199655
0.000297329
0.0136677
-0.0584345
0.0447668
-0.00675309
0.0871631
-0.0535124
-0.00173891
0.0552513
-0.283005
0.136588
0.146417
-0.0192475
0.00646613
-0.00190435
-0.234524
0.116647
-0.135299
-0.122925
0.0982
0.00507098
0.0488125
-0.0538835
-0.214849
0.0969388
0.11791
0.149982
0.151599
-0.301581
-0.0556981
0.0854432
-0.029745
-0.0518103
-0.01318
0.0812271
-0.0954918
0.0142647
0.110917
-0.105364
-0.00555258
0.0868267
0.120017
-0.206844
0.202709
-0.356431
0.153723
0.0834624
-0.0115104
-0.120138
0.10101
0.0191277
-0.160519
0.0328838
0.235621
-0.157759
-0.0778614
0.270842
0.057459
-0.414301
0.0351732
0.379127
0.0754155
0.00404246
0.0140789
0.110687
0.0751283
0.00679148
-0.0819197
0.0196964
-0.149937
0.00678004
-0.331209
0.16301
0.168199
0.0809045
0.393801
-0.0013573
-0.000635486
0.0774845
-0.076849
0.261647
-0.159311
-0.102336
-0.00131077
0.00503494
-0.114457
-0.0843884
0.198846
-0.283048
0.129013
-0.0329761
0.0338779
-0.136054
0.0651721
-0.0795737
0.0144016
0.157501
-0.139845
-0.017656
0.112812
0.014553
-0.127365
0.082138
0.169378
0.174949
-0.344327
-0.105191
-0.0181857
-0.241753
0.103737
0.138016
-0.00309818
0.000952745
0.00214544
0.0657672
-0.0596137
-0.00615347
0.161808
0.00555315
-0.0758456
0.0647427
0.0111029
0.00910573
0.00912764
0.101789
-0.0139265
0.423763
-0.00101883
0.00230942
0.344684
-0.125374
-0.0843973
0.0286991
0.166288
0.10078
-0.267068
0.00253538
0.000573481
-6.30169e-05
-0.000510464
0.0685453
-0.00421882
0.00696416
-0.00274535
0.224558
0.236906
-0.000889916
0.00258583
-0.00169591
0.0947846
-0.253398
0.0299741
0.0875898
0.048253
-0.0558742
0.00762122
0.122375
-0.113247
0.0929655
-0.0243258
0.215409
-0.113058
0.130297
-0.0172389
0.26051
-0.413207
0.152696
0.123646
-0.13203
0.00838459
0.0750688
-0.0088243
-0.0773606
0.0801347
-0.00277412
-0.00801899
0.0104632
-0.00244426
0.0765858
-0.00117033
0.0190737
0.0345957
0.331159
-0.161781
0.108564
0.0789878
-0.0161382
-0.0628495
-0.0141121
0.0162439
-0.00213183
-0.198915
0.113043
-0.00459628
0.0738027
-0.0692064
-0.0150076
0.106413
-0.109978
0.101337
0.00864113
-0.298053
-0.123791
0.0141423
-0.0496701
-0.127984
0.11072
0.0172638
-0.337616
0.190227
0.00313894
-0.00383007
0.000691122
0.0123814
-0.125439
-0.18174
0.36019
0.032859
-0.0711224
0.0382634
0.00230328
-0.021366
0.130391
-0.109025
0.0105073
0.167244
-0.141762
0.0189218
-0.00723223
-0.013445
0.0163794
-0.0029344
-0.140376
0.244434
-0.104058
0.135947
0.257105
0.0764471
-0.0845627
-0.154475
0.125147
0.0293285
0.00504402
-0.00447871
-0.000565306
-0.0304879
0.290998
-0.0390612
0.0506474
-0.0115863
-0.140003
-0.0144719
-0.0296288
0.0261379
0.00349091
0.221759
0.11015
-0.331909
-0.0722688
0.0774503
-0.0051815
-0.00122746
0.0220896
0.000913512
-0.00262282
0.000290946
0.0018427
-0.00213365
-0.00128827
0.00110455
0.312391
-0.00511198
0.0147245
-0.00961255
0.0953908
-0.00699065
0.0552436
-0.148334
-0.071485
0.442959
-0.197799
-0.0461506
-0.0500997
0.00157557
-0.002222
0.000646435
0.0607617
0.0102573
-0.071019
0.0573757
0.151303
-0.00720843
0.182087
0.103344
-0.285431
0.0133912
-0.08566
-0.34004
0.197793
0.142246
0.0832346
0.152386
-0.00151192
0.00176646
0.142145
-0.163567
0.0214216
0.00146719
-0.000502238
-0.000964948
0.176201
-0.273929
0.0977287
-0.226331
-0.0150127
-0.0105957
-0.288602
0.171199
0.117403
-0.0812653
0.0786935
0.28406
-0.117772
-0.0743153
-0.115792
0.190107
0.0158539
-0.122404
0.105149
0.131251
-0.236399
-0.130986
-0.00677277
-0.10622
0.0282417
0.0779784
0.317603
0.0545594
-0.372162
0.0851943
-0.00230411
0.00259505