/*--------------------------------*- C++ -*----------------------------------*\
| =========                 |                                                 |
| \\      /  F ield         | OpenFOAM: The Open Source CFD Toolbox           |
|  \\    /   O peration     | Version:  v2012                                 |
|   \\  /    A nd           | Website:  www.openfoam.com                      |
|    \\/     M anipulation  |                                                 |
\*---------------------------------------------------------------------------*/
FoamFile
{
    version     2.0;
    format      ascii;
    class       volVectorField;
    location    "300";
    object      U;
}
// * * * * * * * * * * * * * * * * * * * * * * * * * * * * * * * * * * * * * //

dimensions      [0 1 -1 0 0 0 0];


internalField   nonuniform List<vector> 
27915
(
(1.04654 -0.0227544 1.01655e-20)
(1.23361 -0.0868537 -4.25174e-20)
(-0.11649 -0.0243286 0)
(0.0556111 0.0377677 -4.34021e-21)
(1.12846 -0.00674413 -5.05073e-21)
(1.06156 -0.0247225 -4.54672e-21)
(0.521386 0.0521137 0)
(1.16113 -0.0682906 1.76351e-20)
(1.12088 0.010604 0)
(1.09854 0.0337261 4.15214e-23)
(0.860703 -0.107241 0)
(0.974814 -0.0268688 1.39521e-21)
(1.27448 -0.175118 -2.85968e-20)
(0.386026 0.0311013 -1.35175e-20)
(0.51917 0.0709625 -1.10968e-20)
(1.03047 -0.0856974 -2.88798e-21)
(0.793087 0.0551042 -7.14121e-22)
(1.13244 -0.0606606 1.21899e-21)
(0.750855 -0.0539736 0)
(0.984386 -0.0604347 -1.18701e-22)
(0.37841 0.0302206 1.23032e-20)
(1.00321 -0.0296858 -2.08948e-21)
(0.773371 0.054853 -1.7231e-21)
(1.04585 -0.0230941 -5.40634e-21)
(1.00585 -0.00144885 -3.6719e-23)
(1.01149 -0.0248279 -1.12252e-21)
(0.996462 -0.0160565 -5.06163e-21)
(0.56843 -0.621373 -1.67106e-20)
(0.0732475 0.0409868 4.17112e-21)
(-0.0474847 -0.00452774 3.93473e-20)
(1.20947 -0.165505 -4.89116e-20)
(1.02836 -0.010946 -1.75279e-21)
(0.793281 0.0553042 -1.26828e-20)
(0.982983 -0.061093 -6.212e-23)
(0.644318 -0.0410132 1.46733e-20)
(0.996362 -0.0165386 -2.993e-21)
(0.99185 -0.0248654 -3.36248e-21)
(1.10262 -0.0539174 0)
(0.720302 -0.193399 -2.47083e-20)
(1.07651 -0.0235176 9.28859e-21)
(1.00413 -0.00586194 -1.14779e-21)
(1.08883 -0.0857002 -1.71985e-20)
(1.00207 -0.00839952 1.41423e-21)
(1.17363 0.0343067 5.04489e-20)
(1.09291 0.0570655 0)
(1.00051 -0.000205908 -8.39617e-22)
(0.979302 -0.0197677 -3.88894e-21)
(1.08693 0.0203557 -1.66007e-20)
(1.04115 -0.0193211 0)
(1.02458 -0.0281064 0)
(1.08777 0.0210601 -1.70742e-20)
(1.17119 0.0341755 -5.56437e-20)
(1.11103 0.0525348 1.65619e-20)
(1.07672 -0.0257419 0)
(1.31023 -0.129898 0)
(0.0484112 0.00977784 1.8062e-20)
(0.626332 0.0561896 0)
(1.01888 0.000189725 2.87323e-22)
(1.00378 -0.0294955 -1.91319e-21)
(-0.0432818 0.0274541 0)
(1.02801 -0.0111123 0)
(1.05514 -0.222949 -3.01339e-21)
(1.16262 0.00267872 4.00922e-20)
(1.30941 -0.163814 2.58921e-20)
(1 -0.000219826 0)
(1.07778 0.00125446 0)
(1.08285 0.032159 1.17627e-20)
(1.23429 -0.0385619 2.51503e-20)
(0.512297 0.0535338 -1.39043e-20)
(0.933931 -0.0572048 0)
(1.09302 -0.0811919 -3.60986e-21)
(-0.00958473 -0.00594847 -3.39807e-20)
(1.00335 -0.00280787 0)
(1.01155 -0.0209208 0)
(1.0579 -0.117257 0)
(1.12608 -0.152452 -1.10808e-20)
(1.11582 0.0402781 3.13553e-20)
(1.0391 -0.111291 -5.3537e-21)
(-0.119863 0.0626089 0)
(0.974419 -0.029234 -5.66299e-21)
(1.08942 -0.0837189 1.78635e-20)
(1.07708 -0.0246426 0)
(1.01142 -0.0241981 6.19431e-22)
(1.02475 -0.0274879 -1.33215e-21)
(0.0287341 0.00933803 -3.59476e-20)
(1.01681 -0.00788948 0)
(1.04058 -0.0195593 0)
(0.936162 -0.0577322 1.59434e-20)
(1.11686 0.0682589 1.19736e-20)
(1.13342 -0.0696616 -2.05601e-20)
(0.992545 -0.01569 -4.30493e-21)
(1.09989 0.059684 0)
(1.03135 -0.0832888 -2.31238e-21)
(1.20772 -0.160976 4.90356e-20)
(0.934191 -0.0465113 0)
(1.08761 0.0219872 2.10217e-20)
(1.04611 0.0805245 -2.83838e-20)
(1.07364 0.00613426 -7.60051e-21)
(0.99883 -0.0209732 2.70129e-21)
(0.490366 0.074252 -1.28517e-20)
(1.00489 -0.0171787 -1.60921e-21)
(1.00044 -0.000145873 0)
(0.415389 -0.0761657 0)
(1.09247 -0.0832168 0)
(1.00273 -0.00246372 6.13612e-22)
(1.04807 0.00151135 9.98208e-21)
(0.991837 -0.00491432 7.39409e-22)
(1.09509 -0.217516 0)
(1.05307 -0.271628 1.89642e-20)
(1.09785 0.0332919 2.54178e-20)
(0.999646 -0.00526034 0)
(0.978087 -0.0574323 -5.97022e-21)
(1.11322 0.0691368 0)
(0.294894 0.0343597 -4.11248e-21)
(1.226 -0.0731133 2.26053e-20)
(1.09256 0.0569343 0)
(0.567831 0.0541334 1.0498e-20)
(1.00071 -0.0234877 2.45619e-21)
(1.12242 0.0084241 0)
(1.01832 -0.000660812 -1.12175e-21)
(1.23638 -0.0107021 6.54846e-20)
(1.12354 0.00590632 1.72083e-20)
(1.1468 -0.243929 2.60239e-20)
(1.13447 -0.0594842 2.8473e-21)
(1.05236 -0.0415701 -8.53479e-21)
(1.01812 -0.000710293 -1.13488e-21)
(0.978692 -0.0588775 1.23221e-20)
(0.644284 0.0496529 -3.06861e-21)
(1.09807 0.0455803 1.15189e-20)
(1.04025 -0.0782744 0)
(1.07557 -0.0260777 4.42716e-21)
(1.00283 -0.00966283 -1.611e-22)
(1.01715 -0.00788281 9.93134e-22)
(-0.102652 -0.0257634 0)
(0.188489 0.00758609 8.53817e-21)
(-0.268659 -0.00607568 -9.17017e-20)
(1.00438 -0.00597122 0)
(1.01128 -0.021251 0)
(0.898088 -0.0420877 0)
(1.01652 -0.00759804 0)
(0.090269 0.0437161 -2.52133e-20)
(-0.024613 0.0305253 0)
(1.06043 0.00670725 -7.43155e-22)
(0.541049 0.0707133 5.06358e-21)
(1.0889 -0.215857 2.75706e-21)
(1.0185 0.000179099 -2.35916e-21)
(1.01091 -0.053523 5.31794e-22)
(0.654373 0.055566 9.91979e-21)
(1.23311 -0.00991563 -4.8044e-20)
(1.01522 -0.000364057 -2.6495e-21)
(1.01298 -0.000520246 0)
(1.03659 -0.112518 6.25451e-21)
(1.10302 0.0536248 -1.63529e-20)
(0.772578 0.0552198 0)
(1.16422 0.004428 0)
(1.03372 -0.111126 5.05257e-21)
(1.04372 0.00149042 8.00975e-21)
(1.04484 -0.0083393 0)
(0.927293 -0.034919 1.47512e-22)
(1.06185 0.00159191 0)
(0.720182 -0.206062 0)
(1.18353 -0.00659423 -2.40248e-20)
(1.11648 0.0395065 -2.24016e-20)
(1.04122 -0.0183542 4.45358e-21)
(1.0128 -0.0398662 2.31351e-23)
(1.07034 -0.0118517 -6.97092e-21)
(-0.191681 -0.0136214 0)
(1.23474 -0.0593599 0)
(1.04303 0.00123135 4.40983e-21)
(1.22893 -0.0868082 -7.39196e-20)
(0.588634 0.0756428 -2.64518e-20)
(1.04445 -0.00876408 6.56823e-21)
(0.777379 0.0544035 -1.41333e-20)
(1.00304 -0.000477597 0)
(1 -9.13107e-05 0)
(1.12293 0.0550722 0)
(1.09809 0.0221085 1.56606e-20)
(1.04668 -0.0217723 1.04517e-20)
(1.01085 -0.0523893 2.50574e-22)
(1.3128 -0.143424 2.00809e-20)
(1.04398 -0.00736654 -4.69015e-21)
(1.08338 0.0327431 -6.21689e-21)
(1.00313 -0.000374362 0)
(1.15751 0.0639207 2.63353e-20)
(0.279357 0.0316556 0)
(1.12391 0.00789314 0)
(1.14736 0.0198399 0)
(1.0022 -0.00181983 1.76983e-23)
(-0.114619 -0.0238113 9.77195e-20)
(1.06414 -0.124267 -9.3355e-22)
(0.990528 -0.0343774 -6.6067e-21)
(1.11198 0.0620829 0)
(1.00205 -0.0018006 -6.69359e-22)
(1.00237 -0.000340489 -3.08091e-23)
(1.00312 -0.00269371 2.92101e-22)
(0.24185 0.00979481 -1.12943e-20)
(0.975598 -0.0273378 -7.43288e-21)
(1.10217 -0.00941791 1.3443e-20)
(-0.237983 -0.00941724 -1.11911e-19)
(0.4581 0.0508777 0)
(1.17889 -0.228017 0)
(1.12465 0.0746733 -1.31683e-20)
(1.09789 -0.00921961 0)
(1.10131 0.0593766 0)
(0.980164 -0.0198584 3.8325e-21)
(1.07852 0.000709146 0)
(0.527794 0.0533548 0)
(1.04297 -0.0941425 0)
(1.06798 0.0187556 5.14156e-21)
(1.1416 0.0527872 -1.28164e-20)
(0.00768146 0.0195326 -6.63381e-20)
(1.04614 -0.0212259 -1.04497e-20)
(0.502451 0.0743296 3.98265e-20)
(0.980825 -0.0588573 -1.06967e-20)
(1.09507 0.0315837 1.25273e-20)
(0.999506 -0.0129209 -2.18226e-21)
(1.12369 0.0558458 6.79851e-21)
(0.636277 0.0545879 1.01979e-20)
(1.13311 -0.000345371 -1.13248e-20)
(1.08413 0.0112417 1.85334e-21)
(0.646133 0.0559959 6.91463e-21)
(1.10159 0.0577226 1.13336e-21)
(1.20489 -0.0613401 1.59743e-20)
(0.999482 -0.00605135 -4.78826e-21)
(1.04701 -0.117337 -8.2366e-21)
(1.10444 -0.0527133 1.12739e-20)
(1.15034 -0.0937488 0)
(0.987554 -0.0343467 0)
(1.31319 -0.134065 0)
(1.04075 -0.0179415 -2.09571e-21)
(0.684518 0.0500994 1.29422e-20)
(1.01611 -0.00759844 0)
(0.376244 -0.0638377 1.7901e-20)
(1.03223 -0.109363 -5.25522e-21)
(1.04463 -0.00766924 9.12987e-21)
(1.04538 -0.028978 -1.44359e-21)
(1.18714 0.0637521 -4.22313e-20)
(1.06273 -0.0248061 0)
(1.12796 0.0733733 7.0953e-21)
(1.00604 -0.00649612 1.44501e-22)
(0.996487 -0.00810255 3.15976e-23)
(0.593776 0.0768812 0)
(0.926563 -0.802991 -4.62169e-20)
(1.1249 0.0053274 -3.19317e-20)
(1.00014 -0.00711795 -4.59404e-21)
(0.938344 -0.0619131 1.64253e-20)
(1.09387 0.0569452 1.78883e-20)
(0.981386 -0.0599952 5.84649e-21)
(1.27804 -0.170285 8.45343e-20)
(1.10255 0.0538298 2.34764e-20)
(1.00129 -0.0101324 0)
(1.07921 0.0263105 -7.97472e-21)
(1.10868 0.0534374 -1.2806e-20)
(1.00496 -0.0167842 0)
(1.11608 -0.0487318 2.75898e-20)
(0.96197 -0.0666205 -4.9779e-21)
(1.07909 0.0268868 -2.53348e-21)
(1.06972 -0.0126059 3.82133e-21)
(1.23718 -0.0161628 3.05973e-21)
(0.234454 0.0430246 -1.1085e-20)
(-0.0994115 -0.00860205 -3.79076e-20)
(1.01836 -0.0538985 -7.31828e-23)
(1.00347 -0.00264862 -4.41899e-22)
(1.02926 -0.00917998 0)
(1.11474 -0.0523316 1.25597e-20)
(1.1093 0.0540326 8.70796e-21)
(1.0227 -0.00283379 -4.0701e-21)
(0.999611 -0.00556104 -2.34219e-21)
(1.14561 0.019938 1.1341e-21)
(0.980765 -0.0190522 0)
(1.00242 -0.0284873 2.08387e-21)
(1.00263 -0.00936544 1.45337e-22)
(0.992595 -0.206197 -7.17821e-20)
(1.13086 -0.0681453 -1.33345e-20)
(0.970649 -0.0522086 0)
(0.0727096 0.0324325 2.35001e-20)
(1.06098 0.00119417 0)
(0.62917 0.0548532 -2.06869e-20)
(0.366564 0.0345347 -1.63613e-20)
(0.0453808 0.034745 2.78668e-20)
(1.1018 0.0576519 2.39924e-21)
(0.666095 0.0509288 -7.34884e-22)
(1.03211 -0.087293 1.39195e-21)
(0.0687667 0.0119372 1.13596e-20)
(0.90037 -0.0403134 -1.55523e-20)
(1.03783 -0.083913 1.21626e-22)
(1.18613 -0.0159632 -3.13129e-20)
(0.975454 -0.0559158 -9.31865e-21)
(1.12822 0.0730531 7.73739e-21)
(-0.121761 -0.00887364 2.15341e-20)
(1.10077 0.053688 -4.92741e-21)
(1.11677 -0.0506668 -4.35879e-20)
(0.99057 -0.0232256 0)
(1.20779 -0.170901 9.59473e-21)
(1.07403 0.00804778 -4.83463e-21)
(1.01339 -0.00157392 0)
(0.990021 -0.0334434 0)
(-0.0835147 0.00511166 0)
(1.20581 -0.0581599 0)
(0.987712 -0.014072 -7.28891e-21)
(1.12178 0.0632616 0)
(1.02003 -0.0281805 -2.28968e-22)
(0.86617 -0.108375 1.3532e-20)
(1.00225 -0.00870844 -2.58701e-21)
(1.10043 0.0533044 -8.06063e-21)
(0.0662868 0.0394365 3.55936e-20)
(0.999744 -0.0128319 0)
(1.3103 -0.140182 2.00942e-20)
(1.00102 -0.0230636 -1.54906e-21)
(1.09358 0.0529749 -2.02369e-20)
(1.29756 -0.164597 -5.49839e-20)
(0.226127 0.00701191 -1.12114e-20)
(0.155016 0.0481432 -1.55821e-20)
(0.97601 -0.0574357 -6.64304e-23)
(-0.0268434 0.0306608 -6.70449e-21)
(1.01316 -0.00145467 1.20449e-21)
(1.01579 -0.000410292 8.76834e-22)
(1.01579 -0.0073111 0)
(1.15278 -0.0719367 2.92165e-20)
(1.17153 -0.291841 2.12885e-20)
(0.98475 0.0812602 -2.8996e-20)
(1.01042 -0.00112185 -9.04818e-22)
(0.963056 -0.00754052 8.5475e-22)
(1.06572 -0.025857 8.98571e-21)
(1.15008 0.0605974 -7.68117e-21)
(0.92664 -0.0454207 0)
(1.00686 -0.0123642 -4.88143e-22)
(1.17869 -0.0551131 0)
(1.13721 -0.0377928 2.33039e-21)
(1.13191 0.000662631 -1.07418e-20)
(0.990035 -0.0230604 -6.57218e-21)
(0.0240294 0.0249934 5.6746e-20)
(0.898486 -0.0457318 1.49114e-20)
(0.0841855 0.0153613 1.43486e-20)
(0.0174799 0.0320569 3.02804e-20)
(1.12233 0.00999899 0)
(1.16648 0.00365139 -1.46728e-20)
(1.12099 0.0623985 -5.23859e-21)
(1.20334 -0.172839 0)
(0.961952 -0.0650894 5.83538e-21)
(1.04434 -0.0956259 -8.68219e-22)
(1.09559 0.0325132 7.28161e-21)
(1.15101 -0.0768989 0)
(1.17733 -0.288971 -2.48407e-20)
(1.09333 -0.538869 2.23148e-20)
(-0.168283 0.00937687 0)
(1.0026 -0.028995 0)
(1.04354 -0.292546 0)
(0.774211 -0.244543 -3.14735e-20)
(1.0629 0.0139735 5.90814e-21)
(1.18355 -0.0168318 2.29124e-20)
(0.203712 0.0426652 1.50868e-21)
(1.10627 0.0556552 0)
(1.10247 -0.0079524 -5.61546e-21)
(0.275954 0.0345216 4.31963e-21)
(1.15326 -0.243535 -4.41767e-20)
(1.08006 -0.088546 -1.71197e-20)
(0.988119 -0.0135297 8.88058e-21)
(0.251808 0.0108926 1.10829e-20)
(1.08971 0.0494653 -9.97042e-21)
(0.600223 0.0551779 -3.70781e-21)
(1.01949 -0.0262936 -1.58537e-21)
(0.994851 -0.00684951 -3.34306e-21)
(1.23803 -0.0137078 0)
(1.17668 -0.0532738 0)
(1 -0.00129997 -1.94191e-21)
(1.08124 -0.712961 0)
(0.762574 -0.247789 -3.96969e-20)
(1.04594 -0.141744 0)
(1.11537 -0.0543385 1.19613e-20)
(1.08656 -0.0868319 -1.65026e-20)
(1.0999 0.0570852 0)
(1.0218 -0.0864825 9.17611e-22)
(0.93522 -0.166135 -7.46828e-21)
(1.14047 0.00227001 1.75798e-20)
(0.966395 -0.0398781 7.1075e-21)
(1.0474 -0.0111747 0)
(1.04531 -0.0245354 7.6671e-23)
(0.588808 0.0515932 1.63849e-21)
(0.93591 -0.0612073 -1.83296e-20)
(0.581836 0.0776193 -2.55144e-20)
(0.974494 -0.0305141 0)
(1.09369 0.0572011 -1.90673e-20)
(1.17889 -0.0499027 4.15941e-20)
(1.00085 -0.0120623 0)
(1.0729 -0.277904 6.41244e-21)
(1.09868 0.0458282 -1.24087e-20)
(1.0972 -0.0428663 1.71166e-20)
(1.28935 -0.0280618 0)
(1.19756 -0.0517276 0)
(0.0739409 0.0106659 0)
(1.10118 -0.00336585 -1.13374e-20)
(1.0681 -0.283292 7.8702e-21)
(1.12276 -0.0418887 0)
(1.04861 0.00198537 -6.54516e-21)
(1.10416 0.026798 0)
(0.979785 -0.624762 0)
(1.19106 0.0657391 2.17885e-20)
(0.97654 -0.0338184 -2.95103e-21)
(1.12874 0.0552731 7.11759e-22)
(0.184677 0.051422 2.78091e-20)
(1.10243 -0.0245348 -1.22812e-21)
(1.00036 -0.00682483 -1.96001e-21)
(1.00002 -0.000298319 4.8915e-22)
(0.0851833 0.041886 -3.75529e-20)
(0.97222 -0.0210967 0)
(1.17334 -0.223481 -1.6395e-20)
(1.00021 -0.00688664 3.82454e-21)
(1.12203 0.0145565 2.05455e-20)
(1.13999 -0.0515245 0)
(1.00412 -0.00991855 1.97067e-21)
(1.08428 0.019479 0)
(1.00001 -0.0011547 0)
(1.0977 0.0202118 -3.73561e-22)
(1.06461 -0.025316 1.01367e-20)
(1.25623 -0.133823 3.59636e-20)
(1.00407 -0.00908244 -1.25903e-21)
(1.23737 -0.0407166 1.38492e-20)
(1.04365 -0.13912 6.85936e-21)
(1.00618 -0.00685269 -3.22848e-22)
(-0.00969386 0.0326621 5.75209e-21)
(1.24241 -0.120505 -2.2582e-20)
(1.13862 0.00238319 0)
(0.0426098 0.0347442 0)
(1.08511 -0.172773 -1.69891e-20)
(0.73141 -0.454984 1.61511e-20)
(1.13862 -0.049911 0)
(1.01988 -0.0269003 1.73526e-21)
(0.991449 -0.004767 4.85646e-22)
(0.972916 -0.0542125 -1.27549e-20)
(0.919607 -0.0782475 1.23508e-20)
(1.10354 -0.0234614 0)
(1.1774 -0.0477021 -3.82435e-20)
(1.2534 -0.13769 -4.03081e-21)
(0.243312 0.0369208 8.44864e-21)
(0.918921 -0.0806918 0)
(0.999645 -0.00611956 0)
(1.10537 0.0138832 4.9617e-20)
(1.00457 -0.0100953 -7.24366e-22)
(1.31779 -0.161835 3.04437e-20)
(1.00001 -0.00295856 -2.14517e-22)
(1.0015 -0.0051073 0)
(1.28346 -0.0262301 0)
(1.13594 0.0454079 -2.39495e-21)
(1.00427 -0.00903127 -8.52711e-23)
(1.17517 0.0069184 0)
(1.09694 0.0192957 3.37106e-22)
(0.622264 0.0551889 -1.80093e-21)
(1.09646 -0.0782984 0)
(0.997554 -0.0186237 0)
(1.06124 0.00674218 3.85033e-21)
(1.07467 0.00643371 -2.46419e-21)
(1.00137 -0.00990095 -1.74711e-21)
(0.407906 -0.0387076 0)
(0.996906 -0.00704146 3.75579e-21)
(1.02214 -0.0584704 0)
(-0.157085 -0.0116889 0)
(1.01328 -0.02088 0)
(1.0213 -0.0884648 0)
(0.186793 0.0393628 0)
(0.0347593 0.0221657 4.57424e-20)
(1.00697 -0.00692077 0)
(1.12711 0.0662699 0)
(1.0788 0.0166985 -1.10156e-22)
(1.14987 -0.239309 6.63976e-21)
(1.07874 0.0160092 1.63466e-21)
(1.22998 0.0465941 6.86282e-20)
(0.0978612 0.04295 2.33618e-20)
(0.991968 -0.0378775 -3.0175e-21)
(1.12665 -0.00703746 -1.51867e-20)
(1.13275 0.0431964 -2.50323e-21)
(1.00502 -0.0250746 0)
(0.356299 0.0324182 1.66318e-20)
(1.01657 -0.000359774 2.11304e-21)
(1 -7.29386e-05 3.81648e-21)
(1.1679 0.0360884 -1.47498e-20)
(1.24733 -0.119677 -5.02157e-20)
(0.00141703 0.0235153 -6.43135e-20)
(0.973443 -0.0558378 3.63121e-21)
(1.11546 -0.000994818 0)
(1.10456 0.025798 -1.01172e-21)
(1.13059 -0.151956 6.8876e-21)
(0.00959724 0.0249013 -5.9173e-20)
(0.408961 0.0401186 2.33525e-20)
(1.04324 -0.0270482 -5.3492e-21)
(1.02956 -0.00957898 -2.16561e-21)
(1.03882 -0.0574001 2.87513e-21)
(1.02343 -0.0587406 1.13215e-21)
(1.11377 -0.00143212 0)
(0.965852 -0.06835 -1.38084e-20)
(1.01283 -0.0222006 0)
(1.07676 0.00724083 0)
(1.29842 -0.0835056 2.49011e-20)
(1.04804 -0.0355634 7.99725e-23)
(1.0843 -0.0863482 1.68512e-20)
(1.10069 -0.00254824 0)
(1.00002 -0.000134956 0)
(1.07751 0.00304788 0)
(1.16378 0.0452462 0)
(0.921053 -0.0851746 -1.23643e-20)
(1.07439 -0.0282102 2.01116e-20)
(1.00965 -0.0326154 0)
(1.20827 0.00149287 0)
(0.500503 0.0590467 0)
(0.727379 -0.193075 0)
(1.09657 0.0569083 -1.93446e-20)
(1.06925 -0.334747 4.65632e-21)
(1.02308 -0.00288598 2.62661e-21)
(1.10445 0.0488133 0)
(1.04778 -0.0107731 -8.09106e-21)
(1.01792 -0.0005183 0)
(1.0409 -0.0166504 -7.00369e-23)
(1.0778 -0.339033 0)
(1.00218 -0.00778948 0)
(0.529188 0.0554798 2.38168e-20)
(-0.14864 0.0108283 -3.41934e-20)
(0.971755 -0.194517 -9.86236e-22)
(1.07558 -0.0278167 -1.92609e-20)
(0.534564 0.0754697 -4.27396e-21)
(1.11652 -0.0174405 1.56574e-20)
(1.04504 -0.267046 -8.63192e-21)
(1.00688 -0.0113914 -4.26456e-22)
(0.994581 -0.00621649 -2.16827e-21)
(1.16821 0.0655055 -2.99878e-20)
(1.0838 0.0203254 0)
(0.994778 -0.0767766 0)
(1.11188 0.0530481 -1.47748e-20)
(0.967479 -0.0218676 3.98799e-21)
(1.00363 -0.0363777 0)
(1.01943 -0.0547581 2.67475e-22)
(0.963741 -0.0688464 4.75964e-21)
(1.00424 -0.0303125 2.10728e-21)
(1.00261 -0.00900562 2.76697e-22)
(0.998506 -0.00850638 -6.3182e-21)
(0.967495 -0.0388569 3.51832e-21)
(1.04096 -0.0722155 0)
(1.01839 8.46822e-05 6.67983e-22)
(0.0963226 0.0171804 -1.44941e-20)
(1.20835 -0.00142186 4.99776e-21)
(1.05319 -0.279031 9.47311e-21)
(1.0002 -0.000102385 0)
(1.06811 -0.0272878 7.98022e-21)
(1.00703 -0.0117914 -9.75146e-23)
(1.08644 -0.274909 0)
(1.01322 -0.000650067 0)
(1.02306 -0.0115417 -6.20152e-22)
(0.924523 -0.0849678 1.24876e-20)
(1.03016 -0.0234352 5.57314e-22)
(1.09821 0.0596006 0)
(1.00254 -0.00237885 -4.29104e-22)
(1.04514 0.0108286 -4.30236e-20)
(0.37084 0.0304833 -2.25639e-20)
(1.11134 0.0621879 0)
(1.00098 -0.00493071 1.71039e-21)
(0.259452 0.0386377 -1.41879e-20)
(1.10268 0.0580537 -1.8655e-20)
(0.996017 -0.0132784 0)
(1.04524 -0.00470386 -5.72994e-21)
(1.30662 -0.0806583 -4.04238e-20)
(1.04031 -0.0568001 0)
(1.13872 -0.0357394 -5.27958e-21)
(0.99944 -0.00291934 -1.169e-21)
(1.01692 -0.927897 -1.08078e-20)
(1.0653 -0.0234988 -1.3576e-20)
(1.14974 0.0623829 1.87246e-20)
(1.0978 -0.0444269 -1.85932e-20)
(0.997097 -0.00632672 -3.85082e-21)
(1.10103 0.0576427 -4.51924e-21)
(-0.0128747 0.0267157 0)
(1.0471 -0.0349678 0)
(0.992864 -0.0151667 0)
(1.00005 -0.000324845 -1.89336e-21)
(0.996012 -0.0146997 2.81963e-21)
(1.10524 0.0449989 0)
(0.983388 -0.112749 0)
(0.994782 -0.00727514 -3.74321e-21)
(-0.0065507 0.0298922 0)
(0.562238 0.0786875 -1.14612e-20)
(1.30763 -0.180165 0)
(1.01016 -0.032289 0)
(1.12776 0.0558238 0)
(1.10063 0.0573261 0)
(1.02053 -0.00825262 2.67511e-21)
(0.999162 -0.0206694 -2.67655e-21)
(1.11132 0.0564884 1.06527e-20)
(1.05017 -0.226668 -3.54705e-21)
(1.03929 -0.0446208 5.3267e-21)
(1.1039 0.0484669 0)
(0.266206 0.0134461 0)
(1.15356 -0.0747146 1.88857e-21)
(1.04573 -0.258981 8.80052e-21)
(1.00479 -0.0301271 2.79798e-21)
(1.0037 -0.00272487 0)
(-0.294552 0.00293864 -9.72817e-20)
(0.0374721 0.0129126 -1.70171e-20)
(0.948977 -0.418409 5.13313e-22)
(1.21856 0.0626804 7.23028e-21)
(0.436483 0.0289801 1.16926e-20)
(0.44581 -0.0351362 0)
(1.0783 0.00247644 0)
(1.10235 0.0270753 -1.01784e-20)
(0.798519 -0.149341 3.34659e-21)
(-0.242963 0.00601494 0)
(1.08128 0.0118545 7.1747e-21)
(1.11918 0.0617682 0)
(1.09601 -0.0806199 5.09923e-21)
(1.06081 -0.019482 1.0558e-20)
(1.02506 -0.0300007 2.69619e-21)
(1.04574 -0.0755779 0)
(1.2016 -0.0265648 -7.83947e-21)
(1.00652 -0.0111525 -4.08243e-22)
(1.04451 -0.00996513 4.72993e-21)
(1.09864 -0.0398605 -8.89063e-21)
(1.13173 -0.147247 0)
(1.13764 0.0324846 -1.44539e-21)
(0.708798 0.0529535 -1.12737e-20)
(0.909155 -0.107383 0)
(1.02448 -0.0261159 -7.46313e-25)
(1.00302 -0.00203964 -7.22286e-23)
(0.93166 -0.0470493 0)
(1.07899 -0.00484925 2.80349e-21)
(0.828929 -0.245178 0)
(0.421383 0.0267842 -9.46888e-21)
(1.09661 0.0570591 2.10431e-20)
(1.00156 -0.0053655 0)
(1.09749 0.0593493 0)
(0.986005 -0.0619917 0)
(0.999247 -0.0270735 0)
(1.12524 0.0223548 0)
(1.07785 0.00415857 2.90267e-21)
(1.00003 -0.000270739 1.95315e-21)
(1.12764 0.0234103 1.40647e-20)
(0.922874 -0.0328387 0)
(0.272666 0.0105794 -9.90219e-21)
(1.08014 0.0253107 -5.28843e-23)
(1.1169 -0.0450708 -2.38901e-22)
(0.112616 0.0207666 1.41178e-20)
(1.21116 -0.00567459 0)
(1.147 -0.138429 0)
(0.999985 -0.000209964 0)
(0.999865 -0.000809442 -2.51726e-22)
(1.00876 -0.00697046 0)
(1.29258 -0.293674 -1.22193e-20)
(1.10412 0.0537805 1.75539e-20)
(1.16908 -0.160176 3.05072e-21)
(0.574477 0.0805552 -1.27845e-20)
(1.10256 -0.0561252 -4.95202e-21)
(-0.293972 0.00281281 0)
(1.03424 -0.00833657 0)
(1.06554 -0.767376 -3.09081e-20)
(1.02359 -0.0118732 1.39749e-21)
(0.967733 -0.0207991 0)
(1.05718 -0.0489457 1.38091e-20)
(1.04078 -0.0205767 8.67739e-21)
(1.23041 -0.0595995 0)
(0.987233 -0.0613061 -4.70664e-21)
(1.04248 -0.0276335 -1.02915e-20)
(1.06666 0.0106467 7.81405e-21)
(0.991225 -0.0382795 0)
(1.30931 -0.175882 0)
(1.05995 -0.0115077 0)
(1.00175 -0.00719827 -2.34981e-21)
(1.08955 0.0489348 0)
(1.07423 0.00886202 0)
(1.04422 -0.11897 7.75175e-21)
(1.0172 -0.014727 0)
(1.04019 -0.0208173 -4.09322e-21)
(1.10237 0.058116 2.05514e-20)
(0.988739 -0.0137729 -4.29619e-21)
(1.04105 -0.0153161 0)
(1.04369 -0.00998343 -2.26522e-21)
(1.01559 -0.000785262 -1.0044e-21)
(1.094 0.0531805 1.78741e-20)
(1.01864 -0.00187101 -3.95191e-21)
(1.03421 -0.0110822 -5.80483e-21)
(1.12524 0.0444672 1.05335e-20)
(0.920434 -0.0331912 -1.34027e-20)
(1.05777 -0.0477772 -1.17196e-20)
(0.429183 -0.0275446 0)
(1.00452 -0.00634154 0)
(1.11793 -0.0470482 0)
(0.298247 0.0369617 4.58456e-21)
(0.614716 0.0792905 2.1669e-20)
(1.19244 0.0750579 0)
(1.0038 -0.00808791 0)
(1.13565 -0.146416 -1.62156e-20)
(1.07782 0.0173202 1.03106e-22)
(1.00085 -0.00296301 2.06228e-21)
(1.01991 -0.0572624 4.36714e-22)
(1.0991 0.0218848 0)
(1.04422 -0.0744735 0)
(0.996695 -0.00733437 -4.09858e-21)
(0.992409 -0.0244819 4.70427e-21)
(1.03801 -0.0402892 -4.70883e-21)
(0.583842 -0.0117809 0)
(-0.137158 0.00836024 7.96865e-21)
(1.12513 0.0280686 -8.10942e-21)
(1.19899 -0.0493992 0)
(1.08569 -0.555696 -1.591e-20)
(0.985896 -0.111042 7.48705e-21)
(0.999992 -0.000183072 -4.95251e-22)
(1.12856 0.0226977 -1.61573e-20)
(0.928729 -0.289615 -2.32182e-21)
(0.996537 -0.00237605 7.17408e-21)
(1.10697 -0.16268 2.44109e-20)
(0.989146 -0.0132196 -5.70408e-22)
(1.11535 0.063543 3.03345e-21)
(0.916382 -0.0725662 -1.29401e-20)
(0.885534 -0.233055 -7.81323e-21)
(1.05297 -0.0962701 -1.05184e-21)
(1.01857 -0.00169699 3.9405e-21)
(0.837679 -0.15815 6.10168e-20)
(1.01906 -0.0564942 0)
(0.254416 0.0451275 -7.59596e-21)
(1.16607 0.0456893 0)
(1.26853 -0.260824 0)
(1.09906 -0.0414288 -6.45753e-22)
(1.08175 -0.280256 -4.15201e-21)
(1.03427 -0.0101574 -5.04435e-21)
(1.00711 -0.00726471 1.43722e-23)
(0.99896 -0.00952843 -2.47938e-21)
(1.00001 -0.000125637 0)
(1.08004 0.0259592 4.43855e-21)
(1.00155 -0.0220677 -1.28289e-22)
(1.07706 0.00468024 1.11959e-20)
(1.0893 -0.0073554 0)
(1.07962 -0.00421695 5.2195e-21)
(0.969152 -0.0704533 0)
(1.13782 0.0315581 -1.05683e-20)
(0.105303 0.0232911 -5.68369e-20)
(1.05912 -0.0110207 4.59518e-24)
(1.00513 -0.00701062 -6.04501e-22)
(1.02472 -0.0295045 -1.02698e-21)
(1.10418 0.0287461 1.11088e-20)
(0.99688 -0.00664422 0)
(1.15216 -0.0800864 1.53781e-20)
(1.09172 0.0139001 0)
(1.00708 -0.010625 0)
(1.00008 -0.000575558 -5.70601e-22)
(1.10526 0.053911 -1.8317e-20)
(1.13035 0.0661752 1.34764e-20)
(1.04099 -0.0417218 -2.76417e-21)
(1.07795 0.0179593 -6.91244e-21)
(0.731755 0.0539104 1.25225e-20)
(1.03462 -0.00810012 1.5655e-21)
(1.06435 0.00435822 7.36624e-21)
(0.283409 0.0338084 -1.69017e-20)
(1.08939 -0.0139772 -1.21395e-20)
(-0.0653545 -0.0277046 0)
(1.00075 -0.00279962 -1.82844e-21)
(1.07969 -0.0427851 0)
(1.09279 0.032787 0)
(1.23331 -0.0524132 4.41239e-20)
(0.998895 -0.00926736 0)
(0.963946 -0.0378583 -8.67559e-21)
(1.09737 -0.139386 -2.22213e-20)
(1.08356 -0.168118 7.91805e-21)
(0.973607 -0.200043 6.47309e-21)
(1.27421 -0.257546 3.48213e-20)
(-0.231147 0.00550076 -2.41007e-20)
(1.07938 -0.0418055 -1.4705e-21)
(0.470759 -0.0317286 0)
(1.00613 -0.00150519 0)
(0.624675 -0.0165885 0)
(1.04603 -0.0242216 -3.34662e-21)
(1.09853 -0.137306 2.53773e-20)
(0.771282 0.0551057 1.23651e-20)
(1.16044 -0.0652641 -3.26816e-20)
(1.09413 0.0316638 -1.45959e-20)
(0.98782 -0.00747382 2.52208e-21)
(1.10773 0.00948335 0)
(0.967238 -0.0709166 2.03682e-20)
(1.07366 0.0103617 -1.05526e-20)
(1.04367 -0.223205 0)
(1.00418 -0.00868259 0)
(0.987014 -0.0351075 2.68118e-21)
(1.12387 0.0280328 -7.85543e-21)
(0.51948 -0.0968641 3.06519e-20)
(1.16459 -0.16091 0)
(1.10516 -0.0314291 0)
(1.05854 -0.00958001 -1.03243e-20)
(0.992928 -0.0310228 0)
(-0.131209 -0.0060931 -2.16925e-20)
(1.03216 -0.0130251 -2.60899e-21)
(0.999366 -0.00623559 7.06019e-21)
(1.23489 -0.0499505 -4.97503e-20)
(1.00532 -0.00634871 -3.55024e-22)
(1.06374 0.0139597 -3.98704e-24)
(-0.0326581 -0.00770622 -3.62818e-20)
(0.0993609 0.045329 1.05244e-20)
(1.06047 -0.0277464 5.65424e-21)
(1.0187 -0.00140041 -5.37582e-21)
(1.00401 -0.0100742 0)
(1.08862 -0.0148862 1.49977e-20)
(-0.0694026 -0.00646883 0)
(1.00382 -0.00380425 3.18519e-23)
(1.23998 -0.115718 0)
(1.12573 0.07468 1.42097e-20)
(1.09263 0.0134709 0)
(1.12059 0.015135 0)
(0.964298 -0.0368021 1.21046e-20)
(1.13405 0.0435077 1.98954e-20)
(1.0171 -6.4754e-05 -1.46706e-21)
(0.97526 -0.166541 2.96151e-21)
(-0.0974837 -0.0135283 2.85912e-20)
(1.0358 -0.043818 -4.17667e-21)
(1.21128 -0.0119783 -4.01043e-20)
(1.05149 -0.0391093 8.60634e-21)
(0.138298 0.0496103 -1.87521e-20)
(1.10903 0.00916865 -4.77468e-21)
(0.988277 -0.00770694 0)
(1.00107 -0.012234 1.82007e-21)
(1.23446 0.047688 -4.79437e-22)
(0.992659 -0.0146406 0)
(0.981531 -0.019344 0)
(0.381875 0.0333437 2.22502e-21)
(1.12791 0.0658156 -1.49094e-20)
(0.0720143 0.0247025 -1.48005e-20)
(0.998379 -0.00233153 0)
(1.02794 -0.10746 0)
(1.21757 0.0620769 5.45866e-20)
(0.648827 0.0584347 1.84802e-21)
(1.15179 -0.380276 -5.00649e-20)
(1.2563 -0.270985 -9.02692e-20)
(0.99678 -0.00239697 -4.46384e-21)
(1.05117 -0.0950887 0)
(1.03799 -0.0448929 -2.24141e-21)
(1.13622 -0.265649 1.48257e-20)
(1.21124 -0.00297009 0)
(0.672052 0.081215 6.70848e-21)
(0.995187 -0.0505092 7.68541e-22)
(1.11137 0.0440952 0)
(1.07444 -0.175412 0)
(1.18554 -0.00827738 5.45966e-20)
(0.635162 0.0658215 0)
(1.02395 -0.0255166 -1.2757e-21)
(0.0618053 0.0320979 -2.43672e-20)
(1.09952 0.0532244 2.11175e-21)
(1.28554 -0.0211617 0)
(0.994514 -0.00663173 6.95609e-21)
(1.15013 -0.136341 3.36268e-20)
(0.967196 -0.0858319 -7.98741e-21)
(0.999952 -0.000837378 4.27899e-21)
(1.09724 -0.0106548 0)
(0.96876 -0.0879334 -2.60352e-22)
(1.08057 0.0132756 6.39e-21)
(1.0875 0.0301452 1.36187e-20)
(1.00826 -0.0175644 -7.92216e-22)
(0.848392 -0.150481 0)
(1.08145 0.0127644 -3.7561e-21)
(1.03744 -0.137243 0)
(1.02991 -0.0814625 3.42795e-21)
(1.02348 -0.0399878 -3.48133e-22)
(0.428844 0.0313041 0)
(1.0999 0.0535398 0)
(0.576071 -0.0134237 0)
(1.01722 -0.0200084 -6.10502e-22)
(1.08851 -0.00794714 0)
(1.14278 0.0518067 -1.97316e-23)
(0.928805 -0.0895436 0)
(1.10357 0.0539994 -1.72423e-20)
(0.27062 0.0507547 0)
(0.0498889 0.0148989 1.57529e-20)
(1.02418 -0.716795 3.46291e-20)
(1.00205 -0.00809701 0)
(1.13224 -0.114593 0)
(0.965849 -0.243154 0)
(0.431107 0.0366506 -7.3524e-21)
(0.943935 -0.06967 -1.64912e-20)
(1.10193 -0.0274858 -2.15652e-20)
(1.04376 -0.0400258 -5.45292e-21)
(1.10465 0.0542385 1.93144e-20)
(1.02308 -0.00861566 2.14084e-23)
(1.11187 0.0423627 1.42737e-20)
(0.0776743 0.0371957 5.02165e-20)
(0.940992 -0.0660176 1.01117e-21)
(1.1031 -0.0263226 2.23169e-20)
(0.966406 -0.0478761 -1.69615e-20)
(0.612055 -0.0172054 0)
(1.0164 -0.0203004 -7.4922e-22)
(1.00817 -0.0127793 -9.46029e-22)
(1.00484 -0.025636 1.66752e-21)
(1.06453 -0.0242959 3.65723e-21)
(1.09246 0.0540006 1.51716e-20)
(1.0185 -0.00129597 1.78951e-21)
(1.00636 -0.0107677 8.86171e-22)
(1.00174 -0.0215692 0)
(0.846387 -0.144354 -1.6367e-20)
(-0.264398 -0.000418665 -2.65074e-20)
(1.0066 -0.0148935 -6.76542e-22)
(1.00927 -0.019224 0)
(1.00668 -0.0153281 6.8094e-22)
(1.03991 -0.0230525 4.18586e-21)
(1.05151 -0.0382719 -7.54016e-21)
(0.66427 0.0485908 -1.37983e-20)
(1.00612 -0.0266353 0)
(0.993137 -0.0234813 0)
(1.11812 0.0149062 -2.25402e-20)
(1.08722 0.019249 0)
(1.0039 -0.00842209 7.13228e-22)
(0.924631 -0.0354112 1.08708e-20)
(1.10326 -0.161761 -3.06621e-20)
(0.67586 0.0596946 -7.35843e-21)
(1.03547 -0.0450195 4.16039e-21)
(1.02316 -0.0409072 1.76349e-21)
(1.05365 -0.0503396 9.99392e-21)
(1.01681 -0.0194062 -5.87006e-22)
(1.11981 0.0626723 6.76942e-21)
(1.15671 0.01064 -9.72677e-21)
(-0.0904101 -0.0272511 0)
(0.971052 -0.0539866 0)
(0.303743 0.0383455 9.23616e-23)
(1.01918 -0.0395095 7.6557e-23)
(0.995372 -0.0144424 0)
(1.10091 0.0263566 -1.04138e-21)
(1.23246 -0.119699 1.07008e-20)
(0.228519 0.0562941 1.10955e-20)
(1.00827 -0.0124997 3.63502e-22)
(1.13013 0.000653397 -2.26671e-20)
(1.05927 -0.0275065 -1.01652e-20)
(1.09672 -0.030872 -6.0534e-23)
(1.03454 -0.00382829 1.45732e-21)
(0.606374 0.0320556 0)
(1.0044 -0.00815723 7.07957e-23)
(1.11932 0.0141349 0)
(0.328057 0.0415522 0)
(1.00293 -0.0222792 0)
(1.09647 0.0324484 6.0123e-22)
(0.956786 -0.014931 -3.87558e-21)
(1.05103 -0.0416599 -1.48078e-21)
(1.07969 0.0146817 0)
(1.10463 0.0296637 -1.2504e-21)
(0.393946 0.0529737 -2.09373e-20)
(1.08775 0.0294031 -9.03773e-21)
(1.01201 -0.0252228 2.83001e-22)
(1.00786 -0.0174404 1.2608e-21)
(0.196242 0.0530183 3.85042e-21)
(1.01466 -0.0142001 -9.17715e-22)
(1.02631 -0.0802624 8.20826e-22)
(0.958863 -0.243808 3.25511e-22)
(1.00076 -0.00384629 -2.19381e-21)
(1.03973 -0.0220742 4.41223e-23)
(1.03232 -0.024198 5.64501e-21)
(1.00885 -0.0190416 -4.74046e-22)
(1.10026 0.0574243 2.56941e-21)
(1.18948 -0.439768 -2.2998e-20)
(1.04493 -0.0370401 0)
(0.924134 -0.283589 2.19284e-21)
(0.991724 0.0805647 -2.39839e-21)
(0.378839 0.0306972 -1.8109e-21)
(0.156243 0.00960988 -8.94491e-21)
(1.12571 0.0456305 -1.1788e-20)
(0.0347 0.026477 5.74875e-20)
(1.00348 -0.0356519 8.0748e-22)
(0.991576 -0.00660941 0)
(1.03463 -0.00984304 -5.90606e-21)
(0.573554 0.0739029 -2.63544e-21)
(0.280856 0.0520541 3.07637e-21)