/*--------------------------------*- C++ -*----------------------------------*\
| =========                 |                                                 |
| \\      /  F ield         | OpenFOAM: The Open Source CFD Toolbox           |
|  \\    /   O peration     | Version:  v2012                                 |
|   \\  /    A nd           | Website:  www.openfoam.com                      |
|    \\/     M anipulation  |                                                 |
\*---------------------------------------------------------------------------*/
FoamFile
{
    version     2.0;
    format      ascii;
    class       volVectorField;
    location    "300";
    object      U_0;
}
// * * * * * * * * * * * * * * * * * * * * * * * * * * * * * * * * * * * * * //

dimensions      [0 1 -1 0 0 0 0];


internalField   nonuniform List<vector> 
27915
(
(1.04654 -0.0227545 1.01619e-20)
(1.23362 -0.0868459 -4.25148e-20)
(-0.116486 -0.0243288 0)
(0.0556547 0.0377702 -4.33875e-21)
(1.12846 -0.00674785 -5.04983e-21)
(1.06156 -0.024723 -4.54546e-21)
(0.521422 0.0521445 0)
(1.16113 -0.0682875 1.7633e-20)
(1.12087 0.010597 0)
(1.09855 0.03372 4.14854e-23)
(0.860701 -0.107239 0)
(0.974813 -0.0268676 1.3955e-21)
(1.27448 -0.175124 -2.85956e-20)
(0.385944 0.0311005 -1.35168e-20)
(0.51913 0.0709214 -1.10939e-20)
(1.03047 -0.0856973 -2.88555e-21)
(0.793059 0.0551267 -7.14019e-22)
(1.13243 -0.0606594 1.21881e-21)
(0.750834 -0.0539801 0)
(0.984385 -0.0604345 -1.18702e-22)
(0.378326 0.0302207 1.23026e-20)
(1.00321 -0.0296852 -2.09105e-21)
(0.773343 0.0548751 -1.72283e-21)
(1.04585 -0.0230941 -5.4044e-21)
(1.00585 -0.00144881 -3.50095e-23)
(1.01149 -0.0248278 -1.12715e-21)
(0.996462 -0.0160561 -5.06385e-21)
(0.568425 -0.621364 -1.67115e-20)
(0.07329 0.0409888 4.16969e-21)
(-0.0475005 -0.00453959 3.93462e-20)
(1.20947 -0.165506 -4.89079e-20)
(1.02836 -0.010946 -1.75188e-21)
(0.793249 0.0553241 -1.26814e-20)
(0.982982 -0.0610928 -6.21236e-23)
(0.644299 -0.0410214 1.46732e-20)
(0.996362 -0.0165382 -2.9943e-21)
(0.991849 -0.0248643 -3.36366e-21)
(1.10262 -0.0539172 0)
(0.7203 -0.193395 -2.47091e-20)
(1.07651 -0.0235187 9.28645e-21)
(1.00413 -0.00586198 -1.15095e-21)
(1.08883 -0.0856995 -1.7195e-20)
(1.00207 -0.00839968 1.41564e-21)
(1.1736 0.0342987 5.04384e-20)
(1.09292 0.0570891 0)
(1.00051 -0.000205878 -8.41244e-22)
(0.979302 -0.0197663 -3.88979e-21)
(1.08693 0.0203515 -1.6597e-20)
(1.04115 -0.0193212 0)
(1.02458 -0.0281069 0)
(1.08778 0.0210557 -1.70704e-20)
(1.17116 0.0341666 -5.56321e-20)
(1.11104 0.0525171 1.6559e-20)
(1.07672 -0.0257428 0)
(1.31025 -0.1299 0)
(0.0484102 0.00977233 1.8059e-20)
(0.626268 0.0561682 0)
(1.01888 0.000189685 2.87186e-22)
(1.00378 -0.0294949 -1.91473e-21)
(-0.0432714 0.027472 0)
(1.02801 -0.0111123 0)
(1.05514 -0.222949 -3.01255e-21)
(1.1626 0.00267661 4.00855e-20)
(1.30941 -0.16382 2.58913e-20)
(1 -0.000219684 0)
(1.07778 0.00125173 0)
(1.08285 0.0321554 1.17598e-20)
(1.23429 -0.038546 2.51482e-20)
(0.512239 0.0535023 -1.39044e-20)
(0.933931 -0.057204 0)
(1.09301 -0.0811912 -3.60917e-21)
(-0.00959933 -0.00596089 -3.39797e-20)
(1.00335 -0.00280792 0)
(1.01155 -0.0209206 0)
(1.0579 -0.117257 0)
(1.12608 -0.152452 -1.10793e-20)
(1.11583 0.0402634 3.1349e-20)
(1.0391 -0.11129 -5.35064e-21)
(-0.119866 0.0625997 0)
(0.974418 -0.0292329 -5.66416e-21)
(1.08942 -0.0837182 1.78598e-20)
(1.07707 -0.0246436 0)
(1.01142 -0.0241979 6.22009e-22)
(1.02475 -0.0274883 -1.33085e-21)
(0.0287424 0.00933266 -3.59403e-20)
(1.01681 -0.00788968 0)
(1.04058 -0.0195593 0)
(0.936162 -0.0577314 1.59452e-20)
(1.1169 0.068216 1.19723e-20)
(1.13342 -0.0696601 -2.05572e-20)
(0.992545 -0.0156894 -4.30639e-21)
(1.0999 0.0597346 0)
(1.03135 -0.0832887 -2.31032e-21)
(1.20772 -0.160976 4.90318e-20)
(0.93419 -0.0465104 0)
(1.08761 0.0219828 2.1017e-20)
(1.04612 0.0805091 -2.83753e-20)
(1.07364 0.00613158 -7.59876e-21)
(0.99883 -0.0209724 2.70273e-21)
(0.490354 0.0742268 -1.2847e-20)
(1.00489 -0.0171781 -1.61095e-21)
(1.00044 -0.000145849 0)
(0.415361 -0.0761697 0)
(1.09247 -0.083216 0)
(1.00273 -0.00246377 6.15393e-22)
(1.04807 0.00151009 9.97928e-21)
(0.991837 -0.00491437 7.3963e-22)
(1.09509 -0.217517 0)
(1.05306 -0.271628 1.89598e-20)
(1.09786 0.033286 2.54122e-20)
(0.999646 -0.00525973 0)
(0.978086 -0.0574319 -5.97178e-21)
(1.11323 0.0690918 0)
(0.294841 0.0343361 -4.11249e-21)
(1.226 -0.073102 2.26053e-20)
(1.09256 0.0569569 0)
(0.56787 0.0541642 1.04965e-20)
(1.00071 -0.0234869 2.45772e-21)
(1.12241 0.00841753 0)
(1.01832 -0.000660831 -1.12107e-21)
(1.23637 -0.010681 6.54788e-20)
(1.12353 0.00590021 1.72051e-20)
(1.14679 -0.243931 2.6021e-20)
(1.13447 -0.0594829 2.84689e-21)
(1.05236 -0.04157 -8.53186e-21)
(1.01812 -0.000710304 -1.13418e-21)
(0.978691 -0.0588771 1.23253e-20)
(0.644238 0.0496627 -3.06839e-21)
(1.09808 0.0455776 1.15165e-20)
(1.04025 -0.0782743 0)
(1.07557 -0.0260785 4.42612e-21)
(1.00283 -0.00966295 -1.61277e-22)
(1.01715 -0.007883 9.92195e-22)
(-0.102649 -0.0257633 0)
(0.188394 0.00758306 8.53855e-21)
(-0.268655 -0.00607616 -9.16944e-20)
(1.00438 -0.00597124 0)
(1.01128 -0.0212508 0)
(0.898088 -0.0420865 0)
(1.01652 -0.00759823 0)
(0.0903037 0.0437259 -2.52053e-20)
(-0.0246027 0.0305442 0)
(1.06043 0.00670543 -7.42972e-22)
(0.541007 0.0706716 5.06218e-21)
(1.0889 -0.215857 2.75656e-21)
(1.0185 0.000179061 -2.35801e-21)
(1.01091 -0.0535232 5.32691e-22)
(0.654312 0.0555532 9.92008e-21)
(1.2331 -0.00989578 -4.80397e-20)
(1.01522 -0.000364065 -2.6473e-21)
(1.01298 -0.000520265 0)
(1.03659 -0.112518 6.25095e-21)
(1.10304 0.0536197 -1.63502e-20)
(0.772548 0.0552398 0)
(1.16421 0.00442579 0)
(1.03372 -0.111126 5.04895e-21)
(1.04372 0.00148933 8.00741e-21)
(1.04484 -0.00834004 0)
(0.927293 -0.0349181 1.47526e-22)
(1.06185 0.00159003 0)
(0.72018 -0.206058 0)
(1.18352 -0.00659008 -2.40214e-20)
(1.11648 0.0394918 -2.2397e-20)
(1.04122 -0.0183543 4.45186e-21)
(1.0128 -0.0398664 2.32005e-23)
(1.07034 -0.0118532 -6.96924e-21)
(-0.191677 -0.0136212 0)
(1.23474 -0.0593476 0)
(1.04303 0.00123029 4.40852e-21)
(1.22894 -0.0868007 -7.39147e-20)
(0.588648 0.0756407 -2.64427e-20)
(1.04445 -0.00876479 6.56606e-21)
(0.777353 0.054427 -1.41311e-20)
(1.00304 -0.0004776 0)
(1 -9.12483e-05 0)
(1.12293 0.0550433 0)
(1.09809 0.0221026 1.56573e-20)
(1.04667 -0.0217724 1.0448e-20)
(1.01085 -0.0523895 2.50987e-22)
(1.31281 -0.143428 2.00806e-20)
(1.04397 -0.00736734 -4.68861e-21)
(1.08338 0.0327395 -6.21536e-21)
(1.00313 -0.000374361 0)
(1.15755 0.0639308 2.63293e-20)
(0.279304 0.0316332 0)
(1.12391 0.00788658 0)
(1.14735 0.0198307 0)
(1.0022 -0.00181985 1.76986e-23)
(-0.114616 -0.0238109 9.77105e-20)
(1.06414 -0.124267 -9.33289e-22)
(0.990528 -0.0343765 -6.609e-21)
(1.11201 0.0620528 0)
(1.00205 -0.00180062 -6.71077e-22)
(1.00237 -0.000340486 -3.08094e-23)
(1.00311 -0.00269377 2.93048e-22)
(0.241747 0.00979493 -1.12937e-20)
(0.975598 -0.0273366 -7.43445e-21)
(1.10216 -0.00942095 1.34403e-20)
(-0.237979 -0.00941701 -1.11901e-19)
(0.458131 0.0509082 0)
(1.17889 -0.228019 0)
(1.12464 0.0746134 -1.31658e-20)
(1.09789 -0.00922252 0)
(1.10132 0.0594257 0)
(0.980164 -0.0198571 3.83337e-21)
(1.07852 0.000706382 0)
(0.527734 0.053327 0)
(1.04297 -0.0941422 0)
(1.06798 0.0187534 5.14037e-21)
(1.14158 0.0527587 -1.28134e-20)
(0.00765862 0.0195446 -6.63374e-20)
(1.04613 -0.021226 -1.0446e-20)
(0.502436 0.0743027 3.98122e-20)
(0.980824 -0.058857 -1.06996e-20)
(1.09507 0.0315784 1.25245e-20)
(0.999506 -0.012921 -2.18346e-21)
(1.12369 0.0558158 6.79706e-21)
(0.636318 0.054619 1.01966e-20)
(1.1331 -0.000350117 -1.13227e-20)
(1.08413 0.011238 1.85293e-21)
(0.646071 0.0559803 6.91483e-21)
(1.10162 0.057721 1.13324e-21)
(1.20489 -0.0613322 1.59728e-20)
(0.999481 -0.00605091 -4.79078e-21)
(1.047 -0.117336 -8.23307e-21)
(1.10444 -0.0527131 1.12719e-20)
(1.15034 -0.0937466 0)
(0.987554 -0.0343457 0)
(1.31321 -0.134067 0)
(1.04075 -0.0179416 -2.0949e-21)
(0.684496 0.0501276 1.29384e-20)
(1.01611 -0.00759865 0)
(0.376218 -0.0638424 1.78999e-20)
(1.03223 -0.109362 -5.25136e-21)
(1.04463 -0.00767004 9.12689e-21)
(1.04538 -0.028978 -1.44305e-21)
(1.18715 0.0637591 -4.22214e-20)
(1.06273 -0.0248066 0)
(1.12799 0.0733129 7.08745e-21)
(1.00604 -0.00649597 1.45581e-22)
(0.996487 -0.00810269 3.15966e-23)
(0.593791 0.0768801 0)
(0.926456 -0.802848 -4.62151e-20)
(1.12489 0.00532135 -3.19257e-20)
(1.00014 -0.00711778 -4.59696e-21)
(0.938343 -0.0619123 1.64273e-20)
(1.09387 0.0569697 1.7883e-20)
(0.981385 -0.0599949 5.84815e-21)
(1.27805 -0.170291 8.45307e-20)
(1.10258 0.0538256 2.34726e-20)
(1.00129 -0.0101326 0)
(1.07921 0.0263071 -7.97285e-21)
(1.1087 0.0534222 -1.2804e-20)
(1.00496 -0.0167836 0)
(1.11608 -0.0487316 2.75852e-20)
(0.961969 -0.06662 -4.97882e-21)
(1.07909 0.0268834 -2.53288e-21)
(1.06972 -0.0126073 3.8204e-21)
(1.23717 -0.0161424 3.05947e-21)
(0.234454 0.0429965 -1.10827e-20)
(-0.0994205 -0.00861176 -3.79058e-20)
(1.01836 -0.0538988 -7.31755e-23)
(1.00347 -0.00264866 -4.43577e-22)
(1.02926 -0.00918003 0)
(1.11474 -0.0523313 1.25576e-20)
(1.10932 0.0540159 8.70654e-21)
(1.0227 -0.00283402 -4.06801e-21)
(0.999611 -0.00556049 -2.34347e-21)
(1.1456 0.0199285 1.13388e-21)
(0.980765 -0.0190508 0)
(1.00242 -0.0284866 2.08538e-21)
(1.00263 -0.00936558 1.45496e-22)
(0.992551 -0.206197 -7.17773e-20)
(1.13086 -0.0681439 -1.33326e-20)
(0.970648 -0.0522081 0)
(0.0727018 0.032456 2.34984e-20)
(1.06098 0.00119234 0)
(0.629109 0.0548386 -2.06875e-20)
(0.366491 0.0345215 -1.63618e-20)
(0.0453786 0.0347695 2.78636e-20)
(1.10183 0.0576489 2.39896e-21)
(0.666053 0.0509401 -7.34818e-22)
(1.03211 -0.0872928 1.39063e-21)
(0.0687606 0.0119298 1.13578e-20)
(0.90037 -0.0403122 -1.55534e-20)
(1.03783 -0.0839128 1.21553e-22)
(1.18612 -0.0159579 -3.13087e-20)
(0.975453 -0.0559154 -9.32093e-21)
(1.12824 0.0729918 7.73028e-21)
(-0.121769 -0.00888265 2.1533e-20)
(1.10079 0.0536879 -4.92657e-21)
(1.11677 -0.0506664 -4.35807e-20)
(0.99057 -0.0232245 0)
(1.20779 -0.170902 9.594e-21)
(1.07403 0.00804501 -4.83352e-21)
(1.01339 -0.00157398 0)
(0.99002 -0.0334425 0)
(-0.0835444 0.00510733 0)
(1.20581 -0.0581516 0)
(0.987712 -0.0140712 -7.29089e-21)
(1.12179 0.0632223 0)
(1.02003 -0.0281809 -2.28599e-22)
(0.866169 -0.108373 1.3533e-20)
(1.00225 -0.0087086 -2.58969e-21)
(1.10045 0.0533046 -8.05917e-21)
(0.066331 0.0394374 3.55813e-20)
(0.999744 -0.012832 0)
(1.31032 -0.140186 2.00937e-20)
(1.00102 -0.0230627 -1.55003e-21)
(1.09359 0.052985 -2.02314e-20)
(1.29755 -0.164602 -5.49823e-20)
(0.226023 0.00701237 -1.12108e-20)
(0.155052 0.0481324 -1.55765e-20)
(0.976009 -0.0574353 -6.6435e-23)
(-0.0268298 0.0306795 -6.70325e-21)
(1.01316 -0.00145472 1.20307e-21)
(1.01579 -0.000410298 8.76126e-22)
(1.01579 -0.00731131 0)
(1.15278 -0.0719342 2.92128e-20)
(1.17152 -0.291844 2.12863e-20)
(0.984769 0.0812473 -2.8987e-20)
(1.01042 -0.00112187 -9.03176e-22)
(0.963056 -0.00753911 8.54875e-22)
(1.06572 -0.0258576 8.98339e-21)
(1.15006 0.0605643 -7.67917e-21)
(0.926639 -0.0454198 0)
(1.00686 -0.0123638 -4.89388e-22)
(1.17869 -0.0551082 0)
(1.1372 -0.0377925 2.33003e-21)
(1.13191 0.000657658 -1.07399e-20)
(0.990035 -0.0230593 -6.57429e-21)
(0.0240117 0.0250112 5.67438e-20)
(0.898485 -0.0457306 1.49125e-20)
(0.0841812 0.0153515 1.43463e-20)
(0.0174783 0.0320793 3.02768e-20)
(1.12232 0.00999205 0)
(1.16647 0.00364982 -1.46704e-20)
(1.121 0.0623608 -5.23762e-21)
(1.20335 -0.17284 0)
(0.961951 -0.0650889 5.83645e-21)
(1.04433 -0.0956256 -8.67832e-22)
(1.09559 0.0325079 7.27997e-21)
(1.15101 -0.0768965 0)
(1.17732 -0.288974 -2.48383e-20)
(1.09332 -0.538866 2.23131e-20)
(-0.168316 0.00938314 0)
(1.0026 -0.0289943 0)
(1.04354 -0.292545 0)
(0.774208 -0.24454 -3.14752e-20)
(1.0629 0.0139717 5.90674e-21)
(1.18354 -0.0168269 2.29092e-20)
(0.203723 0.0426401 1.5083e-21)
(1.1063 0.0556421 0)
(1.10246 -0.00795563 -5.61438e-21)
(0.275909 0.0344966 4.31953e-21)
(1.15326 -0.243537 -4.41718e-20)
(1.08006 -0.0885454 -1.71159e-20)
(0.988118 -0.0135288 8.88307e-21)
(0.251707 0.0108928 1.10823e-20)
(1.08971 0.0494687 -9.96737e-21)
(0.600159 0.0551551 -3.70792e-21)
(1.01948 -0.026294 -1.58265e-21)
(0.994851 -0.00684966 -3.34422e-21)
(1.23802 -0.0136865 0)
(1.17668 -0.0532691 0)
(1 -0.00129962 -1.94308e-21)
(1.08123 -0.712952 0)
(0.762572 -0.247785 -3.96988e-20)
(1.04593 -0.141744 0)
(1.11536 -0.0543381 1.19593e-20)
(1.08656 -0.0868313 -1.64991e-20)
(1.09993 0.0570899 0)
(1.0218 -0.0864824 9.15217e-22)
(0.935218 -0.166133 -7.46942e-21)
(1.14046 0.00226507 1.75766e-20)
(0.966394 -0.0398772 7.10876e-21)
(1.0474 -0.0111753 0)
(1.04531 -0.0245354 7.66649e-23)
(0.588749 0.051582 1.63853e-21)
(0.93591 -0.0612065 -1.83317e-20)
(0.581837 0.077606 -2.55051e-20)
(0.974494 -0.030513 0)
(1.0937 0.0572269 -1.90617e-20)
(1.17888 -0.0498977 4.15893e-20)
(1.00085 -0.0120624 0)
(1.07289 -0.277905 6.41118e-21)
(1.09869 0.0458252 -1.2406e-20)
(1.0972 -0.0428666 1.71133e-20)
(1.28936 -0.0280249 0)
(1.19755 -0.0517201 0)
(0.0739275 0.010659 0)
(1.10118 -0.00336954 -1.13351e-20)
(1.0681 -0.283292 7.86869e-21)
(1.12275 -0.0418888 0)
(1.04861 0.00198409 -6.54333e-21)
(1.10416 0.0267905 0)
(0.979767 -0.624786 0)
(1.19106 0.0657438 2.1783e-20)
(0.97654 -0.0338174 -2.95166e-21)
(1.12874 0.0552423 7.11604e-22)
(0.18471 0.0514105 2.77992e-20)
(1.10243 -0.0245364 -1.22789e-21)
(1.00036 -0.00682463 -1.96134e-21)
(1.00002 -0.000298186 4.89366e-22)
(0.0852258 0.0418864 -3.75399e-20)
(0.97222 -0.0210953 0)
(1.17334 -0.223483 -1.63933e-20)
(1.00021 -0.00688642 3.82697e-21)
(1.12203 0.0145486 2.05416e-20)
(1.13998 -0.0515231 0)
(1.00412 -0.00991852 1.97372e-21)
(1.08428 0.0194751 0)
(1.00001 -0.0011544 0)
(1.0977 0.0202061 -3.73481e-22)
(1.06461 -0.0253166 1.0134e-20)
(1.25624 -0.133822 3.59619e-20)
(1.00407 -0.00908245 -1.26111e-21)
(1.23737 -0.0407003 1.38481e-20)
(1.04365 -0.13912 6.85627e-21)
(1.00617 -0.00685252 -3.2512e-22)
(-0.00968026 0.0326816 5.75099e-21)
(1.24241 -0.120502 -2.25808e-20)
(1.13861 0.00237812 0)
(0.0426075 0.0347679 0)
(1.0851 -0.172773 -1.69858e-20)
(0.731406 -0.454979 1.61524e-20)
(1.13861 -0.0499098 0)
(1.01988 -0.0269007 1.73228e-21)
(0.991449 -0.00476702 4.85787e-22)
(0.972916 -0.054212 -1.27578e-20)
(0.919606 -0.0782465 1.2352e-20)
(1.10354 -0.0234631 0)
(1.17739 -0.0476973 -3.8239e-20)
(1.25341 -0.13769 -4.03061e-21)
(0.24329 0.0368935 8.44772e-21)
(0.91892 -0.0806908 0)
(0.999645 -0.00611914 0)
(1.10542 0.0139142 4.96167e-20)
(1.00457 -0.0100952 -7.25562e-22)
(1.3178 -0.161841 3.04428e-20)
(1.00001 -0.00295787 -2.14649e-22)
(1.0015 -0.00510722 0)
(1.28345 -0.0261941 0)
(1.13593 0.0453849 -2.39442e-21)
(1.00427 -0.00903126 -8.54276e-23)
(1.17515 0.00691838 0)
(1.09694 0.0192902 3.37034e-22)
(0.622201 0.0551715 -1.80099e-21)
(1.09646 -0.0782977 0)
(0.997554 -0.018623 0)
(1.06124 0.00674032 3.84939e-21)
(1.07467 0.00643095 -2.46362e-21)
(1.00137 -0.00990111 -1.7485e-21)
(0.407881 -0.0387182 0)
(0.996906 -0.00704151 3.7573e-21)
(1.02214 -0.0584706 0)
(-0.157081 -0.0116876 0)
(1.01328 -0.02088 0)
(1.0213 -0.0884647 0)
(0.186806 0.0393392 0)
(0.0347384 0.0221789 4.57418e-20)
(1.00697 -0.00692056 0)
(1.12711 0.0662251 0)
(1.0788 0.0166952 -1.10131e-22)
(1.14983 -0.239311 6.63932e-21)
(1.07874 0.0160059 1.63429e-21)
(1.22998 0.0466172 6.86171e-20)
(0.0979032 0.0429487 2.33536e-20)
(0.991967 -0.0378768 -3.01866e-21)
(1.12664 -0.00704112 -1.51839e-20)
(1.13275 0.0431752 -2.50269e-21)
(1.00502 -0.025074 0)
(0.356223 0.0324061 1.66323e-20)
(1.01657 -0.000359773 2.11155e-21)
(1 -7.28814e-05 3.81802e-21)
(1.16788 0.0360775 -1.47466e-20)
(1.24733 -0.119674 -5.02132e-20)
(0.00139711 0.023532 -6.4311e-20)
(0.973443 -0.0558374 3.632e-21)
(1.11546 -0.000999424 0)
(1.10456 0.0257905 -1.01151e-21)
(1.13058 -0.151955 6.88671e-21)
(0.00957937 0.0249193 -5.91704e-20)
(0.408895 0.0401006 2.33533e-20)
(1.04324 -0.0270483 -5.34708e-21)
(1.02956 -0.00957902 -2.16455e-21)
(1.03881 -0.0574002 2.87352e-21)
(1.02343 -0.0587408 1.13026e-21)
(1.11377 -0.0014366 0)
(0.965851 -0.0683496 -1.38112e-20)
(1.01283 -0.0222005 0)
(1.07676 0.00723788 0)
(1.29843 -0.0834945 2.49009e-20)
(1.04804 -0.0355634 7.997e-23)
(1.08429 -0.0863475 1.68476e-20)
(1.10069 -0.00255198 0)
(1.00002 -0.000134896 0)
(1.07751 0.00304507 0)
(1.16376 0.0452292 0)
(0.921052 -0.0851736 -1.23656e-20)
(1.07439 -0.0282109 2.01068e-20)
(1.00965 -0.0326153 0)
(1.20826 0.00150443 0)
(0.500453 0.0590059 0)
(0.727349 -0.193072 0)
(1.09659 0.0569293 -1.93408e-20)
(1.06925 -0.334747 4.65549e-21)
(1.02308 -0.00288622 2.62527e-21)
(1.10447 0.0488055 0)
(1.04778 -0.0107738 -8.08849e-21)
(1.01792 -0.000518308 0)
(1.04089 -0.0166506 -7.00283e-23)
(1.07779 -0.339034 0)
(1.00218 -0.00778962 0)
(0.529129 0.0554485 2.38169e-20)
(-0.148673 0.0108351 -3.41924e-20)
(0.971752 -0.194516 -9.86951e-22)
(1.07557 -0.0278174 -1.92563e-20)
(0.534565 0.0754578 -4.27241e-21)
(1.11652 -0.0174429 1.56546e-20)
(1.04503 -0.267046 -8.62938e-21)
(1.00688 -0.011391 -4.27939e-22)
(0.994581 -0.00621663 -2.16902e-21)
(1.16823 0.0655122 -2.99805e-20)
(1.08381 0.0203215 0)
(0.994777 -0.0767765 0)
(1.1119 0.0530291 -1.47722e-20)
(0.967478 -0.0218664 3.98866e-21)
(1.00363 -0.0363773 0)
(1.01943 -0.0547584 2.66036e-22)
(0.96374 -0.0688459 4.76057e-21)
(1.00424 -0.0303119 2.10904e-21)
(1.00261 -0.00900577 2.77e-22)
(0.998506 -0.00850646 -6.32122e-21)
(0.967494 -0.038856 3.51899e-21)
(1.04096 -0.0722154 0)
(1.01839 8.46465e-05 6.67643e-22)
(0.096317 0.0171692 -1.4492e-20)
(1.20834 -0.00141009 4.99712e-21)
(1.05319 -0.279031 9.47074e-21)
(1.0002 -0.000102367 0)
(1.06811 -0.0272884 7.97818e-21)
(1.00703 -0.011791 -9.78529e-23)
(1.08643 -0.27491 0)
(1.01322 -0.000650093 0)
(1.02306 -0.0115418 -6.19734e-22)
(0.924522 -0.0849669 1.24889e-20)
(1.03016 -0.0234354 5.56959e-22)
(1.09827 0.0596083 0)
(1.00254 -0.0023789 -4.30254e-22)
(1.04519 0.0108603 -4.30229e-20)
(0.370758 0.0304793 -2.25636e-20)
(1.11137 0.0621584 0)
(1.00098 -0.00493045 1.71215e-21)
(0.259428 0.0386091 -1.41863e-20)
(1.10272 0.0580474 -1.86531e-20)
(0.996016 -0.0132783 0)
(1.04524 -0.00470487 -5.72813e-21)
(1.30664 -0.0806463 -4.04232e-20)
(1.04031 -0.0568002 0)
(1.13871 -0.0357392 -5.27879e-21)
(0.99944 -0.00291841 -1.16954e-21)
(1.01699 -0.927809 -1.08162e-20)
(1.0653 -0.0234994 -1.35724e-20)
(1.14971 0.0623482 1.87197e-20)
(1.09779 -0.0444271 -1.85897e-20)
(0.997097 -0.00632667 -3.85236e-21)
(1.10107 0.0576434 -4.51874e-21)
(-0.0128888 0.0267351 0)
(1.0471 -0.0349678 0)
(0.992864 -0.0151662 0)
(1.00005 -0.000324789 -1.8962e-21)
(0.996012 -0.0146995 2.82076e-21)
(1.10525 0.04499 0)
(0.983386 -0.112748 0)
(0.994782 -0.00727528 -3.74452e-21)
(-0.00655266 0.0299136 0)
(0.562218 0.078658 -1.14571e-20)
(1.30764 -0.180175 0)
(1.01016 -0.0322889 0)
(1.12776 0.0557924 0)
(1.10066 0.0573276 0)
(1.02053 -0.00825266 2.67313e-21)
(0.999162 -0.0206686 -2.67798e-21)
(1.11134 0.0564668 1.0651e-20)
(1.05017 -0.226667 -3.54606e-21)
(1.03929 -0.0446209 5.32401e-21)
(1.10392 0.0484595 0)
(0.266106 0.0134462 0)
(1.15356 -0.074712 1.88834e-21)
(1.04573 -0.258981 8.79816e-21)
(1.00479 -0.0301266 2.80048e-21)
(1.0037 -0.0027249 0)
(-0.294589 0.00293869 -9.72799e-20)
(0.0374863 0.0129052 -1.70134e-20)
(0.948971 -0.418406 5.12837e-22)
(1.21851 0.0626851 7.22837e-21)
(0.436412 0.028996 1.16887e-20)
(0.445787 -0.0351472 0)
(1.0783 0.00247361 0)
(1.10241 0.0271091 -1.01777e-20)
(0.798479 -0.149343 3.34638e-21)
(-0.242999 0.00601664 0)
(1.08128 0.011851 7.1731e-21)
(1.11919 0.0617323 0)
(1.09601 -0.0806192 5.09825e-21)
(1.06081 -0.0194826 1.05551e-20)
(1.02506 -0.0300011 2.69357e-21)
(1.04574 -0.0755777 0)
(1.20159 -0.0265555 -7.83859e-21)
(1.00652 -0.0111522 -4.09424e-22)
(1.04451 -0.00996575 4.72833e-21)
(1.09864 -0.0398609 -8.88895e-21)
(1.13173 -0.147247 0)
(1.13763 0.0324691 -1.44509e-21)
(0.70876 0.0529662 -1.12726e-20)
(0.909154 -0.107382 0)
(1.02448 -0.0261163 -7.41458e-25)
(1.00302 -0.00203969 -7.24674e-23)
(0.93166 -0.0470485 0)
(1.07899 -0.00485167 2.80286e-21)
(0.828897 -0.245174 0)
(0.421309 0.026799 -9.46581e-21)
(1.09663 0.0570817 2.1039e-20)
(1.00156 -0.00536545 0)
(1.09754 0.0593566 0)
(0.986004 -0.0619915 0)
(0.999247 -0.0270727 0)
(1.12523 0.0223444 0)
(1.07785 0.00415568 2.90202e-21)
(1.00003 -0.000270692 1.95608e-21)
(1.12763 0.0233993 1.4062e-20)
(0.922874 -0.0328377 0)
(0.272565 0.0105818 -9.90074e-21)
(1.08014 0.0253072 -5.28722e-23)
(1.11689 -0.0450708 -2.38861e-22)
(0.112612 0.0207528 1.41156e-20)
(1.21114 -0.00566173 0)
(1.147 -0.138428 0)
(0.999985 -0.000209835 0)
(0.999865 -0.000808929 -2.51832e-22)
(1.00876 -0.0069703 0)
(1.29258 -0.293685 -1.22184e-20)
(1.10415 0.0537731 1.75512e-20)
(1.16908 -0.160176 3.05042e-21)
(0.574455 0.0805237 -1.278e-20)
(1.10256 -0.0561249 -4.95113e-21)
(-0.294006 0.00281402 0)
(1.03424 -0.00833688 0)
(1.06549 -0.767356 -3.08979e-20)
(1.02359 -0.0118733 1.39653e-21)
(0.967732 -0.0207978 0)
(1.05718 -0.0489455 1.38047e-20)
(1.04078 -0.0205768 8.67387e-21)
(1.23042 -0.0595877 0)
(0.987232 -0.0613059 -4.70827e-21)
(1.04248 -0.0276335 -1.02873e-20)
(1.06666 0.0106445 7.81221e-21)
(0.991224 -0.0382788 0)
(1.30932 -0.175891 0)
(1.05995 -0.0115089 0)
(1.00175 -0.00719835 -2.3522e-21)
(1.08956 0.0489376 0)
(1.07423 0.00885922 0)
(1.04422 -0.118969 7.74843e-21)
(1.0172 -0.0147273 0)
(1.04019 -0.0208173 -4.09155e-21)
(1.10241 0.0581112 2.05492e-20)
(0.988739 -0.0137722 -4.29741e-21)
(1.04105 -0.0153163 0)
(1.04369 -0.00998402 -2.26446e-21)
(1.01559 -0.000785269 -1.00356e-21)
(1.09401 0.053191 1.78693e-20)
(1.01864 -0.00187104 -3.94943e-21)
(1.03421 -0.0110823 -5.80232e-21)
(1.12524 0.0444464 1.05313e-20)
(0.920434 -0.0331902 -1.34038e-20)
(1.05777 -0.0477771 -1.17159e-20)
(0.429163 -0.0275557 0)
(1.00452 -0.00634153 0)
(1.11793 -0.0470481 0)
(0.298203 0.0369347 4.58442e-21)
(0.614714 0.0792742 2.16611e-20)
(1.19239 0.0750335 0)
(1.0038 -0.00808796 0)
(1.13565 -0.146416 -1.62136e-20)
(1.07782 0.017317 1.03083e-22)
(1.00085 -0.00296274 2.06505e-21)
(1.01991 -0.0572627 4.34929e-22)
(1.0991 0.0218787 0)
(1.04422 -0.0744734 0)
(0.996694 -0.00733446 -4.10018e-21)
(0.992408 -0.0244808 4.706e-21)
(1.038 -0.0402893 -4.70637e-21)
(0.583841 -0.0117828 0)
(-0.137106 0.00836221 7.96633e-21)
(1.12512 0.0280562 -8.1078e-21)
(1.19899 -0.0493914 0)
(1.08567 -0.555693 -1.59084e-20)
(0.985895 -0.111042 7.49024e-21)
(0.999992 -0.000182937 -4.95454e-22)
(1.12856 0.0226869 -1.61541e-20)
(0.928725 -0.289612 -2.32243e-21)
(0.996537 -0.00237573 7.17659e-21)
(1.10697 -0.16268 2.4407e-20)
(0.989146 -0.0132189 -5.70572e-22)
(1.11538 0.063507 3.03299e-21)
(0.916382 -0.0725651 -1.29413e-20)
(0.885531 -0.233053 -7.81402e-21)
(1.05297 -0.0962697 -1.05147e-21)
(1.01857 -0.00169701 3.938e-21)
(0.837638 -0.158151 6.10128e-20)
(1.01906 -0.0564945 0)
(0.254414 0.0450981 -7.59428e-21)
(1.16605 0.0456731 0)
(1.26852 -0.260833 0)
(1.09906 -0.0414291 -6.45632e-22)
(1.08175 -0.280256 -4.15131e-21)
(1.03427 -0.0101575 -5.04219e-21)
(1.00711 -0.00726449 1.4982e-23)
(0.99896 -0.00952855 -2.48065e-21)
(1.00001 -0.000125575 0)
(1.08004 0.0259558 4.43751e-21)
(1.00154 -0.0220668 -1.28376e-22)
(1.07706 0.00467738 1.11934e-20)
(1.0893 -0.00735813 0)
(1.07962 -0.00421944 5.21834e-21)
(0.969151 -0.0704529 0)
(1.13781 0.0315431 -1.05662e-20)
(0.105289 0.0233056 -5.68366e-20)
(1.05912 -0.0110218 4.59394e-24)
(1.00513 -0.00701053 -6.06753e-22)
(1.02472 -0.0295049 -1.02595e-21)
(1.10418 0.0287384 1.11065e-20)
(0.99688 -0.00664423 0)
(1.15215 -0.080084 1.53762e-20)
(1.09172 0.0138956 0)
(1.00708 -0.0106246 0)
(1.00008 -0.000575452 -5.71429e-22)
(1.10528 0.0539012 -1.83142e-20)
(1.13035 0.0661308 1.34733e-20)
(1.04099 -0.0417219 -2.76288e-21)
(1.07795 0.0179561 -6.91086e-21)
(0.73172 0.0539256 1.25212e-20)
(1.03462 -0.00810046 1.56486e-21)
(1.06435 0.00435616 7.36446e-21)
(0.28336 0.033784 -1.69014e-20)
(1.08939 -0.0139793 -1.2137e-20)
(-0.0653539 -0.0277059 0)
(1.00075 -0.00279932 -1.83084e-21)
(1.07969 -0.0427853 0)
(1.09279 0.0327823 0)
(1.23331 -0.0523999 4.41206e-20)
(0.998895 -0.00926746 0)
(0.963946 -0.0378574 -8.67709e-21)
(1.09737 -0.139385 -2.22174e-20)
(1.08356 -0.168117 7.91646e-21)
(0.973605 -0.200042 6.47609e-21)
(1.27421 -0.257555 3.48191e-20)
(-0.231184 0.00550249 -2.41e-20)
(1.07938 -0.0418057 -1.47017e-21)
(0.470738 -0.0317393 0)
(1.00613 -0.00150515 0)
(0.624673 -0.0165901 0)
(1.04603 -0.0242216 -3.34539e-21)
(1.09853 -0.137305 2.53728e-20)
(0.771247 0.0551229 1.23637e-20)
(1.16044 -0.0652611 -3.26776e-20)
(1.09413 0.0316587 -1.45927e-20)
(0.98782 -0.00747333 2.52274e-21)
(1.10773 0.00947757 0)
(0.967238 -0.0709162 2.03724e-20)
(1.07366 0.0103589 -1.05502e-20)
(1.04367 -0.223204 0)
(1.00418 -0.00868259 0)
(0.987013 -0.0351066 2.68201e-21)
(1.12387 0.0280206 -7.85386e-21)
(0.51945 -0.0968675 3.065e-20)
(1.16459 -0.16091 0)
(1.10516 -0.0314301 0)
(1.05854 -0.00958122 -1.03215e-20)
(0.992928 -0.0310218 0)
(-0.131221 -0.00610229 -2.16916e-20)
(1.03216 -0.0130251 -2.60776e-21)
(0.999366 -0.00623522 7.06391e-21)
(1.23489 -0.0499365 -4.97467e-20)
(1.00532 -0.00634862 -3.56697e-22)
(1.06374 0.0139578 -3.98495e-24)
(-0.0326705 -0.00771815 -3.62804e-20)
(0.0993939 0.04534 1.05211e-20)
(1.06047 -0.0277467 5.65265e-21)
(1.0187 -0.00140045 -5.37253e-21)
(1.00401 -0.0100742 0)
(1.08862 -0.0148882 1.49946e-20)
(-0.0694156 -0.00648003 0)
(1.00382 -0.00380429 3.1975e-23)
(1.23999 -0.115714 0)
(1.12573 0.074621 1.42059e-20)
(1.09263 0.0134662 0)
(1.12059 0.015127 0)
(0.964298 -0.0368012 1.21067e-20)
(1.13404 0.0434862 1.98911e-20)
(1.0171 -6.4785e-05 -1.46633e-21)
(0.975258 -0.16654 2.96279e-21)
(-0.0974854 -0.013534 2.85891e-20)
(1.0358 -0.0438182 -4.17416e-21)
(1.21127 -0.011966 -4.00997e-20)
(1.05149 -0.0391092 8.60334e-21)
(0.138327 0.0496233 -1.87463e-20)
(1.10903 0.00916281 -4.77374e-21)
(0.988277 -0.00770648 0)
(1.00107 -0.0122341 1.82135e-21)
(1.23445 0.0477109 -4.79399e-22)
(0.992659 -0.0146401 0)
(0.98153 -0.0193427 0)
(0.381798 0.0333347 2.22506e-21)
(1.12792 0.0657717 -1.49062e-20)
(0.0720417 0.0246897 -1.47965e-20)
(0.998379 -0.00233065 0)
(1.02794 -0.10746 0)
(1.21752 0.0620792 5.45751e-20)
(0.64876 0.0584107 1.84808e-21)
(1.15176 -0.380274 -5.00606e-20)
(1.25629 -0.270993 -9.02626e-20)
(0.99678 -0.00239658 -4.46541e-21)
(1.05117 -0.0950883 0)
(1.03799 -0.0448931 -2.24017e-21)
(1.13622 -0.26565 1.4824e-20)
(1.21122 -0.00295702 0)
(0.67205 0.0811969 6.70605e-21)
(0.995186 -0.050509 7.68887e-22)
(1.11138 0.0440816 0)
(1.07444 -0.175411 0)
(1.18552 -0.00827252 5.4589e-20)
(0.635091 0.0657792 0)
(1.02395 -0.025517 -1.27447e-21)
(0.0617979 0.032121 -2.43654e-20)
(1.09954 0.0532266 2.11135e-21)
(1.28555 -0.0211322 0)
(0.994514 -0.00663187 6.95847e-21)
(1.15013 -0.13634 3.3623e-20)
(0.967195 -0.0858314 -7.98915e-21)
(0.999952 -0.000837082 4.28108e-21)
(1.09724 -0.0106575 0)
(0.968759 -0.0879329 -2.60344e-22)
(1.08057 0.0132722 6.38856e-21)
(1.0875 0.030141 1.36155e-20)
(1.00826 -0.0175639 -7.94021e-22)
(0.848391 -0.150478 0)
(1.08145 0.0127608 -3.75525e-21)
(1.03744 -0.137242 0)
(1.02991 -0.0814624 3.42477e-21)
(1.02348 -0.0399882 -3.47618e-22)
(0.428767 0.0313133 0)
(1.09992 0.0535416 0)
(0.576067 -0.0134271 0)
(1.01722 -0.0200087 -6.09319e-22)
(1.08851 -0.00794977 0)
(1.14277 0.0517793 -1.97546e-23)
(0.928804 -0.0895426 0)
(1.1036 0.0539929 -1.72396e-20)
(0.270624 0.050725 0)
(0.0499026 0.0148902 1.57495e-20)
(1.02415 -0.71677 3.46129e-20)
(1.00205 -0.00809716 0)
(1.13224 -0.114592 0)
(0.965846 -0.243153 0)
(0.431034 0.0366466 -7.35233e-21)
(0.943934 -0.0696693 -1.64935e-20)
(1.10192 -0.0274871 -2.15612e-20)
(1.04375 -0.0400258 -5.45059e-21)
(1.10468 0.0542295 1.93115e-20)
(1.02308 -0.00861564 2.1395e-23)
(1.11188 0.0423493 1.42708e-20)
(0.0776764 0.0372209 5.02103e-20)
(0.940991 -0.0660169 1.01129e-21)
(1.1031 -0.0263241 2.23127e-20)
(0.966405 -0.0478754 -1.69647e-20)
(0.61205 -0.0172088 0)
(1.0164 -0.0203007 -7.4739e-22)
(1.00817 -0.0127789 -9.50664e-22)
(1.00484 -0.0256353 1.66901e-21)
(1.06452 -0.0242965 3.65626e-21)
(1.09247 0.0540133 1.51671e-20)
(1.0185 -0.00129601 1.78841e-21)
(1.00635 -0.0107674 8.88828e-22)
(1.00174 -0.0215684 0)
(0.846385 -0.144352 -1.63681e-20)
(-0.264426 -0.00042246 -2.65068e-20)
(1.0066 -0.0148931 -6.77791e-22)
(1.00927 -0.0192236 0)
(1.00668 -0.0153276 6.82208e-22)
(1.03991 -0.0230525 4.18409e-21)
(1.0515 -0.0382719 -7.53752e-21)
(0.664242 0.0486169 -1.37941e-20)
(1.00612 -0.0266347 0)
(0.993137 -0.0234802 0)
(1.11811 0.0148984 -2.25358e-20)
(1.08722 0.0192447 0)
(1.0039 -0.00842214 7.14413e-22)
(0.92463 -0.0354102 1.08718e-20)
(1.10326 -0.161761 -3.06572e-20)
(0.67579 0.0596692 -7.35854e-21)
(1.03547 -0.0450197 4.15789e-21)
(1.02316 -0.0409076 1.76093e-21)
(1.05364 -0.0503395 9.9904e-21)
(1.01681 -0.0194065 -5.85878e-22)
(1.11983 0.0626348 6.76817e-21)
(1.1567 0.010635 -9.72505e-21)
(-0.0904085 -0.027252 0)
(0.971051 -0.0539861 0)
(0.3037 0.0383174 9.22986e-23)
(1.01918 -0.0395099 7.62811e-23)
(0.995372 -0.0144421 0)
(1.10092 0.02635 -1.04116e-21)
(1.23246 -0.119696 1.07001e-20)
(0.228546 0.0562829 1.10914e-20)
(1.00827 -0.0124993 3.6555e-22)
(1.13013 0.000648335 -2.2663e-20)
(1.05927 -0.0275067 -1.01622e-20)
(1.09672 -0.030873 -6.05259e-23)
(1.03454 -0.00382897 1.45678e-21)
(0.606408 0.0320814 0)
(1.0044 -0.00815722 7.09495e-23)
(1.11932 0.0141272 0)
(0.328015 0.0415221 0)
(1.00293 -0.0222784 0)
(1.09648 0.0324435 6.01095e-22)
(0.956786 -0.0149298 -3.87612e-21)
(1.05103 -0.0416599 -1.48025e-21)
(1.07969 0.0146783 0)
(1.10464 0.0296558 -1.25014e-21)
(0.393973 0.0530043 -2.09344e-20)
(1.08776 0.0293989 -9.03561e-21)
(1.01201 -0.0252227 2.84325e-22)
(1.00786 -0.0174398 1.26359e-21)
(0.196273 0.0530077 3.84902e-21)
(1.01466 -0.0142003 -9.15995e-22)
(1.02631 -0.0802624 8.19678e-22)
(0.95886 -0.243806 3.25639e-22)
(1.00076 -0.00384595 -2.19618e-21)
(1.03973 -0.0220742 4.41249e-23)
(1.03232 -0.0241982 5.6418e-21)
(1.00885 -0.0190411 -4.75161e-22)
(1.10029 0.0574281 2.56911e-21)
(1.18947 -0.43977 -2.29958e-20)
(1.04493 -0.0370401 0)
(0.92413 -0.283587 2.19342e-21)
(0.991662 0.0805052 -2.3978e-21)
(0.378757 0.0306948 -1.81085e-21)
(0.156172 0.00960312 -8.94518e-21)
(1.12571 0.0456088 -1.17855e-20)
(0.0346845 0.0264962 5.74851e-20)
(1.00348 -0.0356515 8.08113e-22)
(0.991576 -0.0066094 0)
(1.03463 -0.00984326 -5.90359e-21)
(0.573511 0.0738604 -2.63467e-21)
(0.28086 0.0520241 3.07554e-21)