/*--------------------------------*- C++ -*----------------------------------*\
| =========                 |                                                 |
| \\      /  F ield         | OpenFOAM: The Open Source CFD Toolbox           |
|  \\    /   O peration     | Version:  v2012                                 |
|   \\  /    A nd           | Website:  www.openfoam.com                      |
|    \\/     M anipulation  |                                                 |
\*---------------------------------------------------------------------------*/
FoamFile
{
    version     2.0;
    format      ascii;
    class       volScalarField;
    location    "300";
    object      ddt0(k);
}
// * * * * * * * * * * * * * * * * * * * * * * * * * * * * * * * * * * * * * //

dimensions      [0 2 -3 0 0 0 0];


internalField   nonuniform List<scalar> 
13917
(
1.54765e-09
-2.47779e-08
-3.43713e-05
-1.64856e-08
-1.76494e-09
-7.90537e-07
-0.000240509
0.000292689
0.000436873
-2.51367e-08
5.35023e-07
2.80847e-07
-1.60541e-08
-0.000257275
-2.36113e-08
-2.0852e-08
-2.73596e-08
6.0317e-09
2.78196e-07
-9.41404e-12
2.24889e-10
-0.000226964
-2.57969e-09
0.000326055
2.37251e-09
-0.000522725
3.15903e-07
5.60553e-08
7.68635e-07
-1.7111e-07
4.28169e-08
2.03707e-08
7.36762e-08
-3.29272e-09
4.75574e-10
-2.94034e-06
-1.80979e-09
0.000153257
-1.63044e-08
-3.07403e-05
5.76159e-10
3.8214e-11
3.59705e-09
-1.37418e-08
1.28683e-08
8.96897e-09
-2.43365e-09
-3.65154e-08
1.38884e-06
-4.1349e-10
1.72798e-08
3.32124e-09
-6.80199e-07
-1.17654e-08
-2.69658e-08
3.17545e-08
6.46183e-07
1.65337e-08
3.23376e-08
1.06486e-08
-1.05867e-05
-2.396e-08
1.03579e-05
2.71479e-10
-7.98976e-07
-0.0232014
2.25039e-10
1.96124e-10
-2.85813e-07
1.74311e-08
-1.29605e-09
0.000574358
-0.000145759
-9.51325e-10
-8.28472e-07
3.06354e-07
-0.00010277
2.65299e-08
-0.000617108
8.96535e-10
1.60776e-09
1.35518e-10
-2.29151e-06
0.000175812
6.96881e-05
2.50566e-08
1.66504e-09
0.0664545
1.72455e-08
3.75017e-09
-4.79493e-05
-9.17035e-08
-1.21168e-08
-1.6677e-08
-0.129253
-6.42237e-06
3.52072e-08
-1.5067e-09
1.20973e-06
1.14839e-06
1.53249e-09
5.51326e-08
1.09071e-08
1.86931e-08
-3.66663e-09
0.000417237
-1.70736e-07
-4.02579e-08
-2.69748e-08
1.76428e-08
-8.45428e-05
-5.35543e-05
4.51393e-07
0.00039256
-4.15251e-10
7.87226e-07
-2.35719e-09
-3.27888e-07
0.000185478
4.89052e-09
6.02605e-11
-3.77939e-07
0.0001859
6.01633e-08
-8.77412e-11
-1.50853e-08
3.2373e-09
1.21771e-10
2.45199e-09
-5.79733e-06
0.000139438
-3.87719e-10
1.34744e-08
9.60197e-11
-0.00353464
0.000266398
9.16648e-09
-5.52019e-07
2.78821e-10
-1.38897e-08
1.41662e-05
-2.74936e-09
5.11087e-10
-9.80142e-08
-1.07624e-10
0.00112499
7.49955e-07
4.56217e-09
-2.46381e-09
1.87378e-08
9.57709e-08
5.92112e-07
3.56509e-07
6.4011e-08
3.37285e-08
2.39874e-05
1.16908e-08
0.000806235
-0.000124319
-0.00402487
-1.38604e-08
1.0396e-06
8.91608e-10
7.5377e-08
4.39481e-07
1.18432e-06
2.0616e-08
3.76419e-08
2.95894e-09
1.22928e-07
-1.16494e-07
2.89442e-05
5.38024e-07
-2.77495e-08
0.00161004
1.77742e-07
0.0001201
-1.09453e-06
0.00128451
-4.8156e-09
-1.54124e-07
2.40969e-08
-1.71141e-09
1.7404e-09
-3.35615e-08
-0.000695779
-2.81825e-07
2.14082e-05
2.0705e-08
8.36994e-07
0.000239975
8.89297e-05
-4.85508e-07
-2.82544e-09
2.38858e-07
-2.05058e-07
-1.00445e-08
-1.42723e-08
-2.62002e-08
0.0398899
-3.35523e-09
-2.02947e-10
6.96633e-08
9.39878e-08
-0.000158478
-0.000244193
1.50011e-11
1.40683e-08
-1.96022e-08
-0.000555876
2.9145e-09
-0.000160059
-0.000175776
8.27599e-07
-3.23344e-09
7.36254e-07
3.04118e-08
-9.37737e-05
9.67302e-09
5.80892e-05
-1.20969e-09
-1.4992e-07
3.62477e-10
0.000133777
0.000344181
-1.91085e-08
-1.28611e-05
3.38955e-08
-2.11402e-09
8.94415e-07
5.55833e-07
2.00586e-08
3.35644e-05
-0.000176613
-2.0805e-10
2.33564e-08
-2.50744e-05
4.67282e-05
1.19483e-09
1.22786e-09
-0.000117795
-2.76023e-08
2.1296e-13
-6.25405e-05
-1.1124e-07
5.57293e-08
2.45634e-08
1.14223e-09
-1.18958e-07
-0.000166201
-5.43965e-10
1.04771e-07
-1.80625e-06
3.13764e-09
1.76451e-08
2.43826e-07
-0.00012174
3.2395e-07
-2.03779e-08
-1.0303e-08
1.05938e-12
0.000193157
-0.000291532
5.57767e-05
-2.0448e-09
-0.000175262
-1.04851e-05
0.00113578
-0.000540896
3.82281e-07
1.48024e-09
-1.04741e-09
-1.61406e-08
4.03454e-05
-1.11417e-07
3.27912e-08
-0.00034331
4.07052e-08
2.30803e-09
-0.00105327
-2.40583e-10
0.00158551
-4.36025e-09
-1.00814e-12
-1.13116e-08
4.62831e-08
-4.50271e-07
2.13132e-05
-4.85448e-09
6.90031e-09
0.000306955
0.000125646
-0.000235493
8.94697e-09
0.0014664
-1.65362e-10
6.60038e-09
-4.08597e-09
1.39636e-05
3.74909e-10
-3.546e-08
2.21214e-08
2.44583e-09
8.40068e-08
-9.3708e-10
-3.88978e-07
2.36192e-07
-9.42891e-08
2.62643e-09
1.93537e-08
-6.40656e-05
0.000187286
-1.16456e-09
-6.99092e-10
-0.00123251
-9.00563e-09
-0.00013345
1.24589e-09
0.000155904
-1.07711e-08
6.71352e-07
2.85745e-08
3.7022e-07
-1.22923e-08
-0.00210417
-3.30301e-06
-1.10309e-08
-1.34998e-08
1.95089e-05
-1.00696e-08
0.000170886
2.61546e-07
1.67764e-05
2.83923e-08
0.000112525
2.55449e-08
2.32149e-05
2.83425e-06
1.10285e-07
5.967e-09
-1.10653e-05
1.61927e-09
-1.30123e-07
-8.97903e-05
1.03422e-08
-2.63159e-08
2.66052e-05
-9.03664e-08
-2.5969e-08
-1.00308e-05
-1.51104e-06
1.91701e-09
0.00018161
4.9087e-05
-8.55847e-10
4.91779e-09
1.07003e-10
-2.11148e-09
0.000107855
0.00142689
-3.88249e-06
-7.1868e-05
-2.20721e-09
1.91592e-08
1.60944e-05
4.86619e-08
-0.000167584
7.0183e-05
0.000321933
-1.01427e-09
3.71943e-05
3.94725e-09
-0.000162919
8.95622e-09
2.53364e-07
-7.04079e-08
-1.54495e-08
1.99602e-09
2.19793e-08
-5.43686e-08
-1.26258e-07
-2.61876e-06
9.55413e-06
-7.64841e-05
9.13317e-08
-4.44678e-09
6.54128e-10
5.37719e-05
-0.000274688
7.61779e-09
0.00158543
-6.57722e-09
-4.90498e-05
-1.12238e-08
1.335e-09
-8.17056e-09
-0.000637883
-9.34298e-09
-0.00016004
-2.30285e-06
7.17465e-07
6.9818e-06
-1.19764e-08
5.45861e-06
2.64097e-06
-4.72698e-09
-2.06529e-08
1.26565e-08
1.96813e-10
-1.40191e-07
1.10981e-11
1.97373e-09
4.0206e-09
-4.69432e-05
6.7511e-10
0.000110917
-0.00108128
9.19769e-06
-5.56652e-07
-0.00010565
-0.000132193
4.45134e-08
-4.31328e-09
-3.08456e-07
-1.73909e-08
2.40918e-08
-3.23033e-09
0.00126428
-0.000398414
-0.00134833
-2.19645e-08
-1.50196e-07
3.70319e-09
-1.58786e-08
-1.16324e-07
-2.33676e-08
2.17515e-05
-2.60293e-08
3.47699e-10
-0.000122981
0.000122734
0.000101888
-5.59373e-08
5.69459e-06
0.00017096
-0.000160642
-3.3812e-05
2.49644e-10
-3.75298e-09
-2.36203e-08
1.37272e-08
0.00031583
-3.73596e-09
-2.62445e-09
2.80552e-08
3.91701e-08
-3.6135e-05
-4.66146e-09
-1.86349e-07
-4.04397e-05
3.65338e-07
0.000121408
4.43019e-10
8.7775e-09
-1.14248e-08
9.06643e-09
-1.17979e-09
-0.00106177
-1.22278e-05
-1.5981e-08
5.04241e-05
3.1896e-08
1.23139e-07
-0.000175045
1.21868e-06
7.17908e-07
-1.90369e-06
-7.71563e-08
-4.82982e-08
-4.41403e-07
8.47803e-08
1.30903e-06
1.6525e-06
1.23459e-07
-1.61665e-08
-3.00594e-09
-0.000524937
2.18079e-08
7.26277e-09
2.08822e-08
2.57344e-08
-1.89866e-05
0.000491295
-6.36204e-09
2.33079e-09
-0.000960788
-0.000126685
1.24622e-11
0.000135671
-5.00827e-09
-1.36998e-07
-9.30253e-09
-0.000185982
0.000328058
1.98132e-08
1.82556e-09
-0.000158775
-8.31772e-07
2.14813e-05
8.62209e-12
-0.000170309
-3.62259e-07
-0.000820218
7.48129e-09
5.8106e-05
-0.000241102
5.23263e-08
4.6371e-09
-2.5992e-08
2.64475e-07
-2.39393e-05
-3.81644e-09
4.66946e-09
-7.31892e-10
-6.78702e-10
-0.000183064
0.00013206
5.04467e-08
-3.17224e-07
7.7753e-10
1.56309e-09
-1.8154e-07
-0.000162146
2.81694e-08
5.83585e-09
-2.63276e-09
2.11271e-10
-0.00105703
0.000113339
1.3563e-09
-3.45511e-09
3.81919e-05
8.72056e-08
2.94709e-08
1.24701e-08
-1.17863e-08
9.26313e-09
1.86945e-08
-4.65069e-06
-5.17294e-07
-1.05841e-06
-3.86588e-08
-0.000230199
-2.78334e-07
6.6492e-09
-0.000166334
6.83791e-10
-2.46258e-08
-8.88585e-09
-0.000689943
-3.42535e-08
1.14798e-09
8.01763e-08
3.08514e-08
4.68248e-06
-6.27917e-08
-6.04139e-07
3.99265e-08
1.84871e-09
-0.000201267
-1.24626e-07
0.000203008
-2.56985e-08
2.90374e-08
1.91556e-06
7.63463e-05
-0.000115944
-8.53714e-09
-1.8412e-07
-2.3797e-08
2.47816e-08
1.14442e-08
-5.29427e-07
-5.49722e-08
-2.36501e-09
2.08145e-08
-1.40096e-06
0.00022549
2.38134e-05
-2.80211e-09
1.66844e-07
0.00353048
8.40457e-09
4.99432e-09
-2.4391e-06
0.000451922
0.00114026
-2.39693e-07
1.36982e-09
0.000186069
3.03268e-07
6.92093e-10
3.07451e-08
1.29863e-07
-4.93337e-08
-1.5831e-07
-0.000569352
-3.45993e-07
5.4729e-08
-0.00018658
2.65346e-08
-6.16686e-05
9.02226e-10
1.46285e-09
0.00160334
0.000462053
1.07703e-05
2.64994e-08
-2.83197e-08
-3.33843e-09
4.18605e-08
-7.4386e-07
9.98453e-07
2.56746e-08
6.75263e-07
1.85242e-08
-8.78632e-09
-7.75399e-06
9.64219e-07
-1.12016e-05
1.35738e-08
-2.07519e-07
2.58772e-08
-1.79732e-05
-1.79712e-07
-1.4378e-07
3.08334e-08
1.20507e-09
4.98207e-09
5.26261e-09
-1.92594e-08
4.01957e-09
3.09758e-05
-1.0483e-05
2.64189e-08
1.79706e-09
-3.00476e-07
1.00078e-05
4.96984e-05
1.5207e-09
4.56084e-09
4.64334e-09
-2.85404e-10
3.4329e-08
-0.000240719
1.26082e-09
0.00263256
1.12146e-09
6.88083e-07
-9.05523e-08
-0.000158877
-1.77864e-07
-2.39697e-08
4.30325e-06
-9.4337e-05
-5.38779e-09
-9.23897e-09
0.000472934
5.62006e-07
-5.48069e-08
3.14326e-11
4.76722e-09
-4.97451e-07
-1.54114e-08
-9.85529e-08
2.1787e-07
5.50909e-09
1.06334e-07
6.65528e-06
-8.78036e-11
-1.58107e-08
-7.45177e-10
0.000175658
2.66688e-10
-2.07503e-08
2.5808e-05
-2.58905e-08
0.000596218
3.22321e-08
8.5142e-08
-7.44801e-10
-1.07231e-07
-5.40905e-09
-5.09885e-09
5.83147e-10
3.31472e-07
-4.64488e-09
1.96482e-05
1.51469e-05
-0.000168799
-8.11538e-09
1.54197e-09
-6.62605e-08
3.0811e-08
0.000127113
3.04279e-05
4.06058e-09
-3.73905e-09
-2.47853e-05
7.1322e-06
-4.98328e-07
-1.08432e-05
-3.18925e-10
-0.000732023
1.95065e-08
2.56293e-08
6.517e-08
-9.10739e-10
7.05781e-10
-8.70107e-06
-8.81843e-09
-1.5906e-08
1.25031e-07
-9.00221e-09
8.20332e-09
-1.18749e-09
5.0116e-08
1.52109e-08
-6.4915e-09
-1.33191e-09
2.81804e-08
5.37711e-09
-7.79699e-08
-4.64205e-09
-7.02245e-09
1.04025e-10
-1.94583e-08
2.63387e-09
1.24133e-08
-7.5091e-10
-0.00018359
2.66488e-07
-5.41371e-07
4.44125e-10
4.57524e-10
-5.72714e-10
-5.931e-08
9.07667e-11
-0.00083185
-1.18397e-07
-0.00188701
9.90218e-10
-1.08266e-07
1.40929e-08
1.50924e-10
-5.05959e-10
-3.11449e-09
6.67473e-05
2.20147e-10
0.000296185
1.21067e-08
1.81838e-05
-2.05262e-07
-1.27504e-07
6.15257e-07
-4.91037e-10
-1.36336e-12
2.77994e-07
-7.75734e-10
-6.0467e-09
-0.00167219
-2.79289e-08
3.26217e-10
3.45414e-08
7.15292e-10
-5.67682e-11
1.99726e-08
-9.92453e-07
0.000101171
2.69504e-08
7.4392e-11
8.06885e-10
0.000112816
-1.26735e-07
-1.14598e-08
-2.59123e-08
-0.00105872
0.000270669
-1.96292e-05
-4.43989e-07
-1.52868e-08
1.62113e-10
5.76129e-10
1.23521e-07
2.14359e-08
-7.36065e-06
-1.22846e-08
0.000167501
-1.51423e-08
-1.77914e-08
1.02573e-06
-7.51947e-09
1.94768e-08
3.4687e-09
3.05884e-10
1.06352e-08
6.4263e-07
2.32333e-08
0.000623238
-3.74814e-05
-4.03406e-08
8.47668e-09
4.93018e-09
9.27991e-07
-4.30221e-05
1.27419e-11
2.80851e-06
4.92895e-09
3.47603e-08
4.2527e-10
8.37846e-09
-0.000101047
1.35557e-08
-0.00198534
1.97791e-08
6.04214e-11
2.33767e-09
2.06174e-09
8.03769e-09
-1.54951e-08
1.40471e-07
4.51444e-09
4.01974e-09
0.00052205
0.000932824
5.61782e-08
5.33322e-08
-1.46755e-09
2.45254e-08
-3.48047e-09
-2.40156e-08
-0.0001603
2.84028e-07
-3.48046e-10
4.20546e-10
0.000105304
2.53269e-08
-7.38212e-05
2.82683e-10
-3.72146e-11
0.000192919
2.66014e-08
2.4071e-08
6.06871e-05
-6.51512e-07
7.26649e-09
-3.95273e-07
-4.56551e-10
1.33888e-08
-3.35375e-10
-0.000170481
2.08813e-09
-5.59314e-09
-2.56121e-09
-0.0020138
-1.65056e-08
-2.43894e-07
-5.54534e-10
8.95755e-09
2.7505e-08
1.12007e-09
-6.78731e-05
7.53768e-10
2.55802e-09
6.58516e-10
9.17608e-07
8.01305e-10
-1.44404e-07
-8.71786e-05
-0.000154271
9.57384e-09
-2.45184e-05
1.53823e-05
1.88512e-08
0.00018765
9.27788e-05
1.05926e-06
-7.66387e-05
0.000490924
2.28437e-05
-4.03426e-07
-2.7403e-08
-0.000460921
2.5839e-08
-0.000180723
7.03388e-09
-1.11209e-08
-1.65488e-08
1.28528e-09
2.08346e-08
-3.75591e-08
0.000168114
-1.09807e-08
-3.44265e-09
1.91545e-05
-1.11184e-06
-2.66047e-10
-7.6714e-09
3.35792e-08
1.91023e-08
1.41331e-05
1.86415e-07
-1.27305e-08
-1.64143e-08
-1.53584e-05
-4.93284e-06
-1.03897e-06
2.07401e-09
-7.64992e-07
3.02875e-08
4.32193e-05
0.000242274
5.68627e-07
-1.08719e-08
1.48745e-08
-1.64479e-08
-2.32916e-09
-1.45264e-08
4.98237e-10
1.04687e-08
2.61896e-08
6.4186e-05
-2.07943e-07
-5.1866e-09
-7.82927e-08
-0.000171726
2.2368e-08
8.2368e-09
-8.8174e-05
9.15304e-10
-2.51911e-09
-5.08321e-10
6.07863e-05
-1.79902e-10
1.32429e-08
-7.42751e-05
3.19167e-05
0.000276143
-1.80031e-07
1.11665e-05
1.11431e-08
-9.36331e-07
6.26829e-09
-2.51138e-09
6.72494e-09
-0.000818729
-4.3804e-05
5.5466e-09
3.00174e-09
-1.32741e-09
0.000582989
-1.92855e-08
2.74407e-08
-9.48837e-10
-2.80699e-08
-1.21272e-06
8.83383e-09
-4.11752e-08
2.57596e-07
8.30932e-05
1.05298e-09
2.12784e-07
-5.69414e-09
-0.000171264
-0.000167174
8.09924e-10
-7.70171e-05
-3.30995e-08
1.33074e-07
2.61876e-10
-0.000567558
-1.11291e-10
3.29946e-08
1.33857e-08
-1.90286e-07
-0.000760652
3.48744e-06
1.5048e-06
0.000301429
1.66397e-09
-1.98521e-05
8.6222e-09
-7.06298e-09
1.77058e-05
1.18244e-08
4.80429e-11
-1.18091e-10
1.97245e-08
5.85527e-05
-9.09076e-10
-3.39166e-09
1.02104e-07
-4.54888e-09
2.7948e-08
6.48324e-06
1.1509e-06
6.77793e-05
1.7321e-07
2.41581e-08
1.9831e-08
-1.23039e-05
6.88864e-08
-2.31021e-05
-0.000432708
-2.76405e-10
8.34515e-09
-0.000218791
8.40243e-06
5.75122e-09
-2.85448e-07
2.76363e-08
-7.95513e-09
2.00926e-08
2.00019e-08
-1.20706e-09
-3.82777e-12
5.18016e-09
-2.59704e-07
4.29998e-09
-3.22549e-09
5.9434e-09
-1.22348e-07
1.0235e-09
-8.18342e-09
-1.12588e-08
4.67947e-09
8.47461e-09
5.17009e-09
-1.93687e-06
2.41775e-07
0.00081146
4.48238e-09
-2.01879e-08
2.58776e-08
4.89407e-09
-9.2492e-09
2.28359e-07
-7.68112e-09
-1.00339e-07
5.37274e-09
-0.000196079
6.31671e-09
5.17776e-08
5.83346e-05
-1.02661e-05
1.25471e-08
-2.25316e-08
-3.55774e-05
-2.22111e-09
5.14783e-09
4.03539e-05
-0.00016538
-2.13013e-08
1.29208e-06
-3.03536e-10
7.60355e-09
-0.00091341
7.42089e-11
-1.65902e-09
-4.63742e-05
6.80469e-09
0.000449901
1.842e-09
-1.75419e-09
-1.19551e-08
1.19792e-06
7.65564e-05
1.45247e-08
-7.70326e-09
1.09319e-08
-2.05439e-08
3.34201e-10
-3.5604e-06
5.90778e-09
1.57595e-11
0.00140493
2.26045e-07
-2.40595e-05
0.00017018
-1.70353e-06
5.28922e-09
9.28049e-09
-5.98361e-10
1.86269e-06
-6.94314e-09
9.6299e-05
5.96592e-07
-1.20483e-08
-9.34435e-06
-1.82916e-07
2.35066e-08
1.31861e-06
-2.04551e-07
-2.42143e-06
-0.000807551
1.52452e-07
2.27148e-06
0.00020339
2.66706e-07
-2.23874e-08
1.5696e-06
-3.58595e-08
6.99849e-09
1.78798e-08
7.60697e-05
7.18664e-08
-7.55946e-09
-2.47005e-07
-2.25746e-07
2.30473e-08
6.03628e-05
-1.50689e-08
0.00035793
3.72058e-08
-3.47603e-05
-3.33465e-07
8.58262e-07
3.29518e-08
4.30207e-09
-2.5918e-08
-0.000163515
-8.80478e-10
-1.49784e-08
-4.07149e-09
-1.29663e-08
-7.51096e-09
2.78787e-07
1.20416e-06
-4.82877e-07
-9.04525e-07
1.36642e-06
-0.00152988
5.2639e-06
-2.8523e-09
0.000418571
-0.00109733
-2.31948e-09
5.35638e-09
3.15752e-08
6.5024e-05
1.39059e-10
2.14572e-08
-3.76458e-06
1.03891e-07
1.23758e-08
-1.3296e-08
7.31949e-09
-3.02536e-07
1.23849e-07
-7.70731e-10
8.32043e-05
-0.000694271
-8.91642e-08
-6.14858e-05
2.75597e-07
0.00243935
-2.65135e-08
2.73611e-08
-0.0016267
0.000244405
5.5706e-07
1.16435e-05
2.43252e-08
6.33375e-11
9.39649e-09
-2.30302e-08
7.03586e-09
-5.86073e-12
-4.7193e-08
1.38333e-08
4.05367e-07
7.71039e-10
3.38571e-08
8.30914e-09
-1.26758e-08
7.2583e-07
1.39549e-06
1.99094e-08
1.96629e-07
9.39834e-09
-0.00113846
-5.83481e-09
3.99447e-08
-1.07107e-09
-1.61826e-06
-0.000170412
1.35044e-06
1.28135e-08
-2.86968e-07
-1.30283e-08
2.44068e-08
-0.000149219
1.22436e-08
5.86398e-09
1.11335e-08
3.12435e-08
-8.27827e-05
1.4277e-08
-3.68111e-08
-1.62805e-08
-6.82918e-09
-6.72695e-07
-2.72172e-08
-1.65524e-09
-1.30554e-08
-0.00016365
2.04265e-08
1.75374e-05
0.00120481
2.77723e-10
4.91677e-05
1.83703e-08
-1.57923e-09
1.24476e-08
-0.000167493
-1.61508e-08
1.35056e-09
6.88886e-08
0.383721
5.79296e-09
8.60382e-06
3.30901e-08
8.94035e-09
-1.85002e-09
1.25456e-09
1.36676e-06
4.89908e-09
2.18474e-11
-7.51091e-08
6.10887e-09
-1.29827e-08
2.87839e-08
2.55893e-07
1.16632e-06
-0.000374369
-1.68209e-08
2.00685e-07
-0.00184848
-7.01073e-05
5.45667e-08
-6.48294e-07
6.54728e-05
1.906e-08
2.3233e-05
-5.71066e-09
-4.19929e-05
6.02206e-06
7.03272e-09
3.82939e-11
1.3863e-09
-7.24424e-09
1.2479e-08
8.83669e-09
7.15278e-09
5.20614e-07
2.83237e-08
2.04669e-07
-7.08309e-05
-8.99678e-08
1.53597e-08
0.000407346
2.46467e-08
0.00014397
-1.13954e-08
4.53704e-07
4.17184e-09
-0.000187709
-3.66512e-06
-1.52194e-08
-6.06657e-09
-0.00078104
-8.95515e-10
2.81128e-05
-5.46802e-10
7.4829e-09
0.000177185
4.69701e-09
-1.28199e-07
-6.5073e-06
-3.73126e-09
-8.32901e-09
2.61688e-08
1.98756e-09
-5.68522e-10
-0.000591517
2.6826e-05
-5.14467e-09
1.44746e-08
1.52663e-08
1.10426e-08
-1.40165e-06
-6.09624e-05
-8.19405e-09
2.21931e-06
0.00139619
-2.11141e-05
0.000342765
7.62625e-09
9.81088e-07
1.4939e-08
5.42296e-08
-7.20437e-09
1.87971e-07
6.02056e-06
-1.1239e-08
-5.16655e-08
0.000509318
-5.7925e-06
-8.0757e-06
4.62564e-09
-7.73954e-09
2.60153e-10
1.50571e-10
2.4434e-05
3.38771e-08
2.61743e-10
-7.61587e-09
3.31275e-08
1.87573e-10
1.11933e-08
-4.77894e-10
2.00045e-07
2.97581e-08
0.00150158
2.76514e-08
4.11583e-06
-0.000172662
5.02982e-08
1.74773e-08
9.43672e-10
-4.27874e-09
-0.000181385
-2.48164e-08
-1.45327e-08
3.24223e-08
-1.1975e-07
5.50151e-07
-0.0010324
0.000405174
-9.8347e-10
0.000135426
3.49522e-09
2.09927e-08
4.77549e-07
7.18478e-11
-1.00426e-09
-4.54628e-07
-0.000228563
6.99783e-09
-0.00153913
-2.28091e-08
5.90644e-09
-1.20445e-08
2.68268e-06
2.31568e-08
-1.17864e-08
8.6704e-05
3.764e-09
-7.95912e-06
-0.000211024
1.48093e-11
3.96477e-07
-6.36624e-10
-0.000112355
1.11552e-08
-4.5768e-10
-0.000852155
1.66984e-09
6.48185e-08
1.29642e-12
3.80369e-06
1.75331e-07
-2.81062e-06
-1.55761e-08
-1.81216e-08
-0.000171401
4.47528e-09
-1.29607e-05
1.53843e-08
-4.38338e-08
3.67562e-08
1.06154e-11
4.21712e-05
-2.49403e-08
-2.34757e-08
-1.49693e-08
1.19847e-06
1.59758e-07
4.0686e-07
-6.87658e-09
0.000450794
-5.05691e-08
0.000120275
-1.42839e-07
2.13189e-07
-3.84635e-09
1.43409e-08
1.36722e-08
2.14246e-07
-0.000563936
-2.5846e-08
-7.46891e-09
5.60865e-08
2.41236e-08
-0.00196758
2.17727e-08
-0.00133273
-3.40773e-05
2.42684e-08
1.04112e-09
6.028e-09
-1.0954e-09
9.66181e-10
-1.38035e-07
-2.50926e-07
-8.34616e-07
1.50085e-08
-4.29559e-10
-0.000281384
1.35959e-08
2.32472e-08
-0.00141701
1.22273e-08
-5.33374e-05
3.42493e-08
-2.14616e-09
-2.0642e-07
-4.44402e-05
0.000227883
-0.00112688
0.000541239
4.75756e-09
6.06944e-08
4.51153e-05
-2.52375e-06
1.07783e-09
6.49999e-09
3.50442e-07
-0.000769273
0.000124701
1.29152e-07
-1.04275e-08
8.64326e-07
1.71067e-08
-0.000128475
4.59319e-06
5.95963e-08
7.48782e-08
-1.40364e-08
1.81813e-07
5.31844e-07
1.12616e-09
-1.55066e-07
-0.00101746
-3.9337e-10
0.00100329
2.31325e-10
1.28862e-08
5.35566e-05
3.39888e-05
2.09222e-09
-1.11273e-08
8.76388e-09
5.99246e-09
-9.9776e-08
-4.05942e-07
-1.3221e-08
-7.80989e-10
-3.19156e-10
7.0868e-08
2.82514e-08
2.54969e-08
0.000185407
4.24068e-09
-2.76763e-05
5.25468e-05
0.000310617
5.85688e-08
-2.07097e-08
0.00010792
2.53039e-08
-0.00055179
0.000299948
0.00379442
-2.80604e-08
-0.000167712
-6.73839e-05
-7.60269e-10
-5.90852e-09
-2.9662e-08
-2.07986e-05
-0.000731725
8.95332e-09
-1.00266e-08
0.000107653
0.000344049
0.00320918
1.20461e-08
-6.38734e-09
-7.91831e-08
-6.70163e-10
0.000159248
2.74518e-05
8.3135e-06
1.02605e-06
1.26091e-08
1.11644e-08
7.72997e-10
-4.60971e-09
0.000160921
6.17537e-08
-3.19441e-09
3.01628e-10
3.49304e-07
4.8719e-05
6.51676e-08
0.000856683
2.41755e-05
0.000179752
-4.75762e-08
-6.76939e-09
9.16206e-10
-0.00141326
-1.11021e-09
6.33716e-09
-2.63066e-08
-7.69279e-08
1.99434e-08
3.2695e-05
-3.70033e-08
-5.59745e-09
-6.50837e-05
2.01864e-08
-9.15491e-09
2.93772e-05
2.08045e-07
2.80088e-08
1.0388e-09
6.63608e-06
-0.000124331
1.06684e-09
-0.000504012
0.00146122
0.000136686
-2.86862e-06
-2.81664e-07
5.53259e-09
2.35785e-08
2.2689e-06
3.43351e-08
-0.00110609
1.38677e-08
-2.46875e-05
0.000161145
-4.92661e-09
-3.59533e-08
-6.19814e-09
-6.06969e-09
4.13865e-05
0.000146793
-2.37833e-09
3.2204e-05
5.62744e-08
-8.22236e-09
-1.88481e-08
7.27133e-09
-9.06928e-07
7.37365e-09
6.08008e-07
2.8646e-07
1.88635e-09
7.4277e-10
-8.22631e-07
-9.96457e-05
1.96776e-08
-1.09019e-08
1.96263e-08
1.2242e-08
2.8103e-08
1.41122e-08
4.24593e-05
0.000119455
-6.77164e-05
-3.31495e-09
1.30755e-09
-2.8389e-08
9.87952e-07
4.0081e-09
-2.86652e-08
-4.87597e-07
4.30753e-08
1.15958e-05
6.56857e-09
-0.000162646
0.000102552
3.46531e-12
5.75735e-05
-1.08296e-08
5.22177e-08
-9.36209e-08
-2.65578e-08
5.07086e-05
-1.27277e-07
-1.59176e-08
-1.15142e-08
-5.02556e-10
7.47231e-06
-7.12501e-09
-1.46041e-08
-2.86948e-08
-0.00012075
7.20637e-05
3.50981e-10
1.27208e-10
2.06116e-08
-1.28884e-09
-4.0295e-07
4.07429e-09
-2.52516e-08
1.13811e-08
5.95722e-06
-7.8062e-09
0.00016135
-3.13948e-09
-0.000213066
1.8041e-08
7.35269e-10
0.000150809
-5.1679e-06
2.39592e-06
2.69849e-05
5.68423e-07
2.12195e-08
-1.81121e-09
-0.000101686
-5.03369e-10
4.36832e-09
2.86942e-07
2.35154e-07
5.53218e-05
3.09546e-05
-1.58937e-07
-0.000301912
-9.90568e-08
-0.00485081
-1.65412e-09
3.08328e-08
1.57316e-08
-0.000109977
2.30557e-09
-0.000170662
0.000178845
-3.56567e-09
2.3166e-09
3.40515e-09
-0.000372013
-1.53805e-06
1.58121e-08
-1.84075e-09
-1.62991e-08
2.63645e-08
1.67016e-08
-0.00011349
-2.6419e-07
-2.04489e-10
-2.39925e-06
-1.7069e-07
-0.000175092
-2.61351e-08
-1.78053e-08
3.05963e-08
-7.15587e-05
8.36385e-10
-1.30756e-08
-0.000453783
-2.02384e-08
1.46699e-08
-4.62393e-07
-5.95448e-07
-8.32921e-09
0.000196948
3.22571e-08
-1.7142e-05
4.29256e-08
-4.25117e-08
2.6043e-09
-0.000105097
2.55055e-09
1.42822e-07
1.0842e-07
3.79061e-05
4.89251e-10
-2.243e-08
-1.28894e-09
3.35289e-07
1.01071e-10
6.49372e-05
1.13643e-08
1.08554e-08
2.97637e-08
-6.00538e-10
1.08877e-11
-2.27597e-07
-6.78569e-09
5.94338e-11
3.08531e-09
-4.42944e-08
3.76651e-09
1.95363e-08
1.57016e-07
6.81342e-08
-1.82413e-07
1.3329e-10
2.04208e-07
-3.2705e-06
-1.71317e-07
4.45499e-08
-3.42831e-07
-6.58317e-07
-3.59597e-05
1.2693e-07
-5.20874e-12
-0.000781609
-0.0012279
-2.25959e-12
3.29569e-08
-3.63358e-10
-3.47225e-05
-4.1747e-08
3.00476e-09
1.79151e-06
-0.000163107
1.16821e-09
5.38462e-09
-0.000833346
0.000173389
2.59418e-07
-9.58118e-10
-8.9688e-05
-0.000255988
5.43073e-07
-5.74597e-09
-8.79535e-05
4.16327e-07
-5.55605e-08
-1.0891e-05
3.04224e-08
-8.59194e-10
3.1949e-08
2.88356e-07
2.65253e-08
-0.00089863
-0.000177434
-7.62815e-09
0.00029891
-1.1966e-07
3.65183e-05
-3.55557e-09
1.99744e-07
7.57667e-10
2.41733e-09
0.000269436
0.000567686
-1.10883e-06
0.00127553
-1.00621e-07
-2.6685e-08
1.29939e-08
-6.96228e-05
0.000154781
-9.0014e-10
-2.91536e-09
3.71474e-08
7.83167e-09
3.28086e-08
0.000332421
-0.000471261
-1.52304e-08
2.1242e-08
-4.32899e-09
0.00019826
-1.86235e-08
-9.50001e-09
-6.12731e-09
-2.63961e-08
3.58468e-08
0.000527605
-0.000286704
1.19502e-07
7.88045e-10
-3.89333e-05
-2.9216e-09
6.51134e-07
-0.000175597
5.95652e-05
-6.59497e-09
-6.07636e-11
3.54333e-08
-1.54349e-08
6.96038e-09
0.000372042
-0.000147252
1.54326e-09
-2.39437e-09
1.09729e-09
1.62387e-10
1.35623e-06
6.80276e-09
-0.00099104
-2.73899e-07
2.02864e-07
-6.36512e-09
3.51064e-08
-0.000179088
2.59463e-08
-1.73278e-06
8.5403e-05
-5.40204e-09
-0.000178944
-4.99554e-08
-5.45772e-07
5.64074e-08
-0.000114869
3.61037e-05
2.16866e-07
6.03729e-09
1.13791e-06
6.41921e-09
-2.32675e-08
1.11254e-08
-0.00111592
-6.22845e-08
0.00476607
-2.19784e-05
-8.08283e-09
-7.00982e-10
3.99137e-07
2.02425e-08
2.02604e-11
-5.02701e-06
2.77678e-09
1.14764e-08
2.70127e-08
1.151e-08
-0.000288528
-2.60595e-08
-1.20262e-07
-1.2531e-08
6.14956e-09
0.000105647
0.000164694
-1.35838e-08
5.33485e-08
6.16898e-08
-3.50766e-08
1.81593e-07
-2.99385e-09
-2.03346e-08
2.94703e-08
2.58907e-06
-1.3874e-08
-0.00134111
-4.88741e-09
2.18519e-05
9.08477e-07
8.78539e-09
0.000436578
1.62894e-09
-0.000384617
-1.52664e-08
-8.37359e-05
-0.00178291
-0.000295559
-0.00238252
-2.54763e-05
-1.21303e-07
3.72227e-09
0.00029659
5.41943e-08
4.16779e-10
1.48657e-05
0.00130164
-9.87377e-09
2.64857e-11
2.82995e-08
2.83279e-08
2.61178e-08
-0.000169173
-1.48917e-12
-4.23881e-09
4.01676e-08
2.73952e-08
1.04308e-09
3.67829e-07
4.52718e-09
-0.00138409
-1.86048e-08
-2.07941e-07
3.07041e-08
1.84966e-08
4.35447e-09
0.000719819
9.45001e-09
-6.86579e-09
-1.42531e-07
7.37532e-05
0.000216534
2.56047e-09
-0.00174578
2.98859e-08
-1.29894e-05
-1.55344e-09
-2.4241e-08
0.000212059
1.48822e-07
4.95621e-05
-6.29418e-05
-1.86716e-07
-0.000150975
-1.53378e-08
4.94439e-09
-0.000107602
1.28635e-06
-2.54383e-08
0.000581629
2.54397e-08
5.15735e-07
2.27102e-08
-2.62717e-08
-4.17815e-09
0.00141338
0.0011378
1.71148e-05
-2.91613e-06
3.35695e-08
-8.227e-08
4.95663e-05
-2.64001e-08
-2.22607e-10
1.31701e-07
-1.08219e-09
2.79568e-07
8.17075e-05
0.000164761
0.000170231
1.23772e-07
2.28226e-09
-6.03192e-08
3.04184e-09
1.55185e-07
9.32712e-10
0.000191452
-9.28234e-09
-3.39523e-07
0.000161835
-3.40715e-07
-1.57809e-09
5.16968e-08
-8.90197e-06
3.4457e-09
-1.40691e-07
-3.529e-09
-0.00112447
-0.00015971
4.78831e-08
-1.71727e-06
1.35945e-10
-3.93517e-06
6.1527e-07
1.50125e-08
-4.56701e-09
-6.11014e-09
2.87779e-10
1.34085e-07
-8.37391e-10
3.48647e-07
-1.82351e-09
3.14693e-10
-0.000169791
-3.92554e-09
2.76207e-08
-1.17769e-09
5.85825e-11
0.000150026
-9.8871e-09
6.86097e-09
0.000148671
1.20739e-07
-0.00137759
8.87246e-09
-9.33463e-05
1.44914e-07
0.000443207
-1.47472e-08
3.43289e-07
-6.9021e-09
1.68213e-08
3.56032e-07
5.94796e-07
-1.84037e-06
-0.000127778
-1.05682e-07
0.000911771
9.45827e-09
3.61141e-07
-1.67791e-07
0.00349703
-2.19333e-08
-6.51171e-09
1.01355e-08
9.73987e-08
1.25714e-07
0.000263025
2.77136e-08
-0.00052454
-0.000359627
-6.26868e-07
-2.96659e-09
0.000912358
-6.48978e-09
3.3253e-09
-1.17131e-08
1.68511e-08
0.000998361
5.50565e-09
0.000159751
-6.14089e-09
1.19241e-08
-9.78874e-05
-2.69334e-08
-6.51931e-09
9.38375e-09
-0.000168031
-1.36705e-08
-2.73553e-08
2.89832e-08
-1.3423e-08
3.19008e-08
-1.99938e-08
1.32193e-06
-5.06851e-07
-7.06965e-07
2.09968e-05
3.38683e-05
0.000147608
-0.000189427
-2.87575e-09
1.99799e-08
1.126e-07
2.9376e-09
-6.78003e-07
-0.00170573
0.000168007
-2.17918e-10
-2.4725e-09
-0.000242493
-0.00133788
-7.3576e-10
-7.7035e-09
1.33256e-08
8.38054e-05
-0.000727138
3.1862e-08
2.26917e-08
2.13228e-09
-4.0455e-05
4.59365e-07
-1.68259e-07
8.14172e-08
-2.91397e-07
1.19146e-09
2.65045e-08
2.06034e-05
-3.06449e-09
1.6812e-08
2.72555e-08
-0.000271352
-2.09321e-08
6.05229e-05
-1.47787e-09
0.000192277
-1.86987e-08
-9.69585e-07
-8.18659e-10
6.14974e-09
2.08989e-06
-0.00141826
8.04487e-07
-0.000107887
0.000103615
-6.62339e-09
3.47045e-05
1.32516e-06
-4.4743e-09
0.00162565
-4.42052e-05
-1.94437e-09
2.66659e-10
1.22679e-05
3.94427e-05
7.51323e-09
3.36994e-07
0.000149159
1.04011e-07
3.64983e-09
-1.09641e-10
1.76898e-08
1.42483e-08
-3.26187e-08
2.20959e-05
6.34618e-08
6.01083e-08
-1.17572e-09
-3.45846e-09
-0.000546973
-9.40601e-09
-3.28893e-08
1.85602e-09
-9.11033e-09
-1.4068e-08
-6.00122e-09
-2.64513e-08
1.61571e-05
-1.81745e-09
-0.000102438
-4.2574e-09
-0.000187693
4.58725e-05
-8.36796e-08
-1.78789e-08
-8.90092e-12
-0.00012184
7.57676e-11
1.70391e-08
5.64794e-09
1.73775e-07
0.0178311
2.66461e-08
0.000140468
3.38664e-07
0.000482195
3.88793e-10
1.17204e-07
8.57255e-09
4.98492e-10
3.28884e-05
0.000177344
9.56103e-07
6.29907e-09
1.83383e-08
4.68719e-08
5.35967e-05
6.83751e-05
1.24852e-05
1.8464e-08
3.27378e-09
-0.000151935
1.00476e-08
8.24457e-09
8.17654e-06
4.23438e-07
4.51075e-08
2.57889e-07
3.02377e-07
5.9969e-08
3.04461e-08
-0.000136422
3.289e-08
-1.01624e-09
6.16116e-05
1.72889e-07
-1.70022e-09
-5.84119e-05
-1.50037e-09
-1.49626e-09
-1.03859e-06
-2.08851e-07
2.30497e-05
-2.98284e-09
-1.19062e-08
1.03991e-08
3.33579e-06
-1.16219e-08
9.43782e-06
0.00148676
6.04059e-05
-0.000130929
3.5758e-05
-1.07028e-07
-0.000175058
-1.58778e-06
1.92797e-09
-1.99073e-08
-5.99272e-07
4.08942e-08
3.20696e-07
-1.94144e-05
-4.32576e-07
-0.000127097
7.73377e-08
3.8299e-09
-1.9553e-08
-5.92894e-10
3.02174e-05
3.15182e-08
-8.91097e-09
3.13291e-08
2.07929e-08
-7.96426e-09
-1.19705e-07
-1.25791e-05
-2.65887e-09
2.60448e-08
1.37405e-09
-0.000135885
2.6845e-08
-0.000246767
-0.00115287
-7.31972e-06
-3.23061e-09
-8.1798e-09
7.2467e-05
8.76815e-06
3.46692e-10
6.10198e-07
1.24459e-09
9.87354e-08
8.71607e-08
-2.86299e-07
7.32865e-08
0.00325858
-6.05038e-09
9.16547e-09
8.23584e-07
-0.000176358
2.87799e-08
2.04655e-07
9.32779e-09
-7.19295e-05
-3.13435e-10
-9.34357e-10
1.83994e-08
2.00742e-08
5.57184e-06
6.8988e-05
0.000312995
1.54158e-07
-0.000142342
0.000746169
-1.08517e-09
2.41798e-08
-2.55994e-09
2.68789e-06
1.07625e-08
-2.20496e-08
1.38199e-08
5.4242e-09
5.77188e-09
-1.34128e-05
-1.3181e-08
4.5993e-06
1.24518e-09
5.53586e-08
6.17357e-09
7.38724e-07
-6.54489e-09
2.48766e-08
4.05743e-08
-1.41815e-07
0.00010617
6.64547e-09
0.000181771
8.93541e-08
6.8102e-08
-6.98991e-10
1.21914e-08
-1.84577e-06
3.23578e-05
9.37314e-09
4.18497e-09
5.89987e-07
9.45716e-08
-3.45133e-07
0.000239369
-1.95282e-08
3.69201e-05
2.46161e-08
-3.12877e-09
0.00160878
-1.55471e-08
-0.000460917
5.85043e-09
1.60054e-08
-1.05147e-09
3.30465e-05
8.81968e-05
-2.40756e-09
-3.57799e-06
-1.0793e-05
-5.56573e-10
3.40853e-09
4.34545e-10
1.20846e-06
0.000120776
1.10839e-07
-1.52407e-08
2.45641e-08
-6.0083e-09
1.84966e-08
3.00522e-08
-2.00261e-09
-6.58076e-07
1.64783e-08
2.70371e-07
2.91791e-07
2.76989e-08
1.06217e-09
-0.00182235
5.41673e-08
-6.60245e-09
-1.72304e-07
2.44168e-08
0.000208304
4.5649e-09
8.94035e-05
-3.7716e-08
-7.69844e-09
-1.79873e-07
1.85208e-09
3.28941e-08
-0.000259153
2.35854e-07
-4.60025e-09
0.000316582
-8.07026e-09
1.34868e-07
8.48344e-08
1.74711e-07
4.77635e-09
1.13151e-08
4.30547e-10
1.11137e-06
1.64226e-07
1.52837e-07
0.000274096
4.61915e-05
-0.00114446
2.25639e-10
-1.20049e-06
-6.41473e-05
0.00021033
1.5545e-08
-1.19779e-08
2.35325e-08
-0.000460001
-2.50594e-08
3.45836e-08
2.27875e-05
-6.15109e-05
-6.42029e-05