/*--------------------------------*- C++ -*----------------------------------*\
| =========                 |                                                 |
| \\      /  F ield         | OpenFOAM: The Open Source CFD Toolbox           |
|  \\    /   O peration     | Version:  v2012                                 |
|   \\  /    A nd           | Website:  www.openfoam.com                      |
|    \\/     M anipulation  |                                                 |
\*---------------------------------------------------------------------------*/
FoamFile
{
    version     2.0;
    format      ascii;
    class       volVectorField;
    location    "300";
    object      ddt0(U);
}
// * * * * * * * * * * * * * * * * * * * * * * * * * * * * * * * * * * * * * //

dimensions      [0 1 -2 0 0 0 0];


internalField   nonuniform List<vector> 
13917
(
(0.000333162 -0.000102772 -7.09368e-22)
(0.000128995 1.11995e-05 -1.73983e-22)
(0.00113369 -0.00288804 -1.24491e-21)
(-7.00328e-05 -0.000269763 1.12264e-22)
(9.78069e-06 0.000143109 2.15332e-21)
(1.45714e-05 0.000681157 0)
(0.00102302 -0.00377191 0)
(-0.000208466 -0.00164164 0)
(-0.00217325 0.00375237 -1.31299e-22)
(0.00043076 -0.000240008 7.55076e-22)
(0.00200494 -0.00316597 -1.56053e-23)
(-0.000147925 -0.00137656 0)
(-8.19548e-05 -0.00028006 0)
(-0.00704053 6.58407e-05 -5.59903e-22)
(0.000198312 0.000144722 8.15334e-22)
(0.00020792 8.71448e-05 -7.09212e-22)
(0.000136447 4.59717e-05 -7.8514e-22)
(0.000418434 0.000230497 0)
(-0.000174096 -0.00132235 -2.00763e-23)
(1.97624e-05 5.27042e-05 -9.4362e-22)
(-1.18318e-07 -1.90727e-06 0)
(0.000794753 -0.00378967 0)
(2.84488e-05 7.68265e-05 -1.25132e-21)
(0.000132244 -0.00196861 -5.43979e-22)
(4.0365e-05 1.34728e-05 -1.78775e-22)
(0.00302511 -0.00453152 -4.2804e-22)
(4.19882e-05 0.000395515 0)
(0.000142048 0.000441732 7.27167e-22)
(0.000349679 0.0008667 0)
(-9.42285e-05 -0.000341717 0)
(0.000302434 -0.000119268 6.31967e-22)
(0.000254349 -6.12705e-05 4.26093e-22)
(9.83296e-05 0.000340894 0)
(2.682e-07 0.000290365 -9.77477e-22)
(3.06116e-05 2.13968e-05 2.00433e-22)
(0.00198854 -0.00669727 9.83263e-23)
(2.59036e-05 8.34333e-05 -8.45415e-23)
(-0.005917 0.00030563 0)
(-9.72874e-05 -0.000386237 2.84332e-22)
(0.00876761 -0.000340751 -9.32015e-23)
(2.56498e-05 1.7893e-06 0)
(3.58636e-08 -4.19548e-06 1.45144e-22)
(1.11577e-05 -5.01662e-06 4.61128e-22)
(0.000191059 0.000528509 0)
(9.7019e-05 -8.12031e-05 -1.40571e-22)
(2.43528e-05 0.000298423 0)
(0.000446788 0.000206991 0)
(0.0010708 0.000207465 0)
(5.18312e-05 0.000742965 -1.60453e-21)
(2.38233e-05 1.18884e-06 5.51204e-22)
(0.000247294 -0.000129185 0)
(2.14217e-05 0.000205596 4.21057e-22)
(6.1828e-05 0.000745109 2.95622e-21)
(2.1843e-06 0.000292302 -1.05236e-21)
(0.000138728 5.1901e-05 0)
(0.000235667 -5.79259e-05 -1.37095e-22)
(0.00207395 -0.00299405 -1.5283e-22)
(7.47998e-05 0.000122157 -1.37403e-21)
(0.000205183 -7.07071e-05 1.28011e-22)
(9.41647e-05 -8.04145e-05 7.49024e-24)
(0.00331715 -0.000467516 0)
(0.000129211 -2.1052e-07 -2.02637e-23)
(-0.0064175 6.26275e-05 5.61201e-22)
(2.18738e-05 5.27029e-05 0)
(3.91302e-05 0.000675572 0)
(-0.00235785 0.000390762 -5.13684e-22)
(-2.49502e-06 0.000139201 2.51387e-21)
(-3.66497e-06 3.20379e-05 2.90602e-21)
(0.0031201 0.000698464 -4.81285e-22)
(0.000354295 -4.56081e-05 -3.40943e-22)
(9.85399e-06 0.000145429 -1.9805e-21)
(-0.00292166 0.00392251 6.81141e-23)
(0.00306173 0.00117926 -1.30231e-22)
(3.91813e-05 1.26912e-05 5.3097e-22)
(2.33596e-05 0.000735868 1.37143e-21)
(-0.000754242 -0.00106365 3.96041e-22)
(-0.00106747 0.000835545 1.70091e-22)
(0.000133463 -7.55271e-05 0)
(0.00505261 -0.00402747 0)
(8.61994e-07 1.98124e-05 1.31664e-21)
(2.76687e-06 4.01118e-05 1.1964e-21)
(-1.92655e-06 0.000148424 0)
(3.28675e-05 0.000689541 0)
(-0.00559392 0.00040987 0)
(-0.00128564 9.59265e-05 -8.531e-22)
(0.000126906 -7.51463e-05 -3.9134e-23)
(6.91302e-06 6.14673e-05 -1.17497e-21)
(0.00218008 -0.000736245 0)
(0.000238624 -0.000128294 1.24378e-23)
(1.09221e-05 -5.57288e-06 0)
(-6.66629e-06 0.00172844 0)
(0.000289774 -0.000405489 -9.90162e-22)
(8.71093e-05 -3.49966e-05 0)
(0.000124087 0.000197545 1.39791e-23)
(-0.0101842 0.00160565 3.33864e-21)
(1.23084e-05 0.000669979 7.02408e-22)
(0.00238682 -0.00105382 -1.49105e-22)
(0.000811249 0.000274259 -1.38925e-22)
(-0.00179141 -0.00224045 5.39848e-22)
(6.69561e-05 0.000565194 -1.69861e-21)
(3.51437e-05 1.37562e-05 5.06558e-22)
(2.87608e-06 0.000335361 1.41488e-21)
(0.000171116 0.000522988 -8.81345e-22)
(0.000137434 -7.96731e-05 0)
(5.40736e-05 -8.9087e-06 1.07731e-22)
(-0.00247242 0.00364319 -6.50077e-23)
(0.000444928 0.000782478 1.92901e-21)
(0.0011065 0.000304163 3.44625e-22)
(0.000139305 3.28033e-05 0)
(0.000340781 -0.000135959 4.80986e-23)
(0.00324228 -0.00102346 -8.84097e-23)
(0.00846466 -0.000562801 -2.9156e-22)
(-0.000467542 -0.00178911 0)
(-0.00215518 0.00363693 1.51371e-22)
(1.6687e-05 0.00026434 -6.13025e-22)
(-5.10653e-05 0.000772889 8.18281e-22)
(4.21123e-05 2.40368e-06 2.04698e-21)
(5.92061e-05 0.000743085 2.98986e-22)
(-0.00257382 -0.000961399 4.16428e-23)
(2.61441e-05 0.000289703 2.6147e-21)
(-7.64265e-08 -3.12897e-06 1.05873e-21)
(0.00295171 0.000776285 7.94289e-22)
(-0.00502657 -0.000721992 0)
(0.000133777 0.000429951 -5.56671e-22)
(2.35394e-05 -3.61899e-07 -2.76679e-22)
(0.000117946 0.000198233 0)
(0.000103254 -8.11017e-05 -3.93124e-22)
(2.4532e-05 -4.22705e-07 4.82975e-22)
(1.04637e-05 -6.06512e-06 1.80299e-22)
(1.71913e-05 0.000682823 0)
(-0.00364781 -0.00183175 -8.91227e-23)
(1.43658e-05 0.000258978 -5.03085e-22)
(0.000101038 -8.20467e-05 -1.3683e-22)
(6.54609e-08 -3.142e-06 0)
(-0.00103336 0.00112452 1.34228e-21)
(0.000424625 -0.00231903 0)
(0.000344834 -0.000101158 6.93438e-22)
(7.50624e-05 0.000573909 -5.41167e-22)
(-1.06533e-06 0.000132963 -2.82473e-21)
(1.72425e-05 0.000290506 -1.43447e-21)
(0.00273032 -0.00567938 -2.56371e-22)
(4.96708e-05 -5.95402e-05 0)
(4.70692e-05 0.000232422 0)
(0.000158686 0.000563486 0)
(-3.03725e-06 3.13673e-05 -1.34126e-21)
(-0.00461974 0.00407585 -3.78001e-24)
(0.000431343 0.000879809 -1.41184e-21)
(2.19173e-05 0.000195088 0)
(4.14891e-05 -5.2442e-05 2.25044e-23)
(0.000267766 -5.11465e-05 -8.06976e-22)
(0.000904137 -0.000532824 0)
(-2.91254e-05 0.000757978 -2.76393e-21)
(0.00106517 -0.00169754 6.62385e-23)
(0.000419423 7.71492e-05 -9.04524e-24)
(0.000229299 -6.79069e-05 0)
(-0.000612504 0.000298255 1.74332e-21)
(0.000339265 -3.08906e-05 0)
(0.00104932 -0.00127184 1.4531e-21)
(-0.0011206 0.000639051 3.24894e-22)
(-0.000708273 0.00125481 6.25269e-23)
(8.71536e-05 0.000254471 6.17102e-22)
(-3.01361e-05 0.000395677 1.05432e-21)
(6.66051e-07 1.62974e-05 -1.15773e-21)
(0.00224333 -0.00111983 -1.16931e-22)
(-0.000344505 -0.0017671 -9.56152e-23)
(-0.00159367 -0.00224965 -5.68101e-22)
(0.000139127 -7.77337e-05 0)
(0.000979588 -0.000139494 1.56308e-22)
(7.95569e-05 -7.757e-05 0)
(-1.47023e-06 0.000341321 -8.74099e-22)
(0.00042386 3.15746e-05 0)
(0.00168034 -0.000486295 1.11783e-22)
(-0.000798258 -0.0017902 0)
(0.000154157 4.85243e-05 -6.29294e-22)
(-0.00512902 0.00343618 1.93084e-22)
(0.000457853 0.000128589 -1.11049e-21)
(-0.00342851 -0.0019869 8.29817e-23)
(4.46796e-05 0.000752024 9.69792e-22)
(-0.00493363 0.00409496 0)
(8.59841e-05 7.49235e-05 0)
(0.000241964 -0.000428953 0)
(0.000296259 -0.000129177 0)
(4.73756e-05 -5.77982e-05 -3.62841e-24)
(9.02352e-06 6.90752e-05 9.8449e-22)
(0.00021293 0.000208306 -8.60269e-22)
(0.00437654 -0.00484263 8.70837e-26)
(0.000207941 -0.00131297 -1.29204e-21)
(-0.000682243 0.000328049 -1.22321e-21)
(0.000289114 1.70816e-05 -1.4184e-22)
(-0.000562917 -0.00280856 -4.20418e-22)
(0.00609619 -0.0035789 -4.01997e-22)
(-0.00106643 0.00011234 -9.06163e-22)
(0.000799214 -0.0010889 -9.31161e-22)
(2.53959e-05 0.000104347 1.34388e-21)
(4.33572e-05 0.000584422 0)
(4.36973e-05 0.000385353 -2.30633e-21)
(2.40078e-05 -1.64041e-07 0)
(8.90497e-05 -3.48857e-05 0)
(0.000510805 0.000675297 -8.61308e-22)
(-0.00127896 -0.00695161 0)
(0.000145475 -0.000279512 6.57853e-23)
(2.40562e-05 2.00096e-06 7.45398e-22)
(0.000898365 -0.000283592 1.69736e-22)
(0.000856456 -0.000563819 0)
(0.00283246 0.000961504 -2.0717e-22)
(-0.000354331 0.00500649 5.97761e-23)
(2.85868e-05 2.19126e-05 0)
(7.81781e-05 0.000130694 1.54675e-21)
(0.000841623 0.000214138 3.02119e-23)
(0.00356493 -0.00447162 -4.65047e-23)
(4.71075e-05 0.000224467 -6.87971e-22)
(0.000544883 -0.00345726 0)
(0.0026334 0.000551948 7.00893e-23)
(-0.000421788 -0.00278871 2.73456e-22)
(5.41958e-05 -2.46133e-06 6.09667e-23)
(0.000157341 0.000728292 -3.28165e-21)
(0.000778932 6.1581e-05 1.82471e-22)
(0.00465973 -0.000316661 6.10929e-22)
(4.92799e-05 1.95428e-05 0)
(0.0041074 -0.00051262 0)
(8.22272e-05 7.4694e-05 3.51337e-22)
(-0.000167018 -7.05193e-05 3.95104e-22)
(2.48277e-05 1.85256e-06 0)
(-0.00493488 0.000945044 0)
(-0.00207307 0.00353658 1.00052e-23)
(0.00021782 8.32014e-05 9.04644e-22)
(0.00144565 -0.000205339 1.12958e-21)
(0.000232881 -6.43755e-05 0)
(5.21876e-05 4.80782e-06 -4.70507e-22)
(0.001706 -0.00652336 0)
(-0.000802457 -0.00165836 0)
(0.000297141 1.3814e-05 -6.98551e-23)
(0.00142102 -0.00304759 -3.71292e-22)
(0.00271092 0.000481774 3.20213e-23)
(3.2935e-05 -1.29259e-06 1.15132e-22)
(0.000258559 -6.33694e-05 0)
(0.000280726 0.00201137 0)
(-0.00126407 0.000266206 0)
(8.38546e-07 2.30581e-05 0)
(3.13705e-05 -3.45348e-06 -4.27976e-22)
(0.0102569 -0.000282945 -3.61207e-22)
(0.0027669 -0.000738136 -1.06423e-22)
(-1.78548e-07 -3.4089e-07 0)
(0.000215627 -0.0056329 7.64689e-23)
(0.000218536 0.000802595 0)
(-3.62731e-05 0.000386761 0)
(0.000297406 -9.10458e-05 -1.14541e-21)
(4.15532e-07 2.07054e-05 1.14772e-21)
(0.00041459 0.000200613 0)
(0.00140658 0.000543143 -2.74283e-22)
(2.0683e-05 -7.56575e-05 -2.07932e-22)
(0.000342462 -0.000590952 5.85715e-22)
(0.000118692 0.000614921 -9.48612e-22)
(0.000100131 -8.17474e-05 -2.81068e-22)
(7.01723e-05 0.000113937 1.55401e-21)
(0.000705213 -0.00136091 -6.95375e-23)
(0.00902597 -0.000760619 0)
(0.000978632 -0.0016336 0)
(0.000222226 0.000208457 0)
(0.000206133 0.000134363 -1.18169e-21)
(-1.65825e-07 -7.48861e-07 -4.34938e-23)
(-0.00497304 -0.000533027 0)
(0.000943778 0.000373896 0)
(-0.00304564 -0.0054529 1.82495e-22)
(5.23879e-05 1.14271e-05 7.37722e-22)
(0.00488272 0.000491351 3.99221e-22)
(-0.0061287 -0.000585684 0)
(-0.000839578 -0.00125202 -1.64181e-21)
(0.0049842 -0.00382863 -1.48118e-22)
(-0.000874756 -0.00109571 1.53212e-22)
(1.90929e-06 3.49806e-05 -1.14815e-21)
(2.16977e-05 -3.5135e-07 7.7063e-22)
(0.000512217 0.000196005 2.64346e-22)
(-0.00407983 0.00108727 8.53308e-22)
(0.00147965 0.00112542 5.68152e-23)
(0.00019991 -7.17773e-05 4.49028e-22)
(-0.00064913 0.00505422 0)
(-0.000167614 -0.000835144 0)
(1.00819e-05 -4.12211e-06 -3.12408e-22)
(0.005731 -0.00102837 -7.17231e-23)
(2.27303e-05 3.9678e-05 -1.17113e-23)
(-0.00508966 0.00325271 2.70307e-23)
(0.000132989 -0.000270597 -5.69064e-23)
(-3.67762e-07 -1.71902e-07 1.12785e-22)
(0.000248806 7.04018e-05 0)
(0.000422522 9.03929e-05 2.38057e-24)
(-1.14479e-05 0.000394374 0)
(0.000398726 -0.00585837 1.35243e-22)
(0.000316825 9.78074e-05 1.32428e-21)
(5.4308e-05 -5.16465e-05 -1.80976e-22)
(-0.00304115 0.000944057 0)
(0.00114721 -0.00283041 4.11722e-22)
(0.000928432 0.000202544 0)
(4.82206e-05 1.29937e-05 9.7335e-22)
(-0.00247871 0.000545552 0)
(-5.42335e-07 0.000121507 0)
(5.22757e-05 -5.43004e-05 -7.05892e-22)
(4.14569e-05 5.56879e-06 -2.32195e-21)
(0.000434833 0.000904477 1.58038e-21)
(1.58224e-05 8.81736e-06 0)
(-0.000218209 -9.27561e-05 3.99317e-22)
(0.000296579 -8.58199e-05 9.74922e-22)
(7.54996e-05 -7.66054e-05 1.54739e-22)
(0.000931059 -0.000334354 -2.11134e-22)
(0.000174984 -5.95978e-05 8.46955e-22)
(4.4523e-05 0.000785347 2.43581e-22)
(0.000440868 0.000118642 6.76327e-22)
(0.000280174 -0.000366028 -4.66942e-22)
(5.27406e-05 -5.63972e-05 6.44606e-23)
(6.75778e-05 0.00010395 -2.2674e-21)
(0.00283438 -0.00100518 -1.26881e-23)
(-0.00596382 -0.000410478 -5.9135e-22)
(4.26747e-05 -2.0069e-07 4.58025e-22)
(2.24093e-05 6.74435e-07 -2.11972e-22)
(0.00589049 -0.00119567 0)
(8.65438e-05 4.61443e-05 -4.93067e-22)
(0.00294163 0.00134896 2.49952e-22)
(5.22978e-05 -5.80793e-05 -1.67922e-23)
(-0.00464639 0.00116935 2.47849e-22)
(-3.20988e-05 -0.000176213 1.23421e-21)
(0.00141455 0.000104782 7.76618e-22)
(0.000399126 -0.000194064 -6.31313e-23)
(1.76266e-05 0.000749265 -2.79657e-21)
(8.72916e-05 0.000251576 -1.15412e-21)
(-0.000744696 0.00208301 -2.6932e-23)
(0.000166477 0.000696235 0)
(0.000247909 6.22809e-05 0)
(0.00272969 -0.000562144 -4.4949e-22)
(0.000673085 0.000801633 0)
(0.000114189 0.000150985 0)
(-0.00561651 -0.000823088 0)
(2.3528e-05 0.000570106 0)
(-0.0074265 1.52435e-05 -9.78123e-23)
(3.69673e-05 0.000282478 1.81312e-21)
(0.00316863 -0.000664883 0)
(0.000259714 -6.76016e-05 8.01761e-22)
(-0.000171602 -0.00135783 -4.98921e-22)
(0.000160784 0.00067781 0)
(0.000527281 0.000500554 -1.41809e-21)
(0.000546056 0.00047891 1.24997e-21)
(0.000386219 -0.00270941 7.60787e-22)
(1.51673e-06 4.40476e-05 -8.69552e-22)
(0.000442234 2.17372e-05 -9.18604e-22)
(0.00295146 -0.00123104 7.99361e-23)
(7.15773e-05 0.000168808 0)
(0.000181254 7.66697e-05 1.26499e-21)
(-0.00649651 0.000142012 1.11744e-21)
(0.000497325 0.000734136 0)
(0.000152151 2.48049e-05 1.90465e-22)
(0.00500196 -0.00352124 0)
(0.000322146 0.000834803 0)
(2.91804e-05 1.47925e-05 0)
(-0.00276749 -0.000713738 -1.89968e-23)
(0.00406631 -0.00543143 4.86674e-22)
(2.44074e-05 3.87505e-05 9.44892e-22)
(4.27269e-05 3.44908e-05 0)
(6.53898e-07 0.000111228 -6.32957e-23)
(3.95678e-05 -5.03904e-05 -6.30281e-23)
(-0.00252195 0.00112818 8.29064e-23)
(-0.00511842 0.00400101 3.27222e-22)
(-0.000101357 0.000688364 0)
(0.00262604 -0.00121479 1.26872e-23)
(4.12592e-05 8.24165e-06 -8.52894e-24)
(0.000339242 -0.000649391 -1.02559e-21)
(-0.000731777 8.07585e-05 2.97003e-25)
(0.000599219 -0.000265403 -9.08136e-24)
(0.000159123 -0.00346404 0)
(-0.00377505 0.00131801 7.4152e-22)
(-0.00176367 0.00354986 -7.67473e-23)
(3.6006e-05 -5.97423e-06 -9.61356e-23)
(-0.00296907 -0.00526054 3.21885e-22)
(4.44489e-05 3.83145e-05 0)
(0.00445343 -0.00040304 5.82796e-22)
(9.53252e-05 -8.22536e-05 1.8489e-22)
(2.11067e-05 0.000788716 1.4778e-21)
(0.000131313 0.00080403 8.60769e-23)
(1.63202e-05 -0.000306552 -6.65688e-22)
(3.02009e-06 6.96384e-05 4.93624e-22)
(0.000803755 0.000161559 -4.56367e-22)
(0.000234865 -0.000476131 0)
(0.000559239 0.000547942 0)
(0.000174944 0.00115429 1.31027e-21)
(-0.000203074 -0.00122874 -4.80935e-22)
(0.00470729 -0.000264662 -7.2282e-22)
(0.000438017 0.00020481 0)
(0.000416377 -0.000224766 -1.8645e-21)
(3.04464e-05 -6.12747e-06 0)
(-0.00121284 0.000277459 0)
(0.0011921 -0.0040266 9.88467e-24)
(8.93797e-05 0.000132153 7.94116e-22)
(-0.0035092 0.00316247 8.18904e-22)
(3.15498e-05 3.75391e-05 0)
(-0.000874994 0.00261868 -4.28701e-23)
(-2.32807e-05 -0.000168813 -8.55413e-22)
(7.93483e-07 2.93482e-05 0)
(0.000176343 -4.46665e-05 0)
(0.0074062 -0.00213417 -1.0971e-21)
(0.000176736 -3.91875e-05 0)
(0.00870775 -0.000929288 -1.02635e-21)
(-0.000549871 0.000343915 -2.48428e-22)
(0.00102798 -0.00320263 -7.71507e-23)
(0.000112027 0.000694295 0)
(0.000113253 0.000144826 -5.2883e-22)
(0.000145508 0.000727875 2.70521e-21)
(0.000127627 0.000702778 -1.55769e-21)
(3.6871e-05 2.26401e-05 -6.12053e-22)
(0.000449092 0.000744108 -1.79644e-21)
(6.98392e-05 0.000161497 -1.76392e-23)
(3.37248e-05 1.94144e-05 -2.06072e-22)
(-3.8098e-05 -0.000365836 0)
(-2.67059e-07 -4.97634e-07 0)
(3.76418e-05 1.5845e-05 -5.42099e-22)
(4.46706e-05 3.76246e-05 0)
(-0.00178356 0.000891501 -4.31212e-23)
(3.33558e-07 8.83596e-06 9.15741e-23)
(0.00275978 -0.000934704 0)
(0.00765419 -0.00322447 0)
(-0.000393795 0.00013003 0)
(0.000834411 -0.00100062 3.23861e-22)
(0.00526436 -0.00206863 -4.27192e-22)
(0.00520234 -9.77131e-05 0)
(0.000583468 -0.000285029 1.35863e-23)
(4.01056e-05 1.05962e-05 0)
(-0.000685369 0.00113243 -6.2324e-24)
(-7.94969e-05 -0.000370544 -2.3467e-22)
(0.000270801 -6.59613e-05 8.61886e-22)
(2.7282e-05 9.6925e-05 1.48895e-21)
(-0.0049205 0.0039979 -2.92473e-22)
(0.00229306 -0.0042281 6.11844e-23)
(0.00865796 -0.00328206 -3.20333e-23)
(0.000196052 0.00011895 9.53337e-24)
(0.00032279 0.00107247 -9.38923e-23)
(3.25155e-05 0.000282192 -2.81432e-21)
(-9.30497e-05 -0.000406653 4.96269e-22)
(0.000595811 0.00050284 0)
(0.000169863 9.73174e-06 -1.38667e-21)
(-0.00378841 -0.00495231 0)
(0.000137593 2.60508e-05 0)
(1.5771e-05 1.04114e-05 7.21073e-22)
(0.0030652 0.00157167 0)
(-0.00313807 -0.00201218 0)
(-0.00290317 -0.00223061 -1.76018e-23)
(0.000815553 -0.000368874 -9.61109e-22)
(-0.000395913 9.93378e-05 0)
(-0.00533082 -0.000918451 0)
(0.00469246 -0.000402629 0)
(-0.00360257 0.000696171 0)
(1.23371e-05 -8.78078e-06 -2.54632e-22)
(0.000652384 0.000222015 -4.09802e-24)
(0.000169972 1.54435e-06 1.39301e-21)
(7.80825e-05 0.000140825 0)
(-0.0014845 0.00403133 5.67403e-22)
(0.000487478 0.000222309 -3.03028e-22)
(1.5748e-08 -3.18669e-06 0)
(0.000111555 0.000151141 0)
(0.000543547 -0.000202732 -4.21314e-23)
(-0.00437122 0.000585985 -9.22378e-22)
(3.75589e-05 1.52008e-05 -7.34229e-22)
(0.00217072 0.000205977 -6.04885e-22)
(-0.00042838 6.00832e-06 6.16379e-22)
(0.00158276 0.000152366 4.94382e-22)
(0.00107986 -0.0013095 5.90713e-22)
(1.56859e-07 5.46427e-06 7.97063e-22)
(8.99072e-05 0.000135456 -1.04884e-22)
(3.4417e-05 -2.68547e-07 -1.35264e-23)
(0.000347759 -2.67947e-05 4.93865e-23)
(3.56867e-05 -6.61535e-06 2.40749e-22)
(0.00626937 -0.00510329 2.37717e-22)
(-7.78848e-05 0.000697015 7.89603e-22)
(0.00030949 8.73007e-05 -1.12318e-21)
(-0.000965688 0.00038358 0)
(0.000236234 -6.13098e-05 2.25867e-22)
(0.00225494 -0.0013127 0)
(0.0044091 -0.000504876 3.97677e-22)
(0.0004576 0.000877477 -1.03547e-21)
(0.000856586 -0.00314778 1.20255e-23)
(0.00319675 -0.00590034 4.00821e-22)
(0.00228573 0.000136095 5.14276e-22)
(9.91069e-05 1.21875e-05 6.05357e-22)
(-0.00010747 0.00165034 0)
(0.000292843 -0.000794409 -2.68673e-22)
(-0.000126892 -0.00377445 2.30106e-22)
(4.49652e-05 0.000679275 0)
(7.39349e-05 -0.000984607 3.39557e-22)
(0.00138484 0.000192632 1.08285e-22)
(2.1242e-05 -4.51419e-06 -1.1324e-22)
(-0.00173636 0.00283432 0)
(0.000265418 -0.000112318 5.16814e-23)
(1.56496e-05 -3.28368e-05 3.01082e-23)
(0.000336801 -1.442e-05 0)
(0.000136007 -7.46697e-05 -4.06951e-23)
(-0.00407269 0.00068262 0)
(-0.00246949 0.00382588 0)
(8.34181e-05 5.18567e-05 3.50459e-22)
(9.64816e-06 -3.91927e-06 -1.02582e-22)
(0.00549925 -0.00510473 -2.13228e-23)
(0.0052411 -0.000100008 0)
(-3.2847e-07 -4.52223e-07 5.93059e-22)
(0.00136934 -0.000934838 -6.99663e-22)
(6.40863e-05 -0.000130588 5.18514e-22)
(0.000592454 -0.000950828 2.46565e-22)
(8.62319e-05 5.95262e-05 -2.55984e-22)
(0.00396895 0.000688077 6.54499e-24)
(0.00101956 0.00375537 0)
(0.000264259 -5.59206e-05 7.92169e-22)
(0.000132676 -7.88093e-05 -5.29901e-22)
(0.0050463 -0.00239691 1.09564e-21)
(0.000251421 -0.00119939 9.28993e-22)
(-0.00114853 0.000111271 0)
(-1.48226e-07 -7.93141e-07 0)
(0.00218323 0.000617184 -2.1473e-22)
(1.17174e-05 0.000762039 -1.29857e-21)
(0.00580033 -0.00235435 8.34187e-23)
(1.70855e-05 -2.93817e-05 1.14941e-21)
(-0.00138532 8.23725e-05 -2.31933e-22)
(0.00163254 -0.000179552 0)
(0.000600746 -0.000366461 1.28375e-23)
(4.40688e-05 3.73372e-05 6.44815e-22)
(0.000132934 8.33678e-05 0)
(-0.000771903 -0.000875593 5.22592e-22)
(-0.0014065 0.00286895 -1.1808e-22)
(-1.32295e-06 -4.50539e-06 2.46803e-22)
(4.01006e-05 2.9042e-05 4.19656e-22)
(2.26025e-05 -3.14293e-06 6.19038e-22)
(2.22561e-05 -2.74717e-06 0)
(0.00480103 0.00041604 -2.27919e-22)
(-0.00173076 0.00326509 4.90563e-22)
(0.000581066 -0.000341702 -1.13147e-23)
(9.03363e-05 -0.00128754 -1.86287e-23)
(2.3258e-05 -2.77537e-07 -7.51457e-22)
(3.41865e-05 1.45751e-05 -4.45162e-22)
(0.000430548 0.00103478 5.00294e-23)
(0.00248175 0.00173049 -6.91926e-23)
(0.000247973 -2.63392e-05 0)
(8.11506e-05 -7.72081e-05 0)
(3.51111e-05 1.67224e-05 0)
(-1.04513e-06 7.44834e-05 3.02085e-21)
(0.00574883 -0.00210549 2.01699e-22)
(-0.000814101 5.24579e-05 1.94354e-21)
(7.1466e-06 5.52235e-05 0)
(8.43624e-06 7.22924e-05 1.80285e-21)
(-0.00331793 -0.00488174 1.85534e-22)
(0.000316141 -0.000751264 2.16746e-22)
(0.000397142 -0.000217806 8.42546e-24)
(8.42378e-05 0.000133865 1.53115e-21)
(0.000179092 -2.76269e-05 5.96963e-22)
(0.000251764 -3.80353e-05 2.13842e-22)
(0.00138761 9.89857e-05 5.69765e-24)
(0.000654161 0.000750071 0)
(0.000174596 -0.00135386 9.64083e-22)
(-0.000701069 0.00129029 1.11529e-22)
(0.00107138 0.000902626 0)
(-0.000503065 0.00482396 -4.71076e-23)
(0.000239943 -0.000342052 -5.74741e-22)
(4.68447e-05 7.2065e-06 -1.03453e-21)
(0.00171805 0.000676927 2.41812e-22)
(-2.28241e-06 8.17743e-05 -1.89143e-21)
(0.000186288 7.22592e-05 -1.48928e-21)
(8.47742e-05 -0.000229028 -1.70428e-23)
(-0.0017383 0.00278025 1.02209e-23)
(0.000575559 0.000315903 0)
(2.85102e-05 3.29523e-06 0)
(0.00157235 9.51298e-05 0)
(-0.000221729 -0.000358555 0)
(-0.00052634 -0.000276904 -6.8427e-22)
(0.000974939 0.000922469 2.39771e-22)
(0.000215338 0.000291927 9.6171e-24)
(0.000575823 -0.000193383 -5.48242e-23)
(4.37246e-06 8.24449e-05 -1.05461e-21)
(0.000886331 0.000202514 0)
(0.00146986 4.13964e-05 -8.88324e-22)
(-0.0029355 -0.00125747 0)
(0.000132401 3.36164e-05 0)
(0.000261468 -3.96666e-05 5.1201e-22)
(2.98358e-05 -0.00131965 0)
(-0.00339199 0.00149936 -1.57814e-21)
(0.00330786 3.57271e-05 5.8886e-22)
(0.000839822 0.000334333 4.57616e-24)
(0.000861233 -0.000411265 -1.34588e-22)
(0.000202529 9.88752e-05 2.14952e-22)
(0.000195126 -7.7475e-05 5.55699e-23)
(8.56517e-05 0.000137325 9.00995e-22)
(0.000347275 0.000360907 0)
(0.00015406 0.000543405 0)
(-8.74741e-06 0.000140954 0)
(0.000786826 7.02343e-06 0)
(8.25542e-05 0.000605926 2.31773e-21)
(-0.0027623 -0.00114328 -2.87938e-22)
(-0.00117941 0.000140662 0)
(0.000201644 -2.80832e-05 -2.97143e-22)
(0.00212539 -0.00138306 -1.39999e-23)
(0.0033194 0.00341041 0)
(0.000268902 5.95258e-05 6.31152e-22)
(5.38511e-05 0.000215359 1.39103e-21)
(2.87e-05 0.000823164 0)
(-0.00258049 0.00321986 -2.7635e-22)
(-0.00440895 0.0037073 3.83901e-22)
(-0.000221514 -0.00126255 -8.45244e-22)
(1.10152e-05 -7.21325e-06 0)
(-0.00313983 -0.00080679 -4.11475e-24)
(-0.000717764 -0.000981645 -4.76078e-22)
(2.82083e-05 2.35875e-06 0)
(0.00024859 -6.32521e-05 -1.90047e-22)
(0.00141133 -0.000663912 0)
(0.000101587 0.000329445 -1.01863e-21)
(-9.73513e-05 -0.000282217 2.05355e-22)
(0.00454585 -0.00426295 0)
(2.87845e-05 0.00160956 5.93569e-23)
(0.000254822 -0.000675282 -5.74903e-22)
(0.000760181 0.000411749 0)
(0.000154452 -7.68197e-05 6.12939e-23)
(-0.00357343 0.000559163 -1.1342e-22)
(3.37489e-07 1.76599e-05 0)
(9.76673e-06 6.19136e-05 4.56305e-23)
(-0.00273936 0.000312845 -7.13921e-22)
(-0.00261284 0.00328851 1.01663e-22)
(6.01767e-05 0.000688896 1.61883e-21)
(0.000152868 -7.63661e-05 -6.52925e-23)
(0.000150153 4.4755e-05 9.61303e-22)
(9.33114e-06 7.84428e-05 -2.52766e-21)
(-0.000159219 -0.000853253 -2.23354e-22)
(4.47828e-05 0.000755258 -1.55026e-21)
(-0.00149791 -0.00211992 4.95508e-22)
(0.000198846 -7.68634e-05 5.90884e-23)
(0.000832962 -0.00294511 3.26306e-23)
(0.000820361 0.000105483 2.08543e-22)
(8.91682e-05 6.05949e-05 -1.0212e-21)
(0.00157378 0.000790333 8.24696e-22)
(-0.00154895 -0.00192282 -3.69613e-22)
(-0.00659717 -0.00286205 -1.27598e-21)
(5.42803e-05 3.80945e-05 0)
(0.000292309 0.00167421 -5.3451e-23)
(0.000136453 -7.47289e-05 -7.12929e-24)
(-0.000589656 0.000367657 -7.97972e-22)
(0.000411616 -0.000270999 -7.05971e-22)
(0.000583987 0.000287994 0)
(0.000259088 -3.63684e-05 -4.78354e-22)
(2.38686e-05 5.96126e-06 -4.57035e-22)
(2.2918e-05 -1.69128e-05 -2.09192e-22)
(0.000106171 -8.34518e-05 2.62871e-22)
(0.000606551 0.000464859 1.23922e-21)
(3.3341e-05 0.000298209 0)
(-0.00118415 -0.000390927 -1.20638e-22)
(7.93603e-05 0.000988283 -1.3539e-23)
(0.000933562 -9.57136e-05 -1.6516e-22)
(2.78286e-05 1.33299e-05 0)
(-0.000255738 0.00139553 0)
(7.40982e-05 0.000695857 0)
(0.00319431 -0.00626814 -5.24625e-22)
(2.25703e-05 -6.81902e-05 0)
(5.65484e-05 0.000288459 -5.04325e-22)
(3.90131e-05 2.43553e-05 1.01402e-23)
(3.66679e-05 -0.000488806 0)
(0.000210639 -6.78336e-05 0)
(0.00174522 -1.67948e-05 2.10559e-22)
(1.08462e-06 2.68803e-05 0)
(0.00366973 8.54886e-05 -1.76309e-21)
(8.32304e-05 -0.000456714 0)
(0.00177456 -0.00333268 5.4468e-23)
(0.000379582 -0.000402656 -2.94012e-22)
(0.00368754 0.000992435 -6.24626e-24)
(0.000625724 0.000253494 1.03569e-21)
(0.000129517 8.79701e-05 2.39182e-22)
(-0.00328956 0.00110715 -8.39435e-22)
(0.00498434 7.16262e-05 -3.00235e-22)
(0.000100568 0.00011329 0)
(7.25179e-05 -0.000233505 -7.21343e-23)
(0.000540933 0.00422212 1.02127e-21)
(-0.000161844 -0.0011385 0)
(0.00152786 0.000997592 -1.35258e-22)
(-1.82464e-07 1.25072e-06 7.25151e-22)
(0.000132711 -8.20583e-05 0)
(0.00131942 7.46835e-05 0)
(5.84762e-06 -0.000322639 8.91331e-22)
(0.000482145 0.000512939 0)
(0.000669483 -0.00127267 0)
(2.27278e-05 -1.73542e-05 -2.90677e-22)
(0.000820449 -0.000682057 0)
(0.000977002 -0.00268204 7.09844e-22)
(1.43485e-05 -7.94951e-05 -4.63405e-22)
(-3.73696e-05 -0.0002239 0)
(2.39239e-05 -3.46335e-06 -5.77466e-22)
(-0.00578996 -0.000340001 -2.52776e-22)
(-2.36113e-07 -1.39687e-06 -1.78175e-22)
(0.000191533 0.000121547 9.47226e-24)
(0.00147657 -0.000553212 1.44861e-22)
(0.000165748 0.000113662 -8.14893e-22)
(-0.00305198 0.0036033 -9.25635e-23)
(0.000232605 -6.86606e-05 -6.27258e-23)
(0.0001059 0.000341989 1.76671e-21)
(2.33641e-05 -3.60591e-06 -9.34733e-22)
(0.000493684 0.000133979 1.3383e-21)
(4.04783e-05 1.30524e-05 1.26678e-21)
(0.000117113 -4.44025e-05 -1.36516e-22)
(2.20609e-05 2.7202e-06 0)
(0.000726729 0.000104876 -9.42573e-22)
(7.0889e-05 -0.000121425 0)
(-0.00158733 -0.000528134 -1.0567e-21)
(0.000129022 0.000895296 -1.20522e-21)
(0.00256327 0.00152301 8.95354e-23)
(3.51017e-05 4.03597e-08 -2.45178e-23)
(2.40432e-06 5.48619e-05 8.22602e-22)
(0.000237636 -0.000298486 5.25645e-22)
(0.00029402 -0.000151565 -1.4209e-24)
(-0.00655613 -7.0735e-05 -1.1112e-21)
(0.000296537 0.002994 -1.62436e-22)
(0.000380311 0.000219885 3.09388e-22)
(3.13561e-05 2.27499e-05 0)
(-0.00146546 0.000872519 9.83383e-24)
(6.13088e-05 0.000694504 -3.3789e-21)
(-0.00613645 -0.00313842 1.13529e-21)
(-0.00139596 -0.000509919 1.77178e-22)
(0.000560508 0.000135348 2.3677e-22)
(0.00620127 -0.00377535 -1.10168e-21)
(0.000352993 -8.52452e-05 -3.99171e-22)
(-0.000152537 -0.000811893 -3.75241e-22)
(-0.000612825 0.000721525 9.99145e-23)
(0.000489783 0.000641219 -8.61263e-22)
(0.000363685 0.000196759 -2.16963e-22)
(7.98554e-05 0.000720952 2.16665e-21)
(0.000309129 0.000173934 1.5099e-22)
(-4.71782e-07 -0.000244468 3.81079e-22)
(0.00151824 -0.000663981 -1.42689e-22)
(0.000254885 5.18589e-05 6.85127e-22)
(2.19564e-05 -3.47657e-05 -1.36645e-21)
(5.15939e-05 -0.000483237 -1.25482e-22)
(0.000325792 -0.000134774 7.43009e-22)
(0.000262867 -4.75632e-05 -1.83758e-23)
(3.87291e-05 2.17566e-05 0)
(2.34311e-05 2.24783e-07 0)
(0.000889982 8.50579e-06 1.80769e-22)
(0.000118611 -0.000113127 2.18431e-22)
(0.000412995 0.00054514 2.44435e-23)
(3.08123e-05 2.54829e-05 0)
(2.65406e-05 6.22288e-05 0)
(-1.43947e-07 -3.09765e-06 -1.22859e-23)
(0.000179541 -1.12803e-05 3.67431e-23)
(5.38531e-06 -2.76261e-05 8.50983e-22)
(0.000232664 -5.51083e-05 6.85866e-22)
(2.47762e-05 -2.14144e-06 1.63097e-22)
(0.00412479 0.000575431 0)
(-0.000289072 -0.00125532 0)
(-9.87665e-05 0.00068494 1.9556e-22)
(3.64462e-05 3.82622e-06 5.96484e-23)
(1.32704e-07 5.15533e-06 -1.19899e-21)
(0.000180342 0.000401936 1.09699e-21)
(7.92728e-05 2.91578e-05 -7.01462e-22)
(6.94573e-06 0.000251955 0)
(0.00424245 -0.0018995 -9.64382e-24)
(0.000639076 -0.000180449 1.47722e-21)
(0.00436379 0.000461133 -9.70511e-22)
(7.27523e-05 -0.000476155 1.62731e-22)
(0.000196129 0.00125845 9.48124e-23)
(9.25157e-05 -6.6864e-05 -8.06656e-23)
(8.42637e-07 -1.90848e-06 -1.21635e-21)
(2.17069e-05 -1.90054e-06 0)
(0.000175967 -5.47393e-05 -1.33683e-21)
(-0.000721542 -0.000250806 -8.9891e-22)
(-1.14459e-07 2.33366e-06 1.70187e-21)
(-0.00233647 0.00442855 -6.35713e-23)
(0.000240975 -5.43168e-05 0)
(-0.000750327 0.000104482 -7.16678e-22)
(0.000434661 0.000250322 1.47594e-21)
(0.000637616 -0.000210553 -8.20081e-22)
(0.0015454 -0.00328804 1.73806e-23)
(2.29817e-05 -2.82297e-05 0)
(-1.1515e-08 -2.71775e-07 0)
(-0.000267048 -0.00131661 0)
(9.44541e-06 3.08605e-05 0)
(0.000106404 0.000181539 -5.908e-22)
(0.00452401 -0.0012907 0)
(0.00015899 4.17881e-05 -5.40109e-22)
(1.14136e-06 0.000110259 -5.24505e-22)
(0.000235949 -5.65513e-05 -5.1692e-22)
(2.92237e-05 -2.69405e-06 3.58071e-22)
(1.22546e-05 -5.60456e-06 1.73405e-22)
(0.000256316 -5.76937e-05 -4.05442e-22)
(-4.01365e-05 0.000301325 0)
(-0.0066366 -8.76244e-05 -6.52963e-22)
(0.000303896 -7.81514e-05 6.79917e-23)
(1.0914e-05 -8.61698e-05 -5.81777e-22)
(2.62628e-05 2.70236e-06 0)
(-0.00307759 0.0017634 7.26139e-22)
(0.000588343 0.000488073 0)
(0.000113676 0.000128096 8.08171e-22)
(0.000131623 2.59045e-05 -3.77889e-22)
(0.00439811 -0.00198333 -4.79826e-24)
(0.00161982 0.00375995 4.56234e-22)
(0.00364108 -0.000356941 -1.62722e-22)
(0.00022208 0.00028237 0)
(1.15765e-05 -0.000239305 -2.04061e-22)
(3.32597e-05 8.70812e-07 -8.6414e-23)
(1.18832e-05 -5.87183e-06 -3.53142e-22)
(0.000111214 -0.00100873 -1.40043e-23)
(0.000306296 -8.45469e-05 -3.63187e-23)
(0.00446492 -0.00244002 -4.94155e-22)
(3.6763e-05 0.000284461 0)
(-0.00591203 -0.000661114 -6.67943e-22)
(0.000137104 -4.29083e-05 1.01368e-21)
(0.000130542 0.000202979 -1.02168e-21)
(0.0031238 -0.000282279 -3.58441e-23)
(3.02835e-05 4.43529e-05 0)
(0.000272983 -0.000119734 -5.97282e-23)
(8.9514e-05 0.000112706 -9.665e-22)
(1.90935e-05 1.01593e-05 -8.33563e-22)
(0.000343644 -0.000123414 9.3519e-23)
(-5.2542e-06 0.000407887 1.11815e-21)
(0.00012228 -7.81437e-05 0)
(-0.00305622 0.00358213 0)
(0.00760949 -0.000862311 1.35471e-21)
(0.000335647 -0.000425009 2.24752e-22)
(4.7846e-05 1.23632e-05 -1.84393e-21)
(1.17079e-05 -1.97552e-05 -1.17628e-23)
(-0.00078057 -0.00260845 5.92536e-22)
(-0.00169284 0.00455446 6.88134e-23)
(-2.96075e-07 -4.92677e-07 -7.94231e-22)
(0.00039628 0.0042588 1.24249e-23)
(1.21124e-05 -1.63064e-05 0)
(0.000316007 -0.000123505 -6.77477e-22)
(-1.18051e-05 -9.86863e-05 0)