/*--------------------------------*- C++ -*----------------------------------*\
| =========                 |                                                 |
| \\      /  F ield         | OpenFOAM: The Open Source CFD Toolbox           |
|  \\    /   O peration     | Version:  v2012                                 |
|   \\  /    A nd           | Website:  www.openfoam.com                      |
|    \\/     M anipulation  |                                                 |
\*---------------------------------------------------------------------------*/
FoamFile
{
    version     2.0;
    format      ascii;
    class       surfaceScalarField;
    location    "300";
    object      ddtCorrDdt0(phi);
}
// * * * * * * * * * * * * * * * * * * * * * * * * * * * * * * * * * * * * * //

dimensions      [0 3 -2 0 0 0 0];
oriented        oriented;


internalField   nonuniform List<scalar> 
20673
(
-3.97521e-05
5.79267e-05
-1.81751e-05
4.70673e-05
-3.69726e-05
-1.00947e-05
0.000239715
-0.00015043
-8.92861e-05
5.90201e-05
2.24364e-05
-8.14599e-05
6.74183e-05
-7.39661e-05
6.54868e-06
4.41443e-05
-4.73988e-05
3.25802e-06
0.00026238
2.77605e-05
-0.000290142
-0.000116239
7.55101e-05
4.07287e-05
0.000137874
9.17479e-05
-0.000229622
-5.5737e-05
6.66593e-05
-1.09261e-05
-0.000461167
0.000165383
0.000295785
-0.000188742
0.000184551
4.19165e-06
6.05567e-05
-0.00032362
3.51596e-05
0.000288461
5.90255e-05
-3.80134e-05
-2.10119e-05
4.56065e-05
-5.93865e-05
1.37806e-05
-2.75417e-05
4.41164e-05
-1.65747e-05
8.12818e-05
-5.85767e-05
-2.2705e-05
4.78873e-06
-0.000193531
-1.99355e-05
3.23781e-05
-1.24426e-05
1.21378e-06
-3.0643e-09
-1.21126e-06
4.22335e-05
0.000220147
-1.44849e-05
-2.24131e-05
3.68975e-05
-4.98689e-05
-6.63702e-05
-7.07344e-06
-7.54349e-06
1.46162e-05
-0.000348782
0.000363461
-1.46784e-05
1.54503e-05
3.25806e-05
-4.8032e-05
-2.65407e-05
4.5961e-05
-1.94194e-05
-5.33954e-05
7.03354e-05
-1.69401e-05
1.02095e-05
-3.95917e-05
2.93827e-05
5.36061e-05
-3.58257e-05
-1.77808e-05
5.62692e-05
-4.31981e-05
-1.30712e-05
2.73086e-05
2.47534e-05
-5.20624e-05
1.37244e-05
-5.52974e-05
4.1573e-05
-1.49144e-05
6.53169e-06
8.38285e-06
-0.00015797
-0.000339672
0.000497641
-4.30459e-05
2.85607e-05
0.000122973
0.000191065
-0.000314039
-5.9773e-05
0.00010365
-0.000483311
2.92098e-05
0.000454101
-1.51383e-05
1.45889e-05
5.4898e-07
1.00199e-07
1.45845e-06
-1.55899e-06
6.32875e-06
-5.56205e-06
-7.65394e-07
-6.2809e-05
4.04646e-05
2.23445e-05
-3.54384e-05
1.13567e-05
2.40816e-05
5.99942e-05
-5.20266e-05
-7.96801e-06
5.50667e-05
2.62151e-05
-5.6636e-05
-7.50564e-05
0.000131695
-3.89866e-05
3.80961e-05
8.9049e-07
-1.63104e-05
1.12281e-05
5.08198e-06
-2.08563e-05
-2.57379e-05
4.6594e-05
3.32777e-05
-5.90971e-05
2.58199e-05
-4.54842e-05
6.49843e-06
5.30905e-05
-3.93662e-05
1.31457e-05
-4.06875e-05
3.82378e-05
-5.32229e-05
1.49854e-05
-0.000155603
-0.000305563
-1.85087e-05
-3.43819e-05
5.28907e-05
-3.84374e-06
4.73896e-05
-4.35456e-05
-2.63544e-05
-9.08395e-06
-0.00016333
-6.8823e-05
0.000232152
1.81943e-05
2.88733e-05
-0.00032362
-3.40099e-05
1.40743e-05
5.35421e-05
-9.39716e-06
0.000105446
-6.24487e-05
-4.30037e-05
-2.96694e-06
6.16063e-05
1.00583e-05
2.44161e-06
-0.000218999
0.000291117
-7.21168e-05
-6.2791e-05
5.84345e-05
4.35608e-06
-4.0309e-06
7.14496e-05
0.000293258
-0.000155383
-3.8124e-05
0.000175738
-0.000137614
1.0435e-05
-1.75088e-05
-3.80239e-05
-4.57151e-07
3.84798e-05
0.000175149
-0.000178728
3.58063e-06
1.40015e-05
5.694e-05
-7.09415e-05
-1.51441e-05
4.56469e-05
-3.05033e-05
0.000520562
-0.000217525
-0.000303037
-5.75288e-07
-1.07337e-05
1.13081e-05
-2.23099e-05
6.75844e-06
1.55512e-05
6.15128e-05
-4.47835e-05
4.85117e-05
-3.72843e-06
-0.000230399
0.000353372
2.84965e-05
4.73068e-05
-7.58034e-05
-4.16164e-05
2.64719e-05
-3.03694e-05
3.26205e-05
-2.25116e-06
0.000139793
-3.43493e-05
3.38205e-05
-5.46771e-05
5.51435e-06
8.16268e-07
0.000109754
-7.523e-05
-3.45244e-05
4.82544e-05
-6.21359e-05
1.3881e-05
1.03137e-05
2.53023e-05
-3.56154e-05
-1.16742e-05
-4.23952e-05
5.40692e-05
2.47575e-05
0.000115035
3.87546e-05
9.29437e-06
-4.80456e-05
8.03435e-05
-0.000254504
0.000174161
0.000111033
-4.32806e-05
-6.77566e-05
-0.000153406
0.000310401
-0.000156993
-2.69037e-05
-3.39052e-05
6.08089e-05
-1.06695e-05
2.11393e-05
-1.04704e-05
-3.02771e-05
5.34941e-05
-2.3217e-05
-3.31155e-05
-2.96935e-05
-4.54404e-05
3.03451e-05
1.50941e-05
-2.42008e-05
7.70674e-07
2.34299e-05
-0.000276557
-1.65459e-06
0.000278212
4.29891e-05
-7.49557e-05
3.19652e-05
6.52819e-05
-0.000121918
2.1678e-05
2.24383e-05
3.51823e-05
-5.69243e-05
2.17419e-05
-0.000140537
-5.23462e-05
0.000192883
-0.00010592
-0.000377391
-0.000153747
-5.27982e-05
0.000206545
-7.87078e-05
-0.00019785
-1.62502e-05
5.55662e-05
-3.93159e-05
-4.6485e-05
3.14843e-05
1.50031e-05
-1.40372e-05
2.12112e-05
-7.17469e-06
-3.4663e-07
-4.07539e-05
4.10994e-05
0.000159724
-0.000117894
-4.18299e-05
-5.73943e-05
1.71281e-05
4.02661e-05
-1.10521e-06
1.20551e-06
-0.000278017
5.90182e-05
-5.75575e-06
-0.00022905
0.000234806
-5.64101e-05
2.98698e-05
-1.48203e-05
3.41568e-06
1.14042e-05
-5.89886e-05
4.73141e-05
-1.54374e-05
4.24038e-05
-2.69669e-05
-1.28218e-05
-1.99872e-06
-1.95757e-06
6.49036e-06
-4.53352e-06
-8.64332e-06
-0.00024782
0.000226902
2.09178e-05
-6.3558e-05
4.73079e-05
3.88942e-05
-2.75378e-05
1.11677e-06
9.65165e-08
7.67685e-05
-9.72015e-06
-6.70258e-05
-0.000157152
0.000107283
1.66569e-05
-5.6409e-05
2.10684e-05
-4.79716e-05
6.26724e-05
-1.06648e-06
-4.32892e-05
-1.41051e-05
0.000105273
0.000369848
-0.000475123
1.51967e-05
1.41948e-05
-2.93922e-05
5.26434e-05
1.58132e-05
-6.84561e-05
-1.70831e-05
-3.65081e-05
5.3592e-05
1.07514e-05
-6.93311e-07
-0.000102135
-0.000314128
0.000416263
-1.99454e-05
6.86534e-05
-4.8709e-05
6.08259e-05
-2.75486e-05
1.50782e-05
1.39229e-05
-2.90015e-05
4.81157e-05
-5.96751e-05
1.15594e-05
5.57956e-05
7.37742e-05
-0.000129568
-2.18114e-05
-2.46723e-05
-0.000225456
-2.20828e-05
0.000247541
-3.5503e-05
-1.66257e-05
5.21286e-05
5.37053e-05
-3.59652e-05
-1.77406e-05
-2.34279e-06
3.20052e-05
-2.96624e-05
-5.27904e-05
-1.00007e-05
0.000110633
-0.000144923
3.42893e-05
-3.46158e-05
4.86173e-05
0.000138527
-6.17574e-05
3.22962e-05
2.67451e-05
-5.90416e-05
-3.42371e-05
5.62002e-05
-2.1961e-05
-1.00236e-05
1.11386e-05
-1.11529e-06
0.000242624
-0.00016228
8.23253e-05
-0.000236072
-0.00028097
0.000127564
-1.7677e-05
-2.77638e-05
-0.000141539
0.000124384
1.71609e-05
-2.01778e-05
4.2992e-05
-2.2814e-05
-5.10401e-05
2.07634e-05
6.57856e-05
-5.57565e-05
-1.00296e-05
-9.96625e-05
6.18817e-05
3.77797e-05
-0.000213742
0.000212776
9.65892e-07
1.06388e-05
3.02223e-05
-4.0861e-05
-0.000482331
0.000167029
0.000315301
-1.37414e-05
-3.76171e-05
5.13588e-05
-0.00017322
-7.46001e-05
-3.93671e-05
3.90205e-05
-0.000473143
0.000371008
3.68752e-06
3.26864e-05
-3.63739e-05
6.22537e-05
-1.39996e-05
2.41938e-05
2.94121e-05
3.02643e-05
-1.50681e-05
-3.94562e-05
9.08668e-06
4.55665e-05
-4.94286e-05
3.86212e-06
7.88898e-05
-0.00042767
-0.00012446
6.98967e-05
5.45614e-05
-3.6815e-05
3.44707e-05
4.04271e-05
-3.85922e-05
-1.83529e-06
-0.000162894
-6.55875e-05
0.000228483
-0.000386348
0.000598646
-0.000212296
-3.32517e-05
6.17481e-05
-8.75877e-05
-2.11116e-05
0.000108699
4.6768e-06
4.57082e-05
-5.03859e-05
-5.26691e-05
4.99424e-05
2.72795e-06
-2.95177e-05
4.49682e-05
1.86198e-05
-1.86202e-05
-2.05321e-05
3.08458e-05
-3.19182e-05
-4.12836e-05
7.32005e-05
-0.000253676
0.00028656
-3.28841e-05
-6.30967e-05
7.04424e-05
-7.34747e-06
-8.8561e-06
-7.45454e-06
0.000168879
-4.70501e-05
-0.000121825
0.000132365
-7.65691e-05
0.000109414
-0.000147538
-0.000231359
-0.000152562
0.000383921
-3.94009e-06
-1.09742e-05
-4.87541e-05
3.02453e-05
3.39934e-05
7.7037e-05
0.000408538
-4.84408e-06
-0.000403696
-1.91127e-05
7.17561e-05
0.00016666
9.49445e-05
-0.000261605
-0.000127342
2.37506e-05
0.000103591
-0.000312605
0.000149712
-2.17784e-05
-2.42253e-06
-4.88837e-05
6.04655e-05
-1.15822e-05
0.000106454
-1.62922e-05
-9.01688e-05
-0.000154968
-0.000104556
0.000259524
-2.40224e-05
2.04106e-05
3.6112e-06
0.000183971
-0.000347301
-3.72965e-05
4.09841e-05
8.26468e-06
-1.79926e-05
9.7254e-06
-4.38048e-06
-1.07581e-05
0.000220963
4.40665e-05
-0.00026503
-0.000209108
-3.19984e-05
0.000241107
-7.07895e-09
4.56142e-05
-0.000153514
0.000113895
3.96162e-05
2.37015e-05
3.00034e-05
-2.63031e-05
4.52452e-06
-0.000429172
0.000271201
-2.93595e-05
-0.000184382
-3.06449e-06
4.34913e-05
-0.000151112
0.000226568
-7.54571e-05
-0.000132458
5.11644e-06
-1.94252e-05
1.68565e-05
2.56814e-06
4.09557e-05
1.53133e-05
1.20745e-05
9.76798e-05
-2.83895e-05
-2.68532e-05
5.52419e-05
-1.04663e-05
4.42503e-07
-1.58709e-05
1.33968e-05
2.47387e-06
-0.000544
3.54201e-05
-0.000302123
0.000184094
0.00011803
-2.13093e-07
8.9846e-08
1.22692e-07
0.000402552
0.00013053
-0.000533083
-7.10573e-05
-1.65971e-05
8.76536e-05
1.15275e-05
-4.57638e-05
-6.03261e-05
1.60974e-05
4.42282e-05
1.93839e-06
9.19994e-06
5.21585e-05
1.83417e-05
-7.05002e-05
-5.6531e-05
7.73777e-05
-2.0847e-05
-2.5277e-05
3.19069e-06
2.20847e-05
9.78162e-05
-5.71958e-05
-4.062e-05
-6.00153e-05
4.80644e-05
1.1952e-05
-4.44427e-05
2.90049e-05
9.67439e-06
-4.40564e-05
-0.000206853
4.55697e-05
0.000161285
-1.14348e-05
0.000377103
-0.000365669
-4.21419e-06
-0.000221241
5.06599e-05
-5.09349e-06
2.43523e-05
3.46736e-05
3.24842e-07
-4.26051e-07
1.00708e-07
0.00019679
-0.000202546
-1.93653e-05
7.98704e-05
-6.05022e-05
-0.000692691
0.000342
0.000350693
-1.82185e-05
-8.08493e-06
5.42411e-05
0.000208572
-0.000262814
0.000271301
-0.00028431
1.30091e-05
0.000146365
-3.57326e-05
0.000325376
0.000195186
0.000167795
7.35318e-06
-2.03718e-05
1.05803e-05
-1.45898e-05
4.00897e-06
-8.12251e-05
2.57329e-05
5.54914e-05
8.11497e-05
-0.000227003
0.000145854
0.000244984
-0.000139915
-0.000105067
-4.55389e-05
4.16951e-05
0.000159567
-0.000390925
0.000101615
-0.000132814
-3.55039e-06
-2.79669e-06
6.34662e-06
-0.000491976
0.000379331
0.000112635
-1.38605e-05
2.61948e-05
-1.23344e-05
-0.000266788
-0.000215543
-5.98799e-05
-3.21688e-06
-6.26269e-08
-1.5083e-07
2.9966e-05
2.35887e-05
-5.35546e-05
1.90541e-05
-5.45572e-05
2.88712e-05
2.733e-05
0.000446975
-4.44231e-05
8.23497e-06
3.94076e-05
-4.76425e-05
1.69477e-05
1.02333e-05
-2.71808e-05
-0.000106081
0.000237041
-0.000130937
-0.000217174
6.6063e-05
3.24912e-05
-5.18566e-05
-1.46934e-05
-9.32929e-06
-0.000212115
7.51362e-05
0.000136978
-5.40258e-05
6.35137e-05
-9.4886e-06
-7.92778e-06
2.48762e-05
-2.07383e-05
6.70059e-06
4.14952e-05
-6.14405e-05
-8.23261e-06
1.16324e-05
-3.40008e-06
2.73927e-05
-1.91303e-05
-4.32943e-05
-1.70321e-05
-4.07006e-05
2.05227e-05
4.28475e-05
0.000126034
-2.99812e-05
-1.50376e-05
4.50197e-05
-7.48785e-07
-2.30579e-05
2.38072e-05
3.92857e-05
-5.30271e-05
-1.73748e-06
-6.03992e-05
-3.68973e-05
1.48583e-05
2.20386e-05
4.1619e-05
-3.19443e-05
-9.74396e-05
0.000177319
-7.98792e-05
-0.000325854
0.000285496
4.03582e-05
1.27369e-05
8.47392e-06
-8.76567e-06
1.40752e-05
-5.31003e-06
-0.000324401
-0.000167582
-1.01939e-05
-2.55279e-05
3.57216e-05
5.58471e-05
0.00011989
-1.95498e-05
-1.73476e-05
0.000236941
-1.59785e-05
-1.55309e-05
-3.34387e-05
4.89649e-05
0.00013253
-3.80442e-05
-9.44853e-05
7.36218e-05
-7.84593e-05
4.83237e-06
3.57423e-05
-3.92475e-05
3.50414e-06
6.65637e-05
-3.42688e-05
0.000193696
-5.51612e-05
-2.10463e-05
-2.75622e-05
4.86084e-05
4.73531e-05
-1.73871e-05
-0.000184976
-0.000117146
2.55709e-05
4.92902e-05
-7.48631e-05
5.12194e-05
-5.26755e-05
1.45582e-06
1.45903e-05
0.000269455
-0.000284045
-1.77807e-05
-3.48879e-05
1.92069e-05
0.000252094
-3.29887e-05
-2.54719e-05
5.84605e-05
-0.000186595
2.1861e-05
0.000164733
-5.0958e-05
1.32398e-06
4.96335e-05
8.25946e-05
-9.6354e-06
-7.29596e-05
-6.0322e-05
3.92756e-05
7.78102e-05
-6.75474e-05
-1.02626e-05
6.48246e-05
1.29859e-05
8.02526e-05
0.000159463
-1.93389e-06
-1.98768e-05
2.18099e-05
5.54238e-05
1.03615e-05
6.20224e-05
-0.000202559
3.79631e-05
1.11004e-05
-4.90632e-05
3.18243e-05
1.50121e-05
-4.68369e-05
0.000334974
-0.000299815
-7.55289e-05
4.36098e-05
-2.58984e-05
-1.49781e-05
4.08763e-05
-0.000496442
0.0001101
-5.61188e-05
2.72304e-06
-1.61198e-05
1.69467e-06
1.44246e-05
0.000154417
5.30727e-06
-0.000486043
0.000546912
-6.08694e-05
-2.73878e-05
1.35273e-05
2.70528e-05
-4.93228e-06
-2.21208e-05
-5.46543e-05
6.28581e-07
2.32356e-05
-8.15762e-06
0.00011389
-0.000219971
9.07907e-05
-0.000458172
0.000367381
4.62233e-05
-5.40507e-05
7.83478e-06
-0.000162457
6.50179e-05
-1.23866e-05
-4.36308e-06
1.67493e-05
5.24593e-05
4.53574e-05
-3.63569e-05
3.86723e-05
-2.31335e-06
2.15444e-05
-8.44931e-05
6.29478e-05
0.000194421
0.000224786
-0.000143637
-0.000210763
3.96376e-06
-1.64085e-05
1.24442e-05
-0.00030865
-0.000384039
2.97265e-05
-2.41998e-05
-5.52688e-06
-0.000130622
0.000314592
9.95865e-06
-3.63133e-05
3.90242e-05
-3.28235e-06
-0.000100842
2.97841e-05
7.76235e-05
-7.51191e-05
-2.50491e-06
-2.21437e-05
-7.24282e-06
2.93866e-05
0.000111321
-7.73324e-05
2.3623e-05
3.86308e-05
0.000107624
-4.52064e-05
-6.24164e-05
7.18222e-06
-3.828e-05
3.1098e-05
2.87118e-05
5.38824e-05
-0.000223517
6.85489e-05
-1.46968e-05
6.68554e-05
-1.03847e-05
-4.53539e-05
-2.07191e-06
-1.37993e-05
-6.79032e-05
3.95132e-05
0.000140657
-0.000301163
0.000160505
-5.81297e-05
4.74332e-05
1.06964e-05
-0.000187389
0.000381099
-2.77022e-05
1.79877e-05
9.71453e-06
-0.000292655
0.00013409
0.000158569
-4.30112e-05
2.7479e-05
1.14697e-05
-1.34045e-05
-4.64311e-05
8.02176e-06
3.84096e-05
-0.000279366
-0.000193867
0.000473235
-3.18729e-06
-4.32438e-05
-0.000449835
0.0004384
4.2329e-05
-1.59748e-05
-2.63532e-05
-0.000144777
-6.9601e-05
0.000214377
5.96332e-05
-5.00826e-05
-9.55198e-06
4.18363e-06
4.70358e-05
-2.27396e-07
-4.86564e-05
3.20708e-05
1.99289e-05
2.36904e-06
-2.22984e-05
-3.25403e-05
-2.02959e-05
5.82592e-05
1.4878e-05
-1.20759e-05
-2.80212e-06
3.54283e-05
-2.52184e-05
4.39639e-07
-1.14967e-07
-9.66862e-06
1.94756e-05
-9.8077e-06
1.71102e-05
1.26162e-05
-5.86514e-05
0.000172544
-3.509e-06
2.93347e-06
-0.000110484
-7.61104e-05
-0.000226136
0.000544855
-0.000318718
6.76724e-06
1.47062e-05
-2.14743e-05
1.45726e-05
-0.000102161
-0.000201638
-0.000122037
0.000323674
-0.000186797
-7.04878e-05
0.000257285
8.66794e-05
-6.51329e-05
-1.99495e-05
7.56229e-06
-0.000157877
0.000109757
4.80974e-05
1.22272e-05
-7.19998e-05
4.37923e-05
-5.66259e-05
1.28331e-05
-3.6175e-05
4.08509e-05
-0.000382352
0.00023571
0.000172827
-0.000716136
0.000490002
-2.65486e-05
5.19545e-05
-2.54056e-05
0.000115383
-0.000111923
-3.46072e-06
3.53196e-05
-6.83078e-05
5.24611e-05
5.11892e-05
6.77095e-05
3.99137e-05
3.16206e-05
-3.99644e-05
8.34358e-06
-0.000134042
-0.000309854
0.000443897
-1.74165e-05
3.90944e-05
-1.02935e-05
2.06068e-06
0.000201038
-0.000145192
-0.000251762
7.8542e-05
-0.000143941
-0.000107822
8.34369e-05
1.38094e-05
-9.72465e-05
1.62041e-05
-9.43493e-06
-0.000288382
0.000302973
-8.45862e-05
0.000275171
-0.000190584
0.000151589
5.59772e-05
-0.000207566
-3.18058e-06
8.50591e-06
-5.32573e-06
-9.13781e-05
2.81426e-05
6.32318e-05
3.84485e-05
-6.82793e-06
3.87502e-05
1.31593e-05
-5.19096e-05
0.000197354
-0.000352675
0.000155318
-2.61587e-05
1.55835e-06
-6.55513e-08
-1.49327e-06
2.20191e-05
-2.39972e-05
1.9782e-06
3.30156e-05
-8.77922e-05
5.47799e-05
0.000253342
-0.000141977
-0.000111363
1.56427e-05
4.286e-06
0.000216801
7.85548e-06
-0.000224656
1.05607e-05
1.25471e-05
-2.31066e-05
0.000113451
-6.43805e-07
-0.000112807
6.32717e-05
-7.33209e-05
1.00479e-05
-3.51238e-06
-4.87729e-05
-9.3568e-06
1.4689e-05
3.93047e-06
-5.47083e-05
1.9179e-06
1.67326e-05
-1.2769e-05
-7.48947e-05
-0.000442351
0.00051725
1.78619e-07
4.60507e-05
-4.24542e-05
5.0689e-05
4.52472e-05
-6.85914e-05
2.33439e-05
-1.0842e-05
4.90799e-05
8.80865e-05
0.000154538
-0.000260838
0.000176251
1.72145e-05
5.14382e-05
-0.000355756
0.000210977
0.000457001
-0.000351729
0.000211114
5.68688e-06
7.598e-06
-1.17737e-05
4.17522e-06
0.000158238
-0.00016275
4.51802e-06
-0.000119581
6.10374e-06
0.000113478
-0.000297385
-6.60492e-05
0.000363435
8.75897e-06
6.58797e-05
-0.000137753
7.1874e-05
0.000142079
-2.34409e-05
-0.000118636
-9.41927e-06
1.14153e-05
-1.997e-06
-6.03962e-05
-0.000176423
0.000236834
7.14506e-05
-3.06426e-05
-4.0808e-05
-7.78352e-07
1.29277e-05
-1.21498e-05
-4.76399e-05
-7.06865e-06
-3.50421e-05
3.40918e-06
3.16321e-05
7.74276e-05
0.000175914
0.000133047
-0.000211754
2.58886e-05
-3.60826e-05
-5.96498e-06
2.41431e-06
-3.63568e-05
-0.000437924
0.000474279
-0.000244155
5.73541e-05
-1.76669e-07
-2.49775e-07
-3.12183e-05
9.44893e-05
-2.83138e-05
-6.57151e-06
3.48853e-05
7.35396e-05
2.30016e-05
-9.65421e-05
-2.55402e-05
3.80663e-05
-1.25262e-05
-0.000219996
0.000166198
5.37986e-05
0.000427264
-0.000161313
-0.000265951
-4.95024e-06
5.30659e-05
4.32204e-05
-4.42798e-05
1.05568e-06
0.000167162
-0.000368801
-5.88077e-05
-6.56532e-05
-5.70015e-05
5.92132e-05
-2.21122e-06
3.18881e-07
1.20486e-07
3.25455e-05
8.26159e-05
-0.000115162
-4.01155e-05
0.00057475
-0.000261352
-0.000313387
-1.03472e-05
9.56877e-06
-3.42278e-05
8.15346e-05
0.000122721
-4.46673e-05
-7.80535e-05
-0.000124878
9.40301e-05
3.08502e-05
2.10265e-05
6.02619e-06
-1.15534e-05
4.03838e-05
-2.88306e-05
2.44622e-05
-0.000135092
-0.000157565
3.07729e-06
-1.51918e-06
-2.47651e-05
1.98326e-05
1.50784e-05
-8.91055e-06
-6.1682e-06
8.10955e-06
6.96866e-06
-0.000143146
0.000197387
0.000293093
-9.57438e-05
-3.81972e-05
3.70927e-05
8.58833e-05
-0.00012298
1.30809e-05
-2.50087e-06
4.75892e-06
-1.54287e-05
0.000109188
6.19509e-06
-0.000190611
0.000193959
-3.34955e-06
3.94264e-05
-3.84039e-05
-1.02482e-06
1.59149e-05
2.70772e-05
1.72121e-05
-2.33471e-06
-2.73347e-05
2.87741e-05
-1.43957e-06
0.000250347
1.82496e-05
-5.15013e-05
-2.40276e-05
3.03635e-05
-6.3357e-06
2.41641e-05
-2.78695e-05
3.70566e-06
-0.00044269
-0.000125806
6.22643e-06
7.61399e-06
6.60064e-05
-5.17641e-05
2.99112e-06
-1.80474e-05
4.32175e-05
-2.51702e-05
3.40496e-05
-5.40999e-05
2.00503e-05
8.69271e-06
0.000133389
7.27372e-05
-4.71672e-05
0.000106988
-1.48613e-05
-0.000143016
-0.000123403
-2.61109e-05
0.000149515
-0.00036819
0.000215629
-4.42726e-05
4.25351e-05
2.2249e-05
-1.23186e-05
-9.93109e-06
-9.76489e-05
4.11177e-05
-6.3316e-08
4.98812e-05
-1.8057e-05
-2.26707e-05
5.33456e-05
-3.06739e-05
-0.000197983
0.00013759
6.37564e-05
-3.11244e-06
-6.06436e-05
1.31758e-06
1.05443e-05
-1.18623e-05
-2.66786e-05
0.00014013
-4.62289e-05
1.9863e-05
2.63652e-05
2.5509e-05
7.18632e-06
-3.26937e-05
4.06057e-06
-0.000127464
4.61248e-05
5.27222e-06
-5.1397e-05
9.87047e-05
-6.56897e-05
2.25963e-05
-4.47401e-05
7.43477e-05
-4.18551e-05
0.000105851
0.00012625
-0.000173151
4.69019e-05
2.94802e-05
-4.68969e-05
-2.98972e-05
4.62116e-05
-1.63149e-05
-3.25932e-05
0.000118473
0.000129814
9.49717e-05
-0.000222667
0.000222667
6.94504e-05
-0.000112732
1.6168e-06
8.182e-05
-2.70067e-05
-3.23796e-05
4.80724e-05
-3.4794e-05
-1.32788e-05
-5.14488e-05
-3.15364e-07
-6.04435e-05
2.58252e-05
3.46185e-05
-5.01989e-05
4.16945e-05
0.000106486
-3.53285e-08
-3.89467e-05
0.000178721
-5.2472e-05
-1.05085e-05
-4.6493e-05
1.48916e-05
-4.78677e-05
3.29758e-05
-0.000154209
0.000242296
0.00020274
0.000224523
2.81859e-05
2.09196e-05
-4.91056e-05
-3.9734e-05
7.3688e-05
-3.39536e-05
-4.99611e-05
1.87276e-05
3.12322e-05
-0.000337855
2.52169e-05
0.000312639
0.000412254
-0.000125219
-0.000287035
-0.000113158
0.00012341
-1.02531e-05
-6.36172e-06
4.40376e-06
0.000173303
-1.88864e-05
-0.000154266
-1.23685e-05
1.36858e-05
3.19219e-05
-4.48846e-05
1.29618e-05
7.8515e-05
-0.000178552
0.000100037
-2.87316e-05
5.60405e-05
-3.14388e-05
-8.15402e-06
0.000469237
-0.000374439
-9.47974e-05
-6.33854e-06
0.000164576
0.00012351
-2.5108e-05
-9.83992e-05
6.03919e-05
1.39571e-05
3.57795e-05
-4.37673e-05
7.9873e-06
0.000183383
-3.17934e-05
-9.87166e-06
-5.94858e-07
-3.3026e-05
8.99882e-06
-0.000152308
-5.98077e-05
-9.53978e-05
-0.000242456
4.86239e-05
-5.06716e-05
2.04697e-06
-3.03531e-06
3.88145e-05
4.33703e-05
-3.27316e-05
-3.1989e-06
2.73631e-05
0.000129493
-2.78776e-05
7.19704e-08
-0.000263485
-1.74832e-05
3.43059e-05
1.37664e-05
-0.000102461
-0.000253294
9.50268e-05
-3.91477e-05
1.36075e-05
-5.76566e-05
-9.5861e-05
-4.44529e-05
-0.000219032
0.000236348
-0.000525208
0.000288861
-1.9976e-05
2.72775e-05
-7.30211e-06
-0.000148225
0.000137165
1.10608e-05
1.06047e-05
4.70884e-05
-4.75802e-06
5.43419e-05
1.2317e-05
6.62838e-05
-2.52726e-06
-4.38548e-05
1.39567e-05
-9.1613e-06
1.31527e-05
-3.99179e-06
1.25131e-05
-5.39376e-06
-7.12023e-06
1.59938e-05
2.64098e-05
-8.30011e-05
1.67635e-05
6.62385e-05
1.54824e-05
4.45116e-05
1.47655e-05
-0.000101687
8.68969e-05
-3.42188e-05
4.14006e-05
-0.000114504
-2.70354e-05
-2.13058e-07
-1.59072e-05
0.00014782
-2.88089e-05
-0.000119005
9.07069e-06
3.95525e-05
-0.000469635
-6.00048e-05
0.000529638
-2.20934e-05
-3.18449e-06
2.31291e-05
2.57881e-05
-4.89175e-05
-1.60927e-05
-8.6725e-06
-9.92764e-05
8.62393e-05
1.30415e-05
5.09021e-06
4.22995e-05
2.73761e-05
9.53453e-05
-1.17679e-05
1.03343e-06
-0.000139781
7.56674e-05
-9.03435e-05
1.46769e-05
-0.000158569
0.000323953
5.51973e-05
-6.6905e-05
1.17066e-05
-0.000176034
1.31075e-05
0.000162926
-4.88643e-06
-6.50912e-05
6.99782e-05
3.09095e-05
-4.2463e-05
0.000106399
-0.00019968
9.32807e-05
-0.000176337
-4.63306e-05
4.447e-05
1.26729e-06
-4.57374e-05
3.4474e-05
-5.71434e-05
-0.000188297
-0.000129387
0.000317683
-9.34186e-05
-1.9742e-05
0.000140924
0.00010406
-5.25423e-07
5.37997e-07
-1.32089e-08
2.30954e-05
2.01233e-05
-0.000116993
7.89483e-05
9.58564e-06
6.80369e-05
-0.000103696
5.84899e-05
-0.000178481
-2.83713e-05
7.74299e-06
4.77004e-06
-3.94356e-05
0.000142011
-0.000102575
7.61384e-05
4.38729e-06
1.95855e-05
-2.39743e-05
-4.32763e-05
7.06237e-05
-2.73478e-05
1.64471e-05
-8.122e-06
-8.32553e-06
-0.000235741
-9.01132e-05
1.19021e-06
-7.41275e-08
-5.1432e-05
2.4883e-05
-5.33028e-05
-4.63599e-05
2.55131e-05
2.2617e-05
-4.81307e-05
-0.00039666
0.000301262
1.25418e-05
-4.85075e-05
-2.25974e-05
4.73506e-05
7.5365e-06
5.79155e-05
1.21044e-06
-5.91258e-05
-1.03571e-05
-1.03816e-05
1.66053e-05
-7.54885e-06
-9.05657e-06
5.38878e-06
-1.24269e-05
7.03762e-06
8.03215e-05
-6.5516e-05
-1.48058e-05
2.81667e-06
-3.11308e-05
0.000102752
-9.2193e-05
5.24615e-05
-3.22204e-05
-2.02411e-05
-0.000168694
-2.19169e-05
-1.60778e-05
-2.54247e-06
-2.712e-05
1.21177e-06
-4.54847e-05
-5.60745e-05
3.42886e-05
2.17859e-05
-5.88762e-05
0.000312637
-0.000253761
9.10046e-05
7.5735e-05
-0.000166739
-2.0699e-05
-3.7878e-05
-2.87293e-06
-1.04078e-05
1.32813e-05
-0.000153612
9.49549e-05
-4.79487e-05
-2.72395e-06
0.000504462
-0.000268112
-9.30516e-05
0.000107811
8.0503e-05
-2.10954e-05
-5.94089e-05
-0.000152135
-0.000294247
0.000446384
-5.71844e-05
3.49552e-05
2.22291e-05
-0.000107978
-2.48347e-05
7.21331e-05
-8.73818e-05
1.52496e-05
-7.34206e-05
3.21362e-05
-5.08843e-05
3.0185e-05
3.32318e-05
1.68172e-05
-5.00498e-05
2.15454e-05
-4.71924e-05
2.56467e-05
2.61515e-05
-6.26585e-05
3.65063e-05
0.000196614
-0.000118099
2.15104e-05
2.58428e-05
-5.41647e-06
1.64806e-05
-1.1064e-05
1.15152e-06
-0.000100426
-1.92904e-05
5.44726e-05
-3.47512e-05
-2.49238e-05
-6.27357e-06
-1.29601e-05
1.92328e-05
4.31511e-06
0.000121238
-1.1683e-05
-0.000109559
2.05851e-05
1.92824e-05
-3.98677e-05
-4.96391e-05
-5.40564e-05
9.65249e-06
-1.25247e-05
2.04091e-05
9.72809e-06
-3.01366e-05
1.11505e-06
7.47475e-08
3.77016e-05
-3.25358e-05
-5.1659e-06
-1.25243e-05
1.3298e-05
-7.75914e-07
2.13886e-05
3.11352e-05
-5.25238e-05
1.56118e-05
-7.82509e-06
-7.78715e-06
-0.000176903
-4.30931e-05
0.00016746
1.32127e-05
-0.000180672
-1.16717e-05
5.17044e-05
7.09103e-06
-1.79371e-05
1.08456e-05
1.8403e-06
-2.09215e-06
2.51489e-07
3.99064e-05
1.39066e-05
-5.38117e-05
1.05069e-05
-2.90944e-06
2.17803e-05
4.0294e-05
-6.20744e-05
8.04774e-05
0.000229499
-0.000309979
8.67579e-05
-5.51321e-05
-3.16232e-05
-0.000362784
0.00023216
7.68203e-05
0.000114916
9.70277e-06
-0.00012462
1.07175e-05
1.82337e-05
-2.89524e-05
-1.26073e-06
7.74802e-07
4.8598e-07
1.32616e-05
-5.15238e-06
-4.53593e-05
1.53782e-05
2.82218e-05
-3.69435e-05
8.72096e-06
1.18707e-07
1.72148e-06
0.00026345
-0.000359352
9.59036e-05
-1.69593e-05
3.83479e-05
-6.16933e-06
-3.01857e-05
6.56976e-05
-6.0387e-05
-5.31089e-06
3.95784e-05
4.71796e-05
-0.000329317
0.000170748
-4.51375e-06
-1.11257e-05
1.56389e-05
2.54174e-07
-2.54557e-07
0.000172249
-4.04467e-06
-7.36094e-06
1.14061e-05
-5.54705e-06
-4.58803e-05
5.14268e-05
-0.000128757
-0.000212855
0.000341604
4.1897e-05
-1.16748e-05
5.53681e-05
-5.09852e-05
-4.38309e-06
1.11957e-05
3.1927e-05
-4.3123e-05
3.44469e-08
-1.36247e-05
1.359e-05
7.23012e-06
-6.0475e-06
-1.18318e-06
-4.81484e-05
4.68307e-05
0.000222008
-0.000280884
5.83202e-05
-4.3322e-05
-1.49986e-05
-1.77141e-05
2.21013e-05
1.34431e-05
1.1455e-06
-7.58447e-05
0.000205658
-1.81762e-05
5.20506e-05
-5.24344e-05
3.83573e-07
-7.8821e-06
3.73623e-05
0.00032816
-0.000247682
-0.00015535
-0.000118081
0.000273431
0.000136848
3.65907e-05
-0.000173438
-3.44066e-06
4.95654e-05
5.87121e-05
-3.25612e-05
-8.44201e-06
-1.09834e-05
6.15739e-06
1.07263e-06
0.000148354
-8.24745e-05
1.50257e-05
0.000286178
-0.000434075
0.000147901
-5.30328e-05
2.75606e-05
0.000371235
-0.00010178
-3.3719e-05
-2.04341e-06
3.57634e-05
-4.38235e-05
-6.78019e-06
5.06042e-05
-0.000130028
0.000145102
-1.50731e-05
-1.51176e-05
-1.25841e-05
2.32544e-05
4.81963e-05
-3.57986e-06
-4.05641e-05
4.41439e-05
1.18313e-05
-1.82059e-07
-1.16496e-05
-2.12187e-05
-3.57057e-05
-2.08916e-05
4.97623e-05
4.03295e-05
-2.76897e-05
-1.26401e-05
-0.00017693
-0.000219729
5.70648e-05
0.000308489
-0.000365554
6.90783e-05
7.55543e-06
-9.53869e-06
6.64066e-06
2.89751e-06
0.000307714
-0.000304099
-3.61347e-06
-0.00010474
4.64027e-07
-1.454e-07
-0.000214317
-6.95868e-05
0.000283905
-4.142e-06
-5.39643e-06
-5.51163e-05
-2.30879e-05
-9.07595e-06
3.21635e-05
8.06436e-06
7.52708e-06
-1.55923e-05
0.000158
-3.45284e-05
9.86817e-06
2.46596e-05
0.000257948
-0.000642305
2.06866e-05
2.34585e-05
-4.41455e-05
-1.09699e-06
3.70584e-08
1.05915e-06
7.60257e-06
-5.66054e-06
-1.94295e-06
-2.34083e-05
1.42883e-05
9.12136e-06
3.08774e-05
-3.0448e-05
-4.29591e-07
1.79135e-05
-6.11918e-05
-2.56838e-05
5.44599e-05
-2.87771e-05
2.12852e-05
-1.94882e-05
-1.79821e-06
1.02763e-05
1.02389e-05
-2.05156e-05
-0.000216015
0.000232759
-1.67445e-05
3.85128e-05
-0.00035264
2.05359e-05
0.000102975
-3.18808e-05
-5.69608e-05
-4.79142e-05
0.000104874
1.06325e-05
-4.43802e-05
3.37462e-05
1.81153e-05
1.51575e-05
-3.32733e-05
-1.16058e-05
-4.04211e-05
0.000141959
7.47383e-05
5.58293e-06
5.8635e-05
-5.34411e-06
-5.32906e-05
-3.2695e-05
-1.15853e-05
0.000186933
-9.59288e-05
-2.31832e-05
-2.71485e-05
5.033e-05
0.000118778
-0.000140994
2.22165e-05
1.7755e-08
-4.17778e-05
-1.80467e-05
0.000303542
-7.38648e-05
4.86754e-05
2.51867e-05
-2.76375e-05
-1.39792e-05
7.89542e-05
-7.78787e-05
-1.0757e-06
-3.98891e-05
-1.46089e-06
4.13487e-05
3.28055e-05
-1.92827e-06
1.71414e-06
7.04231e-05
1.04194e-05
2.84195e-06
-2.25888e-05
-1.19398e-05
1.5556e-05
-8.46531e-06
-1.62583e-05
0.00022483
-2.55e-06
-9.97779e-06
2.11104e-05
3.23099e-05
-0.000428057
-2.62642e-06
6.01059e-05
-5.74796e-05
0.000113204
-3.9664e-05
2.5419e-05
3.14885e-05
1.70667e-05
-1.34665e-05
-3.60049e-06
-2.85608e-05
-2.368e-05
5.22422e-05
-2.63214e-05
2.87911e-05
-2.46958e-06
-4.36787e-05
1.62075e-05
-1.84451e-05
2.23773e-06
-8.08709e-07
-5.26626e-05
5.0185e-05
2.47715e-06
0.000242127
2.70575e-06
-0.000154562
-0.0003704
0.000487952
-0.000117552
0.000316215
-0.00025831
-5.79079e-05
5.1969e-05
-2.88402e-05
-0.000471154
-1.4889e-05
2.00338e-05
-5.68995e-05
3.68657e-05
6.28879e-06
3.53302e-05
1.87393e-05
0.000154563
-0.000155226
8.64026e-05
7.17058e-05
-5.16723e-05
-0.000131422
0.000290436
-0.000159014
-0.000203051
-1.29632e-05
2.65798e-05
-1.06988e-06
7.73078e-05
7.05123e-05
1.09971e-05
2.93866e-05
0.000251712
-4.708e-05
-2.67871e-05
0.000233355
-9.2698e-05
-1.04171e-06
-9.30549e-06
-1.04339e-05
3.57366e-05
1.12033e-05
4.08473e-05
4.04212e-06
5.4035e-05
-4.86393e-05
-5.397e-06
-1.01325e-05
-3.73885e-05
4.7521e-05
0.0001664
-0.000280825
0.000114425
2.33389e-05
-3.37721e-05
5.40044e-06
-3.41668e-05
2.87669e-05
-7.32561e-06
4.13123e-05
-3.39848e-05
-2.2065e-05
-5.07132e-05
7.27775e-05
-9.49924e-06
-1.39066e-05
5.02044e-05
-7.47983e-06
-3.27167e-05
4.0196e-05
1.73703e-05
-3.55854e-05
1.82149e-05
1.01973e-05
4.22637e-05
1.49636e-05
3.52414e-05
-1.71288e-05
-4.04149e-05
5.75423e-05
5.35802e-05
-5.6207e-05
0.000387874
-0.000330809
-0.000115744
-1.42837e-05
-4.09795e-05
2.27801e-07
8.74866e-06
-3.1837e-05
5.28799e-05
-0.000111689
-2.47129e-05
-2.15173e-05
-6.40872e-05
-1.01497e-05
7.42366e-05
0.000154935
0.000226392
-4.7792e-05
-0.000178601
1.25384e-05
3.04971e-05
-1.97801e-05
-4.07535e-07
-3.33111e-05
-2.3511e-06
6.17543e-06
1.96541e-05
3.97675e-06
-7.15744e-06
4.36026e-05
-9.55315e-06
-3.07607e-05
-2.64239e-05
-7.21924e-05
3.31774e-05
3.90147e-05
-0.000260851
2.62497e-05
0.000234602
4.24866e-05
-2.13768e-05
2.99281e-06
0.000262856
-0.000215215
-4.76406e-05
3.67078e-05
2.97962e-05
3.18868e-05
-6.16832e-05
-0.000126097
3.62962e-05
8.98012e-05
-1.9926e-05
-2.07747e-05
-5.23659e-05
4.68184e-05
-3.07208e-05
-2.36777e-05
5.43981e-05
-7.26538e-06
5.25128e-05
-2.9937e-06
3.96681e-06
-2.39432e-05
0.000141364
7.31782e-05
-0.000214543
-0.000344878
-0.000126272
5.85582e-05
0.000315053
-0.000373614
-0.000116138
-5.78434e-05
0.000173984
-0.000450097
0.000110425
-2.19066e-05
-6.81585e-06
2.87223e-05
0.000150808
-2.01479e-05
-0.000130652
-3.69866e-05
6.67831e-05
-2.24273e-06
1.51541e-05
-1.29118e-05
-7.05893e-05
3.08554e-05
-0.00052022
0.000445328
-4.51368e-05
0.000181985
-8.93411e-06
-7.31373e-06
1.62474e-05
5.49941e-06
2.10349e-06
-4.53255e-05
4.17455e-05
-0.000343647
5.9127e-06
-3.78187e-05
-1.19312e-05
4.97497e-05
-1.40563e-05
1.00121e-05
-4.53126e-05
1.9414e-05
0.000135947
1.55835e-06
1.5508e-05
4.83141e-06
-7.98234e-05
3.77624e-07
7.94472e-05
0.000232413
-0.000144845
-8.75683e-05
-2.45161e-05
-1.99271e-05
7.88759e-05
-1.82858e-05
-6.05904e-05
4.0566e-05
-2.56745e-05
0.000189491
-2.32935e-05
0.000255223
7.63313e-06
-0.000149297
9.69506e-05
-0.000111623
5.46618e-05
-4.08931e-05
1.00378e-06
1.25285e-05
0.00016203
-0.000441394
6.10572e-06