/*--------------------------------*- C++ -*----------------------------------*\
| =========                 |                                                 |
| \\      /  F ield         | OpenFOAM: The Open Source CFD Toolbox           |
|  \\    /   O peration     | Version:  v2012                                 |
|   \\  /    A nd           | Website:  www.openfoam.com                      |
|    \\/     M anipulation  |                                                 |
\*---------------------------------------------------------------------------*/
FoamFile
{
    version     2.0;
    format      ascii;
    class       volScalarField;
    location    "300";
    object      k;
}
// * * * * * * * * * * * * * * * * * * * * * * * * * * * * * * * * * * * * * //

dimensions      [0 2 -2 0 0 0 0];


internalField   nonuniform List<scalar> 
13917
(
0.000165858
0.000148671
0.0586091
0.00015342
0.000148417
0.000196712
0.0573523
0.0605966
0.0785588
0.000174773
0.000209462
0.000185199
0.000153593
0.0165733
0.000154622
0.000153549
0.00014904
0.000176263
0.000184712
0.000148446
0.000149724
0.0570143
0.000148291
0.0574388
0.000147787
0.0533931
0.00016178
0.000164815
0.000213879
0.000186222
0.000167619
0.000157234
0.000160102
0.000153824
0.000147935
7.20407e-05
0.000148361
0.0460198
0.000156825
0.0188911
0.000146925
0.000149882
0.00014428
0.000169167
0.000148484
0.000155342
0.000175921
0.000184415
0.000395952
0.000147665
0.00015777
0.000149243
0.000459664
0.000154172
0.000149092
0.000157171
0.000208961
0.000148023
0.000154548
0.000148289
0.0829843
0.000148689
0.00809839
0.000148351
0.000195127
0.0276574
0.000148389
0.000148063
0.000211055
0.000163234
0.000148474
0.0776826
0.04394
0.00014781
0.000408154
0.000188914
0.0316876
0.000150612
0.0498796
0.000149475
0.000149207
0.000148444
0.00019307
0.0501875
0.0456742
0.000150384
0.000149004
0.0108267
0.000157406
0.000144226
0.0486038
0.000181286
0.000147183
0.000150568
0.0166845
0.000192225
0.000199955
0.000182006
0.000203108
0.000171385
0.000146092
0.000158428
0.000168994
0.000151691
0.000146077
0.0799315
0.000197862
0.000185496
0.000149075
0.000168853
0.0478246
0.0206463
0.000191354
0.0798485
0.000150521
0.000430341
0.000147678
0.000267638
0.0263605
0.000154135
0.000149783
0.00020949
0.0297595
0.00016411
0.000147396
0.000150267
0.000148277
0.000147464
0.000144402
0.000194908
0.042691
0.00015036
0.000148578
0.000149787
0.0059611
0.0561403
0.000166032
0.000172034
0.000148332
0.000153987
0.000122592
0.000146114
0.000149755
0.000171551
0.000148075
0.0688992
0.000217555
0.000149102
0.000145806
0.000157695
0.000179718
0.000436577
0.000191951
0.000164118
0.000156862
0.0238949
0.000162279
0.00466842
0.0259024
0.00692532
0.000152342
0.000162013
0.000149475
0.000198822
0.000190844
0.000202582
0.000151611
0.000180953
0.000147608
0.00015892
0.000164811
0.0256567
0.000193578
0.000149873
0.0523758
0.000165405
0.0451186
0.000310224
0.0636106
0.000147293
0.000182521
0.000168538
0.000146072
0.000148929
0.000157724
0.053163
0.000221313
0.0298538
0.000165776
0.000201296
8.66354e-05
0.0504683
0.000217378
0.000148374
0.000173127
0.000161405
0.000153858
0.00014727
0.000184343
0.00162687
0.00015742
0.000147789
0.000179003
0.000179436
0.0385241
0.00210631
0.000147935
0.000148104
0.000181561
0.0549587
0.000149538
0.0580836
0.0282965
0.000201392
0.000146116
0.000203548
0.000178272
0.0291799
0.000147388
0.0786582
0.000147227
0.000185227
0.000146758
0.0492309
0.0809063
0.000153903
0.000418322
0.000157236
0.000146148
9.69787e-05
0.00019293
0.000165558
0.0545474
0.0232629
0.000145717
0.00015774
0.0533928
0.0349764
0.000149409
0.000147146
0.0209124
0.00020363
0.00014972
0.000176734
0.000189885
0.000161679
0.000164472
0.000149408
0.000164654
0.0259991
0.00014827
0.000186974
0.000175123
0.000148164
0.000147977
0.000186034
0.0272814
0.00019032
0.000157932
0.000154804
0.000149758
0.0243423
0.0795048
9.03359e-05
0.000146189
0.0411837
0.025093
0.0121741
0.0491841
0.000190462
0.000149296
0.000147005
0.00017628
0.0429296
0.000197624
0.000154145
0.00316364
0.000173181
0.000144311
0.0561818
0.000148251
0.0554086
0.000156772
0.00014968
0.00015594
0.000164059
0.000162041
0.000158194
0.000159874
0.000148604
0.000189329
0.0537549
0.084222
0.000147391
0.0183627
0.000148934
0.000148604
0.000147728
0.000236976
0.00014837
0.00018723
0.000163754
0.000147488
0.000179277
0.000151133
0.000352577
0.000165054
0.000179806
0.000146726
0.000147916
0.044707
0.0282908
0.000147636
0.000146883
0.0521158
0.000147192
0.0474091
0.000146597
0.0522178
0.000150302
0.000226261
0.000164669
0.00044686
0.000151951
0.000380915
0.000187452
0.000155954
0.000203275
0.000205241
0.000148905
0.0431762
0.000172925
0.0288909
0.000152981
0.0199972
0.000158479
0.058256
0.000183552
0.000174826
0.000174173
0.0598602
0.000149309
0.000165434
0.0528303
0.000148653
0.000151531
0.0264529
0.000187843
0.00014973
0.000179052
0.000209876
0.000146412
0.0227895
7.65286e-05
0.000148197
0.000146756
0.000148996
0.000145767
0.000200453
0.0592255
0.000216305
0.0500561
0.00014776
0.0001895
0.00816685
0.000171643
0.057694
0.0478032
0.0807468
0.000145696
0.000131454
0.000146594
0.0703798
0.000148264
0.000463013
0.000189799
0.000155313
0.000149155
0.000180354
0.000184533
0.000183827
0.000639778
0.0532681
0.0226962
0.000165173
0.000173652
0.000147206
0.0383947
0.0554743
0.000148098
0.000235343
0.000147943
0.000231306
0.000150277
0.000149392
0.000151143
0.0450879
0.000151068
0.0305029
0.0107805
0.000205652
0.00019906
0.000148851
0.000199355
0.000195568
0.000147862
0.000189735
0.000148579
0.000147879
0.00018608
0.000149676
0.000147822
0.00014656
0.00024883
0.000149567
0.0231019
0.0462363
0.00518221
0.000214567
0.0366639
0.0295467
0.000171239
0.00014779
0.000205099
0.000156449
0.000158903
0.000148317
0.0657395
0.0559971
0.0443337
0.000153412
0.000193376
0.000152669
0.000157513
0.000183804
0.000150606
0.000125117
0.000149054
0.000148298
0.0524745
0.0435432
0.0455742
0.000185617
0.00347043
0.0472279
0.0565093
0.0309588
0.000144629
0.000178921
0.000150702
0.000148252
0.000420942
0.000176589
0.00014778
0.000178373
0.000169586
0.0294017
0.000147831
0.000198318
0.0145347
0.000251468
0.0280399
0.000149629
0.000148144
0.000153719
0.000162311
0.000145716
0.050617
0.00020559
0.000159837
0.0372959
0.000157115
0.00019946
0.0616017
0.000218954
0.000204551
0.000103152
0.000198335
0.000177156
0.000204536
0.00017269
0.000209104
0.0002126
0.000176518
0.000188679
0.000147278
0.00262787
0.000158614
0.000145461
0.000161373
0.000150915
0.0317881
0.0794947
0.000147109
0.000144532
0.0511234
0.0242771
0.000149678
0.022859
0.000151287
0.000203989
0.000147241
0.0361867
0.00265553
0.000157683
0.000149253
0.0398195
0.000212726
0.0123001
0.000149743
0.0292655
0.000353211
0.0550874
0.000145559
0.0413997
0.0854389
0.000171847
0.000146702
0.00014899
0.000188945
0.000242123
0.000147085
0.00014679
0.000147181
0.000147137
0.0359747
0.000663533
0.00017143
0.00021729
0.000147437
0.000146144
0.000192946
0.0767285
0.000163084
0.000147724
0.000147834
0.000148121
0.0612852
0.0555832
0.000148954
0.000148122
0.0001285
0.000172294
0.000164662
0.000148094
0.000151244
0.000156104
0.000188038
0.000198361
0.00022072
0.00020616
0.000192144
0.00190095
0.000179499
0.000147463
0.0303543
0.000148142
0.000151952
0.000154383
0.00268193
0.000171171
0.000146208
0.000255379
0.000189293
0.00784481
0.000192272
0.000160274
0.000171027
0.000149077
0.0850357
0.000229756
0.0603417
0.000148769
0.000160055
0.000221586
0.04999
0.00982681
0.000183075
0.000188759
0.000153392
0.000153028
0.000148121
0.000165707
0.000169932
0.000148707
0.000178042
0.00017409
0.0613737
0.014526
0.000152626
0.000198637
0.00175673
0.000157013
0.000149327
0.000453951
0.0747638
0.0696599
0.000216708
0.00014453
0.0255786
0.000188491
0.000146598
0.000161048
0.000187328
0.0001595
0.000186161
0.050486
0.000204007
0.000169262
0.0849872
0.000151549
0.0262113
0.000149482
0.000148898
0.020528
0.0762899
0.000211474
0.000151548
0.000149716
0.000148138
0.000173685
0.000451124
0.000200881
0.000153374
0.000202473
0.000179878
0.000147284
0.000383596
0.000200164
0.000109125
0.000147263
0.000203386
0.000150831
0.0140295
0.000175388
0.000170997
0.000160312
0.000146568
0.000145475
0.000148422
0.000175824
0.000155626
0.000239671
0.000541474
0.000180467
0.000146483
0.000202539
0.000212363
0.000352137
0.00014813
0.000155172
0.000146853
0.000161239
0.00015479
0.0846858
0.000149408
0.000610194
0.000160846
0.000209173
0.000180975
0.0434657
0.000171972
0.000148854
0.0404867
0.0108374
0.000148005
0.00015429
0.00468714
0.000210234
0.000197688
0.000149474
0.000149353
0.000209667
0.000155547
0.000183415
0.000184762
0.000145517
0.000179553
0.0584461
0.000148084
0.000151967
0.000147342
0.0264713
0.000149715
0.000153048
0.0277355
0.000151236
0.0722875
0.000156867
0.000160345
0.000147283
0.000166906
0.000147788
0.000176143
0.000146609
0.000174877
0.000151271
0.0179229
0.000330583
0.0766886
0.000152179
0.000149216
0.00017854
0.000170622
0.0315069
0.0798795
0.000175826
0.000147924
0.000246837
0.000211884
0.000109094
0.000220917
0.000175572
0.048526
0.000165244
0.000171848
0.000199551
0.000180701
0.00017543
0.000243697
0.000174799
0.00015316
0.000188806
0.000156092
0.000146387
0.00016098
0.000168969
0.000157083
0.000147851
0.000146984
0.000180245
0.000152294
0.000183571
0.000147927
0.000148048
0.000149778
0.000151031
0.00014401
0.000155047
0.000147505
0.0349393
0.000184745
0.00019101
0.000145892
0.000149561
0.000163834
0.000177511
0.000150049
0.0709176
0.000176542
0.052376
0.000160983
0.000196542
0.00014993
0.000149742
0.000146998
0.000151127
0.0194883
0.000149626
0.0115641
0.000155453
0.00989293
0.000165619
0.000177251
0.000208544
0.000145122
0.000149924
0.000185192
0.000148077
0.000149297
0.055121
0.000150059
0.000148999
0.000158016
0.000147086
0.000145068
0.000157236
0.000156234
0.026014
0.0001629
0.000148079
0.000146662
0.054447
0.000175826
0.00014864
0.000148766
0.0608166
0.00286487
0.0228181
0.000160263
0.000153171
0.00014581
0.000144899
0.000177079
0.00016369
0.000242796
0.000153338
0.0400492
0.000149107
0.000151581
0.0190284
0.000147996
0.000158846
0.000147755
0.000148167
0.000168068
0.000162258
0.000149901
0.0738088
0.0250333
0.000181541
0.000147441
0.000144563
0.000200602
0.0105663
0.000149674
0.00107686
0.000144533
0.000167673
0.000146661
0.000146823
0.000243063
0.000148209
0.0159018
0.00016683
0.000149776
0.000144547
0.000148302
0.000147
0.000151745
0.000442592
0.000147767
0.000146402
0.0741296
0.0736919
0.000170204
0.000169979
0.000182911
0.000155173
0.000146244
0.000155908
0.036282
0.000175721
0.000148595
0.000149077
0.08046
0.00016632
0.0565641
0.00014972
0.000150227
0.0240903
0.000164544
0.000150142
0.0174329
0.00029455
0.00014696
0.000196719
0.000146978
0.000148059
0.000145796
0.0452758
0.000143938
0.000148417
0.000146205
0.0220908
0.000155592
0.000203889
0.000166134
0.000146817
0.000158635
0.000148952
0.0515758
0.000147279
0.000147885
0.000149008
0.000201598
0.000148942
0.000204156
0.0199734
0.051463
0.000154749
0.000126958
0.0327689
0.000147879
0.0215234
0.0828711
0.0368652
0.0368894
0.0734095
0.00847914
0.000200345
0.000149084
0.0498678
0.000164374
0.0552949
0.000145449
0.000147183
0.000148683
0.000148895
0.000156464
0.000157983
0.0324088
0.000147069
0.000148156
0.0114213
0.000191146
0.000148289
0.00016092
0.000159773
0.000149064
0.000319286
0.000161014
0.00015176
0.000155442
0.0203343
0.0237046
0.000260381
0.000146444
0.000210938
0.000189326
0.0342225
0.0815624
0.000192861
0.000147238
0.000150102
0.000149102
0.000143596
0.000151223
0.000144541
0.000156209
0.000164617
0.0415968
0.000202199
0.000148446
0.000196093
0.0581676
0.000166869
0.000149071
0.0279331
0.000147345
0.000149086
0.000160648
0.0424293
0.000148943
0.000147294
0.058879
0.000182901
0.000855986
0.000194653
0.00018023
0.000147076
0.000206569
0.000149161
0.000147554
0.000149189
0.0520593
0.0282012
0.000146408
0.00014453
0.000147873
0.00487316
0.000150787
0.000160356
0.000148058
0.000149402
0.000205224
0.000147018
0.000176842
0.000201528
0.0459209
0.00014802
0.000173842
0.000152824
0.040849
0.0557457
0.000147822
0.0436391
0.000184332
0.000273307
0.000148934
0.0448006
0.000149539
0.000156901
0.000167074
0.000194526
0.0533465
8.23989e-05
0.000210417
0.0776729
0.000146425
0.000235772
0.000146745
0.000156095
0.059641
0.000148286
0.000149603
0.000150477
0.000148918
0.0399788
0.000145035
0.000148218
0.000179934
0.000170623
0.000176195
0.000209176
0.000202187
0.0188174
0.000185261
0.000165677
0.000171225
0.0373728
0.000170851
0.0630759
0.0529509
0.000156173
0.000147108
0.0354891
0.000109599
0.00014911
0.000193562
0.000163534
0.000149877
0.000157004
0.000149083
0.000167229
0.000149934
0.000175049
0.000172296
0.000146651
0.000177814
0.000146903
0.000167789
0.00014658
0.000154326
0.000179422
0.000152615
0.000148812
0.000146493
0.000299166
0.000178548
0.0678987
0.000147817
0.00014852
0.000180916
0.000147758
0.000186769
0.000178543
0.000149873
0.000190221
0.00014671
0.0732682
0.000149002
0.000168943
0.0294326
0.000238002
0.000147133
0.000151759
0.0169527
0.000147576
0.000146948
0.0382396
0.05037
0.000152324
0.000208436
0.000148368
0.000148814
0.0519534
0.000150922
0.000145204
0.000181936
0.000147036
0.00190886
0.000149154
0.000145207
0.000148666
0.000202926
0.0344668
0.000148469
0.000148913
0.000147077
0.00015435
0.00014814
0.000233746
0.000177412
0.000149738
0.0615365
0.000165767
0.000237854
0.0494177
0.000443705
0.000146242
0.000148925
0.000148045
0.000214498
0.000154779
0.0344276
0.0313297
0.000151897
0.0590015
0.000326603
0.000175508
0.000205217
0.00017059
0.000193916
0.0525251
0.000168429
0.000423204
0.0528811
0.000184553
0.000153675
0.0383317
0.00016483
0.000145575
0.000152039
0.0753854
0.000163293
0.000147038
0.000167283
0.00018887
0.000164928
0.0377788
0.000152038
0.0716241
0.000171116
0.000130068
0.000196453
0.000212989
0.000159174
0.000146572
0.000149809
0.0554947
0.000147564
0.000152138
0.000146428
0.000151275
0.000147201
0.000160475
0.000208324
0.000307611
0.0001633
0.000165484
0.0429693
0.000196184
0.000147213
0.00383194
0.0491517
0.000145637
0.000146878
0.000160918
0.0228291
0.000149617
0.000182113
0.000216509
0.000167796
0.000148235
0.000152142
0.000147247
0.000193446
0.000163537
0.000147434
0.0215428
0.0490719
0.000164126
0.00140747
0.000184974
0.00259984
0.000151138
0.000155603
0.0421366
0.00345008
0.000193194
0.00027614
0.000157716
0.000149804
0.000148129
0.000148663
0.000148001
0.000149857
0.000167791
0.000147207
0.000201727
0.000147073
0.000158596
0.000146494
0.000177428
0.000201651
0.000331952
0.000147805
0.000214535
0.000148115
0.0398136
0.000147916
0.000153751
0.000148544
0.00024118
0.0395013
0.000205147
0.000147172
0.000202172
0.000147955
0.00015895
0.0486944
0.000147889
0.000149226
0.000169657
0.000161051
0.0583562
0.000147225
0.000157916
0.000152331
0.000147911
0.000158533
0.000149532
0.000145521
0.000151552
0.0288138
0.000153407
0.000153433
0.0681127
0.000175334
0.0364726
0.000153031
0.000145573
0.000158679
0.0237107
0.000152726
0.000162443
0.000171803
0.00356562
0.000146876
0.00353045
0.000178516
0.000182697
0.000145561
0.000144657
0.00020952
0.000149368
0.000149883
0.000159089
0.000145488
0.00015251
0.000158159
0.000186653
0.000184628
0.055758
0.000156393
0.000187575
0.00923692
0.015628
0.000169022
0.00018472
0.0219205
0.000168214
0.072029
0.00015161
0.00929791
0.0034242
0.000145493
0.00014968
0.0001472
0.000150664
0.000169192
0.000146576
0.000151944
0.000192797
0.000151785
0.000160408
0.0448088
0.000157385
0.000153759
0.0788716
0.000150137
0.0230846
0.000154594
0.000165813
0.000146789
0.0280696
0.028537
0.000147967
0.000150961
0.0455723
0.000156964
0.0154522
0.000147695
0.000147052
0.0608181
0.000150793
0.000162832
0.00879327
0.000148121
0.000175977
0.000158551
0.000144637
0.000146756
0.0485523
0.0307391
0.000148848
0.000152505
0.000148142
0.000155732
0.000160038
0.02944
0.000149914
0.000339245
0.0168159
0.000111138
0.00550274
0.00015061
0.000200183
0.000181183
0.000156687
0.000148078
0.000182512
0.0463672
0.000151196
0.000163333
0.0596483
0.00047128
0.000186675
0.000153355
0.000148891
0.000149547
0.000148143
0.0242435
0.000178628
0.000153369
0.000151258
0.000153655
0.000149752
0.000147659
0.000148062
0.000187123
0.000169974
0.0582902
0.000164039
0.00865989
0.0324776
0.000158374
0.000176039
0.000146035
0.000157031
0.023841
0.000148485
0.000151795
0.000176974
0.000197869
0.000165209
0.044599
0.000181325
0.000147342
0.0428807
0.000144367
0.000149209
0.000164403
0.000149779
0.000148275
0.000210721
0.0700858
0.000147073
0.0455868
0.000148427
0.000146151
0.000151634
0.000363276
0.000158346
0.000154594
0.0778624
0.000150727
0.000236828
0.0413119
0.000149547
0.000164276
0.000147602
0.0193321
0.000182655
0.000148091
0.0501887
0.000177439
0.000169019
0.000149822
0.0269118
0.000156936
0.000193886
0.000151757
0.000168622
0.028241
0.00014632
0.000258877
0.000148417
0.000178049
0.000164547
0.00014954
0.0315589
0.000151647
0.000197491
0.000177147
0.000170819
0.000163237
0.000163587
0.000149763
0.0591823
0.000158997
0.0195682
0.000157618
0.000184267
0.000147871
0.00016857
0.000148164
0.00018656
0.0528848
0.000150199
0.000146466
0.00045233
0.000150864
0.0145762
0.000149819
0.0479803
0.000114127
0.000162931
0.000147534
0.000147126
0.000148443
0.00014458
0.000191223
0.000166728
0.000161057
0.000155021
0.000148197
0.00369764
0.000152689
0.00016204
0.00472044
0.000148079
0.0166713
0.000176689
0.000162449
0.000256919
0.0417883
0.000195375
0.0471586
0.0264544
0.000146832
0.000202472
0.0316171
0.000191325
0.000148946
0.000148889
0.000199626
0.0500217
0.0231614
0.000239316
0.000149991
0.000165067
0.000168784
0.0399085
0.00284538
0.000171641
0.000202271
0.000152294
0.000178125
0.000192994
0.000148878
0.000189456
0.0656644
0.000148597
0.00819302
0.000149611
0.000148042
0.0349839
0.0511889
0.000146335
0.00015025
0.000149702
0.000147033
0.000167063
0.000212091
0.000152064
0.000147474
0.000148328
0.000171137
0.000157528
0.000157146
0.000207088
0.000147956
0.0550867
0.0165394
0.0634395
0.000177834
0.000174049
0.000445185
0.000163996
0.0488982
0.00152754
0.0133364
0.000149375
0.084904
0.0346754
0.000145683
0.00014787
0.000186384
0.0553244
0.0670002
0.000146903
0.000147983
0.0439403
0.00208571
0.00920211
0.000152675
0.000151948
0.000301968
0.000148675
0.0497639
0.0307439
0.000497912
0.00029234
0.000148268
0.0001471
0.000146615
0.000154389
0.0361677
0.000170481
0.000156358
0.000149895
0.000174711
0.0239472
0.000171169
0.060044
0.0147409
0.0255111
0.000322632
0.000148019
0.000148936
0.0467428
0.000144908
0.000145527
0.000150742
0.0003835
0.000166949
0.0385366
0.000195711
0.000147827
0.0785998
0.000166597
0.000147193
0.0166552
0.000178124
0.000153317
0.000148975
0.00524577
0.0599352
0.000149
0.0718933
0.0187087
0.0600409
0.000236217
0.000178059
0.000147278
0.000150065
0.000352634
0.000155357
0.0454051
0.000167958
0.000834839
0.000186435
0.000150389
0.000157013
0.00014733
0.000149989
0.055955
0.0198145
0.000148145
0.0219446
0.000172209
0.000148017
0.000153039
0.000147096
0.000206389
0.000149637
0.000322182
0.000165327
0.000147214
0.000146509
0.000171067
0.0230894
0.000167778
0.000152477
0.000168526
0.000148131
0.00015145
0.000158571
0.0190268
0.0303239
0.0577082
0.000145348
0.000146455
0.0001492
0.000200686
0.000146629
0.000149336
0.00021125
0.000180756
3.77332e-05
0.000145347
0.060817
0.0303691
0.000149867
0.018205
0.000198451
0.000168638
0.000326885
0.000149029
0.0368994
0.000157257
0.000150667
0.00015194
0.000144872
0.000195235
0.00015367
0.000151392
0.000157682
0.0309123
0.036313
0.000149552
0.000147702
0.000152005
0.000148009
0.000198042
0.00014942
0.000185101
0.00015266
0.0445344
0.00015091
0.059913
0.000145382
0.0797368
0.000149593
0.000144752
0.0615944
0.000188152
0.000173061
0.000342442
0.000162792
0.000169607
0.000148053
0.0356815
0.000148119
0.000146675
0.000169874
0.000184671
0.0459363
0.0401466
0.000196367
0.074183
0.00019472
0.000223957
0.000147744
0.000154747
0.000159238
0.0558198
0.000152995
0.0547014
0.0306822
0.000149374
0.00014831
0.000147911
0.000368666
0.000435486
0.000152217
0.000148432
0.000154341
0.000157655
0.000167493
0.000250514
0.000197416
0.000148043
0.000211722
0.000183283
0.0222873
0.000183326
0.00015128
0.000152772
0.0768245
0.000146588
0.000186227
0.0558433
0.000150076
0.00015457
0.000212207
0.000174582
0.00015012
0.0245295
0.000153647
0.000241266
0.000171705
0.000158029
0.000150959
0.0572112
0.00014644
0.000172926
0.000268858
0.0593543
0.000173563
0.000177217
0.000156563
0.000164345
0.000149712
0.0610048
0.000157776
0.000148279
0.000160473
0.000148274
0.000149742
0.000391305
0.000148128
0.000148985
0.000148071
0.000202796
0.000148994
0.000161286
0.000187036
0.000204958
0.000192373
0.00014961
0.000186689
0.000197731
0.000208138
0.000182783
0.000155398
0.000205721
0.049951
0.000248369
0.000149869
0.04892
0.0485815
0.000149864
0.00015321
0.000144761
0.000220786
0.000186781
0.000148712
0.000259019
0.0538805
0.000146044
0.000148884
0.0452473
0.0330492
0.00018523
0.000144934
0.0402944
0.0368416
0.000493403
0.000147812
0.0574649
0.000190832
0.000168518
0.0498176
0.000156442
0.000144864
0.000160307
0.000201939
0.000162849
0.0484659
0.0631039
0.000146434
0.0692504
0.000203135
0.0366123
0.000145371
0.000164359
0.000149125
0.000147282
0.0610606
0.00713116
0.000240079
0.00892717
0.000157495
0.000174255
0.000150955
0.0625958
0.0225348
0.000148058
0.00014903
0.000158218
0.000147372
0.000176346
0.0637298
0.0781664
0.00017479
0.000149823
0.000149218
0.0610371
0.000153309
0.000176727
0.000146252
0.000150631
0.000252794
0.0092099
0.00013411
0.000371298
0.000148923
0.000232969
0.000152139
0.000164348
0.0817656
0.0202029
0.000148161
0.000149949
0.000167686
0.000153958
0.000148798
0.0654851
0.0555499
0.000146451
0.000143857
0.000149087
0.000147304
0.000341167
0.000146218
0.0463666
0.000191633
0.000184619
0.000147078
0.000167879
0.0658428
0.00016445
0.000199219
0.0477792
0.000148872
0.0266222
0.000158884
0.000159729
0.000193657
0.0268811
0.0360488
0.00018306
0.000146915
0.000193185
0.000146314
0.00015345
0.000148816
0.0452076
0.000158931
0.000760486
9.83235e-05
0.00017371
0.000148547
0.000213866
0.000157804
0.000149752
0.000184733
0.000144359
0.000170202
0.000163934
0.000148704
0.0757061
0.000151388
0.000205517
0.000150241
0.000147102
0.0547401
0.0477775
0.000152203
0.000158522
0.00017031
0.000173043
0.000181886
0.000157569
0.00015443
0.000155266
0.000222213
0.000153374
0.0450874
0.000167549
0.000115981
0.000199288
0.000150668
0.0675004
0.00014441
0.0564635
0.000152306
0.0540171
0.00394784
0.0240155
0.0387535
0.000230504
0.000169619
0.000148567
0.0621291
0.000171095
0.000148086
0.0216589
0.0656504
0.000151028
0.000153361
0.000160074
0.000160116
0.000163812
0.0348555
0.000149865
0.000162586
0.000166933
0.000159376
0.000148872
0.000191795
0.000144662
0.0462466
0.0001517
0.000195139
0.000161555
0.000168427
0.000185553
0.00730247
0.000183717
0.000146505
0.000191144
0.0595017
0.0669765
0.000149975
0.0426898
0.000159621
0.000303849
0.00014812
0.000152848
0.0533471
0.000178961
0.0278022
0.0257843
0.000159067
0.0737128
0.000147712
0.000144598
0.0221184
0.000165627
0.000152794
0.0754143
0.000156536
0.000163902
0.000157499
0.000178485
0.000148745
0.0550336
0.0586709
0.00954262
0.000242826
0.000155312
0.000173058
0.029536
0.000152317
0.000149071
0.000178416
0.000145261
0.000187025
0.0490694
0.0215289
0.0283199
0.000180094
0.000150196
0.0600953
0.000144397
0.000187449
0.000149464
0.0383551
0.000152228
0.000165074
0.0392253
0.000194983
0.000147749
0.000159325
0.0104013
0.000148353
0.000205305
0.000146357
0.0615759
0.0547525
0.000198446
0.000168597
0.000147161
0.000198162
0.000205347
0.000168094
0.00014638
0.000150426
0.000148718
0.000179682
0.000148541
0.000192106
0.000148562
0.000146623
0.0839547
0.000147211
0.000156481
0.000155765
0.000149791
0.0449368
0.000147075
0.000161437
0.057028
0.000177146
0.0431954
0.000148268
0.0594024
0.000178547
0.0744683
0.000151826
0.0002024
0.00014941
0.000169827
0.00020176
0.000199413
0.000217575
0.054067
0.000210729
0.000409009
0.000155139
0.000198854
0.000163495
0.000150308
0.000153245
0.000149201
0.000148061
0.000178117
0.000165567
0.00313892
0.000177598
0.0515638
0.0612862
0.000171658
0.000147872
0.0142245
0.000180836
0.000149535
0.000152184
0.000148283
0.0443987
0.000148062
0.017189
0.000147084
0.000158318
0.0372712
0.000172035
0.000147985
0.000148011
0.0252503
0.000147088
0.000152289
0.000155273
0.000160562
0.000157543
0.000148598
0.000207007
0.000168954
0.00016314
0.00022796
0.0448248
0.0431082
0.0306376
0.000145489
0.000147736
0.000173428
0.000150197
0.000163753
0.0428873
0.0430175
0.000144895
0.000148038
0.041252
8.58969e-05
0.000145062
0.00014656
0.000154752
0.0569993
0.0507793
0.000156325
0.000162099
0.000149173
0.000253329
0.0002026
0.000175787
0.000158154
0.000164121
0.000149424
0.000165984
0.000224029
0.000150172
0.000148823
0.000155936
0.0574971
0.00015359
0.0226673
0.000148412
0.0511998
0.000162367
0.000155889
0.000145794
0.000147019
0.00025689
0.0605441
0.000165519
0.0245679
0.0567287
0.000149619
0.052959
0.000204764
0.000147535
0.0224791
0.000118202
0.000198266
0.000149613
0.0399699
0.0376075
0.000148247
0.000163093
0.0298088
0.000167107
0.000148116
0.000146497
0.000149595
0.000153419
0.000183712
0.000232496
0.00016858
0.000181322
0.000145611
0.000148683
0.0465116
0.000146829
0.000169088
0.000154727
0.000149475
0.000174274
0.00014781
0.000151823
0.000246488
0.000147558
0.043173
0.000147805
0.00447129
0.0491019
0.00018919
0.000148831
0.000149939
0.0588568
0.000144773
0.000153041
0.000149229
0.000207577
0.000541558
0.000163685
0.0484666
0.000163095
0.000626926
0.000149734
0.000185658
0.000147078
0.000148674
0.0215013
0.0469939
0.000301953
0.000152336
0.000184773
0.000185241
0.03911
0.0575117
0.000242198
0.000166478
0.000144344
0.0504733
0.000147741
0.000148007
0.000234885
0.000199589
0.000156454
0.000180386
0.00016444
0.000159454
0.000157507
0.0762343
0.00015377
0.000147515
0.0206938
0.000164617
0.000145513
0.0349648
0.000147798
0.00014845
0.000206469
0.000188726
0.0394708
0.000145652
0.000153054
0.000147047
0.000319394
0.000146962
0.000204017
0.0121266
0.0461486
0.0325373
0.0151221
0.000157349
0.0428098
0.000228098
0.000149254
0.000158231
0.000163219
0.000157597
0.000254464
0.0450939
0.0516714
0.0458756
0.000364147
0.000148569
0.000196518
0.000147851
0.0214691
0.000159242
0.000152187
0.000153206
0.000150414
0.000146964
0.000195506
0.0532161
0.000145368
0.000152351
0.000146443
0.0398027
0.000152121
0.0787234
0.043345
0.000260981
0.000148321
0.00014704
0.0372193
0.000194926
0.000148669
0.000194443
0.000149407
0.000189989
0.000179835
0.000190567
0.000177504
0.0338091
0.000146256
0.000147177
0.000240096
0.0356939
0.000158945
0.000167289
0.000147335
0.0158816
0.000147783
0.000147183
0.000151373
0.000147799
0.00691531
0.0442302
0.00128877
0.000183149
0.0588107
0.000246844
0.000144896
0.000162653
0.000145287
0.000260453
0.000148391
0.000153194
0.000147764
0.000146974
0.000146693
0.000409459
0.000151486
0.000285903
0.000144984
0.000158564
0.000157821
0.00027326
0.000147954
0.000162586
0.000167001
0.000173624
0.0783123
0.000146955
0.0326222
0.000177504
0.000165259
0.000148674
0.000147274
0.0368895
0.00955164
0.00014847
0.000147501
0.000246055
0.000246134
0.000160802
0.0565474
0.000150148
6.95159e-05
0.00016296
0.000145295
0.0532522
0.000152214
0.0509797
0.000148033
0.000150343
0.000148521
0.0402196
0.0443566
0.000145048
0.000183176
0.000243681
0.000148009
0.000147349
0.000146988
0.000185113
0.0561963
0.00017627
0.000154784
0.000167001
0.000147834
0.000148155
0.000152519
0.000147596
0.000214032
0.000148249
0.000184325
0.000309992
0.000164081
0.00014449
0.0391054
0.000186709
0.000147899
0.000179572
0.000161766
0.000787999
0.000152638
0.0823598
0.000176122
0.000147804
0.000184448
0.00018472
0.000154208
0.0824373
0.000182782
0.000162684
0.00117705
0.000147479
0.00018759
0.000170101
0.000184193
0.000147132
0.000147662
0.000144737
0.000158887
0.00018053
0.000179749
0.0607697
0.0323216
0.0442725
0.000149725
0.000306548
0.050295
0.0626226
0.000147796
0.000147992
0.00017821
0.0541227
0.000152478
0.000166664
0.0116846
0.0345187
0.00448902
0.000172815
0.000207224
0.0399327
0.000220171
0.000144684
0.00206075
0.000232917
0.000149365
0.00014974
0.000150369
0.060028
0.000186757
0.0605689
0.00015269
0.00917831
0.000148645
0.000765073
0.0339974
0.000148769
0.000165324
0.0483743
0.0467733
0.000175192
0.00015084
0.000151802
0.000149343
0.000188336
0.00020158
0.000334872
0.0603327
0.000145903
0.0185043
0.000194042
0.000291396
0.000147759
0.000148875
0.00430556
0.000185028
0.000147544
0.000173149
0.000167978
0.000161145
0.0451226
0.0597224
0.0647614
0.0581429
0.000153945
0.000145278
0.000166922
0.027866
0.0638119
0.000148067
0.000185865
0.000170155
0.000197442
0.000150684
0.000149639
0.000245537
0.0103314
0.0094202
0.000282226
0.0251064
0.0001473
0.000184423
0.056878
0.000148898
0.000166352
0.000193081
0.00014516
0.000207982
0.0704276
0.000182743
0.00014963
0.0202551
0.000197492
0.0478532
0.000143703
0.00015323
0.000148597
0.000152543
0.000148475
0.000172104
0.000163162
0.000162937
0.000189452
0.000165011
0.0432354
0.000153534
0.000161722
0.000157253
0.0209064
0.000165571
0.0332425
0.000157028
0.000155892
0.0108597
0.000171095
0.000148313
0.000163264
0.0129658
0.0650536
0.000225776
0.000147701
0.000147169
0.0001475
0.000261242
0.000151
0.00034162
0.000265236
0.000184623
0.000160483
0.000214277
0.028417
0.000148465
0.0694439
0.000160193
0.000164207
0.000147616
0.000147921
0.000175771
0.0597138
0.000148169
0.0300666
0.000221898
0.000171333
0.00020181
0.000147073
0.000147752
0.000160982
0.000151758
0.0600971
0.0258289
0.00017103
0.00025604
0.000147619
0.000148462
0.000148839
0.000149543
0.0829742
0.000152004
0.0416946
0.000169943
0.000150782
0.000194169
0.000455035
0.0401782
0.020766
0.000152649
0.000146932
0.000148598
0.000153326
0.000220904
0.00018316
0.08258
0.000148797
0.000150194
0.0001783
0.000149665
0.000197398
0.000151645
0.000176867
0.00017833
0.000163078
0.000163231
0.000145644
0.000172577
0.000162658
0.000183416
0.000168914
0.000163519
0.000146514
0.000191537
0.000146971
0.00081561
0.0482382
0.000231442
0.000148273