/*--------------------------------*- C++ -*----------------------------------*\
| =========                 |                                                 |
| \\      /  F ield         | OpenFOAM: The Open Source CFD Toolbox           |
|  \\    /   O peration     | Version:  v2012                                 |
|   \\  /    A nd           | Website:  www.openfoam.com                      |
|    \\/     M anipulation  |                                                 |
\*---------------------------------------------------------------------------*/
FoamFile
{
    version     2.0;
    format      ascii;
    class       volScalarField;
    location    "300";
    object      k_0;
}
// * * * * * * * * * * * * * * * * * * * * * * * * * * * * * * * * * * * * * //

dimensions      [0 2 -2 0 0 0 0];


internalField   nonuniform List<scalar> 
13917
(
0.000165858
0.000148671
0.0586095
0.00015342
0.000148417
0.000196727
0.0573557
0.0605923
0.0785525
0.000174774
0.000209454
0.000185195
0.000153593
0.0165771
0.000154622
0.000153549
0.000149041
0.000176262
0.000184708
0.000148446
0.000149724
0.0570175
0.000148291
0.057434
0.000147787
0.0534006
0.000161776
0.000164814
0.000213872
0.000186225
0.000167619
0.000157234
0.000160101
0.000153824
0.000147935
7.20399e-05
0.000148361
0.0460176
0.000156825
0.0188915
0.000146925
0.000149882
0.00014428
0.000169166
0.000148484
0.000155342
0.000175921
0.000184416
0.000395933
0.000147665
0.000157769
0.000149243
0.000459673
0.000154172
0.000149092
0.000157171
0.000208952
0.000148023
0.000154547
0.000148289
0.0829842
0.00014869
0.00809825
0.000148351
0.000195141
0.0277491
0.000148389
0.000148063
0.00021106
0.000163234
0.000148474
0.0776744
0.0439421
0.00014781
0.000408166
0.000188909
0.0316891
0.000150612
0.0498885
0.000149475
0.000149207
0.000148444
0.000193107
0.0501849
0.0456731
0.000150384
0.000149004
0.0106389
0.000157406
0.000144226
0.0486045
0.000181287
0.000147184
0.000150568
0.0169973
0.000192317
0.000199955
0.000182006
0.00020309
0.000171369
0.000146091
0.000158428
0.000168993
0.00015169
0.000146077
0.0799255
0.000197864
0.000185496
0.000149075
0.000168853
0.0478258
0.0206471
0.000191348
0.0798428
0.000150521
0.00043033
0.000147678
0.000267642
0.0263578
0.000154135
0.000149783
0.000209495
0.0297568
0.000164109
0.000147396
0.000150267
0.000148277
0.000147464
0.000144402
0.000194996
0.042689
0.00015036
0.000148578
0.000149787
0.00602124
0.0561363
0.000166031
0.000172039
0.000148332
0.000153987
0.000122431
0.000146114
0.000149755
0.000171552
0.000148075
0.068883
0.000217543
0.000149102
0.000145806
0.000157695
0.000179717
0.000436569
0.000191945
0.000164117
0.000156861
0.0238945
0.000162278
0.00465673
0.0259042
0.00698303
0.000152342
0.000161998
0.000149475
0.000198821
0.000190838
0.000202565
0.000151611
0.000180953
0.000147608
0.000158918
0.000164812
0.0256563
0.000193571
0.000149873
0.0523526
0.000165402
0.0451168
0.000310241
0.0635921
0.000147293
0.000182524
0.000168538
0.000146072
0.000148929
0.000157725
0.053173
0.000221317
0.0298535
0.000165775
0.000201284
8.49395e-05
0.050467
0.000217387
0.000148374
0.000173118
0.000161408
0.000153858
0.00014727
0.000184343
0.00153851
0.00015742
0.000147789
0.000179002
0.000179435
0.0385264
0.00210974
0.000147935
0.000148104
0.000181562
0.0549667
0.000149538
0.0580858
0.0282991
0.00020138
0.000146116
0.000203527
0.000178271
0.0291812
0.000147388
0.0786572
0.000147227
0.00018523
0.000146758
0.0492289
0.0809013
0.000153904
0.000418479
0.000157236
0.000146148
9.69227e-05
0.000192922
0.000165558
0.0545467
0.0232655
0.000145717
0.00015774
0.0533932
0.0349757
0.000149409
0.000147146
0.020914
0.000203631
0.00014972
0.000177277
0.000189887
0.000161679
0.000164471
0.000149408
0.000164656
0.0260015
0.00014827
0.000186972
0.000175151
0.000148164
0.000147977
0.000186031
0.0272831
0.000190315
0.000157932
0.000154804
0.000149758
0.0243395
0.0795091
8.95809e-05
0.000146189
0.0411862
0.0250932
0.0121576
0.0491919
0.000190456
0.000149296
0.000147005
0.00017628
0.0429291
0.000197626
0.000154145
0.00316825
0.00017318
0.000144311
0.0561972
0.000148251
0.0553857
0.000156773
0.00014968
0.00015594
0.000164058
0.000162049
0.00015732
0.000159874
0.000148604
0.000184858
0.0537529
0.0842255
0.000147391
0.0183415
0.000148934
0.000148604
0.000147728
0.000236887
0.00014837
0.000187231
0.000163754
0.000147488
0.000179276
0.000151133
0.000352583
0.000165051
0.000179808
0.000146726
0.000147915
0.0447079
0.0282881
0.000147636
0.000146883
0.0521337
0.000147192
0.0474111
0.000146597
0.0522155
0.000150302
0.00022625
0.000164668
0.000446855
0.000151951
0.000392379
0.00018748
0.000155954
0.000203275
0.000204978
0.000148905
0.0431737
0.000172921
0.0288907
0.000152981
0.0199956
0.000158479
0.0582556
0.000183508
0.000174824
0.000174172
0.0598603
0.000149309
0.000165436
0.0528315
0.000148653
0.000151532
0.0264525
0.000187843
0.00014973
0.000179244
0.000209902
0.000146412
0.0227869
7.40403e-05
0.000148197
0.000146756
0.000148996
0.000145767
0.000198898
0.0592049
0.000216368
0.0500572
0.00014776
0.000189499
0.00816662
0.000171642
0.0576964
0.0478022
0.0807422
0.000145696
0.000130922
0.000146594
0.0703832
0.000148264
0.00046301
0.0001898
0.000155313
0.000149155
0.000180354
0.000184534
0.000183829
0.00063982
0.053268
0.0226973
0.000165173
0.000173652
0.000147206
0.038394
0.0554782
0.000148098
0.000212601
0.000147943
0.00023201
0.000150277
0.000149392
0.000151143
0.0450971
0.000151068
0.0305052
0.0107806
0.000205642
0.000198964
0.000148852
0.000199275
0.00019553
0.000147862
0.000189735
0.000148579
0.000147879
0.000186082
0.000149676
0.000147822
0.00014656
0.000249542
0.000149567
0.0231003
0.0462519
0.00518208
0.000214575
0.0366654
0.0295486
0.000171239
0.00014779
0.000205103
0.000156449
0.000158903
0.000148318
0.0657213
0.0560028
0.0443532
0.000153413
0.000193378
0.000152669
0.000157513
0.000183806
0.000150606
0.000124784
0.000149055
0.000148298
0.0524763
0.0435414
0.0455727
0.000185618
0.00347034
0.0472254
0.0565117
0.0309593
0.000144629
0.000178921
0.000150702
0.000148252
0.000416537
0.000176589
0.00014778
0.000178372
0.000169585
0.0294023
0.000147831
0.000198321
0.0145353
0.000251462
0.0280382
0.000149629
0.000148144
0.000153719
0.000162311
0.000145716
0.0506323
0.00020578
0.000159837
0.0372952
0.000157114
0.000199458
0.0616042
0.000218939
0.00020454
0.000103114
0.000198337
0.000177157
0.000204543
0.000172689
0.000209085
0.000212577
0.000176516
0.00018868
0.000147278
0.00263384
0.000158614
0.000145461
0.000161373
0.000150914
0.0317884
0.0794876
0.000147109
0.000144532
0.0511371
0.0242789
0.000149678
0.022857
0.000151287
0.000203991
0.000147242
0.0361894
0.00265306
0.000157683
0.000149253
0.0398217
0.000212739
0.0122998
0.000149743
0.0292679
0.000353216
0.0550983
0.000145558
0.0413989
0.0854424
0.000171846
0.000146702
0.00014899
0.000188941
0.000242603
0.000147085
0.00014679
0.000147181
0.000147137
0.0359773
0.000662234
0.000171429
0.000217298
0.000147437
0.000146144
0.000192949
0.0767308
0.000163083
0.000147724
0.000147834
0.000148121
0.0612996
0.0555816
0.000148953
0.000148122
0.000127937
0.000172293
0.000164662
0.000148094
0.000151244
0.000156104
0.000188038
0.000198409
0.000220726
0.000206174
0.000192145
0.00190445
0.000179503
0.000147463
0.0303567
0.000148142
0.000151952
0.000154384
0.00269175
0.000171171
0.000146208
0.000255378
0.000189293
0.00784475
0.000192273
0.000160283
0.000171027
0.000149077
0.0850387
0.000229756
0.0603388
0.000148769
0.000160054
0.00022156
0.049989
0.00982849
0.000183075
0.000188762
0.000153392
0.000153028
0.000148121
0.000165713
0.000169933
0.000148707
0.000178042
0.000174106
0.0613704
0.0145257
0.000152626
0.000198635
0.00171679
0.000157013
0.000149327
0.000453985
0.0747574
0.0696435
0.000216711
0.00014453
0.0255759
0.000188487
0.000146598
0.000161048
0.000187326
0.000159501
0.000186163
0.0504942
0.000204013
0.000169261
0.0849899
0.000151548
0.0262122
0.000149482
0.000148898
0.0205048
0.0762833
0.000211325
0.000151548
0.000149717
0.000148138
0.000173684
0.000451132
0.000200867
0.000153374
0.000202463
0.000179877
0.000147284
0.000383813
0.00020015
0.000109255
0.000147263
0.000203389
0.000150831
0.0140297
0.000175391
0.000170999
0.000160312
0.000146568
0.000145475
0.000148421
0.000175824
0.000155626
0.000239288
0.00054166
0.000180467
0.000146483
0.000202543
0.000212211
0.000351496
0.00014813
0.000155172
0.000146853
0.000161239
0.00015479
0.0846893
0.000149408
0.000611009
0.000160846
0.000209163
0.000180976
0.043468
0.000171974
0.000148854
0.0404867
0.0108388
0.000148005
0.00015429
0.00468041
0.000210226
0.000197689
0.000149474
0.000149353
0.000209673
0.000155548
0.000183416
0.000184759
0.000145517
0.000179551
0.0584459
0.000148084
0.000151967
0.000147342
0.0264688
0.000149715
0.000153048
0.0277352
0.000151236
0.072279
0.000156867
0.000160344
0.000147283
0.000166907
0.000147788
0.000176143
0.000146609
0.000174872
0.000151271
0.0179226
0.000330356
0.076691
0.00015218
0.000149216
0.000178541
0.000170622
0.0315051
0.0798791
0.000175826
0.000147924
0.000247292
0.000211776
0.000109078
0.000221064
0.000175572
0.0485365
0.000165243
0.000171847
0.000199551
0.000180701
0.00017543
0.000243824
0.000174799
0.00015316
0.000188805
0.000156092
0.000146387
0.00016098
0.000168968
0.000157083
0.000147851
0.000146984
0.000180244
0.000152294
0.000183572
0.000147927
0.000148048
0.000149778
0.000151031
0.00014401
0.000155047
0.000147505
0.034942
0.000184742
0.000191016
0.000145892
0.000149561
0.000163834
0.000177512
0.000150049
0.0709296
0.000176543
0.0524021
0.000160983
0.000196543
0.00014993
0.000149742
0.000146998
0.000151127
0.0194873
0.000149626
0.0115603
0.000155453
0.00989266
0.000165623
0.000177253
0.000208535
0.000145122
0.000149924
0.000185188
0.000148077
0.000149297
0.0551447
0.000150059
0.000148999
0.000158016
0.000147086
0.000145068
0.000157235
0.00015625
0.0260126
0.000162899
0.000148079
0.000146662
0.0544454
0.000175827
0.00014864
0.000148766
0.0608316
0.00286074
0.0228184
0.00016027
0.000153171
0.00014581
0.000144899
0.000177077
0.000163689
0.000242909
0.000153338
0.0400468
0.000149108
0.000151581
0.0190283
0.000147996
0.000158846
0.000147755
0.000148167
0.000168068
0.000162251
0.0001499
0.0737998
0.0250338
0.000181542
0.000147441
0.000144563
0.000200588
0.0105675
0.000149674
0.00107702
0.000144533
0.000167672
0.000146661
0.000146822
0.000244968
0.000148209
0.0159305
0.00016683
0.000149776
0.000144547
0.000148302
0.000147
0.000151745
0.000442581
0.000147767
0.000146402
0.0741221
0.0736784
0.000170204
0.000169979
0.000182911
0.000155173
0.000146244
0.000155908
0.0362843
0.000175716
0.000148595
0.000149077
0.0804585
0.000166319
0.0565652
0.00014972
0.000150227
0.0240875
0.000164544
0.000150141
0.017432
0.000294559
0.00014696
0.000196725
0.000146978
0.000148059
0.000145796
0.0452783
0.000143938
0.000148417
0.000146205
0.0221199
0.000155592
0.000203892
0.000166131
0.000146817
0.000158634
0.000148952
0.0515767
0.000147279
0.000147885
0.000149008
0.000201585
0.000148942
0.000204158
0.0199747
0.051465
0.000154749
0.000130945
0.0327686
0.000147879
0.0215207
0.0828698
0.0368652
0.0368905
0.0734025
0.00847881
0.000200351
0.000149085
0.0498744
0.000164374
0.0552974
0.000145449
0.000147184
0.000148683
0.000148895
0.000156463
0.000157983
0.0324064
0.00014707
0.000148156
0.011421
0.000191151
0.000148289
0.000160924
0.000159773
0.000149064
0.000319062
0.000161014
0.00015176
0.000155442
0.0203345
0.0237047
0.000260398
0.000146444
0.000210947
0.000189326
0.0342219
0.081559
0.000192853
0.000147239
0.000150102
0.000149102
0.000143596
0.000151224
0.000144541
0.000156209
0.000164617
0.0415959
0.000202203
0.000148446
0.000196094
0.05817
0.000166868
0.000149071
0.0279344
0.000147345
0.000149086
0.000160648
0.0424284
0.000148943
0.000147294
0.05888
0.000182059
0.000855169
0.000194655
0.000180034
0.000147075
0.000206583
0.000149161
0.000147555
0.000149189
0.0520711
0.0282019
0.000146408
0.00014453
0.000147873
0.00486463
0.000150788
0.000160355
0.000148058
0.000149402
0.000205241
0.000147018
0.000176843
0.000201525
0.0459197
0.00014802
0.00017384
0.000152824
0.0408515
0.0557481
0.000147822
0.0436402
0.000184333
0.000273304
0.000148934
0.0448088
0.000149539
0.000156901
0.000167074
0.000194529
0.0533574
8.23537e-05
0.000210395
0.0776686
0.000146425
0.000236034
0.000146745
0.000156095
0.0596407
0.000148286
0.000149603
0.000150477
0.000148917
0.039978
0.000145035
0.000148218
0.000179932
0.000170623
0.000176195
0.000209084
0.000202171
0.0188164
0.000185258
0.000165677
0.000171224
0.037373
0.00017085
0.0630762
0.0529571
0.000156173
0.000147108
0.0354923
0.000109475
0.00014911
0.000193566
0.000163533
0.000149877
0.000157004
0.000149083
0.000167229
0.000149934
0.000175049
0.0001723
0.000146651
0.000177814
0.000146903
0.000167791
0.00014658
0.000154326
0.000179422
0.000152615
0.000148812
0.000146493
0.000299226
0.000178544
0.0678871
0.000147817
0.00014852
0.000180915
0.000147758
0.000186769
0.000178539
0.000149873
0.000190223
0.00014671
0.0732715
0.000149002
0.000168943
0.0294318
0.000238177
0.000147133
0.000151759
0.0169532
0.000147576
0.000146948
0.038239
0.0503723
0.000152324
0.000208417
0.000148368
0.000148814
0.0519666
0.000150922
0.000145204
0.00018232
0.000147036
0.00190236
0.000149154
0.000145207
0.000148667
0.000202908
0.0344657
0.000148468
0.000148913
0.000147077
0.000154351
0.00014814
0.00023378
0.000177412
0.000149738
0.0615162
0.000165765
0.000238141
0.0494152
0.000443727
0.000146242
0.000148925
0.000148045
0.000214474
0.000154779
0.0344262
0.0313297
0.000151897
0.0590016
0.000326606
0.000175507
0.000205199
0.000170593
0.00019396
0.0525367
0.000168427
0.000423172
0.0528782
0.000184549
0.000153676
0.0383316
0.000164831
0.000145574
0.000152039
0.0753843
0.000163292
0.000147038
0.000167287
0.000188873
0.000164928
0.0377779
0.000152038
0.071619
0.000171115
0.000130575
0.000196458
0.000212976
0.000159174
0.000146572
0.00014981
0.0554969
0.000147564
0.000152138
0.000146428
0.000151275
0.000147201
0.000160471
0.000208307
0.000307622
0.000163314
0.000165462
0.0429914
0.000196141
0.000147213
0.00382587
0.0491675
0.000145637
0.000146878
0.000160917
0.0228282
0.000149617
0.000182113
0.00021655
0.000167795
0.000148235
0.000152143
0.000147247
0.00019345
0.000163536
0.000147434
0.0215416
0.049082
0.000164127
0.00140862
0.00018497
0.00259705
0.000151138
0.000155602
0.04216
0.00344655
0.000193186
0.000276001
0.000157716
0.000149804
0.000148129
0.000148663
0.000148001
0.000149857
0.000167792
0.000147207
0.000201721
0.000147073
0.000158595
0.000146494
0.000177428
0.00020164
0.000331934
0.000147804
0.00021453
0.000148115
0.0398299
0.000147916
0.000153751
0.000148544
0.000241203
0.0395038
0.000205127
0.000147172
0.000202176
0.000147956
0.00015895
0.0486966
0.000147889
0.000149226
0.000169656
0.000161051
0.0583574
0.000147225
0.000157917
0.000152331
0.000147911
0.000158543
0.000149532
0.000145521
0.000151552
0.0288162
0.000153407
0.000153347
0.0680954
0.000175334
0.0364718
0.000153031
0.000145573
0.000158679
0.0237131
0.000152727
0.000162443
0.000171802
0.00257498
0.000146876
0.00353033
0.000178516
0.000182697
0.000145561
0.000144657
0.0002095
0.000149368
0.000149883
0.00015909
0.000145488
0.000152511
0.000158158
0.000186649
0.000184604
0.0557633
0.000156394
0.000187572
0.00926361
0.015629
0.000169021
0.000184729
0.0219195
0.000168214
0.0720286
0.00015161
0.00929714
0.00342412
0.000145493
0.00014968
0.0001472
0.000150664
0.000169192
0.000146576
0.000151944
0.000192789
0.000151784
0.000160405
0.0448099
0.000157386
0.000153759
0.0788657
0.000150136
0.0230825
0.000154594
0.000165805
0.000146789
0.0280723
0.0285371
0.000147967
0.000150961
0.0455836
0.000156964
0.0154518
0.000147695
0.000147052
0.0608155
0.000150793
0.000162833
0.00879337
0.000148121
0.000175977
0.000158551
0.000144637
0.000146756
0.0485609
0.0307387
0.000148848
0.000152504
0.000148141
0.000155732
0.000160057
0.0294409
0.000149914
0.000339209
0.0167957
0.00011142
0.00549783
0.00015061
0.000200169
0.000181183
0.000156686
0.000148078
0.00018251
0.0463672
0.000151196
0.000163334
0.0596409
0.000471361
0.000186782
0.000153355
0.000148891
0.000149547
0.000148143
0.0242431
0.000178628
0.000153369
0.000151258
0.000153654
0.000149752
0.000147659
0.000148062
0.00018712
0.000169973
0.0582686
0.00016404
0.00865983
0.03248
0.000158373
0.000176038
0.000146035
0.000157031
0.0238436
0.000148485
0.000151795
0.000176974
0.000197871
0.000165201
0.044614
0.000180534
0.000147342
0.0428787
0.000144367
0.000149208
0.000164396
0.000149779
0.000148275
0.000210728
0.0700892
0.000147073
0.0456089
0.000148427
0.000146151
0.000151635
0.000363239
0.000158346
0.000154594
0.0778612
0.000150727
0.000236937
0.0413149
0.000149547
0.000164272
0.000147602
0.0193337
0.000182655
0.000148091
0.050201
0.000177439
0.000169018
0.000149822
0.0269117
0.000156933
0.00019392
0.000151757
0.000168622
0.0282435
0.00014632
0.000259097
0.000148417
0.00017805
0.000164546
0.00014954
0.0315583
0.000151647
0.000197491
0.000177147
0.000170803
0.000163235
0.000163581
0.000149764
0.0591756
0.000158998
0.0195665
0.00015762
0.000184264
0.000147871
0.00016857
0.000148164
0.000186557
0.0528928
0.000150199
0.000146466
0.00045233
0.000150864
0.0146046
0.000149818
0.0479995
0.000114597
0.000162931
0.000147534
0.000147125
0.000148443
0.00014458
0.000191225
0.000166732
0.00016107
0.00015502
0.000148197
0.00370129
0.000152689
0.00016204
0.00474091
0.000148079
0.016672
0.000176688
0.000162449
0.000256923
0.041789
0.000194253
0.0471747
0.0264484
0.000146832
0.000202472
0.0316165
0.000191366
0.000148946
0.000148889
0.000199621
0.0500328
0.0231596
0.000239316
0.000149991
0.000165054
0.000168784
0.0399103
0.00284531
0.00017164
0.00020227
0.000152294
0.000178123
0.000192987
0.000148878
0.000189459
0.0656788
0.000148597
0.00817851
0.000149611
0.000148042
0.0349831
0.0511884
0.000146335
0.00015025
0.000149702
0.000147033
0.000167065
0.000212097
0.000152064
0.000147474
0.000148328
0.000171136
0.000157528
0.000157145
0.000203631
0.000147955
0.0550871
0.0165386
0.063435
0.000177833
0.000174049
0.000443152
0.000163996
0.0489061
0.00152347
0.0133226
0.000149376
0.0849064
0.0346764
0.000145683
0.000147871
0.000186384
0.0553247
0.0670098
0.000146903
0.000147983
0.0439388
0.00207812
0.00912607
0.000152675
0.000151948
0.000301968
0.000148675
0.0497616
0.0307435
0.000497426
0.0002923
0.000148267
0.0001471
0.000146615
0.000154389
0.0361653
0.00017048
0.000156358
0.000149895
0.000174706
0.0239465
0.000171168
0.0600317
0.0147406
0.0255085
0.000322636
0.000148019
0.000148936
0.0467631
0.000144908
0.000145527
0.000150743
0.000383501
0.000166949
0.0385361
0.000195711
0.000147827
0.0786008
0.000166597
0.000147193
0.0166548
0.000178121
0.000153317
0.000148975
0.00524567
0.059937
0.000149
0.0719006
0.0186876
0.0600389
0.000236225
0.000178063
0.000147278
0.000150064
0.000352956
0.000155356
0.0454209
0.000167958
0.000835267
0.000184114
0.000150389
0.000157013
0.00014733
0.000149989
0.0559544
0.0198124
0.000148145
0.0219442
0.000172208
0.000148017
0.000153039
0.000147096
0.000206402
0.000149637
0.000322175
0.000165323
0.000147214
0.000146509
0.000171086
0.0230908
0.000167777
0.000152477
0.000168525
0.00014813
0.00015145
0.000158571
0.0190261
0.0303222
0.0577091
0.000145348
0.000146455
0.000149201
0.000200672
0.000146629
0.000149336
0.000211257
0.000180756
3.71649e-05
0.000145347
0.0608194
0.0303676
0.000149867
0.0182042
0.000198452
0.000168637
0.000326886
0.00014903
0.0368986
0.000157259
0.000150667
0.00015194
0.000144872
0.000195205
0.00015367
0.000151392
0.000157682
0.0309141
0.036312
0.000149552
0.000147702
0.000152005
0.000148009
0.000198048
0.00014942
0.000185101
0.00015266
0.0445343
0.00015091
0.0599106
0.000145382
0.0797399
0.000149593
0.000144752
0.0615923
0.00018824
0.000173018
0.000342035
0.000162784
0.000169606
0.000148053
0.035683
0.000148119
0.000146675
0.00016987
0.000184668
0.0459355
0.0401462
0.000196369
0.0741874
0.000194722
0.000282711
0.000147744
0.000154746
0.000159237
0.0558214
0.000152995
0.0547039
0.0306796
0.000149374
0.00014831
0.000147911
0.000368831
0.000435503
0.000152217
0.000148432
0.000154342
0.000157655
0.000167492
0.000252107
0.000197419
0.000148043
0.000211764
0.000183286
0.0222898
0.000183326
0.00015128
0.000152772
0.0768256
0.000146588
0.000186227
0.0558497
0.000150076
0.000154569
0.000212213
0.000174587
0.00015012
0.0245267
0.000153646
0.000241539
0.000171705
0.000158029
0.000150959
0.0572127
0.00014644
0.000172924
0.000268857
0.0593537
0.000173563
0.000177217
0.000156563
0.000164341
0.000149712
0.0610039
0.000157776
0.000148279
0.000160473
0.000148274
0.000149742
0.000391309
0.000148129
0.000148985
0.000148071
0.000202796
0.000148994
0.000161285
0.000187034
0.000204957
0.000192376
0.00014961
0.000186685
0.000197778
0.000208139
0.000182783
0.000155402
0.000205731
0.0499513
0.000248368
0.000149869
0.0489328
0.0485992
0.000149864
0.00015321
0.000144761
0.000221291
0.000186781
0.000148712
0.000258994
0.0538829
0.000146044
0.000148884
0.0452593
0.0330467
0.000185226
0.000144934
0.0402809
0.0368453
0.000493395
0.000147812
0.0574661
0.000190826
0.000168518
0.0498178
0.000156442
0.000144864
0.000160307
0.000201935
0.000162848
0.0484789
0.0631064
0.000146434
0.0692463
0.000203137
0.0366118
0.000145371
0.000164358
0.000149125
0.000147282
0.0610567
0.00712302
0.000240108
0.00890872
0.000157497
0.000174255
0.000150955
0.0625968
0.0225325
0.000148058
0.00014903
0.000158218
0.000147371
0.000176346
0.063725
0.0781732
0.00017479
0.000149822
0.000149218
0.0610342
0.000153309
0.000176727
0.000146252
0.000150632
0.000252793
0.00920235
0.000140729
0.000371296
0.000148923
0.000233485
0.000152139
0.000164338
0.0817684
0.020202
0.000148161
0.000149949
0.000167685
0.000153958
0.000148798
0.0654797
0.055552
0.000146451
0.000143857
0.000149087
0.000147304
0.000341147
0.000146218
0.0463809
0.000191637
0.000184616
0.000147078
0.000167878
0.0658454
0.000164449
0.000199221
0.047778
0.000148872
0.0266248
0.000158884
0.000159737
0.000193661
0.0268827
0.0360482
0.000183057
0.000146914
0.000193168
0.000146314
0.00015345
0.000148816
0.0452237
0.000158932
0.000793655
9.87159e-05
0.00017371
0.000148547
0.000213862
0.000157804
0.000149752
0.000184807
0.000144359
0.000170202
0.000163934
0.000148704
0.0757101
0.000151388
0.00020547
0.000150241
0.000147102
0.0547386
0.0477751
0.000152203
0.000158521
0.000170309
0.000173043
0.000181884
0.000157569
0.00015443
0.000155265
0.000222178
0.000153374
0.0451068
0.000167549
0.000115676
0.000199275
0.000150668
0.0674941
0.00014441
0.0564689
0.000152306
0.0540183
0.00398079
0.0240267
0.0387844
0.000230707
0.000169621
0.000148567
0.0621248
0.000171095
0.000148086
0.0216587
0.0656316
0.000151029
0.000153361
0.000160074
0.000160115
0.000163811
0.0348579
0.000149865
0.000162587
0.000166933
0.000159376
0.000148872
0.00019179
0.000144662
0.0462666
0.0001517
0.000195142
0.000161554
0.000168427
0.000185553
0.00729215
0.000183716
0.000146505
0.000191149
0.0595006
0.0669734
0.000149975
0.0427149
0.000159621
0.000304048
0.00014812
0.000152848
0.053344
0.000178958
0.0278015
0.0257852
0.00015907
0.0737149
0.000147712
0.000144598
0.0221199
0.000165609
0.000152794
0.0754059
0.000156535
0.000163894
0.000157498
0.000178486
0.000148745
0.0550132
0.0586544
0.00954237
0.000242887
0.000155311
0.000173059
0.0295353
0.000152318
0.000149071
0.000178415
0.000145261
0.000187021
0.0490682
0.0215265
0.0283175
0.000180092
0.000150196
0.0600953
0.000144396
0.000187447
0.000149464
0.0383523
0.000152228
0.000165079
0.0392229
0.000194988
0.000147749
0.000159324
0.0104014
0.000148353
0.000205307
0.000146357
0.0615926
0.0547548
0.000198445
0.000168614
0.000147161
0.000198213
0.000205338
0.000168094
0.00014638
0.000150426
0.000148718
0.00017968
0.000148541
0.000192101
0.000148562
0.000146623
0.0839571
0.000147211
0.000156481
0.000155765
0.000149791
0.0449346
0.000147075
0.000161437
0.0570259
0.000177144
0.0432153
0.000148268
0.0594037
0.000178545
0.0744619
0.000151826
0.000202395
0.00014941
0.000169826
0.000201754
0.000199405
0.000217606
0.0540689
0.000210729
0.000406717
0.000155138
0.000198849
0.000163497
0.000130847
0.000153245
0.000149201
0.000148061
0.000178115
0.000165565
0.00313512
0.000177598
0.0515712
0.0612915
0.000171667
0.000147872
0.0142114
0.000180836
0.000149535
0.000152184
0.000148283
0.0443842
0.000148062
0.0171867
0.000147084
0.000158318
0.0372726
0.000172036
0.000147985
0.000148011
0.0252527
0.000147089
0.000152289
0.000155273
0.000160562
0.000157543
0.000148598
0.000206987
0.000168963
0.00016315
0.000227641
0.0448243
0.043106
0.0306404
0.000145489
0.000147736
0.000173426
0.000150197
0.000163763
0.042912
0.0430151
0.000144895
0.000148038
0.0412555
9.46127e-05
0.000145062
0.00014656
0.000154752
0.0569981
0.0507898
0.000156325
0.000162099
0.000149173
0.000254083
0.000202594
0.00017579
0.000158153
0.000164126
0.000149424
0.000165984
0.000223695
0.000150172
0.000148822
0.000155936
0.0575009
0.00015359
0.0226664
0.000148412
0.051197
0.000162367
0.000155903
0.000145794
0.000147019
0.00025686
0.0605651
0.000165509
0.0245694
0.0567272
0.000149619
0.0529585
0.000204744
0.000147536
0.0224556
0.000118499
0.000198266
0.000149613
0.0399697
0.0376069
0.000148247
0.000163088
0.0298067
0.000167106
0.000148116
0.000146497
0.000149595
0.000153419
0.000183713
0.000232132
0.00016858
0.000181321
0.000145611
0.000148683
0.0465193
0.000146829
0.000169088
0.000154727
0.000149475
0.000174275
0.00014781
0.000151823
0.000246303
0.000147558
0.0431745
0.000147805
0.0044737
0.0491012
0.000189192
0.000148831
0.000149939
0.0588586
0.000144773
0.000153041
0.000149229
0.000207573
0.000320694
0.000163685
0.0484646
0.00016309
0.000621612
0.000149734
0.000185656
0.000147078
0.000148674
0.0215008
0.0469914
0.000301943
0.000152336
0.000184773
0.00018524
0.0391092
0.0575107
0.000242045
0.000166478
0.000144344
0.0504755
0.000147741
0.000148007
0.000234766
0.000199583
0.000156453
0.000180382
0.000164435
0.000159453
0.000157507
0.0762363
0.00015377
0.000147515
0.0206929
0.000164614
0.000145513
0.0349656
0.000147798
0.00014845
0.000206484
0.000188729
0.0394704
0.000145652
0.000153054
0.000147047
0.000319341
0.000146962
0.000203877
0.0121051
0.0461477
0.0325392
0.0151215
0.000157351
0.0428123
0.00022812
0.000149254
0.000158232
0.000163228
0.000157596
0.000254461
0.0450942
0.0516714
0.0458774
0.000364146
0.000148569
0.000196518
0.000147851
0.0214687
0.000159241
0.000152187
0.000153205
0.000150413
0.000146964
0.000195508
0.0532163
0.000145368
0.00015235
0.000146443
0.0398047
0.000152121
0.0787269
0.0433617
0.000261016
0.000148321
0.00014704
0.0372183
0.000194809
0.000148669
0.000194434
0.000149407
0.000189988
0.000179833
0.000190571
0.000177503
0.033775
0.000146257
0.000147177
0.000240076
0.0356965
0.000158945
0.000167286
0.000147334
0.0158827
0.000147783
0.000147183
0.000151373
0.000147799
0.00691523
0.0442292
0.00128425
0.000183146
0.0588128
0.00022989
0.000144896
0.000162652
0.000145287
0.000260417
0.00014839
0.000153194
0.000147763
0.000146974
0.000146693
0.000409276
0.000151486
0.000285854
0.000144984
0.000158563
0.00015782
0.000273248
0.000147954
0.000162586
0.000167001
0.000173626
0.0783107
0.000146954
0.0326196
0.000177502
0.000165258
0.000148674
0.000147273
0.0368895
0.00955117
0.00014847
0.000147501
0.000246083
0.000246134
0.000160807
0.056544
0.000150148
6.86482e-05
0.00016296
0.000145295
0.053229
0.000152214
0.0509863
0.000148032
0.000150342
0.000148521
0.0402191
0.0443554
0.000145048
0.000183218
0.00024383
0.000148009
0.000147349
0.000146988
0.000185087
0.0561946
0.000176268
0.000154784
0.000167001
0.000147834
0.000148154
0.000152519
0.000147597
0.000214042
0.000148249
0.000184321
0.000309988
0.000164081
0.00014449
0.0391318
0.000186708
0.000147899
0.000179575
0.000161765
0.000784983
0.000152638
0.0823585
0.000176123
0.000147805
0.00018445
0.00018472
0.000154208
0.082441
0.000182778
0.000162684
0.00117246
0.000147479
0.000187588
0.0001701
0.00018419
0.000147132
0.000147662
0.000144737
0.000158871
0.000180528
0.000179746
0.0607659
0.0323209
0.044289
0.000149725
0.000306568
0.0502959
0.0626195
0.000147796
0.000147992
0.000178209
0.0541293
0.000152479
0.000166663
0.0116843
0.0345196
0.00448944
0.000172807
0.00020724
0.0399355
0.000221727
0.000144684
0.0020613
0.000233029
0.000149364
0.00014974
0.00015037
0.0600282
0.000186758
0.0605523
0.000152689
0.00921445
0.000148645
0.000764914
0.0339955
0.000148769
0.000165324
0.0483767
0.0467766
0.000175192
0.000150839
0.000151802
0.000149343
0.000188369
0.00020157
0.000334969
0.0603303
0.000145903
0.0185039
0.000194036
0.00029465
0.000147759
0.000148875
0.00432547
0.000184942
0.000147544
0.000173149
0.000167988
0.000161146
0.0451435
0.0597226
0.0647634
0.0581424
0.000153946
0.000145278
0.000166925
0.0278638
0.0638199
0.000148067
0.000185872
0.000170138
0.000197445
0.000150684
0.000149639
0.000245648
0.0103193
0.00943029
0.00028208
0.0251077
0.0001473
0.000184539
0.056878
0.000148898
0.00016635
0.000193084
0.00014516
0.000207984
0.0704189
0.000182679
0.00014963
0.0202562
0.000197494
0.047849
0.000143703
0.00015323
0.000148597
0.000152543
0.000148475
0.000172105
0.000163162
0.000162939
0.000189424
0.000165011
0.0432356
0.000153535
0.000161723
0.000157253
0.0209072
0.000165561
0.0332419
0.000157028
0.000155893
0.0108592
0.00017109
0.000148313
0.000163257
0.0129579
0.065038
0.000225724
0.000147701
0.000147169
0.0001475
0.00026021
0.000151
0.00034163
0.000265207
0.000184654
0.000160483
0.00021431
0.0284164
0.000148465
0.0694518
0.000160193
0.000164207
0.000147616
0.000147921
0.000175772
0.0597164
0.000148169
0.0300659
0.000221887
0.000171323
0.000201809
0.000147073
0.000147752
0.000160981
0.000151758
0.0600929
0.0258275
0.000171019
0.000256024
0.000147619
0.000148462
0.000148839
0.000149543
0.0829728
0.000152004
0.0416951
0.000169942
0.000150782
0.000194099
0.000455052
0.0401789
0.0207652
0.000152648
0.000146932
0.000148598
0.000153327
0.000220913
0.000183128
0.0825829
0.000148797
0.000150194
0.000178299
0.000149665
0.000197139
0.000151645
0.000176864
0.000178327
0.000163074
0.000163232
0.000145644
0.000172577
0.000162657
0.000183416
0.000168921
0.000163514
0.000146514
0.000191528
0.000146971
0.000809126
0.0482411
0.000231463