/*--------------------------------*- C++ -*----------------------------------*\
| =========                 |                                                 |
| \\      /  F ield         | OpenFOAM: The Open Source CFD Toolbox           |
|  \\    /   O peration     | Version:  v2012                                 |
|   \\  /    A nd           | Website:  www.openfoam.com                      |
|    \\/     M anipulation  |                                                 |
\*---------------------------------------------------------------------------*/
FoamFile
{
    version     2.0;
    format      ascii;
    class       volScalarField;
    location    "300";
    object      nut;
}
// * * * * * * * * * * * * * * * * * * * * * * * * * * * * * * * * * * * * * //

dimensions      [0 2 -1 0 0 0 0];


internalField   nonuniform List<scalar> 
13917
(
0.000422817
0.00216233
0.0119344
0.00307651
0.0058335
3.65792e-05
0.0119063
0.00892989
0.0113853
0.000277097
0.00103958
0.00157925
0.00322811
0.00141769
0.000589436
0.000800789
0.00223026
0.000595821
0.00183374
0.00583244
0.00583588
0.0130862
0.00583282
0.0115055
0.00584005
0.0125193
0.000162589
0.000110667
3.1304e-05
0.000331452
0.000453086
0.000750369
0.000222403
0.000574741
0.00584165
0.000104928
0.00583288
0.0119594
0.00262663
0.00298474
0.00583951
0.00583627
0.00583227
7.29566e-05
0.00353328
0.00048596
0.00068656
0.000675801
5.44643e-05
0.00583037
0.00139198
0.00196872
6.24176e-05
0.000515804
0.0020007
0.0011573
0.00110153
0.00342499
0.00124225
0.00350771
0.0066465
0.0025113
0.000334679
0.00583221
3.72367e-05
0.001617
0.00583375
0.00584226
0.000559381
0.000374778
0.00583316
0.0111217
0.0100841
0.00583852
4.79629e-05
0.0022224
0.00550184
0.00222994
0.012948
0.00583524
0.00583458
0.00583353
3.6398e-05
0.0130657
0.00954391
0.00243201
0.00583408
0.000725919
0.00142797
0.00583329
0.0117542
0.00030059
0.00530689
0.00119138
0.00106121
3.76809e-05
0.000808657
0.000693399
0.00142296
5.69955e-05
0.00583049
0.00025511
7.05933e-05
0.00213306
0.00583849
0.0112429
4.19894e-05
0.000760064
0.0021255
0.000396875
0.0110627
0.00370366
0.00193143
0.0137283
0.00121458
5.17781e-05
0.00583447
3.97983e-05
0.00513981
0.000527688
0.00583604
0.000720649
0.00643407
0.000131645
0.00583254
0.00130669
0.00337584
0.00583303
0.005829
3.63902e-05
0.0118396
0.00117397
0.00334104
0.00583602
0.00130187
0.0106746
0.000420628
5.26255e-05
0.00583386
0.000553393
0.000408137
0.00585326
0.00150437
5.87039e-05
0.00554069
0.00944177
4.07635e-05
0.00184764
0.00584747
0.000628139
0.000906348
5.19238e-05
0.00127735
0.00029391
0.000913412
0.00368972
0.00042918
0.00141141
0.00325612
0.00156887
0.000796584
0.00015995
0.00583527
0.000810594
0.00192749
0.00144534
0.00213953
0.000822522
0.00475964
0.000255631
0.000277329
0.00380078
0.001953
0.00163453
0.0084649
0.000247
0.0125299
4.20528e-05
0.00995243
0.00521984
0.000301345
0.000448839
0.00585347
0.00583389
0.000414067
0.0118226
0.000349291
0.00346852
0.000737783
0.00153191
0.000247449
0.00952341
0.000266485
0.00583298
5.486e-05
0.000162325
0.00544499
0.00497515
4.72847e-05
0.000222378
0.00191278
0.00583052
0.000958031
0.00106619
0.00803068
0.000912796
0.0058405
0.00365035
0.00072126
0.0112591
0.00164911
0.0123316
0.00418518
0.00152719
0.00583741
2.73214e-05
0.000788919
0.00469525
0.00583748
0.00720744
0.00577554
0.000381188
0.00583437
0.0125958
0.0115538
0.00075055
0.000196993
0.000923658
0.00583755
0.000145323
0.0020121
0.000785382
0.0101294
0.00255103
0.00582911
0.000698415
0.0130587
0.00756552
0.00583509
0.00583132
0.00412298
0.000735801
0.00583573
0.000728293
0.000528671
0.000158605
0.000499177
0.00583509
0.000210196
0.00349337
0.00553645
0.00025906
4.85591e-05
0.00355263
0.00366476
0.00123384
0.00721251
0.00109112
0.000347251
0.000649873
0.00583584
0.00405265
0.00923865
0.000267814
0.00583652
0.00891431
0.00360747
0.00311926
0.0130332
0.0021764
0.00583483
0.00583005
0.000706465
0.0104157
0.000571059
0.00134434
0.000945816
0.00198837
0.00582731
0.00661543
0.00583194
0.00939129
0.00184356
0.00583556
0.000573839
0.00027362
0.000167369
0.000425539
0.00035985
0.00429545
0.000153056
0.0102627
0.00823302
0.00583705
0.00414471
0.00583364
0.00437843
0.00583395
3.26783e-05
0.00583138
0.000384496
0.000507085
0.00505405
0.000909279
0.00151292
5.31102e-05
0.000272412
0.0003066
0.00587246
0.00399381
0.0101212
0.00540938
0.00583458
0.00583238
0.00609276
0.00500884
0.0112702
0.00586813
0.0132953
0.00439041
0.000198687
0.00119463
4.94872e-05
0.000818254
0.000152896
3.45759e-05
0.000631799
0.000728755
4.91337e-05
0.00203625
0.0115898
5.60483e-05
0.00504761
0.000641002
0.00302054
0.000649577
0.0124795
4.09297e-05
7.87954e-05
8.11219e-05
0.0104103
0.00583479
0.000294199
0.0123261
0.00242148
0.00110408
0.00427745
4.36612e-05
0.00188638
0.000318239
3.08866e-05
0.00582976
0.0036942
0.000233999
0.00583177
0.00583399
0.0058338
0.00584778
0.000461418
0.00892404
3.29577e-05
0.0116379
0.00583655
0.000255312
0.00122252
0.000928047
0.0131948
0.0120236
0.0125228
0.00583086
0.000544359
0.00583394
0.00637956
0.00361471
4.78445e-05
0.000462027
0.00247126
0.00583438
0.000750524
0.000288158
0.000629538
1.3949e-05
0.011974
0.00236566
0.000195806
0.00029083
0.00583114
0.0080368
0.0132164
0.00301062
0.000217055
0.00583547
0.000689617
0.00490065
0.005835
0.00138441
0.0127665
0.00142719
0.00882427
0.0017939
0.00119079
3.35788e-05
0.00213975
3.13382e-05
3.15298e-05
0.0058325
4.42492e-05
0.00246517
0.00583813
0.000358374
0.00583558
0.00584002
0.00583382
0.000679511
0.00583547
0.00416503
0.0109591
0.000982175
0.000291431
0.0108933
0.00477711
0.00104203
0.00583551
0.000468718
0.00260707
0.00066121
0.00583309
0.00966331
0.0111523
0.0105334
0.000729775
0.000506177
0.000726599
0.0025929
0.000630359
0.0014316
0.000372117
0.00216289
0.00583172
0.0127032
0.0121348
0.0126902
0.000196266
0.000548861
0.012765
0.0132621
0.00530377
0.00582861
0.000719558
0.00141429
0.00300199
0.000371614
0.000709742
0.00591455
0.000496365
0.000984471
0.00501517
0.00583258
0.000753054
0.000768184
0.000310989
0.00637394
0.00583563
0.00332087
0.00598698
0.000399553
0.00583081
0.0106228
3.52393e-05
0.000401395
0.00696163
0.00117221
0.000899077
0.0140829
3.37099e-05
0.00122949
0.000323715
0.000751816
0.0004433
0.000498013
0.00139441
0.00125485
3.98328e-05
0.00166123
0.000703594
0.00587683
0.00094143
0.00128109
0.00586409
0.000428033
0.00234734
0.00588455
0.0119345
0.00585301
0.00583221
0.00990586
0.00276847
0.00583556
0.00397224
0.00290892
0.000269885
0.00564183
0.00711871
0.000853204
0.000711416
0.00223653
0.011951
0.000266186
0.00176101
0.00583579
0.00444088
5.21858e-05
0.00628702
0.0058652
0.00904483
0.0116624
0.0011786
0.005834
0.00213229
0.00230122
0.000405812
0.00590195
0.00583313
0.00582947
0.00582949
0.00691811
0.00055565
0.00119306
0.000352737
0.00583944
0.00583018
0.00051667
0.0149817
0.000762427
0.00423588
0.00583752
0.00583619
0.00706626
0.00932541
0.00583389
0.00583652
0.00056271
0.00144428
0.00124188
0.00305809
0.00129741
0.000714684
0.000753626
5.03667e-05
0.000444812
0.000479605
0.000578874
0.00073439
0.000313857
0.00583667
0.00489076
0.00583586
0.000971884
0.00216548
0.00106753
0.000119242
0.00583191
0.00031572
0.000329178
0.000366146
0.000595194
0.000223623
0.0010461
0.00583396
0.0127684
0.000245426
0.0140086
0.00237566
0.00100326
0.000450994
0.0125774
0.000365434
0.000674608
0.000192546
0.000734723
0.00128726
0.00320526
0.000126119
6.86026e-05
0.00255305
0.000811439
5.00443e-05
0.0139351
0.00231101
0.00106357
0.00085701
0.000828803
0.000599123
0.00163273
2.99768e-05
0.0100072
0.0108965
0.000337097
0.00582975
0.00460332
0.00221506
0.00583844
0.000724181
0.000895785
0.000231174
0.000343828
0.0129937
0.000491423
0.00145471
0.0124875
0.00190799
0.00354434
0.0058353
0.00583374
0.00455523
0.0116989
3.50418e-05
0.00193724
0.00163463
0.00583599
0.00191081
5.43095e-05
0.00152015
0.00122644
0.00126131
0.000769078
0.00531161
0.000174995
0.00155916
0.00036174
0.0058386
0.00048746
0.00212228
0.00142962
0.000302961
0.000126229
0.000900228
0.0058292
0.00585686
0.00321253
7.89538e-05
0.000370892
0.000658155
1.4856e-05
0.00085717
0.00582969
0.000467254
3.0941e-05
0.000294914
0.00556759
0.000474254
0.00583314
0.00202597
0.00123534
0.0140315
0.00583507
0.000129643
0.00202693
0.00109957
0.000275009
0.00992477
0.000131453
0.00226531
0.00930517
0.000605112
0.00326321
0.00238483
0.00149573
0.000306778
0.00061583
0.00583493
0.00231222
0.000152831
0.00252787
0.000588463
0.00130531
0.00585841
0.00105542
0.0110545
0.00591792
0.00354655
0.00582977
0.0048563
0.00583585
0.000795863
0.00454119
0.00109304
0.0094439
0.00092717
0.000200443
0.00582972
0.000201654
0.00583366
0.000446033
0.0058291
0.000154042
0.00320387
0.000664875
1.70055e-05
0.0149026
0.00595211
0.00583433
0.000325679
0.000425874
0.00667642
0.0143862
0.000660504
0.00583929
0.000679303
3.26453e-05
0.00037901
0.000469211
0.000743349
0.0126802
0.000417333
0.00206988
0.000406365
5.34933e-05
0.000647441
3.19186e-05
0.00061561
0.00275195
0.000912357
0.00058479
0.00588227
0.00205751
0.000400459
0.00064728
0.00583415
0.00583289
0.00080894
0.00231485
0.000524341
0.00583839
0.00583517
0.00583598
0.00135088
0.00583731
0.000920512
0.00583009
0.00663446
0.00175287
3.7712e-05
0.00583017
0.00583545
0.000130795
0.000467045
0.00132371
0.00866556
0.000217997
0.00467043
0.0020053
0.000499206
0.00293651
0.00583594
0.00582927
0.00138695
0.00249058
0.0058356
0.00233885
0.000817713
0.00164477
0.000167346
0.000214578
0.00108196
0.00583777
0.00583636
0.0019024
0.00555345
0.00172715
0.0069709
0.00156428
0.0058338
0.000935942
0.00583084
0.00583755
0.000708482
0.000401564
0.0043326
0.000515136
0.0059183
0.00583594
0.0135878
8.96917e-05
0.00230675
0.00258769
0.00747826
0.000997483
0.00262768
0.000245762
0.00275852
0.00582926
0.00583523
0.0016257
0.000470294
0.000897865
0.000582889
0.010507
0.00231872
0.000932808
0.00202824
0.00583566
0.00139946
0.00386843
0.00583142
0.000404
0.000147547
0.00247787
0.0115005
0.00576138
0.000288738
0.00583713
0.00584435
0.00156318
0.00241897
0.00583557
0.000586298
0.00584277
0.000434159
0.00590163
0.00588926
0.000305959
0.00415161
0.00473384
0.000519504
0.00583595
0.00583315
0.00346039
0.00584129
0.00357995
2.43722e-05
0.00591199
0.00587115
0.0125425
0.00910009
0.00161515
0.000395844
0.000634958
0.00146206
0.00585423
0.00039804
0.00711273
0.000143382
0.00583343
0.00259339
0.0137539
0.000910109
0.0129446
0.00583584
0.00121603
0.00368601
0.00102352
0.00242052
0.00219731
4.06316e-05
0.00584053
0.000414278
0.0058293
0.00415455
0.00583059
0.0104119
0.0058365
0.00593145
0.00585448
0.00629045
0.00257311
0.000256285
8.82484e-05
0.00589273
0.000253022
0.0058338
0.0119782
0.00583194
0.00570779
0.00583383
0.00151171
0.00583364
0.000512619
0.00343028
0.00925204
0.000473672
0.000326614
0.00613186
0.00411038
0.00310011
0.00681546
0.00763575
0.0109023
0.0136059
0.00022873
0.000418671
0.00223582
0.0131179
0.00104975
0.013455
0.00586155
0.00537947
0.00248774
0.00583365
0.00141344
0.000301121
0.00709402
0.00557495
0.00583513
0.00176684
5.63522e-05
0.00359088
0.000221386
0.000841075
0.00310422
2.32933e-05
0.000164131
0.000863993
0.00304072
0.00353509
0.00303061
4.02877e-05
0.00589633
0.000304289
0.00034523
0.00744752
0.0119
0.00201337
0.00517379
0.00282194
0.00225874
0.00583412
0.0013623
0.00582693
0.000763135
0.000373282
0.00728683
0.000626331
0.00592858
0.000507769
0.0135758
0.000414277
0.00196106
0.00423806
0.0051001
0.00191803
0.000191058
0.00643303
0.00583362
0.00584
0.0126117
0.000468048
0.000518107
0.000587199
0.000248713
0.00583868
0.000498037
0.0019415
0.00583249
0.00191571
0.0122281
0.00441929
0.0058748
0.00583393
0.00360917
0.00144739
0.00163089
0.000978406
0.00584144
0.0019574
0.000507847
0.00589781
0.000452073
9.29059e-05
0.0128096
0.0036645
0.000144624
0.000981916
0.00895256
0.0131223
0.00583913
0.00974629
0.000627718
3.9986e-05
0.00583368
0.012872
0.00583511
0.00109359
0.000389046
0.000584289
0.0108523
0.000229531
0.00111271
0.010047
0.00582925
0.000778328
0.00588888
0.000618897
0.0122736
0.00284757
0.00583537
0.00175584
0.00305509
0.00773396
0.00583515
0.00583272
0.00108521
0.000451391
0.000889457
3.40946e-05
0.00143173
0.00246261
0.00213416
0.000822927
0.00197603
0.00795985
0.00149758
0.00443755
0.0130553
0.0018587
0.0059019
0.0109276
0.000369829
0.00191231
0.00047836
0.000743469
0.0039469
0.00144867
0.00274663
0.000382743
0.00583638
0.000782712
5.47346e-05
0.0058337
0.00050316
0.00588243
0.000150849
0.00582953
0.0005122
0.000702469
0.00222996
0.00390954
0.00587535
2.75122e-05
0.000257222
0.00877592
0.00584097
0.00260439
0.000823262
0.00403382
0.000413063
0.000259625
0.0045927
0.00051966
0.00587846
0.00731014
0.00207048
0.00161912
0.00542045
0.00079324
0.00583902
0.00111157
0.00248708
0.00583248
0.00583324
0.00860085
0.0119803
0.000742303
0.00117739
0.00583224
0.00397792
0.0116536
0.00159824
0.00583799
0.000285567
0.00588828
0.000761712
0.00583448
0.00583671
0.00243633
0.00141239
0.00945883
0.00257786
0.00203554
0.0058383
0.000633405
0.00583111
3.46416e-05
0.000508775
0.00583579
0.0091608
0.000186794
0.000427854
0.0132704
3.28399e-05
0.0058713
0.00200123
0.00324263
3.55035e-05
0.000564947
0.00934016
0.00546569
0.000857792
0.0134854
4.4098e-05
0.000825591
0.00130534
0.000143144
3.64931e-05
0.0100424
0.000121006
0.000378336
0.0136238
0.00159281
0.000760354
0.00850122
0.000102439
0.00586325
0.00203822
0.00555987
0.000330238
0.00585182
0.000191262
0.000405611
0.000451551
0.00858993
0.00112374
0.00966282
0.00199694
0.000455727
0.000482911
0.00030637
0.000888113
0.00587425
0.00168681
0.00952294
0.00583424
0.000788443
0.00585771
0.00132839
0.0053326
0.000250473
0.00127222
4.14802e-05
0.000164174
9.75692e-05
0.00964364
5.2116e-05
0.00538219
0.00130003
0.0114356
0.00584504
0.00583326
0.000883229
0.00341425
0.00583541
0.000556437
7.36749e-05
0.000278715
0.00363841
0.00300653
0.00589426
0.000506331
0.000282985
0.00583
0.000690891
0.0127197
0.00022537
0.000628136
0.0014323
0.000445855
0.00116407
0.00144368
0.00852998
0.00123285
0.00199467
2.14452e-05
0.00074602
0.0058361
0.00492907
0.00283991
0.00512361
0.0013961
0.00021969
0.0058392
0.000988511
0.00583077
0.000904586
0.00588355
0.00022262
0.00132717
0.000381396
0.00434329
0.000268157
0.00496554
0.00789542
0.00583633
0.000572427
0.00583328
0.000775162
0.00841404
0.00134952
0.00584016
0.00067886
0.00354775
0.000652731
0.0116402
0.00437274
0.00181139
0.000474813
0.00074284
0.0133436
0.00583972
0.000444717
0.00311282
0.00583383
0.000298471
0.00186838
0.00582941
0.000909256
0.00443591
0.00113409
0.000407865
0.0096055
0.000631589
0.0102993
0.00120637
0.00582952
0.000372988
0.00280743
0.0030452
0.000337793
0.00121813
0.000702166
0.00584049
0.000611095
0.00049716
0.000556012
0.00584515
0.00583271
0.00114929
0.00172572
0.00583627
0.000239668
0.00585941
0.000727075
0.000757339
0.00111601
3.8623e-05
0.0127922
0.00247944
0.00113303
0.00296189
0.00207253
0.00143435
3.59548e-05
0.00334562
0.000777877
0.00551074
0.000980073
0.000445951
0.000628609
0.00586714
0.00583561
0.00583176
0.00327697
0.000445314
0.00588745
0.000839913
0.00201316
0.00179229
0.000283957
0.0104744
0.000334806
0.00172719
0.0135015
0.00241316
0.00407893
0.00231724
0.000120401
0.00584021
0.00408641
0.00474722
0.00336474
0.00302288
0.0125104
0.000343633
0.00229577
0.00583044
0.00589021
0.013827
0.00254865
0.000146811
0.000925382
0.00583572
0.000563874
0.000708093
0.0058335
0.00583074
0.0129514
0.00551631
0.00265263
0.00184449
0.00324984
0.000728065
0.000213342
0.00478689
0.00137919
3.09823e-05
0.00387658
0.000427253
0.0013882
0.00285068
0.00152823
4.78249e-05
0.000363037
0.00583476
0.00123171
0.0113294
0.000966946
0.000134333
0.0117841
3.99523e-05
3.95034e-05
0.000585168
0.00218137
0.00583519
0.00583601
0.00325315
0.00082063
0.00219643
0.00280133
0.00136188
0.00583599
0.004298
0.00584286
0.00118238
0.00177019
0.00888457
0.000161546
0.00172336
0.00967581
0.000406726
0.000772487
0.00583048
0.000496177
0.00285905
0.00263387
0.00120577
0.000867144
0.000613835
0.000107021
0.0118016
0.00040156
0.00515673
0.0109246
0.00583267
0.00307657
0.00017346
0.00583595
0.00548936
0.000667159
0.00942496
0.00588824
0.00956547
0.00265651
0.00587059
0.00126171
3.42487e-05
0.000650435
0.00251261
0.00597113
0.00159523
0.000665731
0.0123751
0.00583519
0.000135401
0.00583033
0.00326445
0.000566542
0.00584399
0.0117734
0.000740803
7.66373e-05
0.00583615
0.00412181
0.000393408
3.48375e-05
0.00320262
9.22224e-05
0.00407423
0.00587033
2.59624e-05
0.00273527
0.000456928
0.000108183
0.00583517
0.00696145
0.00104483
0.000642428
0.000534785
6.68604e-05
0.000237775
0.000190407
0.00161928
0.0117825
0.000358086
0.00280477
0.000365003
0.00119926
0.00389481
0.000470379
0.00375093
0.00218982
0.0100175
0.00170475
0.00584755
5.15386e-05
0.00233895
0.00441113
0.00236957
0.010154
0.000359872
0.000469077
0.00583427
0.00583413
0.00583466
0.0058295
0.000483432
0.00014584
0.000181047
0.00086664
0.00583182
0.00125726
0.0022159
0.000506698
0.00176244
0.00436034
0.001139
0.000842999
0.00203884
3.98929e-05
0.00961231
0.000155148
0.0091969
0.00279581
0.00584119
8.70282e-05
0.0063989
3.72452e-05
0.00583374
0.0021969
0.00101773
0.0125604
0.00418273
0.000342908
0.00436622
0.000154352
0.000837567
0.0119017
0.000575653
0.00113167
0.000788486
0.00103385
0.000265239
0.00200213
0.0058336
0.000386172
0.00819113
0.0058334
0.00231642
0.00583553
0.00410445
0.00745356
0.0127119
0.00583002
0.00406045
0.00208365
0.00588622
0.000233641
0.000589475
0.0034405
0.00583212
0.0058323
0.00166756
0.000793152
0.000757677
0.000386589
0.00584308
0.0134196
0.00218808
0.0146305
5.3401e-05
0.00051727
0.000341645
0.000965624
0.0130693
0.000802227
0.00136774
0.00183532
0.0110756
0.0101154
0.00582932
0.00583364
0.000310449
0.0125002
0.00683184
0.00589673
0.00338174
0.0122947
0.000418427
0.00132646
0.00121194
0.00079251
4.33851e-05
0.00228494
0.0133674
0.00425601
0.00045153
0.000108352
0.00352212
0.0058403
0.00582923
0.000523105
0.00885561
0.00120036
0.00188782
0.00139986
0.000141092
0.0033734
0.00148764
0.00903183
0.00275863
0.00489827
4.02538e-05
0.00583576
0.00583367
0.00932102
0.0058331
0.00586145
0.00123855
4.96503e-05
0.000818231
0.00359231
0.00038573
0.00583521
0.013857
0.000541119
0.00531652
0.00274915
4.65134e-05
0.000607089
0.00414457
0.00103223
0.0136425
0.00583385
0.00890275
0.00426501
0.00901406
9.56378e-05
0.000228267
0.00564515
0.00226919
0.000182493
0.00121047
0.00866159
0.000564373
0.000234145
0.000447387
0.00118875
0.000397768
0.00451352
0.00140195
0.0120848
0.00287085
0.00583594
0.00450578
0.0010024
0.00312642
0.00069094
0.00583471
0.000557541
0.00205508
4.46146e-05
0.00014294
0.00572526
0.00582928
7.09147e-05
0.0028142
0.000779675
0.0011349
0.000508564
0.00411769
0.00185628
0.00147643
0.00218213
0.00745751
0.0130944
0.00583204
0.00582904
0.00204986
0.00151651
0.00583503
0.00196937
0.000571673
0.000872933
4.33034e-05
0.00586456
0.0139292
0.00752156
0.00583615
0.00207236
0.000924388
0.00159912
4.21269e-05
0.00209726
0.00721851
0.000397189
0.00110328
0.000832115
0.0058327
0.000817454
0.00536358
0.00334443
0.000299893
0.00885263
0.0101487
0.00583539
0.00583098
0.0014375
0.00372924
0.000439927
0.00160073
0.000428363
0.00207888
0.0107329
0.00316037
0.0139164
0.00583328
0.0133619
0.00242578
0.00583311
0.00859443
3.34044e-05
6.08775e-05
0.00037091
0.000146781
0.000826742
0.00584125
0.00689475
0.00583634
0.00583483
6.637e-05
0.00189963
0.00391507
0.00904324
0.000481341
0.0103564
0.000392665
0.000217711
0.00591028
0.0013648
0.00142203
0.0134728
0.000657647
0.0129199
0.00688203
0.00388527
0.00352278
0.00348314
0.000218298
4.09542e-05
0.00194843
0.00583319
0.000656617
0.000805207
0.00086561
0.000613719
7.56449e-05
0.00583142
3.19074e-05
0.000368942
0.0025821
0.000578766
0.00119994
0.00140646
0.0144879
0.00582903
0.000422997
0.010505
0.00144225
0.000904785
0.000561042
5.10931e-05
0.00133215
0.00378031
0.00136211
0.000722676
0.00200114
0.000385773
0.00265086
0.0131836
0.00583112
9.05565e-05
4.21804e-05
0.0124525
0.000593749
0.000357342
0.00187427
0.000145413
0.00583569
0.0122766
0.00149601
0.00437674
0.000961356
0.00583205
0.0058358
4.44644e-05
0.00583438
0.00583338
0.00319704
0.000782582
0.00210988
0.000511915
0.000930359
0.000265678
0.000388944
0.00583538
5.94445e-05
3.16756e-05
0.000354015
0.000367007
0.00043705
0.00056535
0.00849259
0.000349551
0.00583618
0.006365
0.0105145
0.00583615
0.00138577
0.00583096
3.7252e-05
0.000305495
0.00413845
3.92332e-05
0.0128959
0.00583104
0.00215883
0.0122691
0.00799802
0.00195655
0.00583481
0.00356767
0.0114314
4.87086e-05
0.00583373
0.0138105
0.00215427
9.23798e-05
0.0114237
0.00122355
0.00583148
0.000891266
0.00031724
0.000994818
0.01232
0.0142457
0.00584806
0.00939058
3.60916e-05
0.00806399
0.00583383
0.000114358
0.00201264
0.0054594
0.0145002
0.00201753
0.000806353
0.00228557
0.000443536
0.000603926
0.00592141
0.0136173
0.00380982
0.00584011
0.00250811
0.000270522
0.00590752
0.000802997
0.0139401
0.00892488
0.000612504
0.00233891
0.00434344
0.014514
0.000647709
0.000723601
0.0058468
0.00128251
0.00031878
0.00233956
0.000292805
2.78017e-05
0.0058336
0.000721193
0.00594893
0.000155548
0.00728879
0.00297829
0.00583409
0.00583644
0.00162466
0.000561814
0.00231436
0.0142643
0.0133567
0.00586574
0.00583983
0.00583394
0.00583153
2.39383e-05
0.00587432
0.0120793
0.000449791
0.0020139
0.00558975
0.000311961
0.0144512
0.000982927
4.29884e-05
0.00815527
0.00198696
0.00367928
0.000255478
0.000208588
4.65278e-05
0.00370613
0.0078264
0.00184299
0.00584134
9.06865e-05
0.00587497
0.000603257
0.00216417
0.0107648
0.000319129
0.000285866
0.000349466
0.000633835
0.00583309
0.000296027
0.00124289
0.00583584
3.94022e-05
0.00582897
0.00193995
0.000832233
0.00237857
0.00771569
0.00114765
3.57949e-05
0.0012797
0.00583387
0.00986308
0.0129356
0.000749479
0.000251111
0.00145473
0.000348219
0.00130728
0.00196491
0.000592157
0.00141922
0.000694519
0.000617189
0.0106945
0.000134121
0.000310088
0.00157887
0.00282189
0.0144985
0.00582719
0.0111297
0.000757347
0.0125752
0.000659332
0.00263765
0.00497352
0.000699406
9.13056e-05
0.00429894
0.0141772
8.52122e-05
0.00544277
0.00274343
0.00938366
0.00103378
0.00222953
0.000588677
0.00066933
0.00114137
0.00660805
0.00583613
0.0019302
0.00146684
0.000377654
0.00583352
0.00123495
0.00584044
0.010178
0.000907965
0.000379828
0.000738761
0.000768459
0.000203731
0.00182219
0.000352332
0.00584572
8.22972e-05
0.0136502
0.00295884
0.0033273
0.0090109
0.00099322
4.33158e-05
0.00583634
0.000783655
0.0137456
0.00173839
0.00554939
0.00348928
0.000240172
0.0147162
0.00349509
0.00584158
0.00247778
8.97921e-05
0.000826503
0.0127464
0.000807898
0.000162556
0.000414348
0.000346439
0.00274768
0.00854081
0.00917842
0.00134989
0.000811398
0.00120325
0.00032525
0.00592533
0.000873097
0.00202731
0.000237403
0.00583905
3.48341e-05
0.0055767
0.00335561
0.0053097
0.00112136
0.0031659
0.0142801
0.00583188
0.00103033
0.00583523
0.00160162
0.00112896
0.00016508
0.0105399
0.000478759
0.005831
0.000357671
0.00116211
0.00344461
0.000661764
0.00585612
0.0064523
0.0129011
0.000710943
7.23334e-05
0.00583077
0.000868402
0.00129423
0.000743613
0.00585539
0.00334907
0.00583288
0.00110869
0.00583324
0.00133589
0.0027972
0.00586758
0.0123195
0.00534968
0.00086398
0.00192481
0.00583606
0.0123492
0.00554365
0.000419115
0.0140425
0.00177081
0.0110345
0.00352408
0.0134297
0.00179203
0.0132362
0.00116232
0.000932965
0.00436107
0.000806724
0.00112929
0.0013218
0.000383743
0.0130804
0.000344118
0.000204176
0.000536762
0.00103145
0.000213517
0.00015504
0.000647652
0.00448681
0.00452042
0.00106179
0.000197935
0.000986888
0.000784047
0.00936147
0.00899013
6.05043e-05
0.00356571
0.00291298
4.22627e-05
0.00167111
0.000772595
0.00306404
0.00826062
0.00490759
0.00206916
0.00562975
0.00148576
0.00756273
0.000127007
0.00583657
0.00483988
0.00317573
0.00553359
0.000895708
0.00142822
0.000444419
0.000827066
0.00247235
0.00125229
6.96215e-05
0.000164731
0.000642218
0.0101957
0.0118782
0.00491997
0.00583271
0.00491387
7.26685e-05
0.00303527
0.000152264
0.00944221
0.0114282
0.00583419
0.0058402
0.0124087
0.000153834
0.00583623
0.0058479
0.000487963
0.0043396
0.0126337
0.000930276
0.000486699
0.00583461
0.000634406
0.0011301
5.19913e-05
0.000273717
0.000193835
0.00178414
0.000589459
0.000686995
0.00135618
0.0032983
0.000913762
0.0116334
0.000724742
0.00312404
0.00583299
0.0133372
0.000311283
0.000393263
0.00583096
0.0058339
0.000272097
0.0077175
0.000101375
0.00577144
0.00539453
0.00148872
0.0131079
0.00132889
0.00587881
0.00484337
0.000260976
0.000615788
0.00583542
0.0115764
0.00838354
0.00479275
0.000252209
0.00699838
0.000323611
0.0032233
0.00586363
0.00237001
0.00191498
0.000401978
0.000767072
7.25419e-05
0.000364943
0.00584619
0.00242049
0.00848437
0.00586018
0.000353995
0.00047947
0.00491505
0.000594214
0.00583434
0.000940187
0.000687666
0.00583185
0.00962038
0.0058358
0.000292713
0.0134015
0.000449601
0.00234199
0.00583639
0.0140202
0.00583232
0.00114432
0.00190399
0.000150159
0.000400812
0.000762321
0.0131776
0.000195146
0.000366182
0.00146453
0.000911997
0.00589472
0.00583341
0.00426061
0.0125945
0.000207015
0.00123804
0.0007926
0.00081615
0.00817904
0.0139877
0.000709903
0.000526155
0.00583112
0.0121281
0.0046628
0.00400327
0.000746295
0.0011475
0.000422698
4.24131e-05
0.000171254
0.000421787
0.000813876
0.0148963
0.00140251
0.00583192
0.00307049
0.000151147
0.00584248
0.0101932
0.005831
0.00583319
0.000553332
0.000166874
0.00323897
0.00584275
0.000676387
0.00584093
3.54548e-05
0.00585752
3.50396e-05
0.00287966
0.0129026
0.00950043
0.000453491
0.000315194
0.00952893
3.7239e-05
0.00583467
0.000377837
0.000169424
0.000321723
4.06843e-05
0.0108435
0.0117491
0.0130593
5.29618e-05
0.00236457
0.000856889
0.00583077
0.00444078
0.00103447
0.00282265
0.00137034
0.00204655
0.00585197
0.000656586
0.0121095
0.00583152
0.00142202
0.00582899
0.00864309
0.00150579
0.0140371
0.010992
0.000190508
0.0058336
0.00585331
0.00840574
3.77887e-05
0.0058334
6.8544e-05
0.0058351
0.000212742
4.59275e-05
0.000519979
0.000943391
0.00316112
0.00584738
0.00589932
0.000961925
0.010839
0.000721048
0.000257977
0.00553992
0.00184055
0.00583834
0.00583195
0.00163499
0.00458329
0.00132723
0.0109323
0.000707155
0.00196835
0.013983
0.00036222
0.00583195
0.00118001
0.00583705
4.04262e-05
0.00422981
0.000761668
0.00584436
0.00583345
0.00587942
9.57963e-05
0.00325995
3.34107e-05
0.00586448
0.000256014
0.00605033
3.97045e-05
0.00583318
0.00102396
0.00154577
0.000204682
0.0101766
0.00583421
0.00772061
0.000332151
0.00020418
0.00592534
0.00583786
0.0106102
0.000599657
0.00431197
0.00484952
0.000829783
0.000913929
0.000179138
0.01414
0.00136543
0.000167069
0.00120931
0.00583408
0.00914797
0.00343778
0.0131019
0.00496713
0.00191209
0.0058332
0.00943973
0.0124608
0.00583395
3.89071e-05
0.000788197
0.0058311
0.00510887
0.00584429
4.06997e-05
0.0138728
0.000346828
0.00246589
0.000570068
0.00583346
0.00335248
0.0014866
0.00583167
0.000553937
0.00336288
0.00148369
0.000323426
0.000562496
0.00582766
0.00902046
0.000800107
0.00583327
0.00026684
0.00107403
0.000506433
0.000665483
0.00655337
0.000489284
0.00364137
0.000364184
0.000381039
0.0013438
0.0136184
0.00145802
0.00215749
0.000569591
0.00483227
0.000160636
6.92514e-05
0.000167106
0.00583351
0.00443526
0.00583178
0.000251499
0.00131406
0.00118578
0.00896146
0.00701654
0.0109812
0.00583588
4.43494e-05
0.0135114
0.0146263
0.00545447
0.00322331
0.000868674
0.012733
0.000848201
0.00119602
0.000358556
0.0068129
0.000264234
5.70976e-05
0.000535368
0.012041
0.000176255
0.00584188
0.000172198
0.000771764
0.00248544
0.00312555
0.00143922
0.013002
0.000358872
0.00811122
0.00116087
0.00106358
0.00294495
0.000417504
0.00894078
0.00233499
0.00105401
0.011355
0.008439
0.000453319
0.00190078
0.000966629
0.00174969
7.72175e-05
0.00152101
0.000121718
0.0144336
0.00584906
0.00350223
0.000220689
0.000225823
0.00583065
0.00583345
0.00162718
3.89444e-05
0.00476976
0.000505684
7.77622e-05
0.000174617
0.010062
0.0123225
0.0141319
0.0140291
0.000647362
0.00585185
8.44589e-05
0.00618812
0.00624608
0.00454097
3.55856e-05
5.84112e-05
3.26745e-05
0.00409072
0.00583569
2.90484e-05
0.00229981
0.0013187
3.30783e-05
0.00592822
0.00583471
4.24716e-05
0.0137804
0.00225464
9.11717e-05
0.000516866
0.00583601
0.000570288
0.0129871
3.91766e-05
0.00583564
0.00382468
0.000576055
0.00175192
0.00583216
0.0024012
0.00246889
0.00329326
0.00248427
0.000335956
0.000238611
0.00018224
3.53214e-05
0.00116192
0.0102358
0.000632595
0.00212774
0.00065218
0.00230324
0.000100169
0.00670131
0.000584786
0.000417507
0.000571511
5.87975e-05
0.00333027
0.000190826
0.00289066
0.00985637
0.000492059
0.00395465
0.00543531
0.00444443
0.000173706
0.00120639
4.10742e-05
3.95787e-05
3.89246e-05
0.000540635
0.000342465
0.00511087
0.00266134
0.00902265
0.000347597
0.000121859
0.00407765
0.00478448
0.000577091
0.0138765
0.00583146
0.00611992
0.000149708
6.76171e-05
0.000301305
0.0055799
0.00583213
0.0010123
0.00307937
0.00236305
0.00104217
9.19317e-05
0.000221821
0.00407995
0.00303559
0.00277936
0.00583516
0.00979276
0.002135
0.0092411
6.82402e-05
0.00433918
3.70399e-05
0.000161072
0.0117712
0.00243351
0.00199882
0.00589378
0.00583343
0.002955
3.87547e-05
3.83369e-05
0.0133468
0.00583357
0.00325986
5.26178e-05
0.00583553
0.000805354
0.000877357
4.70107e-05
4.56458e-05
0.000214241
0.000255495
0.00584474
0.000615869
0.000283372
5.51374e-05
6.84154e-05
0.000215085
0.00583123
8.67705e-05
0.00584944
0.000246088
0.0133227
3.85286e-05
0.00318751
6.61485e-05
0.00340717
0.000742343
0.00187319
0.00332924
0.000383086
0.00245691
0.0127545
7.3452e-05
0.000218686
7.17976e-05
0.000195275
0.011505
0.0138791
0.000444199
0.0123874
0.000121894
0.00583937
0.000110702
0.0145021
6.57764e-05
0.00583522
0.000500425
3.4882e-05
0.000336047
0.00273198
0.00310222
0.000107937
0.00583419
0.00584725
0.0016433
0.000221638
0.00583569
0.00675174
0.0121373
0.000559563
0.00706506
3.71621e-05
0.0136323
0.000441375
0.00584118
0.00112119
0.00585644
0.000161392
0.000733127
0.000530983
0.000786697
0.000246267
0.00586084
0.012988
0.00102119
0.000522607
0.0131304
5.53043e-05
0.00553916
0.014502
0.00444491
0.00284789
0.0058335
0.00040524
0.000137948
0.0135661
0.000908874
0.000426688