/*--------------------------------*- C++ -*----------------------------------*\
| =========                 |                                                 |
| \\      /  F ield         | OpenFOAM: The Open Source CFD Toolbox           |
|  \\    /   O peration     | Version:  v2012                                 |
|   \\  /    A nd           | Website:  www.openfoam.com                      |
|    \\/     M anipulation  |                                                 |
\*---------------------------------------------------------------------------*/
FoamFile
{
    version     2.0;
    format      ascii;
    class       volScalarField;
    location    "300";
    object      omega;
}
// * * * * * * * * * * * * * * * * * * * * * * * * * * * * * * * * * * * * * //

dimensions      [0 0 -1 0 0 0 0];


internalField   nonuniform List<scalar> 
13917
(
0.0445552
0.0253862
4.82156
0.0265714
0.0254423
0.487212
4.44969
4.99816
5.63548
0.0725832
0.168534
0.07037
0.0266411
11.6904
0.0294407
0.0282102
0.0255014
0.0579862
0.0690215
0.0254518
0.0256559
4.35682
0.0254236
4.99229
0.0253057
4.13982
0.0468819
0.0602669
0.820047
0.109293
0.0472993
0.0311091
0.0403831
0.028849
0.0253242
0.686576
0.0254352
3.84801
0.0283113
6.32922
0.0251605
0.0256811
0.0247382
0.0917993
0.0252513
0.0307775
0.0570654
0.0758322
2.85556
0.0253268
0.029871
0.025578
3.28716
0.0292675
0.0255142
0.0299058
0.166243
0.025286
0.0280722
0.0252135
10.2466
0.0253876
24.1975
0.0254366
0.449143
17.1042
0.0254362
0.0253435
0.18595
0.0407866
0.0254535
5.72434
4.35736
0.0253163
2.93664
0.0819601
5.75945
0.0258639
3.8523
0.0256159
0.0255728
0.0254467
0.425122
3.84116
4.78568
0.0257677
0.0255402
14.9145
0.0295935
0.0247246
4.13502
0.0958594
0.0250971
0.0262036
15.7222
0.4148
0.129565
0.0699648
0.142736
0.118249
0.0250565
0.0364801
0.0920892
0.026224
0.0250196
5.93595
0.501627
0.0800569
0.0255059
0.0507853
4.32307
5.57457
0.0902844
5.81634
0.0261701
3.28834
0.0253113
1.53614
5.12869
0.029236
0.0256653
0.179118
4.62529
0.0568903
0.0252714
0.026035
0.0252334
0.0252808
0.024773
0.463702
3.6058
0.0260805
0.0252768
0.0256659
4.57887
4.95615
0.0452258
0.126387
0.0254261
0.0291306
0.30037
0.0249629
0.0257922
0.11438
0.0253416
5.85918
0.855324
0.025529
0.024935
0.031759
0.0604143
3.28522
0.0938385
0.0465568
0.0301597
6.47606
0.039111
3.30764
7.95497
4.41421
0.027413
0.0475886
0.0256158
0.123938
0.0885716
0.140162
0.0261959
0.0646007
0.0251004
0.0376266
0.0468644
6.75038
0.0980415
0.0258038
5.5066
0.0510886
3.60089
1.98648
5.79234
0.0251606
0.0997188
0.0490101
0.0249547
0.0255282
0.0337237
4.28662
0.365865
8.34118
0.039798
0.131402
0.350114
5.29939
0.334188
0.0254371
0.131399
0.0454868
0.0257014
0.0251051
0.26234
7.31579
0.0291367
0.0253474
0.0598218
0.0596178
4.79712
2.30753
0.0253291
0.0252948
0.068346
4.56122
0.0256997
4.47039
6.76113
0.131871
0.0250309
0.630599
0.0596708
6.21476
0.0252485
10.9135
0.0251581
0.0977898
0.025154
3.90852
5.96349
0.0285489
2.12354
0.030496
0.0250358
0.66733
0.0958847
0.0393605
4.88521
9.11901
0.0249982
0.0316112
4.08867
4.62313
0.0256053
0.0252338
5.07214
0.146973
0.0256558
0.242668
0.104064
0.0459447
0.0408707
0.0256052
0.0508631
7.44241
0.0250649
0.127167
0.158199
0.0252081
0.0252796
0.0740589
3.78251
0.088171
0.0341148
0.0295624
0.0256618
6.00652
6.95539
0.237939
0.0250473
4.61995
6.95584
3.90287
3.77375
0.0875122
0.0255871
0.025215
0.0573282
4.12165
0.129449
0.0277787
3.34488
0.0452783
0.0247646
8.49253
0.0254205
5.50543
0.028674
0.0256496
0.0306298
0.0462043
0.0478288
0.2365
0.0364406
0.0251831
0.348887
4.90914
6.89644
0.0252509
4.4304
0.0255302
0.0251754
0.0253222
1.21514
0.0254433
0.106768
0.0398625
0.0250808
0.0599829
0.0262862
2.39862
0.0498051
0.0876659
0.0249854
0.0252734
4.41718
5.22996
0.0253036
0.0251841
8.55372
0.0251374
4.20659
0.0249819
3.92754
0.0254803
0.514799
0.036415
3.05361
0.0271185
2.49134
0.34505
0.0306209
0.146131
0.579359
0.0254784
3.72536
0.134555
5.72369
0.0279592
6.62043
0.0323435
4.66814
0.277813
0.125884
0.1223
4.73254
0.0255894
0.0486989
4.28604
0.0254083
0.0266621
6.18426
0.319357
0.0257283
0.247504
0.759125
0.0251146
6.16898
0.327047
0.025412
0.0251554
0.0255402
0.0249269
0.357587
5.69549
0.755212
4.30112
0.0253164
0.142518
6.68034
0.0457451
4.37249
3.97577
5.85591
0.024987
0.237531
0.0251279
11.0321
0.0252121
3.79685
0.103979
0.027587
0.0255649
0.0648227
0.108918
0.0789182
8.08572
4.44865
9.59402
0.0530711
0.0679959
0.0252448
4.77737
4.19739
0.0252905
1.08425
0.0253523
0.325632
0.0254787
0.0256027
0.0263324
3.53174
0.0262974
3.4567
6.00957
0.150935
0.517725
0.0254666
0.537112
0.468033
0.0253513
0.354389
0.0253961
0.0253298
0.109565
0.0256489
0.0253118
0.0251226
0.36619
0.0256307
5.54665
3.90011
5.27626
0.334241
3.36574
6.18506
0.0450999
0.025326
0.186148
0.0280986
0.032912
0.0254269
5.77526
4.43912
3.96019
0.028173
0.118071
0.0277871
0.0287619
0.0784605
0.0261174
0.277474
0.0254937
0.0254295
4.1308
3.58828
3.59128
0.141664
6.32296
3.69978
4.26097
5.83713
0.0248137
0.0624666
0.0261752
0.0253208
1.13274
0.0581367
0.0249858
0.0677101
0.0428673
5.86256
0.0253457
0.126672
14.0414
0.808608
4.39915
0.0256406
0.0252982
0.0256756
0.0393425
0.0249907
4.29092
0.598158
0.0362445
5.35735
0.0298172
0.126357
4.37421
0.867988
0.145927
0.31865
0.126249
0.0662482
0.175573
0.0455433
0.166637
0.636826
0.0512781
0.0890447
0.0250608
2.79136
0.0306335
0.0248054
0.0376612
0.0259612
5.40196
5.83321
0.0251339
0.0247817
4.51356
8.76913
0.0256493
5.75468
0.0259092
0.244704
0.025148
5.08332
3.11242
0.0316866
0.0254981
3.3319
0.281321
6.98467
0.0256594
6.59001
2.45452
8.76208
0.0248173
4.57717
6.21098
0.0457943
0.025146
0.0254958
0.0821063
0.371245
0.0249215
0.025165
0.0252477
0.0252402
5.20008
1.19416
0.0451626
0.354592
0.0252485
0.0250667
0.115631
5.12149
0.0365692
0.0251123
0.0253248
0.0253798
8.67293
5.84358
0.0255324
0.0253786
0.22836
0.0452278
0.036368
0.0252957
0.0264159
0.0301744
0.0869551
0.463046
0.36436
0.191084
0.106256
2.58848
0.0853609
0.0252649
6.20647
0.0253848
0.0269516
0.0272384
2.51227
0.0857777
0.0250703
0.808878
0.122955
12.1471
0.107369
0.0400779
0.0450447
0.0255533
6.65988
0.563007
4.30749
0.0254157
0.0326432
0.354492
3.9746
24.3568
0.0733294
0.163051
0.0281522
0.0272708
0.0252981
0.0606548
0.0981669
0.025419
0.0590846
0.151339
4.40425
6.28556
0.0272205
0.122275
2.1196
0.0318227
0.0256127
3.54322
6.32295
5.67857
0.318844
0.0247918
5.55656
0.0804344
0.0251091
0.0347289
0.0811756
0.0388169
0.107272
3.88542
0.171297
0.0406521
6.60547
0.0262459
7.39526
0.0256169
0.0255235
4.50647
6.25899
0.68718
0.0262394
0.0257511
0.0253835
0.0459442
3.38002
0.132146
0.0274739
0.136156
0.0635787
0.025152
2.19203
0.128379
0.301668
0.0252224
0.166184
0.0259388
9.81341
0.0739816
0.0851859
0.0329843
0.0251439
0.0248384
0.0252645
0.135143
0.0311894
0.364156
7.08972
0.0638167
0.0251271
0.167459
0.731649
1.19403
0.0250439
0.0305204
0.0251757
0.0317673
0.0282383
6.03541
0.0256052
4.70674
0.0315186
0.166795
0.0970717
4.37951
0.0888678
0.0254512
4.35099
17.9098
0.0252646
0.0271548
3.13368
0.254861
0.129356
0.0256171
0.0255254
0.385189
0.027722
0.0781853
0.0704913
0.024839
0.0594662
4.85538
0.025023
0.0260251
0.025274
5.45093
0.0256544
0.0278431
6.10754
0.0265241
6.24429
0.0302484
0.0411621
0.0252642
0.0568888
0.0253336
0.0647262
0.0251512
0.0967798
0.0259112
26.9568
3.07397
5.14598
0.0255673
0.0255755
0.0810579
0.0538892
4.71913
5.47799
0.0574378
0.0253326
0.363368
0.738737
0.28784
0.315073
0.0548889
3.80793
0.0441145
0.043261
0.160417
0.207291
0.0566311
1.17281
0.0560742
0.0265483
0.0864831
0.0307162
0.0248861
0.0315527
0.0507393
0.0310951
0.0253423
0.0251991
0.0638478
0.026389
0.0791946
0.025337
0.0253717
0.0256647
0.0263189
0.0246706
0.0290201
0.0253007
5.26634
0.0689656
0.400482
0.0250237
0.0256297
0.0542929
0.0674014
0.0259045
8.18385
0.090062
11.2144
0.0316196
0.134468
0.025552
0.0256586
0.0252172
0.0263047
7.82479
0.0256402
4.94435
0.0293071
6.01479
0.0557168
0.0915123
0.163793
0.0248592
0.025688
0.0702442
0.0253434
0.0256096
7.90731
0.0258872
0.0255407
0.0310356
0.0252255
0.0248508
0.0311542
0.031593
6.00425
0.0387422
0.0250205
0.0251308
4.00704
0.132921
0.0254097
0.0254172
8.13245
2.8721
8.68375
0.0401944
0.026559
0.0250134
0.0248317
0.0523051
0.0398638
0.255623
0.0284111
3.81168
0.0254862
0.0268233
9.38172
0.0253606
0.0307827
0.0252317
0.0254083
0.0492619
0.0487417
0.025622
6.19091
4.34501
0.0983952
0.0252592
0.0247356
0.128329
4.3681
0.0256485
1.83671
0.0247371
0.0476851
0.0248509
0.0249306
0.40617
0.0251464
3.35918
0.0438682
0.0256644
0.0247803
0.0253453
0.0251657
0.0259457
4.1972
0.0249945
0.0249359
5.2139
5.85118
0.0418704
0.0523599
0.0740435
0.0281598
0.0249808
0.0316213
5.10099
0.102174
0.025473
0.0254449
5.58267
0.0393271
4.3697
0.0256552
0.0260115
6.53559
0.0367364
0.0256918
7.93375
1.75871
0.0251622
0.144527
0.0252137
0.0251267
0.0250054
4.34846
0.0246617
0.025022
0.0249731
3.51179
0.0276454
0.242501
0.0698028
0.0249149
0.0369061
0.0255326
4.30581
0.0252539
0.0250098
0.025542
0.133358
0.0255316
0.171054
5.82268
4.80864
0.0299185
0.388709
5.34403
0.0252666
6.94279
9.58027
4.82797
3.38363
5.11487
37.0706
0.155773
0.0255178
3.8015
0.0366801
4.1096
0.0248141
0.0250895
0.0254087
0.0255235
0.0289616
0.0348924
4.56847
0.0250797
0.0253904
6.46423
0.332333
0.0253448
0.04291
0.0327878
0.0253607
2.85505
0.0436043
0.026943
0.0275865
5.75215
7.82174
1.34455
0.0248364
0.284388
0.122443
4.59515
5.88112
0.0957902
0.025142
0.02561
0.0254889
0.0246132
0.0264041
0.0248056
0.0302879
0.042887
5.6133
0.144497
0.025039
0.131255
4.28464
0.0464976
0.0255346
6.591
0.0250662
0.025535
0.0424565
6.59553
0.0255319
0.0252216
4.48084
0.232514
1.65214
0.116717
0.72465
0.0251899
0.190492
0.0255606
0.0252987
0.0255585
4.25736
6.38139
0.0249214
0.024774
0.0252453
3.36687
0.0261865
0.0328171
0.0253462
0.0256175
0.183956
0.0249275
0.0659914
0.384667
3.58489
0.0251822
0.0946284
0.0274001
4.56283
4.24815
0.0253158
4.47751
0.0791301
1.47856
0.02553
3.48048
0.0256274
0.0297191
0.0479074
0.116832
4.52265
0.358988
0.189103
6.39399
0.025119
0.302921
0.0249191
0.03069
4.48192
0.0253271
0.0256373
0.0259578
0.0253417
5.16926
0.0248554
0.0254114
0.0605213
0.0520909
0.0547434
0.654701
0.141219
7.64121
0.0699977
0.0385414
0.0422634
4.69517
0.0429969
14.2141
4.0559
0.0283882
0.0249255
3.24766
0.29635
0.0255314
0.120905
0.0369753
0.0254199
0.0293623
0.0253802
0.0479305
0.0256895
0.0537333
0.12155
0.0251386
0.0670481
0.0249732
0.0674467
0.0251444
0.0293896
0.0638558
0.0265217
0.02524
0.0249335
2.16038
0.0905254
6.13835
0.0253069
0.0253343
0.0649934
0.0252334
0.100198
0.0908646
0.025422
0.104527
0.0249573
10.0228
0.0254991
0.0401687
5.42992
0.300037
0.0251983
0.0267908
6.81629
0.0253025
0.0251915
4.44602
4.2044
0.0273962
0.177033
0.0254394
0.0252314
4.31577
0.0261718
0.0248722
0.269185
0.024971
2.50601
0.0255642
0.0248783
0.0254106
0.143676
3.64387
0.0253666
0.0254791
0.0251917
0.0290752
0.0254051
1.06059
0.0647661
0.0256586
5.69411
0.0559174
0.295559
3.7239
3.66298
0.0249079
0.0254839
0.0252745
0.833852
0.0295539
3.68597
5.73208
0.0270994
4.37522
2.35893
0.0542016
0.157214
0.0786666
0.436365
4.56252
0.0716958
1.11859
3.88152
0.0691573
0.0283745
4.50896
0.0608573
0.0248283
0.0263711
13.5588
0.0428963
0.0251269
0.0590352
0.110168
0.0430621
4.39803
0.0269162
6.42148
0.0423819
0.285407
0.136964
0.304624
0.0320803
0.0249517
0.0257582
4.81572
0.0252928
0.0272924
0.0249975
0.0264297
0.025075
0.0398003
0.163748
1.9385
0.0504669
0.0653776
3.99057
0.402082
0.0250602
2.94757
4.15866
0.0249163
0.0251793
0.0339248
6.68644
0.0256395
0.0763742
0.676331
0.0539699
0.0253315
0.026173
0.0249814
0.121197
0.0444443
0.0252888
31.1812
3.82677
0.0484158
2.24071
0.0700293
5.83114
0.0264612
0.0284524
4.3186
2.79845
0.0968554
1.83166
0.0314859
0.0256685
0.025099
0.0253774
0.0253159
0.0258358
0.059441
0.0252101
0.134687
0.0252235
0.0315826
0.0248989
0.090778
0.132966
0.87036
0.0252596
0.301542
0.0250984
4.41943
0.0253441
0.028829
0.0254649
0.273999
4.69469
0.152015
0.0252001
0.144852
0.0252481
0.0329538
4.18331
0.0251055
0.0255778
0.0502352
0.0346922
4.37336
0.025211
0.0334196
0.026153
0.025354
0.036117
0.0256584
0.0249633
0.026845
6.49558
0.0275831
0.267697
5.71571
0.056684
3.54126
0.027335
0.0249717
0.0347992
8.44569
0.0263578
0.0409829
0.0452874
5.07802
0.0251479
5.77726
0.0686886
0.0771615
0.0249029
0.024801
0.182303
0.0256372
0.0256813
0.0378168
0.0248298
0.0275589
0.0317357
0.0761481
0.300686
4.35875
0.0280981
0.0805843
3.11859
7.54056
0.0405251
0.298681
6.55198
0.0426726
13.0707
0.0268585
20.8496
5.44727
0.0247979
0.0256494
0.0252412
0.0256758
0.0499288
0.0248963
0.0270867
0.0957684
0.0263806
0.0399128
4.27795
0.0338994
0.0271713
5.63254
0.0256984
5.65946
0.0273092
0.0610167
0.0251341
6.86901
6.01132
0.0252465
0.0257904
3.64277
0.0331452
6.73073
0.0253317
0.0249655
4.39852
0.0257869
0.0497084
9.50231
0.0253818
0.0600808
0.0323732
0.0247943
0.0251693
3.74882
5.5724
0.0253872
0.0265565
0.0253015
0.0297292
0.0398809
6.15014
0.0258654
2.6029
4.33781
0.260123
3.96394
0.0257402
0.13099
0.220462
0.0326735
0.0253785
0.0650239
4.09266
0.0265626
0.0522043
5.06178
3.6774
0.321807
0.0284098
0.0254725
0.0256285
0.0253843
7.4523
0.0599471
0.0268371
0.0258943
0.0274622
0.0256601
0.0252251
0.0253406
0.0791722
0.0408543
5.60695
0.0530897
5.02501
3.35657
0.0341921
0.0553397
0.0250469
0.0318514
8.33879
0.0253358
0.0267332
0.0559245
0.129543
0.0639375
3.77908
0.249032
0.0250734
3.92514
0.0247514
0.0254033
0.0517818
0.0256649
0.025057
0.186586
6.81282
0.0249774
4.2322
0.0253165
0.0248955
0.0266482
2.71247
0.0323421
0.0272782
12.7085
0.0260765
0.255705
3.3383
0.0256285
0.0544992
0.0253162
5.922
0.077726
0.0253407
4.06748
0.0589261
0.0889009
0.0256715
6.52912
0.0328666
0.453787
0.0259702
0.0813119
6.93162
0.0249254
1.53127
0.0253596
0.0683387
0.0587976
0.0256273
4.53338
0.0267788
0.126978
0.0632981
0.10882
0.0455751
0.0494551
0.0257944
5.02289
0.0358091
6.97677
0.0336438
0.0695685
0.0251649
0.0486991
0.0253194
0.0739157
4.68215
0.025932
0.0250474
3.45474
0.0259298
3.3044
0.0256225
4.33258
0.317133
0.0389376
0.0252874
0.0252181
0.0254415
0.0248015
0.112709
0.0633067
0.0435414
0.0289791
0.0254117
2.94102
0.0266345
0.0375369
2.67835
0.025313
13.3987
0.0557595
0.0326912
1.30901
4.34737
0.365213
4.50612
9.46217
0.0251374
0.406224
4.94102
0.410914
0.0255318
0.0254642
0.124892
3.98249
5.53739
0.697903
0.0253871
0.0574728
0.04341
3.35316
4.94287
0.0452768
0.14054
0.0270855
0.0906951
0.0963946
0.0255207
0.114819
8.01653
0.0254735
3.53693
0.0256379
0.0251282
4.69358
4.02685
0.0251003
0.0254586
0.0256351
0.0249791
0.054967
0.194121
0.0261424
0.0252866
0.0254322
0.0432112
0.0310004
0.0307371
0.371182
0.0253215
4.10494
7.55884
4.33612
0.174162
0.0575953
1.30306
0.0365775
3.74147
1.90412
9.75073
0.0256121
6.51208
3.42799
0.0249914
0.0253479
0.114074
4.42587
9.80705
0.0249126
0.0252562
3.57392
4.98464
6.93732
0.0271408
0.0271086
1.90577
0.0254186
3.72278
7.22365
1.10272
2.69807
0.0253336
0.025187
0.0251517
0.0294399
4.08415
0.0432409
0.0284522
0.02585
0.0985304
7.09884
0.0431668
6.12193
5.34358
5.20818
2.199
0.0253642
0.0255304
4.35648
0.0248424
0.0248278
0.0262452
2.85978
0.0405218
9.35522
0.144044
0.0253336
5.30893
0.0431641
0.0250821
6.05831
0.191281
0.0282724
0.0252296
5.08199
4.39326
0.0255406
7.40079
4.38656
6.19279
2.46991
0.0932042
0.0251758
0.0257017
1.93232
0.0286821
4.50869
0.0459407
3.56547
0.283169
0.0260984
0.0326562
0.0251622
0.025905
4.63019
6.90197
0.025385
4.87033
0.0460927
0.0252647
0.0280151
0.0252106
0.177639
0.0256157
2.352
0.0582923
0.0251637
0.0251334
0.109018
8.20461
0.0422834
0.0271802
0.0472307
0.0253178
0.0262357
0.0303722
8.71934
4.06623
4.40707
0.0249224
0.0251251
0.0255538
0.132334
0.025129
0.0255971
0.187991
0.0639974
0.871367
0.0247839
4.36615
4.0376
0.0256791
8.78467
0.126406
0.0401213
2.08202
0.0255034
5.11178
0.033185
0.026254
0.0271005
0.0248378
0.238833
0.0257017
0.0258414
0.0347202
3.49188
3.57811
0.0256284
0.0253306
0.0266512
0.0251856
0.146123
0.025657
0.0922953
0.0266009
4.14932
0.025755
4.30521
0.0249229
5.40604
0.025563
0.0248156
6.93032
0.360797
0.125052
0.923249
0.0498781
0.0440122
0.0253461
5.17518
0.0253787
0.0251378
0.0989153
0.0686236
10.0148
4.43941
0.134479
6.91128
0.14112
1.02869
0.0249978
0.028003
0.0309418
4.14314
0.0280185
4.2339
4.45831
0.0253109
0.0253451
0.0252529
1.68882
3.3724
0.0264333
0.0254461
0.0289803
0.0313103
0.041285
0.40819
0.357619
0.0253872
0.711618
0.0932808
8.63145
0.0790902
0.0264609
0.0270098
5.14751
0.025148
0.097571
4.65276
0.0259266
0.0285922
0.193491
0.151161
0.0259682
6.48876
0.0274807
0.298952
0.0432507
0.0341037
0.0258372
4.33959
0.0251135
0.11073
1.50184
4.76646
0.0545492
0.0742523
0.0286025
0.054073
0.0256546
4.96918
0.0297045
0.0251369
0.0330319
0.025424
0.0256592
2.97296
0.0253889
0.0255402
0.0252828
0.143062
0.0254924
0.0366583
0.0791685
0.256228
0.128046
0.0256384
0.273814
0.533045
0.243448
0.0933334
0.0308423
0.172357
4.81235
0.710536
0.0256794
7.68578
4.20853
0.0256786
0.0272403
0.0248263
0.776158
0.116671
0.0251838
1.34187
4.17812
0.025046
0.0254635
3.68791
4.13217
0.0702049
0.0248395
11.2943
3.22284
3.29407
0.0253374
4.16094
0.0885834
0.0802175
4.36089
0.0292623
0.0248418
0.0332497
0.207234
0.0351699
3.93392
4.42967
0.0250397
6.46209
0.585745
4.54022
0.0249186
0.0581822
0.0255319
0.0251701
4.211
3.5346
0.297734
3.90589
0.0329239
0.0554879
0.0254931
4.59679
5.91493
0.0253518
0.0254422
0.0358347
0.0249464
0.0555036
4.57169
7.41403
0.0560878
0.0256286
0.0252721
4.20538
0.0281982
0.0577738
0.025014
0.0261839
0.793006
3.9366
0.458019
2.98726
0.0255286
0.323032
0.0255741
0.0541938
9.75209
6.78338
0.0253957
0.0256919
0.0385968
0.028979
0.0254418
4.48952
4.15895
0.0249672
0.0246337
0.0255551
0.0252599
2.75028
0.0248911
3.83851
0.112801
0.0683648
0.0250641
0.0540176
4.55623
0.0368056
0.510608
5.85869
0.0254696
7.23571
0.0373331
0.0400958
0.410894
7.25313
4.60605
0.0648268
0.0251508
0.288385
0.0249046
0.028496
0.0254528
3.85607
0.035754
2.66029
0.281353
0.0531865
0.0254662
0.321179
0.0299692
0.0256607
0.292712
0.0247658
0.0409113
0.0374142
0.0254209
9.81197
0.0265805
0.600139
0.0260355
0.0252152
5.55
3.69349
0.0273205
0.0366691
0.0422352
0.0651111
0.0634321
0.029237
0.0291363
0.0282851
0.246971
0.0282404
4.00473
0.0677438
0.249091
0.126222
0.0257638
4.65568
0.0247821
4.59715
0.0274218
4.29551
5.98764
9.10487
7.79197
0.329571
0.0873738
0.0251555
4.38233
0.0970027
0.025339
7.89485
5.65152
0.0264842
0.0268142
0.0340416
0.0340465
0.035538
5.2747
0.0256789
0.0328102
0.0381869
0.0363294
0.0255201
0.0924906
0.0247691
4.12318
0.0268645
0.145876
0.0351428
0.0431395
0.137921
4.00753
0.0954737
0.025062
0.278065
4.35903
22.6361
0.0255152
4.19434
0.0321238
1.84656
0.0253789
0.0277302
3.88103
0.0556998
5.00995
7.38958
0.0376531
4.89212
0.0252016
0.0247532
8.9267
0.06675
0.0276542
5.38831
0.0301725
0.0518542
0.0330714
0.0791707
0.0253586
5.7339
5.27616
7.06919
0.299268
0.0286467
0.0641778
4.9847
0.0272547
0.0255297
0.0928831
0.0248775
0.335239
7.79517
6.41578
5.33362
0.0604698
0.0255777
4.20831
0.0247599
0.0809224
0.0256141
23.9476
0.0269873
0.0537204
3.72161
0.130109
0.0253386
0.0361942
8.95034
0.0253503
0.159275
0.0249922
9.54325
4.24401
0.125201
0.0885724
0.0252387
0.228191
0.14976
0.042899
0.0249991
0.0256028
0.0254965
0.0593622
0.0254646
0.0936179
0.0253866
0.0249887
6.2974
0.025068
0.0300614
0.0281067
0.0256665
3.63884
0.0250723
0.0379893
4.06109
0.0521026
3.91459
0.0253374
4.42322
0.0549112
5.17555
0.0267654
0.138268
0.0252946
0.0445153
0.133949
0.122517
0.28097
4.13343
0.238268
2.00322
0.0304207
0.121245
0.0471995
0.969479
0.0282732
0.0252431
0.0253149
0.0562744
0.0524097
3.18062
0.0586119
4.70289
6.81705
0.11413
0.025243
4.88314
0.22778
0.0256952
0.0272737
0.0253331
4.90011
0.0253241
8.30726
0.0250565
0.0301148
4.92827
0.089245
0.0253547
0.0253124
7.95101
0.0250907
0.0272667
0.0283269
0.0364557
0.0309
0.0253809
0.165303
0.092198
0.0494747
0.354958
4.39644
3.62918
6.22719
0.0249436
0.0252593
0.115995
0.02559
0.0532815
4.13091
3.76415
0.0248355
0.025348
3.32443
0.558374
0.0248554
0.0250619
0.0299585
13.1347
4.01934
0.0297598
0.0377616
0.0255668
0.399318
0.137009
0.159879
0.0357555
0.0499404
0.0256447
0.0418466
0.3261
0.0259815
0.0253238
0.0295682
4.62821
0.0284031
7.25576
0.0254436
3.83887
0.041187
0.0313823
0.0250035
0.0252008
0.882465
7.84504
0.0657889
4.2568
9.73181
0.0257405
4.04024
0.154086
0.0250961
4.6412
0.278785
0.125522
0.0256387
3.45269
4.48587
0.0251077
0.044754
4.25939
0.0507954
0.0252893
0.024984
0.0255655
0.026988
0.0903404
0.303096
0.0875058
0.0862459
0.024907
0.0254171
4.65724
0.0250554
0.0547092
0.0299775
0.0252443
0.0555476
0.0253345
0.0269304
0.358442
0.0253021
4.48766
0.0253273
15.2753
3.6639
0.103241
0.0254571
0.0256904
4.19799
0.0248226
0.0273729
0.0255715
0.374415
1.35115
0.0370761
3.67796
0.0473261
1.71206
0.025763
0.07589
0.0249509
0.0254866
5.04652
3.73129
1.4586
0.0269627
0.0760748
0.075983
4.78173
4.11159
0.341171
0.0433429
0.0247541
4.1617
0.0250907
0.0251572
0.314736
0.12383
0.03189
0.2268
0.0536527
0.0355803
0.0309216
5.08582
0.0274922
0.0252944
6.73957
0.0532892
0.0249061
3.43019
0.0253469
0.0254492
0.177138
0.169927
12.1862
0.0249287
0.0279948
0.0251752
2.2843
0.0250895
0.59183
4.21111
3.5767
3.42483
33.3459
0.0340692
4.49261
0.91604
0.0255805
0.0345128
0.0493666
0.0342452
1.28049
4.15863
4.39791
3.51287
2.46463
0.0253865
0.11578
0.0253571
4.83453
0.0318741
0.0262378
0.0272442
0.0258538
0.0251136
0.116501
4.39458
0.0249279
0.0267978
0.0251232
4.60515
0.0266425
5.38069
3.79665
1.36992
0.0254252
0.0251209
4.42784
0.425476
0.0254858
0.343418
0.0256049
0.157277
0.212892
0.104429
0.0561238
10.6953
0.0250123
0.0249482
0.249599
3.29311
0.0326889
0.0531562
0.0251873
8.62875
0.0253124
0.0252373
0.0263145
0.025263
5.21033
4.04582
1.82248
0.0646235
4.20587
0.681478
0.0248452
0.0343248
0.0248904
1.31772
0.0251531
0.0280663
0.0252831
0.025195
0.0249502
2.92136
0.0259123
1.76946
0.0247224
0.0366375
0.0260846
1.60295
0.0253642
0.0348244
0.0382505
0.0792903
6.68626
0.0251884
4.22535
0.0770321
0.051741
0.0250912
0.0252273
3.4768
15.9285
0.0251671
0.025076
0.284977
0.262406
0.0428852
3.99911
0.0259606
0.416091
0.0345045
0.0249046
5.4508
0.0260922
3.891
0.0253181
0.0258548
0.0254613
4.26067
3.55971
0.0248627
0.272437
0.262509
0.0253827
0.0250575
0.0251507
0.292741
4.05084
0.0724232
0.0272911
0.0435195
0.0253425
0.0253096
0.0268322
0.0253095
0.20424
0.0253263
0.0687695
0.689552
0.0396674
0.0247938
3.97342
0.0815462
0.0253544
0.0905856
0.0338401
1.55598
0.027729
10.1932
0.0630706
0.0252274
0.0965437
0.095364
0.0277915
5.7697
0.0648019
0.0328192
2.06649
0.025176
0.169433
0.0998805
0.143509
0.0252219
0.025228
0.0248187
0.0378536
0.0604142
0.059173
6.44
4.60649
3.82888
0.0256559
1.93793
3.72242
4.2815
0.0252815
0.025256
0.0589055
4.17601
0.0273918
0.0385377
32.5881
5.06667
16.9888
0.128639
0.183617
3.3164
0.434412
0.0247667
11.9673
0.301799
0.0255017
0.0254885
0.0260091
4.61683
0.107202
5.30822
0.0271754
8.62963
0.0253246
1.83249
3.80251
0.025436
0.037394
4.26016
4.72059
0.0616263
0.026012
0.0269313
0.0256145
0.260292
0.13253
2.75121
4.18001
0.0249447
5.28359
0.185541
1.29037
0.0253418
0.0255209
2.64602
0.293594
0.0252127
0.0553977
0.0826944
0.0441654
4.08012
4.6677
4.58263
4.14445
0.0286792
0.024826
0.0744132
4.50314
10.2163
0.0251131
0.314879
0.105202
0.497902
0.0255752
0.0256421
1.27247
4.49231
7.14354
1.737
4.23507
0.0252454
0.285154
4.12746
0.0254749
0.0704041
0.117878
0.0248732
0.178794
5.00618
0.27671
0.0256408
5.29589
0.129797
27.3148
0.0246398
0.0267207
0.0253718
0.0262121
0.0253405
0.0608467
0.04568
0.0481913
0.37337
0.0370564
4.22395
0.0285302
0.0319586
0.0313843
9.07695
0.0654108
4.96059
0.031436
0.031399
19.0018
0.109435
0.0253426
0.048241
4.4854
5.35922
0.327008
0.0252146
0.0251511
0.0251617
1.50393
0.0263669
2.51736
1.36782
0.290839
0.0354726
0.284231
5.56012
0.0253416
7.2661
0.0379386
0.0575773
0.0251637
0.0250805
0.0589093
4.30323
0.0254085
4.9129
0.566884
0.111717
0.207505
0.0250965
0.0253341
0.0331894
0.0260066
25.432
24.7837
0.0961433
0.88712
0.0251983
0.0252895
0.0253643
0.0256279
7.45066
0.0263215
4.51187
0.098322
0.0256023
0.431195
2.82504
3.41326
8.53334
0.0266503
0.0249301
0.0254734
0.0265499
0.787832
0.277505
5.7158
0.0255069
0.0255502
0.18301
0.0256472
0.228736
0.0268949
0.171831
0.195552
0.0468339
0.0450158
0.0249189
0.0519649
0.0431867
0.24012
0.091678
0.0481745
0.0251258
0.279155
0.0251257
3.31431
3.62074
0.987312
0.0253287
0.123562
0.0252663
0.0540922
0.0261219
0.0258059
0.0318073
8.88701
4.03371
0.0896651
0.0536717
0.258761
0.088789
3.9357
4.2367
0.0349211
4.19848
0.393208
0.0250629
0.0637696
4.28303
0.109132
0.0256153
0.0599021
2.28718
0.589591
8.60538
0.0253179
1.01644
0.0254265
0.025185
0.0454955
0.29787
0.025652
4.21843
5.08708
0.230482
11.1179
0.421061
4.67332
0.348384
0.024922
0.0279782
0.0248035
0.0479217
0.320299
0.51781
0.0275832
0.0473489
0.0247801
4.31289
0.042069
0.05272
4.07846
0.112091
6.73926
4.63159
0.0252184
6.72421
0.0254552
0.0319392
0.0536601
3.86373
0.168037
0.031392
0.0262856
0.629419
0.037973
4.32069
5.92642
0.0363167
3.22771
0.048787
0.0256641
1.21135
0.0700523
0.0262049
8.98754
15.2034
0.0332312
0.0293452
0.142441
5.97707
0.0252186
0.0254085
0.0248575
0.0249699
0.02557
4.82246
0.0356211
3.94202
0.0252441
0.0251068
0.914143
0.0253546
0.0268006
0.0253771
0.0253367
2.33951
0.0249446
4.73592
0.0251543
0.0261976
0.046828
0.0254303
0.163751
0.0249582
0.0256536
0.0249876
0.0310014
0.101131
0.0275748
3.6411
0.0251709
0.0494874
0.0330327
4.21958
0.0259733
0.0256586
0.0248387
0.0248638
0.42552
0.02515
0.0250875
0.0277254
2.14308
0.0252161
0.0485147
0.0368459
0.0252625
4.88709
6.68087
0.275289
4.95255
0.0279169
0.121185
0.0254039
0.111966
0.363547
0.0254538
2.18234
0.141337
4.60406
0.0346951
0.0253393
1.63487
0.0490959
0.862913
5.1844
0.0247079
0.0252547
7.45807
3.20523
0.0649303
0.0639682
0.0262637
10.5301
5.72267
0.0246437
0.025255
0.0252816
0.0255314
0.0256312
0.0253342
0.0401062
4.28128
0.0349549
0.0254351
0.477446
0.0252832
0.895842
0.052133
0.0252113
0.0307732
0.0251756
0.406971
0.0281083
0.0591204
0.0252237
0.025448
4.51162
4.88766
0.0255359
0.0562059
0.0501699
0.0349619
0.0271261
0.0256619
0.0258764
1.69942
0.612448
0.0435343
4.87964
0.025624
24.2295
0.116472
0.0291441
17.6932
0.0262734
4.3823
5.36739
3.40828
4.11251
4.12572
3.71119
0.0247838
0.0305208
0.0279553
0.0247913
0.0249008
0.0324892
0.0851
0.024959
0.0332083
0.134296
0.0865207
0.370461
0.234124
0.0371755
1.88758
9.51925
0.0382817
0.0281101
0.139946
8.72081
3.8746
0.0287771
0.0247673
0.0250995
0.0249769
0.0352044
3.80997
0.407605
0.024892
4.67499
0.0252757
0.150428
4.12242
0.0929135
0.213843
0.101636
0.367343
0.0260364
0.0374746
0.0251091
0.269981
0.0252222
0.0261485
0.0366016
0.166998
0.0255358
0.0276478
5.54976
0.025059
0.025236
0.0327586
5.68576
0.127124
0.571291
0.0430377
0.0255002
3.34871
0.041779
0.0264569
0.0253131
0.034553
0.0298867
0.0253242
0.0310035
4.47999
0.0267759
0.0248171
0.0528852
0.0251334
0.0358113
0.033935
0.0253877
0.0252955
4.68244
0.0249117
0.0253407
0.0248344
0.0289811
0.0246012
4.89539
0.0291055
0.233533
0.0252497
0.0250838
0.0251998
4.32959
0.0700331
0.0253312
0.0247463
5.55717
0.028292
0.0738605
0.025107
0.163855
0.0265765
0.0247073
3.941
0.0249098
0.0254937
0.0254954
0.0251503
0.0273416
0.0254684
0.0253483
1.69593
1.5717
4.63461
0.276609
8.32699
0.0250808
4.56044
0.0252577
4.02112
7.90555
0.0250315
10.279
0.0252739
4.18654
11.5942
0.299848
4.14689
3.9672
0.890172
2.3467
6.08573
5.26557
0.0488541
0.0457987
4.63662
0.0267017
0.0248411
2.03555
0.0270187
0.0318327
11.8358
0.0261737
0.717812
3.66064
6.33005
0.408925
0.129416
0.025636
0.0318482
0.0543343
0.025456
6.84443
0.395431
0.121745
0.0251482
0.0253934
8.06618
0.0248771
0.7809
0.0250426
9.04883
4.44722
0.0385754
0.0293676
0.02525
10.1813
4.03585
0.0286813
0.0377168
0.0256811
0.0256807
0.0632932
0.0263727
0.0361023
0.0752871
0.0274661
0.0361919
0.0253459
0.0362811
15.1561
0.0256529
10.7287
0.0251469
3.52945
0.0618223
0.0253493
9.9429
0.137814
0.0250851
0.175357
0.0253374
0.416451
0.0254344
0.025309
3.80378
0.0254943
0.117343
0.0265411
0.151695
0.0250477
0.0255563
0.0251091
0.0338907
0.0274387
0.0255167
0.0258099
0.0285428
0.0256652
0.135011
0.0727922
0.0328553
0.0265661
0.0247672
2.39293
8.38467
0.0259834
0.025744
0.0258608
0.0426752
0.0254316
0.0393111
0.0247207
0.0256804
0.258787
0.0265396
0.0256795
0.0251618
4.79419
10.9371
0.0247615
0.0811015
0.0657177
0.257805
0.248384
6.62422
4.33029
0.706186
0.0260668
0.150398
0.0252054
0.0354051
7.11979
4.44694
0.152616
0.0271246
15.3482
0.0253548
0.0526288
0.440675
0.0254544
0.147784
0.026657
0.0264498
0.0834638
0.159122
3.89439
3.38023
0.0250257
0.0247506
4.76969
3.77795
0.0254621
0.0327246
0.13254
0.0253392
0.0253215
0.0273082
2.15527
0.0249872
4.29837
0.0332438
0.025408
0.267606
0.0795112
0.0736664
0.12782
4.90148
0.0276202
0.0381405
0.0308797
0.0269596
9.5786
0.035069
4.23194
4.17175
0.0752805
4.10931
0.0523072
0.0540815
0.384503
0.0249253
4.2885
0.0982556
0.0379736
0.0328239
0.0255372
0.0248263
4.08503
0.0488488
4.24976
4.30827
0.0254527
4.27528
0.0250772
0.0252141
0.0324074
11.2547
0.0812625
0.0248197
4.08291
0.0252545
0.0270073
3.89932
0.026877
3.46066
0.0256638
4.38959
4.39302
0.0773959
2.66326
0.0265811
3.43946
0.0247613
5.3136
4.75605
4.40765
5.05902
0.0252286
0.0250059
0.265289
3.68637
3.42396
3.83824
3.75389
0.0253571
4.88922
3.43012
0.0256277
4.9552
0.0355207
0.0367466
12.1132
0.0431414
4.39385
0.0251488
0.0428105
0.0380396
0.224502
6.25018
0.0415493
3.55832
4.46371
0.0255296
0.0278232
0.027001
0.0279502
3.43971
0.025318
0.0249742
0.0444816
3.72492
3.94503
0.0314568
3.89209
4.18698
0.0252167
8.44418
4.74517
0.195258
4.00861
0.07467
0.027589
0.0255302
0.174256
0.029657
0.089772
9.87241
4.53157
0.0327157
0.0798026
0.0290212
0.0422033
0.0248381
0.0451641
0.0278847
0.100751
4.63985
7.03206
3.90881
0.0248113
0.141798
0.068732
4.23972
0.0264385
4.65107
4.76033
4.28649
0.0252664
0.195503
4.5535
10.7472
7.35208
0.0411503
5.50223
3.91649
0.0687897
0.074882
0.0272234
0.0329388
4.69107
0.0511827
0.0255485
3.28519
0.0252369
0.0254408
0.133976
0.134288
0.0249875
0.102062
0.0279237
3.7413
10.7547
0.0270593
3.84875
0.0252168