/*--------------------------------*- C++ -*----------------------------------*\
| =========                 |                                                 |
| \\      /  F ield         | OpenFOAM: The Open Source CFD Toolbox           |
|  \\    /   O peration     | Version:  v2012                                 |
|   \\  /    A nd           | Website:  www.openfoam.com                      |
|    \\/     M anipulation  |                                                 |
\*---------------------------------------------------------------------------*/
FoamFile
{
    version     2.0;
    format      ascii;
    class       volScalarField;
    location    "300";
    object      omega_0;
}
// * * * * * * * * * * * * * * * * * * * * * * * * * * * * * * * * * * * * * //

dimensions      [0 0 -1 0 0 0 0];


internalField   nonuniform List<scalar> 
13917
(
0.0445548
0.0253862
4.82135
0.0265714
0.0254423
0.487154
4.44898
4.99811
5.63614
0.0725828
0.168532
0.0703659
0.0266411
11.6838
0.0294406
0.0282103
0.0255014
0.0579875
0.0690174
0.0254518
0.0256559
4.35607
0.0254236
4.99231
0.0253057
4.13901
0.0468612
0.060261
0.819856
0.109294
0.0472992
0.031109
0.0403806
0.0288488
0.0253242
0.686645
0.0254352
3.84774
0.0283113
6.32927
0.0251605
0.0256811
0.0247382
0.0917887
0.0252513
0.0307778
0.0570665
0.0758336
2.8556
0.0253268
0.0298716
0.025578
3.28726
0.0292671
0.0255143
0.0299056
0.166243
0.0252859
0.0280721
0.0252134
10.246
0.0253877
24.1972
0.0254366
0.449225
17.1036
0.0254362
0.0253434
0.185956
0.0407846
0.0254535
5.7249
4.35728
0.0253163
2.93664
0.0819561
5.75914
0.0258638
3.85162
0.0256159
0.0255728
0.0254467
0.425164
3.84088
4.78554
0.0257676
0.0255402
14.9022
0.0295937
0.0247246
4.13494
0.0958332
0.0250971
0.0262036
15.695
0.415971
0.129568
0.0699654
0.142725
0.118045
0.0250565
0.0364847
0.0920765
0.026224
0.0250196
5.93647
0.501702
0.0800586
0.0255059
0.050787
4.32322
5.57453
0.0902783
5.81693
0.0261701
3.28827
0.0253113
1.53614
5.12882
0.0292359
0.0256653
0.179127
4.62532
0.056887
0.0252714
0.026035
0.0252334
0.0252808
0.024773
0.464899
3.60549
0.0260805
0.0252767
0.0256659
4.57651
4.95619
0.045227
0.126777
0.0254261
0.0291304
0.300388
0.0249629
0.0257922
0.114384
0.0253416
5.85944
0.855095
0.025529
0.024935
0.0317589
0.0604126
3.28516
0.0938315
0.0465553
0.0301595
6.47609
0.0391105
3.30577
7.95447
4.4132
0.0274131
0.0475526
0.0256158
0.123938
0.0885657
0.14015
0.0261958
0.0645997
0.0251004
0.0376272
0.0468689
6.75086
0.0980341
0.0258039
5.50665
0.0510815
3.6005
1.98648
5.79249
0.0251606
0.0997313
0.04901
0.0249547
0.0255281
0.0337274
4.28586
0.365888
8.34123
0.0397975
0.131399
0.349853
5.29915
0.334182
0.0254371
0.131113
0.045526
0.0257014
0.0251052
0.262395
7.35159
0.0291366
0.0253474
0.0598202
0.0596157
4.79697
2.3081
0.0253291
0.0252948
0.068347
4.56075
0.0256997
4.46972
6.76095
0.131867
0.0250309
0.630854
0.0596713
6.21507
0.0252485
10.9129
0.0251581
0.0978082
0.025154
3.90831
5.96404
0.0285489
2.12403
0.0304959
0.0250358
0.667349
0.0958775
0.0393599
4.88519
9.11898
0.0249982
0.0316111
4.08868
4.62308
0.0256053
0.0252338
5.07209
0.146974
0.0256558
0.24258
0.104072
0.0459811
0.0408705
0.0256052
0.0508686
7.44219
0.0250649
0.127157
0.15845
0.0252081
0.0252796
0.0740548
3.78272
0.0881657
0.0341183
0.0295626
0.0256618
6.0067
6.95533
0.238055
0.0250473
4.61993
6.95457
3.90167
3.77311
0.0875075
0.0255871
0.025215
0.0573288
4.12143
0.129461
0.0277786
3.34553
0.045278
0.0247646
8.49229
0.0254205
5.5055
0.0286739
0.0256496
0.0306302
0.0462014
0.0478561
0.236545
0.0364414
0.0251831
0.347618
4.9092
6.89644
0.0252509
4.42957
0.0255302
0.0251753
0.0253222
1.21442
0.0254433
0.106767
0.0398616
0.0250808
0.0599815
0.0262864
2.39867
0.0498016
0.087663
0.0249854
0.0252734
4.41734
5.23021
0.0253036
0.0251841
8.55346
0.0251374
4.20656
0.0249819
3.92734
0.0254803
0.514836
0.0364117
3.05362
0.0271186
2.4923
0.345673
0.0306209
0.146131
0.579295
0.0254785
3.7251
0.134559
5.72288
0.0279587
6.62062
0.0323434
4.668
0.277227
0.125939
0.12227
4.73217
0.0255894
0.048701
4.28618
0.0254083
0.0266622
6.18277
0.319382
0.0257283
0.247554
0.759048
0.0251146
6.16909
0.326697
0.025412
0.0251554
0.0255402
0.0249269
0.356797
5.69562
0.755364
4.30126
0.0253164
0.142469
6.6802
0.0457445
4.37178
3.97561
5.85654
0.024987
0.237611
0.0251279
11.0318
0.0252121
3.79685
0.103984
0.027587
0.0255649
0.0648221
0.108907
0.078922
8.08596
4.44863
9.5947
0.0530742
0.0679944
0.0252448
4.77729
4.1966
0.0252905
1.08669
0.0253523
0.325594
0.0254787
0.0256027
0.0263322
3.53148
0.0262972
3.45687
6.00984
0.150926
0.516482
0.0254666
0.53601
0.467415
0.0253513
0.354392
0.0253961
0.0253299
0.109564
0.0256489
0.0253118
0.0251226
0.366283
0.0256307
5.54683
3.89965
5.27615
0.334228
3.36572
6.18525
0.0450987
0.025326
0.186161
0.0280986
0.0329118
0.0254269
5.77548
4.43844
3.95984
0.028173
0.118089
0.0277875
0.0287619
0.0784637
0.0261175
0.277714
0.0254937
0.0254295
4.13088
3.58794
3.59088
0.141653
6.32281
3.69943
4.26117
5.83663
0.0248137
0.0624665
0.0261752
0.0253208
1.13367
0.058138
0.0249858
0.0677107
0.0428668
5.86216
0.0253457
0.126668
14.042
0.808541
4.39928
0.0256406
0.0252982
0.0256756
0.0393456
0.0249907
4.29037
0.599605
0.0362426
5.35726
0.029817
0.126354
4.37446
0.867766
0.145916
0.318597
0.126246
0.0662501
0.175582
0.0455419
0.166631
0.636748
0.051276
0.0890456
0.0250608
2.79271
0.0306328
0.0248054
0.0376662
0.0259611
5.40164
5.83376
0.0251339
0.0247817
4.51324
8.76959
0.0256493
5.75485
0.0259092
0.244705
0.025148
5.08319
3.10988
0.0316865
0.0254981
3.33177
0.281341
6.98453
0.0256594
6.58982
2.45455
8.76178
0.0248173
4.5771
6.21126
0.0457928
0.0251459
0.0254958
0.0821028
0.370728
0.0249215
0.025165
0.0252477
0.0252402
5.20002
1.19481
0.0451613
0.354607
0.0252485
0.0250667
0.115641
5.12214
0.036569
0.0251122
0.0253248
0.0253798
8.67252
5.84324
0.0255324
0.0253786
0.228367
0.0452263
0.0363707
0.0252957
0.0264158
0.0301743
0.0869546
0.46303
0.36437
0.191104
0.106254
2.58841
0.0853682
0.0252649
6.20625
0.0253848
0.0269516
0.0272384
2.51109
0.0857736
0.0250703
0.808852
0.122936
12.1476
0.107367
0.0401085
0.045044
0.0255533
6.65996
0.562764
4.30695
0.0254158
0.032643
0.35451
3.97446
24.3588
0.0733298
0.16308
0.0281523
0.0272708
0.0252981
0.0606782
0.0981568
0.025419
0.0590844
0.151363
4.40374
6.28545
0.0272205
0.122268
2.1203
0.0318232
0.0256127
3.54323
6.32312
5.67887
0.318883
0.0247918
5.55671
0.0804306
0.0251091
0.0347288
0.0811726
0.0388192
0.107259
3.88471
0.171308
0.0406511
6.60558
0.0262459
7.39455
0.0256169
0.0255235
4.50577
6.25918
0.684603
0.0262393
0.025751
0.0253835
0.045944
3.38007
0.132134
0.0274738
0.136147
0.0635784
0.025152
2.19551
0.128369
0.302316
0.0252224
0.166194
0.0259387
9.81383
0.0739924
0.085193
0.0329841
0.0251439
0.0248384
0.0252644
0.135143
0.0311893
0.364226
7.09004
0.0638159
0.0251271
0.167471
0.732248
1.19343
0.0250439
0.0305202
0.0251756
0.0317672
0.0282382
6.03575
0.0256052
4.63756
0.0315184
0.166795
0.0970629
4.37944
0.0888523
0.0254513
4.35076
17.9115
0.0252646
0.0271547
3.13203
0.254856
0.129368
0.0256171
0.0255254
0.385186
0.027722
0.0781889
0.0704878
0.024839
0.0594631
4.85518
0.0250229
0.0260251
0.025274
5.45107
0.0256544
0.0278432
6.10796
0.0265242
6.24445
0.0302483
0.0411594
0.0252642
0.0568837
0.0253336
0.0647288
0.0251512
0.0967208
0.0259112
26.9571
3.07288
5.14662
0.0255673
0.0255755
0.0810559
0.0538888
4.71871
5.47876
0.0574384
0.0253326
0.363355
0.737734
0.288292
0.315111
0.0548881
3.80735
0.0441162
0.0432609
0.160431
0.207266
0.0566316
1.1734
0.0560735
0.0265483
0.0864803
0.0307154
0.0248861
0.0315526
0.050739
0.031095
0.0253423
0.0251991
0.063847
0.026389
0.0791971
0.025337
0.0253717
0.0256647
0.0263189
0.0246706
0.02902
0.0253007
5.26622
0.0689617
0.400461
0.0250237
0.0256297
0.0542924
0.0674037
0.0259045
8.18354
0.0900635
11.2148
0.0316194
0.134473
0.0255519
0.0256586
0.0252172
0.0263048
7.82506
0.0256402
4.9437
0.029307
6.01467
0.0557195
0.0915166
0.16379
0.0248592
0.025688
0.0702401
0.0253434
0.0256096
7.90704
0.0258872
0.0255407
0.0310354
0.0252255
0.0248508
0.0311541
0.0316426
6.00343
0.0387407
0.0250204
0.0251308
4.00695
0.13291
0.0254097
0.0254173
8.13224
2.87015
8.6844
0.0402126
0.026559
0.0250134
0.0248317
0.0523028
0.0398624
0.255707
0.0284107
3.81149
0.0254862
0.0268233
9.38238
0.0253606
0.0307845
0.0252317
0.0254083
0.0492624
0.0486877
0.025622
6.19113
4.3452
0.0984232
0.0252592
0.0247356
0.128324
4.36733
0.0256485
1.83602
0.0247371
0.0476835
0.0248509
0.0249305
0.405543
0.0251464
3.35994
0.0438668
0.0256644
0.0247803
0.0253453
0.0251657
0.0259457
4.19733
0.0249945
0.0249359
5.21437
5.85153
0.0418693
0.0523582
0.0740438
0.0281597
0.0249808
0.0316195
5.1008
0.102121
0.025473
0.0254449
5.58343
0.0393266
4.36979
0.0256552
0.0260115
6.53599
0.0367359
0.0256917
7.93377
1.7587
0.0251622
0.144533
0.0252137
0.0251267
0.0250054
4.34847
0.0246617
0.025022
0.0249731
3.51228
0.0276454
0.242511
0.0697554
0.0249149
0.0369036
0.0255326
4.30594
0.0252539
0.0250098
0.025542
0.133353
0.0255316
0.171067
5.82251
4.80864
0.0299183
0.388626
5.34436
0.0252666
6.94296
9.57964
4.82823
3.38357
5.11529
37.0702
0.155781
0.0255179
3.80083
0.0366797
4.10882
0.0248141
0.0250895
0.0254087
0.0255235
0.0289615
0.0348888
4.56855
0.0250797
0.0253904
6.4641
0.332477
0.0253448
0.042975
0.0327876
0.0253607
2.85402
0.0436725
0.0269431
0.0275865
5.75222
7.82238
1.34465
0.0248364
0.284408
0.122437
4.59527
5.88178
0.0957834
0.025142
0.02561
0.025489
0.0246132
0.026404
0.0248056
0.0302878
0.042887
5.61316
0.144503
0.025039
0.131261
4.28486
0.0464968
0.0255346
6.5905
0.0250662
0.025535
0.0424571
6.5954
0.0255319
0.0252216
4.48019
0.232332
1.65057
0.116723
0.724645
0.0251899
0.190509
0.0255606
0.0252987
0.0255585
4.25663
6.38178
0.0249214
0.024774
0.0252453
3.36494
0.0261867
0.0328169
0.0253462
0.0256176
0.183967
0.0249275
0.0659939
0.384645
3.58447
0.0251822
0.09463
0.0274001
4.56273
4.24835
0.0253158
4.47769
0.0791314
1.47856
0.02553
3.48024
0.0256274
0.029719
0.0479065
0.116837
4.52221
0.35984
0.189119
6.39418
0.025119
0.302966
0.0249191
0.0306898
4.4813
0.0253271
0.0256373
0.0259578
0.0253417
5.16914
0.0248554
0.0254114
0.0605187
0.0520911
0.0547439
0.653972
0.141212
7.64136
0.0699954
0.038541
0.0422632
4.69486
0.0429959
14.2138
4.05511
0.0283881
0.0249255
3.24773
0.296848
0.0255314
0.120928
0.0369751
0.0254199
0.0293621
0.0253802
0.0479307
0.0256895
0.0537313
0.121571
0.0251386
0.0670489
0.0249732
0.0674708
0.0251444
0.0293886
0.0638562
0.0265217
0.0252399
0.0249335
2.15997
0.090534
6.13848
0.0253069
0.0253343
0.0649932
0.0252334
0.100199
0.0908604
0.025422
0.104538
0.0249573
10.0223
0.0254991
0.0401676
5.42916
0.300038
0.0251983
0.0267909
6.81642
0.0253025
0.0251914
4.44609
4.20448
0.0273963
0.177043
0.0254394
0.0252314
4.31512
0.0261719
0.0248722
0.269136
0.024971
2.50334
0.0255642
0.0248783
0.0254106
0.143669
3.64385
0.0253666
0.0254792
0.0251917
0.0290753
0.0254051
1.06123
0.0647665
0.0256586
5.69428
0.055914
0.295644
3.72349
3.66302
0.0249079
0.0254839
0.0252745
0.833638
0.0295536
3.68593
5.73244
0.0270994
4.37456
2.35892
0.0542001
0.157207
0.0786841
0.436662
4.5622
0.0717009
1.11839
3.88122
0.0691531
0.0283746
4.50871
0.0608584
0.0248283
0.026371
13.5585
0.0428945
0.0251269
0.0590349
0.110181
0.0430634
4.39771
0.0269162
6.42158
0.0423815
0.285739
0.136985
0.304639
0.0320801
0.0249517
0.0257583
4.81559
0.0252928
0.0272925
0.0249975
0.0264296
0.025075
0.039795
0.163742
1.93859
0.0505518
0.0652431
3.99031
0.402159
0.0250602
2.94551
4.15802
0.0249163
0.0251793
0.0339246
6.68671
0.0256395
0.076376
0.6763
0.0539657
0.0253315
0.026173
0.0249814
0.121219
0.0444404
0.0252888
31.1814
3.82614
0.0484183
2.24009
0.0700251
5.83227
0.0264613
0.0284523
4.31862
2.79758
0.0968484
1.83086
0.0314857
0.0256685
0.025099
0.0253774
0.0253159
0.0258358
0.0594492
0.0252101
0.134679
0.0252235
0.0315824
0.0248989
0.090785
0.132953
0.870202
0.0252596
0.301558
0.0250984
4.41962
0.0253441
0.0288285
0.0254649
0.274051
4.69458
0.152006
0.0252
0.144857
0.0252481
0.0329537
4.18333
0.0251055
0.0255778
0.0502352
0.034692
4.37267
0.025211
0.0334193
0.026153
0.025354
0.0361359
0.0256585
0.0249633
0.026845
6.49532
0.027583
0.267714
5.71597
0.0566832
3.54116
0.0273349
0.0249717
0.0347975
8.44603
0.0263578
0.0409827
0.0452862
5.12932
0.0251479
5.77725
0.0686889
0.0771625
0.0249029
0.024801
0.182315
0.0256372
0.0256813
0.0378268
0.0248298
0.027559
0.0317355
0.0761436
0.299868
4.358
0.0280981
0.0805802
3.12003
7.54036
0.0405241
0.298696
6.55215
0.0426727
13.0703
0.0268585
20.8851
5.44716
0.0247979
0.0256494
0.0252412
0.0256758
0.0499304
0.0248963
0.0270867
0.0957621
0.0263805
0.0399129
4.2778
0.0338993
0.0271712
5.6332
0.0256983
5.65959
0.0273091
0.0609858
0.0251341
6.86903
6.0117
0.0252465
0.0257903
3.64244
0.0331431
6.73061
0.0253317
0.0249655
4.39798
0.0257868
0.0497164
9.50259
0.0253818
0.0600819
0.032373
0.0247943
0.0251693
3.74824
5.57274
0.0253872
0.0265565
0.0253015
0.0297292
0.0398595
6.14959
0.0258654
2.60282
4.33701
0.260438
3.96267
0.0257402
0.130984
0.22046
0.0326736
0.0253785
0.065021
4.09251
0.0265626
0.0522052
5.06182
3.67743
0.322642
0.0284099
0.0254725
0.0256285
0.0253843
7.45275
0.0599464
0.0268371
0.0258943
0.0274621
0.0256601
0.0252251
0.0253406
0.0791682
0.0408541
5.60705
0.0530936
5.02504
3.35669
0.0341892
0.0553377
0.0250469
0.031853
8.3389
0.0253359
0.0267333
0.0559234
0.129552
0.063919
3.77874
0.249052
0.0250734
3.92487
0.0247514
0.0254032
0.0517519
0.0256649
0.025057
0.186595
6.81275
0.0249774
4.23189
0.0253166
0.0248955
0.0266482
2.71245
0.0323419
0.0272782
12.7081
0.0260765
0.255787
3.33813
0.0256285
0.05448
0.0253162
5.92176
0.0777274
0.0253407
4.06677
0.058925
0.088896
0.0256715
6.5296
0.0328652
0.454816
0.0259702
0.0813126
6.93183
0.0249254
1.53148
0.0253596
0.0683404
0.0587963
0.0256273
4.53337
0.0267789
0.126987
0.0632998
0.108764
0.0455696
0.0494174
0.0257944
5.02293
0.0358095
6.97695
0.0336485
0.0695649
0.0251649
0.0487002
0.0253194
0.0739132
4.68192
0.025932
0.0250474
3.45474
0.0259297
3.30534
0.0256225
4.33226
0.317704
0.0389385
0.0252874
0.0252181
0.0254415
0.0248015
0.112718
0.0633354
0.0436053
0.028979
0.0254117
2.94241
0.0266345
0.0375381
2.68103
0.025313
13.3993
0.0557604
0.0326911
1.30911
4.34717
0.366582
4.50601
9.46234
0.0251374
0.406377
4.94122
0.411291
0.0255318
0.0254642
0.124885
3.98179
5.53757
0.697955
0.0253871
0.0574182
0.0434097
3.35302
4.94282
0.0452754
0.140541
0.0270856
0.0907036
0.0963884
0.0255207
0.11485
8.01623
0.0254735
3.53489
0.0256379
0.0251282
4.69316
4.02677
0.0251003
0.0254586
0.0256351
0.0249791
0.0549701
0.194128
0.0261424
0.0252866
0.0254322
0.0432099
0.0310003
0.030737
0.371492
0.0253215
4.105
7.55881
4.33603
0.174155
0.0575972
1.30159
0.0365772
3.74087
1.90242
9.74154
0.0256122
6.51176
3.42803
0.0249914
0.0253479
0.114106
4.42588
9.80689
0.0249126
0.0252562
3.57357
4.90604
6.96017
0.0271408
0.0271085
1.90566
0.0254186
3.72234
7.22366
1.102
2.69787
0.0253336
0.025187
0.0251517
0.0294399
4.08406
0.04324
0.0284521
0.02585
0.0984747
7.09925
0.0431656
6.12196
5.34349
5.20825
2.19906
0.0253642
0.0255304
4.35627
0.0248424
0.0248278
0.0262452
2.85975
0.0405212
9.35523
0.144051
0.0253336
5.30968
0.0431632
0.0250821
6.05822
0.191258
0.0282736
0.0252296
5.08201
4.3934
0.0255406
7.40056
4.38587
6.19234
2.46969
0.0932082
0.0251758
0.0257017
1.93101
0.0286819
4.50868
0.045939
3.5643
0.283319
0.0260984
0.0326555
0.0251622
0.025905
4.63005
6.90211
0.025385
4.87029
0.0460912
0.0252647
0.0280151
0.0252105
0.177657
0.0256157
2.35198
0.0582733
0.0251637
0.0251334
0.109493
8.20398
0.0422838
0.0271802
0.0472279
0.0253178
0.0262356
0.0303726
8.71991
4.06628
4.40714
0.0249224
0.0251251
0.0255538
0.132326
0.025129
0.0255972
0.187998
0.0639961
0.869933
0.0247839
4.36637
4.03767
0.0256791
8.78498
0.126405
0.0401204
2.08201
0.0255035
5.11168
0.0331821
0.0262541
0.0271006
0.0248378
0.238876
0.0257016
0.0258414
0.0347228
3.49202
3.578
0.0256284
0.0253306
0.0266512
0.0251856
0.146138
0.025657
0.0922962
0.0266009
4.14913
0.025755
4.30464
0.024923
5.40666
0.025563
0.0248156
6.92984
0.361562
0.124266
0.922888
0.0498786
0.0440121
0.0253462
5.17539
0.0253787
0.0251378
0.0988947
0.0686203
10.0147
4.43951
0.134488
6.9112
0.141125
1.03015
0.0249978
0.0280029
0.0309425
4.14328
0.0280185
4.23407
4.4583
0.0253109
0.0253451
0.0252529
1.68856
3.37238
0.0264333
0.0254461
0.0289804
0.0313101
0.0412844
0.408025
0.357687
0.0253872
0.710604
0.0932853
8.63139
0.0790915
0.026461
0.0270097
5.14823
0.025148
0.0975784
4.65237
0.0259267
0.0285922
0.193498
0.151137
0.0259682
6.4895
0.0274806
0.298956
0.0432502
0.0341054
0.0258371
4.33972
0.0251135
0.110718
1.50184
4.76628
0.054551
0.0742545
0.0286024
0.0540893
0.0256546
4.96891
0.0297044
0.0251369
0.0330317
0.025424
0.0256592
2.97298
0.0253889
0.0255402
0.0252828
0.143062
0.0254924
0.0366579
0.079165
0.256207
0.12805
0.0256384
0.27404
0.533098
0.243445
0.0933432
0.0308243
0.172373
4.81241
0.710613
0.0256794
7.68564
4.208
0.0256786
0.0272402
0.0248263
0.778579
0.11668
0.0251838
1.34188
4.17826
0.025046
0.0254635
3.68759
4.13212
0.0702011
0.0248395
11.2946
3.2229
3.29406
0.0253375
4.16111
0.0885786
0.0802204
4.36096
0.0292621
0.0248418
0.0332495
0.207233
0.0351695
3.93333
4.42992
0.0250397
6.46212
0.585802
4.54036
0.0249186
0.0581916
0.0255319
0.02517
4.21087
3.53312
0.297753
3.90435
0.0329281
0.0554884
0.0254931
4.5968
5.91505
0.0253518
0.0254422
0.035831
0.0249464
0.0555035
4.57133
7.41379
0.0560881
0.0256286
0.025272
4.20538
0.0281984
0.0577734
0.025014
0.026184
0.793012
3.93508
0.457535
2.98707
0.0255286
0.322931
0.0255741
0.0541853
9.75161
6.78345
0.0253957
0.0256919
0.0385962
0.0289792
0.0254418
4.48946
4.15912
0.0249672
0.0246337
0.0255551
0.0252599
2.74994
0.0248911
3.83805
0.112819
0.0683622
0.0250641
0.0540161
4.55647
0.0368052
0.510636
5.85846
0.0254696
7.23561
0.0373338
0.0400795
0.410901
7.2535
4.60621
0.0648235
0.0251508
0.288129
0.0249046
0.0284963
0.0254528
3.85567
0.0357535
2.65933
0.281476
0.0531855
0.0254662
0.321154
0.0299691
0.0256607
0.294511
0.0247658
0.0409113
0.0374141
0.0254208
9.81174
0.0265805
0.602979
0.0260355
0.0252152
5.54968
3.6931
0.0273206
0.0366648
0.0422343
0.0651099
0.0634289
0.0292368
0.0291364
0.0282849
0.247
0.0282406
4.00437
0.0677725
0.249133
0.126217
0.0257638
4.65568
0.0247821
4.59654
0.027422
4.29564
5.99093
9.10539
7.79201
0.32967
0.0874226
0.0251555
4.38192
0.0970001
0.025339
7.89538
5.65177
0.0264842
0.0268141
0.0340414
0.0340463
0.0355369
5.27452
0.0256789
0.0328102
0.0381861
0.0363263
0.0255201
0.0924843
0.0247691
4.12278
0.0268646
0.145878
0.0351426
0.0431398
0.137908
4.0058
0.0954815
0.025062
0.278254
4.35841
22.6361
0.0255152
4.19419
0.0321236
1.84637
0.0253789
0.0277303
3.8807
0.0556969
5.01005
7.39008
0.0376579
4.89272
0.0252016
0.0247532
8.92721
0.0666972
0.0276543
5.38885
0.0301723
0.0518506
0.0330684
0.0791743
0.0253586
5.73394
5.27633
7.06903
0.299275
0.0286465
0.0641805
4.98486
0.0272548
0.0255297
0.0928837
0.0248775
0.335268
7.79499
6.41588
5.33401
0.0604666
0.0255777
4.20848
0.0247599
0.0809194
0.0256141
23.9478
0.0269873
0.0537386
3.72141
0.130135
0.0253386
0.0361926
8.95071
0.0253503
0.159281
0.0249922
9.54278
4.2442
0.125205
0.0889743
0.0252387
0.228162
0.149753
0.042899
0.0249991
0.0256028
0.0254965
0.0593593
0.0254646
0.0936127
0.0253866
0.0249887
6.29715
0.025068
0.0300612
0.0281066
0.0256665
3.63849
0.0250723
0.0379897
4.06103
0.0521014
3.91431
0.0253374
4.42332
0.0549089
5.17606
0.0267654
0.13826
0.0252946
0.0445149
0.133947
0.122505
0.281012
4.13354
0.238272
2.00519
0.0304206
0.121241
0.0471929
0.971641
0.0282734
0.0252431
0.0253149
0.0562708
0.0523944
3.17927
0.0586118
4.70276
6.81695
0.114165
0.025243
4.88219
0.227761
0.0256951
0.0272738
0.025333
4.90023
0.0253241
8.30733
0.0250565
0.0301145
4.92846
0.0892573
0.0253547
0.0253124
7.95084
0.0250907
0.0272668
0.0283268
0.0364574
0.0308998
0.0253809
0.165298
0.0922242
0.0494871
0.354983
4.39647
3.62888
6.2272
0.0249436
0.0252593
0.115974
0.02559
0.0533173
4.13069
3.76391
0.0248355
0.025348
3.32429
0.557611
0.0248554
0.0250619
0.0299583
13.1346
4.0186
0.0297597
0.0377619
0.0255668
0.399686
0.137006
0.159911
0.0357569
0.0499482
0.0256447
0.041847
0.326405
0.0259815
0.0253237
0.0295681
4.62767
0.0284032
7.25608
0.0254436
3.83857
0.0411864
0.0313744
0.0250035
0.0252008
0.882343
7.84458
0.0657513
4.25692
9.73159
0.0257405
4.0402
0.15408
0.0250962
4.64049
0.27861
0.125521
0.0256387
3.45248
4.48596
0.0251077
0.04474
4.25943
0.0507936
0.0252893
0.024984
0.0255655
0.0269879
0.0903458
0.303296
0.0875286
0.0862473
0.024907
0.0254171
4.65733
0.0250554
0.0547096
0.0299786
0.0252443
0.0555496
0.0253345
0.0269305
0.3585
0.0253021
4.48782
0.0253273
15.2494
3.66336
0.103241
0.0254571
0.0256904
4.19821
0.0248226
0.0273728
0.0255715
0.374286
1.35029
0.037076
3.67752
0.047331
1.7099
0.025763
0.0758872
0.0249509
0.0254866
5.04648
3.73098
1.45874
0.0269627
0.076074
0.0759823
4.78165
4.11163
0.34116
0.0433418
0.0247541
4.16176
0.0250907
0.0251572
0.314788
0.123833
0.0318937
0.226755
0.0536397
0.0355773
0.0309214
5.08649
0.0274921
0.0252944
6.73967
0.0533014
0.0249061
3.43022
0.0253469
0.0254492
0.177156
0.169907
12.1862
0.0249287
0.0279949
0.0251752
2.28407
0.0250895
0.590156
4.20979
3.57627
3.42492
33.3454
0.0340681
4.4926
0.916259
0.0255805
0.0345101
0.0493818
0.0342432
1.2806
4.15847
4.39793
3.51241
2.46458
0.0253865
0.115779
0.0253571
4.83448
0.0318739
0.0262377
0.0272441
0.0258538
0.0251137
0.11651
4.39461
0.0249279
0.0267976
0.0251232
4.60497
0.0266424
5.38102
3.79637
1.3702
0.0254252
0.0251209
4.4275
0.421896
0.0254858
0.3431
0.0256049
0.157278
0.212876
0.104441
0.0561219
10.6949
0.0250123
0.0249482
0.249605
3.29314
0.0326888
0.0531496
0.0251873
8.62805
0.0253124
0.0252373
0.0263144
0.025263
5.21043
4.0456
1.8205
0.0646215
4.20611
0.681461
0.0248452
0.0343246
0.0248904
1.31787
0.0251531
0.0280664
0.0252831
0.025195
0.0249502
2.93866
0.0259123
1.76941
0.0247224
0.036652
0.0260846
1.60297
0.0253642
0.0348241
0.0382497
0.0792869
6.68554
0.0251884
4.22531
0.0770278
0.0517458
0.0250912
0.0252273
3.47674
15.9285
0.0251671
0.025076
0.285046
0.262485
0.042929
3.99879
0.0259606
0.415566
0.0345037
0.0249046
5.45084
0.0260922
3.89027
0.0253181
0.0258547
0.0254613
4.2604
3.55934
0.0248627
0.2733
0.262554
0.0253827
0.0250575
0.0251507
0.292703
4.05078
0.0724199
0.0272911
0.0435204
0.0253425
0.0253096
0.0268322
0.0253095
0.204247
0.0253262
0.0687647
0.689557
0.0396672
0.0247938
3.97334
0.0815451
0.0253544
0.0905729
0.0338398
1.55421
0.0277289
10.1927
0.0630726
0.0252274
0.096549
0.0953607
0.0277914
5.76999
0.0647981
0.0328191
2.06397
0.025176
0.169398
0.0998708
0.143505
0.0252219
0.025228
0.0248187
0.0378631
0.060411
0.0591707
6.43999
4.60656
3.82854
0.0256559
1.93788
3.72179
4.28155
0.0252814
0.025256
0.0589047
4.17521
0.0273919
0.0385369
32.5875
5.06635
16.9889
0.128638
0.183636
3.31629
0.435628
0.0247667
11.9537
0.301818
0.0255016
0.0254885
0.0260092
4.61676
0.107188
5.3084
0.0271754
8.63692
0.0253246
1.83167
3.80246
0.025436
0.0373934
4.26022
4.72072
0.061628
0.026012
0.0269314
0.0256145
0.260897
0.132522
2.75165
4.18003
0.0249447
5.28353
0.185522
1.29399
0.0253418
0.0255209
2.64889
0.293097
0.0252127
0.0553993
0.0827147
0.0441704
4.07976
4.66719
4.58275
4.14454
0.0286793
0.024826
0.0744355
4.50323
10.2158
0.0251131
0.314913
0.104795
0.49758
0.0255752
0.0256421
1.27322
4.49107
7.14461
1.73658
4.23524
0.0252454
0.287403
4.12754
0.0254748
0.0703783
0.117897
0.0248732
0.178802
5.00637
0.275417
0.0256408
5.29597
0.129809
27.3148
0.0246398
0.0267206
0.0253718
0.0262121
0.0253406
0.0608486
0.0456775
0.0482049
0.373459
0.0370559
4.22375
0.0285303
0.0319586
0.0313842
9.0776
0.0653882
4.96082
0.031436
0.0313988
19.0016
0.109436
0.0253426
0.0482523
4.48419
5.35945
0.327208
0.0252146
0.0251511
0.0251617
1.50235
0.026367
2.51738
1.36783
0.291432
0.0354724
0.284284
5.56044
0.0253417
7.26587
0.0379386
0.0575788
0.0251638
0.0250805
0.0589112
4.30348
0.0254085
4.91303
0.566689
0.111624
0.207503
0.0250965
0.0253341
0.0331892
0.0260065
25.432
24.7839
0.0961161
0.886982
0.0251983
0.0252895
0.0253643
0.0256279
7.44989
0.0263215
4.51207
0.0983336
0.0256023
0.428759
2.825
3.41306
8.53382
0.0266503
0.0249301
0.0254734
0.0265499
0.787875
0.276993
5.71641
0.0255069
0.0255502
0.183004
0.0256472
0.228682
0.0268949
0.171818
0.195529
0.0468167
0.0450179
0.0249189
0.0519669
0.0431888
0.239914
0.0916972
0.0481644
0.0251258
0.279166
0.0251257
3.34615
3.62018
0.987469
0.0253287
0.123563
0.0252663
0.0540934
0.0261219
0.0258059
0.0318084
8.88754
4.03294
0.0897199
0.0536734
0.259021
0.0887852
3.9352
4.23694
0.034921
4.1986
0.3933
0.0250629
0.0637497
4.28332
0.109071
0.0256153
0.0599048
2.28658
0.589662
8.60448
0.0253179
1.01481
0.0254265
0.025185
0.0454944
0.297097
0.025652
4.21857
5.08676
0.23053
11.1174
0.422695
4.67329
0.348452
0.024922
0.0279781
0.0248035
0.0480394
0.320271
0.517652
0.0275833
0.0473619
0.0247801
4.31304
0.0420683
0.0527211
4.07767
0.112018
6.7392
4.63182
0.0252184
6.72423
0.0254552
0.0319394
0.0536929
3.86301
0.168036
0.0313912
0.0262856
0.630719
0.0379721
4.31994
5.92651
0.0363835
3.2278
0.0487856
0.0256641
1.21169
0.0700502
0.0262049
8.98784
15.2033
0.033231
0.0293453
0.142428
5.97695
0.0252186
0.0254085
0.0248575
0.0249699
0.02557
4.82243
0.0356203
3.94185
0.0252441
0.0251068
0.915712
0.0253546
0.0268006
0.0253771
0.0253367
2.33673
0.0249446
4.73588
0.0251543
0.0261975
0.0468265
0.0254303
0.163747
0.0249582
0.0256536
0.0249876
0.0310013
0.101127
0.0275747
3.64053
0.0251709
0.0494926
0.0330325
4.21978
0.0259733
0.0256586
0.0248387
0.0248638
0.42514
0.02515
0.0250875
0.0277253
2.14132
0.0252161
0.0485139
0.0368451
0.0252624
4.88721
6.68057
0.275195
4.95269
0.0279167
0.121177
0.0254039
0.111908
0.363557
0.0254538
2.18032
0.141327
4.60427
0.0346982
0.0253393
1.63454
0.0490972
0.862815
5.18467
0.0247079
0.0252547
7.45797
3.2053
0.0649269
0.0639734
0.0262638
10.53
5.72265
0.0246437
0.025255
0.0252815
0.0255314
0.0256312
0.0253342
0.0401008
4.28146
0.0349553
0.0254351
0.476832
0.0252832
0.895563
0.052137
0.0252113
0.030773
0.0251756
0.406819
0.0281084
0.059128
0.0252236
0.0254479
4.5118
4.88793
0.0255359
0.0562046
0.0501713
0.0349624
0.0271262
0.0256619
0.0258764
1.69952
0.612213
0.043534
4.87973
0.025624
24.2295
0.116485
0.029144
17.6947
0.0262734
4.38184
5.36758
3.40822
4.11421
4.12582
3.71056
0.0247838
0.0305206
0.0279551
0.0247913
0.0249008
0.0324889
0.0852611
0.024959
0.0332071
0.134286
0.086509
0.370687
0.234089
0.0371751
1.8872
9.51909
0.0382863
0.0281098
0.139933
8.72074
3.87433
0.0287771
0.0247673
0.0250995
0.0249769
0.0352042
3.80977
0.407619
0.024892
4.67513
0.0252757
0.15042
4.12187
0.0928598
0.213859
0.101568
0.368332
0.0260364
0.0374785
0.0251091
0.269983
0.0252221
0.0261485
0.0366013
0.166991
0.0255358
0.0276479
5.55048
0.025059
0.025236
0.0327606
5.68571
0.127131
0.570348
0.0430115
0.0255002
3.34884
0.0417578
0.0264568
0.0253131
0.0345529
0.0298866
0.0253242
0.0310034
4.47971
0.026776
0.0248171
0.0528936
0.0251334
0.0358216
0.0339373
0.0253877
0.0252955
4.68239
0.0249117
0.0253407
0.0248344
0.0289812
0.0246012
4.89564
0.0291053
0.233551
0.0252497
0.0250837
0.0251998
4.32974
0.0700298
0.0253311
0.0247462
5.55739
0.0282918
0.0738622
0.025107
0.163868
0.0265766
0.0247073
3.9412
0.0249098
0.0254937
0.0254954
0.0251503
0.0273418
0.0254684
0.0253483
1.69641
1.57172
4.63457
0.27694
8.32635
0.0250808
4.56052
0.0252577
4.02047
7.90497
0.0250315
10.2784
0.0252739
4.18671
11.5938
0.299312
4.14694
3.96697
0.891473
2.34988
6.08551
5.26574
0.0488504
0.0457971
4.63632
0.0267017
0.0248411
2.03528
0.0270186
0.031834
11.8357
0.0261738
0.719026
3.66036
6.33027
0.408861
0.129419
0.025636
0.031851
0.0543786
0.025456
6.84438
0.395312
0.121692
0.0251482
0.0253934
8.06616
0.0248771
0.780859
0.0250426
9.04814
4.44718
0.0385002
0.029367
0.02525
10.1807
4.03554
0.0286814
0.0377147
0.0256811
0.0256807
0.0632892
0.0263728
0.0360979
0.0752878
0.0274662
0.0361918
0.025346
0.0362788
15.156
0.0256529
10.7283
0.0251469
3.53047
0.0618264
0.0253493
9.94285
0.137814
0.0250851
0.175337
0.0253374
0.415895
0.0254344
0.025309
3.80339
0.0254943
0.11735
0.0265411
0.151694
0.0250477
0.0255563
0.0251091
0.0338855
0.0274388
0.0255167
0.0258099
0.0285433
0.0256652
0.134998
0.072757
0.0328553
0.0265661
0.0247672
2.39138
8.3693
0.0259834
0.025744
0.0258608
0.0426819
0.0254317
0.0393094
0.0247207
0.0256804
0.258876
0.0265397
0.0256795
0.0251618
4.79439
10.9369
0.0247615
0.0810983
0.0656896
0.257808
0.248416
6.62395
4.33038
0.70619
0.0260668
0.150395
0.0252054
0.0354036
7.11939
4.44712
0.152608
0.0271246
15.3482
0.0253548
0.0526316
0.44074
0.0254544
0.147776
0.0266571
0.0264498
0.0834604
0.159114
3.89422
3.38033
0.0250257
0.0247506
4.76975
3.77777
0.0254621
0.0327253
0.132527
0.0253392
0.0253215
0.0273083
2.15947
0.0249872
4.29825
0.033236
0.025408
0.267883
0.0795072
0.0736634
0.127807
4.9011
0.0276203
0.0381402
0.0308516
0.0269597
9.578
0.0350687
4.2321
4.17195
0.075268
4.10854
0.0523095
0.0540847
0.384437
0.0249254
4.28866
0.0982517
0.0379751
0.0328226
0.0255372
0.0248263
4.08457
0.048846
4.24919
4.30855
0.0254527
4.27524
0.0250772
0.0252141
0.0324091
11.2542
0.0812557
0.0248197
4.08282
0.0252545
0.0270074
3.89857
0.0268771
3.46075
0.0256638
4.38963
4.39409
0.077427
2.66547
0.0265811
3.43941
0.0247613
5.31371
4.75615
4.4077
5.05877
0.0252286
0.0250059
0.265295
3.68575
3.4237
3.83842
3.75397
0.0253572
4.88898
3.4301
0.0256277
4.95812
0.0355233
0.0367456
12.1129
0.0431443
4.39317
0.0251488
0.0428103
0.0380393
0.224513
6.24988
0.0415359
3.55831
4.46341
0.0255296
0.0278233
0.0270011
0.0279501
3.43944
0.025318
0.0249742
0.0444882
3.7243
3.94427
0.0314566
3.89225
4.18618
0.0252167
8.44345
4.74518
0.195254
4.00877
0.0746672
0.0275891
0.0255302
0.174289
0.0296568
0.0897602
9.87182
4.53166
0.0327143
0.0797972
0.0290216
0.0422025
0.0248381
0.0451625
0.0278846
0.100786
4.63975
7.03416
3.90888
0.0248113
0.141791
0.0687272
4.23982
0.0264385
4.65092
4.76023
4.2868
0.0252664
0.195484
4.55357
10.7467
7.35149
0.0411515
5.50236
3.91631
0.0687853
0.0748772
0.0272233
0.0329379
4.69096
0.0511825
0.0255485
3.28519
0.0252369
0.0254408
0.133966
0.134282
0.0249875
0.101975
0.0279238
3.7412
10.7539
0.0270594