/*--------------------------------*- C++ -*----------------------------------*\
| =========                 |                                                 |
| \\      /  F ield         | OpenFOAM: The Open Source CFD Toolbox           |
|  \\    /   O peration     | Version:  v2012                                 |
|   \\  /    A nd           | Website:  www.openfoam.com                      |
|    \\/     M anipulation  |                                                 |
\*---------------------------------------------------------------------------*/
FoamFile
{
    version     2.0;
    format      ascii;
    class       volScalarField;
    location    "300";
    object      p;
}
// * * * * * * * * * * * * * * * * * * * * * * * * * * * * * * * * * * * * * //

dimensions      [0 2 -2 0 0 0 0];


internalField   nonuniform List<scalar> 
13917
(
-0.0879725
-0.00493711
-0.0999494
-0.0423106
0.0261903
0.456274
-0.0901475
-0.111594
-0.208422
-0.140657
-0.105216
-0.0805816
-0.0428366
-0.123104
0.0447172
0.0216505
0.001701
-0.131599
-0.0796449
0.00776885
0.0184569
-0.0855613
0.012976
-0.117002
0.0248622
-0.079038
0.216209
0.228591
0.0915726
-0.197236
-0.103028
-0.0467446
0.170166
0.108828
0.0299122
-0.0957016
0.0130218
-0.126325
-0.0490555
-0.0682333
-0.00307096
0.0169535
-0.0146199
0.254649
-0.0259224
0.125469
-0.12894
-0.133196
0.50809
0.00222253
-0.0720795
0.0569577
0.511162
0.112985
0.00313435
-0.0719908
-0.10639
0.0234332
-0.0572759
-0.0246255
-0.385722
-0.00653578
-0.121443
0.00791214
0.447235
-0.387574
0.0275872
0.0349589
-0.150561
-0.0536042
0.0257206
-0.20758
-0.232215
0.0241188
0.494267
-0.0739952
-0.1943
-0.040271
-0.074374
0.0181698
0.0148285
0.0270404
0.432654
-0.127581
-0.404923
-0.0393217
0.012573
-0.345547
-0.0703206
-0.0149648
-0.197774
-0.179207
-0.0106495
0.0461157
-0.377571
0.449253
-0.122701
-0.133573
-0.0798897
0.32921
-0.00474897
0.166681
0.263324
-0.0479408
-0.0075421
-0.217906
0.0612676
-0.135997
-0.000200606
-0.104703
-0.328408
-0.0686531
-0.0826583
-0.214653
0.0736037
0.511913
0.0152223
0.49806
-0.084257
0.111591
0.0170423
-0.151263
-0.0936947
0.222376
0.000542909
0.0446762
-0.0209768
0.000793908
-0.0125369
0.45677
-0.0923946
0.0713074
-0.026112
0.0187931
-0.271098
-0.11351
-0.0852843
0.343691
0.0278564
0.110823
-0.0996059
-0.0150022
0.0595013
0.28941
0.0355339
-0.201873
0.0327512
0.0551233
-0.0144429
-0.0417791
-0.105802
0.507173
-0.101435
-0.0207092
-0.0631914
-0.413005
-0.0487213
-0.134476
-0.194651
-0.279983
0.0800423
0.215932
0.0155794
-0.120702
-0.0831741
-0.0804143
-0.0469737
-0.118601
-0.0201338
0.172138
-0.0410818
-0.3536
-0.080543
0.00462149
-0.175198
-0.0135614
-0.0900128
0.505221
-0.195909
0.00193282
-0.185104
-0.10871
-0.0156128
0.0128411
0.077309
-0.081452
-0.278691
-0.409545
-0.105281
-0.0865821
-0.116453
-0.405077
-0.276296
0.0170537
0.361567
0.208118
-0.00707351
-0.0106109
0.0432106
-0.346984
-0.0628663
0.00252585
-0.111405
-0.104064
-0.230671
-0.231944
0.0296359
0.0243064
-0.130668
-0.0861998
0.0573692
-0.0921801
-0.231675
-0.0873968
-0.00712706
0.31411
-0.122251
-0.313286
0.0125877
-0.378282
0.00211305
-0.186791
-0.00260524
-0.139882
-0.224233
0.0208429
-0.29548
-0.0663662
-0.00651491
-0.0951144
-0.0795377
-0.103743
-0.101672
-0.233561
-0.00657856
-0.0501037
-0.198956
-0.412434
0.016062
0.00285157
-0.0688294
-0.128566
0.00576342
-0.0910368
-0.171265
0.208493
-0.0839404
0.0152246
0.0211277
-0.217594
-0.0299977
-0.206634
0.34455
-0.0209247
0.024137
-0.0959503
-0.0694529
-0.100549
0.0759306
0.0410784
0.00606661
-0.0924358
-0.286891
-0.082734
-0.00595831
-0.262315
-0.131041
-0.136401
-0.0705583
-0.0745478
0.0152685
-0.000610552
-0.128243
-0.158643
-0.159686
-0.0556236
-0.234605
-0.0655413
-0.0125006
-0.324598
0.00656013
-0.172192
-0.0610644
0.00570876
0.0149585
-0.0154954
0.216172
-0.0919293
0.0134955
-0.031921
-0.264351
-0.101484
-0.281333
0.0129031
-0.147225
0.0245697
-0.0319979
0.0148272
-0.000859763
0.00421271
-0.192325
-0.0791871
-0.019938
-0.111542
-0.0221288
0.515258
-0.0118539
-0.17266
-0.019821
0.0233433
-0.333869
-0.100017
0.0148636
-0.0014987
-0.331287
-0.00218881
-0.229843
-0.0190401
-0.141708
-0.0351738
-0.261167
-0.0889444
0.475093
0.076366
-0.272873
0.348045
0.012658
-0.13084
-0.0714401
0.0230257
-0.103357
0.357719
-0.132262
0.0981219
-0.0723808
-0.0564864
-0.37126
0.343913
0.0355111
0.0234966
-0.0990287
0.0194904
-0.047566
-0.329616
0.0380673
0.0157483
-0.124218
0.0376956
-0.000522742
-0.116521
0.127133
-0.00291971
-0.0834659
-0.104127
0.00666376
0.000576181
0.0244448
-0.0148626
-0.258691
-0.188264
0.408856
-0.33597
0.0203565
-0.213882
-0.407823
-0.100657
-0.0901371
-0.160626
-0.221206
-0.00705969
-0.0826184
-0.00109914
-0.377111
-0.0236593
0.465055
-0.174498
-0.0516356
0.019906
-0.127808
-0.191911
-0.150121
-0.0912747
-0.36927
-0.314182
0.0153428
-0.13304
0.00302111
-0.413445
-0.0844898
0.0187653
-0.27002
0.0245191
-0.225001
-0.0352415
0.0194608
-0.0172054
-0.0718611
-0.0153599
-0.0707201
-0.397626
-0.0982798
0.382734
0.0211072
0.330915
0.365002
0.0110261
0.06781
0.0365726
0.0258451
-0.196039
0.00615303
0.026464
-0.00144982
-0.254287
0.0181462
-0.073249
-0.0714511
-0.399546
-0.272185
-0.0717044
-0.2952
-0.0985679
0.0198449
-0.211387
-0.0488246
-0.055505
0.0170847
-0.189735
-0.0871722
-0.0739656
0.0332895
-0.175847
0.0949345
-0.0501439
-0.147842
-0.00248436
-0.081498
-0.00137228
0.00429535
-0.231092
-0.0896612
-0.0886515
-0.197134
-0.400026
-0.103853
-0.294659
-0.16983
-0.0117493
-0.129988
-0.00442411
0.0270074
-0.233566
-0.130435
-0.0141779
-0.151852
-0.0996063
-0.160621
0.0109025
-0.139183
-0.39772
-0.294221
-0.0759697
0.0185318
0.0200454
-0.00741458
-0.0432929
-0.00712899
-0.0777931
0.416315
0.0115491
-0.413405
-0.0711848
-0.118647
-0.295707
0.0240553
-0.0969765
-0.100649
-0.138711
-0.150409
-0.198219
-0.0822385
-0.0905166
0.445716
-0.0779357
-0.134959
-0.00979836
-0.258872
-0.0753869
-0.0213801
-0.0384896
-0.0426048
-0.164563
-0.218849
-0.0016896
-0.0123611
-0.0844392
-0.295972
0.00595443
-0.0750462
-0.0442659
-0.254417
-0.000519201
-0.247255
-0.178948
-0.0447016
-0.0225642
-0.0714885
-0.268263
-0.414923
0.0062911
-0.226092
0.511648
-0.334531
-0.0214524
-0.407496
-0.281556
-0.0985554
-7.81606e-05
0.00834758
-0.0719853
-0.226702
-0.0143332
0.000817833
0.000884784
0.00059735
-0.260921
-0.236492
-0.0979999
-0.275066
-0.000832944
-0.00436016
-0.171764
-0.252996
-0.0945667
-0.0211378
0.0253144
0.0306062
-0.329461
-0.403142
0.0109367
0.0301992
-0.0825853
-0.082816
-0.0879478
0.0212705
-0.0127266
-0.0298035
-0.132222
-0.0524738
-0.282236
-0.213058
-0.156635
-0.22882
-0.171122
0.0141116
-0.220282
0.0303092
0.014919
-0.0534807
-0.2554
-0.0132008
-0.0043509
-0.291573
-0.207267
-0.393016
-0.158524
0.119208
-0.102097
0.0201861
-0.283443
-0.274254
-0.108695
-0.000922987
-0.083015
-0.279524
-0.162945
-0.262976
-0.136407
-0.206047
0.0257718
-0.0415139
0.0225265
0.0996038
0.282188
0.0493026
-0.119477
0.347749
-0.10945
-0.415289
-0.0155346
-0.116795
-0.17664
0.00974009
0.0535595
0.352686
-0.238856
-0.182178
-0.268208
-0.0123861
-0.0849562
-0.0727578
-0.00436244
-0.0818227
-0.115734
0.162161
-0.192808
-0.0737499
-0.194412
-0.0782558
-0.280512
-0.044543
-0.171512
0.0164606
0.0111303
-0.144957
-0.236234
0.422236
-0.0451127
0.00304307
0.0297008
-0.0668481
0.503968
-0.0801382
-0.0438627
-0.0968722
-0.125087
-3.51216e-05
-0.280081
-0.0791315
-0.0772467
0.010291
-0.189083
-0.0417947
-0.397216
-0.146456
-0.0215471
-0.0841635
-0.00198307
-0.0194952
-0.0220966
-0.00721366
0.126716
-0.262118
0.096091
-0.118831
-0.0024574
-0.199143
0.416169
-0.101475
-0.0293951
0.117475
0.00144755
-0.0629461
-0.0596502
-0.283842
0.018628
-0.327637
-0.0641694
-0.103413
-0.17797
-0.240236
-0.0441287
0.00876866
-0.168878
-0.263964
0.010714
-0.0524442
-0.19202
-0.261778
-0.156272
0.0057887
-0.0238497
-0.243763
-0.0522854
-0.150095
-0.0952522
-0.0200444
-0.101766
-0.104701
-0.0289544
-0.0403529
0.00153173
-0.0975812
0.0192416
0.0333733
-0.357411
0.0248244
-0.235133
-0.0619548
0.174129
0.00122293
-0.0251461
0.0152359
-0.148717
-0.00179839
-0.100558
-0.0439527
-0.390934
0.196518
-0.255401
-0.00651302
0.019886
-0.164417
-0.119821
-0.117974
-0.233906
-0.133418
0.0283163
-0.249093
0.439865
-0.0775653
-0.257579
-0.123161
-0.0738043
-0.0785586
-0.0649256
-0.20756
0.0646156
-0.131383
0.435546
-0.131969
-0.0456786
-0.117514
0.00831733
-0.0239488
-0.062712
-0.106062
-0.0372593
0.0175688
-0.00118356
-0.122148
-0.0495528
-0.153169
0.0275662
0.0256699
0.0195402
-0.00779735
-0.0167554
-0.0345319
0.00215405
-0.247835
-0.0777281
0.372414
-0.00589254
0.0126029
0.190105
-0.154381
0.068629
-0.326619
-0.143052
-0.370581
-0.0642151
-0.183816
-0.038614
0.016273
0.000230952
-0.0203126
-0.382523
0.0122655
-0.230269
-0.0354711
-0.409155
0.0275394
-0.15048
-0.102288
-0.0137564
0.00585517
-0.0789448
0.0346364
0.0344275
-0.315259
0.00358489
0.0242767
-0.0726633
0.00185141
-0.0113018
-0.0439212
0.131559
-0.116907
-0.0711348
-0.028943
-0.00350608
-0.163991
0.00250414
0.0157673
-0.00200509
-0.319084
-0.184194
-0.331616
0.112851
-0.0465966
-0.00615036
-0.0114816
-0.0795045
-0.0759518
-0.123917
0.101581
-0.10541
-0.0132665
0.0544257
-0.333873
0.0249458
-0.0765342
0.0117321
0.00385707
-0.098699
0.223502
-0.0355882
-0.226016
-0.0694996
-0.1819
0.0137582
-0.0178789
-0.0848488
-0.234928
0.00640546
-0.218045
-0.0175146
-0.101572
-0.0245696
-0.0246869
-0.232204
-0.0281834
-0.0732075
-0.105431
0.0201992
-0.0140525
0.0414914
0.00356591
-0.0399457
0.246657
-0.0279719
-0.0211156
-0.175202
-0.197129
-0.0797064
-0.113869
-0.142069
-0.0632304
-0.0146244
0.128625
-0.227485
-0.111325
0.0221334
-0.0213053
-0.228854
-0.102225
-0.339042
0.0199346
0.070819
-0.100345
-0.0940696
-0.0377312
-0.399319
0.471184
0.0030059
-0.202759
-6.84095e-05
-0.0271976
-0.00609936
-0.260276
-0.0164939
-0.0281201
-0.0152442
-0.0721425
-0.0484926
-0.258776
0.272564
-0.0252764
0.166038
0.0102569
-0.338157
0.00466096
-0.0285281
0.0240152
-0.0855869
0.0242508
-0.193149
-0.0694831
-0.100557
0.113481
-0.10591
-0.361254
0.0218871
-0.0852199
-0.395232
-0.359617
-0.0720157
-0.173211
-0.40209
-0.195585
0.00652406
-0.0740362
-0.093349
-0.0868907
-0.0208469
-0.0116424
0.0142022
0.0104874
-0.0684098
0.121349
-0.103553
-0.0117297
0.028678
-0.413009
-0.0529998
0.0413574
0.19247
-0.080678
-0.0321721
0.134136
0.197046
0.067825
-0.0489299
-0.0687468
-0.336588
0.496802
-0.0242545
-0.265267
-0.202672
-0.395152
-0.227446
-0.0776847
-0.00171733
-0.0395253
-0.0117934
-0.0143377
-0.0107676
-0.0117082
-0.0317347
-0.0744012
-0.412509
-0.143646
-0.0285365
-0.17972
-0.288851
-0.0943318
0.049132
-0.180178
-0.0188631
0.033484
0.186486
-0.413874
0.0246021
0.0110473
-0.0940087
-0.107432
-0.168207
-0.158323
-0.09782
0.0056091
-0.20881
0.0499349
0.00832604
0.0523977
-0.0775339
-0.331124
-0.0223244
-0.0144266
0.0119075
-0.188125
-0.00676161
-0.0844972
0.0337544
0.000280137
-0.208202
-0.0258552
-0.152127
-0.164814
-0.086197
-0.0197589
-0.0835638
-0.0155773
-0.245318
-0.285546
0.0255819
-0.331531
-0.145164
0.475518
0.0245012
-0.0720902
0.0233027
-0.0701919
-0.0878338
-0.159648
-0.085373
-0.0770736
-0.0780896
-0.246681
-0.00272448
-0.198625
-0.0247544
0.00551836
-0.0986684
0.0263828
0.0232325
-0.0221404
-0.030248
-0.411022
-0.0128207
0.0133587
-0.103688
-0.122116
-0.11422
0.442713
-0.0768721
-0.391526
-0.0706529
-0.0999677
-0.063575
-0.171393
-0.0813944
-0.395431
-0.0758247
-0.0614852
-0.0261646
-0.0709211
-0.0772553
0.0544286
-0.18018
-0.0970811
-0.0366212
-0.0698188
-0.0313019
-0.0900255
0.00674188
-0.120646
0.303634
-0.000498315
-0.151019
-0.0228425
0.0254292
-0.00200322
0.114243
-0.132708
-0.0508726
-0.0330092
-0.0221843
0.29183
-0.161725
-0.227196
0.0263254
-0.00995291
-0.121756
0.0128528
-0.186124
-0.163904
-0.0364907
-0.17243
-0.0224109
-0.364432
0.0525871
-0.0763231
-0.126246
-0.192552
0.00731627
0.00897554
-0.0683811
0.00797454
0.00251342
-0.393725
-0.26156
0.0912515
-0.0766513
0.00735331
-0.0328945
-0.0798008
-0.0218915
-0.0134449
-0.16314
-0.0240069
-0.149815
0.0148036
-0.0129072
0.0176994
-0.0775275
-0.0762802
0.0364288
0.0262691
0.00593377
0.0372675
0.00371647
0.424051
-0.14723
0.00656245
-0.184543
0.0187533
-0.20319
-0.103189
0.395732
-0.0217789
0.0469893
0.0134713
0.0751817
0.0495416
-0.0777387
-0.349434
0.0736943
-0.0967525
0.489746
-0.118733
-0.07677
-0.0372963
0.430645
-0.0858405
0.0170464
-0.328651
-0.126454
-0.0854619
0.0297057
-0.165816
0.222438
-0.0209635
-0.0491067
-0.398146
-0.0260928
-0.00238279
-0.0335532
-0.191029
-0.0795682
-0.145736
-0.0040606
-0.24664
-0.0683351
-0.0749452
-0.190483
-0.269515
-0.0779445
-0.0216124
0.000661682
-0.0992985
0.0124411
0.0708674
-0.0094693
-0.0149884
-0.0145108
0.0808691
-0.0897062
0.450821
0.127685
0.264483
-0.0726827
-0.0668829
-0.0171012
-0.181623
-0.0753336
-0.0141588
0.00187486
-0.0863396
-0.383636
0.0229261
-0.15545
-0.15246
-0.0790877
0.0374285
-0.0448057
-0.0254387
-0.182292
-0.0194037
0.0018522
-0.390556
-0.0738457
0.0172217
-0.221381
-0.0848287
-0.362631
0.0223373
-0.0650517
-0.0795604
-0.213711
-0.0786582
0.246989
-0.0526493
0.0160032
-0.0291117
-0.00720349
0.0319194
0.0610162
-0.0464354
0.00879994
-0.108479
0.00213646
-0.0751496
-0.0239932
-0.151149
-0.0953505
-0.315677
0.0212607
-0.272812
-0.0288608
-0.0865106
0.0249383
0.107853
0.0218689
-0.126001
-0.241917
-0.0802038
0.00801911
-0.146308
0.00564294
-0.057622
-0.241559
-0.0255999
0.0534699
-0.117895
-0.0817292
-0.0939588
0.00950975
0.0317208
-0.0413042
0.017163
0.126624
0.00482644
-0.00764948
0.0674961
-0.216129
-0.0391833
-0.123538
-0.185052
-0.13388
-0.0761558
-0.036756
-0.00744157
0.0378105
-0.269872
-0.0445762
-0.0201071
-0.0923847
-0.329409
0.00160496
-0.398258
-0.15405
-0.153555
-0.0142927
-0.0134472
-0.0777324
0.0521652
0.02076
0.172959
-0.0201925
0.0814133
-0.0630726
-0.0975512
0.43477
-0.0865602
-0.0493333
-0.106573
-0.0734834
-0.0679481
-0.0803245
0.177055
-0.392604
-0.109234
-0.400613
0.0870494
-0.373277
-0.398189
-0.0218413
0.00703964
0.00412734
-0.0404755
-0.114592
-0.0245349
0.0881054
-0.0759354
-0.0448879
0.0756496
-0.200812
0.126935
-0.0565747
-0.201606
-0.0370441
-0.0763011
-0.0530862
0.109407
0.000243525
-0.252824
-0.346798
0.00460709
-0.042168
-0.0716026
0.124438
-0.412976
0.00310138
-0.0247271
-0.107314
-0.0429171
0.156252
-0.398062
0.0291857
-0.140538
-0.0594
-0.0138344
-0.00196602
-0.073508
-0.365247
-0.0185554
-0.0513992
0.0259259
-0.034094
0.186058
-0.174509
0.0466999
0.415832
-0.142631
-0.0760427
-0.214026
-0.0420036
-0.0768254
0.0914524
0.11858
0.0249328
-0.0953098
-0.178433
0.0644976
0.181287
-0.116555
0.438536
0.419923
0.105272
0.0246242
0.0230894
0.0303511
-0.348217
-0.119554
-0.0534132
-0.0432644
-0.0530814
0.0150431
0.0126441
0.0340568
-0.106886
-0.0671832
-0.179417
0.132199
-0.399111
-0.0706266
0.0316553
-0.121257
-0.00518246
0.00631777
-0.25056
-0.0034647
-0.0080471
-0.114322
-0.155254
0.259462
-0.072482
-0.108264
-0.0180364
-0.129004
-0.014439
-0.0328781
0.0697746
0.0208401
-0.0297348
-0.156388
-0.272363
-0.0241172
-0.0759397
-0.00851281
-0.0219354
-0.00832646
0.438413
-0.0512687
-0.0522293
-0.405451
-0.0239092
-0.126051
-0.0722188
0.00591415
0.12679
0.00280462
-0.0699832
-0.156631
0.0353026
-0.0750828
-0.126898
0.242688
0.0153463
-0.342088
0.092605
0.404884
-0.0406559
0.15201
-0.27183
-0.0214251
0.321511
0.0352213
-0.153702
0.210374
0.00575918
-0.411444
0.0245776
-0.152196
-0.144979
0.340607
0.0226824
0.0715761
0.0456313
-0.115233
0.0611052
-0.0735732
0.0839613
-0.0962328
-0.0175544
-0.109718
0.0351312
-0.0711569
-0.0922525
0.000957635
-0.00853221
0.487416
-0.0422289
-0.0712589
-0.033152
-0.0783486
-0.0755082
-0.0681689
0.011883
0.0056904
0.0262219
-0.0120468
-0.182421
0.045428
0.200175
-0.0366208
0.00618973
-0.240055
-0.0521978
-0.0631172
-0.0741227
0.0336274
-0.396115
-0.116775
-0.0609496
0.498244
-0.185214
-0.270903
-0.0852138
-0.344993
0.000714015
-0.166241
-0.388952
0.441351
0.0095801
0.0512444
-0.108201
-0.0764354
-0.074083
-0.304114
-0.0334259
0.117398
-0.11096
-0.0735016
-0.398522
-0.0942834
-0.131018
-0.0059765
-0.15692
-0.076833
0.00979453
-0.195225
-0.319213
0.0248282
-0.151556
0.0107914
-0.0266482
-0.142705
-0.179665
-0.00307759
-0.0342905
-0.0261505
-0.0236567
-0.0424914
-0.162311
-0.0447337
0.00641554
0.0082513
-0.0794612
-0.0593971
-0.0542442
-0.264431
0.0308343
-0.203081
-0.405728
-0.143707
0.108883
-0.137709
-0.162075
-0.0948294
-0.0774492
-0.12872
-0.359555
0.00247612
-0.329127
-0.0732943
-0.00690134
0.0163553
-0.198006
-0.358139
-0.364214
-0.0256379
0.00803739
-0.086826
-0.344139
-0.355499
-0.032308
0.0868512
0.501518
0.0271595
-0.100283
-0.412333
-0.103979
-0.343371
0.0379259
0.00648437
-0.00171687
0.106528
-0.104911
-0.0907945
-0.0606646
0.0665644
-0.0950862
-0.364156
-0.0783653
-0.223696
-0.41271
-0.0823073
0.453517
0.0260784
0.00893431
-0.0793965
-0.0125945
-0.0207459
0.0227852
0.518089
-0.104763
-0.410763
-0.209098
0.0199539
-0.234833
-0.103498
-0.0136183
-0.41506
0.222265
0.103891
-0.0335048
-0.398318
-0.32238
0.0236611
-0.301856
-0.137386
-0.400451
-0.345279
-0.158429
0.00510738
-0.0346955
-0.2811
-0.0610594
-0.0863632
-0.110229
-0.351069
-0.165462
0.0643129
0.0727433
0.00093178
0.0510159
-0.377428
-0.0763733
0.0301794
-0.414563
-0.0964204
0.00944062
0.0708317
0.0055793
-0.184702
-0.0247957
0.503762
0.0945159
0.00320645
-0.00249987
0.328174
-0.177553
-0.109445
-0.00922024
-0.112913
0.0348895
-0.0431433
-0.0727653
-0.35061
-0.0769199
-0.341685
-0.00974881
-0.00245677
0.00642933
-0.0783621
-0.000968576
0.00454277
-0.155094
-0.116043
-0.127976
-0.0212752
-0.304113
-0.0756607
0.00591333
-0.372705
-0.135765
-0.0812161
0.478081
0.00504362
-0.413896
0.0854142
0.0486773
0.0805746
-0.0124685
-0.088979
-0.00602636
-0.0401702
0.154389
-0.0699374
-0.0773076
0.0110971
0.00200879
-0.037385
-0.0186328
-0.19397
0.0557736
-0.176894
-0.0518148
-0.175337
-0.0416607
-0.105486
-0.0102155
-0.261846
-0.0306615
-0.013198
-0.404177
0.325434
0.350818
-0.100456
0.162634
-0.108135
0.0332045
-0.313179
0.030696
-0.000327843
0.328859
-0.0754905
-0.411715
-0.384997
-0.184153
-0.279168
-0.208271
-0.296707
-0.0141297
-0.0610297
-0.074799
-0.228659
0.101431
-0.278382
-0.0894946
-0.0350074
0.041731
0.0133281
-0.287876
0.455132
-0.0498063
0.0165086
0.023017
-0.0579537
-0.107073
-0.276351
-0.13635
0.00556855
0.391727
-0.183034
-0.234067
-0.15551
-0.00672083
-0.0458921
-0.233411
-0.00172678
-0.182184
-0.0918232
0.0297897
-0.03555
-0.160321
0.34134
0.0509044
-0.10564
-0.0518716
-0.196534
-0.0680723
0.0543721
-0.0439617
-0.327812
-0.00251469
0.0664998
0.502511
-0.373349
-0.131924
-0.157517
-0.0619148
0.109004
0.022556
-0.377676
-0.0695704
-0.029591
-0.0853857
0.00707961
0.00688155
0.517054
0.0245906
0.00511517
0.0160859
-0.126558
0.0534584
-0.0546523
-0.108726
-0.260112
-0.202418
0.0231198
-0.0275357
0.22246
-0.255478
-0.181975
0.12589
-0.178977
-0.103244
-0.300598
0.00690174
-0.309718
-0.0760241
0.00657787
-0.0495058
-0.0122598
0.434518
-0.202189
-0.0325345
0.494467
-0.25899
-0.00525527
0.0515877
-0.0719302
-0.0891458
-0.0766911
-0.0131914
-0.371263
-0.0708389
0.446744
0.0160338
-0.223311
-0.0756574
0.13889
-0.364482
-0.0689539
-0.0119426
-0.0839306
-0.247487
-0.0919808
-0.0737088
-0.298692
-0.0092919
-0.250404
0.00816882
-0.388115
-0.0105562
0.248323
0.056268
0.00410541
-0.141352
-0.19893
-0.186157
-0.146731
0.0365644
-0.132294
-0.00383948
-0.342532
-0.077435
0.03338
-0.01986
0.160148
-0.026917
-0.119147
-0.118019
-0.306544
-0.13454
-0.0321759
-0.0342052
-0.162632
0.0704456
-0.1263
-0.0103813
0.0205964
-0.304844
-0.205332
-0.163449
0.343441
0.00833368
-0.219653
-0.00550543
0.0969569
-0.3766
-0.399939
0.0239082
0.0173422
-0.0751278
0.099934
0.049528
-0.142617
-0.246168
-0.018763
-0.0142708
0.0234403
0.00490749
0.296345
-0.022693
-0.0696944
-0.179886
-0.073423
-0.0144861
-0.0811075
-0.304588
-0.0952889
-0.012865
-0.41053
0.0277847
-0.236396
0.16066
0.183158
0.00130084
-0.297689
-0.386742
-0.0794234
0.00208687
-0.149549
-0.0226262
0.103169
0.0462647
-0.0730186
0.067013
-0.340787
-0.0849128
-0.127518
0.0252993
-0.270317
-0.0728732
0.0072532
0.427975
-0.0128578
-0.062802
-0.0994173
0.0444591
-0.367937
0.0103366
0.438638
0.0458697
0.00512423
-0.402819
-0.101379
0.0820151
0.166561
-0.0818286
-0.130052
-0.0932933
-0.0633895
0.0335736
-0.0632213
-0.102933
0.0838249
-0.0731883
0.0377565
-0.0989663
-0.076061
-0.0424443
-0.144199
-0.0123439
-0.0922809
0.0903534
-0.333048
-0.341798
-0.355956
-0.312159
-0.226511
0.0897367
-0.0317578
-0.116731
0.0959308
0.0347891
-0.340131
-0.180591
0.0640274
-0.0524596
-0.0690121
-0.0719724
-0.0880386
-0.233175
0.00578626
-0.0623342
-0.0815492
0.0442534
0.00915148
-0.0943674
-0.0165371
-0.0745551
0.0570313
-0.212131
-0.085598
-0.111093
-0.193043
-0.193581
-0.186627
-0.00697529
-0.122047
-0.100575
-0.410743
-0.038751
-0.0752749
-0.081619
0.489308
0.0306046
0.0368333
-0.123032
-0.0772654
-0.402196
-0.315878
0.158219
-0.25044
0.000241624
-0.0170579
-0.295005
0.28139
0.0298652
-0.18134
-0.0520208
0.0887539
0.0528799
-0.163677
-0.0186085
-0.195195
-0.133404
-0.411763
-0.190186
-0.0608744
-0.133453
-0.394724
0.0301138
0.0343271
-0.159459
-0.0109341
0.218529
-0.411066
-0.0787228
-0.10728
-0.100773
-0.0398236
-0.204144
-0.0140862
-0.110185
0.017351
-0.398363
-0.0133624
0.0372998
-0.0934909
-0.187897
0.00465559
0.0376979
-0.396842
0.0428881
-0.145288
-0.0147681
-0.351649
-0.292291
-0.129281
0.313117
0.00199076
-0.0754931
-0.100677
-0.111194
-0.0141266
-0.0397297
0.0048253
-0.0986728
0.0247514
-0.0956488
0.0467684
-0.018394
-0.328552
-0.0162539
-0.0538764
-0.0598511
0.0145501
-0.0950984
-0.0126991
-0.0331812
-0.161806
-0.0750689
-0.0713099
0.0395023
-0.334166
-0.0758227
-0.181079
-0.0050498
-0.113694
-0.0344374
-0.110273
-0.101853
-0.0952191
-0.250843
-0.234225
-0.24572
-0.303946
0.116464
-0.106322
0.0382498
-0.296843
0.0806748
-0.0334867
0.0333849
-0.100439
-0.00944734
-0.209313
-0.122038
-0.0937936
-0.271104
0.337295
0.0106265
-0.207711
0.188704
0.0563015
0.0744902
0.0340961
-0.122059
0.0342856
-0.0790457
-0.0153576
-0.0714699
-0.315743
-0.0366615
0.025863
0.0322419
-0.222782
-0.00984049
0.0333611
-0.0638017
-0.0285718
-0.064397
0.00775163
-0.0796052
0.327716
0.116503
-0.269249
-0.385898
-0.0937101
-0.263574
-0.00935988
0.0212113
0.0551574
-0.039869
0.147014
-0.0745039
-0.109857
-0.0130447
0.0324546
-0.0717653
-0.167027
-0.0129938
-0.0075025
0.110757
-0.41058
-0.0745515
-0.0585075
-0.0596434
0.0191245
-0.271002
-0.100321
0.330488
0.160437
0.0336364
0.0572058
-0.10317
-0.233466
0.0633644
-0.028794
-0.0521793
-0.0929867
0.0622806
-0.37282
0.0134891
-0.124515
-0.0129669
0.13047
-0.00669125
0.00392976
-0.265937
-0.31313
0.271647
-0.0695936
-0.411621
0.0412956
-0.182714
-0.0774254
-0.00905886
-0.154406
-0.11135
-0.135417
0.0226247
-0.0767228
-0.39244
-0.0300454
0.0188463
-0.0789994
-0.0778186
0.0174369
-0.0175995
-0.0295918
-0.0550247
-0.177985
-0.207454
0.31745
-0.175233
-0.0106246
0.0239382
-0.0939417
-0.0118955
-0.0996685
0.118785
-0.0315881
-0.134372
0.0182086
0.033281
-0.243321
0.00659552
-0.317027
0.0214316
-0.342564
-0.0871721
-0.177493
0.0142505
0.0074915
-0.235433
-0.0127835
-0.0347934
0.0551414
-0.230372
-0.302975
-0.0971638
-0.0962593
0.0632308
-0.164315
0.0645109
-0.115349
-0.0253698
0.020353
-0.414492
-0.111165
-0.329557
-0.0277551
-0.129483
-0.122342
-0.411824
-0.183634
-0.22923
-0.102586
-0.0139167
-0.245007
-0.0240109
-0.0231099
-0.204228
-0.101457
0.0881821
0.284506
0.0782454
0.00271396
-0.0627165
-0.24614
-0.0548759
0.00700389
-0.398877
0.0605106
-0.0140244
-0.0708045
0.00460821
0.0175609
-0.18298
-0.201992
-0.408627
-0.0131124
0.0745623
0.00516115
0.403041
-0.0079355
0.454912
-0.153188
-0.0848952
-0.0703058
-0.400381
0.148831
-0.266167
0.477031
0.0190931
0.060244
0.108236
0.12595
0.494591
-0.183493
-0.367443
-0.076554
0.508472
0.0279856
-0.128369
0.0037351
-0.414157
-0.0806144
-0.0468788
-0.0482263
-0.033912
-0.00390159
-0.146145
-0.362701
-0.00929914
-0.0419489
-0.0025348
-0.215776
-0.041097
-0.294452
-0.0722952
-0.336849
0.0258896
-0.00345557
-0.140865
0.429666
0.0226411
-0.10615
0.0169323
-0.218744
0.169097
-0.168168
-0.108643
-0.366857
-0.0110071
-0.0260894
-0.0898192
-0.0707618
-0.0653705
-0.0718808
0.00702714
-0.0682825
0.0231245
-0.000144751
-0.0335132
0.0218684
-0.397045
-0.152979
-0.147877
-0.0728796
-0.243637
-0.253541
-0.0120412
-0.086197
-0.0125978
0.485335
-0.0306986
0.0502791
0.0238953
0.00296676
-0.0228202
-0.178689
-0.0421015
0.432144
-0.0208053
0.162507
-0.0110239
0.487657
0.0149204
-0.090433
-0.0807292
-0.116192
-0.369157
0.00325843
-0.0931008
-0.158602
-0.00017487
-0.0140265
0.0103385
-0.0743356
-0.362725
-0.0311234
-0.0207877
-0.164753
-0.114733
0.201568
-0.127342
0.0320264
-0.114842
-0.0854396
-0.0110468
-0.17431
-0.0397684
-0.0755364
0.0327214
-0.0304396
0.0174507
-0.156191
-0.0851325
-0.01234
0.385726
-0.103455
0.00433305
-0.0203296
-0.00390238
0.405906
-0.167112
-0.152574
-0.0500426
-0.107127
0.0148703
0.0300665
-0.0448624
0.00642526
-0.168194
0.0353102
-0.087852
-0.317915
-0.0886515
-0.0119938
-0.0728488
-0.126932
0.0152218
-0.170142
-0.0877231
-0.142102
0.0980725
-0.389418
-0.145145
0.00674203
-0.186447
-0.183793
-0.0566564
-0.29512
-0.0869482
-0.0592818
-0.143981
0.00180377
-0.192611
0.285572
-0.181369
0.00525268
0.013661
-0.0126396
0.168506
-0.0921855
-0.0958729
-0.248864
-0.402472
-0.0730932
0.0167028
0.498911
-0.0823782
-0.165555
0.0246266
0.00694428
-0.116709
-0.0807366
0.0366562
-0.0898634
-0.391387
-0.181779
-0.37769
0.341105
-0.188871
-0.071836
-0.296655
-0.0169502
-0.319765
-0.19067
-0.0280788
-0.0378587
0.000175649
-0.359207
-0.192855
-0.144156
-0.0301542
-0.354538
-0.0199581
-0.214413
-0.079821
0.0284201
-0.0925216
-0.266847
-0.0988828
-0.143589
-0.0375105
0.0361043
0.0564274
-0.0995737
-0.0898816
-0.347203
-0.167969
-0.0146833
-0.414358
-0.228612
-0.0745376
0.00344251
0.00853308
-0.0734531
0.419226
0.0112234
-0.134211
0.305326
0.194312
-0.0735031
-0.101229
-0.323614
-0.19201
0.0445994
-0.0185979
0.294211
-0.0783892
-0.358834
-0.027841
0.194179
0.324745
0.378013
-0.0354648
0.0160158
0.37295
-0.202339
-0.332271
0.411969
-0.0697879
0.00839182
0.416041
-0.197204
0.0454015
0.282498
-0.176066
-0.0126608
-0.166399
-0.150703
0.424339
0.0177018
-0.0683776
-0.160979
-0.396169
-0.0157177
-0.0512391
-0.00187088
-0.0408219
-0.00110429
-0.127261
0.0321026
0.0985594
0.384113
-0.0916457
-0.180614
0.078154
-0.058282
-0.0343875
-0.313213
0.272401
-0.379905
-0.0184299
0.11131
-0.371756
0.331996
0.040277
0.081207
-0.213813
-0.144401
-0.232285
0.00681858
0.00115049
-0.00356665
-0.187668
0.0143638
0.470147
0.489282
0.402898
-0.0531789
-0.261084
-0.369678
0.000521002
-0.29627
0.0299403
0.225833
-0.00779481
-0.0275887
-0.138552
-0.280794
0.00490504
-0.397236
-0.226122
0.327246
-0.245083
-0.00872494
0.00887267
-0.0861313
-0.0427299
-0.400201
-0.393319
0.0431328
-0.248416
0.00346637
-0.0186999
-0.022526
0.023248
-0.369366
-0.0490828
-0.349294
0.298858
-0.0358446
0.443251
-0.349864
-0.0748966
-0.362564
-0.0518706
-0.0254325
0.0229155
-0.0431927
0.466059
0.357817
-0.263534
0.0218957
-0.0392386
0.133047
0.00579997
-0.0877898
0.0771661
0.180552
0.244926
0.048141
0.00990427
-0.0137237
-0.127755
0.00675459
0.0178104
0.324449
0.0534229
-0.00201314
-0.128899
-0.00185668
-0.330196
-0.0768621
0.486196
0.0311656
0.315685
0.0184672
-0.126249
-0.0404675
-0.0408659
0.116702
-0.347732
-0.0760568
0.317412
-0.0234135
-0.0909193
-0.123939
-0.0724629
-0.260186
0.0255879
-0.264617
-0.205879
-0.0127169
0.268359
-0.224797
0.334063
0.0190475
-0.142143
0.426242
-0.214972
-0.176237
-0.0309376
-0.152583
0.0276184
0.00705088
-0.0767781
-0.112211
0.00789143
-0.0741175
-0.379666
-0.0898733
-0.39097
0.414747
-0.344926
-0.268365
-0.0129362
-0.0475387
-0.0199125
0.133716
-0.215875
-0.235077
0.0496251
0.00402859
-0.0208027
-0.324804
-0.0994006
-0.129521
-0.0802201
0.350491
-0.413428
-0.30746
0.0113659
-0.405339
0.0267199
0.108474
0.143011
-0.0827539
-0.108707
0.107369
-0.0416354
0.287089
-0.0763456
-0.0821818
-0.398071
0.161664
-0.0708182
-0.0770544
0.0230621
0.476353
-0.152154
0.0606914
-0.370986
-0.407966
-0.0866798
0.104084
-0.082181
-0.406319
0.0128307
-0.0228789
-0.012225
-0.0103321
0.0576794
-0.414426
0.0501033
-0.154532
0.00164404
-0.0282646
0.446983
-0.0335692
-0.0141198
0.0152947
0.0268189
-0.169223
-0.0188155
-0.414624
-0.0313721
-0.047593
-0.0327045
0.0502234
0.363579
-0.0192631
0.00952155
-0.0162012
-0.0685432
0.301024
-0.0577652
-0.0803317
0.00103299
0.0897564
-0.085517
-0.265747
0.0687515
0.0142735
-0.0242527
-0.0167868
-0.282934
0.00152457
-0.0217934
-0.0592348
-0.334081
0.00080017
0.177908
0.0447463
0.0169566
-0.107888
-0.40868
-0.102816
-0.112293
-0.0593721
-0.0897259
0.0438221
0.347561
-0.248854
-0.0378032
-0.154189
-0.0749482
-0.0992276
0.0493514
0.0256851
0.482957
-0.0525512
-0.262451
-0.152205
-0.0202978
0.0199734
-0.410399
-0.0711855
-0.092431
0.0567894
0.0125435
-0.411468
-0.198816
-0.0159856
0.00768875
-0.0301284
0.0147787
0.0173209
0.0332103
0.177799
-0.193149
0.0144133
0.0437477
0.450936
0.0101228
-0.255358
0.054351
-0.0317503
-0.0729451
0.00458227
-0.1873
0.0601842
0.244553
0.0139613
-0.0253758
-0.331408
-0.370068
0.00504253
-0.0946072
0.204051
0.0204776
0.0825389
0.00768052
-0.0408382
-0.297963
-0.227879
-0.0669432
-0.12497
-0.0401114
-0.400503
-0.150408
-0.0282481
-0.259456
0.0612089
-0.113671
-0.147401
-0.0727967
-0.336523
-0.225548
-0.0814664
-0.0223128
-0.0573672
0.098781
-0.0194248
-0.0233318
-0.0833826
0.305097
-0.0212795
0.10937
-0.111874
0.0731888
0.416503
-0.0868523
-0.0689844
-0.303423
-0.34829
0.170213
0.100729
-0.0815371
-0.41343
-0.131243
0.0740708
-0.0203174
-0.00532425
-0.0160107
-0.0854189
-0.105911
-0.207552
-0.0252079
-0.311401
0.00607547
-0.0750634
-0.0743155
0.313422
-0.216249
0.317311
0.3789
0.0580803
0.164747
-0.0019629
0.12334
0.0133943
-0.0314514
-0.094302
-0.0918994
0.0147278
0.0952445
-0.213619
-0.00482505
-0.0229069
0.11415
-0.414503
-0.201485
-0.141284
0.202544
0.00727922
-0.0704858
0.193346
-0.0389298
0.0299894
0.00643146
-0.0256549
0.0333055
-0.05936
-0.174068
0.00550343
-0.0182145
0.227411
9.62969e-05
0.107642
0.136682
0.0235285
0.0113567
-0.414547
-0.0134284
0.0220366
-0.0143674
0.0691235
-0.0158305
-0.348148
-0.048856
-0.251936
0.00166271
-0.0250842
-0.0329014
-0.314958
-0.0746401
0.0355086
-0.0208578
-0.169312