/*--------------------------------*- C++ -*----------------------------------*\
| =========                 |                                                 |
| \\      /  F ield         | OpenFOAM: The Open Source CFD Toolbox           |
|  \\    /   O peration     | Version:  v2012                                 |
|   \\  /    A nd           | Website:  www.openfoam.com                      |
|    \\/     M anipulation  |                                                 |
\*---------------------------------------------------------------------------*/
FoamFile
{
    version     2.0;
    format      ascii;
    class       surfaceScalarField;
    location    "300";
    object      phi_0;
}
// * * * * * * * * * * * * * * * * * * * * * * * * * * * * * * * * * * * * * //

dimensions      [0 3 -1 0 0 0 0];
oriented        oriented;


internalField   nonuniform List<scalar> 
20673
(
-0.172443
0.161856
0.0105863
0.370985
-0.306326
-0.0646593
0.0224477
-0.0487786
0.0263309
0.151812
-0.277407
0.125595
-0.361298
-0.116453
0.477751
-0.0200469
-0.00250839
0.0225553
0.0341227
-0.0289385
-0.00518414
0.00831477
0.0190506
-0.0273653
0.0126024
-0.0242775
0.0116752
-0.0558169
0.157744
-0.101928
-0.106971
0.105622
0.00134943
0.150221
0.00431928
-0.154541
-0.0982199
-0.00059108
-0.000452399
0.00104348
0.20449
-0.0385849
-0.165905
0.241317
-0.242575
0.00125771
-0.106237
0.300369
-0.194132
0.141289
-0.163641
0.0223511
0.150864
-0.000642643
0.336677
0.263704
-0.600381
-0.373594
0.573247
-0.199653
0.0314718
0.00265084
-0.598232
0.333966
0.264267
0.0441558
-0.0358411
-0.307347
-0.0601673
0.367514
-0.00421051
0.0315423
-0.0273318
-0.105666
0.0778918
0.0277741
-0.0999668
0.0517235
0.0482432
-0.0654141
0.0526722
0.0127419
-0.148216
0.110143
0.0380724
0.156456
-0.17121
0.0147536
0.195273
-0.206359
0.0110855
-0.0965406
0.13812
-0.0415792
0.174413
-0.0487311
-0.125682
-0.387495
0.361768
0.0257262
0.0880774
-0.107997
0.0199196
-0.365712
-0.232521
-0.00423
-0.00208338
0.00631338
-0.186867
-0.0550444
-0.0157937
0.000799964
0.0149937
-0.580572
0.590526
-0.00995368
0.68529
-0.386965
-0.298324
0.365532
-0.53862
0.173088
-0.0498541
-0.0181079
0.067962
-0.170836
-0.15609
0.326926
0.0965488
0.0710649
-0.167614
0.147718
-0.00642851
-0.0171039
-0.112065
0.129169
-0.0036385
0.0103174
-0.00667886
-0.680549
0.436733
0.243817
0.0434806
-0.165614
0.122133
-0.282612
0.0325644
0.250047
-0.00676821
0.00312971
0.0555648
0.118848
0.167392
-0.273629
0.213423
-0.224346
0.0109229
-0.11239
0.00541847
0.270323
-0.352752
0.0824291
0.085217
0.161038
-0.246255
-0.333069
0.162233
-0.0171802
-0.0182225
0.0354026
0.164536
0.20645
-0.00059108
-0.165761
0.502438
0.0159393
-0.0359862
-0.0780492
0.0857686
-0.00771946
-0.515671
0.323735
0.263376
-0.361789
-0.106222
0.104184
0.00203796
-0.162032
0.182209
-0.0201761
-0.52526
0.163962
-0.0151462
0.0277485
4.12114e-05
-0.00451828
0.00447707
0.143517
-0.450864
-0.00762669
-0.00698359
0.0146103
-0.0186949
0.144825
-0.12613
0.00517574
0.000301908
-0.00547764
0.0730092
0.191159
-0.264168
0.033422
-0.0309425
-0.00247947
-0.612024
0.326692
0.285332
-0.325419
0.600598
-0.275179
-0.257225
0.00782338
0.0248335
-0.0326569
0.00545649
-0.00968649
0.00250774
0.00342967
-0.00593741
-0.213166
0.286175
0.367875
0.204888
-0.572763
-0.0885509
0.0105017
0.212733
-0.169252
0.516634
-0.151102
-0.00149854
0.00247092
-0.00097238
0.122146
-0.00338285
-0.118763
-0.0517043
0.36627
-0.314566
-0.261238
0.0521965
0.209041
-0.0392522
-0.0492987
0.0249722
-0.0350851
0.010113
0.0862529
-0.124861
0.0386078
0.129344
-0.00138306
-0.127961
-0.0651964
-0.0369073
0.102104
0.0517166
-0.0641027
0.0123861
-0.455682
0.560091
-0.104409
0.122032
0.00837487
-0.130407
0.0188651
-0.0687192
-0.27262
0.0729511
0.199669
-0.484549
0.089427
0.395122
0.0328303
-0.0245537
-0.00827658
-0.0026416
-0.0626572
0.0652988
0.0946368
-0.111741
0.104034
0.196335
0.162381
-0.150792
-0.011589
0.00268299
0.00647234
-0.00915534
-0.00287271
-0.012921
-0.111301
0.131932
-0.0206314
0.0297891
0.00304123
-0.274535
0.11746
0.157075
0.00702416
-0.00763698
0.000612816
-0.362082
0.500276
-0.138194
0.0109651
-0.0119552
0.000990125
-0.00731116
0.00941116
-0.0021
-0.0774767
0.165467
-0.0879905
0.498031
0.187258
-0.0969835
-0.00923827
0.00166883
0.00548733
-0.00715616
-0.0563388
-0.0436279
-0.609102
0.123216
0.485886
-0.246072
-0.0151657
0.0998659
0.21933
-0.319195
-0.534909
-0.0741924
-0.493458
0.587826
-0.0943688
0.0224638
0.00811652
-0.0125766
0.00446012
-0.0829851
-0.19155
0.148779
-0.304869
0.208238
-0.581832
-0.129385
0.0654866
0.0638988
0.00740166
0.0367542
-0.0170149
-0.155428
0.0514488
0.000267795
-0.113999
0.437734
0.101184
-0.178661
-0.0939289
0.112387
-0.0184584
0.4523
-0.191842
-0.260459
-0.215589
0.277122
-0.0615332
-0.0715657
0.0244433
0.0471225
-0.0683758
0.331752
0.0419961
0.005774
-0.0477701
0.017598
0.0436966
-0.0612946
0.0187282
-0.30134
0.504917
-0.168176
-0.336741
0.224445
-0.214319
-0.0101259
0.155133
0.00425499
-0.159388
-0.000478203
0.00750236
0.0217968
-0.115817
0.09402
-0.0821577
-0.0434158
0.125574
0.219162
-0.214622
-0.00454015
0.00221225
0.00227193
-0.00448418
-0.174621
0.0125886
0.0337536
-0.0913163
0.0575628
-0.000671537
0.00584727
-0.0761805
-0.0532049
-0.147991
0.219109
-0.0711175
-0.085862
-0.00579578
0.0916577
0.243191
0.356868
-0.600059
0.112756
-0.0265032
-0.134923
0.0236218
0.0290027
-0.0941991
-0.203271
-0.0693491
-0.158127
0.154587
0.00353964
0.134413
0.221139
-0.355553
0.0249078
0.0971239
0.15017
-0.142897
-0.00727314
0.0169729
-0.00730918
-0.00966371
0.109588
0.00550309
-0.115091
-0.00656004
0.236043
-0.229483
0.0599604
-0.0462625
-0.0136979
-0.0428159
-0.0702488
0.113065
0.0143734
-0.00625685
0.000349988
0.0106151
0.0573575
-0.0153615
-0.258744
0.402353
-0.14361
0.00532219
0.116824
-0.0135419
0.169998
0.298468
0.153832
-0.0900487
0.457924
0.190183
-0.0922331
-0.0979503
0.0341561
-0.0383666
-0.0320815
0.128318
-0.096237
-0.000367995
0.00258024
0.15213
-0.151393
-0.000736838
-0.10695
0.0977549
0.00919501
-0.0109499
0.0756347
-0.0646848
9.64315e-05
0.0024113
-0.114375
0.0954275
0.0189478
0.624728
-0.278668
-0.34606
-0.0316641
-0.0136993
0.0453634
-0.102277
-0.00338862
0.632431
-0.632431
-0.304783
0.253079
0.00610367
-0.0810087
0.074905
-0.0885925
0.0885621
3.04222e-05
0.0245216
0.176849
-0.20137
-0.3401
-0.340449
0.164083
-0.00213895
-0.161944
0.154042
0.00109066
-0.00589932
0.00594053
-0.0767294
0.10564
-0.0289109
-0.279913
-0.107582
-0.0913603
0.361683
0.00848883
0.120855
0.0161564
0.0305375
-0.0466939
-0.287027
0.0714374
0.0366166
-0.027205
-0.00941167
0.00762577
0.000392997
-0.00801877
-0.00584225
-0.101108
-0.415024
-0.0695248
-0.0585116
0.0418999
0.0166117
0.149337
-0.00546525
-0.143871
0.0100756
0.00399031
-0.014066
-0.491833
0.291576
0.200258
0.0398054
-0.0569856
-0.396916
0.138172
-0.000320103
0.115602
-0.115282
-0.128139
-0.452434
-0.0054546
0.000435958
0.00501864
0.0304656
-0.0226767
-0.00778894
0.0632365
0.178081
-0.119781
0.0184327
0.101348
0.0375716
0.18159
-0.45648
0.041456
0.00460409
0.0834733
0.124136
-0.0145474
-0.0101071
0.162237
-0.0562998
0.0208075
0.0354923
0.00894018
-0.00131441
-0.59182
0.489931
0.101889
0.194326
0.000946894
-0.00107421
-0.000424326
-0.00333091
-0.00239935
0.00573026
-0.303419
0.54661
-0.461342
0.442702
0.0186397
-0.0173961
0.00145523
-0.118925
0.0947209
0.0242041
0.399602
-0.602084
0.202482
-0.07671
0.0911258
-0.0144158
-0.145601
0.142285
0.00331563
-0.103158
0.0172958
-0.167493
-0.0129807
0.180474
0.582408
-0.22554
0.140002
0.00565511
-0.145657
0.00754126
-0.00818807
0.000646807
-0.287985
0.38752
-0.0995348
0.0537168
-0.134049
0.0803325
-0.0380955
-0.00986452
0.04796
-0.23937
0.339236
-0.281562
-0.07119
-0.0259293
-0.105819
0.131748
0.000766367
0.0134781
-0.0142445
0.105681
-0.0838846
0.122567
0.0676168
0.0136834
0.190807
0.24148
0.370714
-0.612194
-0.00357573
0.00524456
0.00404992
0.0388497
-0.0428996
0.0558277
-0.088846
0.0330184
-0.382181
-0.074299
-0.00210307
-0.00590431
0.00800738
-0.000683923
0.000231836
0.000452087
-0.0423065
0.07606
0.0334322
-1.02629e-05
-0.123556
0.104862
0.25699
0.47317
-0.661846
0.188676
-0.142808
0.00280175
0.140007
-0.00174319
0.00123829
0.000504898
0.117811
-0.134697
0.0168866
-0.170961
0.256178
-0.108817
0.0320881
-0.145463
-0.0150776
-0.0929136
-0.454324
0.547238
-0.0710686
0.0673036
0.00376504
0.254627
0.281596
-0.536223
0.0553396
0.0046208
-0.209744
0.234265
-0.072314
0.471916
0.0839753
0.112484
-0.196459
0.0490495
-0.131207
0.105907
-0.111702
0.0221688
-0.0988788
-0.0035297
0.131479
-0.127949
0.377682
-0.0909091
-0.286773
0.084295
-0.0968539
0.0125588
-0.0277176
-0.0285822
0.0255846
-0.0215347
-0.227566
-0.264268
0.0815576
-0.0261225
-0.0554352
-0.483723
0.0154185
0.468305
0.186255
0.191426
-0.474966
0.112884
0.0616391
-0.0440411
-0.0587701
0.52012
-0.46135
-0.107777
0.107457
-0.1804
0.0129072
-0.265492
0.399905
0.00352012
0.160563
-0.246524
0.0281143
0.21841
-0.00822777
0.00219527
0.0060325
0.0850816
-0.127898
0.125856
-0.129238
-0.276096
-0.108066
0.384162
0.0688612
-0.350423
0.000736691
-0.00907243
0.00833574
0.00619017
-0.00407078
-0.00211939
0.287799
0.212477
-0.392586
0.625969
-0.233383
-0.0621535
-0.00891511
-0.289674
-0.0683251
0.357999
-0.000683976
-0.00383431
0.10293
-0.379026
-0.00547461
2.00111e-05
-0.332573
0.255352
0.0772215
0.104049
-0.0110132
-0.0930359
0.217265
-0.144033
-0.0732326
0.0176251
-0.0119931
-0.00563195
0.0624578
-0.210449
-6.13411e-05
-0.0761192
-0.0519597
0.0107908
0.041169
0.182227
-0.0982518
-0.06239
-0.0565349
-0.00753586
0.0716048
-0.0640689
0.0554651
-0.280872
0.225407
-0.00447941
-0.00541994
0.00989935
-0.0522181
0.020554
-0.000664613
-1.93099e-05
-0.188798
0.169887
0.0189108
-0.0119126
0.000270021
0.0116426
-0.159772
-0.058074
0.217846
-0.00129569
0.00383639
-0.00254071
-0.0443368
-0.00762298
0.0726291
-0.0941612
0.0215321
0.094671
-0.0220418
0.0349594
-0.0125116
-0.563505
0.336245
0.227261
0.144361
0.00580905
-0.00540244
0.00808543
-0.178562
0.293797
-0.115236
0.222765
-0.00144846
-0.221317
-0.00167736
0.00122496
-0.0664813
0.072585
-0.213599
-0.0527668
0.266366
-0.0818411
0.0708912
-0.0373063
-0.0281078
-0.601852
0.324925
0.276926
-0.00879361
0.00148245
-0.109774
0.0346053
0.0751691
-0.266863
0.52149
0.508892
-0.359328
-0.149564
0.109954
-0.593677
0.236351
0.268566
-0.0122414
0.0965364
-0.0383687
0.0570453
-0.0186766
-0.0380725
0.0219287
0.0161438
0.00791713
-0.00718044
-0.372942
-0.00485063
0.377792
-0.0626833
0.1164
-0.00949207
0.0101284
-0.000636292
0.125311
-0.166212
0.0409006
0.00767811
-0.0032976
0.00155441
0.00591191
0.211679
-0.480356
0.268678
0.0907711
-0.0349434
0.322937
-0.495703
0.172766
-0.0149711
0.0547765
-0.144412
-0.188657
0.0159916
0.0016335
-0.0288416
-0.116759
0.182199
0.0872463
-0.269445
0.460702
-0.572418
0.111716
0.14065
-0.132161
-0.0938745
0.0991967
0.125109
-0.128792
0.00368295
-0.0131987
-0.037878
0.0510767
-0.00677278
0.0054771
0.0138228
-0.00374717
0.00545785
0.134544
0.0625899
-0.118407
0.0178831
-0.479225
-0.00628338
0.00295246
-0.0203505
-0.00959894
0.0299495
-0.0309385
0.289262
-0.258323
0.0940111
-0.0940724
-0.305786
0.501243
-0.195457
0.0383244
0.0745444
-0.112869
-0.0993031
-0.23327
-0.319087
-0.244419
-0.294515
0.110971
0.183544
-0.0253752
-0.00705954
0.0324347
-0.0774898
-0.217025
-0.0188856
0.0196519
0.00394191
-0.00124002
-0.00270189
0.0799349
-0.0843065
0.00437159
0.0274595
-0.0448414
0.0173819
-0.214535
0.27
-0.0334874
-0.0250242
0.0382503
0.588949
-0.243916
-0.345033
-0.0691229
-0.296541
0.11798
0.214868
-0.339684
0.124816
-0.0760512
-0.0721644
-0.365256
0.606736
-0.391901
0.461658
-0.0697577
0.389412
-0.0664746
0.0919662
-0.104208
-0.328493
-0.283531
-0.010443
-0.00146964
-0.00204524
0.0366916
-0.0346464
0.00355747
0.0029934
-0.00655087
-0.0817248
-0.0326504
-0.00592263
-0.0130372
0.0189599
0.0095995
0.00227318
-0.0118727
0.166311
-0.0409998
-0.473272
0.10033
0.111152
0.0143483
-0.1255
-0.267229
0.0803615
0.207432
-0.194909
-0.0125235
0.226671
0.398057
0.0189888
0.0355952
-0.0194388
-0.049553
0.0475078
-0.18919
0.208707
-0.0195174
0.110008
0.0267697
-0.136777
-0.165374
-0.0234233
-0.260374
0.205329
0.00545259
0.119656
0.19538
-0.242477
0.0470966
-0.0794372
0.0851401
-0.00570286
-0.174458
0.278492
-0.438231
0.379461
-0.00258229
0.00189831
0.0112681
0.00310528
0.0155928
-0.00432475
0.0435314
0.0910988
-0.13463
0.00614695
-0.00258948
0.00917565
-0.0136551
-0.000368982
-0.00474412
0.0051131
0.0041653
-0.000885478
-0.00327982
0.147885
0.366261
-0.514145
-0.132201
0.00189976
0.130301
0.225709
-0.0303283
0.346897
-0.26335
-0.083547
-0.114095
0.0313308
0.082764
0.00490955
0.485263
-0.539191
0.0539281
0.0128154
-0.138535
0.12572
-0.00499267
-0.149768
0.154761
0.00288434
-0.00207514
-0.000809202
0.344525
0.244424
0.121921
-0.0089588
-0.112962
0.00133293
0.000788543
-0.00212148
0.102775
-0.0179935
-0.0847817
0.000959887
-0.0110716
0.0101117
0.244754
-0.252063
0.221125
0.521856
0.110576
-0.149545
-0.0250758
0.509386
-0.297708
-0.0314105
-0.00965782
0.0410683
-0.0321819
-0.00589055
-0.154837
0.151308
0.00283999
-0.0053648
0.00252481
0.0231816
0.190242
0.0982782
0.0144779
0.00205778
-0.00242676
-0.00879569
0.0524923
-0.0121495
0.0920844
-0.00352098
-0.090408
0.105209
0.016712
0.122691
-0.148573
0.0258818
0.0869159
0.0324723
-0.119388
-0.171886
0.178117
-0.00623163
0.0916634
-0.108549
0.0168856
0.0237627
-0.138576
-0.0139452
0.152521
0.105341
0.00394274
-0.109283
-0.531071
0.544759
-0.0136888
0.108234
-0.0297437
-0.07849
0.215999
-0.015375
-0.200624
-0.431804
0.30471
0.127093
-0.160981
0.0114362
-0.265139
0.185057
0.0800814
-0.00063356
0.0035179
0.0108993
0.0188898
0.0906405
-0.380314
-0.51732
0.424406
-0.0340707
-0.00961158
0.0436823
0.0123489
-0.0027494
0.593917
-0.223204
-0.00886503
0.00982492
-0.313966
0.232994
0.0809719
0.126043
-0.0970476
-0.028995
0.00689705
0.32482
-0.331717
0.00854148
-0.00547909
-0.00306239
0.0634459
-0.0965349
0.033089
0.0440647
0.18038
0.305699
-0.190649
-0.11505
0.018743
-0.0246656
-0.116788
0.0847063
-0.0127062
0.0126301
7.6002e-05
0.241229
-0.606484
-2.46835e-05
-0.00778047
0.00780516
-0.00787778
0.077171
-0.0126036
-0.0645675
-0.354332
-0.0774721
-0.00383352
0.00726319
0.0220992
-0.0112402
-0.010859
-0.130153
0.167122
-0.0369688
0.126529
0.382363
-0.217215
0.265755
-0.0485404
-0.140082
-0.0636843
0.102009
-0.0437981
0.529062
-0.518734
0.159406
0.650306
-0.439188
-0.211118
0.408142
0.242165
0.00540997
-0.00751305
-0.0476419
-0.0664529
0.0361582
-0.103082
0.116892
-0.0138093
0.572937
-0.0997667
-0.0480651
-0.407617
-0.0104155
0.120423
-0.0116422
0.00484976
0.00679241
0.15074
-0.16853
0.0177902
-0.115311
0.33645
0.452068
-0.2372
-0.286883
-0.0907369
0.37762
0.0150175
0.000691822
-0.000595391
0.396572
0.165838
-0.56241
-0.265796
-0.142629
0.408426
0.0113339
-0.0228361
-0.14905
0.106078
0.111188
0.0423771
-0.29444
-0.149628
0.262108
-0.11248
0.183807
-0.220652
0.0368448
-0.0046056
0.109946
0.0641268
-0.0716627
0.0252362
0.100739
0.0104124
-0.150162
0.0608865
0.0892752
0.0192402
0.0864001
0.00804843
0.117807
0.453226
-0.29267
-0.160556
0.00765611
-0.000114847
-0.452751
0.25032
-0.0275542
0.252724
0.0058193
-0.258543
0.0773954
0.0308384
0.0829145
0.0200299
-0.102944
-0.0143855
0.399882
-0.385497
-0.00082661
0.103602
0.111197
-0.140294
0.0290968
0.00239192
0.00168024
-0.00407217
-0.0821831
-0.0679787
0.0043183
0.0934773
-0.0977956
0.142336
-0.147329
0.322991
0.13771
0.0396716
-0.014087
0.103223
-0.0235158
0.0180232
0.0054926
0.170822
-0.34528
-0.157569
0.186948
-0.0293796
0.111937
0.00495498
-0.00273633
-0.000561273
0.0125095
-0.0125095
0.119044
-0.120427
-0.0661276
0.109659
-0.03745
-0.205125
0.199044
-0.228183
0.0291385
-0.212359
0.254737
-0.075298
-0.0148695
0.0901675
-0.0527007
0.0270495
0.147613
0.00172414
0.0133532
-0.0154395
-0.00807631
-0.00318339
-0.00952276
0.0199194
-0.218385
0.198465
-0.0099296
0.108208
0.0935103
-0.0300643
0.0862927
0.0920376
-0.17833
-0.291418
0.088763
0.202655
-0.0304624
0.00292209
0.0275403
0.0515108
-0.0332448
-0.018266
-0.0474177
0.0361022
0.0113155
-0.03829
-0.0697568
0.108047
-0.539777
0.0463195
-0.00673536
-0.00205825
0.00474294
-0.467544
0.453159
0.186656
-0.183573
-0.00308376
-0.00670804
-0.113116
0.119824
-0.125136
0.0285952
-0.0150375
0.125181
0.0355851
-0.00981474
-0.0257704
0.112314
-0.0253984
-0.0205427
0.192605
-0.172062
0.0200887
0.0195829
0.265713
-0.198305
-0.0674079
0.00409449
7.08078e-05
0.2715
-0.574919
-0.0121821
0.408754
0.0662658
0.0152918
0.0385144
0.0129964
0.0323116
-0.00743998
-0.0248716
0.0975837
0.168129
0.258119
-0.264679
-0.448277
0.182481
0.00459296
-0.150056
0.00269067
0.115199
-0.0861965
0.221481
-0.0224372
0.100261
-0.11241
0.135185
-0.262907
0.269804
-0.0518994
-0.0678813
0.116075
-0.000875905
-0.0805098
0.0728646
0.00764518
-0.0482376
0.360145
-0.311907
-0.0846483
-0.0254453
0.110094
-0.0739799
0.000352414
0.0035895
0.0324662
0.125278
0.109535
-0.0266208
-0.189728
0.0321598
-0.259199
0.537253
-0.278054
0.292171
0.0862147
-0.378385
-0.091791
0.311121
-0.0888517
-0.00986182
0.0987136
0.154817
-0.0582679
-0.0554653
0.104983
-0.0495178
-0.0382541
0.0250553
-0.140912
-0.0172146
-0.222394
-0.379458
0.0285195
-0.0911713
0.0626518
0.0225592
0.00975247
-0.103182
0.0848495
0.0183321
0.0582515
-0.346236
-0.180008
0.148242
0.0317661
-0.121245
-0.397489
-0.16056
-0.0420511
0.202611
-0.0532891
0.214327
0.00483388
0.0172653
-0.287531
0.614223
-0.0701598
0.189278
-0.00268255
-0.186595
0.0833396
0.022282
0.14899
-0.060647
-0.0883427
0.00526228
0.000279997
-0.00554228
-0.0214073
-0.090801
0.112208
0.0489335
-0.266148
0.00202794
-0.000742217
-0.00128572
0.0100423
0.00246725
0.354581
-0.265305
-0.0892761
0.222122
0.0306014
0.107771
-0.0779003
-0.0298712
0.0858146
-0.124105
0.118955
-0.00114416
-0.347959
-0.242497
0.590456
0.0342185
0.271481
-0.104247
0.0932337
0.243804
-0.0616054
-0.113365
-0.015427
-0.150795
0.124866
0.38859
-0.0964193
-0.145469
0.150954
-0.00548463
-0.0279711
0.401214
-0.176421
-0.224792
-0.266945
-0.0314996
0.298445
0.672873
-0.393293
-0.27958
0.00399577
0.0021944
-0.413813
0.622051
-0.202008
0.0128184
0.00394104
0.0130319
0.00979747
0.201509
-0.211306
0.0467505
-0.00823609
-0.0277593
-0.186863
0.0662406
0.0718792
0.233685
0.122135
-0.00449507
-0.11764
-0.0992888
-0.375677
0.139312
-0.00513972
-0.134172
0.325303
-0.586182
0.260879
0.111665
-0.102144
-0.00952157
-0.219777
-0.0941892
-0.0189874
0.0203203
0.0497191
-0.043382
-0.00633715
-0.00286393
-0.00877823
-0.560263
-0.0721681
-0.236173
0.129899
-0.121851
-0.147791
0.163766
-0.0159749
0.00115954
-0.00329032
0.00213078
0.0167587
-0.0164195
-0.000339215
-0.135355
-0.0282852
-0.331863
-0.0138054
0.345669
0.107453
-0.0154873
-0.0265619
0.0191219
-0.0845781
0.00406835
0.0582529
-0.113718
0.142994
0.000330621
-0.143324
-0.0285528
-0.00541767
0.0339705
-0.165441
0.152165
0.013276
0.160976
-0.176054
0.00230353
0.0940662
-0.0963698
-0.0775206
-0.00348809
-0.149674
0.0143188
-0.00188944
0.0195377
-0.0176483
0.14781
-0.153799
0.00598902
-0.281235
0.0807877
0.200447
0.0993704
-0.106078
0.0711906
0.111036
-0.405953
0.318307
0.0876456
-0.185961
0.0254005
0.0153175
0.147064
-0.16986
-0.0444585
-0.38163
-0.0415689
0.423198
0.180351
0.149043
-0.014716
-0.134327
-0.0633473
0.243251
-0.179904
-0.139462
0.0260968
0.0102645
-0.342128
-0.225953
0.462744
-0.236792
0.135137
-0.54895
0.215512
-0.158423
-0.0570885
0.223611
0.223998
-0.447608
0.0262832
0.186602
-0.212885
0.625868
-0.283345
-0.342522
0.00710636
0.00143512
-0.147662
0.146525
0.00113703
0.0390719
-0.037861
0.237391
-0.516916
0.279525
-0.354339
-0.205313
0.559653
-0.0349925
0.0860144
-0.051022
0.152693
-0.0300025
0.250268
-0.194404
-0.0558643
0.0406488
0.0154903
-0.0561391
0.136819
-0.0399658
-0.0968535
-0.0739991
0.059028
0.00331691
0.0980041
-0.125807
0.0278034
-0.089308
0.261278
-0.17197
-0.633904
0.024426
0.609478
0.598671
-0.190529
-0.256751
0.0102267
0.0151218
-0.0154631
0.000341213
-0.603352
0.249013
-0.0925506
0.0193966
0.073154
-0.12831
0.154593
-0.00161044
-0.00788163
0.110469
-0.137171
0.0267018
0.112765
0.0240545
-0.0125699
0.0959095
-0.441044
0.102883
0.33816
0.280803
0.316212
0.00320179
-0.429766
0.275105
0.15466
-0.299524
0.0804049
0.219119
-0.0472043
-0.0201304
0.0673348
0.25177
-0.0157271
0.0981352
0.448482
-0.546617
-0.00815646
0.178131
-0.169975
-0.058986
-0.417617
0.476603
0.324798
-0.474933
0.150135
-0.162294
0.0136126
-0.000674685
0.00183422
0.166504
-0.177978
0.0114737
0.251529
0.149685
0.464739
0.125788
0.00294983
-0.00568616
0.00581921
0.332225
-0.102417
-0.229809
-0.108803
0.279625
0.0622473
-0.0215985
-0.0854664
0.103587
-0.018121
-0.0121138
-0.00177189
0.0138857
-0.112459
0.116778
-0.0501275
-0.231107
-0.235269
-0.356551
0.506189
-0.181391
0.00913867
-0.147715
-0.0138959
0.021779
-0.0904849
0.0687059
0.0498119
0.120075
-0.00969189
0.00427195
-0.286969
0.0880386
0.19893
0.0337512
-0.215849
0.182098
0.0110025
-0.0136698
0.00266735
0.144453
-0.450239
0.00235254
0.213646
0.273788
-0.357801
0.0840125
0.33593
0.25992
-0.59585
0.00518726
-0.15598
0.0870788
0.0188278
0.205306
-0.277381
0.0720744
0.0424782
0.00427228
0.00118385
0.0133133
-0.0144971
0.0302263
0.225661
-0.311142
-0.119203
0.430344
-0.091478
-0.0115452
0.103023
-0.0733104
-0.325419
0.566648
-0.085052
0.103963
-0.0189111
-0.438213
0.127072
-0.155893
-0.280494
0.365671
-0.0851774
0.439102
-0.154883
-0.284219
-0.111326
-0.242292
-0.102863
0.345155
0.0275252
-0.087771
0.145716
0.0407361
-0.186452
0.393212
-0.586431
0.19322
0.374864
-0.505494
0.130631
-0.0168058
-0.266769
0.283574
0.0306557
-0.320821
0.290165
-0.340158
0.0732135
-0.03209
0.0445912
-0.0125012
0.290076
0.0513873
-0.341463
-0.11024
0.401689
-0.291448
0.021309
-0.00809201
-0.013217
-0.0254791
0.0312531
-0.152391
0.131848
-0.161333
0.000437877
-0.121708
0.12127
-0.0515933
-0.166599
0.218192
0.472938
-0.163601
-0.309337
0.125167
-0.054102
-0.005924
0.114216
-0.00255051
0.27314
-0.482259
0.209119
-0.303184
0.112535
-0.00334776
0.0201065
-0.0517602
-0.0833809
0.135141
-0.00126856
0.00552389
-0.00425533
0.528349
0.167283
0.000726829
-0.00479761
-0.183418
0.156057
0.0273611
-0.277978
0.0648123
0.015202
-0.0146196
-0.000582382
-0.0188062
0.0101755
0.00863068
0.35405
-0.323394
0.103912
-0.101609
0.491792
0.106879
-0.339752
0.0974598
0.429449
-0.192058
0.000272189
-0.0061765
0.472986
-0.249376
-0.329381
0.281096
-0.0492668
-0.274201
0.0742534
0.199947
0.0327459
0.0932967
-0.0920521
0.0460713
0.30526
0.0743183
-0.379578
0.0978086
-0.123843
0.0260348
0.372279
0.16693
-0.539209
0.00664857
0.50523
-0.48241
-0.0228208
0.348327
0.360555
0.219448
-0.580003
0.00627687
0.45869
0.0276659
-0.0122157
0.0158593
-0.00364365
0.0164612
-0.0526101
0.0361489
0.00105679
-0.181065
-0.0424417
-0.0673327
-0.0116788
0.0133851
-0.00170633
-0.280504
0.349365
0.000414512
-0.00714987
-0.0258866
0.00766412
-0.0132288
0.00155001
-8.42148e-05
0.0157624
-0.0156782
0.00646324
0.0148458
-0.0163027
0.0186946
-0.0720668
0.100586
0.178994
0.0867609
0.00464265
-0.154648
-0.0287694
0.00658964
-0.0269402
-0.413125
0.058793
0.0912774
0.274993
0.276682
0.0555438
0.538117
0.164072
-0.231179
0.0671065
0.120195
-0.146811
0.0266166
-0.00433611
0.00514542
-0.000809312
0.372518
-0.28124
0.42533
-0.186222
-0.239109
-0.00244442
0.0105391
-0.00809472
0.00876661
-0.0779552
0.0691886
-0.269678
0.252872
0.0228844
0.0230929
-0.176695
0.153602
-0.0732548
-0.206154
0.279408
0.0249679
0.0247513
0.0887359
-0.0658514
0.161239
-0.212087
0.0508482
-0.166739
-0.107461
0.0129845
-0.0118007
0.0121291
-0.00112659
0.00325793
-0.0152131
-0.364092
0.0835979
-0.0879321
-0.0288557
-0.00900933
0.120206
-0.00739039
-0.00399167
0.0113821
-0.0260245
-0.121701
0.12371
-0.00200862
0.256495
0.170027
-0.259335
-0.0769034
-0.210065
-0.509411
-0.114521
0.0658836
0.512652
-0.364768
0.169738
0.0140689
-0.0629268
-0.102514
-0.00461285
0.00243454
0.00217831
-0.133014
0.0357024
0.0973119
-0.095324
-0.234057
0.124774
-0.00356923
0.00457659
-0.00100737
0.167044
0.327439
-0.244951
-0.0824881
-0.00356522
-0.000976142
0.00454136
-0.361819
0.0963267
-0.305328
0.00580406
0.0737008
-0.108622
0.0349216
0.0022687
0.00057129
0.48246
0.299074
-0.347312
-0.0236185
0.0334138
-0.00979526
-0.101709
0.0592675
-0.0293749
0.0942
-0.0648251
-0.138509
0.0375082
0.101001
-0.0442398
-0.0637573
-0.487539
0.173575
0.313964
-0.102363
0.100915
0.00144802
0.172418
0.155021
0.0127562
0.356968
-0.369724
-0.0806696
-0.210748
-0.0451932
0.0137827
0.00117873
-0.0132925
-0.369977
0.0900403
0.279936
0.501167
-0.126304
-0.0738831
0.347672
0.0223051
0.0672853
-0.18273
-0.0050955
0.187826
-0.232982
-0.196784
-0.303074
0.0894749
-0.00162368
0.364999
-0.0597397
-0.00926063
-0.0761278
-0.013877
0.0900049
-0.0119869
-0.00497981
0.0169667
-0.32765
0.0882799
0.117795
-0.025627
-0.0921679
0.183783
-0.163864
-0.00679148
0.00131239
-0.0043819
0.000812669
0.00997384
-0.0035015
-0.121623
0.122061
-0.00507044
-0.0137357
0.4639
0.00504467
-0.0304199
-0.466447
0.479682
-0.0730896
-0.151256
0.172799
-0.156892
-0.0159073
-0.0776225
-0.0428283
0.0087576
0.0472838
0.0291669
-0.0764507
0.092411
0.0159508
-0.108362
-0.014132
0.0430574
-0.0289254
-0.28618
-0.273898
0.560077
-0.0586389
0.101922
-0.0432833
0.106424
0.332679
-0.085167
0.156358
0.0295821
-0.0212457
-0.00833638
0.229801
0.117096
0.174853
-0.6413
0.218376
-0.267608
0.0492325
0.101244
-0.255979
0.154735
-0.00314324
-0.00146961
0.468537
-0.103096
-0.365441
0.513219
-0.179253
0.00857279
-0.020632
0.131827
-0.111195
0.148024
-0.147041
-0.000983688
-0.0262365
-0.000325341
-0.100945
-0.00741298
0.108358
0.0144981
0.000427018
-0.0149252
-0.00177488
-0.132535
0.11374
-0.1655
-0.000924318
0.00114246
-0.175227
0.0047785
0.053986
-0.0587645
0.00179263
0.0297497
0.205455
-0.00651031
-0.198945
-0.307686
-0.0583063
0.365992
0.00191883
0.0199044
-0.0218232
-0.0372944
-0.246782
0.26551
-0.14675
0.0375805
0.109169
0.156382
-0.00564261
-0.345805
0.118052
0.227753
-0.0282052
0.192277
-0.143928
0.245172
0.155784
0.2861
0.310915
0.137641
0.00535282
-0.026282
0.0507253
-0.369174
0.139536
-0.1305
-0.00903654
0.110405
0.209013
-0.319418
0.104351
-0.0979185
-0.00643223
-0.252604
0.577907
0.156749
0.0018189
-0.134019
-0.23227
0.168923
0.321177
-0.0823738
-0.238803
-0.297065
-0.0729115
0.0388643
-0.0375357
-0.00132852
-0.0919606
-0.0293205
0.121281
-0.0226368
0.0500427
-0.0274059
0.264077
0.197582
-0.324459
0.267761
0.0566976
0.00813062
-0.270997
-0.0868041
0.0186339
0.117004
-0.135638
-0.127008
0.0350474
-0.23544
-0.110365
0.0276078
0.114677
-0.258625
0.36903
-0.0181146
0.0500766
-0.031962
-0.290889
0.0441067
-1.02053e-05
0.192615
-0.000598076
-0.00107928
-0.0763976
0.102076
-0.0256779
-0.0940388
0.401107
-0.307068
-0.223298
0.192744
0.0305535
0.00190366
-0.0141193
0.354977
-0.342221
0.474797
-0.11896
-0.355837
-0.0110723
0.00368191
-0.00440749
0.00467968
0.0311676
-0.196542
-0.00904189
-0.0871035
0.0961454
0.544373
-0.280669
0.230268
-0.0110371
0.239006
-0.210891
-0.354083
-0.0869603
-0.0940499
0.0237925
0.0702574
0.307239
-0.288043
-0.0191967
0.0240838
0.0664227
-0.0905066
0.19874
0.401857
-0.447194
0.0931105
-0.297183
0.194766
0.00558031
-0.106525
0.0123255
0.00248274
-0.0148082
-0.220516
-0.0760251
0.00148033
-0.237144
0.235664
-0.349233
-0.138306
0.198281
-0.184598
0.481976
-0.146046
0.0206697
0.13753
-0.124715
-0.584736
0.259317
0.0161903
0.040855
0.115927
-0.0961048
0.0374659
0.0133956
-0.00421995
-0.0214368
-0.00902558
0.396142
-0.306102
-0.301959
0.0570088
-0.257869
0.338697
-0.0808275
-0.00862243
-0.178711
0.140126
0.00119707
0.0124345
-0.0136316
-0.00454929
-0.0092916
0.0138409
0.230876
-0.168418
0.00596353
0.00831427
-0.0152979
-0.143722
0.146381
-0.00265897
-0.0971292
0.0880874
-0.114174
0.0927663
-0.00140302
-0.0122908
0.11051
-0.00615948
0.0352866
0.0552387
-0.0905252
0.00997343
-0.00451694
0.134848
0.00352226
-0.13837
0.171257
-0.00137578
-0.0246534
0.076377
-0.399636
-0.013489
0.215433
-0.142482
0.0372578
-0.0324793
-0.126765
0.144837
-0.0180717
0.373781
-0.28314
0.123704
-0.00156891
-0.100547
0.11918
-0.00326289
0.00118106
-0.0012213
4.02395e-05
0.21496
-0.00153063
-0.21343
-0.0515235
0.0373915
0.0287613
0.131105
-0.159866
-0.0174938
0.0875136
-0.0700198
-0.0521744
-0.052306
0.10448
0.122462
-0.0897159
-0.159968
0.183061
-0.368865
0.205353
0.0427921
0.307099
-0.431299
0.1242
-0.0460867
0.207326
-0.504289
-0.0267822
0.184618
-0.370492
0.113336
0.257156
0.00592755
0.109828
-0.115756
-0.015707
0.10737
0.0116763
0.00561476
-0.0172911
0.0781745
0.0309436
-0.109118
-0.0321404
-0.0599117
-0.0403829
-0.0091701
0.0728935
0.261047
-0.364461
0.103414
0.00705249
0.00752785
-0.0410253
0.0334974
0.325175
-0.392615
0.06744
0.353552
-0.152233
-0.0110587
0.163292
0.00245582
0.012666
0.338003
-0.593828
0.255825
0.130581
-0.00700572
-0.123575
0.0743162
-0.00276487
-0.0715513
0.12182
-0.152792
0.0309718
0.373836
-0.267859
-0.105977
-0.287799
0.230657
0.0571414
-0.180298
0.323633
-0.143335
-0.081344
-0.065406
-0.146903
0.103487
0.232575
0.00556282
-0.0245502
0.0338086
-0.0234584
-0.0103502
-0.118957
0.124612
-0.101236
0.0161837
-0.0188115
0.153659
0.100584
-0.0905202
-0.0100639
-0.213032
0.222829
-0.205203
0.15361
0.010943
0.0421082
-0.0530513
-0.0685723
0.0987365
-0.0301642
0.00243449
-0.00451773
0.0345547
-0.0432443
-0.590659
-0.416696
0.310619
0.106077
-0.146396
0.310932
0.346702
-0.0714523
-0.27525
0.117553
0.15957
-0.0562361
-0.0775729
0.133809
0.371719
-0.0775867
-0.294132
-0.000495111
0.0998325
-0.0993374
-0.502551
0.443565
-0.168125
-0.299529
0.128784
-0.0160188
-0.00606638
0.106327
-0.0595897
0.0948763
-0.355479
0.0749751
0.0345297
-0.175634
-0.241062
0.0122332
0.043537
-0.0557702
0.273409
0.227834
-0.184741
0.13601
0.458188
-0.185048
0.0203804
0.0759598
-0.0963402
-0.0015292
0.0657568
-0.102664
0.27768
-0.0740286
-0.0589857
0.359394
-0.145194
-0.2142
0.149359
0.00419331
-0.00391332
0.234187
0.102915
-0.337102
0.194761
-0.275431
-0.139318
0.118686
0.171668
0.014988
0.00620884
0.282558
0.116481
-0.177965
0.0614831
0.250867
-0.282367
0.119851
-0.501481
0.137527
-0.0173324
-0.0953845
-0.169295
-0.215422
-0.237248
0.45267
-0.162816
-0.0492706
-0.00357981
-0.00460826
-0.202072
-0.0144959
0.216568
-0.0652628
0.0870418
-0.0312274
-0.00186393
-0.00301841
0.0153439
-0.222604
0.0205315
-0.448502
0.233081
0.0528388
0.12539