/*--------------------------------*- C++ -*----------------------------------*\
| =========                 |                                                 |
| \\      /  F ield         | OpenFOAM: The Open Source CFD Toolbox           |
|  \\    /   O peration     | Version:  v2012                                 |
|   \\  /    A nd           | Website:  www.openfoam.com                      |
|    \\/     M anipulation  |                                                 |
\*---------------------------------------------------------------------------*/
FoamFile
{
    version     2.0;
    format      ascii;
    class       volVectorField;
    location    "300";
    object      U;
}
// * * * * * * * * * * * * * * * * * * * * * * * * * * * * * * * * * * * * * //

dimensions      [0 1 -1 0 0 0 0];


internalField   nonuniform List<vector> 
13917
(
(1.09648 0.12256 -2.53783e-20)
(1.02073 0.0419498 1.44089e-22)
(0.580726 -0.0729262 -4.61264e-20)
(1.05668 -0.0102573 -1.90599e-21)
(0.996233 0.00312474 -1.10142e-20)
(0.358758 0.0545703 0)
(0.509361 -0.0613113 0)
(0.585517 -0.0726366 0)
(0.394153 -0.0619928 -1.67394e-20)
(1.13985 0.151816 3.64161e-20)
(1.11339 -0.0621125 -2.06577e-21)
(1.09359 -0.0429023 0)
(1.05719 -0.0109961 0)
(-0.00677558 -0.0052336 -1.79387e-20)
(0.971835 0.0944558 -8.80432e-21)
(0.995104 0.0891693 4.37646e-21)
(1.01509 0.0471314 6.2721e-22)
(1.142 0.0205831 0)
(1.09257 -0.0424357 1.40224e-21)
(1.00151 0.00474491 2.7721e-21)
(0.999979 0.00108366 0)
(0.488363 -0.0596784 0)
(1.00096 0.0078088 5.07408e-21)
(0.644304 -0.0771508 -1.69225e-20)
(0.994913 0.0150831 1.0908e-21)
(0.519721 -0.0551954 2.17074e-20)
(0.782978 0.03402 0)
(0.757429 0.121837 -3.23177e-20)
(0.733144 0.571412 0)
(1.19506 0.0928648 0)
(1.11106 0.1126 2.70888e-20)
(1.06054 0.0901172 8.18634e-21)
(0.837174 0.068869 0)
(0.910359 0.000640692 1.89124e-20)
(0.991369 0.0120597 -1.30986e-21)
(1.11693 -0.0758739 1.5219e-20)
(1.00087 0.00736927 3.39045e-22)
(0.114734 -0.0312787 0)
(1.06379 -0.0155088 -5.51884e-21)
(0.285592 -0.00781596 1.21707e-21)
(1.00856 0.000789808 0)
(0.999988 0.000465858 -6.2976e-22)
(1.02085 0.00255387 -4.20357e-21)
(0.703039 0.204582 0)
(1.03916 0.0250088 -7.21415e-21)
(0.891698 0.0144653 0)
(1.13946 0.0187657 0)
(1.14295 -0.0133128 0)
(0.104177 0.137129 1.50104e-19)
(1.00347 0.000789143 -6.374e-22)
(1.08646 0.0154809 0)
(0.965279 0.00958609 -4.55519e-21)
(0.0751394 0.116015 -2.75203e-19)
(0.905719 0.00190257 2.17017e-20)
(1.0139 0.0481115 0)
(1.08607 0.0394242 -1.09626e-20)
(1.11451 -0.0615584 -2.02675e-20)
(0.995459 0.0297406 9.11445e-21)
(1.07186 0.0456732 6.41497e-21)
(1.03771 0.0245446 2.35342e-22)
(0.537211 0.0465927 0)
(1.02226 0.0420467 3.03899e-22)
(-0.0213333 -0.00020077 1.9432e-20)
(1.00161 0.00513441 0)
(0.385744 0.066838 0)
(1.04005 0.348303 -2.59804e-20)
(0.995438 -0.000727776 -1.23932e-20)
(0.988048 -0.00149397 -1.80766e-20)
(1.15655 -0.0523859 -4.31391e-20)
(1.06338 0.136752 -6.70218e-21)
(0.99663 0.00328739 1.01322e-20)
(0.453492 -0.0696868 8.24664e-21)
(-0.099972 -0.0180455 -5.14641e-20)
(0.995498 0.01469 -3.13137e-21)
(0.105753 0.210891 -1.25736e-19)
(1.08717 -0.0486192 -1.7775e-20)
(-0.104237 -0.0124283 1.30476e-20)
(1.05449 0.0276161 0)
(0.529085 -0.0473876 0)
(0.999905 0.00216805 -5.85201e-21)
(1.0001 0.00323312 -5.01992e-21)
(0.995992 -0.000601587 0)
(0.404807 0.130169 0)
(0.140676 -0.0360647 0)
(-0.0932147 0.0134314 -7.00659e-20)
(1.05341 0.0264244 -6.43367e-21)
(1.00038 0.00411592 4.58868e-21)
(1.18557 0.424017 0)
(1.08458 0.0153911 2.02717e-20)
(1.02131 0.00256245 0)
(-0.024488 -0.0264993 0)
(1.17614 0.132001 -6.99453e-20)
(1.02323 0.0236717 0)
(0.973681 0.0533558 -5.07891e-22)
(1.13679 0.418629 6.47454e-20)
(0.386052 -0.00649414 -5.72865e-20)
(1.13157 -0.0501786 -1.67011e-20)
(1.14327 -0.00334017 -2.58064e-20)
(1.09113 -0.0556099 -2.33169e-20)
(0.608569 0.130005 1.05586e-19)
(1.01132 0.00582701 2.83454e-21)
(0.844622 0.000389785 -4.15802e-20)
(0.692772 0.189428 4.58844e-20)
(1.06202 0.0208818 0)
(1.01652 0.0123473 1.05109e-21)
(0.46302 -0.061889 9.65111e-22)
(0.813525 0.509885 -2.65165e-20)
(1.1455 -0.0144869 5.95793e-20)
(1.01695 0.047663 0)
(1.11118 0.127386 2.00326e-21)
(-0.165634 -0.0107688 6.16214e-20)
(0.29387 -0.00827726 3.7952e-21)
(1.09459 -0.0486232 0)
(0.426308 -0.0617616 6.43137e-20)
(0.948053 0.00823614 8.62685e-21)
(0.0827626 -0.114538 -7.56293e-20)
(1.00081 0.0139074 -9.24843e-21)
(0.200467 0.0957458 -2.72878e-20)
(0.175568 -0.0120232 -4.96045e-21)
(0.907087 0.0144921 -5.41368e-20)
(0.999985 0.000906799 -4.57986e-21)
(1.15728 -0.0506156 7.12264e-20)
(0.139208 -0.0143242 0)
(0.766271 0.115071 2.47492e-20)
(1.00517 0.000698964 1.33282e-22)
(0.975107 0.0507678 0)
(1.03453 0.0284728 -9.25311e-21)
(1.0048 0.000567992 -1.99888e-22)
(1.01809 0.00178443 -1.89587e-21)
(0.361557 0.00776306 0)
(0.236709 -0.0295424 -9.85686e-21)
(0.950503 0.00733573 6.79606e-21)
(1.03952 0.0260094 -6.69963e-21)
(0.99998 0.000859756 0)
(1.26266 0.000376004 -4.53035e-20)
(0.660819 -0.0804198 0)
(1.09388 0.127124 2.1704e-20)
(0.58471 0.131097 3.58799e-20)
(0.995123 -0.000338932 1.39257e-20)
(0.908027 0.0102365 2.98273e-20)
(1.10727 -0.0740011 -3.27076e-20)
(1.02482 0.0134023 0)
(0.96213 0.0216646 0)
(0.654999 0.201336 0)
(0.987403 -0.00116701 8.28568e-21)
(0.668089 -0.0736368 -3.82026e-22)
(0.803798 0.577128 4.37141e-21)
(0.96721 0.010056 0)
(1.02347 0.0113032 -4.04726e-21)
(1.05545 0.0992671 -1.24624e-20)
(1.118 -0.0225343 0)
(0.0924684 -0.14823 2.52608e-19)
(1.11204 -0.0453972 2.04444e-20)
(1.02607 0.180404 -6.52062e-23)
(1.0773 0.0643486 0)
(-0.0568337 0.0499992 1.612e-19)
(1.0586 0.133998 0)
(1.13081 -0.0886493 5.69394e-20)
(-0.12609 -0.00975077 2.78479e-20)
(1.25741 0.00193576 -6.68149e-21)
(0.939736 0.0438198 -9.92073e-21)
(0.78346 -0.0264695 -4.08323e-20)
(1.00003 0.00226372 4.86175e-21)
(1.12955 -0.0491975 -1.53182e-20)
(1.09522 -0.0480871 7.51159e-21)
(1.0919 -0.0554122 2.45175e-20)
(1.0611 0.0217643 0)
(1.12956 -0.0153975 3.77793e-20)
(1.03241 0.0214076 0)
(0.83769 -0.00386907 2.76563e-20)
(1.04559 0.173311 0)
(-0.288486 0.000226431 4.46586e-20)
(1.09263 -0.0505288 0)
(1.0127 0.0563013 1.24432e-21)
(0.820832 -0.0833865 1.02683e-20)
(1.01545 0.201142 -3.26948e-21)
(0.25798 -0.0337321 8.26292e-21)
(0.163351 0.0974913 -9.15741e-20)
(0.726544 -0.0769641 0)
(1.01258 0.0269276 0)
(1.18153 0.126927 0)
(1.11644 0.111174 0)
(1.02534 0.0129637 2.69817e-21)
(1.00037 0.00447493 -3.8295e-21)
(0.936117 0.113712 1.61332e-20)
(0.571904 -0.058463 -5.17814e-24)
(1.25889 0.137517 -1.31651e-19)
(-0.00279063 0.0503655 -1.13524e-19)
(1.11709 0.0426626 -1.32604e-20)
(1.0974 -0.0552957 3.44816e-20)
(1.12831 -0.0796036 -2.56778e-20)
(-0.0434891 0.0173329 -7.08432e-20)
(1.25013 0.176712 -7.88946e-20)
(0.999728 0.00765777 -6.19297e-21)
(0.563428 0.0642179 0)
(0.793601 0.0357921 8.79766e-20)
(1.00735 0.000291909 0)
(1.02343 0.0246869 0)
(0.874367 0.443882 5.63873e-21)
(1.21331 0.473986 0)
(1.07739 -0.00195245 -4.4072e-21)
(1.00317 0.000704253 -1.03753e-21)
(1.12306 -0.0156792 5.85233e-20)
(1.11611 -0.0225528 0)
(-0.126849 -0.0145786 -8.35489e-20)
(1.24779 -0.0376681 -4.96899e-20)
(0.991699 0.0112038 0)
(0.994729 0.0307902 -1.02602e-20)
(1.14071 -0.00510585 5.85597e-21)
(0.594326 -0.0673249 -1.01294e-20)
(0.964382 0.0220696 8.04367e-21)
(0.494111 -0.0633262 0)
(-0.172839 -0.00906456 2.90709e-20)
(1.09822 -0.0551421 -2.26466e-20)
(1.01614 0.0126078 4.90779e-22)
(0.494028 0.409804 2.10981e-19)
(1.13308 -0.00380744 3.77757e-20)
(-0.256312 -0.00674809 -1.48231e-19)
(1.00293 0.018364 0)
(0.690523 0.0684916 0)
(1.0122 0.025959 -2.65828e-22)
(1.18769 0.0697221 4.69901e-20)
(1.00837 0.000988255 0)
(0.0917145 -0.0351225 0)
(0.44143 -0.0601781 3.34971e-20)
(0.996063 0.0926795 -5.55193e-21)
(1.19224 0.477306 8.04155e-20)
(1.08036 0.0633381 0)
(1.01543 0.0121508 -3.05179e-21)
(1.11399 -0.0746877 0)
(1.09176 -0.0500439 0)
(1.11581 0.0401665 -6.9635e-21)
(0.668643 -0.0774025 -1.2267e-20)
(-0.192751 -0.00659591 1.46223e-20)
(1.0123 0.00303825 1.75205e-21)
(1.06382 0.0912938 0)
(0.00457269 -0.030323 0)
(-0.137102 0.0168843 0)
(0.999999 0.00252853 0)
(1.00617 0.00913477 5.62246e-22)
(0.331011 -0.00718552 4.43528e-21)
(1.13708 -0.052393 -1.00584e-20)
(1.00004 0.000135377 0)
(1.09395 -0.0687411 -4.83524e-20)
(1.17671 0.0113085 0)
(0.793336 -0.0315211 0)
(1.09425 0.107963 -3.949e-20)
(1.00005 0.00245337 -4.81972e-21)
(0.978973 0.205543 0)
(-0.162939 -0.00777686 -6.03922e-20)
(1.04158 0.00359936 3.3016e-21)
(1.1974 0.143182 4.62512e-20)
(0.570129 0.175558 6.28893e-20)
(1.03426 0.0272031 -6.89569e-21)
(0.994878 0.0281045 -1.01323e-20)
(1.10776 -0.0391117 3.49438e-20)
(0.348513 -0.0132554 0)
(1.11119 -0.0441404 0)
(0.936962 0.118416 0)
(0.97519 0.0971307 1.31382e-20)
(1.00004 0.000237157 1.09886e-22)
(0.118543 -0.00992473 0)
(0.641276 -0.0366352 0)
(1.09346 -0.0654882 -8.2416e-21)
(1.01497 0.0123962 4.62295e-21)
(-0.152007 -0.0128466 -1.09856e-19)
(-0.00106552 -0.0102711 0)
(1.08295 -0.0906894 -6.28787e-20)
(0.511279 -0.0459814 2.76426e-21)
(1.08751 -0.0494771 -7.15923e-21)
(1.00005 0.00302037 4.81748e-21)
(1.00631 0.000841118 4.04535e-22)
(1.13851 0.0137187 4.24562e-20)
(0.0149603 -0.0247541 3.56156e-20)
(1.16609 -0.0268501 9.58331e-21)
(1.07033 0.0435734 2.51008e-20)
(1.24013 -0.0380478 0)
(1.07996 -0.0353644 0)
(1.01802 0.00117374 3.04328e-21)
(0.926699 0.0222321 -4.35455e-20)
(1.00192 0.00464862 8.86447e-23)
(0.782645 -0.0826083 1.36294e-21)
(1.07559 -0.00158936 3.81141e-21)
(1.00007 0.000137585 -2.72807e-22)
(0.999821 0.109778 0)
(1.0204 0.18228 -1.05954e-21)
(0.78368 -0.0140642 0)
(1.09665 -0.0700583 3.51531e-20)
(0.997407 0.145426 -4.29965e-21)
(1.04418 0.0102563 6.08974e-21)
(1.24874 0.0192958 0)
(0.679137 -0.0776536 1.38451e-20)
(0.542448 -0.039192 0)
(1.00264 0.0178467 -4.1999e-21)
(1.05531 -0.089385 0)
(0.99839 0.000317915 0)
(1.04425 0.00930878 2.12628e-20)
(1.00094 0.0132527 1.04674e-20)
(0.816239 0.617127 -4.89324e-21)
(1.0016 0.000839894 0)
(1.1925 0.0696161 5.30796e-20)
(1.08972 0.107741 3.35784e-20)
(1.032 0.0204437 7.20857e-21)
(1.12281 -0.0179275 -7.35615e-20)
(1.03808 0.057535 8.80873e-21)
(0.113561 0.059236 -2.32173e-20)
(1.01465 0.196017 3.08137e-21)
(1.17045 0.129418 -3.0318e-20)
(1.03057 0.0144112 -1.12463e-20)
(0.995563 0.0271358 1.47377e-20)
(-0.185345 -0.00854726 3.3916e-20)
(0.107871 -0.0129122 -2.55134e-20)
(1.00106 0.0145187 -2.0058e-21)
(1.00719 0.000877504 -2.12485e-22)
(0.980296 0.0309657 0)
(1.01588 0.0255009 -6.87053e-22)
(-0.0776156 -0.0207987 9.50403e-20)
(1.02962 0.014293 4.06431e-21)
(0.107375 -0.0365096 8.01659e-21)
(1.04813 -0.00447128 -1.62788e-20)
(1.20875 0.32396 4.74987e-20)
(1.10257 0.00418013 -5.78471e-20)
(0.111224 0.283088 2.50864e-19)
(0.943562 0.0435637 1.90023e-20)
(1.30386 0.00897331 -1.90176e-21)
(0.510438 0.303049 0)
(1.00288 0.107562 0)
(1.13915 -0.0511464 -4.64943e-20)
(0.955203 0.521947 0)
(0.995785 0.0438999 0)
(0.177953 -0.0300157 0)
(0.571517 0.0432303 0)
(0.00468742 -0.0132202 -2.74624e-21)
(0.921651 0.0193473 -3.31901e-20)
(0.221066 -0.00810839 0)
(1.07006 0.0895078 1.968e-20)
(-0.0719468 -0.00233987 -6.41144e-20)
(0.528542 0.281951 0)
(0.9214 0.352907 1.46284e-20)
(0.937556 0.347744 -7.50874e-21)
(0.525587 -0.0704568 2.77776e-20)
(0.999731 0.00268232 3.96297e-21)
(1.05186 0.176553 -1.39534e-20)
(-0.131843 -0.0116185 -5.5828e-20)
(0.982568 0.0297299 0)
(1.00197 0.0721152 -5.99097e-21)
(0.0224119 -0.0103807 3.18686e-20)
(0.861448 0.478481 0)
(1.01755 0.0531886 -2.29359e-22)
(1.11797 -0.0770146 0)
(0.702755 0.543963 0)
(1.00934 0.00508482 0)
(0.156368 -0.00829919 5.0842e-21)
(1.11766 -0.0770253 4.82208e-20)
(1.00205 0.00501067 -2.54479e-21)
(1.00954 0.0130915 0)
(0.998575 0.000170881 2.78415e-22)
(1.02387 0.0109366 4.84969e-21)
(1.24029 0.0166772 -2.60848e-20)
(0.766459 -0.0799774 2.39739e-20)
(0.385758 -0.277561 0)
(-0.15192 -0.0098848 -2.89462e-20)
(0.997943 0.0146033 4.6424e-23)
(1.20418 0.142574 -8.21263e-20)
(-0.195208 0.0203221 -1.43991e-21)
(1.11359 -0.0067304 -6.60461e-21)
(0.474435 -0.0611685 0)
(0.0430606 -0.0300481 3.06538e-20)
(0.405567 -0.0598229 -1.02846e-19)
(1.01355 0.00557407 -1.66564e-21)
(1.08969 -0.0641773 -1.52342e-20)
(1.01074 0.0126452 0)
(0.817654 0.083103 4.86755e-20)
(1.03681 0.0252125 7.15027e-21)
(0.0855205 0.330907 -1.31239e-19)
(1.17964 0.0135188 1.91329e-20)
(1.06611 -0.00771435 1.91909e-20)
(0.99958 0.00319701 -2.27271e-21)
(1.13812 -0.00375765 -8.97444e-20)
(1.18745 0.128163 0)
(1.15832 0.00697832 0)
(0.327524 1.09608 8.69227e-22)
(-0.114674 -0.00318091 -6.92615e-20)
(-0.282445 -0.00427086 1.79631e-19)
(0.984034 0.213595 0)
(1.13351 0.148851 -9.09468e-20)
(1.00585 0.00868581 0)
(-0.111925 0.0176623 0)
(0.478172 -0.05656 2.60164e-20)
(0.999478 0.0336667 -4.42992e-21)
(1.2876 0.0136059 5.03399e-20)
(0.99568 0.0107884 0)
(1.21385 -0.0199468 7.54262e-20)
(1.04818 -0.00389163 1.16929e-20)
(0.999798 0.00228663 0)
(1.03342 0.0606133 0)
(0.557016 -0.0408635 1.52575e-20)
(1.03164 0.0608836 0)
(0.368708 -0.0167469 1.32037e-20)
(-0.0597509 0.037746 -2.59125e-20)
(1.10734 -0.0588615 -5.439e-20)
(0.442318 0.283329 0)
(0.997533 0.0435526 3.22908e-21)
(0.495795 0.366954 -1.73429e-19)
(0.468498 0.308005 1.10986e-19)
(1.00212 0.0100643 2.31042e-21)
(0.826155 0.479218 2.46952e-20)
(0.983977 0.0294819 1.52395e-22)
(0.994443 0.0127308 1.23692e-21)
(1.19345 0.0974069 0)
(1.00007 0.000355165 0)
(0.993775 0.0145146 3.4217e-21)
(1.01098 0.0124386 0)
(1.23949 0.0203614 2.38249e-20)
(0.999952 0.00173741 -4.07348e-22)
(0.230469 -0.00991367 0)
(0.648789 -0.0500757 0)
(-0.128888 0.0158921 0)
(1.24566 0.182906 2.71813e-20)
(0.355182 -0.0241293 6.76943e-21)
(-0.239569 -0.00837482 0)
(1.11148 -0.00711258 1.18484e-20)
(0.998301 0.0139634 0)
(1.21072 0.0121379 -1.42407e-20)
(1.06345 -0.0143145 4.58661e-21)
(1.0686 0.0968663 1.9426e-20)
(0.99973 0.00818513 -6.81139e-21)
(0.696586 -0.0786126 -2.30778e-20)
(0.537797 -0.0640211 1.12527e-20)
(0.700798 -0.0525714 5.41184e-23)
(0.983877 0.0877432 -5.20786e-22)
(1.18068 0.00117113 -2.13861e-20)
(0.925026 0.0164393 5.04606e-20)
(1.06513 -0.0159658 -1.10301e-20)
(1.15614 0.00539302 0)
(1.0193 0.0621621 -1.71321e-21)
(1.09072 -0.0627635 0)
(1.01804 0.0464538 0)
(1.00159 0.000988846 -1.41933e-21)
(-0.0466592 -0.0245633 0)
(0.254323 -0.0316709 0)
(0.274071 -0.0346301 -4.14065e-21)
(1.17905 0.211425 -5.57906e-20)
(-0.137541 0.0117382 0)
(0.20499 -0.0350848 0)
(-0.0885833 -0.0201905 0)
(-0.0643197 -0.0135378 0)
(1.01727 0.00192777 3.23965e-21)
(1.14015 0.00438355 -7.40508e-22)
(1.02134 0.0620074 1.96697e-21)
(0.992401 0.0313694 0)
(1.24934 -0.0302758 -1.1539e-19)
(1.14062 0.0153858 -4.85798e-20)
(1.0188 -0.000123888 0)
(1.15878 0.0495214 0)
(1.11228 -0.00172727 -2.54869e-20)
(-0.054471 -0.0108738 -4.17165e-20)
(1.00229 0.0104583 2.67856e-21)
(1.1475 -0.03956 -6.95628e-20)
(-0.00874891 0.0115667 4.75647e-20)
(1.22858 0.33845 3.0709e-20)
(0.233809 -0.0137259 -1.92473e-20)
(0.999951 0.0015218 -3.56851e-21)
(0.998333 0.0341186 6.13229e-22)
(1.01129 0.000409767 -5.96803e-22)
(1.05344 0.137816 7.02392e-22)
(1.01348 0.00516604 4.10753e-21)
(0.630594 -0.0603777 -1.05109e-20)
(0.39726 -0.238085 -5.88991e-20)
(1.00032 0.140039 4.03439e-21)
(-0.0715482 0.0259902 0)
(1.0855 0.037021 2.14162e-20)
(1.12768 -0.0508215 0)
(-0.0496827 -0.0222679 -5.60211e-20)
(0.825111 0.577822 3.68956e-22)
(1.10641 -0.0581735 4.53308e-20)
(1.11227 -0.0757665 4.58071e-20)
(1.14658 -0.0412679 5.90818e-20)
(1.15672 0.0665837 5.99056e-20)
(1.20046 -0.00529713 0)
(1.09574 -0.0256929 2.08943e-20)
(1.09989 -0.0604575 -2.78752e-20)
(0.375163 0.109955 0)
(1.09157 -0.0335552 -2.40476e-20)
(1.14397 -0.0232873 1.80174e-20)
(1.01484 0.000688694 3.20348e-21)
(1.26963 -0.00953001 0)
(1.0895 0.0183693 2.16641e-20)
(1.0305 0.00366765 -7.79165e-23)
(1.04906 0.134226 0)
(1.05694 0.0259185 -7.07819e-21)
(-0.0519258 -0.0141406 0)
(0.450113 -0.0660677 0)
(1.01516 0.0244975 2.04647e-22)
(1.01792 0.000942369 1.04419e-21)
(0.658985 -0.0676402 -1.12932e-20)
(-0.261157 -0.00546568 0)
(1.00006 0.000269408 -1.47335e-21)
(0.21172 -0.00939429 1.94508e-20)
(1.05785 0.00529674 -1.79965e-20)
(1.2345 0.163293 2.07267e-20)
(1.01453 0.0264129 -1.93153e-22)
(-0.157117 -0.0110043 -3.55272e-20)
(1.18809 -0.0773624 0)
(1.05842 0.0969721 1.50348e-20)
(1.03735 0.0381101 -8.80822e-21)
(0.37987 -0.027987 -1.75704e-20)
(1.24818 0.135994 9.01195e-20)
(-0.254655 0.00935809 0)
(1.00005 0.000320897 0)
(-0.162123 -0.00972484 -5.77379e-20)
(0.135891 0.0587486 1.22259e-19)
(0.955485 0.0322492 2.59028e-21)
(1.03063 0.00418016 -1.38188e-20)
(-0.12529 0.0139212 -1.95226e-20)
(0.302132 -0.0390607 0)
(1.11099 -0.0106223 4.80612e-20)
(1.01009 0.013142 8.81819e-23)
(1.00903 0.0474669 0)
(1.08537 -0.0492197 -2.24923e-20)
(1.2199 -0.0232409 6.14568e-20)
(1.01931 -0.000125678 -1.34265e-21)
(1.00906 0.0123887 -2.60507e-22)
(1.00505 0.00244668 -3.89819e-22)
(1.00537 0.00256071 0)
(-0.176552 -0.0111817 6.73465e-20)
(1.24829 -0.0257769 -9.86301e-20)
(1.11055 -0.00929775 -4.80171e-20)
(1.25772 0.124601 -1.47624e-21)
(1.00637 0.000651587 -3.93822e-22)
(1.01087 0.00553417 -2.34953e-21)
(1.17721 -0.000473724 1.04846e-20)
(0.163077 -0.0386264 8.99152e-21)
(1.10699 0.0531143 0)
(1.03356 0.0216729 0)
(0.994788 0.0132042 0)
(0.992349 -0.00026531 -1.64688e-20)
(0.895089 0.0229011 7.9098e-20)
(0.00150649 0.0193947 1.49721e-19)
(1.00053 0.00388813 0)
(0.992552 0.00274699 -1.02858e-20)
(1.08793 -0.0632634 -7.99228e-21)
(1.09627 -0.0242507 -2.08501e-20)
(1.10165 0.00284838 -1.04291e-20)
(0.997327 0.0325983 -9.39139e-21)
(1.0289 0.0637339 2.89811e-21)
(1.04403 0.0953572 2.21694e-21)
(1.14153 -0.024004 9.92081e-22)
(0.950822 0.495563 0)
(1.26218 0.132693 1.01263e-19)
(1.21164 0.00810655 6.60846e-20)
(1.16419 -0.0150088 0)
(1.24217 -0.0422558 1.32788e-20)
(1.17014 0.122585 -4.05519e-20)
(1.00182 0.0172687 4.61817e-21)
(-0.149803 -0.00998629 5.19466e-20)
(0.992692 -0.000782013 1.0261e-20)
(1.00258 0.0750231 6.98343e-21)
(1.06792 -0.000263501 7.70867e-22)
(1.27116 -0.0109786 -3.02965e-20)
(0.992725 0.290226 0)
(1.01009 0.00122045 0)
(1.23096 0.327393 0)
(1.20366 0.0860081 0)
(-0.093269 -0.00416979 -5.43599e-20)
(1.16571 -0.0128476 4.34243e-20)
(0.887324 0.135734 -1.07506e-22)
(1.11468 -0.00253932 -2.45232e-20)
(0.999445 0.00347139 4.90477e-21)
(0.472858 -0.0404733 0)
(1.22006 0.317369 -5.46357e-20)
(0.363051 -0.0580674 0)
(1.01738 0.0442651 0)
(1.09687 0.0426223 4.16413e-20)
(1.26077 0.120324 0)
(0.0508706 -0.0322431 -6.6464e-20)
(-0.19581 0.00297348 -1.46117e-19)
(1.14599 -0.00489152 8.53512e-22)
(1.1877 0.213123 -8.29666e-21)
(0.991232 0.0881917 -1.67764e-21)
(1.05673 0.0570266 1.44857e-21)
(0.99622 0.0330995 -5.90038e-21)
(0.889287 0.231882 0)
(0.670749 0.183131 0)
(0.973425 -0.00357032 0)
(1.13059 -0.00518524 0)
(0.569027 0.15026 -1.55694e-19)
(0.376758 -0.0599351 -9.18883e-21)
(-0.247846 0.0109857 0)
(1.0319 0.0738463 -1.58946e-21)
(1.12586 -0.0500843 -2.01913e-21)
(1.19581 -0.0766343 0)
(1.00435 0.118006 -1.50662e-21)
(0.967947 0.0240717 -1.59388e-20)
(0.17494 0.543467 0)
(0.643652 -0.0596922 5.79344e-20)
(0.613488 -0.0771946 2.48377e-20)
(1.25327 0.108604 -1.12123e-19)
(1.01797 0.00202603 0)
(0.161649 -0.0107016 -5.91606e-21)
(1.0861 -0.0484357 2.18975e-20)
(1.01003 0.000903666 0)
(1.09426 0.0748413 -8.55584e-21)
(1.12628 -0.033588 0)
(0.846556 0.0705457 3.20118e-20)
(1.19181 0.0880942 2.1413e-20)
(0.518554 -0.0495993 0)
(1.19692 -0.00604184 2.0291e-20)
(1.09206 -0.0223465 2.24349e-20)
(0.473797 -0.0401496 0)
(1.05908 0.0320635 5.16793e-21)
(-0.0847721 -0.0111076 -5.63737e-21)
(0.999996 0.00225443 0)
(1.00052 0.00418185 -1.67722e-22)
(1.03142 -0.0907264 -2.73696e-20)
(0.61377 -0.0609161 -3.21835e-20)
(0.376642 0.241534 -1.31814e-19)
(1.05964 0.0306489 -5.50521e-21)
(1.014 0.0543798 -7.45515e-22)
(0.992984 0.00319451 1.44492e-20)
(1.08118 -0.0355314 9.63842e-21)
(0.0782397 0.176086 1.44612e-19)
(1.09186 -0.0546899 -2.22271e-20)
(1.05904 0.0574627 1.62782e-21)
(1.10674 -0.0566338 -2.45228e-20)
(1.13566 -0.00529485 4.17195e-20)
(1.01439 0.0271482 1.87531e-22)
(1.17027 0.485791 3.52665e-20)
(1.09108 -0.0542921 1.63684e-20)
(1.09224 -0.0592563 3.05947e-20)
(1.00467 0.0198454 0)
(1.19238 -0.0108528 -1.58441e-20)
(1.05607 0.0274687 -1.00305e-21)
(-0.0163023 0.0484903 -8.7072e-20)
(1.14564 0.148555 -3.87749e-20)
(1.00343 0.283229 0)
(1.09803 0.0445352 -3.87681e-20)
(1.00786 0.0028847 -6.94434e-22)
(1.02835 0.00641496 3.15837e-21)
(1.03579 0.02906 6.42953e-21)
(0.968039 0.353333 9.61406e-22)
(0.890132 0.0195418 0)
(1.25241 0.0501005 -6.91829e-20)
(0.471403 0.809589 1.10367e-20)
(1.12985 -0.0129752 -3.99418e-20)
(1.00887 0.00503839 0)
(1.20092 0.00164236 0)
(0.373717 0.272089 0)
(1.12418 -0.0794805 -3.99614e-20)
(1.04084 0.00412277 0)
(0.899689 0.0325534 1.04947e-20)
(1.00852 0.0122977 -1.00445e-22)
(1.07748 -0.0164624 0)
(1.07427 0.0452887 0)
(0.280153 -0.0393798 -2.23423e-20)
(0.999869 0.00235584 0)
(1.23919 0.503856 -4.63997e-20)
(1.07876 -0.0135939 0)
(1.11161 -0.0621629 8.65442e-21)
(1.17308 0.14408 -1.81984e-20)
(-0.112806 -0.0157452 8.43471e-20)
(1.02619 0.281182 1.04051e-20)
(1.00864 0.0457945 -9.22069e-22)
(-0.0193915 -0.0218723 -3.96952e-20)
(-0.267637 -0.00286608 7.20456e-20)
(1.00632 0.0351733 0)
(1.06685 -0.0010511 2.8116e-21)
(1.19446 -0.0711892 1.11945e-19)
(1.24494 0.110654 0)
(1.16305 -0.0272485 -1.97574e-20)
(1.00016 0.000389793 -1.78828e-21)
(1.03864 0.0380712 0)
(1.19639 0.315145 0)
(1.06669 -0.00864435 -2.57803e-20)
(1.15813 0.0106618 0)
(1.1071 -0.0373901 0)
(1.02903 0.00627897 4.52725e-21)
(1.11372 -0.02508 0)
(0.590215 -0.0737594 2.59616e-20)
(1.04035 0.0025573 6.73392e-21)
(1.05414 -0.00649597 0)
(1.0045 0.00259654 5.17229e-22)
(0.105812 -0.0108687 -1.22456e-20)
(0.999955 0.00105114 8.00998e-22)
(0.984183 0.0838498 -4.95853e-22)
(-0.283305 -0.00202656 4.39749e-20)
(0.993349 0.0685894 6.12079e-21)
(0.674614 -0.0599501 3.02869e-20)
(1.07616 0.0670786 -2.3246e-21)
(0.831349 0.0747347 -6.15878e-20)
(1.00484 0.00272068 6.18034e-22)
(1.02276 0.215643 1.06969e-20)
(1.00067 0.0125463 -5.64065e-21)
(1.1546 0.0746662 -1.19494e-20)
(1.00752 0.00172743 0)
(1.08428 0.261588 -2.45076e-20)
(1.05756 0.0060665 0)
(0.243907 0.14276 -8.40428e-20)
(0.434219 0.684766 4.30849e-20)
(0.160395 -0.0392292 -1.12518e-20)
(1.01083 0.000394967 -4.44963e-22)
(0.999664 0.00287686 -3.77673e-21)
(1.16459 0.119447 3.72631e-20)
(1.12591 0.114619 -7.31154e-23)
(0.0600257 -0.0150233 -3.29237e-20)
(0.272644 -0.0512574 4.27012e-20)
(1.14294 0.0242551 4.35377e-20)
(0.99272 0.0115449 0)
(1.23861 0.0182268 2.2502e-20)
(0.343718 0.216611 2.7742e-19)
(1.08928 -0.0594106 -2.62536e-20)
(1.24955 0.0532838 8.53899e-20)
(1.13386 0.00993683 4.04709e-20)
(0.558683 -0.0475857 2.11512e-20)
(1.08666 0.131415 -1.1388e-20)
(1.07948 -0.0341197 1.50625e-20)
(1.20728 0.0252227 3.61167e-20)
(0.856447 0.422965 1.1966e-20)
(1.14125 0.0262315 -3.0872e-20)
(0.305044 0.292754 -1.79336e-19)
(1.14161 0.0325386 1.89235e-20)
(1.05992 -0.00506111 -9.29507e-21)
(1.12764 -0.0350926 -2.69625e-20)
(1.00703 0.109099 -1.40563e-21)
(1.03402 0.00513549 1.99246e-20)
(1.0774 -0.0155016 5.31314e-21)
(1.11299 0.122299 3.29164e-20)
(1.05128 0.0976727 1.26603e-21)
(0.999529 0.0124432 0)
(1.00681 0.000516738 0)
(1.13289 -0.00962323 3.94887e-20)
(1.0637 0.011549 -1.75022e-20)
(1.16119 0.0121657 4.12065e-21)
(0.99342 0.0112087 0)
(0.995266 0.0086914 0)
(0.999963 0.000837838 5.51004e-23)
(1.02471 0.0638576 1.38431e-22)
(1.02359 0.00123335 -6.35523e-21)
(1.04957 0.0833684 1.0603e-20)
(1.00399 0.00274672 -1.79796e-22)
(-0.164386 -0.0102349 0)
(1.0907 -0.0433008 0)
(0.470302 -0.28397 -1.24538e-20)
(1.01229 0.00524623 5.16816e-22)
(1.00007 0.00171061 4.59512e-21)
(0.802403 0.144966 -4.2736e-20)
(1.1601 0.0644764 -7.04036e-20)
(0.953402 0.0032592 0)
(0.797882 0.00577432 7.78994e-20)
(1.13515 0.198434 6.50932e-20)
(0.994341 0.110604 -9.05382e-20)
(1.07876 -0.0145885 -6.88735e-21)
(1.18733 -0.000751965 2.60278e-20)
(1.05206 0.0159103 7.76737e-21)
(0.999904 0.0011004 5.20462e-21)
(1.00563 0.00228603 0)
(1.03631 0.0585625 -1.34644e-20)
(-0.31076 -0.000148331 -1.07934e-19)
(1.00005 0.00145318 -6.48969e-21)
(1.17547 -0.0509558 2.74479e-20)
(1.05093 0.0857912 0)
(-0.193381 0.0231795 -6.96259e-20)
(0.967388 0.225045 -8.52854e-21)
(1.14239 0.196447 -3.69724e-20)
(1.11033 -0.0614022 4.11304e-21)
(1.02107 0.00649657 0)
(1 4.56634e-05 0)
(1.09186 -0.0436018 0)
(0.988153 0.0034109 0)
(0.985472 0.0431188 5.30596e-21)
(0.936045 0.00523934 0)
(1.01372 0.0582323 4.65202e-22)
(0.998617 0.000847107 2.36462e-21)
(1.08656 0.0553122 -2.92419e-20)
(1.00631 0.0078161 -3.13718e-22)
(1.01683 0.000885394 -2.29569e-21)
(1.05782 0.092768 -7.76857e-21)
(0.884861 -0.0237088 0)
(0.0397724 -0.0107348 -1.92078e-20)
(1.08203 0.111452 1.94226e-21)
(1.04034 0.00204207 7.92891e-21)
(1.00923 0.000948492 0)
(0.0821021 -0.0373259 3.15676e-20)
(0.953546 0.360961 0)
(1.0022 0.0423042 -3.91115e-21)
(1.01842 0.0436175 -3.16431e-22)
(0.888901 0.00912547 -1.2018e-19)
(1.19774 -0.0732411 4.66891e-20)
(-0.293933 -0.00448221 1.11377e-19)
(0.89512 0.136209 0)
(1.06081 -0.00428766 4.65928e-21)
(1.01192 0.00315808 -1.24767e-21)
(1.01705 0.00104715 4.68617e-21)
(1.09297 -0.0336676 -3.48255e-22)
(1.0867 0.11251 -1.12326e-21)
(1.12277 -0.0747376 -2.5764e-20)
(0.917689 0.0193219 0)
(0.154095 -0.0254521 -2.58204e-20)
(1.02884 0.0431974 7.32683e-21)
(0.965142 0.0592962 1.30968e-20)
(-0.302479 -0.00129686 -1.23896e-19)
(0.995489 0.0102146 0)
(1.09053 0.0167347 -2.5028e-20)
(1.00518 0.0316392 3.98458e-21)
(1.00203 0.0012715 1.53276e-21)
(1.10568 0.12773 3.54229e-21)
(0.773651 -0.00781459 -4.52549e-20)
(1.04963 0.0281095 0)
(0.638953 -0.060634 0)
(0.306995 -0.0113687 -1.85366e-20)
(1.17746 0.139261 1.6246e-20)
(1.00213 0.0178804 8.01772e-21)
(1.02547 0.00281316 -2.59411e-23)
(1.09586 -0.0548286 -4.39e-20)
(1.19834 -0.0473393 -4.06833e-20)
(1.00007 0.000440645 2.09513e-21)
(1.2372 -0.0467528 6.23582e-20)
(1.02496 0.00296845 0)
(1.10949 0.117186 -2.90307e-20)
(1.03494 -0.00128215 0)
(1.03517 0.00685425 -1.77538e-20)
(1.23066 -0.0225604 4.4861e-20)
(1.04047 0.0163565 -1.54477e-20)
(0.99175 -0.0574909 0)
(1.11504 0.0899625 -3.5213e-21)
(0.999957 0.000777216 6.76177e-21)
(1.02043 0.00353827 0)
(0.981265 0.00127565 1.04461e-20)
(1.00971 0.0203723 0)
(1.05367 -0.00551841 -5.4964e-21)
(0.272371 0.68741 -6.4115e-20)
(1.03909 0.00441216 1.57849e-20)
(1.03128 0.0107836 -7.39996e-21)
(0.348925 -0.065397 0)
(0.579506 -0.0716288 4.80018e-22)
(1.09335 -0.0236579 9.79577e-21)
(1.12054 0.115857 0)
(1.15103 0.00169866 -6.18928e-20)
(1.07765 0.0248342 3.62913e-20)
(1.02472 0.0145885 0)
(0.887796 0.0122282 -1.84323e-20)
(-0.133538 -0.0136089 8.33571e-20)
(1.09402 0.26293 0)
(0.998286 0.00530067 5.6887e-21)
(1.03602 0.0372469 9.88172e-21)
(0.303773 -0.0541452 0)
(1.11476 0.0202781 3.09877e-20)
(-0.104804 -0.0113456 3.2357e-20)
(0.999962 0.00101001 -7.52987e-21)
(0.951 0.00406897 1.55697e-20)
(0.0884014 -0.00961116 2.01994e-20)
(1.10716 0.0143693 4.20323e-20)
(1.05176 0.0267089 0)
(-0.305346 0.00119629 2.19729e-19)
(0.212902 0.239196 1.3564e-19)
(1.00998 0.0198346 0)
(1.20292 0.0263936 0)
(1.00595 0.00240062 0)
(1.03931 0.016324 1.58958e-20)
(1.01266 0.00552235 0)
(-0.126767 -0.0158318 2.94417e-20)
(1.02319 0.00108491 6.98375e-23)
(1.03968 -0.00329673 7.43004e-21)
(1.02527 0.0141582 0)
(0.94135 -0.05744 0)
(1.06316 -0.0121569 1.3302e-20)
(1.23866 0.156744 -2.03389e-20)
(0.701321 -0.0936874 6.75898e-20)
(1.03574 0.00503381 -2.51227e-21)
(0.844744 0.0274241 -1.20594e-20)
(1.00055 0.00368943 1.90079e-21)
(-0.141641 -0.00974057 3.4549e-20)
(1.00548 0.0104172 -1.31335e-21)
(1.03977 0.00387863 -1.27901e-20)
(0.998677 0.00134642 0)
(1.09652 -0.0553521 6.05289e-20)
(0.998502 0.00120849 3.52434e-22)
(1.1959 -0.0102332 2.48525e-20)
(0.311281 -0.0070124 9.17758e-21)
(0.705347 -0.0777514 1.28695e-20)
(0.904578 0.0330433 -3.84566e-20)
(1.11763 -0.0766807 1.14384e-20)
(-0.257792 -0.00340126 -6.56134e-20)
(0.996725 0.027338 0)
(0.142711 -0.00777774 1.40038e-20)
(0.41075 0.0401025 -1.49674e-19)
(-0.236206 -0.00360252 -4.39435e-20)
(0.343253 -0.0237704 1.30154e-22)
(0.329876 -0.0644277 1.57358e-20)
(0.110867 0.167049 -1.02991e-19)
(1.19733 0.00287218 0)
(1.0107 0.048446 1.0328e-21)
(0.503694 -0.0478155 0)
(1.10655 0.0163849 -2.94692e-20)
(0.446839 -0.0538755 -1.36834e-20)
(1.02993 0.00456167 4.97182e-21)
(1.02409 0.0232292 0)
(1.00366 0.0432755 7.60706e-21)
(1.00059 0.00397676 0)
(1.08257 0.0203015 2.29014e-20)
(0.891316 0.0918962 -6.86864e-21)
(0.108272 -0.0174958 3.11923e-20)
(1.02393 0.0222573 0)
(0.993836 0.00398262 -9.91707e-21)
(-0.224068 0.016176 -1.35979e-19)
(0.972833 0.452829 1.08776e-22)
(0.981432 -5.93754e-06 0)
(0.811821 -0.0530993 3.97317e-20)
(1.09403 0.0573123 0)
(1.04547 0.0220201 4.89599e-21)
(0.496715 0.721661 0)
(0.805624 -0.0478841 0)
(0.951965 0.0513756 1.76484e-20)
(1.06355 -0.0114529 -1.35576e-20)
(0.285269 -0.00786483 1.94146e-20)
(-0.287437 -0.000730979 1.26602e-19)
(0.222645 0.0613705 -2.20023e-19)
(1.03447 -0.000833795 0)
(1.24502 0.143236 4.56744e-20)
(1.20029 0.0821042 -1.40565e-20)
(-0.219645 0.00271172 -7.01727e-20)
(0.388986 -0.0585995 -3.9256e-20)
(1.0901 -0.0502714 0)
(1.01561 0.0264706 -8.9706e-24)
(1.05308 0.0166462 -7.88471e-21)
(1.02743 0.0435329 -6.79671e-21)
(1.01981 3.24985e-05 4.58867e-21)
(1.02736 0.0649698 -3.17002e-21)
(1.01723 0.00168345 2.35267e-21)
(1.04642 0.0938036 3.10813e-21)
(1.08249 0.131206 2.53832e-20)
(-0.0518886 0.0256543 0)
(1.15146 -0.0442486 0)
(1.04013 -0.00277173 -1.1977e-20)
(1.18384 -0.00185884 -2.40545e-20)
(-0.0725337 -0.0213857 5.54118e-20)
(1.10235 0.122534 4.74387e-20)
(0.972411 0.0240108 1.27083e-20)
(-0.0938948 -0.00934681 6.47606e-21)
(1.03077 0.0200665 -4.18987e-21)
(0.986339 0.0411073 1.0232e-20)
(0.817662 0.0639891 -2.45199e-21)
(-0.0136039 0.0327644 0)
(0.998423 -0.00018667 -1.03969e-20)
(1.00423 0.0201734 -1.96711e-21)
(0.475507 -0.0631615 -3.37335e-20)
(1.1075 -0.0746444 0)
(1.19209 -0.0771352 -1.28333e-19)
(1.16527 -0.0203322 -4.32233e-20)
(1.11739 -0.0757473 -2.42376e-20)
(1.00786 0.0191521 0)
(1.20828 0.00208493 -7.97641e-20)
(0.971484 0.0258909 0)
(1.00359 0.0108822 2.15334e-21)
(0.969299 0.0218581 0)
(0.591049 -0.0595914 2.82559e-20)