/*--------------------------------*- C++ -*----------------------------------*\
| =========                 |                                                 |
| \\      /  F ield         | OpenFOAM: The Open Source CFD Toolbox           |
|  \\    /   O peration     | Version:  v2012                                 |
|   \\  /    A nd           | Website:  www.openfoam.com                      |
|    \\/     M anipulation  |                                                 |
\*---------------------------------------------------------------------------*/
FoamFile
{
    version     2.0;
    format      ascii;
    class       volVectorField;
    location    "300";
    object      U_0;
}
// * * * * * * * * * * * * * * * * * * * * * * * * * * * * * * * * * * * * * //

dimensions      [0 1 -1 0 0 0 0];


internalField   nonuniform List<vector> 
13917
(
(1.09648 0.122561 -2.53735e-20)
(1.02073 0.0419496 1.45021e-22)
(0.58071 -0.0728849 -4.61038e-20)
(1.05668 -0.0102535 -1.90515e-21)
(0.996232 0.00312267 -1.10171e-20)
(0.358758 0.0545606 0)
(0.509347 -0.0612571 0)
(0.58552 -0.0726133 0)
(0.394184 -0.062047 -1.67374e-20)
(1.13984 0.151819 3.64109e-20)
(1.11336 -0.062067 -2.06527e-21)
(1.09359 -0.0428824 0)
(1.05719 -0.010992 0)
(-0.00667388 -0.00523461 -1.79295e-20)
(0.971833 0.0944537 -8.80707e-21)
(0.995101 0.089168 4.37922e-21)
(1.01509 0.0471308 6.31165e-22)
(1.14199 0.0205798 0)
(1.09257 -0.0424166 1.40205e-21)
(1.00151 0.00474415 2.77616e-21)
(0.999979 0.00108368 0)
(0.488352 -0.059624 0)
(1.00096 0.00780768 5.078e-21)
(0.644303 -0.0771228 -1.69133e-20)
(0.994913 0.0150829 1.0912e-21)
(0.519678 -0.0551301 2.17099e-20)
(0.782977 0.0340143 0)
(0.757427 0.121831 -3.23193e-20)
(0.733139 0.5714 0)
(1.19506 0.0928698 0)
(1.11105 0.112601 2.70843e-20)
(1.06054 0.0901181 8.18355e-21)
(0.837173 0.0688641 0)
(0.910359 0.000636487 1.89137e-20)
(0.991369 0.0120594 -1.31024e-21)
(1.1169 -0.0757775 1.52152e-20)
(1.00087 0.00736806 3.39311e-22)
(0.114819 -0.0312833 0)
(1.06379 -0.0155032 -5.51668e-21)
(0.285466 -0.007811 1.21821e-21)
(1.00856 0.000789782 0)
(0.999988 0.000465915 -6.3009e-22)
(1.02085 0.00255395 -4.19896e-21)
(0.703036 0.204574 0)
(1.03916 0.02501 -7.20989e-21)
(0.891698 0.014461 0)
(1.13945 0.0187627 0)
(1.14294 -0.0133159 0)
(0.104177 0.137118 1.50108e-19)
(1.00347 0.000789125 -6.41051e-22)
(1.08646 0.0154827 0)
(0.965278 0.00958312 -4.55577e-21)
(0.0751385 0.116004 -2.7521e-19)
(0.905719 0.00189833 2.17031e-20)
(1.0139 0.0481108 0)
(1.08606 0.039425 -1.09602e-20)
(1.11448 -0.0615153 -2.02626e-20)
(0.995458 0.0297389 9.11848e-21)
(1.07185 0.0456742 6.41323e-21)
(1.03771 0.0245458 2.3534e-22)
(0.537163 0.0465993 0)
(1.02226 0.0420467 3.03876e-22)
(-0.0212406 -0.000201714 1.94223e-20)
(1.00161 0.00513365 0)
(0.385743 0.0668283 0)
(1.04006 0.348303 -2.5981e-20)
(0.995439 -0.000729794 -1.23958e-20)
(0.988049 -0.00149444 -1.80795e-20)
(1.1565 -0.0523962 -4.31305e-20)
(1.06338 0.136753 -6.70016e-21)
(0.99663 0.00328528 1.01349e-20)
(0.453534 -0.0697435 8.24556e-21)
(-0.100017 -0.0180625 -5.14622e-20)
(0.995497 0.0146898 -3.1326e-21)
(0.105753 0.210881 -1.2574e-19)
(1.08718 -0.0486038 -1.77737e-20)
(-0.104222 -0.0124404 1.30447e-20)
(1.05448 0.0276172 0)
(0.529013 -0.0473294 0)
(0.999905 0.00216776 -5.85485e-21)
(1.0001 0.00323254 -5.0231e-21)
(0.995992 -0.000603737 0)
(0.404807 0.13016 0)
(0.140756 -0.0360709 0)
(-0.0931961 0.0134298 -7.00589e-20)
(1.05341 0.0264254 -6.43115e-21)
(1.00038 0.00411504 4.59231e-21)
(1.18557 0.424014 0)
(1.08458 0.0153929 2.0267e-20)
(1.02131 0.00256253 0)
(-0.0244885 -0.0265243 0)
(1.17614 0.132007 -6.99382e-20)
(1.02322 0.0236722 0)
(0.973679 0.0533529 -5.07861e-22)
(1.13683 0.418612 6.4762e-20)
(0.386052 -0.00650373 -5.7288e-20)
(1.13154 -0.0501636 -1.66974e-20)
(1.14326 -0.00334419 -2.58033e-20)
(1.09116 -0.0555774 -2.33187e-20)
(0.608568 0.129996 1.05589e-19)
(1.01132 0.00582681 2.82642e-21)
(0.844622 0.000384936 -4.15822e-20)
(0.692769 0.18942 4.58865e-20)
(1.06202 0.020883 0)
(1.01652 0.0123474 1.04915e-21)
(0.463056 -0.0619415 9.66124e-22)
(0.813519 0.509874 -2.65228e-20)
(1.14549 -0.0144914 5.95714e-20)
(1.01695 0.0476625 0)
(1.11118 0.127388 2.00293e-21)
(-0.16568 -0.0107539 6.16247e-20)
(0.293749 -0.00826908 3.7987e-21)
(1.0946 -0.0485973 0)
(0.426338 -0.0618141 6.43113e-20)
(0.948053 0.00823232 8.62771e-21)
(0.0827633 -0.114549 -7.5631e-20)
(1.00081 0.0139074 -9.25474e-21)
(0.200466 0.0957352 -2.72885e-20)
(0.175606 -0.0120093 -4.96033e-21)
(0.907086 0.014488 -5.41406e-20)
(0.999985 0.000906842 -4.5823e-21)
(1.15724 -0.0506271 7.12123e-20)
(0.139281 -0.0143139 0)
(0.766269 0.115065 2.47505e-20)
(1.00517 0.000698969 1.35395e-22)
(0.975105 0.0507649 0)
(1.03453 0.028474 -9.24677e-21)
(1.0048 0.000567998 -2.03638e-22)
(1.01809 0.00178452 -1.89356e-21)
(0.361557 0.00775328 0)
(0.236762 -0.0295161 -9.85439e-21)
(0.950502 0.00733199 6.79674e-21)
(1.03952 0.0260106 -6.69591e-21)
(0.99998 0.000859799 0)
(1.26268 0.000358137 -4.53207e-20)
(0.660813 -0.0803868 0)
(1.09388 0.127125 2.16994e-20)
(0.584709 0.131089 3.5881e-20)
(0.995123 -0.000340861 1.39286e-20)
(0.908026 0.0102323 2.98294e-20)
(1.10723 -0.0739195 -3.26991e-20)
(1.02482 0.0134031 0)
(0.962129 0.0216613 0)
(0.654997 0.201328 0)
(0.987403 -0.00116747 8.287e-21)
(0.668156 -0.0736958 -3.81967e-22)
(0.803792 0.577115 4.376e-21)
(0.96721 0.0100532 0)
(1.02347 0.011304 -4.04301e-21)
(1.05544 0.0992678 -1.24575e-20)
(1.11799 -0.0225267 0)
(0.0924688 -0.148241 2.52614e-19)
(1.11203 -0.0453728 2.04407e-20)
(1.02606 0.180403 -6.51603e-23)
(1.0773 0.0643496 0)
(-0.056825 0.049995 1.61191e-19)
(1.0586 0.133999 0)
(1.1308 -0.0886315 5.69149e-20)
(-0.126074 -0.00976002 2.78422e-20)
(1.25742 0.00191515 -6.68246e-21)
(0.939735 0.0438161 -9.92201e-21)
(0.78346 -0.0264752 -4.08339e-20)
(1.00003 0.00226348 4.8647e-21)
(1.12952 -0.0491815 -1.5315e-20)
(1.09522 -0.0480616 7.51084e-21)
(1.09192 -0.0553796 2.45194e-20)
(1.0611 0.0217654 0)
(1.12955 -0.0153956 3.77738e-20)
(1.03241 0.0214087 0)
(0.83769 -0.00387401 2.76576e-20)
(1.04559 0.173311 0)
(-0.28851 0.000233451 4.4659e-20)
(1.09264 -0.0505029 0)
(1.0127 0.0563006 1.2472e-21)
(0.820906 -0.0834365 1.02653e-20)
(1.01544 0.201141 -3.26413e-21)
(0.25803 -0.0337036 8.26072e-21)
(0.163351 0.0974805 -9.15763e-20)
(0.726615 -0.0770234 0)
(1.01258 0.0269265 0)
(1.18153 0.126933 0)
(1.11644 0.111176 0)
(1.02534 0.0129645 2.69573e-21)
(1.00037 0.00447393 -3.83256e-21)
(0.936114 0.113709 1.61357e-20)
(0.571841 -0.0583932 -5.17856e-24)
(1.25889 0.137536 -1.31642e-19)
(-0.00278094 0.0503609 -1.13518e-19)
(1.11709 0.0426623 -1.32585e-20)
(1.0974 -0.0552551 3.44803e-20)
(1.12822 -0.0795519 -2.56693e-20)
(-0.0434737 0.0173311 -7.08355e-20)
(1.25012 0.176728 -7.88872e-20)
(0.999727 0.00765626 -6.19631e-21)
(0.563427 0.0642095 0)
(0.793601 0.0357866 8.79806e-20)
(1.00735 0.000291911 0)
(1.02343 0.0246874 0)
(0.87436 0.443872 5.64178e-21)
(1.2133 0.474008 0)
(1.07739 -0.00194844 -4.40601e-21)
(1.00317 0.000704224 -1.04224e-21)
(1.12305 -0.0156752 5.85141e-20)
(1.1161 -0.0225448 0)
(-0.12689 -0.0145924 -8.35456e-20)
(1.24779 -0.0377408 -4.96911e-20)
(0.991698 0.0112035 0)
(0.994727 0.0307883 -1.02648e-20)
(1.1407 -0.005109 5.85523e-21)
(0.594275 -0.0672606 -1.01274e-20)
(0.964381 0.0220664 8.04488e-21)
(0.494103 -0.0632766 0)
(-0.172877 -0.0090725 2.90698e-20)
(1.09822 -0.0551018 -2.26457e-20)
(1.01614 0.0126078 4.89838e-22)
(0.494026 0.409794 2.10989e-19)
(1.13307 -0.00380839 3.77707e-20)
(-0.256379 -0.00674347 -1.48242e-19)
(1.00293 0.0183637 0)
(0.690464 0.0684992 0)
(1.0122 0.0259579 -2.6785e-22)
(1.18769 0.0697232 4.69872e-20)
(1.00837 0.000988228 0)
(0.0917856 -0.0351363 0)
(0.44146 -0.060229 3.34969e-20)
(0.99606 0.0926783 -5.55545e-21)
(1.19222 0.4773 8.04118e-20)
(1.08035 0.0633391 0)
(1.01543 0.0121508 -3.04515e-21)
(1.11396 -0.0745937 0)
(1.09177 -0.05002 0)
(1.11581 0.0401663 -6.96247e-21)
(0.668623 -0.0773589 -1.22605e-20)
(-0.192791 -0.00660284 1.46218e-20)
(1.0123 0.00303826 1.74828e-21)
(1.06381 0.0912948 0)
(0.00456815 -0.0303521 0)
(-0.137083 0.0168803 0)
(0.999999 0.0025282 0)
(1.00617 0.00913482 5.64917e-22)
(0.330864 -0.00718137 4.43982e-21)
(1.13704 -0.0523826 -1.0056e-20)
(1.00004 0.000135382 0)
(1.09395 -0.0686603 -4.83457e-20)
(1.17671 0.0112969 0)
(0.793336 -0.0315267 0)
(1.09424 0.107964 -3.9482e-20)
(1.00005 0.00245307 -4.82265e-21)
(0.978967 0.20554 0)
(-0.16296 -0.0077847 -6.03871e-20)
(1.04158 0.00360045 3.29968e-21)
(1.19739 0.143191 4.6247e-20)
(0.570128 0.175549 6.28914e-20)
(1.03426 0.0272043 -6.89083e-21)
(0.994877 0.0281029 -1.01367e-20)
(1.10775 -0.0390921 3.4938e-20)
(0.348383 -0.0132443 0)
(1.11118 -0.0441169 0)
(0.936958 0.118413 0)
(0.975187 0.0971288 1.31421e-20)
(1.00004 0.000237167 1.1009e-22)
(0.118615 -0.00991709 0)
(0.641262 -0.0366402 0)
(1.09351 -0.0654093 -8.2425e-21)
(1.01497 0.0123961 4.6127e-21)
(-0.152078 -0.0128536 -1.09863e-19)
(-0.00097736 -0.0102621 0)
(1.08296 -0.0906718 -6.28512e-20)
(0.511208 -0.045926 2.7657e-21)
(1.08752 -0.0494612 -7.15899e-21)
(1.00005 0.00301987 4.82053e-21)
(1.00631 0.000841123 3.97496e-22)
(1.1385 0.0137159 4.24514e-20)
(0.0150188 -0.0247699 3.56012e-20)
(1.16607 -0.0268664 9.58229e-21)
(1.07033 0.0435744 2.50939e-20)
(1.24014 -0.0381202 0)
(1.07997 -0.0353524 0)
(1.01802 0.0011738 3.03957e-21)
(0.926615 0.0222477 -4.35461e-20)
(1.00192 0.00464804 8.86298e-23)
(0.782719 -0.0826556 1.36251e-21)
(1.07559 -0.00158548 3.81038e-21)
(1.00007 0.000137588 -2.73354e-22)
(0.999817 0.109777 0)
(1.02039 0.182278 -1.05948e-21)
(0.78368 -0.0140699 0)
(1.09664 -0.0699748 3.51455e-20)
(0.997403 0.145424 -4.30533e-21)
(1.04418 0.0102571 6.08664e-21)
(1.24879 0.0192837 0)
(0.679121 -0.0776133 1.38378e-20)
(0.542435 -0.0391945 0)
(1.00264 0.0178465 -4.20328e-21)
(1.05534 -0.0893934 0)
(0.99839 0.000316163 0)
(1.04425 0.00930956 2.12519e-20)
(1.00094 0.0132526 1.04745e-20)
(0.816233 0.617114 -4.89838e-21)
(1.0016 0.000839767 0)
(1.1925 0.0696175 5.30768e-20)
(1.08971 0.107743 3.35717e-20)
(1.032 0.0204448 7.20309e-21)
(1.1228 -0.0179227 -7.35499e-20)
(1.03807 0.0575359 8.80281e-21)
(0.113561 0.0592247 -2.32178e-20)
(1.01465 0.196015 3.07803e-21)
(1.17045 0.129423 -3.03147e-20)
(1.03057 0.014412 -1.12376e-20)
(0.995562 0.0271343 1.47442e-20)
(-0.185386 -0.00853271 3.39174e-20)
(0.107957 -0.0129063 -2.55026e-20)
(1.00106 0.0145187 -2.0073e-21)
(1.00719 0.000877495 -2.10373e-22)
(0.980211 0.030985 0)
(1.01588 0.0255002 -6.83608e-22)
(-0.0776585 -0.0208181 9.50365e-20)
(1.02962 0.0142939 4.0612e-21)
(0.107442 -0.0365266 8.01278e-21)
(1.04813 -0.00446873 -1.62701e-20)
(1.20873 0.323959 4.74917e-20)
(1.10256 0.0041829 -5.78368e-20)
(0.111224 0.283077 2.50871e-19)
(0.943561 0.0435601 1.90046e-20)
(1.30386 0.00893887 -1.90161e-21)
(0.510435 0.303039 0)
(1.00287 0.107561 0)
(1.13911 -0.0511386 -4.64843e-20)
(0.955193 0.521936 0)
(0.995783 0.0438977 0)
(0.178034 -0.0300041 0)
(0.571517 0.0432221 0)
(0.00479549 -0.0132204 -2.74472e-21)
(0.92165 0.0193432 -3.31929e-20)
(0.221021 -0.00809878 0)
(1.07006 0.0895088 1.96744e-20)
(-0.0719441 -0.00232034 -6.41106e-20)
(0.528539 0.281942 0)
(0.921392 0.3529 1.46339e-20)
(0.937549 0.347737 -7.51387e-21)
(0.525582 -0.0704181 2.77637e-20)
(0.999731 0.00268168 3.96469e-21)
(1.05185 0.176552 -1.39483e-20)
(-0.131885 -0.0116007 -5.5831e-20)
(0.982567 0.0297275 0)
(1.00197 0.0721141 -5.99604e-21)
(0.0225057 -0.0103828 3.18509e-20)
(0.861441 0.47847 0)
(1.01755 0.0531882 -2.30293e-22)
(1.1179 -0.0769639 0)
(0.702751 0.543951 0)
(1.00934 0.0050846 0)
(0.156409 -0.00828894 5.08377e-21)
(1.1176 -0.0769472 4.82068e-20)
(1.00205 0.0050101 -2.54913e-21)
(1.00953 0.013091 0)
(0.998575 0.000169278 2.78483e-22)
(1.02387 0.0109373 4.84493e-21)
(1.24033 0.0166627 -2.60869e-20)
(0.766533 -0.0800354 2.39688e-20)
(0.385759 -0.277571 0)
(-0.151958 -0.00986722 -2.89474e-20)
(0.997943 0.0146031 4.64454e-23)
(1.20417 0.142584 -8.21189e-20)
(-0.195198 0.0203209 -1.44001e-21)
(1.11358 -0.00672662 -6.60355e-21)
(0.474434 -0.0611188 0)
(0.0431147 -0.0300672 3.06416e-20)
(0.405592 -0.059874 -1.02845e-19)
(1.01355 0.00557416 -1.66237e-21)
(1.08973 -0.0641011 -1.52354e-20)
(1.01074 0.0126446 0)
(0.817591 0.0831086 4.86713e-20)
(1.03681 0.0252137 7.14581e-21)
(0.0855203 0.330896 -1.31242e-19)
(1.17964 0.0135072 1.91319e-20)
(1.06611 -0.00770994 1.91844e-20)
(0.99958 0.00319601 -2.27367e-21)
(1.13811 -0.00376004 -8.97329e-20)
(1.18745 0.12817 0)
(1.15831 0.00697038 0)
(0.327521 1.09606 8.647e-22)
(-0.11467 -0.00316324 -6.92581e-20)
(-0.282513 -0.004267 1.79645e-19)
(0.984027 0.213592 0)
(1.1335 0.148855 -9.09339e-20)
(1.00585 0.00868589 0)
(-0.111908 0.0176582 0)
(0.478155 -0.056502 2.60126e-20)
(0.999477 0.0336648 -4.43266e-21)
(1.28765 0.0135566 5.03363e-20)
(0.995679 0.0107879 0)
(1.21386 -0.019984 7.54274e-20)
(1.04818 -0.00388919 1.16867e-20)
(0.999798 0.00228621 0)
(1.03342 0.0606139 0)
(0.556909 -0.0408324 1.52709e-20)
(1.03164 0.0608842 0)
(0.368582 -0.0167333 1.32164e-20)
(-0.0597431 0.0377413 -2.59114e-20)
(1.10732 -0.0588154 -5.438e-20)
(0.442316 0.283319 0)
(0.997531 0.0435505 3.23093e-21)
(0.495793 0.366944 -1.73436e-19)
(0.468496 0.307995 1.1099e-19)
(1.00212 0.010064 2.31257e-21)
(0.826149 0.479208 2.4701e-20)
(0.983976 0.0294796 1.52435e-22)
(0.994443 0.0127305 1.23734e-21)
(1.19345 0.0974122 0)
(1.00007 0.000355172 0)
(0.993774 0.0145143 3.42287e-21)
(1.01098 0.0124381 0)
(1.23952 0.0203489 2.38264e-20)
(0.999952 0.00173728 -4.07542e-22)
(0.23043 -0.00990017 0)
(0.648679 -0.0500289 0)
(-0.128882 0.0158904 0)
(1.24565 0.18292 2.71788e-20)
(0.355106 -0.0240993 6.77416e-21)
(-0.239644 -0.00837335 0)
(1.11147 -0.00710851 1.18465e-20)
(0.9983 0.0139632 0)
(1.21073 0.0121216 -1.42408e-20)
(1.06345 -0.0143092 4.5848e-21)
(1.0686 0.0968673 1.94203e-20)
(0.999729 0.00818373 -6.81526e-21)
(0.696657 -0.0786705 -2.30733e-20)
(0.537764 -0.0639603 1.12502e-20)
(0.700673 -0.0525237 5.45575e-23)
(0.983874 0.0877415 -5.20752e-22)
(1.18068 0.00115565 -2.13849e-20)
(0.925025 0.0164352 5.04648e-20)
(1.06514 -0.0159599 -1.10261e-20)
(1.15614 0.00538574 0)
(1.01929 0.062162 -1.70604e-21)
(1.09078 -0.0626915 0)
(1.01804 0.0464534 0)
(1.00158 0.000988695 -1.42328e-21)
(-0.0467039 -0.0245859 0)
(0.254369 -0.031642 0)
(0.274113 -0.0345981 -4.13986e-21)
(1.17904 0.21143 -5.57834e-20)
(-0.137536 0.0117368 0)
(0.205067 -0.0350717 0)
(-0.0886509 -0.0201845 0)
(-0.0642681 -0.0135479 0)
(1.01727 0.0019279 3.23554e-21)
(1.14014 0.0043803 -7.4042e-22)
(1.02134 0.0620074 1.9597e-21)
(0.9924 0.0313674 0)
(1.24936 -0.0303324 -1.15399e-19)
(1.14062 0.0153826 -4.85742e-20)
(1.0188 -0.000123841 0)
(1.15878 0.0495193 0)
(1.11227 -0.00172439 -2.54827e-20)
(-0.0544082 -0.0108822 -4.17006e-20)
(1.00229 0.0104581 2.68128e-21)
(1.14746 -0.0395631 -6.95501e-20)
(-0.00874234 0.0115666 4.75624e-20)
(1.22856 0.338448 3.07045e-20)
(0.233794 -0.013707 -1.92525e-20)
(0.999951 0.00152172 -3.57012e-21)
(0.998332 0.0341167 6.13579e-22)
(1.01129 0.000409771 -5.95679e-22)
(1.05344 0.137816 7.02117e-22)
(1.01348 0.00516613 4.09938e-21)
(0.630504 -0.060304 -1.05125e-20)
(0.397261 -0.238095 -5.89007e-20)
(1.00031 0.140037 4.03917e-21)
(-0.0715344 0.0259846 0)
(1.0855 0.0370219 2.14116e-20)
(1.12765 -0.0508028 0)
(-0.0497462 -0.0222604 -5.60277e-20)
(0.825105 0.57781 3.72413e-22)
(1.1064 -0.0581282 4.53231e-20)
(1.11222 -0.0756818 4.57947e-20)
(1.14655 -0.04127 5.90711e-20)
(1.15672 0.0665835 5.99002e-20)
(1.20046 -0.0053209 0)
(1.09573 -0.0256814 2.08903e-20)
(1.09989 -0.0604031 -2.78733e-20)
(0.375162 0.109945 0)
(1.09156 -0.033541 -2.40434e-20)
(1.14395 -0.0232902 1.80149e-20)
(1.01484 0.000688759 3.19862e-21)
(1.26966 -0.00956932 0)
(1.08949 0.0183709 2.16596e-20)
(1.03049 0.00366812 -7.78802e-23)
(1.04905 0.134226 0)
(1.05694 0.0259196 -7.07567e-21)
(-0.0518675 -0.0141505 0)
(0.450148 -0.0661229 0)
(1.01516 0.0244967 2.02327e-22)
(1.01792 0.000942426 1.04289e-21)
(0.658906 -0.0675667 -1.12913e-20)
(-0.261233 -0.00546419 0)
(1.00006 0.000269414 -1.47617e-21)
(0.211702 -0.00938079 1.94573e-20)
(1.05785 0.00529862 -1.79895e-20)
(1.23449 0.163307 2.07248e-20)
(1.01453 0.0264121 -1.9147e-22)
(-0.157174 -0.0110141 -3.55275e-20)
(1.18807 -0.0774173 0)
(1.05842 0.0969729 1.50297e-20)
(1.03735 0.0381112 -8.80247e-21)
(0.379798 -0.0279523 -1.75826e-20)
(1.24818 0.136012 9.01132e-20)
(-0.254639 0.00935647 0)
(1.00005 0.000320908 0)
(-0.162155 -0.00973372 -5.77343e-20)
(0.135891 0.0587377 1.22262e-19)
(0.955401 0.0322827 2.58924e-21)
(1.03063 0.00418058 -1.3808e-20)
(-0.12527 0.0139199 -1.95208e-20)
(0.302108 -0.0390578 0)
(1.11098 -0.0106171 4.80532e-20)
(1.01009 0.0131414 8.33791e-23)
(1.00903 0.0474657 0)
(1.08538 -0.049207 -2.24904e-20)
(1.21993 -0.0232814 6.14589e-20)
(1.01931 -0.000125613 -1.34109e-21)
(1.00906 0.0123883 -2.63349e-22)
(1.00505 0.00244672 -3.94368e-22)
(1.00537 0.00256075 0)
(-0.176622 -0.0111876 6.73504e-20)
(1.24832 -0.025823 -9.86379e-20)
(1.11054 -0.00929287 -4.80091e-20)
(1.25772 0.12462 -1.4761e-21)
(1.00637 0.000651591 -3.86966e-22)
(1.01087 0.00553396 -2.34259e-21)
(1.17721 -0.000488667 1.04839e-20)
(0.163041 -0.0386511 8.9926e-21)
(1.10698 0.0531147 0)
(1.03356 0.021674 0)
(0.994788 0.013204 0)
(0.992349 -0.000266397 -1.64719e-20)
(0.895006 0.0229326 7.9099e-20)
(0.0015183 0.0193939 1.49705e-19)
(1.00053 0.00388733 0)
(0.992552 0.00274594 -1.02881e-20)
(1.08798 -0.0631925 -7.99375e-21)
(1.09626 -0.0242399 -2.08462e-20)
(1.10164 0.00285149 -1.04271e-20)
(0.997326 0.0325963 -9.39625e-21)
(1.02889 0.0637342 2.89467e-21)
(1.04402 0.0953577 2.21573e-21)
(1.14151 -0.0240055 9.91935e-22)
(0.950812 0.495552 0)
(1.26217 0.132713 1.01256e-19)
(1.21165 0.00808802 6.60843e-20)
(1.16417 -0.0150219 0)
(1.24218 -0.0423266 1.32796e-20)
(1.17014 0.12259 -4.05477e-20)
(1.00182 0.0172685 4.62159e-21)
(-0.149828 -0.00999605 5.19422e-20)
(0.992692 -0.000783204 1.0263e-20)
(1.00258 0.075022 6.98942e-21)
(1.06792 -0.000260211 7.70626e-22)
(1.27119 -0.0110197 -3.02978e-20)
(0.992717 0.290221 0)
(1.01009 0.00122041 0)
(1.23093 0.327391 0)
(1.20366 0.0860134 0)
(-0.0932612 -0.00416579 -5.4357e-20)
(1.16569 -0.0128609 4.34201e-20)
(0.887321 0.135729 -1.07429e-22)
(1.11467 -0.00253657 -2.45194e-20)
(0.999445 0.0034702 4.90679e-21)
(0.472845 -0.0404758 0)
(1.22004 0.317369 -5.46278e-20)
(0.363094 -0.0580496 0)
(1.01738 0.0442646 0)
(1.09687 0.0426228 4.16337e-20)
(1.26077 0.120343 0)
(0.0509191 -0.0322648 -6.64379e-20)
(-0.195858 0.00297298 -1.46126e-19)
(1.14598 -0.0048964 8.5341e-22)
(1.18769 0.213129 -8.29563e-21)
(0.991229 0.0881903 -1.67842e-21)
(1.05673 0.0570278 1.44804e-21)
(0.996219 0.0330975 -5.90313e-21)
(0.889282 0.231877 0)
(0.670747 0.183124 0)
(0.973425 -0.00357236 0)
(1.13057 -0.0051854 0)
(0.569026 0.150251 -1.55699e-19)
(0.376798 -0.0599189 -9.18393e-21)
(-0.247829 0.0109837 0)
(1.0319 0.0738467 -1.58778e-21)
(1.12583 -0.0500645 -2.0187e-21)
(1.19576 -0.0766872 0)
(1.00434 0.118005 -1.50936e-21)
(0.967947 0.0240686 -1.59413e-20)
(0.17494 0.543455 0)
(0.643689 -0.0597385 5.79388e-20)
(0.613552 -0.0772483 2.48317e-20)
(1.25327 0.108623 -1.12117e-19)
(1.01797 0.00202613 0)
(0.161695 -0.01069 -5.91522e-21)
(1.08611 -0.0484215 2.18958e-20)
(1.01003 0.000903631 0)
(1.09425 0.0748422 -8.55418e-21)
(1.12626 -0.0335785 0)
(0.846555 0.0705409 3.20139e-20)
(1.19181 0.0880984 2.14116e-20)
(0.518489 -0.0495377 0)
(1.19692 -0.00606503 2.02904e-20)
(1.09205 -0.0223368 2.24302e-20)
(0.473786 -0.0401551 0)
(1.05908 0.0320646 5.16615e-21)
(-0.084721 -0.0111157 -5.63547e-21)
(0.999996 0.00225418 0)
(1.00052 0.00418096 -1.67876e-22)
(1.03146 -0.0907315 -2.73579e-20)
(0.613807 -0.0609634 -3.21851e-20)
(0.376641 0.241525 -1.31818e-19)
(1.05964 0.03065 -5.50332e-21)
(1.014 0.0543792 -7.50183e-22)
(0.992984 0.00319337 1.44524e-20)
(1.08119 -0.0355191 9.63624e-21)
(0.0782391 0.176076 1.44616e-19)
(1.09188 -0.0546592 -2.22283e-20)
(1.05903 0.0574638 1.62728e-21)
(1.10673 -0.0565914 -2.4519e-20)
(1.13565 -0.00529643 4.17141e-20)
(1.01439 0.0271473 1.93638e-22)
(1.17025 0.485779 3.52669e-20)
(1.0911 -0.0542642 1.63693e-20)
(1.09233 -0.0592146 3.06073e-20)
(1.00467 0.0198448 0)
(1.19238 -0.0108769 -1.58434e-20)
(1.05606 0.0274697 -1.00268e-21)
(-0.0162939 0.0484853 -8.70687e-20)
(1.14563 0.148559 -3.87699e-20)
(1.00343 0.283225 0)
(1.09802 0.0445358 -3.87611e-20)
(1.00786 0.00288462 -6.89588e-22)
(1.02835 0.00641521 3.15573e-21)
(1.03579 0.0290612 6.42519e-21)
(0.96803 0.353327 9.55844e-22)
(0.890132 0.0195375 0)
(1.25243 0.0501065 -6.9184e-20)
(0.471402 0.809575 1.10367e-20)
(1.12984 -0.0129738 -3.99359e-20)
(1.00887 0.0050382 0)
(1.20093 0.00162228 0)
(0.373716 0.272079 0)
(1.12413 -0.0793905 -3.99484e-20)
(1.04084 0.00412375 0)
(0.899689 0.0325492 1.04955e-20)
(1.00852 0.0122973 -1.00429e-22)
(1.07748 -0.0164554 0)
(1.07427 0.0452897 0)
(0.280128 -0.0393792 -2.23458e-20)
(0.999869 0.00235545 0)
(1.23916 0.503844 -4.64087e-20)
(1.07876 -0.0135873 0)
(1.11159 -0.0621149 8.65242e-21)
(1.17308 0.144086 -1.81963e-20)
(-0.112859 -0.0157594 8.43474e-20)
(1.02618 0.281178 1.03996e-20)
(1.00864 0.0457932 -9.23063e-22)
(-0.0193444 -0.0218884 -3.96811e-20)
(-0.267709 -0.00286709 7.20506e-20)
(1.00632 0.0351717 0)
(1.06685 -0.00104774 2.81067e-21)
(1.19445 -0.0712503 1.11928e-19)
(1.24494 0.11067 0)
(1.16302 -0.027263 -1.97549e-20)
(1.00016 0.000389775 -1.79175e-21)
(1.03864 0.0380724 0)
(1.19637 0.315144 0)
(1.06669 -0.0086397 -2.57715e-20)
(1.15813 0.0106544 0)
(1.10709 -0.0373718 0)
(1.02903 0.00627922 4.52363e-21)
(1.11371 -0.0250702 0)
(0.590201 -0.0737211 2.59488e-20)
(1.04035 0.00255844 6.72982e-21)
(1.05414 -0.00649274 0)
(1.0045 0.00259659 5.21268e-22)
(0.105896 -0.0108639 -1.22407e-20)
(0.999955 0.00105116 8.01342e-22)
(0.984181 0.083848 -4.95814e-22)
(-0.283326 -0.00201858 4.39749e-20)
(0.993347 0.0685877 6.12367e-21)
(0.674658 -0.060002 3.02883e-20)
(1.07616 0.0670796 -2.32404e-21)
(0.831347 0.0747297 -6.15914e-20)
(1.00484 0.00272073 6.24876e-22)
(1.02276 0.215641 1.069e-20)
(1.00067 0.0125461 -5.64452e-21)
(1.1546 0.0746669 -1.19483e-20)
(1.00752 0.00172739 0)
(1.08427 0.261586 -2.45016e-20)
(1.05755 0.00606825 0)
(0.24393 0.142768 -8.40384e-20)
(0.434217 0.684754 4.30886e-20)
(0.160357 -0.0392509 -1.12531e-20)
(1.01083 0.000394966 -4.44013e-22)
(0.999664 0.00287607 -3.77827e-21)
(1.16458 0.119451 3.72593e-20)
(1.12591 0.114621 -7.31052e-23)
(0.0601205 -0.0150224 -3.2906e-20)
(0.272639 -0.0513005 4.27037e-20)
(1.14293 0.0242519 4.3533e-20)
(0.99272 0.0115446 0)
(1.23863 0.0182138 2.25029e-20)
(0.343717 0.216601 2.77428e-19)
(1.08937 -0.0593649 -2.6265e-20)
(1.24957 0.0532911 8.53907e-20)
(1.13385 0.00993484 4.04659e-20)
(0.558594 -0.0475311 2.11643e-20)
(1.08665 0.131416 -1.13854e-20)
(1.07948 -0.034108 1.50588e-20)
(1.20729 0.0252124 3.61162e-20)
(0.85644 0.422956 1.1969e-20)
(1.14125 0.0262286 -3.08687e-20)
(0.305043 0.292744 -1.79342e-19)
(1.1416 0.0325361 1.89215e-20)
(1.05992 -0.00505759 -9.29147e-21)
(1.12761 -0.0350832 -2.69577e-20)
(1.00703 0.109098 -1.40863e-21)
(1.03402 0.00513599 1.99108e-20)
(1.0774 -0.0154947 5.31171e-21)
(1.11298 0.122301 3.29111e-20)
(1.05128 0.0976734 1.26601e-21)
(0.999528 0.0124429 0)
(1.00681 0.000516736 0)
(1.13287 -0.00962342 3.94831e-20)
(1.0637 0.0115506 -1.74964e-20)
(1.16118 0.0121579 4.12031e-21)
(0.993419 0.0112084 0)
(0.995265 0.00869049 0)
(0.999963 0.00083788 5.51235e-23)
(1.02471 0.0638577 1.38226e-22)
(1.02359 0.00123375 -6.34886e-21)
(1.04956 0.0833692 1.05985e-20)
(1.00399 0.00274675 -1.80887e-22)
(-0.164446 -0.0102432 0)
(1.0907 -0.0432827 0)
(0.470303 -0.28398 -1.24542e-20)
(1.01229 0.00524617 5.15562e-22)
(1.00007 0.00171054 4.59883e-21)
(0.802401 0.14496 -4.27386e-20)
(1.1601 0.064476 -7.03975e-20)
(0.953401 0.00325556 0)
(0.797821 0.00580072 7.79021e-20)
(1.13514 0.198437 6.50829e-20)
(0.994276 0.110599 -9.0534e-20)
(1.07876 -0.0145817 -6.8855e-21)
(1.18732 -0.000770111 2.60266e-20)
(1.05206 0.0159112 7.76418e-21)
(0.999904 0.00110042 5.20758e-21)
(1.00563 0.00228606 0)
(1.03631 0.0585633 -1.34552e-20)
(-0.310749 -0.000144732 -1.07927e-19)
(1.00005 0.00145314 -6.495e-21)
(1.1755 -0.0510204 2.7449e-20)
(1.05093 0.085792 0)
(-0.19337 0.0231779 -6.96222e-20)
(0.967382 0.225042 -8.53483e-21)
(1.14238 0.19645 -3.69666e-20)
(1.11031 -0.0613549 4.11218e-21)
(1.02107 0.00649698 0)
(1 4.56669e-05 0)
(1.09186 -0.0435828 0)
(0.988153 0.00341044 0)
(0.98547 0.0431162 5.30768e-21)
(0.935979 0.00525968 0)
(1.01372 0.0582317 4.67797e-22)
(0.998617 0.00084552 2.36522e-21)
(1.08655 0.055313 -2.92358e-20)
(1.00631 0.00781614 -3.16168e-22)
(1.01683 0.000885475 -2.29264e-21)
(1.05782 0.0927688 -7.76592e-21)
(0.884861 -0.0237132 0)
(0.0398683 -0.0107336 -1.91973e-20)
(1.08202 0.111453 1.94181e-21)
(1.04034 0.00204331 7.92405e-21)
(1.00923 0.000948453 0)
(0.0821462 -0.0373515 3.15558e-20)
(0.953537 0.360953 0)
(1.0022 0.0423023 -3.91424e-21)
(1.01841 0.0436171 -3.14291e-22)
(0.888838 0.00915314 -1.20184e-19)
(1.19772 -0.0732948 4.66806e-20)
(-0.293985 -0.00447704 1.11383e-19)
(0.895117 0.136205 0)
(1.06081 -0.00428422 4.65741e-21)
(1.01192 0.00315806 -1.24496e-21)
(1.01705 0.00104724 4.67994e-21)
(1.09297 -0.0336531 -3.48217e-22)
(1.0867 0.112511 -1.12301e-21)
(1.1227 -0.074703 -2.57548e-20)
(0.917688 0.0193178 0)
(0.154181 -0.0254427 -2.58086e-20)
(1.02884 0.043198 7.3193e-21)
(0.965141 0.0592933 1.30995e-20)
(-0.302524 -0.00129278 -1.239e-19)
(0.995489 0.010214 0)
(1.09052 0.0167364 -2.50228e-20)
(1.00518 0.0316376 3.98842e-21)
(1.00203 0.00127135 1.53748e-21)
(1.10567 0.127732 3.54165e-21)
(0.773651 -0.00782051 -4.52566e-20)
(1.04963 0.0281107 0)
(0.638997 -0.0606855 0)
(0.306886 -0.0113562 -1.85526e-20)
(1.17746 0.139267 1.62444e-20)
(1.00213 0.0178802 8.02406e-21)
(1.02547 0.00281344 -2.5948e-23)
(1.09587 -0.0547909 -4.38987e-20)
(1.19837 -0.0474062 -4.06844e-20)
(1.00007 0.000440652 2.09877e-21)
(1.2372 -0.0468146 6.23581e-20)
(1.02496 0.00296869 0)
(1.10948 0.117188 -2.90259e-20)
(1.03494 -0.00128073 0)
(1.03517 0.00685471 -1.77419e-20)
(1.23069 -0.0225998 4.48634e-20)
(1.04047 0.0163573 -1.54391e-20)
(0.991645 -0.0574771 0)
(1.11503 0.0899637 -3.52076e-21)
(0.999957 0.000777258 6.76446e-21)
(1.02043 0.00353839 0)
(0.981265 0.0012747 1.04476e-20)
(1.00971 0.0203714 0)
(1.05367 -0.00551535 -5.49381e-21)
(0.27237 0.687398 -6.41188e-20)
(1.03909 0.004413 1.57753e-20)
(1.03128 0.0107841 -7.39437e-21)
(0.348959 -0.0654447 0)
(0.579564 -0.071686 4.79947e-22)
(1.09335 -0.0236477 9.79381e-21)
(1.12054 0.115859 0)
(1.15102 0.00169246 -6.18862e-20)
(1.07764 0.0248354 3.62822e-20)
(1.02472 0.0145894 0)
(0.887796 0.0122239 -1.84334e-20)
(-0.133574 -0.0136218 8.33526e-20)
(1.09401 0.262929 0)
(0.998286 0.00529869 5.6908e-21)
(1.03602 0.037248 9.87514e-21)
(0.303776 -0.0541909 0)
(1.11475 0.0202783 3.09831e-20)
(-0.104833 -0.0113235 3.23585e-20)
(0.999962 0.00101002 -7.53286e-21)
(0.951 0.00406524 1.55712e-20)
(0.0884891 -0.00960709 2.01909e-20)
(1.10715 0.0143705 4.20253e-20)
(1.05176 0.02671 0)
(-0.305323 0.00119731 2.19711e-19)
(0.212901 0.239185 1.35644e-19)
(1.00998 0.0198337 0)
(1.20293 0.0263837 0)
(1.00595 0.00240063 0)
(1.03931 0.0163247 1.58868e-20)
(1.01266 0.00552231 0)
(-0.126837 -0.0158406 2.94436e-20)
(1.02319 0.00108531 6.98237e-23)
(1.03968 -0.00329486 7.4251e-21)
(1.02527 0.0141591 0)
(0.941232 -0.0574254 0)
(1.06316 -0.0121519 1.32968e-20)
(1.23865 0.156759 -2.03371e-20)
(0.701322 -0.0936945 6.75919e-20)
(1.03574 0.00503441 -2.51057e-21)
(0.844743 0.0274193 -1.206e-20)
(1.00055 0.0036887 1.9028e-21)
(-0.141675 -0.00972146 3.455e-20)
(1.00548 0.0104173 -1.31657e-21)
(1.03977 0.00387958 -1.27823e-20)
(0.998677 0.00134486 0)
(1.09653 -0.0553126 6.05271e-20)
(0.998502 0.00120677 3.52526e-22)
(1.1959 -0.0102582 2.48517e-20)
(0.311146 -0.00700587 9.1866e-21)
(0.705314 -0.077698 1.28631e-20)
(0.904577 0.0330392 -3.84596e-20)
(1.11756 -0.0766077 1.14348e-20)
(-0.257806 -0.00339164 -6.56125e-20)
(0.996724 0.0273365 0)
(0.142759 -0.00776921 1.40015e-20)
(0.410711 0.0401091 -1.49659e-19)
(-0.23622 -0.00359081 -4.39432e-20)
(0.343189 -0.0237392 1.29767e-22)
(0.329908 -0.0644736 1.57309e-20)
(0.110879 0.167055 -1.02986e-19)
(1.19733 0.00285311 0)
(1.0107 0.048445 1.03506e-21)
(0.50363 -0.0477568 0)
(1.10655 0.016386 -2.94643e-20)
(0.446834 -0.053822 -1.36819e-20)
(1.02993 0.00456202 4.96788e-21)
(1.02409 0.0232298 0)
(1.00365 0.0432738 7.61327e-21)
(1.00059 0.00397594 0)
(1.08257 0.020303 2.28962e-20)
(0.891314 0.0918922 -6.8693e-21)
(0.108364 -0.0174905 3.11777e-20)
(1.02392 0.022258 0)
(0.993836 0.00398131 -9.9195e-21)
(-0.224055 0.0161744 -1.35971e-19)
(0.972824 0.452819 1.08609e-22)
(0.981432 -6.87095e-06 0)
(0.811822 -0.0531047 3.97332e-20)
(1.09402 0.057313 0)
(1.04547 0.0220211 4.89365e-21)
(0.496713 0.721648 0)
(0.805624 -0.0478896 0)
(0.951964 0.0513722 1.7651e-20)
(1.06355 -0.011448 -1.35524e-20)
(0.285155 -0.00785633 1.94319e-20)
(-0.287481 -0.000724933 1.26606e-19)
(0.222645 0.0613599 -2.20029e-19)
(1.03447 -0.00083245 0)
(1.24501 0.143253 4.56705e-20)
(1.20029 0.0821085 -1.40557e-20)
(-0.219625 0.00271533 -7.01672e-20)
(0.389006 -0.0586482 -3.92571e-20)
(1.09012 -0.0502501 0)
(1.01561 0.0264699 -1.02593e-23)
(1.05308 0.0166471 -7.88147e-21)
(1.02743 0.0435334 -6.78869e-21)
(1.01981 3.26345e-05 4.58337e-21)
(1.02736 0.0649701 -3.16622e-21)
(1.01723 0.00168356 2.34971e-21)
(1.04642 0.0938043 3.10672e-21)
(1.08248 0.131207 2.53773e-20)
(-0.0518748 0.0256484 0)
(1.15142 -0.0442542 0)
(1.04013 -0.00276988 -1.19693e-20)
(1.18383 -0.00187628 -2.40531e-20)
(-0.0726019 -0.0213821 5.54179e-20)
(1.10234 0.122535 4.74299e-20)
(0.972411 0.0240079 1.27106e-20)
(-0.0938594 -0.0093556 6.47424e-21)
(1.03077 0.0200676 -4.18678e-21)
(0.986337 0.0411047 1.02353e-20)
(0.81766 0.0639838 -2.45197e-21)
(-0.0135923 0.0327581 0)
(0.998423 -0.000188403 -1.03993e-20)
(1.00423 0.0201729 -1.96902e-21)
(0.475509 -0.0631181 -3.37202e-20)
(1.10744 -0.0745779 0)
(1.19202 -0.0771669 -1.28297e-19)
(1.16525 -0.0203469 -4.32187e-20)
(1.11736 -0.0756544 -2.42316e-20)
(1.00786 0.0191513 0)
(1.20829 0.00206345 -7.97634e-20)
(0.971483 0.0258879 0)
(1.00359 0.0108822 2.15611e-21)
(0.969298 0.0218551 0)
(0.590974 -0.0595205 2.82619e-20)
(-0.272029 -0.00529032 -6.54949e-20)
(1.03248 0.009171 0)