/*--------------------------------*- C++ -*----------------------------------*\
| =========                 |                                                 |
| \\      /  F ield         | OpenFOAM: The Open Source CFD Toolbox           |
|  \\    /   O peration     | Version:  v2012                                 |
|   \\  /    A nd           | Website:  www.openfoam.com                      |
|    \\/     M anipulation  |                                                 |
\*---------------------------------------------------------------------------*/
FoamFile
{
    version     2.0;
    format      ascii;
    class       volScalarField;
    location    "300";
    object      ddt0(omega);
}
// * * * * * * * * * * * * * * * * * * * * * * * * * * * * * * * * * * * * * //

dimensions      [0 0 -2 0 0 0 0];


internalField   nonuniform List<scalar> 
37190
(
2.82197e-07
-0.0120775
1.19689e-07
0.00020856
-0.00040287
-6.08075e-07
3.12907e-05
-2.06199e-06
0.000109718
0.000446764
7.55284e-07
1.65681e-07
1.94236e-06
-8.07721e-09
0.0225264
-1.97024e-06
-4.12066e-06
-9.48e-05
0.0385107
0.0848628
1.49918e-06
2.69661e-07
-0.0222218
-3.62661e-06
-3.25046e-06
-2.01119e-06
2.05095e-05
7.08241e-05
0.00221242
0.0126416
0.00352319
-1.21585e-08
5.56624e-05
0.000549025
0.000449538
0.000106955
3.53124e-08
-3.54503e-06
-1.05649e-06
-6.82538e-08
0.000446053
0.0105174
-4.179e-06
0.000247266
-8.12525e-08
-0.000497343
0.0208083
0.00523943
8.16759e-08
0.00245898
-1.0262e-06
-9.59646e-07
-2.72232e-05
6.54283e-06
-4.55223e-08
9.86144e-08
0.000427542
4.78945e-08
-0.00981448
1.9869e-07
-0.0107431
0.000105263
-2.14876e-07
-0.0229907
-3.48744e-06
-3.70664e-06
-2.93295e-07
-0.000373119
0.000199346
-2.01675e-07
-3.32397e-08
9.34867e-08
3.20497e-06
-7.78345e-07
-1.02672e-07
-1.41096e-06
0.0181686
1.86707e-05
0.0102697
4.73793e-06
4.03231e-09
5.07559e-06
-7.23077e-07
-0.00322176
-0.065991
-4.23036e-06
0.00923851
0.00969762
0.0251091
-1.01387e-08
0.0203982
9.21416e-05
-4.13043e-06
-8.67531e-07
9.44277e-07
-3.97512e-06
0.0107171
2.48556e-07
0.000307228
0.0100744
-3.31109e-06
-0.00318216
-0.0057845
0.0195738
-2.84329e-07
-2.50623e-06
0.0257543
-8.29744e-08
-2.9237e-07
0.0386856
0.0146672
0.0352443
-1.28188e-06
1.25077e-07
9.53501e-07
-1.98284e-08
1.10029e-05
-9.65371e-07
-1.23738e-08
2.72068e-06
6.16807e-07
-0.0134345
-6.61378e-08
8.83358e-08
1.0044e-07
-0.0053855
1.52688e-07
9.77684e-08
-0.00885551
-8.21595e-05
1.32328e-07
-0.00464699
-7.74531e-07
-4.04712e-06
-0.00238797
3.38605e-08
-2.34849e-06
-0.000427224
-0.000550898
-3.04406e-06
1.40816e-06
8.04199e-05
-0.000114982
-3.3023e-06
9.55857e-07
-1.22483e-06
-0.00733942
1.61514e-06
-0.000537141
3.52568e-07
5.72631e-07
3.44692e-06
0.000642395
-6.58751e-08
-0.0108755
7.68936e-08
0.00989907
7.2659e-07
0.0277381
4.7404e-05
-0.000142686
3.74468e-07
-0.0036813
-0.00406992
1.04193e-05
2.38536e-06
-0.00425924
0.000126382
-0.016039
0.000479551
-1.42358e-08
-0.00184407
3.10421e-07
5.78002e-06
-0.0143094
0.000429867
-1.71089e-06
-4.2149e-06
0.000136291
-4.6598e-06
0.000251862
-2.87976e-07
-3.02627e-07
4.04392e-07
0.0363433
-1.17341e-08
-2.57073e-05
1.29597e-05
-0.0255508
-4.54854e-05
-7.94578e-08
-0.000107487
2.30902e-07
-1.41673e-06
0.0103184
-5.72486e-07
-6.62009e-07
-9.07965e-06
-0.00245605
0.0406244
-0.00112229
3.80093e-07
5.28366e-07
4.67861e-09
-0.00605794
1.96488e-05
2.75398e-05
-1.47541e-06
6.36562e-07
0.0082359
5.18093e-07
-0.0173996
3.82944e-07
2.7797e-05
-0.00644839
-0.0321082
-0.000490078
-0.000436499
0.000551984
-1.28191e-07
-0.0104342
1.67706e-07
2.48833e-07
-0.00119886
0.0378038
1.01196e-07
0.0113678
8.95082e-07
3.60639e-05
-0.00936306
-3.32631e-06
7.78819e-07
1.85866e-07
0.0103888
2.40228e-05
0.000252508
0.00044976
-0.00926653
-1.76662e-07
1.04594e-06
-0.000106774
-9.21799e-09
-0.00746722
-1.17528e-06
-1.69056e-06
0.176951
2.21392e-07
-0.000155754
6.12485e-05
-3.43671e-06
8.28848e-08
9.75734e-05
7.78314e-07
8.49835e-07
7.13964e-06
-1.37353e-07
-8.47263e-05
-4.6265e-08
-0.000435686
1.82927e-07
0.00233896
3.81445e-06
3.45001e-07
-0.000290392
9.29909e-08
-2.78472e-07
-5.78409e-08
-3.83593e-06
0.0375484
9.15368e-08
-0.00929297
0.0338911
0.000547321
6.3229e-06
-0.000277114
-3.93902e-08
-3.13404e-07
0.00752277
1.66381e-06
1.32555e-06
-0.00556822
7.5929e-08
-0.00050162
0.000449242
6.84268e-09
3.13474e-06
-1.06349e-07
1.54449e-07
3.05124e-05
-1.4285e-07
-6.15886e-07
0.000449905
0.00069922
6.40751e-06
-0.000668003
1.79224e-07
-1.26532e-07
0.0375543
4.60378e-05
1.0485e-07
0.0103847
0.0884624
-2.78467e-06
0.000629139
3.64393e-07
1.99747e-07
-2.77813e-07
-3.62121e-08
0.0214322
6.28793e-06
4.21321e-08
0.03064
8.16693e-05
-0.00503873
-0.0109959
0.04014
6.81116e-06
-0.095369
0.000259086
1.69587e-07
7.63092e-08
4.38995e-07
0.000557659
4.23609e-07
-0.0290014
0.000673913
-5.90771e-05
-0.000195365
8.75361e-08
-0.0262234
-3.86935e-05
4.3068e-05
-1.12624e-06
0.00508329
0.000670227
0.00953005
-0.214771
1.90381e-05
1.56915e-06
-0.025048
-3.76502e-06
0.000625855
9.84978e-07
9.82244e-08
0.027566
-0.000747636
0.000494023
3.88276e-08
6.19516e-07
3.18195e-07
-1.6216e-07
-0.0178937
-1.01961e-06
-1.05498e-07
6.69767e-06
0.295482
-2.31328e-07
0.0294912
-0.000101962
-2.35938e-06
-6.47833e-05
0.0113703
-7.41125e-05
0.0286862
-3.00832e-06
-7.31319e-05
7.14008e-07
-1.31485e-07
0.000410712
1.08233e-05
-3.61955e-06
0.00075295
3.75284e-06
0.05332
2.00149e-06
-2.48361e-05
-1.06717e-05
3.91418e-05
-4.87589e-05
0.0122496
0.0246938
-0.000783646
0.0016742
-7.17484e-05
2.38608e-05
0.0254596
-9.96521e-06
3.07967e-05
0.000243529
7.72528e-07
-6.538e-07
0.0003953
5.46341e-06
1.00972e-06
-4.06711e-06
-2.48142e-07
-0.399523
-2.32731e-06
2.49142e-08
-0.000466216
-1.24218e-07
0.0136175
-1.05432e-06
5.26539e-07
-3.20178e-06
7.37163e-08
6.28491e-08
-0.000320813
1.50847e-06
-1.10299e-07
-1.64279e-06
-0.19381
0.0371311
2.2936e-08
-1.1427e-06
-2.0055e-08
5.16072e-05
5.7002e-08
1.56882e-07
1.40396e-07
0.0111741
-0.000737604
0.024579
8.44575e-07
1.41629e-07
-0.000447627
0.0359082
1.25533e-10
-4.99391e-07
-1.86934e-07
-0.00155685
-8.17711e-08
-2.5313e-07
-0.000808363
-2.48554e-07
-0.0106884
-1.19695e-07
-0.00080293
-2.48717e-06
6.25077e-07
-3.67478e-06
3.99213e-07
-0.0299456
-3.84902e-06
5.89584e-07
0.001586
-0.000943588
-9.32673e-08
-0.0278551
-2.19814e-06
3.81146e-05
0.000662262
-5.45753e-08
0.00286747
2.73301e-07
0.0376835
2.49931e-07
1.29985e-08
4.93259e-06
3.26505e-07
-0.018591
1.9983e-05
1.36306e-07
-0.0835432
-0.000365302
9.42095e-08
0.00056253
0.191348
1.35732e-07
4.31648e-07
4.51596e-05
0.0347607
0.0106667
-0.00027375
-0.0285286
-0.0310106
3.37412e-05
0.019558
-1.06444e-06
-6.02169e-07
2.84563e-07
1.55764e-06
-0.0014403
-0.170099
6.30047e-08
1.22141e-06
0.00152707
2.72048e-07
-0.00764691
-1.64895e-05
-9.32987e-07
6.5099e-07
5.85303e-07
0.000436198
3.44766e-05
6.99529e-06
5.27082e-07
-1.71974e-08
0.000106018
-0.00368942
-1.70072e-06
2.94035e-09
1.69705e-06
0.00378344
1.23236e-05
0.0102049
-0.159102
-0.143853
-0.0042217
-2.21842e-07
0.00263384
2.25829e-09
0.0274008
-2.49388e-07
0.0113889
-0.0440372
1.96626e-05
-4.57519e-08
-1.09329e-07
0.0386934
4.0368e-06
0.000279341
0.218086
0.0888863
-1.60928e-06
5.75982e-06
4.85178e-05
-3.79791e-06
-0.00276116
3.35382e-09
0.000322322
8.17022e-08
-0.0361318
7.87424e-07
-1.50652e-07
0.0206891
2.41095e-08
-2.92396e-07
-6.8117e-07
-3.11274e-06
2.37941e-09
1.96037e-08
3.52494e-06
4.1293e-06
-0.014707
-6.22905e-08
-4.45553e-06
6.69633e-05
5.01005e-06
-3.54613e-07
1.41617e-07
-4.07044e-06
-2.21578e-05
0.002177
0.00042941
4.61906e-07
-1.31737e-06
-0.00162864
0.0403133
8.86433e-08
2.27212e-07
-0.0181148
0.0133509
0.0360938
0.00226353
-2.09457e-06
2.21039e-05
8.14225e-08
-0.0142331
0.213329
-5.62906e-06
-3.22638e-06
-0.137997
-7.22637e-05
1.80043e-07
-0.000438995
-0.000230143
0.0279368
3.50533e-07
6.6927e-05
6.15782e-05
7.8297e-07
-1.11141e-06
7.27324e-07
0.0178294
-0.0036191
4.09644e-07
-0.0173196
0.000858188
3.90277e-08
2.67815e-06
2.64676e-07
0.00038535
9.73646e-06
-2.23512e-07
-0.00701553
0.0273525
1.26556e-05
0.269742
2.56233e-07
-3.61089e-06
-6.14355e-06
3.99408e-06
4.01575e-06
0.000101123
3.81917e-07
4.33525e-05
1.92651e-08
0.00142853
1.24944e-05
3.3762e-07
-0.0121872
1.14182e-07
0.0333143
-0.000762333
-2.77657e-08
-0.00936459
2.04251e-07
-1.81455e-06
-3.82583e-06
-1.96749e-08
-0.000132091
6.07873e-06
3.32337e-07
3.20821e-05
-3.29846e-07
3.56298e-05
-0.00346722
2.08394e-07
8.0891e-07
0.0369468
2.42517e-08
1.90414e-07
-0.000356303
4.87498e-06
-2.0338e-06
-0.000173555
-2.00642e-06
-8.25692e-07
-3.05358e-06
-0.0974001
-0.00594445
0.000640988
-0.00771173
-1.88399e-07
0.000663603
-8.50437e-07
4.58032e-06
-0.00561886
0.000678331
-0.000448584
2.48003e-07
0.000645823
-4.12966e-06
0.092488
0.000502362
5.25821e-06
-0.00531298
-2.41105e-06
-0.000721234
0.000823284
4.22504e-06
5.32536e-06
5.71292e-05
2.0991e-05
3.02104e-06
-1.65618e-07
0.000283727
3.77526e-07
0.000430657
-6.12697e-05
-3.14391e-07
-0.000113885
0.00620163
-2.30645e-07
-6.02844e-08
0.00167407
-3.32551e-07
-2.94772e-07
-1.80756e-05
0.00174001
-0.0143395
9.78752e-06
1.438e-07
-0.00868579
0.000334279
-0.0268163
-4.26537e-06
1.29392e-05
0.000104278
3.91226e-06
0.000166959
7.03135e-07
0.000540908
-1.1075e-06
-0.264913
-8.46181e-07
1.39941e-05
0.000434097
-2.46676e-08
-0.000924136
-1.02612e-08
-8.6661e-07
-0.254083
7.92993e-07
0.00179202
-1.86535e-07
0.000761609
-9.84085e-07
-2.06106e-07
-0.0264265
-1.34837e-08
0.020462
-2.39098e-07
5.52111e-07
-1.51975e-07
1.20525e-10
0.000685063
3.66002e-05
-0.000451612
0.00873959
0.000217324
-0.26506
0.000197926
6.7428e-07
1.90267e-06
-0.0141831
0.0266303
8.35988e-07
0.000986408
-0.00674919
-2.68395e-05
-3.76124e-05
1.3816e-06
0.0224371
-2.91058e-07
-0.000126588
-0.00941
-0.000227837
0.0059884
0.0292824
-4.57322e-06
6.04481e-06
2.78574e-07
0.0105262
-0.011685
2.36104e-07
-0.0173557
-0.0143762
4.81013e-06
-0.00101855
0.000118208
0.00552837
4.50137e-07
-3.15824e-05
-0.00086639
0.00020269
5.42499e-06
4.72683e-07
0.00589636
0.00048958
-0.00020988
-2.21168e-07
-0.000169926
1.58421e-07
-0.00109565
-2.44774e-06
1.868e-06
9.14458e-07
2.82231e-07
3.72589e-06
3.97282e-05
4.64452e-05
-4.54412e-06
0.000546517
2.53756e-06
-0.0189796
0.0562794
-1.18611e-07
4.37689e-06
2.63537e-07
-1.31463e-07
0.0110596
0.018738
8.76196e-05
8.04583e-07
-2.82405e-06
-4.56183e-07
2.51917e-06
0.00223575
-6.4756e-08
1.05843e-05
0.000113784
1.81935e-07
-3.87314e-08
2.14213e-08
1.94523e-06
5.3832e-06
2.63844e-07
-2.7405e-05
5.07087e-07
4.55067e-11
4.79269e-07
-0.0300927
0.00314606
4.15585e-07
-8.65483e-08
-2.74728e-07
-3.27579e-05
-2.92082e-05
-0.0427392
-2.13713e-06
-4.77817e-06
3.19767e-07
-5.4551e-05
-0.00284437
-3.12668e-06
-1.82632e-07
-3.63282e-10
-8.34018e-08
3.69307e-05
3.09595e-08
-6.54038e-07
-0.00208219
4.41159e-07
1.46587e-05
-0.00125795
4.12758e-06
2.43965e-06
1.22291e-05
0.244485
1.60738e-05
-0.0020042
1.69131e-05
0.046114
4.1276e-06
1.12259e-09
1.84598e-05
-0.000824908
3.4552e-05
1.17533e-07
-0.112287
-2.22024e-07
-1.48348e-08
3.37567e-05
0.584418
1.97557e-05
4.03299e-05
8.40966e-07
0.000117579
4.23113e-05
-0.0325919
-3.01467e-07
0.000287382
-1.09352e-05
0.171246
-5.12043e-06
-1.56758e-06
0.0441815
1.05704e-07
-0.000209593
0.0133963
-6.33498e-08
4.2829e-08
-0.0586929
4.90356e-07
2.48799e-07
0.00282059
-7.16704e-08
0.00503264
2.49386e-07
0.0411689
5.13116e-06
1.74052e-05
0.0200602
1.16073e-08
-1.53252e-07
-1.30285e-06
-7.8366e-07
3.45178e-07
-2.80855e-05
7.05256e-07
2.19455e-07
2.29112e-05
0.130394
1.79411e-07
8.9818e-07
6.64895e-06
-2.07875e-07
4.88749e-08
-1.53353e-06
0.00426032
-3.30075e-07
-1.47371e-07
-0.000499141
5.12125e-07
1.891e-07
-0.00166996
1.78667e-05
1.32136e-06
7.9305e-05
-1.52984e-07
1.91293e-05
-1.04045e-05
1.79629e-07
0.000494437
-0.0114208
9.57189e-06
-6.04598e-05
4.25088e-06
1.02212e-07
0.0123807
-8.50812e-08
-0.030842
4.01121e-08
4.82984e-06
-2.60444e-07
-2.3178e-08
0.000440192
8.68824e-06
-1.34936e-07
-3.92954e-07
0.000451829
0.0252243
2.73037e-06
-2.54052e-06
1.02512e-06
0.0141334
3.27944e-07
-0.0205167
-9.12034e-07
-5.02249e-07
-1.37014e-06
-7.1954e-05
-3.34688e-07
0.00786267
-1.30457e-06
2.89672e-06
-2.52071e-06
-1.6984e-06
-2.59065e-05
0.0058966
-1.65654e-06
4.60102e-06
2.3763e-06
-1.37047
-5.86503e-07
-0.0341252
0.00737295
-0.000209397
-1.29874e-07
-2.47204e-06
7.09952e-07
-0.01025
-3.75862e-06
-3.67624e-07
-7.86529e-07
4.39048e-05
0.00894217
2.22271e-08
-3.7197e-07
-2.74633e-06
4.44692e-06
-0.0013928
0.0245353
-2.73402e-06
0.0021505
5.5132e-06
-3.49487e-08
0.000384522
-1.8685e-06
0.00493431
1.00886e-08
-0.00155629
-3.83466e-06
4.32941e-08
-0.0179933
5.44373e-09
-6.72328e-05
8.67279e-05
-0.0203141
1.3698e-08
-0.00490589
-4.61647e-06
0.0463578
-0.00177446
-3.86894e-07
-2.46658e-06
-2.15372e-05
-0.0513726
-0.000133719
3.29966e-05
-3.47565e-06
-0.0102977
1.68099e-07
0.000151607
-7.49133e-08
-4.5229e-06
-2.20302e-06
0.000625073
-1.0073e-06
0.000486861
-0.00877774
9.73327e-08
-3.12131e-07
-1.16801e-07
0.0169746
1.47289e-08
-3.04173e-06
-0.00123928
0.000648498
9.16998e-06
0.020376
1.86202e-06
0.014715
9.185e-09
1.64659e-07
-4.39915e-05
2.50583e-07
0.0254498
-4.17041e-08
-2.58151e-06
-4.59587e-07
-0.248431
-0.0175741
-1.80659e-07
-6.15732e-05
1.30411e-05
9.76366e-05
-2.93994e-07
-0.108403
-2.8427e-07
1.2821e-07
-0.0144559
-0.0134787
9.27637e-05
3.34786e-08
0.000268879
1.06072e-05
2.16714e-08
-5.16884e-06
3.26211e-06
6.59814e-05
-0.0130541
6.14637e-07
-8.8767e-09
-7.69252e-08
0.000264607
8.71739e-06
0.011207
0.00673705
0.00372837
7.68991e-06
8.09774e-08
0.0366359
-5.93364e-05
9.13408e-09
3.56547e-07
1.41181e-05
-3.99489e-07
9.28657e-06
-6.80952e-08
-0.195632
-9.068e-06
2.38155e-06
-3.49684e-06
-0.0188655
-0.00129363
0.00565166
-0.020817
0.0311828
7.64594e-07
-0.012288
-1.22713e-06
-0.00528201
-3.65597e-06
-2.32373e-06
-0.0107855
0.0275516
0.13033
9.6357e-08
-7.00608e-08
-0.0111545
0.0168268
7.63595e-09
5.90449e-06
2.66438e-05
2.46615e-06
2.18413e-06
0.00351822
0.0011457
-0.000814556
3.21634e-07
3.33722e-07
2.11631e-06
0.0914129
-8.88475e-08
-0.00702864
-7.94653e-06
9.53488e-05
0.000145218
-6.55084e-07
-0.0217101
-0.0111362
1.82753e-07
-3.40188e-07
-6.02187e-08
1.40652e-07
0.0186118
9.67746e-07
3.35275e-07
0.00712522
-2.01326e-08
1.11879e-05
-8.24767e-07
0.0300413
1.09367e-06
1.58316e-05
0.013576
3.47422e-07
-1.70641e-06
0.000294489
-5.20029e-06
2.44165e-07
-1.16767e-06
0.00175028
0.000132817
6.49579e-09
1.18089e-07
-9.74648e-07
-5.23334e-05
0.333581
-2.86506e-08
-0.000710997
1.37257e-05
2.18991e-06
0.00977046
7.45132e-07
6.46293e-05
-1.2555e-06
0.000443796
6.74561e-05
0.0255624
1.79898e-07
8.62964e-08
4.52114e-08
1.94331e-07
-1.12384e-06
3.06189e-07
-2.34913e-06
6.40095e-05
-2.52701e-05
-4.60955e-07
-0.895879
1.04182e-08
0.000195914
-1.39759e-07
0.0348867
-0.000135544
1.89491e-05
-3.20695e-07
3.34005e-07
-2.24075e-07
4.40265e-09
6.02294e-06
-3.2449e-08
-0.00590594
-0.0138998
-0.00315288
4.81388e-05
-0.0135468
9.28532e-05
-1.35309e-07
0.000744736
-0.00056123
-1.51587e-07
0.00056149
-2.85939e-05
-0.000918148
1.42729e-06
-3.94603e-06
0.0256982
-1.8363e-06
1.48033e-07
1.02878e-05
-2.49524e-07
-1.69485e-07
-0.010685
6.17209e-05
6.00396e-07
1.40456e-07
-1.26231e-09
-0.00649199
-8.83272e-08
8.59361e-07
-3.96835e-08
-1.6504e-07
0.000448984
-1.1406e-07
-3.25564e-07
-0.00803566
-1.86879e-07
-6.30688e-08
-0.0118001
0.0380283
0.143312
0.00910957
-1.16766e-06
-0.0107071
0.000317299
1.47142e-05
0.0186879
0.000403795
-4.17034e-05
-1.82287e-07
-5.05466e-07
-4.22855e-05
0.0649278
0.00438606
-3.49895e-06
-9.78693e-08
7.56392e-07
-1.18746e-06
0.0341796
-0.000287755
6.46939e-07
2.76818e-08
-4.6368e-05
3.05473e-07
0.000723678
6.09562e-07
0.176641
0.000104551
-3.42074e-07
2.61657e-05
-3.6877e-06
1.67359e-05
-8.38135e-06
-1.21597e-06
9.71699e-06
0.0212967
5.15553e-05
5.46163e-08
-1.80235e-07
0.00543198
-3.58775e-07
-0.0347813
-6.63753e-07
3.47087e-08
-1.89847e-07
-0.000566761
-4.30183e-07
6.44761e-06
-0.00731726
2.40878e-08
-4.54696e-05
0.0387713
-0.159464
-3.66506e-08
1.87061e-07
-1.2018e-06
2.21376e-07
2.25577e-07
-0.0024494
-0.289776
-3.38067e-06
0.00312083
-0.00109455
0.0107935
0.00279407
9.81086e-07
1.23669e-07
0.0074434
0.000306252
-0.00031817
0.000270515
1.26459e-07
1.25559e-07
-0.00476942
1.61586e-08
-2.22731e-07
0.000439097
-3.9807e-08
-0.0206084
2.8786e-05
5.93875e-06
-0.0317681
-6.31534e-07
1.43312e-07
0.000677324
4.76325e-06
0.000317416
-4.06822e-08
-1.09338e-09
3.7208e-05
6.76458e-07
-0.0115748
-3.21658e-07
1.58695e-07
-1.21198e-06
-2.85164e-07
-2.45676e-07
-3.76989e-08
-3.84508e-07
0.00302194
-0.00741345
2.16721e-07
0.000314055
4.18058e-06
3.4486e-06
-0.00844054
-3.49165e-06
8.71235e-07
-0.0869845
0.000934081
-0.000693402
1.58432e-06
5.80442e-07
-2.24104e-06
-0.0456381
1.63086
1.87078e-07
2.07979e-05
1.00947e-07
0.000458176
0.0171113
-0.00804021
-0.00110229
4.95142e-07
-3.51496e-06
6.01349e-06
0.0292769
4.7648e-06
-8.72998e-08
-0.000127341
0.00106166
-0.0471062
4.03213e-07
-3.20988e-06
2.87292e-05
-8.27579e-08
-0.0398015
0.00116639
-4.73277e-07
-3.28875e-06
7.30075e-06
-7.63365e-08
-0.0293273
4.35904e-08
7.63363e-07
6.56367e-09
0.0407028
0.019576
-4.49951e-08
0.000490234
-1.89917e-07
-0.0767231
2.01139e-06
0.0327914
-8.80014e-08
0.0353388
9.51865e-07
-1.49895e-07
-1.65911e-07
-0.000788854
-0.0015755
1.47471e-05
0.00789642
-2.36879e-07
-0.0848076
0.0321879
0.0026812
-0.00881775
4.96585e-06
-1.53872e-07
-3.5344e-06
-0.0140113
0.000792532
6.62154e-07
-0.000256333
3.04819e-08
-6.89739e-07
8.92124e-05
2.66181e-06
1.82631e-08
-2.73141e-06
-8.97991e-07
-0.00888006
5.36664e-08
0.0418474
0.00316124
-0.00126567
7.10434e-07
0.000632017
-0.000859926
-2.72345e-06
0.0343468
-2.17201e-07
-1.43211e-06
0.0389921
3.35738e-08
-2.84388e-07
7.58129e-06
-3.04443e-06
9.74669e-07
-3.32363e-06
0.0258845
5.14766e-09
-0.00133345
3.05921e-06
-2.35407e-07
-9.79129e-07
0.113635
6.44244e-08
-0.00522274
3.01e-06
4.43285e-05
2.07309e-06
1.27357e-07
-1.32778e-06
0.00738352
-0.000262676
-5.04601e-05
8.38144e-08
1.24327e-05
0.00185579
2.42217e-07
0.0014084
5.80763e-06
1.4976e-07
-0.0323615
9.21049e-06
-1.64936e-07
0.000599995
0.00852099
1.88075e-06
3.3046e-06
0.00489075
0.000571542
-1.86291e-09
1.96693e-07
-3.69892e-06
-8.44575e-06
-2.49743e-06
0.000655908
4.77611e-08
1.92042e-07
-6.29955e-07
8.64274e-07
1.00607e-06
8.66298e-05
2.15871e-10
-0.0142319
-0.0359576
-0.066266
0.00182066
-0.0150062
3.27338e-06
0.000646802
8.11842e-07
3.39878e-07
6.45451e-08
-0.0081743
-4.79757e-07
0.000655862
8.61165e-06
2.17832e-05
-3.35318e-06
0.00042772
-0.0190644
2.59561e-06
-5.89659e-08
-6.32929e-08
-1.03326e-06
5.55842e-05
-5.48458e-08
6.71034e-07
-0.1774
7.10844e-07
-0.0173078
-2.38369e-07
1.24056e-06
1.70049e-05
0.00169493
-1.0819e-08
-0.00165474
-0.268586
4.30786e-05
-0.000490012
0.000239351
-4.96286e-07
-1.90479e-07
-9.12351e-06
1.08322e-07
-0.00658426
-1.19811e-06
-3.15889e-06
8.50372e-07
1.02434e-08
1.03205e-06
-0.000644312
-2.70931e-08
-0.043836
0.00847283
0.000640559
-3.04157e-05
7.94962e-07
0.00073708
0.000442874
8.97988e-07
1.77369e-06
0.000518924
-7.45221e-07
-1.18614e-07
3.80875e-05
-1.0732e-06
-0.000488684
-8.02639e-08
-3.1846e-08
3.95115e-05
-3.65729e-06
3.01894e-07
0.000349341
-0.00722869
0.000773829
5.40042e-07
2.64439e-07
-1.28128e-07
1.11115e-06
-0.0164271
-1.63698e-06
7.43771e-08
-0.012572
-3.70385e-07
-0.00154596
0.0151584
-0.0016482
0.0191759
-0.000736471
0.0144836
-0.000532922
0.00064106
-0.00973478
-2.35127e-07
-0.00474851
0.00432578
2.31408e-07
-3.1838e-06
0.00424455
-2.82043e-07
6.16197e-07
4.94492e-07
6.27598e-08
2.88955e-07
0.00048985
0.000444974
-2.32066e-06
0.000590293
-0.0123413
8.05118e-08
0.0153649
0.00472102
1.50938e-05
1.46676e-06
-3.80341e-07
-2.80924e-06
-3.46044e-06
2.9473e-05
6.2748e-06
-0.000145631
-0.00471117
0.00725913
3.36803e-07
-0.00633333
-1.34468e-06
0.000744584
3.38453e-07
2.93128e-07
2.71375e-09
0.000258468
-0.000540605
8.76812e-07
-0.00602429
-3.3544e-08
-0.0428564
0.000450163
7.26473e-06
-0.00631288
-2.83947e-06
-0.000267221
2.86528e-07
-1.26299e-06
1.27954e-07
-5.13997e-08
0.000115986
1.07722e-05
-3.4488e-06
-0.00299074
-7.99498e-07
-3.82023e-07
-8.02547e-07
-4.20603e-08
8.93514e-09
-3.73055e-06
-2.10455e-06
0.0237001
1.99359e-06
1.0864e-08
-5.70099e-09
1.40679e-05
0.217981
-0.00172527
-0.0575858
1.162e-05
8.22971e-07
-3.8303e-07
-2.47995e-06
4.80908e-08
1.91538e-07
-2.62859e-07
-3.06678e-06
0.0148722
-0.00209016
-0.000231053
9.36463e-06
0.258985
-0.203626
3.93536e-09
3.71788e-07
0.0376686
-3.1737e-08
2.67026e-07
-8.79205e-05
6.78733e-05
-0.000165923
-5.56198e-07
-1.46061e-07
1.31662e-07
-4.91504e-07
-2.21141e-07
1.3052e-06
0.00197275
-1.67426e-06
1.48307e-07
-2.12521e-07
4.43311e-08
-0.000488997
2.31114e-05
-3.10565e-05
0.042472
-5.716e-07
-7.95447e-08
1.29027e-07
1.33184e-06
1.32199e-05
2.83534e-07
-2.92303e-07
2.248e-05
0.00540084
-0.0319871
1.60802e-08
-6.21329e-08
-0.293334
0.0105569
-0.0095478
-0.00668744
0.000107042
8.04787e-07
4.08263e-05
0.0165798
-1.52707e-07
-0.00235332
-5.54116e-07
0.00420318
0.00027502
3.73294e-06
2.6144e-07
-0.00130347
0.0254921
-4.10343e-05
0.000407778
-0.000449762
1.37142e-05
1.61965e-06
-3.4047e-05
0.0698394
0.0127996
-0.023823
7.84687e-06
7.32419e-08
0.0385987
-0.000565049
6.98695e-05
2.27902e-06
0.0220617
-1.09744e-06
-2.18865e-07
-1.56794e-06
-0.00117093
-9.28328e-05
-0.165528
2.37885e-06
0.000232205
-8.0798e-08
-3.27236e-07
-1.39119e-06
6.50369e-08
-0.073783
-1.15747e-06
4.04875e-07
-5.45401e-05
0.0337162
-2.18242e-06
4.16101e-06
0.0155019
-0.0227255
0.0405852
-0.0229039
0.0277015
0.000755769
-1.57237e-07
-7.17988e-05
-0.330558
0.0350047
4.201e-08
3.63232e-06
-2.6936e-10
4.86259e-06
8.46767e-08
-6.97068e-08
-2.10316e-08
-0.0104583
-1.26196e-07
0.00721052
-0.0215848
2.68619e-07
-3.94473e-07
2.32853e-05
1.89253e-06
-1.78983e-07
0.0566474
-5.57809e-07
-0.000498706
-0.000117538
0.000207365
5.30786e-06
7.34093e-06
-2.93101e-05
-1.9018e-07
-3.03111e-05
-9.10509e-05
-0.00586096
1.52482e-07
0.0372338
-2.36028e-06
3.1204e-07
-4.08381e-06
-0.000448302
-0.00289191
0.0275098
-9.71902e-08
-3.25416e-06
-1.73273e-06
0.000460153
2.16356e-06
0.000107477
3.72012e-07
-0.17774
-1.75393e-07
1.30654e-07
0.0477023
0.0166485
-9.64983e-07
0.0416839
-0.0213008
0.00555646
-0.00247175
0.0269819
-0.044443
-1.34436e-07
-2.33849e-06
-2.07161e-08
3.57428e-07
0.00691921
-1.57445e-05
-1.38962e-05
0.0232752
-3.48532e-07
-2.14039e-06
-0.0050759
0.0246253
-3.41082e-05
-2.32262e-07
-1.28637e-06
4.16818e-07
-9.40245e-07
0.000452563
3.06973e-08
0.000143824
-1.44439e-06
7.39418e-06
3.0787e-06
-0.218224
0.000544231
3.27088e-07
6.82188e-07
-1.6663e-06
-0.000725777
0.000233852
-3.30204e-06
9.04628e-07
-4.80508e-05
-1.27476e-07
-5.84262e-06
4.34277e-06
-0.00074822
6.64268e-06
-5.62196e-05
3.28478e-07
-2.11747e-07
1.25113e-07
5.51443e-06
0.000194121
0.000361907
-3.67751e-06
-7.81569e-07
-3.85451e-05
-0.0148139
0.0478826
-2.58541e-09
4.62022e-06
5.98541e-08
0.000473982
5.24172e-06
-3.95011e-06
-2.03332e-05
0.000459034
0.010149
1.05715e-07
-1.95729e-05
-2.26937e-07
0.0422236
-5.51386e-05
3.97656e-07
0.127205
-1.46576e-07
3.81931e-07
3.27886e-06
0.125624
5.16124e-06
-0.00227636
0.0455006
8.96244e-07
3.59584e-07
-0.0232884
2.00409e-07
-2.90823e-07
5.77415e-07
-0.446122
-3.68104e-06
3.51653e-07
5.35012e-05
1.13812e-05
-3.05478e-07
4.47638e-06
4.0892e-07
-2.72786e-07
-0.0114068
-0.000324474
-0.00063733
3.90321e-05
-0.00295423
-8.32873e-08
0.0140317
-6.5873e-05
9.68075e-05
-0.00787698
-5.82787e-07
-5.48261e-07
-2.30298e-05
-7.35554e-05
-1.27775e-06
0.0183801
0.000772123
1.21409e-05
-0.00721126
-0.0212643
2.96993e-07
0.000645262
-0.00720369
-0.0264115
-1.99484e-06
9.80415e-06
-2.23413e-07
1.13256e-05
7.57464e-08
-0.0138382
-0.000580141
-3.46998e-08
-2.23927e-07
5.83978e-08
0.000336675
5.26202e-07
-0.0016021
0.00253371
7.29709e-05
3.21078e-07
-0.0218545
-6.43699e-07
9.26636e-09
7.76557e-08
-0.0298193
-2.41414e-06
-2.03307e-06
4.53679e-07
9.10743e-05
-3.28976e-07
2.27802e-06
0.0423116
1.49605e-07
0.000394974
0.00202211
0.0109616
0.00636422
-0.00838198
-3.66462e-05
6.15256e-05
3.51079e-07
-0.0660588
4.4661e-08
5.79391e-07
8.21123e-07
8.86507e-07
-0.0151994
8.4488e-07
0.000558562
-1.04495e-07
7.23938e-06
-2.94687e-06
1.13778e-05
5.13979e-06
-5.10273e-08
-1.70566e-06
1.40532e-07
-1.11844e-06
-0.0046393
6.6214e-07
-0.000329635
-1.12186e-06
-3.78278e-06
-0.00198836
-4.18935e-08
-3.70143e-06
0.000234561
-0.00592229
-0.0256049
-0.0321029
-0.020665
0.000213335
8.86106e-08
9.02689e-07
5.37589e-06
-0.00439334
9.31878e-05
0.0956062
1.96964e-07
7.52115e-08
0.00226082
-2.30966e-07
0.0149757
-0.00741598
0.01054
7.62654e-08
3.77258e-08
2.18287e-07
4.77661e-08
-0.00978761
-1.51474e-06
3.92231e-08
-5.23988e-05
0.00328733
-9.49425e-08
-9.14012e-07
3.21259e-07
0.0450331
-3.60794e-06
7.10204e-06
-0.0128402
0.101474
0.000162791
0.00834375
-0.0210712
0.00838107
3.35144e-07
0.0362052
-6.72072e-08
-4.87552e-09
-5.50293e-05
-0.0165468
0.000391286
-0.0111965
3.18772e-07
6.30514e-07
3.9566e-07
3.89927e-05
-0.114124
1.06202e-05
-0.0038018
-9.03952e-06
-0.0314461
-0.0233011
-1.85128e-07
0.000486213
2.42655e-06
-1.42003e-06
-7.55447e-06
-7.995e-08
0.000803319
0.0122508
3.5752e-08
3.74894e-07
0.00471027
-3.67329e-06
1.96591e-06
0.028343
0.000303819
-1.31845e-07
-2.64495e-07
-2.20964e-06
-2.079e-07
-0.0186374
2.633e-06
8.7116e-07
-1.35798e-07
-0.0106683
-3.67279e-07
-5.7516e-08
0.00360831
5.75101e-07
-0.000657019
-0.0247328
-3.64183e-05
-2.84608e-06
-2.24153e-05
0.0437317
1.36964e-08
3.59196e-06
-0.00457361
0.00012258
-1.05598e-07
0.000307871
-2.98013e-06
-0.0410735
0.00838455
3.89703e-06
0.012823
1.39792e-07
-1.6506e-06
1.67398e-09
2.49205e-07
-1.35374e-06
1.11169e-05
0.000716213
1.12739e-08
2.10353e-05
2.93287e-07
0.00407109
-0.00458434
-2.33195e-08
-1.9759e-07
0.0173998
0.0174842
3.27581e-05
4.92684e-08
2.60623e-06
2.59559e-07
1.54378e-06
-9.76531e-07
0.0236257
0.000103544
9.33499e-08
0.038708
-0.00948098
1.41887e-08
-1.22419e-07
0.00213329
9.10556e-06
-1.99053e-07
0.00692447
0.0051733
-2.05219e-07
7.96536e-07
-0.0411372
-0.0203854
0.000695052
-1.49649e-06
0.000765819
-0.00645652
1.5112e-05
2.7693e-07
1.87662e-05
-1.46535e-07
-0.0161739
-3.44258e-06
-1.31965e-06
0.0262986
0.0256896
-7.75876e-08
-2.10988e-07
0.0127855
-0.0260897
-8.61222e-08
-3.28291e-06
-2.10555e-06
-1.50539e-07
3.80034e-07
0.000154059
-0.0136843
-1.26045e-06
0.000582464
-0.00962628
1.42145e-05
4.32577e-08
-2.10207e-07
4.35052e-08
0.0317499
0.0319303
-0.00190391
-0.000417298
3.35172e-06
-0.0311689
-0.000437353
2.35805e-06
-2.49931e-07
-9.26406e-08
1.11065e-05
-0.0120721
-1.85791e-07
1.5967e-06
2.00497e-07
5.54193e-07
-0.00716548
-0.000434148
7.04203e-07
1.91892e-08
-5.41979e-07
0.000594183
-0.00621317
-3.0446e-06
-5.49874e-07
-0.00024587
-0.00165366
-2.86205e-06
-6.5351e-05
-0.0141882
1.2504e-05
3.12102e-07
-2.77519e-06
0.000125623
1.20685e-07
4.90877e-07
-0.00805291
9.89734e-05
-0.011735
0.000300008
4.72279e-06
0.0177205
1.55343e-06
0.000292641
-1.56271e-07
3.53102e-05
3.48418e-07
0.000125882
-1.0115e-06
-0.00248096
-2.79675e-07
5.03487e-07
0.174508
5.55776e-05
0.000702791
1.01744e-07
-1.89027e-07
0.032517
-4.18642e-05
0.00029216
-1.9291e-06
-0.00621156
-0.000828469
9.51178e-06
0.000129152
-0.000120727
0.00257562
-0.0198319
-2.08607e-08
3.18503e-07
4.76652e-07
0.000704236
6.50935e-05
-3.13831e-08
8.09599e-07
0.010278
0.0210675
1.48824e-08
-0.000987076
-2.38148e-06
0.000104619
1.00754e-06
-5.42581e-09
1.00256e-07
0.000413366
1.97868e-06
-0.000242088
-1.72029e-06
-5.97759e-08
0.036605
0.0448231
-1.69412e-07
0.000104415
-4.35012e-08
-2.56346e-07
8.10803e-06
0.0202241
-1.00315e-05
-2.98637e-08
-3.6062e-06
-0.409606
0.0027678
-0.000139936
-0.0168893
-5.34477e-06
-0.00970387
-3.69233e-06
-9.53669e-08
5.94466e-08
1.27245e-07
0.001986
-0.000141367
1.18861e-07
1.28957e-05
6.57285e-06
-0.168849
0.00192575
8.85e-09
-2.18583e-07
1.88882e-06
3.13124e-07
0.0102971
0.00687051
1.08878e-06
0.0302232
0.000370358
-3.014e-07
1.68363e-05
-2.4242e-07
2.8909e-07
5.44396e-06
5.09335e-07
-1.82796e-06
-0.000108751
1.15142e-08
9.49701e-07
-4.03583e-06
-0.0276649
6.92404e-07
2.48912e-06
-0.0179696
0.000158745
-0.0174984
8.08513e-07
-0.0212503
-1.25456e-07
0.0113339
0.0344156
0.0386714
1.37002e-06
1.62616e-05
-1.91372e-06
1.65577e-06
-0.010303
0.0220783
-0.00100382
3.27024e-06
1.36779e-07
5.50112e-05
-7.82761e-07
7.37033e-07
-0.00587223
-2.43897e-05
-0.000402728
3.81092e-07
1.42546e-05
-6.93936e-07
0.0052971
2.73889e-07
-3.43029e-06
-0.102799
4.75161e-07
7.14375e-07
6.23349e-05
-3.02375e-06
-0.0150293
3.63266e-07
1.08077e-06
-1.61831e-08
1.04737e-06
-8.27228e-08
1.94227e-07
-0.0182777
-5.87752e-05
-0.0126693
1.66829e-05
0.000461892
-0.0168718
-6.26084e-07
-0.0151035
-1.3114e-07
1.61202e-07
1.20924e-06
0.00027907
-0.000630958
-0.0383569
0.0453494
8.93365e-07
6.24122e-08
4.2067e-05
5.92025e-07
5.40482e-06
-0.000172975
-0.00700969
0.00663048
0.00996232
-2.57278e-06
-0.0391454
5.34377e-05
-5.33092e-07
0.00424301
1.73513e-05
-1.92752e-06
-1.18327e-07
-0.017156
6.43962e-09
-0.00768284
-9.83562e-05
-0.00604405
1.27567e-06
-8.83148e-05
-0.0119173
8.2575e-05
-4.63226e-06
0.0104989
-8.52551e-07
-3.22476e-08
4.55153e-06
-3.71312e-08
0.0223657
-0.00794239
0.000698744
8.56387e-07
0.028098
1.33342e-06
9.20669e-06
-0.00207946
3.30908e-06
8.59307e-05
1.17734e-08
-1.40319e-07
0.0227444
-0.000224918
-0.0291339
-4.60086e-07
-3.46339e-06
0.000150855
2.30052e-07
2.50802e-07
1.73351e-08
1.33683e-07
-3.42846e-07
0.000664006
5.75158e-06
3.09701e-07
1.20033e-06
0.00481347
-0.00086507
0.0308639
2.49856e-07
-0.00966857
2.71753e-05
-2.99883e-06
-3.56256e-08
3.03217e-06
-0.000317554
-0.123028
0.00290214
4.41043e-06
-9.68504e-08
-2.55985e-07
-4.81131e-05
1.84982e-08
-2.98159e-07
0.0019425
-0.600106
-2.88173e-07
0.000423202
-0.00087036
1.28887e-08
2.76087e-08
4.61102e-06
-3.85121e-07
-0.000402752
4.01935e-06
0.000251534
0.000576112
0.000469096
0.00893766
-3.70917e-05
1.146e-07
-5.64025e-08
-0.0139187
1.43071e-06
-5.30394e-05
0.000133409
0.0171321
-2.43426e-07
0.000591385
-5.26581e-07
4.8835e-08
6.89055e-07
0.00026849
-2.73259e-05
-9.52666e-09
8.27064e-08
0.0342642
-1.73318e-06
1.06017e-06
-0.0225686
-0.0161044
-0.000172378
-1.37805e-06
-0.000108948
-2.58115e-08
7.55959e-07
-0.0738003
-0.00139448
3.23251e-05
0.000300273
-4.66031e-06
3.03011e-05
-0.000121053
0.000412282
0.00368137