/*--------------------------------*- C++ -*----------------------------------*\
| =========                 |                                                 |
| \\      /  F ield         | OpenFOAM: The Open Source CFD Toolbox           |
|  \\    /   O peration     | Version:  v2012                                 |
|   \\  /    A nd           | Website:  www.openfoam.com                      |
|    \\/     M anipulation  |                                                 |
\*---------------------------------------------------------------------------*/
FoamFile
{
    version     2.0;
    format      ascii;
    class       volScalarField;
    location    "300";
    object      ddt0(k);
}
// * * * * * * * * * * * * * * * * * * * * * * * * * * * * * * * * * * * * * //

dimensions      [0 2 -3 0 0 0 0];


internalField   nonuniform List<scalar> 
37190
(
3.09722e-09
-8.40093e-05
1.30985e-09
1.30292e-08
0.000129795
-8.02781e-09
1.20716e-08
-7.97655e-09
1.03562e-08
1.14315e-06
1.0011e-08
2.14362e-09
9.00895e-09
1.59235e-10
-0.00131015
-1.8818e-08
-1.39235e-08
-1.47357e-08
-0.000819281
-3.22727e-07
6.71689e-09
3.26074e-09
0.000494917
-1.78291e-08
-1.02541e-08
-1.89351e-08
1.15438e-08
5.37676e-08
5.07948e-06
2.04586e-06
0.000262881
-2.30764e-10
2.76244e-08
1.24959e-06
2.79595e-07
7.2054e-08
4.73772e-10
-1.84226e-08
-1.6171e-08
-7.62611e-10
5.3375e-07
7.5563e-05
-1.17982e-08
1.14175e-07
-1.23149e-09
-1.54629e-07
3.128e-05
8.17882e-07
1.03353e-09
0.000124592
-5.41066e-09
-9.85506e-09
-3.17889e-08
8.51357e-09
-5.8123e-10
-4.21953e-09
1.05859e-06
8.25142e-10
-8.09464e-05
2.69622e-09
-6.72491e-05
6.96108e-08
-2.88774e-09
-9.74514e-05
-1.15515e-08
-1.15319e-08
-3.87703e-09
-9.78374e-08
9.28142e-09
-2.68489e-09
-4.15836e-10
5.58703e-10
-6.78781e-09
-9.92566e-09
-1.54117e-09
-1.12056e-08
0.000234628
1.35979e-08
1.40107e-05
4.57263e-09
6.20316e-11
1.16928e-08
-9.53682e-09
-4.82343e-07
-2.92425e-05
-1.43878e-08
-0.000330231
-4.53395e-06
-0.00127348
-1.22164e-10
0.000214641
6.21799e-08
-1.12424e-08
-1.14144e-08
1.21506e-08
-1.09025e-08
1.31999e-05
3.30367e-09
1.6571e-08
-0.000213733
-1.09155e-08
-9.52094e-07
0.000184721
-0.000150164
-3.74148e-09
-1.6171e-08
0.000148952
-1.10525e-09
-3.92003e-09
-0.000608663
4.15524e-05
-0.000915597
-1.77461e-08
1.53794e-09
1.28681e-08
-2.33916e-10
5.72782e-09
-1.58169e-08
-1.79718e-10
1.66625e-08
6.14297e-09
-0.000138814
-9.76987e-10
6.51497e-10
1.34821e-09
-0.000534868
1.64636e-09
1.31939e-09
3.73147e-05
5.41207e-09
1.78205e-09
-1.35588e-05
-1.66929e-08
-1.07118e-08
0.000160224
9.77338e-10
1.14589e-08
-1.09003e-07
-1.28536e-07
-1.23047e-08
-1.36916e-08
5.81113e-08
1.68245e-08
-1.04347e-08
1.22833e-08
-1.00581e-08
0.000373448
1.01157e-08
-1.41909e-07
4.65119e-09
7.51032e-09
8.07277e-09
4.27426e-07
-8.75059e-10
-8.16255e-05
9.97637e-10
2.26871e-05
9.69599e-09
0.0001537
4.79202e-09
1.5362e-08
2.86004e-09
-9.02508e-05
-0.000337733
8.14462e-09
1.55103e-08
-0.000330666
4.28981e-08
-0.000354101
9.18399e-07
-5.7907e-11
-0.000374439
2.6068e-09
2.33662e-08
-0.000146205
3.35403e-07
-1.7627e-08
-1.28462e-08
2.46628e-08
-1.93152e-08
1.16154e-07
-3.79095e-09
-3.98414e-09
5.24961e-09
0.000131444
-1.5054e-10
-6.14405e-08
-1.94093e-10
0.000422254
-1.01214e-07
-1.06013e-09
-3.79617e-08
3.15994e-09
-1.27539e-08
1.52329e-05
-1.63795e-08
-7.22508e-09
-2.75303e-09
-0.000221239
-0.000883034
-3.29967e-07
5.1569e-09
6.89266e-09
4.74483e-11
-0.000284116
6.64125e-09
8.01781e-09
-8.20225e-09
6.67988e-09
-0.000302576
6.67601e-09
-0.000322931
5.1035e-09
1.04726e-08
-4.26158e-06
0.000251591
-1.48279e-07
-1.01951e-07
1.2575e-06
-1.70096e-09
-9.42386e-05
2.19848e-09
2.67278e-09
-2.66988e-08
0.000119626
7.96856e-10
-1.01318e-05
1.18236e-08
-6.03197e-09
-5.48897e-06
-1.08413e-08
7.85527e-09
2.46705e-09
-0.000296681
1.77143e-08
1.18962e-07
-1.1192e-07
-4.96437e-05
-2.32318e-09
1.39748e-08
-3.06264e-08
-1.05624e-10
-0.000269301
-1.17256e-08
-1.77429e-08
0.00124921
2.95795e-09
0.00013612
3.63825e-08
-6.32963e-10
1.91503e-09
7.20748e-08
7.98454e-09
6.12819e-09
1.97015e-08
-1.7958e-09
-4.34313e-08
-6.10581e-10
1.66773e-08
2.44826e-09
0.000131234
-1.02803e-08
4.48573e-09
0.000276546
-4.92569e-09
-3.66399e-09
1.53513e-09
-1.1139e-08
0.000126751
1.12122e-09
7.57479e-05
-0.000368855
1.25945e-06
6.87369e-09
-2.1223e-07
-4.43705e-10
-4.32204e-09
0.000130005
-1.02568e-08
-1.41891e-08
2.20375e-06
4.62217e-10
-5.07168e-08
4.97443e-07
-5.53922e-09
-4.90049e-09
-7.02819e-09
8.89624e-10
7.6174e-09
-1.88423e-09
-7.60931e-09
3.05027e-07
4.53631e-08
1.13726e-08
-8.38866e-07
2.08048e-09
-5.96108e-10
0.000122787
1.94202e-08
1.47438e-09
1.75927e-05
-0.000130341
-8.28111e-09
6.79822e-07
2.8185e-09
2.30171e-09
-3.69018e-09
-4.8306e-10
-1.88255e-06
2.34813e-08
5.79729e-10
0.000184424
1.56525e-08
-6.36001e-07
-4.44932e-05
0.000127968
8.12277e-09
7.95059e-06
4.02189e-08
2.29213e-09
9.74099e-10
2.5671e-09
1.18227e-06
6.67361e-09
0.000383718
7.117e-07
-1.54421e-08
-0.000221324
1.18301e-09
-0.000111655
-2.58067e-08
1.8337e-08
-1.27045e-08
0.000478853
4.53599e-07
0.000128298
-2.87564e-05
8.37617e-09
1.30587e-08
-0.000105951
-1.62113e-08
6.69875e-07
1.32007e-08
-4.60364e-09
0.000142896
-3.11852e-07
9.22606e-07
4.74094e-10
8.28729e-09
4.15212e-09
-2.15798e-09
0.000729406
-1.33351e-08
-1.36755e-09
1.20365e-08
0.000463754
-3.03281e-09
-0.000918249
-2.78712e-08
-1.01239e-08
-3.83485e-08
-2.40426e-06
5.02663e-09
0.000148848
1.14905e-08
-2.50931e-08
7.19293e-09
-1.64084e-09
2.68824e-07
1.53927e-08
-1.6508e-08
5.22157e-08
8.72776e-09
1.09363e-05
1.06098e-08
-3.77738e-08
-7.08418e-10
-8.96075e-08
-2.71645e-08
-1.78387e-06
-0.000532963
-1.43576e-07
-0.00161291
2.01047e-09
7.24632e-09
-0.000888744
-4.24257e-09
2.92264e-08
1.1799e-07
2.07732e-09
-7.34787e-09
3.53536e-07
1.58332e-08
1.37295e-08
-1.13492e-08
-3.27272e-09
-0.000483026
1.01034e-08
3.29098e-10
-1.08523e-07
-1.66301e-09
0.00022126
-1.75936e-09
5.09991e-09
-1.09934e-08
9.99484e-10
8.45556e-10
0.000127301
1.24501e-08
-1.48169e-09
-1.41796e-08
-3.3161e-05
0.000112318
-6.30699e-09
-1.34415e-08
-1.5108e-10
2.12748e-08
7.75757e-10
2.1175e-09
1.86323e-09
0.000235586
-1.81192e-07
-0.000960999
1.13641e-08
1.80236e-09
-1.06474e-07
0.000141883
1.6616e-12
-1.16689e-09
-2.41132e-09
-5.03913e-07
-1.0161e-09
-1.1591e-09
2.22971e-09
-1.57139e-09
5.33561e-05
1.99969e-09
-4.96313e-08
-1.64242e-08
9.59146e-09
-1.8598e-08
5.23714e-09
-0.000111233
-1.32256e-08
8.73389e-09
-0.000196793
-0.00169666
-1.12098e-09
0.000453436
-1.52757e-08
1.1621e-08
6.98076e-07
-7.01723e-10
0.000114826
3.6477e-09
-0.000220176
3.16818e-09
1.70162e-10
1.59249e-08
4.24276e-09
-9.32307e-05
2.73364e-09
1.23039e-09
-0.00159447
-1.14549e-07
1.28018e-09
8.30446e-07
0.000315695
3.36812e-09
5.99879e-09
1.59732e-08
0.000150146
-0.000199612
-1.61927e-07
-0.000364252
0.000387525
4.20551e-08
0.00024217
-4.92618e-09
-7.79309e-09
3.78817e-09
1.61042e-08
-0.000397245
-0.00138085
9.15297e-10
-1.04926e-08
8.3642e-07
3.02219e-09
-9.15279e-06
4.95134e-09
-1.54346e-08
4.96777e-09
9.26727e-09
5.91424e-07
1.09365e-08
7.24491e-09
8.12366e-09
-2.1489e-10
2.45157e-08
-9.15744e-05
-4.43615e-09
3.77993e-11
1.66831e-08
-0.00151562
1.3313e-08
7.38513e-05
-0.000292004
-1.14059e-05
0.000316441
-1.30916e-09
-0.000219224
2.96114e-11
-0.00044563
-3.28755e-09
1.59367e-06
0.000143875
1.68101e-09
-8.87569e-10
-1.26943e-09
0.000124761
1.3955e-08
1.42777e-07
6.45308e-05
0.000373182
-1.72828e-08
1.42945e-08
3.56244e-08
-1.31458e-08
-1.93175e-06
4.42828e-11
-8.83214e-09
1.14774e-09
-0.000827933
1.04091e-08
-1.98853e-09
-0.000144838
2.99199e-10
-3.84904e-09
-8.63073e-09
-8.33422e-09
3.14485e-11
2.58593e-10
2.23467e-09
1.47582e-08
-0.000156858
-8.26453e-10
-1.52303e-08
3.44679e-08
6.82347e-09
-4.60484e-09
1.88991e-09
-1.98077e-08
1.09238e-08
0.000141813
2.73463e-07
6.01697e-09
-1.75822e-08
-2.38989e-07
-0.000888946
1.18698e-09
2.98277e-09
-2.2296e-05
-0.000382808
-0.00033256
0.000137146
-1.4645e-08
5.41352e-09
1.12732e-09
-0.000147323
0.000290267
-2.22743e-08
-5.35081e-09
-6.29109e-06
-2.17126e-08
2.96554e-09
-1.35136e-07
0.000142083
-0.0010395
5.76859e-09
3.23223e-08
2.68697e-08
9.03947e-09
-1.65271e-08
7.69912e-09
0.000245638
-0.00151092
5.83692e-09
0.000821977
-0.00182977
5.16279e-10
9.07014e-09
3.53864e-09
2.46122e-07
-1.54411e-09
-2.95287e-09
-2.33074e-07
-0.000835707
-1.47186e-09
1.03692e-05
3.59272e-09
-1.78945e-08
-2.2188e-08
3.54475e-09
1.31911e-08
3.72108e-08
5.02408e-09
1.81762e-08
2.47463e-10
-0.000443963
-3.42994e-09
4.34696e-09
-1.59879e-06
1.54708e-09
0.000159705
1.15121e-06
-3.48743e-10
-7.88004e-05
2.58659e-09
-1.56246e-08
-1.93264e-08
-2.4725e-10
-4.20619e-08
1.37817e-08
4.40114e-09
8.2074e-09
-4.44386e-09
3.29796e-08
-0.00188272
2.77416e-09
1.08027e-08
-0.000876256
3.22514e-10
2.42935e-09
-1.20943e-07
4.15502e-09
-1.35783e-10
-5.35117e-08
-7.52822e-09
-1.06959e-08
-9.05107e-09
-0.000206672
-1.96697e-05
6.84989e-07
-5.58454e-05
-2.48698e-09
9.6971e-07
-4.29827e-09
2.21014e-08
0.000325251
4.78639e-07
2.3879e-08
3.3054e-09
4.50238e-07
-1.08749e-08
0.000223526
4.05824e-07
8.10316e-09
2.50218e-05
-1.60494e-08
4.51864e-07
4.90627e-08
2.13221e-08
1.52212e-08
1.75456e-08
1.31174e-08
-1.20277e-08
-2.2272e-09
2.10458e-07
4.98344e-09
2.7667e-07
1.01986e-08
-4.27279e-09
-4.03662e-08
0.000139529
-3.06861e-09
-7.95651e-10
-0.000217042
-3.16337e-09
-3.86273e-09
-6.7783e-09
1.79113e-06
-0.000155491
-8.39917e-10
1.91282e-09
-6.1664e-05
1.92548e-07
-7.55979e-06
-1.30043e-08
4.71619e-10
4.30298e-08
2.03665e-08
2.75466e-08
7.17376e-09
1.72563e-06
-1.11131e-08
-0.000459844
-4.85226e-09
1.78895e-08
5.2915e-07
-3.07923e-10
-1.68928e-08
2.19694e-10
-9.976e-09
-0.00057727
9.19685e-09
-5.84129e-07
-2.45796e-09
0.000454057
-1.26757e-08
-2.69778e-09
-2.71307e-06
2.57347e-10
0.0002019
-3.15462e-09
1.07267e-08
-2.05758e-09
1.58221e-12
4.85395e-07
7.32707e-09
-0.00140002
0.000230727
-1.52742e-06
-0.00107338
1.6278e-07
1.07012e-08
1.82058e-08
-3.01347e-05
-0.000906041
1.07176e-08
9.38331e-07
-3.84466e-05
-5.32673e-08
2.37715e-08
-1.20714e-08
-0.000941065
-3.84978e-09
-1.5297e-08
-5.15045e-05
1.27366e-08
8.66345e-07
-0.000873899
-1.46881e-08
2.23106e-08
3.63392e-09
-0.00144482
-9.12928e-05
3.10896e-09
-9.45093e-07
-0.000181375
-1.03347e-08
-3.58237e-09
7.45241e-08
0.000142301
3.72995e-09
-1.81939e-08
9.32722e-08
2.45468e-08
1.55705e-08
6.1336e-09
6.25626e-05
3.00917e-07
-3.58592e-09
-2.89918e-09
3.02991e-08
2.08949e-09
-1.71149e-07
-7.67142e-09
1.54126e-08
5.23702e-09
1.89465e-09
1.99285e-08
3.60283e-08
1.96909e-08
-1.34796e-08
6.53442e-08
7.42071e-09
0.000352864
-6.0204e-06
-1.84111e-09
2.33283e-08
1.58403e-09
-1.74321e-09
0.000219551
8.17256e-05
3.74797e-08
8.17232e-09
-9.04706e-09
-5.89308e-09
1.49635e-08
0.000147374
-8.5035e-10
2.46861e-08
3.81655e-08
2.19178e-09
4.94472e-10
4.12894e-10
1.84127e-08
5.06441e-09
1.99867e-09
-3.1603e-08
-1.33713e-08
5.71397e-13
6.25202e-09
0.000475958
0.000278477
2.79727e-09
-1.13793e-09
-3.86562e-09
-3.51743e-08
-3.28955e-08
0.000148614
-2.67435e-08
-1.11046e-08
3.32523e-09
-1.35052e-08
-0.000307218
-1.21467e-08
-2.42915e-09
9.0694e-11
-9.33381e-10
-9.98681e-09
3.94471e-10
-5.99233e-09
-2.0103e-07
6.95842e-09
0.000116846
-0.000103596
2.09976e-08
2.37073e-09
1.40888e-08
0.000152804
6.95888e-09
-1.45151e-05
-3.01821e-09
-7.36271e-05
2.27502e-08
4.26041e-11
2.0908e-08
1.74141e-06
9.37369e-09
1.99701e-09
2.9182e-05
-2.97441e-09
-2.27137e-10
1.1615e-08
-9.15232e-06
9.10018e-09
-4.40418e-08
8.61887e-09
7.665e-08
1.53332e-08
-0.000243122
-3.73414e-09
1.39258e-07
-1.89583e-08
0.000169877
-1.22319e-08
-1.7105e-08
-0.000512178
-4.52208e-09
0.000146895
7.23856e-05
-9.15405e-10
5.665e-10
-1.77477e-05
7.82385e-09
3.41419e-09
0.000104725
-8.79207e-10
-0.000247297
2.85352e-09
-0.000609249
8.29755e-09
-3.26852e-08
0.000233663
1.50915e-10
-2.07707e-09
-7.73861e-09
-1.01558e-08
3.27273e-09
3.35238e-08
8.12606e-09
2.84617e-09
4.92228e-09
0.00103987
2.59372e-09
1.17402e-08
2.00935e-08
-2.74241e-09
6.48231e-10
-1.45544e-08
7.70215e-05
-2.53157e-09
-2.0218e-09
4.78489e-09
7.04008e-09
2.92668e-09
-0.000104771
1.40715e-08
5.16614e-09
1.40659e-08
-2.1062e-09
1.83318e-09
-1.85877e-08
9.69539e-10
2.37221e-08
0.000444935
8.99233e-09
-2.74529e-08
7.66484e-09
1.43498e-09
-8.96284e-06
-1.07884e-09
-0.000938672
5.50077e-10
4.64778e-09
-2.52357e-09
-3.13577e-10
2.78152e-07
1.11596e-08
-1.79142e-09
-4.95371e-09
3.64234e-07
0.000205303
-7.15398e-09
-4.35691e-09
1.4021e-08
-2.2116e-06
4.23397e-09
5.00933e-05
-1.18024e-08
-2.22494e-09
-7.69375e-09
1.98782e-08
-4.47193e-09
-8.72124e-05
-9.50341e-09
1.0755e-08
-1.03236e-08
-1.77694e-08
-1.27217e-06
1.26042e-06
-5.4033e-09
3.32609e-09
1.09278e-09
-5.22615e-05
-4.81967e-09
0.000234376
-8.24541e-05
-1.41137e-08
7.28869e-11
-1.02613e-08
1.0983e-08
0.000489682
-1.81744e-08
-2.96594e-09
-9.72682e-09
1.29772e-08
-8.6864e-05
2.93811e-10
-2.21218e-09
-1.49626e-08
1.86311e-08
7.09055e-07
4.81461e-05
-7.48253e-09
0.000145275
1.48481e-08
-4.62355e-10
3.25972e-07
-1.76867e-08
0.000101249
1.32007e-10
-1.33523e-05
-2.54113e-09
-3.53778e-09
0.000344419
-1.14291e-10
-1.01296e-08
3.6586e-08
7.9106e-05
1.70253e-10
-4.52117e-07
-1.97296e-08
-6.78501e-05
-3.56746e-07
-5.31294e-09
-1.5917e-08
5.55213e-09
-0.000274702
-2.67643e-08
-2.26774e-10
-1.86425e-08
0.000392826
2.29446e-09
5.99881e-08
-1.00051e-09
-8.80047e-09
-9.14176e-09
3.83759e-08
-1.60306e-08
3.24288e-07
-4.93686e-05
1.24803e-09
-4.00152e-09
-1.59133e-09
0.000186451
1.96026e-10
-7.95748e-09
5.83322e-09
8.1817e-07
2.19326e-08
-0.000575235
5.02861e-09
9.48716e-05
1.20483e-10
2.2182e-09
2.26502e-08
3.10468e-09
5.30817e-05
-6.20996e-10
-4.18066e-09
-4.9228e-09
-0.000328599
0.000683936
-2.42003e-09
-5.49332e-08
1.40004e-08
7.66855e-08
-2.74439e-09
8.0836e-06
-2.23603e-09
1.74205e-09
-0.000146865
-0.000139828
3.98435e-08
4.44533e-10
1.3631e-07
2.41132e-08
2.92115e-10
-1.27265e-08
1.1008e-08
2.49412e-08
-3.05527e-05
8.10546e-09
-7.05794e-11
8.45381e-10
1.26904e-07
1.32032e-08
-0.000322101
0.000222412
0.000605973
2.83064e-09
1.22079e-09
-0.000850404
-5.22358e-08
1.20135e-10
3.02432e-09
1.6156e-08
-3.66892e-09
8.40081e-09
-9.12311e-10
3.43554e-06
-2.10061e-08
1.41808e-08
-1.96742e-08
-0.000269919
1.45637e-06
7.49467e-07
-0.000247508
0.000182089
8.9906e-09
-4.2777e-05
-1.185e-08
-2.43659e-05
-1.88128e-08
1.24274e-08
-0.000103918
6.20335e-05
-0.00131352
1.30132e-09
-9.18987e-10
-9.05109e-05
2.68918e-05
1.01058e-10
2.36865e-08
8.53467e-09
1.51623e-08
5.9335e-09
2.27061e-06
-0.0014495
-4.69758e-08
5.0828e-09
4.5093e-09
5.29303e-09
1.28055e-06
-1.27078e-09
-4.71323e-05
-2.19059e-08
3.69453e-08
5.59969e-08
-8.35198e-09
-0.000197921
0.000451665
2.37988e-09
-4.09718e-09
-8.04039e-10
1.87515e-09
-0.000128721
1.36e-08
4.34102e-09
-0.000256892
-2.47884e-10
9.46449e-09
-8.61857e-09
7.91934e-05
-7.04081e-09
2.13658e-08
0.000193253
3.15897e-09
-1.77445e-08
4.0752e-05
3.41801e-10
3.25588e-09
-1.42203e-08
-4.15949e-07
0.000153144
8.66488e-11
1.63365e-09
-1.23936e-08
-4.56887e-08
-8.75672e-06
-3.83562e-10
-9.87573e-05
-1.4695e-09
1.41853e-08
8.67666e-06
-6.24861e-09
2.80506e-08
-1.16326e-08
9.87583e-07
3.55827e-08
0.000213928
2.34301e-09
-3.45701e-09
5.86224e-10
3.31401e-09
-1.0661e-08
4.05343e-09
1.95688e-10
2.28607e-08
-1.1156e-07
-5.05014e-09
1.21866e-06
1.36783e-10
4.48218e-08
-1.85543e-09
-0.000129597
0.000150467
3.63658e-09
-4.30019e-09
4.40232e-09
-3.01744e-09
3.03495e-11
2.36029e-08
-4.31402e-10
-7.55991e-05
-3.5093e-05
-0.000560428
6.365e-08
3.30064e-05
4.86153e-08
-1.78052e-09
0.00140713
-1.39882e-07
-1.98881e-09
1.14612e-06
2.04086e-08
5.29919e-05
8.3763e-09
-1.00019e-08
0.000211188
-1.74447e-08
1.39578e-09
-7.64967e-10
-3.30658e-09
-2.21734e-09
0.000522378
3.57756e-08
7.96626e-09
1.931e-09
9.8266e-10
-6.45312e-06
-1.17752e-09
9.05783e-09
-5.22054e-10
-2.21974e-09
2.39987e-07
-1.46318e-09
-4.23732e-09
-0.000286224
-2.48814e-09
-8.05081e-10
6.93777e-05
0.000118103
0.00583733
0.000212298
-1.74932e-09
-3.55858e-05
7.64687e-09
1.47281e-08
1.86534e-05
3.69984e-07
-3.78421e-08
-9.23272e-10
-1.34227e-08
-4.00446e-08
9.86e-05
-0.000758457
-1.33223e-08
-1.30513e-09
9.30607e-09
-1.40581e-08
3.01709e-06
4.30114e-08
8.16735e-09
3.52326e-10
5.07467e-08
3.94867e-09
7.95462e-07
9.35529e-09
7.92492e-06
4.08688e-08
-5.10226e-09
4.6706e-09
-1.77008e-08
2.32771e-08
3.29353e-09
-1.98443e-09
8.56292e-09
3.31108e-05
-5.59612e-08
7.41092e-10
-1.15486e-09
1.64291e-05
-6.28803e-09
-0.000175737
-7.51853e-09
4.66797e-10
-2.49919e-09
-1.84119e-07
-5.72537e-09
2.44623e-09
-3.37072e-05
3.31944e-10
-1.12089e-08
-0.000940247
-4.31798e-05
-4.84569e-10
2.4084e-09
-1.73312e-08
2.95523e-09
4.03675e-09
-0.00154461
-0.000807892
-1.35633e-08
5.94036e-07
-2.15352e-07
1.25412e-07
1.69293e-07
6.37543e-09
1.54049e-09
1.58708e-05
2.56437e-08
-3.62937e-08
6.62071e-09
2.57406e-09
1.72545e-09
2.32409e-05
2.38123e-10
-2.69602e-09
3.4214e-07
-5.16601e-10
-4.93635e-05
1.1603e-08
2.35712e-08
-0.000171171
-7.8937e-10
1.3633e-09
8.10768e-07
1.4978e-08
1.73023e-07
-5.34651e-10
-1.1451e-11
1.22962e-08
9.74616e-09
-7.41661e-07
-4.16625e-09
2.17537e-09
-1.17766e-08
-3.78118e-09
-3.2229e-09
-4.95441e-10
-5.23476e-09
-6.48006e-08
-2.2743e-05
2.87074e-09
2.23001e-07
-1.14696e-08
2.05782e-08
0.000382476
-1.8601e-08
5.25482e-09
-0.000696375
1.01033e-07
1.84786e-08
8.34013e-09
7.67971e-09
-1.80337e-08
-1.35598e-05
-2.1828e-05
2.47579e-09
1.84106e-09
1.33961e-09
3.03879e-07
-6.017e-05
-4.19598e-05
-2.10905e-07
4.65642e-09
-1.87577e-08
1.28997e-08
0.000193454
1.22358e-08
-1.0805e-09
1.63541e-09
1.11183e-07
-0.0011075
3.88472e-09
-8.25376e-09
7.99658e-09
-1.06443e-09
3.88441e-05
-1.07908e-06
-6.30309e-09
-8.8191e-09
1.98185e-08
-1.06652e-09
-0.000117213
5.75986e-10
9.32821e-09
8.69032e-11
0.000134946
-0.00144925
-5.89662e-10
5.07616e-07
-2.52674e-09
1.44995e-05
5.87589e-09
0.00016792
-1.16591e-09
-8.63574e-05
5.84366e-09
-1.63092e-09
-2.09897e-09
-1.30665e-07
1.96095e-05
1.14509e-08
1.13159e-06
-3.17976e-09
-0.000970945
-0.00104391
0.000204142
-3.54611e-07
3.52019e-09
-2.07564e-09
-1.80736e-08
-0.000147595
5.72869e-08
6.12803e-09
-1.42591e-07
4.35447e-10
-8.66033e-09
5.25956e-08
1.62072e-08
2.16688e-10
-1.18947e-08
-1.19777e-08
2.75656e-05
8.74661e-10
-0.000849954
1.64924e-07
-0.00146644
1.12261e-08
7.62694e-07
0.00033939
-1.15175e-08
9.49447e-05
-2.89633e-09
-1.23041e-08
0.000112063
4.44149e-10
-3.7464e-09
1.08288e-08
-8.55423e-09
1.37973e-08
-1.9589e-08
0.000215182
6.84244e-11
-0.00135783
-5.10468e-09
-3.11076e-09
-1.7134e-08
5.3369e-05
9.37203e-10
-0.00158327
1.36298e-08
1.04927e-08
1.23866e-08
2.82004e-09
-5.65045e-09
-2.61293e-07
-0.000194278
-2.26683e-08
1.11243e-09
1.05616e-08
0.00032116
1.57808e-09
-5.91616e-08
-3.2053e-10
1.99246e-09
-1.36699e-05
2.88966e-08
-2.04159e-09
-0.000118002
-0.000709504
1.11807e-08
2.47212e-09
-0.000817867
8.859e-07
7.14015e-11
2.63553e-09
-1.79791e-08
-2.19729e-08
-4.78111e-09
4.69083e-07
5.9912e-10
2.54044e-09
-8.35485e-09
1.11902e-08
1.37118e-08
3.43807e-08
2.8186e-12
-0.000151557
-0.000168861
-0.000407881
-1.17355e-07
-0.000153368
1.68815e-08
7.0411e-07
1.08758e-08
3.10051e-09
8.53146e-10
6.54413e-07
-5.96183e-09
9.44644e-07
8.40209e-09
1.15155e-08
-8.48135e-09
2.27756e-07
-0.000248044
1.11102e-08
-7.58565e-10
-8.09327e-10
-1.18704e-08
1.59735e-08
-7.2721e-10
7.82818e-09
-0.000459825
9.7028e-09
-0.000161705
-3.25586e-09
9.52095e-09
1.00216e-08
-0.000208447
-1.60428e-10
-2.00243e-08
-0.000572335
1.86841e-08
-2.77046e-07
1.78352e-08
-1.345e-08
-2.53089e-09
-2.04271e-08
-1.27738e-08
-7.25105e-05
-9.38703e-09
-1.28162e-08
8.74905e-09
1.36896e-10
5.97386e-09
0.000558681
-3.46227e-10
-0.000378219
-0.000167333
2.59889e-08
-3.39698e-08
3.20298e-09
8.1935e-07
2.75287e-07
1.31789e-08
1.52176e-08
4.4545e-07
-5.52143e-09
-1.51085e-09
1.16953e-08
-4.10252e-10
-2.43474e-07
-1.06203e-09
-1.59029e-10
1.93515e-08
-1.84509e-08
2.18029e-09
-0.00130672
-1.78089e-08
7.52833e-07
7.11717e-09
4.65719e-09
-1.66501e-09
1.47523e-08
-0.000164958
-1.51702e-08
9.87572e-10
-0.000144689
-4.80698e-09
-4.03857e-07
1.24359e-05
-0.000107285
-0.000607122
-1.16407e-07
-0.000416494
-1.54962e-07
5.12469e-07
-7.67233e-05
-3.12368e-09
-1.70424e-05
4.35645e-06
3.10754e-09
3.91213e-08
-9.11707e-05
-3.71556e-09
7.46271e-09
6.49539e-09
8.24266e-10
3.8342e-09
4.59487e-07
4.9033e-07
-3.89619e-09
8.00271e-07
-7.3759e-05
1.06945e-09
-5.3955e-05
0.000214688
5.69464e-09
1.06099e-08
-3.93432e-09
-4.90292e-09
-1.69664e-08
1.61693e-08
1.20706e-08
1.96006e-08
-7.75526e-07
5.84535e-07
2.72872e-09
-0.000112514
-7.86685e-10
6.9811e-07
2.53429e-09
3.90444e-09
3.59174e-11
1.08992e-07
-1.22769e-08
1.14629e-08
-7.3869e-05
-4.49261e-10
-0.00128667
-7.42033e-08
1.14147e-08
-2.60782e-05
-1.55284e-08
-5.0661e-08
3.99492e-09
-1.77835e-08
1.6908e-09
-6.89789e-10
1.71264e-08
2.29313e-09
-2.13619e-08
1.804e-05
-8.67776e-09
-5.14831e-09
-5.99e-09
-5.62286e-10
1.22469e-10
-1.59704e-08
-8.60409e-09
-0.000335295
6.97438e-09
1.8603e-10
-7.22362e-11
6.15924e-09
0.000319977
-2.76626e-07
-0.00189992
1.09275e-08
4.85467e-09
-5.12094e-09
-7.03502e-10
6.52492e-10
2.50237e-09
-3.48692e-09
-2.02846e-08
-7.43388e-05
-4.87427e-07
-2.46704e-08
-2.87495e-09
0.000375645
-0.00117522
5.22938e-11
5.05598e-09
-1.257e-06
-4.21456e-10
3.57688e-09
9.7821e-09
3.1631e-08
-1.37876e-08
-1.3552e-08
-1.90881e-09
-3.534e-09
-3.5123e-09
-2.92723e-09
1.07832e-08
4.28265e-08
-1.69983e-08
1.94751e-09
-2.54546e-09
5.90891e-10
-1.31777e-07
-1.09912e-08
4.5068e-09
-0.000198533
-7.78091e-09
-1.08019e-09
9.32288e-10
1.11598e-08
7.64857e-09
3.82931e-09
-1.1825e-08
7.03505e-09
5.77483e-07
-0.00193154
2.37463e-10
-4.94185e-10
-0.000301775
7.24455e-05
-4.91434e-07
-2.37425e-05
2.39618e-08
1.05071e-08
3.54048e-08
-0.000161021
-2.00911e-09
-5.04252e-07
-7.27889e-09
0.000155164
2.13236e-07
1.96805e-08
3.46599e-09
-3.79739e-07
1.57613e-05
-1.36807e-08
3.48624e-07
-1.24973e-07
1.02608e-08
-1.32154e-08
-3.65198e-08
8.41942e-06
-0.000705625
-0.000209549
-3.65939e-09
9.66612e-10
-0.000162297
-1.55934e-07
3.43549e-08
5.09161e-08
-0.00059841
-6.74194e-09
-2.88165e-09
-1.42686e-08
-0.00010509
-2.42061e-08
-6.86142e-05
8.26302e-09
1.1032e-07
-1.06432e-09
-2.37461e-09
-1.31792e-08
7.83967e-10
1.9358e-05
6.7767e-09
5.58062e-09
-8.68672e-09
-0.00103444
-1.26485e-08
4.05108e-09
-0.00011769
0.000861359
-0.000520841
-0.000249678
-0.000390385
8.36638e-07
-2.14561e-09
-3.44376e-08
-0.00319292
2.5821e-05
5.14693e-10
1.41432e-08
9.25492e-11
1.25526e-08
1.14139e-09
-9.72061e-10
-2.7317e-10
-6.20743e-07
-1.63916e-09
0.000204966
0.000950819
4.43619e-09
-6.74557e-09
1.50608e-09
-1.0674e-08
-2.30721e-09
-8.27308e-06
-6.68706e-09
-1.17138e-07
2.69366e-09
7.43354e-08
1.82493e-08
-2.40667e-09
1.04357e-08
-2.85961e-09
-3.09931e-08
-1.59128e-08
-0.000534375
2.03964e-09
4.0045e-05
-6.78314e-09
5.25543e-09
-1.87679e-08
-1.36998e-07
-1.32045e-07
-4.29809e-05
-1.30188e-09
-1.40414e-08
-1.60587e-08
2.43354e-07
1.41439e-08
3.6845e-09
3.77955e-09
-0.00132284
-2.33774e-09
1.6885e-09
-7.64972e-05
-0.000137216
-9.89911e-09
0.000114817
-0.000228998
-0.000193305
0.000359179
-7.04825e-05
0.000119998
-1.7856e-09
-1.42283e-08
-2.75069e-10
2.52441e-09
-7.62751e-05
1.81962e-08
2.1058e-08
2.57505e-05
-6.67989e-09
-1.20832e-08
-4.68217e-07
6.59499e-06
-3.33865e-08
-1.09508e-08
-1.81502e-08
6.74113e-09
-7.42987e-09
2.72765e-07
4.04377e-10
-2.69931e-07
-1.24322e-08
2.53094e-09
1.33385e-08
0.00159082
1.18885e-06
4.24944e-09
8.3254e-09
-1.5657e-08
-2.07883e-07
1.85266e-07
-1.43028e-08
9.52715e-09
-4.20691e-08
-1.69397e-09
-7.47453e-09
1.69043e-08
-2.05705e-07
7.61281e-09
-2.74661e-09
4.31152e-09
-2.93329e-09
2.10982e-09
4.04179e-09
1.50508e-07
2.38372e-07
-1.88886e-08
-1.25988e-08
-3.4128e-08
-0.000146979
-8.34028e-05
6.77711e-12
5.06474e-09
8.20311e-10
-0.000456762
2.3634e-08
-1.81439e-08
1.14048e-08
2.71836e-07
3.8779e-05
-1.16378e-09
1.96012e-09
-3.05128e-09
0.000126224
-4.74978e-08
5.40429e-09
1.25737e-05
-1.46703e-08
2.73629e-09
4.4878e-09
1.27137e-05
5.98401e-09
-9.16305e-07
0.000516457
-9.83997e-10
5.04262e-09
3.16137e-05
2.64809e-09
-3.86008e-09
7.58719e-09
-0.000461309
-1.72603e-08
4.61084e-09
4.72015e-08
1.26642e-09
-2.05742e-09
1.25254e-08
3.27923e-09
-3.47861e-09
-0.000111272
-2.44267e-08
-1.08106e-08
1.13998e-08
-1.54856e-07
-1.11645e-09
-0.000732788
-1.43522e-08
4.72156e-08
-2.24012e-06
-7.35431e-09
-3.73173e-09
1.91898e-08
-2.8285e-08
-1.27421e-08
0.000129273
7.59671e-07
1.30973e-08
-1.65406e-05
-0.000243839
3.7949e-09
9.41533e-07
-7.96188e-07
-3.53928e-05
-1.80541e-08
7.42947e-09
-2.97828e-09
6.3068e-09
1.01222e-09
-8.83824e-07
-2.16444e-07
-4.61216e-10
-3.01494e-09
7.78972e-10
2.29697e-07
-1.1366e-09
-2.12112e-07
9.41686e-05
2.88639e-05
4.17446e-09
-0.000679419
-4.16994e-09
1.20072e-10
1.03527e-09
3.30888e-05
-1.46316e-08
-7.485e-09
4.93912e-09
3.57158e-08
-2.07836e-09
1.41267e-08
-0.00037845
1.73932e-09
3.61716e-07
-0.000118311
2.0541e-05
9.71403e-05
-6.454e-05
4.07332e-09
1.51361e-08
2.54238e-09
-4.14996e-06
6.19744e-10
7.6344e-09
1.07945e-08
9.23351e-09
-0.000160101
1.09141e-08
8.34527e-07
-1.36489e-09
5.73148e-09
-1.30336e-08
1.61696e-08
2.31527e-08
-7.77648e-09
-2.15278e-09
1.84195e-09
-1.23707e-08
-0.00012528
7.75862e-09
9.54783e-09
-1.74689e-08
-1.09783e-08
9.31767e-08
-5.51983e-10
-1.71955e-08
1.72358e-07
1.63173e-05
-0.00022392
-0.000120508
0.000648916
9.51142e-08
1.31536e-09
1.31011e-08
3.59113e-09
3.08317e-05
4.87192e-08
5.93809e-05
3.79239e-09
1.01042e-09
1.37389e-07
-3.05467e-09
9.65646e-05
-6.76203e-05
-7.97015e-05
1.01531e-09
4.95955e-10
2.89723e-09
6.28207e-10
-8.65731e-05
-1.37257e-08
5.19632e-10
-2.14422e-09
-0.000651538
-8.08504e-09
-9.72836e-09
5.12083e-09
0.00015192
-1.70273e-08
2.51939e-08
-5.47112e-05
5.92662e-05
1.31552e-07
-0.000226309
-1.91083e-05
-8.14028e-05
3.09296e-09
0.000107357
-1.74689e-09
-4.30817e-11
-4.78306e-08
-8.61448e-05
3.17939e-07
2.80416e-05
4.21661e-09
8.36653e-09
5.27426e-09
3.67968e-08
-7.60141e-05
1.52951e-08
0.000171887
-2.11708e-08
-2.97279e-05
0.000786338
-2.42114e-09
3.69532e-07
1.08221e-09
-1.7607e-08
1.25051e-08
-9.07709e-10
-0.00139832
-5.84332e-05
4.73645e-10
3.5608e-09
1.58401e-05
-1.73095e-08
1.69712e-08
6.0863e-05
1.31476e-07
-1.75386e-09
-3.30578e-09
-1.54936e-08
-2.74456e-09
-0.00020901
-7.75249e-09
1.11058e-08
-1.85418e-09
-5.96961e-05
-4.86025e-09
-7.61797e-10
-0.00136082
7.58516e-09
-1.66145e-07
-3.18659e-06
1.90772e-08
-1.39016e-08
-2.87435e-08
0.000101796
1.30141e-10
1.763e-08
-1.11688e-05
8.21471e-08
-1.39705e-09
2.37601e-07
-3.45642e-09
2.81209e-05
0.000114768
1.50003e-08
-0.00080303
1.75646e-09
-1.51961e-08
1.47872e-11
2.78144e-09
-2.55719e-09
6.72221e-09
6.44179e-07
1.68934e-10
1.16773e-08
-1.67832e-09
2.52888e-06
-0.000474016
-3.13387e-10
-2.66958e-09
0.000195628
2.18108e-05
1.56958e-08
6.39506e-10
1.39055e-08
3.44137e-09
2.35558e-09
-1.0658e-08
0.000227095
6.88791e-08
1.22952e-09
-0.000225628
-0.000136647
2.59792e-10
-1.62658e-09
-0.00157578
1.19451e-08
-2.6886e-09
6.07412e-05
0.000196903
-2.74523e-09
1.03837e-08
-1.16517e-05
-0.000266572
8.9229e-07
-1.36683e-08
6.92036e-07
-0.000105591
-1.44407e-09
3.51361e-09
8.29644e-09
-1.99593e-09
0.000413447
-1.38299e-08
-4.25023e-10
6.36406e-05
5.62166e-05
-1.03309e-09
-2.80313e-09
-4.9817e-05
-1.54586e-05
-5.44459e-10
-1.82901e-08
-1.4962e-08
-1.99758e-09
3.98758e-09
3.45177e-09
-0.000140479
-9.06702e-09
8.01873e-07
2.66508e-05
-1.88413e-09
5.72884e-10
-2.78749e-09
5.6124e-10
0.000170523
-0.00105432
-1.64835e-08
-1.32246e-07
1.40675e-08
-8.59766e-06
-8.97256e-08
3.69832e-09
-3.3119e-09
-1.24057e-09
-9.52579e-08
0.00059754
-2.37638e-09
1.74329e-09
2.65196e-09
7.31153e-09
1.66214e-05
-3.37054e-08
-3.75279e-10
3.4786e-10
-7.15959e-09
-8.971e-05
-6.6845e-08
-1.23723e-08
-1.47782e-08
-1.03909e-08
-0.000109952
-1.42992e-08
-1.28361e-08
-0.000205029
1.1436e-08
4.12385e-09
-6.62914e-10
8.28077e-08
1.58179e-09
6.36791e-09
0.000386254
4.52367e-08
-9.71911e-05
1.91283e-07
2.21966e-08
2.504e-05
6.22423e-09
1.43462e-07
-2.06934e-09
3.04281e-08
2.10906e-09
-1.85287e-08
-1.05965e-08
-0.0001337
-3.62998e-09
4.6345e-09
-0.000922478
2.49887e-08
7.34858e-07
1.34582e-09
-2.01295e-09
0.000172268
-7.59492e-08
1.53031e-07
-4.57969e-09
-7.55344e-07
-3.76981e-07
-6.14348e-08
2.19397e-08
0.000107094
-0.00153742
0.00102192
-2.87732e-10
4.18708e-09
6.42019e-09
5.8737e-08
3.05268e-08
-3.93335e-10
1.35825e-09
7.09679e-05
3.06425e-05
2.01773e-10
4.20828e-05
-2.01183e-08
7.2199e-08
-4.90798e-10
-7.64497e-11
1.31616e-09
-2.06102e-07
2.97655e-09
-9.42445e-08
-4.10271e-09
-8.07785e-10
0.000112285
-0.000320183
-2.31787e-09
7.15606e-08
-5.71875e-10
-3.42254e-09
2.28709e-08
-6.43925e-05
1.16046e-08
-3.83756e-10
-1.57088e-08
-0.000717622
7.89277e-05
9.13185e-09
0.000458619
1.95454e-08
-0.000146363
-1.85646e-08
-1.26552e-09
8.19025e-10
1.6134e-09
5.84287e-07
-1.65488e-08
1.47012e-09
1.20382e-08
2.07132e-08
-0.0010612
2.62197e-07
1.30527e-10
-2.86918e-09
1.65558e-08
-1.57691e-08
3.27759e-05
0.000146953
-3.10668e-10
4.6468e-05
1.75097e-07
-4.11251e-09
7.85821e-09
-3.28297e-09
3.74373e-09
7.97975e-09
3.73673e-09
-1.93841e-08
4.81042e-09
3.04245e-10
1.24739e-08
-1.15812e-08
0.000338981
1.09016e-08
1.62836e-08
0.000428047
1.67561e-08
-1.87198e-06
8.88005e-09
0.000566243
-1.6703e-09
1.74634e-05
0.000155776
-0.000222564
-5.53033e-09
2.21312e-08
-6.86426e-09
8.82042e-09
-4.14977e-06
2.70993e-06
-0.000107797
-6.15196e-09
1.8846e-09
2.43654e-08
-1.28985e-08
1.152e-08
-0.000534315
-2.97851e-08
-1.63119e-08
5.10773e-09
1.43483e-08
3.31188e-08
3.24084e-06
3.57953e-09
2.1955e-08
-0.00130306
4.75524e-09
4.1697e-09
2.65211e-08
-1.0332e-08
-0.000146659
3.40897e-09
7.98169e-09
-1.9723e-10
-1.20217e-08
-1.06012e-09
2.59341e-09
-0.000195963
-0.00062616
-6.41524e-05
5.85332e-09
9.81403e-07
-0.000204076
-1.95486e-09
-5.5666e-07
-1.73334e-09
2.15274e-09
-1.08314e-08
7.04643e-08
-1.43547e-07
-0.000224204
0.000158058
3.65799e-09
1.16562e-09
1.40514e-08
7.58158e-09
8.11154e-09
-0.00146835
-1.61582e-05
-7.08645e-05
-0.000744877
-7.71466e-09
-0.000233091
4.87863e-08
-7.032e-09
2.3747e-06
5.6586e-09
-3.78363e-09
-1.57293e-09
0.000386173
8.13704e-11
-4.73615e-07
-3.42415e-08
-0.000168508
1.36546e-08
-2.09966e-08
-0.000118113
3.84106e-08
-1.40604e-08
4.8216e-05
-1.12048e-08
-3.98848e-10
2.34525e-08
-4.64205e-10
-0.00120696
0.000428561
8.28135e-07
1.13025e-08
0.00188136
8.22274e-09