/*--------------------------------*- C++ -*----------------------------------*\
| =========                 |                                                 |
| \\      /  F ield         | OpenFOAM: The Open Source CFD Toolbox           |
|  \\    /   O peration     | Version:  v2012                                 |
|   \\  /    A nd           | Website:  www.openfoam.com                      |
|    \\/     M anipulation  |                                                 |
\*---------------------------------------------------------------------------*/
FoamFile
{
    version     2.0;
    format      ascii;
    class       volVectorField;
    location    "300";
    object      ddtCorrDdt0(U);
}
// * * * * * * * * * * * * * * * * * * * * * * * * * * * * * * * * * * * * * //

dimensions      [0 1 -2 0 0 0 0];


internalField   nonuniform List<vector> 
37190
(
(9.68089e-06 -1.08361e-05 -9.92516e-22)
(0.00173066 -0.00171935 -9.2673e-23)
(1.28184e-05 5.78681e-05 1.03757e-21)
(0.00037976 -0.000154816 -1.83636e-22)
(-0.00166294 0.00128049 2.92228e-21)
(5.17854e-05 -1.38814e-05 6.60323e-25)
(0.000472652 -9.47755e-05 1.30867e-21)
(0.000108062 -1.68195e-05 -2.80579e-21)
(0.000363088 -0.00012238 5.3686e-22)
(-0.00275167 0.00112059 1.20838e-21)
(2.22555e-05 -4.0658e-05 -1.02661e-21)
(1.04266e-05 1.62515e-05 2.68475e-21)
(0.000155558 -3.29588e-05 1.54402e-21)
(1.24676e-05 2.45408e-06 -7.31614e-22)
(0.00730958 0.00370154 8.19193e-22)
(7.51079e-05 -3.5276e-05 -8.12169e-25)
(9.49727e-05 -6.9195e-05 -3.82139e-22)
(0.000255454 -0.000387956 1.43767e-24)
(0.00559457 0.00376207 1.07187e-22)
(0.00593569 0.00138905 -1.89874e-21)
(0.000128711 5.65097e-06 0)
(9.62647e-06 -1.25552e-05 1.22495e-21)
(-0.00344022 -0.00275944 8.88199e-22)
(-1.34067e-05 0.000207275 -2.94394e-22)
(8.69257e-05 -0.000100299 -1.49875e-24)
(7.62458e-05 -3.12809e-05 -6.80421e-25)
(0.000307591 -0.000162978 9.64239e-22)
(-9.40411e-05 0.000810568 -1.82968e-21)
(0.00042824 -0.000827049 -9.36087e-22)
(0.000274677 0.00072656 -5.68372e-22)
(-0.000547746 0.000604902 6.94748e-24)
(3.13833e-05 -1.90229e-05 3.17834e-25)
(-0.000737238 0.000569623 1.1864e-21)
(-0.00174933 0.0029071 0)
(0.000470008 0.00158498 -1.67509e-21)
(0.000137749 0.000819831 1.76463e-21)
(7.05904e-06 3.67458e-05 7.569e-22)
(-8.06524e-06 0.000204045 0)
(6.11244e-05 0.00012512 1.80572e-21)
(5.12379e-05 -8.94316e-05 7.31389e-22)
(-0.00222469 -0.000760245 -4.74851e-22)
(-0.00469816 -0.00030051 8.6365e-22)
(7.69077e-05 -0.000102622 0)
(0.00135921 0.000502085 -2.67579e-21)
(1.08409e-05 -1.2877e-05 6.57041e-22)
(0.000491854 -0.00122072 7.76828e-22)
(-0.000137913 4.49704e-05 0)
(0.000783683 0.000382289 0)
(1.10928e-05 6.06007e-05 0)
(-0.00180354 0.00138546 -2.82892e-21)
(2.96142e-05 -0.000151381 1.03989e-21)
(6.1622e-05 -9.0649e-05 0)
(-0.00015787 0.000378639 -1.09676e-21)
(0.000191986 -0.000200968 4.54301e-22)
(1.3273e-05 -6.56029e-05 -5.2168e-22)
(5.88685e-05 4.93544e-05 -4.27773e-22)
(-0.00267244 0.00104276 -1.51489e-21)
(7.44623e-06 3.51055e-05 6.80554e-22)
(0.00703245 0.00121248 1.0712e-21)
(1.39066e-05 2.08106e-06 -7.11959e-22)
(0.00723398 0.00110064 -1.17317e-21)
(0.000117107 0.000831669 -1.11672e-21)
(-6.03289e-06 2.18723e-05 2.59944e-22)
(0.00161534 -0.00189676 1.53058e-21)
(0.000104494 -5.87075e-05 -9.58647e-22)
(7.74642e-05 -0.000100988 0)
(3.69795e-05 3.13563e-05 0)
(0.000229504 -0.000858706 -7.14039e-22)
(0.000243189 -0.000445557 2.8601e-24)
(-4.41213e-06 2.15057e-05 0)
(1.34258e-05 -6.49584e-05 2.21016e-21)
(1.08966e-05 -0.000147306 2.6076e-22)
(0.000195082 0.00011904 -2.31499e-22)
(5.74799e-05 -2.74947e-05 0)
(5.04648e-05 -0.000110244 0)
(8.4796e-05 1.95659e-05 -5.3593e-22)
(-0.00249528 -0.000586754 -5.86779e-22)
(0.000223341 -8.68357e-05 4.19969e-22)
(-0.00276075 -0.0010311 -1.25849e-21)
(0.000214348 2.74036e-05 -9.92213e-22)
(1.69799e-05 -1.16268e-06 5.67678e-24)
(0.000179579 -7.75444e-05 0)
(5.52277e-05 -2.87989e-05 0)
(0.000526273 -0.000425855 0)
(0.00107702 0.000891717 0)
(9.38465e-05 -7.12507e-05 0)
(0.0054615 0.00250277 8.13185e-22)
(0.00018361 0.000676574 1.77882e-21)
(0.0071814 0.00378186 -1.89701e-22)
(3.21804e-05 -1.93448e-05 -6.34696e-22)
(-0.00278505 -0.000554087 8.56864e-25)
(-0.000856178 0.00056336 -6.39553e-22)
(7.51252e-05 -9.99387e-05 -8.0747e-22)
(5.74379e-05 -1.73257e-05 7.41599e-22)
(3.42101e-05 -6.36829e-05 0)
(7.8839e-05 -9.67503e-05 -7.94346e-22)
(-0.0029152 -0.000931372 1.81203e-21)
(2.40827e-05 -1.39483e-05 3.96496e-23)
(0.000362477 -0.000146946 3.64356e-22)
(0.00142118 0.000978284 0)
(7.9962e-05 -0.000112526 -8.14179e-22)
(0.000500725 7.46331e-05 0)
(-0.00177527 -0.00213983 2.18226e-21)
(0.00198144 0.00119513 0)
(1.69699e-05 -3.03413e-05 1.49204e-21)
(9.24261e-05 -1.13101e-05 -8.67802e-24)
(-0.00392544 0.000450803 -6.43032e-22)
(1.76928e-05 -4.27256e-05 -9.46741e-22)
(3.72292e-05 2.96129e-05 0)
(0.00390613 0.00406248 1.34489e-21)
(0.000608184 0.00184024 0)
(0.00604578 0.00363534 0)
(5.44782e-05 0.000150958 -1.24474e-21)
(1.07496e-05 4.14968e-05 -4.9431e-22)
(7.01628e-05 2.17351e-05 1.6197e-21)
(1.73036e-05 1.03726e-06 0)
(0.000229839 -8.95967e-05 0)
(6.38142e-05 0.000124356 -7.12851e-22)
(5.10361e-05 -9.06166e-05 0)
(0.000117934 2.67875e-05 -1.36039e-21)
(4.17908e-05 -0.0001037 0)
(0.00948694 0.00016336 0)
(9.0064e-06 -3.26966e-06 0)
(9.03676e-06 -0.000146067 -9.75688e-22)
(2.53123e-05 7.07731e-06 8.80599e-22)
(0.0059563 0.000318331 2.73756e-23)
(1.11869e-05 3.93449e-05 0)
(2.4476e-05 7.12263e-06 -1.43349e-21)
(-0.00523163 -0.00157007 0)
(0.00023754 -0.000405519 9.22479e-22)
(2.45529e-05 6.45573e-06 1.76537e-21)
(-0.000103204 -0.00200788 -8.13588e-22)
(0.000121774 0.000180627 0)
(9.11601e-05 -9.03009e-05 1.10998e-21)
(-0.0018602 -0.00205745 1.30748e-21)
(5.38941e-05 4.41756e-05 3.39643e-22)
(0.00026862 -9.37606e-06 -1.24343e-21)
(0.000191161 -0.000897436 0)
(0.000457155 -0.00117554 0)
(5.90174e-05 -0.00012013 -1.06304e-21)
(0.000157454 0.000201134 0)
(-7.82824e-05 0.000833194 7.06186e-22)
(0.000352001 -0.000130872 1.48583e-21)
(9.58214e-05 -0.000101825 -1.70474e-21)
(3.3758e-05 -5.96448e-05 -6.64823e-22)
(8.36435e-05 2.11148e-05 1.04689e-21)
(-0.00173694 -0.00131957 0)
(0.000119972 2.07346e-05 -1.38395e-21)
(1.90051e-05 -0.000833956 3.71495e-22)
(2.10237e-05 8.92529e-06 0)
(2.84881e-05 -1.86066e-05 0)
(0.00019218 -0.000116577 0)
(0.00159378 0.00219604 1.74853e-21)
(1.92749e-05 2.27154e-06 2.69498e-21)
(0.00735467 0.00106727 -3.03641e-22)
(1.96273e-05 1.36432e-05 0)
(-0.00299631 -0.000998359 -3.63742e-22)
(2.30992e-05 -3.71078e-05 2.34689e-21)
(-0.00375862 0.000510189 0)
(0.000248345 -7.9814e-06 4.5154e-22)
(0.000178114 3.35118e-05 -7.48955e-25)
(7.16076e-06 -0.000110794 0)
(0.00310709 0.000351078 -5.52318e-22)
(0.00677566 0.0016359 0)
(0.000188188 -0.000117537 0)
(0.000115886 2.81356e-05 -8.26662e-23)
(0.00295611 0.00396992 -1.99984e-21)
(0.00137236 -0.000122155 0)
(0.00711093 0.000416779 1.89045e-21)
(-0.00236714 0.001229 7.53562e-22)
(5.31117e-05 4.42298e-05 6.86924e-22)
(0.00663227 0.00171219 8.7611e-22)
(8.07327e-06 -0.000110834 0)
(0.000155827 5.54198e-07 0)
(0.00942215 0.000148986 0)
(-0.000709515 0.00150781 0)
(7.31268e-05 -1.61033e-05 2.18981e-21)
(9.20039e-05 -7.88112e-05 8.72594e-22)
(0.00030775 5.55102e-05 0)
(-1.57563e-05 0.00022297 0)
(0.00130547 0.000495188 1.48041e-21)
(1.75329e-05 -4.07735e-05 0)
(1.8618e-05 -3.65188e-05 0)
(3.39133e-05 1.30652e-05 0)
(-0.0016952 0.00127588 -1.21842e-21)
(5.82448e-06 -9.91839e-05 -5.42989e-22)
(-0.000640267 0.000351339 0)
(0.000289988 0.000147131 0)
(-0.00329293 -0.00269013 2.91338e-22)
(0.00209775 -0.000971164 -3.60189e-23)
(1.71777e-05 -4.75017e-05 0)
(0.000192408 -0.000353638 -3.61217e-22)
(1.51335e-05 3.48301e-05 9.03195e-22)
(-6.72233e-06 0.000150157 1.44113e-21)
(-0.00385643 0.00313023 -8.84862e-22)
(0.000125573 0.000187348 -1.63992e-21)
(5.80267e-05 -7.53604e-05 0)
(0.000335697 -0.000164271 2.08777e-22)
(0.000720077 0.000688036 -9.06692e-22)
(0.00550166 0.00425436 -8.15027e-22)
(0.000574146 0.000346497 2.4361e-22)
(3.06373e-05 9.67011e-06 0)
(2.8292e-05 -1.52247e-05 7.99e-22)
(8.92725e-06 -8.81873e-05 0)
(0.00692963 0.00159203 8.31542e-24)
(0.000227888 -7.64954e-05 -7.8409e-22)
(0.000461932 -8.26184e-05 0)
(4.4679e-05 -0.000139112 5.30543e-22)
(4.15105e-05 -0.000101439 0)
(0.00538294 0.0024788 -8.01438e-22)
(1.8186e-05 -2.13709e-05 -1.63267e-21)
(0.0073777 0.000403611 1.04416e-21)
(3.11011e-05 9.4966e-06 -7.45555e-22)
(0.000201309 -4.73337e-05 3.55349e-22)
(-0.000165033 -0.00208762 2.69192e-22)
(-0.00275516 -0.00254764 0)
(-1.8155e-05 -0.000799201 -4.96108e-22)
(-7.49483e-05 -0.000665855 0)
(-0.00185975 0.00287276 2.90144e-22)
(2.12024e-05 -1.50346e-05 9.32556e-22)
(0.00730108 0.00113677 -6.02697e-22)
(1.04907e-05 1.47875e-05 -3.16045e-21)
(5.01481e-06 -6.21695e-05 1.638e-22)
(0.000156071 -0.000374216 0)
(-0.00239205 0.00139073 0)
(4.7379e-06 -1.25259e-05 -2.4157e-22)
(-0.00209564 -0.0010234 0)
(3.49776e-05 -6.40848e-05 -9.38209e-22)
(0.000198114 -3.02319e-05 8.15517e-22)
(-0.0003131 0.00014837 -1.34103e-21)
(7.25963e-05 -0.000111348 -7.30787e-22)
(2.57377e-05 -0.000100427 -2.82205e-21)
(1.3087e-05 3.12174e-06 -1.45678e-25)
(0.00511484 0.00261084 -5.39207e-22)
(0.000232571 -5.428e-05 0)
(0.00106745 0.000611645 1.23165e-21)
(0.000654886 -0.00027307 0)
(0.00132777 0.000484623 9.49226e-22)
(-2.27551e-06 1.94078e-05 2.96944e-22)
(7.08419e-05 2.42485e-05 -1.41098e-21)
(0.000344854 2.70479e-05 6.02856e-22)
(5.42257e-06 -9.9825e-05 -2.38183e-22)
(0.00709095 0.00148845 -9.30508e-22)
(6.35013e-05 -8.3891e-05 4.22772e-22)
(7.15261e-05 -2.79711e-05 0)
(-0.000757461 -0.000506126 1.14523e-21)
(2.36314e-05 -7.84605e-06 -6.33648e-22)
(-0.00194473 0.0012618 0)
(-0.000775113 0.000551665 1.22463e-21)
(0.00084718 -0.000346473 4.22959e-23)
(6.25567e-05 4.57171e-05 -1.21955e-21)
(-8.5788e-05 0.000885324 0)
(2.43079e-05 -9.74629e-05 2.40113e-21)
(0.000174605 -8.20506e-05 1.21174e-21)
(0.000178967 -1.11383e-05 -1.02981e-21)
(9.36509e-06 -8.70739e-06 -1.08448e-21)
(0.000183965 -0.00033848 0)
(7.49495e-06 -9.77746e-05 1.04037e-21)
(0.000263277 -1.21977e-05 1.95649e-21)
(2.26969e-05 -6.6819e-06 -6.57335e-22)
(-0.00208105 0.00134206 7.33872e-22)
(0.000188279 0.000201559 1.23053e-21)
(2.01323e-05 9.40449e-06 -9.08213e-23)
(-0.000359887 0.000812941 -8.87064e-22)
(9.72393e-05 6.54356e-05 0)
(3.5823e-05 2.89372e-05 2.03454e-22)
(1.86718e-05 2.07286e-06 0)
(6.74924e-05 -0.000109265 7.49341e-22)
(-0.00226194 0.00131144 0)
(8.73817e-06 3.38372e-05 -7.4514e-22)
(-0.00195502 -0.00148107 8.49201e-22)
(0.00260675 0.00348631 2.73333e-22)
(-0.00194139 0.00274457 -5.79942e-22)
(0.000186894 -0.000207733 4.67099e-23)
(-0.000383965 -8.82657e-05 -1.29189e-21)
(7.07668e-06 7.16778e-05 7.61885e-22)
(5.02269e-05 4.06529e-05 9.97925e-22)
(-0.00496881 0.000254745 7.03261e-22)
(8.41422e-05 0.000429954 1.23209e-21)
(0.000156698 0.000210273 9.54678e-22)
(0.000439092 -0.00081602 -1.06876e-21)
(1.43966e-05 -0.000146053 -2.56503e-21)
(-0.000169979 -7.95573e-05 5.99975e-22)
(-0.00219034 -0.000860017 -4.5372e-22)
(9.43757e-05 6.43377e-05 -1.23256e-21)
(0.000192909 9.90077e-05 0)
(1.39218e-05 8.78529e-05 1.99126e-21)
(1.20598e-05 -0.000144522 1.50926e-21)
(0.000460974 -6.98777e-05 1.30777e-23)
(8.19738e-06 -1.32885e-05 1.12586e-21)
(-7.65427e-06 0.00011261 -1.97562e-21)
(0.000141353 0.00164622 2.929e-22)
(0.000151168 -0.00036318 0)
(0.00031327 -0.000130534 8.77203e-22)
(-0.000401567 -7.83356e-05 2.15128e-21)
(5.83907e-06 -2.0532e-05 -3.54705e-24)
(6.28114e-05 4.49958e-05 0)
(-0.00180649 0.00135561 0)
(0.000380212 0.000353093 0)
(9.49827e-06 3.16249e-05 0)
(-0.00300487 -0.000928543 0)
(0.00387665 -0.0027441 -7.83723e-22)
(4.35013e-05 -0.000132167 3.49328e-22)
(-0.00156303 0.00185761 -1.94821e-21)
(3.35355e-05 2.28954e-05 7.65872e-23)
(1.32318e-05 3.5164e-05 -2.33927e-21)
(3.61429e-05 3.01941e-05 -5.52052e-23)
(6.52526e-06 -9.83752e-05 -4.98924e-22)
(0.000981391 -0.000308529 0)
(0.000153663 2.07445e-06 3.95401e-22)
(9.01418e-07 -3.12888e-05 4.36134e-22)
(-0.002507 0.000544961 3.0558e-21)
(0.000228131 -5.61517e-05 -1.57236e-21)
(0.000499858 9.36068e-05 -8.41741e-22)
(0.00137834 0.000415103 1.11543e-21)
(0.00108018 -0.000273734 -1.20063e-21)
(0.000183883 -7.68985e-05 -1.6153e-21)
(-0.00533042 -0.001722 0)
(0.000305531 -8.14822e-05 -1.76778e-21)
(1.24018e-05 3.77212e-05 0)
(4.13819e-06 -1.45758e-05 2.29465e-24)
(0.000108393 -0.000215908 0)
(-0.0019218 0.00263446 0)
(7.0217e-05 4.48582e-05 0)
(-0.00214034 -0.00261465 -5.16733e-22)
(-0.00126467 0.00220046 -1.33056e-21)
(0.000326456 -0.000285897 -1.1085e-21)
(0.000764126 0.000705201 1.38969e-21)
(1.89394e-05 -8.32183e-06 0)
(-0.00114427 -0.000974462 -4.50144e-22)
(0.000219579 -2.27585e-05 0)
(0.000357121 0.000376328 -4.47649e-22)
(7.03951e-05 1.89761e-05 -6.46856e-25)
(0.00126425 0.0042497 0)
(0.00148848 0.00217489 -2.23256e-21)
(-0.00491394 0.000274347 8.98427e-23)
(-0.00516792 9.19043e-05 0)
(0.000281331 -0.000331021 -8.82826e-22)
(0.000106319 2.26269e-05 1.3407e-21)
(0.00165992 -0.00187305 -7.92358e-22)
(9.60621e-05 -4.32878e-05 1.82607e-21)
(-0.00148994 0.00188791 1.60511e-21)
(6.93897e-05 2.2313e-05 0)
(5.63007e-05 5.00877e-05 0)
(-0.0037963 0.000649893 -8.40695e-23)
(0.00056587 0.000321161 2.74084e-22)
(-0.00231531 0.00134705 -1.50729e-21)
(2.82184e-07 -3.07764e-05 -4.65866e-22)
(3.37061e-05 -4.41285e-05 9.47061e-22)
(1.8009e-05 1.44271e-05 -2.46232e-21)
(1.71107e-05 -6.28962e-05 1.33941e-25)
(-0.00255857 -0.0014293 5.95796e-22)
(6.07859e-05 -1.8351e-05 -1.24774e-21)
(4.28134e-06 7.40753e-05 0)
(0.000168767 -7.04719e-05 7.11528e-23)
(0.00179343 -0.00041554 0)
(3.10834e-05 2.66327e-05 1.35744e-21)
(0.00625479 0.00314086 7.51727e-22)
(0.00010905 -6.31986e-06 1.72473e-21)
(0.000108833 -1.44553e-05 2.17106e-21)
(0.000245964 -2.78659e-05 -8.32666e-22)
(-0.00232753 -0.00101674 1.35641e-21)
(0.000149016 -2.72714e-05 1.05601e-21)
(-0.00369413 0.000617237 0)
(0.000171586 -4.01416e-05 1.22171e-21)
(0.000508355 -0.000450928 1.8444e-21)
(2.29106e-05 -9.91472e-05 0)
(2.01943e-05 7.0628e-06 0)
(0.000191083 0.00151354 -6.37048e-22)
(0.000201043 -4.83166e-05 -1.19595e-21)
(9.56034e-05 -4.32533e-05 -1.39797e-21)
(0.000141051 -0.000363983 -4.83045e-22)
(0.000169245 -3.64826e-05 1.81905e-21)
(0.0041605 -0.0025553 6.99812e-22)
(0.000122201 2.11852e-05 0)
(-0.000636193 0.000442037 -1.61131e-21)
(0.000849181 -0.000380953 -9.46648e-22)
(0.00217818 -0.000962262 -5.87394e-22)
(0.000727807 -0.000470092 0)
(-0.00247859 -0.000922942 -1.67673e-21)
(0.00322082 0.000590809 0)
(-0.000463676 -0.000193241 -1.59486e-21)
(0.00721972 0.00163771 0)
(0.000194751 -3.48818e-05 -1.03283e-21)
(0.000449177 -6.39226e-05 0)
(0.00623101 0.00276714 0)
(0.000350261 -0.00016418 -1.1955e-21)
(0.000197259 -3.0735e-05 -5.13658e-25)
(0.00101918 0.000633223 0)
(0.000109353 -0.000219295 -6.46433e-22)
(-8.75415e-06 0.000111377 1.87593e-21)
(-0.00142961 0.00093524 0)
(0.000198899 -2.048e-05 -2.90295e-22)
(7.09916e-05 2.29564e-05 -9.05392e-22)
(9.40791e-05 -8.41897e-05 -2.06919e-21)
(3.32672e-05 2.39816e-05 0)
(-0.00127876 -0.000192841 -9.23713e-22)
(0.00015594 -3.30946e-05 -7.08096e-22)
(7.65756e-07 -1.98453e-05 -7.57934e-25)
(-9.48235e-05 -0.000619216 0)
(2.01e-05 5.68779e-06 0)
(-0.00259401 -0.00101179 1.60321e-21)
(0.000123883 -1.46802e-05 0)
(4.28885e-05 -0.000106367 1.45467e-21)
(9.69587e-05 -8.0925e-05 9.63861e-22)
(1.85173e-05 -6.73334e-06 -2.2608e-22)
(1.79759e-05 -9.44257e-06 -5.14513e-22)
(-0.00147401 0.00130723 -1.93829e-21)
(0.000103948 2.2882e-05 -2.56108e-21)
(2.04084e-05 4.90947e-06 0)
(8.11964e-05 6.66597e-06 -5.19151e-22)
(-0.00272923 0.00513009 6.80045e-22)
(0.00075305 -0.000270813 -5.55972e-25)
(1.37457e-05 8.49999e-05 -1.16425e-21)
(6.93102e-05 1.69784e-05 -1.17192e-21)
(2.21165e-05 9.74382e-07 -4.11621e-22)
(0.000406957 0.000303202 1.48123e-21)
(2.49248e-05 7.7257e-06 0)
(1.14186e-05 2.8047e-05 0)
(2.39298e-05 -2.23881e-05 -1.05953e-21)
(-0.00242526 -0.00110693 -1.22437e-21)
(-0.000494863 -0.000157403 1.68969e-21)
(0.00646458 0.00270791 -9.08677e-23)
(3.28162e-05 -4.56727e-05 -2.1359e-21)
(1.05398e-05 3.04466e-05 0)
(-6.41007e-05 -0.00059076 0)
(-0.0020552 0.00115192 1.284e-21)
(1.7191e-07 -5.88159e-07 -9.11601e-22)
(0.000117787 -1.9659e-06 6.80022e-22)
(4.62081e-05 -4.34277e-05 8.8579e-22)
(0.000631953 -0.000520399 -3.33204e-22)
(2.01863e-05 3.69778e-06 -1.56673e-21)
(0.000126093 -1.32366e-05 1.68033e-24)
(0.000376764 -6.76009e-05 0)
(1.79796e-05 -0.000155363 2.12906e-21)
(-0.00181392 -0.00137694 -7.1432e-24)
(1.96594e-05 1.11049e-06 0)
(-0.000186233 -6.09366e-05 0)
(9.18699e-05 -8.32344e-06 6.59919e-23)
(6.02815e-05 3.55796e-05 0)
(8.57487e-05 -6.75275e-05 -1.18657e-21)
(3.43239e-05 1.20962e-05 0)
(0.0014828 -0.00195277 7.19508e-22)
(9.12294e-05 -7.59778e-05 -1.51071e-21)
(6.93272e-05 4.29474e-05 -4.52191e-22)
(0.00543385 0.00218724 -1.1733e-21)
(0.00703176 0.001549 -1.35147e-21)
(1.76493e-05 4.31181e-06 -1.74984e-21)
(-0.00235 -0.00259251 -1.00917e-21)
(9.00695e-05 -1.78734e-06 0)
(0.000384167 0.00026391 0)
(-0.00138237 0.00204783 -1.55577e-21)
(1.80002e-05 8.55863e-07 -1.48035e-21)
(-0.00142976 0.00144143 1.29985e-21)
(2.43288e-05 -1.09264e-05 -1.35332e-21)
(0.00351333 0.000671662 0)
(1.58012e-05 3.19711e-05 -9.48998e-22)
(6.31884e-06 -2.22111e-05 0)
(0.000180209 -6.04837e-07 1.56687e-21)
(1.88025e-05 1.3833e-05 1.80886e-21)
(0.00172238 -0.00181249 0)
(0.000210464 0.000412004 -1.51923e-21)
(8.74372e-06 5.1477e-07 0)
(0.00439277 -0.000364825 -8.83205e-24)
(0.000275266 -0.000893855 1.43075e-21)
(1.93582e-05 -8.80125e-06 -7.03527e-23)
(-0.00217574 0.00133137 0)
(0.00282205 -0.000567115 1.02786e-21)
(8.65475e-05 4.06021e-05 8.02351e-22)
(4.27668e-05 2.10148e-05 1.21364e-21)
(0.000394006 0.000292089 -1.50738e-21)
(-0.00189767 0.00106763 1.29161e-21)
(0.00148402 0.0010489 0)
(0.00145434 -0.0011991 -1.45485e-21)
(0.00359351 0.00581134 -1.03594e-23)
(-0.0022357 -0.00270018 0)
(0.000241112 -2.89435e-05 8.41285e-22)
(-0.0022077 -0.00030465 -6.60986e-22)
(2.82581e-05 -0.000152515 -1.05229e-21)
(5.12274e-05 -1.18788e-05 -1.29755e-21)
(1.78051e-05 2.82106e-05 0)
(9.05199e-05 3.60482e-05 8.78178e-22)
(0.00662346 0.001677 9.14385e-22)
(0.00295106 -0.000430738 -1.21564e-21)
(4.31334e-05 3.8782e-05 1.02965e-21)
(7.54228e-05 0.000434621 -8.18429e-22)
(-0.000227999 -5.33739e-05 0)
(5.98354e-06 -6.50873e-05 0)
(-0.000328689 0.000172005 0)
(0.00019522 -3.6589e-05 8.94649e-22)
(5.3657e-05 0.000117663 1.49215e-21)
(0.000164969 -7.10424e-05 -7.59781e-23)
(5.88902e-05 3.67238e-05 -7.96834e-22)
(-0.00224066 0.000139777 -1.76505e-21)
(0.00105286 -0.000311404 1.13727e-21)
(0.000197071 -0.000203936 0)
(6.89124e-05 4.38149e-05 3.83198e-22)
(4.60206e-05 4.15494e-05 -1.12767e-21)
(0.00210509 -0.000248179 0)
(0.00316504 0.000310051 7.22982e-22)
(0.000120969 -2.24376e-05 1.10367e-22)
(3.65286e-06 -1.77402e-06 4.74137e-22)
(9.28054e-05 3.54784e-05 -1.01062e-24)
(0.00722327 0.00486278 7.20193e-22)
(0.000220767 -8.37053e-05 -8.60699e-22)
(-0.00460643 -0.00036881 1.55134e-21)
(0.00231802 0.00627756 -1.92609e-21)
(-0.00577892 -8.30501e-05 5.87388e-22)
(-0.000379263 0.000890983 1.07371e-21)
(1.55054e-05 -0.000155444 -1.73745e-21)
(0.00548853 0.00224476 1.0184e-21)
(3.13723e-06 -1.30996e-06 7.71486e-22)
(0.0031456 0.0036484 -1.25834e-21)
(-8.83302e-07 7.9788e-05 0)
(0.000648466 -8.19764e-05 -1.12479e-21)
(-0.0019158 -0.00275673 1.44126e-21)
(0.000210236 0.000398131 1.56029e-21)
(5.86943e-06 7.16827e-05 -1.4698e-24)
(1.99053e-05 4.46411e-06 1.64569e-21)
(0.00093863 -0.000171993 0)
(0.000171406 8.50826e-06 0)
(0.00104929 0.000782951 -1.4137e-21)
(0.00489521 -0.0005275 1.92387e-21)
(0.00200358 0.00430415 0)
(7.03919e-05 -2.90127e-05 9.64823e-23)
(0.000201751 -1.30333e-05 -4.50494e-25)
(0.000222545 -2.28484e-05 0)
(9.4175e-05 -7.53987e-05 1.68507e-21)
(0.000666952 -9.34179e-05 1.16897e-21)
(1.53142e-07 -4.5827e-06 0)
(0.000368499 -6.07701e-05 0)
(1.73943e-05 1.05119e-05 -6.47134e-22)
(0.00488561 0.00594231 0)
(2.96607e-05 -3.45875e-05 1.08773e-21)
(8.30699e-06 -1.48113e-05 -1.00958e-23)
(0.00204521 0.00120623 5.91007e-22)
(3.11868e-05 -2.05353e-05 0)
(1.79542e-05 -3.26109e-05 0)
(5.94284e-05 -7.2753e-05 -2.24807e-21)
(7.56796e-05 -0.000112239 1.71884e-21)
(1.2852e-07 -3.45862e-06 1.1446e-22)
(3.57896e-07 -1.48023e-05 0)
(0.000289088 -0.000341361 6.63475e-22)
(0.000138317 7.28162e-06 0)
(0.00900435 0.000425685 0)
(1.90005e-05 2.51354e-06 0)
(-4.3249e-05 0.00020732 2.90248e-21)
(0.000428141 0.000423959 -1.07812e-21)
(0.000187137 -0.000217845 -2.42541e-22)
(4.22647e-05 2.07011e-06 0)
(2.26945e-05 -2.01775e-05 0)
(-1.90223e-06 0.000218496 1.41816e-21)
(0.000188185 -6.8126e-05 -1.01283e-21)
(-0.00260064 0.00124492 0)
(0.000302181 0.00153734 -3.15375e-22)
(1.6682e-05 -1.83607e-05 1.07284e-21)
(5.87737e-05 0.000146455 2.77329e-21)
(-0.000671785 0.000404988 -9.16424e-22)
(0.00550984 0.00426115 0)
(1.90237e-05 -7.80493e-06 0)
(1.38458e-05 2.03547e-05 -1.28655e-21)
(0.000937887 0.000293774 -1.88607e-21)
(0.00539038 0.00265711 0)
(0.00392379 0.000637654 3.28859e-22)
(-0.00234764 0.00129627 -7.41482e-22)
(9.10638e-05 -2.04042e-07 0)
(0.000230658 -7.43972e-05 -7.06515e-22)
(5.67835e-06 -4.97708e-06 -1.5603e-21)
(0.00915685 0.00036533 1.67423e-22)
(0.00200173 -0.00281642 7.55829e-22)
(1.3369e-05 0.000271065 0)
(0.00011894 -2.40164e-05 -1.04167e-22)
(-0.00365109 0.00486151 -7.17588e-22)
(0.000539622 -0.000454253 6.57197e-22)
(5.16117e-05 4.15052e-05 0)
(-0.000107027 -0.000707683 -7.40522e-22)
(-0.00220683 0.00122177 -7.94656e-22)
(0.00664767 0.00315714 0)
(6.87465e-05 4.5179e-05 -1.16639e-21)
(0.000451468 0.000418209 1.1223e-21)
(0.000432261 0.000329655 -1.30747e-21)
(6.9982e-05 2.17041e-05 2.76698e-21)
(6.05226e-05 0.000130513 4.06819e-22)
(4.03766e-05 -9.85433e-05 7.51456e-22)
(-0.0022984 -0.000505569 1.2587e-21)
(0.00686274 0.00514249 -3.56994e-22)
(4.09596e-05 2.01986e-05 0)
(-0.00270079 -0.00134586 -5.52126e-22)
(0.00793606 0.00358382 9.65698e-22)
(2.37579e-06 -3.06122e-05 1.19477e-21)
(0.000217077 -0.000326027 0)
(2.52552e-05 -1.24582e-06 6.69804e-22)
(0.000212996 0.00145353 -4.88384e-22)
(0.000264138 0.000125451 9.57791e-22)
(2.33919e-05 -5.3332e-06 6.433e-22)
(0.000865721 0.000571265 0)
(0.00609731 0.00293322 0)
(0.000282471 0.000127905 -1.0273e-21)
(0.00112554 -0.000304591 -1.2243e-21)
(2.5532e-05 -8.79619e-07 -8.44475e-22)
(9.15147e-05 -5.28023e-05 1.38592e-21)
(9.21263e-06 0.000266598 -7.42643e-22)
(0.000161857 -6.7637e-05 1.49832e-22)
(0.000174378 9.2626e-06 -4.93529e-22)
(0.00084386 0.000102829 -9.29151e-22)
(2.84093e-05 -2.42517e-05 -7.8665e-22)
(0.000359418 0.000360021 0)
(7.9231e-06 -8.76809e-05 0)
(0.00647551 0.00175484 0)
(0.000183624 -0.00012834 -1.2601e-22)
(3.42292e-05 -4.41022e-05 1.7782e-21)
(0.000614089 -0.000109583 -1.31216e-21)
(1.44071e-05 6.51307e-06 1.1076e-21)
(-0.00284367 0.000793965 -1.28065e-21)
(-0.000358997 -7.57507e-05 0)
(1.68847e-05 4.72876e-06 0)
(0.00167197 -0.00168476 0)
(1.28803e-05 2.41305e-05 -8.16691e-25)
(8.12842e-05 4.48669e-06 -4.95309e-23)
(-2.85456e-06 0.000215176 1.32202e-21)
(1.69313e-05 4.45361e-06 -7.96477e-22)
(6.63683e-05 -3.76618e-05 3.2721e-22)
(0.000204768 -1.2295e-05 -1.08138e-21)
(3.41235e-05 -4.39684e-05 -2.26754e-21)
(0.000448527 -4.88595e-05 -2.16281e-22)
(4.88626e-05 -3.87812e-05 -1.44318e-21)
(-0.000351108 0.000764047 2.87773e-22)
(0.00762987 0.00361202 -1.63235e-22)
(2.30746e-05 -8.38437e-06 -8.51291e-22)
(3.73184e-05 -7.52257e-05 8.75248e-22)
(0.00593714 0.00375538 -4.27891e-22)
(9.61166e-07 -1.87075e-05 3.69481e-25)
(1.22664e-05 2.6645e-05 -7.67847e-22)
(0.000335584 -0.000886094 -2.08764e-21)
(0.000176265 -0.000237067 -6.49188e-23)
(6.7096e-05 -0.000198805 -3.89751e-22)
(9.64692e-05 7.4937e-05 -8.21551e-22)
(0.000115504 -2.4465e-05 0)
(5.72408e-05 -2.14235e-05 -2.78016e-21)
(5.17399e-05 -0.000126389 8.33586e-22)
(0.00119416 0.00617125 2.08357e-21)
(0.00508056 0.00143221 0)
(-0.00148066 0.00200431 1.29381e-21)
(0.00622205 0.00131959 0)
(-2.82908e-06 1.99e-05 -2.83796e-25)
(-0.0015452 0.00256931 -2.463e-24)
(2.7986e-05 -0.000152726 1.05781e-21)
(0.000135784 1.48413e-05 -7.75777e-22)
(-0.000227109 0.0011647 5.20768e-24)
(0.00131139 0.00226 3.86104e-22)
(0.000366837 -4.44362e-05 -1.22432e-21)
(2.38481e-05 -9.86129e-06 0)
(0.00141187 0.00227964 0)
(8.95158e-05 -8.59554e-05 0)
(0.00271852 0.00446837 1.04892e-21)
(-0.000881039 0.00157188 0)
(0.000187917 -0.00012877 1.55187e-21)
(0.00479776 0.00103235 3.36067e-22)
(9.24602e-05 -6.24683e-06 0)
(-0.000371816 -8.55652e-05 0)
(0.00048912 -0.000409194 5.04227e-22)
(0.000133149 1.62333e-05 0)
(0.000200404 -1.67044e-05 -1.07799e-21)
(0.000246042 -6.0724e-06 9.57696e-25)
(0.000267108 -5.30435e-06 -9.57745e-22)
(0.000172133 0.000229526 2.04869e-21)
(-1.78411e-06 1.5881e-05 -5.68739e-22)
(-0.000265554 0.00128863 0)
(2.68821e-05 -2.17901e-05 1.47628e-21)
(0.000233962 0.00155554 -3.19226e-22)
(0.000339305 -0.000123515 0)
(4.82449e-05 -4.10991e-05 0)
(9.49847e-05 6.27064e-05 -1.43399e-21)
(-0.00487003 0.000269562 1.53159e-21)
(1.73478e-05 -5.76342e-05 -1.25136e-21)
(1.88161e-05 3.29056e-06 -8.59953e-24)
(0.000944516 0.000834196 0)
(5.16878e-05 -0.000115264 -9.73528e-22)
(5.32816e-05 4.24581e-05 0)
(0.000817638 -0.000409071 0)
(-0.000204019 -7.12449e-05 -8.55669e-22)
(0.00889519 0.000508608 -1.24204e-21)
(0.000262717 0.000114852 -1.0204e-21)
(9.2253e-06 6.61348e-06 0)
(0.00650295 0.00127396 0)
(0.000716211 0.00115048 0)
(0.000594466 0.000965966 0)
(9.39267e-05 -7.56648e-05 -9.64029e-22)
(0.000283926 0.000117735 -1.35209e-21)
(0.000820368 0.000126633 0)
(0.000130043 1.91985e-05 -7.02436e-22)
(0.00220198 -0.000272364 1.01536e-21)
(2.44536e-05 -0.000101753 1.77903e-22)
(-0.000224592 -6.38488e-05 -2.6392e-21)
(6.27921e-05 -8.59892e-05 -4.63939e-22)
(-0.00230841 3.523e-05 -5.92956e-22)
(2.87994e-05 -0.000152006 1.05663e-21)
(0.000196517 -3.49082e-05 -3.4698e-22)
(-0.00213088 0.000178095 0)
(4.50333e-06 3.91723e-05 0)
(0.000235724 -0.000524301 1.06726e-21)
(5.12555e-06 3.91163e-05 -2.5324e-25)
(6.12443e-05 -6.72419e-05 1.2715e-24)
(-0.000481084 -0.00200918 -6.11444e-22)
(6.79906e-05 2.07235e-05 -1.15351e-21)
(-0.000406777 -7.71759e-05 -1.94406e-21)
(2.36383e-05 1.80845e-06 0)
(0.00138321 0.00431489 1.13493e-21)
(5.99647e-05 -2.04388e-05 1.40615e-21)
(2.27942e-05 3.44977e-08 -3.89466e-22)
(0.000621 -0.000213186 -6.25896e-23)
(1.2336e-05 2.82246e-06 -2.36281e-22)
(-0.00293826 -0.000600776 -1.74485e-21)
(5.38628e-05 4.33358e-05 0)
(0.000189381 -6.95788e-05 4.32436e-22)
(7.42802e-06 -2.02036e-05 1.00719e-23)
(2.87929e-07 -9.5712e-07 7.93847e-22)
(0.00113966 0.00232138 2.45335e-21)
(0.000290226 -0.000452125 9.34545e-22)
(0.00562824 -7.27803e-05 3.06222e-22)
(-0.0023972 -0.00127368 -1.21202e-21)
(-0.000419052 -7.42629e-05 1.41275e-21)
(0.00183299 -0.000201851 1.71516e-21)
(-0.000774727 0.000940189 -3.28712e-23)
(5.79132e-05 3.01156e-05 0)
(9.47018e-05 3.13069e-05 1.14582e-21)
(0.000880195 0.000355097 0)
(0.00635907 0.00292961 0)
(3.67754e-05 -7.40265e-05 -3.39255e-22)
(-0.000220566 -5.92185e-05 -5.45628e-23)
(0.00566268 0.00139364 -1.14537e-21)
(-0.000658712 0.000377421 -9.50961e-22)
(0.000194688 -2.73229e-05 1.86952e-21)
(9.7563e-05 0.000394697 -2.98637e-22)
(0.0054475 0.00448835 -1.42681e-21)
(4.89556e-05 4.09072e-05 -1.22394e-21)
(0.00023204 -0.000402921 1.42448e-24)
(0.0067083 0.00115686 0)
(0.000373498 -5.08817e-05 1.34007e-21)
(0.000825412 0.000376248 0)
(0.00512593 0.00444062 -3.63703e-24)
(-4.5412e-05 0.000203376 -2.292e-21)
(0.000150216 4.33923e-06 1.90888e-21)
(1.65409e-05 2.54676e-05 0)
(0.00717893 0.00476712 4.18339e-22)
(0.00194058 -0.00161151 3.96537e-22)
(1.36977e-05 1.86788e-05 2.18328e-21)
(0.00040037 -0.000515801 -2.73314e-22)
(-0.000416686 -0.000197297 4.32644e-22)
(0.000196986 0.000201836 3.77218e-26)
(-0.000386908 -7.53496e-05 3.89879e-22)
(0.000163867 0.000838298 -4.35593e-22)
(-0.00488326 0.000270045 -1.87635e-21)
(4.40572e-05 -0.000110554 -1.61424e-21)
(0.000780439 -0.000412365 0)
(0.000520941 -0.00041096 0)
(0.00237031 -0.000219135 -5.32128e-24)
(0.000201471 -2.00857e-05 2.64728e-22)
(3.9724e-05 -5.81789e-05 1.89985e-21)
(-0.00218236 -0.00163198 -1.73811e-22)
(0.000461224 0.00164679 0)
(0.000227281 -6.19421e-05 -8.925e-22)
(2.01605e-05 -5.05026e-05 -2.98724e-22)
(0.000183318 4.19047e-05 1.15549e-21)
(9.05157e-06 5.41953e-06 0)
(0.00064901 -0.000249648 -1.03215e-21)
(4.23489e-05 -0.000133458 6.07185e-22)
(0.000103278 2.2207e-05 1.06831e-21)
(0.00012413 9.08191e-06 0)
(2.81353e-05 -0.000135602 8.52755e-22)
(0.000140415 1.26544e-05 -1.50777e-21)
(-0.000331499 0.000774648 0)
(0.00038447 0.000333266 0)
(-5.11228e-05 0.000198525 3.29215e-22)
(0.000128573 0.000142381 4.19833e-22)
(0.000134225 -1.10743e-06 -3.2535e-24)
(-0.00299222 -0.00235881 0)
(0.00135476 -0.00043002 5.2367e-22)
(3.56061e-06 7.66737e-05 0)
(0.000135196 1.39073e-05 0)
(2.97559e-05 -0.000136487 4.63322e-22)
(2.19182e-05 -1.12719e-05 0)
(-0.00253714 -0.00118327 -3.0925e-22)
(0.000248058 0.00164589 0)
(0.000674657 0.00013358 -5.05242e-22)
(2.54942e-05 -9.90368e-05 0)
(4.95737e-05 -0.000127764 -1.57123e-21)
(5.6625e-05 -7.26405e-05 0)
(0.000119064 2.5637e-05 0)
(-0.00307519 0.00113585 -8.10639e-22)
(1.91528e-05 3.24145e-06 -1.88452e-21)
(0.000179099 -1.67275e-05 6.17512e-22)
(0.000240816 -2.18124e-05 2.16142e-21)
(4.04282e-06 -4.69831e-05 -1.0717e-21)
(5.92408e-05 4.54421e-05 -1.21624e-21)
(4.23365e-05 3.89638e-05 -7.62891e-22)
(9.70401e-05 3.06492e-05 -2.981e-22)
(0.000171442 -0.000235667 2.462e-22)
(3.04056e-05 -0.000133787 1.27721e-21)
(-0.000160304 0.000368482 2.09402e-21)
(8.72625e-05 0.000389704 0)
(3.06784e-07 -6.24732e-07 3.54654e-22)
(3.84793e-05 -5.68768e-05 0)
(-0.00257906 -0.00270247 2.04186e-21)
(-0.000655498 0.000443292 -2.02974e-21)
(2.76881e-06 2.42326e-06 0)
(2.67852e-06 4.10857e-05 -7.8701e-22)
(-1.65712e-06 8.19019e-05 5.82266e-22)
(-0.000183355 0.000388078 6.41197e-22)
(-0.000165395 0.000384182 0)
(-0.00209173 -0.00274208 -1.10328e-21)
(-0.000668646 0.000454057 1.16762e-21)
(0.000106478 -5.62447e-05 1.07371e-21)
(1.20542e-05 -0.000108439 0)
(0.00032915 -0.000305533 -1.18647e-21)
(0.00279026 0.00373196 2.15767e-21)
(5.85044e-05 -0.000119819 1.97364e-21)
(1.78342e-05 -5.79742e-05 1.17058e-21)
(2.03291e-05 1.78519e-05 8.49294e-25)