/*--------------------------------*- C++ -*----------------------------------*\
| =========                 |                                                 |
| \\      /  F ield         | OpenFOAM: The Open Source CFD Toolbox           |
|  \\    /   O peration     | Version:  v2012                                 |
|   \\  /    A nd           | Website:  www.openfoam.com                      |
|    \\/     M anipulation  |                                                 |
\*---------------------------------------------------------------------------*/
FoamFile
{
    version     2.0;
    format      ascii;
    class       volScalarField;
    location    "300";
    object      k;
}
// * * * * * * * * * * * * * * * * * * * * * * * * * * * * * * * * * * * * * //

dimensions      [0 2 -2 0 0 0 0];


internalField   nonuniform List<scalar> 
37190
(
0.000148041
0.0626582
0.000146665
0.000168089
0.04047
0.000146876
0.000175285
0.000150837
0.000167691
0.000213958
0.000147939
0.000144493
0.000154938
0.000146149
0.0543005
0.00014813
0.000151307
0.000182645
0.0592278
0.000141673
0.000151966
0.000148043
0.0789906
0.00015412
0.000152067
0.00014815
0.000173892
0.000178233
0.00025819
0.0477413
0.0745755
0.000146541
0.000188075
0.000216807
0.00019207
0.000178165
0.000144704
0.000154087
0.000152549
0.000147731
0.000210831
0.0365355
0.000151743
0.000191421
0.000148221
0.000203626
0.035853
0.000239262
0.000146648
0.0421521
0.000149524
0.000148056
0.000163806
0.000161462
0.000148875
0.000149756
0.000212823
0.000144725
0.0372658
0.000144929
0.035792
0.000178175
0.000143466
0.0692798
0.000151693
0.000151914
0.000146205
0.000195427
0.000170448
0.000143486
0.000148935
0.000148758
0.000158169
0.000147141
0.000148128
0.000148521
0.0732844
0.000168301
0.0460003
0.000158322
0.000148386
0.000157926
0.000147101
0.000180457
0.000897935
0.000151235
0.053034
0.0455768
0.0550165
0.000146552
0.0712343
0.000190031
0.000151951
0.000147128
0.000147684
0.000152129
0.0440586
0.00014732
0.000167518
0.087328
0.000151815
0.000180589
0.0751589
0.0856313
0.000148371
0.000149229
0.060864
0.000148695
0.000146205
0.065067
0.0719013
0.0581923
0.000153209
0.000145333
0.000148751
0.000148075
0.000168567
0.000152577
0.000147743
0.000150889
0.000147999
0.0334079
0.00014816
0.000148734
0.000147837
0.0512659
0.000145341
0.000147767
0.000100268
0.000168788
0.000147739
0.0625032
0.000156633
0.000152255
0.0729032
0.000147218
0.000167337
0.000195833
0.000202066
0.000150526
0.000158736
0.000178577
0.000167324
0.000152238
0.000147681
0.0001485
0.0794752
0.000151099
0.000196516
0.000145632
0.000147596
0.000159278
0.000206735
0.000148043
0.03578
0.000145438
0.0467374
0.000147934
0.062577
0.00016717
0.000173942
0.000148357
0.034966
0.0503861
0.000159196
0.000150723
0.0538093
0.000193043
0.0495035
0.000209558
0.0001472
0.0515043
0.000148372
0.000154427
0.0346054
0.000193878
0.000147929
0.000151587
0.000172629
0.000154973
0.000190668
0.000148463
0.000148425
0.000147161
0.0711499
0.000149013
0.000187786
0.000163348
0.0824456
0.000213537
0.000148736
0.000182113
0.000145662
0.000151309
0.000228384
0.000157047
0.000147664
0.000174559
0.0880302
0.0608685
0.000202467
0.000146579
0.000147613
0.000149067
0.0485598
0.000167161
0.000174804
0.000149426
0.000147971
0.0524044
0.000147945
0.0484791
0.000146585
0.000163838
0.064381
0.0863903
0.000196666
0.000194468
0.000216705
0.000148335
0.0373766
0.000144466
0.000148169
0.000165951
0.0676992
0.000148074
0.0443628
0.000147641
0.00016371
0.0211497
0.000151604
0.000148188
0.000144928
0.0528271
0.000161523
0.000187457
0.000184648
0.0306447
0.000143546
0.000148738
0.000171915
0.000149019
0.0477301
0.000148059
0.000147891
0.00478881
0.000147419
0.0404443
0.000188732
0.000186868
0.00014766
0.000179867
0.000148183
0.000157663
0.000156518
0.000148227
0.000181931
0.000148883
0.000166885
0.000147403
0.041937
0.000159861
0.000145569
0.0730152
0.000152048
0.000146155
0.000148881
0.000151657
0.0687202
0.000144806
0.0716786
0.06782
0.000216711
0.00016133
0.0176753
0.000146991
0.000146843
0.0417592
0.000164924
0.000158782
0.000262366
0.000148751
0.00018949
0.000210751
0.00015186
0.000157654
0.000148697
0.000148731
0.000174252
0.000148249
0.000149219
0.000192185
0.000165608
0.000172374
0.0173736
0.000148073
0.000147604
0.0703938
0.000170011
0.000144812
0.0444329
0.000117367
0.000151514
0.000204373
0.000147593
0.000145408
0.000146165
0.000148935
0.000257756
0.000154088
0.00014969
0.0707624
0.000161396
0.000181093
0.0277474
0.0557343
0.000158077
5.97956e-05
0.000165641
0.000145405
0.000148068
0.000159609
0.000214861
0.000148109
0.0832269
0.000205185
0.000179104
0.0880895
0.000147203
0.0889987
0.000163884
0.000169793
0.000147741
0.0156836
0.000206045
0.044816
8.60055e-05
0.000167483
0.000150855
0.0701895
0.000150317
0.00020423
0.00014873
0.000149679
0.061229
0.000199453
0.00020959
0.000149695
0.000147382
0.000145402
0.000148706
0.0749721
0.000147305
0.000146866
0.000156999
0.00170983
0.000145995
0.0566219
0.000176523
0.000150625
0.000164582
0.0445522
0.000173325
0.0627177
0.000156379
0.000184988
0.000148211
0.000145686
0.000190482
0.000164268
0.000150223
0.000165352
0.000156273
0.000153037
0.000151159
0.000186816
0.000187568
0.000214595
0.000187422
0.0427709
0.0660343
0.0002015
0.040178
0.000166366
0.000173703
0.0557994
0.000174614
0.000163127
0.000186799
0.000159725
0.000149168
0.000197998
0.000158578
0.000148764
0.00015201
0.000146083
0.000989725
0.000155136
0.00014981
0.0001939
0.000145698
0.0727053
0.000151962
0.000148026
0.000152036
0.00014723
0.000146947
0.0405885
0.000150765
0.000145719
0.000148379
0.000123112
0.048972
0.000148559
0.000147684
0.000147818
0.00017028
0.000147868
0.000144897
0.000146925
0.0740554
0.0002023
0.055068
0.000147608
0.000144892
0.00019253
0.0704948
0.000149841
0.000151254
0.000146944
0.000197089
0.000145827
0.000152024
0.00016928
0.000149083
0.0766815
0.000150751
0.000189972
0.000149104
0.000147845
0.000149818
0.000147133
0.0729266
0.000151415
0.000148139
0.0483601
0.0364738
0.000145693
0.0829495
0.000148996
0.000168861
0.000204717
0.000148084
0.0424583
0.000147403
0.0793189
0.000145665
0.0001492
0.000156081
0.000145474
0.066649
0.000166536
0.000145975
0.0089236
0.000195533
0.000147201
0.000207751
0.00137016
0.000148851
0.000147146
0.000169626
0.0713415
0.0871367
0.000208287
0.0127878
0.0837114
0.000164126
0.074258
0.000149431
0.000146852
0.000145743
0.00014931
0.051924
0.00449791
0.000146732
0.000164918
0.0047922
0.000148175
0.0235316
0.000166078
0.000151883
0.000156748
0.000147824
0.000207479
0.000189503
0.000161491
0.00014811
0.00014682
0.000205286
0.0336875
0.000151895
0.000149366
0.000149441
0.0488585
0.000168187
0.0400229
0.00243432
0.000105942
0.0712078
0.00014906
0.0492431
0.000149397
0.0666061
0.000146932
0.000185149
0.0870046
0.000166223
0.000146856
0.000145756
0.0511938
0.000155127
0.000188161
0.000207892
0.0029905
0.000147841
0.000158407
0.00016417
0.000151448
0.000186211
0.000149821
0.000169208
0.000145325
0.0178629
0.000147645
0.000148273
0.0854262
0.000146583
0.000148394
0.000147687
0.000152774
0.00014986
0.00014983
0.000167783
0.000152748
0.0373357
0.000148028
0.000154306
0.000173214
0.000161701
0.000146488
0.000147018
0.000154866
0.000158347
0.0413926
0.000190996
0.000147951
0.00015315
0.000238649
0.0609335
0.00014723
0.000144937
0.0217901
0.0544942
0.0748403
0.0416641
0.000149021
0.000166663
0.000148087
0.036086
0.00126782
0.000157446
0.000151796
0.000119486
0.000185093
0.000147244
0.000195906
0.0401663
0.0557078
0.000148032
0.000173631
0.000171626
0.000149082
0.000152628
0.000147952
0.0742655
0.0427502
0.000147061
0.0719819
0.0415599
0.000149568
0.00016541
0.000147612
0.000189571
0.000161815
0.000148194
0.00031009
0.0565405
0.000162747
0.000621603
0.000147612
0.000150057
0.000157225
0.00015646
0.000155431
0.00018237
0.000147327
0.00016979
0.00014911
0.0529141
0.000173281
0.000147137
0.000181962
0.000145104
0.0679377
0.0145241
0.000147586
0.0609771
0.000144979
0.000148356
0.000154644
0.000147555
0.000178704
0.000158438
0.000147126
0.000173014
0.000146959
0.000180819
0.0374935
0.000147384
0.000147686
0.0587101
0.000149727
0.000144982
0.000195228
0.000161951
0.000158196
0.000179733
0.000151491
0.000147122
0.000151644
0.00156942
0.0370106
0.000204798
0.0372003
0.000143516
0.000211094
0.000149297
0.000152341
0.0686762
0.0002054
0.000169684
0.000147398
0.000206041
0.000152269
0.00179741
0.000196232
0.000159419
0.0311947
0.000149116
0.0160571
0.000177708
0.00015216
0.000158471
0.000167318
0.000167705
0.000160131
0.000143498
0.000188127
0.000147339
0.000191064
0.000166375
0.000146969
0.000179399
0.0379213
0.000148593
0.000147995
0.0878754
0.000148284
0.000147059
0.000187493
0.00831455
0.0376406
0.000161806
0.000144213
0.037081
0.000188075
0.000560929
0.000151607
0.00016279
0.000181917
0.000151861
0.000207471
0.00014822
0.00703377
0.000148065
0.0010246
0.000149388
0.000162731
0.000206111
0.000144602
0.000174986
0.000144689
0.000147685
0.00162303
0.000148953
0.0215175
0.000148103
0.0173009
0.00014727
0.000148129
0.000182334
0.000146066
0.0699725
0.000147074
0.000158521
0.000148299
0.000149804
0.00020474
0.000172196
0.03277
0.0741175
0.0199839
0.00354704
0.00018979
0.000147891
0.000149652
0.0250575
0.055885
0.00014768
0.00576823
0.0371933
0.000187727
0.000161448
0.000163743
0.0607819
0.000146806
0.000183134
0.0356719
0.000169722
0.000242314
0.0620269
0.000154224
0.000153712
0.000145498
0.052187
0.0618298
0.000144933
0.000178367
0.0885422
0.000160166
0.0158505
0.000178502
0.035877
0.000148082
0.000187294
0.000179897
0.000209957
0.00015861
0.00014729
0.0605254
0.000192868
0.000161141
0.000148587
0.000174133
0.000144228
0.000184707
0.000151667
0.00015056
0.000151504
0.000148551
0.000152818
0.000180819
0.000169982
0.000154122
0.000181716
0.000152529
0.0771986
0.0111628
0.00014705
0.000152296
0.000148565
0.000148312
0.072993
0.0728824
0.000178505
0.00014817
0.000151452
0.000147575
0.000150917
0.0410921
0.000148008
0.000157039
0.000164992
0.000148125
0.000147479
0.000146668
0.000149699
0.000161764
0.000148529
0.000163486
0.000163374
0.000149808
0.00014729
0.08346
0.0749722
0.000152033
0.000144508
0.00014712
0.000164951
0.000164246
0.0872038
0.000187283
0.000151703
0.000148349
0.000179982
0.0569921
0.000150679
0.000148665
0.000145506
0.000148201
0.000164768
0.00014915
0.000148421
0.000176134
0.000147733
0.0411328
0.0380799
0.000152025
0.000155702
0.000158517
0.000649054
0.000172077
0.000203952
0.000180677
0.0646491
0.000152019
0.000147864
0.000162476
0.0131925
0.00017271
0.000148057
8.3462e-05
0.000146018
0.000145532
0.000175406
0.000647739
0.000172765
0.00017143
0.000148152
0.000178519
0.000166791
0.011713
0.000146239
0.000189951
0.000157628
0.000598735
0.00015435
0.000147808
0.0659722
0.000149913
0.0398669
0.0337066
0.000148158
0.000149648
0.0110522
0.000147756
0.000146949
0.0427097
0.000145601
0.0505526
0.000148128
0.0650138
0.000172525
0.000203475
0.0733618
0.000149147
0.000148324
0.000149222
0.000147443
0.000147489
0.000161
0.000149219
0.000147664
0.000166003
0.0125187
0.000147674
0.000147654
0.000157612
0.000148133
0.000149704
0.000148156
0.0634198
0.000148803
0.000146098
0.000168831
0.000147943
0.000147307
0.0401117
0.000165029
0.00015175
0.000167292
0.00014608
0.00016494
0.000157365
0.000149787
0.000170104
0.0786645
0.000163526
0.000182876
0.00015729
0.000145296
0.0427181
0.000145601
0.0191539
0.000147035
0.000158187
0.00014816
0.000148368
0.000191522
0.00017357
0.000148378
0.000147076
0.000195256
0.0706963
0.000157991
0.000151864
0.000148511
0.000178589
0.000145432
0.0859879
0.000147167
0.000151279
0.000149362
0.000179582
0.000147091
0.0681338
0.000150708
0.000152695
0.000151805
0.000147905
0.000182325
0.000258483
0.000149571
0.00015803
0.000155772
0.000421058
0.000148212
0.0868516
0.045435
0.000177495
0.000148603
0.000150583
0.000147955
0.0756197
0.00014995
0.000148567
0.000147432
0.000169488
0.0432472
0.000149761
0.000148805
0.000152851
0.000156766
0.0142817
0.0391291
0.000153178
0.0411645
0.00015851
0.000148001
0.000195588
0.000152574
0.0653759
0.00014926
0.000187982
0.000151953
0.000149621
0.0757719
0.000146983
0.000178277
0.000178551
0.0852849
0.000148056
0.000182278
0.000155133
0.0649105
0.000243567
0.000146787
0.000149226
0.000161336
0.00806223
0.000178932
0.000172674
0.000149767
0.079742
0.000145014
0.000192841
0.000148727
0.000152556
0.000150894
0.000169376
0.00015209
0.000192978
0.0358682
0.000146729
0.000146885
0.000145707
0.0746464
0.000149825
0.000152933
0.00016743
0.000208618
0.000159765
0.0641006
0.000153838
0.0729321
0.000149361
0.000145051
0.000163093
0.000148142
0.0341163
0.000147138
0.000154547
0.000148191
0.00108545
0.07574
0.00014852
0.000175854
0.000163492
0.00017985
0.000147402
0.000123879
0.000148773
0.000145112
0.0346113
0.0334278
0.000178028
0.00014962
0.000187976
0.000157277
0.00014918
0.000154478
0.000152958
0.000176958
0.0259692
0.000147391
0.000147894
0.000148676
0.000188312
0.000162315
0.0533636
0.0739927
0.0192773
0.000174125
0.000145389
0.0587022
0.000175031
0.000149416
0.000148088
0.000165616
0.000148579
0.000163271
0.000148637
0.000101395
0.000157371
0.000150856
0.000154295
0.0460433
0.0129998
0.000238848
0.0448824
0.0716696
0.000149184
0.0262466
0.000151011
0.0322431
0.00014964
0.000170253
0.0376647
0.036744
0.00985474
0.000146746
0.000148746
0.036353
0.0718426
0.000149721
0.000154102
0.00016666
0.000150839
0.000154333
0.000174442
0.0365648
0.000166298
0.000147309
0.000147359
0.000154227
9.94106e-05
0.000148197
0.0371642
0.000157481
0.000178766
0.000192782
0.000146842
0.0685315
0.0782193
0.000144277
0.000148132
0.000148674
0.000146942
0.0848535
0.000148477
0.000145488
0.0513275
0.000147586
0.000157872
0.00014804
0.0439774
0.000155421
0.000161136
0.0747002
0.000148365
0.000147925
0.039919
0.000157943
0.000147349
0.000147601
0.000177722
0.0395161
0.000149756
0.000145248
0.000147236
0.000174198
0.00130044
0.000148341
0.0608406
0.000163339
0.000151939
0.000253116
0.000155069
0.000172068
0.000151004
0.00021108
0.000173267
0.0737995
0.000144272
0.000150993
0.000149209
0.000147654
0.000151834
0.000147019
0.000155751
0.000190653
0.000214286
0.000147407
0.000530187
0.000149312
0.000210037
0.000148745
0.058875
0.0396358
0.000164867
0.000146481
0.000147393
0.000147566
0.000145064
0.000153933
0.00014812
0.0367511
0.000233274
0.0513377
0.000173447
0.000128067
0.000190182
0.000148043
0.0367671
0.000198847
0.000148064
0.000213887
0.000158183
0.0382376
0.000151649
0.000151856
0.0716819
0.000152446
0.000147727
0.000161961
0.000148562
0.000148163
0.0737929
0.000172828
0.000147369
0.000148065
0.000147591
0.0355426
0.000148698
0.000148123
0.000147903
0.000143548
0.000193965
0.00014562
0.000146325
0.0482334
0.00014812
0.00014794
0.0780403
0.0487913
0.0104837
0.0728732
0.000155939
0.0288108
0.000170444
0.000163156
0.0505461
0.000197978
0.000168896
0.000149061
0.00015058
0.000168938
0.0168066
0.0499359
0.000150648
0.000148641
0.000148013
0.000147658
0.000183308
0.000176211
0.00014804
0.000149206
0.000173422
0.000145383
0.000217501
0.000148117
0.000410497
0.00019198
0.000146984
0.000166568
0.000154126
0.000158066
0.000156763
0.000155662
0.000163694
0.0473748
0.00021257
0.000146963
0.0001491
9.63977e-05
0.000151587
0.0742284
0.000147438
0.000149683
0.000148111
0.000205447
0.000146785
0.000164003
0.035799
0.000149813
0.000178333
0.0597674
0.000154323
0.000147962
0.000144586
0.000155605
0.00014734
0.000147672
0.044014
0.00302079
0.000150544
0.0233108
0.000226335
0.000174333
0.000189659
0.000151515
0.000147745
0.000221836
0.000170949
0.00018935
0.000169742
0.000148749
0.000146881
0.000121118
0.000145039
0.000147494
0.00019386
0.000147519
0.0877596
0.000168394
0.000153986
0.0724085
0.000155147
0.000145663
0.000208422
0.000156122
0.000187256
0.000147875
0.000148389
0.000169748
0.000148142
0.000200353
0.000146301
0.000146916
0.000148135
0.000148447
0.000146056
0.000147491
0.000146984
0.000184399
0.0297291
0.000147014
0.000188844
0.000160382
0.000160811
0.0657147
0.000149562
0.000151553
0.00755064
0.000166336
0.000170178
0.000155314
0.000147372
0.000153103
0.000684423
0.00166967
0.000144965
0.000167772
0.000144115
0.000192164
0.0343158
0.0358472
0.000177841
0.00014801
0.000154183
0.000158348
0.0715571
0.000155986
0.000148166
0.000173029
0.000175401
0.0146924
0.00014803
0.000152744
0.000168311
0.000148183
6.07765e-05
0.0217344
0.000147633
0.000152531
0.000156559
0.000145149
0.0889956
0.000149563
0.000148007
0.000149832
0.0582489
0.0520368
0.000147805
0.000220524
0.000148496
9.876e-05
0.000153947
0.068976
0.000147974
0.058895
0.000151521
0.000147584
0.000148353
0.000201539
0.00014645
0.000163354
0.000244642
0.000143678
0.0106703
0.0572765
0.073842
0.000173538
0.000158216
0.000143545
0.000149805
0.0364447
0.000172383
0.000148261
0.000206174
0.000146499
0.000147457
0.00018932
0.00015094
0.000145986
0.000150742
0.000147207
0.00010403
0.000148087
0.0605102
0.000191142
0.0458972
0.000147982
0.000215852
0.0768948
0.000150791
0.043716
0.000148588
0.000151262
0.0681362
0.00014966
0.000146169
0.000159707
0.00015174
0.000148448
0.000154311
0.073159
0.000149866
0.0459372
0.000157401
0.000146026
0.000156481
0.000155149
0.00014537
0.0404017
0.0001525
0.000170216
0.000152136
0.000147689
0.000149567
0.000199759
0.0797311
0.000179159
0.000144082
0.000165522
0.076858
0.000148537
0.000185852
0.000162358
0.000146957
0.000487566
0.000163644
0.000148201
0.0452685
0.0533276
0.000152228
0.000168249
0.0484317
0.000208441
0.00014738
0.000148102
0.000150037
0.000157766
0.000154336
0.000205461
0.000149503
0.000148067
0.00014682
0.000147645
0.000148471
0.000177927
0.000149842
0.0595234
0.0750397
0.00583247
0.000186518
0.0600913
0.000153147
0.000205419
0.000147638
0.000147429
0.000146546
0.0162862
0.000147446
0.000210901
0.000163589
0.00016673
0.000152538
0.000194426
0.0447916
0.000153625
0.000148822
0.000144578
0.000147775
0.000169102
0.000148102
0.000147762
0.00224062
0.000147627
0.0620677
0.000146811
0.000150009
0.000167073
0.0751554
0.000149015
0.000170703
0.00165323
0.000169797
0.000215668
0.000170246
0.000150552
0.000148665
0.000157156
0.000187203
0.0345315
0.000150576
0.000150536
0.000148141
0.000149105
0.000151003
0.0207653
0.000147646
0.0083427
0.0850892
0.000170166
0.000164374
0.000158037
0.00021055
0.000191435
0.000148307
0.000150606
0.000221979
0.000148447
0.000148208
0.000176476
0.000156215
0.000213776
0.000148704
0.000147567
0.000170881
0.000149913
0.000148484
0.0485441
0.0315799
0.000208986
0.000147851
0.000147992
0.000146164
0.000148751
0.0619039
0.000148272
0.00014656
0.057923
0.000146479
0.000196379
0.000225316
0.0411361
0.0623254
0.000201086
0.0549918
0.000198814
0.00021893
0.061453
0.000143721
0.0622877
0.00017041
0.000147489
0.000159402
0.0650187
0.0001484
0.000147771
0.000147855
0.00014656
0.000145665
0.000221957
0.000204604
0.000154687
0.000206848
0.0635455
0.000146627
0.0366172
0.0739398
0.000171271
0.000150141
0.000148276
0.000154093
0.000153775
0.000154972
0.00015839
0.000168703
0.000204583
0.000197733
0.00014753
0.0558175
0.000154909
0.000207274
0.000148446
0.000147336
0.000149855
0.000203071
0.000165903
0.000147605
0.0543994
0.000147921
0.0200739
0.000182043
0.000166423
0.000239811
0.000153011
0.000173033
0.0001474
0.000155426
0.00014684
0.000148722
0.000169729
0.000163067
0.000156144
0.000113259
0.000147663
0.000147413
0.000148668
0.000148767
0.0001487
0.000150367
0.000151596
0.0564154
0.000152051
0.000146546
0.000148293
0.000163415
0.00129546
0.000230588
0.0134785
0.000165095
0.000150826
0.00014486
0.00015543
0.000147016
0.000144557
0.000148517
0.000157688
0.0723857
0.000205049
0.000166539
0.000161543
0.00153222
0.00481519
0.00014982
0.000147048
8.79269e-05
0.000148672
0.000147424
0.000166375
0.000172492
0.000170374
0.000150576
0.000146206
0.000151211
0.000149139
0.000148218
0.000150752
0.000169081
0.000152236
0.000146902
0.000146931
0.000149601
0.000195902
0.000174743
0.000168894
0.0616367
0.000147051
0.000144189
0.000151269
0.000150582
0.000166282
0.000147429
0.000150089
0.000167983
0.00022194
0.0168424
0.000149112
0.000145987
0.000587694
0.0449022
0.00017378
0.0534609
0.000205214
0.000147699
0.000162195
0.0860041
0.000148065
0.000248052
0.00014705
0.0394746
0.000195515
0.000152882
0.000147088
0.000196784
0.0608681
0.000172667
0.00019626
0.000198044
0.000173834
0.000158792
0.000165038
0.000127297
0.0504772
0.0706377
0.000160763
0.000146516
0.0601969
0.000198783
0.000172889
0.000167466
0.0616471
0.000149164
0.000146767
0.000148269
0.0389823
0.000183811
0.000296847
0.000154766
0.00018604
0.000148867
0.000148905
0.000151291
0.000144024
0.000429586
0.00015457
0.000147001
0.000178539
0.0596985
0.000149592
0.000159259
0.0293066
0.0756369
0.0659948
0.0456375
0.0576206
0.000209375
0.000146169
0.00018208
0.00428103
0.0612382
0.000143995
0.000154413
0.000146771
0.000155621
0.000147289
0.000144153
0.000147889
0.000203384
0.000148042
0.0727842
0.0720884
0.000147646
0.000148704
0.000189388
0.000164254
0.000147065
9.33718e-05
0.000147611
0.000198462
0.000173674
0.000203923
0.000156428
0.000173796
0.000167138
0.000146925
0.00016807
0.000179629
0.0509903
0.000147059
0.0241311
0.000151288
0.000147667
0.000154643
0.000193683
0.00017671
0.0558089
0.000148825
0.000150641
0.000148188
0.000193755
0.000154907
0.000163953
0.000147453
0.00480127
0.00014351
0.00014447
0.0669272
0.0851072
0.000148037
0.0620605
0.0438641
0.0495874
0.0775748
0.0557503
0.0874635
0.000148231
0.000149472
0.000148152
0.000148
0.046508
0.00016912
0.000171886
0.0550031
0.000148686
0.000149672
0.000186211
0.0624344
0.000168705
0.000150281
0.000156352
0.000147379
0.000148627
0.000192932
0.000149735
0.000207658
0.000148379
0.000173697
0.000152195
0.0182509
0.000214927
0.000145494
0.000148054
0.000148166
0.000204708
0.000188051
0.000150587
0.000148095
0.000179007
0.000148441
0.000153328
0.000156514
0.000204484
0.000162133
0.000174261
0.000145549
0.000147732
0.000151333
0.00016218
0.000189081
0.000189006
0.000149745
0.000150518
0.000169296
0.0346636
0.0668507
0.000145057
0.000158323
0.000144942
0.0580363
0.000152951
0.000149954
0.000154284
0.000192913
0.0480668
0.000155948
0.000162272
0.000146136
0.062482
0.000174888
0.000147253
6.8e-05
0.000162354
0.000159569
0.000165731
0.000113573
0.000162154
0.000247248
0.00793317
0.000156201
0.000147048
9.15514e-05
0.000146982
0.000146178
0.00014734
0.000919436
0.000149982
0.000145611
0.000181172
0.000163128
0.000149007
0.00015594
0.000148216
0.000146913
0.0377566
0.000170573
0.000212425
0.000175364
0.000176035
0.000148203
0.0526219
0.000186455
0.000178666
0.0181129
0.000146887
0.000148749
0.000168939
0.000181898
0.000148087
0.0736822
0.000209013
0.000162515
0.064024
0.0448062
0.000145509
0.000211751
0.000186409
0.0738937
0.000152794
0.000164739
0.000145992
0.000164305
0.000146659
0.000178186
0.000195756
0.000148061
0.000146163
0.000145463
0.000188547
0.000172923
0.000173099
0.0429398
0.0402781
0.000145416
0.0232406
0.000149205
0.000148667
0.000146644
0.000108451
0.000149399
0.000151729
0.000148148
0.00017768
0.00014903
0.000152147
0.0673883
0.000148074
0.00020339
0.0429769
0.000200038
0.0640483
0.0314081
0.000158631
0.00018981
0.000148218
0.000209329
0.000144985
0.000147544
0.000147616
0.000148114
0.0609313
0.000148889
0.00020771
0.000145625
0.000173528
0.000150707
0.000162541
0.000152887
0.000150089
0.00015602
0.000144455
0.000147775
0.0635426
0.000148873
0.000167514
0.000155916
0.000152115
0.000172867
0.000148627
0.000149977
0.000190354
0.0325319
0.0735368
0.0738788
0.0727478
0.000185049
0.000147545
0.000148338
0.000173167
0.0284772
0.000179043
0.000509112
0.00014792
0.000147311
0.000175716
0.00014602
0.0049358
0.033706
0.0689634
0.000146634
0.000149638
0.000144792
0.000146468
0.060707
0.000148301
0.000149697
0.000164169
0.0574573
0.000150114
0.000147873
0.000147365
0.0671092
0.000149898
0.000155711
0.065187
0.000286563
0.000189286
0.0511453
0.0197226
0.0443861
0.000148143
0.0464331
0.000149329
0.000147866
0.000178731
0.065669
0.000202263
0.0692782
0.000145529
0.000147587
0.000147273
0.000180794
0.000417236
0.00016276
0.0347386
0.00015738
0.0765162
0.0754519
0.000148177
0.00019449
0.00015542
0.00015513
0.000166151
0.000145813
0.03541
0.040843
0.000149681
0.000148129
0.000118165
0.000150071
0.000150531
0.0566142
0.0002025
0.000148473
0.000148143
0.000148823
0.000148151
0.0734457
0.00015806
0.000147666
0.000146147
0.0633672
0.000146834
0.000148774
0.0399751
0.000147334
0.000196223
0.00047404
0.000158126
0.000152788
0.000162515
0.0671282
0.000145048
0.000153244
0.0262551
0.00017887
0.000148709
0.000196161
0.000173742
0.000108952
0.0645833
0.000155074
0.0433383
0.000148075
0.000148178
0.000148987
0.000148102
0.000154331
0.000163852
0.000205432
0.000147201
0.000166566
0.000154201
0.000247415
0.000151765
0.000148861
0.000143545
0.069802
0.0464182
0.000166015
0.000146488
0.000166469
0.000147479
0.000158402
0.000147747
0.0740124
0.000178182
0.000146717
0.0774658
0.0598935
0.000147216
0.000148525
0.0388959
0.000167041
0.000146191
0.0592881
0.072769
0.000146167
0.000147646
0.000519087
0.046049
0.000213636
0.000148193
0.000207096
0.051434
0.000164972
0.00014557
0.000171847
0.000143557
0.0809248
0.000150538
0.000156198
0.0555344
0.0398238
0.000148864
0.000148639
0.0402094
0.0745655
0.000147452
0.000149684
0.000148838
0.000148222
0.000147442
0.000174633
0.0334898
0.000151911
0.000206685
0.000152325
0.000165039
0.000149529
0.000148638
0.000145053
0.0679109
0.0595317
0.000169782
0.000194147
0.000152439
0.0770866
0.000191
0.000158249
0.000148565
0.000148703
0.000213888
0.0714311
0.00014593
0.000159422
0.000144877
0.000147361
0.0309748
0.000189658
0.000156405
0.000146891
0.000146676
0.0596148
0.000327059
0.000150715
0.000162916
0.000170658
0.0422184
0.000152913
0.000177946
0.0888302
0.000166725
0.000147731
0.000168732
0.00017897
0.000146875
0.000147842
0.0792598
0.000191105
0.0364636
0.000186823
0.000152495
0.0353785
0.000151698
0.000189429
0.000146018
0.000159296
0.00014812
0.000162355
0.00014785
0.0688668
0.000146552
0.000148321
0.00271123
0.000171175
0.00020671
0.00014808
0.000147466
0.0708172
0.000207253
0.00018663
0.000154356
0.000209711
0.000218455
0.000209786
0.000170058
0.0413731
0.0397525
0.0689591
0.00014809
0.000145545
0.000147635
0.000172159
0.00020298
0.000147674
0.000156932
0.0414753
0.0488444
0.000149862
0.0388127
0.000156858
0.000178709
0.000168673
0.000148963
0.000146753
0.00017706
0.000156785
0.000201325
0.000152898
0.000148902
0.0505156
0.0677937
0.000145991
0.000178763
0.000148949
0.000148347
0.000155658
0.0302556
0.000165008
0.000147887
0.000150734
0.00171157
0.0646076
0.000169057
0.0805642
0.000165814
0.0627705
0.000149862
0.000148678
0.000147804
0.000148071
0.000204132
0.000181893
0.000148072
0.000166419
0.000156206
0.00485325
0.000204734
0.000147714
0.000148208
0.000150568
0.00015813
0.0459684
0.0425117
0.000156396
0.0585136
0.000193818
0.000147582
0.000167707
0.000146546
0.000147093
0.000157323
0.00015075
0.000156934
0.000166682
0.000145878
0.00014772
0.000151951
0.0843742
0.00014808
0.000150679
0.0811532
0.000210898
0.000181641
0.000147943
0.0755505
0.000148558
0.000217134
0.068916
0.0785337
0.000155528
0.000161672
0.000151225
0.00015111
0.0202768
0.0598271
0.0400713
0.000158123
0.00014522
0.000171012
0.00015065
0.000148037
0.0490277
0.000162939
0.000164957
0.000146903
0.000154503
0.00015944
0.000245792
0.000147078
0.000168665
0.0101323
0.000148304
0.000151424
0.000173012
0.000151179
0.0346529
0.000147555
0.000150138
0.000147376
0.000157319
0.000145251
0.000145135
0.0705189
0.0507644
0.0644229
0.000168336
0.000211915
0.0888866
0.000154365
0.000176057
0.000148675
0.000147716
0.00016431
0.000161947
0.000200706
0.0773604
0.0648251
0.000151543
0.000147256
0.000174936
0.000147643
0.000159452
0.0339699
0.0358332
0.0472933
0.0509027
0.000151509
0.0783556
0.000181145
0.000146709
0.0251608
0.000168813
0.000154604
0.000148097
0.0812523
0.000148944
0.000178319
0.00018075
0.052932
0.000149119
0.000180447
0.0377787
0.000178864
0.000154251
0.0488203
0.000147069
0.000145129
0.000152625
0.000147696
0.0574891
0.0767832
0.000211745
0.000148869
0.0243223
0.000151052
0.000162584
0.000186557
0.000161203
0.000179408
0.000143921
0.000148739
0.0531207
0.000208777
0.0201644
0.000146887
0.00015247
0.000166752
0.000147392
0.000144824
0.000151157
0.000149539
0.000146352
0.000211892
0.000161143
0.000152871
0.000155101
0.00017538
0.0583006
0.0573153
0.000158219
0.00045653
0.000176937
0.000158011
0.000147679
0.000152803
0.040402
0.00703357
0.0431115
0.000159122
0.000148632
0.000149943
0.000160068
0.000149833
0.000148086
0.0640416
0.000930003
0.000146239
0.0334293
0.0877531
0.000144174
0.000145125
0.000152614
0.000150388
0.000206398
0.000181063
0.00020305
0.0002086
0.000195646
0.0548603
0.000170595
0.000146838
0.000148892
0.0335442
0.00016722
0.000172226
0.000165917
0.0713939
0.000146878
0.000213062
0.000150602
0.000148038
0.000152347
0.000188531
0.000186891
0.000147739
0.000148078
0.0706909
0.000158994
0.000158358
0.0729437
0.0497923
0.000171875
0.000148082
0.000176454
0.000145116
0.000151589
0.00592757
0.0538969
0.000179089
0.000189127
0.000151955
0.000174279
0.000163881
0.000207966
0.0692578
0.000171199
0.000145208
0.065922
0.000152684
0.000150582
0.000147887
0.0001465
0.0497276
0.00017651
0.000145982
0.000208362
0.000213283
0.000171016
0.0452271
0.000195308
0.000147372
0.000159608
0.0365568
0.0326324
0.000173006
0.000173003
0.000151698
0.00868044
0.000147092
0.0326343
0.00014639
0.000147373
0.000218429
0.000168104
0.00015182
0.000147729
0.000147325
0.0374085
0.000186418
0.000147093
0.000148173
0.000187287
0.000150432
0.000285204
0.000146988
0.0469396
0.000194119
0.000151521
0.0581363
0.000147306
0.000158964
0.000148171
0.0647131
0.000177417
0.000172492
0.000150383
0.000185433
0.000147105
0.0753087
0.000148283
0.000146888
0.000158377
0.00801517
0.0607337
0.000164905
0.000168177
0.00014774
0.000158952
0.000157584
0.0389881
0.000149739
0.000145786
0.0416244
0.000174941
0.000150728
0.000146953
0.000242118
0.000152719
0.0136124
0.000185722
0.000145937
0.000150765
0.000142041
0.0658012
0.034529
0.000186516
0.000147378
0.000148336
0.000154698
0.000184499
0.000148337
0.000175251
0.000161993
0.000196763
0.000172461
0.062977
0.000150431
0.0774565
0.000149922