/*--------------------------------*- C++ -*----------------------------------*\
| =========                 |                                                 |
| \\      /  F ield         | OpenFOAM: The Open Source CFD Toolbox           |
|  \\    /   O peration     | Version:  v2012                                 |
|   \\  /    A nd           | Website:  www.openfoam.com                      |
|    \\/     M anipulation  |                                                 |
\*---------------------------------------------------------------------------*/
FoamFile
{
    version     2.0;
    format      ascii;
    class       volScalarField;
    location    "300";
    object      omega_0;
}
// * * * * * * * * * * * * * * * * * * * * * * * * * * * * * * * * * * * * * //

dimensions      [0 0 -1 0 0 0 0];


internalField   nonuniform List<scalar> 
37190
(
0.0253524
4.25906
0.0248986
0.0677489
3.83902
0.0251294
0.0569527
0.0262828
0.064212
0.19598
0.0253206
0.0247478
0.0294773
0.0249865
4.62311
0.0252803
0.0266067
0.0852058
4.48257
0.732023
0.0268931
0.0253507
7.00069
0.0270018
0.0271477
0.0252828
0.0561661
0.055273
1.68098
4.89636
5.58168
0.0251238
0.0782257
0.205929
0.0967061
0.0558969
0.0247425
0.0270021
0.0264538
0.0252473
0.186098
4.72241
0.0269158
0.10167
0.0254028
0.18074
5.65484
0.634812
0.0248938
3.78263
0.025683
0.0252824
0.0338971
0.0431657
0.0255187
0.0254888
0.190446
0.0247461
3.56992
0.0248372
3.63533
0.0558792
0.0246095
4.57296
0.0268495
0.0270486
0.0250294
0.141795
0.101096
0.024613
0.0255287
0.0254286
0.0303598
0.0251572
0.0253023
0.0253456
4.85779
0.0459089
4.1101
0.0309825
0.0254418
0.0335404
0.0251558
0.198781
4.63639
0.0265658
3.74641
4.70748
4.63143
0.0251255
4.68532
0.0848844
0.027073
0.0251491
0.025277
0.027221
4.18431
0.0252588
0.0650975
8.48874
0.0269896
0.138477
4.90927
8.63754
0.0254337
0.0255597
4.09124
0.0254905
0.0250316
5.00003
5.42864
4.49363
0.0267245
0.0247967
0.0253048
0.0253752
0.0461762
0.0264717
0.0252496
0.0261799
0.025292
3.51013
0.0253891
0.0254233
0.025342
3.98092
0.0247991
0.0253327
0.291783
0.0863082
0.0253275
4.21883
0.0288451
0.027304
4.7386
0.0250878
0.0535444
0.144763
0.173319
0.0261663
0.0305177
0.0559198
0.0624065
0.027286
0.0252794
0.0253381
5.62504
0.0263084
0.151976
0.024866
0.0252926
0.0365118
0.16235
0.0253868
3.63193
0.0249055
4.07182
0.0253221
4.16772
0.0517328
0.0705646
0.0253508
4.47282
3.62561
0.0364134
0.0260865
5.28638
0.11249
3.6251
0.172476
0.0250877
3.69148
0.0253528
0.0284449
3.44194
0.100284
0.0252386
0.0267978
0.0753035
0.0274459
0.0983801
0.0254497
0.0254435
0.0249944
4.82181
0.0255425
0.0768378
0.0356085
6.93274
0.216077
0.025497
0.08459
0.024834
0.0258234
0.324081
0.0291628
0.0252287
0.0573019
7.80644
4.72141
0.30604
0.024953
0.0252969
0.0255502
3.53918
0.0436959
0.0559052
0.0256471
0.025289
3.70981
0.0253328
3.55445
0.0249562
0.0391112
4.28906
6.82581
0.153243
0.144037
0.205546
0.0254323
3.54869
0.0247472
0.0253369
0.0669968
4.50829
0.0253555
4.17412
0.0252716
0.0400065
4.72212
0.026834
0.0253247
0.0248392
3.72904
0.0393428
0.0855101
0.230148
4.44868
0.0246264
0.0253107
0.0748346
0.0255434
3.50847
0.0252818
0.0252369
4.46542
0.0252757
3.85867
0.0804197
0.0922524
0.0251464
0.0585369
0.0253247
0.0333073
0.029971
0.0254042
0.0845472
0.0255209
0.0519419
0.0252744
3.80661
0.0315718
0.02486
5.63492
0.0263615
0.0250275
0.0252675
0.0268787
4.58754
0.0247556
7.94667
5.16056
0.20603
0.0431537
4.31958
0.024913
0.0250725
4.07742
0.0358999
0.0305219
1.75571
0.0254268
0.133745
0.185918
0.0262698
0.0300109
0.0251363
0.0254236
0.0543694
0.0254089
0.0252115
0.0958902
0.0646268
0.0524931
4.30215
0.0253487
0.0251436
4.74781
0.0437344
0.0247586
4.16272
0.941829
0.0267827
0.145598
0.0250226
0.0248104
0.0250261
0.0255297
1.10543
0.028182
0.0256505
4.70591
0.0390029
0.139737
4.77991
15.1367
0.0338055
0.48655
0.0526809
0.0248076
0.0253529
0.038871
0.19655
0.0252188
5.94116
0.149529
0.0710448
7.97571
0.025246
7.22122
0.0423542
0.0432506
0.0251926
4.86058
0.158513
3.94831
0.801284
0.0724839
0.0259772
4.6314
0.026017
0.145018
0.0253024
0.025466
4.10618
0.281388
0.172662
0.0256508
0.0252509
0.0248354
0.0254911
6.02186
0.0251627
0.0248979
0.0321949
3.14635
0.025012
4.42504
0.0763586
0.0261562
0.0454012
4.17085
0.0644616
4.17521
0.0309801
0.0896823
0.0253292
0.0249913
0.0901003
0.0398812
0.0259771
0.0633572
0.0309415
0.755095
0.026352
0.0742512
0.0955795
0.220174
0.0964438
4.26448
11.0075
0.201871
4.29629
0.044873
0.0532577
4.36254
0.0572541
0.0389752
0.083214
0.0391941
0.0251978
0.116334
0.0318373
0.0253131
0.0271028
0.0250275
2.03322
0.0296658
0.0256695
0.141978
0.0249929
4.78179
0.0269329
0.0252943
0.0271185
0.0252508
0.025206
3.82915
0.0259421
0.0249955
0.0253187
1.01418
13.3228
0.0251144
0.0251865
0.0252053
0.0444112
0.0253477
0.0247711
0.0251954
4.89114
0.209512
4.39335
0.025279
0.0247682
0.134634
4.73552
0.0256748
0.0264853
0.0251626
0.467548
0.0250056
0.0269722
0.0685321
0.0255193
7.82825
0.0254363
0.137088
0.0255175
0.0251491
0.0258031
0.0249954
4.80627
0.0266801
0.0252172
3.55181
4.25618
0.0249793
6.03522
0.0254822
0.0424074
0.147259
0.0253781
3.75998
0.0252717
11.7626
0.0248375
0.0255733
0.0293607
0.0248427
4.43519
0.0383048
0.0249121
3.53922
0.141798
0.0252455
0.162771
2.55717
0.0254062
0.0250363
0.0434334
4.81622
8.35714
0.194527
4.54203
6.02428
0.0439046
4.98673
0.0256437
0.0251258
0.0248485
0.0255042
3.72602
3.18435
0.0250364
0.0358781
5.06791
0.0253369
4.41131
0.044063
0.0261599
0.0318889
0.0251478
0.164765
0.100874
0.0433597
0.0252141
0.0250507
0.169157
4.60716
0.0269079
0.0255998
0.0255488
4.82096
0.0457487
4.35891
3.06957
0.624246
5.67464
0.0255149
3.57801
0.0256046
5.21851
0.0248939
0.203823
6.34051
0.037956
0.0248996
0.0249969
11.4979
0.0285206
0.0870549
1.41194
3.58089
0.0252294
0.0315139
0.0426988
0.0266936
0.214437
0.0256719
0.0681954
0.0248938
4.55872
0.0252901
0.0254133
8.7199
0.0251325
0.0254377
0.0252291
0.0277596
0.0256778
0.0256728
0.0758127
0.0273752
3.3857
0.0253846
0.0270276
0.0487233
0.0443665
0.0250891
0.0252118
0.0273956
0.0341612
3.85972
0.0922736
0.0253345
0.0267084
0.434928
4.74299
0.0252503
0.0247854
5.79797
3.84308
12.205
3.83294
0.025493
0.0427942
0.0253663
3.42115
2.52371
0.0290273
0.0268587
0.753036
0.0896761
0.0250817
0.15175
3.89043
4.48738
0.0252037
0.0494874
0.0464925
0.0253665
0.0264822
0.0252884
4.96417
4.79078
0.0250278
6.03227
4.506
0.0256309
0.062239
0.0253048
0.0868745
0.0339456
0.0254063
1.17345
4.36244
0.0349822
4.43728
0.0253047
0.0259013
0.0288857
0.0314623
0.0287201
0.0728002
0.0252545
0.043295
0.0255572
3.80725
0.0583723
0.0252144
0.177157
0.0248679
4.49307
4.37091
0.0253123
4.1977
0.0247836
0.0253133
0.0272691
0.0253072
0.0837128
0.0315197
0.025213
0.0515415
0.025156
0.0597519
4.45517
0.0252706
0.0252673
4.51866
0.0256563
0.0247813
0.138763
0.0457515
0.0356955
0.0942699
0.0266667
0.0251513
0.0268775
2.23761
3.70623
0.147453
3.62147
0.024621
0.177847
0.0255938
0.0269575
5.66907
0.154974
0.0693414
0.0252717
0.158285
0.0273002
2.54107
0.109622
0.0369825
4.29102
0.0255235
4.34273
0.166455
0.0268304
0.0316462
0.0519869
0.0545294
0.0317024
0.0246242
0.0806157
0.0252567
0.0922527
0.058299
0.0251596
0.0924348
4.31346
0.0254721
0.0253793
7.98088
0.0253289
0.0250876
0.0954248
5.17427
3.39216
0.0339585
0.0247334
3.61121
0.0840442
3.3442
0.0268163
0.0350872
0.0709647
0.0266617
0.179505
0.0253297
4.6505
0.0252832
1.64981
0.0256308
0.0380256
0.156995
0.024728
0.150639
0.0247364
0.0252255
2.13023
0.0253341
4.35313
0.0253876
4.93563
0.0251605
0.025392
0.193102
0.0249779
4.58826
0.0250877
0.0341876
0.0254191
0.0256691
0.15161
0.116678
4.08175
4.88154
4.28069
2.79566
0.0845133
0.0251484
0.0256049
5.08224
4.40789
0.0252677
4.81838
3.65917
0.0768673
0.0365946
0.0347273
5.03729
0.0250679
0.0874394
3.6862
0.069524
0.673231
5.01813
0.0269853
0.0279148
0.0248295
4.84985
4.23508
0.0247867
0.190443
7.59202
0.0318998
4.3343
0.0566834
4.51378
0.0253006
0.0953184
0.190631
0.190929
0.0318332
0.0252267
4.12515
0.0996959
0.0388355
0.0254712
0.0724149
0.0247377
0.229658
0.0268966
0.0258785
0.0265829
0.0253836
0.0270373
0.0598231
0.0437505
0.0269189
0.1094
0.027287
7.25499
22.7913
0.0249113
0.0268642
0.025386
0.0254286
4.79126
5.38852
0.0619032
0.0253229
0.0267311
0.0252198
0.0261911
3.90465
0.0253814
0.0306613
0.045622
0.0253379
0.0251225
0.0250329
0.0256208
0.0453819
0.0253794
0.0335998
0.0343477
0.0256699
0.0252279
6.1501
5.59314
0.0255281
0.0247146
0.0249076
0.0349816
0.0343406
6.435
0.0755322
0.0268662
0.0253495
0.0737802
5.32882
0.0262532
0.0254844
0.0249224
0.0253992
0.0454146
0.0255638
0.0253544
0.0992836
0.0251418
3.78992
4.33764
0.0267771
0.0286955
0.0343481
1.94427
0.0447063
0.412577
0.072282
4.38919
0.0266898
0.0253496
0.0376343
4.38867
0.051134
0.025354
0.541624
0.0250217
0.0249276
0.0570712
4.46749
0.0456732
0.0739337
0.0253217
0.0567796
0.059632
4.37753
0.0250324
0.0942809
0.0288497
2.02918
0.0270012
0.0252265
4.95539
0.0255371
3.92448
5.1653
0.0253893
0.0256432
22.9337
0.0251427
0.0250404
3.73712
0.0249421
3.62552
0.0253388
4.96344
0.0525461
0.162601
4.88224
0.0255648
0.0254235
0.0255742
0.025195
0.0250107
0.0358719
0.0253987
0.0253142
0.0385123
5.54843
0.0253164
0.0252746
0.0311465
0.0253924
0.0256526
0.0252695
4.22326
0.0254454
0.0250476
0.0673642
0.0253334
0.0250894
4.22011
0.059601
0.0267408
0.0609445
0.0250436
0.0374563
0.028689
0.0252834
0.0703237
5.7796
0.0503087
0.0855765
0.0325982
0.0248875
4.26278
0.0249442
4.59931
0.0252215
0.0308357
0.0253065
0.0254406
0.0942932
0.0553031
0.0254392
0.0250942
0.105503
4.66431
0.0302004
0.0268867
0.0252774
0.476978
0.024849
7.36734
0.0251505
0.0265007
0.0256234
0.0919154
0.025094
5.75592
0.0256081
0.0273695
0.0269243
0.0252366
0.194653
0.882103
0.0256993
0.0306374
0.0286931
2.67025
0.0253139
6.76707
4.15954
0.0808859
0.0253452
0.0261449
0.0251596
5.81256
0.0258639
0.0253873
0.0251949
0.0433344
4.26212
0.0256618
0.0254067
0.0264079
0.0303646
4.38955
6.52995
0.028127
3.88512
0.031655
0.0253818
0.106411
0.0263599
4.30277
0.0255829
0.483668
0.0269377
0.0257213
7.3293
0.0249148
0.0746982
0.0618768
7.3496
0.0253711
0.178103
0.0275275
4.40902
0.458924
0.0250733
0.025562
0.0391446
3.94126
0.0851993
0.0753225
0.0257769
5.70351
0.0248513
0.110287
0.0254958
0.0275754
0.0263041
0.0915686
0.026246
0.098972
3.68303
0.0251614
0.0251503
0.0249952
5.376
0.025672
0.0279033
0.0566202
0.165581
0.0359376
11.1211
0.0274619
5.43628
0.025599
0.0248549
0.0393353
0.0253375
10.5008
0.0251579
0.0295391
0.0253107
1.89544
5.98764
0.0254612
0.0495192
0.0475667
0.0586939
0.0251213
0.569001
0.0254393
0.0248662
3.42185
3.48811
0.0597092
0.0256392
0.0867326
0.0308439
0.0255698
0.0270578
0.027593
0.0590199
4.86944
0.0252537
0.0253533
0.0253658
0.0885187
0.0363424
3.7616
4.85777
5.02996
0.0605614
0.0248994
4.46618
0.0481502
0.0256076
0.0253003
0.0528546
0.0253878
0.0494361
0.0254818
0.771006
0.028783
0.0261771
0.0271308
3.43186
4.42369
0.629549
3.3893
4.80434
0.0253937
5.01841
0.0257225
4.12484
0.0257254
0.0685607
3.52349
11.9306
5.81002
0.0251649
0.0254987
3.58564
5.39707
0.0256558
0.028068
0.0393259
0.026165
0.0277734
0.377323
4.16867
0.0689
0.0250793
0.0252619
0.0277152
0.703712
0.0253979
3.64211
0.0289434
0.0630322
0.110424
0.0251215
4.85488
5.78979
0.0247469
0.0253006
0.025488
0.0251984
8.31116
0.0252544
0.0248478
3.65584
0.0253116
0.0335378
0.0252819
8.1196
0.0282958
0.0355625
5.44424
0.0253513
0.0252406
3.70153
0.0350657
0.0252635
0.0251784
0.124973
3.98055
0.0256612
0.0248814
0.0251562
0.0468744
10.2879
0.0254362
4.89563
0.0356266
0.0264767
1.04087
0.0280389
0.0472306
0.0257196
0.181003
0.0486565
5.0164
0.0247471
0.0259222
0.0255733
0.0251409
0.0269312
0.0250449
0.0307878
0.0868698
0.219839
0.0251291
3.16671
0.0255911
0.190659
0.0254978
4.01522
3.95484
0.0374572
0.0250904
0.0252676
0.0252247
0.0248829
0.0279683
0.0254009
4.22724
0.902101
4.02496
0.0762293
0.349402
0.085199
0.0253781
6.73215
0.163285
0.0253816
0.192171
0.0327506
3.78359
0.0262873
0.0269431
4.75496
0.0263077
0.0252502
0.0341949
0.025467
0.0253941
5.82249
0.0479122
0.0252499
0.0253532
0.0251376
3.80761
0.0254908
0.0253182
0.0253658
0.0246329
0.106999
0.0249513
0.0250419
3.52385
0.0253005
0.0253616
7.74166
11.6183
5.41452
4.76986
0.0314619
4.51662
0.101564
0.0465432
5.29326
0.116338
0.0395678
0.0255155
0.0256652
0.0395618
52.4172
4.1785
0.0262273
0.0254818
0.02532
0.0251854
0.198241
0.151932
0.0253262
0.0255735
0.0764634
0.0248304
0.212109
0.0252107
4.48692
0.107974
0.024891
0.0395659
0.0270023
0.0326133
0.0321666
0.0310232
0.0513167
5.40448
0.208272
0.0252091
0.0255262
0.47523
0.0267083
4.97986
0.0251998
0.0256495
0.0253886
0.191093
0.0250761
0.0423259
3.72877
0.0256703
0.0697489
4.66781
0.728031
0.0253753
0.0247555
0.0281307
0.0252628
0.0251418
4.78868
2.82209
0.0261699
4.40304
0.414193
0.112573
0.198653
0.0262134
0.0252521
0.326512
0.0900686
0.131326
0.0859683
0.0253804
0.0250451
0.293454
0.0248791
0.02525
0.100377
0.0253036
7.42271
0.0781625
0.0281367
4.85094
0.0300147
0.0248817
0.164935
0.0293668
0.0817478
0.0253612
0.025443
0.0673889
0.0252137
0.510218
0.0250384
0.025187
0.0252946
0.0254475
0.0250233
0.0252987
0.0248899
0.20717
4.20733
0.025204
0.0829039
0.031979
0.035144
5.66916
0.0256989
0.0262217
3.94984
0.0511766
0.0898554
0.0298707
0.025252
0.0265809
3.85807
9.84718
0.0248417
0.0746352
0.0247175
0.0960777
5.10674
3.70176
0.126159
0.025291
0.0270514
0.0313967
4.77489
0.0291605
0.0253913
0.0756881
0.0949537
4.41873
0.0252929
0.0277463
0.0802754
0.0253941
0.516089
4.29041
0.0252261
0.0274786
0.0299774
0.0247707
7.09068
0.02563
0.0253208
0.0256732
13.556
4.62268
0.025349
0.231691
0.0254572
1.00327
0.0275117
4.56789
0.0253676
4.01747
0.0262141
0.0251439
0.0254293
0.201321
0.293118
0.039055
0.79369
0.0246232
4.09973
4.55881
4.82691
0.131625
0.0308202
0.0246305
0.0257956
3.41967
0.119089
0.0253372
0.183187
0.0250172
0.0251999
0.0823182
0.026193
0.0249673
0.0262341
0.0251552
0.345505
0.025368
4.64083
0.211091
4.83982
0.0251545
0.202884
5.63327
0.0262606
10.4928
0.0254714
0.0258069
4.55064
0.0256455
0.0250345
0.0370972
0.0269321
0.0252533
0.0271414
4.92186
0.0256787
4.88948
0.0297959
0.0250168
0.0287441
1.33019
0.0249
4.73321
0.027181
0.068621
0.0265753
0.0251484
0.0256966
0.56477
8.4053
0.0724663
0.0247133
0.0577288
5.56934
0.0253799
0.138834
0.0484686
0.0252002
5.82043
0.0404613
0.0253989
4.11898
11.7171
0.026594
0.0787782
4.1901
0.166
0.0251638
0.0253423
0.0259015
0.0291377
0.029335
0.154717
0.0256209
0.0253502
0.0251184
0.0252687
0.0252731
0.0609113
0.0256751
4.2847
5.02388
3.8853
0.142758
4.28514
0.0271973
0.150344
0.025286
0.0249993
0.0251341
5.01765
0.0252052
0.176934
0.0507723
0.0427255
0.0275
0.109533
3.38921
0.0273831
0.0255114
0.0247212
0.0252361
0.0599812
0.0253969
0.0252664
2.44366
0.0252901
4.36494
0.0250651
0.0257936
0.0713795
8.59354
0.025542
0.0852477
2.12271
0.043256
0.24011
0.0986855
0.0256468
0.0254842
0.0286513
0.075533
4.36856
0.0255684
0.026167
0.0253194
0.0255576
0.026298
5.09374
0.0253218
4.19978
7.75026
0.0709099
0.0344085
0.0347439
0.175461
0.0942696
0.0252274
0.0258951
0.238063
0.0253587
0.0253998
0.0585249
0.0317396
0.229084
0.0254915
0.0251377
0.0438341
0.0258438
0.0253695
4.9302
4.14736
0.168226
0.0253259
0.0252001
0.0250593
0.0253201
4.42253
0.0252938
0.0251411
4.21985
0.0250852
0.251534
0.288202
4.18705
11.7347
0.196529
3.88811
0.168557
0.222906
4.21213
0.0246299
4.21183
0.408024
0.0252866
0.0351163
5.36864
0.0254387
0.0252656
0.0253285
0.0251364
0.0248435
0.237719
0.148653
0.0296952
0.157638
4.28632
0.0251481
4.77235
4.84376
0.0436079
0.0258568
0.0253274
0.0290533
0.026823
0.0292485
0.0314114
0.0589445
0.355378
0.477825
0.0250103
4.39692
0.0297827
0.160188
0.0253624
0.02526
0.0256769
0.154505
0.0495895
0.0252765
5.36777
0.025358
11.4752
0.10987
0.0421722
0.950047
0.0264697
0.0761129
0.0252705
0.0280263
0.0251752
0.0254954
0.067372
0.0357549
0.0282943
0.417456
0.0252254
0.0252039
0.0253757
0.0255028
0.0254929
0.0260415
0.0267532
3.93125
0.0269536
0.0250229
0.0254267
0.0391522
2.41242
0.738046
3.80491
0.0559081
0.0262
0.0247139
0.0304134
0.025218
0.024756
0.0254595
0.0294051
6.45158
0.356133
0.0511191
0.0336262
2.75689
3.24192
0.0256715
0.0250373
0.519363
0.0254862
0.0252751
0.0583638
0.0471245
0.0850931
0.0256472
0.0250641
0.0260116
0.0255412
0.0254104
0.0259273
0.0685363
0.0262169
0.0251846
0.0251593
0.0256366
0.14749
0.0678525
0.0865519
4.21842
0.0251032
0.0246922
0.0254186
0.0258554
0.0657887
0.0252754
0.0255235
0.0784824
0.669388
3.94478
0.0255581
0.0249983
1.36039
4.07599
0.134155
5.37736
0.169272
0.0252667
0.0404894
8.46245
0.0253811
0.452112
0.0251015
4.13576
0.105779
0.0270756
0.0252157
0.254096
6.01211
0.061864
0.108998
0.156199
0.0562838
0.0305688
0.0350699
0.695716
12.4932
5.00339
0.0328253
0.0251338
4.10959
0.163537
0.0479139
0.0567465
12.3281
0.025553
0.02506
0.0252929
4.28937
0.0854166
1.42251
0.029324
0.0806329
0.0255181
0.025471
0.0258243
0.0247046
3.31505
0.0291343
0.0250173
0.0750546
4.80631
0.0256834
0.0378076
6.07109
6.37361
5.00604
3.41636
4.02829
0.169835
0.0250573
0.0853409
7.81923
22.379
0.0246998
0.02877
0.025045
0.0288755
0.02526
0.0246905
0.0253543
0.541081
0.025377
4.75429
6.3736
0.0251357
0.0251087
0.100898
0.0352669
0.0249096
0.589996
0.0252229
0.159483
0.06492
0.160032
0.0297687
0.0765533
0.0520519
0.024896
0.0386769
0.0925565
3.99118
0.0252187
52.4072
0.026634
0.0251369
0.02725
0.13545
0.151761
3.85898
0.025511
0.0261792
0.0253001
0.106033
0.0291983
0.0403733
0.025013
3.4712
0.0246223
0.0247394
4.58726
8.21844
0.02528
17.7822
3.357
3.59555
5.64458
3.85429
6.43375
0.025415
0.0256412
0.0254067
0.0250902
4.12231
0.0560241
0.0642163
5.67935
0.0251093
0.0257059
0.20467
6.06586
0.0394035
0.0256012
0.028613
0.0250778
0.0253671
0.100879
0.0256575
0.628588
0.0253135
0.0552655
0.0269717
10.7274
0.197363
0.0248557
0.0253252
0.0252959
0.205584
0.0798081
0.0261503
0.0253146
0.0552167
0.0254496
0.0282717
0.0298349
0.20474
0.0455821
0.0662924
0.0248657
0.0252981
0.0265146
0.0469812
0.0822393
0.0849152
0.0257732
0.0255966
0.0401597
3.40244
4.58501
0.024883
0.0310079
0.0248612
5.28583
0.027318
0.0258558
0.0287124
0.101043
4.02046
0.0313746
0.0406951
0.0250433
14.392
0.0480088
0.0252402
0.893027
0.0333876
0.0387753
0.0643343
0.888485
0.0469859
0.471346
4.23638
0.0319524
0.0250399
0.448707
0.0251975
0.0250332
0.0252414
2.0212
0.0258797
0.0248692
0.0607123
0.0357767
0.0254987
0.0291534
0.0253212
0.0251545
3.50577
0.0716244
0.324935
0.0557314
0.163369
0.0253978
11.3624
0.0927465
0.0607482
4.70297
0.0251337
0.0253953
0.0554026
0.0852208
0.0252855
5.39059
0.168204
0.0366892
4.27792
3.38639
0.0248337
0.180999
0.205643
4.83159
0.0264593
0.0585143
0.0250131
0.0550438
0.025158
0.188872
0.179507
0.0253913
0.0250489
0.0249112
0.0830732
0.0456798
0.124523
3.71764
3.67659
0.024844
4.77847
0.0255644
0.0254881
0.0251553
0.372406
0.0256149
0.0268142
0.0253343
0.059281
0.0255055
0.0266004
5.01174
0.0253644
0.143121
4.19647
0.347564
4.2442
4.62823
0.0343744
0.0837901
0.025321
1.0426
0.0248683
0.0252843
0.025282
0.0253161
4.39196
0.0253266
0.162662
0.0249502
0.0466876
0.0262311
0.0446906
0.0272772
0.0255719
0.0316825
0.0247406
0.0251973
4.95162
0.0254067
0.0617873
0.028352
0.0271961
0.0993845
0.0254785
0.0258782
0.0865742
4.10425
5.26353
4.87989
6.94945
0.0778459
0.02513
0.0252287
0.0539806
4.74524
0.0621605
3.96378
0.0251868
0.0252639
0.159219
0.0250203
3.54907
4.40371
5.94068
0.0251489
0.0256425
0.0248186
0.0251208
4.1949
0.0252967
0.0256513
0.0424756
5.2216
0.0255753
0.0252078
0.0250864
10.8657
0.0258434
0.0294729
4.34469
1.35373
0.0828339
3.65016
6.43182
4.2021
0.0253095
10.5095
0.0253752
0.0253503
0.0547151
4.38382
0.137098
4.5184
0.0248689
0.0252509
0.0252441
0.0597316
1.36737
0.04564
4.41868
0.0288179
5.0252
6.62062
0.0253971
0.103323
0.0303736
0.0278247
0.0415497
0.0249921
4.13039
4.39434
0.0256493
0.025308
0.556788
0.0259212
0.0258803
3.90085
0.151329
0.0254545
0.0253028
0.0254514
0.0253988
5.45836
0.030218
0.025269
0.0250554
4.27194
0.025075
0.0255034
4.20362
0.0252396
0.181253
2.48858
0.0327105
0.0263661
0.0327217
16.513
0.0248807
0.0272636
4.19694
0.0577968
0.0254922
0.108324
0.046811
0.399644
4.26402
0.0284936
14.5034
0.025351
0.0252739
0.0255381
0.025341
0.0294052
0.0529117
0.151708
0.0252495
0.0620804
0.029269
0.335378
0.78925
0.0255179
0.0246217
4.56878
5.15773
0.0430623
0.0251239
0.0420842
0.0252843
0.0360669
0.0252338
5.01112
0.0557517
0.0251627
12.4514
4.53885
0.0251982
0.025463
4.257
0.0636394
0.0250561
4.08933
4.74619
0.0250514
0.0252917
5.15528
3.43237
0.190531
0.0252741
0.159563
5.33131
0.0366063
0.0248338
0.0444597
0.0246347
5.79557
0.0261645
0.0317338
3.86086
6.99882
0.0255171
0.0254799
4.42783
4.87114
0.0251223
0.0257384
0.0254548
0.0254135
0.025015
0.133163
3.46692
0.0269917
0.156987
0.345143
0.0366092
0.0256247
0.0254798
0.0248732
4.48172
4.82632
0.0733031
0.138647
0.0271509
5.06472
0.135489
0.0351769
0.0254676
0.0254914
0.216531
5.84867
0.0250179
0.0383446
0.0248323
0.0252519
4.28171
0.133583
0.0321221
0.0250546
0.0251013
4.85598
1.3739
0.0262215
0.0338865
0.0722192
4.15882
0.026413
0.0734839
7.55615
0.0626346
0.0253208
0.0461698
0.0578625
0.0251876
0.0253275
5.67904
0.0884235
3.56376
0.0778322
0.0270273
5.33588
0.026717
0.0920178
0.0250345
0.035465
0.0251091
0.0406536
0.0252066
5.46361
0.0251057
0.025345
4.28456
0.0456867
0.15687
0.0253629
0.0251283
4.72768
0.183215
0.0803883
0.0293391
0.574863
0.267367
0.194847
0.0580391
3.7666
4.25478
6.32834
0.025397
0.0248719
0.0253004
0.116187
0.158252
0.0253262
0.0328735
4.25329
5.4154
0.025678
3.74224
0.0288521
0.0567911
0.0460809
0.0255341
0.025169
0.105043
0.0322374
0.160017
0.0279289
0.0255238
8.88319
4.96093
0.025027
0.056798
0.0255315
0.0254296
0.0294435
5.89947
0.0515354
0.0253542
0.0262476
2.22944
4.27272
0.0821387
5.8725
0.0427131
4.74129
0.0258163
0.0254871
0.0253391
0.0253625
0.333923
0.0863437
0.0253539
0.0668783
0.0296963
3.54625
0.334319
0.0253289
0.0254032
0.0258902
0.0299816
4.08119
3.9583
0.032118
6.30652
0.108601
0.0252242
0.0748506
0.0251068
0.0252062
0.0327317
0.026171
0.0289441
0.0519155
0.0249552
0.0252846
0.0270652
6.91333
0.025162
0.0260768
5.82035
0.196805
0.175848
0.0252901
6.99316
0.0254681
0.310907
4.57498
11.8606
0.0283912
0.0363978
0.0257384
0.0263381
4.91771
5.76649
4.24462
0.0303618
0.0248754
0.0446893
0.0256396
0.0251638
4.0407
0.0331314
0.0608467
0.0250105
0.0288603
0.034084
0.323729
0.0252037
0.0563614
3.99999
0.0253426
0.0265621
0.048616
0.0265553
3.38844
0.0250228
0.0258561
0.0252788
0.0295046
0.0249156
0.0248572
5.16118
4.09493
4.31663
0.0785289
0.186387
7.46038
0.0291356
0.118843
0.0254865
0.0253233
0.0352657
0.0395996
0.191394
5.34679
10.8414
0.0262083
0.0252047
0.0546962
0.0252536
0.0370982
4.12321
3.76317
4.10038
11.4609
0.026666
5.45912
0.0607318
0.0251092
4.46559
0.0853757
0.0296343
0.0253933
5.7375
0.0255328
0.187474
0.088039
5.32901
0.0254568
0.0872774
3.49243
0.0630715
0.0269843
3.99873
0.0251379
0.024894
0.0270437
0.02533
4.85656
5.75805
0.18136
0.0253234
6.56542
0.0263056
0.0490658
0.583266
0.0408241
0.0577179
0.0246885
0.0254965
5.59976
0.195546
4.6612
0.0248777
0.02751
0.0552634
0.0252713
0.0247854
0.0264003
0.0254253
0.0250483
0.181575
0.042545
0.0256286
0.0281031
0.117291
5.30635
3.93027
0.030053
2.40217
0.0598696
0.0325696
0.0253276
0.0273981
3.65992
3.4611
3.70164
0.0364466
0.0254793
0.0254802
0.0376417
0.0256733
0.0252938
4.25165
2.90874
0.0250517
4.07593
7.80093
0.024703
0.0248817
0.0270356
0.0256057
0.420747
0.0738141
0.154072
0.166735
0.113775
10.1344
0.0692831
0.0251818
0.0255216
3.44701
0.0646175
0.114981
0.0567466
4.68503
0.0251516
0.187567
0.0256649
0.0253673
0.0271451
0.0815321
0.074251
0.0253332
0.0253676
4.73491
0.0304736
0.0302511
6.5651
3.65622
0.0749514
0.0252835
0.0757565
0.0248917
0.0262242
3.56489
5.19017
0.0678955
0.0833982
0.0270032
0.0532689
0.0437237
0.169469
4.50285
0.0443044
0.0248688
5.14364
0.0271536
0.0260823
0.0253546
0.0250957
4.02259
0.0647886
0.0250167
0.185028
0.203395
0.0870552
4.16512
0.112503
0.0252693
0.0369743
3.54474
4.06358
0.0460578
0.05434
0.0262129
3.94973
0.0252149
4.30568
0.0250152
0.0252472
0.268188
0.0427471
0.0261629
0.0253375
0.0252716
4.17095
0.0947389
0.0250935
0.0253927
0.0772666
0.0261072
1.38536
0.0251079
4.04161
0.104193
0.025456
4.64219
0.0252677
0.0304535
0.0253925
4.3487
0.161073
0.0478068
0.0255566
0.202224
0.0249512
5.10169
0.0250738
0.025158
0.0302871
4.79959
4.71211
0.0513737
0.0781275
0.025323
0.0370767
0.0297194
3.71994
0.025767
0.024993
3.74473
0.114958
0.0260909
0.0251601
1.31101
0.0273543
4.75152
0.0770572
0.0250165
0.0260966
0.398411
4.66167
4.3218
0.094662
0.0250987
0.0253469
0.0271559
0.0761025
0.025342
0.0483519
0.0322901
0.111
0.0470275
4.27458
0.0256485
12.2668
0.0258574
4.17416
0.0298406
0.595182
0.0252418
0.156633
0.0248467
0.527057
0.025105
0.470641
4.27602
0.060833
0.0255294
0.0257742
0.168944
0.0250982
4.81891
0.025548
0.365176
0.0263223
6.34248
0.0251036
0.0249963
0.0273291
0.0250055
0.0248456
0.0697572
0.0769189
4.67006
0.0526137
2.34355
0.0254345
4.87219
0.0254776
0.0250771
3.74213
0.0256555
0.0253622
0.0254113
0.0252728
9.98795
13.1811
0.0315149
0.42801
0.0253106
0.0294149
0.0456096
6.59757
0.0253136
0.0251557
0.0268685
0.025494
0.0255298
14.9718
0.634383
0.49749
0.0302511
0.0251995
0.0249548
0.0533052
0.0300477
8.28922
5.99271
0.0252841
0.0266814
0.0253286
0.0247544
0.0257228
4.14115
3.88487
0.0251287
0.0284889
0.195366
0.0490054
0.0265454
0.0383074
3.83809
4.33674
0.0560309
0.0308381
0.0465211
0.0247885
0.055706
0.0249571
0.0256794
2.1376
0.0266635
0.150387
4.60406
0.0251955
0.0250322
0.0251954
0.43999
0.164116
0.0258847
0.0256735
0.0251587
0.0360168
0.0863737
0.0999917
0.0266335
0.0252596
0.0252094
0.0608875
0.160969
0.0612017
0.135017
0.107999
1.16351
0.0249936
0.0254549
0.15456
0.0316228
0.506976
0.0253489
0.0261041
0.15676
0.0257455
6.04936
0.0249878
5.00091
5.87005
6.62944
0.106456
0.149119
0.0299318
0.0257711
0.0248042
4.40101
0.0256668
0.0268767
0.054583
0.0276977
2.61561
0.0279603
0.193557
0.364471
0.0290074
0.0254955
8.821
0.109429
0.178969
0.0256435
4.89647
4.24526
0.0247533
0.0253819
4.60329
0.0250494
6.0511
0.0803855
0.0305785
0.168597
0.0250494
4.3212
29.07
4.94454
0.0566352
4.32847
0.0253919
0.398541
4.35239
0.025292
0.424995
5.31282
0.0246849
0.0298789
0.0395734
0.0253369
0.0774311
0.0380435
0.025334
0.0253116
0.466236
4.15535
6.46616
0.0254913
0.0253057
4.41118
0.610682
0.0253932
0.0298293
6.27653
0.067178
0.0365133
0.0824258
0.0254858
0.112702
0.0273844
0.0254323
3.58076
0.0347542
7.11755
0.0254781
0.0254714
0.0254604
0.025348
0.0255223
0.149697
0.0907213
0.025273
0.0330718
0.0817557
0.0279022
9.79368
0.0509516
0.0255181
0.0271902
0.108453
3.36883
0.0254658
0.0254732
0.0252318
0.0783334
0.0254771
0.0294599
0.538773
0.196363
0.0700143
0.0251368
0.146725
4.97094
0.0249986
5.61071
4.19531
0.0477493
4.19651
0.152399
0.0270785
0.0260902
0.0254248
4.10579
0.0250507
0.0326749
0.0251785
12.1579
0.170089
0.0508335
0.0499462
7.55185
0.0288009
0.025029
0.0257914
0.0533855
0.0699808
0.0250056
0.0255884
0.025413
4.00141
0.0287289
4.09208
0.108785
0.0562236
0.0255522
0.0393979
8.63861
0.152991
0.0444005
0.0252374
4.7785
0.0250948
0.0568858
5.19889
0.0352976
0.025107
0.0254478
0.024853
3.8452
0.0289122
0.0757312
0.0482596
0.0604076
0.232673
0.0254777
0.0246823
0.0574899
4.20636
0.0258024
4.84084
0.0250355
0.025489
6.22671
0.442159
0.0803406
4.95982
0.0572675
4.44576
0.0484041
0.0255526
8.16747
0.0251339
0.0325165
0.0255807
9.73645
0.133973
5.68068
0.0253537
3.94191
0.0312913
0.0254666
4.25969
0.0340063
3.6741
0.0278079
0.0251947
0.0575437
4.92814
0.0252075
0.0468475
6.70271
6.72172
0.0258151
5.39479
4.146
5.40121
0.0251979
0.0252862
0.0258359
0.0256704
0.203063
0.0272
0.501816
0.0822952
5.25531
0.707628
0.0258124
4.09462
0.0261553
4.29916
3.67079
0.555677
0.229621
0.100281
0.0255024
6.94583
6.29637
0.0409398
0.0252877
0.038995
0.0573664
0.0256242
0.0247035
0.0515977
0.0254109
0.0373672
0.0342511
0.0251146
0.13817
10.2725
0.0314441
4.13961
0.0436872
0.031008
0.0250252
4.49601
0.236348
0.0533669
0.026787
0.0296996
4.70648
0.0271519
0.0254056
0.024902
0.0437774
3.93537
0.025165
0.0254843
3.85064
0.0250984
4.99181
0.0549114
0.0250426
0.025233
4.25629
0.156503
0.0251944
0.0249202
0.0255029
0.0460328
0.0852236
4.23233
0.0258162
0.0266716
0.0277017
0.0287801
4.23328
0.0295872
0.0248747
5.87576
0.0250073
0.156088
0.0254358
4.32749
12.1034
0.030007
0.0254293
0.0252882
0.0254661
0.231252
0.0252217
8.03901
0.0312206
0.0248758
0.0246841
2.40507
0.076908
0.0252913
1.65
0.0353943
0.284712
4.7317
0.0338615
0.0254263
0.0253581
0.052801
0.0278554
0.0254756
0.0254199
1.36404
5.12774
0.025031
0.0252405
0.0251949
5.43364
3.36162
0.0898452
0.0251895
0.0365235
0.0254928
0.0247801
0.0390691
0.902636
0.210296
0.0250814
0.289837
0.111047
0.0467945
0.0255096
7.10402
0.025406
0.0293542
0.0252403
0.025145
0.0292926
0.0252341
0.0251732
0.0256099
5.08127
0.0257031
0.0412103
0.0251402
0.025262
0.0287042
0.0715948
0.0567569
0.0256174
0.0254405
0.0287877
5.74985
0.296552
0.0263819
4.04756
0.0252927
0.028531
4.80834
0.025688
0.0254777
0.0383653
0.0253327
0.0809083
0.11557
4.64976
0.0249757
6.39759
1.03911
0.0253374
6.55047
0.0755543
0.556941
0.0252702
0.17614
0.0302028
0.0254713
0.139178
0.0251703
0.0286851
0.0251411
0.025264
5.37756
0.0963631
0.0252908
0.025384
0.0263037
0.0425919
0.0255438
0.0254106
0.0457649
0.0325534
6.73844
1.37124
0.0252485
0.0249298
0.0254185
0.0255993
0.0256661
0.0573712
0.0254403
0.0262154
0.0254184
0.0326205
4.13446
0.168005
0.0256684
1.03306
4.45911
0.0253387
0.0251447
4.59336
0.0264752
9.87691
3.97095
0.0249119
0.0307019
0.039388
0.0573375
0.0252463
0.0456979
0.0269246
0.172232
0.0813604
0.0252823
0.0253247
4.08001
0.0251465
0.256313
0.074528
0.194455
4.45455
6.71365
4.56869
0.13389
0.0493985
0.0259757
0.028751
0.025639
2.81198
0.0252638
0.0251404
0.0253714
0.0249753
0.0472011
3.99652
0.0735616
0.0804906
0.028433
7.42295
0.0328137
0.0577106
0.232592
0.0252908
0.0253169
0.128997
0.0251741
0.0334645
0.0278933
0.0248039
4.21567
0.0848678
0.0255648
0.0252873
0.0270274
7.40794
0.0574472
5.95747
0.0253338
3.59942
0.0287296
0.0294352
0.0251944
0.844107
0.0266087
0.458623
0.0592756
0.035064
0.0253267
0.0252167
0.0258926
0.025431
0.0250855