/*--------------------------------*- C++ -*----------------------------------*\
| =========                 |                                                 |
| \\      /  F ield         | OpenFOAM: The Open Source CFD Toolbox           |
|  \\    /   O peration     | Version:  v2012                                 |
|   \\  /    A nd           | Website:  www.openfoam.com                      |
|    \\/     M anipulation  |                                                 |
\*---------------------------------------------------------------------------*/
FoamFile
{
    version     2.0;
    format      ascii;
    class       volScalarField;
    location    "300";
    object      omega;
}
// * * * * * * * * * * * * * * * * * * * * * * * * * * * * * * * * * * * * * //

dimensions      [0 0 -1 0 0 0 0];


internalField   nonuniform List<scalar> 
37190
(
0.0253524
4.25896
0.0248986
0.0677506
3.83902
0.0251294
0.0569529
0.0262828
0.0642128
0.195984
0.0253206
0.0247478
0.0294773
0.0249865
4.62328
0.0252803
0.0266066
0.085205
4.48286
0.732671
0.0268931
0.0253507
7.00052
0.0270018
0.0271476
0.0252827
0.0561662
0.0552735
1.68101
4.89646
5.5817
0.0251238
0.0782261
0.205933
0.0967095
0.0558977
0.0247425
0.0270021
0.0264538
0.0252473
0.186101
4.72249
0.0269158
0.101672
0.0254028
0.180736
5.65499
0.634851
0.0248938
3.78265
0.025683
0.0252824
0.0338969
0.0431658
0.0255187
0.0254888
0.190449
0.0247461
3.56984
0.0248372
3.63525
0.05588
0.0246095
4.57279
0.0268494
0.0270486
0.0250294
0.141792
0.101098
0.024613
0.0255287
0.0254286
0.0303598
0.0251572
0.0253023
0.0253455
4.85793
0.045909
4.11018
0.0309825
0.0254418
0.0335404
0.0251558
0.198758
4.63591
0.0265658
3.74648
4.70755
4.63163
0.0251255
4.68548
0.0848851
0.0270729
0.0251491
0.0252771
0.027221
4.18439
0.0252588
0.0650995
8.48882
0.0269895
0.138458
4.90922
8.63769
0.0254337
0.0255597
4.09144
0.0254905
0.0250316
5.00032
5.42875
4.4939
0.0267245
0.0247967
0.0253048
0.0253752
0.0461763
0.0264717
0.0252496
0.0261799
0.025292
3.51003
0.0253891
0.0254233
0.025342
3.98088
0.0247991
0.0253327
0.291716
0.0863075
0.0253275
4.2188
0.0288451
0.027304
4.73858
0.0250878
0.0535443
0.14476
0.173315
0.0261662
0.0305177
0.0559205
0.0624057
0.027286
0.0252794
0.0253381
5.62499
0.0263085
0.151972
0.024866
0.0252926
0.0365118
0.162355
0.0253868
3.63185
0.0249055
4.0719
0.0253221
4.16794
0.0517331
0.0705635
0.0253508
4.47279
3.62558
0.0364135
0.0260865
5.28635
0.112491
3.62498
0.17248
0.0250877
3.69147
0.0253528
0.028445
3.44184
0.100288
0.0252386
0.0267977
0.0753047
0.0274459
0.098382
0.0254497
0.0254435
0.0249944
4.82209
0.0255425
0.0768376
0.0356086
6.93255
0.216077
0.025497
0.0845892
0.024834
0.0258234
0.32416
0.0291628
0.0252287
0.0573018
7.80642
4.72172
0.306032
0.024953
0.0252969
0.0255502
3.53913
0.043696
0.0559054
0.0256471
0.025289
3.70988
0.0253328
3.55432
0.0249562
0.0391114
4.28901
6.82557
0.15324
0.144034
0.20555
0.0254323
3.54861
0.0247472
0.0253369
0.0669883
4.50858
0.0253555
4.17421
0.0252716
0.0400068
4.72205
0.0268339
0.0253247
0.0248392
3.72912
0.039343
0.085512
0.230149
4.44861
0.0246264
0.0253107
0.0748339
0.0255434
3.50841
0.0252818
0.0252369
4.46677
0.0252757
3.85867
0.0804201
0.0922524
0.0251464
0.0585376
0.0253247
0.0333073
0.0299711
0.0254042
0.0845465
0.0255209
0.0519385
0.0252744
3.80663
0.0315718
0.02486
5.63491
0.0263615
0.0250275
0.0252675
0.0268787
4.58783
0.0247556
7.9466
5.16082
0.206034
0.0431537
4.31958
0.024913
0.0250725
4.07748
0.0358999
0.0305219
1.75568
0.0254268
0.133741
0.185921
0.0262698
0.0300109
0.0251363
0.0254236
0.0543697
0.0254089
0.0252115
0.0958937
0.0646328
0.0524931
4.30214
0.0253487
0.0251436
4.74809
0.0437348
0.0247586
4.1628
0.942501
0.0267826
0.145603
0.0250226
0.0248104
0.0250261
0.0255297
1.10548
0.0281821
0.0256505
4.70614
0.0390035
0.139699
4.77982
15.137
0.0338055
0.485823
0.0526829
0.0248076
0.0253529
0.038871
0.196555
0.0252188
5.94094
0.149534
0.0710443
7.97571
0.025246
7.22103
0.0423539
0.043251
0.0251926
4.86062
0.158518
3.94838
0.799644
0.0724841
0.0259772
4.63121
0.0260169
0.145023
0.0253024
0.025466
4.10639
0.281383
0.172666
0.0256508
0.0252509
0.0248354
0.0254911
6.02172
0.0251627
0.0248979
0.0321949
3.1486
0.025012
4.42527
0.0763579
0.0261562
0.0454007
4.17094
0.0644611
4.17542
0.0309801
0.0896818
0.0253293
0.0249913
0.0901034
0.0398813
0.0259771
0.0633625
0.0309415
0.755499
0.0263521
0.074251
0.0955795
0.220175
0.0964434
4.26457
11.0077
0.201865
4.2963
0.0448724
0.0532579
4.36274
0.057254
0.0389755
0.0832158
0.0391941
0.0251978
0.116337
0.0318373
0.0253131
0.0271027
0.0250275
2.03017
0.0296658
0.0256695
0.141974
0.0249929
4.78189
0.0269329
0.0252943
0.0271185
0.0252508
0.025206
3.82915
0.0259421
0.0249955
0.0253186
1.01271
13.3231
0.0251144
0.0251865
0.0252053
0.0444116
0.0253477
0.0247711
0.0251954
4.89122
0.209506
4.39354
0.025279
0.0247682
0.13463
4.7358
0.0256748
0.0264853
0.0251626
0.467551
0.0250056
0.0269722
0.0685255
0.0255193
7.82817
0.0254363
0.137082
0.0255175
0.0251491
0.0258031
0.0249954
4.80604
0.0266801
0.0252172
3.55182
4.25618
0.0249793
6.03501
0.0254822
0.0424077
0.147264
0.0253781
3.76
0.0252717
11.7629
0.0248375
0.0255733
0.0293608
0.0248427
4.43504
0.038305
0.0249121
3.53858
0.141795
0.0252455
0.162775
2.55863
0.0254062
0.0250363
0.0434337
4.81648
8.35723
0.194525
4.54182
6.02404
0.0439048
4.98688
0.0256437
0.0251258
0.0248485
0.0255042
3.72601
3.18305
0.0250364
0.0358781
5.06792
0.0253369
4.41125
0.0440629
0.0261599
0.0318889
0.0251478
0.164768
0.100874
0.0433597
0.0252141
0.0250507
0.169158
4.60713
0.0269079
0.0255998
0.0255489
4.82098
0.0457488
4.35899
3.06837
0.623149
5.6746
0.0255149
3.57803
0.0256046
5.21872
0.0248939
0.203902
6.34018
0.0379562
0.0248996
0.0249969
11.4982
0.0285207
0.087057
1.4136
3.58157
0.0252294
0.031514
0.0426992
0.0266936
0.214402
0.0256719
0.0681976
0.0248938
4.55845
0.0252901
0.0254133
8.72006
0.0251325
0.0254377
0.0252291
0.0277596
0.0256778
0.0256728
0.0758127
0.0273752
3.38559
0.0253846
0.0270275
0.0487238
0.0443666
0.0250891
0.0252118
0.0273956
0.0341611
3.85973
0.0922769
0.0253345
0.0267084
0.434915
4.74329
0.0252503
0.0247854
5.79783
3.84319
12.2053
3.83296
0.025493
0.0427943
0.0253663
3.42104
2.52533
0.0290273
0.0268587
0.751991
0.0896756
0.0250817
0.151746
3.89043
4.48759
0.0252037
0.0494879
0.046493
0.0253665
0.0264822
0.0252884
4.9643
4.79075
0.0250278
6.03213
4.50601
0.0256309
0.062239
0.0253048
0.0868774
0.0339457
0.0254063
1.17341
4.36265
0.0349823
4.43971
0.0253047
0.0259013
0.0288856
0.0314623
0.0287201
0.072801
0.0252545
0.0432953
0.0255572
3.80726
0.0583723
0.0252144
0.177059
0.0248679
4.49333
4.3709
0.0253123
4.19763
0.0247836
0.0253133
0.0272691
0.0253072
0.0837118
0.0315197
0.025213
0.0515417
0.025156
0.0597522
4.45515
0.0252707
0.0252673
4.51894
0.0256563
0.0247813
0.13876
0.0457515
0.0356955
0.0942686
0.0266666
0.0251513
0.0268774
2.23687
3.70618
0.147457
3.62141
0.024621
0.177852
0.0255938
0.0269575
5.66902
0.154979
0.0693376
0.0252717
0.15829
0.0273002
2.54178
0.109626
0.0369825
4.29098
0.0255235
4.34273
0.166459
0.0268304
0.0316462
0.0519873
0.0545296
0.0317024
0.0246242
0.0806178
0.0252567
0.0922559
0.0582985
0.0251596
0.092434
4.31351
0.0254721
0.0253793
7.9809
0.0253289
0.0250876
0.0954247
5.17429
3.39205
0.0339585
0.0247334
3.61114
0.0840468
3.34395
0.0268163
0.0350873
0.0709655
0.0266618
0.179506
0.0253297
4.6505
0.0252832
1.64778
0.0256308
0.0380258
0.156998
0.024728
0.150632
0.0247364
0.0252255
2.12829
0.0253341
4.35315
0.0253876
4.93563
0.0251605
0.025392
0.192901
0.0249779
4.58841
0.0250877
0.0341877
0.0254191
0.0256691
0.151616
0.116678
4.08174
4.8816
4.28069
2.79363
0.0845148
0.0251484
0.0256049
5.08213
4.40809
0.0252677
4.81838
3.65912
0.0768671
0.0365943
0.0347273
5.03746
0.0250679
0.0874385
3.68613
0.0695227
0.673268
5.01835
0.0269852
0.0279148
0.0248295
4.84993
4.235
0.0247867
0.190313
7.59191
0.0318999
4.3343
0.0566843
4.51382
0.0253006
0.0953182
0.190625
0.19093
0.0318332
0.0252267
4.1252
0.0996996
0.038834
0.0254712
0.0724136
0.0247377
0.229652
0.0268966
0.0258785
0.0265829
0.0253836
0.0270373
0.0598234
0.0437509
0.0269189
0.109404
0.027287
7.25485
22.7914
0.0249113
0.0268642
0.025386
0.0254286
4.79134
5.38866
0.0619039
0.025323
0.0267311
0.0252198
0.0261911
3.90467
0.0253814
0.0306614
0.0456228
0.0253379
0.0251225
0.0250329
0.0256208
0.045382
0.0253794
0.0335996
0.0343477
0.0256699
0.0252279
6.14987
5.59317
0.0255281
0.0247146
0.0249076
0.0349814
0.0343404
6.43468
0.0755322
0.0268662
0.0253495
0.0737798
5.32879
0.0262531
0.0254844
0.0249224
0.0253992
0.0454148
0.0255638
0.0253544
0.0992662
0.0251418
3.78992
4.33763
0.0267772
0.0286955
0.0343481
1.94613
0.0447065
0.412562
0.0722821
4.38954
0.0266898
0.0253496
0.0376345
4.38866
0.0511343
0.025354
0.540767
0.0250217
0.0249276
0.0570715
4.46924
0.0456733
0.0739341
0.0253217
0.0567805
0.0596323
4.37728
0.0250324
0.0942831
0.0288496
2.03049
0.0270011
0.0252265
4.95573
0.0255371
3.92448
5.1654
0.0253893
0.0256432
22.933
0.0251427
0.0250404
3.73714
0.0249421
3.62556
0.0253388
4.96376
0.0525461
0.162601
4.88239
0.0255648
0.0254235
0.0255741
0.025195
0.0250107
0.0358717
0.0253987
0.0253142
0.0385124
5.54941
0.0253164
0.0252746
0.0311465
0.0253924
0.0256526
0.0252695
4.22329
0.0254454
0.0250476
0.0673617
0.0253334
0.0250894
4.22009
0.0596012
0.0267409
0.0609453
0.0250436
0.0374564
0.0286889
0.0252834
0.0703278
5.77952
0.0503088
0.085576
0.0325983
0.0248875
4.26288
0.0249442
4.59908
0.0252215
0.0308358
0.0253065
0.0254406
0.0942966
0.0553031
0.0254392
0.0250942
0.105506
4.6645
0.0302004
0.0268867
0.0252774
0.477086
0.024849
7.36718
0.0251504
0.0265007
0.0256234
0.0919148
0.025094
5.75598
0.0256081
0.0273695
0.0269243
0.0252366
0.19467
0.882147
0.0256993
0.0306375
0.0286931
2.65248
0.0253139
6.76681
4.1596
0.0808843
0.0253452
0.0261449
0.0251596
5.81248
0.0258639
0.0253873
0.0251949
0.0433347
4.26219
0.0256618
0.0254067
0.0264079
0.0303646
4.38954
6.53014
0.028127
3.88514
0.031655
0.0253817
0.106414
0.0263599
4.30281
0.0255829
0.483659
0.0269377
0.0257213
7.32916
0.0249148
0.0746977
0.0618774
7.34945
0.0253711
0.178053
0.0275274
4.40937
0.45891
0.0250733
0.025562
0.0391443
3.94087
0.0851983
0.075323
0.0257769
5.70343
0.0248513
0.110288
0.0254958
0.0275753
0.026304
0.0915734
0.026246
0.0989757
3.68297
0.0251614
0.0251503
0.0249952
5.37613
0.025672
0.0279033
0.0566105
0.165586
0.0359376
11.1213
0.0274619
5.43639
0.025599
0.0248549
0.039335
0.0253375
10.501
0.0251579
0.0295391
0.0253107
1.89356
5.9875
0.0254612
0.0495188
0.0475668
0.0586947
0.0251213
0.568174
0.0254393
0.0248662
3.42174
3.48801
0.0597099
0.0256392
0.0867347
0.030844
0.0255698
0.0270578
0.027593
0.0590204
4.86934
0.0252537
0.0253533
0.0253658
0.0885208
0.0363425
3.76168
4.85782
5.02999
0.0605614
0.0248994
4.46646
0.0481497
0.0256076
0.0253003
0.0528546
0.0253878
0.0494361
0.0254818
0.769508
0.0287829
0.0261771
0.0271308
3.43171
4.42368
0.629593
3.38914
4.80458
0.0253937
5.01832
0.0257225
4.1248
0.0257254
0.0685607
3.52341
11.9308
5.811
0.0251649
0.0254987
3.58556
5.3972
0.0256558
0.028068
0.0393261
0.026165
0.0277734
0.377349
4.16867
0.068893
0.0250793
0.0252619
0.0277153
0.70441
0.0253979
3.64206
0.0289434
0.063033
0.110425
0.0251215
4.85472
5.7897
0.0247469
0.0253006
0.025488
0.0251984
8.3113
0.0252544
0.0248478
3.65589
0.0253116
0.0335379
0.0252818
8.11983
0.0282958
0.0355626
5.44435
0.0253513
0.0252406
3.70154
0.0350657
0.0252635
0.0251784
0.124986
3.98055
0.0256612
0.0248814
0.0251562
0.046874
10.2916
0.0254362
4.89562
0.0356267
0.0264767
1.04099
0.0280389
0.0472311
0.0257196
0.181006
0.048657
5.01659
0.0247471
0.0259222
0.0255733
0.0251409
0.0269312
0.0250449
0.0307878
0.0868703
0.219838
0.0251291
3.16929
0.0255911
0.190661
0.0254978
4.01548
3.95484
0.0374574
0.0250904
0.0252676
0.0252247
0.0248829
0.0279683
0.0254009
4.22719
0.901999
4.02494
0.0762296
0.349298
0.0851997
0.025378
6.73215
0.163281
0.0253816
0.192175
0.0327504
3.78358
0.0262873
0.026943
4.75515
0.0263077
0.0252502
0.034195
0.025467
0.0253941
5.82241
0.0479126
0.0252499
0.0253532
0.0251376
3.80756
0.0254908
0.0253182
0.0253658
0.0246329
0.107002
0.0249513
0.0250419
3.52379
0.0253005
0.0253616
7.74157
11.6186
5.41556
4.76993
0.0314619
4.51654
0.101566
0.0465433
5.2934
0.116341
0.0395674
0.0255154
0.0256652
0.0395615
52.4176
4.17854
0.0262273
0.0254818
0.02532
0.0251854
0.198497
0.15193
0.0253262
0.0255735
0.0764629
0.0248304
0.212115
0.0252107
4.48819
0.107975
0.024891
0.0395661
0.0270023
0.0326134
0.0321665
0.0310231
0.0513168
5.40465
0.208273
0.0252091
0.0255262
0.475273
0.0267083
4.97959
0.0251998
0.0256495
0.0253886
0.191089
0.0250761
0.042326
3.72872
0.0256703
0.0697486
4.66811
0.726814
0.0253753
0.0247555
0.0281307
0.0252628
0.0251418
4.78866
2.81988
0.0261699
4.40306
0.414184
0.112656
0.198677
0.0262134
0.0252521
0.326569
0.0900705
0.131324
0.0859708
0.0253804
0.0250451
0.293417
0.0248791
0.02525
0.10038
0.0253036
7.42255
0.0781626
0.0281367
4.8507
0.0300147
0.0248817
0.16494
0.0293669
0.0817502
0.0253612
0.025443
0.0673892
0.0252137
0.510143
0.0250384
0.025187
0.0252946
0.0254475
0.0250233
0.0252987
0.0248899
0.207227
4.20727
0.025204
0.0829063
0.031979
0.035144
5.6691
0.0256989
0.0262217
3.94918
0.0511838
0.0898506
0.0298707
0.025252
0.0265809
3.85771
9.85099
0.0248417
0.0746354
0.0247175
0.0960812
5.10687
3.7017
0.126155
0.025291
0.0270513
0.0313968
4.77511
0.0291605
0.0253913
0.0756871
0.0949615
4.41837
0.0252929
0.0277462
0.0802756
0.0253941
0.51579
4.29042
0.0252261
0.0274786
0.0299775
0.0247707
7.09046
0.02563
0.0253208
0.0256732
13.5563
4.62283
0.025349
0.231695
0.0254572
1.00269
0.0275117
4.56814
0.0253676
4.01774
0.0262141
0.0251439
0.0254293
0.201315
0.293107
0.0390551
0.793748
0.0246232
4.09908
4.55905
4.82693
0.13156
0.0308203
0.0246305
0.0257956
3.41956
0.119095
0.0253372
0.183185
0.0250172
0.0251999
0.0823189
0.0261931
0.0249673
0.0262341
0.0251552
0.345438
0.025368
4.64115
0.211115
4.83981
0.0251545
0.202889
5.63326
0.0262606
10.493
0.0254714
0.0258069
4.55093
0.0256455
0.0250345
0.0370972
0.026932
0.0252533
0.0271414
4.92206
0.0256787
4.88947
0.0297959
0.0250168
0.0287441
1.33106
0.0249
4.73317
0.027181
0.0686214
0.0265753
0.0251484
0.0256966
0.564838
8.40529
0.072466
0.0247133
0.0577289
5.56935
0.0253799
0.138845
0.0484686
0.0252002
5.82018
0.0404614
0.0253989
4.11899
11.7171
0.0265941
0.0787783
4.19014
0.166005
0.0251638
0.0253423
0.0259015
0.0291376
0.029335
0.154722
0.0256209
0.0253502
0.0251184
0.0252687
0.0252731
0.0609119
0.0256751
4.2846
5.02361
3.8848
0.142773
4.28502
0.0271973
0.150349
0.0252861
0.0249993
0.0251341
5.01759
0.0252052
0.176939
0.0507723
0.0427256
0.0275
0.109536
3.38907
0.0273831
0.0255114
0.0247212
0.0252361
0.0599816
0.0253969
0.0252665
2.44232
0.0252902
4.36481
0.0250651
0.0257936
0.0713797
8.59356
0.025542
0.0852366
2.12065
0.0432564
0.240106
0.0986875
0.0256468
0.0254842
0.0286512
0.075533
4.36851
0.0255684
0.0261669
0.0253194
0.0255576
0.026298
5.09373
0.0253218
4.19945
7.75032
0.0709142
0.0344083
0.0347439
0.175466
0.094273
0.0252274
0.0258951
0.238067
0.0253587
0.0253998
0.0585252
0.0317396
0.22908
0.0254915
0.0251377
0.0438344
0.0258438
0.0253695
4.9302
4.1473
0.168232
0.0253259
0.0252001
0.0250593
0.0253201
4.4224
0.0252938
0.0251411
4.21976
0.0250852
0.251523
0.288316
4.18704
11.7348
0.196523
3.88822
0.168553
0.222911
4.21206
0.0246299
4.21179
0.408057
0.0252866
0.0351163
5.36868
0.0254387
0.0252656
0.0253285
0.0251364
0.0248435
0.237723
0.148656
0.0296952
0.157642
4.28622
0.0251481
4.77246
4.84379
0.043608
0.0258568
0.0253274
0.0290533
0.026823
0.0292488
0.0314114
0.0589434
0.355341
0.477894
0.0250103
4.39687
0.0297826
0.160193
0.0253624
0.02526
0.0256769
0.154507
0.0495855
0.0252765
5.36773
0.025358
11.4746
0.109874
0.0421723
0.950003
0.0264697
0.076111
0.0252705
0.0280262
0.0251752
0.0254954
0.0673729
0.035755
0.0282943
0.417433
0.0252254
0.0252039
0.0253757
0.0255028
0.0254929
0.0260415
0.0267532
3.93143
0.0269536
0.0250229
0.0254267
0.0391523
2.41409
0.738041
3.80447
0.0559082
0.0262
0.0247139
0.0304134
0.025218
0.024756
0.0254595
0.029405
6.4517
0.356112
0.0511176
0.0336263
2.75886
3.24038
0.0256715
0.0250373
0.519651
0.0254862
0.0252751
0.0583632
0.047125
0.0850915
0.0256472
0.0250641
0.0260116
0.0255412
0.0254104
0.0259273
0.0685528
0.0262169
0.0251846
0.0251593
0.0256366
0.147487
0.0678527
0.0865516
4.21875
0.0251032
0.0246922
0.0254186
0.0258554
0.0657888
0.0252754
0.0255235
0.0784826
0.669438
3.94453
0.0255581
0.0249983
1.35819
4.07607
0.134078
5.37731
0.169273
0.0252667
0.0404897
8.46258
0.0253811
0.452094
0.0251015
4.13579
0.105781
0.0270756
0.0252157
0.254086
6.01231
0.0618637
0.109001
0.156195
0.0562839
0.0305688
0.0350697
0.696249
12.4933
5.00321
0.0328253
0.0251338
4.10989
0.163533
0.0479144
0.0567465
12.3283
0.025553
0.02506
0.0252929
4.28936
0.0854159
1.42126
0.0293241
0.0806346
0.0255181
0.025471
0.0258243
0.0247046
3.31448
0.0291343
0.0250173
0.0750542
4.80657
0.0256834
0.0378077
6.07121
6.37344
5.00635
3.41619
4.0285
0.169841
0.0250573
0.0853404
7.81858
22.3793
0.0246998
0.02877
0.025045
0.0288756
0.02526
0.0246905
0.0253543
0.540991
0.025377
4.75435
6.37343
0.0251357
0.0251087
0.100898
0.0352669
0.0249096
0.590427
0.0252229
0.159479
0.0649191
0.160033
0.0297687
0.0765534
0.0520517
0.024896
0.0386767
0.0925558
3.99114
0.0252187
52.4075
0.026634
0.0251369
0.0272499
0.135447
0.151742
3.85919
0.025511
0.0261792
0.0253001
0.106037
0.0291983
0.0403741
0.025013
3.46985
0.0246223
0.0247394
4.58762
8.21857
0.02528
17.7825
3.35684
3.59559
5.64456
3.8545
6.43341
0.025415
0.0256412
0.0254067
0.0250902
4.12237
0.056024
0.0642161
5.67953
0.0251093
0.0257059
0.204638
6.06605
0.0394032
0.0256012
0.028613
0.0250778
0.0253671
0.100882
0.0256575
0.628582
0.0253135
0.0552656
0.0269717
10.7258
0.197367
0.0248557
0.0253252
0.0252959
0.205578
0.0798099
0.0261502
0.0253147
0.0552163
0.0254496
0.0282717
0.0298349
0.204734
0.0455821
0.066292
0.0248657
0.0252981
0.0265146
0.0469813
0.0822407
0.084918
0.0257732
0.0255966
0.0401594
3.40233
4.58537
0.024883
0.031008
0.0248612
5.28584
0.027318
0.0258557
0.0287123
0.101047
4.02054
0.0313746
0.040695
0.0250433
14.3923
0.0480084
0.0252402
0.893999
0.0333876
0.0387753
0.0643343
0.889443
0.046986
0.471329
4.23673
0.0319524
0.0250399
0.448532
0.0251975
0.0250332
0.0252414
2.0178
0.0258796
0.0248692
0.0607127
0.0357767
0.0254987
0.0291535
0.0253212
0.0251545
3.50568
0.071622
0.32493
0.0557317
0.163347
0.0253978
11.3625
0.092746
0.0607489
4.70291
0.0251337
0.0253953
0.0554024
0.0852202
0.0252854
5.39073
0.168209
0.0366893
4.27787
3.38623
0.0248337
0.181004
0.205593
4.83139
0.0264593
0.0585144
0.0250131
0.0550439
0.025158
0.188781
0.179503
0.0253913
0.0250489
0.0249112
0.0830758
0.0456798
0.12451
3.71765
3.67659
0.024844
4.77831
0.0255644
0.0254881
0.0251553
0.372175
0.0256149
0.0268142
0.0253343
0.0592816
0.0255055
0.0266005
5.01206
0.0253645
0.143124
4.19649
0.347648
4.24425
4.62817
0.0343741
0.0837906
0.025321
1.0421
0.0248683
0.0252843
0.025282
0.0253161
4.39185
0.0253266
0.162666
0.0249502
0.0466876
0.0262311
0.0446907
0.0272772
0.0255719
0.0316825
0.0247406
0.0251973
4.95159
0.0254067
0.0617848
0.028352
0.0271961
0.0993815
0.0254785
0.0258781
0.086576
4.10421
5.26334
4.87965
6.94929
0.0778475
0.02513
0.0252287
0.0539807
4.74521
0.0621612
3.9645
0.0251868
0.0252639
0.159235
0.0250203
3.54919
4.40365
5.94076
0.0251489
0.0256425
0.0248186
0.0251208
4.19482
0.0252967
0.0256513
0.0424752
5.22162
0.0255753
0.0252078
0.0250864
10.866
0.0258434
0.0294729
4.3446
1.35451
0.0828351
3.65022
6.43166
4.20216
0.0253095
10.5098
0.0253752
0.0253503
0.0547147
4.3837
0.137101
4.51831
0.0248689
0.0252509
0.0252441
0.0597319
1.36651
0.0456401
4.41865
0.0288178
5.02496
6.62044
0.0253971
0.103326
0.0303736
0.0278247
0.0415496
0.0249921
4.13039
4.39443
0.0256493
0.025308
0.556825
0.0259212
0.0258803
3.90106
0.151331
0.0254545
0.0253028
0.0254514
0.0253988
5.45822
0.030218
0.025269
0.0250554
4.27186
0.025075
0.0255034
4.20365
0.0252396
0.181248
2.4884
0.0327102
0.026366
0.0327215
16.5134
0.0248807
0.0272636
4.19691
0.0577978
0.0254922
0.108326
0.046811
0.39933
4.26409
0.0284936
14.5035
0.025351
0.0252739
0.0255381
0.025341
0.0294052
0.0529117
0.151714
0.0252495
0.0620806
0.029269
0.335409
0.789234
0.0255179
0.0246217
4.56891
5.15786
0.0430625
0.0251239
0.0420842
0.0252843
0.0360669
0.0252337
5.0113
0.0557525
0.0251627
12.4517
4.53878
0.0251982
0.025463
4.25701
0.0636395
0.0250561
4.08939
4.74623
0.0250514
0.0252917
5.15496
3.43221
0.190536
0.025274
0.159569
5.33126
0.0366064
0.0248338
0.0444598
0.0246347
5.79545
0.0261645
0.0317338
3.86106
6.99902
0.0255171
0.0254799
4.42793
4.87094
0.0251223
0.0257384
0.0254548
0.0254135
0.025015
0.133164
3.46682
0.0269917
0.156992
0.345071
0.0366093
0.0256247
0.0254798
0.0248732
4.48196
4.82657
0.0732863
0.138644
0.0271509
5.06449
0.135486
0.0351769
0.0254676
0.0254914
0.216531
5.84858
0.0250179
0.0383446
0.0248323
0.0252519
4.28166
0.13358
0.0321221
0.0250546
0.0251013
4.85598
1.37386
0.0262215
0.0338865
0.0722178
4.15881
0.026413
0.0734834
7.55604
0.0626347
0.0253208
0.0461698
0.0578634
0.0251876
0.0253275
5.67898
0.0884243
3.56367
0.0778345
0.0270274
5.33601
0.026717
0.09202
0.0250345
0.0354653
0.0251091
0.0406545
0.0252066
5.4636
0.0251057
0.025345
4.28608
0.0456871
0.156876
0.0253629
0.0251283
4.72793
0.183215
0.0803905
0.0293391
0.574828
0.267361
0.194847
0.0580401
3.7666
4.2548
6.32819
0.025397
0.0248719
0.0253004
0.116192
0.158253
0.0253262
0.0328735
4.25337
5.41556
0.025678
3.74223
0.0288521
0.0567919
0.0460809
0.0255341
0.025169
0.105045
0.0322374
0.160016
0.0279289
0.0255238
8.88347
4.96128
0.025027
0.0567988
0.0255315
0.0254296
0.0294435
5.89963
0.0515354
0.0253542
0.0262476
2.22631
4.27274
0.0821376
5.87237
0.0427131
4.74122
0.0258163
0.0254871
0.0253391
0.0253626
0.333938
0.0863425
0.0253539
0.0668784
0.0296964
3.54497
0.334335
0.0253289
0.0254032
0.0258902
0.0299816
4.08127
3.95835
0.032118
6.30675
0.108604
0.0252242
0.0748507
0.0251068
0.0252062
0.0327318
0.026171
0.0289441
0.0519152
0.0249552
0.0252846
0.0270651
6.91312
0.025162
0.0260769
5.82021
0.196807
0.175713
0.0252901
6.99299
0.0254681
0.310994
4.57524
11.8609
0.0283912
0.0363979
0.0257384
0.0263381
4.91763
5.76666
4.24461
0.0303618
0.0248754
0.0446897
0.0256396
0.0251639
4.04066
0.0331312
0.0608432
0.0250105
0.0288604
0.034084
0.323769
0.0252037
0.0563615
3.99921
0.0253426
0.0265621
0.0486165
0.0265553
3.38833
0.0250228
0.0258561
0.0252788
0.0295046
0.0249156
0.0248572
5.16104
4.09493
4.31653
0.078529
0.18639
7.46025
0.0291356
0.118718
0.0254865
0.0253233
0.0352657
0.0396016
0.191389
5.34649
10.8418
0.0262083
0.0252047
0.0546965
0.0252536
0.0370982
4.12321
3.76312
4.10043
11.461
0.0266659
5.45883
0.0607322
0.0251092
4.46562
0.0853758
0.0296342
0.0253933
5.73737
0.0255328
0.187412
0.0880384
5.32896
0.0254568
0.0872768
3.49234
0.0630721
0.0269843
3.99881
0.0251379
0.024894
0.0270437
0.02533
4.85673
5.75799
0.181365
0.0253234
6.56563
0.0263056
0.0490659
0.583249
0.0408242
0.0577185
0.0246885
0.0254965
5.59994
0.195545
4.66098
0.0248777
0.02751
0.0552647
0.0252713
0.0247854
0.0264003
0.0254253
0.0250483
0.18158
0.0425451
0.0256286
0.0281031
0.11732
5.30635
3.9305
0.030053
2.40213
0.0598698
0.0325696
0.0253276
0.0273981
3.65991
3.46016
3.70166
0.0364466
0.0254793
0.0254802
0.0376413
0.0256733
0.0252938
4.25166
2.904
0.0250517
4.07593
7.80093
0.024703
0.0248817
0.0270356
0.0256057
0.420744
0.0738141
0.154074
0.16674
0.113779
10.1345
0.0692828
0.0251818
0.0255216
3.4469
0.0646175
0.114981
0.0567477
4.68516
0.0251516
0.187572
0.0256649
0.0253673
0.0271451
0.0815342
0.0742508
0.0253332
0.0253676
4.73517
0.0304736
0.0302511
6.56493
3.6561
0.0749502
0.0252835
0.0757557
0.0248917
0.0262242
3.56433
5.19016
0.0678957
0.0834005
0.0270032
0.0532692
0.0437227
0.169472
4.50288
0.0443048
0.0248688
5.14361
0.0271536
0.0260823
0.0253546
0.0250957
4.02254
0.0647886
0.0250167
0.185029
0.203398
0.0870427
4.16518
0.112506
0.0252693
0.0369743
3.54465
4.06353
0.0460579
0.05434
0.0262129
3.94892
0.0252149
4.30562
0.0250152
0.0252473
0.268182
0.0427473
0.0261629
0.0253375
0.0252716
4.1709
0.0947383
0.0250935
0.0253927
0.0772683
0.0261072
1.38652
0.0251079
4.04169
0.104197
0.025456
4.64246
0.0252677
0.0304535
0.0253925
4.34858
0.16107
0.0478073
0.0255566
0.202262
0.0249512
5.10141
0.0250738
0.025158
0.0302871
4.79958
4.71206
0.0513737
0.0781275
0.025323
0.0370767
0.0297194
3.71993
0.025767
0.024993
3.74474
0.114895
0.026091
0.0251601
1.31106
0.0273543
4.75155
0.0770594
0.0250165
0.0260966
0.398402
4.66152
4.32175
0.0946613
0.0250987
0.0253469
0.0271559
0.0761041
0.025342
0.0483513
0.03229
0.111003
0.047028
4.27492
0.0256485
12.2671
0.0258573
4.17412
0.0298405
0.595509
0.0252418
0.156638
0.0248468
0.527306
0.025105
0.470787
4.27598
0.0608337
0.0255294
0.0257742
0.168942
0.0250982
4.81878
0.025548
0.365169
0.0263223
6.34232
0.0251036
0.0249963
0.0273291
0.0250055
0.0248456
0.0697569
0.0769197
4.66995
0.0526137
2.34333
0.0254345
4.87235
0.0254776
0.0250771
3.74202
0.0256555
0.0253622
0.0254113
0.0252728
9.98807
13.1814
0.0315148
0.427964
0.0253106
0.029415
0.0456092
6.59769
0.0253136
0.0251557
0.0268685
0.025494
0.0255298
14.9713
0.634367
0.497482
0.0302511
0.0251995
0.0249548
0.0533055
0.0300478
8.28926
5.9926
0.0252841
0.0266813
0.0253286
0.0247544
0.0257228
4.14134
3.88497
0.0251287
0.0284889
0.195366
0.0490068
0.0265453
0.0383081
3.83818
4.3368
0.0560263
0.0308381
0.0465208
0.0247885
0.0557056
0.0249571
0.0256794
2.13756
0.0266636
0.150392
4.6042
0.0251955
0.0250322
0.0251954
0.440029
0.164594
0.0258847
0.0256735
0.0251587
0.0360171
0.0863764
0.0999874
0.0266335
0.0252596
0.0252094
0.0608881
0.160974
0.0612003
0.135021
0.108
1.16346
0.0249936
0.0254549
0.154503
0.0316228
0.506993
0.0253489
0.0261041
0.156764
0.0257455
6.04926
0.0249878
5.00084
5.87078
6.62969
0.106459
0.149117
0.0299318
0.025771
0.0248042
4.40137
0.0256668
0.0268767
0.0545833
0.0276976
2.61548
0.0279603
0.193562
0.364492
0.0290075
0.0254955
8.82126
0.109431
0.178972
0.0256435
4.89622
4.24518
0.0247533
0.0253819
4.60393
0.0250494
6.05097
0.0803867
0.0305786
0.1686
0.0250495
4.32108
29.0701
4.94475
0.0566359
4.32842
0.0253919
0.398517
4.35246
0.025292
0.424959
5.31297
0.0246849
0.0298789
0.0395736
0.0253369
0.0774314
0.0380437
0.025334
0.0253116
0.46629
4.15529
6.46599
0.0254913
0.0253057
4.41113
0.610651
0.0253932
0.0298292
6.27639
0.0671778
0.0365135
0.0824263
0.0254858
0.112703
0.0273844
0.0254323
3.58071
0.0347543
7.11741
0.0254781
0.0254714
0.0254604
0.025348
0.0255223
0.149701
0.0907179
0.025273
0.0330718
0.0817559
0.0279022
9.7938
0.0509516
0.0255181
0.0271902
0.108455
3.36866
0.0254657
0.0254732
0.0252318
0.0783336
0.0254771
0.0294599
0.53875
0.196366
0.0700145
0.0251368
0.146728
4.97086
0.0249986
5.61064
4.19536
0.047749
4.19651
0.152399
0.0270785
0.0260902
0.0254248
4.10721
0.0250507
0.0326749
0.0251785
12.1578
0.170109
0.0508335
0.0499458
7.55173
0.028801
0.025029
0.0257914
0.0533856
0.069981
0.0250056
0.0255884
0.025413
4.00135
0.0287289
4.09226
0.108788
0.0562244
0.0255522
0.0393977
8.63861
0.152997
0.0444007
0.0252374
4.7785
0.0250948
0.0568864
5.1989
0.0352976
0.025107
0.0254478
0.024853
3.84516
0.0289121
0.0757328
0.048259
0.0604081
0.232674
0.0254777
0.0246823
0.0574906
4.20638
0.0258024
4.84083
0.0250355
0.025489
6.22719
0.441645
0.080343
4.9598
0.0572671
4.4458
0.0484042
0.0255526
8.16742
0.0251339
0.0325165
0.0255807
9.73648
0.13397
5.68059
0.0253537
3.94199
0.0312913
0.0254666
4.25973
0.0340062
3.67422
0.0278079
0.0251947
0.0575438
4.92832
0.0252075
0.0468475
6.71394
6.72177
0.0258151
5.39483
4.14601
5.40115
0.0251979
0.0252862
0.0258359
0.0256704
0.203057
0.0272
0.501796
0.0822944
5.25501
0.707729
0.0258124
4.09462
0.0261552
4.29916
3.6709
0.555644
0.229605
0.100281
0.0255024
6.94566
6.29622
0.0409397
0.0252877
0.0389952
0.057366
0.0256242
0.0247035
0.0515977
0.0254109
0.0373674
0.0342509
0.0251146
0.138167
10.2728
0.0314441
4.13957
0.0436876
0.031008
0.0250252
4.49597
0.236352
0.0533673
0.026787
0.0296996
4.7063
0.0271519
0.0254056
0.024902
0.0437773
3.93562
0.025165
0.0254843
3.85084
0.0250984
4.99182
0.0549108
0.0250426
0.025233
4.25634
0.156508
0.0251944
0.0249202
0.0255029
0.0460328
0.085223
4.23227
0.0258162
0.0266716
0.0277017
0.02878
4.23329
0.0295871
0.0248747
5.87566
0.0250073
0.156091
0.0254358
4.32712
12.1035
0.030007
0.0254293
0.0252882
0.0254661
0.231257
0.0252217
8.03895
0.0312205
0.0248758
0.0246841
2.40301
0.0769082
0.0252912
1.64686
0.0353944
0.28486
4.73172
0.0338616
0.0254263
0.0253581
0.052801
0.0278553
0.0254756
0.0254199
1.36408
5.12786
0.025031
0.0252405
0.0251949
5.43359
3.36146
0.0898455
0.0251895
0.0365235
0.0254927
0.0247801
0.0390693
0.903467
0.21029
0.0250814
0.289933
0.111051
0.046795
0.0255096
7.10429
0.025406
0.0293542
0.0252403
0.025145
0.0292926
0.0252341
0.0251732
0.0256099
5.08115
0.0257031
0.0412104
0.0251402
0.025262
0.0287042
0.0715683
0.0567576
0.0256174
0.0254405
0.0287877
5.75001
0.2969
0.0263819
4.04764
0.0252927
0.0285309
4.80845
0.025688
0.0254777
0.0383655
0.0253327
0.0809099
0.115572
4.64976
0.0249757
6.39776
1.03911
0.0253374
6.55063
0.0755545
0.556916
0.0252702
0.176136
0.0302028
0.0254713
0.13917
0.0251703
0.0286851
0.0251411
0.025264
5.37771
0.0963628
0.0252908
0.025384
0.0263037
0.0425917
0.0255438
0.0254106
0.0457654
0.0325534
6.73827
1.37181
0.0252485
0.0249298
0.0254185
0.0255993
0.0256661
0.0573711
0.0254403
0.0262154
0.0254184
0.0326205
4.13445
0.168008
0.0256684
1.03312
4.4591
0.0253387
0.0251447
4.59336
0.0264752
9.87698
3.97102
0.0249119
0.0307019
0.0393878
0.0573378
0.0252463
0.045698
0.0269246
0.172228
0.0813628
0.0252823
0.0253247
4.08001
0.0251465
0.256306
0.07453
0.194451
4.45449
6.71377
4.56865
0.133893
0.0493985
0.0259757
0.028751
0.025639
2.81224
0.0252638
0.0251404
0.0253714
0.0249753
0.0472011
3.99653
0.0735631
0.0804923
0.028433
7.42324
0.0328138
0.0577107
0.232593
0.0252908
0.0253169
0.129008
0.0251741
0.0334647
0.0278933
0.0248039
4.21567
0.0848706
0.0255648
0.0252873
0.0270274
7.40781
0.0574473
5.95736
0.0253338
3.59939
0.0287296
0.0294352
0.0251944
0.842655
0.0266087
0.4581
0.059276
0.0350639
0.0253267
0.0252167
0.0258925
0.025431
0.0250855
0.0267206