/*--------------------------------*- C++ -*----------------------------------*\
| =========                 |                                                 |
| \\      /  F ield         | OpenFOAM: The Open Source CFD Toolbox           |
|  \\    /   O peration     | Version:  v2012                                 |
|   \\  /    A nd           | Website:  www.openfoam.com                      |
|    \\/     M anipulation  |                                                 |
\*---------------------------------------------------------------------------*/
FoamFile
{
    version     2.0;
    format      ascii;
    class       surfaceScalarField;
    location    "300";
    object      phi_0;
}
// * * * * * * * * * * * * * * * * * * * * * * * * * * * * * * * * * * * * * //

dimensions      [0 3 -1 0 0 0 0];
oriented        oriented;


internalField   nonuniform List<scalar> 
55428
(
0.141714
0.0626455
-0.20436
-0.00124518
0.00225087
-0.00100569
0.273547
-0.169354
-0.104193
-0.00979696
-0.0476698
0.0574668
-0.00379763
0.00322513
0.000572501
0.118115
-0.236841
0.118726
-0.0401664
0.0903392
-0.0501728
-0.0959131
-0.0383034
0.134217
-0.0673144
0.0126356
0.0546788
0.0399317
0.0135155
-0.0534472
-0.244663
0.0755026
0.16916
-0.115999
-0.207461
0.32346
0.0744541
-0.125388
0.0509339
0.349449
-0.360628
0.0111787
-0.0246018
0.00502646
0.0195754
0.191905
-0.0640006
-0.127905
-0.126184
0.0109636
0.115221
-0.0583004
0.0949423
-0.0366419
0.0169934
-0.0208177
0.00382429
0.0622695
-0.0455413
-0.0167282
-0.0928997
-0.0452709
0.138171
-0.0546632
0.196377
0.00687682
0.0206283
-0.0275051
-0.168673
0.140039
0.028634
-0.0565307
0.117839
-0.0613079
0.0620191
0.129886
0.0545673
-0.102485
0.0479178
-0.0813981
-0.00869228
0.0900904
0.0291461
0.00385009
-0.0329962
0.000984248
0.00100527
-0.00198952
0.00742148
-0.0212222
0.0138007
0.077694
-0.254237
0.176543
0.0272484
0.0541914
-0.0814397
0.0629145
-0.0123756
-0.0505389
0.0331342
0.0436691
-0.0768033
0.101584
-0.0704504
-0.0311331
-0.329128
0.245798
0.08333
-0.110419
-0.058254
-0.163476
0.164216
-0.00074021
-0.0659103
-0.101012
0.166922
0.0606106
-0.0145904
-0.0460203
-6.38413e-05
0.00292229
-0.00285845
0.110076
-0.046984
-0.0630921
-0.0107527
0.0600504
-0.0492977
0.136507
0.108223
-0.244731
-0.0462768
-0.0248835
0.0711602
0.00159943
-0.00241946
0.000820035
-0.0551977
0.0706143
-0.0154166
0.135207
0.13834
-0.00268119
-0.00111645
-0.159773
0.107253
0.05252
-0.178205
0.0562188
0.121986
0.0697466
0.0487211
-0.118468
0.0208316
-0.0681266
0.0472951
-0.130522
-0.142262
0.272784
0.125944
0.0482371
-0.174181
0.0600297
-0.020098
-0.234571
-0.0945567
0.00653316
-0.00661771
8.45552e-05
-0.0999104
-0.184511
0.284422
0.00695463
-0.000421475
0.0860715
0.015512
-0.344778
0.0359172
-0.000941139
0.00107535
-0.000134207
0.0755415
0.0435901
-0.119132
-0.0508853
0.112664
-0.0617782
-0.164891
-0.0245425
0.189433
-0.0556871
0.079199
-0.0235119
-0.0281555
-0.00933778
0.0374933
-0.283551
-0.0612276
0.178321
-0.308843
-0.116326
-0.0261114
0.142437
0.0816408
-0.139002
0.0573615
-0.120619
0.23806
-0.117441
0.0712223
0.0932583
-0.164481
0.0594254
0.0918316
-0.151257
0.00365405
0.00662288
-0.0102769
0.0810427
-0.111996
0.0309531
-0.00246769
0.00353587
-0.00106818
0.075412
-0.13776
0.062348
-0.354044
0.355191
-0.00114777
0.105647
-0.0657016
-0.0399456
-0.22975
0.109132
0.0123612
0.0302201
-0.0425813
-0.0617058
0.0629579
-0.00125212
-0.125741
-0.000443307
-0.0108489
-0.0024522
0.013301
-0.00116201
0.00214626
0.000793834
-0.0253956
0.28253
-0.204836
-0.00355826
0.00721231
0.078959
-0.0301691
-0.0487898
0.0591908
-0.229985
0.139565
0.0904201
-0.199531
0.124737
0.0747944
0.0561329
-0.00336505
0.000897361
-0.128944
-0.140375
0.269319
0.0481037
-0.0579006
-0.0186606
0.00157631
0.0170843
-0.104281
0.0572965
0.0747547
-0.0351047
-0.03965
0.00205553
-0.00712137
0.00506584
-0.0189724
0.00950839
0.00946402
-0.0629791
0.230468
-0.167489
0.0879691
0.0587036
-0.146673
0.000993558
-0.0035253
0.00253174
-0.197755
0.340203
-0.142448
0.102114
-0.267004
-0.0153061
0.0237307
-0.00842457
-0.0140831
0.0227946
-0.00871149
-0.0179026
-0.00243275
0.0203354
-0.17776
0.0756257
0.102135
-0.27167
0.231175
0.0404941
-0.224147
0.17761
0.0465371
-0.0966524
0.246596
-0.149944
0.00499429
0.0760484
-0.044011
-0.119465
-0.16602
0.10011
-0.0516662
-0.0835769
0.135243
-0.106109
0.214924
-0.108815
0.00856884
0.00105046
-0.0096193
-0.111339
-0.126725
0.238065
-0.175967
-0.271058
0.18507
0.0859884
-0.0236189
0.021439
0.00217986
-0.222847
-0.0488224
0.159878
-0.275651
0.115773
0.00610686
0.045721
-0.0518278
0.0133259
0.0340087
-0.0473346
0.297852
-0.137974
-0.00150998
0.00093145
0.000578533
0.0347882
0.102979
-0.137767
-0.0421534
0.0950704
-0.052917
0.00474811
-0.00269258
-0.230612
0.189675
0.0409365
-0.0328296
0.0848382
-0.0520086
0.0200353
-0.0757224
-0.0752702
0.0289934
0.0734541
0.0511599
-0.124614
0.14343
-0.119049
-0.0243811
0.031106
-0.112504
-0.0141064
-0.053208
0.0756852
-0.136041
-0.0634907
-0.098409
0.157834
-0.0166144
0.0130466
0.00356778
0.152305
-0.0983446
-0.0539603
-0.0797618
0.0444272
0.0353346
0.203778
-0.291697
0.0879192
-0.143001
-0.0534278
0.196429
-0.085877
0.0165173
0.0693598
0.0472132
0.0250312
-0.0722444
0.215436
0.114486
-0.329922
0.00485581
0.00209882
0.169545
-0.296099
0.126554
0.00272979
0.000108131
-0.00283792
-0.0939719
-0.150691
0.00450118
-0.00350762
0.0996618
-0.0626595
-0.0370023
-0.048916
0.0887138
-0.0397979
0.152842
0.0379745
-0.190817
-0.00824477
0.00672945
0.00151532
-0.00242107
0.0109133
-0.00849224
-0.0010424
-0.0848346
0.0855664
-0.137233
-0.0201834
0.0336123
-0.0134289
-0.0325671
0.0823534
-0.0497863
4.29264e-05
0.0160799
-0.0161228
-0.0744152
0.0324855
0.0419296
-0.0537649
-0.176847
0.0111187
-0.0135398
0.00754338
0.145299
-0.059732
0.127384
-0.0676524
0.00961948
-0.00105065
-0.0779022
0.010092
0.0678102
-0.218613
0.137368
0.0812454
0.0670379
0.044922
-0.11196
0.0611377
-0.0854793
0.0243417
-0.109659
-0.0331721
0.142831
-0.0686144
0.0578617
0.22159
-0.304641
0.0830508
0.247332
-0.0257415
-0.239216
0.136097
0.103119
0.0126122
-0.00810741
-0.00450476
-0.108986
0.266593
-0.157606
-0.10772
-0.123655
0.066505
0.0571502
-0.0182919
0.0251687
0.0688859
-0.0692967
0.000410809
0.222985
0.081153
-0.304138
-0.0886896
0.0771857
0.0115039
-0.288797
0.181086
0.107711
0.132214
-0.187807
0.0555931
-0.0684686
0.0278146
0.0406539
0.133387
-0.0985987
0.188943
-0.110767
-0.0781755
0.11034
-0.0504839
-0.0598559
-0.0184612
0.00261566
0.0158455
-0.0260201
0.0132531
0.0127671
-0.0401088
0.0674301
-0.0273213
-0.256349
0.124669
0.13168
0.0909348
-0.233936
-0.38345
0.232267
0.151184
0.0127869
-0.00322581
-0.00956106
0.0364274
-0.0916872
0.0552598
0.0369354
-0.0771018
-0.168237
0.108392
0.0598444
-0.196005
0.0898954
-0.0123297
0.00148088
-0.166086
-0.00546889
0.171555
0.0129485
-0.0129056
-0.161256
-0.0950934
-0.0205895
0.0945325
-0.0739429
-0.00107893
-0.000431055
0.0185919
-0.00397676
-0.0146151
-0.0495719
-0.0301899
-0.0730797
0.0210714
0.0520082
0.0528562
0.0100583
0.344198
-0.171896
-0.172302
0.00781146
-0.00295565
-0.285663
0.169664
0.112279
-0.194277
-0.0548388
0.0476729
0.00716593
-0.0106863
0.00816064
0.00252563
0.105914
0.100614
-0.206528
-0.00357007
0.00406991
-0.000499837
-0.142928
0.184035
-0.0411077
-0.0226217
0.0951235
-0.0725018
0.0015292
-0.00676305
0.00523384
-0.038545
-0.0657355
-0.180482
0.0061168
0.174365
0.191571
-0.291481
0.0102765
0.000785143
-0.0110616
-0.101794
0.0808844
0.0209098
0.0489862
0.0336549
-0.0826411
0.0453019
-0.0565639
0.011262
-0.000734415
-0.00649199
0.0072264
0.230046
0.0295033
-0.259549
0.229267
-0.118133
-0.111134
-0.0884922
0.0734114
0.0150808
-0.280155
0.171168
0.0104662
0.0023207
-0.0881389
0.170142
-0.082003
-0.100893
0.209646
-0.108753
-0.00488256
0.0391035
-0.0342209
0.156623
0.119588
-0.276211
-0.0036037
0.000922513
-0.0519629
0.0792112
-0.0365695
0.0831328
-0.0465633
-0.115132
0.230331
-0.115199
-0.0984477
0.0585227
0.0399251
0.0100916
-0.190574
0.109234
-0.0502181
-0.0590157
0.137648
-0.0801783
-0.0574699
-0.332439
0.188019
0.14442
-0.0668511
-0.0218384
-0.117579
-0.143287
0.260866
-0.0935514
0.0607218
0.148391
0.13258
-0.280971
-0.00241625
-0.00118745
-0.0518272
0.124888
-0.0730604
-0.0643187
0.268096
-0.0136722
0.0210936
-0.0249269
-0.104516
0.129443
0.131454
-0.258231
0.126777
-0.20092
-0.150198
0.351118
0.0640248
-0.10257
-0.00391236
-0.00677391
-0.330884
0.0963126
0.00857055
-0.0364424
0.0278719
-0.00195089
-0.0142874
0.0162383
0.0281054
0.0247507
0.0432336
0.0475906
-0.0908241
-0.0065182
0.00415911
0.00235909
0.15613
-0.266666
0.110537
0.141232
-0.249485
0.108253
-0.000858408
-0.00013246
0.000990868
0.116361
-0.0507428
-0.0656186
0.0311215
0.112308
-0.00256417
0.0317103
-0.150742
0.0102505
0.140492
-0.040837
0.068821
-0.027984
0.00638303
-0.142939
0.118012
-0.10011
0.14966
-0.0495505
-0.0454028
-0.129442
0.174845
-0.176854
-0.0768978
0.113833
-0.194127
-0.138312
0.153832
-0.180838
0.0270057
0.0482245
-0.0920735
0.043849
-0.0405316
-0.0143072
0.106307
-0.0498218
-0.0564852
-0.0020984
-0.00441981
-0.105381
-0.105155
0.210536
-0.233617
0.112451
0.121166
0.00869981
0.0850644
-0.123652
0.0385876
-0.234135
-0.0967489
-0.00063526
0.0424982
0.0174821
-0.0599803
0.0886777
0.0385807
-0.127258
-0.0687499
0.0621207
0.00662911
0.134025
-0.229817
0.0957915
0.302969
-0.097861
-0.205108
0.233568
0.149014
0.0592958
-0.0514539
-0.00784194
-0.122901
0.0631692
-0.0687658
0.292716
-0.22395
0.00714665
-0.0107801
0.00363347
-0.0637163
-0.0380778
0.0565597
0.018195
-0.00691254
0.00617813
-0.00664598
-0.00303682
0.00968281
0.0808131
0.024834
0.0403635
-0.0342567
-0.0444128
0.0791298
-0.0347169
0.0801221
0.206339
0.0535417
0.0199201
-0.0734618
0.0585781
-0.0304726
-0.0902841
0.201709
-0.111425
0.00689262
-0.0136891
0.00679648
0.0687755
-0.015164
-0.0536115
0.0388058
-0.086702
0.0478962
-0.0142777
-0.00418346
-0.246117
-0.0283843
0.274501
-0.00335989
0.0173987
-0.0140388
-0.0302306
0.0854323
-0.0552017
-0.115234
0.0911678
0.0240662
-0.0996058
0.199489
-0.099883
0.0526605
-0.0367933
-0.0158673
0.0677084
-0.0204951
-0.000414074
-0.000444334
0.0382763
0.0135096
-0.0517859
0.0377967
0.00159266
-0.0393894
0.0909413
0.059817
-0.150758
-0.00131573
0.000374589
-0.0551676
0.126671
-0.0715037
-0.0588534
-0.00989645
-0.150052
-0.0740943
-0.0710343
0.196978
-0.00589475
0.00452771
0.00136704
0.0213103
-0.0614191
-0.0216522
-0.052763
-0.275823
0.207057
-0.13975
0.245231
-0.105481
-0.164739
0.28203
-0.117291
0.320054
-0.160102
-0.159952
-0.00797562
0.0224373
-0.0144617
-0.136
-0.0585911
0.194591
-0.24404
0.0938158
0.150224
-0.104732
0.0576729
0.0470586
-0.0486996
0.043817
-0.157171
-0.107677
0.264847
-0.00462887
0.0212895
-0.0166606
0.0168689
0.061974
-0.0788429
-0.15563
0.0597164
-0.0468026
0.102216
-0.0554139
-0.00331755
0.00396206
-0.000644514
-0.0295579
0.0856896
-0.0561317
-0.00139358
0.0584659
-0.107489
0.0490236
0.0896492
-0.0332391
-0.0564102
0.160383
0.0416356
-0.202019
-0.216107
0.341556
-0.125449
-0.0332492
-0.0498392
0.0830884
0.0646147
-0.0852042
-0.139492
0.0843244
-0.0521108
-0.0417499
0.100216
-0.020656
0.0631542
0.11805
0.0342549
-0.0602508
0.0897336
-0.0294829
-0.0687769
0.0322074
0.0688393
4.66084e-05
-0.0306557
0.0819916
-0.051336
-0.00392085
0.000603305
-0.0454315
0.0203163
0.0251152
-0.0470843
0.0717244
-0.0246401
-0.0107302
0.0357883
-0.0250581
0.03223
-0.0815187
0.0492887
0.00865571
-0.0855535
0.0155457
-0.021222
0.0056763
0.0720435
0.0382963
-0.0784361
0.0558144
-0.0367026
0.0856888
-0.00250568
0.0560474
0.195823
-0.0419907
-0.0767027
0.0628071
0.0138956
0.134366
-0.0855714
-0.0487942
0.0792146
0.0812861
0.00835992
-0.0896461
0.162899
-0.280435
0.117537
-0.0492031
0.0115174
0.0376858
-0.00782704
0.0822811
-0.440984
0.319304
0.12168
-0.0227703
-0.0503094
-0.20163
-0.135322
0.336953
-0.00850446
0.00738561
0.00111885
0.156015
-0.0943325
-0.0616828
0.114369
0.100555
0.114784
-0.033498
0.013744
-0.259861
-0.140286
0.324181
-0.183895
0.00191923
0.0013059
0.159969
-0.0690282
0.140331
-0.341962
-0.145346
-0.0430593
0.188406
0.0342761
0.0185887
-0.0528647
-0.00673156
8.5576e-05
-0.193273
0.14787
-0.202724
0.103118
0.388017
-0.200197
-0.18782
-0.0492366
0.102237
-0.0530005
-0.111848
-0.159211
0.329319
-0.222787
-0.106532
-0.201588
-0.113312
0.3149
-0.00637033
-0.00213412
0.0273333
-0.0744176
-0.00814934
0.023695
0.150256
-0.249033
0.0987761
0.0951839
-0.0745356
0.0517654
-0.0112236
0.0031162
0.129688
0.242911
-0.3726
-0.0612623
0.135592
-0.0743294
0.131961
0.0889025
-0.220863
0.0484049
-0.04587
-0.00253488
0.207165
-0.362671
0.155506
0.0629987
0.0930166
0.0564763
-0.0796997
0.0232235
-0.129972
-0.00584984
0.135821
0.0290453
-0.0204747
-0.286055
0.0851348
-0.068612
0.027775
0.121473
0.0424133
-0.163887
-0.212691
0.177742
0.0349489
0.102844
-0.162238
0.0593937
-0.121
-0.118216
-0.00236618
0.00105045
0.0955659
0.0359082
-0.131474
-0.207851
0.132875
0.0749756
0.0046197
-0.007528
0.00290831
-0.0368308
0.0261006
0.248528
-0.384032
0.135504
-0.00828046
0.0151731
0.14209
-0.1489
0.00681021
0.0537292
-0.106984
0.0532544
0.0750242
-0.0557318
-0.0192925
-0.256515
0.159863
0.00340138
-0.00148214
-0.118383
0.265675
-0.147292
0.0159904
-0.0259331
0.00994276
-0.189912
-0.0988851
0.383168
-0.212331
-0.170837
0.159406
-0.108497
-0.0509097
-0.273978
0.10924
-7.30369e-05
0.00114838
-0.0964501
0.121463
-0.0250126
0.384381
-0.170618
-0.213763
-0.00685194
-0.0342785
0.0411305
0.0577317
0.0214673
-0.275506
0.291262
-0.0157566
-0.0690793
0.0474271
-0.0144475
-0.0342521
-0.0544879
-0.121348
0.175835
0.110471
-0.216614
0.106142
-0.106126
0.0568893
-0.00799185
-0.00323176
0.00142802
-0.0200886
0.00262505
0.0551753
-0.0578003
-0.0510079
0.032276
0.0187319
-0.00571291
0.0154725
-0.00975961
-0.0945462
0.0477436
-0.00640476
0.0105229
-0.00411818
-0.102905
-0.0568678
0.241342
-0.123226
-0.117017
0.267247
-0.15023
0.0556312
-0.183539
0.127908
-0.0031431
0.0142618
-0.0448423
0.0379903
-0.104937
-0.124991
0.229928
0.081745
0.0346164
-0.00234799
0.183632
-0.0713528
0.00659641
-0.0050672
-0.0564808
0.0887108
0.0828403
-0.18927
0.10643
-0.0535866
-0.0511449
-0.049313
-0.163378
-0.00766662
-0.0455501
0.0532167
-0.0839446
0.0669836
0.016961
0.0640651
-0.115602
-0.0922483
0.125636
0.0998065
-0.225443
0.0262912
-0.0733313
0.0470401
-0.0077027
-0.000542068
-0.141714
0.0764967
0.0652171
-0.331399
0.272346
0.0590534
0.163706
-0.108074
0.016789
-0.0372627
0.0204737
-0.0340945
-0.0779013
0.00249669
-0.00256053
0.0423494
0.00986306
-0.0522125
-0.0138297
0.052106
0.0136745
-0.0273467
0.0194595
-0.149431
-0.00378826
0.00840796
0.0112803
-0.342679
-0.0191946
0.0172437
0.0929106
-0.234394
0.141483
-0.0331051
-0.0232289
0.0563341
-0.0167529
0.00349421
0.0132587
0.00262114
-0.0990712
-0.0879101
0.347497
0.000764522
-0.00592338
0.00515886
0.0815843
-0.143619
0.0620346
-0.0843836
0.0714574
0.0129262
-0.0519379
0.0374904
0.0344285
0.0190603
-0.0534888
-0.201219
0.100326
0.146618
-0.0871015
-0.0595165
-0.0779309
0.0477004
0.10653
-0.0572407
0.0241355
-0.278625
-0.0662344
0.344859
0.073231
-0.0167547
0.302001
-0.210414
-0.0915868
0.0449656
-0.0365216
-0.00844403
0.229079
-0.114311
-0.114768
-0.299054
0.104927
-0.0110501
-0.00792228
0.0341174
-0.288354
-0.256016
0.193037
0.0971192
0.0918234
0.12435
-0.0619562
-0.0623942
-0.29459
0.0159655
-0.195377
-0.245608
0.0556476
-0.0178509
-0.0698004
-0.0543492
0.12415
0.00924305
-0.00921986
-2.31889e-05
0.188979
0.0850907
-0.27407
0.113919
0.0487377
-0.162657
-0.0645698
0.105957
-0.041387
0.0652662
-0.0176756
-0.124597
0.265994
-0.141397
-0.340016
0.181615
0.158401
0.0340874
0.0902817
-0.124369
-0.0291133
0.0877964
-0.0586832
0.00280426
-0.00175199
-0.00105227
0.0823779
-0.0499765
-0.0324014
-0.181696
0.0156094
-0.0704267
-0.107334
-0.0445986
-0.0211634
0.065762
-0.0118651
-0.014155
-0.30389
-0.203613
0.259181
-0.0555679
0.00101572
-0.00724396
0.00622824
0.0123109
-0.0147631
-0.0157794
0.0317697
0.0032624
-0.00201434
-0.00124806
0.148343
-0.00625326
0.101211
-0.0647832
-0.146971
0.264065
-0.117093
0.00961753
-0.000374476
-0.0449471
0.0624292
0.0763248
-0.134966
0.0586412
-0.0688076
-0.0729063
-0.0149453
0.0492214
0.0169235
0.0727257
-0.0988885
-0.110149
0.209038
-0.0497227
0.0707942
0.000846149
0.0171529
-0.0217817
-0.199139
0.108855
0.0411571
-0.105727
0.0322064
0.0568216
-0.089028
-0.015407
0.150415
-0.135008
0.0920584
0.0721574
-0.101848
-0.0941564
0.00988132
-0.00325844
0.0384858
-0.0276604
-0.0108254
0.227175
-0.116703
-0.0270519
0.0190763
-0.00685447
0.0315463
-0.0246918
-0.40574
0.281898
0.123842
-0.0503111
0.0132244
0.0370867
-0.0795199
-0.169819
0.249339
0.047738
-0.0809872
-0.143459
0.0659985
0.0774606
-0.140473
0.282247
-0.141773
-0.00726456
0.0585711
-0.0513065
0.0139021
-0.0212053
0.00730318
-0.135651
0.0810766
0.0545745
-0.0560419
0.00953271
0.0465092
-0.216944
0.137424
-0.079162
0.14257
-0.0634078
-0.0651159
0.141441
-0.105029
0.0514419
-0.0301831
0.111767
0.046103
0.0418206
-0.0879236
-0.305992
0.208887
0.0971042
-0.0301696
-0.199701
-0.18375
-0.0159145
0.0127714
0.044128
-0.0908902
0.0467622
0.1106
0.11672
-0.227319
0.0695599
-0.0573542
-0.0122057
0.0843924
-0.301765
0.217372
-0.00891604
0.00622795
0.0026881
-0.00591703
0.0040475
0.00186953
0.17744
0.175363
-0.352803
-0.00212785
0.000882673
0.285998
-0.0664692
-0.219529
-0.172387
0.0270405
-0.0984962
0.132584
-0.120935
0.298375
-0.050256
0.0818054
-0.0315494
0.0854537
0.0611643
0.253475
-0.142875
-0.0960529
0.104709
-0.27489
0.0687591
0.206131
-0.0996678
0.0836363
0.0160315
-0.038915
0.0320606
0.270948
-0.122557
-0.0676802
0.165622
-0.0979419
0.0212585
-0.00426517
-0.197466
0.395867
-0.198401
0.0632115
0.081962
-0.0242303
-0.053363
-0.00872232
0.0620853
-0.0746798
0.0464323
0.0282475
0.0426499
-0.0732802
0.0306302
0.145208
-0.0765708
-0.0686372
-0.113399
-0.116586
-0.112746
0.0717444
0.0410011
-0.0175854
0.0599348
-0.00498204
0.00635847
-0.00137643
0.0161708
0.00695049
-0.006145
-0.000805496
-0.0518291
0.281875
-0.0716285
0.0257005
0.045928
0.156555
-0.0928842
-0.0636711
-0.0491336
0.125409
-0.0762752
-0.0116965
0.025371
-0.0476537
0.0676485
-0.0199948
-0.0598235
0.073371
-0.0135475
0.252055
-0.0954322
0.0200547
0.0908037
0.00426671
-0.0173119
0.0517404
-0.011485
-0.0489619
0.060447
0.0716377
-0.0918924
0.0202547
0.00451231
-0.000202711
-0.0043096
-0.00457246
0.126046
-0.00599562
0.00376893
0.00222669
-0.0428834
0.0527552
-0.00987181
-0.130823
0.0816894
-0.0716078
0.137535
-0.0659269
0.0406598
0.059002
0.0549035
0.0299346
-0.0676471
0.12966
-0.062013
-0.2207
-0.0602028
0.280903
-0.0384995
0.084063
-0.0455635
-0.174999
-0.130993
0.0325387
0.0771192
-0.060329
-0.0167902
-0.213641
-0.0612489
0.0740031
-0.0313531
-0.000244544
-0.0007056
0.000950145
-0.290356
0.155042
0.135313
0.296599
-0.10762
0.0163154
-0.00487164
-0.0114438
0.086298
0.0716999
-0.157998
0.241774
-0.168837
-0.0729366
-0.0745711
0.00579423
-0.00186156
-0.00204048
0.00390205
0.00938525
-0.00843509
-0.000950164
-0.0934496
-0.0500094
-0.0992807
-0.208001
0.307282
0.00671965
-0.00616674
-0.000552914
-0.0476741
-0.0361935
0.0838675
-0.0113269
-0.0503789
0.102946
-0.0984433
-0.0372078
-0.0438903
0.0899933
0.0397106
0.09132
-0.131031
-0.0454207
0.0717119
0.170474
0.00245724
-0.0043188
-0.162954
0.0748154
-0.0356935
0.0536502
-0.105576
0.00261462
0.102961
-0.0584633
0.0507967
-0.142517
0.253417
-0.1109
0.00330969
0.0286602
-0.0319699
0.103281
-0.221933
0.135781
0.0861516
0.0594532
-0.0426186
-0.0168346
-0.153152
0.137745
0.002372
-0.00455336
0.00218136
-0.215333
0.00836884
0.206965
0.0385656
0.0140949
0.0482664
-0.184266
0.0513824
-0.266716
-0.0529477
0.0594547
-0.00650691
0.312861
0.0365887
-0.0060069
0.00244864
0.1913
0.0504735
-0.0762234
0.0471101
-0.161157
-0.137897
-0.211222
0.34091
-0.0476859
-0.0198866
0.0675724
-0.000708884
0.0398178
-0.0391089
-0.0308633
0.0408971
-0.0100338
0.00894373
-0.0058724
-0.00307134
-0.00216257
0.00453457
-0.0333249
-0.0409692
-0.0411999
0.0821691
-0.0951458
-0.0997657
0.194911
0.165825
-0.0275559
-0.138269
0.00791207
-0.00689635
-0.00731988
-0.189913
0.122233
-0.00438937
0.00204138
0.00648439
-0.00543012
-0.00105427
-0.0388185
-0.0689016
-0.039218
0.0839658
-0.0447479
0.05869
0.0586472
-0.117337
0.0161867
0.00477572
-0.0209624
0.252854
-0.111621
0.0304576
-0.0887579
0.00680163
-8.19804e-05
0.0134075
0.00654163
-0.0617393
0.0222348
-0.00604814
0.155776
-0.0418568
0.0590402
-0.123999
0.0649589
-0.272596
0.122054
0.150541
0.0288517
-0.0120627
-0.00179483
-0.000520852
0.00231568
0.0556395
-0.259253
-0.0463368
0.0140077
0.0323291
-0.0111886
0.0203349
-0.00914632
-0.108658
0.056831
-0.00183651
-0.11439
0.0439393
-0.000902105
0.000657561
0.189628
-0.0050833
-0.184544
-0.0580913
-0.0164798
-0.0291676
0.0415288
0.066941
-0.0211356
-0.0458054
0.0627577
-0.232716
0.181716
0.0509995
-0.00124598
0.000297299
0.000948682
0.0751267
-0.0419925
0.0947177
-0.0586695
-0.0360483
-0.311001
0.0932786
0.217723
0.035553
-0.084469
-0.309226
0.209945
-0.00997565
0.0552775
-0.0149716
0.103649
0.170094
-0.12599
-0.0441046
0.0890275
-0.158927
0.0698993
0.116992
-0.179046
0.0620541
0.140153
-0.0327513
-0.107402
-0.070378
-0.0292897
-0.0646992
-0.0589528
-0.0983316
0.155484
-0.057152
0.0748846
-0.0119294
-0.0629553
-0.0737863
0.133301
-0.0595151
-0.0331753
0.027459
0.00571629
-0.0445492
0.0126364
0.0319129
0.234955
-0.141139
-0.0571906
-0.106318
0.163509
-0.031026
0.148018
0.221381
0.122817
0.0025734
-0.0205625
0.00647936
0.100434
-0.0597027
-0.0407308
-0.166705
0.172822
-0.0733352
-0.0394103
0.127689
-0.21948
0.0917909
-0.147326
0.0713373
0.0759891
0.00205165
-0.00109183
-0.000959822
0.300527
-0.0487028
0.101433
-0.0527299
-0.0902978
0.0325242
0.0577736
0.219003
-0.107221
0.120273
-0.226506
0.106233
-0.233303
0.128366
0.151874
0.0139511
-0.0683144
0.0149514
0.14679
-0.177816
-0.0509084
0.120655
-0.0545592
0.113249
-0.0407253
0.283637
-0.0654283
-0.167288
0.0107029
-0.0164158
-0.0165639
-0.00465826
0.399813
-0.19229
-0.207523
-0.161687
-0.0971084
0.258795
0.237094
-0.144184
-0.0295187
0.108228
-0.078709
0.112141
-0.0634202
-0.0118664
-0.00488655
-0.0900342
0.0297834
0.138185
-0.0626436
0.128847
0.046947
-0.175794
0.0867395
-0.0479338
0.00883943
-0.0290228
0.130844
-0.0573896
0.181369
0.138685
-0.304126
0.109558
0.194568
0.237488
-0.10098
-0.0596207
-0.030677
-0.359715
0.160014
-0.0465597
-0.107291
0.153851
-0.00337765
0.053358
-0.0499803
0.212927
-0.0494898
-0.163437
0.00243648
0.000964894
-0.00617936
-0.00129601
0.00747537
-0.0911124
0.163823
-0.0640853
-0.0997372
-0.0457171
-0.0479644
0.0936815
0.063184
-0.0187503
-0.0444337
0.0317882
-0.106467
0.0746792
0.0300644
-0.0660484
0.035984
-0.0383605
-0.036078
0.0744385
-0.0151868
0.00707431
0.00811254
0.0892974
-0.146488
-0.170686
0.288909
-0.118224
0.00162729
-0.107203
-0.00560248
0.00360841
0.00199407
-0.0910926
-0.00496031
0.101156
-0.223231
0.122075
-0.0559242
0.0136389
0.0422852
0.105132
0.170989
-0.276121
-0.219776
-0.0843502
0.071114
0.0192251
-0.0215947
-0.0344471
0.10156
-0.0697713
-0.023966
-0.0645262
0.0181547
-0.18486
-0.067829
-0.0465607
0.0630128
-0.0320877
-0.0189202
0.1502
-0.174743
0.0506204
0.0273422
-0.0779626
-0.035453
-0.0812987
0.116752
0.0507157
0.0124683
-0.106297
0.157034
-0.0507369
-0.103595
-0.0976236
-0.0212003
0.00589415
-0.109093
0.15733
0.000789925
-0.00101273
0.00393502
-0.125128
-0.113472
0.2386
-0.100559
-0.194235
0.294794
-0.0105423
-0.0340069
0.174986
0.0379408
0.0829199
0.12651
-0.20943
0.00363453
-0.00119805
-0.0809813
-0.161773
0.242754
-0.0093086
0.00552033
0.234072
-0.115686
-0.118386
0.0141386
0.00959212
0.0584159
0.0478911
-0.0230625
-0.0507377
0.0738001
0.00347657
0.258161
0.125007
-0.312468
0.15131
-0.166088
0.104282
0.0618054
-0.215553
0.140218
0.0753355
0.228174
-0.0941487
0.0538581
-0.093076
-0.231723
0.086922
0.144801
-0.302553
0.0856094
0.0509237
-0.117617
0.0666937
0.0595709
-0.0416194
-0.0179515
-0.181803
-0.12075
0.0750321
-0.21796
-0.0254511
-0.0694225
0.0948736
0.154643
-0.236401
0.0817585
0.218745
-0.114685
0.196476
-0.0817909
-0.00143709
0.000191111
-0.15764
0.0194303
0.13821
0.309358
-0.239474
-0.0698843
-0.031666
-0.0480338
0.160148
-0.165617
-0.201169
0.10228
-0.00717532
0.000995959
-0.0139352
-0.036376
0.0393889
-0.132289
0.0767572
-0.0573967
-0.0193604
0.253849
0.0555093
-0.121243
0.062649
0.0585942
-0.122225
0.086772
0.341986
-0.0463594
-0.295626
-0.0593293
0.0710728
-0.0117436
0.0178059
0.000874018
-0.0186799
-0.0344719
-0.0227031
0.0571751
0.0381242
0.0568181
-0.0509118
0.108585
0.194724
0.107277
0.000391985
-0.254081
0.1731
0.0129699
0.0319957
0.1454
-0.326634
0.181234
0.128049
-0.0526365
0.169499
-0.0982763
0.154355
-0.354498
0.200143
-0.0780087
0.0280322
0.0955938
-0.0410265
-0.327142
0.155246
0.274641
-0.104174
-0.170467
-0.0611634
0.0496783
0.00614996
-0.00897254
0.00282258
0.131868
-0.0502271
0.15503
-0.0785331
-0.186199
0.113516
0.0726825
0.0449108
-0.0148464
-0.193858
0.289964
-0.0961064
0.0251375
-0.0203174
-0.00482014
-0.0536928
0.193258
-0.132976
0.0717137
-0.106769
-0.0614673
-0.0553323
-0.0207512
0.0760835
0.105804
2.0509e-05
-0.00237798
0.00235747
-0.0579622
-0.0942315
0.152194
0.0618505
-0.14663
0.0847792
-0.0603558
0.123823
-0.0634672
-0.121445
-0.0971682
-0.0629234
-0.0507298
0.0640065
-0.0132767
0.124221
0.0214405
-0.145662
-0.0662128
0.126963
-0.0607498
0.079232
0.0845906
-0.00983723
-0.0352492
0.0450865
0.0275436
-0.126211
0.0986676
0.00419594
0.0143959
0.00451634
-0.00525706
0.000740717
-0.0566924
0.0735612
0.0708218
0.102025
-0.172847
-0.100212
-0.0554174
-0.187497
0.0923512
0.012236
0.00904058
-0.0212766
0.154883
-0.0767753
-0.0781077
0.127924
0.00275255
-0.130677
-0.109977
-0.105576
-0.0523967
0.00528473
-0.000768385
-0.38714
0.189675
-0.173202
0.0664956
0.106707
-0.0869929
0.157618
-0.0706254
-0.107975
0.0592727
-0.0021481
0.000769104
0.000830322
-0.117235
0.0381648
0.0790699
-0.00144559
0.00251884
-0.00107325
0.0504332
0.351855
-0.117331
-0.234523
-0.0458926
0.0740188
-0.0281262
0.0990209
0.057867
-0.156888
0.00204395
-0.000502835
-0.00154111
-0.377138
0.15019
0.226949
-0.0613872
0.0407312
0.0606973
0.119366
0.0048546
-0.00894332
-0.024232
-0.121099
-0.145567
0.100419
-0.0677608
-0.0326587
0.0760712
0.0243623
0.00750808
0.0176294
0.206225
0.0403708
0.046331
0.0502333
-0.159893
-0.00666587
-0.00852098
-0.0661092
0.0215106
-0.250386
0.140233
0.110154
0.130382
0.0310014
0.0565008
-0.0242248
-0.076555
0.026299
0.0747831
-0.0136454
0.0775851
0.0600355
-0.137621
-0.0107802
-0.00583418
-0.12535
0.273678
-0.148329
-0.0883248
0.0211957
0.0671291
0.111483
-0.309238
0.119108
-0.0558574
-0.0632501
-0.127014
0.088711
0.042463
-0.0291371
-0.0731103
0.155951
0.0775158
-0.0292913
0.000783755
-0.29507
0.0445092
0.250561
-0.112799
-0.118548
0.231347
-0.351429
-0.0161935
0.0149548
0.00123872
-0.216217
-0.170923
0.0688283
0.0555221
-0.0448706
-0.032594
0.0774646
-0.0711867
0.0156696
0.0555171
-0.047063
-0.0483277
0.0953907
-0.0206953
-0.0247362
-0.090932
0.137659
-0.0467275
-0.0129964
-0.00756601
-0.38568
0.224569
0.161111
-0.24448
0.11913
0.0446829
-0.10179
0.0571068
0.0769943
0.157078
-0.00145852
-0.00150327
0.00296178
0.217762
0.150345
-0.368108
0.0978024
-0.0374091
-0.0603934
-0.107816
0.13536
0.0414055
-0.0228169
0.0214398
0.000997518
0.152549
-0.266356
0.113807
-0.0330505
0.0882152
-0.0551648
-0.0782564
0.0137704
0.0644859
-0.0567978
-0.0416499
0.113597
-0.225462
0.111865
-0.0353228
-0.0206013
-0.00954876
-0.148091
0.269641
-0.185249
-0.00845526
0.00974428
-0.00128902
0.00116423
-0.0904308
-0.00754444
0.0979753
-0.1753
-0.230439
-0.0541846
-0.030199
0.0759816
-0.357532
0.263257
0.0942748
-0.166096
0.0597992
0.121216
-0.0593658
-0.0462986
-0.0491475
0.0954461
0.00185202
0.00606005
0.0885465
-0.228297
-0.278226
0.125988
0.152238
0.157266
-0.0864441
0.0851743
-0.0515194
-0.050502
-0.0570325
0.107535
-0.00205325
0.00840514
-0.00524712
-0.00315802
0.0536611
-0.025123
-0.0285381
0.093961
-0.049833
-0.124207
0.293752
0.00335592
-0.102236
0.0691857
-0.300583
-0.0850968
0.0245312
0.165096
0.0303818
-0.0747946
-0.00425552
0.13218
0.0285949
-0.0630668
-0.404712
0.149699
0.255013
-0.054458
0.0191352
0.0747285
-0.134754
0.060025
-0.100778
-0.0465481
-0.17044
0.0719436
0.000436672
0.0113586
-0.0117953
-0.00155498
0.0412223
0.0293919
0.0116214
-0.00628177
-0.00533966
0.0108699
-0.00372327
-0.0813075
0.00106879
-0.00798133
0.148117
0.0237085
-0.171825
-0.00101059
0.00605191
-0.00504132
-0.0753477
0.146418
-0.0710701
-0.0641222
0.0849596
-0.0208374
-0.00659383
0.00793093
-0.0013371
-0.00272187
0.00126336
-0.0656452
0.0230138
0.0426314
-0.260206
-0.0348642
0.311459
-0.175578
-0.135881
0.00121762
0.0110976
0.0116969
-0.292971
-0.0623561
0.355327
-0.13508
0.0330996
0.101981
0.110628
-0.0597046
0.120612
-0.0492752
0.0861064
-0.125293
0.0391865
-0.062554
0.0290704
0.0334836
0.00624625
0.0279691
-0.0342154
0.0439763
0.00369653
-0.105339
-0.10284
0.208179
-0.298174
0.123175
-0.0450275
0.131134
0.00783577
0.0544338
0.247042
-0.0590228
-0.00594899
0.00720457
-0.00125558
0.0405738
0.0839731
-0.124547
-0.0416998
0.0958371
-0.0541373
-0.0592886
-0.0290362
0.129974
0.111368
0.000170741
0.000313878
-0.000484618
0.00451216
0.0132937
-0.107794
-0.201432
-0.0687734
-0.0939436
0.162717
-0.234824
-0.169887
0.0658044
-0.267393
0.0120491
-0.00254072
-0.202208
0.0982118
0.103996
-0.112027
-0.161951
-0.00852346
0.290486
-0.0413374
-0.249149
0.0435323
-0.140268
-0.0379361
-0.00134537
0.00310793
-0.00176256
-0.0671047
-0.0663012
0.133406
-0.0886643
-0.00320554
0.0918698
-0.001811
-0.0143825
0.166821
0.088201
-0.00290393
0.00486559
-0.00196166
-0.0467818
-0.027898
-0.268427
0.139484
0.111102
-0.213119
0.102017
-0.030419
0.0577309
-0.0273119
0.000606059
-0.301001
0.00803046
0.310892
-0.116167
-0.154678
0.202945
0.0445391
-0.101422
0.0568831
-0.0573932
0.0468509
0.344205
-0.18985
0.000240075
0.000754494
-0.000994569
-0.0425786
0.0551753
-0.15056
0.0953848
0.0394486
0.0198472
0.091013
-0.158118
0.0794185
-0.0472121
0.0272855
0.120831
0.0656458
-0.0331603
0.063247
0.0427099
-0.00811192
0.012308
-0.00419605
-0.31373
0.205937
0.046466
-0.176534
0.130068
-0.190996
-0.168719
0.247509
-0.138419
-0.109091
0.0778293
0.193726
-0.110806
-0.0585876
-0.0417763
0.100364
-0.0175194
-0.0587894
0.0763088
-0.035913
-0.0333837
0.236283
-0.13099
-0.105293