/*--------------------------------*- C++ -*----------------------------------*\
| =========                 |                                                 |
| \\      /  F ield         | OpenFOAM: The Open Source CFD Toolbox           |
|  \\    /   O peration     | Version:  v2012                                 |
|   \\  /    A nd           | Website:  www.openfoam.com                      |
|    \\/     M anipulation  |                                                 |
\*---------------------------------------------------------------------------*/
FoamFile
{
    version     2.0;
    format      ascii;
    class       volVectorField;
    location    "300";
    object      U;
}
// * * * * * * * * * * * * * * * * * * * * * * * * * * * * * * * * * * * * * //

dimensions      [0 1 -1 0 0 0 0];


internalField   nonuniform List<vector> 
37190
(
(0.990784 -0.00621809 4.82515e-21)
(-0.0487605 0.0234035 -3.58846e-21)
(1.03555 -0.004412 3.63919e-21)
(0.968901 -0.258439 3.92555e-22)
(0.0882724 0.023619 3.20657e-20)
(1.01361 -0.0209057 5.13895e-23)
(1.14616 -0.0379158 2.2061e-20)
(1.0004 -0.0655924 6.42246e-21)
(0.989684 -0.246781 -3.83364e-23)
(1.10308 0.061303 1.45345e-20)
(0.991544 -0.0137134 4.46388e-21)
(1.02358 -0.00329818 6.37979e-21)
(0.99885 -0.101621 -3.40774e-21)
(1.01465 -0.000786422 -9.99118e-22)
(0.653564 0.066563 9.54958e-21)
(1.0079 -0.0369011 -3.48169e-24)
(0.971688 -0.0615391 2.48866e-21)
(1.17851 -0.0646314 -4.52139e-22)
(0.52479 0.0612759 1.22024e-21)
(1.19463 0.0723745 -2.91599e-20)
(1.0167 -0.0747635 0)
(0.990391 -0.0061082 -5.95947e-21)
(0.657638 0.0400888 3.48223e-20)
(1.06605 0.00291161 -2.03488e-21)
(0.954012 -0.0573585 -1.75249e-22)
(1.00823 -0.037339 1.19577e-23)
(1.14584 -0.063458 1.67479e-20)
(1.10643 0.0280155 -2.11139e-20)
(0.595155 -0.643382 2.0133e-20)
(-0.0516522 -0.0170388 -2.8219e-20)
(0.47695 0.0750117 8.1806e-23)
(1.01037 -0.0102258 -2.00575e-23)
(1.09729 0.0456295 1.20296e-20)
(1.11429 0.0634569 0)
(1.13057 0.0389467 -2.39492e-20)
(1.11377 0.0225475 2.19004e-20)
(1.02697 -0.00277949 2.0555e-21)
(1.0661 0.00210005 0)
(1.06505 -0.0109368 1.20363e-20)
(1.00019 -0.0270848 -1.78329e-21)
(1.09601 0.0597385 -4.78365e-21)
(-0.100489 0.016023 1.49547e-20)
(0.952459 -0.0511781 0)
(1.15973 0.0180812 -4.59306e-20)
(0.994558 -0.00457808 -2.83088e-21)
(1.21943 -0.0284317 2.39667e-20)
(-0.0502147 -0.0282646 0)
(1.21032 -0.338385 0)
(1.03555 -0.00404436 0)
(0.093609 0.0252654 -3.09298e-20)
(0.963511 -0.0180979 -9.28575e-21)
(0.998282 -0.0323464 0)
(1.08012 0.0209591 -8.9445e-21)
(0.887407 -0.151732 -7.53827e-21)
(1.00018 -0.00478109 1.09654e-21)
(1.05142 -0.0159469 -2.14076e-21)
(1.10286 0.060836 -1.8206e-20)
(1.02683 -0.00291958 1.84887e-21)
(0.23028 0.0210548 1.14328e-20)
(1.02036 -0.00509603 -1.39999e-21)
(0.224615 0.019373 -1.26118e-20)
(1.11328 0.0232912 -1.37884e-20)
(1.02164 -0.000305001 5.96978e-22)
(0.0106235 0.0268021 6.42053e-20)
(0.976046 -0.0683261 5.70314e-21)
(0.953088 -0.0543545 0)
(1.01786 -0.0140025 0)
(1.21062 -0.0478478 -2.0859e-20)
(0.72446 -0.251354 1.2419e-21)
(1.02153 -0.000387143 0)
(1.00022 -0.00465695 -4.63326e-21)
(0.972734 -0.00681673 -1.99095e-21)
(1.09041 -0.0252813 -2.26879e-21)
(1.01202 -0.0242084 0)
(0.992572 -0.0286176 0)
(1.01754 -0.0414288 -1.87375e-22)
(0.221974 0.0579473 -8.93221e-21)
(1.12257 -0.0835549 6.09174e-21)
(-0.101949 0.0210667 -2.77029e-20)
(1.09134 -0.044882 -9.79494e-21)
(1.00177 -0.000248171 -2.82212e-24)
(0.970287 -0.12567 0)
(1.01192 -0.0236464 0)
(0.871743 -0.420432 0)
(1.2975 -0.30971 0)
(0.972469 -0.0606673 0)
(0.364708 0.0425365 9.18676e-21)
(-0.069609 -0.0164882 8.88327e-20)
(0.641397 0.065962 -2.21627e-21)
(1.01049 -0.0105118 -2.13439e-22)
(0.189881 0.0548752 2.85354e-22)
(1.09804 0.0474403 -6.56161e-21)
(0.951475 -0.0533226 8.07482e-21)
(1.01329 -0.0243235 1.63372e-23)
(0.99697 -0.020016 0)
(0.952597 -0.0569024 7.54031e-21)
(-0.109314 0.0195682 4.0037e-20)
(1.00536 -0.0114581 -2.79403e-23)
(0.970159 -0.251695 -1.13775e-21)
(0.468797 -0.0143316 0)
(0.951399 -0.0504404 8.05709e-21)
(1.10677 -0.290968 0)
(0.161719 0.0498353 4.44237e-20)
(0.397471 -0.0218567 0)
(0.99782 -0.00713082 -4.99295e-21)
(1.00732 -0.0499626 1.24186e-23)
(0.114685 0.043678 -9.21031e-21)
(1.0008 -0.00511067 1.51389e-21)
(1.01751 -0.0138182 0)
(0.521789 0.0720428 1.63489e-20)
(0.493328 0.0769737 0)
(0.551473 0.0611349 0)
(1.06726 -0.00818515 -8.72252e-21)
(1.03002 -0.00379319 -1.46319e-21)
(1.04169 -0.0258571 6.07247e-21)
(0.995392 -0.00923698 0)
(1.12454 -0.0828335 0)
(1.06534 -0.0113576 -4.75938e-21)
(0.999708 -0.027065 0)
(1.03538 -0.0577192 -3.39396e-21)
(0.991772 -0.023856 0)
(0.289307 0.0175696 0)
(0.99361 -0.00439886 0)
(0.97297 -0.00609231 7.53144e-21)
(1.00107 -0.0122619 -1.82297e-21)
(0.57678 0.0507074 2.37159e-22)
(1.02979 -0.00396352 0)
(1.00228 -0.0117001 2.33794e-21)
(1.09799 0.0637354 0)
(0.7508 -0.233787 -2.96446e-20)
(1.00223 -0.0119584 -2.88083e-21)
(-0.0232755 0.0290856 -2.40402e-20)
(1.08205 -0.0126618 0)
(0.955144 -0.0604397 -1.02697e-20)
(0.129459 0.0476475 2.61193e-20)
(1.02562 -0.0229064 6.2717e-22)
(1.06841 -0.184728 -1.04888e-20)
(1.21326 -0.0493863 0)
(1.21769 -0.0307371 0)
(0.959843 -0.0390174 9.56492e-21)
(1.08934 -0.0131924 0)
(1.10745 0.0281347 8.07135e-21)
(0.984747 -0.242674 -1.50698e-21)
(0.953359 -0.0595407 1.6047e-20)
(0.997039 -0.0195117 2.03561e-21)
(1.01798 -0.0408621 2.68544e-22)
(0.36771 0.0668208 0)
(1.02564 -0.0642795 -1.63341e-21)
(1.21748 -0.0586687 1.17726e-20)
(1.02833 -0.00784929 0)
(1.00116 -0.0158588 0)
(0.945637 -0.138771 0)
(1.1481 0.0514983 2.7962e-20)
(1.00253 -0.00466861 -1.86742e-21)
(0.227663 0.0192009 -3.24428e-21)
(1.02086 -0.00823371 0)
(-0.0919015 0.0226032 -7.84176e-21)
(0.991722 -0.0133006 -1.01479e-20)
(0.130843 0.047106 0)
(1.07461 -0.172713 4.24169e-21)
(1.13229 -0.164294 -4.61027e-22)
(0.980174 -0.00554306 0)
(-0.241225 0.0010345 -3.92824e-20)
(0.389211 0.0396354 0)
(0.942845 -0.13709 0)
(1.03457 -0.0566343 -1.85819e-22)
(0.754291 0.0849998 -2.62716e-20)
(1.17538 0.00576261 0)
(0.458003 0.0407393 1.58307e-20)
(1.10417 0.0597087 9.09697e-21)
(1.02512 -0.0228131 1.20541e-21)
(0.407279 0.0417301 8.79845e-21)
(0.979658 -0.00533229 0)
(1.04996 -0.0781389 0)
(0.297178 0.0192411 0)
(1.11212 0.047913 0)
(1.01175 -0.0346161 -1.1409e-21)
(0.966048 -0.0609753 -6.41638e-21)
(1.10188 -0.214441 0)
(1.06844 0.00366179 0)
(1.15842 0.0171414 2.51207e-20)
(0.998311 -0.00679836 0)
(0.998334 -0.00706879 0)
(1.03489 -0.0124466 0)
(0.296271 0.0634025 -1.60005e-20)
(0.998898 -0.00245967 1.91674e-21)
(1.09279 0.0467779 0)
(1.10765 -0.0239698 0)
(0.591851 0.0420358 1.16908e-20)
(1.20399 0.0189564 -8.05241e-22)
(1.00068 -0.00518182 0)
(1.17879 -0.0729253 -7.91217e-21)
(1.03098 -0.00513309 2.75046e-21)
(1.05556 0.000517997 8.0743e-21)
(1.10436 0.0695128 -1.17063e-20)
(1.08326 -0.012311 -1.45774e-20)
(1.00385 -0.0287328 0)
(1.14707 -0.0585293 3.62514e-21)
(0.399296 -0.00197765 -7.04485e-20)
(0.544655 0.0670424 -9.76846e-21)
(1.18842 -0.296806 6.91235e-21)
(1.03219 -0.0116182 0)
(1.00124 -0.0154851 -1.64942e-21)
(0.999464 -0.00367708 0)
(0.358004 0.0366993 -1.01342e-22)
(1.11881 -0.081389 -1.07174e-20)
(1.14446 -0.0382957 0)
(0.968896 -0.0276872 -4.21449e-21)
(0.992338 -0.0237033 0)
(0.351267 0.0414882 -9.07059e-21)
(0.992032 -0.0115079 7.12915e-21)
(0.436373 0.0389287 8.46941e-21)
(1.03198 -0.011922 -2.1807e-21)
(1.09957 -0.0949449 4.08882e-21)
(-0.0086778 0.0320669 7.8407e-21)
(0.492807 0.0417222 0)
(1.21794 -0.0613629 -1.57333e-20)
(1.21519 -0.0702464 0)
(1.11349 0.0635545 3.69616e-21)
(1.00155 -0.00610268 -1.21874e-21)
(0.23814 0.0213101 -6.42525e-21)
(1.02323 -0.00323811 -7.47426e-21)
(0.984925 -0.0036943 -9.53452e-22)
(0.745969 -0.153457 0)
(0.241119 0.0585522 0)
(0.989949 -0.00271137 1.26497e-21)
(-0.123099 0.0192033 0)
(0.997949 -0.0203325 2.76051e-21)
(1.08407 -0.117955 7.62524e-21)
(-0.227603 -0.00914353 -6.53421e-20)
(0.951994 -0.0479872 7.06744e-21)
(0.985061 -0.0153462 1.52959e-20)
(1.02002 -0.00493319 2.0621e-23)
(0.346686 0.0421368 -6.01705e-21)
(1.01336 -0.156227 0)
(1.14969 0.0158296 2.00886e-20)
(0.993731 -0.416671 0)
(-0.239583 -0.00449955 5.95847e-20)
(1.02116 -0.000544112 6.60199e-22)
(1.04058 -0.0271972 -4.98081e-21)
(1.08388 -0.228563 7.04523e-21)
(0.998911 -0.00233958 8.40762e-22)
(0.352732 0.0353562 -9.24722e-21)
(0.999739 -0.0330481 -1.06526e-21)
(1.01012 -0.0339852 0)
(1.1882 0.070915 2.13536e-20)
(1.00474 -0.0113774 5.35061e-22)
(0.0808394 0.0235826 0)
(1.0973 0.0463756 1.2561e-20)
(1.17502 -0.0187416 8.5438e-22)
(1.02648 -0.027393 -2.17125e-21)
(1.10873 0.0295433 0)
(0.985158 -0.0149078 -1.2987e-20)
(0.96539 -0.122649 -7.88608e-21)
(1.07292 -0.0704251 -7.70029e-21)
(0.99434 -0.00389615 4.75703e-21)
(1.17758 -0.0745512 0)
(0.998727 -0.00286334 -3.67187e-21)
(1.06634 -0.180705 1.6297e-20)
(1.00493 -0.0105842 4.76075e-22)
(0.0863284 0.0251584 8.12485e-21)
(1.09372 -0.0148486 1.26173e-20)
(1.02809 -0.00755152 -2.47685e-22)
(0.523503 0.0781586 -1.24352e-20)
(1.06379 -0.02189 0)
(1.01723 -0.0131201 2.33209e-22)
(1.01195 -0.000433863 0)
(0.950688 -0.0469785 -7.53236e-21)
(0.251481 0.059425 0)
(1.0271 -0.00323352 -2.02433e-21)
(0.800749 0.00918568 5.31866e-20)
(0.504555 0.0728475 3.5082e-21)
(1.11269 0.0633563 -7.42129e-21)
(0.877638 -0.147792 -8.45857e-22)
(-0.140488 -0.0244541 -5.85338e-20)
(1.03676 -0.00305065 2.77655e-21)
(1.02159 -0.0209962 1.38791e-21)
(-0.0199215 0.0219911 1.12172e-20)
(1.09657 0.00743431 1.28381e-20)
(1.08969 -0.0122503 9.15376e-21)
(0.619521 -0.648247 1.90135e-20)
(0.972909 -0.0082622 1.95368e-20)
(1.20618 -0.126616 1.65461e-20)
(1.09565 0.0597946 -4.43248e-21)
(1.06289 -0.0215638 -7.72206e-21)
(1.08876 -0.0281767 0)
(1.04399 -0.00424019 8.71764e-21)
(0.973284 -0.00776068 -1.14642e-20)
(1.14222 -0.037511 2.12557e-22)
(0.994664 -0.0036964 -4.85875e-21)
(1.04532 0.000322827 -9.03858e-21)
(1.12465 0.0416551 4.05108e-21)
(0.753658 -0.14738 0)
(1.13985 -0.0610929 1.44412e-20)
(-0.148608 -0.0232312 9.76582e-20)
(0.989069 -0.003782 1.86751e-23)
(1.02513 -0.0275497 0)
(0.285409 0.062358 0)
(1.11828 -0.00490055 0)
(1.02692 -0.00339385 0)
(-0.105212 0.0200766 0)
(1.24818 0.0401113 -1.96689e-20)
(0.941417 -0.0299195 -4.117e-21)
(1.1102 0.0569298 -2.49645e-20)
(1.03772 -0.011422 2.75969e-22)
(1.02987 -0.00451836 -6.93069e-21)
(1.01756 -0.0134301 -6.80653e-23)
(0.998732 -0.00270261 1.76061e-21)
(1.09181 -0.513 0)
(1.04886 -0.0768144 1.83737e-21)
(0.999965 -0.00107373 -1.29036e-21)
(0.239122 0.0591172 4.25399e-20)
(1.01082 -0.154659 -2.86137e-22)
(1.11345 -0.289188 -1.4955e-20)
(-0.256194 -0.00459379 7.00588e-20)
(0.265488 -0.0930454 -5.35051e-20)
(0.971502 -0.127889 9.11287e-21)
(1.10258 0.0641677 0)
(1.00785 -0.208059 -1.80719e-21)
(1.03008 -0.00431122 0)
(0.989585 -0.00239236 1.63389e-23)
(0.855866 -0.0894908 0)
(1.11229 0.0626986 0)
(1.02945 -0.0310505 0)
(0.370836 0.0586617 -1.19276e-20)
(1.11379 0.0572305 -1.6862e-20)
(1.16492 -0.0592374 -2.18728e-20)
(0.426698 -0.00340123 1.08245e-19)
(1.0058 -0.0070996 0)
(0.427958 0.0226308 -2.83847e-20)
(1.0635 -0.145617 0)
(1.11674 -0.00325204 -5.86932e-21)
(1.01783 -0.0317441 -6.7628e-23)
(1.07678 0.0878091 0)
(1.14684 0.0507606 -3.5742e-20)
(-0.00404135 0.0250811 1.4063e-21)
(1.10551 0.0660929 0)
(0.822547 -0.243627 1.92444e-20)
(1.05451 -0.0342671 6.9624e-21)
(0.0186512 0.0267495 -3.38429e-20)
(0.990379 -0.0584008 -6.92361e-21)
(1.11081 0.0566652 2.06766e-20)
(1.04111 -0.026072 0)
(1.05097 -0.0153301 0)
(0.129959 0.0458474 -1.13702e-21)
(1.18146 -0.295759 7.34909e-21)
(1.10487 0.0597056 -1.84765e-20)
(0.999953 -0.00104601 1.37832e-21)
(1.00332 -0.0179651 -1.55067e-21)
(1.02805 -0.00638886 -6.72802e-21)
(0.99973 -0.00593101 4.83881e-23)
(0.583401 0.0729654 1.0794e-20)
(1.01304 -0.0264698 1.67404e-22)
(1.03636 -0.00240964 0)
(0.972326 -0.11751 -4.18249e-22)
(1.21079 0.0689376 0)
(1.01644 -0.0108695 1.59774e-21)
(0.567985 0.0599924 8.10459e-21)
(1.15318 -0.143684 3.34469e-20)
(1.00059 -0.0636397 -4.98906e-21)
(1.05135 -0.165586 -4.74253e-21)
(-0.118148 0.0198185 3.18606e-20)
(1.13706 -0.136349 1.80723e-20)
(0.137956 0.0470496 0)
(1.00078 -0.112943 -2.45111e-21)
(1.17924 -0.0410094 4.03918e-20)
(0.984405 -0.0140232 0)
(1.01264 -0.00244216 0)
(1.12462 0.0388979 -8.7024e-21)
(1.10096 -0.0965228 -1.39924e-20)
(0.991423 -0.0578455 5.30051e-21)
(0.750977 -0.137736 1.73936e-20)
(1.00249 -0.111878 -2.89708e-21)
(1.23926 0.0399965 1.70825e-20)
(1.02672 -0.064718 0)
(1.09402 0.0453508 -1.55484e-20)
(1.17719 -0.0190124 -1.96557e-20)
(1.20388 0.020679 -1.29554e-20)
(1.18045 -0.0266929 0)
(-0.124672 0.0186451 -3.93942e-20)
(0.887031 -0.0725495 0)
(1.23429 -0.113239 -5.47118e-20)
(0.805954 0.0657509 0)
(1.09935 -0.120762 -1.21918e-20)
(1.1408 -0.0386364 0)
(0.57244 0.0585775 0)
(1.14756 -0.0563804 -2.09629e-20)
(1.08257 -0.116152 -2.77794e-22)
(1.14776 0.0158073 0)
(0.851479 -0.0905528 1.52452e-20)
(1.04486 0.000520239 8.5558e-21)
(1.10331 0.0531543 0)
(1.08543 -0.0694794 -2.71047e-21)
(1.04123 -0.0269484 -3.34319e-21)
(0.961764 -0.0632624 1.65175e-20)
(1.01594 -0.0114627 0)
(1.0987 0.0660748 -1.05158e-20)
(0.998907 -0.103538 1.4817e-21)
(0.999998 -0.00081636 -3.01919e-23)
(1.21455 -0.0737213 0)
(1.01261 -0.00196007 0)
(0.190444 0.0552564 2.59798e-20)
(1.0007 -0.075968 0)
(0.991665 -0.024518 -5.81973e-21)
(0.962795 -0.0643647 -7.87099e-21)
(1.00564 -0.00689399 6.22625e-23)
(1.00657 -0.00445887 -5.78143e-23)
(0.0929062 0.0233602 -2.18632e-20)
(1.05418 -0.0334239 -1.31943e-20)
(1.01246 -0.0017461 0)
(1.01507 -0.0398964 7.75672e-23)
(1.12261 0.0761596 8.41122e-21)
(0.181247 -0.0827278 1.42912e-22)
(1.04333 -0.00434087 -5.02451e-21)
(1.01758 -0.0311326 -5.63309e-22)
(1.01019 -0.000469342 -3.37354e-22)
(1.12063 -0.00831214 1.98148e-20)
(1.00098 -0.0119772 0)
(1.02702 -0.00386478 0)
(1.00755 -0.00892203 6.99924e-23)
(0.207487 0.0565193 -1.98415e-20)
(1.23709 -0.115964 5.94598e-20)
(0.594113 0.0608497 -9.66901e-22)
(0.999 -0.0185858 5.70542e-21)
(1.0272 -0.00369236 0)
(1.21142 -0.0743806 0)
(0.272388 0.060913 1.69463e-20)
(1.00001 -4.64206e-05 7.1125e-22)
(1.00841 -0.0696642 -8.58411e-22)
(1.0101 -0.0194362 -2.49714e-22)
(0.882344 -0.509495 9.89737e-22)
(1.01247 -0.00124595 -1.65727e-21)
(1.00156 -0.076946 1.61492e-22)
(1.02799 -0.24652 0)
(0.967952 -0.0108381 -1.76994e-20)
(0.730918 0.0122778 -1.41689e-22)
(1.01104 -0.000258324 0)
(1.20851 -0.128984 0)
(1.00841 -0.0486038 -8.3068e-23)
(1.03244 -0.0250615 0)
(0.986417 -0.050959 5.44578e-21)
(1.03463 -0.0128287 0)
(0.0480919 0.0282841 3.23343e-20)
(0.969046 -0.0609081 1.0427e-20)
(1.0311 -0.030244 -1.08844e-21)
(0.298547 0.0347624 -1.31459e-20)
(0.842975 0.0665147 -1.42871e-20)
(1.01341 -0.00117247 -2.07387e-21)
(0.407963 0.0638552 -2.30453e-20)
(1.01086 -0.0474308 0)
(1.11874 -0.0116726 0)
(1.11225 0.0569226 -1.99253e-20)
(0.995699 -0.00928123 5.48894e-21)
(0.103799 0.0260558 1.46596e-20)
(1.00474 -0.0120843 1.26457e-21)
(0.692424 -0.0815123 0)
(1.03078 -0.00540916 -2.89246e-21)
(1.00039 -0.0015234 0)
(1.07705 -0.057404 1.2611e-20)
(1.02834 -0.00669539 4.96307e-21)
(-0.0143567 0.025213 0)
(1.10543 0.00162037 -1.7593e-20)
(1.01783 -0.000504955 0)
(1.04836 0.0659401 8.61197e-23)
(1.21077 -0.0446911 4.18074e-20)
(1.00583 -0.00750943 1.91853e-23)
(1.10508 0.0589168 0)
(1.21708 0.0672863 1.92889e-20)
(1.02663 -0.0413436 1.26185e-21)
(1.03111 -0.0178237 3.3525e-21)
(1.11951 -0.00941985 -2.01663e-20)
(0.284889 0.0620179 1.71818e-20)
(0.430989 -0.014072 0)
(1.20934 0.00272433 -3.57732e-20)
(1.06968 0.087102 -1.08779e-22)
(0.379329 0.0595204 0)
(1.04969 -0.161896 4.76483e-21)
(0.260505 0.0617304 -9.79844e-21)
(0.964352 -0.0172667 9.09375e-21)
(1.01379 -0.0205863 -3.24052e-22)
(1.03092 -0.00596867 0)
(1.03757 -0.039169 2.63525e-21)
(0.421228 0.0428381 8.88296e-21)
(1.07411 0.0657926 -1.31258e-20)
(1.02506 -0.0187158 1.9665e-21)
(1.09622 0.00806223 -8.59498e-21)
(-0.143256 -0.0074469 0)
(0.984702 -0.00420347 0)
(-0.210915 -0.0105359 0)
(1.0982 -0.119163 1.03471e-20)
(1.06204 -0.0102255 9.26437e-21)
(0.970583 -0.114714 4.46611e-22)
(1.03184 -0.0250539 -2.00851e-21)
(1.09907 0.0585761 -1.95364e-20)
(1.17678 -0.00868815 2.25964e-20)
(0.882389 -0.152653 0)
(1.03041 -0.0302545 8.20615e-22)
(1.02439 -0.0197858 -2.055e-21)
(1.18748 0.023203 0)
(-0.24864 0.00115887 5.09882e-20)
(0.995994 -0.0755109 -1.74436e-22)
(1.00025 -0.000116848 -3.51201e-22)
(1.03821 -0.0399124 -1.04622e-22)
(0.752861 0.0766814 8.83549e-21)
(1.12211 -0.0855164 -1.23512e-20)
(-0.0858748 0.0187228 2.7237e-20)
(1.12161 0.0825217 -2.41256e-20)
(1.10387 0.0655594 6.81351e-21)
(0.569142 0.0789103 1.46308e-20)
(0.968314 -0.0103058 1.44261e-20)
(0.310317 0.0366542 1.13733e-20)
(1.00022 -8.77693e-05 -5.76912e-22)
(0.544769 0.0752436 -1.60535e-20)
(1.03651 -0.00128137 0)
(1.06402 -0.366904 -1.5066e-20)
(0.355628 0.0444586 5.46476e-20)
(1.10499 0.000665335 1.80878e-20)
(1.03627 -0.00278813 -5.95574e-23)
(1.01264 -0.00147191 1.74079e-21)
(0.169981 -0.0676649 0)
(1.0745 -0.0513554 0)
(1.14685 0.0204427 -2.24982e-20)
(1.22146 0.0654745 3.51545e-20)
(1.15245 0.0852129 0)
(1.01021 -0.0332694 -7.8279e-23)
(1.08672 -0.0631974 -1.97254e-22)
(1.06307 -0.148236 0)
(0.970106 -0.0618045 -1.16305e-20)
(1.06266 -0.373644 1.73903e-20)
(1.00001 -0.0003421 0)
(1.03172 -0.242539 0)
(1.02029 -0.00735095 -1.18807e-21)
(1.02925 0.0857231 0)
(0.998589 -0.0174174 -3.05121e-21)
(0.994924 -0.00393472 4.27757e-23)
(0.401606 -0.0229099 3.96812e-20)
(1.01012 -0.0100311 0)
(0.998 -0.00712458 0)
(1.00425 -0.0292474 3.87869e-21)
(0.940171 -0.0534457 -1.98597e-20)
(1.00001 -0.000266853 -1.15808e-22)
(0.999995 -0.000629277 0)
(0.819198 -0.249988 -1.4345e-20)
(1.0269 -0.078333 0)
(0.300346 0.0222989 0)
(1.00256 -0.00440128 0)
(1.06407 0.00663578 1.90394e-20)
(1.12258 -3.85537e-05 -1.46911e-20)
(0.872268 -0.151531 4.49297e-21)
(1.01422 -0.0151875 0)
(1.00698 -0.00902711 0)
(1.06903 0.00203954 1.02686e-20)
(0.983441 -0.131104 3.94242e-21)
(0.0712258 0.0242925 0)
(1.12694 0.0387103 -4.36735e-21)
(0.992103 -0.0111579 -4.66435e-21)
(1.06748 -0.00891629 1.92203e-20)
(1.26709 -0.148508 -3.8428e-20)
(0.547496 0.0678955 0)
(1.00568 -0.0073354 0)
(1.02647 -0.00451495 -3.35772e-21)
(-0.276065 -0.00372162 -1.11342e-19)
(0.388726 0.0455707 0)
(0.775275 -0.0852924 1.8026e-20)
(0.0788785 0.0248217 -8.2761e-21)
(1.01171 -0.04749 0)
(1.11733 -0.0797674 -9.27398e-21)
(0.991325 -0.00359765 7.59087e-21)
(0.29438 0.0210812 1.47841e-21)
(1.24895 0.0424727 1.9241e-20)
(1.07762 0.00297278 0)
(0.995056 -0.0742389 3.0991e-22)
(1.12049 0.0750412 -9.14524e-21)
(1.17945 -0.0386565 1.39547e-20)
(1.027 -0.0223006 0)
(1.2182 -0.0690799 -2.28644e-20)
(0.0736613 0.023201 -8.8144e-21)
(0.600855 0.0609888 0)
(1.02897 -0.03041 -2.38591e-21)
(1.12404 -0.00010417 1.5549e-20)
(1.1226 -0.00610894 -1.76902e-20)
(1.04513 -0.0239019 1.16723e-20)
(1.06543 -0.0102233 2.87484e-21)
(0.992424 -0.0230672 -3.00421e-21)
(0.247058 0.0600115 1.92378e-20)
(0.818887 0.0794662 -4.43981e-21)
(1.0309 -0.017301 0)
(0.636867 0.0741087 -9.78062e-21)
(0.805662 0.0706235 1.07764e-20)
(1.00008 -0.00168399 -2.15232e-21)
(0.803346 -0.191987 0)
(1.00303 -0.0127784 -9.94824e-22)
(1.12458 0.0376058 -6.54325e-21)
(1.10323 -0.0265533 1.08575e-20)
(1.00092 -0.00878292 -1.23921e-21)
(1.24836 -0.332699 0)
(0.559048 0.0578637 0)
(1.10638 -0.0263704 -1.22194e-20)
(1.16629 -0.584139 -4.35714e-20)
(1.00289 -0.0128575 1.25425e-21)
(0.989153 -0.0549107 -5.57204e-21)
(1.07671 0.00306078 -5.94029e-21)
(0.972136 -0.11225 -8.92134e-22)
(1.07594 -0.0512199 -3.90262e-21)
(1.15387 -0.00700229 -1.59343e-20)
(1.00517 -0.0139513 7.75521e-22)
(1.11679 -0.00434047 0)
(0.999526 -0.00345888 0)
(0.443056 0.0449716 0)
(1.14343 -0.0952195 -2.19225e-21)
(1.00665 -0.0162415 -1.41316e-21)
(1.0477 -0.359179 -1.44005e-20)
(1.01953 -0.00572934 2.05088e-21)
(0.209611 0.0550275 -1.74402e-20)
(-0.146669 -0.0227737 0)
(1.00398 -0.00449527 0)
(-0.0593482 0.0228123 0)
(1.02704 -0.00436179 1.40365e-23)
(1.01427 -0.0400818 1.47923e-23)
(1.06818 0.00192873 9.36226e-21)
(1.00409 -0.00474432 2.99782e-22)
(1.16479 -0.134667 6.9697e-21)
(1.08791 -0.0622389 -1.02565e-20)
(1.00682 -0.0160687 1.73182e-21)
(1.13873 -0.0376406 -3.41761e-21)
(1.01096 -0.0203124 2.85948e-22)
(1.10081 0.0354547 3.08832e-21)
(0.846466 0.0712542 -1.89389e-21)
(1.005 -0.0108858 6.61751e-22)
(0.997189 -0.0218175 -2.64487e-21)
(0.546282 0.0620798 -4.84911e-21)
(1.00003 -0.00107886 -6.80289e-25)
(1.02729 -0.004187 -2.07928e-21)
(1.20818 -0.0432762 -6.03623e-20)
(0.851993 -0.146524 1.43349e-21)
(0.862107 -0.0553367 8.91379e-21)
(1.16513 -0.164492 -1.79946e-20)
(0.995008 -0.0712657 0)
(1.01285 -0.0241335 2.16795e-22)
(0.943061 -0.035744 -9.56676e-21)
(1.12969 0.0818837 2.63272e-20)
(0.187923 0.0202648 0)
(1.11153 0.0572107 1.66102e-20)
(0.212034 0.0208125 0)
(1.02128 -0.000502022 -1.86876e-24)
(1.11414 0.0607901 -3.94794e-23)
(0.96629 -0.0170444 -8.82818e-21)
(1.04366 -0.0652228 -2.77848e-21)
(0.612701 0.0800567 7.52452e-23)
(1.14422 0.0512141 6.06487e-21)
(1.04152 -0.240806 -7.57567e-21)
(1.00482 -0.0116845 0)
(1.14553 0.0519087 0)
(0.955258 -0.0615429 0)
(1.16267 0.0845611 1.33797e-20)
(1.11176 0.0501672 0)
(0.935891 -0.138096 -1.56457e-20)
(0.148452 0.0144702 3.84033e-21)
(1.00922 -0.0486744 0)
(-0.143617 -0.0235762 0)
(0.864874 -0.392708 -5.20772e-21)
(1.04295 -0.0641251 0)
(1.0862 -0.0661372 -9.91435e-21)
(1.07859 -0.1717 1.14882e-22)
(1.07279 -0.184621 -9.01536e-21)
(1.09325 -0.0112548 2.072e-20)
(1.02068 -0.000477932 -1.25002e-21)
(1.11406 0.0399189 0)
(1.00496 -0.0138061 -1.55159e-21)
(1.12575 0.0394516 -4.41934e-21)
(0.981947 -0.231451 0)
(1.01061 -0.0202549 0)
(1.1636 -0.161385 -3.00891e-20)
(-0.0289312 0.0184281 2.39049e-20)
(0.998986 -0.00624524 3.75609e-21)
(1.00266 -0.00438613 5.35445e-24)
(0.405866 -0.00373565 0)
(0.989784 -0.0291997 4.11988e-21)
(1.02242 -0.0225564 0)
(1.1784 -0.0211743 0)
(-0.116363 -0.0154836 -3.87882e-20)
(0.297308 0.0226088 -1.11307e-20)
(1.10293 -0.0280398 -1.15124e-20)
(1.02027 -0.00208787 0)
(0.217009 0.0208815 0)
(1.13537 0.02869 0)
(1.29898 -0.316812 0)
(0.967295 -0.0620378 7.08868e-21)
(1.10666 -0.0278057 -1.59227e-20)
(1.15193 -0.00691351 0)
(1.04084 -0.0628154 -2.36173e-21)
(1.18883 0.0250533 2.00468e-20)
(0.984408 -0.0146101 -9.76573e-22)
(-0.131951 -0.0130792 -1.21338e-19)
(0.99915 -0.0330036 1.23771e-21)
(1.1013 0.0661813 -6.89237e-21)
(0.965411 -0.0178463 -9.13121e-21)
(1.08866 -0.104367 -3.49869e-21)
(1.09913 0.0581438 0)
(1.02659 -0.00233112 0)
(0.660478 -0.28773 -4.28403e-20)
(1.02687 -0.00245545 1.07715e-23)
(1.00521 -0.0296704 -2.02663e-24)
(1.09161 0.0643337 -6.26997e-21)
(1.04443 -0.0236903 -4.73332e-21)
(-0.1308 -0.0260609 -8.84344e-20)
(0.999166 -0.0102913 0)
(1.06152 0.0881096 1.40593e-20)
(1.01284 -0.0259466 -1.88656e-22)
(0.999074 -0.0100688 1.07556e-21)
(1.00668 -0.386738 -5.31293e-22)
(1.01495 -0.000859082 -3.34767e-22)
(0.170139 0.052317 -2.69486e-20)
(1.02292 -0.022659 0)
(0.980876 -0.132282 -1.61001e-21)
(0.995219 -0.00369945 -4.26746e-23)
(1.00002 -7.35045e-05 -6.19468e-22)
(1.14161 0.0514298 3.73259e-20)
(0.745832 -0.293531 -2.68003e-20)
(0.869935 0.0640638 3.2751e-21)
(0.19822 0.0554579 -2.04616e-20)
(-0.14311 -0.0254656 6.44629e-20)
(1.08274 0.0663224 1.90939e-20)
(1.10381 0.0455437 -3.69209e-22)
(1.03383 -0.0240375 0)
(1.04113 -0.0392054 4.02484e-21)
(-0.259373 -0.00439556 0)
(0.581592 0.060035 0)
(0.997563 -0.0216983 1.0391e-21)
(-0.136377 -0.00927115 -2.53168e-21)
(0.200757 0.0206385 -1.21752e-20)
(1.09338 0.0465065 -9.00538e-21)
(1.07379 -0.112047 1.47611e-20)
(1.09551 0.0047584 -3.09733e-21)
(0.609462 0.0743972 -1.64682e-20)
(1.02165 -0.0204931 -1.71547e-21)
(1.18087 -0.0662345 -5.02975e-22)
(0.211699 0.0195736 0)
(1.03778 -0.244809 8.29203e-21)
(1.21146 -0.346331 0)
(0.583368 0.0744762 -5.27199e-22)
(1.06335 0.00672711 -1.49985e-20)
(1.04617 -0.0757991 7.74207e-21)
(1.0296 -0.00560925 0)
(0.713586 0.0759308 5.14659e-21)
(-0.057415 0.0227655 1.60989e-20)
(1.02613 -0.00455168 5.69531e-21)
(0.761741 -0.394133 5.90603e-21)
(0.456323 0.00957814 3.16777e-20)
(1.0949 -0.0151849 1.34421e-22)
(-0.152584 -0.0219258 1.76818e-20)
(1.11505 0.0226275 -5.37702e-21)
(-0.0343983 0.0170847 -2.94628e-20)
(0.990908 -0.0251859 6.67462e-21)
(1.17807 -0.0227885 0)
(0.87925 -0.4138 0)
(1.18894 0.0289362 2.43047e-22)
(1.08686 -0.0683535 2.47172e-21)
(1.00473 -0.019748 -2.646e-21)
(-0.00402131 0.033973 -3.71079e-21)
(1.13059 0.0401742 0)
(1.00482 -0.154776 7.42184e-22)
(0.999626 -0.00667264 7.76806e-22)
(1.13288 -0.168348 1.95339e-20)
(1.02005 -0.00199564 0)
(1.00118 -0.407624 -7.83883e-21)
(0.939682 -0.0296267 -7.43357e-21)
(1.05148 -0.035627 5.12852e-21)
(1.0176 -0.0707682 0)
(0.978419 -0.0172547 -5.5793e-21)
(1.06009 -0.0502794 -8.85704e-21)
(1.10133 0.0349094 0)
(1.11865 -0.00627528 0)
(1.06249 0.00746441 2.10383e-21)
(1.16814 -0.183195 9.03011e-21)
(1.01438 -0.0800578 6.71466e-25)
(0.699935 0.0306338 0)
(1.03777 -0.498353 2.14916e-20)
(1.0369 -0.00226694 0)
(1.04995 -0.0587933 0)
(0.978524 -0.0180201 -2.94279e-21)
(1.00167 -0.00625937 0)
(0.184855 0.0544585 -5.12327e-21)
(0.458316 0.0744615 0)
(1.14457 -0.0122816 -8.31847e-21)
(0.985487 -0.0160206 0)
(0.944247 -0.0341289 1.76801e-20)
(1.00472 -0.0275173 0)
(1.03324 -0.0593642 0)
(0.0575687 0.0237477 -1.00764e-20)
(1.00263 -0.00463308 1.29249e-21)
(1.06915 -0.0814604 4.40549e-21)
(1.06029 -0.162436 1.53168e-20)
(0.986252 -0.00294432 6.09134e-21)
(1.02562 -0.0256956 -2.13928e-21)
(1.02458 -0.0183251 -1.47231e-21)
(1.04202 -0.0392506 -9.81054e-22)
(0.856381 -0.144504 -5.2092e-21)
(0.9793 -0.0184529 -7.98502e-21)
(1.0792 0.0208897 1.70077e-20)
(1.09435 0.00498918 0)
(1.00003 -4.81096e-05 -2.74936e-22)
(1.0046 -0.0194699 0)
(0.430702 0.0597009 4.77718e-20)
(0.471103 0.0741163 -2.88299e-20)
(1.0182 2.3895e-05 0)
(1.02646 -0.00193651 -2.10109e-21)
(1.03704 -0.00114016 2.18027e-21)
(1.08041 0.0230714 5.33537e-21)
(1.08045 0.0216861 0)
(0.375567 0.0442835 -4.06731e-20)
(1.09462 0.0457615 1.1284e-20)
(0.977803 -0.0687606 -5.93151e-21)
(0.980572 -0.00677827 0)
(1.16736 -0.0586041 -2.42908e-20)
(0.720957 0.0836213 2.83459e-20)
(0.958286 -0.0390435 -1.78236e-20)
(0.999714 -0.00621107 -3.02965e-21)
(1.01981 -0.00846551 1.77401e-23)
(0.994467 -0.00489217 0)
(1.05707 -0.16227 7.02703e-21)
(0.999606 -0.00339372 -2.37099e-21)
(0.988382 -0.0307657 0)
(1.10358 -0.252919 -1.42321e-20)
(1.02998 -0.0256209 0)
(0.101643 0.0245904 1.04142e-21)
(-0.228093 0.0023312 0)
(1.04138 -0.0641147 -2.28524e-21)
(1.08052 -0.0370865 -1.40491e-20)
(0.988723 -0.132164 5.94626e-21)
(1.24757 0.0452875 1.74367e-20)
(1.1007 0.0216495 0)
(1.17878 0.0706299 -7.46021e-20)
(1.16303 -0.0352783 0)
(0.302717 0.0567245 -1.28404e-20)
(1.04888 -0.0575521 0)
(1.00183 -0.0110172 -2.3438e-21)
(1.08634 -0.104288 1.5817e-21)
(-0.147196 -0.0217143 0)
(1.13758 -0.0387064 3.70193e-21)
(0.990226 -0.00430089 -2.2089e-21)
(1.11115 0.0702675 7.88447e-21)
(1.0154 -0.0102249 1.39964e-21)
(1.01961 -0.00858801 1.37043e-21)
(1.1463 -0.0367024 -1.19825e-22)
(1.15078 -0.589103 -7.90509e-21)
(1.10123 0.0226144 1.56787e-20)
(1.07879 -0.228327 -1.29916e-20)
(0.986014 -0.015906 8.86339e-22)
(1.11575 0.0217681 -1.59421e-20)
(0.986281 -0.235742 1.22279e-21)
(1.07873 0.0871257 1.25342e-20)
(1.01796 -0.0143846 0)
(1.15223 0.0205433 6.50276e-21)
(1.06969 0.013445 6.85492e-21)
(1.2446 0.0472584 0)
(1.06179 0.00926764 2.02939e-21)
(1.00965 -0.032787 7.18939e-23)
(0.49133 0.0704958 -2.70782e-20)
(1.05228 -0.0159905 -5.15876e-21)
(0.0660638 0.0227033 9.42487e-21)
(-0.113807 0.0136204 -1.25197e-20)
(0.994017 -0.00554265 0)
(0.99993 -0.00121401 0)
(1.06557 -0.524541 9.52084e-20)
(1.03057 -0.0256639 0)
(1.02764 -0.0190418 0)
(0.111732 0.026416 1.99493e-21)
(1.0188 -0.00883003 2.53495e-21)
(0.323193 0.0381552 0)
(0.986426 -0.00408067 0)
(0.513561 0.0720721 -5.98747e-21)
(1.14038 -0.0587971 0)
(1.19158 0.0144763 -1.89358e-20)
(0.2353 0.0592563 0)
(1.00045 -0.00162167 0)
(0.995452 -0.00392944 0)
(0.972097 -0.0277911 3.86516e-21)
(1.00842 -0.0272704 7.87942e-22)
(1.03732 -0.0109772 4.20565e-21)
(1.07218 -0.110724 -1.94044e-20)
(1.04652 -0.0233747 -3.00419e-21)
(1.00266 -0.0125617 0)
(1.1122 -0.0144524 -2.81811e-20)
(1.19084 0.0444776 0)
(1.00257 -0.0123147 0)
(0.997652 -0.0200346 -3.46721e-21)
(1.07262 -0.0816657 -1.35586e-20)
(0.998828 -0.00997869 -4.79294e-21)
(0.999944 -0.00115887 3.96534e-21)
(1.01603 -0.037124 -5.95948e-23)
(0.0203932 0.0369284 3.20925e-20)
(0.976215 -0.0231563 1.83267e-21)
(1.01315 -0.00850289 0)
(1.0213 -0.244966 4.64903e-21)
(0.99227 -0.0117887 3.23002e-22)
(1.02707 -0.0228128 7.05676e-22)
(-0.21663 0.00330889 0)
(0.806558 -0.183495 1.88319e-20)
(1.01628 -0.0733589 2.08783e-24)
(1.0033 -0.23485 1.29204e-21)
(1.01344 -0.00857777 -3.45864e-22)
(1.11151 -0.0215265 0)
(1.06922 0.012902 6.48047e-21)
(1.01757 -0.000241567 3.98141e-21)
(1.0515 -0.238448 -4.23385e-21)
(0.44704 0.0712294 1.96698e-20)
(0.882459 -0.18929 -2.15668e-20)
(1.17892 -0.0619387 -1.32386e-20)
(0.970753 -0.119952 3.50086e-21)
(1.02061 -0.00725588 0)
(-0.129668 0.0183799 0)
(1.01853 -0.00857618 0)
(1.0165 0.0847448 0)
(1.00609 -0.00388342 1.11079e-22)
(1.09023 -0.0436833 1.48678e-20)
(0.991986 -0.0288929 0)
(1.0017 -0.00248953 0)
(1.12809 0.0392837 9.80719e-21)
(1.14396 -0.0618795 -1.68074e-20)
(1.00145 -0.00608925 1.13289e-21)
(1.0218 -0.023065 0)
(1.1117 0.0494969 0)
(0.206034 0.0562361 -1.86575e-20)
(1.08933 -0.0245487 2.39133e-21)
(0.99784 -0.0750642 6.11426e-21)
(1.03644 -0.0298622 5.59876e-21)
(1.18284 0.0720299 5.45082e-20)
(1.02731 -0.00714657 5.08834e-22)
(0.552584 0.0217576 -1.68124e-20)
(1.01342 -0.0248345 -6.94521e-24)
(1.00729 -0.0703457 8.74869e-22)
(0.96935 -0.0267358 -8.57324e-21)
(1.16549 -0.155387 -1.52229e-20)
(1.02228 -0.0231649 -1.54893e-21)
(0.0638196 -0.00760896 0)
(1.05179 0.00214864 -5.96418e-21)
(1.01891 -0.080709 0)
(0.980134 -0.0707499 6.30735e-21)
(1.01125 -0.0341405 -1.05325e-21)
(0.998334 -0.395225 6.86106e-21)
(1.1797 -0.411025 -8.34715e-20)
(0.962266 -0.0163145 -7.46009e-21)
(1.09001 -0.0412735 -1.03316e-20)
(1.08083 -0.0360131 7.01762e-21)
(1.05183 -0.615055 -2.3922e-20)
(0.992188 -0.030318 -3.95245e-21)
(0.471158 0.0418246 -4.12382e-20)
(-0.160953 0.0151447 -3.78295e-20)
(1.15685 -0.145099 -3.87865e-20)