/*--------------------------------*- C++ -*----------------------------------*\
| =========                 |                                                 |
| \\      /  F ield         | OpenFOAM: The Open Source CFD Toolbox           |
|  \\    /   O peration     | Version:  v2012                                 |
|   \\  /    A nd           | Website:  www.openfoam.com                      |
|    \\/     M anipulation  |                                                 |
\*---------------------------------------------------------------------------*/
FoamFile
{
    version     2.0;
    format      ascii;
    class       volVectorField;
    location    "200";
    object      ddt0(U);
}
// * * * * * * * * * * * * * * * * * * * * * * * * * * * * * * * * * * * * * //

dimensions      [0 1 -2 0 0 0 0];


internalField   nonuniform List<vector> 
37190
(
(-4.38418e-05 -0.00113632 -2.07829e-21)
(-2.59443e-05 1.15095e-06 8.23139e-22)
(-3.65553e-05 -2.61088e-05 0)
(-4.34252e-05 1.53321e-05 0)
(-0.0878146 0.130532 0)
(-0.000119561 -6.01669e-05 3.49554e-21)
(-0.000702424 -0.000544128 -2.34271e-21)
(0.0220433 0.0100534 5.14223e-22)
(-1.92935e-05 -5.47907e-05 0)
(-0.00861175 0.00216961 2.25322e-23)
(0.0170389 0.000413935 -1.65473e-21)
(-0.160716 0.0888987 -4.60645e-21)
(-0.000806417 0.00798741 3.09285e-21)
(-9.74462e-05 -0.000272263 3.50414e-22)
(0.0200498 -0.000541156 -2.80465e-21)
(-0.00345537 0.162143 0)
(-3.47694e-05 -2.20259e-05 1.49851e-21)
(0.0810634 0.0121795 4.19018e-21)
(-3.87911e-05 4.72217e-05 4.74251e-21)
(-0.000178535 7.64821e-06 2.21673e-21)
(-0.000644781 -0.000102463 -1.93857e-21)
(0.116916 -0.0131126 -1.41047e-20)
(-7.73896e-05 6.74586e-05 3.29074e-21)
(-0.01612 -0.0932268 0)
(-0.0894045 0.109611 0)
(-4.1765e-05 1.53505e-06 3.4456e-21)
(0.0151519 -0.00345524 -7.35474e-22)
(-9.56467e-05 -0.000519139 -4.20569e-21)
(0.0231176 0.000206748 0)
(-1.04877e-05 -0.00012187 1.01041e-21)
(0.0302585 -0.0431164 -6.2163e-22)
(-0.000502658 -0.00011789 -2.50427e-21)
(0.00112351 0.00203984 -5.15501e-21)
(-0.0126407 0.0200454 0)
(0.00123626 0.00264621 0)
(-0.00798474 -0.222535 -1.19266e-22)
(0.0148729 -0.00368261 2.07821e-21)
(-0.0206836 0.194084 -4.19964e-22)
(-3.7654e-05 4.68901e-05 -4.42538e-21)
(0.000335948 -0.000139764 0)
(0.133493 -0.0805759 0)
(-6.4268e-05 -7.31456e-05 4.89998e-23)
(0.000481375 0.153515 -1.10545e-21)
(-0.000456336 -0.000118118 0)
(0.0191392 -0.00146931 -9.20207e-22)
(-0.0586442 0.195457 2.28369e-20)
(0.0188043 -0.00165304 2.4853e-21)
(-0.159054 0.0864692 0)
(-6.179e-05 -3.69476e-05 1.22781e-21)
(-9.16963e-05 0.001075 -3.91294e-21)
(-0.00178388 -0.00019241 2.86743e-21)
(-3.92602e-05 -3.4157e-05 -1.15017e-22)
(-5.90965e-05 -8.04794e-05 -1.17452e-21)
(-0.000209992 -0.000851186 0)
(0.000312879 -0.00020395 7.39746e-21)
(0.00667413 0.0261347 0)
(-3.86073e-05 -3.51673e-05 -1.94981e-23)
(-0.000530292 0.000114383 0)
(0.0105008 -0.0280295 -1.87929e-21)
(0.0260103 -0.0438251 0)
(0.0205716 0.00912486 -1.61796e-21)
(0.0197668 -0.000904128 1.34481e-21)
(-0.000657051 -0.000157925 -1.08287e-21)
(-4.02894e-05 7.79953e-07 -3.41419e-21)
(4.01598e-05 0.095136 9.95061e-21)
(-0.14183 0.138229 -1.91251e-21)
(-0.00924769 -0.123983 0)
(0.0282882 0.0628748 0)
(0.0527652 -0.00616353 1.07983e-20)
(0.00481599 0.00958714 1.60925e-21)
(-3.51655e-05 4.80903e-05 0)
(-0.0469575 -0.014412 0)
(0.000362872 0.00321529 0)
(-7.65201e-05 6.42247e-05 0)
(-0.000967366 7.88768e-05 -5.39924e-22)
(-0.0165973 0.0100996 -3.17734e-21)
(-0.0113572 -0.17335 9.45716e-21)
(0.0110975 0.00283413 -1.39587e-21)
(0.00150423 0.00166305 0)
(0.0166053 -0.00233687 0)
(0.0193006 -0.00138633 2.66374e-21)
(-4.70279e-05 2.67119e-05 -3.67994e-24)
(0.00778882 0.00932769 0)
(-0.00184225 -0.0015917 1.0238e-22)
(-0.00150494 0.00246727 -7.68192e-22)
(0.00313541 0.00359487 -1.21422e-21)
(0.00745775 0.00705589 2.20306e-21)
(-0.0507742 0.213325 -2.36073e-20)
(-0.000731351 -0.000578611 0)
(-0.0324715 -0.331859 3.24363e-22)
(-4.70146e-05 1.27699e-05 0)
(0.0204039 0.000650656 0)
(0.00101065 0.00231868 6.66027e-21)
(-3.36736e-05 4.01809e-06 0)
(-0.00186435 0.00943029 0)
(-0.0151636 0.0372161 0)
(-0.000187581 2.78617e-05 -3.92123e-21)
(-0.123263 0.130329 -1.07506e-21)
(-0.136211 -0.158152 -1.60656e-20)
(-0.000894497 0.000184547 0)
(0.0450095 0.0822007 -5.2474e-21)
(0.0044638 0.0245885 1.15217e-22)
(-2.84566e-05 -0.000171236 4.03983e-21)
(-2.93126e-05 8.88294e-06 -6.07568e-22)
(0.022712 0.000131326 8.50828e-22)
(-3.24303e-05 2.06254e-06 0)
(-0.000251224 -0.000143475 9.54704e-21)
(-0.0228368 -0.000364487 6.10681e-24)
(-0.101578 0.00726939 -2.91835e-21)
(-0.000158742 -3.95191e-05 1.05951e-21)
(0.0480508 -0.174778 -2.61425e-21)
(0.000684304 0.00023 -4.56691e-21)
(-4.52546e-05 2.32718e-05 2.68841e-21)
(0.000665135 0.000338799 -1.08972e-20)
(-0.0446309 -0.0101413 -3.30863e-22)
(-4.32295e-05 1.52973e-05 3.55369e-21)
(0.0191184 -0.00143368 -3.10377e-21)
(0.00694157 0.00738964 1.90637e-21)
(3.80431e-06 0.000858333 -6.14494e-22)
(-0.000205833 -0.00025684 0)
(-0.0428279 0.0366324 0)
(0.0110624 0.00320969 -1.11235e-21)
(-1.25872e-05 -0.000164583 -4.39058e-21)
(-0.00207028 -0.000111505 -2.69599e-21)
(-0.0686881 0.0957135 1.56119e-21)
(-0.000780818 2.37853e-05 0)
(0.0188941 0.00112404 1.07668e-21)
(-1.01382e-05 -0.000169296 3.55072e-21)
(0.020067 0.000500507 0)
(0.0431459 0.0959328 5.37797e-22)
(0.0144388 -0.00412851 8.6762e-22)
(-4.29658e-05 4.67831e-06 1.94469e-21)
(-3.2516e-05 3.25438e-06 0)
(-0.0322233 -0.0825754 -8.90564e-22)
(-4.31198e-05 -8.64136e-07 0)
(0.0338783 -0.0985681 7.48987e-22)
(0.000334277 0.00142571 3.45566e-21)
(0.0178996 -0.0404731 -4.3535e-21)
(-0.0831704 0.0577448 8.36741e-22)
(-0.0899911 0.128794 -2.2612e-20)
(0.0241117 0.0258731 1.11625e-22)
(-0.0389334 0.0426932 0)
(-0.00901473 -0.0116235 0)
(-0.000213723 0.0477911 0)
(-0.000207676 3.60755e-05 0)
(-0.000316919 0.000557316 -2.79399e-21)
(-0.000199123 -0.000279419 0)
(-0.000162648 -0.000508251 2.95306e-21)
(-0.000269303 0.000486626 1.55717e-21)
(0.00512981 0.00878741 -9.28129e-22)
(-0.000265867 -0.000125044 -6.17411e-21)
(-3.43516e-05 -2.20017e-06 -5.86873e-24)
(-3.16578e-05 1.75693e-05 3.81488e-22)
(-0.000383393 -0.000958348 8.72927e-22)
(0.0197235 -0.00102837 0)
(-7.1601e-05 6.14929e-05 0)
(0.0569034 -0.0152509 -3.83285e-21)
(-2.5432e-06 -1.2159e-05 0)
(-0.0129942 -0.0065208 0)
(-0.0181175 0.0797636 0)
(-0.000504704 0.000467772 -1.97605e-21)
(-2.02398e-05 0.000611849 4.76597e-21)
(-0.000856519 -0.00168614 0)
(0.00146527 0.00195984 0)
(0.0299546 0.0067166 6.49901e-21)
(-0.000221243 -0.000254125 -1.71704e-21)
(-0.0197525 0.00079889 -3.46802e-21)
(0.011468 0.00145559 -3.1873e-21)
(-7.72624e-05 0.000902624 0)
(0.0016972 0.0205748 0)
(-0.0750949 0.110109 0)
(-2.24402e-05 -6.22947e-05 0)
(-0.0120506 -0.0122896 9.67943e-23)
(-5.69142e-05 -8.09067e-05 5.64712e-21)
(-0.012113 0.0016135 -1.39549e-20)
(0.00398033 0.0862111 1.81996e-21)
(0.0111425 -0.00107584 2.68796e-21)
(-0.00496639 -0.00138922 1.13554e-21)
(-7.16591e-05 -0.000107576 -2.27623e-21)
(-0.0110991 0.00180367 -1.47227e-20)
(-0.000397419 -0.00096096 -1.04715e-21)
(-0.00542299 0.0220124 1.88543e-21)
(-0.0342875 -0.335918 -2.7544e-21)
(0.0696633 0.0352516 -5.8746e-21)
(-0.000770214 -4.40714e-05 -3.97542e-21)
(0.00935139 0.0110101 0)
(-0.000259157 -3.0665e-05 0)
(-0.00869017 0.00161688 6.01149e-21)
(-0.166286 0.149045 5.39239e-22)
(-0.00100224 -0.00145248 -1.79463e-21)
(-0.000155571 0.00050151 -3.22076e-21)
(0.00247217 0.0106931 1.71909e-21)
(-0.00637372 0.0201568 -1.68776e-21)
(-7.42625e-05 -8.55968e-05 4.60791e-21)
(-0.000138046 0.000438325 0)
(0.00746144 0.00970713 1.37307e-21)
(0.0138758 0.00388227 -6.53541e-22)
(-0.0824443 0.0044138 9.27933e-21)
(0.0323526 0.00764906 0)
(-2.5062e-05 7.17924e-07 5.95273e-22)
(-3.20325e-05 1.3199e-06 0)
(0.000183946 0.000375222 2.55055e-21)
(-0.000239254 8.77125e-06 3.71484e-21)
(-0.000104051 4.59524e-05 2.75793e-23)
(0.0684486 0.0764958 1.79548e-23)
(-0.00677117 -0.0586602 1.74575e-21)
(-4.0835e-05 -1.7614e-06 -4.6571e-21)
(-8.28617e-06 -1.53601e-05 0)
(0.0218689 0.000561917 -3.50267e-21)
(-0.00110106 -0.00138986 0)
(-0.00024098 3.48996e-05 -1.80632e-21)
(-4.08129e-05 -1.38085e-06 -5.74568e-21)
(-0.0632745 -0.0956317 0)
(-7.68066e-05 6.28767e-05 3.11666e-21)
(0.0158242 -0.00142848 0)
(-0.000123197 -0.000378197 3.28803e-21)
(-4.06647e-05 -1.9297e-06 -4.6028e-21)
(-0.000247501 -2.10399e-05 -1.13912e-23)
(-0.0571334 0.027494 2.40514e-22)
(-4.08363e-05 -2.83118e-06 3.93069e-21)
(-9.04797e-05 -0.000531485 3.34148e-21)
(-4.14734e-05 4.69445e-06 8.00032e-21)
(-0.155912 0.144879 1.57417e-21)
(0.0118873 0.000231993 1.64587e-21)
(0.0307949 -0.00490429 4.1128e-21)
(-0.0797759 0.103005 0)
(0.0159289 0.0113056 5.46175e-22)
(0.0119584 0.00638228 9.84248e-22)
(-1.11465e-05 -0.000195437 -1.56017e-21)
(-0.0126851 0.0131545 4.85274e-22)
(-0.0242276 -0.000430968 -1.14102e-20)
(0.000262304 0.0012543 -3.97302e-23)
(-3.12094e-05 1.62932e-05 -4.23899e-22)
(-4.30342e-05 -1.78095e-06 3.83431e-21)
(-4.08207e-05 -2.95453e-06 4.72847e-21)
(0.00103852 0.00294676 7.04187e-22)
(0.0354652 0.00668791 0)
(-3.05435e-05 2.12557e-05 -3.04341e-22)
(-2.71446e-05 -3.61747e-06 -1.30661e-21)
(0.000141615 -0.00109767 0)
(-5.01424e-05 0.000433056 9.67722e-23)
(-0.0192016 0.000694436 -6.13522e-21)
(-0.000223122 -0.000834733 -1.46768e-21)
(-4.59209e-05 -2.41121e-05 0)
(0.000217105 0.00296966 -6.74173e-22)
(0.00881209 0.0177395 -3.97998e-22)
(-4.06144e-05 -2.12596e-06 5.47208e-21)
(0.00303158 0.00410097 -3.72916e-22)
(-0.00749264 0.0171168 3.2148e-22)
(-2.93087e-05 2.88961e-07 2.28199e-21)
(-0.000296383 -7.03792e-05 -1.48465e-21)
(0.000479231 0.00728048 -4.38319e-21)
(0.000309214 -0.00119102 0)
(-0.000228294 -0.000229302 0)
(-4.50672e-05 0.000381134 2.61422e-21)
(-0.000148921 -0.000515392 -1.30086e-21)
(-5.64409e-05 -0.000159361 -3.64575e-21)
(-0.00010633 9.81819e-05 -3.62795e-21)
(-0.00108532 0.0102258 -1.87996e-21)
(-3.06856e-05 -1.38645e-05 3.72992e-22)
(-0.0680759 -0.0692791 -2.64186e-22)
(0.0203458 -0.000561442 0)
(-0.00844068 0.0128716 -8.28343e-21)
(-3.99913e-05 -2.96536e-05 0)
(0.00559904 0.032289 0)
(-0.000319455 0.000359367 2.66848e-21)
(-3.48748e-05 3.44685e-06 0)
(-0.00495626 -0.0178365 1.00816e-22)
(0.000102131 -0.0002967 1.44452e-23)
(-0.0272949 0.00405774 -1.05449e-21)
(-0.00218098 0.00711713 -1.23352e-21)
(-7.03872e-06 -0.000195781 -4.98722e-21)
(-0.0217782 -0.0764718 -1.47302e-21)
(-0.0129893 0.00108742 1.08543e-21)
(-0.0105026 0.0209088 -9.41827e-22)
(-0.0131646 0.00153229 1.9663e-21)
(-0.00275405 0.00951361 0)
(-0.00025516 -9.36108e-05 -3.84867e-21)
(-0.0120601 0.00120587 1.47634e-20)
(-3.31715e-05 -4.0426e-05 2.6651e-21)
(8.94221e-05 -0.000356296 0)
(-0.000355272 -0.00496015 -2.00417e-21)
(4.56931e-05 -0.00102267 0)
(-3.13214e-05 2.5247e-05 0)
(0.0108189 0.0380098 0)
(-4.10829e-05 2.35422e-06 -5.63893e-21)
(-2.73036e-05 -2.3489e-06 -3.51438e-21)
(-0.00491951 -0.000942201 0)
(-0.086426 0.149839 2.317e-20)
(-0.00236112 0.00133587 0)
(-8.21565e-05 0.000636174 -5.26333e-21)
(-8.31008e-05 6.85835e-05 -4.91343e-21)
(0.0166981 0.00936458 0)
(0.0126141 0.00597656 -1.22075e-21)
(-4.28836e-05 4.34068e-05 -1.18496e-21)
(0.0113812 0.00103935 3.17159e-21)
(-4.06403e-05 3.57474e-05 -1.40189e-21)
(-5.56149e-05 -1.9061e-06 0)
(-0.0183985 0.00143119 7.17935e-21)
(-3.7022e-05 -2.02135e-06 -1.57018e-23)
(0.0179804 0.0105625 0)
(-0.0361418 0.206256 -3.32003e-21)
(0.0160453 0.0268549 2.98832e-21)
(0.0126057 0.00593501 0)
(0.00137856 -0.000571353 -2.73182e-21)
(-0.00740702 -0.00166981 0)
(0.0062977 -0.149994 9.84192e-22)
(-3.76486e-05 -6.43957e-06 2.53203e-24)
(0.0186209 -0.00173816 0)
(0.0398225 -0.0784566 0)
(0.00103034 0.0986305 -3.65882e-21)
(0.0133878 0.00391883 2.28757e-23)
(0.018859 0.00140325 1.68035e-21)
(0.095182 -0.0200008 -5.16477e-21)
(0.00120461 0.00780597 2.6859e-21)
(-5.7765e-05 0.00832444 -2.64805e-21)
(-9.10697e-05 -0.000110728 4.00243e-24)
(0.000770022 0.00215585 0)
(0.0126055 0.0416003 -2.78359e-21)
(-0.000262324 -7.19107e-05 3.5806e-21)
(0.0157083 0.00077077 7.22529e-24)
(0.0140852 0.00156145 0)
(-2.82064e-06 -6.01055e-05 3.27292e-21)
(-0.000692059 0.00236177 0)
(-0.0735803 0.103078 0)
(-0.0167497 -0.0675945 0)
(-0.000129828 0.000979543 2.98401e-21)
(0.0220671 0.0595034 3.08254e-21)
(-0.0199324 0.000561897 1.71616e-20)
(2.48515e-05 -0.000372607 4.04608e-21)
(0.0103332 -0.00616269 0)
(-0.0652231 0.136613 4.71595e-21)
(-0.0468773 -0.150574 2.55385e-20)
(0.0163569 -0.00201619 0)
(-6.14154e-05 -7.18899e-05 1.32855e-21)
(-8.9377e-06 -0.000426804 -3.50132e-21)
(-3.40839e-05 1.3538e-06 8.45631e-22)
(-3.0421e-05 1.14867e-06 0)
(-4.60006e-05 -2.80533e-05 -6.54735e-22)
(-1.03934e-05 -1.63609e-05 -1.69366e-21)
(0.000855148 0.140484 5.62897e-22)
(-7.33596e-05 6.07149e-05 0)
(-0.158879 0.012497 -1.20084e-21)
(-6.10144e-05 -6.19324e-05 0)
(0.00441326 0.083105 0)
(-0.00895158 -0.000756709 0)
(0.0190765 0.00170327 0)
(6.97595e-05 0.000184405 -1.73316e-21)
(0.00616939 0.12619 0)
(0.0120753 0.0572177 8.43938e-22)
(0.0232133 -0.0374597 4.64704e-21)
(0.0117273 0.0133157 -2.77628e-21)
(6.10969e-05 0.000183492 0)
(-4.16036e-05 -2.81552e-05 -5.79544e-24)
(0.0231455 -0.0029497 4.77672e-21)
(0.0610459 0.0377942 -3.56749e-22)
(-4.75333e-05 1.75902e-05 2.42485e-21)
(5.7182e-05 0.000169036 3.65106e-22)
(0.0146867 -0.00391247 7.2564e-24)
(-0.00691473 -0.0882564 0)
(0.0149926 -0.00367978 6.41955e-24)
(-0.0137814 0.0158081 0)
(0.0438263 -0.00608191 1.01624e-21)
(0.0189988 -0.00155566 0)
(0.0180936 -0.00188395 -3.33094e-21)
(0.0535055 0.0445594 0)
(-7.27469e-05 -0.000115903 0)
(0.04074 -0.0676717 -6.60305e-21)
(-4.23514e-05 4.31469e-05 2.42688e-21)
(0.000418489 0.092685 -1.30918e-20)
(-6.21639e-05 -5.42176e-05 0)
(0.0257531 -0.0626428 1.1667e-21)
(0.00246178 0.0101125 -1.47983e-21)
(0.0946015 0.131441 -1.31872e-20)
(-0.00156773 -0.00187776 0)
(-4.25162e-05 1.94374e-05 -5.73333e-23)
(0.0261187 0.0237329 -4.044e-21)
(-0.015048 0.0747743 2.7386e-22)
(0.0144042 0.118443 -1.80165e-21)
(-0.0159633 0.00827483 2.68884e-22)
(-6.18746e-05 -0.000508181 4.4268e-21)
(0.0141313 7.71917e-05 0)
(-2.02663e-05 -4.15426e-05 -2.76029e-21)
(-0.0588238 -0.0232099 0)
(-0.00573645 -0.0276486 -1.15736e-22)
(0.0968252 0.0423595 1.04731e-20)
(-0.000768072 0.00047332 -9.28953e-22)
(6.2321e-05 7.1616e-05 8.65654e-22)
(-0.000662082 -0.000325471 8.38416e-23)
(-0.00308391 -0.0187354 7.12761e-21)
(0.0217112 0.00551704 0)
(-0.169916 0.1485 -6.85518e-22)
(-0.00112193 -0.000884941 0)
(-6.06251e-05 -3.44156e-05 -1.75725e-21)
(0.0208771 0.00107057 0)
(-0.00168358 -0.0277799 2.53209e-21)
(0.00726262 0.0232603 0)
(0.0172133 -0.000477117 -2.73512e-21)
(0.0216168 8.47405e-05 0)
(-9.43074e-06 1.14579e-05 -8.2735e-22)
(0.0151955 0.00130663 1.29549e-21)
(0.0602189 0.0441355 1.36205e-21)
(-0.000234004 -4.43089e-05 -3.70128e-23)
(-0.0205282 0.000756314 -5.50476e-21)
(0.0156941 -0.00122072 -1.33798e-21)
(-0.000740179 -0.000251202 -9.83183e-23)
(0.000140214 0.0142076 -4.06877e-21)
(0.00540569 0.00734811 -3.11256e-21)
(0.0181801 -0.00176183 2.23184e-21)
(-1.18458e-05 -1.74715e-05 5.51941e-21)
(-7.54379e-05 -9.41002e-05 -4.6948e-21)
(6.43909e-05 0.000165807 -6.0694e-24)
(-0.00089302 -1.19397e-05 5.88013e-21)
(-0.0241983 8.37755e-05 0)
(-0.000429639 -0.00108385 0)
(0.0010538 0.0199014 0)
(-0.012645 0.00869299 0)
(-0.00116757 -0.000708537 2.57423e-21)
(0.00416583 0.0532009 3.69658e-21)
(-9.11598e-05 -0.000107971 0)
(2.49303e-05 4.56375e-05 0)
(0.0305758 -0.0614979 5.19824e-22)
(0.0459811 -0.0977771 -7.79173e-22)
(-0.000631792 0.00215881 -1.6494e-21)
(-4.27112e-06 -0.000135349 0)
(-2.87664e-05 4.85913e-06 4.07024e-23)
(6.20718e-05 4.60912e-05 3.10341e-21)
(-4.08491e-05 -1.64702e-06 0)
(0.0227281 0.181332 -2.85354e-21)
(0.0200404 -0.000325125 2.0857e-21)
(-2.95765e-05 8.99566e-06 0)
(0.000102083 -0.000100007 0)
(-2.14499e-05 6.06307e-05 0)
(0.00717081 -0.0294891 7.25908e-21)
(0.0205914 0.00121067 -4.3972e-22)
(-2.21743e-05 -0.000194438 0)
(-0.000259968 -0.000812755 0)
(-0.000803317 6.24949e-05 -5.51652e-21)
(-0.000249099 -0.000835158 0)
(-0.105867 0.0638626 0)
(-2.60015e-05 6.50549e-07 -3.05847e-21)
(-9.61386e-05 0.000166933 0)
(0.013994 0.000422903 5.54324e-22)
(0.0185478 0.00654839 3.42998e-21)
(-0.0225173 -0.000570766 7.37508e-21)
(-0.0457999 0.0108159 -1.78962e-22)
(-0.0656165 0.136682 -3.43306e-21)
(0.00019415 0.000547621 3.0569e-21)
(-9.00306e-06 0.00319227 0)
(-0.00032088 -0.000237397 0)
(-0.0109679 0.00130408 1.78027e-20)
(-0.0416702 0.212861 2.9654e-20)
(-0.000528736 -0.00110788 -4.52498e-21)
(-0.000278543 -0.000217878 0)
(0.018711 0.00195964 5.65208e-22)
(0.0578291 0.0714018 6.54662e-21)
(-6.26077e-05 -0.000146772 3.55149e-21)
(-3.08399e-06 -1.44686e-05 0)
(7.14986e-05 0.000240723 1.47807e-22)
(-0.00283528 0.0919582 -1.72724e-20)
(-2.94718e-05 3.3959e-05 1.01928e-21)
(-0.000412358 -0.000432716 2.9456e-21)
(0.0131297 0.0397906 0)
(-0.000174411 0.000145757 -2.28997e-21)
(-0.000482442 -0.000365593 -3.58726e-21)
(5.5387e-05 0.00021615 3.9415e-21)
(-0.00614723 -0.283289 1.00001e-21)
(-0.000754701 -0.00129469 -8.03574e-22)
(-5.38716e-05 -3.06529e-05 0)
(-0.01493 0.132934 3.16013e-22)
(-9.90447e-05 0.000150488 0)
(-2.71545e-06 -0.000159085 0)
(-0.0803159 0.16937 1.23242e-20)
(-0.000492195 0.000146518 0)
(-0.000693682 0.00729983 -1.61563e-21)
(0.0187889 -0.0037292 3.16403e-22)
(-2.69921e-05 -0.000190473 3.25417e-24)
(-0.000833133 -0.00486559 0)
(-1.17354e-06 -0.000135455 3.64526e-21)
(-0.0185331 -0.00753644 3.74475e-21)
(-0.162819 -0.0180092 0)
(-2.54335e-05 -0.000168134 0)
(5.03824e-05 0.000276904 7.53743e-22)
(0.0554992 0.0387647 -1.37466e-22)
(-0.0258496 0.0145994 -1.96342e-21)
(-0.000381054 -0.00103963 0)
(-2.87607e-05 0.0182395 0)
(-0.00013366 -0.000384609 0)
(0.0363869 0.123485 -1.54282e-21)
(-5.29008e-05 -2.92369e-05 0)
(0.0163952 0.0101098 0)
(0.0673514 0.0120092 2.59817e-21)
(-0.025646 0.00709055 0)
(-5.41592e-05 -2.17598e-05 3.2919e-21)
(-0.000517351 -0.0010856 4.80117e-21)
(0.000307329 0.00354347 8.33157e-21)
(-0.00346864 0.0018007 0)
(-0.0171223 0.00549662 -2.36741e-22)
(-0.000136995 -4.14171e-05 4.19435e-21)
(-0.0813985 0.0491078 1.32634e-21)
(0.00692905 0.103382 -1.38332e-21)
(-0.0103358 -0.203561 0)
(0.0213622 0.0310289 8.50245e-21)
(0.107316 0.0207116 -1.21384e-20)
(-0.000989325 0.000344341 -5.79337e-21)
(0.000285155 -0.000275775 -2.40285e-21)
(-0.000880953 0.000290019 1.68668e-21)
(-3.064e-05 2.23085e-07 0)
(-0.000250234 -4.47748e-05 -3.37424e-22)
(-0.0002265 7.19675e-05 1.92292e-21)
(-0.0279468 0.17391 -2.45303e-21)
(-6.2423e-05 -8.38056e-05 -2.23625e-21)
(-5.07139e-05 -2.34511e-05 -2.52997e-21)
(0.0249967 0.00993002 1.10551e-21)
(-0.0246633 0.000194312 0)
(-0.0158292 -0.00793502 -4.22709e-21)
(-0.0340414 0.0137668 -6.57964e-22)
(-0.000159192 0.000149092 0)
(-1.87519e-05 -0.000126856 -4.5462e-21)
(0.0212908 0.105424 3.74282e-21)
(7.42213e-06 0.000228206 -2.29655e-21)
(-0.166224 -0.0322523 0)
(-0.000474328 -0.00111374 2.78576e-21)
(-0.00110352 2.89365e-05 9.71022e-22)
(-1.62362e-05 -0.000106483 0)
(0.014789 0.082784 1.96892e-21)
(0.0049164 0.00287473 -1.31065e-21)
(0.186411 -0.048372 1.7419e-20)
(-0.00229816 0.00170265 0)
(-0.000105342 0.000187392 0)
(-5.4038e-05 -1.14779e-05 -4.82248e-21)
(-7.30029e-05 -0.0052824 2.27479e-21)
(-0.000281583 -5.35657e-05 -1.43973e-21)
(-0.000135707 -5.89614e-05 -1.2604e-22)
(0.0192572 -0.232394 -2.86759e-21)
(-4.10139e-05 2.93895e-06 -5.8453e-21)
(-0.00807898 -0.0057956 2.91505e-21)
(0.026598 -0.000874249 -1.06809e-23)
(0.115127 -0.063082 0)
(-0.0212196 0.000950731 -1.82549e-21)
(-0.00375365 0.00266633 0)
(0.00602437 -0.0495626 9.6677e-22)
(0.00334143 0.00253245 0)
(0.000943883 0.0901353 2.98387e-21)
(-0.00756438 -0.00462452 5.43752e-24)
(0.0179299 0.00183046 2.18717e-21)
(-0.164832 0.120503 0)
(-0.000117032 -7.29524e-05 1.98962e-21)
(-3.19209e-05 3.98848e-05 0)
(-5.17525e-05 9.15131e-05 0)
(0.0191449 0.00143939 -1.2409e-21)
(0.0498299 -0.0533887 -1.1303e-20)
(0.0428108 -0.0584453 -2.71352e-20)
(-4.21057e-05 -3.21151e-05 3.24101e-23)
(0.0206978 0.000203756 8.0395e-22)
(-1.5639e-05 -0.000129997 -3.86709e-22)
(-0.000320234 0.000277114 0)
(-0.109382 0.000996035 0)
(0.00211929 0.003844 -1.61595e-21)
(0.0554917 0.0782643 0)
(0.0373575 -0.0739374 2.04193e-20)
(0.0894621 0.110783 1.16579e-20)
(-4.07197e-05 1.04424e-06 8.48608e-21)
(-0.000209287 7.74144e-05 3.70451e-21)
(0.0224484 0.00433697 -5.49688e-23)
(-0.039428 -0.0710628 1.65339e-21)
(0.016475 0.0620629 -3.43584e-21)
(0.0166319 -0.00052967 -3.44234e-22)
(-2.52004e-05 3.34967e-07 -5.84011e-22)
(0.00914852 0.00830819 -1.65116e-22)
(0.0530233 -0.0449218 1.1083e-22)
(-0.00720666 -0.0134293 0)
(-4.37699e-05 3.6219e-06 0)
(-0.160382 0.113076 0)
(-0.114546 0.0971057 -8.63472e-21)
(0.0163049 0.000790028 -1.40969e-21)
(-0.0834499 0.116904 -2.75119e-20)
(-2.73228e-05 2.04179e-05 3.58549e-21)
(0.0264383 0.00745867 0)
(-0.000429819 -0.000589003 -3.05717e-22)
(-8.30131e-05 -0.000417511 -2.37904e-21)
(0.000204674 -0.000419543 -2.36543e-21)
(-0.00014338 -0.00111009 2.5209e-21)
(-1.47981e-05 -0.000197005 0)
(0.00888075 0.0373948 0)
(-0.0159956 -0.0926825 -3.09405e-22)
(-0.0109954 -0.140056 -4.58832e-20)
(0.0457106 -0.0307058 -3.44663e-21)
(0.000372869 -9.14714e-05 0)
(-0.000469791 -0.000982732 1.3598e-21)
(0.0834801 -0.0452097 2.18058e-21)
(-3.90681e-05 2.77292e-05 0)
(-0.122132 0.095647 -4.88967e-21)
(-5.49536e-05 5.2978e-05 -3.98715e-21)
(-0.00769958 -0.11526 1.14529e-22)
(-0.0106502 -0.0672039 0)
(-0.000940075 -0.0484099 1.9815e-21)
(0.0348523 -0.0574871 4.09721e-21)
(-0.00137684 0.000776197 1.24331e-21)
(-6.84568e-05 -7.67932e-05 -4.0189e-21)
(-1.02597e-05 -0.000160889 3.29034e-21)
(0.00034017 -0.000210439 0)
(-5.40962e-05 3.81363e-06 0)
(0.0965309 0.0313848 1.57987e-20)
(-0.000432996 -0.00110823 -2.04331e-21)
(0.00010213 -0.00102265 0)
(-9.97056e-06 -0.000174149 -2.25478e-21)
(0.00186407 0.0107977 -4.42443e-22)
(0.0084576 -0.172872 -2.36709e-23)
(-1.25151e-05 -0.000117743 2.73928e-21)
(-4.20538e-05 1.14179e-05 -1.96212e-21)
(0.0139546 0.00224727 -1.3293e-21)
(-2.9168e-05 -2.10406e-07 -5.01642e-21)
(-3.95956e-05 -1.79331e-06 0)
(-0.000322342 -0.000178427 -8.40885e-22)
(0.0340522 0.0738185 1.10941e-21)
(-6.78022e-05 -7.50853e-05 -2.0074e-21)
(0.016498 -0.0040104 -8.92207e-22)
(-2.63601e-05 1.72789e-05 1.10809e-21)
(-0.0053971 0.0108555 0)
(-0.110208 0.0731974 0)
(-0.00981927 -0.00125255 0)
(-4.84049e-05 3.78937e-06 -5.08605e-21)
(3.3253e-05 0.0002192 0)
(-0.000131758 -0.000465314 1.98539e-21)
(0.000535568 0.00378241 0)
(-0.00031615 0.101262 4.26986e-22)
(-0.000467724 -0.000504486 0)
(0.183637 -0.046227 -1.73164e-20)
(-0.000611349 0.00136313 0)
(0.112536 -0.0350581 7.83695e-21)
(-5.62026e-05 5.231e-05 8.00817e-21)
(0.00153563 0.00908758 4.87202e-21)
(0.0133933 -4.09466e-05 3.08784e-21)
(-0.00607957 0.0107571 -2.03688e-22)
(0.0485354 0.0678599 -3.67524e-22)
(0.011146 0.00333986 -5.97772e-22)
(-0.0205093 0.00991028 -2.24648e-21)
(0.00114522 0.00107525 -1.1869e-21)
(-0.000157134 0.000301229 -1.63827e-21)
(0.0677618 -0.00375648 -1.31832e-21)
(0.0146496 9.22074e-06 0)
(-0.000398161 -0.00108019 -1.8476e-21)
(0.0916197 0.0367366 -3.928e-21)
(-4.96457e-05 -2.9647e-05 2.7444e-21)
(-0.00902023 0.062588 0)
(-1.27086e-05 -0.00017289 1.18059e-21)
(-0.00027308 -9.53911e-05 3.4989e-23)
(0.0050934 -0.00543645 3.11096e-21)
(-0.00525237 -0.17308 -3.85821e-21)
(-2.8674e-05 6.45259e-06 2.88249e-22)
(-0.00336159 0.0100688 1.86691e-21)
(0.00693735 0.00701568 1.06675e-21)
(0.0728579 0.013655 -2.86063e-21)
(0.112112 -0.0372533 6.9873e-21)
(0.0191506 -0.00129199 0)
(-8.41958e-05 -4.90432e-05 0)
(0.0021967 -0.0604022 -8.6736e-22)
(0.0508945 -0.0681429 5.90657e-21)
(-3.78549e-05 -1.78572e-06 1.18341e-21)
(-0.000360477 -0.000691045 0)
(0.0147084 0.00153115 -7.3041e-22)
(0.138813 -0.0857506 9.884e-21)
(-0.000604507 -0.00132941 2.00212e-21)
(-0.000804389 0.0180173 2.53693e-21)
(-0.000342342 0.000323865 0)
(0.000229758 0.00477051 0)
(0.000134837 -0.00130471 0)
(-0.0162997 0.206985 6.36429e-22)
(-4.06521e-05 0.00026818 4.47487e-21)
(-4.40479e-05 -8.76959e-06 5.903e-21)
(1.52436e-06 -9.89501e-05 -1.27946e-21)
(-1.86105e-05 -4.13163e-05 0)
(7.05659e-05 0.0142713 4.51769e-21)
(0.0142894 -4.60829e-05 0)
(-9.12772e-05 -4.56435e-05 0)
(-3.29917e-05 4.52054e-05 -3.02398e-21)
(-0.0134855 -0.00973118 3.11366e-21)
(-0.152307 0.133237 -3.90253e-23)
(-9.77625e-05 -0.000284735 2.45362e-21)
(-0.00110944 -0.00165246 7.95068e-21)
(0.0217335 0.000402814 3.61652e-21)
(-8.88631e-06 0.000142092 -3.68052e-21)
(6.70928e-05 -0.00132774 -1.1666e-21)
(-6.47527e-05 -1.29034e-05 0)
(-3.9525e-05 3.60224e-05 0)
(-8.66759e-05 4.84843e-05 -1.15963e-21)
(-0.163644 0.139398 -3.99186e-21)
(0.0101719 -0.00119151 -1.37108e-21)
(-0.00317293 -0.0541125 0)
(1.574e-08 -8.70846e-05 5.17011e-21)
(0.00273215 -0.00216181 -5.44882e-21)
(0.000627954 -0.00468333 -2.03397e-21)
(-0.00505557 0.00459472 -1.08056e-21)
(-2.24225e-06 -6.32017e-05 0)
(-9.40059e-05 -3.10676e-05 2.85986e-23)
(0.0444044 -0.0271129 -6.23799e-23)
(-0.000118355 3.93348e-05 5.53362e-21)
(-4.22083e-05 9.9519e-05 0)
(0.0144721 -0.00263274 -4.63306e-22)
(-4.66687e-05 2.51607e-05 -2.72452e-21)
(-3.23051e-05 -1.61125e-05 1.32543e-22)
(0.0194328 0.00902617 -2.33304e-21)
(-4.73848e-05 6.1051e-06 2.66402e-21)
(-0.000479839 -0.00113978 0)
(-5.12746e-05 2.7305e-06 -6.90277e-22)
(-0.000794931 0.00183505 -1.859e-21)
(-0.000609082 -0.00126476 0)
(-0.00158307 -0.00137516 -3.23266e-21)
(-8.19828e-05 -6.14653e-05 2.34358e-21)
(0.000391908 -0.00441267 -6.49632e-22)
(-5.13047e-05 -2.9221e-07 3.84564e-22)
(0.0221189 0.000156151 -2.65331e-21)
(-0.0331333 -0.00393148 0)
(-3.19844e-05 -3.1206e-05 0)
(-0.171544 0.149576 -4.85041e-21)
(-0.00162824 0.000336134 -1.89083e-21)
(-5.04132e-05 -3.11538e-05 0)
(0.0127596 0.00309577 -1.18072e-21)
(0.0193904 -0.00125757 -1.15652e-21)
(0.0597648 -0.0907551 7.90311e-21)
(0.00828952 -0.000718211 0)
(-3.42623e-05 -4.99581e-05 -1.91974e-21)
(-7.35569e-05 -0.000275786 0)
(-6.80906e-05 -7.96777e-05 0)
(0.0139537 -0.0036708 2.77003e-21)
(-0.0215396 -0.166525 3.86874e-22)
(-0.0232644 0.0301168 0)
(-0.000605013 -0.00118177 1.77949e-21)
(0.00894091 0.028415 -6.78453e-22)
(0.000128998 -0.000104173 -2.03477e-21)
(0.0157789 -0.000843364 0)
(-0.000287427 -0.000106107 0)
(-3.86646e-05 -5.63554e-06 1.18816e-24)
(0.0120672 -0.0017565 0)
(0.00454974 -0.00963972 0)
(-0.0106089 -0.0525862 0)
(0.000262807 0.00106638 -9.9718e-21)
(-0.000755743 -0.000562545 0)
(-5.91422e-05 -4.04152e-06 -2.12736e-23)
(-2.88175e-05 2.32069e-05 -8.1131e-21)
(0.0149781 0.00969919 -1.75833e-21)
(-0.0276783 -0.0348337 0)
(0.000114406 -0.00125827 0)
(0.0109544 0.0237652 -1.78126e-21)
(0.000238687 -0.000469727 2.45345e-21)
(0.0183777 -0.00181906 0)
(0.0138079 0.00267684 -5.87497e-22)
(-0.0244359 -0.000471639 -3.41738e-23)
(0.0337313 -0.038295 5.09201e-21)
(-0.0175296 -0.159424 3.7923e-21)
(-0.00166601 -0.000588228 -5.01156e-22)
(0.000891024 0.00850028 1.57044e-21)
(-3.41932e-05 3.71519e-05 3.70453e-23)
(-0.0192604 -0.154094 -6.351e-21)
(-0.000631805 0.00225114 0)
(-0.0318365 -0.00149497 0)
(-0.115061 -0.157268 -1.82011e-20)
(0.0114203 0.0699176 -3.40092e-21)
(-5.68983e-05 6.65355e-05 3.39004e-21)
(0.01025 0.035758 5.69311e-22)
(0.00107488 -0.0102964 2.05572e-21)
(-5.54848e-05 -2.76133e-05 -2.40917e-21)
(-2.52949e-05 -3.44229e-07 2.06965e-24)
(-0.0188321 0.00721027 3.39656e-21)
(-4.19679e-05 1.38631e-05 -2.01098e-21)
(-0.00755259 -0.0162508 -3.40956e-21)
(-3.67018e-05 -1.02267e-05 0)
(0.000530882 0.00157715 -2.34441e-21)
(0.00905699 -0.143679 -2.169e-21)
(-6.32146e-05 -1.10039e-05 2.19134e-21)
(0.000999289 0.00383678 0)
(-0.00025371 -0.00384368 -2.73616e-22)
(-0.00909754 0.000691832 0)
(-3.82942e-06 4.00128e-05 1.90003e-21)
(0.000344916 -0.00390069 2.51611e-21)
(-4.71562e-05 -9.9262e-07 -8.05163e-21)
(-3.54045e-05 -1.3817e-05 -2.78558e-21)
(-0.000343548 0.000248623 3.21906e-21)
(0.00281765 -0.0042457 0)
(-4.18268e-05 9.37659e-05 0)
(-4.74805e-05 -2.07074e-05 7.54757e-22)
(-6.56728e-05 -2.38327e-05 -4.54319e-21)
(0.0157512 -0.0877907 0)
(-2.52821e-05 1.38707e-05 3.31603e-21)
(0.0146151 -7.1262e-05 7.96644e-22)
(-0.0142 0.00180949 0)
(-0.00443328 -0.0174739 -5.27948e-21)
(-0.00809477 0.00076996 7.60901e-21)
(-0.00154718 0.00298586 -2.13414e-23)
(-3.27048e-05 -5.30018e-05 6.83427e-21)
(0.00115876 0.00130575 -1.73613e-21)
(-3.87417e-05 3.03947e-05 0)
(-9.19159e-05 -0.000152434 0)
(-3.84435e-05 4.74242e-05 1.16937e-21)
(0.0103861 0.0162028 4.25319e-21)
(-6.43391e-05 -2.97265e-05 7.68907e-21)
(-0.000200498 0.000260741 4.21543e-21)
(-0.000193327 0.000257847 -4.98949e-22)
(0.0433496 0.0401026 5.39807e-21)
(0.0161901 -0.000881356 0)
(-3.61579e-05 0.000158985 1.98566e-21)
(-0.000907329 -0.000268579 0)
(-5.48242e-05 9.62302e-05 -1.34681e-21)
(-0.0526956 -0.0449475 2.92713e-23)
(-0.000440752 -0.000489564 0)
(0.00805421 0.0657203 4.09148e-21)
(-0.00926392 -0.00421167 2.77082e-23)
(0.00844135 0.00868891 0)
(-0.00824539 0.0131093 0)
(-8.06156e-05 4.69631e-05 0)
(-6.35686e-05 -0.000132243 0)
(-3.34637e-05 -2.3568e-06 0)
(0.0108379 0.0736496 7.06729e-22)
(-7.19407e-05 -0.000130403 3.33177e-21)
(-0.000932234 -4.2139e-05 -6.74229e-22)
(-0.0101782 0.0115272 2.71698e-21)
(0.011143 0.00378928 2.69301e-21)
(0.0262834 -0.0722042 -9.87174e-21)
(0.000742556 0.00341776 -2.66006e-21)
(0.0140849 -0.00784736 3.70322e-21)
(-0.000397733 -0.00105947 -3.68163e-24)
(-2.7898e-05 -5.32534e-07 -4.48084e-21)
(0.028366 0.0715458 3.65879e-21)
(-0.00044424 -0.000456448 0)
(-0.0100296 0.184294 4.94378e-21)
(-0.0332127 -0.116908 0)
(-3.78064e-05 -1.32288e-06 0)
(-0.010649 0.0121658 0)
(-4.332e-05 1.99586e-05 -1.48342e-22)
(0.0343358 0.119862 1.86094e-21)
(-6.16409e-05 6.8718e-05 0)
(0.0475823 0.109806 -4.03669e-22)
(0.0214647 0.000207729 0)
(0.0278002 -0.0268805 0)
(-0.0126483 0.00234569 1.03927e-20)
(-0.00508922 0.000391591 0)
(-2.4894e-05 1.35242e-05 0)
(-1.01134e-05 -5.95379e-05 0)
(0.0175234 -0.002196 -1.06518e-21)
(0.0346458 -0.0131127 0)
(0.01765 0.00175691 1.13823e-21)
(-0.000724877 -0.00146513 -5.31426e-21)
(-0.000160961 0.000166532 0)
(-0.000849143 -0.000183547 -7.33532e-22)
(0.00718361 0.0072104 0)
(-0.000167728 0.000151558 0)
(-4.08329e-05 4.38634e-05 0)
(-0.0181342 0.00105373 0)
(-0.000310764 -0.00101574 -2.11566e-21)