/*--------------------------------*- C++ -*----------------------------------*\
| =========                 |                                                 |
| \\      /  F ield         | OpenFOAM: The Open Source CFD Toolbox           |
|  \\    /   O peration     | Version:  v2012                                 |
|   \\  /    A nd           | Website:  www.openfoam.com                      |
|    \\/     M anipulation  |                                                 |
\*---------------------------------------------------------------------------*/
FoamFile
{
    version     2.0;
    format      ascii;
    class       volScalarField;
    location    "200";
    object      omega;
}
// * * * * * * * * * * * * * * * * * * * * * * * * * * * * * * * * * * * * * //

dimensions      [0 0 -1 0 0 0 0];


internalField   nonuniform List<scalar> 
37190
(
0.0273433
0.0240016
0.0243432
0.024044
0.806307
0.0245453
0.0316615
0.0688378
0.0228247
8.03031
26.9938
2.5061
0.203047
0.0254448
7.66416
0.36377
0.0243478
0.186024
0.0234869
0.0257686
0.0291527
0.373231
0.0243118
2.32773
0.808835
0.0249548
3.35542
0.0270292
8.11714
0.0246681
0.0795619
0.025615
0.0273781
0.0826335
0.0279419
0.542607
3.38441
0.974673
0.0234754
0.0268451
1.43128
0.022301
0.352663
0.0255278
3.36915
0.792867
3.34428
2.46646
0.022463
0.029875
0.0244958
0.0220868
0.0247558
0.0318695
0.0251053
0.0805539
0.0220917
0.025586
0.0977788
0.0799362
0.066919
5.09843
0.0293424
0.025037
3.86744
2.07365
0.309496
2.86168
3.00633
2.94756
0.023466
0.0869879
0.0282045
0.0243017
0.0244832
0.119288
1.89796
3.70152
0.0272919
3.88133
3.30181
0.0240603
2.95538
0.0244707
10.3621
0.0380339
3.36111
0.779364
0.0323132
0.880314
0.0235236
8.34729
0.0275118
0.0241526
0.0515818
0.339715
0.0258405
2.05171
1.34012
0.0244487
1.88958
0.0794181
0.024809
0.0222996
11.4106
0.0242294
0.025086
9.03327
4.70254
0.0246965
0.856072
0.0249456
0.0240506
0.0249391
0.0831171
0.0240443
3.2564
3.26685
0.0291056
0.0261201
0.0902451
3.67866
0.024768
0.0246681
7.78506
0.0298551
5.78576
0.0247808
10.4025
1.85951
3.36571
0.0248915
0.0242664
0.585058
0.0244522
0.234222
0.0250467
0.23802
1.90038
0.789933
2.88021
0.0866977
0.0578454
0.296156
0.026041
0.0235262
0.0261312
0.0271556
0.0234608
2.98497
0.0250915
0.0235703
0.0222351
0.0364613
4.66377
0.0242639
2.9938
0.0249244
0.0420885
3.64548
0.0256975
0.0281632
0.0263827
0.027426
2.87817
0.0262277
7.85146
7.55373
0.0291935
3.12484
7.88871
0.0228148
0.107147
0.0234701
7.78441
20.053
0.146184
0.0523944
0.0249051
7.26691
0.0364559
0.0774929
0.883741
2.57113
0.0298807
7.76793
0.0250168
9.17585
2.11865
0.0429661
0.0233912
0.230617
0.0761038
0.0248832
0.0233459
2.98781
3.20186
1.99497
2.84176
0.0251124
0.024397
0.0787515
0.0249473
0.0244533
1.01096
0.417498
0.0240323
0.0246513
7.95964
0.0425776
0.024941
0.0239937
1.07937
0.0253142
3.8304
0.0260592
0.024164
0.0249875
17.3935
0.0240387
0.0271352
0.0239973
2.13501
32.2194
2.85246
2.03026
0.354195
3.04119
0.0248615
4.81122
7.26778
0.0249014
0.0222271
0.0244515
0.0239898
0.0280915
2.82382
0.0222049
0.0249641
0.0564343
0.0232867
11.038
0.0317043
0.0223496
8.68407
6.9593
0.0241961
0.038633
9.10722
0.0258241
0.026551
0.0287822
0.0588461
0.0262259
0.0232399
0.0271407
0.0233039
0.0245304
0.0519768
0.0221692
1.07235
7.59454
0.035859
0.0220839
0.305144
0.0275991
0.0244132
0.0730187
0.0233375
0.055535
0.0337832
0.0248654
0.77694
10.0175
0.0808506
7.65108
0.0523583
0.025043
9.8869
0.0224079
0.0233825
0.0687591
0.0273011
0.0222085
2.76486
0.0239941
0.024612
0.0511872
0.791022
0.0282839
0.028237
0.0253544
0.06217
3.00765
0.0225919
8.99381
0.0234658
0.0262601
5.64939
0.0235596
0.065015
0.962886
0.29773
2.99266
0.0264219
0.031123
1.81785
0.0244986
3.40177
2.72441
3.35777
3.2459
4.58388
0.457026
0.0341709
0.036997
0.0245553
0.0252173
2.87065
0.0250417
3.28199
3.37776
0.0245911
0.0345478
2.02241
0.437057
0.0296506
2.86172
9.98169
0.0233527
0.537531
2.7561
2.08388
3.87585
0.0247543
0.0233948
0.0244082
0.0249086
0.0242387
0.0246394
0.339768
0.0242751
3.38564
0.0247388
5.13352
0.0426649
3.81349
0.0229731
0.327299
3.01201
0.196113
0.0400951
0.0264358
0.0220793
1.74375
0.189328
0.0235355
0.022951
3.37319
2.28295
3.34342
4.616
0.602877
3.44319
3.51606
2.60467
0.0249284
2.1531
0.0225858
4.69459
0.0247365
0.346842
0.234663
4.04261
0.0245033
0.0223066
2.87253
4.35825
1.71268
0.15822
0.025003
32.4469
0.0245351
1.03791
0.198425
17.4525
0.0238128
0.0228649
0.0230681
0.116693
0.24568
2.07921
0.025831
0.0224512
3.34774
0.163043
9.19464
3.2116
26.9817
0.0228926
6.20286
2.59486
0.0225931
7.89672
3.82816
0.023081
2.50508
2.9967
3.64164
0.0234564
0.0249026
0.0263362
0.0252874
11.3968
0.0421964
3.14018
0.0396498
0.0258262
32.6883
0.0245391
0.0227711
0.341062
0.252512
0.0338465
0.0246995
0.0221722
0.0228519
0.0250251
5.01001
9.44961
0.0221758
0.0235046
0.0235125
0.127956
3.25607
0.0248643
0.0315132
0.0251982
0.03173
2.72279
0.0251391
0.0246269
3.73155
0.0411288
6.41826
37.3979
2.77434
0.0822171
0.0282305
0.0269759
9.18199
0.779922
0.0502176
0.0265852
3.59641
1.95748
0.02328
0.0247016
0.0230534
4.91166
0.0225294
0.065552
2.74821
0.024828
0.0671418
0.0230195
0.866024
0.0578015
0.0242179
0.689436
0.0246047
0.0247537
0.76907
0.0255424
0.187014
0.572424
0.0248604
0.0676561
0.0247026
0.0992419
3.41464
0.0247972
0.0230938
0.1828
0.0551357
0.0431103
3.17783
0.0261528
2.93377
0.024218
0.295389
2.58732
0.0528867
0.0230499
0.0500818
0.0269734
0.0262653
0.160805
0.0246112
1.80627
0.316241
0.537348
2.90457
2.16379
0.0248639
0.0251018
0.0247972
0.0265323
0.0262287
0.0249383
0.706461
0.0234859
0.0242229
0.0734755
7.52806
0.0569747
18.4855
0.0247867
0.0246801
1.76297
0.0264859
3.32666
0.0418334
0.031933
0.0246382
0.308756
0.0389668
1.50155
0.0283041
0.0246998
0.0230478
0.0722929
0.026461
0.0246165
0.862039
0.0239941
0.0377783
0.68166
0.34102
0.207294
0.0279818
0.0739515
0.0363487
6.56772
0.044086
4.10029
2.41013
0.0245507
0.0237644
0.0228248
4.26819
0.297748
0.357521
0.0220846
26.9321
0.0246851
0.0273419
4.51882
0.0291862
1.53375
0.370715
3.91898
0.0239923
0.0248807
0.24543
0.582451
3.01862
3.25456
0.0241702
3.04963
0.273444
0.0607034
0.0254915
2.43547
2.99397
3.23258
2.78148
0.023386
0.0727013
0.029734
0.0233627
0.0265361
0.0273299
0.0248683
8.64933
0.301283
0.399112
0.27665
0.0270017
0.05048
0.187545
0.0231598
3.10609
0.023882
0.295743
1.53689
0.066814
2.48853
0.0269662
0.024365
0.0247579
0.0268458
0.0249367
2.13581
0.0421878
0.0566893
0.0233726
3.00462
0.507389
0.0246592
0.0231853
4.35685
0.026007
0.0250173
0.0268785
2.93761
0.024355
0.686712
0.0233862
0.863004
2.78773
0.0360276
0.0235569
0.026485
0.0234127
0.0287871
3.03821
0.0294408
1.49477
0.0251217
2.14871
0.0238912
0.219371
35.2583
0.683613
1.52709
3.63997
0.0476518
0.0251198
0.023808
2.61165
33.2075
0.0426376
0.512061
0.0242275
4.79638
0.0247917
0.0226405
0.0385324
1.90693
0.022284
0.0543696
3.20078
2.56582
2.14579
3.22494
0.0241446
0.399798
2.1152
0.0251318
0.0263758
3.3225
1.44217
0.0437138
3.18237
0.0276075
0.0277498
0.0278108
0.974166
0.026598
0.0248147
0.0235881
0.0245377
2.57785
32.6368
0.0241655
0.023775
0.113206
1.96281
0.0254804
0.0263745
9.52723
0.024078
0.0546657
0.0247137
0.0234577
0.0252008
2.06433
0.13929
0.098997
0.0235665
0.0269855
0.0724885
7.82476
0.024596
0.0241591
0.287688
0.0245252
0.0228052
0.162539
0.0235268
0.0221594
0.705957
0.0235305
0.0418624
0.0223043
0.024609
0.0533439
0.0758356
0.0241532
0.0695787
0.0223042
3.85
0.0641251
0.0232753
2.15189
0.0249681
0.0242294
3.7583
3.25911
2.80032
0.0415726
0.0233213
0.0253427
0.0223264
0.158979
0.518756
5.96849
0.0411239
8.74093
0.0235405
3.33883
0.0265241
0.0244981
0.147112
0.0322045
0.0904307
0.0252292
0.0322923
0.022413
0.0233995
0.0540187
0.297783
0.0551763
3.92381
0.0266894
3.4534
3.91547
7.1041
0.185516
0.377217
0.0244961
0.0300925
0.0234333
0.37712
0.025034
0.0622223
1.29172
5.5694
0.0241994
2.78346
0.0406031
0.0239205
0.0253719
0.137018
0.0231881
0.0782837
0.0225386
0.0266664
1.80186
0.0247002
0.0287847
0.027107
0.0316177
0.0229529
0.0662986
0.0256699
0.0236194
0.0273653
0.0842129
0.0227881
0.0223431
0.0247246
0.150848
0.0233738
3.78045
0.0362676
0.111957
0.0308937
0.037504
0.0233316
0.025227
0.0231631
0.0249029
0.0225705
0.0425633
0.0247251
0.0250209
0.0238079
0.321924
0.188595
0.0241161
0.0253674
0.0228423
1.04474
0.029048
2.9275
0.0636815
2.94422
0.115072
0.0240737
0.0248953
0.0250315
6.00926
0.0249301
0.0263176
0.1198
0.0320877
2.2002
0.0269082
0.0388731
0.0426382
0.0261325
3.3323
0.0289207
5.42025
0.790876
0.0252155
0.0368544
0.022292
2.86796
0.0242203
0.992571
3.4411
1.9157
0.0350599
0.0277899
0.0233711
0.0245716
3.37944
0.6158
4.18458
0.0261112
0.0261958
0.025281
3.39772
0.0261871
0.0234953
8.18548
0.0372996
0.0786997
0.025028
0.0277832
0.0347973
0.0240901
0.0247638
1.85416
0.0262714
0.438908
0.463334
3.42764
0.0813779
0.0376095
0.0315378
0.0307378
4.00553
3.28612
9.35252
0.680287
0.0234897
0.900433
0.0245052
0.0309294
0.0237559
1.82715
0.361424
0.413262
4.63395
0.0256348
0.357406
0.415726
8.77399
0.142654
0.050911
0.313631
0.0233867
3.06267
0.351245
7.24218
0.0258815
0.0348431
0.0246548
0.630219
0.0221468
0.0235254
0.0248753
0.0246435
0.0235266
0.0253958
0.0245291
0.0248822
0.0245548
0.0322918
0.632223
0.0244874
0.0235694
2.68581
0.0365119
0.0235254
0.025305
0.0239288
2.30003
5.57248
0.0252132
0.026604
0.0579078
0.0245672
0.03228
0.152102
0.0259916
2.12895
0.028349
3.00602
3.63372
0.0244519
0.0228437
0.0244149
3.70153
3.99754
0.0235646
0.0255092
3.1714
0.0230948
3.44872
0.0321007
0.643193
0.0514832
0.0230936
3.45507
0.023457
3.36828
0.172282
0.0662519
0.0274845
0.0316218
0.0768271
0.026085
7.5267
0.0227032
0.0321237
8.22395
0.0389789
0.0808024
0.661065
0.0325953
0.0227345
0.0228828
2.34434
0.0319585
0.0227229
0.0295423
0.029876
2.76643
3.33677
0.0249519
3.51128
0.048155
2.60401
0.0262731
20.7843
0.0642971
0.606159
0.606085
0.143086
0.0227278
0.023479
0.210917
0.0234658
0.0265755
0.0254282
0.0248677
0.0271139
0.0542888
0.0228907
0.0797783
2.01319
0.0234034
0.209732
0.0227327
0.0233769
6.75387
0.790468
3.96351
7.70244
0.0313287
0.0438194
0.0426114
0.0228525
0.149511
0.978287
0.0246422
3.36463
0.0237665
0.0245665
0.0264432
0.0233574
0.208265
0.400141
0.0241351
6.47856
0.0230104
2.68966
3.29655
2.82694
3.28387
0.466481
0.0293906
0.0266201
0.0393123
0.0253934
0.0244985
0.0729195
0.025086
3.67506
0.0229987
0.0245287
0.0242244
0.0237221
0.97799
0.0239707
0.0359337
34.6218
0.024666
0.0780503
0.023349
0.0225237
0.0251602
2.13921
0.176619
0.0239991
0.0246922
2.69435
0.0241806
3.01432
0.17919
0.0246367
0.379966
0.0261687
0.023605
0.0238714
0.0226993
0.781618
0.0399122
0.0288584
0.0428231
0.0387968
3.16022
0.0227552
0.388156
0.0246066
0.027229
0.0250519
0.0325762
0.0248282
1.7876
0.387977
1.30086
0.0225621
0.0875948
0.0249696
3.23338
0.0966145
0.0246327
0.0262944
0.0856576
0.0243211
6.63126
0.176869
0.0234001
0.0252435
0.0252577
0.024253
0.026068
0.0240611
0.0260396
0.0244807
0.0256081
0.0260098
0.0233511
0.0533513
0.0241856
24.2103
0.0237005
0.0248408
0.387788
0.0246347
0.0263702
0.0246296
0.0253354
0.0245656
0.0240672
0.0264358
0.150729
2.55639
0.0234229
0.844847
2.95254
0.945948
0.0233088
2.87303
0.0254752
4.08068
0.757075
0.15612
0.0318576
3.84358
6.26348
0.0318135
0.0301803
0.0266899
0.192827
0.0223684
0.0687451
4.34496
0.349404
0.0237693
0.023166
0.0238621
0.0609377
2.59192
3.2121
3.62659
2.99162
0.0231638
6.72971
0.353565
0.346443
0.0529092
0.0472301
0.0237413
0.0259408
3.32734
4.8304
0.0264088
0.0243121
0.0449171
0.0233483
7.37574
0.026077
0.0243304
0.0346337
0.0636656
0.0229466
0.134521
0.0925815
1.32535
0.0229345
26.2364
0.023301
3.28524
1.00461
0.219136
0.0242144
0.304863
0.0238754
0.024211
0.08241
3.82803
0.0227827
0.0262953
0.3085
0.0313917
0.0261439
0.0224028
0.126404
2.98131
3.0938
0.153741
4.05039
20.8501
0.0311936
2.33325
0.0257037
0.0241285
1.47968
2.82412
1.23842
0.0235238
0.0356856
3.9559
2.01672
0.0876922
0.071475
0.184651
0.0357305
0.0269716
0.0363019
1.43678
0.0239539
0.0384013
0.0246242
3.21027
2.59231
0.02211
0.0243037
0.0352409
0.352911
0.0231182
0.0245527
0.0246714
1.6968
2.89152
0.081304
2.66515
0.0249001
0.0232884
0.0288425
0.0241301
0.464259
9.53352
0.079925
0.336103
0.0246617
0.0406661
0.0232691
0.0234059
0.02393
0.0237511
0.0297414
3.17721
0.0251936
0.0292916
0.38179
0.040243
12.061
1.00412
0.0227312
0.0239717
0.0758958
0.022904
0.337297
0.0227611
0.0235019
0.0227684
0.0967166
0.0228924
0.0266138
2.05237
0.13119
1.74699
0.0246614
0.0264001
0.0236641
0.0238228
0.0232197
1.93822
0.0393915
0.0263063
1.0817
0.0282848
0.0244996
0.314674
0.173528
0.0232185
0.0270347
3.27252
0.0369289
0.0924291
0.0244787
3.28258
0.0233789
0.0246718
0.0588372
0.0242314
0.806227
0.0823845
0.0222191
0.023109
2.73893
10.1203
0.0239825
0.0239776
0.0257209
0.0227503
0.0221344
0.0233725
0.0294547
0.391677
1.12151
0.023983
0.0227506
0.0252711
0.170688
0.339405
0.0240968
0.0319974
1.9403
3.38976
0.0252338
5.18783
0.022719
0.0384993
0.0747314
0.0907284
0.025722
0.0241254
0.0220903
11.3029
0.0687063
0.0262223
0.0257069
0.0586788
0.0265832
0.0243916
0.0225604
0.330135
0.0247646
0.0794366
0.173163
0.022981
0.024226
3.07552
0.0500608
0.0234276
20.8039
0.0242141
0.0618734
0.0233587
0.0676472
0.342293
0.0253254
0.23523
1.43742
0.0246336
0.0243629
0.0244818
0.0369618
0.0353074
3.27562
0.0234232
0.0680122
0.0269997
0.0838694
0.0249252
0.13082
0.0228298
0.435537
0.0261297
0.0245514
3.67875
0.0348656
0.0243079
0.0228409
0.0264793
0.350955
0.0375447
0.0251326
0.0242528
0.0243333
0.0337277
10.0958
0.032663
3.28504
0.0249931
0.0523986
0.0233457
1.53757
0.0224082
0.348195
0.0304077
0.0250284
5.2231
3.16919
0.0244664
0.168164
0.0236826
8.37666
3.92084
0.0229419
2.9077
0.0230316
0.0264169
0.196249
0.1069
0.346338
2.668
0.0225085
1.22683
0.0242449
0.0242572
2.72348
3.78787
0.0225642
0.0499235
0.0248759
0.0358171
0.0245258
0.0397259
0.0236578
0.0489083
0.0245562
0.0241771
0.0490594
0.0254839
0.0705725
1.67247
0.35671
0.0244793
0.0237663
0.0702478
0.0688258
0.818041
0.023657
3.06314
0.0248322
0.0231504
9.45201
0.0240479
1.18124
0.0224786
0.0278789
4.68551
0.0231357
0.0237811
0.0240697
0.0251659
0.0250838
2.09782
0.0256246
1.42547
0.243095
0.0279858
17.7904
25.336
0.0237396
0.0246433
11.778
4.20343
0.0262962
0.0254903
0.622965
3.09205
0.0242523
0.0374957
0.0224257
0.0243253
0.878537
2.8482
0.0579522
0.756486
0.0253725
0.0255516
0.320511
0.16696
0.0222931
1.72041
0.0415103
0.0536591
11.273
0.0233048
0.200852
0.0242926
0.0250263
0.023086
0.0385432
0.0354735
0.0465888
0.0261241
0.0265425
0.0514984
1.47196
0.0245262
8.9217
0.326324
1.56166
0.0227724
0.0229736
2.94384
0.024237
0.31821
0.0248077
0.0702586
0.767301
0.0245137
0.621085
0.024169
1.83316
0.0500885
0.114219
1.51931
0.0250195
0.0248613
9.15107
0.0245983
0.533555
0.0397354
0.206318
0.106395
0.0251718
0.083912
0.0262362
0.029533
0.035125
21.7858
0.0236158
0.0233022
5.97791
3.52076
0.0456266
3.69698
0.0261255
0.0234664
2.63919
0.0443945
1.53556
0.336377
2.49451
0.0255584
0.0345138
0.0250908
3.12221
0.0262249
0.303894
0.0229097
0.023499
0.0251146
3.7893
0.528278
0.0372398
0.0317887
0.0280689
0.0222897
0.0749249
0.0222124
3.38773
2.88318
2.72139
0.0222267
0.0263726
2.77484
0.0322881
1.88632
0.0226418
0.022916
0.0867854
3.0987
0.0258996
3.59675
2.10411
0.0256704
1.58172
0.142212
0.0272164
0.0246315
0.514553
0.333201
0.0231087
0.0416134
3.18589
0.0234947
1.52901
0.051312
3.47727
2.97414
0.025258
0.024155
0.0228005
0.0227898
9.00485
0.0257684
0.0234355
2.02731
0.0238895
0.0422908
0.02571
0.20492
0.0475146
0.081581
0.0234573
0.028024
0.115739
0.0432697
0.0248466
0.024175
0.0405876
1.48659
0.0242437
0.123952
3.40856
2.62259
0.310772
0.0237714
0.0281464
13.4292
3.00407
0.0247794
0.0245406
8.68909
0.387364
1.92919
0.0268401
0.349055
1.53315
0.0238972
1.42217
0.122899
0.0251707
0.0244965
0.0229082
11.8895
0.0242398
8.71295
0.199757
3.6384
0.206141
4.42715
2.51525
2.50704
3.73147
0.0242199
6.39829
0.0868101
0.0246658
0.0399636
0.0390433
0.130727
2.09338
0.0240578
0.0255535
0.02386
0.337528
0.0234638
0.0232842
0.0253249
0.0269756
0.0261415
1.52998
0.0466099
0.022506
0.0274292
0.0270017
0.077069
0.0253002
0.133477
0.0261647
3.42486
3.00773
0.0234252
2.60082
0.206368
2.98394
3.49904
0.026829
10.2542
0.0241784
0.388137
2.96636
0.0242256
0.0238825
0.0245119
0.0240562
0.0270639
0.0307388
0.0241074
0.426124
0.024978
2.40669
0.0271614
2.36416
0.0232762
0.0240728
0.236824
0.0238837
0.0244584
0.024276
0.0576573
0.0274557
0.0250441
0.0273329
0.0238337
0.0571172
0.0231021
0.779427
0.0244888
0.0352453
2.48772
0.0249923
0.112
0.0748775
0.0241899
4.19799
0.0234035
2.79687
1.80496
31.8285
0.0550359
0.0235563
0.0822079
0.0916673
0.0246305
0.0319984
0.0359656
0.0376217
0.0267885
0.023771
0.311448
19.899
0.0246527
2.93113
0.781354
0.0232876
0.0237769
0.0227371
0.0804328
0.389978
0.234807
0.0240077
0.0235501
0.292084
0.0361098
1.80821
5.1969
0.0241949
0.0253901
0.0233086
1.54567
2.14771
0.0231483
0.0325509
0.341645
2.68447
0.031367
0.027611
0.0225347
0.0248731
3.15719
0.660056
0.0241917
3.07357
0.023632
0.540649
1.42964
0.0355838
0.19922
0.350861
0.024802
0.462667
0.0364542
3.06119
25.8338
0.0232887
2.91368
3.19745
0.200932
0.752851
0.0277565
4.07179
1.7098
0.0325562
0.0229775
0.287684
0.0966454
0.515079
0.0688163
0.0250207
0.523395
0.0241753
2.70304
2.72289
0.0862997
0.0277022
0.025008
0.0242518
9.00516
0.0233954
4.40291
13.9399
0.0518302
0.0240888
9.68793
0.0239716
0.0505591
2.58198
0.517644
0.025464
0.0246687
0.0247559
0.0242831
0.0416939
0.0242869
0.0412022
0.0321298
0.0246512
0.0224355
0.116941
0.747259
0.0233938
0.0233631
0.0242453
0.0253831
0.0273034
1.4094
3.29474
3.01788
14.4442
0.0242479
0.0239959
0.0489753
0.0480645
0.0233753
0.0803412
7.40016
9.53602
0.124308
0.203038
0.0535035
0.0318345
3.04823
0.0236375
0.29153
0.151067
0.0226564
0.508594
0.0256233
0.0739593
3.22036
0.0608116
0.03116
13.1488
0.0241209
0.0239033
0.0223954
0.0289604
0.0240984
0.0249422
0.0242239
2.79874
0.0289331
0.0243523
0.0316042
0.0261453
0.46026
1.50713
1.73482
0.0245304
0.0233251
2.96961
0.0855599
0.480801
0.0241771
0.0263749
0.0243771
0.0253385
10.8172
0.0282712
0.0237067
0.0242195
0.111779
0.0236955
0.0367163
0.0234369
0.0233907
0.0253448
0.099975
0.0513664
0.028824
0.0234405
0.973186
0.0434119
8.41404
2.91049
0.0249357
0.735395
0.157727
0.0468675
3.64392
0.0255341
0.488247
0.0251774
0.0489145
2.59316
0.023282
0.0241572
2.84993
0.0223871
0.796119
3.63775
0.0234841
0.0621051
0.0229696
0.0241833
2.85225
0.0228618
0.0234148
0.0233437
0.0225899
0.029769
0.0240814
2.69042
0.0233561
1.73509
9.89696
0.0251778
0.0238935
0.0235026
0.0233609
0.0261972
7.70943
0.0229444
0.059095
0.0286992
2.74558
3.29345
0.0254585
0.0336671
0.0424031
0.0224374
0.0231446
0.432832
0.0222898
0.0225343
2.97393
2.97854
2.58868
0.0246139
3.00203
0.451913
0.0224825
0.0404102
0.0243885
0.0243561
0.0226467
0.0240642
2.71092
0.024351
0.0241621
0.317835
0.0259073
7.24711
0.0260317
0.0247363
1.5036
0.0231373
9.61349
0.0227351
0.0254111
2.88658
0.0242272
0.0232936
0.024101
4.34028
0.404561
0.0246574
0.0242228
0.0226811
0.0296404
0.52917
0.130244
0.0246387
12.5102
0.175093
0.0241526
1.47064
0.0224278
0.958774
0.30143
0.0225823
0.0280802
2.64769
0.0318113
9.30898
0.0481213
0.0390297
10.6761
0.026994
2.10717
0.0237968
0.985004
0.024444
3.85815
0.0252559
0.0279823
0.032309
0.0233305
7.74993
0.455368
8.30199
0.200894
0.0230489
2.86515
0.0223614
0.0239683
3.61898
0.0228253
2.97569
2.98944
0.0224725
0.0266652
0.0419905
0.143333
0.0233018
0.0767781
0.0366343
0.585259
2.68596
0.0245398
0.0242602
0.0239562
0.0223694
3.22279
0.0750788
0.285911
0.0234592
27.6433
3.05224
0.0222643
0.0226922
12.0004
0.821537
3.58619
0.236478
10.5696
0.208754
0.0589572
0.0329843
0.399364
3.52091
0.0255676
0.0294376
0.0237666
0.0267637
0.16796
1.54703
0.0252554
0.156766
0.328436
0.0237172
0.0249518
0.0251194
0.0265351
0.0240653
0.246924
0.550319
5.35409
0.0229048
0.823247
0.0345393
0.12322
0.0775979
0.0643446
9.22637
0.0234444
0.0243427
0.198225
0.0230368
2.22901
0.0512534
0.0244782
0.0223459
1.98056
0.02421
0.0250881
0.0234609
0.0288467
0.0490397
0.0359604
0.0266609
0.0241479
0.0245128
0.439924
0.0232835
0.391755
0.024249
0.0242674
0.0224015
2.91459
0.266285
4.47749
0.0263294
0.0275598
0.0254738
2.75263
0.208355
0.024161
3.68224
0.0244679
0.0232282
0.0430395
1.71695
0.351338
2.60499
0.0868259
0.0764921
0.0239645
0.0249234
0.228117
7.99714
0.0421233
0.0221347
0.293148
3.12024
0.0234189
0.0231729
10.082
0.0253688
1.811
0.15701
3.15117
0.0229904
0.0263619
0.0239632
3.23235
0.0252687
0.0230608
0.026767
2.81025
1.2619
2.57953
5.80525
0.0253915
0.0232224
0.0238548
3.22564
0.0234357
0.0251614
0.0321899
0.0233965
2.10531
0.0241364
0.0228372
0.0230251
0.038421
0.0245087
0.136256
0.0244392
0.0243423
1.98421
0.0241474
0.187048
8.94753
0.0733285
0.0252567
2.20778
0.356091
0.0246393
2.34418
0.0226225
0.199104
0.116949
0.979885
0.0841222
0.0630567
0.11198
0.0237672
0.0223753
0.0246098
0.0230136
0.0344668
8.67509
0.0374606
1.48395
0.0223065
3.373
1.14974
0.0248842
0.125869
0.0234017
0.10064
0.0249212
3.22085
0.0223385
9.33127
0.0228417
0.0239774
0.0338298
7.73333
0.796488
0.024382
4.29208
4.53788
0.0228803
0.321197
0.0366245
0.043346
0.452101
0.0240836
1.85077
0.0239816
0.0241105
3.08164
0.0343412
0.0227979
0.0239616
0.0231617
0.0230941
0.0251316
6.68791
0.640212
0.815335
0.0237742
0.0244497
0.0768119
6.19279
4.31322
1.75953
0.496623
0.0251362
0.0235074
0.0236558
0.0283362
0.0245406
0.0228879
1.00393
3.98032
3.39538
0.0243505
0.0239014
0.849182
0.023766
0.0237738
0.0244706
0.0261275
0.177276
3.49731
0.0241154
0.023086
0.0352034
0.0242555
2.95062
0.0301747
0.345415
0.0248937
0.0523416
0.0240416
0.0226135
0.133496
0.0260954
1.92708
0.0233938
0.33969
0.0252515
3.15887
0.0236836
3.49008
0.0235556
0.0840882
0.0238983
0.0237059
0.0243701
0.0360011
0.324667
0.0240975
0.0253954
0.0232766
3.10472
0.0549755
0.120571
0.0270664
0.0257619
0.0348759
0.347439
0.0899474
3.14735
0.0242027
0.0250244
6.28303
0.641901
0.0222977
0.210786
0.0262432
0.023246
0.97802
0.0237961
0.428111
0.0245782
8.99568
0.0237334
1.79521
2.71207
0.0225731
0.0247579
0.0224366
0.0252318
0.30684
0.996775
0.447989
9.00533
0.0237283
0.115204
0.0244613
1.68814
0.0223897
0.137323
0.0231938
0.114026
0.0238697
0.0237605
0.0253266
6.85059
0.376415
0.996837
0.0500266
0.0444915
0.307062
0.0914819
1.25239
0.0243352
0.0261028
0.0264199
0.0233377
0.02288
0.0328915
0.480826
0.150512
0.0288479
0.0244878
2.82002
0.0245376
0.071431
0.0940911
1.94092
0.027132
0.023159
0.0233458
0.0248834
0.0243762
3.1296
0.0480204
0.0237384
0.0264485
0.0472958
0.0271484
3.14987
12.6993
1.00324
0.0241728
0.375752
1.6498
0.0449427
1.42822
0.0236435
0.0235613
2.2993
3.1201
0.555127
0.0231431
0.0260628
0.0226606
2.80074
3.1171
0.0232948
0.0269194
0.0236825
0.0244966
0.810355
3.37454
0.0236031
0.023326
0.0273058
0.0245565
0.0232639
0.0311829
0.023767
0.0255481
0.023301
3.6648
0.023358
0.0774151
0.0231694
0.281896
0.0233401
0.0326365
0.0238596
0.0238513
0.0232587
0.0242007
2.89666
0.0255585
0.0345512
0.025735
3.106
0.0251865
0.149537
0.0236744
24.868
0.0400607
3.3816
0.306626
1.42862
5.71096
0.265348
0.022663
2.3325
0.024621
0.027716
0.353143
0.0840152
0.0406231
3.42796
0.0798034
0.0262912
0.0284841
22.7454
0.0235632
0.0245517
0.0245462
0.0360262
0.023912
0.0227195
0.484148
0.0248472
0.0239418
0.0241269
9.28384
0.0250587
0.030149
3.06938
3.10674
0.397328
0.0377096
2.82043
0.0269403
6.21433
0.0228622
0.0307437
0.0365423
0.0248804
0.0232406
0.56337
3.16417
0.0468502
0.0322787
0.0251863
0.0248695
1.95697
0.0311856
3.55186
0.0251599
0.0242412
0.0244352
0.0241952
0.024769
0.0236561
0.0295323
0.0246224
0.0246357
0.0283948
0.0249577
0.0239474
0.0249164
0.573944
2.78116
0.026202
0.0710549
3.08574
0.0709975
0.0335471
1.38432
0.037779
0.0234866
0.0245437
0.158875
0.0232111
0.0227237
0.0263031
1.65897
0.0227287
0.0235653
0.0260181
0.0270469
0.0242093
0.0284679
0.026126
0.37601
4.75214
0.416623
0.0227276
0.023371
2.53776
2.17341
0.0668522
2.42916
3.24469
0.0295126
0.024949
0.0245542
3.66289
0.379935
0.0239505
0.0374871
0.421912
1.15961
2.32199
2.75193
0.0249007
0.106492
0.0262879
0.0685941
0.024157
3.41339
0.162167
0.025601
0.0241391
0.0249103
0.0517567
0.0221072
0.0227323
0.0393743
0.221646
12.097
2.71803
1.89561
0.0241734
2.58137
2.09784
0.875282
3.17642
0.837745
2.92627
0.215841
0.0246229
0.532357
0.215456
0.0239909
3.24115
0.0245063
2.7597
0.0237562
0.0406045
0.0913371
2.89384
0.0239311
0.0960745
0.0295037
0.0523308
0.0237459
0.0242407
0.396563
4.03236
0.026813
0.870454
0.0234008
0.0384056
0.0245312
0.0368088
1.62859
0.358157
2.89121
2.62715
10.7058
0.0268454
2.64536
0.0259907
0.022367
2.9358
0.359119
0.0232042
0.0252485
0.0247876
0.0251806
0.281911
0.0237234
2.03215
0.0716168
0.35987
0.024894
0.0367586
0.0385767
2.56321
0.056186
0.426937
0.395113
1.52327
0.0270856
8.51774
3.86479
0.0239546
0.362025
0.0242102
0.0249538
0.0438032
0.0228098
0.0237807
4.02182
0.0237236
10.84
0.023145
1.99681
2.56495
0.0289039
2.9298
0.0565482
0.0223593
2.89813
3.2419
1.00629
0.0245026
0.0249233
1.26795
0.518065
3.42173
0.0232748
0.0318695
0.0260355
0.0250453
0.036521
0.0550834
0.0249222
0.024686
0.0242215
0.0534255
0.0244727
0.164643
0.0242556
0.0225602
2.67682
0.0252398
0.0256018
0.488948
0.02879
0.0271429
0.0252881
0.0250751
2.89395
0.0249583
0.0247019
0.0236913
0.0284033
0.0227945
0.115543
2.90707
0.0271063
0.0242956
0.02376
3.89413
7.23325
0.0362444
7.52387
0.178936
0.0330357
0.0239378
0.457961
9.21861
0.0246414
3.15095
0.0235257
0.173431
0.869644
3.24875
2.8748
0.023944
0.336139
0.0245948
0.0254961
0.0238282
0.571641
0.0249742
3.49624
0.0764836
0.0253912
0.0270308
0.0238964
0.0254677
0.0232394
0.0237254
0.0242381
0.0244321
0.0226816
3.18257
5.85315
0.31251
0.423836
0.133272
0.0247988
0.0242315
0.0241044
0.0248554
0.280335
0.0267073
0.022553
0.0232526
0.0220993
1.52653
3.44848
0.0413601
0.0225335
2.59132
1.38534
1.37016
0.0300176
0.0267118
0.144797
0.0247218
0.516556
0.069416
0.0253319
4.26139
0.0235345
0.0252978
3.85551
0.314356
0.0244667
0.0404854
0.024454
0.0279791
0.313924
0.374941
0.0278393
2.75446
0.210242
7.66773
0.0232933
0.0242335
0.174197
9.01421
1.90557
0.0234028
0.0245001
0.0247947
0.0230448
0.0710727
0.0223809
0.292465
0.159113
0.0231795
0.0251514
0.0251012
0.0247806
0.0870772
0.0248522
0.198607
0.0255227
3.26801
13.1498
3.4427
0.303394
3.32352
0.0239014
3.00488
4.04949
0.0293012
0.0246766
0.0244798
0.026992
3.48536
0.024744
0.0231859
0.0251695
0.12909
0.343731
0.0371753
0.0249657
7.35744
0.0696292
0.0227649
8.26006
0.559356
4.37435
0.0233899
0.0262544
0.0338555
0.0591185
0.0252109
0.0733268
0.0232001
0.0238721
0.0249256
3.44544
3.70268
0.0244359
0.36885
0.0261601
0.0251992
0.0467526
2.82214
3.10312
0.0247908
0.590394
0.0480341
0.0252539
0.0238541
0.320451
5.42074
0.0332181
0.491103
0.829133
0.0245784
0.0244482
0.0299001
4.24949
0.0250656
0.364551
10.372
0.0239231
0.276432
0.265269
0.0246549
3.55659
0.0248441
0.404462
0.0245549
0.0405873
0.0398811
0.0714945
0.0920388
0.731598
0.147334
2.86062
0.0245526
0.0235272
0.0678192
0.0237643
0.214605
0.024248
0.0244419
0.023247
1.02416
0.0361475
2.99918
0.181277
0.0343398
9.91704
0.291636
0.0239147
0.994375
2.99937
0.0222357
2.79022
0.420638
0.0279648
0.0222
3.33498
3.31705
0.0231119
0.0248896
0.0491662
0.0276096
0.0250776
0.0266296
2.49237
0.024074
0.839183
3.20693
0.0237305
0.0268866
0.0240591
0.0501538
3.04792
10.1884
0.161519
9.37107
3.28768
0.0222805
1.64838
0.0237534
6.0606
0.023122
0.024081
1.81913
0.0269664
0.024396
2.9047
0.0245506
0.109078
0.0778508
0.0316014
0.113594
0.288047
0.0391636
2.93369
0.0244655
0.0354041
0.0337628
9.78097
0.0242879
3.05301
0.0259055
0.0867588
2.64871
0.190229
0.0259406
0.0985161
0.0245524
0.0250045
0.0233376
0.0253503
0.0511936
0.111864
0.0233458
0.0225247
0.0239375
0.0229773
0.0258356
0.0313551
3.19767
0.0436014
0.0238034
0.048132
0.0245526
0.311973
0.268704
0.0240801
2.87768
0.430482
0.0231557
0.0229887
2.85248
0.761668
0.154673
0.0263613
2.53041
0.0247057
3.14352
0.024515
11.8885
0.0349723
2.26524
0.882656
0.0235636
0.0517216
0.0314979
3.08278
0.0245491
0.0932699
0.0331534
0.0250392
0.284525
2.09164
2.98811
0.0268356
0.0440008
0.0253077
0.0262944
3.04321
0.304153
2.21795
23.6397
5.94683
6.27289
0.413795
4.05366
0.023103
1.925
1.37417
0.761318
0.607701
0.283296
0.0233614
0.0238272
0.023298
0.0230778
0.122322
3.00942
0.0235086
0.0373533
0.0239858
0.0550853
0.047189
24.758
0.0238106
0.0237028
0.0255994
0.0224434
0.0605239
0.0295414
0.0407288
2.42874
5.76583
0.0234289
5.66756
0.0232717
0.0377644
0.0230661
0.0232986
0.023474
2.6922
0.0745178
0.025627
0.0242391
0.425467
0.0633124
0.125948
0.024463
0.0656201
0.024792
1.31913
0.0529276
0.0248963
0.0383902
0.0804102
0.028259
0.0246982
1.92424
0.560384
0.02221
0.023746
0.0496144
11.6772
0.0260308
0.0426178
0.0234142
0.038004
0.0232654
0.0252176
3.42883
0.0223594
0.0249008
0.565769
0.121384
0.264617
0.0244771
0.1733
0.0547153
0.0734606
0.415858
3.43666
0.05924
6.58141
3.28886
2.6462
0.0378764
2.91637
1.83255
3.47674
0.933181
0.0329483
0.0237763
0.0246448
0.0245501
0.0239769
0.029585
0.0377246
0.0238052
0.0682504
0.345936
36.5514
3.72305
0.0251785
0.117827
0.0250616
6.09946
0.0249191
0.023504
0.02245
0.0221912
0.0256186
0.0258165
0.0232651
2.60154
2.47586
3.2973
0.028525
0.0268794
0.0233174
10.6758
0.0224247
0.547652
0.023336
3.22234
0.0388639
0.0228323
0.0235036
2.7411
3.69392
0.0345102
3.55813
2.60947
0.0237717
0.0238068
0.0234138
0.0338029
0.499891
0.0258417
0.0251883
1.0277
0.0237697
3.36453
0.0268181
0.0243555
0.0231268
0.0681775
0.0255404
0.023804
0.36949
0.0397605
0.18595
0.0246556
2.97655
3.19312
0.0626616
0.0237391
0.0258809
0.0245493
3.26584
0.0228711
0.404735
0.0238042
3.04778
3.15252
0.106326
0.0244361
0.0855715
0.024621
0.0281469
3.20443
0.0228827
0.023267
0.223538
2.5563
0.569837
0.0280231
6.55851
0.0243822
0.0238877
0.0227939
0.0252591
0.539037
0.0238637
0.774639
0.0568704
13.8917
0.186279
0.0854446
0.0490492
0.0232959
9.64819
0.0248304
0.0243267
0.0225535
0.0591689
0.0245981
0.028056
0.033155
0.0243294
0.0235272
0.370729
0.0567349
0.0253825
0.0239786
0.024554
0.0235521
0.0230781
3.02531
0.0280379
0.357213
0.0252238
0.0241814
0.0355247
0.188666
0.510297
0.0245164
3.12439
0.0242305
0.0245311
0.0235455
0.0363704