/*--------------------------------*- C++ -*----------------------------------*\
| =========                 |                                                 |
| \\      /  F ield         | OpenFOAM: The Open Source CFD Toolbox           |
|  \\    /   O peration     | Version:  v2012                                 |
|   \\  /    A nd           | Website:  www.openfoam.com                      |
|    \\/     M anipulation  |                                                 |
\*---------------------------------------------------------------------------*/
FoamFile
{
    version     2.0;
    format      ascii;
    class       surfaceScalarField;
    location    "200";
    object      phi;
}
// * * * * * * * * * * * * * * * * * * * * * * * * * * * * * * * * * * * * * //

dimensions      [0 3 -1 0 0 0 0];
oriented        oriented;


internalField   nonuniform List<scalar> 
55332
(
-0.243367
0.255912
-0.0125452
0.347757
-0.0484492
-0.299308
-0.25058
-0.0332934
0.283873
0.0993911
-0.30944
0.210049
-0.277578
-0.018739
0.296317
-0.317762
0.143682
0.17408
0.0352705
-0.169666
0.134396
0.00196163
0.13803
-0.139992
0.38889
-0.322944
-0.0659459
-0.0146923
0.0149943
-0.00858224
0.00221012
0.00637212
0.00425678
0.066605
-0.0708618
-0.0312679
-0.0394333
0.0707012
-0.125115
-0.0956433
0.220758
0.00905747
-0.00699273
-0.00206473
0.368562
-0.339579
-0.0289837
0.0497389
-0.300319
-0.16942
0.176524
-0.0071045
0.234226
-0.388348
0.154122
0.172528
0.0813031
-0.253831
-0.141024
-0.0342606
0.175284
-0.270638
0.251515
0.0191237
-0.00686035
-0.259104
0.265964
0.0392925
-0.00816612
-0.0311264
-0.00754722
-0.27003
0.284772
-0.366917
0.0821451
-0.0232786
0.00553835
0.0177402
-0.0913805
0.182808
0.0074661
-0.00940115
0.00193505
0.209668
0.0640418
-0.27371
0.223256
-0.247457
0.0242014
-0.0778944
-0.154644
0.232538
-0.23103
0.27297
-0.0419399
0.168288
-0.147812
-0.0204766
-0.0387542
-0.231263
0.270017
-0.324307
0.28822
0.0360865
-0.0166437
-0.00663489
0.121885
-0.200847
0.0789623
0.367053
-0.132826
-0.155578
0.259251
-0.103674
-0.0414147
0.156301
-0.114887
-0.219499
-0.141884
0.361383
0.309106
0.0594561
0.170594
-0.248488
-0.0157134
0.00353012
0.0121833
0.254761
-0.31275
0.0579893
-0.0110396
-0.00467379
-0.0625902
0.066847
0.0603643
-0.330373
0.270008
-0.160951
-0.0717838
0.232735
0.110997
-0.31685
0.205853
0.00176824
0.344235
-0.346003
0.288851
-0.191847
-0.0970038
0.13144
0.00272606
-0.134166
0.308091
-0.137448
-0.170643
-0.172839
0.186068
-0.013229
0.263928
-0.26216
0.226683
-0.320386
0.0937028
0.364585
-0.130124
-0.23446
-0.0111706
0.234426
-0.14271
0.144672
0.00873916
0.000543476
-0.00928264
0.0306992
-0.171723
-0.0774617
0.362234
-0.00040483
0.00195329
-0.00154846
0.017622
-0.0831719
0.0655499
0.248568
0.0442372
-0.292805
-0.0304944
0.00926148
0.0212329
-0.0106115
0.0149301
-0.00431864
-0.0152253
0.0191511
-0.00392576
0.263044
0.104009
0.113835
-0.228022
0.114187
-0.32557
0.114175
0.211395
0.225736
-0.232596
0.338972
-0.0348008
-0.304171
-0.36795
0.134382
0.233568
0.0142123
-0.00137573
-0.0128366
-0.00503632
0.0281264
-0.0230901
-0.22139
0.287605
-0.0662153
0.0440228
-0.0215987
-0.0224241
0.00941789
0.00373502
-0.0131529
0.250291
0.0684065
-0.318697
-0.00501777
-0.0171238
0.0221416
-0.417983
0.259682
0.1583
-0.0131661
-0.000275496
0.0134416
-0.127886
0.199217
-0.0713314
-0.0114996
0.0431333
-0.0316337
0.359404
-0.104644
0.147785
-0.112514
-0.0298818
-0.168915
0.198797
-0.403546
0.18585
0.217695
-0.00906448
-0.00195753
0.011022
-0.269784
0.311406
0.0208237
-0.33223
0.170248
-0.151274
-0.0189747
0.0929776
0.118728
-0.211706
-0.111361
0.283888
-0.0832716
0.100894
0.00883525
-0.107648
0.0416816
0.297291
0.055126
-0.0564003
0.00127435
-0.0158863
-0.156953
-0.100296
0.26668
-0.166384
0.422726
-0.280463
-0.142264
0.00879001
-0.00132391
-0.344492
0.0337335
0.310759
0.328887
-0.101337
-0.22755
-0.00260611
0.00673787
-0.00413176
0.0252748
-0.01959
-0.121087
0.283977
-0.162891
0.167307
-0.200352
0.0330447
-0.403334
0.194692
0.208642
-0.125376
0.375666
-0.219809
-0.183525
0.17885
-0.0650147
0.292361
-0.192969
0.0136982
-0.00428029
-0.0492765
0.0377769
-0.191542
-0.0340208
0.225563
-0.256692
0.133208
0.123483
0.277002
-0.181099
-0.0959029
-0.0369296
0.0318932
-0.145453
-0.117923
0.263375
-0.185337
0.296335
0.0174607
-0.00871688
-0.00874385
-0.228665
0.11042
0.118245
-0.00104795
0.0108721
-0.00982418
0.108051
-0.253504
-0.00982032
0.000755843
0.0480603
0.00706569
0.0179107
-0.00508096
-0.0128297
0.24192
-0.38329
0.14137
0.352406
-0.0409994
0.296546
-0.245348
-0.0511979
-0.423256
0.275168
0.148088
-0.0338095
-0.131182
0.164991
-0.031455
-0.231943
0.263398
-0.363694
0.128208
0.235486
-0.143999
0.106585
0.0374142
0.261619
-0.280358
0.0580571
-0.0432745
-0.0147826
0.104892
0.17211
0.242906
-0.381513
0.138607
0.23069
-0.137712
0.235125
-0.104923
-0.130203
0.013739
0.302364
-0.316103
-0.164729
-0.0919626
-0.212158
0.0899844
0.122174
0.273004
-0.259265
-0.0201822
0.00495688
0.240332
0.0885554
0.354183
-0.0176883
-0.336494
0.396409
-0.290291
-0.106118
0.137603
-0.117406
-0.0201966
-0.00148454
0.0102237
-0.178041
0.340044
-0.162003
0.00502602
-0.0156375
-0.0114836
-0.282398
0.293881
-0.198631
0.248319
-0.0496888
0.000588522
-0.000322425
-0.000266097
0.21152
-0.317242
0.105723
-0.185141
0.0327318
0.152409
0.299474
-0.077968
-0.221506
0.0515801
-0.00928972
0.014037
-0.00474727
0.229015
-0.095807
0.00916187
-0.0104262
0.00126432
-0.00975932
0.0128704
-0.00311111
-0.0338937
-0.157648
-0.0476901
0.0141449
0.0335452
0.00830303
0.0091577
0.255586
0.133304
0.357552
-0.114646
0.0953659
-0.368811
0.273445
-0.0126355
0.0128888
0.00368251
-0.00116832
-0.00251419
-0.0355431
0.0960496
-0.0605065
0.115087
-0.163011
0.0479235
-0.165442
0.269474
-0.104032
-0.0118457
0.0129259
0.120846
0.0167566
-0.150035
-0.0131339
0.163169
0.165378
-0.195259
0.00237198
-0.0345678
0.0321958
-0.133881
-0.0947837
0.00335741
-0.00304527
-0.000312139
0.131732
-0.278667
0.146935
-0.00125831
-0.013434
0.0184593
-0.0761139
0.0576546
0.12237
0.00296267
-0.125332
0.0191477
0.253856
-0.00874249
0.0558455
-0.047103
-0.151515
0.00148002
-0.162824
0.260205
-0.0973806
0.272143
-0.252995
0.0181789
-0.0231967
-0.0134244
-0.00854344
0.0219679
0.05386
-0.0278933
-0.0259667
0.0575375
-0.00684683
-0.0506906
-0.421002
0.300485
0.120517
-0.361231
0.0167388
0.0195307
-0.0948832
0.0753525
0.349072
-0.265498
-0.0835741
0.32662
-0.204677
-0.121943
0.193954
-0.116217
-0.0777364
0.230619
-0.309222
0.0786032
0.372742
-0.02849
-0.344252
0.320226
-0.353017
0.0327907
-0.00828503
-0.00254877
0.0108338
0.152886
-0.0305158
0.280225
0.0688464
0.365383
-0.335304
-0.0300795
0.168068
-0.0678769
-0.100191
-0.179895
-0.091952
0.271847
-0.0312439
0.0455359
-0.014292
0.0697246
0.127293
-0.197018
-0.0268936
0.368504
-0.34161
-0.133766
-0.00324798
-0.00793276
0.0111807
0.345849
0.086555
0.291739
-0.303243
0.011504
-0.0647126
-0.00858224
0.00564042
0.165281
-0.091707
-0.073574
0.0560897
-0.0751976
0.0191079
0.00369569
-0.025742
0.0220464
-0.279917
0.19523
0.0846878
0.0165857
-0.0127766
-0.00380915
0.008711
-0.00716873
0.23908
-0.270535
0.238742
0.157667
-0.199716
-0.22354
0.336893
-0.254185
0.0229216
0.00879692
0.0487405
-0.365696
0.319748
0.0459482
0.385964
-0.176097
-0.209867
-0.137549
0.0634364
0.0741128
0.00733141
0.264811
0.0108441
-0.00168218
0.168992
-0.0375527
0.424796
-0.260019
-0.164777
-0.00232037
-0.0108458
0.00261259
0.000744824
0.0292854
0.339218
-0.18129
0.0534046
-0.00341746
0.000169484
0.206307
-0.437209
0.230902
0.161117
-0.218114
0.0569966
0.0890216
-0.341504
0.252483
-0.135146
0.099568
0.0355782
0.115532
0.113484
0.305384
-0.298052
-0.091604
-0.120554
0.249743
-0.348902
0.0991594
0.339361
-0.18328
-0.156081
0.13967
0.030578
0.426347
-0.167282
-0.259064
0.104874
0.0631941
0.0045647
0.00449277
-0.329535
0.104417
0.225119
0.348604
-0.0159811
-0.332623
0.114875
0.115815
-0.248796
0.120486
0.12831
0.323499
-0.313496
-0.0100025
0.353193
-0.130158
-0.223035
0.248305
0.101779
-0.350084
0.249252
-0.198735
-0.0505167
0.358979
-0.123538
-0.235442
0.209492
-0.158911
0.0107278
0.000503387
-0.0112312
0.0633749
0.104913
0.0124479
-0.00172008
-0.0333495
-0.117924
0.348869
-0.108537
-0.000187628
0.0948789
0.228029
-0.322908
0.342774
-0.0944693
0.109309
0.00542624
-0.114735
-0.0579585
-0.185409
-0.322352
-0.0433437
0.0342439
-0.0219734
-0.0122705
-0.0155243
0.307263
-0.414791
0.295467
0.119324
-0.051188
0.166275
-0.0353633
0.296983
0.287916
-0.232009
-0.0559078
-0.220249
0.0351075
0.0460733
-0.225968
0.022475
-0.150616
0.128141
0.0202326
-0.0165369
0.113147
-0.327906
0.214759
-0.0115845
0.0018252
0.238776
0.0934542
-0.33223
-0.194207
0.389386
-0.195179
0.000962724
0.0250337
0.329149
-0.120235
-0.244074
0.265441
-0.0213671
-0.115531
0.230405
0.0204839
-0.000251341
-0.29532
0.247763
0.0475574
0.247216
-0.382157
0.13494
0.0188718
-0.0247113
0.00583949
0.117325
-0.2966
0.179275
0.0139204
-0.0101662
-0.00375422
-0.0605169
0.0555331
0.00498376
-0.00238512
0.00198029
0.0113226
-0.024747
-0.0115376
0.0104897
0.243592
-0.246175
0.00258352
-0.361471
0.112309
0.249162
-0.235612
-0.125859
0.166193
0.106058
-0.27225
0.127437
-0.376254
0.248817
-0.012723
0.00155388
0.0111691
0.0702012
0.00755599
0.0137164
-0.0212724
0.00664847
0.0161153
-0.0227638
-0.182401
0.310825
-0.128424
-0.0869067
-0.111029
0.197936
0.0950784
0.0702026
0.358144
-0.127525
-0.194845
-0.0195154
-0.0109789
-0.0106264
0.000200191
0.249792
0.0929827
0.131288
-0.248028
0.11674
-0.00401613
0.00218014
0.00183599
0.0184625
-0.00246922
-0.0159933
0.0127789
0.200256
0.0885953
0.33579
-0.0859986
0.291639
0.0318598
0.251325
-0.387357
0.136032
0.21926
0.107838
-0.327098
0.0393881
0.280838
0.337626
-0.02852
0.113565
-0.291606
0.00353384
0.00879689
-0.0123307
0.296192
-0.0959366
0.0245299
-0.00483199
-0.0196979
0.359705
-0.112489
0.0102033
0.00273015
-0.0129334
-0.0204524
-0.260301
0.280753
0.30938
0.028246
0.0280055
-0.00706399
-0.0209415
-0.129422
-0.234272
-0.357239
0.121697
0.235542
0.0930897
-0.227073
0.133983
0.0176608
0.330944
-0.00413119
0.0755874
-0.0714562
-0.159259
0.158199
0.00105945
0.375503
-0.190147
-0.185356
0.243329
-0.263781
0.0217014
-0.0146089
-0.00709248
0.00815352
0.031139
0.0050577
0.00918226
0.00740349
-0.00690031
-0.174644
0.181544
0.00288085
-0.00880563
-0.00261574
0.0114214
0.0359448
-0.00305617
-0.0328886
-0.270684
0.105242
0.0332933
-0.0579604
0.0246671
0.314883
-0.201736
0.000429623
0.00152367
0.0906906
0.205502
-0.0150557
-0.251869
0.266925
-0.0646946
0.0559521
0.000403776
-0.00255895
0.00215517
-0.248681
-0.169302
-0.259469
0.383191
-0.123722
0.0401339
0.0179232
0.00043059
0.000157932
-0.0566188
0.0436942
0.0129246
-0.430407
0.195799
0.234608
0.162879
-0.342893
0.180013
0.00807867
-0.00807867
-0.135296
-0.184511
0.319807
-0.19462
0.108501
0.0861196
-0.342903
0.145256
0.197648
0.00427009
0.000158765
-0.00442886
0.376041
-0.31013
-0.0659111
0.377417
-0.216502
-0.160914
0.397392
-0.364593
-0.0327994
0.0758881
-0.121241
0.0453532
0.0787155
-0.00832386
-0.0703916
-0.07013
0.022892
0.0472381
0.350343
-0.280404
-0.0699391
0.340789
-0.280425
0.0111353
0.00336152
-0.0144968
-0.228546
-0.114357
-0.0061154
0.000745994
0.00536941
-0.00299644
0.015756
-0.0127596
-0.00745972
0.00180444
0.00565528
-0.273834
0.394728
-0.120893
0.00258616
0.00949352
-0.0120797
0.0282431
0.00770168
-0.218831
-0.143418
-0.00929157
-0.00133481
0.0325052
0.0130308
0.0547901
0.342602
0.0468935
0.001828
-0.0487215
0.0131249
-0.0517387
0.0386138
0.00212616
-0.0109318
-0.352453
0.232544
0.11991
0.106649
0.229148
-0.136058
0.187316
-0.272648
0.0853323
-0.00912306
0.0101602
-0.00103711
0.151521
-0.12
-0.0315204
-0.0202914
-0.0273987
-0.232627
0.174372
0.0582545
0.297692
0.0526513
0.00368251
0.292389
-0.126196
0.383015
-0.126544
-0.256471
-0.303081
0.288026
-0.16128
0.127471
0.0933793
-0.180286
-0.353795
0.199785
0.15401
-0.234981
0.318725
-0.0837438
0.152104
0.225312
-0.437734
0.18854
0.249194
-0.00399994
-0.0070197
0.0110196
0.00109495
0.0657603
-0.300742
-0.088725
-0.244192
0.332917
-0.21948
0.368605
-0.149125
0.183702
0.180882
0.0146334
-0.00349813
0.301822
-0.167895
-0.133928
-0.119357
0.161406
-0.0420483
-0.107343
0.294659
0.049635
0.0024515
-0.00760333
0.00515182
-0.214695
-0.190979
-0.128509
0.319488
-0.0224874
-0.0196358
0.0421232
-0.230075
0.281124
-0.0510496
-0.00725002
0.00406641
-0.00883633
0.00476992
-0.00103404
-0.0029821
0.082754
-0.0632233
-0.149107
-0.176464
-0.121927
0.210297
-0.0883695
0.00104307
0.182447
0.176957
0.129646
-0.0844661
-0.0451799
-0.223493
0.114122
0.109371
-0.00305456
0.0132578
-0.0251249
-0.0312754
0.38143
-0.131686
0.241453
-0.252936
-0.0154155
-0.304975
0.32039
0.00132083
-0.00105801
-0.000262821
0.413075
-0.291329
-0.121746
-0.0677881
0.112253
-0.0444645
0.0132902
0.0209537
0.151622
-0.2664
0.114778
-0.106806
0.0390177
-0.275716
-0.202391
0.0334756
-0.0616257
-0.0377561
0.0993818
-0.0560574
0.253865
-0.197807
0.284374
-0.178553
-0.10582
0.115559
-0.306538
0.11356
0.152234
-0.22758
0.308491
-0.0809111
-0.0285955
0.255278
0.0349583
-0.0662262
0.22994
-0.0986521
0.156645
0.145177
-0.0300161
0.139325
-0.227928
-0.105419
0.333347
0.0130794
-0.0145548
0.00147541
-0.261849
0.161553
-0.355763
0.0507888
0.000423926
-0.159683
0.0812712
-0.252177
0.170906
0.142338
-0.0587979
-0.08354
-0.0247995
0.0425132
-0.0177137
0.188743
-0.119019
0.00366192
-0.00625928
0.00259737
-0.293275
0.237217
-0.0214052
0.0774949
0.00945174
-0.0390982
0.0296465
0.193719
0.0555322
0.352383
-0.312795
-0.0395875
0.0589918
0.0706541
0.384886
-0.168968
-0.215919
0.251225
-0.380352
0.129127
-0.198987
-0.231419
-0.293759
0.132879
0.160879
-0.0557973
-0.0882022
0.306605
0.00277567
-0.0571107
-0.267196
-0.0118133
-0.000909639
0.0680109
-0.0226206
-0.0453902
-0.0493954
-0.201874
0.25127
0.124814
0.183277
-0.283166
0.233771
0.351228
-0.356934
0.00570536
-0.160754
0.250079
-0.0893246
0.139216
0.14101
0.0720853
0.212288
-0.225529
0.320895
-0.131085
-0.204346
0.335431
0.233204
-0.0951733
-0.00936921
-0.266505
0.0385773
-0.0103259
0.0143923
0.265821
-0.114199
-0.27774
0.162213
0.115527
-0.00855848
0.286989
-0.190058
-0.0969314
-0.00476777
0.0178472
-0.11362
0.137246
-0.0236269
-0.205005
0.168484
0.0365213
0.116252
0.176323
-0.292575
0.340184
-0.0335796
-0.135707
-0.0535987
0.189306
0.106181
-0.120388
0.0142076
0.107568
0.180349
-0.135165
-0.149386
0.284551
0.308245
0.0441379
0.104786
-0.0993602
-0.0752767
0.236394
-0.146853
-0.146906
-0.0350834
0.324505
-0.340029
0.365411
-0.133792
-0.231619
-0.0148386
-0.171129
0.185968
0.223713
0.0198785
0.411373
-0.200043
-0.211329
0.360302
-0.109077
0.26249
-0.0121938
-0.250296
0.0510938
0.146776
-0.19787
-0.000945141
0.00137476
0.324294
-0.317836
-0.00645795
0.0156611
-0.0126647
-0.00299642
-0.0558449
-0.0295781
0.085423
-0.106343
-0.211419
-0.222777
-0.112961
0.335738
0.34048
-0.0898203
-0.25066
-0.00880748
-0.339235
0.105895
0.23334
0.362002
-0.303158
-0.0588437
-0.391284
0.215817
0.175467
0.00188563
0.00619304
-0.172446
-0.105294
0.127134
-0.27361
0.146476
0.0260184
-0.000743673
-0.195838
-0.0565513
0.252389
0.12522
-0.0401678
-0.0850523
0.12969
0.232311
0.00265598
-0.00225221
0.0491199
0.275385
0.264018
-0.124802
0.0212654
0.05745
0.216977
0.079569
0.00849004
-0.0192172
0.0162207
0.363482
-0.0157256
0.000678446
0.0221695
-0.022848
-0.0345907
-0.304644
-0.123139
-0.258374
-0.0696798
0.311599
-0.0817816
0.0259367
0.00463483
-0.00379145
-0.000843379
-0.011008
0.018564
0.00518445
0.000125223
-0.00530968
0.23765
-0.374217
0.136567
0.108074
0.12513
-0.184224
0.0790318
0.105192
0.234526
0.101264
0.0945124
0.136376
-0.230889
0.0624453
0.193467
0.156637
0.0385929
-0.0061032
0.00621999
-0.000116789
-0.374435
0.124226
0.250208
-0.00145121
0.281161
-0.27971
-0.0317999
-0.273399
0.305199
-0.250738
0.0951601
-0.0787792
0.119043
-0.0402639
-0.142129
0.183992
-0.0418624
0.149645
-0.365466
0.215822
0.000200099
0.00443473
-0.162662
0.342611
-0.17995
0.355033
-0.106465
0.0732379
-0.109314
0.0360763
0.232974
0.0295157
-0.0342433
-0.0425893
0.0768326
-0.260919
0.220167
0.0407523
0.0940792
-0.267874
0.173795
-0.263865
0.145943
0.164331
0.0949202
-0.408061
0.27193
0.13613
0.0493952
0.0186157
0.0379013
-0.0861343
-0.0514149
-0.350116
0.123334
0.226782
-0.0144563
-0.00437509
0.0188314
0.309121
-0.153177
-0.155943
0.31468
-0.105012
0.156117
-0.387572
0.231455
0.00935669
-0.0146738
0.00531708
-0.188904
-0.248305
-0.222001
-0.215733
-0.136189
0.204924
-0.0687349
0.00386648
-0.00516136
0.00129488
-0.166368
0.260447
-0.170391
0.409764
-0.172114
0.048585
0.0150091
-0.063594
0.00539015
-0.00293865
-0.253363
0.0713767
0.181986
-0.161619
-0.186258
0.347878
0.0599165
-0.0978805
0.332407
0.317112
-0.202937
-0.000778384
-0.00160674
-0.0356176
-0.143068
0.178685
0.125845
-0.0196643
-0.207252
0.333246
-0.125994
0.0322438
0.0290532
-0.061297
-0.310088
0.147426
0.0161849
0.0513516
-0.0675364
-0.00584592
0.00584592
0.0635281
-0.0149431
0.0291923
0.0960278
0.0102954
-0.0407499
0.0304545
0.0704905
0.167868
-0.238359
-0.219856
0.325892
-0.106036
-0.379323
0.181976
0.197346
-0.0349683
0.045341
-0.0103727
-0.00745972
-0.16105
0.0410498
-0.0395121
-0.231126
0.0918139
-0.302325
0.210511
-0.0282373
0.0210252
0.00721211
0.257289
-0.149238
-0.401813
0.182982
-0.173091
0.226417
-0.0533257
0.0159658
-0.0017535
0.253712
0.169014
-0.127646
0.0942962
-0.0361516
-0.024675
0.0341268
-0.0220081
0.0542518
-0.0100747
0.0141406
-0.00406583
0.152273
-0.364606
0.212333
-0.0967196
-0.212503
0.0343807
0.208933
-0.347545
0.138612
0.100729
0.146074
-0.246803
0.020992
-0.0143436
-0.136759
0.0953442
-0.0910851
-0.0424861
0.133571
-0.0405741
0.0157746
-0.121662
0.340457
-0.128863
-0.211594
0.206491
0.0263486
-0.23284
-0.0634141
0.185299
0.287361
-0.0919207
-0.19544
-0.395136
0.281196
0.11394
-0.131378
0.353251
-0.221873
0.187955
-0.323251
0.0484315
-0.00153798
0.00696465
-0.00696465
0.343542
-0.191269
0.100484
-0.323261
0.109354
0.248198
0.0313163
-0.0624591
0.0311428
0.0935179
-0.218633
0.0483461
0.251128
-0.00990209
0.00161706
0.153788
-0.348551
0.194763
-0.103644
-0.0117707
0.115414
0.0900884
-0.235828
0.145739
-0.0856916
0.324468
0.155161
0.0856121
-0.240773
-0.0388138
-0.083779
0.0482359
0.28959
-0.0566157
-0.357825
0.226447
-0.260896
0.321683
-0.0607873
-0.0222227
-0.0858754
0.108098
-0.0111527
-0.003909
0.0150617
0.127399
0.204298
0.139244
-0.305015
0.273216
-0.326463
0.212394
0.114069
0.0887397
0.25174
0.0719624
-0.0832192
0.0112568
0.118462
0.257041
0.277429
0.148918
0.0842377
-0.0739491
-0.0102887
-0.113679
-0.289866
0.131407
0.00583934
-0.208487
0.305025
-0.0965384
0.290066
-0.386894
0.0968284
-0.111876
0.0437129
0.0681626
-0.10615
0.0673115
0.0388388
-0.127562
-0.237044
-0.109291
0.0870684
0.0989337
-0.30742
0.00982002
0.00131063
-0.0111306
0.144544
0.0456414
-0.190186
-0.38179
0.163665
0.218125
-0.0532219
-0.389441
0.326881
0.0625603
-0.201461
-0.00275389
-0.0113661
0.01412
0.00362344
-0.0198778
-0.0120248
0.0319026
-0.147591
-0.0328005
0.180391
-0.233037
0.369056
-0.136019
0.143351
0.0769181
-0.220269
0.199126
-0.418625
0.0924095
-0.0204471
-0.277065
0.297847
0.000729231
-1.91957e-05
-0.000710035
0.0479624
0.0942989
-0.142261
-0.000940965
-0.00517444
0.244559
-0.333284
0.0054159
0.0151211
-0.020537
-0.156881
-0.0612332
0.300307
-0.182982
0.00100657
0.095043
-0.256352
-0.0686401
0.324992
0.0724341
0.217156
0.142449
0.161768
-0.304217
0.117422
0.0303633
0.0635358
-0.330162
0.266626
-0.116702
-0.257514
-0.354793
0.10824
0.246553
0.0658932
0.256861
-0.322754
0.0201376
-0.123781
-0.00455112
0.000911731
0.00363939
0.222602
-0.12809
0.0123464
-0.00884725
-0.00349917
0.0143861
-0.00502943
0.00408602
0.00462498
0.365366
-0.206878
-0.158487
0.0562013
-0.259584
0.203383
-0.071714
-0.245137
0.301267
-0.212245
0.266
-0.385814
0.119814
0.265992
-0.209791
0.379979
-0.0899128
0.211401
-0.0668565
-0.0984609
0.107296
-0.00571456
0.00216199
0.00355256
-0.201521
0.322626
-0.121105
-0.00164178
-0.0203316
-0.234388
0.147561
0.0868272
-0.345619
0.242454
0.103165
-0.0099741
0.238035
-0.228061
-0.288457
-0.079493
0.372666
-0.216549
0.230054
0.3968
-0.138955
-0.257845
0.250466
-0.301141
0.0506746
0.021839
-0.00296719
-0.145584
0.235672
0.233251
0.0838609
-0.311487
0.323283
-0.0117957
0.0254397
-0.213443
0.188003
0.0884134
0.234178
-0.322592
0.0288341
-0.114975
0.086141
-0.337378
0.334388
0.00299073
0.124284
0.216265
-0.340549
-0.145825
-0.127785
-0.0928533
-0.0228959
0.115749
0.342048
-0.253308
0.198667
0.226129
-0.269915
0.0340877
-0.178047
0.0209993
0.157048
0.152013
0.257751
-0.0329474
0.01046
0.0456749
0.173518
-0.219193
0.131313
-0.0554251
-0.202181
0.22762
-0.0655496
-0.10783
0.173379
0.109497
-0.342534
-0.296494
0.0766384
0.383453
-0.233808
-0.104465
0.251335
-0.14687
0.390886
-0.323568
-0.067318
-0.29261
-0.0646296
-0.227647
-0.0422684
0.304621
-0.209973
-0.094648
-0.255147
-0.124175
0.040348
0.278517
-0.318865
-0.0178381
0.0760869
-0.0582488
-0.125668
0.348751
-0.223083
0.174369
-0.24437
0.0700004
-0.32967
0.23985
-0.0897467
0.142748
-0.178365
0.00971423
-0.0130545
0.00334027
-0.0445595
0.368853
0.00613547
-0.0232593
-0.393181
0.188256
0.204925
0.160007
-0.348067
0.18806
0.237558
-0.0226421
-0.214916
-0.16473
0.375802
-0.211072
-0.00299863
-0.00271593
-0.220064
-0.0506193
-0.146534
-0.0999791
0.246513
-0.220095
-0.173087
-0.338147
0.102271
0.235876
-0.0234914
-0.0248218
0.0483133
0.225338
0.159549
0.0563364
0.19053
-0.246866
-0.109933
-0.0511177
-0.299634
0.28966
-0.0240234
0.0332849
0.182387
-0.0396388
-0.013247
0.00924703
0.0359885
0.305214
-0.096281
-0.267177
-0.0623582
-0.290632
0.0311625
-0.000515964
0.00417788
0.326861
-0.201674
-0.125187
0.101953
0.0920004
0.0119885
0.000934754
-0.0129233
0.0846217
-0.016982
-0.0676397
-0.159669
0.205344
0.3687
-0.126944
-0.241757
0.398558
-0.246545
0.17564
0.135077
-0.310717
0.00945606
-0.0120718
-0.178029
0.00495671
0.0107044
-0.294864
0.216896
-0.180679
0.00126906
0.17941
-0.0982788
0.0501038
-0.00697052
-0.216954
0.0362754
-0.139068
-0.24928
0.0110205
-0.0100577
-0.0481021
0.138823
-0.0907204
-0.231562
0.0988305
0.132732
0.216437
0.125988
-0.342424
0.0852754
0.255181
-0.269428
0.0891249
0.180304
-0.324684
0.199016
-0.150305
0.0256553
0.0843815
-0.110037
0.286308
-0.0571599
0.111514
0.24663
-0.296459
0.0929721
0.203487
0.0119236
-0.0146775
0.181389
-0.107089
-0.0743006
0.165354
0.015752
-0.181106
0.116828
0.0445777
-0.157614
0.0735425
0.0840712
-0.000278034
0.00989321
-0.00961518
-0.0121784
-0.00159855
0.0137769
-0.00769616
0.0102823
0.0759139
0.366669
-0.239022
-0.127647
0.214516
-0.0491384
0.13686
-0.264569
0.127709
0.0653417
0.1956
-0.260942
-0.21944
-0.111196
0.330636
0.0331503
-0.0549326
0.0217823
0.181234
-0.321498
0.140263
0.0226844
-0.25317
0.230486
0.00608791
-0.0150213
0.00893341
-0.0655748
0.277094
0.358274
-0.229709
-0.128565
0.257473
-0.234789
-0.00756799
0.0107067
-0.00313869
-0.127745
0.0505307
0.0772146
-0.0375426
0.177213
0.244331
-0.0206173
-0.308525
-0.0415909
-0.00973145
-0.0160106
0.230236
0.128038
0.0013025
1.83338e-05
0.248336
-0.207314
-0.0410218
-0.128059
0.338608
-0.210549
-0.338328
-0.00107596
0.339404
0.172783
-0.271017
0.0982346
0.0575721
0.287999
-0.345571
0.368546
-0.239009
-0.129537
0.283266
-0.126621
0.273132
0.00860056
-0.281733
0.312428
0.0561176
-0.236698
0.141055
-0.136806
0.324761
-0.0484559
0.286014
-0.217853
0.315395
-0.097542
-0.120756
-0.261401
-0.0738356
0.246619
-0.00725646
-0.331072
0.357242
-0.33163
-0.0256121
0.00250826
-0.00486118
0.00235292
0.0753204
0.0455255
-0.3566
0.13712
-0.0790101
0.222361
-0.226097
-0.119521
-0.0650294
0.0608982
0.0248914
-0.000361507
0.0833658
0.143327
-0.226693
0.0973032
0.0271878
-0.16334
0.136152
0.307273
-0.131634
-0.112825
0.173846
-0.0610209
-0.114716
0.0720108
0.0427055
-0.0802439
0.207537
-0.0434675
0.0575098
-0.0140423
-0.302538
-0.0382335
0.340772
0.00543685
-0.00157037
-0.0139461
0.0136681
0.160779
0.165841
0.0917389
-0.351267
0.259528
0.300025
-0.0941716
-0.0288554
-0.00552602
0.0147083
0.319444
0.0377988
-0.418775
0.210765
0.208011
0.00347111
0.00154879
-0.00501989
0.386057
-0.329375
-0.0566818
-0.0389624
0.0306912
0.0082712
0.196538
-0.0273438
-0.169194
0.262798
-0.215919
-0.0468789
-0.121784
0.0430044
0.323346
0.0627107
-0.0123882
-0.0265742
0.358314
-0.0952703
2.1694e-05
0.0123057
-0.0123274
0.031785
-0.162967
-0.0534088
-0.078833
0.132242
-0.324404
0.0218658
-0.170277
0.235619
0.0890008
-0.130438
0.0414374
0.129132
-0.230322
0.101189
0.0090951
-0.00889955
0.387903
-0.110408
-0.277495
0.172445
0.0240936
-0.00820568
0.0095085
-0.00130283
-0.141034
-0.0309379
0.171971
0.100101
0.0812886
0.084245
-0.265162
0.00880985
0.229865
0.116646
-0.34651
0.0488516
-0.324236
0.275384
0.00914566
-0.0104046
0.00125889
-0.0713862
-0.133619
-0.116489
0.346353
-0.171649
0.0285812
-0.089791
-0.100113
0.189904
0.0151105
-0.058578
0.00330179
-0.176776
-0.21836
0.00218021
0.0130637
0.0917085
-0.104772
-0.0133589
-0.0236556
0.0370145
0.223757
0.0625506
-0.0156876
0.00907201
0.00661564
0.0946674
-0.124684
0.1847
0.0758665
-0.260566
0.289199
-0.104499
-0.0747998
-0.0529456
0.128377
-0.320032
0.191655
0.214019
0.15265
0.068996
0.0240609
-0.0930569
0.356426
-0.142407
-0.107132
-0.11636
0.231345
0.11465
-0.345995
-0.250975
0.14651
0.0327756
-0.293671
0.130859
0.0417236
-0.172582
0.0142854
-0.230788
-0.0105709
-0.137241
0.0182139
0.0356461
0.220863
-0.360473
0.13961
-0.0999285
0.0272719
0.0726566
-0.161608
0.389911
-0.228304
0.155146
-0.316543
0.161397
-0.000128485
0.000857716
-0.0965238
-0.216226
0.0222231
0.0272758
0.0102867
0.00470756
0.157571
-0.0407434
-0.211542
0.298457
-0.0869149
0.0346309
-0.182221
0.0876139
-0.335436
0.247822
-0.238625
0.210124
0.0285005
0.182526
-0.116184
-0.0663427
-0.171321
0.287573
-0.0141632
0.0111087
0.111708
-0.331149
-0.177072
0.320754
-0.227637
0.0811034
0.315271
-0.160125
-0.0680783
0.0502403
0.247034
-0.0950718
0.360258
-0.15596
0.000953338
-0.00786042
0.00690708
0.197345
-0.331241
0.133897
-0.0131027
0.00195009
0.0111527
-0.0150509
0.00287252
0.0208263
0.00176538
-0.0225917
-0.0138013
-0.341719
0.220514
0.121205
-0.011405
0.21385
-0.202445
0.00556918
0.244897
0.213965
-0.342024
0.23761
-0.284952
0.0473421
0.290321
-0.153461
0.114902
-0.0101154
0.174687
-0.294356
0.119669
-0.0266342
0.317889
-0.120544
-0.210016
-0.116447
0.117333
0.196822
-0.314155
0.13446
-0.352014
0.217554
-0.0988941
-0.204984
0.359518
-0.154534
-0.0628489
0.138169
-0.00570275
0.00570275
0.175832
-0.296919
0.430882
-0.242626
0.163297
-0.401492
0.238195
0.16247
0.250605
0.253025
-0.0978644
0.0532926
-0.0223452
-0.147075
-0.337853
0.132869
0.113233
0.170744
-0.0101184
0.0094362
0.000682189
0.240449
-0.312163
0.0176892
-0.0170107
-0.0374152
0.0723736
0.291844
-0.231371
-0.0604735
0.16553
0.0837444
-0.249274
-0.355886
-0.00902769
0.364913
-0.311869
0.35748
-0.0456116
0.209466
0.133145
0.232275
0.155628
0.2206
-0.0390403
-0.18156
0.106329
0.253377
0.228536
-0.239941
-0.201399
0.002768
0.315681
-0.105687
-0.209994
-0.0176705
0.0176922
0.221407
0.295221
-0.201961
-0.0911784
0.293139
-0.286953
-0.0245343
0.321714
-0.194277
-0.163886
0.051061
-0.340892
0.0542035
0.286688
-0.0415672
-0.015718
0.0572853
0.314073
-0.217797
-0.0962757
-0.00524687
0.0808342
0.149469
0.241417
0.0927414
-0.0343912
-0.0583502
-0.240583
-0.148859
7.25368e-05
-0.00153441
0.00146187
-0.134053
0.0769147
0.0571388
-0.308712
0.106751
-0.0430921
-0.17324
0.216332
0.00355488
-0.0964082
0.289144
-0.125586
-0.163558
-0.00512997
-0.000973233
0.0635483
0.112976
-0.15115
0.372013
0.125598
-0.33285
0.298741
-0.0823049
-0.169918
0.307909
-0.137991
0.271437
-0.220384
-0.0510526
0.26685
-0.198443
0.169741
0.0653842
-0.176594
-0.117796
0.29439
-0.0108482
0.25516
-0.244312
-0.0799891
0.209122
0.402754
-0.239456
-0.0448074
-0.0670681
0.135097
-0.33781
0.202713
-0.00617425
0.000328333
0.11779
0.203023
-0.320813
-0.0788116
-0.26208
-0.326677
0.133045
0.193632
0.0470032
0.244841
-0.273524
0.150176
0.123348
0.290685
-0.114362
0.273527
-0.0359168
0.16309
0.100807
-0.263897
-0.408394
0.294371
0.114023
0.284483
-0.295331
-0.0957644
0.0639028
0.0318616
0.0136446
0.0409477
-0.0545923
0.335414
-0.069414
-0.150708
0.239134
-0.0884256
-0.00364105
-0.0183429
0.0219839
-0.0344262
0.107664
-0.231689
-0.117213
0.0025675
0.00261696
0.315258
-0.083913
0.00742949
-0.00759446
0.000164963
-0.099896
0.319637
-0.219741
0.200131
-0.169769
-0.0303621
-0.240178
0.204488
0.03569
0.00938467
-0.0098548
0.000470127
5.71992e-05
0.000264513
-0.000321712
0.123367
-0.182649
0.133699
0.0489495
-0.0834055
0.197528
0.00364872
-0.145778
-0.369305
0.161112
0.208193
0.182125
0.248757
0.0182758
-0.0157102
-0.00256563
0.384182
-0.237505
-0.146677
-0.153608
0.367963
-0.214355
0.381465
-0.319889
-0.0615761
-0.133385
0.342851
-0.123429
-0.0209021
-0.0135863
0.0344884
-0.000734773
0.000412348
-0.0228204
0.0354993
-0.0126789
0.0119255
0.00855842
0.326518
0.0549471
0.0110414
-0.00273834
-0.200202
0.329041
-0.128839
0.241
0.143182
-0.0485698
0.179428
-0.147678
0.190806
-0.0431274
-0.347811
0.194204
-0.216283
0.0106021
-0.0254378
0.0148357
-0.0106362
-0.0176012
-0.178913
0.277958
-0.099045
0.177613
0.111531
0.243825
-0.173335
0.230681
-0.360189
0.129507
0.00674296
-0.0124994
0.00575642
0.215713
0.0557238
-0.265242
0.139656
-0.0387533
-0.230675
0.0788287
-0.132238
0.196138
-0.330492
0.134354
0.048869
0.0184456
-0.0673146
0.116283
-0.0703455
-0.045938
-0.0399141
0.164372
-0.124458
0.327211
-0.131073
0.00158736
0.00537729
0.379753
-0.163573
-0.21618
0.0111787
0.00345473
-0.189093
0.136755
0.0523378
0.212385
0.354318
-0.219221
-0.401565
0.14073
0.260836
0.369612
-0.158559
-0.211053
0.12534
0.0989293
-0.0687671
-0.0301622
0.00909033
0.000294338
0.408494
-0.116601
-0.291893
-0.155771
0.240175
-0.084404
-0.233329
-0.141106
-0.178362
0.190147
-0.0117846
-0.316742
-0.0391432
0.323579
-0.260043
-0.0697142
0.196627
-0.126913
-0.00343254
-0.00970483
0.0131374
0.0155116
-0.0191527
-0.0641856
0.00302003
-0.011068
-0.00461967
0.0298275
-0.20819
-0.000275058
0.00942072
-0.307891
0.252281
0.0556098
0.227431
0.132827
-0.13688
0.00925772
0.127622
-0.0128069
-0.000295824
0.189155
0.0202842
-0.209439
-0.185775
0.371625
0.244655
-0.0021349
0.0204107
-0.0398657
-0.00138768
0.0412534
0.0587897
0.0339518
0.172819
-0.209281
0.0364619
-0.223208
-0.00533807
0.0830779
-0.197547