/*--------------------------------*- C++ -*----------------------------------*\
| =========                 |                                                 |
| \\      /  F ield         | OpenFOAM: The Open Source CFD Toolbox           |
|  \\    /   O peration     | Version:  v2012                                 |
|   \\  /    A nd           | Website:  www.openfoam.com                      |
|    \\/     M anipulation  |                                                 |
\*---------------------------------------------------------------------------*/
FoamFile
{
    version     2.0;
    format      ascii;
    class       volVectorField;
    location    "200";
    object      U;
}
// * * * * * * * * * * * * * * * * * * * * * * * * * * * * * * * * * * * * * //

dimensions      [0 1 -1 0 0 0 0];


internalField   nonuniform List<vector> 
37190
(
(1.02104 -0.0220184 -6.817e-22)
(1.00302 5.13674e-05 -1.42443e-22)
(1.01819 -0.00367643 0)
(1.01192 -0.00356682 0)
(1.04052 0.062041 0)
(1.01902 -0.0101541 1.33342e-21)
(1.05587 -0.0316603 -5.28027e-21)
(1.02728 -0.0683675 2.83293e-22)
(1.00812 0.000448948 0)
(0.439708 0.00678505 1.4294e-23)
(0.321867 -0.00180066 -9.25197e-21)
(0.695142 0.0815437 2.27222e-21)
(1.09353 -0.0658138 1.41418e-20)
(1.04423 -0.00942071 5.59346e-22)
(0.280263 -0.00452939 -1.46518e-20)
(0.914905 -0.0460404 0)
(1.01823 -0.00358524 8.46601e-22)
(1.01775 -0.146876 2.1616e-21)
(1.00675 -0.000870889 -2.06709e-22)
(1.03955 -0.017068 3.12691e-21)
(1.04916 -0.0281879 -3.68297e-21)
(1.05538 -0.175035 -3.62674e-21)
(1.01564 -0.00745963 9.10942e-22)
(0.425254 0.102742 0)
(1.03681 0.069732 0)
(1.00084 1.1097e-05 -3.01755e-22)
(0.486574 -0.0317711 -3.71933e-21)
(1.05909 -0.0125568 -9.66523e-21)
(0.326147 -0.00269518 0)
(1.02676 -0.00127491 9.17786e-22)
(0.951418 -0.043645 1.37722e-22)
(1.01944 -0.0152926 -5.84181e-22)
(1.01699 -0.0141967 4.32389e-22)
(1.04642 -0.0401891 0)
(1.01757 -0.0146264 0)
(0.916273 -0.0682073 -1.96833e-21)
(0.491094 -0.033484 1.06293e-20)
(0.771266 0.160636 1.47332e-21)
(1.00664 -0.000830781 1.92886e-22)
(1.02774 -0.0239053 0)
(0.735837 -0.0770773 0)
(1.01183 0.00180906 -1.14462e-23)
(0.919627 -0.0707158 -1.68579e-21)
(1.01955 -0.0151524 0)
(0.371601 -0.0164976 -4.74659e-21)
(1.05492 -0.00394607 3.35195e-21)
(0.37405 -0.0175873 1.30885e-20)
(0.636662 0.0914009 0)
(1.00938 0.00124646 -2.27709e-22)
(1.03642 -0.0317163 -4.80138e-21)
(1.01434 0.00307196 -3.46704e-22)
(1.00821 0.000796671 2.07045e-23)
(1.03064 -0.00602733 -1.21233e-21)
(1.07033 -0.0245673 0)
(1.01384 -0.00953117 -1.1526e-22)
(1.04926 -0.0561836 0)
(1.00834 0.000831512 3.95932e-24)
(1.01862 -0.0144914 0)
(0.981329 -0.0112316 2.23891e-22)
(0.950574 -0.0363117 0)
(1.02627 -0.0665397 -4.72623e-22)
(0.301499 -0.00719537 6.50466e-21)
(1.04998 -0.0285033 -2.1272e-21)
(1.00036 3.14312e-05 2.98358e-22)
(-0.0330064 0.0542019 2.19042e-20)
(0.771002 0.000837842 7.64605e-21)
(0.886435 0.0693583 0)
(0.587052 -0.100027 0)
(-0.05888 -0.237331 1.58312e-20)
(0.530945 -0.0277551 1.10106e-20)
(1.00663 -0.00081597 0)
(0.99582 0.0319674 0)
(1.01834 -0.0144547 0)
(1.01557 -0.00730617 0)
(1.01315 0.000955259 7.98483e-23)
(1.02829 0.0181061 5.42674e-22)
(0.161503 0.0229013 2.35655e-21)
(0.829276 -0.0495167 -7.89505e-21)
(1.01642 -0.0141403 0)
(0.853897 -0.0519525 0)
(0.385759 -0.0170522 1.43924e-20)
(1.01227 -0.00336001 8.13616e-24)
(0.574373 -0.0352568 0)
(1.01554 0.00559176 -6.43555e-23)
(0.431176 -0.00620403 -5.40923e-21)
(1.03042 -0.0412897 -9.65323e-22)
(0.99779 -0.0545514 1.22493e-20)
(1.04876 -0.0165932 -3.46527e-21)
(1.05616 -0.0324725 0)
(0.802364 -0.0061264 -1.54575e-22)
(1.00667 -0.000927701 0)
(0.360648 -0.00332524 0)
(1.01731 -0.0143416 -5.57616e-22)
(1.00203 5.18842e-05 0)
(1.03873 -0.0445719 0)
(0.88385 0.231664 0)
(1.03958 -0.0177886 -5.46651e-21)
(0.820868 -0.0110431 7.0595e-21)
(0.68135 -0.166471 -3.90781e-21)
(1.01319 0.000872967 0)
(0.385177 0.211186 1.63785e-21)
(1.04847 -0.0538843 1.31776e-22)
(1.03291 -0.00337233 4.60351e-21)
(1.00676 0.000352131 1.04424e-22)
(0.315147 -0.00296575 4.50376e-21)
(1.00188 4.53226e-05 0)
(1.02028 -0.0140989 3.2668e-21)
(0.24218 0.00533249 -1.85589e-23)
(0.432027 -0.0531137 -5.33651e-21)
(1.01913 -0.0114908 3.79788e-22)
(0.791618 -0.105522 -1.48968e-21)
(1.01276 -0.00450557 3.47241e-22)
(1.01208 -0.00322131 6.75459e-22)
(1.01285 -0.0045407 8.30458e-22)
(1.00131 0.0289146 7.70671e-22)
(1.01195 -0.00368747 7.71806e-22)
(0.395343 -0.018938 -1.6719e-20)
(1.02369 -0.0547358 1.09464e-20)
(1.03582 -0.0302409 -7.25443e-22)
(1.04731 -0.0154679 0)
(1.04765 0.0283257 0)
(0.858457 -0.0501557 -6.47676e-21)
(1.03131 -0.00198476 -4.73096e-21)
(1.01466 0.00341381 3.25994e-22)
(0.312502 -0.0089825 1.50116e-20)
(1.04771 -0.0302932 0)
(0.38568 -0.0060893 6.04387e-21)
(1.0318 -0.00184788 3.81546e-21)
(0.345929 -0.00204835 0)
(0.388893 0.203928 -1.46355e-22)
(0.467633 -0.0320504 4.28341e-21)
(1.01048 -0.000718235 5.1216e-22)
(1.0017 6.4505e-05 0)
(0.912002 0.0531943 1.45488e-22)
(1.00245 -6.50355e-06 0)
(0.868664 -0.0511746 2.39926e-21)
(1.01474 -0.0015618 -4.02244e-22)
(0.960219 -0.0185819 4.83154e-22)
(1.03147 0.0175618 -6.62556e-22)
(1.01952 0.084724 -4.60642e-21)
(0.733914 -0.119284 2.36512e-22)
(1.0529 0.0251003 0)
(1.00443 0.0118101 0)
(0.890836 0.229441 0)
(1.0405 -0.0187347 0)
(1.01376 0.00152792 3.71373e-22)
(1.04788 -0.0150806 0)
(1.05742 -0.0151394 6.53702e-21)
(1.01345 0.00146056 -2.11059e-22)
(0.520738 -0.0251114 -6.25374e-21)
(1.02004 -0.0140395 -2.02539e-21)
(1.00395 5.27136e-05 9.16371e-25)
(1.00697 0.000429167 -6.47544e-23)
(1.06954 -0.0335125 2.58591e-21)
(0.310515 -0.00836944 0)
(1.01517 -0.00675457 0)
(-0.0507318 -0.238285 -7.09936e-21)
(1.01858 -0.000179238 0)
(1.00616 -0.00663804 0)
(-0.0148779 -0.00886212 0)
(1.01784 -0.0137888 -2.18954e-22)
(1.03584 -0.0281392 5.68801e-21)
(1.01168 -0.00643568 0)
(1.01677 -0.0143572 0)
(-0.0758641 -0.225481 9.6142e-21)
(1.04762 -0.0162268 -3.08882e-21)
(0.380023 0.0051905 -1.91856e-21)
(0.407626 -0.00455031 -1.82442e-20)
(1.03649 -0.0306041 0)
(0.799579 -0.0817795 0)
(0.325364 -0.0224024 0)
(1.00807 0.00046641 0)
(1.00406 0.0155969 -2.13506e-23)
(1.00894 -0.00037214 -5.87511e-22)
(0.423265 0.0049383 -7.88343e-21)
(-0.00965255 0.122242 5.43684e-21)
(1.06892 -0.0861028 6.60266e-21)
(1.04312 -0.0467125 1.82007e-21)
(1.03413 -0.00772808 -2.65286e-21)
(0.429415 0.00474903 -8.57879e-21)
(1.06908 -0.033962 -3.09204e-21)
(1.04776 -0.0453636 2.77691e-21)
(0.814207 -0.0181616 -4.86818e-21)
(0.562637 -0.168454 -1.00141e-20)
(1.0485 -0.0301406 -7.55794e-21)
(0.0555969 0.0824123 0)
(1.01938 -0.0132309 0)
(0.429498 0.00471181 3.7532e-21)
(0.679458 0.0333798 9.4464e-22)
(1.05691 -0.0446229 -4.33229e-21)
(1.01336 0.00134161 4.38925e-22)
(1.09458 -0.072415 8.48312e-21)
(1.04658 -0.0446627 -2.48898e-21)
(1.03337 -0.00797698 5.29805e-21)
(1.01311 0.00129115 0)
(0.590955 -0.0378336 9.01179e-21)
(0.577555 -0.0341569 -4.00351e-21)
(0.375945 0.151105 9.61865e-22)
(0.781809 -0.140563 0)
(1.01694 -0.000626546 3.49902e-22)
(1.00154 2.76387e-05 0)
(1.07813 -0.0565618 9.02918e-21)
(1.01889 -0.0127063 1.04435e-21)
(1.01712 -0.00909742 7.92929e-24)
(0.764016 0.199379 -2.03687e-21)
(0.943289 0.0172108 -6.80106e-22)
(1.01082 -0.00132671 -1.03186e-21)
(1.01883 -0.000195399 0)
(0.352397 -0.00348397 -1.94839e-20)
(1.05606 -0.0440923 0)
(1.01867 -0.0126683 -4.57557e-22)
(1.01084 -0.00159718 -1.26724e-21)
(0.702121 0.203765 0)
(1.03249 -0.0159851 3.33061e-21)
(0.873876 -0.052507 0)
(1.05092 -0.0116747 6.20979e-21)
(1.01067 -0.00106463 -1.01766e-21)
(1.01927 -0.0130278 3.05857e-23)
(0.239187 0.0109047 1.71479e-20)
(1.01071 -0.00125004 8.74568e-22)
(1.05999 -0.012638 7.63991e-21)
(1.01124 -0.00224372 1.85258e-21)
(0.733393 0.0208445 -5.42933e-21)
(0.221529 -0.000749599 9.29251e-21)
(-0.0689728 -0.228034 7.69143e-21)
(1.00463 -0.0103877 0)
(1.09699 -0.0951943 1.76333e-21)
(0.566729 -0.0326697 6.15976e-21)
(1.0346 -0.00223688 -1.84021e-21)
(0.495377 -0.0146392 6.36732e-21)
(0.276045 0.00794471 -7.3403e-21)
(1.01436 -0.00152739 -2.28376e-25)
(1.00701 0.000436278 7.33727e-23)
(1.00238 -6.00869e-06 -2.77956e-22)
(1.01074 -0.00152015 1.04267e-21)
(1.01794 -0.0146855 -7.55379e-23)
(0.76331 -0.144023 0)
(1.00804 0.000812749 5.599e-23)
(1.01575 -0.000752659 -7.01931e-22)
(1.06888 -0.0506785 0)
(1.013 0.00120752 -1.34404e-23)
(0.371586 0.0035844 -3.3261e-21)
(1.06932 -0.0244915 -4.17317e-21)
(1.00658 0.000505702 0)
(0.442318 -0.00549739 -4.53644e-21)
(0.0706932 0.0681752 -1.11432e-20)
(1.01045 -0.000982017 1.21e-21)
(1.03109 -0.0419921 -2.83032e-22)
(0.107042 0.0422894 1.19884e-20)
(1.01591 -0.000482521 1.35228e-21)
(1.0448 -0.020193 -2.4733e-21)
(1.0231 -0.00147057 5.48643e-22)
(1.06817 -0.0523288 0)
(1.04706 -0.0166117 0)
(1.01275 0.0011808 -3.6651e-22)
(1.05801 -0.0146373 -2.90797e-21)
(1.01002 0.000260342 4.72151e-22)
(1.01691 -0.00967854 -9.13941e-22)
(1.03868 -0.0453288 -2.0008e-21)
(1.00727 0.000449346 -6.45799e-23)
(0.715289 0.20914 -2.31552e-22)
(0.279663 -0.00384831 0)
(1.02823 0.00478902 7.88549e-22)
(1.00798 0.000700695 0)
(0.889174 0.222046 0)
(1.04012 -0.0261408 3.75398e-21)
(1.0198 -0.00357026 0)
(0.997238 0.0074407 -2.77976e-23)
(1.01167 0.000509096 -1.79564e-24)
(1.0159 0.01107 8.76533e-22)
(1.02368 0.00316171 1.25366e-22)
(1.03477 -0.00197672 -5.96749e-21)
(0.865119 -0.212932 2.66611e-21)
(0.404068 0.0029337 5.90229e-22)
(1.04707 -0.0417748 -1.36759e-21)
(0.418158 0.004584 1.10036e-21)
(1.03921 -0.0442655 0)
(1.01982 -0.0135994 -1.19666e-21)
(0.410611 0.0036867 8.33495e-21)
(1.00701 0.000608974 -4.2634e-22)
(1.01179 0.000533223 0)
(1.05124 -0.0590205 -4.12132e-21)
(1.0216 -0.0222049 0)
(1.00797 0.000796477 0)
(0.629357 -0.0768777 0)
(1.01112 -0.00216466 -1.30338e-21)
(1.00266 -3.90595e-05 2.11974e-22)
(1.04306 -0.0459963 0)
(1.02242 0.0768526 4.72028e-21)
(1.01768 -0.0142414 0)
(1.03647 -0.0283318 -6.41733e-21)
(1.0331 -0.0162451 -5.21377e-21)
(1.02835 -0.0618388 0)
(0.547579 -0.0303471 -7.51601e-21)
(1.00726 0.00060976 1.73848e-22)
(0.392663 -0.00144074 1.82159e-20)
(1.00632 -0.000742027 4.86245e-23)
(1.01095 -0.000515669 0)
(0.405668 0.00746939 3.94484e-21)
(1.00425 9.13169e-05 2.19299e-24)
(1.02938 -0.0637457 0)
(1.05716 -0.163357 -2.04532e-21)
(0.892094 0.217603 1.66082e-21)
(0.541665 -0.0294322 0)
(1.01343 -0.0117033 2.1313e-22)
(1.01445 0.00969534 0)
(0.208799 0.0945376 -1.82392e-22)
(1.02183 -0.00308686 -2.52625e-23)
(0.364589 -0.0163148 0)
(0.634238 -0.122792 0)
(-0.0418015 0.0599057 -8.04419e-21)
(0.592253 -0.0349104 -1.04807e-22)
(0.398203 -0.00835386 9.59621e-21)
(1.02525 -0.216079 -1.34401e-21)
(1.02463 -0.000627685 -2.5788e-22)
(1.02519 0.000790545 2.39885e-22)
(1.02084 -0.010164 -2.50047e-23)
(1.01653 -0.000785107 0)
(-0.0965972 -0.208177 -4.07373e-21)
(1.0196 -0.0135557 1.1133e-21)
(0.550385 -0.0324681 8.09453e-24)
(0.597058 -0.0361804 0)
(1.02093 -0.000206432 2.33863e-21)
(1.03758 -0.0373842 0)
(1.01289 -0.0184745 0)
(0.935824 0.0288563 0)
(1.03677 -0.031167 3.65184e-21)
(0.589393 -0.0902061 1.93797e-20)
(0.367827 0.00498167 9.34462e-21)
(1.01174 0.000640356 -5.02863e-22)
(0.886023 0.217172 0)
(-0.0750646 -0.0254812 6.07101e-21)
(0.229159 0.0522839 -2.40618e-20)
(0.847656 -0.0521139 0)
(1.03054 -0.00628651 1.37131e-21)
(1.01186 0.000681422 4.3497e-22)
(1.01959 -0.00356091 5.31724e-22)
(1.005 -0.000296733 0)
(1.01566 -0.0022824 -3.10992e-22)
(1.0189 -0.000233779 -1.10431e-21)
(0.911912 -0.101766 7.85648e-22)
(1.01536 -0.00693797 0)
(0.21759 -0.110513 -1.85877e-21)
(1.03003 -0.00628975 0)
(0.561805 -0.0845697 0)
(1.0157 0.0113731 0)
(0.411608 -0.0106461 0)
(1.01163 0.000980685 2.57393e-22)
(0.915232 -0.120628 0)
(0.58175 -0.0732629 5.36533e-21)
(0.962298 -0.0269424 -4.871e-22)
(1.03201 -0.0137025 3.24381e-22)
(1.0326 -0.0228089 0)
(1.00806 0.000722514 1.01809e-24)
(1.05771 -0.127312 7.7271e-21)
(1.05811 -0.122524 -5.14333e-22)
(1.00694 -0.00101518 -7.59334e-23)
(1.01146 0.000979246 -5.45217e-23)
(0.478482 -0.0326874 -5.57734e-24)
(0.43385 0.107205 0)
(0.473461 -0.0315993 -4.4456e-23)
(0.499233 -0.0150643 0)
(0.862737 -0.22173 8.98722e-22)
(0.361455 -0.0155001 0)
(0.347925 -0.0148226 -1.63286e-20)
(0.595227 -0.141452 0)
(1.03468 -0.00784202 0)
(0.582299 0.128393 -1.39056e-20)
(1.00715 0.000603845 -3.53641e-22)
(-0.0266261 0.0592621 -2.83825e-20)
(1.0299 -0.00649183 0)
(0.900885 -0.145238 1.26166e-21)
(1.09452 -0.0721016 -7.0606e-21)
(0.0108965 0.0557447 -2.54076e-20)
(1.01511 0.00522584 0)
(1.00666 0.000402316 9.67876e-24)
(0.73732 -0.122517 -9.43394e-21)
(-0.0101364 -0.0139069 2.28412e-21)
(0.38025 0.18517 3.43558e-22)
(1.02639 0.0183817 -2.70047e-23)
(1.0129 -0.00761746 -1.55555e-22)
(0.204738 -0.000841989 0)
(1.02045 -0.000941976 -1.954e-21)
(0.735677 0.227111 0)
(0.985012 0.0109482 1.05497e-23)
(0.10429 0.030728 5.84428e-21)
(1.0142 0.00200146 1.18333e-22)
(1.0111 0.000954457 -1.37344e-22)
(1.01538 0.00353588 -3.42156e-23)
(1.02681 -0.0691313 6.78402e-21)
(1.08293 -0.104192 0)
(0.579391 0.0725018 1.0383e-21)
(1.0125 -0.00542172 0)
(1.00921 0.00121514 3.18486e-22)
(0.413655 -0.0139101 0)
(0.984356 0.00567903 -2.91771e-22)
(0.00832851 0.190211 0)
(0.498072 -0.0285837 -1.49825e-20)
(0.281315 -0.00193931 0)
(1.00832 0.000376456 1.0701e-22)
(0.399444 -0.00616207 7.049e-21)
(0.580859 -0.151616 3.07248e-21)
(1.01428 0.00263271 1.23783e-23)
(0.375575 0.00582681 -2.99752e-21)
(0.864882 -0.0522479 -7.15127e-21)
(1.01564 0.00368716 4.01236e-23)
(1.0832 -0.0686194 -2.32588e-20)
(1.05939 -0.0546193 -1.8022e-20)
(0.338013 -0.0135697 1.08886e-20)
(1.00779 -0.000782605 -4.34827e-22)
(1.0339 -0.00806697 -5.39795e-21)
(1.03223 -0.0224549 -6.99868e-23)
(1.01308 -0.00492317 -4.13192e-22)
(0.315387 0.00573551 0)
(1.0666 -0.0411837 0)
(0.801271 -0.079745 0)
(1.0223 -0.00347191 0)
(1.01264 -0.00526463 -2.18879e-22)
(-0.010408 0.098311 1.16944e-20)
(1.02058 -0.00989721 0)
(1.0105 0.000944481 0)
(0.905539 -0.137406 1.84317e-22)
(0.860005 -0.059997 -2.4926e-21)
(1.03767 -0.0368294 -2.07404e-21)
(1.02793 -0.000935637 0)
(1.00755 0.000639519 -7.25875e-24)
(1.0111 0.000961619 -4.96508e-22)
(1.00091 2.20748e-05 0)
(0.211862 -0.0440242 -1.393e-20)
(0.267051 -0.00204507 1.08897e-20)
(1.00758 0.000647906 0)
(1.01072 -0.000107968 0)
(1.00777 -0.000962831 0)
(0.980418 -0.00563696 -8.48995e-22)
(0.423098 -0.0155389 -2.5566e-21)
(1.03469 -0.00308489 0)
(1.06779 -0.025052 0)
(1.01311 -0.00490423 3.872e-22)
(1.06877 -0.0252409 0)
(0.0113546 -0.139153 0)
(1.01689 -0.000554776 -1.80877e-21)
(1.01663 -0.0102031 0)
(0.904282 -0.0527085 3.10722e-21)
(1.02087 -0.0335504 -5.57361e-22)
(0.254754 0.00716648 5.03125e-21)
(0.401824 -0.00060179 2.40281e-22)
(-0.0774397 -0.0326686 -5.07699e-21)
(1.07868 -0.0572101 1.11978e-20)
(1.01841 -0.0142455 0)
(1.04904 -0.0202999 0)
(0.415355 0.00310601 1.03418e-20)
(1.05462 -0.0414663 2.9135e-21)
(1.08084 -0.0410158 -1.63185e-20)
(1.04784 -0.0186429 0)
(0.421187 -0.0120629 3.27843e-21)
(0.396959 0.216146 -1.83204e-21)
(1.00988 0.000278466 -4.59943e-22)
(1.01882 -0.000135107 0)
(1.01201 0.00100283 -2.18357e-23)
(-0.0229794 0.0362391 -2.93825e-20)
(1.0073 0.000600273 -1.54295e-22)
(1.07833 -0.0505057 1.06488e-20)
(0.630484 -0.0813897 0)
(1.01768 -0.0116033 -4.76859e-22)
(1.07905 -0.0508717 -1.29804e-20)
(1.01177 0.000998741 -5.8035e-22)
(0.791192 -0.0454966 1.00329e-21)
(1.08569 -0.0428636 -3.11648e-21)
(1.01543 -0.00278697 0)
(0.889726 0.184337 3.56819e-21)
(1.01669 -0.0100909 0)
(1.03057 -0.00121936 0)
(1.00235 0.0913 3.14186e-21)
(1.01854 -0.0142086 0)
(1.09253 -0.0654649 -7.25104e-21)
(0.883752 0.21659 2.56216e-22)
(1.0345 -0.00340112 -4.64517e-23)
(1.05019 -0.0578868 0)
(1.02804 -0.000723452 3.50256e-21)
(1.00948 0.0212974 -1.00698e-21)
(0.25919 -0.105538 0)
(1.03246 -0.00313853 0)
(1.01218 0.00102883 -1.09839e-22)
(1.06011 -0.114781 -5.95025e-22)
(1.02648 0.0101909 1.30488e-21)
(1.0698 -0.0410113 0)
(0.807078 -0.0756928 0)
(1.05141 -0.0121965 0)
(-0.12594 0.0663516 -1.23556e-20)
(1.01537 -0.00267592 0)
(1.0925 -0.0952027 0)
(0.571507 -0.172844 3.39316e-21)
(1.01917 0.00953862 0)
(1.00819 0.000336651 -4.08051e-22)
(1.08012 -0.0412594 1.71585e-20)
(1.01767 -0.00469906 -7.38576e-22)
(1.01754 0.00517705 0)
(1.02392 0.0197156 2.37762e-23)
(1.01896 -0.0107906 1.48469e-21)
(1.0294 0.0186868 1.10096e-22)
(0.909323 -0.146302 -2.17314e-21)
(0.920088 -0.106047 0)
(-0.0901729 -0.216221 1.18927e-20)
(0.482227 0.223405 2.69222e-21)
(1.01327 -0.000465753 6.13403e-22)
(1.01367 -0.00930944 3.8477e-23)
(1.01306 -0.000604962 -1.7727e-22)
(1.01398 -0.000407957 0)
(1.04314 -0.0188113 -5.26815e-22)
(1.01851 -0.0123979 4.87091e-22)
(0.897962 0.164686 -6.77909e-21)
(1.00912 -0.000358067 2.34214e-22)
(1.01518 -0.00206981 -1.14469e-21)
(1.02586 -0.0721818 4.42522e-22)
(0.327 0.00688849 0)
(1.0084 0.0180757 1.13958e-21)
(0.453242 -0.00925576 -9.14294e-21)
(1.01753 -0.0113574 0)
(1.02781 -0.0019686 -4.32794e-21)
(0.37601 0.195264 -5.2585e-22)
(1.03373 -0.0228516 -2.46767e-21)
(0.250844 -0.109788 0)
(1.06511 -0.0413995 7.95515e-21)
(1.04797 -0.0339741 1.84382e-21)
(1.02564 -0.00149289 0)
(0.911079 -0.159739 2.94839e-21)
(1.0273 -0.0425049 -8.24623e-22)
(0.731188 -0.212523 3.66602e-21)
(1.0178 -0.0140364 0)
(1.01676 -0.0106032 0)
(1.00827 0.000356627 5.98839e-22)
(1.05095 -0.0603251 4.37099e-21)
(1.04404 -0.0199008 -2.322e-21)
(1.01922 -0.0108855 -4.58247e-23)
(0.79296 -0.087699 -3.59177e-21)
(1.01112 -0.00198472 -1.34128e-21)
(1.01028 0.0104751 -3.31034e-22)
(0.857449 -0.227494 -1.44489e-22)
(1.01178 -0.204723 0)
(1.01919 0.0248773 2.44621e-22)
(1.01862 0.00549668 0)
(0.951952 -0.00797085 -2.50362e-22)
(1.02876 -0.0399417 0)
(-0.0187379 0.0574288 6.42413e-21)
(1.01422 0.0134363 -5.61987e-24)
(0.412665 -0.00990453 1.25316e-20)
(0.726789 0.060218 0)
(1.01926 -0.0102215 8.11064e-22)
(1.0084 -0.00225986 0)
(1.01009 0.000962412 0)
(0.400856 -0.00892545 -7.09091e-21)
(0.931003 -0.102699 -1.1179e-22)
(0.905595 -0.154941 -2.63399e-21)
(1.00848 0.000866717 -5.40302e-24)
(0.29861 -0.00195976 4.40541e-21)
(1.02788 -0.00175585 -3.66544e-22)
(1.04063 -0.0251058 0)
(0.421523 -0.0594513 0)
(1.01853 -0.0157211 2.11023e-22)
(0.624559 -0.241377 0)
(0.898522 -0.14798 1.79964e-21)
(0.018077 0.0741387 3.73582e-20)
(1.01101 -0.00191839 1.93844e-21)
(1.01836 -0.0121299 9.53647e-22)
(1.07985 -0.104901 -1.09177e-22)
(0.922647 0.0634599 -2.4356e-22)
(0.580948 -0.0809847 -2.07789e-20)
(0.515249 -0.0300857 -1.91999e-21)
(1.00265 4.45775e-05 1.00571e-22)
(0.595708 -0.0368673 -1.05577e-21)
(0.941318 -0.106043 -1.39656e-22)
(1.00229 0.00980356 0)
(1.00941 -0.0005176 0)
(0.759855 0.0579502 0)
(0.0296955 -0.102252 -5.89563e-21)
(0.533475 -0.0307051 -8.2178e-21)
(-0.0545507 -0.0945074 -1.81826e-20)
(1.00566 -0.000453219 -1.61105e-22)
(1.02259 -0.0729023 0)
(1.05872 -0.0260008 -7.30692e-22)
(1.01184 0.000805992 2.97678e-22)
(1.02529 -0.0221337 -1.38001e-21)
(1.02078 -0.0215808 8.26903e-22)
(1.03482 -0.00251519 0)
(-0.00208197 0.194739 0)
(0.8967 0.108776 1.3686e-22)
(0.912882 -0.128342 2.61127e-21)
(0.941871 -0.118135 -6.72112e-22)
(1.02815 -0.0244912 0)
(1.07772 -0.0427886 4.72331e-21)
(0.934114 -0.142943 -2.24247e-21)
(1.00568 -0.000125242 0)
(0.0622159 -0.0983003 -4.27292e-21)
(1.0095 -0.00306016 -1.8211e-22)
(0.887052 0.0897261 1.48028e-22)
(0.946944 -0.0516216 0)
(0.955341 -0.00119387 -4.99479e-22)
(0.878831 -0.123174 2.11166e-22)
(1.01779 -0.0146919 -3.30413e-24)
(1.01857 -0.00689009 -1.93194e-21)
(1.03092 -0.00175994 3.42922e-21)
(1.02715 -0.0237317 0)
(1.01177 -0.000794026 0)
(0.46174 0.225315 -3.17562e-21)
(1.06605 -0.0416777 -5.85951e-21)
(1.06975 -0.0503383 0)
(1.01024 0.000127179 2.96092e-22)
(0.525397 -0.0262377 -3.25116e-21)
(0.918998 0.152366 2.04141e-22)
(1.02639 -0.00135498 2.442e-21)
(1.00566 -0.000149373 1.7217e-22)
(0.425447 -0.0092247 -7.54226e-21)
(1.01591 -0.000513448 -3.06139e-21)
(1.00093 2.45381e-05 0)
(1.04763 -0.0204422 -1.59273e-21)
(-0.0533898 0.141692 4.76051e-21)
(1.01839 -0.00674758 -9.565e-22)
(0.856491 -0.229679 -2.46555e-21)
(1.0056 -0.000418953 -5.15422e-23)
(1.10418 -0.0603606 0)
(0.0170502 -0.130946 0)
(1.01271 -0.00894932 0)
(1.00709 -0.00109871 1.53124e-22)
(1.03325 -0.0230256 0)
(1.01197 0.000877958 -2.46149e-22)
(1.01879 -0.0146492 0)
(-0.0486257 0.0550941 9.39247e-22)
(1.0565 -0.0260344 0)
(0.72762 -0.198824 -3.85324e-21)
(1.01473 -0.00060876 0)
(0.556276 0.212474 1.90352e-21)
(1.00962 -0.00315039 3.7007e-22)
(1.09396 -0.0703119 2.25362e-20)
(0.165584 -0.00149024 1.76405e-20)
(1.10373 -0.060938 -1.17266e-21)
(0.608105 -0.245908 4.40703e-23)
(0.899229 -0.0516864 -3.43815e-21)
(1.02271 0.00441942 1.3663e-21)
(1.01452 -0.00240451 1.43775e-22)
(1.01174 7.07399e-05 2.1643e-22)
(0.557471 -0.177466 -1.20872e-21)
(0.193528 -0.0010302 0)
(1.06758 -0.0416018 -5.50028e-21)
(1.07039 -0.178965 -1.86656e-21)
(1.01551 -0.00246292 1.24269e-21)
(0.552463 -0.0504712 0)
(1.0322 -0.00209282 1.29782e-21)
(1.01435 0.00270773 -1.17015e-23)
(1.01173 -0.035967 -7.54584e-23)
(0.166418 0.0263436 -1.63752e-21)
(1.0068 0.000346823 -4.92284e-23)
(1.03974 -0.0442652 2.19156e-21)
(1.03271 -0.0543982 6.16934e-21)
(0.547393 -0.179036 -3.75314e-21)
(0.518625 0.214483 1.48035e-21)
(0.405088 -0.0194766 0)
(1.01156 -0.00501135 0)
(0.939162 0.00687047 3.34238e-22)
(0.626668 0.144999 8.28379e-21)
(1.00078 2.31375e-06 -7.7488e-23)
(1.02095 -0.0190183 0)
(0.577822 -0.0344816 -4.27238e-21)
(0.713959 -0.0954624 4.38443e-21)
(1.06118 -0.0442667 5.20956e-21)
(0.826432 -0.0760455 1.25688e-20)
(1.04072 -0.0259989 0)
(1.01924 -0.00461681 0)
(1.02089 -0.023145 0)
(0.765038 0.146173 -4.97189e-21)
(1.03488 -0.0232516 5.13152e-21)
(1.01449 -0.000837344 2.66743e-21)
(1.00937 -0.000760101 1.2368e-22)
(1.0203 -0.000819707 0)
(1.07359 -0.0698984 2.58824e-20)
(0.177295 -0.00152576 0)
(1.01162 -0.00504142 0)
(1.00852 -0.00234393 -6.86947e-23)
(1.00705 0.0169371 -3.66735e-22)
(0.488643 0.111292 -2.83701e-22)
(1.0449 -0.00948271 4.02325e-21)
(1.01172 -0.00595253 -7.66367e-22)
(0.338704 -0.00124583 2.00771e-20)
(1.01081 -0.003696 8.80283e-23)
(1.06633 -0.0502959 -3.28089e-21)
(1.02881 -0.00742508 0)
(1.00624 -0.000706729 0)
(1.03271 -0.0146824 -1.24836e-21)
(0.538948 0.0945978 4.02019e-21)
(1.06842 -0.0844739 -3.38905e-21)
(0.949251 0.00673317 0)
(1.0092 -0.000763154 -4.99933e-22)
(1.01141 -0.00629789 5.38005e-22)
(1.05373 -0.0609834 -4.19252e-21)
(0.457818 -0.00677545 -8.6798e-21)
(1.02112 -0.000156684 0)
(1.01156 -0.00494125 -1.58865e-23)
(0.93603 -0.129758 -1.70804e-22)
(1.0176 -0.00980939 1.61789e-21)
(1.01006 0.000953551 0)
(1.06575 -0.0932245 -9.87671e-22)
(1.00689 -0.000984851 9.32201e-23)
(1.0073 0.000446096 -2.26609e-23)
(1.09104 -0.106279 -6.41766e-21)
(1.0067 -0.000952262 -6.69314e-23)
(1.06458 -0.041813 0)
(1.00712 0.000685162 1.16645e-22)
(1.01674 0.00218309 2.33219e-22)
(1.0845 -0.0410473 0)
(1.08863 -0.0484305 -1.33668e-20)
(1.01164 -0.00511724 8.19011e-23)
(1.05398 -0.0596689 -1.35112e-21)
(1.00703 0.000656683 -6.43798e-23)
(0.371306 -0.0101934 -1.45869e-20)
(1.00675 0.0170684 0)
(1.0057 -0.000326505 0)
(0.63584 0.0569895 8.78076e-21)
(1.01417 0.00177964 2.94634e-22)
(1.01554 -0.00260575 0)
(0.444652 -0.0124175 -6.83032e-21)
(0.394851 -0.0181532 -6.17542e-21)
(0.382501 -0.149049 -1.958e-22)
(1.01886 -0.0444051 0)
(1.00683 -0.00039855 1.6363e-22)
(1.04356 -0.00782064 0)
(1.01199 0.00184731 0)
(1.06316 -0.092327 5.55497e-21)
(0.936256 -0.144972 -2.08725e-21)
(0.00492396 -0.0291577 0)
(1.06216 -0.0419156 4.76899e-21)
(0.00737773 0.189588 -7.40745e-21)
(1.01093 -0.000143328 2.75292e-22)
(0.539508 -0.0329128 0)
(1.04531 -0.0196778 0)
(1.02204 -0.00323376 2.97899e-24)
(1.06706 -0.0883491 0)
(1.00446 -0.00584537 0)
(0.95334 0.0139572 0)
(1.01399 -0.00466318 7.65384e-22)
(1.05569 -0.0327027 0)
(1.00901 0.0011903 2.74741e-24)
(1.00568 -0.000460843 3.43767e-22)
(1.02861 -0.0160118 2.34388e-22)
(0.986151 0.041102 0)
(1.06724 -0.0506406 0)
(0.0861375 0.110489 -3.8588e-20)
(1.02499 -0.022521 1.43136e-21)
(0.356331 -0.0155878 0)
(0.436247 -0.0114023 -3.39058e-21)
(0.275644 0.00820982 4.3954e-23)
(0.960223 -0.0439495 -4.13168e-22)
(0.886086 0.0699639 6.396e-22)
(1.01388 0.00291125 6.05824e-23)
(1.02474 -0.00179799 -2.03763e-22)
(1.00613 -0.000653669 -1.49495e-24)
(0.887863 0.0733275 -1.05845e-21)
(1.01736 0.00201071 0)
(1.01074 0.0152309 0)
(0.663819 -0.177121 -3.01724e-21)
(-0.0208615 0.158521 -1.31156e-20)
(1.01407 -0.00607226 8.25816e-22)
(0.638436 -0.0770023 3.10876e-21)
(1.00351 -0.0280066 -9.08849e-22)
(1.00999 -0.00305405 -2.77945e-22)
(1.01565 -0.000550082 -2.27901e-23)
(1.02559 0.0208916 -5.93723e-22)
(1.00576 -0.000152646 1.79813e-22)
(0.999218 0.0104478 4.25628e-22)
(1.00632 0.000259579 0)
(1.01682 -0.0135977 1.12821e-22)
(0.215234 0.107541 -3.18613e-22)
(1.02839 -0.0073355 2.04357e-21)
(1.01873 -0.0149797 0)
(1.00976 -0.00213802 2.98561e-23)
(1.01468 0.00472333 0)
(1.00886 0.000384615 -2.43897e-22)
(1.05552 -0.058205 5.7523e-21)
(1.00107 -4.83791e-05 -4.29354e-23)
(1.00665 -0.000781485 -5.34701e-23)
(1.04126 -0.0249473 4.80573e-21)
(1.05787 -0.0666737 0)
(1.00986 0.000932827 0)
(1.00662 0.000515098 -1.23932e-22)
(1.02919 -0.007245 -4.39742e-21)
(0.89374 -0.0355751 0)
(1.00557 -0.00041134 -1.6026e-22)
(0.879714 -0.050975 4.38673e-21)
(1.01614 0.0104505 0)
(1.02762 -0.0666825 -5.10035e-21)
(1.01483 0.00382331 -9.26189e-22)
(1.0386 -0.0394379 -7.96432e-23)
(1.00695 -0.00042573 -5.78642e-22)
(1.01493 -0.00244617 2.17182e-22)
(1.00578 -0.000127019 0)
(1.02368 -0.0138559 0)
(1.00722 0.00060122 -1.72293e-22)
(1.03459 -0.01177 -4.75083e-22)
(1.02923 -0.00702816 7.46756e-21)
(1.01747 -0.0121484 6.66595e-22)
(1.01168 0.000103837 6.6015e-23)
(0.997605 -0.100418 2.04614e-21)
(1.0693 -0.0965531 0)
(1.01102 -0.00391209 -4.40947e-23)
(1.0129 -0.00521197 0)
(1.01029 0.00098582 1.90527e-22)
(0.724181 0.226461 1.57658e-23)
(1.05625 -0.0251076 0)
(-0.110911 -0.192918 5.40888e-21)
(1.01539 0.0153601 -1.69541e-23)
(0.562252 -0.0326197 0)
(1.03129 0.00963917 0)
(1.01098 -0.00425706 0)
(1.03437 -0.00690752 0)
(1.00424 -0.00021413 0)
(-0.0217879 0.151161 2.7512e-21)
(1.03508 -0.00751573 4.01995e-21)
(1.01855 -0.01577 -8.13652e-23)
(1.02969 0.0118395 -2.51248e-22)
(1.02098 -0.0137867 -3.54191e-22)
(0.517886 0.121694 -2.07472e-20)
(1.01751 -0.00517937 2.32314e-22)
(1.00328 -0.0267766 -6.84039e-22)
(1.06815 -0.0410468 -8.24353e-23)
(1.01442 -0.000426495 -2.44823e-21)
(0.578339 -0.0994583 1.89486e-20)
(1.0554 -0.0249124 0)
(0.256213 -0.0589787 2.85797e-20)
(0.868811 -0.20017 0)
(1.00025 2.66811e-05 0)
(1.02731 0.00721332 0)
(1.00671 0.000425442 2.51608e-23)
(-0.120326 0.071017 1.5782e-20)
(1.01442 -0.00629265 0)
(0.759416 0.188061 2.51602e-21)
(0.392564 -0.0132264 0)
(1.00943 -0.13403 0)
(1.01701 0.00920146 -1.41215e-21)
(1.01628 0.00698074 0)
(1.00562 -0.000437381 0)
(1.02111 -0.00059431 0)
(0.360821 -0.0169866 -5.25177e-21)
(0.86065 -0.227342 0)
(0.410723 -0.00925793 6.40253e-21)
(1.01193 -0.00659662 4.66695e-22)
(1.03767 -0.0208567 0)
(1.01293 -0.00517627 5.20153e-23)
(0.982125 -0.0548498 0)
(1.03796 -0.0206039 0)
(1.00678 -0.000889937 0)
(0.392118 0.00441962 0)
(1.07412 -0.032353 -6.69859e-21)
(1.01903 -0.0792719 0)
(1.00385 -0.000195137 -8.99791e-24)
(1.01937 -0.00524939 -1.08768e-21)
(1.02581 -0.0154918 0)
(1.01092 -0.00388175 6.64824e-23)
(1.03098 -0.00140471 1.26285e-21)
(0.843934 -0.0551953 6.48654e-21)
(1.03147 -0.0220737 -2.01793e-21)
(0.942141 0.0387874 0)
(0.906166 0.00864867 8.7756e-23)
(0.455815 -0.0147206 0)
(1.03746 -0.038869 0)
(1.00893 -0.0309368 7.29596e-23)
(1.06724 -0.025779 0)
(1.0614 -0.0271538 -4.15976e-21)
(0.429162 -0.0107263 0)
(-0.0810473 -0.229115 2.56297e-21)
(0.385722 -0.0041275 -1.66153e-20)
(1.08901 -0.10705 -1.10851e-20)
(1.00776 -0.000896631 1.7592e-22)
(0.830434 0.0271327 6.38251e-21)
(1.02297 -0.00589406 1.6776e-21)
(1.02296 0.000258649 0)
(1.00824 -0.00210389 -2.09747e-22)
(0.41362 0.143973 1.14624e-21)
(0.90997 0.219904 -2.68669e-21)
(0.892736 -0.0507575 5.25052e-21)
(0.0869792 -0.250008 0)
(1.01776 -0.0135306 4.94145e-22)
(0.907304 0.109972 0)
(0.887138 -0.0456504 -2.28239e-21)
(0.331615 -0.00313738 -6.68539e-21)
(1.01166 -0.0656472 1.61374e-21)
(1.03793 -0.045507 2.83162e-21)
(0.994458 -0.210968 -7.46601e-22)
(1.01029 7.8508e-05 -1.5373e-25)
(0.571467 -0.0334081 -1.9548e-20)
(0.913271 0.130039 0)
(-0.0173141 0.0389402 1.02103e-20)
(1.02751 -0.0201856 1.72073e-21)
(1.02435 -0.00968252 1.27971e-22)
(1.01459 0.00448943 2.48611e-22)
(0.873261 0.0699228 4.52942e-21)
(1.0091 0.0010736 0)
(1.01029 -8.57751e-05 5.05359e-22)
(1.03497 -0.00376056 3.92349e-21)
(1.02027 -0.0113202 0)
(1.01035 -9.11589e-05 -4.4948e-22)
(1.04381 -0.00887729 -2.19066e-21)
(1.02011 -0.000855237 2.55103e-21)
(1.03388 -0.00693909 0)
(1.01825 -0.0101601 0)
(1.01301 0.00960985 -2.9025e-22)
(0.881646 0.0527752 -9.51062e-21)
(1.01423 0.00409226 -2.52774e-22)
(1.00709 -0.00116045 1.81711e-23)
(-0.112227 0.0494303 1.1586e-20)
(1.06822 -0.0344052 2.35172e-20)
(1.0079 -0.000991556 0)
(1.04287 -0.00787407 0)
(1.01009 -0.00309267 9.85034e-23)
(1.03716 -0.128702 3.89911e-22)
(0.549449 -0.0921454 0)
(1.04213 -0.00644034 -4.53141e-21)
(1.03436 -0.0234244 0)
(1.02982 -0.0579044 0)
(1.0209 -0.000615155 -1.17417e-21)
(1.06097 -0.0306892 3.58774e-21)
(1.00593 -0.0626562 -1.84e-22)
(1.05004 -0.0116864 -5.96893e-21)
(1.08598 -0.0527018 -5.16966e-21)
(1.01094 0.0067742 6.0189e-22)
(-0.0459301 0.147408 5.09147e-21)
(0.439934 -0.012458 1.18671e-20)
(1.0169 -0.00903897 -1.14426e-21)
(1.00547 0.000183243 7.00293e-23)
(1.01447 0.0029279 0)
(0.57146 -0.0882596 0)
(0.507831 -0.0188922 0)
(1.00703 -0.00112349 0)
(1.01519 0.00674541 1.47141e-22)
(0.0197702 0.135968 9.86482e-21)
(1.00838 0.00027974 -4.50871e-22)
(0.832111 -0.0553345 0)
(1.04101 -0.0345325 5.11919e-21)
(0.886292 0.209197 -5.48587e-21)
(1.07845 -0.0431332 0)
(1.00845 0.000308526 5.58418e-22)
(0.839669 -0.055163 0)
(1.00654 -0.000781981 -5.87782e-23)
(0.515824 -0.0227109 -2.1737e-21)
(0.880517 -0.0563088 -2.77195e-21)
(1.04257 -0.0535718 0)
(1.01086 0.00546088 -2.69841e-22)
(1.02434 0.000832326 1.73024e-21)
(1.03899 -0.0567477 6.18272e-21)
(1.03865 -0.0197963 0)
(0.323605 0.00703246 4.66548e-21)
(1.00754 0.000591505 0)
(1.04054 -0.0347532 -5.27618e-21)
(0.313298 -0.00287576 -1.8843e-21)
(1.0446 -0.0407574 -8.73046e-22)