/*--------------------------------*- C++ -*----------------------------------*\
| =========                 |                                                 |
| \\      /  F ield         | OpenFOAM: The Open Source CFD Toolbox           |
|  \\    /   O peration     | Version:  v2012                                 |
|   \\  /    A nd           | Website:  www.openfoam.com                      |
|    \\/     M anipulation  |                                                 |
\*---------------------------------------------------------------------------*/
FoamFile
{
    version     2.0;
    format      ascii;
    class       volScalarField;
    location    "300";
    object      ddt0(omega);
}
// * * * * * * * * * * * * * * * * * * * * * * * * * * * * * * * * * * * * * //

dimensions      [0 0 -2 0 0 0 0];


internalField   nonuniform List<scalar> 
37190
(
-1.0307e-05
2.11889e-06
-1.53002e-07
-2.64349e-07
-0.255795
1.12967e-06
1.72622e-05
0.00116307
-5.4243e-07
0.0320662
-0.0678438
-0.104278
-0.000962296
1.76431e-06
-0.0288555
0.0526989
-1.68052e-07
0.302767
3.07706e-07
2.87438e-08
7.01572e-06
-0.0233929
3.84027e-07
-0.0240734
-0.377808
1.41528e-06
0.0232531
5.46992e-06
-0.040996
4.39409e-07
0.0262972
7.25268e-06
2.4769e-05
-0.000189318
4.52853e-05
0.226181
0.0226631
-0.0954748
2.69458e-07
-1.24964e-05
0.628137
-8.96871e-07
0.0556508
6.82289e-06
0.0135992
-0.0217521
0.0144806
-0.0846202
-7.73755e-07
-7.75973e-06
6.26781e-05
-1.68054e-07
5.7983e-07
2.43982e-05
-8.27891e-06
0.000523219
-1.69106e-07
8.85582e-06
0.0831912
0.017801
0.00107523
0.00409139
7.98237e-06
1.3097e-06
0.0798653
0.028466
-0.00038232
-0.0800557
-0.165918
0.000869854
2.29705e-07
-0.00307931
5.52286e-05
3.56221e-07
1.56022e-06
-0.00189814
-0.11636
0.000359517
1.43052e-05
-0.00148421
0.0148675
-2.11508e-07
0.0177622
6.4204e-05
-0.0458746
2.21691e-05
-0.0146887
0.00134516
1.83197e-05
0.380911
2.53931e-07
-0.0512962
3.23398e-05
1.8059e-06
9.89785e-05
-0.082661
-5.86418e-07
0.0147999
0.148768
1.3352e-06
-0.0685031
0.000694007
7.26338e-07
4.20698e-07
-0.067528
1.8864e-06
3.30469e-06
0.06298
-0.393932
1.88969e-06
0.624251
-3.51104e-06
-2.09897e-07
-2.91669e-06
-0.00293868
-2.82316e-07
0.0162429
-0.0159035
-1.03844e-05
3.00695e-06
-0.00491709
-0.00240103
5.77433e-07
7.12074e-05
1.16327
6.43098e-06
-0.0202349
5.6422e-07
-0.0402073
-0.0745425
0.020325
2.47692e-07
1.65058e-06
0.000653024
1.10214e-06
0.261717
9.28937e-06
-0.00649357
-0.379316
-0.127292
0.0218101
-0.00482097
0.0151739
-0.0416013
-5.25204e-07
1.05439e-05
2.96778e-06
6.13016e-06
9.10377e-06
-0.00121725
3.46255e-06
1.53504e-06
2.70541e-07
4.76624e-05
0.0042829
2.77322e-07
-0.245737
7.7027e-08
-0.000359977
0.234398
1.10264e-05
-8.9426e-06
-2.08268e-05
2.47178e-05
0.0911601
3.00149e-06
0.025016
-0.0237178
-9.26468e-06
0.0269023
0.973919
-6.02943e-07
0.0206849
-2.28437e-07
0.0289053
-3.93589
0.000129036
-5.3126e-05
7.77874e-07
0.0277902
4.7395e-05
6.95234e-05
0.470827
0.165255
6.74334e-06
-0.587394
3.52605e-06
0.0339733
0.0530945
4.30364e-05
6.30928e-06
0.00155955
0.000105948
6.52819e-07
5.41962e-06
0.0215522
0.0369651
0.00209771
0.0309091
6.83028e-08
1.6657e-06
0.00025563
3.41682e-06
1.00642e-06
-0.0932425
0.0930984
-4.48451e-08
1.32126e-07
-0.0338849
3.499e-05
3.4614e-06
-6.85432e-08
-0.324565
-2.18965e-06
-0.00163414
3.06277e-06
-4.26306e-08
3.58102e-06
1.14352
-3.85426e-08
5.78509e-06
-1.24675e-07
0.03208
0.0256706
-0.0194271
-0.423096
-0.0596569
0.027646
6.15682e-07
-0.0572396
0.0308835
8.36158e-06
2.76291e-07
9.92834e-07
-5.68084e-08
4.80507e-05
0.0303465
4.8602e-07
-2.20945e-08
0.000167683
4.29311e-06
0.0334135
2.39001e-05
-2.04199e-07
-0.0328127
-0.190299
-5.55802e-08
3.34938e-05
1.97521
1.46943e-07
1.79335e-06
-0.000147951
0.000182889
2.93695e-06
4.07571e-06
6.06491e-06
-1.19331e-06
1.00974e-06
8.49333e-05
2.45867e-07
-0.173093
-0.0218519
-0.000334462
-1.5279e-07
-0.0145292
-2.96216e-06
-2.95254e-07
0.0446059
-4.17373e-06
-0.00124682
-0.000706725
5.69175e-07
0.0603895
0.0335852
-0.000168162
0.0271844
1.92512e-05
3.55556e-06
0.0349373
-1.06959e-07
-3.49399e-06
0.000127102
-1.17099e-05
4.90052e-07
-0.0047721
-1.15467e-07
3.39768e-07
-5.33969e-05
-0.0810104
3.88689e-05
-8.36486e-06
-2.13552e-06
0.000766197
0.0236693
3.92163e-07
-0.026146
1.96353e-07
3.97582e-07
0.0190974
1.45314e-06
0.000866528
-0.00131547
0.00985828
0.0213097
-2.3036e-05
0.0010171
-0.0826925
-7.17915e-08
0.0135003
-0.034544
0.0510263
0.0382636
-0.0109775
-0.0577439
-0.000214422
-0.000413776
2.33654e-07
-2.6002e-05
0.426296
3.68173e-06
0.0353114
0.0366033
2.45251e-07
9.26809e-06
-0.323922
0.0898367
-7.65715e-06
-0.0686482
0.0295825
-2.25992e-06
0.0157856
0.49478
-0.052644
-0.00172957
5.15835e-07
-1.14888e-06
-2.99701e-07
2.58082e-08
1.62594e-07
1.13832e-07
0.0568878
3.64382e-07
-1.17457
4.77365e-07
-0.6511
0.00146436
-0.00463784
3.36708e-07
0.0553834
-0.0893638
-0.0063191
-0.000149459
-7.17801e-06
-1.67709e-07
-0.0543972
0.0880523
3.37861e-07
4.05437e-07
0.0214726
-0.0363186
0.0222498
-0.0579832
0.0550281
0.012561
0.012255
0.0289969
8.28767e-07
-0.060546
3.7773e-07
0.0200313
4.21532e-07
-0.0348758
-0.00135952
-0.0622164
-0.000109458
1.08275e-07
0.0220646
0.399226
-0.0934315
-0.000696604
-4.73985e-06
0.0295317
1.48613e-07
-0.0498946
0.116227
-2.85204
1.69783e-05
-1.78249e-07
6.13752e-06
0.000300697
-0.0232902
0.0870903
-2.54394e-06
-7.36913e-07
0.00697414
0.11666
-0.720393
0.0305439
-0.143206
1.2219e-07
-0.0196318
0.0719774
1.5067e-06
0.025486
-0.00187109
9.69541e-06
-0.164411
-0.0109039
0.0110735
-6.41065e-07
6.98847e-07
-7.6814e-06
7.94387e-06
0.0504652
7.35099e-05
0.0269106
-0.000172209
-7.29577e-07
-1.01803
2.30341e-07
2.27146e-07
-0.0276081
0.561136
4.45922e-06
4.26564e-07
3.2905e-07
-3.59597e-07
7.4964e-07
-0.0876351
-0.0215399
3.42688e-07
-2.02207e-06
4.495e-08
0.100445
0.00994948
6.95794e-07
2.35105e-05
9.4274e-06
2.43466e-05
0.511106
3.72788e-08
7.90089e-07
-0.00191497
0.00101806
0.0237901
0.137227
0.539609
0.000266547
5.67736e-05
4.24198e-06
0.0339041
0.00374784
0.000101543
3.34736e-06
-0.00235328
-0.0523445
-8.97624e-07
1.45001e-07
7.80188e-07
0.459013
5.55826e-07
0.000189306
-0.00438847
2.3602e-06
0.000198107
5.70861e-07
0.367201
8.76944e-05
1.98389e-07
0.110385
7.63853e-07
4.82091e-07
-0.0149188
8.53874e-06
-0.000473963
-0.00949228
7.26047e-07
9.24029e-05
3.98693e-07
-0.000411949
-1.12625
7.12086e-07
1.35398e-06
-0.00965933
-0.00113093
8.3254e-05
0.0262701
3.4269e-06
0.0855703
1.82447e-07
-0.0387035
0.160359
-0.00109775
3.91757e-08
0.00010098
5.12241e-05
7.70521e-05
-0.000760275
1.51354e-06
-0.271346
0.0458157
0.209382
0.281157
0.0539844
4.713e-06
-8.19285e-06
4.7009e-06
-5.2115e-07
9.15089e-07
3.19093e-06
0.221684
-2.10548e-07
1.74972e-07
0.00156499
0.0184196
0.000439265
-0.227373
2.17295e-06
5.01823e-07
-0.0851308
-7.22954e-06
-0.893288
7.01187e-05
7.76212e-06
4.25171e-07
0.0331998
2.66161e-05
-0.0810341
4.40938e-05
1.04763e-06
1.87533e-07
0.00011664
1.48817e-06
1.48152e-06
0.481438
-9.94726e-08
0.00344196
0.0945374
-0.0709007
-0.00033492
0.000135281
0.0019559
-1.76402e-07
0.0985817
0.0141273
-0.00790085
-0.0545499
1.05339e-06
-2.11712e-07
1.12849e-06
-0.007941
-0.0187506
-0.0360528
-2.79906e-07
-0.110413
5.00089e-07
-1.79229e-06
-0.542256
8.16472e-05
0.0467581
-0.0312058
-0.0624528
-9.88308e-08
2.99068e-06
-0.0229837
0.00338743
-0.1106
0.0319071
1.89218e-06
0.0280889
-0.018065
0.0201123
2.169e-07
-0.0881955
0.176595
0.034306
0.852623
-2.02063e-08
0.00158974
1.38587e-05
-1.29194e-06
-9.51412e-06
-9.50699e-06
6.34372e-07
-0.593161
0.00169359
-0.0211984
-0.00418469
-1.34339e-05
0.000115321
0.681263
2.25501e-07
-0.0913434
4.56366e-07
0.00649084
0.130299
0.00196986
0.0236194
2.68052e-05
2.2909e-07
5.53065e-07
-1.23713e-05
4.63631e-07
0.0295178
7.26798e-05
0.000166001
-1.80075e-06
-0.00485601
-0.129791
4.50619e-07
1.60186e-07
-0.0121851
1.37461e-07
7.1516e-07
3.51513e-06
-0.0119529
2.36652e-07
0.0875715
-2.6557e-08
-0.0242661
0.429965
-0.000108991
3.15369e-07
-7.47838e-06
5.87199e-07
6.98128e-05
0.0659299
1.31118e-05
-0.0643951
7.42071e-06
0.170287
4.90302e-07
-0.00171755
-0.099287
-0.0189214
0.0774483
-0.00445024
-0.000732163
1.05156e-05
2.95716e-06
0.18626
0.0333707
7.97693e-05
-0.0221207
1.72527e-07
-0.497022
6.09689e-07
-2.4002e-08
-0.000118216
-0.127327
4.06911e-07
0.000115233
-0.0157832
0.233546
0.127007
0.0174927
9.02569e-07
0.129237
0.0694061
5.93166e-07
8.71796e-07
0.0368243
0.248932
6.28469e-05
0.023531
-2.59201e-06
5.38764e-05
-1.58039e-05
-0.0541656
-6.62811e-06
1.35741e-07
-1.62642e-06
1.63856e-07
-0.154792
0.0205542
1.0566e-06
-1.681e-07
0.0166258
0.125211
1.88588e-06
-1.86835e-05
-0.0388569
-1.24339e-07
0.000135023
6.49108e-08
1.77942e-07
-1.47262e-06
0.0904615
0.000231687
0.00102349
-1.42261e-06
9.94575e-06
0.000134267
-0.0466517
2.37985e-07
1.20054e-06
-0.0100023
1.26214e-06
1.12863e-06
0.000333335
3.3929e-07
2.13968e-07
-0.175083
2.44186e-07
6.69874e-05
-1.59447e-07
4.77751e-05
8.50202e-05
5.29559e-05
7.60921e-07
0.00015738
-1.61167e-07
0.00165583
-0.00170624
-1.38986e-07
0.0561013
-5.83569e-06
1.77705e-07
-0.00854866
0.0160131
0.209931
3.50412e-05
-2.9992e-07
1.50438e-06
-1.00417e-06
0.000125498
0.165901
0.858095
5.62527e-05
-0.749449
-2.0785e-06
0.0323553
2.24664e-06
-8.90091e-08
0.000363672
0.000913112
0.000336858
1.11042e-05
1.80552e-05
-5.43674e-07
7.84801e-09
-0.0120197
0.00233238
0.000152484
-0.197872
-1.04756e-05
0.0129686
-0.00937793
0.00212039
-0.00622559
0.02293
6.71102e-05
-0.000488102
1.14339e-07
0.00482241
5.77524e-05
-0.00159988
0.135198
-0.246361
-1.95649e-07
-0.00180431
-0.000184491
1.67062e-07
-7.41332e-08
-0.00204805
1.97685e-07
0.034729
9.76046e-07
1.4508e-05
-0.0504435
-4.4119e-08
6.7158e-05
-3.09111e-05
-0.000172908
3.63453e-07
0.000150571
8.35194e-07
-5.09376e-08
-1.46939e-06
0.000202637
1.04469e-06
-1.88095e-07
1.44737e-07
0.027991
-4.55606e-08
-0.00215206
-0.000491413
0.000199571
-0.000143781
1.95334e-05
-3.57329e-07
1.30882e-05
2.63712e-07
-6.76144e-07
4.74135e-07
-0.000472343
1.83981e-07
2.96499e-06
2.99549e-06
0.0302367
-0.00232707
6.82268e-07
5.51155e-06
1.16847e-06
-0.0495798
1.1624e-05
0.520029
0.0183429
0.0153096
0.000550252
1.21543e-06
8.63553e-07
9.88999e-08
-0.44641
8.84715e-07
1.42051e-05
5.10171e-05
-8.71807e-06
-0.0912356
5.23562e-05
0.000666373
7.95789e-05
-3.58187e-07
-0.22928
1.12973e-05
-0.0416007
0.0442223
5.3384e-07
-0.000430125
7.06449e-08
0.0836799
-5.04968e-08
-0.0855111
0.00757468
0.0440664
-0.00040957
0.000311582
-5.83311e-08
2.35605e-07
0.0140775
0.0918289
-0.00894189
-1.77256e-05
-3.23501e-06
6.29276e-06
-0.0135026
-2.50611e-06
3.33319e-07
0.0291987
5.00749e-05
0.00236456
2.34252e-07
7.26551e-05
0.000164588
5.94853e-07
5.17561e-07
0.0229134
-7.48057e-06
0.0576786
0.253663
-0.00509192
-0.000320165
-0.000110639
2.38811e-05
1.89902e-05
-0.00910926
-0.0800465
-0.0367367
-0.123873
-2.96992e-07
0.21196
-4.72017e-07
-6.59601e-05
-1.19686e-07
0.164685
-0.0695904
-0.00752231
-0.188283
9.60329e-06
0.106327
-0.00463153
-0.0459846
0.000325184
0.000111281
-0.0884484
-1.95029e-06
0.0294873
0.132883
0.833749
-5.72698e-06
-6.84432e-05
0.000138805
0.325164
-2.03727e-07
1.77187e-06
7.56084e-07
1.05686e-06
1.80147e-06
1.59999e-06
1.29556e-07
7.72223e-07
1.40568e-06
0.00138359
0.332495
0.000121396
2.06096e-07
0.139787
4.75819e-05
1.32076e-07
1.45768e-06
1.30344e-07
-0.00138369
-0.429289
1.18145e-06
-6.67817e-06
0.00055912
2.24577e-07
2.39481e-05
0.00123134
2.957e-06
0.110416
0.00291762
-0.0223455
-0.00627863
9.43626e-07
1.75771e-06
5.65006e-05
-0.318688
-0.0437727
2.15305e-07
0.000131308
-0.0574594
-4.87276e-07
0.010153
5.51834e-06
0.0142273
0.000119508
-3.60804e-07
0.00892739
1.92232e-07
-0.0226529
0.189241
-8.65305e-06
0.00187306
-0.000141524
-6.17311e-05
-1.72621e-06
0.0162925
-5.35052e-07
1.83838e-06
-0.0669004
1.58917e-05
-0.000289269
0.0278668
0.00114105
-2.27156e-07
1.26776e-06
-0.0480421
8.96416e-06
-2.71749e-07
1.29086e-05
4.22165e-06
0.112637
0.0211079
1.35372e-07
0.0119457
9.08958e-05
0.498618
-7.81007e-06
-0.35068
8.45529e-05
0.265093
0.24585
0.000445346
-3.41982e-07
-3.79927e-07
0.00102406
-4.12627e-07
3.56649e-06
1.54049e-06
-6.39629e-07
1.69249e-05
0.000389305
-3.87607e-07
-0.000216052
0.0141976
2.6758e-08
0.00474729
1.8728e-07
-3.62532e-07
1.26689
-0.0252036
-0.000574466
0.032595
2.28555e-05
-0.000749655
4.06657e-05
-2.70624e-07
-0.073944
0.0951793
4.5258e-07
0.00132821
-7.26191e-08
1.2937e-06
1.41337e-05
-2.81413e-07
-0.00169384
-0.325014
1.15157e-06
0.0216208
4.92233e-07
0.0879106
-0.175648
-0.0211695
0.0318504
0.0906011
-9.49304e-05
1.26295e-05
-0.000225748
-2.96944e-06
-4.92703e-07
0.000101456
2.67284e-06
-0.0031963
5.60539e-07
1.31954e-06
8.1615e-07
-7.54898e-07
-0.10006
-1.50437e-06
4.42465e-05
-0.0593725
1.74609e-06
-0.000275262
-2.25278e-07
5.35056e-07
-1.65448e-06
-0.00518261
0.730348
-1.69363e-06
1.96022e-06
0.94316
4.02576e-05
0.0248183
-0.00050365
-2.49206e-07
-0.0416709
8.39844e-07
1.88342e-06
3.99209e-07
-5.05726e-07
-0.0810718
0.00118819
-6.81249e-05
-0.000372808
0.000832022
-0.018118
1.60887e-07
-0.0348136
1.61573e-06
-3.13892e-05
-1.84306e-05
2.66246e-05
-3.35743e-06
0.0910426
0.0477245
-0.052576
5.36994e-07
2.46788e-05
-4.4526e-06
-2.16793
0.000364504
1.71845e-06
9.59928e-06
0.000239104
3.59705e-07
-0.393645
0.715781
1.75868e-08
6.33258e-06
3.85375e-07
3.12058e-07
-7.00811e-06
-2.18379e-07
-6.70911e-07
-5.31019e-07
6.48158e-07
-1.7206e-06
-2.64923e-07
8.4067e-05
1.81066e-06
-0.211308
-4.63355e-07
-2.84569e-06
-0.181476
-3.23917e-07
4.479e-07
4.23228e-07
-4.18606e-06
-7.9168e-08
1.45571e-06
5.13259e-07
7.90249e-06
0.0374463
8.21722e-08
-0.277172
-0.0443014
0.134862
-1.40328e-06
0.69301
1.39029e-06
0.160549
-0.0135148
0.00369173
-4.67096e-05
-0.0820302
0.781346
-0.000764378
1.5396e-05
3.53168e-06
0.612199
-1.08803e-06
0.00029496
-0.115709
0.179204
-1.4656e-06
-1.06299e-06
3.53129e-07
0.000579806
0.806394
0.16288
0.00299711
0.0214969
-1.06419e-06
0.58047
-0.270555
0.178615
0.000357443
3.32736e-05
-1.33278e-06
-1.62233e-07
0.0391219
-0.445356
1.47233e-05
4.04098e-07
-0.000531431
-4.11777e-07
-0.0272154
-7.35624e-06
3.49442e-07
0.000130402
-2.34105e-05
7.7027e-07
-0.00014803
0.000338346
-0.0275517
7.71127e-07
-0.194147
-2.60999e-07
0.00771917
0.0178709
-0.000928792
2.01921e-06
-0.000297995
2.31958e-06
-1.2695e-07
0.000109715
-0.042113
-8.07071e-07
-5.56234e-06
0.00200433
-4.67063e-05
8.69e-07
-5.58836e-07
-0.00262685
0.140954
-0.0611941
0.0010746
-0.0105393
-0.305056
-4.0245e-05
0.0121542
1.87113e-05
1.26935e-06
-0.0829411
0.209439
-0.419486
2.88407e-07
0.00243381
-0.0867279
-0.0304143
2.11699e-05
0.00112884
0.120588
-8.44485e-05
2.62026e-05
-0.000108897
0.636176
-7.26986e-07
0.000761647
3.803e-07
0.0103427
0.232171
1.60337e-08
4.17192e-07
4.05705e-05
0.0782164
9.97498e-07
-1.39802e-07
4.01404e-07
0.183873
-0.0462847
7.98072e-05
0.287975
7.06662e-08
-1.08973e-06
0.000105733
-4.54626e-08
-0.132817
-0.0571808
5.0039e-05
-0.136591
3.57347e-07
-0.000263076
-1.02551e-06
-5.15392e-07
-1.43734e-06
-9.79955e-07
-9.53581e-05
-0.173304
1.65521e-05
2.02531e-05
0.0463711
-0.00014079
-0.0451162
0.0037073
-4.07688e-07
-1.81036e-06
5.04368e-05
7.11367e-07
-0.0439138
-2.59785e-07
-2.28054e-07
-1.4577e-06
0.00031431
6.72837e-07
2.44517e-06
-0.0169492
-0.000112712
0.0094909
9.02378e-07
-7.40518e-06
-2.53159e-07
1.41175e-05
-1.22481e-06
0.13537
-2.01938e-06
1.52719e-06
-0.498955
-1.30632e-06
3.73634e-07
0.00468756
-0.00174988
-1.26368e-06
-9.16199e-06
0.0191038
4.94483e-05
0.000317775
1.11747e-06
0.0389826
-5.79e-07
4.52666e-07
0.000177013
2.32168e-08
-0.0282874
0.000117118
3.47737e-07
1.04373e-06
-0.0115694
-0.0375344
3.32453e-07
2.94356e-07
-4.00843e-06
-1.62867e-06
-2.00399e-07
-5.46452e-07
8.981e-05
-0.0493284
-0.385868
-8.89186e-07
-3.16272e-07
0.000271408
0.054842
-0.0224864
-1.73735e-07
2.47192e-05
0.0471013
0.00830694
2.2714e-07
-0.0152552
1.38609e-07
5.0503e-05
-6.20755e-05
0.000316915
-3.96619e-06
2.91025e-06
-2.25111e-07
-0.037592
0.000154666
-7.60119e-06
1.07774e-05
0.499084
0.000111011
1.1321e-06
-1.00175e-06
-0.0967435
3.44313e-06
0.00240691
-0.000561134
9.24444e-07
2.1418e-06
-0.00656685
0.000105984
8.93994e-08
0.332395
-4.06259e-07
0.428587
-7.54561e-08
7.32758e-05
0.0843154
-1.4979e-05
-0.00329304
0.180146
1.0906e-06
1.14441e-06
-1.71305e-07
5.02588e-05
-0.000113786
-0.0614298
-5.77735e-07
0.000353421
-1.30321e-05
8.34387e-05
8.92542e-07
-0.000162988
2.71818e-07
0.032597
-7.53749e-06
1.94922e-07
0.0035017
-0.000109402
-4.26862e-07
3.40451e-07
2.88206e-05
-0.73273
1.22876e-05
8.95621e-07
2.96915e-07
-2.01774e-07
1.63811e-05
-0.0545201
1.31969e-05
-0.00100962
0.000103658
0.000131872
-1.03886e-07
-0.0757008
-1.54568e-07
0.107712
-0.000142035
1.32564e-06
-0.154498
0.0111728
6.46578e-08
0.00120589
-1.04384e-07
-0.0457336
0.00914367
2.62943e-07
-0.0426702
1.84468e-06
-2.03892e-05
0.0741472
0.0003547
0.0931116
0.259076
4.5024e-07
-1.59833
1.61892e-07
-6.121e-07
-0.0310067
-0.00193299
-9.74679e-07
5.83646e-05
2.80063e-06
-7.97298e-06
-8.85148e-08
4.29116e-05
2.27326e-06
0.000244989
2.00478e-07
-4.54147e-07
9.18206e-05
3.22249e-07
0.000244011
0.0122281
-0.282606
-1.84197e-07
1.32773e-07
0.000234532
0.000100239
0.0975776
-1.98024e-07
0.0233342
2.62381e-06
-8.83983e-07
0.0658399
-1.99037e-07
-1.29103
-8.42246e-07
-8.79913e-06
-0.165105
-8.69878e-07
1.5456e-08
6.23236e-07
1.02366e-06
-5.21853e-06
-0.0440118
-1.517e-05
0.519795
-0.00225344
8.78448e-06
-1.53617
-0.0339262
1.41902e-07
8.3441e-07
0.0367037
-0.251666
3.09264e-06
4.20325e-08
0.305166
-0.145823
1.87127e-07
4.44463e-05
-5.7988e-07
-4.12654e-07
-0.0438262
0.0077932
0.000163552
-0.0166661
1.1666e-05
8.86519e-07
0.0200079
-0.000526789
-1.1562e-07
0.188143
-0.000545552
-8.76449e-05
-0.0507794
-8.67013e-07
-0.000571941
-3.79344e-07
-7.34424e-06
2.13604e-06
4.99667e-05
-2.19232e-05
0.000174463
2.4222e-06
7.8393e-07
0.000117055
0.146312
8.82207e-07
-0.0301303
-0.10988
-0.0333148
-8.32053e-07
9.62559e-07
-0.071114
1.71735e-07
0.00876288
7.46025e-07
8.60845e-05
-0.0365779
4.77319e-07
0.310496
-3.81e-07
0.0209773
0.000268501
-0.000825624
-0.0364506
0.000218385
-6.84904e-09
0.0397923
-7.4224e-08
0.174114
0.000795838
0.00732184
0.000281843
1.23678e-06
-0.0174883
4.24081e-06
4.74576e-06
1.23326e-05
-0.0387816
-6.17923e-08
-9.30993e-07
-0.102348
-0.126996
-0.000386436
0.00215585
8.60587e-06
-5.56623e-07
0.133129
7.19171e-05
-0.101062
0.0121538
0.813385
8.25935e-07
3.62874e-05
5.36115e-07
0.0307273
8.7035e-07
0.00422603
1.39601e-07
-7.69252e-07
8.0227e-06
-0.00184013
0.00590268
-0.000911854
2.50084e-06
5.22487e-05
-8.7252e-08
-0.000233143
-8.88602e-07
-0.138303
0.10436
-0.0119334
3.7341e-07
-2.37463e-05
0.829708
1.34976e-05
-0.0983177
1.01166e-06
2.54411e-07
0.000320138
0.00483421
-6.06472e-06
-1.42167
0.301002
7.56931e-07
-0.0259696
5.68654e-05
3.93123e-07
3.17135e-07
-0.042684
-0.0254795
1.68096e-07
-0.000291765
0.38578
-5.84625e-07
-0.0709562
-0.000930053
-0.133517
0.593802
-7.63723e-08
-5.79216e-08
2.66767e-08
-4.22708e-08
-0.0593706
-0.000165259
-5.69801e-07
-0.0573133
3.16709e-07
6.14554e-05
1.83178e-05
0.00918134
-0.000560331
7.2323e-05
2.08575e-06
-0.000298997
0.000266222
8.58489e-05
-4.58763e-06
1.21668e-06
0.000972954
-0.0868048
-6.9972e-07
-0.00161749
-0.347218
0.281632
-0.00314454
-5.07475e-07
5.53892e-05
0.101038
-0.124921
4.52033e-07
1.62538e-07
0.0340438
-0.348103
-0.00120422
3.89752e-06
0.230148
-0.0349609
1.63213e-06
-0.00394886
0.00014897
4.73755e-07
2.4713e-05
2.76521e-07
-0.0458772
1.64897e-07
0.00195851
-0.00418166
-0.00363237
0.00128239
-0.094758
0.195891
0.137014
0.245798
1.21656e-07
-0.430978
-0.0191135
3.68091e-06
4.61728e-05
-0.00025442
-0.000155489
0.209449
-1.79707e-07
-0.000157396
7.43637e-07
0.0437012
1.12257e-05
-1.53151e-07
1.14851e-06
4.0735e-05
6.21888e-07
-0.00659996
-0.000598436
4.63938e-07
-0.00022996
2.6129e-06
0.000265098
1.42188e-06
-0.000199672
4.51714e-06
-0.279156
0.0232916
5.97989e-06
0.217014
0.00679082
0.0278949
-0.00433486
4.05886e-05
0.0322873
-5.62247e-07
-0.00224688
-0.0101284
1.73434e-07
1.8047e-05
-1.46e-08
-1.59813e-07
-1.19442e-06
1.93574e-05
1.21838e-06
0.0162115
8.3411e-07
0.473272
-1.75396e-06
0.035398
-1.51035e-07
-1.07149e-07
-0.00616527
7.08932e-07
1.90195e-07
-3.78619e-07
-0.00143442
0.000141905
8.83325e-07
0.000181615
1.8921e-06
0.000446584
1.50509e-07
-0.0131977
-5.13904e-07
4.01562e-05
0.787727
9.1027e-07
-0.000955949
0.000214989
-4.03683e-07
-0.0800994
-5.9692e-07
0.326968
0.170164
0.0318598
0.000156793
-1.39699e-06
0.000103783
0.000292261
2.97763e-07
2.46235e-05
1.2476e-05
9.85474e-06
-2.35561e-05
-2.70537e-07
0.00249732
0.410121
4.50483e-07
-0.00203488
-0.0150353
-1.8939e-07
-3.13378e-07
-2.93022e-07
1.59916e-05
-0.149527
-0.00112529
-1.94412e-06
-1.21432e-06
-0.00957259
-0.000126124
-0.0629408
0.636594
-6.8014e-07
-9.05846e-08
-1.33081e-07
-0.0203284
-0.0438062
6.15924e-07
2.63674e-05
-0.127703
1.03575
2.32164e-05
-5.91416e-05
9.35882e-07
7.74537e-07
0.0332733
-0.0190983
1.91824e-06
0.029408
4.34922e-07
0.203044
0.309826
0.000256212
0.0154533
-0.375691
8.99577e-08
0.311757
4.61399e-05
0.00652567
0.04714
-2.11787e-07
-0.0261918
0.0188396
0.0262084
0.0036148
-6.02887e-05
0.00778565
0.181501
2.76735e-05
4.13418e-07
0.00179381
-0.00597054
0.0559515
5.9677e-05
2.70642e-06
-0.0133636
-5.78373e-07
0.0306325
-0.0429472
0.00356622
-1.42082e-05
-4.93502e-06
-5.4421e-07
0.0419661
8.76503e-08
-0.0123612
-0.0442078
0.000116288
1.34987e-06
-0.0680316
1.9416e-07
0.00012094
0.0759814
0.136601
1.68155e-06
9.78103e-07
2.69775e-05
-3.13586e-05
-0.0008956
4.55953e-07
7.24764e-05
4.10194e-06
-2.28617e-07
-7.95448e-07
0.000323583
-0.0108979
2.54581e-08
-1.53884e-07
3.76689e-05
3.9964e-08
1.11656e-05
-0.00874289
-0.92954
0.000283219
-0.056776
9.87804e-07
9.6517e-07
0.000118338
-0.00136838
-1.71316e-07
0.000138058
0.0189153
0.0299012
-0.00218212
-0.134437
-3.31696e-05
2.03403e-05
0.0277156
4.09161e-07
-0.000740124
1.05903e-05
4.53114e-08
0.123258
-1.52129e-05
0.000255371
0.00082879
-0.0155211
2.20074e-05
-0.0540224
2.67846e-06
2.35854e-06
-5.75569e-07
1.07928e-05
1.35594e-06
4.42572e-06
1.75109e-07
-0.0168489
4.19367e-05
-1.38006e-07
1.83291e-05
-1.55759e-05
0.0510428
-0.0884955
0.154088
1.30598e-07
-2.61302e-07
-0.077339
0.000295086
-0.0124167
1.3676e-06
5.06339e-07
7.09308e-08
-3.28247e-05
-0.586312
9.83365e-06
-4.83254e-07
2.10209e-06
0.000112286
-5.99118e-08
1.25921e-05
1.03904e-07
-6.16637e-07
9.44548e-07
-0.000175179
8.18566e-05
-0.000168745
1.32405e-07
0.0568994
-0.0064061
0.0412717
-0.0742211
4.04186e-06
-0.0125527
0.000449888
-0.000271714
0.00677241
1.0888e-06
0.0421694
1.91587e-07
-0.000662113
0.814827
-1.89978e-07
-4.24002e-07
0.0225465
-5.67844e-07
-0.0415484
0.0114054
1.3862e-06
4.13987e-05
-1.43501e-06
1.72548e-07
-1.57373
1.14024e-06
3.18875e-08
-2.71648e-07
-1.49774e-07
1.49452e-05
1.0095e-06
0.0631868
-2.0772e-07
0.0198998
-0.0377839
-1.36446e-05
1.8748e-06
1.37257e-06
-5.09822e-07
-3.5638e-06
0.0271221
-1.21826e-06
8.60288e-05
6.01772e-05
0.103535
-0.00317301
1.67765e-06
0.00750035
5.84277e-05
-6.07253e-07
2.47014e-07
-0.0231471
-8.51355e-07
8.29083e-07
-0.0284556
0.00798566
0.632684
4.03074e-07
-0.0727615
-0.00538356
-5.69902e-07
5.32566e-05
-2.23925e-07
-1.11101e-07
-4.26028e-08
-1.34567e-07
0.0311919
-1.8328e-07
1.20896e-06
0.00360769
2.6124e-06
-0.348086
1.0671e-06
1.29473e-06
-0.106304
2.42667e-07
0.0307905
2.21377e-08
6.9239e-06
-0.0887651
2.96151e-07
-1.78414e-07
1.25482e-06
-0.126024
-0.0194571
-1.8025e-07
2.9275e-07
6.60304e-08
7.91372e-06
0.19918
-0.000255059
7.07406e-07
-0.0617092
-0.0849
1.60057e-06
-0.066941
-6.31646e-07
-0.509511
0.164214
-2.50186e-07
-1.49722e-06
-0.132366
-4.61519e-05
-0.0541083
5.92883e-05
-0.000107753
-0.0353003
3.63427e-06
-0.88565
1.74164e-06
0.0266629
2.71314e-07
-0.000652071
1.32123e-06
8.82548e-06
2.71482e-05
-1.49737e-06
0.0337348
-0.00300372
0.0366234
-0.00142951
-2.07122e-08
0.0668172
-2.3698e-07
2.20492e-07
0.00456479
-4.77383e-07
0.0275478
-0.0362593
-6.29307e-07
7.27104e-07
-0.000354003
4.47848e-05
-1.91745e-07
0.00025677
4.86902e-05
0.0083932
0.0866721
1.58683e-07
9.23093e-07
1.25828e-07
7.07218e-07
0.331704
-7.29793e-05
-0.00592185
9.97092e-07
0.168372
0.0283517
3.29348e-07
1.43715e-07
-0.051561
-0.0411764
0.0220176
-0.00109265
-0.0593792
-0.00154084
7.85277e-05
0.00174146
-0.0103253
0.0240117
-1.44148e-05
0.00604193
1.47313e-06
-8.63395e-10
-3.33892e-05
-0.0669061
-1.90645e-06
0.000161935
-0.087584
-3.77162e-07
8.95192e-06
-1.8152e-06
2.00175e-05
-1.46778e-07
-0.0965512
0.0627486
-0.0272448
1.30258e-06
-0.00754133
3.62683e-05
0.000790566
-0.000151271
0.00017014
-0.0652719
-6.22961e-07
-9.38259e-08
-0.000547755
-4.9403e-08
-0.080353
8.02067e-05
-4.23622e-07
-9.79181e-08
-0.0337775
1.83593e-06
3.10816e-06
9.77125e-07
6.62385e-06
-2.05961e-05
-1.22867e-05
-5.92487e-06
-4.6496e-07
9.71446e-07
-0.103226
-4.93586e-08
-0.00474481
1.58843e-07
-5.42751e-07
-1.40328e-07
0.512384
0.0672326
-0.0102942
2.29802e-06
2.67404e-05
1.96593e-07
0.463572
0.579403
7.6146e-05
-0.00348288
-4.40164e-07
3.83705e-08
0.00110862
0.185092
-0.0187298
0.27082
0.00356892
0.000250676
7.44371e-08
8.08726e-05
0.107151
-0.0320161
7.94368e-05
1.24695e-07
-0.017174
0.0324228
5.38199e-07
-8.08579e-06
1.2781
-1.43897e-05
0.0992769
0.002699
0.0286785
3.22731e-07
1.48999e-07
-1.71145e-06
0.00857524
6.0322e-06
1.44577e-08
-9.8288e-08
0.0946565
0.121759
0.713774
0.0195366
1.6189e-06
6.73846e-08
3.03019e-06
0.0171819
4.61221e-07
1.20485e-06
2.60145e-05
-5.24217e-07
0.202818
-4.96214e-07
-8.36387e-07
-7.93814e-08
-0.000112625
1.24919e-06
-0.00644554
1.09422e-06
-8.99625e-08
-0.0381999
1.07356e-06
-0.00055309
-0.0327297
-0.000110118
1.35478e-05
-0.058106
-0.115694
3.06472e-07
0.0178266
-4.17998e-08
0.012647
-0.000813938
0.00618303
2.28777e-05
7.13115e-05
0.000255716
-3.64902e-07
-1.10997e-06
9.96242e-07
-9.2095e-08
2.5522e-05
-0.0335127
4.7521e-05
-0.0916784
1.19818e-07
0.0327878
0.121167
8.71658e-06
0.00369033
4.27958e-09
-0.000128341
1.15585e-06
0.00481349
-1.09806e-07
-0.0713372
-2.91942e-07
-1.19596e-07
3.25544e-05
0.789803
-0.268679
1.1368e-06
-0.739398
-0.120581
1.49747e-06
0.183649
4.87598e-05
0.00104254
-0.104842
1.95671e-07
-0.0408347
-1.29844e-07
3.58283e-07
-0.0135189
0.000198395
-8.8603e-07
-1.18812e-06
-6.72865e-06
1.29356e-07
8.96928e-07
0.0267123
0.0747805
-0.0516241
1.38567e-06
4.42813e-07
0.000233593
0.0029424
-0.144687
0.152156
0.112952
1.09487e-05
3.29302e-07
-1.08174e-07
-3.61766e-06
1.57737e-07
5.99967e-08
0.0170353
-0.251622
-0.067665
-1.82781e-07
1.85885e-07
0.787301
1.47646e-06
-4.17205e-07
-1.58297e-07
2.4611e-06
-0.000104077
-0.070828
-5.36066e-07
1.05463e-07
8.0697e-06
2.80747e-08
0.108283
1.65425e-05
0.185372
7.77389e-06
-3.79378e-05
6.3469e-05
-1.79473e-07
-0.000197925
-1.89348e-05
-0.172563
-5.90651e-07
0.248692
5.81287e-06
0.103688
3.60329e-07
-0.239883
2.88755e-07
2.49718e-05
2.07181e-06
-1.10646e-08
2.92332e-07
0.00252502
-0.079383
8.92352e-07
5.7508e-07
-1.58835e-07
0.0302715
9.06833e-05
0.0452622
5.73815e-06
2.23693e-06
0.000265797
-0.0362929
-0.00138006
-0.0320095
-5.11495e-07
4.05916e-05
0.45132
-0.014392
1.44895e-07
0.00463709
2.45356e-06
-3.41176e-08
0.198263
1.44692e-06
-0.156566
1.47934e-06
-0.0348438
-1.75398e-06
-0.0328686
-0.134414
4.40407e-07
-2.57217e-06
-6.38512e-07
0.000115618
-0.0735035
0.0573785
0.189026
-0.892443
-1.97749e-06
-0.00099499
-1.87515e-07
-0.132504
-3.56624e-07
0.0949136
1.42867e-07
0.00316512
2.15146e-06
-1.59278e-07
1.45706e-06
-0.0260342
-0.244145
0.114942
-0.000520669
-0.000417078
0.00257819
0.000155503
0.0609829
3.69877e-05
-1.78112e-07
3.44118e-05
-3.54055e-07
-2.42999e-06
0.00155434
0.122197
-0.0941221
5.11344e-05
6.49679e-07
-0.0887565
1.37507e-07
0.000179034
-0.00137772
-0.0522157
-1.33107e-05
8.76397e-07
-9.2707e-08
7.67911e-06
4.29167e-07
0.0113462
-0.000431493
-2.95335e-08
3.18465e-06
7.33107e-05
4.56403e-06
-0.0725382
-0.0884262
-0.121332
1.81609e-06
-0.0695937
-0.123277
6.79738e-05
0.18001
-9.35815e-08
2.10566e-06
-0.198068
0.0312342
0.00431839
1.29162e-06
4.72013e-07
-7.36571e-08
0.722196
0.0335376
-2.35123e-07
-1.295e-05
-1.11281e-07
3.22522e-08
0.0627643
0.0352832
-1.44204e-06
-5.97808e-07
5.20415e-05
2.31853e-07
-1.12018e-07
-3.52791e-06
1.83023e-08
1.02705e-06
-2.4566e-07
-0.773327
-4.77893e-07
-0.000260992
2.17245e-07
0.00051129
-5.82491e-07
4.96054e-05
2.77343e-07
2.24038e-07
-7.85152e-08
1.90258e-06
0.18033
1.15416e-06
-0.000278129
8.22514e-07
-0.0258804
1.18379e-06
-0.0748606
2.71118e-07
0.206853
2.46441e-05
0.0337592
0.0131089
0.0653801
0.0187663
0.153269
-1.26909e-07
-0.00950258
1.18038e-06
1.52002e-05
-0.161692
8.06706e-05
2.50479e-05
0.0195433
0.000231369
2.92736e-07
6.25484e-06
0.156649
2.11304e-06
2.10128e-07
1.51266e-06
4.41031e-05
1.94049e-07
-2.19956e-07
0.08747
1.34816e-06
1.33058e-07
-5.22715e-07
0.0558119
3.74856e-06
5.37015e-06
0.0295048
0.0329351
0.129205
0.000432649
0.00316605
-1.33856e-05
1.11434
-2.48565e-06
-0.000367001
-9.67094e-05
5.42721e-07
6.43281e-10
0.131175
0.0293168
0.00014796
2.33645e-05
1.16251e-06
7.61796e-07
0.0319834
2.22352e-05
-0.0288847
-1.71142e-06
2.38275e-07
2.38821e-05
6.29581e-07
6.75552e-07
1.86235e-05
0.00016749
4.15576e-07
1.67874e-06
9.80198e-05
2.22653e-07
-2.97384e-07
1.27526e-06
0.0689863
0.0345927
6.39689e-07
0.00106508
-0.0570403
-3.60997e-05
-2.59551e-05
-0.0384298
-3.70377e-05
-1.63478e-06
2.63371e-05
0.000632809
9.66761e-08
-1.31118e-07
5.67668e-07
-0.266945
-4.53922e-08
2.81709e-07
-6.46553e-06
-5.00954e-05
3.29588e-06
3.77231e-05
-9.65344e-08
0.308998
-0.0221036
-0.181906
-1.66181e-07
1.61104e-06
-0.11714
-0.0455493
0.000170238
-0.0616794
0.0179788
1.39924e-05
4.11168e-08
2.13835e-07
-2.5037
-0.000415242
9.32449e-08
1.89622e-05
-0.0316336
-0.1129
-0.15875
0.00894512
1.09452e-06
-5.14664e-05
4.72921e-07
-4.97718e-06
-7.01561e-07
0.0368052
0.000117997
5.41562e-06
6.49779e-07
-7.67689e-06
0.000131728
-6.51303e-09
-7.92957e-08
0.00032973
0.00166716
-0.0550011
0.00335727
0.0374637
-1.05397e-06
-0.0460203
0.101931
0.145868
0.0202269
0.00460497
0.000401199
0.531971
3.05793e-07
-0.0268113
-0.00124766
-1.29974e-06
0.0889846
2.58297e-07
0.035235
-1.8811e-07
4.80546e-05
0.000138617
0.010069
1.86549e-06
-0.000639995
-0.000251353
6.68812e-05
1.49422e-06
1.11889e-07
0.00886177
-0.169577
-1.21824e-05
-0.0230101
1.87056e-08