/*--------------------------------*- C++ -*----------------------------------*\
| =========                 |                                                 |
| \\      /  F ield         | OpenFOAM: The Open Source CFD Toolbox           |
|  \\    /   O peration     | Version:  v2012                                 |
|   \\  /    A nd           | Website:  www.openfoam.com                      |
|    \\/     M anipulation  |                                                 |
\*---------------------------------------------------------------------------*/
FoamFile
{
    version     2.0;
    format      ascii;
    class       volScalarField;
    location    "300";
    object      ddt0(k);
}
// * * * * * * * * * * * * * * * * * * * * * * * * * * * * * * * * * * * * * //

dimensions      [0 2 -3 0 0 0 0];


internalField   nonuniform List<scalar> 
37190
(
-1.22486e-07
2.1093e-08
-1.96959e-09
-3.51716e-09
-0.0091715
1.49608e-08
2.04825e-08
4.64276e-06
-6.5595e-09
4.92524e-05
1.89097e-05
-0.0120168
1.0499e-06
1.22909e-09
9.959e-05
0.00115606
-2.13942e-09
0.00471855
4.00668e-09
-7.75884e-09
1.09005e-08
0.00192032
5.18283e-09
0.00424876
-0.00907012
1.17733e-08
0.000210916
1.08557e-08
0.000102939
5.8505e-09
6.23451e-05
5.32212e-08
3.85809e-07
9.27144e-07
5.74147e-07
0.0030691
0.000225826
0.00346326
3.49511e-09
-6.6077e-08
0.00434103
-1.27092e-08
0.00117406
4.87589e-08
0.00010522
-0.00205471
0.000110725
-0.0111216
-1.17988e-08
1.80177e-08
5.00306e-07
-2.6545e-09
6.80847e-09
2.73466e-08
-8.94268e-08
2.90499e-06
-2.45082e-09
7.66929e-08
0.0013536
3.83489e-05
4.1243e-06
8.71479e-05
1.11997e-08
1.17442e-08
0.000457172
-0.000863356
-0.000167611
-9.25254e-05
0.00124298
-0.000265397
2.96792e-09
-8.61799e-06
6.93218e-07
5.25455e-09
2.65839e-08
-2.63271e-05
-0.00490707
-0.000164926
2.34086e-07
0.000686888
0.000110013
-2.71458e-09
-0.000346911
1.18905e-06
-4.8386e-05
3.85546e-07
-0.000216354
-0.000943052
2.2543e-08
0.000605595
3.34184e-09
6.18487e-05
4.11689e-07
1.64856e-08
8.14564e-07
-0.00766587
-8.51816e-09
-0.00259155
0.00389312
3.01413e-08
-0.000504642
2.58741e-06
9.91145e-09
4.32698e-09
7.39387e-05
1.72162e-08
2.55202e-08
-0.000138092
-0.00024154
1.90723e-08
0.00424624
-3.49466e-08
-2.82377e-09
-2.632e-08
-8.23312e-06
-3.72362e-09
0.000114574
-0.000154892
4.03382e-09
-1.92707e-09
-8.9908e-06
-0.000144984
7.45174e-09
5.68927e-07
0.000482378
1.50829e-08
3.81924e-05
7.50297e-09
5.82006e-05
-0.000726864
0.000233321
1.95016e-09
1.67364e-08
-4.50167e-07
7.38032e-09
0.000375453
1.40442e-07
0.00178035
-0.00031692
-0.00906422
-0.000173028
-6.80948e-06
5.70308e-05
-0.00422319
-7.92896e-09
1.33273e-07
-1.25035e-09
8.24168e-09
1.16084e-07
-0.000239739
2.68185e-08
1.47968e-08
2.9195e-09
4.66978e-08
9.32167e-05
4.02201e-09
0.00093419
8.04787e-10
-1.00651e-06
0.000322372
1.08487e-07
-6.66065e-09
-2.88804e-07
3.08823e-07
0.00207873
-1.79916e-09
-3.48801e-05
-8.36372e-06
4.6806e-09
-0.000830998
0.000475165
-7.3282e-09
7.97965e-05
-3.17355e-09
3.07623e-05
0.00070643
6.24209e-07
2.07305e-08
6.52373e-09
3.98086e-05
4.64224e-08
1.4349e-06
0.00165593
0.000202065
1.4807e-08
-0.000161504
2.8699e-08
3.64881e-05
-0.0002114
3.82717e-08
8.92205e-08
7.96968e-07
1.37148e-06
6.03604e-09
7.90398e-08
-0.000381586
-0.000176245
-0.00381173
0.000305871
5.28374e-10
1.53452e-08
3.39059e-07
2.89547e-08
1.24331e-08
0.00618689
0.000507781
-5.52671e-10
1.52072e-09
7.23079e-05
3.4768e-08
2.92641e-08
-8.76671e-10
-0.0262086
-1.20075e-08
0.000612525
3.43071e-09
-4.12648e-10
2.95909e-08
0.000377856
-4.32637e-10
1.15812e-08
-1.57708e-09
-0.00138722
9.13123e-06
0.00184417
-0.00970914
2.55815e-05
-0.000277775
8.01283e-09
-0.000132241
-0.000125311
1.19084e-07
3.03202e-09
6.71631e-09
-6.41001e-10
6.11259e-07
0.000374922
6.52043e-09
8.90632e-10
1.45542e-07
5.57248e-08
-2.2328e-05
2.68664e-08
-2.83435e-09
-5.21932e-05
-0.000207813
-4.52539e-10
4.3782e-07
0.000110319
9.15807e-10
-4.60192e-09
4.91595e-08
1.53432e-07
-2.31837e-09
4.32123e-08
9.09961e-09
-1.20493e-08
1.23266e-08
8.787e-07
2.55284e-09
-0.0249142
8.45244e-05
-4.7591e-07
-2.26607e-09
-0.00189394
-1.82287e-09
-3.91693e-09
0.000178719
-4.9397e-08
-2.14309e-06
-4.54617e-06
7.33756e-09
0.00771869
9.28868e-06
1.01539e-06
2.56305e-05
7.6181e-07
2.85071e-08
1.66381e-05
-2.04646e-09
-4.73245e-08
-3.89372e-08
-1.25368e-07
6.10586e-09
-0.000407935
-1.44791e-09
2.24151e-09
8.80976e-09
-0.00682178
3.91048e-07
-5.43944e-09
-1.12305e-08
3.59854e-06
-0.000244769
4.81264e-09
2.21282e-06
2.7842e-09
2.48589e-09
1.65064e-06
1.30585e-08
4.1991e-06
0.000863188
0.000470187
-0.000235926
-2.64405e-07
6.0755e-06
-0.00402017
-8.84023e-10
0.000110609
-0.000182362
0.000489078
-0.000195444
2.02661e-05
0.000382442
-9.36763e-06
-7.94518e-06
3.23777e-09
-1.1765e-07
0.00286193
2.97065e-08
1.27317e-05
-5.07529e-05
3.23093e-09
1.35027e-07
-0.0119051
0.000469576
1.43282e-08
-0.000162701
-3.11133e-05
-3.66799e-08
0.00662977
-0.00120814
-0.000939946
0.000620414
6.74299e-09
-2.89134e-08
-3.87671e-09
6.63096e-10
2.17461e-09
1.25707e-09
0.00112577
4.31461e-09
-0.00889797
5.29975e-09
0.000414416
7.83122e-06
2.09826e-06
7.78047e-10
0.00103511
-0.0001834
0.00126375
9.33144e-06
-2.09426e-08
-2.45725e-09
-0.000373124
0.000522463
4.53329e-09
9.09894e-11
0.000230117
0.00440826
0.000215825
-0.000139686
0.00590218
0.000106302
0.000108201
-3.22962e-05
6.4524e-09
0.00905271
5.31025e-09
0.000427111
4.90435e-09
-0.000751026
1.35718e-07
0.000824171
1.99412e-07
5.89266e-10
-0.00010913
0.000303064
-0.00150182
-1.28189e-05
-6.3805e-08
1.08322e-05
1.95625e-09
-0.0151229
0.000766425
-0.00073849
2.13113e-07
-5.78942e-09
2.15771e-08
-7.51156e-07
7.522e-06
0.00182721
-6.53499e-08
-1.12837e-08
2.70835e-05
0.000866578
-0.00033893
8.20971e-05
3.89031e-05
3.97878e-09
9.20171e-06
3.93669e-05
1.81043e-08
-3.65697e-05
0.00055082
5.27285e-08
-0.000400939
-1.31507e-06
0.000103129
-8.81393e-09
6.36262e-09
-2.43225e-08
8.68382e-08
-7.27758e-05
6.85617e-08
-0.000866627
9.98468e-08
-4.58114e-08
-0.000259183
3.12953e-09
1.19807e-09
-0.000673426
0.00154987
1.10193e-07
5.53447e-09
3.87798e-09
-9.15817e-09
4.1749e-09
0.000834906
7.09663e-05
4.07024e-09
-2.94575e-08
1.45252e-09
0.00133392
1.75959e-05
8.94677e-09
2.60857e-08
9.99383e-08
2.66089e-08
-0.00244069
-2.02434e-10
5.49937e-09
0.000424206
6.28316e-06
-0.000131951
6.08308e-05
-0.00134384
3.91626e-07
7.05437e-07
-8.71764e-10
2.30228e-05
-0.000890892
9.05759e-08
-2.31903e-09
-1.26812e-05
-7.04282e-05
-1.06493e-08
1.59456e-09
8.21409e-09
0.000466281
7.15329e-09
2.09826e-07
-0.000383084
2.11013e-08
2.14614e-07
6.20244e-09
0.00114221
7.98373e-08
2.51401e-09
0.00613941
7.91425e-09
6.39967e-09
-0.00204109
7.48176e-08
9.75831e-07
0.00677402
9.40486e-09
-6.08323e-08
5.39027e-09
2.21387e-07
-0.00851403
9.20733e-09
1.68813e-08
-5.10065e-05
-1.6367e-06
7.66954e-08
-0.00093137
3.58715e-09
0.000754402
2.39754e-09
1.27574e-05
0.000230522
-1.6831e-06
-3.71479e-10
9.13007e-08
7.0649e-07
1.24017e-06
-1.10134e-05
1.80128e-08
-0.000378161
0.000799067
0.00302492
0.00257339
0.00174284
5.88344e-08
-8.99841e-08
6.11631e-08
-2.5255e-09
-5.96176e-09
2.78095e-08
0.00574668
-5.68307e-10
2.35953e-09
5.88505e-06
-8.69329e-05
1.88562e-06
-1.57168e-05
1.93474e-08
6.64886e-09
-0.00121699
-1.82883e-08
-0.00796089
6.45725e-08
2.80737e-08
5.61326e-09
0.000545625
2.43543e-07
0.00446894
4.41775e-07
8.19189e-09
3.59254e-10
-7.21519e-08
-4.79588e-09
1.73437e-08
0.00251241
-1.30251e-09
1.53974e-05
0.00522205
0.00119935
-1.09209e-06
1.26146e-06
-3.47748e-06
1.23697e-07
0.000482378
3.66936e-05
-2.11996e-06
-0.0106849
1.37546e-08
-2.94973e-09
1.37865e-08
1.51483e-05
-0.00116141
-0.00109959
-3.73486e-09
3.05746e-05
6.64048e-09
-2.94523e-09
-0.000606375
9.72304e-07
0.0032821
-0.00117527
0.000623677
-1.28018e-09
2.68526e-08
7.80397e-06
-5.89639e-06
-0.000114245
8.58493e-05
1.88633e-08
-0.000370557
-0.00108805
7.48425e-05
1.05562e-09
-0.0121138
-0.00734603
1.44958e-05
-0.00236668
-3.46787e-10
5.54096e-06
1.40933e-08
-1.70892e-08
-6.85231e-08
-1.20413e-07
8.20048e-09
-0.000283015
-6.63142e-05
-0.000154517
-0.000241612
-6.26406e-08
1.07614e-07
0.00684143
3.02738e-09
-0.00923451
6.1985e-09
-5.47308e-05
0.000900153
-4.48446e-06
0.00145008
2.60188e-07
2.99862e-09
7.23469e-09
-6.7606e-08
2.76547e-09
0.00146505
6.74673e-08
1.49847e-07
-2.23964e-08
-0.000255654
-0.00342745
5.92309e-09
2.11728e-09
-3.17049e-05
1.0884e-09
3.53097e-09
-2.04651e-09
0.000227279
3.57588e-09
0.000549215
-4.0538e-10
3.7536e-06
-0.00397292
-2.77072e-07
4.09538e-09
-1.91034e-08
-1.64365e-09
8.68236e-07
0.00054152
1.23536e-08
0.00489961
1.32736e-07
0.00402
6.28121e-09
1.13079e-06
-3.2705e-05
1.42359e-06
0.00366675
-3.9321e-05
-8.46726e-07
1.26782e-07
3.74372e-08
0.000261627
1.20607e-05
7.2816e-08
0.00112269
2.2713e-09
0.000131438
7.73909e-09
-4.64219e-09
-1.5667e-06
-0.00536133
4.34883e-09
8.3035e-07
-5.542e-05
0.000255637
0.00346993
0.000106995
1.17582e-08
0.000676442
0.0119091
3.04985e-09
-2.82674e-08
-4.19738e-05
0.00819113
5.43697e-08
-0.000996712
-1.41735e-09
9.51704e-07
-1.64141e-07
0.00361555
-1.54059e-08
1.80655e-09
-2.16899e-08
2.07441e-09
-0.000538847
7.42943e-06
1.37311e-08
-2.34518e-09
6.1126e-05
0.00341665
1.77912e-09
-2.42109e-07
6.97459e-05
-4.69537e-10
1.22239e-07
2.31231e-10
2.48698e-09
-1.00324e-08
0.00180716
5.85261e-07
-4.98184e-06
-1.93291e-08
-1.51186e-07
-3.93098e-08
-6.98944e-05
3.20516e-09
1.57282e-08
-0.000256677
1.62924e-08
1.58364e-08
5.13549e-07
4.55802e-09
2.12533e-09
-8.76973e-05
3.16343e-09
6.20171e-08
-2.34894e-09
3.13842e-07
7.63984e-08
7.73016e-08
1.01327e-08
-4.65777e-09
-2.27611e-09
7.5093e-05
-3.21241e-06
-1.92278e-09
-0.000201843
-1.4839e-08
2.32165e-09
-6.84461e-05
0.000104085
-0.00347264
-5.22561e-07
-4.29387e-09
2.59327e-09
-1.40406e-08
3.14172e-07
0.00310277
0.000289118
5.37724e-08
-0.000296621
-3.1947e-08
0.000103389
-4.00343e-09
-1.17841e-09
6.08912e-07
4.80594e-06
-7.85839e-06
1.57658e-07
2.2365e-08
-8.78702e-09
1.21481e-11
-1.25145e-05
0.000747222
1.2722e-07
-0.000609532
-7.79186e-08
0.000109618
-5.23126e-05
-0.000112565
-5.85589e-05
0.00198876
5.08925e-07
-1.27258e-06
1.51032e-09
0.00205809
1.35297e-07
-3.16149e-06
0.00433652
3.34042e-05
-2.28545e-09
-0.000422853
-1.35706e-06
2.33091e-09
4.65857e-10
-1.70622e-05
2.59483e-09
0.000132202
9.24165e-09
2.1366e-07
-0.00312387
-4.4144e-10
8.39645e-07
-6.05436e-07
-8.55241e-07
6.94333e-09
2.91435e-08
4.28297e-09
-6.59053e-10
-2.6933e-09
-6.71037e-08
1.35348e-08
-2.75253e-09
1.53216e-09
7.24183e-06
-6.79589e-10
0.000425045
-2.05696e-06
-7.92881e-07
-6.89383e-07
1.97524e-07
-4.821e-09
1.70644e-07
3.50941e-09
-1.91852e-09
6.57747e-09
6.49145e-06
2.20162e-09
2.99548e-08
3.70286e-08
0.000779369
6.35501e-07
8.17385e-09
3.98775e-08
1.67052e-08
-0.0181426
1.06785e-08
0.00272483
5.8049e-05
-0.00031733
-1.88735e-05
1.5952e-08
9.01523e-09
-6.32061e-11
0.000167553
6.7652e-09
1.03087e-07
-1.7785e-05
4.01579e-06
0.00680036
7.13006e-07
1.23672e-06
7.27268e-08
-1.89748e-09
8.80543e-05
9.91167e-09
0.00072636
0.00770916
2.89345e-09
-8.63882e-07
3.97514e-10
0.000716274
-3.34345e-10
0.00590306
6.364e-05
0.000395443
-1.55005e-06
2.45061e-06
-7.16185e-10
3.09209e-09
0.000117901
0.00518726
-2.3509e-06
-2.34102e-07
-9.85903e-09
4.82934e-08
-0.000303982
-9.72027e-09
4.35678e-09
-1.50227e-05
4.81593e-08
6.13877e-06
1.3187e-09
9.87258e-07
2.30787e-06
8.89645e-09
6.59856e-09
0.00234372
-2.41944e-08
0.000339907
0.00169188
-8.99343e-05
1.8733e-08
-1.33438e-06
2.5674e-08
1.995e-08
-3.92615e-05
0.00194192
1.69337e-05
-9.06011e-05
-3.07696e-09
0.00183895
-6.49018e-09
5.46625e-07
-1.6464e-09
0.00435823
-0.000800816
0.000286568
0.00251163
9.97168e-08
0.00244276
0.000122473
8.92821e-05
-8.90279e-07
8.19718e-07
0.00027357
-2.13727e-08
-0.0002807
0.00231826
0.000385037
-3.09224e-08
6.70621e-07
1.14483e-06
0.00392574
-2.38043e-09
1.89358e-08
9.60094e-09
1.21505e-08
1.81016e-08
1.50102e-09
1.69626e-09
8.44484e-09
1.74974e-08
7.55122e-06
0.00315913
9.27137e-07
2.54573e-09
0.000518914
4.67532e-08
1.68253e-09
2.27858e-09
1.81446e-09
-0.000549196
0.000396351
3.53098e-09
-1.59925e-08
2.95224e-06
2.91977e-09
2.5699e-08
-1.03136e-06
2.59702e-09
0.000231848
1.16039e-05
0.000152848
-5.67255e-05
1.19144e-08
1.63751e-08
4.67527e-07
0.000157463
-0.000181978
2.74205e-09
8.7872e-07
-7.62432e-05
-7.2727e-09
-0.000898351
6.12408e-08
0.00778546
1.09022e-07
-6.72415e-09
-0.000895902
2.51088e-09
-0.000229447
0.000228642
-1.35902e-07
6.51938e-06
2.8015e-07
-2.68414e-07
-9.17397e-09
-8.63376e-05
-8.03118e-09
5.85313e-08
0.000106994
7.90506e-08
1.0011e-07
0.00749858
5.87494e-06
-3.34687e-09
1.99679e-08
0.00055355
2.82138e-08
-3.96074e-09
1.26704e-08
1.86134e-08
0.000380078
0.000219307
1.87232e-09
0.000106624
7.92335e-08
0.000342823
-2.77246e-08
0.000130109
-3.2631e-08
0.00287066
0.0024818
-8.86715e-07
-4.91301e-09
-4.81196e-09
4.7955e-07
-5.39984e-09
-1.68585e-09
1.46825e-08
-4.52568e-09
-7.87879e-08
2.47757e-06
-8.17027e-09
7.33177e-07
-0.00370991
3.26936e-10
7.5278e-06
1.10732e-09
-4.07535e-09
0.000231099
-0.00289202
0.000962932
4.55331e-05
2.50104e-08
-3.97981e-06
-4.0003e-07
-2.53154e-09
0.00382018
0.00687643
5.959e-09
-2.7791e-05
-1.07084e-09
1.60841e-08
1.05455e-07
-3.99392e-09
5.71455e-07
-0.000136881
1.50181e-08
-0.000114989
5.83667e-09
-0.00464067
0.001799
-0.000400307
9.8238e-05
0.00278568
-6.8865e-07
1.94739e-07
2.84982e-06
-3.07407e-08
-6.33811e-09
-1.03878e-07
2.62403e-08
-7.79207e-05
5.70591e-09
1.63326e-08
8.35921e-09
-1.11744e-08
0.00464266
-1.83655e-08
4.33042e-08
-1.97921e-05
1.8862e-08
-1.34974e-05
-3.03596e-09
7.17971e-09
-1.05768e-08
0.0104564
0.00209813
-2.03144e-08
2.00218e-08
0.00343132
3.83313e-07
-0.000335531
9.56805e-07
-3.97026e-09
-0.00107129
3.22257e-09
1.80759e-08
5.08995e-09
-7.64216e-09
0.00660076
6.08324e-06
-5.05603e-07
-1.17641e-06
4.47986e-06
-0.000263543
-7.53093e-10
-0.00114259
1.88165e-08
-6.12573e-07
-8.26667e-08
2.65015e-08
-4.27084e-09
0.000126457
0.000278423
-0.000445999
6.92353e-09
7.61028e-08
-1.7258e-08
-0.000632294
-1.68289e-07
1.90595e-08
5.71803e-08
-5.38597e-08
4.50071e-09
-0.000278587
0.00378415
1.54311e-10
1.29851e-07
1.98044e-09
4.15349e-09
-2.85099e-08
-2.70501e-09
-8.16432e-09
-6.79745e-09
4.65557e-09
-9.50626e-09
-3.5872e-09
7.01659e-08
2.27453e-08
8.29864e-05
-6.22772e-09
-8.48508e-09
-0.0050913
-4.35958e-09
-6.13387e-09
5.59028e-09
-5.05779e-08
-1.22022e-09
1.36386e-08
2.01717e-09
9.79145e-07
7.303e-05
1.05939e-09
-0.000151
-0.000325107
0.000485166
-1.41289e-08
-0.00419447
1.41142e-08
-0.00332325
-0.00129855
-1.42078e-05
-3.15825e-07
0.0022524
0.000281824
-4.65171e-06
1.5979e-08
-2.14365e-09
0.00964067
-1.67101e-08
-1.39823e-05
-0.000156106
0.0015419
-2.17264e-08
-1.47158e-08
4.76116e-09
3.55806e-06
0.00214591
0.000289111
-0.000411937
-0.000250942
-1.48994e-08
0.000282832
-0.00633348
0.00130764
2.25639e-06
8.3911e-07
-1.56474e-08
-8.04289e-09
-0.000244765
7.01555e-05
2.11123e-07
5.29971e-09
-5.74091e-07
-5.69528e-09
2.87685e-05
-3.27147e-08
4.20378e-09
1.92164e-06
-1.14648e-07
1.05427e-08
4.21424e-07
3.99597e-07
0.00665286
1.06193e-08
4.86605e-05
-3.53205e-09
1.53508e-05
0.000288159
-6.71645e-06
2.12427e-08
0.00108157
2.74275e-08
-2.0106e-09
1.73245e-07
0.00215925
-1.11389e-08
-5.49929e-08
-0.000114886
-3.7999e-07
3.29793e-09
-8.20503e-09
-1.23206e-05
0.000687504
-0.000277851
-9.36292e-07
-5.06874e-05
0.000103886
-3.81961e-07
0.000962796
2.44952e-07
1.65806e-08
0.00455688
-0.00531919
-0.0117928
3.84863e-09
1.19553e-05
-0.000193742
0.00104654
8.77892e-08
-3.30081e-06
0.00108666
-9.2572e-08
2.47265e-07
-1.2294e-07
0.00304194
-7.661e-09
4.02062e-06
2.38785e-09
4.97841e-06
0.000299575
-4.65422e-10
5.44152e-09
3.99437e-08
0.000403055
1.17807e-08
-1.74128e-09
1.74251e-09
0.00485432
-0.00128625
-2.57666e-07
-0.00149897
1.57415e-09
-1.43684e-08
1.41123e-06
-4.90955e-11
-0.0037006
-5.02055e-05
-2.68409e-07
-0.00381363
1.98129e-09
-1.83578e-07
-1.3879e-08
-6.76599e-09
-1.84611e-08
-1.25209e-08
-5.5176e-07
-0.00970275
5.99171e-07
1.34561e-07
0.000215598
-1.34782e-06
3.4785e-05
0.000539084
-5.92348e-09
-2.32978e-08
6.50599e-08
1.01685e-08
0.00182158
-4.01365e-09
-2.91861e-09
-2.36295e-08
-1.31832e-07
9.80724e-09
-3.79728e-09
0.00138699
4.33242e-07
0.00465147
5.2064e-09
-6.28472e-08
-3.42928e-09
2.06966e-07
-1.65143e-08
0.00303665
5.96019e-08
-5.16379e-09
-0.000691339
5.14798e-09
4.95656e-09
-2.05315e-05
-1.80494e-06
-1.71575e-08
-1.02375e-07
0.00018766
4.7761e-08
4.02933e-07
1.46204e-08
-0.00021609
-8.04474e-09
5.9745e-09
1.6043e-07
-1.97748e-11
0.00869192
1.76352e-07
3.1448e-09
1.37301e-08
-0.000355723
9.12283e-05
4.48893e-09
4.00775e-09
-2.77624e-08
-2.55213e-08
-3.06498e-09
-7.49919e-09
1.06738e-06
-0.000214985
-0.0103777
-9.76084e-09
-4.68531e-09
2.0275e-06
3.02855e-05
-0.00131374
-3.64293e-09
2.46308e-08
0.000596158
6.15101e-05
1.15093e-09
1.44046e-05
-6.04141e-12
4.71474e-08
-2.94598e-07
-1.20801e-07
-2.86454e-08
4.01918e-08
-2.97921e-09
-1.21101e-05
2.35155e-08
-2.66741e-08
1.04475e-07
0.00489512
1.44591e-06
1.03291e-08
-1.39806e-08
-0.00185764
3.75611e-08
7.02297e-06
9.28801e-07
1.50631e-08
2.53028e-08
-0.000228805
1.50352e-06
1.08385e-09
0.000124269
-4.74416e-09
0.00275403
-9.77377e-10
7.59095e-08
0.000424475
-2.13651e-07
5.07525e-07
0.00402003
1.42884e-08
1.06874e-08
-2.21591e-09
4.81756e-08
-4.43771e-07
-4.29446e-05
-7.60993e-09
1.74472e-06
-5.82895e-08
1.39311e-07
8.01675e-09
2.36155e-07
3.96549e-09
0.000160264
-2.98474e-08
2.56305e-09
6.97298e-05
-4.14345e-07
-5.38887e-09
4.75032e-09
3.16937e-07
-0.00151885
2.26096e-07
-8.47256e-10
3.79256e-09
-2.39813e-09
2.68499e-08
5.2176e-05
2.4979e-08
-8.22065e-05
7.56595e-07
1.0826e-07
-1.29689e-09
0.000855236
-2.09912e-09
0.00062638
-8.40246e-07
2.12712e-08
0.00167988
-8.7765e-06
7.04328e-10
5.49548e-07
-1.40126e-09
9.99863e-05
9.61451e-05
7.00677e-09
-0.00133433
1.73717e-08
-2.242e-07
0.000339068
-1.04745e-07
0.000717494
-0.00180571
6.16875e-09
-0.00349192
2.21154e-09
-9.18691e-09
0.000215775
0.000473764
-1.35196e-08
1.23711e-06
2.48238e-08
5.87409e-08
-3.41131e-10
3.51655e-07
2.27925e-08
1.42694e-06
2.68383e-09
-5.65645e-09
8.15797e-08
-4.0333e-09
2.32959e-07
7.69208e-06
-0.00909879
-2.51317e-09
-1.10575e-10
1.84767e-06
1.08297e-07
0.00888641
-2.6241e-09
-0.000672499
2.34936e-08
-1.25051e-08
-0.000121623
-2.57424e-09
-0.0117831
-1.24827e-08
-1.11936e-08
0.00235222
-1.24879e-08
-5.42736e-09
1.66759e-08
-1.59843e-09
-6.85979e-08
-0.00612828
-1.71527e-07
0.00158094
1.34537e-05
7.61262e-09
-0.000167117
-1.65092e-05
-8.15047e-11
4.77306e-09
-2.6365e-05
-0.00060049
7.19468e-08
-5.21849e-09
0.00276226
-0.00193438
2.09608e-09
4.31519e-08
-9.85226e-09
-5.12802e-09
1.52604e-06
-0.00510717
1.45896e-07
0.00103955
1.72442e-07
9.59389e-09
0.000387272
2.08939e-06
-1.65622e-09
0.00492815
-3.27668e-06
4.25697e-08
7.67499e-05
-1.14982e-08
-1.53299e-07
-4.87532e-09
-7.84379e-08
2.74171e-08
4.59291e-08
-1.10445e-07
1.00096e-06
-3.82618e-09
-3.45442e-08
1.05593e-07
0.00402145
1.09972e-08
-2.55826e-05
-0.00268872
-0.000526503
-1.12134e-08
1.91058e-08
-0.00649448
2.32919e-09
0.000126007
9.82864e-09
1.01624e-07
-0.0042779
5.73327e-09
0.00329789
-5.33194e-09
0.00181065
1.65442e-06
1.03964e-06
0.00179003
1.666e-06
9.99663e-10
-2.26134e-05
-3.1515e-10
0.00250064
4.92691e-06
6.74464e-06
-1.21983e-07
4.00149e-08
-7.88121e-06
1.03681e-09
1.50482e-08
5.42251e-07
-1.55053e-05
-7.7351e-10
-1.24097e-08
0.00160613
-0.00061837
2.1872e-07
-0.000190993
4.57164e-08
-7.41617e-09
0.00048624
6.02942e-08
-0.00481146
0.000360872
0.00667601
9.8897e-09
3.68874e-08
3.16285e-09
-4.30569e-05
-6.08214e-09
-1.74015e-05
1.06656e-10
-9.50939e-09
1.37669e-07
0.00052526
0.00222574
-7.31237e-06
1.19777e-06
6.30982e-07
-1.45612e-09
1.06239e-07
-1.21756e-08
-0.000152868
0.000267364
-0.000320035
3.45571e-09
-2.77e-07
0.00320807
2.48339e-08
-0.00400766
8.6896e-09
3.18726e-09
3.41609e-07
-0.00133672
-3.40469e-08
-0.00747312
0.00898435
4.2648e-09
-0.000142002
9.52859e-07
2.58161e-09
4.20839e-09
0.00128374
-0.00121586
2.18644e-09
-1.84726e-08
0.00162098
-8.33492e-09
0.00109737
-1.24961e-06
-0.000182197
0.00245619
5.12795e-10
-2.16011e-09
5.33729e-11
-6.73667e-10
6.25293e-05
-1.70612e-06
-7.97187e-09
-0.00139673
6.08407e-09
5.54224e-08
2.37054e-07
4.95352e-05
-2.975e-07
-2.93744e-07
1.96157e-08
-3.93353e-06
-8.40034e-07
7.82648e-08
-5.21721e-08
1.13824e-08
5.70184e-06
0.00452356
-8.52931e-09
-4.51799e-07
0.00182742
5.51178e-05
0.000855133
-6.80956e-09
6.77713e-07
-0.000126976
-0.00785963
2.48099e-09
2.15417e-09
2.99893e-05
-0.00942192
0.001522
-1.62378e-09
0.00138398
0.00207369
1.46353e-08
-2.46096e-05
-8.52266e-07
2.85696e-09
4.83957e-07
4.7779e-09
7.09955e-05
2.20338e-09
-0.000114725
-1.26322e-05
0.000174307
9.87394e-08
0.000709405
0.000120315
0.000222137
0.000396712
-3.88398e-09
-2.44606e-05
-1.65004e-05
4.06629e-08
4.32002e-08
-6.4125e-07
2.48667e-07
0.00813198
-2.37774e-09
-1.58567e-06
9.78372e-09
0.000259291
5.85443e-08
-2.18634e-09
9.91596e-09
6.39768e-07
7.54633e-10
0.00227709
-3.62317e-07
5.55178e-09
-3.87991e-06
-2.50761e-09
2.52342e-07
1.39936e-08
1.52071e-07
1.3313e-08
0.00190695
-0.000415187
-1.0335e-08
0.000373272
8.97243e-06
-0.000493545
-6.19965e-05
6.11231e-07
-8.27167e-05
-1.10319e-08
-1.91192e-05
-0.000303138
2.35047e-09
2.3998e-07
3.43111e-10
-2.15568e-09
-4.56517e-09
2.06821e-08
1.60243e-08
9.4546e-05
4.5334e-09
0.00475279
-4.07555e-09
0.00147389
-2.22259e-09
-1.37048e-09
0.000300056
8.8067e-09
2.70564e-09
-5.08376e-09
-2.21435e-06
1.03331e-06
7.20502e-09
2.01521e-06
2.37888e-08
2.94893e-06
1.96631e-09
-0.00134187
-6.79359e-09
3.95199e-08
0.00681016
7.35826e-09
-5.83849e-07
1.66307e-07
-5.56914e-09
0.000442229
-8.0194e-09
-0.00372322
0.00431281
1.07549e-05
1.49232e-07
-1.80156e-08
1.97919e-07
-9.2269e-08
3.87051e-09
2.57859e-08
1.62648e-07
1.13142e-07
-4.90845e-07
-3.75544e-09
-0.000138834
0.000149456
6.00389e-09
-0.000285981
-0.000134661
-2.71817e-09
-4.30178e-09
-4.34707e-09
-3.1496e-07
-0.00506583
4.11202e-07
-2.3508e-08
-1.60192e-08
-7.77939e-05
-4.23465e-07
-0.00365753
0.000412894
-9.09472e-09
2.52057e-10
-1.64811e-09
0.00240922
-4.2222e-05
7.91213e-09
2.75503e-08
-0.00425752
0.00315787
2.4539e-08
-7.8137e-07
8.33228e-09
9.80009e-09
-5.24082e-05
9.45012e-06
2.32571e-08
-0.000433931
5.90482e-09
0.00272255
0.000553896
2.94152e-06
-1.45951e-05
-0.00538187
4.90515e-10
0.00234869
4.46332e-08
0.00054957
9.35658e-06
-2.94007e-09
-0.00477418
0.000102018
0.000452135
-0.00080635
-8.08481e-07
9.59797e-05
0.00487789
2.95474e-08
9.3541e-09
0.000892783
0.000595945
0.00224114
6.43756e-08
2.67404e-08
7.96551e-06
-7.77037e-09
-2.18586e-05
-2.97056e-05
8.06416e-06
-1.55536e-07
-6.93417e-08
-7.26035e-09
-8.00961e-05
2.81891e-10
-2.62324e-05
-1.24992e-05
1.03498e-07
1.77205e-08
0.000101018
2.46931e-09
1.09942e-07
4.63934e-05
0.00235606
4.13471e-09
8.22543e-09
3.83805e-07
-1.07205e-06
-3.86285e-06
6.04266e-09
6.76275e-08
3.56065e-06
-2.12816e-09
-1.11446e-08
-6.97423e-07
4.07969e-05
-6.05243e-10
-2.11441e-09
-1.182e-06
3.1549e-10
2.00205e-07
-2.3848e-05
-0.00862166
0.000467154
2.32059e-05
8.60764e-09
2.09683e-08
1.55594e-06
-6.28046e-06
-2.33157e-09
2.19313e-07
-0.000132295
-7.50842e-05
-1.75247e-05
0.000668083
7.46714e-09
2.24447e-08
-0.00039813
5.53668e-09
-0.000209614
9.57006e-07
1.46095e-09
0.00280911
-1.74347e-07
2.18888e-07
-0.00132449
-2.63692e-05
2.37615e-08
3.14278e-05
3.69915e-08
2.50552e-08
-8.25107e-09
9.75327e-09
1.76946e-08
2.6914e-08
2.35078e-09
-0.000409232
4.49673e-07
-1.7481e-09
2.09776e-08
-1.57512e-07
0.00020493
0.00162527
0.00426887
1.68423e-09
-3.56431e-09
-0.00419861
3.1448e-07
-0.000371076
1.48998e-08
-5.78763e-09
8.94668e-10
-1.46733e-07
3.95298e-05
1.46115e-08
-6.62596e-09
2.5558e-08
-8.00789e-07
-1.08146e-09
1.76331e-07
1.21789e-09
-8.66409e-09
1.0415e-08
-7.9152e-07
4.87035e-08
-5.65777e-08
1.78432e-09
0.00537502
-5.55804e-06
-8.05152e-05
-0.00253826
2.24967e-08
3.71487e-05
5.74616e-07
9.52109e-07
-0.000369278
8.00936e-09
0.000168869
2.00387e-09
2.39451e-07
0.00296451
-2.60118e-09
-5.34568e-09
-0.000671237
-8.17227e-09
0.00736599
-0.000349754
1.46872e-08
-7.8523e-08
-2.21697e-08
6.36504e-10
-0.00047832
1.50083e-08
3.13201e-10
-3.65708e-09
-1.22063e-09
1.50452e-08
9.89387e-09
-0.000314807
-2.83256e-09
0.00511366
3.20117e-05
-1.87045e-07
1.80143e-08
1.43994e-08
-7.25711e-09
-4.47178e-08
5.53191e-06
-1.96626e-08
7.74655e-08
7.42221e-07
-0.00285462
-0.000109265
3.57883e-09
2.73748e-05
5.23254e-08
-8.67905e-09
3.30473e-09
0.00103449
-1.24613e-08
6.99945e-09
5.92775e-05
0.000117306
0.000818729
5.32303e-09
-0.00389162
0.00238252
-7.18118e-09
4.94789e-08
-3.0304e-09
-1.4827e-09
-4.21816e-10
-1.73445e-09
-0.00169314
-2.38603e-09
1.15428e-08
9.49007e-05
2.74716e-09
0.000342116
1.20956e-08
1.10407e-08
0.00267343
3.30698e-09
3.97924e-06
8.95699e-11
5.7022e-08
-0.00215399
3.82301e-09
-2.56342e-09
1.63818e-08
-4.98367e-05
-0.000139081
-2.14415e-09
3.79335e-09
4.12237e-10
1.26359e-08
0.00310728
-1.07685e-07
6.07018e-09
6.17612e-05
0.00227629
2.10992e-08
0.00500966
-9.34614e-09
-0.000468625
0.000853242
-2.79588e-09
2.63603e-09
-0.00283606
-3.30893e-07
0.000109472
7.1969e-07
-1.54934e-06
-7.76394e-06
-1.44251e-09
-0.00240513
2.17597e-08
0.00228776
3.07458e-09
0.000750264
3.29538e-09
7.73909e-09
2.91375e-08
-1.79057e-08
-0.000136091
0.00259759
6.19101e-05
1.13392e-06
-3.44204e-10
0.000543899
-2.82567e-09
3.02052e-09
-0.000449481
-4.90252e-09
-0.000570736
-3.20354e-05
-8.2249e-09
-5.05148e-09
-9.58748e-07
9.45028e-07
-2.73013e-09
1.52076e-07
4.70903e-08
2.54394e-05
-0.000818482
2.07532e-09
5.67427e-09
1.52754e-09
6.37509e-09
0.00155809
-2.33113e-07
-6.06206e-05
1.0701e-08
-5.97767e-05
-0.000246063
3.43016e-09
1.90676e-09
5.32527e-05
4.4996e-05
0.000243823
4.6047e-07
8.92759e-05
1.11403e-06
6.8582e-08
8.60549e-06
0.000245083
0.000229628
1.45503e-07
2.05825e-05
1.95648e-08
-5.23016e-09
-7.71853e-07
-0.00146795
-1.12534e-08
7.68826e-08
-0.00161602
-5.46872e-09
1.06915e-07
-1.15251e-08
2.47167e-07
-1.90214e-09
0.000865972
4.77177e-06
-9.1337e-05
1.83898e-08
2.98603e-05
3.66029e-08
1.3464e-05
1.01011e-06
7.703e-08
7.9909e-05
-8.61037e-09
-1.17906e-09
-9.96551e-08
-7.03194e-10
0.00558291
5.60345e-08
-5.75964e-09
-2.55455e-09
0.00114728
2.02889e-08
3.21201e-08
9.21976e-09
8.70419e-09
7.85293e-08
-4.16768e-08
-7.41637e-08
-6.41769e-09
1.20405e-08
-3.92026e-05
-6.64007e-10
1.48641e-05
2.15331e-09
-7.22532e-09
-1.9356e-09
-0.00599825
2.20966e-05
1.19788e-05
7.10336e-08
2.17988e-07
1.24294e-09
0.00303506
0.00739316
6.46325e-07
0.000117285
-5.66627e-09
3.98198e-10
1.34035e-06
0.00487376
-0.000629718
0.000242004
8.86408e-06
2.03054e-07
1.3164e-09
3.00616e-08
2.47473e-05
2.98678e-05
7.22729e-08
1.10266e-09
2.25246e-05
-0.000475434
5.65724e-09
-1.04953e-07
-0.000199494
-2.01609e-07
0.00331638
-1.60374e-05
4.61382e-05
9.23665e-09
-4.46069e-09
-2.19242e-08
2.67846e-06
5.10987e-08
9.97258e-11
-5.08086e-09
0.000670628
0.00450502
0.00543182
3.49129e-05
2.26618e-09
8.40217e-10
4.21876e-08
0.000100515
4.78362e-09
3.02968e-09
2.82809e-08
-7.2479e-09
0.000127708
-6.33915e-09
-1.07616e-08
-1.0878e-09
-1.29933e-06
1.60989e-08
-0.000358377
1.0261e-08
-1.12846e-09
0.000327499
1.01715e-08
1.28327e-07
8.70359e-05
-2.53428e-07
1.6001e-07
-0.00140092
0.000664079
4.11093e-09
2.5199e-05
2.73891e-10
-1.43092e-05
-1.10794e-06
0.00644321
7.44499e-08
-5.17354e-08
7.49845e-07
-5.06404e-09
-1.6661e-08
9.33559e-09
-1.25852e-09
5.97662e-07
2.48022e-06
4.70571e-08
0.00347201
1.31409e-09
9.49164e-05
3.98264e-05
9.68856e-08
-1.23535e-05
-4.03651e-11
-8.06391e-07
9.78996e-09
-0.0013147
-1.66523e-09
0.000118423
-3.7032e-09
-1.59392e-09
3.40429e-08
-0.00128927
-0.000549733
9.5016e-09
-0.00168528
-0.00241733
2.21027e-08
0.00131977
4.69902e-08
1.04453e-06
-0.00432568
3.03859e-09
-0.00453164
-1.74438e-09
4.69401e-09
-0.000270836
-1.95624e-07
-1.18194e-08
-1.4442e-08
-9.54023e-08
1.60167e-09
-1.38865e-09
4.97162e-05
1.20602e-05
9.55821e-05
1.81225e-08
5.34045e-09
3.06668e-07
8.37958e-05
1.7863e-05
0.0042026
0.00230983
1.25698e-07
4.28659e-09
-1.3846e-09
3.62561e-09
2.01926e-09
2.23701e-09
0.000711583
0.00276514
-5.47147e-05
-1.93407e-09
2.48385e-09
0.00594133
1.42851e-08
-5.6481e-09
-2.09819e-09
-3.22731e-09
4.82184e-07
-0.000550827
-6.93219e-09
1.30547e-09
1.47585e-07
2.44739e-10
0.000766132
1.6523e-08
0.00121967
1.15933e-07
-6.02543e-09
5.01576e-07
-1.66283e-09
1.66248e-07
-2.6495e-07
-0.000107725
-8.09205e-09
0.00120032
4.90145e-08
-0.00945817
3.96596e-09
-0.00651215
3.37512e-09
6.59505e-08
2.21731e-08
-1.31393e-09
4.38629e-09
8.76372e-06
-0.000811377
1.23055e-08
3.61442e-09
-2.18784e-09
-7.03992e-05
8.16878e-08
0.00157988
5.12739e-09
3.27332e-09
-3.95494e-08
-4.33136e-05
-1.80536e-05
0.000236782
-6.79851e-09
4.91516e-07
-0.000464391
-0.000805958
1.71447e-09
4.13294e-06
-3.66375e-09
-5.70904e-10
0.00351191
1.88061e-08
-0.00422578
1.82972e-08
0.000106729
-2.35357e-08
-0.00281321
-0.003346
5.76215e-09
-7.16851e-08
-1.03009e-08
8.99703e-07
-0.00133264
0.00655587
0.00107071
-0.000270186
-2.55041e-08
-7.52674e-07
-2.46887e-09
-0.00385494
-6.98566e-09
0.000438579
1.82239e-09
1.2723e-05
2.51583e-08
-2.21907e-09
1.36519e-08
0.00010716
-0.0060896
0.0054802
1.01183e-06
1.58205e-07
6.07066e-05
3.24762e-07
0.0036611
4.16544e-07
-1.72941e-09
3.84201e-07
-5.3045e-09
-3.94426e-08
7.79716e-06
0.00280814
0.00292474
5.73753e-07
8.36659e-09
-0.0010921
1.77767e-09
2.08513e-07
-8.05385e-06
3.95327e-05
-5.15561e-08
1.11274e-08
-1.19407e-09
1.19306e-07
6.03861e-09
-0.00124182
9.33236e-07
-4.56756e-10
-1.93604e-09
1.09621e-06
3.4211e-10
0.00289489
8.55969e-05
-0.0135637
2.30809e-08
-0.000987866
-0.00387713
-5.51678e-07
0.000298052
-1.20482e-09
2.48804e-08
-0.0111104
-6.47844e-05
1.43358e-05
1.1544e-08
-6.1931e-10
-1.5779e-09
0.0032175
-0.00030264
-3.1732e-09
-8.08066e-08
-1.44054e-09
5.79844e-10
5.80718e-06
-0.000623316
-1.97091e-08
-8.06349e-09
3.66739e-07
3.04475e-09
-1.58932e-09
4.60161e-08
2.21721e-10
-5.28049e-09
-3.36749e-09
-0.00400813
-6.7901e-09
7.71002e-08
2.87826e-09
-3.90818e-06
-8.5433e-09
7.06195e-07
3.88831e-09
2.73911e-09
-1.14861e-09
2.43294e-08
0.000706981
-4.96761e-09
-2.1922e-07
5.74646e-08
0.000281914
3.59675e-09
0.00890374
3.2382e-09
-9.5695e-05
2.90534e-08
6.44821e-05
0.000209938
4.50093e-05
-1.67297e-05
0.000662673
-2.51528e-09
0.00322368
1.09848e-08
1.94613e-07
-0.00455741
1.43305e-07
2.916e-08