/*--------------------------------*- C++ -*----------------------------------*\
| =========                 |                                                 |
| \\      /  F ield         | OpenFOAM: The Open Source CFD Toolbox           |
|  \\    /   O peration     | Version:  v2012                                 |
|   \\  /    A nd           | Website:  www.openfoam.com                      |
|    \\/     M anipulation  |                                                 |
\*---------------------------------------------------------------------------*/
FoamFile
{
    version     2.0;
    format      ascii;
    class       volVectorField;
    location    "300";
    object      ddtCorrDdt0(U);
}
// * * * * * * * * * * * * * * * * * * * * * * * * * * * * * * * * * * * * * //

dimensions      [0 1 -2 0 0 0 0];


internalField   nonuniform List<vector> 
37190
(
(0.000648392 0.00022543 1.83724e-22)
(1.78807e-05 5.28044e-07 -2.90258e-22)
(2.80362e-05 1.0449e-05 0)
(3.16331e-05 -1.06656e-05 0)
(0.00157785 -0.0457222 0)
(5.72361e-05 7.81195e-06 -2.76175e-22)
(0.000331005 2.92716e-06 -3.35859e-22)
(-0.0108409 0.0119602 -3.61006e-22)
(1.46749e-05 -7.69965e-06 0)
(0.00108163 -0.000474692 5.01601e-24)
(-0.00491091 -0.00013467 -5.40486e-22)
(0.0502609 -0.0734702 6.12985e-21)
(-0.0024182 -0.00101318 8.52119e-22)
(4.71853e-05 0.000103779 3.51146e-23)
(-0.00975836 -6.86445e-05 -1.75778e-21)
(-0.00314691 -0.124694 0)
(2.74893e-05 1.01316e-05 -3.81021e-23)
(-0.0532269 0.0640285 -3.89773e-21)
(2.0768e-05 -7.33763e-06 -1.23974e-21)
(4.89683e-05 1.7716e-05 1.38462e-22)
(0.00016829 -0.000101785 -2.2658e-22)
(-0.0863544 0.0162529 4.61402e-21)
(4.00399e-05 -1.85379e-05 -3.29878e-22)
(-0.0349692 0.0438821 0)
(0.000812783 -0.0432238 0)
(1.47854e-05 1.49284e-07 -1.03657e-21)
(-0.00716294 -0.000255477 -3.53153e-22)
(7.81078e-05 0.000195413 -6.20151e-22)
(-0.00809322 -0.00023672 0)
(1.51539e-05 5.26222e-05 7.74269e-23)
(0.0403874 0.0198693 3.36085e-23)
(0.000164675 -0.000191466 2.56319e-22)
(-0.00125269 0.000370091 7.78465e-22)
(-0.00633671 -0.0116498 0)
(-0.00163886 0.000330298 0)
(-0.0215189 0.15267 -1.53358e-21)
(-0.00706024 -0.000207201 1.01609e-21)
(-0.0367528 -0.157471 8.02035e-22)
(2.07533e-05 -8.28039e-06 1.15684e-21)
(9.77846e-05 0.00029264 0)
(0.0214579 0.0277645 0)
(7.42406e-05 4.48297e-06 -1.71391e-23)
(-0.00570159 -0.120767 4.04048e-22)
(0.000154391 -0.00016545 0)
(-0.00892048 -0.000313127 -4.7912e-22)
(-0.0208121 -0.0558205 -5.04189e-21)
(-0.00889432 -0.000295982 1.29018e-21)
(0.0479927 -0.0778451 0)
(3.38042e-05 7.30557e-06 -4.18346e-22)
(-0.000402288 -7.98286e-05 -1.15201e-22)
(0.00162073 -0.000285402 -8.44275e-22)
(2.64788e-05 -1.44067e-05 3.98812e-23)
(3.57509e-05 3.7971e-05 -6.06602e-23)
(0.000195831 0.000308973 0)
(0.000131769 0.000220461 -1.21003e-21)
(-0.0166461 -0.00348415 0)
(2.66995e-05 -1.50123e-05 6.71525e-24)
(6.68439e-05 -0.000251962 0)
(-0.0061735 0.0363658 4.87304e-22)
(0.0388715 0.0151922 0)
(-0.00954197 0.0113613 8.00723e-22)
(-0.00959787 -5.84573e-05 7.37227e-22)
(0.000187341 -9.26343e-05 -1.32192e-22)
(1.43435e-05 6.50867e-08 1.02694e-21)
(0.00139648 -0.058456 5.59214e-21)
(0.000370055 -0.0846458 4.40859e-22)
(-0.00666855 0.0954975 0)
(-0.0204517 -0.00462287 0)
(-0.0143162 0.104884 -2.18977e-22)
(-0.00219198 -0.00189979 4.56508e-22)
(2.01051e-05 -1.0346e-05 0)
(0.0126144 -0.0206491 0)
(-0.00182284 -0.000270611 0)
(4.02133e-05 -1.77354e-05 0)
(0.00038343 -0.000700673 2.66315e-22)
(0.00143844 -0.0121826 2.15897e-21)
(0.0486491 0.0263328 -6.81183e-21)
(-0.00101992 -0.0029311 -6.37078e-22)
(-0.00109965 0.000652819 0)
(-0.00372147 -0.0016324 0)
(-0.00873267 -0.000415955 1.36521e-21)
(3.26078e-05 -1.20066e-05 2.70112e-24)
(-0.00310089 -0.00193536 0)
(0.000567778 0.00242899 -5.17997e-23)
(0.000114317 -0.000526752 -2.81228e-22)
(-0.00239354 0.00119221 1.27949e-22)
(-0.000129412 -0.00395325 9.17239e-22)
(-0.0282933 -0.0629827 5.21638e-21)
(0.000355558 3.19206e-06 0)
(0.0454842 -0.0656941 -2.32793e-22)
(2.19367e-05 3.73211e-06 0)
(-0.00589233 -0.000322247 0)
(-0.00139125 0.000256794 -1.00453e-21)
(1.4719e-05 3.72302e-07 0)
(-0.00431507 -0.00292247 0)
(0.0756985 -0.0240805 0)
(4.63935e-05 1.3438e-05 -2.42901e-22)
(-0.00342719 -0.078998 -4.74241e-22)
(0.0353553 0.115262 3.28289e-22)
(0.000280728 -0.000679869 0)
(-0.0184589 -0.0961465 1.4287e-21)
(-0.0150012 -0.00412437 -8.14579e-23)
(2.26037e-05 7.23036e-05 3.41589e-22)
(2.7942e-05 3.00949e-06 2.13185e-22)
(-0.0078972 -0.000134836 3.72754e-22)
(1.32584e-05 6.49263e-07 0)
(0.000117548 -4.10791e-05 -8.4985e-22)
(0.0101268 -0.000145707 5.30628e-24)
(0.0186956 0.0559361 -4.6889e-21)
(6.16953e-05 -1.63331e-05 -9.10883e-23)
(0.0171572 0.0156604 -2.83783e-21)
(-0.000209721 0.000414358 9.44256e-22)
(3.21276e-05 -1.10626e-05 -3.03588e-22)
(-0.000259518 0.000376831 2.23479e-21)
(0.0103221 -0.0199184 -7.39348e-23)
(3.11083e-05 -1.10057e-05 -4.30082e-22)
(-0.00861721 -0.000465372 -1.5949e-21)
(-0.000222186 -0.00405715 8.08248e-22)
(-0.000315553 -6.18631e-06 -1.37382e-23)
(7.75959e-05 8.00274e-05 0)
(-0.00742148 -0.0264136 0)
(-0.000960473 -0.00309351 -5.09578e-22)
(1.72062e-05 7.12347e-05 -3.78409e-22)
(0.00183027 -0.000409825 7.93063e-22)
(-0.0294716 -0.0291825 7.82101e-22)
(0.000163447 -0.000187721 0)
(-0.00523289 -0.000476505 3.42308e-22)
(1.58652e-05 7.28165e-05 3.01401e-22)
(-0.00584388 -0.000247661 0)
(-0.0129603 -0.0950057 -1.07937e-22)
(-0.00730859 7.43217e-05 4.13416e-22)
(3.05344e-05 -2.24706e-06 -2.18253e-22)
(1.39041e-05 3.21927e-07 0)
(0.0354447 -0.0253607 1.19117e-24)
(1.49673e-05 9.57087e-07 0)
(0.0608134 0.0139131 -1.01854e-21)
(-0.00103389 -0.000200044 -1.1972e-21)
(-0.0110934 0.0529255 1.17346e-21)
(0.0110545 -0.049989 2.79489e-22)
(0.0137576 -0.0528822 1.04018e-20)
(-0.0124536 0.00907441 -5.87249e-23)
(-0.0099574 -0.0264847 0)
(0.0115036 0.00576143 0)
(0.0663199 -0.0343357 0)
(4.59755e-05 6.49335e-06 0)
(0.000216623 -0.000543933 8.76012e-22)
(7.83394e-05 8.81944e-05 0)
(0.00010023 0.000173101 4.12781e-22)
(0.000180445 -0.000470655 -4.93236e-22)
(-0.00212465 -0.00176643 -2.50663e-22)
(0.000113602 -5.42312e-05 5.63049e-22)
(1.5877e-05 -1.27217e-06 2.08959e-24)
(2.69847e-05 6.21643e-06 -1.34109e-22)
(0.000327994 0.000320531 1.58172e-22)
(-0.00953139 -7.48968e-05 0)
(4.04559e-05 -1.72527e-05 0)
(-0.0164464 0.114452 -1.1494e-21)
(1.05118e-05 5.30964e-06 0)
(0.00541003 -0.00596774 0)
(0.011017 -0.0449766 0)
(-0.000104274 -0.000305714 2.47835e-22)
(-0.000193542 1.81517e-05 1.20314e-22)
(0.00116983 -0.000284722 0)
(-0.0012706 0.000588577 0)
(-0.00855498 0.0923793 1.2832e-21)
(8.21643e-05 7.56595e-05 -1.77484e-22)
(0.00432773 -0.000320653 -6.5323e-22)
(-0.00270055 -0.000360607 -8.30469e-22)
(-0.000316067 -5.07328e-05 0)
(-0.00419103 0.000419034 0)
(-0.0333474 -0.0282016 0)
(1.60351e-05 -7.52566e-06 0)
(0.0140873 0.00435414 1.72257e-24)
(3.88045e-05 8.81411e-07 -1.96419e-21)
(0.00190069 -0.000400292 -2.84884e-21)
(-0.00119767 -0.0580307 5.60841e-22)
(-0.00154669 0.00513434 4.8302e-22)
(0.00183191 -0.00183538 2.51471e-22)
(3.89475e-05 4.94649e-05 -1.44806e-22)
(0.00165272 -0.000429404 -3.09135e-21)
(0.00033712 0.000314026 -1.90889e-22)
(-0.00999484 -0.00876813 -1.12118e-21)
(0.0163305 -0.0311389 -5.65602e-21)
(-0.0301409 0.0222991 9.42326e-22)
(0.000180214 -0.000166237 -4.76067e-22)
(-0.0167941 -0.0115926 0)
(7.92761e-05 -7.17659e-05 0)
(0.00113198 -0.000363852 1.32147e-21)
(0.0121411 -0.0941586 -9.167e-22)
(0.000892366 0.000101942 -3.55557e-22)
(7.16567e-05 -0.000447091 1.0238e-21)
(-0.00386876 -0.000521137 4.37634e-22)
(-0.00876003 -0.00852788 1.02927e-21)
(4.04606e-05 4.20961e-05 2.66179e-22)
(6.19899e-05 -0.000387722 0)
(-0.00308102 -0.00199166 3.38196e-22)
(-0.0044786 -0.0021009 -2.63734e-22)
(0.0484331 -0.0804343 -7.77635e-21)
(-0.0094895 0.020298 0)
(2.09136e-05 1.47093e-07 5.82025e-24)
(1.17338e-05 6.33297e-07 0)
(-9.1351e-05 0.000615938 6.3928e-22)
(5.88063e-05 -6.7201e-05 -3.76541e-22)
(4.21987e-05 -1.53645e-05 -2.7024e-24)
(-0.0595129 -0.175479 5.88913e-22)
(0.0444251 -0.0112745 -4.14899e-21)
(2.78575e-05 -1.8382e-06 5.78925e-22)
(1.2826e-05 6.64125e-06 0)
(-0.00680163 -0.00035103 -1.35843e-21)
(0.000889635 3.40554e-05 0)
(5.27267e-05 -7.63913e-05 1.92182e-22)
(2.8348e-05 -1.96771e-06 7.15968e-22)
(0.134944 -0.0361347 0)
(4.8986e-05 2.51627e-05 7.59576e-23)
(-0.00331606 -0.00202568 0)
(6.49716e-05 0.000135733 3.94212e-22)
(2.77453e-05 -1.58327e-06 5.71663e-22)
(6.86085e-05 -6.69989e-05 6.94418e-24)
(0.0161999 -0.0131549 1.77213e-21)
(2.77383e-05 -1.36441e-06 -4.87582e-22)
(7.77222e-05 0.000200872 4.90365e-22)
(2.91947e-05 -5.54605e-06 -9.66166e-22)
(0.00870583 -0.0900784 -5.27449e-22)
(-0.00352523 -6.74446e-05 5.25148e-22)
(-0.00933578 0.102567 2.11494e-21)
(0.0251958 -0.0533264 0)
(-0.00763453 0.00367549 3.74342e-23)
(-0.00391132 -0.00198171 3.02268e-22)
(1.66994e-05 8.38561e-05 -1.47571e-22)
(0.00223454 -0.00415703 4.29677e-22)
(0.00967664 -0.000208312 -1.46313e-21)
(-0.000886714 -0.000172845 -1.89028e-23)
(2.80511e-05 4.47278e-06 1.47647e-22)
(1.42097e-05 9.25848e-07 -1.12871e-21)
(2.83278e-05 -1.3622e-06 -5.89289e-22)
(-0.00178918 0.000184187 -1.05903e-22)
(-0.00935294 0.0222825 0)
(2.91235e-05 6.84176e-06 1.04917e-22)
(2.29888e-05 1.36807e-06 2.43579e-23)
(0.000487737 0.000693686 0)
(-2.26287e-05 -0.000357363 -3.1018e-23)
(0.00418072 -0.00022629 -1.16004e-21)
(0.000199746 0.00029631 -2.52764e-22)
(1.77501e-05 -7.72357e-07 0)
(-0.000187775 -0.000646788 -2.3099e-22)
(-0.0175847 -0.0142838 -1.07079e-21)
(2.76232e-05 -4.85186e-07 -6.79659e-22)
(-0.00265115 0.00104684 4.9127e-23)
(-0.00785966 -0.00869956 1.21561e-21)
(2.21795e-05 3.94806e-07 2.72014e-23)
(7.44772e-05 8.07229e-06 -1.29635e-22)
(-0.00465527 -0.00217759 1.54733e-21)
(0.000517089 0.000785002 0)
(8.12692e-05 6.67822e-05 0)
(-2.29013e-05 -0.000304147 -8.41589e-22)
(9.5728e-05 0.000180134 -1.84013e-22)
(8.62855e-05 2.20078e-05 1.13519e-21)
(3.14713e-05 -3.13773e-05 3.82943e-22)
(-0.00494628 -0.00268957 2.68096e-22)
(2.74185e-05 -5.43407e-06 -1.3009e-22)
(0.129542 -0.0385854 -3.8406e-22)
(-0.00981181 -3.91748e-05 0)
(-0.00546745 -0.00744189 1.78205e-21)
(2.54667e-05 -1.29918e-05 0)
(0.0606487 -0.0552747 0)
(-3.81662e-05 -7.89245e-05 1.56592e-22)
(2.73422e-05 2.78999e-06 0)
(0.01203 0.0129642 -7.41022e-24)
(-1.1501e-05 0.000260651 -4.25078e-24)
(0.0026103 -0.0143951 4.76864e-23)
(-0.00110218 -0.00552495 3.11254e-22)
(1.48735e-05 8.55098e-05 -4.92379e-22)
(0.0260148 0.144826 3.08283e-21)
(0.00218803 -0.000275561 2.16703e-22)
(-0.00754041 -0.0109062 4.32693e-22)
(0.00217677 -0.000382974 3.96134e-22)
(-0.00401794 -0.00339278 0)
(9.95587e-05 -5.43683e-05 3.65201e-22)
(0.00194524 -0.000301275 3.0135e-21)
(1.89497e-05 -7.74018e-06 -9.23963e-22)
(1.83167e-05 0.000303507 0)
(0.00241363 0.00106897 -5.08552e-22)
(0.00058012 0.000259076 0)
(2.87097e-05 8.34649e-06 0)
(-0.0105422 -0.00318786 0)
(2.89338e-05 -4.52487e-06 6.81638e-22)
(1.26606e-05 -1.60338e-06 9.82181e-22)
(0.00159409 -0.00188936 0)
(0.00982188 -0.0601453 -1.06494e-20)
(-0.000296859 -0.00148206 0)
(-0.000193478 -1.31302e-05 -1.55744e-22)
(4.68341e-05 2.41692e-05 -1.15446e-22)
(-0.00899202 0.00855025 0)
(-0.00407545 -0.00187541 -3.71933e-22)
(1.4392e-05 1.67936e-05 3.93174e-22)
(-0.00268875 -0.000255446 8.28423e-22)
(2.18139e-05 -4.50119e-06 3.55239e-22)
(3.3947e-05 5.39671e-07 0)
(0.00383347 -0.000494628 1.3721e-21)
(1.61461e-05 -2.37057e-06 5.623e-24)
(-0.0101994 0.00908622 0)
(-0.0562777 -0.0382555 9.59822e-22)
(0.0456915 -0.0724623 5.81921e-22)
(-0.00405598 -0.0018176 0)
(0.000217856 0.000937547 4.64499e-22)
(0.00639455 -0.000698296 0)
(0.0562903 -0.0137137 -4.39671e-22)
(2.70964e-05 6.68222e-06 -3.37636e-24)
(-0.00896832 -0.000211892 0)
(0.0354639 0.0283649 0)
(0.00157053 -0.0596789 -1.58776e-21)
(-0.00423393 -0.00214994 -7.89596e-24)
(-0.00532667 -0.00060748 5.5158e-22)
(-0.082388 0.0153931 1.04282e-21)
(-0.00343504 -0.00501609 -6.91362e-22)
(-0.00273813 -0.00566337 6.82139e-22)
(5.93854e-05 3.00326e-05 -5.77037e-24)
(-0.00172848 -0.000664207 0)
(-0.000160325 0.0711751 -2.6374e-21)
(9.40388e-05 -6.53436e-05 -3.39765e-22)
(-0.0056261 -0.00166039 -5.56825e-24)
(-0.00462375 -0.00194912 0)
(1.11021e-05 2.61605e-05 2.50122e-22)
(-0.00092145 -0.000628283 0)
(0.0222855 -0.0512202 0)
(0.0453706 -0.0187942 0)
(-0.000351664 -7.91285e-05 8.61895e-23)
(-0.0181498 -0.00583513 -1.9128e-21)
(0.00443748 -0.000258068 3.21123e-21)
(7.75969e-05 0.000282022 -1.18891e-21)
(0.0358686 -0.121576 0)
(0.0412659 -0.0657215 1.79143e-21)
(0.0100695 0.0487704 3.25487e-20)
(-0.00359376 -0.00175802 0)
(3.6759e-05 3.5072e-05 6.86146e-23)
(0.000122921 0.000317677 1.02794e-21)
(2.74784e-05 3.68426e-06 -6.56005e-24)
(2.09917e-05 -2.03156e-06 0)
(3.04077e-05 1.04658e-05 3.12214e-23)
(1.35967e-05 6.74554e-06 -1.03273e-22)
(-0.00513652 -0.11278 -2.96055e-22)
(4.0779e-05 -1.68029e-05 0)
(0.0896852 0.0616422 -1.44895e-21)
(3.70316e-05 3.16521e-05 0)
(-0.0124408 -0.0135675 0)
(0.00714778 -0.00173232 0)
(-0.00559374 -0.000782082 0)
(-0.000118636 -7.37423e-05 5.6619e-22)
(-0.00877584 -0.103186 0)
(-0.0148218 -0.00863866 -2.93675e-22)
(-0.0160462 0.0507734 -1.15351e-21)
(-0.0131812 0.00125267 1.23434e-21)
(-1.02914e-05 0.000101981 0)
(2.55857e-05 -1.37074e-05 2.01787e-24)
(-0.00264572 0.0145612 3.58668e-22)
(-0.0516675 0.0366268 6.58188e-22)
(2.13857e-05 3.20087e-06 -5.99628e-22)
(-0.000103994 -6.0575e-05 -1.19067e-22)
(-0.00720412 -6.18025e-05 3.24856e-24)
(-0.0388052 0.0348784 0)
(-0.00730924 -0.000124994 4.42737e-25)
(0.00231175 -0.00507703 0)
(0.0298345 0.115906 1.32248e-25)
(-0.00903774 -0.000239897 0)
(-0.0091082 -6.90772e-05 -1.64846e-21)
(-0.0249927 0.011281 0)
(3.90437e-05 5.22834e-05 0)
(-0.087354 -0.0157683 1.03903e-20)
(1.47888e-05 1.62842e-05 -8.06032e-22)
(0.000624387 -0.0583723 -7.76793e-21)
(3.76835e-05 2.82949e-05 0)
(-0.0203989 0.0183055 -1.20245e-21)
(-0.0036822 -0.000402179 -3.74696e-22)
(-0.0329555 -0.0456164 1.93038e-22)
(0.000185172 0.00248966 0)
(2.27472e-05 9.27498e-06 2.01375e-23)
(-0.0127023 0.0107026 3.74652e-22)
(0.00928727 -0.0434596 4.21442e-22)
(-0.00407925 -0.099905 1.39613e-22)
(0.00558491 -0.0107562 -6.11605e-23)
(0.000313733 4.53669e-05 -7.71939e-22)
(-0.00486148 -5.87301e-05 0)
(1.80764e-05 1.7905e-05 -1.40639e-22)
(0.114464 -0.0585113 0)
(0.0172286 0.0214144 -9.67054e-25)
(-0.0181858 -0.014458 1.02204e-21)
(0.000623655 -0.000583061 2.85884e-22)
(-9.66527e-05 7.0336e-06 -2.87306e-22)
(0.000439503 0.000640824 -3.88114e-23)
(0.00912193 0.00283828 2.37958e-21)
(-0.00674635 0.00706925 0)
(0.0215179 -0.101779 5.91111e-22)
(0.000690956 -0.000592497 0)
(3.14482e-05 7.05415e-06 5.9892e-22)
(-0.00719569 -0.000945586 0)
(0.0127646 0.0256915 -6.41947e-22)
(-0.00340994 -0.0374931 0)
(-0.00682581 -0.00121816 -1.2778e-21)
(-0.00809828 -9.05803e-05 0)
(5.02177e-06 -4.94712e-06 2.55614e-22)
(-0.00378025 -0.000399475 3.3848e-22)
(-0.0276376 0.0138127 -2.76679e-22)
(0.00027247 0.000113856 1.55924e-23)
(0.00462887 -0.000338483 -1.03577e-21)
(-0.00321776 -0.00209315 -6.69421e-22)
(0.000559152 0.000637859 4.55127e-23)
(-0.00185569 -0.00241976 -1.16205e-21)
(-0.000473054 -0.00417466 -1.36586e-21)
(-0.00920041 -4.78501e-05 1.0964e-21)
(1.57196e-05 -1.2693e-05 -1.69134e-21)
(4.0152e-05 4.51145e-05 -2.71196e-22)
(3.16937e-06 0.000102394 -9.57347e-24)
(0.000151776 -0.000545973 -1.11546e-21)
(0.00715263 -0.000177746 0)
(0.000493341 0.000355255 0)
(-0.00380391 0.00021625 0)
(-0.00223218 -0.00832876 0)
(0.000599936 -0.00062124 -4.84896e-22)
(-0.000181592 -0.0435145 1.16606e-21)
(5.7342e-05 2.92107e-05 0)
(-5.13429e-05 1.47194e-05 0)
(-0.0248496 0.0204783 -4.50075e-22)
(0.0483562 0.0233237 1.05637e-21)
(-0.000822708 -0.000550665 -5.62093e-23)
(1.31419e-05 5.87516e-05 0)
(2.88234e-05 2.23373e-06 -1.4151e-23)
(-9.59759e-05 1.91491e-05 -1.03191e-21)
(1.19405e-05 6.34991e-08 0)
(-0.0466274 -0.0333676 1.22219e-22)
(-0.00977239 -6.95783e-05 1.31138e-21)
(2.86315e-05 2.58103e-06 0)
(-3.52692e-06 0.000114743 0)
(1.32209e-05 -1.9047e-05 0)
(-0.000816197 0.0354714 -1.9364e-21)
(-0.00709574 -0.00103157 -1.82676e-22)
(2.02443e-05 8.21908e-05 0)
(0.000211236 0.000274463 0)
(8.37549e-05 -0.000504673 1.047e-21)
(0.000211498 0.000288533 0)
(0.100577 0.0597815 0)
(2.11186e-05 4.25419e-07 -3.49656e-23)
(1.12149e-05 -4.2286e-05 0)
(-0.00245604 -0.00272749 2.7584e-22)
(-0.00862868 0.010994 -7.41976e-22)
(0.010159 -0.000167817 9.42799e-22)
(0.0142631 -0.00491993 1.30807e-22)
(0.0400252 -0.063317 -1.91759e-21)
(-0.000144978 0.00062339 7.95682e-22)
(-0.00172787 -0.000493425 0)
(0.000107974 4.45093e-05 0)
(0.00165025 -0.00032106 3.73811e-21)
(-0.0342333 -0.0555229 -4.27991e-21)
(0.000327468 0.000464004 -9.49152e-22)
(9.39238e-05 5.1179e-05 0)
(-0.0055067 -0.000876846 1.88759e-22)
(-0.0232226 -0.0926457 -1.80567e-21)
(8.05778e-05 1.51581e-05 -1.10584e-21)
(1.03769e-05 6.28647e-06 0)
(-0.000125997 -0.000127914 -4.83739e-23)
(0.00141713 -0.056817 -6.99948e-21)
(1.68481e-05 6.8986e-06 -3.43757e-22)
(0.000203591 0.000478515 6.70156e-22)
(-0.0116646 -0.00263257 0)
(1.15672e-05 -6.96366e-05 2.64018e-22)
(0.000202036 0.000460736 -8.17058e-22)
(-0.000107871 -0.000105019 -1.28782e-21)
(0.0444467 -0.049213 1.4078e-21)
(0.00038033 0.000474091 -1.82026e-22)
(3.29472e-05 1.14157e-05 0)
(-0.0522449 -0.214316 9.23901e-22)
(1.6825e-05 -4.06455e-05 0)
(1.23494e-05 6.9063e-05 0)
(0.0096278 -0.0818811 -6.13623e-21)
(4.07069e-05 -0.000234539 0)
(-0.00222085 -0.000921063 -4.15879e-22)
(0.0135949 -0.151938 4.93273e-22)
(2.23038e-05 8.00823e-05 -2.90011e-24)
(0.00250938 0.000839337 0)
(1.11796e-05 5.99257e-05 3.17429e-22)
(0.00998455 -0.00851954 -3.46495e-21)
(0.0810122 0.0661298 0)
(2.16913e-05 7.14318e-05 0)
(-0.000107471 -0.000168808 -2.45723e-22)
(-0.0480255 0.0308837 6.5614e-22)
(-0.00210225 -0.015454 1.48889e-22)
(0.000417846 0.000409824 0)
(-0.00259505 -0.000434049 0)
(6.94756e-05 0.000135754 0)
(-0.0110242 -0.0627879 -1.59087e-21)
(3.29103e-05 1.11994e-05 0)
(-0.00720625 0.00401852 0)
(-0.0198548 0.0380353 -2.56033e-22)
(0.000947326 -0.0141255 0)
(2.04328e-05 6.83181e-06 -1.01706e-21)
(0.000329211 0.000458131 1.00375e-21)
(-0.00228201 -0.000527139 -1.70805e-21)
(0.00261097 -0.00210247 0)
(0.00682708 -0.0100048 5.38471e-23)
(5.71206e-05 -4.97041e-06 -3.60358e-22)
(0.0123049 -0.0471513 -4.85191e-22)
(-0.00801497 -0.0870691 4.33274e-22)
(-0.0201933 0.179657 0)
(-0.003155 0.0787778 2.88662e-21)
(-0.0402036 -0.0766129 1.99597e-21)
(1.46794e-05 -0.000762863 1.5429e-21)
(0.000169394 0.000214955 3.94775e-22)
(3.07965e-05 -0.000678515 -4.52847e-22)
(2.28675e-05 7.17315e-07 0)
(6.30595e-05 1.49703e-05 -2.57948e-23)
(3.94952e-05 -7.76368e-05 -2.04586e-22)
(-0.0609946 -0.199618 1.40791e-20)
(4.33628e-05 -1.24309e-06 7.83361e-22)
(3.19124e-05 8.96937e-06 1.39513e-22)
(-0.0113154 0.0141897 -7.67334e-22)
(0.0073591 -0.000292569 0)
(0.00981626 -0.00689195 3.91194e-21)
(0.00937731 -0.00599334 -7.37158e-22)
(1.20397e-05 -6.37075e-05 0)
(1.90333e-05 5.36446e-05 -3.19728e-22)
(-0.00939467 -0.100491 -4.18388e-22)
(-2.20482e-05 7.03444e-05 -2.92264e-23)
(0.0799986 0.0702778 0)
(0.000529159 0.000326294 5.43403e-22)
(0.000238708 -0.000330639 1.23149e-22)
(1.77618e-05 4.51837e-05 0)
(-0.0117039 -0.0724045 -5.15568e-22)
(-0.00235097 0.00235437 1.87144e-22)
(-0.064391 0.116374 -2.15272e-21)
(-0.000494446 -0.00151655 0)
(1.15329e-06 -4.95067e-05 0)
(1.97748e-05 6.21607e-06 1.48996e-21)
(0.00252901 0.00126332 5.86227e-22)
(6.88746e-05 7.71642e-06 -1.1801e-22)
(6.01222e-05 -2.59812e-07 1.0593e-23)
(0.0195635 -0.0026279 -4.79727e-21)
(2.90606e-05 -4.80352e-06 7.11487e-22)
(0.00819086 0.00193752 -8.11315e-22)
(0.05672 0.104115 -1.29047e-22)
(-0.093741 0.0392469 0)
(0.0101262 -0.0100247 3.51737e-22)
(0.00269013 -0.00275923 0)
(0.0323146 -0.000236084 -7.97787e-23)
(-0.00184595 0.00151986 0)
(0.000221576 -0.0579408 1.84039e-21)
(0.00347651 0.00797313 -4.37201e-24)
(-0.00500756 -0.00072188 6.90685e-22)
(0.0376608 -0.081126 0)
(5.84499e-05 1.22621e-05 -1.47938e-22)
(2.40633e-05 -2.12018e-05 0)
(9.83178e-06 -2.15143e-05 0)
(-0.00550711 -0.000647402 -4.08195e-22)
(-0.0291555 0.0556532 4.61422e-21)
(-0.026308 0.0529771 1.66092e-20)
(2.72202e-05 -1.45279e-05 -1.12121e-23)
(-0.00692748 -0.000139258 3.28948e-22)
(1.77734e-05 5.54334e-05 -2.79969e-23)
(-1.04717e-05 -6.7618e-05 0)
(0.0201414 0.0589304 0)
(-0.00252776 0.00064614 2.45178e-22)
(-0.0180765 0.0922045 0)
(-0.0229574 0.06861 -1.24829e-20)
(-0.031948 -0.0464614 -1.49728e-22)
(2.87331e-05 -3.59255e-06 -1.03616e-21)
(3.53692e-05 -7.12763e-05 -3.94037e-22)
(-0.00644687 0.00754123 1.84059e-23)
(0.0321175 -0.0270697 6.48201e-24)
(-0.0168703 -0.00831462 2.07337e-21)
(-0.00651133 -0.00125095 -1.61944e-22)
(1.76016e-05 6.18088e-07 2.05997e-22)
(-0.00329511 -0.00204713 -4.45384e-23)
(-0.0321873 0.0439917 -1.13684e-22)
(0.0111406 0.00798561 0)
(2.94816e-05 -1.39125e-06 0)
(0.0425581 -0.07578 0)
(0.102695 0.0427595 -5.2024e-21)
(-0.00592533 -0.00160546 -6.47373e-22)
(0.0602954 0.00510366 -1.72338e-21)
(1.90092e-05 -9.98768e-06 -9.52123e-22)
(-0.00991413 0.0154686 0)
(0.000230501 0.000126193 -4.54955e-23)
(0.000182796 0.000276338 7.06774e-22)
(0.000235161 0.000258237 1.38297e-22)
(0.000655845 0.000167081 -2.22856e-22)
(1.74375e-05 8.39228e-05 0)
(-0.00294393 -0.0440118 0)
(-0.00293946 0.099512 2.42636e-22)
(0.0121649 0.0946166 1.90581e-21)
(-0.0350773 0.00218353 1.89808e-21)
(6.82288e-05 0.000309104 0)
(0.000334668 0.000460196 2.83476e-22)
(-0.0304423 0.0695812 -5.42283e-22)
(1.6976e-05 4.29154e-06 0)
(0.106483 0.0445988 -3.94783e-21)
(2.89702e-05 -1.3013e-05 7.08485e-22)
(-0.00500347 0.101879 -9.62218e-23)
(0.0268297 0.00263667 0)
(0.0298293 -0.00285738 -2.20186e-22)
(0.0141217 0.0241109 1.36079e-21)
(-0.000143895 -0.000852156 -1.5503e-22)
(4.22634e-05 2.5846e-05 2.21521e-22)
(1.77019e-05 6.88557e-05 2.64607e-22)
(0.000127014 0.00030184 0)
(3.48174e-05 -1.54952e-06 0)
(-0.0365869 -0.0800624 -2.93294e-21)
(0.000514877 0.000354646 -4.00034e-22)
(0.000454921 0.000665627 0)
(7.50621e-05 5.6998e-05 7.19623e-22)
(-0.00155688 -0.00220907 -1.52094e-22)
(-0.00926601 -0.00702103 1.96664e-22)
(1.63891e-05 5.01585e-05 1.99668e-22)
(1.61367e-05 7.44791e-06 6.01783e-22)
(-0.00353778 -0.000639881 -3.57973e-22)
(2.20064e-05 2.43314e-09 -8.25243e-23)
(1.18053e-05 1.59709e-08 0)
(9.77203e-05 2.74595e-05 -9.31849e-23)
(-0.00981024 -0.0554455 1.06624e-21)
(4.13052e-05 2.58774e-05 1.12118e-22)
(0.0714174 0.0901262 -1.0004e-21)
(1.86152e-05 -9.56298e-06 -2.96107e-22)
(-0.0023963 -0.00333827 0)
(0.102798 0.0542507 0)
(0.00230671 -0.00505729 0)
(2.12589e-05 5.77994e-06 1.24845e-21)
(-2.25441e-05 8.35403e-05 0)
(0.000241181 0.000301534 -5.88521e-22)
(-0.00217898 -0.000291567 0)
(0.00189582 -0.0602045 1.5951e-22)
(0.000221449 8.31752e-05 0)
(-0.0617067 0.111976 2.14164e-21)
(-0.000719615 -0.000813494 0)
(-0.0646457 -0.0774584 -2.6754e-21)
(2.89147e-05 -1.2821e-05 -1.41678e-21)
(-0.00325224 -0.000461931 1.23031e-21)
(-0.00645206 -5.21075e-05 2.19155e-21)
(-0.00254234 -0.00309188 -7.62904e-23)
(-0.00899322 0.0959711 2.42107e-23)
(-0.00108952 -0.00330118 -2.73149e-22)
(-0.0012854 -0.0122279 1.78652e-22)
(-0.00107886 0.00046191 4.68221e-22)
(-0.000103835 -0.000203978 6.50285e-22)
(-0.00912812 0.0505788 -6.25871e-23)
(-0.00563529 -5.84616e-05 0)
(0.000480416 0.000382572 -3.68297e-22)
(-0.0755838 -0.00326955 1.16752e-21)
(3.18313e-05 1.06774e-05 -1.51266e-22)
(-0.00887708 -0.0148026 0)
(1.68624e-05 7.43369e-05 1.02198e-22)
(0.000268961 0.000179506 -1.47398e-23)
(0.00241979 0.00382997 -5.2614e-22)
(0.0535913 0.0213852 5.01777e-21)
(2.82346e-05 1.42759e-06 -1.01172e-22)
(-0.00417592 -0.0038235 -1.85084e-22)
(-0.000401656 -0.00410729 4.65303e-22)
(-0.026355 0.0390939 2.77619e-22)
(-0.0680822 -0.0817041 -2.55125e-21)
(-0.00847562 -0.000547033 0)
(4.27305e-05 -6.50604e-06 0)
(0.0492363 -0.00642216 2.24497e-21)
(-0.101751 -0.0544517 -5.67528e-21)
(1.14427e-05 -1.7421e-07 -3.3801e-22)
(0.000437947 -1.76493e-05 0)
(-0.00497176 -0.00188218 -3.32581e-22)
(-0.0108205 0.0473496 -4.9225e-21)
(0.000720879 0.000288691 4.03223e-22)
(-0.00205882 -0.000264014 1.844e-22)
(-2.34777e-05 -8.50795e-05 0)
(-0.00304173 -0.000816487 0)
(0.000723575 0.000344207 0)
(-0.0393907 -0.14192 -1.86633e-21)
(-3.22424e-05 4.45568e-05 1.03168e-22)
(3.00717e-05 2.89116e-06 -3.07219e-22)
(4.0886e-05 1.6874e-05 4.37746e-22)
(1.73504e-05 1.68322e-05 0)
(-0.00125819 -0.00226572 1.31479e-21)
(-0.0063532 -2.40897e-05 0)
(4.34466e-05 -1.09882e-05 0)
(2.42705e-05 -2.19375e-05 5.97021e-22)
(0.0136116 0.0020793 -8.50366e-22)
(0.0267862 -0.105938 1.82179e-23)
(4.79606e-05 0.000107606 2.57066e-22)
(0.00117584 -0.000456954 -1.47657e-21)
(-0.00681237 -0.000295785 1.40497e-21)
(-8.41449e-06 -2.28261e-05 7.35791e-22)
(0.000612348 0.000665151 -2.54718e-22)
(4.06285e-05 1.52943e-05 0)
(2.17212e-05 -5.3771e-06 0)
(4.99329e-05 1.98604e-05 -3.22049e-23)
(0.0262638 -0.103217 3.80352e-21)
(-0.00125323 0.00484841 -2.62056e-22)
(0.0317505 -0.0070285 0)
(3.52496e-05 1.18053e-05 -1.77632e-21)
(0.000976161 0.00233577 1.07984e-21)
(0.00210069 0.00147897 -4.90583e-22)
(0.00100426 -0.00111269 -4.75443e-22)
(1.01624e-05 2.71763e-05 0)
(4.04543e-05 -1.44089e-05 -8.28026e-24)
(-0.0336822 -0.00187574 -2.15035e-23)
(4.28259e-05 -1.85236e-05 -5.39093e-22)
(9.26567e-07 -1.77291e-05 0)
(-0.00161681 0.00682783 -7.37735e-23)
(2.14837e-05 1.62652e-06 6.84279e-22)
(2.72244e-05 -6.57165e-06 -4.61336e-23)
(-0.00670206 0.00667776 -1.38795e-22)
(2.17349e-05 5.01586e-06 -6.44067e-22)
(0.000551091 0.000321597 0)
(1.89074e-05 9.05008e-06 2.40931e-22)
(0.000505856 -0.00167604 5.88945e-22)
(0.00034314 0.000486417 0)
(0.000511967 0.000357632 -8.17197e-22)
(4.48779e-05 -4.15169e-06 -3.90816e-22)
(0.00202227 0.00129558 -1.59312e-22)
(1.87535e-05 8.27979e-06 -1.3444e-22)
(-0.00826362 -0.000581807 -1.23517e-21)
(0.00687693 -0.0159634 0)
(1.31363e-05 1.44195e-07 0)
(0.0193003 -0.0981478 4.3267e-21)
(0.000521763 -0.0012481 9.94012e-22)
(3.22019e-05 1.14543e-05 0)
(-0.00330668 -0.000814815 -3.22875e-22)
(-0.00859523 -0.00050373 -5.92281e-22)
(0.0572248 0.0378197 2.49504e-21)
(-0.000863438 0.00497713 0)
(1.52415e-05 4.94564e-06 5.98776e-22)
(3.97926e-05 0.00010778 0)
(7.64366e-05 1.3128e-05 0)
(-0.0010144 0.00683943 4.64615e-22)
(-0.0138062 0.182713 -1.14258e-21)
(0.0100495 -0.0205933 0)
(0.000611664 0.000260695 3.43328e-22)
(-0.00423936 -0.0389086 -4.67552e-22)
(-1.76817e-05 0.000138008 6.8586e-22)
(-0.00610098 -0.0012793 0)
(7.85367e-05 1.85738e-05 0)
(2.75096e-05 6.33545e-06 4.86235e-24)
(-0.00138191 0.00568854 0)
(0.00562924 0.0068469 0)
(0.0295021 -0.0093741 0)
(-0.000659507 -8.46504e-06 2.00038e-21)
(0.000359225 -1.81685e-05 0)
(2.78024e-05 1.148e-05 7.32782e-24)
(1.96885e-05 -9.36396e-06 2.13413e-21)
(-0.0142265 0.0004536 7.22507e-22)
(0.000140564 0.0369615 0)
(0.000565887 0.000687518 0)
(-0.0218033 -0.0245622 -3.04394e-21)
(0.00026063 0.000286059 -1.43443e-22)
(-0.00904515 -0.000134165 0)
(-0.003536 -0.000757442 -1.59577e-22)
(0.00964832 -0.000153486 -8.07235e-24)
(-0.022199 0.0485744 -1.42818e-21)
(0.0131961 0.110671 5.28117e-22)
(0.00160435 4.77843e-05 1.48096e-22)
(-0.00552551 -0.0024349 -5.63712e-22)
(2.09078e-05 -9.28526e-06 -9.61792e-24)
(0.0148669 0.105042 8.54088e-22)
(0.000345618 -0.00198534 0)
(0.0052724 -0.0154262 0)
(0.0275944 0.120777 1.2247e-22)
(-0.00279063 -0.0539478 -9.01498e-22)
(3.7447e-05 -2.2133e-05 -3.71462e-22)
(-0.00988306 -0.00256599 -7.39173e-23)
(0.00574526 0.00202875 -1.9498e-22)
(3.12229e-05 7.51298e-06 3.7261e-22)
(2.06869e-05 6.14069e-07 -8.52984e-24)
(0.00315972 -0.0123206 -2.45278e-21)
(1.61805e-05 7.73691e-06 6.20257e-22)
(0.0132989 0.0101265 8.96724e-22)
(2.37043e-05 -4.46086e-06 0)
(-0.000869006 9.73658e-05 3.47234e-22)
(0.0518472 -0.0207416 1.5057e-21)
(3.99666e-05 1.59621e-05 6.93891e-23)
(-0.0022971 -8.03313e-06 0)
(0.00265199 0.00063016 5.53909e-23)
(0.00106172 -0.00554745 0)
(-6.30499e-06 -4.09913e-07 -5.81047e-22)
(0.00175242 0.00114421 6.21435e-22)
(2.01568e-05 1.73502e-07 1.78939e-21)
(1.94927e-05 -1.52188e-06 5.89175e-22)
(2.40632e-06 -7.1419e-05 2.23774e-22)
(0.00149659 0.00240013 0)
(1.66709e-06 -1.06985e-05 0)
(1.78749e-05 2.20236e-07 -2.64827e-22)
(4.06586e-05 1.83975e-05 -1.64198e-22)
(0.0532646 0.00812703 0)
(1.79699e-05 -9.76128e-06 -8.9217e-22)
(-0.00272158 -0.00250235 3.98309e-22)
(0.00120171 -0.0083839 0)
(0.00885965 0.00194585 -1.75694e-21)
(0.000818402 -0.00512793 -1.48656e-21)
(-0.00103668 -0.00118042 -1.54763e-23)
(1.55273e-05 3.79234e-06 -2.12316e-21)
(-0.00124676 0.000405938 7.04487e-22)
(1.69448e-05 4.11324e-06 0)
(9.33974e-05 4.26741e-05 0)
(1.51849e-05 1.46693e-05 -3.90367e-22)
(-0.0136853 -0.00097748 -1.85887e-21)
(4.02515e-05 2.11515e-05 2.83985e-22)
(-3.01876e-05 -0.000105617 -5.16159e-22)
(-6.68869e-05 -0.000212608 2.01353e-22)
(-0.0310868 -0.0473396 -2.12785e-21)
(-0.00258316 0.00708865 0)
(-1.26759e-05 -3.33305e-05 -3.89652e-22)
(0.000302897 -0.000515235 0)
(1.15194e-05 -3.00565e-05 4.34162e-22)
(0.121457 -0.0525827 -1.00112e-21)
(0.000206522 8.63069e-05 0)
(-0.00497601 0.045852 6.62949e-22)
(0.00501641 0.00828459 -1.54158e-23)
(-0.00316612 -0.00186617 0)
(0.000506231 -0.0104582 0)
(2.45399e-05 -2.07003e-05 0)
(3.63473e-05 5.80911e-05 0)
(1.91271e-05 -9.49158e-07 0)
(-0.00289218 -0.0548989 1.81855e-22)
(3.78547e-05 5.71619e-05 2.31881e-22)
(0.00020678 -0.000444749 7.65068e-23)
(0.00186595 -0.010228 -6.56242e-22)
(-0.0075344 0.00603174 -1.59738e-21)
(-0.0659824 0.0077324 1.60859e-20)
(-0.00228215 -0.000186735 5.40394e-22)
(0.00348717 0.0110097 -7.49857e-22)
(0.000458863 0.000380986 -7.22481e-24)
(2.15279e-05 4.66277e-07 5.48074e-23)
(-0.0214739 -0.00727639 -2.39061e-21)
(0.000199595 7.49764e-05 0)
(-0.0488475 -0.0313241 -6.11589e-22)
(0.00858015 0.158279 0)
(1.20882e-05 9.58235e-09 0)
(-0.00457456 -0.00846288 0)
(2.18212e-05 9.68199e-06 5.2066e-23)
(-0.00960403 -0.0632701 2.15166e-21)
(3.84017e-05 -2.14509e-05 0)
(-0.0544305 -0.168313 8.56339e-22)
(-0.0081019 -0.000729118 0)
(0.00234365 0.0216579 0)
(0.000559059 -0.00787033 -2.03029e-21)
(0.00411427 -0.00145962 0)
(1.76232e-05 -1.05625e-05 0)
(1.39302e-05 2.49797e-05 0)
(-0.00893138 -5.09182e-05 -5.13376e-22)
(0.0524058 0.0980082 0)
(-0.00485042 -0.0006672 3.4461e-22)
(0.00100766 -0.00023528 9.77699e-22)