/*--------------------------------*- C++ -*----------------------------------*\
| =========                 |                                                 |
| \\      /  F ield         | OpenFOAM: The Open Source CFD Toolbox           |
|  \\    /   O peration     | Version:  v2012                                 |
|   \\  /    A nd           | Website:  www.openfoam.com                      |
|    \\/     M anipulation  |                                                 |
\*---------------------------------------------------------------------------*/
FoamFile
{
    version     2.0;
    format      ascii;
    class       volScalarField;
    location    "300";
    object      k;
}
// * * * * * * * * * * * * * * * * * * * * * * * * * * * * * * * * * * * * * //

dimensions      [0 2 -2 0 0 0 0];


internalField   nonuniform List<scalar> 
37190
(
0.000156084
0.000143091
0.000141988
0.000140175
0.00625332
0.000145434
0.000162057
0.000186385
0.000133337
0.0137729
0.00552554
0.0321867
0.000213474
0.000150354
0.0173505
0.00335185
0.000142
0.00405109
0.000136818
0.00015167
0.000158722
0.0223502
0.000142963
0.0338326
0.00368696
0.000150941
0.0438502
0.000154421
0.014671
0.000144482
0.000264029
0.000151412
0.000154892
0.000193813
0.000156078
0.00299443
0.0444081
0.00989445
0.00013672
0.000154826
0.00263337
0.000130814
0.00313636
0.00015111
0.0320097
0.0142009
0.0328437
0.0358077
0.00013119
0.000160113
0.000142746
0.0001279
0.000146097
0.000161842
0.000148884
0.000194024
0.000127951
0.000151242
0.00203191
0.000256006
0.000185214
0.0220848
0.000159001
0.000150835
0.00985005
0.0405073
0.00335695
0.021126
0.0221588
0.0276974
0.000136659
0.000208523
0.00015701
0.000142809
0.000144367
0.000200609
0.0328072
0.0309351
0.000154538
0.0302976
0.0330333
0.000140214
0.0330275
0.000145597
0.0112464
0.000169008
0.01124
0.0142895
0.000162843
0.00136038
0.000136958
0.0140766
0.000155289
0.000145982
0.00017947
0.0109519
0.000151915
0.0391449
0.0281736
0.000144199
0.0256601
0.000193395
0.000146397
0.000129866
0.0127581
0.000145092
0.000149352
0.0148797
0.0230567
0.000147038
0.00192095
0.000147275
0.000140135
0.000147263
0.000206661
0.000140229
0.0342678
0.0079969
0.000158899
0.000152536
0.000224478
0.0281592
0.000145735
0.000143285
0.0112715
0.000159849
0.0170346
0.000145876
0.011718
0.0256128
0.0442074
0.000148313
0.000146218
0.000350419
0.000148639
0.000400003
0.000146925
0.00398273
0.000331294
0.010041
0.0312133
0.000225037
0.000252569
0.011643
0.000152497
0.000138816
0.000152541
0.000154765
0.000138554
0.0268039
0.000149389
0.000140638
0.000128933
0.000166849
0.0237216
0.000142354
0.0222376
0.00014676
0.000175143
0.008383
0.000151498
0.000157316
0.000152687
0.000154927
0.0231709
0.000152825
0.0139215
0.0135464
0.000159109
0.0316976
0.0115901
0.000133251
0.000283553
0.000138123
0.0139377
0.0048046
0.000201908
0.000179323
0.00014781
0.0142976
0.000166887
0.000192231
0.00158695
0.0220166
0.000159853
0.00362685
0.000148996
0.0122907
0.0408223
0.000172671
0.000138209
0.000226856
0.000191639
0.000147624
0.000138015
0.034012
0.0390111
0.0395763
0.0289747
0.000149118
0.000145702
0.000189284
0.000148625
0.000144574
0.0108434
0.000541007
0.000140095
0.000144125
0.0148003
0.000172306
0.000148585
0.000139688
0.0121441
0.000150242
0.0280029
0.000152224
0.000141431
0.000148855
0.00649837
0.000140192
0.00015464
0.000139682
0.0406637
0.00546879
0.0233754
0.00945076
9.60242e-05
0.0354968
0.000146886
0.0163658
0.0171175
0.000146459
0.000128858
0.00014841
0.000139681
0.00015651
0.029127
0.00012872
0.000148072
0.000180704
0.000137698
0.012296
0.000161601
0.000129497
0.0121794
0.00412529
0.000141785
0.000169786
0.00543606
0.000155347
0.000153767
0.000159231
0.000181789
0.000152847
0.000137489
0.000154724
0.000137774
0.000145563
0.000179924
0.000128532
0.0142913
0.017079
0.000175198
0.00012784
0.0120263
0.000156188
0.000142461
0.000393645
0.000138459
0.000188148
0.000159593
0.000146901
0.0137824
0.0116361
0.000193242
0.0140802
0.000180143
0.000149135
0.0118341
0.000129965
0.000138685
0.000185899
0.000155947
0.000128729
0.0288666
0.000139659
0.000149771
0.00017851
0.0118504
0.000158064
0.00015746
0.000150392
0.00018324
0.0344265
0.000131362
0.0116825
0.000136514
0.000160296
0.017166
0.000140514
0.000184627
0.0229177
0.0118206
0.0337807
0.000152483
0.000166748
0.03519
0.000143072
0.0321905
0.0240784
0.0107453
0.0395223
0.019742
0.0205768
0.00016546
0.000166843
0.000145247
0.000146623
0.0232951
0.000149125
0.0412721
0.0417201
0.000143407
0.000165901
0.00946209
0.000545719
0.000159795
0.0220139
0.0123582
0.000138574
0.0109626
0.0156757
0.0296451
0.0309109
0.000146094
0.000138774
0.000142423
0.000150749
0.000141142
0.000144046
0.0029479
0.000142494
0.0273938
0.000145935
0.0142439
0.000174646
0.0228754
0.000135825
0.00276612
0.021392
0.00427258
0.000203034
0.000153717
0.000127811
0.00393578
0.00151121
0.000137142
0.000135673
0.0442939
0.0337387
0.0437055
0.0166136
0.014343
0.0313333
0.0311243
0.0239749
0.000148006
0.0363325
0.000131288
0.00902811
0.000145925
0.00284056
0.000223809
0.0152681
0.000146088
0.000129533
0.0310468
0.00755792
0.0252097
0.000206648
0.000148486
0.00579641
0.000143041
0.0203757
0.000898931
0.00674523
0.000139983
0.000134963
0.000136675
0.000197484
0.000159667
0.0398978
0.000151226
0.000131054
0.0280902
0.00104177
0.00403129
0.0403086
0.00606804
0.00013388
0.0154016
0.0226787
0.000133727
0.0141992
0.0287696
0.000136659
0.00146308
0.00323747
0.0298167
0.000137239
0.00014781
0.000153509
0.000149403
0.0128347
0.000171818
0.0314991
0.000175129
0.000151193
0.00264894
0.000145034
0.000134049
0.00287111
0.00092595
0.000165201
0.000144797
0.000128395
0.000134886
0.000151769
0.0150029
0.0145711
0.000128413
0.000139369
0.000137499
0.00183001
0.0293031
0.000147006
0.00016142
0.000149022
0.000161731
0.0303975
0.000149272
0.000146534
0.0239651
0.000179634
0.018527
0.00397149
0.0163421
0.000190186
0.000157134
0.000154633
0.0120733
0.0143757
0.00017699
0.000153763
0.0241249
0.0259913
0.000137542
0.000144592
0.000136389
0.0085341
0.000130915
0.000184555
0.0286006
0.000147934
0.000185293
0.000136136
0.00133431
0.000180907
0.00014105
0.00485466
0.000146374
0.000145486
0.0142209
0.000151048
0.000211123
0.00977592
0.000146979
0.000185377
0.000144807
0.000196526
0.0292862
0.000146212
0.000136629
0.000684863
0.000189785
0.000172417
0.0313995
0.000152492
0.0153925
0.000141038
0.000125817
0.0241806
0.000186853
0.000134937
0.000177018
0.000153647
0.000148225
0.000207071
0.000146239
0.000481483
0.00259929
0.0035045
0.0230759
0.0262444
0.000146759
0.000148887
0.00014652
0.000161303
0.000152962
0.000148575
0.00425468
0.000138374
0.000141044
0.000188593
0.0154238
0.000190006
0.00824129
0.00014768
0.000144728
0.0252617
0.000153833
0.031333
0.000171549
0.000162641
0.000144183
0.00247941
0.000169553
0.0195182
0.000158097
0.000147087
0.000134925
0.000186984
0.000153539
0.000146255
0.00162124
0.000139657
0.000188855
0.0161114
0.0207294
0.000226362
0.000150589
0.000229773
0.000167483
0.00778146
0.000272949
0.0213344
0.0347813
0.000145449
0.00013868
0.000134258
0.0207961
0.00411026
0.00351141
0.000127931
0.00592897
0.000144752
0.000155659
0.0232622
0.000158259
0.0226949
0.00363356
0.0148413
0.000139644
0.000148248
0.000155304
0.000338211
0.0205621
0.0412841
0.000143672
0.0354683
0.00404064
0.000276812
0.000154237
0.0311811
0.025609
0.0405106
0.0234989
0.000135904
0.000188
0.000159388
0.000138648
0.000154145
0.00015604
0.000146986
0.00510088
0.00331136
0.00395759
0.00285457
0.000155162
0.000177193
0.00416555
0.000134587
0.0242901
0.00013962
0.00340499
0.00295047
0.000226441
0.0163647
0.000155095
0.000142826
0.000145602
0.000154841
0.000148414
0.0262074
0.000171855
0.000180693
0.000138342
0.0257678
0.00195027
0.000144396
0.000134736
0.0193001
0.000156705
0.000151585
0.000154447
0.0118315
0.00014272
0.0171404
0.00013591
0.000116434
0.0293673
0.000169767
0.000137325
0.000153854
0.000138863
0.000157966
0.0113616
0.000158929
0.0185015
0.000147421
0.0266445
0.000139733
0.000215432
0.00539707
0.000137105
0.0228634
0.0239074
0.000183118
0.000146952
0.000141355
0.023936
0.0058607
0.000172179
0.0227091
0.000141081
0.0155021
0.000146029
0.000134086
0.000169229
0.0331373
0.000129707
0.000181322
0.00686606
0.022434
0.0272587
0.0347664
0.000142559
0.00065533
0.0332671
0.000152114
0.000153811
0.0413437
0.00550682
0.000173051
0.0302932
0.000156191
0.000155825
0.000157016
0.00840129
0.000154082
0.000146887
0.000139165
0.000143041
0.00206665
0.00589094
0.000142836
0.000138776
0.000260523
0.0379005
0.000150484
0.000152692
0.0126844
0.000142455
0.000179627
0.000145817
0.000136444
0.000149757
0.039677
0.000200801
0.0002347
0.00013889
0.000152083
0.000186993
0.0127996
0.000143454
0.00014281
0.00276975
0.000145403
0.000134078
0.000204562
0.000137082
0.000128462
0.000247435
0.000136998
0.000171615
0.000129236
0.00014238
0.000178706
0.000188309
0.000142614
0.000186115
0.000129225
0.0251738
0.000193207
0.000135278
0.0407906
0.000145889
0.000141102
0.0216266
0.0335986
0.0213749
0.000171076
0.000136024
0.000149946
0.000131081
0.000203782
0.00389295
0.00437653
0.000171129
0.00473221
0.000139642
0.0426468
0.000153663
0.000143104
0.000202225
0.000172034
0.000233465
0.000148504
0.000162824
0.000130646
0.000135989
0.000217303
0.00272489
0.000180056
0.00684364
0.000154496
0.0316608
0.0210461
0.0166846
0.00477938
0.00400737
0.000142853
0.000163156
0.000136266
0.00412591
0.000143189
0.000192678
0.0255551
0.00764249
0.000141797
0.0296928
0.000171798
0.000139528
0.000151784
0.000201906
0.00013479
0.000342258
0.00013314
0.000153534
0.0351266
0.000145667
0.000157904
0.000152455
0.000164609
0.000134523
0.000184907
0.000157756
0.000137372
0.000155689
0.000190128
0.000133868
0.000129453
0.000145897
0.000241874
0.000135833
0.0271206
0.000172809
0.000196805
0.000163293
0.000168893
0.000136128
0.000147372
0.000134643
0.000148406
0.000131187
0.000208193
0.00014589
0.000148855
0.000141346
0.00336169
0.000207749
0.000142766
0.000149718
0.000134473
0.0186599
0.000158358
0.0225109
0.000286064
0.0324087
0.000200674
0.000141928
0.000147637
0.000152081
0.00779139
0.000147994
0.000153536
0.000197803
0.000177286
0.0359355
0.000153414
0.000170958
0.000172111
0.000158222
0.0182697
0.000158134
0.0146133
0.0119086
0.000152025
0.000176783
0.00012931
0.0150956
0.000141972
0.00993544
0.0283496
0.00793831
0.000171406
0.000154175
0.000135818
0.000143307
0.0332217
0.0157601
0.0206227
0.000151986
0.000153016
0.000149391
0.0134522
0.000152963
0.000136878
0.0137685
0.000167476
0.000190349
0.000152427
0.000155818
0.00016907
0.000142467
0.000145618
0.0389655
0.000153338
0.000481421
0.00130351
0.0235706
0.000192186
0.000169034
0.000161537
0.000160677
0.0208345
0.0204022
0.0124098
0.000248489
0.000137387
0.00155017
0.000143594
0.000164438
0.000138503
0.0354016
0.00514559
0.00401586
0.0167065
0.000151212
0.00330351
0.00412423
0.0146643
0.000202756
0.000178991
0.0193386
0.000138461
0.0359647
0.00307096
0.00723093
0.000152314
0.000186056
0.000144386
0.00320188
0.000128604
0.000139224
0.000147189
0.000146454
0.000139218
0.000150173
0.000142972
0.000147538
0.00014567
0.000170976
0.00261822
0.000143755
0.000137362
0.0148616
0.000166978
0.00013764
0.000149805
0.000139582
0.0082479
0.0142769
0.000149408
0.000154131
0.000181445
0.000143265
0.000162619
0.000203587
0.000152047
0.00131023
0.000179644
0.0112194
0.0226705
0.000144581
0.000136122
0.000142424
0.0168881
0.018327
0.000137329
0.000153381
0.0120404
0.000135355
0.0298491
0.000163046
0.00735062
0.000177897
0.000135353
0.0291532
0.000136584
0.0214094
0.000324332
0.000185201
0.000172883
0.00016598
0.000189003
0.000152666
0.0156495
0.000132276
0.000163089
0.0152753
0.000169954
0.000192242
0.00640078
0.000175319
0.000132145
0.000134905
0.0272509
0.000162649
0.000132044
0.000159131
0.000159936
0.00193263
0.0435678
0.000148172
0.0307764
0.000175735
0.0210601
0.00015336
0.00672796
0.000184241
0.00280261
0.00238089
0.000202448
0.000132157
0.00013733
0.000226552
0.000137187
0.000153712
0.000155503
0.000148193
0.000152403
0.000179825
0.0001352
0.000192609
0.0398995
0.000136035
3.74856e-05
0.000133674
0.000137956
0.00355752
0.0138793
0.0321562
0.0130707
0.000161243
0.000181532
0.00017179
0.000133554
0.0195425
0.00629913
0.00014426
0.0259958
0.00013859
0.000145697
0.000153924
0.000137708
0.000210362
0.0012901
0.000142516
0.0176268
0.000134585
0.0250263
0.0202854
0.0257725
0.0418388
0.00445211
0.000159708
0.000153338
0.000193296
0.000148582
0.000143503
0.000187249
0.00014909
0.0270273
0.000134448
0.000145411
0.000143907
0.000140268
0.0103845
0.000142011
0.000166375
0.00539078
0.000146787
0.000186366
0.000135832
0.000130883
0.000149574
0.0357751
0.00214904
0.00014232
0.000147034
0.0248782
0.000141935
0.0347105
0.000209697
0.000144987
0.00360766
0.000161398
0.000140712
0.000139551
0.00013225
0.00872719
0.000169915
0.000158681
0.000175598
0.000173545
0.0229574
0.000133929
0.00372856
0.000146238
0.000152696
0.000146037
0.000163004
0.00014554
0.000750714
0.000515327
0.00265018
0.00013113
0.000191972
0.000145894
0.0102182
0.000192959
0.000146488
0.000153546
0.000190544
0.00014235
0.00611416
0.0030823
0.000135999
0.000147848
0.000154408
0.000141572
0.000152822
0.000140246
0.000152498
0.000143365
0.000155062
0.000152453
0.000135889
0.000178596
0.000143399
0.00717498
0.000138465
0.000145596
0.00369433
0.000144978
0.000153367
0.0001441
0.000148366
0.000143977
0.000143637
0.000162788
0.000203436
0.00116513
0.000136189
0.00112933
0.0231271
0.00163177
0.000137774
0.0234058
0.000155217
0.0142933
0.0140618
0.000231065
0.000163858
0.0180923
0.00718053
0.000158218
0.000160024
0.000154001
0.00605504
0.000131605
0.000186095
0.017096
0.00215785
0.000140814
0.000136021
0.000139451
0.000182878
0.0191476
0.00873424
0.0309205
0.0339108
0.000136006
0.0119772
0.00244572
0.00201926
0.000178596
0.000176534
0.000140542
0.000152194
0.0398055
0.016218
0.000153053
0.000142294
0.000180422
0.000136339
0.0140189
0.000152862
0.000142456
0.000168851
0.000184278
0.000134008
0.000203046
0.000192309
0.0270613
0.000133875
0.00623832
0.000135611
0.028583
0.006493
0.000225408
0.000143691
0.00276241
0.000141507
0.000141925
0.000190524
0.0180542
0.000133072
0.000153538
0.00330234
0.000163011
0.000161221
0.000130526
0.000228254
0.037579
0.0215919
0.000204468
0.0203323
0.00713258
0.000162719
0.0278364
0.000150485
0.000142489
0.0174488
0.023883
0.00693776
0.00013699
0.000181311
0.0182334
0.027102
0.000192079
0.000186181
0.00129085
0.000169702
0.000155133
0.000170357
0.00207535
0.000141966
0.000172407
0.000149617
0.0297019
0.0234064
0.000128119
0.000142205
0.000165599
0.000599854
0.000135989
0.000143848
0.000149938
0.030381
0.00963887
0.000189607
0.0214332
0.000147649
0.000137168
0.000158576
0.000143033
0.00261971
0.0109345
0.000189345
0.00390419
0.000150002
0.000175851
0.000136925
0.000136632
0.000141454
0.000140567
0.0001607
0.0226846
0.000144422
0.000160144
0.000464704
0.000171318
0.0105135
0.023515
0.000132227
0.000141787
0.000188262
0.00013364
0.0221233
0.000132479
0.000137522
0.000134351
0.00019286
0.000133517
0.000153892
0.0274783
0.000202257
0.0371109
0.00015012
0.000153819
0.000138215
0.000139971
0.000136502
0.0377038
0.000170313
0.000153148
0.000445517
0.000157452
0.000144584
0.00354977
0.00021527
0.0001365
0.000155391
0.0411285
0.000167196
0.000192272
0.000144846
0.0396261
0.000136568
0.00014455
0.000181643
0.000142101
0.00725368
0.000190522
0.000129479
0.000135913
0.0271224
0.0127807
0.00014039
0.000140303
0.000151839
0.000134239
0.000128466
0.000136462
0.000158909
0.00513963
0.00700607
0.000142277
0.000132378
0.000147974
0.000252449
0.00395175
0.000142676
0.000162288
0.00890923
0.0289365
0.000153912
0.0180088
0.000133573
0.000168483
0.0001882
0.00019174
0.000151842
0.000142915
0.000127958
0.00998756
0.000185689
0.000153215
0.000151536
0.00268152
0.000149417
0.000146339
0.000132247
0.0049289
0.000146433
0.000191018
0.000208889
0.00013584
0.000143742
0.0248336
0.000178496
0.000136185
0.00630174
0.000143865
0.0015708
0.00013574
0.000185192
0.000605511
0.000148269
0.000221601
0.0256897
0.000146376
0.000146381
0.000142994
0.000167293
0.000168487
0.0123923
0.000136848
0.000188087
0.000155142
0.00019093
0.000147926
0.000202483
0.000133005
0.000431026
0.000152996
0.000143155
0.0262652
0.000167965
0.000143215
0.000133117
0.000151403
0.000526647
0.000168441
0.000149246
0.00014154
0.000143445
0.000164557
0.0123269
0.000163392
0.0254121
0.000144683
0.000178578
0.000135665
0.0253131
0.000130015
0.00130457
0.000161859
0.000148824
0.016044
0.0301286
0.000144039
0.000212673
0.000137745
0.0159333
0.0275431
0.000134404
0.0104832
0.000137294
0.000152441
0.000450438
0.000194854
0.00124589
0.0213533
0.000130797
0.000768534
0.000141197
0.000143558
0.0240758
0.0271179
0.000132352
0.000178264
0.000148222
0.00016684
0.000145098
0.00017034
0.000141579
0.000176152
0.000143198
0.000141695
0.000176347
0.000151038
0.000186521
0.000481171
0.00435736
0.000142959
0.000140602
0.000189296
0.000185745
0.00597371
0.00013817
0.033444
0.000147959
0.000135923
0.0137953
0.000140092
0.00268201
0.000131348
0.000156806
0.01681
0.000135728
0.000141062
0.00014249
0.000149396
0.00014879
0.0394193
0.000150527
0.00125233
0.000153453
0.00015649
0.00889343
0.00709847
0.000140316
0.000149924
0.0108957
0.00631271
0.000152503
0.000151069
0.00250835
0.0370212
0.000142286
0.000167569
0.000130774
0.000143419
0.000121011
0.0266884
0.000181236
0.0228656
0.00014887
0.000153447
0.00346788
0.000236089
0.000129159
0.0327376
0.000177655
0.000180171
0.0117418
0.000137259
0.0002161
0.000143016
0.000148605
0.000136596
0.000168444
0.000166424
0.000174913
0.000152606
0.000154222
0.000177793
0.0247629
0.000145539
0.0122541
0.00444569
0.025185
0.00013298
0.000135764
0.0284278
0.000141132
0.00359257
0.00014641
0.000186343
0.01374
0.000144787
0.00304005
0.000141573
0.0382977
0.000177204
0.0002084
0.0231442
0.000146819
0.000147101
0.0133168
0.000145777
0.0023071
0.000176499
0.000215105
0.000194699
0.000147785
0.000245199
0.000153425
0.0001594
0.000169525
0.0067839
0.000137339
0.000137239
0.0158875
0.00771865
0.000183509
0.0320812
0.000153082
0.000137282
0.0145375
0.000173584
0.02455
0.000726655
0.0331605
0.00015353
0.000164831
0.000149849
0.0378226
0.000152961
0.00354624
0.000135327
0.000138348
0.000147344
0.0264548
0.0050457
0.000163288
0.000167161
0.000157084
0.000129155
0.000189964
0.000129732
0.0193743
0.00943343
0.0266098
0.000129544
0.000152337
0.0237653
0.000162947
0.0324276
0.000134444
0.000135363
0.000191019
0.021771
0.000152376
0.0250757
0.0276296
0.000157916
0.0252581
0.000201984
0.000168397
0.000143917
0.02183
0.00372897
0.000134231
0.00017743
0.0189212
0.000138346
0.0249162
0.000186573
0.0196882
0.0216758
0.000150873
0.000143272
0.00013279
0.000132686
0.0135112
0.000148073
0.000136978
0.0300195
0.000141373
0.000171968
0.00015054
0.000151615
0.000185034
0.000189985
0.000140222
0.000154404
0.000197905
0.000172626
0.000147846
0.000144214
0.00017763
0.0182899
0.000143368
0.000212415
0.0191306
0.0227248
0.00292025
0.000139001
0.000157174
0.0121429
0.0271344
0.000150813
0.000143089
0.0124305
0.0033219
0.0267609
0.00015435
0.00109806
0.0224079
0.000141772
0.000313908
0.000198883
0.000149101
0.000142458
0.000134026
0.0114363
0.000141153
0.014772
0.000199259
0.0211593
0.000219508
0.0148581
0.0137341
0.00115063
0.0066088
0.000143863
0.00696071
0.000255584
0.000146078
0.000170185
0.000172806
0.000202465
0.0283127
0.000140144
0.00014752
0.000141091
0.000767677
0.000138929
0.000135336
0.000154289
0.000153951
0.000161516
0.0228165
0.000182938
0.000130777
0.000153478
0.000154771
0.000188426
0.000154395
0.000203077
0.000153214
0.0193317
0.0343987
0.000138757
0.0203143
0.000207751
0.0290434
0.0236461
0.000153511
0.0130031
0.000143536
0.000245478
0.0254305
0.000141062
0.000140312
0.00014459
0.000140111
0.000155034
0.000160627
0.000142232
0.000358245
0.000148394
0.029534
0.000155263
0.0134361
0.000135322
0.000140153
0.00476722
0.000141369
0.000144005
0.000142823
0.00019096
0.000149262
0.0001483
0.000152209
0.000141002
0.000181187
0.000134188
0.0143797
0.000143449
0.000165507
0.0327619
0.00014817
0.000200636
0.000187673
0.000141832
0.0143115
0.000136694
0.0205273
0.0352667
0.00517554
0.000179891
0.000138877
0.000190493
0.000191853
0.000143876
0.000162216
0.000167393
0.000168575
0.000151703
0.000138813
0.00330241
0.00620063
0.000144364
0.027283
0.0228512
0.000135427
0.000138898
0.000132212
0.000189752
0.00389368
0.0002212
0.000142333
0.000138875
0.00262895
0.00016966
0.0358543
0.00806655
0.000142689
0.000151982
0.00013601
0.0220766
0.0294447
0.000136287
0.000162895
0.00453344
0.0248859
0.000161368
0.000153785
0.000133168
0.000147188
0.0387655
0.000118535
0.000143416
0.0356218
0.000138264
0.00248102
0.00069182
0.00016985
8.62442e-05
0.00103997
0.000145775
0.00169815
0.000166755
0.0141151
0.00548729
0.000135465
0.0262364
0.0352297
0.00145463
0.0143684
0.000153989
0.0265103
0.0305486
0.000162736
0.000135777
0.00243784
0.0042673
0.00419431
0.000185692
0.000148845
0.000133369
0.000142476
0.0251569
0.0238022
0.000194365
0.000156791
0.000148501
0.00014261
0.0140929
0.000138061
0.0193698
0.00999365
0.000178117
0.000142129
0.0138855
0.000142261
0.00017738
0.0234796
0.00367783
0.000150349
0.000146897
0.000142913
0.000142841
0.000180152
0.000142064
0.000171009
0.000177425
0.000145105
0.000130801
0.000197472
0.000297643
0.000138045
0.000135879
0.000142807
0.000153333
0.000154532
0.000299709
0.0296288
0.01365
0.0101731
0.000144482
0.000142188
0.000177437
0.000190893
0.000136019
0.000189903
0.0167791
0.0132842
0.000231986
0.0172346
0.000179889
0.000162164
0.0353394
0.000138291
0.00348838
0.000203401
0.000132893
0.00436824
0.000150551
0.000187617
0.0230341
0.000226719
0.000161081
0.0105823
0.000142904
0.000141796
0.000130184
0.000158254
0.000142316
0.000146259
0.000141048
0.0264667
0.000157136
0.000142317
0.000161922
0.000151878
0.000363816
0.0236627
0.0286244
0.000142965
0.000135701
0.0261655
0.000190615
0.0141936
0.000143386
0.000153358
0.000143912
0.000147039
0.0116212
0.000156733
0.000138566
0.000143726
0.000196762
0.00013879
0.000168177
0.000136228
0.000136695
0.000153581
0.000195222
0.000178084
0.000159155
0.000136317
0.00540017
0.000206818
0.014417
0.0244911
0.000146216
0.000293759
0.000203777
0.00018644
0.0329993
0.000156827
0.000350044
0.000150334
0.000188177
0.0190307
0.000135466
0.000141449
0.0205919
0.000130116
0.00756565
0.0350173
0.000138831
0.000183303
0.000136189
0.000142885
0.0102055
0.000134662
0.000136088
0.000135843
0.000132194
0.000159364
0.000144988
0.0244222
0.000135875
0.0360064
0.0119064
0.000147869
0.000143387
0.000139064
0.000136342
0.000153295
0.0141778
0.000136
0.000181566
0.000157446
0.0221902
0.0246229
0.000150344
0.000210555
0.000172148
0.000130608
0.000134501
0.00522788
0.000130614
0.000133231
0.011197
0.00417551
0.0204238
0.000143978
0.0256632
0.00485012
0.000131074
0.00017051
0.00014413
0.000141859
0.000132825
0.000140126
0.023359
0.000142064
0.00014385
0.00281414
0.000151796
0.00745136
0.000160627
0.000147367
0.0213764
0.000134459
0.0122838
0.000131924
0.000150624
0.024459
0.000141308
0.000135416
0.000142203
0.00835874
0.00395224
0.000145194
0.000141273
0.000133181
0.000159473
0.00332246
0.000202528
0.000148755
0.0105127
0.0201189
0.000142917
0.0271226
0.000130529
0.000174155
0.0007809
0.000132134
0.000157089
0.0140343
0.000163699
0.0139861
0.000177401
0.00016956
0.0108376
0.000154715
0.00183795
0.000140678
0.00647021
0.00014383
0.0277337
0.00014958
0.000156477
0.000162362
0.000137987
0.0162331
0.00495562
0.0131
0.000211925
0.000133821
0.011986
0.000129566
0.000140139
0.0314819
0.000133291
0.0274378
0.0108034
0.000130985
0.000154068
0.000175415
0.000202198
0.00013547
0.000188357
0.000166987
0.00032996
0.0235623
0.000143021
0.000144183
0.000139914
0.000131343
0.0185544
0.000188646
0.00271203
0.000138633
0.00617135
0.0357782
0.000129385
0.000133259
0.0114922
0.000334588
0.0457348
0.000221387
0.0131322
0.000213734
0.000181409
0.000184401
0.00397183
0.045425
0.000154343
0.000203834
0.000140194
0.000154332
0.000213498
0.0249105
0.000150004
0.000203426
0.00479621
0.000138895
0.000148021
0.000149409
0.00015348
0.000140162
0.0194284
0.000158614
0.0157233
0.000135107
0.000331071
0.000164774
0.000212794
0.000192077
0.000184105
0.0139641
0.000137105
0.000141778
0.000215466
0.000133747
0.0350187
0.000177861
0.000143228
0.000129941
0.0269751
0.000143691
0.000149122
0.000138633
0.000158232
0.000177447
0.000167016
0.000154509
0.000141399
0.000145365
0.000256577
0.000135714
0.000152165
0.000141264
0.000142793
0.000129886
0.0241625
0.000163777
0.0198759
0.00015254
0.000156641
0.000156481
0.0364317
0.004489
0.000141991
0.0246681
0.000143134
0.000135052
0.000178342
0.0327263
0.00302414
0.0230122
0.000194887
0.000188222
0.00013999
0.000142723
0.000151696
0.0139602
0.000171754
0.000128254
0.000199723
0.0361166
0.00013825
0.000137126
0.00354069
0.000148419
0.0275724
0.000231979
0.0384686
0.000135904
0.000163181
0.000141769
0.0290508
0.000150054
0.000133894
0.000154342
0.0150159
0.0241999
0.0349671
0.0169437
0.00015013
0.000135021
0.000141655
0.0340989
0.000138468
0.000149215
0.000162271
0.000136577
0.000401695
0.000141282
0.00013364
0.000133683
0.000169706
0.000145113
0.00271041
0.00014512
0.000141774
0.0261455
0.000144185
0.000212997
0.0138826
0.000187912
0.000149079
0.0288156
0.000544159
0.000143987
0.000703711
0.000132538
8.4261e-05
0.000223154
0.00781219
0.000190981
0.000183621
0.000197167
0.000138849
0.000131651
0.000149379
0.000133615
0.000168608
0.012805
0.000167887
0.0211927
0.000129554
0.0428984
0.000219315
0.000147684
0.000217312
0.000136008
0.000195109
0.000151738
0.0239558
0.000129844
0.0148338
0.000133442
0.000139604
0.000164062
0.0137674
0.000420505
0.000147877
0.0243964
0.0150384
0.000134926
0.00123453
0.000167016
0.000178283
0.00742508
0.000142459
0.0378952
0.000139635
0.000142761
0.0238859
0.000164012
0.000133246
0.000141984
0.000137055
0.000134124
0.000149266
0.0148424
0.000167683
0.000337162
0.00014023
0.000143975
0.000188748
0.0192674
0.0086876
0.0288413
0.00366253
0.000148718
0.000137248
0.000137583
0.000157581
0.000143015
0.000133849
0.00475601
0.0172413
0.0124098
0.000143649
0.00013932
0.00265879
0.000142772
0.000138946
0.000142823
0.000152587
0.000215929
0.0081091
0.000141118
0.000134073
0.000166671
0.000142397
0.0157215
0.000159937
0.00116674
0.000146579
0.00017908
0.000141614
0.000132473
0.000203124
0.00015189
0.000406148
0.000136636
0.000815805
0.000149977
0.0221336
0.000138806
0.0158117
0.000137271
0.000190905
0.000141779
0.000138932
0.000143739
0.000215585
0.00573016
0.000142493
0.000152921
0.000135439
0.0373479
0.000179499
0.00290485
0.000154651
0.00015134
0.000164818
0.0166116
0.000192959
0.0130645
0.000142874
0.000143805
0.0162887
0.0142111
0.000129449
0.000216706
0.000152911
0.000135189
0.00239368
0.000140498
0.00251447
0.000145919
0.015057
0.000140535
0.0357443
0.0168331
0.000131185
0.000145568
0.000130905
0.000145628
0.00559994
0.0169824
0.000907743
0.00306534
0.000140541
0.000200956
0.000142744
0.0211089
0.000130397
0.00052895
0.000134788
0.000212057
0.000141493
0.000138603
0.000154669
0.0172269
0.00276059
0.0204675
0.000191247
0.000181466
0.00239691
0.000193144
0.0218585
0.000141974
0.000158122
0.000151343
0.00013623
0.000135296
0.000181392
0.00394144
0.0189741
0.000157082
0.000144533
0.0236253
0.000143347
0.000186894
0.000205369
0.0259087
0.000155404
0.000136444
0.000135661
0.000146522
0.000143769
0.024142
0.000189089
0.000138085
0.000153413
0.000176742
0.000155
0.0406488
0.012644
0.00660003
0.000143154
0.00209645
0.0228408
0.000173166
0.00053326
0.000137507
0.000139526
0.0150957
0.0377908
0.000303426
0.00013798
0.000160623
0.000131983
0.0236465
0.0369866
0.000135578
0.000155025
0.000137745
0.000144414
0.000107311
0.0363897
0.000139161
0.000137421
0.000153115
0.000143414
0.000135327
0.000161933
0.000138448
0.0001509
0.000135578
0.0311809
0.000136394
0.000190905
0.000134646
0.000153111
0.000137604
0.00016584
0.0001395
0.000139449
0.000135302
0.000143483
0.0160642
0.00015092
0.000172701
0.000151126
0.0131206
0.000149293
0.0162783
0.000138672
0.00700313
0.00017043
0.0427251
0.00241721
0.000395256
0.017231
0.000544775
0.000131992
0.0324151
0.000147308
0.000155189
0.00315716
0.000191027
0.000170951
0.045365
0.000189579
0.000162805
0.000157608
0.00755945
0.000139552
0.000143421
0.000147154
0.000166303
0.000139454
0.000131976
0.00398345
0.000149927
0.000139742
0.000141231
0.0121167
0.000149052
0.000160311
0.0357184
0.0367982
0.00494887
0.000169053
0.0157487
0.000155036
0.012941
0.000135208
0.000159663
0.000168121
0.000147636
0.000135163
0.00139018
0.03893
0.000174237
0.000162691
0.000149325
0.000148894
0.00078876
0.000161178
0.0203178
0.000149593
0.000142074
0.00014144
0.000143627
0.000145864
0.000139727
0.000157743
0.000144059
0.000146489
0.000157333
0.000151078
0.000141961
0.000148316
0.0146989
0.0256774
0.000159642
0.000186141
0.00622594
0.00018696
0.000164688
0.000331306
0.000168276
0.000139181
0.000141748
0.000204015
0.00013492
0.000131954
0.000161951
0.000345762
0.000131936
0.000137404
0.000152701
0.000152633
0.000140779
0.000158526
0.000158128
0.00369706
0.0171005
0.00153975
0.00013202
0.000140059
0.00835709
0.03703
0.000184969
0.00101063
0.0374399
0.000158995
0.000148303
0.000143472
0.00991167
0.00393693
0.000139824
0.000168876
0.00507256
0.000154416
0.0195543
0.0298717
0.000151486
0.000194183
0.00015943
0.000186122
0.000142131
0.0412789
0.000204354
0.000151405
0.000140591
0.000145655
0.000177031
0.000128149
0.000132
0.000182217
0.00022322
0.0111204
0.0236693
0.030138
0.000143538
0.0285335
0.0316008
0.00277135
0.0356456
9.44504e-05
0.0278799
0.00668888
0.00014381
0.000145597
0.000215687
0.000142293
0.0202815
0.000144615
0.0248504
0.000140943
0.000170767
0.000193061
0.0320597
0.000142062
0.000203692
0.00015828
0.00017851
0.000142798
0.000142147
0.00413395
0.017612
0.000154767
0.0224528
0.000135994
0.000168721
0.00014331
0.000167237
0.0249631
0.00318589
0.0253179
0.0236408
0.00562078
0.000154935
0.0260288
0.000151827
0.000130154
0.0255303
0.00392848
0.00013488
0.000149739
0.000146021
0.00014938
0.000325237
0.000138172
0.0296563
0.000187504
0.00367621
0.000148061
0.000195529
0.000169379
0.0141591