/*--------------------------------*- C++ -*----------------------------------*\
| =========                 |                                                 |
| \\      /  F ield         | OpenFOAM: The Open Source CFD Toolbox           |
|  \\    /   O peration     | Version:  v2012                                 |
|   \\  /    A nd           | Website:  www.openfoam.com                      |
|    \\/     M anipulation  |                                                 |
\*---------------------------------------------------------------------------*/
FoamFile
{
    version     2.0;
    format      ascii;
    class       volScalarField;
    location    "300";
    object      k_0;
}
// * * * * * * * * * * * * * * * * * * * * * * * * * * * * * * * * * * * * * //

dimensions      [0 2 -2 0 0 0 0];


internalField   nonuniform List<scalar> 
37190
(
0.000156085
0.000143091
0.000141988
0.000140175
0.0063232
0.000145434
0.000162057
0.000186349
0.000133337
0.0137725
0.00552539
0.0322783
0.000213466
0.000150354
0.0173498
0.00334306
0.000142
0.0040151
0.000136818
0.00015167
0.000158722
0.0223357
0.000142963
0.0338002
0.00375587
0.000150941
0.0438486
0.000154421
0.0146702
0.000144482
0.000263548
0.000151411
0.000154889
0.000193806
0.000156074
0.00297104
0.0444063
0.00986786
0.00013672
0.000154827
0.00259999
0.000130814
0.00312741
0.00015111
0.0320089
0.0142167
0.0328429
0.0358926
0.00013119
0.000160113
0.000142742
0.0001279
0.000146097
0.000161841
0.000148884
0.000194002
0.000127951
0.000151242
0.00202162
0.00025571
0.000185182
0.0220841
0.000159001
0.000150835
0.00984657
0.0405141
0.00335824
0.0211267
0.0221491
0.0276994
0.000136659
0.000208589
0.000157005
0.000142809
0.000144367
0.000200809
0.0328446
0.0309364
0.000154536
0.0302923
0.0330325
0.000140214
0.0330301
0.000145588
0.0112468
0.000169005
0.0112416
0.0142967
0.000162843
0.00135573
0.000136958
0.0140762
0.000155286
0.000145982
0.000179464
0.0110109
0.000151915
0.039165
0.028144
0.000144199
0.0256638
0.000193375
0.000146397
0.000129866
0.0127575
0.000145092
0.000149352
0.0148808
0.0230585
0.000147038
0.0018882
0.000147275
0.000140135
0.000147264
0.000206724
0.000140229
0.0342669
0.00799804
0.000158899
0.000152536
0.000224547
0.0281603
0.000145735
0.00014328
0.0112678
0.000159849
0.0170343
0.000145876
0.0117175
0.0256182
0.0442056
0.000148313
0.000146218
0.000350418
0.000148639
0.000397108
0.000146924
0.00396927
0.000333697
0.0101104
0.0312146
0.00022509
0.000252133
0.0116757
0.000152497
0.000138815
0.000152541
0.000154765
0.000138553
0.0268058
0.000149389
0.000140638
0.000128933
0.000166849
0.0237209
0.000142354
0.0222303
0.00014676
0.000175151
0.00838057
0.000151497
0.000157316
0.000152689
0.000154924
0.0231549
0.000152825
0.0139218
0.0135465
0.000159109
0.0317039
0.0115865
0.000133251
0.000282943
0.000138123
0.0139374
0.0047992
0.000201903
0.000179323
0.00014781
0.0142973
0.000166887
0.00019222
0.00157431
0.022015
0.000159853
0.00362808
0.000148995
0.0122904
0.0408241
0.00017267
0.000138208
0.00022685
0.000191629
0.000147623
0.000138015
0.0340149
0.0390124
0.0396056
0.0289724
0.000149118
0.000145701
0.000189281
0.000148625
0.000144574
0.0107963
0.000537111
0.000140095
0.000144125
0.0147997
0.000172306
0.000148584
0.000139688
0.0123431
0.000150243
0.0279982
0.000152223
0.000141431
0.000148854
0.00649548
0.000140192
0.00015464
0.000139682
0.0406745
0.00546872
0.0233611
0.0095251
9.58293e-05
0.0354989
0.000146886
0.0163668
0.0171185
0.000146458
0.000128858
0.00014841
0.000139681
0.000156505
0.0291241
0.00012872
0.000148072
0.000180703
0.000137698
0.0122962
0.000161601
0.000129497
0.0121798
0.00412687
0.000141785
0.000169783
0.00543521
0.000155347
0.000153767
0.000159231
0.000181787
0.000152847
0.000137489
0.000154724
0.000137774
0.000145563
0.000179918
0.000128532
0.0144827
0.0170784
0.000175202
0.00012784
0.0120414
0.000156188
0.000142461
0.000392279
0.000138459
0.000188165
0.000159627
0.000146901
0.0137237
0.011636
0.000193235
0.01408
0.000180137
0.000149135
0.011834
0.000129965
0.000138686
0.000185899
0.000155948
0.000128729
0.0288697
0.000139659
0.00014977
0.00017851
0.0119027
0.000158061
0.00015746
0.000150392
0.000183213
0.0344284
0.000131362
0.0116825
0.000136514
0.000160296
0.017166
0.000140514
0.000184595
0.0229112
0.0118175
0.0337825
0.000152485
0.000166701
0.0352208
0.000143072
0.0321897
0.0240798
0.0107416
0.0395238
0.0197418
0.0205739
0.000165531
0.000166904
0.000145247
0.000146624
0.0232731
0.000149125
0.041272
0.0417204
0.000143407
0.0001659
0.00955223
0.000542111
0.000159795
0.0220151
0.0123584
0.000138575
0.0109123
0.015685
0.0296523
0.0309061
0.000146094
0.000138775
0.000142423
0.000150749
0.000141142
0.000144046
0.00293931
0.000142494
0.0274616
0.000145935
0.0142407
0.000174586
0.0228754
0.000135825
0.00275821
0.0213934
0.00426306
0.000202963
0.000153717
0.000127811
0.00393865
0.00150728
0.000137142
0.000135673
0.0442921
0.0337052
0.0437038
0.0166147
0.0142982
0.0313325
0.0311235
0.0239751
0.000148006
0.0362638
0.000131288
0.00902486
0.000145925
0.00284628
0.000223808
0.0152618
0.000146087
0.000129533
0.0310476
0.00755564
0.025221
0.000206745
0.000148486
0.00579632
0.000143041
0.0204918
0.000893072
0.00675085
0.000139981
0.000134963
0.000136675
0.000197489
0.00015961
0.039884
0.000151226
0.000131054
0.02809
0.00103515
0.00403386
0.0403079
0.00606775
0.00013388
0.0154016
0.0226784
0.000133727
0.0141995
0.0287653
0.000136659
0.00146612
0.00323745
0.0298159
0.000137239
0.00014781
0.000153509
0.000149402
0.0128352
0.000171818
0.0315057
0.000175128
0.000151193
0.00265092
0.000145034
0.000134049
0.00287624
0.00091403
0.000165201
0.000144797
0.000128395
0.000134886
0.000151769
0.0149966
0.0145706
0.000128413
0.00013937
0.000137499
0.00181986
0.029303
0.000147005
0.00016142
0.000149021
0.000161731
0.0304164
0.000149272
0.000146534
0.0239618
0.000179586
0.018528
0.00397102
0.0163524
0.000190183
0.000157129
0.000154633
0.0120731
0.0143825
0.00017699
0.000153763
0.024125
0.0259918
0.000137542
0.000144592
0.000136389
0.00853056
0.000130915
0.000184553
0.0286035
0.000147934
0.000185291
0.000136136
0.00132545
0.000180906
0.00014105
0.00480774
0.000146374
0.000145486
0.0142367
0.000151047
0.000211116
0.00972442
0.000146979
0.000185377
0.000144807
0.000196524
0.0293512
0.000146212
0.000136629
0.000685281
0.000189798
0.000172416
0.0314066
0.000152492
0.0153868
0.000141038
0.000125721
0.0241788
0.000186866
0.000134937
0.000177017
0.000153641
0.000148216
0.000207154
0.000146238
0.000484346
0.00259316
0.0034815
0.0230562
0.026231
0.000146758
0.000148888
0.000146519
0.000161303
0.000152962
0.000148574
0.00421079
0.000138374
0.000141044
0.000188548
0.0154245
0.000189991
0.0082414
0.00014768
0.000144728
0.0252708
0.000153833
0.0313939
0.000171549
0.000162641
0.000144183
0.0024752
0.000169552
0.0194841
0.000158093
0.000147087
0.000134925
0.000186985
0.000153539
0.000146254
0.00160172
0.000139657
0.000188738
0.0160721
0.0207204
0.00022637
0.000150579
0.000229799
0.000167482
0.00777779
0.000272671
0.0213344
0.034863
0.000145449
0.00013868
0.000134258
0.020796
0.00411911
0.00351978
0.000127931
0.00592874
0.000144752
0.000155659
0.0232668
0.000158251
0.0226699
0.0036425
0.0148366
0.000139644
0.000148248
0.000155246
0.000338255
0.020563
0.0412834
0.000143672
0.0354711
0.00404893
0.000276241
0.000154237
0.0312736
0.0256652
0.0405104
0.0235173
0.000135904
0.000187958
0.000159388
0.000138648
0.000154146
0.000156041
0.000146986
0.00510302
0.00331188
0.00395882
0.00285638
0.000155163
0.000177193
0.00411317
0.000134587
0.0243607
0.00013962
0.00340543
0.0029436
0.000226475
0.0163536
0.000155093
0.000142826
0.000145602
0.000154842
0.000148413
0.0261962
0.000171854
0.000180692
0.000138342
0.0257698
0.00197622
0.000144396
0.000134736
0.0193004
0.000156705
0.000151585
0.000154447
0.0118297
0.00014272
0.0171369
0.00013591
0.000116407
0.0293979
0.000169769
0.000137325
0.000153854
0.000138863
0.000157959
0.0113574
0.000158929
0.0184642
0.00014742
0.0266137
0.000139733
0.000215424
0.00539732
0.000137095
0.0228355
0.0239076
0.000183125
0.000146951
0.000141355
0.023934
0.00586061
0.000172179
0.0227006
0.000141081
0.0155011
0.000146029
0.000134086
0.000169241
0.0331781
0.000129707
0.000181316
0.00686644
0.0224321
0.0272322
0.0347655
0.000142559
0.000650146
0.0331763
0.000152114
0.000153812
0.041344
0.00544413
0.00017305
0.0303008
0.000156191
0.000155818
0.000157017
0.00837346
0.000154082
0.000146887
0.000139166
0.000143041
0.00207074
0.00589088
0.000142835
0.000138776
0.000260055
0.0378747
0.000150484
0.000152694
0.0126838
0.000142455
0.000179626
0.000145817
0.000136444
0.000149757
0.0396634
0.000200797
0.000234737
0.00013889
0.000152084
0.000186993
0.0128001
0.000143454
0.00014281
0.00277171
0.000145403
0.000134077
0.000204558
0.000137082
0.000128462
0.0002481
0.000136998
0.000171614
0.000129236
0.000142378
0.000178705
0.000188309
0.000142614
0.000186115
0.000129225
0.0251733
0.000193232
0.000135278
0.0407923
0.000145889
0.000141102
0.0216271
0.0335978
0.0214013
0.00017108
0.000136024
0.000149946
0.000131081
0.00020378
0.00386933
0.00437434
0.000171128
0.00473446
0.000139642
0.042646
0.000153663
0.000143104
0.00020222
0.000171997
0.000233524
0.000148503
0.000162823
0.000130646
0.000135989
0.000217397
0.00271926
0.000180055
0.00684828
0.000154497
0.03166
0.0210465
0.0166855
0.00477986
0.0039923
0.000142849
0.000163166
0.000136266
0.00411024
0.000143188
0.000192702
0.025522
0.00764223
0.000141797
0.029696
0.000171808
0.000139528
0.000151784
0.000202035
0.00013479
0.000341249
0.00013314
0.000153533
0.0351506
0.000145667
0.000157897
0.00015246
0.000164615
0.000134523
0.000184906
0.000157756
0.000137372
0.000155689
0.000190129
0.000133867
0.000129453
0.000145897
0.000241816
0.000135833
0.0271173
0.000172825
0.000196811
0.000163298
0.000168892
0.000136128
0.00014737
0.000134643
0.000148406
0.000131187
0.000208144
0.00014589
0.000148855
0.000141345
0.00335573
0.000207744
0.000142766
0.000149717
0.000134473
0.0187991
0.000158358
0.0224901
0.000285622
0.0324111
0.000200818
0.000141928
0.000147637
0.000152081
0.0077901
0.000147994
0.000153535
0.000197938
0.000177255
0.0358838
0.000153408
0.000170949
0.000172111
0.000158222
0.018269
0.000158134
0.0146078
0.0118498
0.000152025
0.000176789
0.00012931
0.0150901
0.000141972
0.00989049
0.0283491
0.00793533
0.000171418
0.000154157
0.000135818
0.000143307
0.0332208
0.015721
0.0206227
0.000151987
0.000153016
0.000149391
0.0134544
0.000152964
0.000136878
0.0137686
0.000167475
0.000190302
0.000152427
0.00015581
0.000169053
0.000142466
0.000145618
0.0389479
0.000153338
0.000478812
0.00129053
0.0235713
0.000192186
0.000169044
0.000161536
0.000160677
0.0208348
0.0203873
0.0124097
0.000249175
0.000137387
0.00153618
0.000143594
0.000164434
0.000138503
0.0353685
0.00515179
0.00401375
0.0166873
0.000151211
0.00328487
0.00412338
0.0146636
0.000202762
0.000178985
0.0193366
0.000138461
0.0359668
0.00305326
0.00722802
0.000152314
0.000186051
0.000144377
0.00317185
0.000128604
0.000139224
0.000147189
0.000146454
0.000139218
0.000150173
0.000142972
0.000147538
0.00014567
0.000170919
0.00259401
0.000143748
0.000137362
0.0148576
0.000166978
0.00013764
0.000149805
0.000139582
0.00825211
0.0142739
0.000149408
0.000154131
0.000181422
0.000143265
0.000162618
0.000203595
0.000152047
0.00130845
0.000179556
0.0112182
0.0226709
0.000144581
0.000136122
0.000142421
0.0168869
0.0183284
0.000137329
0.000153374
0.012041
0.000135355
0.0298559
0.000163046
0.00729129
0.000177896
0.000135353
0.02916
0.000136584
0.0214111
0.000322568
0.000185202
0.000172834
0.000165978
0.000189005
0.000152666
0.0156501
0.000132276
0.000163089
0.0152745
0.000169953
0.000192242
0.00634351
0.000175274
0.000132145
0.000134905
0.0272466
0.000162649
0.000132044
0.00015913
0.000159936
0.00192971
0.0435661
0.000148172
0.0307756
0.000175734
0.0210574
0.00015336
0.00672696
0.000184241
0.00278067
0.00236186
0.000202455
0.000132157
0.00013733
0.000226548
0.000137187
0.000153712
0.000155503
0.000148193
0.000152404
0.000179806
0.0001352
0.000192603
0.0399281
0.000136035
3.74279e-05
0.000133674
0.000137956
0.00355578
0.0139015
0.0321489
0.0130704
0.000161243
0.000181563
0.000171793
0.000133554
0.0195137
0.00624654
0.00014426
0.025996
0.00013859
0.000145697
0.000153923
0.000137708
0.000210358
0.00129063
0.000142516
0.0176277
0.000134585
0.0250615
0.0202715
0.0257756
0.0418381
0.00443092
0.000159713
0.000153337
0.000193274
0.000148582
0.000143504
0.00018725
0.00014909
0.0270279
0.000134448
0.000145411
0.000143907
0.000140268
0.0103491
0.000142011
0.000166374
0.00539093
0.000146787
0.000186469
0.000135832
0.000130882
0.000149574
0.0356956
0.00213307
0.00014232
0.000147034
0.0248522
0.000141932
0.0347131
0.000209689
0.000144987
0.00361582
0.000161398
0.000140712
0.000139551
0.00013225
0.00867709
0.000169868
0.000158685
0.000175607
0.000173511
0.0229594
0.000133929
0.00373726
0.000146238
0.000152701
0.000146038
0.000163003
0.00014554
0.000749739
0.000513189
0.00265359
0.00013113
0.000191971
0.000145894
0.010223
0.00019296
0.000146487
0.000153545
0.000190545
0.00014235
0.00611627
0.00305341
0.000135999
0.000147847
0.000154408
0.000141572
0.000152822
0.000140246
0.000152498
0.000143365
0.000155062
0.000152453
0.000135889
0.000178596
0.000143398
0.00717435
0.000138465
0.000145596
0.0037333
0.000144978
0.000153367
0.0001441
0.000148367
0.000143977
0.000143637
0.000162788
0.000203428
0.00116456
0.000136189
0.00113013
0.0231296
0.00162806
0.000137774
0.0234382
0.000155217
0.0143185
0.0140718
0.000231172
0.000163861
0.0180751
0.0071784
0.000158254
0.000160023
0.000154001
0.00598128
0.000131605
0.000186202
0.0170972
0.00214603
0.000140814
0.000136021
0.000139451
0.000182851
0.019131
0.00873206
0.0309236
0.0339127
0.000136006
0.0119751
0.00249396
0.00200923
0.000178579
0.000176527
0.000140542
0.000152194
0.0398074
0.0162174
0.000153052
0.000142294
0.000180426
0.000136339
0.0140187
0.000152862
0.000142456
0.000168837
0.000184279
0.000134008
0.000203043
0.000192306
0.0270107
0.000133875
0.00623795
0.000135611
0.0285829
0.0064902
0.000225458
0.00014369
0.0027542
0.000141507
0.000141925
0.000190523
0.0180377
0.000133072
0.000153538
0.00330322
0.000163014
0.000161221
0.000130526
0.000228348
0.0375743
0.021594
0.000204475
0.0203327
0.00713178
0.000162722
0.027829
0.000150483
0.000142488
0.0174141
0.0239234
0.00702778
0.00013699
0.000181219
0.0182349
0.027094
0.000192078
0.000186206
0.00128256
0.000169703
0.000155131
0.000170358
0.00205196
0.000141966
0.000172376
0.000149617
0.0297019
0.0234041
0.000128119
0.000142205
0.000165599
0.000596767
0.000135989
0.000143848
0.000149938
0.030344
0.00964865
0.000189609
0.0214445
0.000147649
0.000137168
0.000158565
0.000143033
0.00264787
0.0109349
0.000189347
0.00393339
0.000150002
0.000175853
0.000136925
0.000136633
0.000141454
0.000140567
0.000160704
0.0227587
0.000144418
0.000160143
0.000463055
0.000171328
0.0105133
0.023511
0.000132227
0.000141787
0.000188261
0.00013364
0.0221095
0.000132479
0.000137522
0.000134351
0.000192861
0.000133517
0.000153892
0.0274678
0.000202254
0.0370757
0.00015012
0.00015382
0.000138215
0.000139969
0.000136502
0.0376808
0.000170312
0.000153148
0.000450702
0.000157451
0.000144584
0.00354993
0.000215284
0.0001365
0.000155392
0.0411271
0.000167196
0.000192269
0.000144846
0.0396277
0.000136568
0.00014455
0.000181642
0.000142101
0.00718757
0.00019052
0.000129479
0.000135913
0.0271251
0.01278
0.00014039
0.000140303
0.000151839
0.00013424
0.000128466
0.000136462
0.000158901
0.00514134
0.00708546
0.000142277
0.000132379
0.000147959
0.000252213
0.00396175
0.000142676
0.000162288
0.00890471
0.0289361
0.000153912
0.0180087
0.000133573
0.000168483
0.000188203
0.000191741
0.000151842
0.000142914
0.000127958
0.00998765
0.000185689
0.000153215
0.000151535
0.002644
0.000149406
0.000146339
0.000132247
0.00494325
0.000146433
0.000190964
0.000208882
0.00013584
0.000143742
0.0248354
0.000178484
0.000136185
0.00630079
0.000143865
0.00154966
0.00013574
0.000185191
0.00060226
0.00014827
0.000221598
0.0256592
0.000146376
0.000146381
0.000142994
0.000167293
0.00016849
0.0123926
0.000136848
0.000188074
0.000155142
0.000190929
0.000147926
0.000202481
0.000133005
0.000429791
0.000152996
0.000143155
0.0262647
0.000167968
0.000143215
0.000133117
0.000151401
0.000537709
0.000168439
0.000149246
0.00014154
0.000143445
0.000164557
0.0123265
0.000163392
0.0254128
0.000144677
0.000178577
0.000135665
0.0253066
0.000130015
0.00129978
0.000161865
0.000148824
0.0160312
0.0301287
0.000144039
0.000212669
0.000137745
0.0159326
0.0275424
0.000134404
0.0104933
0.000137294
0.000152442
0.000447843
0.000194854
0.00124043
0.021367
0.000130797
0.000794496
0.000141197
0.000143558
0.024074
0.0271143
0.000132352
0.000178254
0.000148221
0.000166839
0.000145098
0.000170337
0.000141579
0.000176141
0.000143198
0.000141695
0.000176346
0.000151038
0.000186519
0.000481105
0.00442681
0.000142959
0.000140602
0.000189282
0.000185744
0.00590601
0.00013817
0.0334491
0.000147959
0.000135923
0.0137962
0.000140092
0.00276992
0.000131348
0.000156806
0.016792
0.000135728
0.000141062
0.00014249
0.000149396
0.00014879
0.0394663
0.000150528
0.00124018
0.000153351
0.00015649
0.00889471
0.0070986
0.000140316
0.000149924
0.0108959
0.00631728
0.000152502
0.00015107
0.00248721
0.0370364
0.000142286
0.000167568
0.000130774
0.000143419
0.000120998
0.0267273
0.000181235
0.0228577
0.000148868
0.000153447
0.00346494
0.000236075
0.000129159
0.0327001
0.00017768
0.000180171
0.0117413
0.000137259
0.000216101
0.000143017
0.000148606
0.000136595
0.000168443
0.000166425
0.000174906
0.000152606
0.000154222
0.000177793
0.0247324
0.000145539
0.0122543
0.00446634
0.0251889
0.00013298
0.000135763
0.0284776
0.000141132
0.00359162
0.00014641
0.000186342
0.0137729
0.000144787
0.00301487
0.000141573
0.0382843
0.000177191
0.000208392
0.0231306
0.000146807
0.000147101
0.0133169
0.000145777
0.00228795
0.000176461
0.000215054
0.0001947
0.000147785
0.000245251
0.000153425
0.0001594
0.000169521
0.00678401
0.000137339
0.000137239
0.0158752
0.00772336
0.000183507
0.0320826
0.000153082
0.000137282
0.0145338
0.000173583
0.0245864
0.000723922
0.0331098
0.00015353
0.000164831
0.000149849
0.0378229
0.000152961
0.00354638
0.000135327
0.000138348
0.000147343
0.0264507
0.00502889
0.000163343
0.000167152
0.000157079
0.000129155
0.000189963
0.000129733
0.0193754
0.00943141
0.0266123
0.000129544
0.000152339
0.0237408
0.000162947
0.0324582
0.000134444
0.000135363
0.000191016
0.0217812
0.000152377
0.0251319
0.027561
0.000157916
0.0252591
0.000201976
0.000168397
0.000143917
0.0218203
0.00373822
0.000134231
0.00017743
0.0189089
0.000138347
0.0249079
0.000186583
0.0196896
0.021657
0.000150873
0.000143272
0.00013279
0.000132686
0.0135107
0.000148086
0.000136978
0.0300302
0.000141373
0.000171967
0.000150538
0.000151238
0.000185037
0.000189988
0.000140221
0.000154434
0.000197912
0.000172625
0.000147846
0.000144214
0.000177587
0.0182554
0.000143368
0.000212419
0.0191165
0.0227244
0.00291379
0.000139001
0.000157169
0.0121439
0.0271948
0.000150813
0.000143089
0.0124303
0.00339358
0.0267493
0.00015435
0.00108745
0.0223921
0.000141772
0.000314087
0.000198889
0.000149101
0.000142455
0.000134026
0.0114358
0.000141153
0.0147729
0.000199355
0.0211579
0.000219508
0.0148527
0.0137332
0.00114892
0.00660578
0.000143863
0.00696089
0.000255707
0.000146078
0.000170185
0.000172811
0.000202463
0.0282506
0.000140144
0.000147532
0.000141091
0.000765702
0.000138928
0.000135336
0.000154289
0.000153946
0.000161516
0.0227992
0.000182941
0.000130777
0.000153508
0.000154771
0.000188425
0.000154395
0.000203076
0.000153214
0.019317
0.0344018
0.000138757
0.0203114
0.000207683
0.0290471
0.0236466
0.000153506
0.0130037
0.000143536
0.000245624
0.0254328
0.000141062
0.00014031
0.00014459
0.000140111
0.000155034
0.000160626
0.000142232
0.000357515
0.000148394
0.0294976
0.000155263
0.0134249
0.000135322
0.000140153
0.00476502
0.000141369
0.000144005
0.000142823
0.000190976
0.000149254
0.0001483
0.000152194
0.000141002
0.000181164
0.000134188
0.01439
0.000143449
0.000165507
0.0327101
0.00014817
0.000200641
0.000187672
0.000141833
0.0143081
0.000136694
0.0205556
0.0352339
0.00517545
0.00017989
0.000138877
0.000190492
0.000191854
0.000143876
0.000162215
0.000167392
0.000168574
0.000151707
0.000138813
0.00330349
0.00619949
0.000144364
0.0272852
0.0228524
0.000135427
0.000138898
0.000132212
0.000189754
0.00393245
0.000221197
0.000142333
0.000138875
0.00262949
0.000169663
0.0358823
0.00806343
0.000142689
0.000151982
0.00013601
0.0220583
0.029445
0.000136287
0.000162895
0.00456606
0.0248619
0.000161368
0.000153791
0.000133168
0.000147188
0.0387659
0.000118466
0.000143416
0.0356251
0.000138264
0.00246022
0.000687537
0.000169828
8.63551e-05
0.00108038
0.000145775
0.00168013
0.000166755
0.0141109
0.00548722
0.000135465
0.0262728
0.035229
0.00145121
0.0143745
0.000153995
0.0265096
0.0305114
0.000162736
0.000135777
0.00243107
0.00426282
0.00417732
0.000185692
0.000148845
0.00013331
0.000142476
0.025157
0.0238024
0.000194303
0.000156792
0.000148501
0.000142611
0.0140935
0.000138061
0.01937
0.00999374
0.000178117
0.000142129
0.0138847
0.000142261
0.000177379
0.0234792
0.00365994
0.000150349
0.000146897
0.00014291
0.000142849
0.000180182
0.000142064
0.000171009
0.000177398
0.000145105
0.000130801
0.000197477
0.000297338
0.000138045
0.000135879
0.000142816
0.000153333
0.000154531
0.000299886
0.0296948
0.0136465
0.0101729
0.000144482
0.000142188
0.000177425
0.000190941
0.000136019
0.000189901
0.0167802
0.0132848
0.00023212
0.0172295
0.000179889
0.000162164
0.0353424
0.000138291
0.00348998
0.000203393
0.000132893
0.00434687
0.000150553
0.000187615
0.0230442
0.000226919
0.000161081
0.010582
0.000142904
0.000141796
0.000130184
0.000158254
0.000142316
0.000146259
0.000141048
0.0264698
0.000157133
0.000142317
0.000161922
0.000151879
0.000362237
0.0236504
0.0285918
0.000142965
0.000135701
0.0261974
0.000190612
0.0141964
0.000143386
0.000153358
0.000143912
0.00014704
0.0116209
0.000156733
0.000138566
0.000143726
0.000196768
0.00013879
0.000168176
0.000136228
0.000136695
0.000153581
0.000195228
0.000178084
0.000159155
0.000136317
0.00535888
0.000206859
0.0144176
0.0245104
0.000146216
0.000293475
0.000203773
0.000186433
0.0330021
0.000156827
0.000348744
0.000150334
0.000188176
0.0190082
0.000135466
0.000141449
0.020597
0.000130116
0.0075097
0.03502
0.000138831
0.000183304
0.000136189
0.000142885
0.0102091
0.000134662
0.000136088
0.000135843
0.000132194
0.000159364
0.000144988
0.0244245
0.000135875
0.0359677
0.0119062
0.000147871
0.000143387
0.000139064
0.000136342
0.000153295
0.0141777
0.000136
0.000181565
0.00015744
0.0222119
0.0246237
0.000150344
0.000210347
0.000172148
0.000130608
0.000134501
0.00522035
0.000130614
0.000133231
0.0111965
0.00417458
0.0204175
0.000143978
0.0256928
0.004832
0.000131074
0.000170509
0.00014413
0.000141859
0.000132825
0.000140126
0.0233719
0.000142064
0.000143849
0.0028134
0.000151796
0.00744875
0.000160626
0.000147367
0.0213561
0.000134459
0.0122838
0.000131924
0.000150624
0.0244754
0.000141308
0.000135416
0.000142203
0.0083591
0.00395336
0.000145194
0.000141273
0.000133181
0.000159473
0.00329878
0.000202529
0.000148755
0.0105122
0.0201017
0.000142916
0.0270845
0.000130529
0.00017759
0.000774362
0.000132134
0.000157089
0.0140557
0.000163701
0.0139853
0.000177396
0.000169572
0.0108377
0.000154715
0.0018561
0.000140678
0.00645258
0.00014383
0.027728
0.00014958
0.000156477
0.000162361
0.000137987
0.0162341
0.0049358
0.0130995
0.000211916
0.000133821
0.0119819
0.000129566
0.000140139
0.0314853
0.000133291
0.0274422
0.0108036
0.000130985
0.000154068
0.000175422
0.000202191
0.00013547
0.000188355
0.000166986
0.000329756
0.0235685
0.000143021
0.000144183
0.000139914
0.000131343
0.0185426
0.000188648
0.00271242
0.000138633
0.00617181
0.03578
0.000129385
0.000133259
0.0114917
0.00033425
0.0457329
0.000221383
0.0131315
0.000213726
0.000181408
0.000184336
0.0039701
0.0454232
0.000154342
0.000203678
0.000140194
0.000154332
0.000213504
0.0249216
0.000150004
0.000203425
0.00480869
0.000138895
0.00014802
0.000149409
0.000153478
0.000140162
0.0194219
0.000158577
0.015724
0.000135107
0.000330854
0.000164773
0.000212692
0.000192069
0.000184104
0.0139635
0.000137105
0.000141778
0.000215467
0.000133747
0.0349763
0.000177861
0.000143228
0.000129941
0.0269663
0.000143691
0.000149121
0.000138633
0.000158232
0.000177446
0.000167016
0.000154509
0.0001414
0.000145365
0.000256877
0.000135714
0.000152053
0.000141264
0.000142793
0.000129886
0.0242086
0.000163609
0.0198758
0.000152539
0.000156639
0.000156481
0.0364091
0.00443236
0.000141986
0.0246672
0.000143134
0.000135052
0.000178332
0.0326892
0.00302893
0.0230104
0.000194819
0.00018822
0.00013999
0.000142723
0.000151508
0.01396
0.000171754
0.000128254
0.000199552
0.0361202
0.00013825
0.000137127
0.0035422
0.000148421
0.027547
0.000232101
0.0384682
0.000135904
0.000163182
0.000141769
0.0290508
0.000150053
0.000133894
0.000154342
0.0150108
0.0241654
0.0349261
0.0169434
0.00015013
0.000135021
0.000141654
0.0340982
0.000138468
0.000149215
0.00016227
0.000136577
0.000400717
0.000141282
0.00013364
0.000133683
0.000169716
0.000145113
0.00271315
0.00014512
0.000141774
0.0261429
0.000144185
0.000212996
0.0138819
0.000187914
0.000149078
0.0288262
0.000539063
0.000143987
0.000703506
0.000132538
8.43695e-05
0.000223164
0.00776291
0.00019098
0.000183621
0.000197162
0.000138849
0.000131651
0.000149379
0.000133615
0.000168603
0.012805
0.000167886
0.0211663
0.000129554
0.0428977
0.000219009
0.000147683
0.000217406
0.000136008
0.000195116
0.000151738
0.0239658
0.000129844
0.0148329
0.000133442
0.000139604
0.000164061
0.0137773
0.000424576
0.000147877
0.0244091
0.0150568
0.000134926
0.00122442
0.000167016
0.000178275
0.00745835
0.000142459
0.0379296
0.000139636
0.000142761
0.023888
0.000164013
0.000133246
0.000141984
0.000137056
0.000134124
0.000149266
0.014842
0.00016759
0.000336437
0.00014023
0.000143975
0.000188746
0.0192668
0.00868745
0.0288092
0.00364494
0.000148717
0.000137248
0.000137583
0.000157581
0.000143015
0.000133849
0.00474957
0.0172202
0.0124102
0.000143649
0.00013932
0.00261317
0.000142772
0.000138946
0.000142823
0.000152587
0.000215925
0.0081133
0.000141118
0.000134073
0.00016667
0.000142397
0.0157157
0.000159936
0.00115739
0.000146579
0.00017908
0.00014161
0.000132473
0.000203123
0.000151892
0.000406963
0.000136636
0.000806581
0.000149977
0.0222059
0.000138806
0.0158611
0.000137271
0.000190905
0.000141779
0.000138932
0.000143739
0.00021552
0.00573645
0.000142493
0.000152921
0.000135439
0.0373485
0.000179499
0.00289286
0.000154651
0.00015134
0.000164818
0.0166126
0.000193097
0.0130627
0.000142874
0.000143801
0.0162923
0.0142173
0.000129448
0.000216675
0.000152911
0.000135189
0.00236656
0.000140498
0.00254659
0.000145919
0.0150562
0.000140535
0.0357659
0.0168584
0.000131185
0.000145569
0.000130905
0.000145621
0.00561023
0.0169324
0.000899537
0.00306739
0.000140541
0.000200962
0.000142744
0.0211379
0.000130397
0.000525592
0.000134788
0.00021196
0.000141493
0.000138603
0.000154669
0.0172261
0.00280705
0.0204259
0.000191239
0.000181465
0.00239643
0.000193141
0.0218304
0.000141971
0.000158122
0.00015134
0.00013623
0.000135297
0.000181333
0.00392004
0.0189522
0.000157077
0.000144533
0.0236336
0.000143347
0.000186892
0.000205431
0.0259083
0.000155405
0.000136444
0.000135661
0.000146521
0.000143769
0.0241515
0.000189082
0.000138085
0.000153413
0.000176734
0.000155
0.040627
0.0126433
0.00670275
0.000143153
0.00210371
0.0228701
0.00017317
0.000530959
0.000137507
0.000139525
0.0151802
0.0377913
0.000303312
0.00013798
0.000160623
0.000131983
0.0236219
0.0369889
0.000135578
0.000155026
0.000137745
0.000144414
0.00010727
0.0363944
0.000139161
0.000137421
0.000153112
0.000143414
0.000135327
0.000161933
0.000138448
0.0001509
0.000135578
0.0312115
0.000136394
0.000190904
0.000134646
0.000153142
0.000137604
0.000165835
0.0001395
0.000139449
0.000135302
0.000143483
0.0160589
0.00015092
0.000172703
0.000151125
0.0131185
0.000149293
0.0162112
0.000138672
0.00700386
0.00017043
0.0427246
0.00241557
0.000394907
0.0172311
0.00053968
0.000131992
0.0323906
0.000147308
0.000155187
0.00319196
0.000191026
0.000170951
0.045363
0.000189576
0.000162805
0.000157608
0.00756025
0.000139552
0.000143421
0.000147154
0.000166303
0.000139454
0.000131976
0.00396616
0.000149927
0.000139742
0.000141231
0.0121162
0.000149051
0.000160311
0.0357214
0.0368005
0.00490367
0.00016905
0.015757
0.000155036
0.0129488
0.000135209
0.000159711
0.00016813
0.000147635
0.000135163
0.00138699
0.0389296
0.00017424
0.000162691
0.000149325
0.000148894
0.000788493
0.000161178
0.0203194
0.000149593
0.000142074
0.00014144
0.000143627
0.000145864
0.000139725
0.000157738
0.000144059
0.000146489
0.000157324
0.000151078
0.000141961
0.000148316
0.0147248
0.0256732
0.000159642
0.000186175
0.00623105
0.000186962
0.000164688
0.000330553
0.00016828
0.000139182
0.000141747
0.000204013
0.00013492
0.000131954
0.000161951
0.000348418
0.000131936
0.000137404
0.000152701
0.000152638
0.000140779
0.000158523
0.000158128
0.00365661
0.0171014
0.00156013
0.00013202
0.000140059
0.00836759
0.0369604
0.000184968
0.0010112
0.0374388
0.000158995
0.000148303
0.000143472
0.00991753
0.00393516
0.000139824
0.000168874
0.00506797
0.000154914
0.0196442
0.0298735
0.000151486
0.000194151
0.00015943
0.000186124
0.000142131
0.0412798
0.000204349
0.000151405
0.000140592
0.000145655
0.000177049
0.000128149
0.000132001
0.000182213
0.000223209
0.0111199
0.023681
0.0301279
0.000143538
0.0285755
0.0315183
0.00276545
0.0356449
9.43837e-05
0.0278821
0.00661251
0.00014381
0.00014542
0.000215679
0.000142293
0.0203574
0.000144615
0.0248456
0.000140943
0.000170767
0.000193058
0.0320634
0.000142062
0.000203829
0.000158328
0.00017851
0.000142798
0.000142147
0.00412336
0.0175931
0.000154768
0.0224595
0.000135994
0.000168721
0.00014331
0.000167237
0.0249741
0.00320207
0.0253624
0.0236395
0.00562098
0.000154934
0.0260075
0.000151826
0.000130154
0.0255346
0.00393729
0.00013488
0.000149739
0.000146021
0.00014938
0.000324465
0.000138172
0.0296601
0.000187506
0.00368764
0.000148061
0.000195479
0.000169391
0.0141584
0.000180168