/*--------------------------------*- C++ -*----------------------------------*\
| =========                 |                                                 |
| \\      /  F ield         | OpenFOAM: The Open Source CFD Toolbox           |
|  \\    /   O peration     | Version:  v2012                                 |
|   \\  /    A nd           | Website:  www.openfoam.com                      |
|    \\/     M anipulation  |                                                 |
\*---------------------------------------------------------------------------*/
FoamFile
{
    version     2.0;
    format      ascii;
    class       volScalarField;
    location    "300";
    object      omega;
}
// * * * * * * * * * * * * * * * * * * * * * * * * * * * * * * * * * * * * * //

dimensions      [0 0 -1 0 0 0 0];


internalField   nonuniform List<scalar> 
37190
(
0.0273302
0.0241178
0.024348
0.024048
0.659789
0.0245493
0.0316297
0.0704305
0.0228362
7.87139
26.9409
2.32158
0.20154
0.0254459
7.51542
0.301547
0.0243525
1.22524
0.0234923
0.0257493
0.0291067
1.10939
0.0243115
2.37277
0.600836
0.0252108
3.45026
0.0270386
8.01525
0.0246732
0.0792399
0.0256177
0.027309
0.0833702
0.027894
0.399024
3.48507
0.997213
0.0234808
0.0268105
1.03704
0.0223136
0.29088
0.0255297
3.35785
0.754724
3.3397
2.31277
0.0224748
0.0298014
0.0242925
0.022095
0.0247573
0.0319329
0.0250812
0.0828037
0.0221
0.0255835
0.268652
0.0744718
0.0682969
5.03539
0.0292988
0.025261
3.00501
2.13969
0.262436
3.38438
2.31651
2.8908
0.0234714
0.0673729
0.0282036
0.0243016
0.0244459
0.0350909
2.16702
3.73266
0.0271969
3.87393
3.29604
0.0240638
2.89982
0.0246337
10.4426
0.0380439
3.24099
0.747502
0.0322776
0.406
0.0235296
8.31065
0.027449
0.0243659
0.0520991
0.736576
0.0258181
2.17704
1.34184
0.0244112
1.63619
0.0813694
0.0248145
0.0223294
11.3098
0.0243959
0.0250879
8.96255
2.80388
0.0246981
0.535714
0.0249009
0.0240542
0.0248952
0.0652176
0.0240485
3.25854
3.08785
0.0290221
0.0261118
0.0709763
3.68527
0.0247741
0.0244018
5.11857
0.0298032
5.73813
0.0247871
10.3644
1.63098
3.45905
0.0249488
0.0244594
0.0718382
0.0247069
0.295521
0.0250072
0.332398
0.697711
0.73254
2.84169
0.0709662
0.0446365
0.736754
0.026015
0.0234688
0.0261233
0.027161
0.0234123
2.93253
0.0250936
0.0236906
0.0222492
0.0365677
4.60465
0.0242643
2.33916
0.024941
0.0407525
2.77644
0.0256869
0.0280966
0.0263288
0.0273389
2.32148
0.0262169
7.78669
7.57323
0.0291247
3.13846
4.74322
0.0228265
0.049171
0.0234821
7.66625
12.6553
0.150138
0.0523165
0.0249057
7.17111
0.0365552
0.0788027
0.472349
3.21241
0.0298291
4.72515
0.0250148
9.08038
2.09117
0.0429345
0.0233465
0.249459
0.0773807
0.024883
0.0233074
2.93811
3.24313
2.16653
2.83143
0.0251471
0.0245432
0.0803079
0.0249436
0.0244524
1.03518
0.0953343
0.0240387
0.0246574
7.8925
0.0425372
0.0249371
0.0239983
1.22902
0.0252994
3.81567
0.0260612
0.0241777
0.0249856
17.0865
0.0240458
0.0271463
0.0240014
2.13986
32.096
2.31899
2.03585
0.288408
3.02077
0.0248679
4.91504
7.24252
0.0248667
0.0222405
0.0246847
0.0239945
0.0280538
2.7959
0.0222128
0.0249982
0.0569464
0.0232496
10.8564
0.0317623
0.0223592
8.77822
4.56293
0.024212
0.0387755
8.83865
0.0258952
0.0265257
0.0283516
0.0593703
0.0262141
0.023209
0.027146
0.0233162
0.0245262
0.0527248
0.0221836
1.24681
7.46449
0.0341221
0.0220922
0.736782
0.0275448
0.0244169
0.0747485
0.023342
0.0502256
0.0278101
0.024872
0.836171
9.88656
0.0817317
7.55873
0.0530334
0.0250433
9.74644
0.022417
0.0233885
0.0688693
0.0272842
0.0222162
2.73575
0.0239983
0.0248632
0.0511585
0.748532
0.0283571
0.0281704
0.0253384
0.0633909
2.97776
0.0226
9.02347
0.0234712
0.026451
5.62179
0.0236794
0.0664903
1.06201
0.726481
2.9577
0.0263122
0.0282474
2.128
0.0245012
3.39299
2.41026
2.56273
3.29848
4.52884
0.994442
0.0284504
0.0286496
0.024562
0.0251123
2.40013
0.0250417
3.35976
3.47092
0.0245951
0.0345132
2.12178
0.0938941
0.0295788
3.19468
9.87228
0.0233616
0.723314
3.34409
1.99736
3.87183
0.0247552
0.0234042
0.0244119
0.0250491
0.0242425
0.0246454
0.281161
0.0242755
4.20442
0.0247397
7.45557
0.0293448
3.75748
0.0229618
0.271566
3.29985
0.332173
0.0360986
0.0264
0.0220877
2.26354
0.816407
0.0235417
0.0229418
3.46994
2.37371
3.43464
4.71326
0.838987
3.42731
3.50111
2.90132
0.0249288
2.76414
0.0225937
3.61024
0.024737
0.268713
0.24258
2.04515
0.0247017
0.0223253
2.83555
3.38964
1.56692
0.034102
0.0249981
32.4977
0.0245383
1.24719
0.159169
15.2557
0.0237195
0.0228611
0.0231008
0.117236
0.265544
2.02487
0.0258211
0.0224626
3.30502
0.176778
6.41049
3.27359
26.8697
0.0229008
6.17711
3.10451
0.0226037
7.81754
3.81554
0.0230981
1.94861
2.60039
3.61821
0.0234646
0.0249023
0.0263008
0.0252951
11.242
0.0423248
3.15515
0.039385
0.0258219
23.1169
0.024546
0.0227731
0.271124
0.541657
0.0338158
0.0247052
0.0221807
0.022849
0.0253237
2.30389
9.32739
0.0221841
0.0235049
0.0235175
0.258486
3.21956
0.0248702
0.0315603
0.0252041
0.0317842
4.41505
0.0251754
0.024618
3.70019
0.0422642
6.40026
35.5375
3.46954
0.0838287
0.0282384
0.0269552
9.06662
0.747202
0.0508247
0.0265686
3.54229
1.67801
0.0232924
0.0247091
0.0230349
3.98098
0.0225376
0.0666481
2.72907
0.0248191
0.0683507
0.0230049
0.4296
0.058686
0.0242216
0.695305
0.024597
0.0247599
0.759449
0.0255375
0.189023
0.716844
0.024866
0.0677285
0.0247084
0.0343624
4.06117
0.0248026
0.0230745
0.501991
0.0504964
0.0433249
3.19947
0.0261536
1.90291
0.0242216
0.270279
2.76548
0.0488414
0.0230608
0.0506894
0.0269796
0.0253714
0.0341979
0.0246134
0.700446
0.261523
0.438565
2.34746
1.8602
0.0248509
0.0250802
0.024787
0.0266625
0.0262045
0.0249317
0.670272
0.0234978
0.0242265
0.0755501
7.51977
0.0334386
17.6058
0.0247783
0.0246851
1.57575
0.0264462
4.10764
0.0419426
0.0318693
0.0246428
0.253942
0.0389699
1.39307
0.0283767
0.0246892
0.0230582
0.0724343
0.026435
0.0246197
0.511908
0.0239983
0.0318699
0.872127
1.00964
0.0365583
0.0257891
0.0602489
0.0363128
4.90829
0.0552904
4.04736
2.29991
0.0245554
0.023769
0.0228287
4.21124
0.317485
0.317714
0.0220928
26.8814
0.0246902
0.0272937
2.85579
0.0291689
1.24832
0.322651
2.0055
0.0239965
0.0248754
0.267556
0.0691268
3.46828
3.32925
0.02426
3.02107
0.317026
0.0495983
0.0256135
2.31414
5.21171
3.29769
4.4241
0.0233921
0.0744747
0.0297282
0.0233741
0.0265162
0.0273185
0.0248746
6.07498
0.254399
0.348209
0.270081
0.0269606
0.051055
1.23542
0.0231664
5.37912
0.0238855
0.263618
1.8714
0.0574843
2.53799
0.0269871
0.0243712
0.024764
0.0268118
0.0249887
1.82083
0.0423072
0.0572257
0.0233817
2.95946
0.31371
0.0246641
0.0231922
4.32106
0.0260907
0.0252815
0.0268552
1.91637
0.0243612
0.903828
0.0233924
0.419589
4.59332
0.0358378
0.0235635
0.0264451
0.0234222
0.0287973
2.31454
0.0294245
1.41893
0.0250932
2.04987
0.0238948
0.214002
35.3266
0.36201
1.24932
3.61756
0.045539
0.0250679
0.0237998
2.68816
33.3552
0.0428055
1.10487
0.0242312
5.78841
0.024798
0.0226556
0.0380326
2.17889
0.0223115
0.0551723
2.94669
2.99515
2.01543
3.22945
0.0241518
0.116663
2.68203
0.0253907
0.0263799
3.40539
1.35883
0.0437594
3.21522
0.0275538
0.0277749
0.0277877
1.02073
0.026555
0.0248463
0.0235974
0.0245409
2.07371
32.8781
0.0241725
0.0237794
0.0446928
1.94628
0.0254831
0.026326
9.46298
0.0240748
0.0550141
0.0247131
0.023463
0.0251887
2.02447
0.143011
0.0604411
0.0235758
0.0267358
0.0727331
7.94483
0.0246001
0.0241654
0.266706
0.0245241
0.0228089
0.168437
0.0235328
0.0221734
0.812247
0.0235366
0.0419477
0.0223124
0.0243185
0.0540639
0.0772684
0.024161
0.0698047
0.0223123
3.79413
0.0551664
0.0232827
2.09091
0.0248672
0.0242332
3.71888
3.25688
2.40728
0.0414403
0.0233312
0.0253462
0.0223398
0.163883
0.466155
4.48171
0.0411611
5.86422
0.0235385
3.43366
0.0265005
0.0245007
0.15181
0.0309069
0.0589327
0.0251972
0.0322557
0.0224233
0.0234054
0.0398644
0.240866
0.0555813
2.8225
0.0266679
3.44106
3.87529
7.09991
0.332432
0.336026
0.0243066
0.0293569
0.0234387
0.335089
0.0244825
0.0540897
1.26445
4.13983
0.0242005
2.74194
0.0396374
0.0239261
0.0254237
0.0350118
0.023195
0.06392
0.0226306
0.0266068
2.09508
0.0246995
0.028779
0.0267486
0.0308259
0.0229589
0.0664961
0.0259896
0.0236254
0.0273175
0.0849618
0.0227921
0.0223527
0.024724
0.139991
0.0233802
3.76387
0.0337556
0.11216
0.0303137
0.0375343
0.0233416
0.0251776
0.0231697
0.0249073
0.0225782
0.0370411
0.0247247
0.0250053
0.023801
0.293187
0.195426
0.0241127
0.0253737
0.0228462
1.25336
0.0290327
2.417
0.0570612
2.8884
0.0325512
0.024077
0.0248974
0.0252353
4.29089
0.0249312
0.026328
0.0326227
0.0319714
2.61492
0.0269086
0.0378697
0.0428104
0.0262294
4.45208
0.028903
2.39946
0.820324
0.0254396
0.0346595
0.0223064
1.88717
0.024221
1.03741
3.40105
2.4813
0.0331949
0.0263056
0.0233774
0.0245753
3.37768
0.868513
4.13226
0.0260687
0.0261627
0.0252876
3.30416
0.0261543
0.0235007
8.06622
0.0374733
0.0809856
0.0252426
0.0278105
0.0352153
0.0240874
0.0247701
2.02008
0.0262387
0.0823533
0.218935
3.38194
0.0813554
0.0370576
0.031582
0.0307428
3.96099
2.24293
9.35955
0.65872
0.0234958
0.447135
0.0245077
0.0306537
0.0237604
1.86049
0.434054
0.348864
2.40072
0.025618
0.316183
0.347272
8.68329
0.140689
0.0514202
0.970367
0.0233949
3.04886
0.303037
5.69109
0.025867
0.0317606
0.0244832
0.457169
0.022157
0.023524
0.0248809
0.0246488
0.023524
0.025398
0.0245322
0.0248834
0.0245558
0.0289019
0.407639
0.0243719
0.0235763
1.94041
0.0366077
0.0235302
0.0253082
0.0239345
2.59638
7.81786
0.0252178
0.0265612
0.0589838
0.0245708
0.0322777
0.156014
0.0259931
1.72325
0.0307874
2.00787
3.58639
0.0244504
0.0229746
0.0242254
5.10941
4.06228
0.0235715
0.0260394
1.85551
0.0231074
3.49663
0.0320408
0.712579
0.0521072
0.023106
3.49886
0.0234624
3.38169
0.236171
0.0661744
0.0295844
0.0311793
0.0765595
0.026055
7.5182
0.0227145
0.0320652
8.07833
0.0389707
0.0808881
0.704361
0.0315767
0.0227443
0.0228871
2.29375
0.0318968
0.0227326
0.0295292
0.0298179
2.43443
3.42452
0.0249913
3.49242
0.048702
2.89586
0.0262402
19.7808
0.0642779
0.440359
0.400429
0.142552
0.0227382
0.0234856
0.194724
0.0234728
0.0265611
0.0257123
0.0248724
0.0268747
0.0552158
0.0228853
0.0804448
2.16019
0.023409
0.452957
0.0227372
0.0233782
5.86978
0.757098
3.95585
7.59175
0.0313651
0.0373921
0.0424653
0.0228626
1.04433
1.02988
0.0246468
3.31326
0.0237707
0.0245701
0.0264574
0.0233591
0.216041
0.26291
0.0241413
6.462
0.0230191
2.65634
2.26458
2.83043
3.36622
0.441531
0.0290219
0.0265557
0.0325599
0.0253213
0.0245011
0.0730032
0.0250655
3.67157
0.023007
0.0245286
0.0242171
0.0237211
0.996918
0.0239789
0.0360116
34.0369
0.024668
0.0310743
0.0233562
0.0225319
0.0251493
2.77983
1.05147
0.0240067
0.0246924
2.92536
0.024093
2.97784
0.181509
0.0246367
0.3248
0.0265121
0.0237241
0.0238748
0.0227106
0.867914
0.0286747
0.028596
0.0412522
0.039224
3.15408
0.0227583
0.328419
0.0246073
0.0268504
0.0249627
0.0325863
0.0247523
1.42058
0.0815319
2.05247
0.0225699
0.0893404
0.0248665
5.2671
0.0979087
0.0246334
0.0263046
0.0865127
0.0243267
4.76078
1.20408
0.0234058
0.0252126
0.0255157
0.0242575
0.0260444
0.0240646
0.0260133
0.0244838
0.0257215
0.0259815
0.0233585
0.0540752
0.0241849
23.805
0.0237086
0.0247639
0.374303
0.0246346
0.0263417
0.024634
0.0252639
0.0245672
0.0241972
0.0266553
0.154851
1.95153
0.0234284
0.48781
3.03739
1.26112
0.0233205
4.84805
0.0257395
6.09794
0.744744
0.1158
0.0317948
2.15874
5.52356
0.0277041
0.03017
0.0266711
1.49556
0.0223817
0.0308873
4.49505
0.247859
0.023767
0.0231788
0.0238655
0.0619904
3.70268
2.42126
3.66652
2.95584
0.0231769
3.55595
0.327984
0.230146
0.0535287
0.0475819
0.0237404
0.025918
3.39546
5.48448
0.0263656
0.0243174
0.0434743
0.0233587
7.35806
0.0260531
0.0243361
0.0350105
0.0634818
0.0229534
0.136957
0.0943749
1.63564
0.0229412
25.9878
0.0233094
3.244
0.998206
0.0365647
0.0242132
0.24061
0.0238754
0.0242119
0.084144
2.14017
0.0227955
0.0262865
0.25536
0.0313084
0.0264697
0.022413
0.088696
3.80818
3.22063
0.157723
4.01411
19.8896
0.0311126
2.27926
0.025707
0.0241339
1.38685
2.73699
0.984582
0.0235298
0.0306365
4.08579
1.74015
0.0894579
0.0683863
0.206935
0.0356459
0.0269947
0.0361554
0.92408
0.0239638
0.0386415
0.0248613
3.17467
2.77037
0.0221227
0.0243089
0.035362
0.0934195
0.0231257
0.0245543
0.0249247
1.70077
2.86759
0.0814962
2.50728
0.0249329
0.0232956
0.0288838
0.0241251
0.338158
9.6745
0.0799992
0.381086
0.0249191
0.0400748
0.0232769
0.0234145
0.0239379
0.0237488
0.0293569
5.56214
0.0247082
0.0293614
0.069655
0.0393696
12.0405
1.10442
0.0227418
0.0239769
0.0773283
0.0229108
1.07912
0.0227715
0.0235076
0.0227772
0.0979589
0.0228993
0.026591
1.8064
0.133584
1.97922
0.0249234
0.0263867
0.0236727
0.0237243
0.0232306
1.95081
0.0393344
0.0262834
0.583091
0.0282273
0.0245064
0.298841
0.163721
0.0232298
0.0270211
3.3328
0.0370785
0.0941405
0.0244781
3.34118
0.0233891
0.024677
0.0593784
0.024232
0.892826
0.0841185
0.0222519
0.023116
2.75303
10.0165
0.0239892
0.0239843
0.025714
0.0227605
0.0221441
0.0233824
0.0294596
0.441564
0.972428
0.0239925
0.022761
0.0250724
0.157841
0.317241
0.0240927
0.0320093
2.48206
3.3521
0.0254629
5.1423
0.0227242
0.0387305
0.0746114
0.0917983
0.0257156
0.0241051
0.0220986
11.3855
0.068977
0.0261943
0.025697
0.448531
0.0255644
0.0245734
0.0225744
0.420981
0.0247553
0.0820068
0.175493
0.0229901
0.0242281
3.03725
0.0507817
0.0234331
20.0492
0.0242056
0.322289
0.0233651
0.0688579
0.0972836
0.0252504
0.23462
1.33281
0.0246388
0.0245548
0.0244845
0.0371108
0.0350747
1.86754
0.0234318
0.0693223
0.0269577
0.0856125
0.0249269
0.133115
0.0228383
0.0725525
0.0261028
0.0245548
3.62785
0.0346726
0.0243064
0.0228491
0.0263724
0.197716
0.037506
0.0251297
0.0242573
0.0243311
0.0336719
10.0908
0.0326067
3.23433
0.0246653
0.0527063
0.0233522
1.37952
0.0224176
0.15259
0.0298309
0.025007
2.87692
3.13483
0.0244734
0.170329
0.0236877
8.21567
3.88474
0.0229486
2.89206
0.0231671
0.0263072
0.0835299
0.10857
0.141194
2.47576
0.0225173
0.541962
0.0242488
0.0242647
2.44076
3.76899
0.0225781
0.0504159
0.0248683
0.0357166
0.0245664
0.0398088
0.0237989
0.0493044
0.0245597
0.0241791
0.049645
0.0254869
0.0716755
1.15302
0.46351
0.0244819
0.0237631
0.0717122
0.0701095
0.879375
0.0236656
3.02654
0.0248253
0.0231635
9.3288
0.0240514
0.787473
0.022491
0.027816
2.33088
0.0231489
0.0237638
0.0240399
0.0251635
0.0250771
2.22176
0.025574
0.679947
0.478287
0.0279809
16.2714
24.9553
0.0237375
0.0249006
11.5937
3.03228
0.0262246
0.0254931
0.406965
3.94854
0.0242527
0.0377078
0.0224362
0.0243233
0.247711
2.29967
0.0584213
1.0674
0.0253325
0.0257306
0.295822
0.0366536
0.022301
1.77279
0.0361751
0.0536328
11.1876
0.0233103
0.201925
0.0242915
0.0250055
0.0230686
0.0387791
0.0353309
0.0469109
0.0261105
0.0265463
0.0521262
1.30716
0.0245214
8.98119
0.400139
1.46551
0.0227853
0.0229824
4.85009
0.0242408
0.301452
0.0248127
0.0715839
0.761358
0.0245204
0.456974
0.024171
2.07074
0.0506942
0.115388
1.28761
0.0248809
0.0248905
8.94244
0.0246429
0.358981
0.0405211
0.228458
0.108066
0.0251448
0.08413
0.026243
0.0294781
0.0352741
21.544
0.0236217
0.0233079
2.67335
2.52753
0.0448309
3.73655
0.026135
0.0234741
1.93389
0.0444703
1.74258
0.0854382
3.15559
0.0257366
0.0346263
0.0251547
3.14901
0.0262004
0.296691
0.0229029
0.0235112
0.0250845
3.76857
0.512601
0.0285637
0.0316308
0.0281028
0.0222974
0.0750284
0.0222239
3.68204
2.20689
2.75634
0.0222602
0.0262649
2.69899
0.0322338
2.1214
0.0227595
0.0229088
0.0883144
3.14682
0.0258846
3.86265
2.35172
0.0259928
1.47537
0.145747
0.0275132
0.0246363
1.03345
0.31426
0.0231152
0.0410148
2.23186
0.0235069
1.3646
0.0480182
3.70959
2.42997
0.0253072
0.0241487
0.0228099
0.0227994
8.96208
0.0255001
0.0234438
2.00448
0.0238997
0.0423436
0.0257158
0.212174
0.0460766
0.0816223
0.0235998
0.0267559
0.115781
0.0434861
0.0248413
0.0243021
0.0413071
1.37445
0.0242512
0.124393
2.34582
2.63998
0.240992
0.0237773
0.0281751
13.2547
5.02289
0.0250472
0.0245439
8.59043
0.433276
1.6485
0.0268221
0.198174
1.26463
0.0238913
0.162967
0.122709
0.0252782
0.0242538
0.0229156
11.7933
0.0242437
8.69375
0.173622
3.59845
0.195535
2.21262
2.15892
2.01326
2.58913
0.0242114
4.58051
0.0885433
0.024661
0.039963
0.0383648
0.133048
2.32558
0.0240612
0.0253827
0.0238698
0.0911652
0.0234912
0.0232915
0.0254981
0.0269936
0.0264385
1.26656
0.0449652
0.0225148
0.0266007
0.0269711
0.0781796
0.0255796
0.135658
0.0261724
2.29519
2.96011
0.023456
3.67161
0.228133
3.02271
3.44957
0.0268446
10.1814
0.024171
0.109192
2.93066
0.0242293
0.0237835
0.0245189
0.0240595
0.0270205
0.0307454
0.0241126
0.0609459
0.0249775
2.51578
0.027117
2.5178
0.0232838
0.0240759
0.332334
0.0238935
0.0244654
0.0242753
0.0517418
0.0255709
0.025149
0.0260074
0.0238381
0.0579951
0.0231086
0.759069
0.0244917
0.0353693
3.01625
0.0251058
0.109819
0.0757538
0.0241915
2.16821
0.0234127
2.48857
1.86755
31.8235
0.0556273
0.0235671
0.083939
0.0928093
0.0246354
0.032011
0.0359598
0.0376242
0.0265138
0.0237758
0.258079
19.0835
0.0246575
2.8767
1.13611
0.0232954
0.0237817
0.0227472
0.080372
0.411353
0.23006
0.024014
0.0235614
0.260597
0.035867
2.1238
4.3027
0.0242025
0.0254606
0.0233184
1.2491
1.98978
0.0231582
0.0325624
0.429535
3.10727
0.0314016
0.0271029
0.0226274
0.0248782
3.19603
0.32679
0.0241923
3.04499
0.0236398
0.36226
0.471882
0.0360582
0.21847
0.257939
0.0248147
0.277665
0.0366124
1.83457
25.2647
0.0232967
2.26968
3.20667
0.201894
0.741711
0.0272151
4.02842
1.71796
0.0326245
0.0229887
0.240185
0.331865
0.443482
0.0700395
0.0250045
0.298319
0.0241833
2.45024
2.40475
0.0894916
0.0276827
0.0250015
0.024252
8.89589
0.0233951
4.36678
13.9853
0.0520914
0.0240915
9.56234
0.0239815
0.0511307
2.93796
0.416711
0.025469
0.0246593
0.0244154
0.0243086
0.0364568
0.0242916
0.0413584
0.0319855
0.024651
0.022447
0.117586
0.069964
0.0233935
0.0233697
0.0242802
0.0254992
0.0271948
0.145897
4.26172
1.82517
14.4501
0.0243698
0.0239709
0.0494571
0.0401308
0.023382
0.0820263
7.3704
9.48004
0.0937159
0.950021
0.0535332
0.0318147
3.01586
0.0236455
0.29394
0.15506
0.0226649
0.489611
0.0255738
0.0751206
3.25322
0.0430578
0.0311861
13.1592
0.0241028
0.0239011
0.0224059
0.0289393
0.0240999
0.0248881
0.0242275
2.79632
0.0287768
0.0243579
0.0315765
0.0260574
0.0782498
1.34237
1.64815
0.0245335
0.0233329
2.25226
0.0869219
0.733855
0.0241736
0.0263465
0.0243741
0.0252153
10.6006
0.0282899
0.023715
0.0242202
0.111954
0.023705
0.0367405
0.0234423
0.0234008
0.0256214
0.0992963
0.0514219
0.0283204
0.0234459
1.02408
0.0367345
8.31414
2.27086
0.0248816
0.0702472
0.163754
0.0463854
3.70093
0.0258426
0.0746825
0.025234
0.0477286
4.111
0.0232904
0.0241595
2.94792
0.0223975
0.875271
3.71327
0.0234814
0.0620606
0.0229857
0.0242237
4.26467
0.0228662
0.0234207
0.0233513
0.0226009
0.0297664
0.024277
2.4357
0.0233631
2.02344
9.89293
0.0251171
0.0240649
0.0235
0.0233708
0.0261929
7.61048
0.0229598
0.0600205
0.0286531
2.35164
3.2458
0.025463
0.0372699
0.042433
0.0224491
0.023151
0.449336
0.0223028
0.0226293
1.93793
2.57871
3.12532
0.0246179
2.25623
0.449622
0.0224949
0.0404379
0.0243848
0.0243604
0.0226558
0.0240674
2.34772
0.0243559
0.0242724
0.247196
0.0259093
5.46484
0.0263851
0.0247255
1.35626
0.0231437
9.49253
0.0227432
0.0254081
2.2837
0.0242311
0.023301
0.0241055
3.21608
0.348134
0.0246571
0.0242266
0.0226885
0.029595
0.427837
0.132156
0.0248115
12.4725
1.03374
0.0241553
1.58286
0.0224394
0.507192
0.143546
0.0225937
0.0280231
2.26645
0.0317299
9.16842
0.0486683
0.0385586
10.711
0.0269716
1.4722
0.0237984
1.01499
0.0244508
3.83788
0.0252602
0.0279779
0.0323715
0.0233417
7.70445
0.451943
8.08332
0.199722
0.0230565
2.14427
0.02237
0.0239749
3.66573
0.0228364
3.03123
1.97154
0.0224849
0.0266335
0.0407384
0.146849
0.0233092
0.0777747
0.0367621
0.0680098
2.41502
0.0245431
0.0242517
0.0239626
0.022433
2.18991
0.0747757
0.265099
0.0234572
26.8781
3.0382
0.0222857
0.0226989
11.9659
0.0862511
3.71451
0.230308
10.3895
0.206857
0.059871
0.0334354
0.350112
3.64434
0.0262478
0.0364259
0.0237716
0.0267276
0.173432
1.4744
0.0252419
0.161289
0.415924
0.0237267
0.0249532
0.0251099
0.0265015
0.0240685
0.985863
0.466662
5.40787
0.0229096
0.077958
0.0346543
0.12978
0.0786388
0.0646322
9.14939
0.023453
0.024347
0.19903
0.0230446
2.5065
0.0513216
0.0244811
0.0223543
1.69687
0.0242075
0.0250688
0.023458
0.0288026
0.0491104
0.0358771
0.0266537
0.0241506
0.0245092
0.927752
0.0232927
0.262231
0.0242532
0.0242672
0.0224107
5.10935
0.384439
4.424
0.0262543
0.0276044
0.0257534
3.73022
1.22713
0.0240712
3.66036
0.024471
0.0232357
0.0411758
1.78879
0.274535
2.71359
0.0903124
0.0775088
0.023971
0.0243804
0.605652
7.9816
0.0423212
0.0221472
0.174489
3.10269
0.0234174
0.0231545
8.05969
0.0252915
1.62846
0.114995
3.18931
0.0230014
0.0267065
0.0239695
3.19252
0.0252637
0.0230682
0.0267301
1.89244
1.23537
3.50082
5.76756
0.0253944
0.0232298
0.0238481
3.22726
0.0234341
0.0251649
0.0322596
0.0234053
1.66819
0.0241394
0.0228499
0.0230333
0.0377905
0.0245101
0.245586
0.0245325
0.0243466
1.68449
0.0242877
0.187907
8.86889
0.0731876
0.0252553
2.1593
0.106301
0.0246443
1.59804
0.0226325
0.227494
0.0357681
1.04863
0.085765
0.0630635
0.114734
0.0237725
0.0223884
0.0248392
0.0230221
0.0346424
8.71817
0.0375183
1.38095
0.0223143
3.47375
0.859532
0.0248808
0.10534
0.0234078
0.100096
0.0251527
3.2592
0.0223469
9.14486
0.0228522
0.0239818
0.0339326
5.2716
0.145444
0.0246226
2.9193
5.09462
0.0228815
0.19961
0.03675
0.0410439
0.540921
0.0240802
2.15971
0.023986
0.0241067
3.06102
0.0336019
0.022811
0.0239707
0.0231421
0.0231007
0.0251286
6.61535
0.533034
0.0924354
0.0237804
0.0244563
0.07837
6.12407
3.14917
1.66774
0.417231
0.02514
0.0235124
0.0236613
0.0282736
0.0245438
0.0228963
0.976024
2.32879
1.91775
0.0243479
0.0239066
0.661718
0.0239364
0.0237791
0.0244734
0.0261143
0.179179
2.52425
0.0241193
0.0230926
0.0352012
0.0242556
1.9344
0.0301676
0.189749
0.0248674
0.0522874
0.023999
0.0226242
0.135707
0.0260484
1.07446
0.0234032
0.180743
0.0252455
5.80867
0.0236925
6.17451
0.0235623
0.0857266
0.0238944
0.0237156
0.0243678
0.0401862
0.469292
0.0240954
0.0254902
0.023285
3.12376
0.0557604
0.318193
0.0270638
0.0257646
0.0341128
1.13765
0.0336308
1.82733
0.0242107
0.0246019
4.09304
0.743668
0.0223054
0.229865
0.0262271
0.0232538
0.826461
0.0238024
0.333239
0.0245792
8.86828
0.0237339
2.09299
2.29982
0.0225809
0.0247103
0.0224475
0.0248523
0.463
0.98006
0.158365
5.7805
0.0237301
0.112583
0.0244642
1.81102
0.0223991
0.0997942
0.0232007
0.120659
0.0238683
0.023765
0.0256151
6.7415
0.340123
1.03512
0.049335
0.0436931
0.247303
0.0935709
1.1819
0.0241448
0.0261906
0.0263369
0.023348
0.0228833
0.0328276
0.423356
1.01977
0.0287265
0.0244941
2.31983
0.0245404
0.0728233
0.0745089
1.65246
0.0270839
0.0231674
0.0233525
0.0248567
0.024374
3.18073
0.0478249
0.0237427
0.026434
0.0478358
0.0271284
3.34535
12.5078
0.954346
0.0241751
0.274336
1.79152
0.0447505
0.360037
0.0236491
0.0235613
2.23842
3.14499
0.061484
0.0232709
0.0263479
0.0226702
2.57437
3.11868
0.0233033
0.0268882
0.0236875
0.0245037
0.543851
3.43173
0.0236096
0.0233296
0.0271344
0.0245598
0.023272
0.0311141
0.0237711
0.0255375
0.0233093
3.20168
0.0233684
0.0774603
0.023176
0.252977
0.0233432
0.0328234
0.0238627
0.0238545
0.0232668
0.0242032
2.00698
0.0255483
0.0333419
0.0256849
1.8234
0.0251903
1.01938
0.0236833
24.4427
0.0400001
3.48256
0.249459
0.256927
5.68563
0.123153
0.0226727
2.24835
0.0247883
0.0275867
0.355391
0.0857732
0.0405573
3.5329
0.0813806
0.0265879
0.0284451
22.3769
0.0235615
0.0245548
0.0247244
0.0361624
0.0239175
0.022729
0.429891
0.0250745
0.0239478
0.0241304
9.01237
0.0250451
0.0300921
3.04356
3.10402
0.493056
0.0365463
2.91433
0.0269053
6.7984
0.0228669
0.0276266
0.036089
0.0248794
0.0232483
1.2408
3.20831
0.0467444
0.032274
0.0251897
0.0250615
1.38344
0.0312109
3.58631
0.025149
0.0242421
0.0241097
0.0241886
0.0247743
0.0236266
0.0289816
0.0246267
0.0246376
0.0284388
0.0251211
0.0239576
0.0248992
0.889944
2.81017
0.0263587
0.0679159
2.86421
0.0708768
0.033451
0.152812
0.0375597
0.023486
0.0241775
0.165071
0.0232183
0.0227327
0.0266759
0.517776
0.0227372
0.0235722
0.0259992
0.0266839
0.0239639
0.0285438
0.0262141
0.454452
4.79803
0.290057
0.0227368
0.0235334
2.12615
2.81528
0.0672293
1.72449
3.27533
0.0295026
0.0249442
0.0245573
5.71586
0.324784
0.0239567
0.0375645
0.445713
0.365706
2.27358
2.72032
0.0251268
0.0323977
0.0263756
0.068435
0.0241641
3.50796
0.167126
0.0256057
0.0239191
0.0248109
0.0507662
0.0221214
0.022741
0.0324549
0.239477
12.0281
2.34014
1.8492
0.0241662
2.28124
2.5735
1.94123
3.19034
0.4479
2.86873
1.45853
0.0246276
0.187287
0.211078
0.0239997
6.05684
0.0245133
2.79519
0.0237394
0.0406101
0.0933732
2.83139
0.0239245
0.0344569
0.0274326
0.0523574
0.023924
0.0242412
0.341341
2.22732
0.0267845
1.15313
0.0234066
0.0385335
0.0245339
0.0368862
1.51815
0.314821
5.00647
2.62356
6.80144
0.0268691
3.425
0.025934
0.0223757
3.00619
0.334439
0.0232113
0.0252452
0.0247934
0.0252112
0.0510399
0.0237283
1.95712
0.0714951
0.329064
0.0248843
0.0350097
0.0380254
2.21232
0.0570081
0.232294
0.338219
1.46392
0.0271147
8.40289
3.88267
0.0239622
0.34024
0.0242179
0.0249534
0.0371956
0.0228226
0.0237851
2.19427
0.0236201
10.6677
0.0231529
1.94327
3.03856
0.0285687
2.29784
0.0572651
0.0223682
2.83435
3.38832
1.08777
0.0246094
0.0249198
1.18782
0.399798
3.38583
0.0232838
0.0318458
0.0263966
0.0250439
0.0365697
0.0557597
0.0249178
0.0246887
0.0242226
0.0534633
0.0246774
0.166077
0.0242564
0.0225721
2.44281
0.025397
0.0256059
0.26913
0.0287671
0.0270966
0.0252923
0.0250662
2.92493
0.0250064
0.0247051
0.023592
0.0284242
0.0228018
0.114246
2.29904
0.0270766
0.0243005
0.0237642
2.39354
4.69664
0.0362822
7.44264
0.179987
0.0333296
0.0239437
0.56092
9.17447
0.0245925
1.87349
0.0235303
0.17429
0.129495
3.20508
5.03968
0.0237825
0.411101
0.0245985
0.0256688
0.0238096
0.910974
0.0249533
3.44332
0.0774968
0.025375
0.0267116
0.0237512
0.0254666
0.0232491
0.0237351
0.0243806
0.0244376
0.0226922
3.13733
5.84534
0.241358
0.0723165
0.135095
0.0248048
0.0242332
0.024112
0.0247983
0.0547706
0.0264514
0.0225652
0.0232617
0.0221089
1.72084
2.39194
0.0416773
0.0225458
2.34595
1.72663
0.160353
0.0300036
0.0267125
0.143275
0.0246916
0.425859
0.0703152
0.0256262
2.87907
0.023539
0.0253022
3.93192
0.0607834
0.0244697
0.0406472
0.0244288
0.0279625
0.0625512
0.32638
0.0277826
2.43182
0.273866
7.78589
0.0233027
0.0242347
0.163939
6.4131
2.18544
0.0233527
0.024499
0.0247935
0.0231784
0.0685557
0.0223904
0.538093
0.0340454
0.0231863
0.0251154
0.0250973
0.0247705
0.0791686
0.024854
0.177886
0.0257691
2.68881
13.0691
2.49305
0.248657
3.32951
0.0239052
2.42035
2.10307
0.0290951
0.024679
0.0244869
0.0269511
2.41002
0.0247345
0.0231984
0.0251432
0.131424
0.293979
0.0378253
0.0249475
3.62561
0.0705949
0.0227778
8.1652
0.633736
4.31325
0.023339
0.0262608
0.0339611
0.0554362
0.0252069
0.0743815
0.023212
0.0238798
0.0249228
3.55963
3.07349
0.0244425
0.384053
0.0260701
0.0251979
0.0391713
2.92638
3.09551
0.0247372
0.623106
0.0484885
0.0252405
0.023863
0.264841
5.25871
0.033177
0.56155
0.884963
0.0245822
0.024454
0.0299076
4.71758
0.0251156
0.11308
10.2398
0.0241124
0.273513
0.271121
0.0246273
3.62601
0.0248458
0.322139
0.0245583
0.0360498
0.0387698
0.0728484
0.0988782
0.381575
0.11975
2.79748
0.0247614
0.0235325
0.0690478
0.0237701
0.223308
0.0242491
0.0244482
0.0232551
1.0359
0.0361855
2.21214
0.183579
0.034211
9.83717
0.084757
0.0239249
0.936983
1.9748
0.0222482
4.46339
0.0649822
0.0278031
0.0222118
3.42026
3.26746
0.0231249
0.0248943
0.0496898
0.0275499
0.0250741
0.026598
2.69831
0.0240771
0.780765
3.22543
0.0237287
0.0268798
0.0240627
0.0501522
2.33946
10.0501
0.162209
9.31681
3.26339
0.0223226
1.59199
0.0237578
5.97855
0.0231351
0.024085
2.1136
0.0266202
0.0243922
2.83822
0.0245539
0.109806
0.0806376
0.0315706
0.0810604
0.279608
0.039123
2.28486
0.0244684
0.0353547
0.0335149
9.74012
0.0242877
2.92673
0.0258809
0.0884933
4.31604
1.38299
0.0259227
0.0732253
0.024555
0.0249866
0.0233457
0.0254774
0.0513465
0.11433
0.0233523
0.0225374
0.024039
0.0229848
0.0257876
0.0312981
3.20368
0.0426031
0.0238109
0.0487213
0.0245523
0.283548
0.101206
0.024082
1.95992
0.0623457
0.0231622
0.0229965
2.60522
0.731823
0.245042
0.0262952
2.20538
0.0248966
3.13038
0.0245172
11.7696
0.0346372
1.47826
0.413912
0.0237057
0.0516225
0.0314398
3.09069
0.0245508
0.097853
0.0330982
0.0250311
0.0556036
2.51821
2.93535
0.0267975
0.0439797
0.025397
0.0262865
1.85841
0.26068
2.12938
23.3387
5.85347
6.10938
0.479653
3.99954
0.0231037
2.19062
1.69402
0.713474
0.733065
0.0542566
0.0233678
0.0238301
0.0233252
0.0230896
1.0026
2.95912
0.0235138
0.0375251
0.0239905
0.0555028
0.047596
24.6791
0.0238153
0.0237077
0.0255987
0.0225097
0.0607767
0.0294868
0.0410212
2.66821
5.73935
0.023439
5.57748
0.0232961
0.0377667
0.0230773
0.0233082
0.0234863
2.30098
0.0759555
0.0256111
0.0242429
0.871085
0.0632152
0.128475
0.0244661
0.066731
0.0247206
1.76111
0.052819
0.024886
0.0382366
0.0820407
0.0282327
0.0247038
2.10627
0.516006
0.0222217
0.023744
0.0498485
11.5389
0.026107
0.0425614
0.0234245
0.0375098
0.0232742
0.0250764
3.47236
0.0223685
0.0248985
0.541963
0.333077
0.272442
0.0244802
0.159812
0.0536023
0.0731665
0.0904755
3.35377
0.0591136
3.02733
3.30749
4.05329
0.037957
2.99776
1.65047
3.59506
1.83901
0.032943
0.0237739
0.0246504
0.024552
0.0239868
0.0293891
0.0335182
0.0238315
0.0690464
0.308073
35.9704
3.70752
0.0252712
0.332383
0.0249812
6.05073
0.0249142
0.0236696
0.0224619
0.0222028
0.0256021
0.02582
0.0232766
2.57275
2.59814
3.37375
0.0284896
0.0268807
0.0233274
10.577
0.0224358
0.0811093
0.0233465
3.28022
0.0388559
0.0228445
0.0235089
2.71078
3.82491
0.0344043
3.61245
3.56673
0.0237688
0.0238048
0.0234196
0.0337988
0.082248
0.0258188
0.0253246
1.06992
0.023774
3.26341
0.0267905
0.0243597
0.0231333
0.0694193
0.025589
0.0238009
0.283036
0.0323845
0.167925
0.0246447
2.34715
3.06346
0.0584045
0.0237435
0.0258209
0.0245515
3.28772
0.0228785
0.358415
0.0238071
3.00268
3.15117
0.105359
0.0245097
0.0873306
0.0246115
0.0281127
3.19042
0.0228899
0.0232793
0.231951
2.00683
0.531507
0.0280141
6.50912
0.0243916
0.0238923
0.0227944
0.0252627
0.493646
0.0238589
0.535983
0.0555983
13.9631
0.974335
0.0871896
0.0497227
0.0232607
9.43576
0.0248268
0.0243314
0.0225675
0.0579416
0.0246018
0.0280451
0.0334572
0.0243341
0.023539
0.876974
0.0573909
0.0253805
0.0239836
0.0245574
0.0234791
0.023085
3.07854
0.0278548
0.274715
0.025223
0.024179