/*--------------------------------*- C++ -*----------------------------------*\
| =========                 |                                                 |
| \\      /  F ield         | OpenFOAM: The Open Source CFD Toolbox           |
|  \\    /   O peration     | Version:  v2012                                 |
|   \\  /    A nd           | Website:  www.openfoam.com                      |
|    \\/     M anipulation  |                                                 |
\*---------------------------------------------------------------------------*/
FoamFile
{
    version     2.0;
    format      ascii;
    class       volVectorField;
    location    "300";
    object      U_0;
}
// * * * * * * * * * * * * * * * * * * * * * * * * * * * * * * * * * * * * * //

dimensions      [0 1 -1 0 0 0 0];


internalField   nonuniform List<vector> 
37190
(
(1.02556 -0.0213421 -8.22045e-22)
(1.00196 2.12963e-05 -8.57145e-23)
(1.01966 -0.00332354 0)
(1.0137 -0.00348026 0)
(0.930502 0.0434147 0)
(1.02115 -0.00978827 1.3823e-21)
(1.05707 -0.0300118 -4.8958e-21)
(1.03321 -0.0250255 -1.51311e-22)
(1.0087 -1.80886e-05 0)
(0.403724 0.00747675 2.59209e-23)
(0.321976 -0.00195314 -5.37863e-21)
(0.617385 -0.0743431 -7.63801e-21)
(1.07718 -0.0580122 1.0081e-20)
(1.04536 -0.00816206 5.20814e-22)
(0.256079 -0.00612182 -1.09844e-20)
(0.887657 0.0181713 0)
(1.01968 -0.00323337 8.1602e-22)
(1.04968 -0.0049898 8.19802e-22)
(1.00819 -0.00115116 7.02089e-24)
(1.04101 -0.0156228 2.93336e-21)
(1.05031 -0.026535 -3.43204e-21)
(0.877052 0.0983501 3.25752e-22)
(1.01766 -0.0072866 9.76237e-22)
(0.194485 -0.0779122 0)
(0.94278 0.0377054 0)
(1.00143 -1.97444e-05 -1.19107e-22)
(0.465298 -0.040733 -2.78629e-21)
(1.06001 -0.0109081 -8.96442e-21)
(0.318664 -0.00374405 0)
(1.02779 -0.000655986 8.50851e-22)
(1.04583 -0.0550513 -2.96515e-23)
(1.02208 -0.01533 -7.09954e-22)
(1.01846 -0.0112533 1.64468e-22)
(1.01459 -0.0430086 0)
(1.01837 -0.0111293 0)
(0.871775 -0.10214 -9.43338e-22)
(0.469761 -0.0426426 8.07027e-21)
(0.695104 0.0920829 1.00223e-21)
(1.00807 -0.0010971 -6.55141e-24)
(1.03084 -0.0215803 0)
(0.972225 -0.142541 0)
(1.01077 0.000639632 -7.19628e-24)
(0.886831 0.0365472 -1.09363e-21)
(1.02218 -0.0151241 0)
(0.3497 -0.0214996 -3.43471e-21)
(0.887426 0.07118 -9.63465e-22)
(0.351665 -0.0228872 9.50123e-21)
(0.568183 -0.0766759 0)
(1.00912 0.00035126 -1.40351e-22)
(1.03757 -0.0284497 -4.48951e-21)
(1.01495 -0.00182381 -1.94544e-22)
(1.00706 0.000288167 1.29401e-23)
(1.03191 -0.00523903 -1.13663e-21)
(1.07122 -0.0226868 0)
(1.01699 -0.009217 2.39587e-22)
(1.01851 -0.025869 0)
(1.00719 0.00030256 2.4807e-24)
(1.02104 -0.0146025 0)
(1.04808 3.78689e-05 -8.68232e-23)
(1.0398 -0.0538097 0)
(1.0329 -0.0258188 1.03877e-22)
(0.277409 -0.00947545 4.86182e-21)
(1.05113 -0.0268641 -1.98067e-21)
(1.00079 2.15043e-05 1.17368e-22)
(-0.0231379 -0.00905475 2.18233e-20)
(0.566018 0.00626866 -9.00496e-21)
(0.921956 0.0485344 0)
(0.541411 -0.00345576 0)
(-0.0857721 0.0948696 1.70648e-20)
(0.521184 -0.0192799 6.02939e-21)
(1.00805 -0.0010753 0)
(0.987908 -0.0354735 0)
(1.01783 -0.011708 0)
(1.01757 -0.00713713 0)
(1.0136 -0.00130812 4.74492e-23)
(1.00264 -0.00189222 6.19047e-22)
(0.206297 -0.154623 5.36856e-21)
(0.833031 -0.0598538 -5.31374e-21)
(1.01862 -0.0109724 0)
(0.85415 -0.0667681 0)
(0.365248 -0.0225541 1.02349e-20)
(1.01401 -0.00327643 7.00027e-24)
(0.564944 -0.0283195 0)
(1.0191 0.000775935 -3.71179e-23)
(0.42184 -0.00408457 -2.92586e-21)
(1.03109 -0.0314217 -7.97917e-22)
(1.00087 -0.0622141 8.26997e-21)
(0.870828 0.079654 9.96805e-22)
(1.05738 -0.0308162 0)
(0.918329 -0.184012 -1.23518e-22)
(1.00817 -0.00119734 0)
(0.360344 -0.00386698 0)
(1.01838 -0.0113577 -2.10514e-22)
(1.0023 1.10574e-05 0)
(1.02805 -0.0375837 0)
(0.818434 -0.140976 0)
(1.04104 -0.016297 -5.12939e-21)
(0.611404 0.00647647 -8.14191e-21)
(0.568475 0.00300776 4.51149e-21)
(1.01351 -0.00115867 0)
(0.411735 0.0347261 -1.88084e-21)
(1.01842 -0.0280365 -5.49196e-23)
(1.03401 -0.00251833 4.28181e-21)
(1.00589 0.00012158 6.23858e-23)
(0.308325 -0.00353791 2.79039e-21)
(1.00148 1.92894e-05 0)
(1.0228 -0.0137279 3.55227e-21)
(0.238463 0.00388022 1.43207e-23)
(0.398286 0.124526 -4.85864e-21)
(1.0214 -0.011164 4.00777e-22)
(0.949718 -0.188072 -1.29198e-21)
(1.0152 -0.00388019 1.75534e-22)
(1.01382 -0.00314121 7.20558e-22)
(1.01518 -0.00388554 4.26802e-22)
(0.988973 -0.0326919 4.51336e-22)
(1.01374 -0.00359806 8.4513e-22)
(0.375064 -0.0247945 -1.19254e-20)
(1.02555 -0.0623856 7.43633e-21)
(1.03728 -0.0271256 -6.83021e-22)
(1.04849 -0.0140597 0)
(0.982509 -0.00691659 0)
(0.86308 -0.0604442 -4.4252e-21)
(1.03236 -0.00117664 -4.39146e-21)
(1.01497 -0.00207658 1.83e-22)
(0.141465 0.0213484 5.99863e-21)
(1.04881 -0.028606 0)
(0.386065 -0.00659607 3.4318e-21)
(1.03283 -0.00101653 3.54238e-21)
(0.345691 -0.00245969 0)
(0.420268 0.0437124 1.96086e-22)
(0.444064 -0.0405615 3.34482e-21)
(1.01216 -0.000734343 5.40344e-22)
(1.00189 3.46159e-05 0)
(0.983239 -0.0606103 6.40753e-23)
(1.00342 -5.99376e-05 0)
(1.03665 -0.108968 -7.59587e-22)
(1.01473 -0.000639589 -2.58913e-22)
(1.04364 0.00354283 -4.04592e-22)
(0.961314 -0.0631259 2.72544e-21)
(0.90324 0.0372835 3.25286e-21)
(0.719427 -0.0383104 2.2167e-22)
(0.982802 -0.00309845 0)
(1.02577 -0.0131663 0)
(0.808118 -0.146931 0)
(1.04194 -0.0171981 0)
(1.01308 -9.98828e-05 2.23653e-22)
(1.04904 -0.0136715 0)
(1.05841 -0.013535 6.0624e-21)
(1.01294 -6.24331e-05 -1.27434e-22)
(0.511872 -0.0175786 -3.43611e-21)
(1.02256 -0.0137161 -2.22116e-21)
(1.00262 1.06465e-05 5.90431e-25)
(1.00616 0.000140865 -3.85903e-23)
(1.07044 -0.0315153 2.36351e-21)
(0.28668 -0.0110304 0)
(1.01713 -0.00659509 0)
(-0.077576 0.0845735 -7.72128e-21)
(1.01955 -0.000114979 0)
(1.0102 -0.0275725 0)
(-0.0163215 -0.0596569 0)
(1.01994 -0.0138123 -3.23865e-22)
(1.0375 -0.0253714 5.3685e-21)
(1.01583 -0.00929302 0)
(1.01858 -0.0110206 0)
(-0.103821 0.111999 9.67769e-21)
(1.04881 -0.0147997 -2.8747e-21)
(0.345847 0.00454774 -3.47442e-21)
(0.407958 -0.00376525 -1.00477e-20)
(1.03783 -0.0275315 0)
(0.775646 -0.0447731 0)
(0.143921 0.0240326 0)
(1.00864 -1.0508e-05 0)
(1.02486 -0.016247 1.96315e-23)
(1.01029 -0.000899378 -2.82889e-22)
(0.386679 0.00520665 -1.45643e-20)
(-0.00630932 0.0288486 4.34411e-21)
(1.07489 -0.0628223 5.62789e-21)
(1.04475 -0.0498557 1.89474e-21)
(1.03542 -0.00679032 -2.48293e-21)
(0.392903 0.00522278 -1.57995e-20)
(1.06999 -0.0319651 -2.82383e-21)
(1.01616 -0.0362687 -4.83158e-22)
(0.90256 -0.190904 -1.13446e-21)
(0.5898 -0.00872375 -7.37803e-21)
(1.04961 -0.028481 -7.04809e-21)
(0.00569305 0.0381548 0)
(1.02181 -0.0129932 0)
(0.393545 0.00529191 6.81249e-21)
(0.506755 -0.004824 3.64068e-22)
(1.05911 -0.0428119 -4.04604e-21)
(1.01285 8.01699e-05 2.66797e-22)
(1.07601 -0.0574635 5.78704e-21)
(1.01722 -0.0377767 4.72628e-22)
(1.03469 -0.00705158 4.96581e-21)
(1.01273 9.09428e-05 0)
(0.58087 -0.0306139 5.01083e-21)
(0.569028 -0.0389278 -2.38882e-21)
(0.38893 -0.102889 5.97386e-21)
(0.788224 -0.0532526 0)
(1.01821 -0.000575014 3.31463e-22)
(1.00115 8.18066e-06 0)
(1.0759 -0.0516419 7.67022e-21)
(1.02127 -0.0124751 1.16474e-21)
(1.01923 -0.00887844 8.52457e-24)
(0.722994 0.0574507 -2.36677e-21)
(1.01962 -0.0567447 9.41312e-23)
(1.0125 -0.00132256 -1.12133e-21)
(1.01981 -0.000113235 0)
(0.349771 -0.00441195 -1.15928e-20)
(1.05824 -0.0424199 0)
(1.02105 -0.0124567 -5.20585e-22)
(1.01253 -0.00158133 -1.37838e-21)
(0.79818 -0.0914421 0)
(1.03429 -0.0145459 3.16554e-21)
(0.875022 -0.0673838 0)
(1.05197 -0.0102261 5.77067e-21)
(1.01236 -0.00107103 -1.10644e-21)
(1.02166 -0.0127836 2.70915e-23)
(0.188283 -0.00796296 8.49835e-21)
(1.0124 -0.00124979 9.49654e-22)
(1.0609 -0.0109733 7.08577e-21)
(1.01295 -0.00220216 1.99956e-21)
(0.549539 -0.00341088 6.96572e-21)
(0.221197 -0.000898096 5.38954e-21)
(-0.0986393 0.104382 7.65671e-21)
(0.87122 -0.0242908 0)
(1.08318 -0.0583366 1.21129e-21)
(0.559406 -0.0319027 3.53928e-21)
(1.03563 -0.00129929 -1.70853e-21)
(0.474815 -0.0081455 3.42767e-21)
(0.267043 0.00587283 -1.05326e-20)
(1.01457 -0.000805647 3.69349e-24)
(1.00619 0.000144552 4.38069e-23)
(1.00334 -5.72997e-05 -7.60548e-23)
(1.01243 -0.00150906 1.13418e-21)
(1.01821 -0.0111997 -4.10526e-23)
(0.775416 -0.0525379 0)
(1.00722 0.000277121 3.41539e-23)
(1.01717 -0.000698093 -6.74683e-22)
(1.06989 -0.0468396 0)
(1.01265 0.000188965 -8.12739e-24)
(0.337292 0.00328156 -6.10118e-21)
(1.07023 -0.0226299 -3.84488e-21)
(1.00622 0.000147974 0)
(0.434325 -0.0030218 -2.44304e-21)
(0.0124227 0.0271741 -5.98534e-21)
(1.01215 -0.000989221 1.31551e-21)
(1.031 -0.0318353 -2.1416e-22)
(0.0439207 0.0162062 6.26706e-21)
(1.01718 -0.000458007 1.28024e-21)
(1.04609 -0.0186492 -2.30875e-21)
(1.01437 0.00385751 4.78497e-22)
(1.06941 -0.0481049 0)
(1.04826 -0.0151824 0)
(1.01251 0.000193159 -2.21961e-22)
(1.05898 -0.0130198 -2.69641e-21)
(1.01119 -0.000392562 2.55739e-22)
(1.01911 -0.00947046 -1.01052e-21)
(1.02741 -0.0365539 -1.12622e-21)
(1.00626 0.000159452 -3.89351e-23)
(0.796754 -0.0794395 -9.41028e-22)
(0.255808 -0.00531262 0)
(1.00779 0.00136577 7.98048e-22)
(1.00682 0.000253074 0)
(0.799041 -0.1358 0)
(1.04151 -0.0240427 3.52636e-21)
(1.02116 -0.00316598 0)
(1.03389 -0.0127438 2.11782e-23)
(1.0131 -8.08909e-06 -1.00534e-24)
(0.998215 -0.021779 5.07619e-22)
(1.01039 0.00136585 1.12889e-22)
(1.03578 -0.00102425 -5.5362e-21)
(0.723747 0.0162653 -7.62554e-23)
(0.36792 0.00307216 1.1026e-21)
(1.01494 -0.0408816 8.81829e-23)
(0.381536 0.00480156 2.03369e-21)
(1.0281 -0.0384797 0)
(1.0223 -0.0132963 -1.32161e-21)
(0.374397 0.00388353 1.54146e-20)
(1.00681 0.000163226 -2.4976e-22)
(1.01335 -3.17386e-05 0)
(1.05888 -0.0567218 -4.14252e-21)
(1.02602 -0.0212832 0)
(1.00716 0.000270279 0)
(0.597661 -0.0218256 0)
(1.01283 -0.00212657 -1.40717e-21)
(1.00378 -8.1551e-05 3.93075e-23)
(1.04408 -0.0488472 0)
(0.887616 0.0428555 -3.33117e-21)
(1.01785 -0.0161698 0)
(1.03803 -0.0256094 -6.05115e-21)
(1.03487 -0.0147868 -4.95691e-21)
(1.03104 -0.0269456 0)
(0.540941 -0.0296262 -4.29411e-21)
(1.00743 8.7842e-05 1.00173e-22)
(0.39311 -0.000920277 1.00215e-20)
(1.00775 -0.000976801 -1.36458e-23)
(1.01253 -0.000518734 0)
(0.370448 0.00680565 7.21767e-21)
(1.00288 4.06181e-05 1.65745e-24)
(1.03113 -0.0260281 0)
(0.786581 0.110528 4.44336e-22)
(0.794316 -0.135363 1.02418e-21)
(0.535285 -0.0284207 0)
(1.01815 -0.0103456 6.55025e-23)
(1.01686 -0.00773723 0)
(0.246793 -0.153352 1.59794e-22)
(1.02307 -0.00267137 -2.32779e-23)
(0.341282 -0.0213022 0)
(0.739421 -0.116916 0)
(-0.0293384 -0.00316886 -8.07345e-21)
(0.583797 -0.0399502 -1.30188e-22)
(0.397862 -0.00904103 5.50545e-21)
(0.795822 0.130349 -5.39194e-23)
(1.01119 0.00429447 -2.2587e-22)
(1.01038 0.00346596 2.42103e-22)
(1.02286 -0.00955619 -2.13037e-23)
(1.01485 0.00145292 0)
(-0.120064 0.129944 -4.0495e-21)
(1.02207 -0.0132844 1.22956e-21)
(0.538652 -0.0407627 -2.97786e-23)
(0.587169 -0.0445304 0)
(1.0219 0.000105863 2.15871e-21)
(1.03684 -0.0336372 0)
(0.87186 -0.0169426 0)
(1.01147 -0.0625045 0)
(1.03797 -0.0280445 3.41713e-21)
(0.544179 -0.0053931 9.18306e-21)
(0.334316 0.00443208 1.70207e-20)
(1.01326 -8.74241e-05 -2.79163e-22)
(0.78098 -0.0854619 0)
(-0.0934849 0.0297147 1.12771e-20)
(0.114021 -0.124209 -7.99848e-21)
(0.84828 -0.0667537 0)
(1.03183 -0.00549233 1.28568e-21)
(1.01347 -0.000128082 2.41402e-22)
(1.02096 -0.00315833 5.07389e-22)
(1.00658 -0.000340714 0)
(1.01718 -0.00214026 -3.04055e-22)
(1.01989 -0.000147415 -1.02254e-21)
(0.890424 0.0621495 5.82646e-22)
(1.01733 -0.00677461 0)
(0.220233 0.144712 -1.45728e-21)
(1.03134 -0.00551048 0)
(0.453614 0.00353098 0)
(1.01583 -0.00874215 0)
(0.409999 -0.0117548 0)
(1.01178 0.000331662 1.54297e-22)
(0.889831 0.0770485 0)
(0.532546 -0.00634937 2.59954e-21)
(1.04084 0.0139208 4.23178e-22)
(1.01951 0.0140145 3.47847e-22)
(1.03476 -0.0206256 0)
(1.00688 0.00026244 6.2496e-25)
(1.06424 -0.068921 7.40447e-21)
(1.04252 0.013705 2.68932e-22)
(1.00844 -0.00131941 2.87804e-23)
(1.01163 0.000315055 -3.26934e-23)
(0.455986 -0.0415178 3.66846e-23)
(0.20503 -0.0808034 0)
(0.451065 -0.0402961 -1.64798e-24)
(0.47715 -0.00784757 0)
(0.727503 0.107554 6.00628e-22)
(0.338711 -0.0202679 0)
(0.322774 -0.0192965 -1.2275e-20)
(0.592198 -0.00982993 0)
(1.03596 -0.00688634 0)
(0.396714 -0.0566453 -1.56851e-21)
(1.00731 9.64892e-05 -2.02282e-22)
(-0.0183061 -0.00651964 -2.85502e-20)
(1.03122 -0.00571017 0)
(0.926618 0.123699 1.18295e-21)
(1.07688 -0.0575406 -4.90353e-21)
(0.004764 0.0819122 -1.00189e-20)
(1.01911 0.00123148 0)
(1.00599 0.000127941 5.74216e-24)
(0.725767 -0.0390356 -6.38346e-21)
(-0.0125495 -0.0647022 3.11437e-21)
(0.395591 0.0487048 -3.59276e-22)
(1.00446 -0.00709881 -3.56774e-23)
(1.01597 -0.0082094 4.85671e-23)
(0.20123 -0.00103466 0)
(1.02151 -0.000675548 -1.81719e-21)
(0.75476 -0.0745154 0)
(1.0418 -0.0213144 -6.55055e-23)
(0.146191 -0.00432922 9.95116e-21)
(1.01353 -0.000599816 7.29552e-23)
(1.01136 0.000324293 -8.22073e-23)
(1.01537 0.000695241 -2.05279e-23)
(1.05385 -0.0769021 1.18095e-20)
(1.08323 -0.0617804 0)
(0.449552 -0.0171574 -1.60409e-21)
(1.01525 -0.00817012 0)
(1.00894 0.000347732 1.9431e-22)
(0.405979 -0.0172432 0)
(1.04433 -0.0170521 1.87357e-23)
(0.00348958 0.0734521 0)
(0.483226 -0.0368168 -1.00113e-20)
(0.272343 -0.00248665 0)
(1.00897 -6.88122e-05 5.92742e-23)
(0.400857 -0.00586895 3.91121e-21)
(0.584146 -0.00699458 1.84417e-21)
(1.01325 0.000704498 8.17089e-24)
(0.342026 0.00508267 -5.47683e-21)
(0.866424 -0.0668666 -5.31334e-21)
(1.01548 0.000593018 2.40724e-23)
(1.07072 -0.0571002 -1.47453e-20)
(1.05701 -0.063218 -1.24755e-20)
(0.312553 -0.0176407 8.19884e-21)
(1.00918 -0.00105094 -1.61318e-22)
(1.03522 -0.00712472 -5.05943e-21)
(1.03442 -0.0203067 -6.13203e-23)
(1.01482 -0.00671305 -1.68552e-22)
(0.291567 0.00466596 0)
(1.06775 -0.0388199 0)
(0.777698 -0.0448669 0)
(1.00689 -0.0147646 0)
(1.01513 -0.00790805 -1.01778e-22)
(-0.00460149 0.0241544 8.88e-21)
(1.02259 -0.00931879 0)
(1.01073 0.000272824 0)
(0.937133 0.118521 3.4975e-22)
(1.03746 -0.11464 7.88084e-22)
(1.03723 -0.0331623 -1.89794e-21)
(1.02894 -0.000255627 0)
(1.00666 0.000222003 -4.37668e-24)
(1.01138 0.00033198 -2.9733e-22)
(1.00163 6.36399e-07 0)
(0.0854616 0.0714127 -5.14992e-21)
(0.242953 -0.00322656 8.15935e-21)
(1.0067 0.000218388 0)
(1.01215 -0.000410967 0)
(1.0092 -0.00126248 0)
(1.04861 -0.00672246 2.7189e-22)
(0.415265 -0.0190866 -1.56942e-21)
(1.03575 -0.00215435 0)
(1.06873 -0.0232152 0)
(1.01479 -0.00653189 1.58253e-22)
(1.06969 -0.0233867 0)
(0.00921861 0.160453 0)
(1.01814 -0.000505289 -1.71262e-21)
(1.01889 -0.00997901 0)
(0.90693 -0.0669821 2.25643e-21)
(1.02883 -0.00192621 -4.89205e-22)
(0.251637 0.00507896 6.86611e-21)
(0.372614 -0.00155064 3.21896e-22)
(-0.096382 0.0405008 -1.06866e-20)
(1.07608 -0.0521089 9.41632e-21)
(1.01771 -0.0120334 0)
(1.05024 -0.0187742 0)
(0.379236 0.00344724 1.9095e-20)
(0.877855 0.0875151 -2.54514e-22)
(1.08102 -0.0391347 -1.46432e-20)
(1.04905 -0.0171607 0)
(0.41928 -0.0132093 1.89225e-21)
(0.428422 0.0336811 2.10952e-21)
(1.01101 -0.000372153 -2.49127e-22)
(1.01977 -5.79145e-05 0)
(1.01206 0.000338649 -1.31264e-23)
(-0.0161531 -0.0235791 -3.11703e-20)
(1.00733 0.000115546 -8.94351e-23)
(1.07726 -0.0474559 9.23045e-21)
(0.598933 -0.0205433 0)
(1.01998 -0.0113949 -5.5927e-22)
(1.07776 -0.0479051 -1.12493e-20)
(1.01187 0.000312101 -3.48121e-22)
(0.932063 -0.185439 4.94884e-22)
(1.08572 -0.041527 -2.79992e-21)
(1.017 -0.00264783 0)
(0.796364 0.0597867 1.04494e-21)
(1.01894 -0.00986411 0)
(1.03157 -0.000426539 0)
(0.844763 0.0435489 -1.35285e-21)
(1.02091 -0.0142689 0)
(1.07711 -0.0579866 -5.2632e-21)
(0.78234 -0.0736066 1.68356e-22)
(1.03558 -0.00248191 -4.34663e-23)
(1.05769 -0.0562999 0)
(1.02903 -3.12005e-05 3.24267e-21)
(1.0073 -0.0136683 -6.18896e-22)
(0.225836 0.131646 0)
(1.03355 -0.00229998 0)
(1.01215 0.000307942 -6.63497e-23)
(1.04552 0.0115836 4.08679e-22)
(0.996916 -0.0145349 1.17503e-21)
(1.07064 -0.0386079 0)
(0.78602 -0.0468956 0)
(1.05246 -0.0107382 0)
(-0.0799354 0.0495762 -9.33555e-21)
(1.01693 -0.00254156 0)
(1.0816 -0.0588277 0)
(0.634311 -0.026884 3.1168e-21)
(0.99865 -0.0193985 0)
(1.00907 -0.000217819 -2.16773e-22)
(1.0803 -0.0393385 1.53843e-20)
(1.01547 -0.00250262 -5.35912e-22)
(1.01381 -0.00309429 0)
(1.00521 -0.0089678 3.14124e-23)
(1.02116 -0.0104556 1.56241e-21)
(0.965672 -0.0688713 2.85834e-21)
(0.893 0.0984323 -1.37923e-21)
(0.865129 -0.0706684 0)
(-0.115062 0.124749 1.17109e-20)
(0.51299 0.0360531 -2.85741e-21)
(1.0137 -0.00238503 3.67192e-22)
(1.01687 -0.00910337 -7.62294e-23)
(1.01367 -0.0024066 -1.05918e-22)
(1.01529 -0.000380185 0)
(1.04448 -0.0173088 -4.92607e-22)
(1.02086 -0.0121957 5.54189e-22)
(0.797499 0.0814262 -2.56251e-21)
(1.01048 -0.000909251 1.13343e-22)
(1.01672 -0.00196192 -1.1254e-21)
(1.03504 -0.0240875 -2.60017e-22)
(0.303278 0.00534817 0)
(1.00937 -0.0132166 6.97218e-22)
(0.424609 -0.00898207 -4.824e-21)
(1.01982 -0.0111455 0)
(1.02889 -0.0013173 -4.02436e-21)
(0.392236 0.0398173 5.95307e-22)
(1.03575 -0.0206981 -2.35435e-21)
(0.203273 0.128047 0)
(1.06639 -0.0390724 7.2531e-21)
(1.04897 -0.0324232 1.72348e-21)
(1.02671 -0.000937136 0)
(0.89307 0.109575 1.80959e-21)
(1.03036 -0.0306828 -6.82174e-22)
(0.680035 -0.0266867 -4.25889e-21)
(1.01761 -0.0156818 0)
(1.01904 -0.0103686 0)
(1.00913 -0.000209742 3.1867e-22)
(1.05931 -0.0577107 4.51824e-21)
(1.04536 -0.0183615 -2.16907e-21)
(1.02141 -0.0105213 -4.80762e-23)
(0.934225 -0.193013 -2.02326e-21)
(1.01281 -0.00195341 -1.44948e-21)
(1.0206 -0.00975238 -1.34946e-22)
(0.730552 0.0929007 -3.46252e-22)
(0.821409 0.122507 0)
(1.00548 -0.0136546 2.22281e-22)
(1.01319 -0.00318669 0)
(1.01854 -0.0497952 -5.48932e-23)
(1.03106 -0.0306252 0)
(-0.0140542 -0.00937664 6.3962e-21)
(1.02686 -0.00214601 -2.30493e-24)
(0.412244 -0.0104219 7.14872e-21)
(0.609876 -0.0566702 0)
(1.02138 -0.00982367 8.34999e-22)
(1.01011 -0.00241539 0)
(1.01036 0.000133113 0)
(0.400003 -0.00978077 -4.06961e-21)
(0.995135 0.0743605 -1.78173e-21)
(0.94619 0.11087 -4.05475e-21)
(1.00729 0.000314796 -3.42158e-24)
(0.294362 -0.0023629 2.68831e-21)
(1.02895 -0.00109612 -3.4062e-22)
(1.04203 -0.0231342 0)
(0.385019 0.122447 0)
(1.0184 -0.0102094 1.45282e-22)
(0.488777 0.104851 0)
(0.945477 0.103141 2.99583e-21)
(0.00610157 0.0773206 1.44258e-20)
(1.01271 -0.0018893 2.09653e-21)
(1.02069 -0.0119232 1.07565e-21)
(1.08278 -0.0625206 -5.28574e-23)
(0.979741 -0.0536731 -1.88446e-22)
(0.529002 -0.00377486 -9.86988e-21)
(0.500713 -0.0387333 -1.29128e-21)
(1.00166 1.95571e-05 6.06412e-23)
(0.586848 -0.0328549 -5.94917e-22)
(0.993714 0.08027 1.59985e-22)
(1.02826 -0.0124161 0)
(1.01109 -0.000534697 0)
(0.645784 -0.0582744 0)
(0.0615547 0.163103 -1.03234e-20)
(0.52153 -0.0386354 -5.3439e-21)
(-0.0625464 0.131706 -3.03518e-20)
(1.007 -0.00059023 5.85329e-24)
(1.03634 -0.0250627 0)
(1.05981 -0.0243192 -6.75189e-22)
(1.01336 -0.0001803 1.66964e-22)
(1.02871 -0.0203878 -1.42745e-21)
(1.02523 -0.0210716 9.97115e-22)
(1.03585 -0.00157531 0)
(-0.000852045 0.0746732 0)
(0.938716 0.00907129 -7.27956e-22)
(0.883916 0.0812054 1.00014e-21)
(0.963507 0.0987093 -4.82755e-22)
(1.03122 -0.0220315 0)
(1.07785 -0.0405714 4.22387e-21)
(1.05376 -0.0575008 3.19649e-21)
(1.00678 -0.0003876 0)
(0.108601 0.164034 -7.27441e-21)
(1.01132 -0.00330535 -3.21759e-22)
(0.916733 0.0333593 2.93839e-22)
(1.01246 -0.121509 0)
(1.01416 -0.0466771 -1.31228e-22)
(0.930659 -0.107223 5.68293e-21)
(1.0192 -0.0156617 9.36479e-23)
(1.02036 -0.00648217 -1.91879e-21)
(1.03195 -0.000966843 3.18425e-21)
(1.03037 -0.0214841 0)
(1.0134 -0.000806339 0)
(0.49632 0.0366762 3.88884e-21)
(1.06726 -0.0392916 -5.3384e-21)
(1.07057 -0.0465695 0)
(1.01154 -0.000420467 1.60421e-22)
(0.513623 -0.0166066 -1.75189e-21)
(0.893579 -0.157108 -4.46819e-23)
(1.02743 -0.000757056 2.2661e-21)
(1.00679 -0.000410219 6.75751e-23)
(0.425687 -0.00844395 -4.18431e-21)
(1.01716 -0.000495841 -2.89542e-21)
(1.00165 4.96635e-06 0)
(1.04885 -0.018915 -1.4813e-21)
(-0.0302906 0.0559494 3.07084e-21)
(1.02017 -0.00634887 -9.49601e-22)
(0.741694 0.0901206 1.06131e-22)
(1.00692 -0.000545479 4.12505e-25)
(1.07986 -0.0599016 0)
(0.02343 0.161533 0)
(1.01201 -0.0224405 0)
(1.00862 -0.00140879 -6.49207e-23)
(1.03533 -0.0208333 0)
(1.01356 -0.000237398 -1.37463e-22)
(1.01769 -0.0113376 0)
(-0.0346999 -0.00487447 9.74202e-22)
(1.05761 -0.0243881 0)
(0.712521 -0.045697 4.32932e-21)
(1.01403 -0.00123592 0)
(0.535606 0.0208025 2.97701e-21)
(1.01145 -0.00340304 6.50214e-22)
(1.07717 -0.057676 1.59312e-20)
(0.151031 -0.00189139 1.29941e-20)
(1.07834 -0.0595136 -7.84425e-22)
(0.490745 0.102411 -1.30405e-22)
(0.903702 -0.0627563 -2.36003e-21)
(1.00131 -0.0162206 1.09061e-21)
(1.01567 -0.000388872 8.89497e-23)
(1.01253 -0.00061818 1.20883e-22)
(0.651908 -0.0429101 -1.5764e-21)
(0.186693 -0.00131992 0)
(1.06864 -0.0391786 -4.98521e-21)
(0.853518 0.102502 2.43546e-22)
(1.01705 -0.00232536 1.22211e-21)
(0.478988 -0.00270313 0)
(1.03324 -0.00124969 1.20535e-21)
(1.01351 0.000712198 -7.72412e-24)
(1.02697 -0.0307894 6.76863e-22)
(0.226538 -0.15702 -3.9002e-21)
(1.00591 0.000117904 -2.92186e-23)
(1.02733 -0.0388815 1.2604e-21)
(1.03356 -0.0630348 4.25058e-21)
(0.614127 -0.0212305 -3.48325e-21)
(0.49683 0.0146641 2.16233e-21)
(0.385658 -0.0255385 0)
(1.01364 -0.00533173 0)
(1.02776 -0.0609707 -7.19787e-23)
(0.49249 -0.0369622 2.36711e-21)
(1.00151 -2.45338e-05 -1.79971e-23)
(1.02451 -0.0187432 0)
(0.567488 -0.0425017 -2.76248e-21)
(0.932896 -0.138916 -2.7864e-21)
(1.06302 -0.0419509 4.80635e-21)
(0.806294 -0.0470885 7.28511e-21)
(1.04209 -0.0239664 0)
(1.01527 -0.00159807 0)
(1.02583 -0.0222673 0)
(0.728319 0.115868 -2.627e-21)
(1.03676 -0.0210986 4.8726e-21)
(1.01601 -0.000797337 2.6166e-21)
(1.01088 -0.00113234 5.72552e-23)
(1.02135 -0.000567754 0)
(1.06319 -0.0575994 1.64781e-20)
(0.165214 -0.00179102 0)
(1.01371 -0.00539241 0)
(1.01024 -0.00250781 -1.80832e-22)
(1.0221 -0.0160868 -1.04889e-22)
(0.400176 -0.0291436 1.95545e-22)
(1.04602 -0.00820363 3.74363e-21)
(1.0156 -0.00918712 -3.59778e-22)
(0.336173 -0.00191393 1.19258e-20)
(1.01271 -0.00397058 -5.3301e-23)
(1.0679 -0.0466406 -2.96368e-21)
(1.03021 -0.00662414 0)
(1.00766 -0.000930558 0)
(1.03442 -0.0133524 -1.18375e-21)
(0.435162 -0.0287039 -6.746e-21)
(1.07426 -0.0625496 -2.91418e-21)
(1.00964 -0.0501186 0)
(1.01069 -0.00112148 -2.33069e-22)
(1.01885 -0.00472335 3.09489e-22)
(1.06131 -0.0569927 -4.13606e-21)
(0.44543 -0.00328402 -4.70353e-21)
(1.02209 0.00017804 0)
(1.01363 -0.00531211 -1.37043e-23)
(0.952226 0.10548 1.20053e-23)
(1.01977 -0.00957309 1.74385e-21)
(1.0103 0.000149889 0)
(1.07639 -0.0651652 -8.83573e-22)
(1.00838 -0.00128696 -2.58939e-23)
(1.00626 0.000158636 -1.36076e-23)
(1.08629 -0.060123 -4.64788e-21)
(1.0082 -0.00121795 4.67083e-23)
(1.06592 -0.0394838 0)
(1.00664 0.000209349 6.91159e-23)
(1.01329 -0.000457495 1.56025e-22)
(1.08471 -0.0394869 0)
(1.08793 -0.048255 -1.17866e-20)
(1.01374 -0.00541534 1.68418e-22)
(1.061 -0.0560769 -1.33739e-21)
(1.00656 0.000196546 -3.80472e-23)
(0.360118 -0.0132921 -9.32766e-21)
(0.995658 -0.0278637 0)
(1.00694 -0.000517929 0)
(0.490006 -0.0160104 -1.23917e-20)
(1.01366 -0.00147298 1.7927e-22)
(1.01709 -0.00246083 0)
(0.443797 -0.0110382 -3.79013e-21)
(0.375297 -0.0238734 -4.3335e-21)
(0.553369 -0.133665 8.09305e-21)
(1.0298 -0.0306284 0)
(1.00811 -0.000712832 6.44427e-23)
(1.04466 -0.0065896 0)
(1.01096 0.000649129 0)
(1.07553 -0.0657039 5.1814e-21)
(0.85196 -0.0221385 -7.30345e-22)
(0.00758933 -0.0753123 0)
(1.0637 -0.0397127 4.38818e-21)
(0.00287148 0.0740588 -4.15414e-21)
(1.01241 -0.000411422 1.50466e-22)
(0.525227 -0.0423015 0)
(1.04659 -0.018161 0)
(1.02329 -0.00280485 8.21878e-25)
(1.07503 -0.0636943 0)
(1.02603 -0.00736115 0)
(1.00561 -0.0471459 0)
(1.01513 -0.00415236 4.21637e-22)
(1.05691 -0.0310718 0)
(1.00865 0.000350867 1.34539e-24)
(1.00703 -0.000601101 -3.10827e-23)
(1.01955 0.01618 2.29139e-22)
(1.03755 0.000729264 0)
(1.06862 -0.0468656 0)
(0.0288655 0.0473948 -1.9636e-20)
(1.02854 -0.0207471 1.48054e-21)
(0.332117 -0.0203215 0)
(0.435949 -0.0104186 -1.87776e-21)
(0.266006 0.00629381 7.29862e-24)
(1.03213 0.0319685 5.26232e-22)
(0.943361 -0.0743724 9.45461e-22)
(1.01529 -0.00180668 3.39355e-23)
(1.01427 0.00488027 -1.75492e-22)
(1.00752 -0.000856372 1.86911e-25)
(0.953707 -0.0769156 -1.60912e-21)
(1.01311 -0.000245812 0)
(0.996133 -0.0260763 0)
(0.547484 -0.00246161 3.42464e-21)
(-0.0112825 0.0555651 -9.08052e-21)
(1.01601 -0.00591996 8.95529e-22)
(0.60786 -0.023325 1.64093e-21)
(1.02248 -0.0325042 8.4623e-23)
(1.01181 -0.00316396 -3.49554e-22)
(1.01702 -0.00050472 -1.94477e-23)
(1.00244 -0.00439674 -6.43719e-22)
(1.00689 -0.000426966 7.21412e-23)
(1.031 -0.0143269 4.61063e-23)
(1.00516 9.97686e-05 0)
(1.01844 -0.011734 -1.50494e-23)
(0.239129 -0.150088 -1.92543e-22)
(1.02979 -0.00653281 1.92741e-21)
(1.01788 -0.0109622 0)
(1.01681 -0.00625598 1.70912e-23)
(1.0096 -0.0077748 0)
(1.00955 -8.08632e-05 -1.35194e-22)
(1.06148 -0.0545534 5.54432e-21)
(1.00212 -7.14596e-05 -3.74193e-22)
(1.00822 -0.000871081 -1.61805e-22)
(1.04263 -0.0230283 4.50481e-21)
(1.06555 -0.0587847 0)
(1.01011 0.000147403 0)
(1.00623 0.000150811 -7.29118e-23)
(1.03057 -0.00644216 -4.14221e-21)
(1.02483 -0.0921634 0)
(1.00689 -0.000535474 -3.75821e-24)
(0.882121 -0.0650909 3.23909e-21)
(1.00616 -0.00772238 0)
(1.05214 -0.075579 -8.76254e-21)
(1.01027 -0.0075923 -6.46351e-22)
(1.03659 -0.0362621 -9.00815e-23)
(1.00824 -0.000740334 -2.25605e-22)
(1.01573 -0.000214865 1.37573e-22)
(1.00688 -0.000400787 0)
(1.02595 -0.0129101 0)
(1.00735 9.6938e-05 -9.90434e-23)
(1.01727 0.0148349 -5.42654e-22)
(1.0306 -0.00623389 7.03177e-21)
(1.01977 -0.0119412 8.46801e-22)
(1.01249 -0.000679169 3.70436e-23)
(0.94409 0.0659162 -2.92018e-22)
(1.07829 -0.0646015 0)
(1.01293 -0.00424454 3.18531e-23)
(1.01498 -0.00716718 0)
(1.01055 0.000132978 1.11448e-22)
(0.758125 -0.0868332 -1.40756e-21)
(1.05736 -0.0234738 0)
(-0.127041 0.13345 5.30026e-21)
(1.02729 -0.0037167 -2.20452e-23)
(0.553641 -0.026471 0)
(1.00459 -0.000404118 0)
(1.01295 -0.00463577 0)
(1.03561 -0.00597879 0)
(1.00574 -0.000257013 0)
(-0.0127126 0.0513704 1.92633e-21)
(1.03634 -0.00655861 3.75889e-21)
(1.02108 -0.0164142 -1.27668e-22)
(1.0048 -0.00226932 -3.15799e-22)
(1.02445 0.00720907 -2.77273e-22)
(0.301047 -0.0676056 -8.19154e-22)
(1.01583 -0.00236044 1.62156e-22)
(1.02941 -0.0141797 -2.96321e-22)
(1.06916 -0.0386624 -6.42817e-23)
(1.01579 -0.000392309 -2.34514e-21)
(0.518314 0.00130875 8.73906e-21)
(1.05653 -0.0232879 0)
(0.105762 0.0633456 1.04606e-20)
(0.723386 -0.00656082 0)
(1.0008 2.12592e-05 0)
(1.00659 0.00021738 0)
(1.00606 0.000133932 1.49117e-23)
(-0.0770889 0.0440376 1.19958e-20)
(1.01637 -0.00613902 0)
(0.727396 0.0783611 2.95037e-21)
(0.380734 -0.0171358 0)
(1.03592 -0.0855157 0)
(1.00701 -0.00715685 -1.0154e-21)
(1.01509 -0.00493798 0)
(1.00695 -0.000568848 0)
(1.02212 -0.00027739 0)
(0.335375 -0.0220344 -3.98792e-21)
(0.730835 0.110043 0)
(0.410674 -0.00960705 3.62228e-21)
(1.01587 -0.00908479 1.9586e-22)
(1.0393 -0.0190836 0)
(1.01492 -0.00699073 2.0897e-23)
(0.985472 -0.0618546 0)
(1.03957 -0.0188589 0)
(1.00823 -0.00117835 0)
(0.356442 0.0040805 0)
(1.0749 -0.030383 -6.11134e-21)
(1.03974 -0.0247924 0)
(1.00532 -0.000243285 -3.77796e-23)
(1.01572 -0.00127443 -8.43511e-22)
(1.01492 -0.00675344 0)
(1.01282 -0.0042169 -9.19441e-23)
(1.032 -0.000600421 1.17141e-21)
(0.591657 0.0456383 -4.65712e-21)
(1.03374 -0.019973 -1.94125e-21)
(1.00467 -0.0571836 0)
(1.02351 -0.0917723 -3.61224e-23)
(0.454294 -0.0132024 0)
(1.02275 -0.0561351 0)
(1.02468 -0.0306937 -8.74169e-23)
(1.06818 -0.0239449 0)
(1.06245 -0.0254128 -3.83967e-21)
(0.429179 -0.0101259 0)
(-0.097459 0.120604 2.43698e-21)
(0.387425 -0.00386329 -9.21024e-21)
(1.08764 -0.0610056 -8.39143e-21)
(1.00918 -0.0011685 6.05175e-23)
(0.890042 -0.189449 1.5216e-21)
(1.02443 -0.00526298 1.59836e-21)
(1.01141 -0.000758459 0)
(1.00994 -0.00225008 -4.2869e-22)
(0.358891 -0.0399139 -2.63749e-21)
(0.87445 -0.114092 -1.11086e-21)
(0.900191 0.0210731 3.55831e-21)
(0.0374086 0.110676 0)
(1.01986 -0.0134781 7.68945e-22)
(0.970326 -0.0987666 0)
(0.910433 0.0152922 -1.98478e-21)
(0.325299 -0.00418507 -4.11856e-21)
(1.0484 -0.0870423 5.77428e-21)
(1.02788 -0.0356764 1.561e-21)
(0.804511 0.131174 -5.02803e-22)
(1.01161 -0.000430488 -4.01236e-25)
(0.56401 -0.0330398 -1.12557e-20)
(0.965094 -0.109164 0)
(-0.0105667 -0.0219986 1.08469e-20)
(1.0302 -0.0184534 1.69893e-21)
(1.01844 0.0101768 9.96953e-23)
(1.01673 -0.00182808 1.54065e-22)
(0.899052 0.146047 1.94131e-21)
(1.00802 0.000386388 0)
(1.01138 -0.000617173 2.68841e-22)
(1.03606 -0.00282655 3.64973e-21)
(1.02246 -0.0108251 0)
(1.01143 -0.000586415 -2.40794e-22)
(1.04493 -0.00763319 -2.03873e-21)
(1.02117 -0.000616577 2.37304e-21)
(1.03513 -0.00602488 0)
(1.02042 -0.00988271 0)
(1.01814 -0.00810839 -1.43626e-22)
(0.891724 0.152311 -4.88532e-21)
(1.01678 -0.00148205 -1.49983e-22)
(1.00864 -0.00145018 -1.20431e-23)
(-0.0831008 0.0224614 1.14172e-20)
(1.06918 -0.0323978 2.14825e-20)
(1.00935 -0.00130371 0)
(1.04398 -0.00666482 0)
(1.01191 -0.00318557 1.22805e-22)
(1.03547 -0.0673327 -6.70519e-23)
(0.417358 0.0025511 0)
(1.04321 -0.00525404 -4.21557e-21)
(1.03631 -0.021226 0)
(1.02983 -0.0280621 0)
(1.02192 -0.000310731 -1.08872e-21)
(1.06209 -0.0289167 3.30796e-21)
(1.0461 -0.091083 -2.40216e-21)
(1.05111 -0.010258 -5.54666e-21)
(1.07836 -0.068193 -3.91177e-21)
(1.02283 -0.00355057 2.67677e-22)
(-0.0259746 0.056778 3.1992e-21)
(0.43929 -0.0118276 6.64859e-21)
(1.01903 -0.00882669 -1.2386e-21)
(1.00434 7.18257e-05 4.31801e-23)
(1.0146 -0.00162121 0)
(0.498029 0.00254035 0)
(0.485256 -0.00964669 0)
(1.00857 -0.00141245 0)
(1.02072 0.000726688 6.20723e-23)
(0.00378213 0.0651091 4.53719e-21)
(1.00932 -0.000255825 -2.38597e-22)
(0.82949 -0.0539429 0)
(1.04139 -0.032164 4.77253e-21)
(0.783334 -0.00367163 -3.45729e-21)
(1.0785 -0.0409703 0)
(1.00938 -0.000246328 2.9594e-22)
(0.837933 -0.0541396 0)
(1.00795 -0.00102828 -1.93607e-24)
(0.497584 -0.0117686 -1.16499e-21)
(1.04159 -0.100719 5.43838e-22)
(1.04943 -0.0574587 0)
(1.02254 -0.00239517 -1.24517e-22)
(1.01089 -0.000100644 1.5888e-21)
(1.04945 -0.0625798 7.53536e-21)