/*--------------------------------*- C++ -*----------------------------------*\
| =========                 |                                                 |
| \\      /  F ield         | OpenFOAM: The Open Source CFD Toolbox           |
|  \\    /   O peration     | Version:  v2012                                 |
|   \\  /    A nd           | Website:  www.openfoam.com                      |
|    \\/     M anipulation  |                                                 |
\*---------------------------------------------------------------------------*/
FoamFile
{
    version     2.0;
    format      ascii;
    class       volScalarField;
    location    "100";
    object      ddt0(omega);
}
// * * * * * * * * * * * * * * * * * * * * * * * * * * * * * * * * * * * * * //

dimensions      [0 0 -2 0 0 0 0];


internalField   nonuniform List<scalar> 
37809
(
-3.29125e-06
0.000996786
8.25025e-06
-1.34298
-2.64218e-06
-5.48966e-06
-4.87711e-06
-0.0168519
6.42495e-07
-8.36384e-05
0.000180025
3.92719e-05
1.85535e-06
-2.01923e-05
1.81575e-06
-8.95992e-06
-1.19387e-06
-0.000611812
3.51261e-05
-1.52171e-06
-9.29245e-06
-0.0330019
0.122053
0.000385623
-0.0408747
1.20982e-06
7.45939e-06
-0.0218935
-9.18823e-05
-7.13641e-07
-1.05354e-05
0.0205614
-7.30037e-07
0.000550235
2.13041e-05
-6.40922e-07
0.00229385
-0.0836375
-0.310861
-4.22955e-06
5.92831e-06
0.174641
-6.69506e-06
-6.23133e-05
3.51311e-07
3.96488e-05
-1.02151e-05
-2.27291e-05
-7.72737e-06
-0.0028164
0.0268238
0.59647
0.00320582
0.00411128
1.24059e-05
-2.91549e-06
0.00326006
-8.75025e-06
0.00464915
-0.0572694
4.24016e-05
-6.95367e-05
-0.954336
-6.39046e-05
-2.90357e-05
1.45199e-06
0.00105326
-0.0354351
0.000158984
0.00356702
-3.17836e-06
-9.71706e-07
0.350906
0.00107175
-9.82021e-06
-0.00572803
-0.00265755
1.94662e-07
-7.49699e-06
4.63654e-08
-0.000110516
-0.0569256
-3.17908e-06
0.00351964
-0.288681
-0.0161302
6.09361e-06
0.00297575
0.000161507
0.0023241
2.84564e-07
-0.0191097
-6.38956e-06
-1.00674e-05
-6.46536e-05
3.2707e-06
0.0287087
2.90462e-06
1.63963e-06
-0.0465318
2.01087e-06
0.00337297
-3.19009e-06
-1.13755e-06
-0.6422
1.30698e-06
-0.0183615
-1.17093e-06
0.0242098
-0.11464
-2.42559e-08
0.00118586
-0.0584393
-4.16223e-06
-0.0720861
-0.0972325
2.26174e-06
-7.89869e-07
0.555106
-1.11529e-06
-1.0254
-0.00168472
-0.0729003
4.58389e-07
2.20391e-06
-0.0292619
7.13602e-07
-3.10856e-06
-1.53315e-07
1.71232e-06
1.84673e-06
2.0959e-06
1.85152e-06
1.77071e-06
6.22001e-07
-2.25478e-06
-4.80079e-05
-0.0335544
-0.0586828
5.42081e-06
4.91905e-05
0.00183691
-3.56224e-05
-4.07172e-06
2.19228e-06
-9.96616e-07
4.52732e-05
-1.63195e-05
6.55048e-07
5.35944e-07
-0.0259177
-4.18679e-06
-2.7346e-07
0.00211277
3.28563e-07
1.45304e-05
4.70943e-07
-1.00411
2.03455e-06
-2.15574e-06
-8.25679e-07
0.223511
0.00536909
-7.44092e-06
1.15791e-06
-0.000643762
-6.98409e-07
-1.89822
-3.12878e-06
0.11909
-5.35315e-06
-0.00335107
8.01631e-07
-1.65493e-06
-2.31284e-05
3.19033e-06
-1.40348e-07
-2.85619e-07
0.0010573
-2.21023e-06
-6.71707e-06
0.397754
-1.48756e-06
-6.27778e-06
2.23929e-06
2.72695e-06
-0.0718353
1.05086e-06
-0.0513636
-4.27242e-05
0.121923
0.00261539
-1.89045e-06
-0.00745479
-6.71915e-06
-3.77646e-06
-3.94825e-06
0.0026197
8.72854e-06
0.0572802
0.144968
-0.000113059
2.84943e-06
-6.4341e-05
5.26779e-05
1.77554e-06
-1.61543e-06
-0.0513895
-1.99204e-06
0.166003
-0.157296
-0.0107012
0.358687
-0.00298549
-1.1898e-06
2.00955e-06
0.172709
0.00215362
-3.42997e-06
0.096239
0.0017723
2.47143e-06
5.07789e-05
2.63349e-06
-2.38015e-06
0.00202959
-1.73928e-06
0.001505
2.64356e-07
-0.00412089
-5.67207e-06
2.34409e-06
-5.01776e-06
2.85585e-06
-3.87602e-05
-0.00239773
-0.0695233
2.96094e-06
-8.34405e-07
4.28823e-06
0.00260708
-6.4154e-06
-0.382494
0.0350059
-0.000204081
3.27446e-06
0.00169564
0.00652083
0.0617573
-0.000180872
2.28037e-06
-1.51965e-06
-6.82132e-05
0.30516
9.2763e-07
2.3752e-06
-0.00050855
-4.26181e-07
7.15329e-05
1.23128e-05
-9.26651e-06
-6.43007e-07
7.74876e-05
-6.11173e-06
-0.158586
-2.27407e-06
-0.0292161
-0.00913743
1.03809e-07
-4.18914e-06
-3.38725e-07
5.5492e-06
-1.03732e-05
0.000959746
5.98314e-06
-0.0964471
-2.12129e-05
-8.27484e-06
-5.37939e-06
-0.0382765
-0.0082384
6.8476e-07
3.04418e-05
0.0520783
-0.00771811
-2.01762e-07
-0.0646544
-5.77253e-05
-1.53085e-06
0.0920734
-3.6081e-06
3.94799e-06
-0.00563892
-0.0385492
-8.9023e-05
-1.39768e-06
-0.404186
1.92084e-06
1.66543e-06
0.00237564
-0.109857
-1.30603e-06
-7.79289e-06
-9.02284e-05
-7.80989e-06
-4.86161e-05
1.98016e-06
-1.33906e-06
-1.62035e-06
0.00259767
-0.000143148
-2.48999e-06
-3.34643e-06
-0.00372323
0.00221756
-5.89703e-07
0.00914282
1.3444e-06
-0.450726
-0.00586776
-0.000181219
0.00181756
-0.0350506
-0.00693251
-0.0171593
-3.2334e-06
0.000128208
0.0291865
-1.87333e-06
-1.5579e-05
0.000227572
0.000212154
0.011888
-2.92998e-06
3.84845e-07
4.84918e-07
-2.7233e-06
0.00100191
-0.0472269
5.6563e-07
-0.0558306
-4.9748e-07
-0.0613145
0.000723943
4.14844e-07
-3.8578e-06
0.0649234
0.261963
0.000128218
-8.40718e-06
6.37537e-05
5.82672e-06
-8.45245e-06
-0.0460459
0.000189175
3.15527e-06
3.91651e-06
0.0623485
0.0163013
9.21036e-06
-3.26177e-06
-0.00707126
5.72624e-06
-2.84609e-06
-3.20812e-06
-0.000698598
-5.96576e-06
0.00302038
-0.000703724
4.15407e-06
-0.000301944
4.17102e-06
-7.16965e-06
4.75139e-07
-0.000573255
-8.56719e-06
-1.15421e-06
1.66122e-06
-0.00167591
-0.0667804
4.3866e-06
-5.79679e-06
0.0639042
0.00171107
0.00222671
-6.26942e-06
-1.87635e-06
1.54171
0.148283
-0.0159809
1.0929e-06
4.3075e-06
-0.00620483
0.000110514
-0.00809301
1.80093e-06
7.4633e-07
4.14386e-06
-0.05456
2.30814e-06
5.28299e-06
4.85397e-07
-1.41006e-05
0.00091188
2.55427e-05
-0.0169804
0.0125666
-8.57726e-07
5.96154e-05
1.88302
-8.18805e-06
4.22213e-05
-8.87533e-05
-0.00258435
-0.0361558
1.33645e-06
2.18468e-06
-3.80222e-05
-0.00041423
0.0119121
-2.8879e-06
-7.1616e-06
-5.68577e-06
-0.0109697
0.0469611
-0.000159809
3.14772e-06
-2.28824e-06
-1.9676e-06
-2.87416e-06
-2.67603e-06
-0.0182069
0.00289676
0.00129555
2.22632e-06
-0.000119037
-0.000271759
-0.0277741
3.74508e-05
-0.241092
3.94753e-05
-0.000295491
-3.58824e-06
1.04882e-06
2.44581e-06
-1.82145e-06
-2.15957e-06
1.22132e-06
-1.96192e-06
-3.29847e-05
-9.85589e-07
1.19157e-05
1.55205
4.64401e-06
-1.36166e-06
9.42011e-07
-4.99212e-06
-4.56286e-05
2.98772e-07
8.4478e-06
0.00169955
-2.74499e-07
0.00461614
-1.87719e-06
6.20883e-06
-0.0799013
-1.13955e-06
-7.19286e-06
-0.000706437
0.00112913
0.00299942
-1.96694e-06
0.0109818
0.000224755
-0.0557987
-9.76416e-07
-1.01612e-05
-0.0460068
0.101555
-3.70699e-06
9.40751e-06
0.0369691
-0.684973
1.51938e-07
-0.0218673
-5.74626e-06
-0.0353695
0.000130581
1.12613e-06
0.0023414
-3.30818e-06
9.07483e-07
-0.97066
0.0152236
-2.42169e-06
5.71392e-06
-1.93473e-06
1.11719e-06
0.075543
-1.52015
-9.59535e-07
0.383528
0.101308
-3.94764e-07
4.45556e-06
-7.85374e-07
8.68236e-05
-0.0552472
0.0324161
0.0166459
-7.39551e-06
-0.0504581
9.52747e-08
-4.63934e-06
-0.0167018
3.4569e-07
-0.000526117
-0.861704
0.135567
2.81462e-05
0.00217687
-7.15378e-07
0.00166069
-0.295327
0.00324099
-7.87097e-07
-0.583281
0.0016379
1.1847e-06
0.00269613
7.3197e-07
-0.000283241
6.36291e-06
0.000933215
-3.09461e-06
0.000134892
-0.0011671
-0.0540405
-6.30637e-07
7.5948e-07
-8.84093e-07
-0.000167374
-0.0464132
-0.614534
-0.0695419
-0.00247147
-8.43295e-05
-9.45963e-06
0.000793594
-0.000923986
-0.0736608
-0.00294754
-7.9235e-07
3.44709e-05
-0.00092476
0.000104403
0.00404346
-0.000145273
0.000740607
-1.78644
0.0263943
-5.39094e-07
1.31484e-06
0.0662736
3.95299e-06
-5.35689e-07
2.73389e-07
2.40197e-06
-1.29398e-05
-0.0571272
-0.0664074
-2.0146
-0.000642071
2.53445e-06
-3.62927e-06
0.000872593
-6.87632e-06
-6.07087e-06
0.000255868
-0.00425044
-2.76132e-07
2.19479e-06
-2.74456e-06
-4.27513e-06
0.0185725
-0.0623808
-4.16062e-06
6.44444e-05
0.0011953
0.0003405
-9.41304e-07
-3.73436e-06
0.000144496
5.22263e-08
0.430496
-0.0113497
-0.000162309
-3.21008e-06
2.58408e-06
-0.329273
-1.52544e-05
0.000193019
6.49297e-06
-2.56547e-06
-5.47272e-05
0.00314719
-6.17116e-05
-9.87977e-06
-5.7903e-07
0.00138793
-0.000325247
0.00019133
-8.61206e-06
0.00337004
-3.82782e-05
-1.84021
-0.00110553
2.04811
-2.41871e-06
-0.040445
0.0144282
0.33857
-0.000720426
0.000706435
-0.0189944
2.55472e-07
-1.88224e-05
0.0026493
0.000587677
-4.38675e-07
-0.00028256
0.0304911
-7.4491e-07
-6.69742e-06
-0.0710044
0.538622
8.11215e-05
0.000599712
-0.0888405
-1.84366e-06
-0.000109997
0.011328
5.53955e-06
-0.00685661
-6.59359e-07
-1.71393e-06
-2.31058e-07
-0.00121938
0.000133376
0.00119356
-0.002179
0.00074737
0.00247635
-2.61945e-06
-0.00339724
-0.000256126
2.02447e-05
-6.97141e-07
8.26784e-07
0.191758
-3.34679e-07
-0.00103474
3.14481e-07
-3.69336e-06
-6.88193e-07
-9.00135e-06
0.11728
4.35934e-08
8.77032e-07
-7.02887e-08
-3.77802e-05
0.336787
-0.00108069
0.00579548
-5.61814e-07
1.05026e-06
0.00336741
-7.90877e-07
-2.54361e-06
0.0160177
1.06431e-06
0.0824844
-0.00125835
-0.08987
0.000346347
-1.07939e-06
2.92483e-07
-1.80761e-06
2.04063e-05
-0.0212524
0.0359744
-7.44424e-06
3.88684e-05
-1.12336e-06
0.184287
-1.53959e-06
-1.87415e-07
-1.3586e-06
-0.0140344
-0.000176289
-8.78135e-06
0.000698314
-1.51086
0.000216778
3.91716e-06
0.013285
-2.58962e-06
-0.0116529
1.37698e-05
-4.4076e-07
7.83866e-07
2.02963
-1.06287e-06
-1.78112e-05
-5.10478e-07
0.638977
0.0213929
-2.00836
-7.02544e-06
-4.06823e-06
3.34513e-06
-1.7227e-06
1.41867e-06
-0.00165169
8.07609e-06
2.09933e-06
4.78987e-07
1.65227e-06
-2.50257
0.210513
0.00207697
0.0284703
0.000292108
-7.75232e-06
-3.53331e-06
2.32541e-08
-9.71673e-05
-0.000714406
-1.00088e-05
-0.0223397
-8.51134e-07
1.05209
1.19072e-07
0.236043
0.00332308
1.34737e-05
4.47348e-07
-0.040037
6.50797e-07
1.39577e-06
0.730826
-5.01276e-06
0.000487036
1.10177e-07
-0.35756
6.21045e-06
-1.44264e-05
-1.01994
-0.00372841
-0.00350917
6.47411e-07
1.27636e-05
-3.55339e-06
5.34801e-07
3.07487e-05
-8.11682e-07
-4.6803e-05
2.54432e-06
-1.183
1.07333
0.877479
3.05522e-05
7.52467e-07
-0.0145601
1.46855e-06
-2.13284e-06
-3.31319e-06
1.38924e-06
-1.59829e-05
0.00187371
0.065591
-4.01265e-07
-2.45841e-07
0.0558468
3.52521e-06
1.78508e-06
-0.000262838
0.00158415
0.00240953
-0.778587
-0.00165333
0.0117506
0.691124
5.59572e-06
-0.0792373
3.74541e-07
-0.00451349
0.00141735
-1.62577e-07
5.36166e-05
0.104524
-9.03102e-06
9.27893e-09
0.0959366
-6.5292e-06
0.000120693
-0.0599507
-2.66184
-1.38705e-05
-0.90344
0.163223
2.24491e-07
-0.00281781
1.26586e-06
0.00190582
0.0229784
-9.8713e-06
4.20176e-07
0.0235796
-1.99813e-06
0.00215009
-0.349554
-0.0114958
-1.80381e-06
-0.0579426
0.000745817
-1.73062e-06
7.58077e-07
8.91201e-07
5.20851e-07
-4.34144e-06
-0.000524025
-0.0717164
6.99118e-07
4.07042e-07
-0.000138329
-4.0901e-06
0.000179038
1.06641e-05
1.58466e-06
0.0197473
5.2062e-07
-3.64666e-06
3.09538e-06
-8.81726e-07
0.00243352
-1.99614e-06
1.57159e-05
2.63788e-06
-0.000731837
-0.000538393
2.96537e-06
-7.82687e-07
-0.000179441
-5.76745e-07
-0.0555032
0.000125941
-0.00031599
-3.56222e-06
0.000106475
-3.21818e-06
7.91804e-07
-0.0265914
-0.00011469
-2.66329e-06
0.348166
9.63844e-07
2.11207e-06
-1.02495e-06
0.000183374
1.95801e-06
0.00142949
0.00274584
-5.38722e-06
0.00190874
0.241865
-0.000315045
-1.93294e-06
-1.63995e-06
2.94969e-05
0.0788319
5.48926e-07
3.28058e-07
-9.77465e-06
-0.000573025
3.08124e-05
0.000421943
-0.0168855
6.27166e-06
-0.0130268
0.186105
0.540503
0.00190151
0.0393149
7.28692e-05
-5.36098e-07
-0.0364735
1.97362e-06
-0.0484749
-1.99148e-06
-0.0478534
0.0020053
1.24313e-06
-4.90269e-08
0.0369862
-0.0208956
-1.28604e-06
1.01692e-06
-8.87562e-07
-1.07823e-06
3.72429e-06
-0.0472707
-1.4661e-07
-3.28507e-06
0.0964884
5.5287e-07
-0.00136793
9.71009e-05
-0.000548602
-0.000163094
-5.4244e-07
5.62327e-07
-0.0876618
0.0278499
-8.54262e-07
-5.54031e-05
0.00018377
7.44542e-08
5.14299e-05
0.00030052
0.182086
-4.62033e-07
4.69649e-05
-0.00220016
0.00304143
9.50202e-07
0.00370873
-0.00175496
0.000743772
3.94015e-06
0.000293514
0.00172562
0.00259267
-2.36918e-06
-1.35257e-06
-1.01302e-05
-6.18072e-06
-4.79423e-05
-2.56778e-06
-2.92257e-06
3.8621e-05
-7.42817e-06
-2.30447
-6.85992e-07
-0.00726638
-3.60382e-09
0.146081
8.92547e-07
-0.0302029
0.00876263
0.00425217
-3.68442e-05
0.213837
-3.87253e-05
1.75102e-07
-0.000395043
0.000141484
-0.00166825
-9.1489e-07
5.77614e-08
0.00118831
-7.0794e-06
0.51751
-0.000199381
-1.13814
7.00623e-06
-0.000213727
-3.48653e-06
-9.0624e-06
0.00993853
-0.000126902
8.35459e-05
-1.67902e-06
0.150901
0.86295
-0.000483975
0.00110936
-0.00113278
-1.73564e-07
-0.0352214
0.0518474
0.202197
-0.000219392
0.154871
0.163061
-0.418881
6.86093e-07
-6.09281e-06
-7.20903e-07
-7.20195e-06
-1.11198e-07
0.158364
-0.186724
6.45451e-07
0.00273578
-0.000185636
4.60154e-06
-4.07925e-07
-0.0500823
0.000723036
-1.14621e-06
8.03315e-05
0.0230915
-1.55057e-06
-4.65013
0.0101281
-1.59243
-1.63376e-06
-0.1647
0.00287234
-0.0537192
-5.64351e-07
0.176872
-0.000135649
0.124415
-4.78223e-05
-4.41177e-07
-2.85265e-06
0.297568
3.6436e-07
1.66679e-05
0.00468818
-0.000312903
-5.77677e-06
-6.03329e-06
-3.97524e-07
-1.27298e-06
-1.07831e-05
-7.25999e-06
0.000608361
0.00239618
-0.0022679
0.00127589
-9.56694e-07
-0.000501675
-0.608357
-0.000317008
-0.00752244
-8.91236e-06
9.20538e-07
-0.000144025
-0.137779
4.21444e-06
-1.01907e-05
-0.000127295
-0.00240614
0.00193076
-9.62915e-06
0.000181375
-2.53859e-05
-1.38706
4.82268e-06
2.07546e-05
0.022155
9.66764e-07
0.936895
-0.000303996
-0.000638954
1.0359e-05
-5.80362e-07
-0.000458924
-0.00276947
0.0197599
5.98753e-05
2.76077e-06
0.0159997
0.00173859
0.221828
0.916037
4.94341e-06
-0.0409723
-1.51575e-06
5.66502e-05
1.13796e-05
-0.000139674
-7.67059e-06
0.130206
-1.3436e-06
-0.315201
5.50465e-06
-4.14397e-07
-1.17704e-06
-0.000403414
0.127431
-1.01641e-06
-0.00142954
8.66628e-07
4.71027e-06
0.0966831
0.0271831
5.46387e-06
0.00949452
-9.33069e-07
5.07571e-06
-2.56379e-06
-1.00357e-05
-3.50901e-06
-1.07807e-05
-0.0436546
-3.91636e-06
-0.0641016
-0.000214686
4.111e-06
0.00398698
3.28016e-06
0.000937474
-1.38504e-05
4.44337e-06
-2.21833e-05
3.71585e-06
-0.000189142
-8.15379e-05
0.00172104
-0.0110648
-1.21589e-07
3.00237e-06
-0.00244463
-0.000497264
0.0422777
0.00460539
-2.81777e-06
2.3126e-06
-3.7232e-06
0.00404393
0.0533081
-0.000433285
0.00121854
-3.7011
-0.0814288
0.0505415
-1.8294e-06
-0.0517966
-0.0107583
7.07924e-07
1.04102e-06
7.43501e-07
1.06281e-06
-4.9592e-07
2.59062e-06
0.00227526
-0.00229392
0.0975749
0.0297062
-0.00232414
0.00245863
-6.12194e-05
0.0017175
9.05422e-06
-8.51874e-07
-0.000200967
2.4683e-06
2.17685e-05
-7.90535e-05
0.00058957
-1.17467e-06
1.20084e-06
1.93637e-06
4.32968e-05
4.50614e-07
-9.09487e-07
-2.39368e-08
-2.47374e-05
3.71263e-07
-9.51925e-05
0.000264759
-6.46771e-07
0.000201565
-0.000101464
1.94274e-07
-1.58657e-06
2.43742e-06
4.2935e-06
-1.57634e-06
-0.0600395
-3.05167e-06
-0.025923
0.0149923
-2.15357e-06
-1.68675e-06
-1.68542e-06
-1.72355e-06
-0.0115785
0.0162704
-0.0283582
5.55557e-06
-0.000228041
-4.97182e-06
-1.71169e-06
0.106742
-0.000901542
-1.3529e-06
4.89908e-06
-4.01147e-06
0.0757877
-1.60388e-06
-1.48472e-06
-6.29742e-07
-0.000671753
5.34373e-07
-4.55926e-06
-2.71644e-05
1.68475e-06
5.93377e-06
-4.8903e-06
-6.88918e-07
-2.14484e-06
-1.66535e-06
-5.25638e-05
-9.33744e-07
0.0174407
0.00070152
-3.42128e-06
2.48972e-06
0.0124162
0.00163319
-0.000443601
6.35652e-06
8.68713e-07
0.924299
2.7992e-06
6.05615e-06
-1.60443e-06
-2.99161e-06
0.0549155
3.25017e-05
-1.00559e-06
1.61932e-06
-5.63584e-05
7.35922e-05
-0.000799317
0.000687657
-1.27995e-05
0.00843546
-0.0276973
7.01637e-07
-9.73182e-07
-4.62013e-05
0.505467
1.20521
-5.07154e-06
4.98929e-06
0.000311352
-0.000553259
0.000284376
-1.61002e-06
-0.0558376
-1.53927e-06
0.0619542
-1.99388e-07
1.77648e-06
-5.3072e-07
1.54906e-06
1.30897e-06
-2.90943e-06
2.31396e-06
0.112056
-6.74395e-07
2.04242e-05
1.46947e-06
-1.01846e-06
-6.44175e-05
2.02388e-06
0.013551
4.68947e-06
5.12832e-06
0.00770909
0.00248757
2.83879e-05
-0.00165476
0.00772025
-4.85986e-06
4.3536e-07
0.000167602
-0.00338758
-0.00165808
0.00257215
0.00573782
-1.18955e-06
0.0324376
8.21441e-05
9.95536e-07
-4.56398e-06
0.027154
0.0580078
0.0758903
-3.21538e-06
0.000752641
-6.48644e-05
4.18624e-06
0.00163297
-0.00341469
1.71546e-06
1.74288e-06
-6.61365e-09
4.069e-06
-4.00027e-06
-3.9233e-08
3.50649e-05
-6.20148e-06
7.34821e-06
0.0441872
0.732651
-2.21822e-06
0.000450206
-3.8943e-06
1.13889e-06
-1.87875e-06
9.25951e-06
-1.35467e-06
0.000867154
0.00428151
2.70198e-05
5.73457e-06
-0.0424724
6.80888e-07
-0.00370222
-1.30126e-06
-4.41462e-06
-3.51282e-05
0.000140997
1.96908e-07
0.0273061
-3.54441e-06
-2.02664e-06
9.70588e-07
5.13174e-06
-2.96295e-05
-1.54979e-05
8.33541e-07
0.142233
0.00012826
0.0287264
1.29474e-06
-0.000590989
0.00473174
0.0593213
5.03946e-07
6.66989e-05
-0.0486883
2.82549e-06
-2.12729e-05
-7.34192e-07
0.00216994
-4.84656e-06
0.0047051
0.00178491
-1.93166e-06
-7.08329e-06
0.000134177
-5.15187e-06
-1.29654e-06
-9.42625e-05
4.19702e-06
0.0633535
0.218985
0.182716
-0.00601181
-0.0830401
4.78495e-06
-0.00141317
0.000585988
2.94437e-06
1.55063e-06
-0.00164001
0.174862
6.52446e-06
0.000218098
-8.99534e-06
-8.86817e-06
-4.74623e-07
-0.00812159
-9.02327e-06
-0.000637155
-0.00138216
2.98206e-06
-0.00012003
-3.08072e-07
0.00229238
-0.0456518
-2.00869e-07
-6.57543e-07
-1.4884e-06
-0.00978041
6.04577e-07
0.000572378
-4.05302e-06
-0.000188484
-0.000558626
-0.128329
-1.01158e-06
0.00224616
1.77581e-06
2.24071e-06
2.83053e-06
0.00312446
-7.48949e-06
-0.0069414
-0.590861
-4.04102e-06
-6.92779e-07
0.000581945
-0.00105512
4.06526e-06
-0.000587916
1.03614e-06
-0.000144369
-1.8566e-05
2.00037e-06
0.0015973
6.26263e-07
0.00220182
2.13066e-05
-0.0171173
-5.6027e-05
0.000223028
-0.000354901
-0.00038427
-3.58551e-05
0.38687
3.04451e-06
-4.10543e-07
-0.0247998
-5.71327e-07
-0.000414664
0.000890304
-4.95932e-06
-0.0254699
-0.0490431
-0.00709798
-0.0586272
0.00108428
-3.41771e-05
0.0146562
-0.00177151
-8.25411e-07
0.000124282
-8.03411e-07
0.105359
-0.103081
0.283461
-0.119966
-1.86714e-06
3.01643e-05
3.53426e-06
-3.62483e-06
0.000392111
-0.000361164
0.269058
-0.0131143
-3.35511e-06
-0.000798326
1.98762e-06
-0.00154402
5.18665e-06
1.04442e-06
-2.83082e-06
2.05648e-06
-4.93226e-06
-9.34763e-06
-4.0338e-06
0.0035663
-2.92945e-06
-9.75279e-05
3.40758e-06
-3.23202e-07
1.98784e-05
3.57597e-06
0.00109984
5.30315e-06
-7.09361e-06
-0.917623
-1.358e-05
-4.01779e-07
-6.99113e-07
0.000157531
0.0211837
-0.0486079
-2.3521e-07
-0.837554
-8.76551e-07
0.00125609
-6.75471e-06
-4.40055e-06
-3.80483e-06
-1.15229e-06
-4.69344e-07
-1.88945e-06
0.000366398
-0.06772
0.0451339
-0.00144682
-0.00366126
8.92841e-06
-0.00775047
-1.03517e-06
1.09131e-06
3.02499e-05
-0.165038
0.00190533
-3.52285e-08
-8.89206e-07
0.0433033
7.87961e-05
-1.91789e-07
0.24761
1.11335e-05
-6.69677e-07
-3.22063e-06
1.47181e-06
-1.12442e-06
0.000801007
2.30205e-05
-0.10309
-0.0026652
-0.000394402
-1.1967e-08
-9.95061e-06
-0.000279124
-6.15434e-08
-4.95593e-07
0.0661818
-3.18663e-06
2.88097e-06
4.63177e-06
0.134476
0.000185805
0.000123664
5.90144e-07
6.47887e-05
2.75552e-07
-6.78746e-06
0.0163429
-1.40118e-06
0.887892
0.000875597
-6.50151e-07
-5.03579e-05
0.0013571
0.00215599
7.07497e-07
-0.0375999
1.38911e-06
0.0570879
0.00161991
-2.27513e-06
-1.95189
-1.79366e-05
-8.65904e-05
0.0683422
-0.000582384
-0.000923601
0.000504123
0.000524612
-5.2636e-07
-0.0135042
2.98915e-06
-1.32014
-0.000310147
5.49474e-06
2.95667e-06
1.35722e-06
-1.66993e-05
0.00172401
0.000294035
5.28601e-06
0.000101686
-1.56222e-05
-0.000103
0.0226095
-0.023063
-0.000577503
0.13686
4.56613e-06
0.034137
-0.000117297
-3.3604e-06
-7.30732e-07
-3.07508e-06
-0.00248043
-1.0401e-06
5.88152e-06
-0.000161478
-8.87882e-06
-0.000648197
5.87442e-06
-3.13706e-06
-0.0595269
-0.00873838
-0.0737898
3.77079e-05
0.704607
-1.53201e-07
0.00361908
-0.0473516
-5.8697e-07
0.00163856
-0.000211583
5.78721e-07
0.240169
2.0006e-06
-3.55674e-06
0.244062
1.03286e-06
2.57508e-06
0.0031758
0.0266615
-7.44076e-06
-4.29695e-05
-0.00156991
-2.75309e-05
2.11767e-05
2.94254e-06
-0.0036451
-0.0334622
-6.551e-05
2.04173e-06
4.10847e-06
2.08243e-06
-9.9011e-07
-1.02279e-06
-0.0651848
0.0474167
0.000147774
-0.000699573
6.11325e-07
-4.20402e-07
-0.000332809
1.16968e-06
-0.203406
-9.09877e-05
3.90051e-06
0.00015737
-1.2375e-06
-0.0672577
0.00531661
0.0832099
-6.96412e-06
3.54107e-06
-0.000353398
0.00593614
-5.13569
0.0244708
0.0841987
0.00205124
5.05117e-07
-8.50804e-05
-8.07348e-07
0.00201651
-1.6035e-06
0.000648532
0.00103008
1.34843
-2.57628e-06
5.52409e-07
-2.76628e-06
-0.0376857
-3.06622e-06
0.619587
0.000123374
1.00807e-06
0.00434667
-3.55054e-06
-0.000225787
0.000315606
-9.30381e-06
-2.98184e-07
1.40606e-05
0.000102747
0.00280406
3.53085e-05
-3.88506e-05
0.000174999
3.59471e-08
-6.97436e-07
3.12787e-05
-0.00100427
-0.0477119
-2.74132e-06
-0.00143978
-0.000427758
1.09661e-06
0.00204453
-7.35516e-07
3.08924e-06
7.93374e-06
2.0032e-06
-1.38748e-06
-0.000339562
0.00324193
1.36066
-0.000599403
-0.018937
-1.78492e-06
2.89596e-05
1.60148e-07
1.94513e-06
1.14954e-06
-0.000979192
-1.29368e-05
-0.00231831
4.78302e-06
1.72238e-06
-2.15326e-05
0.00166286
-7.37079e-07
2.46865e-07
1.35874
0.00167376
6.88774e-06
3.44481e-06
0.000121113
-4.7538e-07
2.27182e-06
-1.21322e-06
0.00184432
3.6654e-07
-7.43234e-06
0.000437831
-8.1735e-06
-0.000362344
-0.0687237
1.69833e-06
-8.12643e-06
-9.51354e-05
6.63403e-06
2.40636e-07
-2.00251e-06
0.0172572
-1.66582e-06
4.11824e-07
0.0741587
-5.6893e-07
2.88839e-06
0.0154046
3.32252e-06
0.00365016
5.51988e-06
-1.48586e-06
-0.0509018
6.41316e-05
-0.00763795
0.0299557
0.0499988
-2.43345e-06
0.00116196
2.26578e-06
0.00034241
2.4625e-06
-0.00431671
3.93942e-06
0.00426455
0.00853688
-0.00110166
3.71079e-05
-2.75622e-06
2.87231e-06
-9.28664e-07
-4.8976e-06
0.000119776
4.96579e-06
0.0248027
0.00235574
1.1511
-2.16274e-05
-3.79932e-07
-3.51609
0.000248513
0.000230038
2.30988e-06
-0.00598963
3.71324e-07
7.44839e-07
0.014017
2.21113e-06
-2.68417e-06
5.59564e-07
-4.43852e-06
2.34703e-06
-0.0103997
-0.125486
-4.65597e-05
-0.000134643
-9.03521e-07
-0.0210326
-4.89383e-06
0.000471246
-2.08143e-06
-0.000478572
0.00182454
4.62379e-06
-3.8158e-07
0.786926
-0.0142535
-3.16666e-06
8.07015e-05
-9.29684e-06
-5.60114e-05
-0.0451787
2.44438e-05
0.002532
0.000124454
-0.0474119
-3.84469e-06
-0.0179606
-8.35629e-05
-2.4802e-06
-0.00101366
-2.0755e-06
1.31884e-06
-1.58742e-05
0.000343349
0.0164877
-1.38669e-06
-6.2792e-06
1.20724e-05
-0.0160586
-2.06311e-06
0.000506104
-3.06577e-08
-3.19341e-05
7.06583e-05
0.000108925
-1.29828e-05
-0.00190615
-7.66183e-06
3.49809e-07
-2.01926e-06
-6.05568e-06
-8.86663e-07
9.89928e-07
6.94526e-05
1.96912e-06
-2.01924e-06
-5.09332e-07
-1.09946e-05
-0.0339833
1.93097e-06
0.00108794
2.88064e-05
-5.73916e-07
5.02141e-07
-5.2468e-06
-2.25947e-06
1.34346
0.00136778
0.00607855
0.00363682
0.00066069
2.04478e-06
-8.5419e-06
3.22717e-06
-6.98309e-06
-0.609238
-0.0934211
-0.0158901
-0.176806
1.43417e-06
0.193883
0.0532244
-1.38814e-06
4.07434e-07
0.239266
-0.0110252
-0.174482
-0.112688
-1.73525e-06
-1.88416e-06
-8.21658e-05
-0.0189181
0.17765
-0.00233531
2.13886
3.15181e-06
-0.0185941
-3.2387e-06
-4.25955e-07
-3.45095e-06
0.00247727
-3.53953e-06
-0.000212454
-0.000364126
-4.33115e-05
0.000103119
-7.09054e-06
-0.0029695
0.12764
0.00117091
0.011632
-8.17952e-05
-2.01345e-06
6.98482e-06
4.17054e-06
0.000784613
-0.00843922
-8.11666e-07
0.000174079
-9.24904e-07
0.00188977
0.00240458
-0.128772
2.31813e-06
-4.50396e-06
0.022589
6.97154e-06
-0.0379196
-0.000110252
-2.70259e-06
-2.91816e-06
1.7418e-06
-0.0581653
-1.45575e-06
-0.0198487
2.09973e-06
-6.28111e-06
-1.0885e-07
-0.0597791
1.10308e-06
0.00523867
-0.00101323
2.4788e-06
0.00245566
-4.20132e-06
-7.27599e-06
-8.57437e-07
-2.86817e-06
-6.84307e-06
-0.0431119
-5.45217e-05
6.81121e-07
3.24102e-06
-2.2663e-06
3.29315e-06
-7.0294e-07
-8.60392e-06
8.65327e-05
-9.14538e-06
2.55143e-06
-0.000109059
4.50206e-08
2.00205e-06
-6.17326e-07
-9.15583e-07
5.49923e-07
-0.000780836
-1.60255e-06
-0.000349289
0.00216325
3.5045e-07
3.63284e-06
0.00329761
1.44013
0.00129751
1.1148e-06
0.000892248
-2.9012e-05
-7.67486e-06
-6.83851e-07
0.0178305
-2.73422e-05
-6.87858e-05
-0.000114893
1.04074e-05
4.88687e-06
-0.00123164
-5.80377e-08
0.000912622
-3.70719e-06
-0.00019006
0.0185571
-2.78335e-06
0.00815193
1.66524e-06
-3.6208e-06
-0.000658169
-7.04928e-06
1.59243e-06
0.0118551
0.0220108
-0.0669122
1.87805e-06
8.84071e-06
-1.13771e-06
-0.0493293
-2.37339e-06
-0.000150778
0.00258863
1.76268e-06
-6.94725e-06
0.000669849
-2.46845e-06
3.97297e-05
-3.18336e-06
-6.99004e-05
-0.00881862
7.8017e-06
-1.09326e-06
-0.201277
1.75533e-06
2.93778e-07
0.00135683
1.89885e-08
-0.00555255
-0.0083621
-0.076469
-2.6501e-06
7.83124e-06
-3.7326e-07
-2.96324e-07
0.000219017
2.2761e-06
-5.91467e-06
2.65419e-06
-1.82344e-06
3.10913e-05
0.000845005
2.49751e-06
-3.64439e-06
0.000847532
0.00594636
1.95704e-06
-0.889897
3.25735e-06
-4.76416e-06
5.78569e-08
-2.95701e-06
1.43863e-06
-1.01652e-05
-1.65787e-05
-0.0562254
-1.3809e-05
2.12495e-06
0.000147814
0.000351316
3.13244e-05
0.000114262
8.49199e-07
1.86571e-06
-5.1071e-05
5.90216e-07
-0.000305878
9.01444e-07
-3.00227e-06
-2.34854e-06
0.00652561
8.40135e-05
-1.54218e-06
-1.45625e-06
-9.52386e-05
0.0117852
-0.00354311
7.32915e-06
-0.00489053
0.000120071
-2.62298e-06
2.62931e-06
-5.70571e-07
5.4362e-07
-2.69645e-05
0.270296
-8.71435e-06
-2.2012e-06
0.143907
5.46648e-05
-2.26007e-06
-9.95549e-06
0.543505
0.000243862
-2.10334e-06
0.000304541
5.96353e-06
-0.0642936
-0.0156039
-6.64345e-06
-0.030213
-2.27168e-07
6.48555e-06
2.38324e-05
-2.01388e-05
0.000203348
6.65943e-07
4.85292e-05
0.0651585
-7.59706e-05
-9.04656e-07
-0.0842969
4.20751e-06
-2.26262e-06
8.24096e-06
0.000527645
0.000208847
-0.026188
-0.000365157
0.00257832
0.0751463
-0.0502742
-0.00372266
0.0763699
4.39147e-06
2.09458e-05
6.49551e-06
-1.87892e-06
-7.38571e-05
-0.0677852
-2.33573e-06
0.00598725
-0.078703
0.0251945
-0.126955
3.03582e-06
-2.46946e-05
-1.3275e-06
0.00280371
-4.67965e-06
0.441929
2.13586e-06
5.05031e-06
0.19568
1.53707e-06
0.00367573
-0.00450851
-0.00414278
-9.44358e-07
0.0189854
-0.000111333
2.97722e-06
6.20252e-06
0.0278042
-1.63695e-06
1.93992e-06
0.056422
0.00047425
2.43614e-06
-0.0899483
-1.61641e-06
0.0217319
-0.00463655
2.16138e-06
-0.00985537
-7.49638e-07
-1.04815e-06
1.7864e-05
3.70927e-06
-0.00587642
-0.00235058
2.15868e-06
-1.96201e-06
-4.63641e-06
0.0237462
-9.40231e-05
-1.92453e-06
-0.345837
-1.38292e-06
-6.1177e-06
-0.0119097
-2.94735e-05
1.55079e-05
9.87174e-07
-0.0524589
-0.00175834
0.00051747
-6.94782e-06
-0.000346021
-6.84622e-07
-0.00215771
-0.00570196
0.0864607
-0.000537514
-0.000281849
-0.000185708
0.000321451
1.30003e-06
-0.0446201
1.72087e-06
0.00098032
-0.0513615
0.000359683
-0.0016147
3.32556e-06
0.121686
-9.46507e-06
-0.000104351
-0.0579064
-2.98348e-05
2.63153e-07
2.49664e-06
-0.0462945
-2.10141e-06
-0.267822
5.06799e-06
-1.33228e-06
-3.40394e-07
-6.49421e-07
-1.63108e-05
2.56898e-06
-0.0258999
2.86218e-06
-8.53153
-7.98065e-07
1.05239e-05
-3.62156e-06
4.57868e-06
0.0284968
2.30508e-06
-4.40672e-07
-0.428
0.000210443
-0.00688476
-9.07361e-07
0.143349
1.05733
-0.25565
1.90507e-06
-2.39533e-07
-0.0155889
-0.00563894
-1.00175e-06
-2.28452e-06
0.0163272
-2.24114e-06
1.17538e-06
0.00060725
-0.000428099
-4.83493e-06
-1.80209e-06
0.651374
4.82765e-06
-2.5727e-06
2.27625e-06
-7.18374e-06
0.138315
6.03428e-06
-7.98957e-06
-0.0151573
3.79539e-06
-5.97264e-07
4.24735e-06
-1.56388e-06
9.59089e-07
5.08505e-07
0.0316764
-0.0017787
-0.558561
7.01099e-07
-6.71475e-07
6.77659e-07
-0.00431134
-0.00175513
4.05698e-05
-0.00233316
3.16707e-06
-0.000251198
0.00483519
1.30631e-05
9.06401e-07
-9.99796e-06
-2.04245e-06
1.13254e-06
-0.306039
4.96396e-06
0.00574738
-8.5153e-06
-0.000325625
0.132787
-4.6727e-05
3.07724e-05
-0.00023584
1.56317e-05
0.00031338
-4.42261e-05
5.03349e-05
-0.0061097
0.000992507
3.99385e-06
-0.000499334
-0.0538721
-0.0149898
0.0257477
-0.000262909
-0.0172024
0.000147175
9.55971e-07
4.27332e-06
-0.117929
-0.168387
0.000275789
0.0271137
-1.03092e-05
0.00176659
-0.0223612
-2.68508
-0.147759
1.22572e-07
-0.0427364
-0.00502512
-2.73905e-06
-0.00022493
-3.21165e-05
6.71217e-07
1.85843e-06
8.72233e-07
0.000136127
-5.36775e-07
-0.00105572
0.000120487
-0.0937079
-3.19272e-06
-0.000355021
2.8275e-06
-0.00285924
-0.00375252
5.28822e-07
-0.00395466
3.6728e-05
0.0264661
0.000435666
4.02004e-06
0.0889319
1.9959e-06
0.103113
5.58354e-05
1.3854e-06
-3.94004e-07
0.00440737
-2.33385e-06
0.0280882
5.98305e-07
-0.0666346
2.173e-06
-3.08884e-06
0.0294567
0.000439185
3.33958e-06
6.94365e-07
-0.0243808
-0.000187788
-0.00314527
-9.71043e-06
-0.0236782
-2.10889e-06
-7.62491e-06
5.42161e-07
-2.12458e-07
8.69737e-05
0.0214528
0.00636825
0.215742
1.806e-06
-2.04695e-05
-3.48218e-06
0.00521603
4.64242e-05
-0.000649214
-0.000314975
0.0890443
-6.32022e-06
-0.0539857
3.50468e-06
-2.50845e-06
-1.56798e-06
-8.81111e-06
0.000213714
-1.07569e-07
0.000259053
-3.90621e-06
0.171173
0.00234688
0.0446372
3.99744e-06
-0.00023538
-2.54451e-05
-0.406178
6.53665e-06
1.30256e-06
-0.0375701
4.68526e-06
0.0036104
-1.56518e-06
0.000477612
-0.000226379
-3.25083e-05
-0.00359944
-0.00139477
-0.225099
-1.54503e-06
-1.22265e-07
-0.014209
-2.8933e-06
0.000376611
0.040088
-0.00041571
-0.0854746
-3.39575e-06
-0.0522943
-0.00945157
1.40824e-06
-0.0223357
-0.00454071
-5.06323e-05
-0.113781
0.000313431
0.00263174
0.0034099
2.21122e-06
-0.0571397
0.00105532
-4.07684e-05
8.40269e-08
-0.32099
1.31154e-07
-0.0303116
-4.48816e-06
0.0219365
-0.000257969
4.3419e-06
1.42418e-05
1.34811e-06
0.0545257
1.43637e-06
-2.36088e-06
0.000279506
3.72713e-06
-9.72407e-06
9.88166e-06
-0.000213546
0.00128749
-0.000156119
0.000201763
-1.7823e-06
-3.5155e-07
-5.59616e-06
0.000402654
-1.08039e-06
-0.0022309
0.27245
-1.02723e-06
1.7138e-06
4.35726e-06
0.0101226
4.71881e-06
5.15793e-07
-8.56723e-08
-2.59769e-06
-0.144121
1.66835e-06
-3.60383e-06
-0.0409703
0.0218526
-0.000423352
-0.00642961
-0.000148608
3.19836e-05
0.00154386
-1.71455e-07
0.00130555
2.27834e-05
-4.29104e-07
6.98731e-06
4.93804e-05
1.29897e-06
1.30793e-05
-0.0127332
9.51519e-08
-8.61421e-08
0.00149947
-2.26651e-06