/*--------------------------------*- C++ -*----------------------------------*\
| =========                 |                                                 |
| \\      /  F ield         | OpenFOAM: The Open Source CFD Toolbox           |
|  \\    /   O peration     | Version:  v2012                                 |
|   \\  /    A nd           | Website:  www.openfoam.com                      |
|    \\/     M anipulation  |                                                 |
\*---------------------------------------------------------------------------*/
FoamFile
{
    version     2.0;
    format      ascii;
    class       volScalarField;
    location    "100";
    object      k_0;
}
// * * * * * * * * * * * * * * * * * * * * * * * * * * * * * * * * * * * * * //

dimensions      [0 2 -2 0 0 0 0];


internalField   nonuniform List<scalar> 
37809
(
0.000134912
0.000187253
0.00015812
0.0001757
0.000140856
0.000146437
0.000141244
0.0329088
0.000150259
0.000168501
0.000157827
0.000159666
0.000145067
0.000157631
0.000151881
0.000153505
0.000146486
0.026677
0.00015962
0.000145596
0.000153504
0.0338563
0.00898254
0.000171571
0.0303776
0.000154996
0.000158833
0.0302205
0.000165919
0.000132432
0.000164161
0.0374841
0.000143264
0.000229531
0.000159715
0.000143291
0.000192562
0.00017724
0.00457296
0.000138535
0.000130212
0.000328117
0.000153625
0.000169909
0.000143283
0.000160943
0.0001516
0.000155014
0.000153516
0.000199315
0.0277531
0.0102878
0.000239622
0.000227062
0.000159291
0.000141781
0.000199485
0.00015763
0.000213177
0.0309317
0.000160912
0.000166234
0.000182641
0.000169894
0.00015559
0.000151918
0.000186689
0.0208753
0.000168306
0.000190381
0.000141817
0.00014939
0.0115975
0.000210728
0.000144952
0.00235734
0.000198499
0.000132843
0.000152994
0.000153111
0.000170464
0.0232545
0.000146507
0.000241418
0.00260461
0.0181673
0.000147985
0.0284529
0.000168416
0.000192539
0.00015478
0.0275976
0.000163729
0.00014583
0.00016569
0.000133607
0.0380506
0.000133511
0.000127527
0.0293578
0.00014922
0.000200155
0.000135053
0.000154984
0.00029244
0.000151342
0.0328644
0.000144185
0.0255162
0.0329802
0.000143891
0.00021034
0.0272232
0.000138566
0.0318975
0.0238017
0.000151554
0.000137906
0.0184156
0.000148757
0.00023534
0.000179357
0.0355951
0.000142905
0.000138354
0.00161193
0.000132155
0.000153691
0.000132617
0.000133088
0.000157737
0.000151711
0.000144801
0.000138341
0.000132147
0.000139983
0.000171615
0.00207913
0.0268385
0.000154664
0.000160134
0.000273586
0.00015828
0.000148547
0.00013321
0.000139231
0.000160112
0.000154722
0.000132748
0.000132135
0.000259495
0.00014855
0.000150995
0.000208321
0.000132715
0.00016334
0.000132152
0.0136406
0.000127688
0.000142295
0.000143489
0.0260818
0.0364594
0.000151256
0.00013286
0.000181643
0.00014355
0.000693981
0.000153709
0.00857684
0.00014585
0.000200901
0.000148932
0.00014881
0.000158377
0.000138181
0.00015042
0.000145319
0.000177239
0.000139921
0.000142071
0.000332531
0.00014115
0.000142044
0.000143366
0.000134489
0.0329992
0.000148929
0.0281346
0.000190263
0.0094762
0.000193825
0.000145738
0.000221843
0.000144329
0.000146418
0.000146415
0.000207315
0.000148317
0.0258288
0.00859048
0.000170447
0.000147421
0.000156178
0.000161447
0.000151761
0.000142099
0.0299683
0.000134782
0.0367898
0.00272569
0.000227293
0.000272833
0.000200393
0.000147333
0.000127774
0.0240289
0.000205727
0.000135045
0.00937092
0.000187663
0.000147687
0.000161414
0.000157111
0.00014997
0.000206713
0.000139508
0.0371318
0.000132084
0.000260254
0.000152042
0.000147694
0.000148463
0.000147415
0.000155511
0.000199969
0.0379574
0.000157149
0.000151112
0.000134315
0.000193095
0.00014504
2.64733e-05
0.0379951
0.000169735
0.000157911
0.000208128
0.000274573
0.0366311
0.000170496
0.000142607
0.00013942
0.000165513
0.0257126
0.000149099
0.000143328
0.000181567
0.000143113
0.000146923
0.00015916
0.000142102
0.000145032
0.000146718
0.000152964
0.017589
0.000147782
0.0166701
0.000228507
0.000132842
0.000150176
0.000142932
0.000148612
0.00014172
0.000176351
0.000173398
0.0213397
0.000154966
0.000153596
0.000145601
0.0219762
0.000224289
0.000144577
0.000155627
0.0428241
0.000253633
0.00014304
0.0379051
0.000165122
0.000137836
0.00957494
0.000154012
0.000153085
0.000278558
0.0294603
0.000168502
0.000137946
0.00862092
0.000142395
0.000142267
0.000184783
0.00385214
0.000141453
0.000153566
0.00016586
0.00015129
0.000156489
0.000142431
0.000149698
0.000152249
0.000180252
0.000160396
0.000147793
0.00014654
0.000204816
0.000191567
0.000137313
0.000222215
0.000134647
0.0010122
0.000202767
0.000161055
0.000308046
0.0287815
0.000261051
0.0383132
0.000135199
0.00016643
0.0337623
0.000143529
0.000154713
0.000178789
0.000179661
0.00024123
0.000132751
0.000145666
0.000138619
0.000148407
0.000207031
0.0342992
0.000149238
0.0144709
0.00013728
0.0263064
0.000188255
0.000137912
0.000148034
0.0373898
0.0437798
0.000165975
0.000157804
0.000159223
0.00015037
0.000153296
0.0241359
0.000167835
0.000149225
0.000128623
0.0390867
0.00497726
0.000142678
0.000133172
0.0051762
0.000163025
0.000133321
0.000138101
0.000181042
0.000141641
0.000204298
0.000185204
0.000134674
0.000178551
0.000134506
0.000151083
0.000132156
0.000187202
0.000141554
0.000142643
0.000142244
0.000178629
0.0318248
0.000158841
0.000150112
0.0417419
0.000207961
0.000185006
0.000138295
0.000156926
0.00103049
0.00106325
0.036213
0.000136554
0.000175171
0.0325854
0.000176445
0.000231629
0.00013814
0.000136488
0.00013841
0.0273317
0.000140791
0.000138342
0.000139716
0.000158548
0.03747
0.000155128
0.0187051
0.000383065
0.000133341
0.000161985
0.000953012
0.000151488
0.000155713
0.00017382
0.000200145
0.00030631
0.000134186
0.000140684
0.000159051
0.000176053
0.000232794
0.000141888
0.000138487
0.000151833
0.00214928
0.00755535
0.000194514
0.000158585
0.000132632
0.0001436
0.000141972
0.000132629
0.0357213
0.00021505
0.000177608
0.000159989
0.000159589
0.000163554
0.0302791
0.000145554
0.0339357
0.000145403
0.000163503
0.000139584
0.000148317
0.000134642
0.000132961
0.000140853
0.000138197
0.000137897
0.000157513
0.000144937
0.000149078
0.0016162
0.000148254
0.00015221
0.000140162
0.000141771
0.000157823
0.000142932
0.000159809
0.000187645
0.000149009
0.000221522
0.000138404
0.000147378
0.000277153
0.00013725
0.000138583
0.000185936
0.000187905
0.000182218
0.000137776
0.000242235
0.000158563
0.0302389
0.000144857
0.000151406
0.0123071
0.0007107
0.000139563
0.000153786
0.00730674
0.00546858
0.000139595
0.000264271
0.00014609
0.0286583
0.000167519
0.000140287
0.000204763
0.000148635
0.000140146
0.00396872
0.0121115
0.000134936
0.000148818
0.000137755
0.000132091
0.0386432
0.000650723
0.00013149
0.00584825
0.000954312
0.000134367
0.000134497
0.000131427
0.000161722
0.0382042
0.0245998
0.010743
0.000138777
0.0301693
0.000142998
0.000146414
0.000265588
0.000139672
0.00018144
0.000869309
0.0374931
0.000157063
0.000205752
0.000131372
0.000186943
0.000965093
0.000204949
0.000148855
0.000324513
0.000187035
0.000140267
0.000180567
0.000143793
0.000163563
0.000154819
0.000200555
0.00014861
0.000177367
0.000185331
0.0270436
0.00013135
0.000151364
0.000139339
0.000169308
0.0382832
0.00218313
0.0377623
0.000192239
0.00015807
0.000153371
0.000177359
0.000182909
0.037832
0.000191769
0.000141077
0.000150561
0.000183033
0.000167324
0.000212113
0.000160038
0.000184783
0.000312597
0.0266602
0.000139494
0.000132894
0.0393653
0.000148769
0.000136846
0.000132075
0.000133274
0.000153767
0.025206
0.0353472
0.0140467
0.0321501
0.000142784
0.000153328
0.00397277
0.000152949
0.000157115
0.000170087
0.00396812
0.000138416
0.000142563
0.00013706
0.000138722
0.000229377
0.0259643
0.000138298
0.000161995
0.000178547
0.000208405
0.000139266
0.000133451
0.000218748
0.000131158
0.000179859
0.000234064
0.000169429
0.000150783
0.000134346
0.000188754
0.000158903
0.000158711
0.000147614
0.000141745
0.000164515
0.000269709
0.000164924
0.000152818
0.000147001
0.000196493
0.000195048
0.000167885
0.000151527
0.000190277
0.000156005
0.00128121
0.000184636
0.00154519
0.00015011
0.0309787
0.000229423
0.00135714
0.000184446
0.000171287
0.0303113
0.000144544
0.000154865
0.000224915
0.000178893
0.000138202
0.00017205
0.0297112
0.000150432
0.000153053
0.0234678
0.000770104
0.000175339
0.000170486
0.0208187
0.000141606
0.000172049
0.0250848
0.000150213
0.000217511
0.000134242
0.000150045
0.000134413
0.000193611
0.000157924
0.000178399
0.000186268
0.000163642
0.000205789
0.000157542
0.000191231
0.000193441
0.000149578
0.00014907
0.000132198
0.000184482
0.000146773
0.000183503
0.000152185
0.000159941
0.000138106
0.000153038
0.0356714
0.000139079
0.000132362
0.00013291
0.000155958
0.0303568
0.000184085
0.000252502
0.000137999
0.000146379
0.000212592
0.000139375
0.000141737
0.000375792
0.000134808
0.0382686
0.000192721
0.000331177
0.000170761
0.000137392
0.000138334
0.000141537
0.00014919
0.00989208
0.00983684
0.000153692
0.000155707
0.000131597
0.0377058
0.000157803
0.000145833
0.000137501
0.00746518
0.000160809
0.000151706
0.000195945
0.0071153
0.000216981
0.000157868
0.0306756
0.000135367
0.000234494
0.000154767
0.000134989
0.000151974
0.0015872
0.000131561
0.00014438
0.000131327
0.00086841
0.00852188
0.0121842
0.000144719
0.000147436
0.000146858
0.000149906
0.000142126
0.000196876
0.000154828
0.000149436
0.000130998
0.000134362
0.000298944
0.0421075
0.000179992
0.000284731
0.000152132
0.000156426
0.000142176
0.00013955
0.000158846
0.000216693
0.000151547
0.000256288
0.000162431
0.00112641
0.000145664
0.0389152
0.000252489
0.00013428
0.000136389
0.0272111
0.000140185
0.000143957
0.020074
0.000137222
0.000177693
0.000136378
0.00568193
0.000148628
0.000144181
0.000572931
0.000241316
0.000197562
0.000140144
0.000154544
0.00013769
0.00014307
0.00015826
0.000142885
0.000156389
0.000142902
0.0126182
0.00154776
0.0011224
0.000158238
0.00015056
0.0208573
0.000143951
0.000148695
0.000133299
0.0001421
0.00014455
0.000181213
0.0307528
0.000131257
0.000131242
0.0383045
0.000146595
0.000143721
0.000190497
0.000181292
0.000204707
0.00904237
0.000194898
0.0265038
0.0222479
0.000148406
0.0330164
0.000150327
0.000220053
0.00018283
0.000139566
0.000156427
0.0349776
0.000153234
0.00013961
0.0389413
0.000153095
0.000164151
0.0267277
0.000444878
0.000144199
9.73592e-05
0.00764749
0.000151939
0.000185851
0.000139392
0.000178274
0.00713985
0.000146432
0.000138291
0.000201121
0.000132504
0.000239803
0.00296285
0.0115468
0.0001475
0.0113688
0.000188104
0.00014421
0.000140146
0.000139244
0.000138096
0.000147213
0.000187085
0.0116364
0.00015171
0.000144189
0.000191559
0.000157111
0.000157706
0.000155822
0.000147932
0.000209027
0.000138085
0.000157376
0.000137646
0.000142978
0.000203671
0.000148626
0.000139172
0.000142893
0.000184594
0.000183912
0.000130436
0.000137355
0.000194495
0.00015005
0.027803
0.0001637
0.000173074
0.000134753
0.000164974
0.000153974
0.000140192
0.0161007
0.000159283
0.000144589
0.000291324
0.000141957
0.000127589
0.000147178
0.000177578
0.000127639
0.0002118
0.00824001
0.000159302
0.000182303
0.0432115
0.000173027
0.000136442
0.000147516
0.000159294
0.0246403
0.000143876
0.000148399
0.000151567
0.000186385
0.000159087
0.000177387
0.000263098
0.000148611
0.000243505
0.0368959
0.0287495
0.000189132
0.0102574
0.000164692
0.000138781
0.00025575
0.000151607
0.00936832
0.000152871
0.0139702
0.000178561
0.000144248
0.000138573
0.00143529
0.0102423
0.000150864
0.000151058
0.000143002
0.000138828
0.000143162
0.0091644
0.000152793
0.000135116
0.0357732
0.000138007
0.000219968
0.000161532
0.000184088
0.000177336
0.000150845
0.000137995
0.0345265
0.0334897
0.00015908
0.000175754
0.000166896
0.000138546
0.000138821
0.000180086
0.0140254
0.000143598
0.000156394
0.000254749
0.000220717
0.000141904
0.000200501
0.000195227
0.000191889
0.000143393
0.000169498
0.000187548
0.0329956
0.000150075
0.000144632
0.00015136
0.000147902
0.000148341
0.000144496
0.00024229
0.000137683
0.000153209
0.000347175
0.000147486
0.0277102
0.000137515
0.0121817
0.000132417
0.0283203
0.00428506
0.000209189
0.000148766
0.0108322
0.000160419
0.000159986
0.000175967
0.000165641
0.000209686
0.000135919
0.000137641
0.000215327
0.00015341
0.0105858
0.000170338
0.0196175
0.000139254
0.000171524
0.000133092
0.000157678
0.000217889
0.00016743
0.00017628
0.000137553
0.000363482
0.00374162
0.000190367
0.0376057
0.000210214
0.000148797
0.0367386
0.0292027
0.0372151
0.000171473
0.0411517
0.0376316
0.0352518
0.000143449
0.000142462
0.00014105
0.000155791
0.000131167
0.04018
0.00349149
0.000132212
0.00018693
0.000169155
0.00014838
0.000130223
0.0158286
0.000179904
0.000149558
0.000162593
0.000301913
0.000135725
0.00313229
0.000253393
0.000234972
0.000135644
0.00495611
0.000190626
0.0122609
0.000133973
0.0363469
0.000168109
0.000771672
0.000171565
0.000133995
0.000132917
0.0091429
0.000148259
0.000158139
0.000193205
0.000172326
0.000153045
0.000156084
0.000142959
0.000144014
0.000158069
0.000145749
0.000183391
0.000184253
0.000185989
0.000206688
0.000144057
0.000188706
0.00556673
0.000164657
0.0380364
0.000153222
0.000139905
0.000168057
0.00976912
0.000128711
0.000151629
0.00016742
0.000216451
0.0001958
0.000163283
0.0001668
0.000178911
0.00809779
0.000148914
0.000158404
0.0084184
0.000132309
0.00114175
0.000164678
0.000181552
0.000153966
0.000144856
0.000165702
0.000186013
0.000229297
0.000160639
0.000142422
0.0384455
0.000187541
0.0422908
0.00330431
0.000148601
0.00659808
0.000144912
0.00016062
0.000134095
0.000168007
0.000155696
0.0364632
0.000143308
0.000176433
0.000137712
0.000147476
0.000135907
0.000185442
0.0405658
0.000149395
0.000234547
0.000145666
0.000174238
0.0365023
0.0213617
0.000138594
0.00026406
0.000134574
0.000137707
0.000141076
0.000151181
0.000148273
0.000158479
0.0353534
0.000152813
0.00537528
0.000176792
0.000134733
0.000196318
0.000151696
0.00021226
0.000150185
0.000148938
0.000156836
0.000130049
0.000169483
0.000158133
0.00020871
0.000259373
0.000147467
0.000134517
0.000232306
0.000192577
0.000338183
0.000193295
0.000148545
0.000127648
0.000153128
0.000189156
0.00866551
0.000165484
0.000178524
0.00711348
0.0349698
0.000319762
0.00014854
0.034143
0.00028819
0.0001346
0.000142043
0.000142822
0.000134646
0.000130086
0.000159421
0.000194859
0.00020969
0.0395308
0.023419
0.000205594
0.000193236
0.000154492
0.00018766
0.000153553
0.000131759
0.000174984
0.000150431
0.000158583
0.000154472
0.000178889
0.000131671
0.000155939
0.000150526
0.000145476
0.000137622
0.000148994
0.000138446
0.000154911
0.000131025
0.000158612
0.000152659
0.000137156
0.000167944
0.000166372
0.000152031
0.000137539
0.000162962
0.000140724
0.000137464
0.0340394
0.00014845
0.000294221
0.000231946
0.000135066
0.000133014
0.000134214
0.000144815
0.00919772
0.00499371
0.0284861
0.000148443
0.000175561
0.000146508
0.000134125
0.039946
0.000184756
0.000133025
0.000140496
0.000142881
0.000986155
0.000136696
0.000152797
0.000137082
0.000184978
0.000143219
0.000153111
0.000172393
0.000136596
0.000138477
0.000141361
0.000140963
0.000133144
0.000137808
0.00016396
0.000132942
0.0202641
0.000164934
0.000153107
0.000140896
0.000264335
0.000182406
0.000166212
0.000138877
0.000149246
0.0088593
0.000137242
0.000138443
0.000135593
0.000148443
0.0387983
0.000160268
0.000137871
0.000130892
0.000164338
0.000161674
0.000182087
0.000202052
0.000160259
0.00724061
0.037209
0.000158693
0.000149802
0.000156243
0.00415125
0.0253038
0.000136978
0.000145273
0.000170804
0.000186783
0.000181087
0.000135522
0.0278761
0.000134534
0.0226072
0.000138657
0.000127861
0.000144777
0.00014059
0.00013077
0.000141127
0.000127657
0.0341577
0.000147221
0.000145119
0.000130857
0.000132372
0.000165105
0.0001591
0.00712697
0.000133238
0.000158946
0.00724784
0.000194456
0.000156146
0.000203241
0.000217047
0.000150207
0.000139229
0.000178474
0.000202681
0.000189724
0.000184621
0.000250464
0.000137973
0.0292138
0.000161656
0.000139935
0.000153108
0.000235035
0.00827246
0.0277899
0.000143079
0.000184765
0.000164829
0.00014848
0.000195366
0.000202636
0.000130983
0.000150886
0.000148243
0.000151189
0.00013638
0.000154934
0.00015097
0.00014801
0.00013127
0.000301007
0.00325562
0.000142936
0.000216023
0.000136443
0.000130696
0.000137912
0.000158145
0.000143385
0.000186288
0.000193151
0.000158891
0.000158547
0.0134146
0.000130483
0.0315666
0.000137288
0.000146925
0.000155579
0.000147462
0.000157802
0.000243167
0.00015251
0.000139795
0.000130617
0.000133281
0.000160712
0.00015027
0.000130547
0.0161149
0.000165935
0.0388819
0.000140567
0.00018828
0.000198451
0.000245323
0.000130433
0.000159071
0.0218648
0.000149804
0.000156136
0.000140984
0.0001936
0.000146354
0.000202272
0.000210373
0.000139697
0.000158766
0.000153384
0.000137029
0.000135797
0.000166285
0.000133357
0.00803428
0.0238087
0.0411578
0.000224304
0.0335483
0.000148217
0.000192297
0.000178789
0.000143349
0.000137124
0.000189467
0.000966181
0.000148656
0.000167576
0.000149955
0.000149873
0.000136826
0.000204991
0.000146035
0.000189814
0.000200453
0.000143315
0.000167255
0.000138673
0.000195273
0.0154781
0.000152541
0.000150017
0.000135786
0.0356625
0.000152795
0.000160758
0.000147777
0.000177983
0.000185643
0.000194874
0.000147103
0.000204347
0.000137102
0.000147535
0.000142534
0.000182306
0.000173307
0.000260664
0.00356452
0.000137907
0.000139457
0.000188104
0.000217999
0.000149532
0.000191571
0.00013726
0.00016802
0.000148167
0.000140586
0.000209336
0.000139774
0.000204637
0.000163295
0.0380268
0.000170729
0.00016767
0.000162604
0.000174006
0.000155754
0.000237715
0.000143071
0.00013236
0.0002477
0.000138319
0.000168967
0.000185699
0.00013678
0.0383456
0.00189858
0.00518036
0.0334737
0.000202423
0.000157165
0.0174391
0.000186716
0.000129957
0.000165344
0.000130009
0.0358134
0.0188897
0.0441199
0.021592
0.000143559
0.000157819
0.000143492
0.000143373
0.000171826
0.000170312
0.0438628
0.0182637
0.000149264
0.00018196
0.000151672
0.0363354
0.000145488
0.000148149
0.000141453
0.000142615
0.000142413
0.000144744
0.000153019
0.000215857
0.000141877
0.00016636
0.000143067
0.000140224
0.000163293
0.000156166
0.000213247
0.000145684
0.00015943
0.0033536
0.000153872
0.000131766
0.000154107
0.00016712
0.000900274
0.0126726
0.000131819
0.0102867
0.000142922
0.000222975
0.000155594
0.000136635
0.000149256
0.000131793
0.000140147
0.000143594
0.000162628
0.035351
0.0394847
0.000202983
0.000204859
0.000153208
0.000237517
0.000147307
0.000146808
0.000164248
0.0175451
0.000192186
0.000154772
0.000141027
0.0382448
0.000152079
0.000136261
0.0423964
0.000153967
0.000143147
0.00013558
0.000142735
0.000134111
0.000220855
0.000154793
0.000290863
0.00019669
0.000167362
0.000132928
0.000150617
0.000170676
0.000153037
0.000151712
0.0385638
0.000132918
0.000147362
0.000133446
0.0407841
0.000153341
0.000163782
0.000159086
0.000151363
0.000152331
0.000156826
0.000239381
0.000145384
0.00493333
0.000192262
0.000140924
0.000218308
0.000209343
0.00019145
0.000152291
0.0125413
0.000150648
0.0179369
0.00018703
0.000155185
0.000862583
0.000156362
0.000173924
0.0380312
0.000178824
0.000181487
0.000174759
0.000215288
0.000136253
0.000269214
0.000151569
0.00628399
0.000172731
0.000133494
0.000137782
0.000155271
0.000151063
0.000189188
0.000161576
0.000135105
0.00016391
0.000150029
0.000173042
0.000244041
0.000251476
0.000178773
0.00227761
0.000133578
0.000150465
0.000158773
0.000143582
0.000151566
0.00013533
0.000197644
0.00013923
0.000134907
0.000192672
0.000150568
0.000215812
0.00013514
0.000155026
0.0268502
0.00842929
0.037617
0.000150173
0.00297326
0.000164418
0.000200789
0.0251012
0.000141024
0.0256177
0.000169856
0.000144863
0.000368481
0.000142265
0.000147295
0.0425182
0.000141985
0.00014277
0.000208225
0.00023969
0.000155648
0.000157347
0.000219293
0.000159147
0.000158512
0.0001516
0.000190121
0.0242443
0.000157262
0.000151467
0.000143048
0.000147941
0.000133982
0.000134079
0.0362738
0.000250036
0.000166155
0.000181126
0.000135222
0.000149011
0.000175043
0.000150505
0.00758957
0.000154234
0.000143264
0.000159354
0.000137341
0.00027539
0.000221123
0.0386891
0.000153397
0.000151333
0.000165903
0.000300867
0.00273233
0.000284637
0.0308678
0.000187869
0.000151919
0.000158224
0.00014936
0.000193107
0.000130256
0.000215243
0.000177098
0.00139192
0.000136199
0.000150694
0.000135188
0.0288455
0.000141477
0.00596241
0.000190092
0.000142658
0.000209946
0.000143349
0.000236904
0.000170937
0.000157859
0.000142361
0.000149092
0.000155443
0.000198146
0.000178364
0.000157891
0.000165366
0.000132834
0.000134328
0.000155073
0.0250523
0.027617
0.000146929
0.000206915
0.000176679
0.000136393
0.000207162
0.000157596
0.000149706
0.000144902
0.000133075
0.000158741
0.000175147
0.000181295
0.00225646
0.000184313
0.000220088
0.000157683
0.000159147
0.000148899
0.000133119
0.000145525
0.000182217
0.000158019
0.000253909
0.000148701
0.00015154
0.000156305
0.00017722
0.0001318
0.000162165
0.0244484
0.000177071
0.000148517
0.000143374
0.000166498
0.000131796
0.000140914
0.000142728
0.000188092
0.000132485
0.000156745
0.000172596
0.000146375
0.000183584
0.00534819
0.000136469
0.000151823
0.000154233
0.000148671
0.000147352
0.00014132
0.000243131
0.000154217
0.000167826
0.0296783
0.000143586
0.00014906
0.0223156
0.000140715
0.000192047
0.000128925
0.000132254
0.026975
0.000161132
0.0322273
0.0295722
0.0182178
0.000132956
0.000185079
0.000137695
0.000217144
0.00013755
0.000212134
0.000134984
0.000212718
0.000245587
0.000277876
0.000175219
0.000140787
0.000132291
0.000143068
0.000162781
0.000164075
0.000128922
0.0014897
0.000195388
0.0111229
0.000155596
0.000137535
0.00369307
0.000166024
0.000174213
0.000140934
0.000249443
0.000134674
0.000135888
0.0317218
0.000155448
0.000140815
0.000142892
0.000152519
0.000144374
0.0322002
0.00150529
0.000163398
0.000164392
0.000143449
0.000253715
0.000146734
0.000250802
0.000147338
0.000184537
0.000192227
0.000148798
0.000158089
0.00426961
0.000247637
0.000144121
0.000164885
0.00014538
0.000156894
0.0301823
0.000158496
0.000193929
0.000165282
0.000281524
0.000147739
0.000250282
0.000174821
0.000146769
0.000206945
0.000138916
0.000146392
0.000155636
0.000179965
0.00734605
0.000150371
0.00015884
0.000157696
0.0002415
0.00014174
0.00017852
0.000133612
0.000155475
0.000161154
0.000151355
0.000150412
0.000300324
0.000151973
0.0001445
0.000202261
0.000152881
0.000149295
0.000132295
0.000149995
0.000140533
0.000155506
0.000138755
0.00015964
0.0252431
0.000145169
0.000205472
0.000150081
0.000131747
0.000155331
0.00014471
0.000141844
0.00210504
0.000179759
0.000198698
0.000201429
0.000195586
0.000145163
0.000151877
0.000133543
0.000156217
0.0046517
0.0364883
0.0369618
0.0216416
0.000146163
0.0380366
0.0243608
0.000139074
0.000147251
0.000187846
0.000316155
0.0211063
0.00996117
0.000130348
0.000137661
0.000158763
0.000251002
0.0104459
0.000195061
0.00649186
0.000133581
0.000250809
0.000134911
0.000155178
0.00014335
0.000201684
0.00014188
0.000231182
0.000169334
0.000179438
0.000164459
0.000148823
0.000190585
0.0180756
0.00017846
0.00767938
0.000158484
0.000143924
0.000148517
0.000148605
0.000179504
0.000265533
0.000154438
0.000189198
0.000142974
0.000189152
0.000195209
0.000272976
0.000151733
0.00014669
0.000285213
0.000148403
0.0292254
0.000172117
0.000138451
0.000143155
0.000127996
0.000330857
0.000137966
0.0327907
0.000142532
0.000149258
0.000161653
0.0108551
0.000152106
0.0307612
0.000182558
0.000149077
0.000201746
0.000152759
0.000148725
0.000142932
0.000142944
0.000153122
0.0270301
0.000169124
0.00013587
0.000143417
0.000138153
0.00014339
0.000142415
0.000138332
0.000154907
0.000160046
0.000144342
0.000171233
0.000133666
0.000131048
0.000160527
0.000160148
0.000150743
0.000186179
0.000135151
0.000173761
0.000195117
0.000130376
0.000140692
0.000198902
0.000240864
0.000176397
0.000166547
0.000172527
0.000161125
0.000150951
0.000147158
0.000247342
0.000156734
0.000161108
0.000167292
0.000148949
0.000150737
0.00019149
0.000154878
0.000173185
0.000138067
0.000176148
0.024578
0.000153063
0.00025365
0.000136588
0.000141895
0.000179707
0.000155952
0.000146355
0.0236175
0.0213456
0.0323682
0.000144857
0.000148703
0.000137686
0.0336868
0.000216255
0.00016972
0.000180723
0.000136596
0.000138518
0.000180981
0.000153018
0.000146351
0.000157722
0.000157624
0.000227017
0.00013921
0.000143446
0.00615076
0.000136577
0.000150827
0.000175608
0.000138983
0.000204171
0.000242076
0.00564354
0.000148991
0.00015727
0.000136719
0.000136689
0.00016394
0.000142654
0.000146416
0.00015036
0.000143776
0.000150986
0.000183703
0.000139062
0.000138073
0.000180015
0.000199677
0.000135221
0.00234684
0.000146574
0.000151582
0.000151976
0.000141815
0.000144998
0.000153989
0.000150106
0.0279007
0.000155305
0.000135118
0.000174285
0.000177994
0.000151616
0.000154529
0.000158402
0.000151349
0.00016379
0.000132599
0.000189557
0.000132258
0.000134933
0.000144599
0.000201329
0.000162558
0.000141623
0.000134991
0.000169208
0.000214011
0.000216362
0.00016166
0.000237111
0.000165473
0.000138454
0.000133201
0.000142701
0.00013266
0.000155131
0.000195357
0.000146208
0.000141682
0.000363246
0.000155844
0.000141752
0.000159323
0.00447317
0.00016885
0.000144684
0.000177019
0.000148843
0.0310541
0.000234546
0.000148186
0.0242491
0.000144781
0.0001381
0.000145604
0.000162502
0.000158845
0.000134708
0.000145899
0.0389915
0.000160803
0.000143106
0.00475635
0.000145503
0.000141335
0.000164164
0.000177538
0.00017483
0.000245235
0.00016587
0.000199683
0.00987685
0.0296374
0.000220984
0.00898711
0.000128491
0.00014633
0.000138837
0.00014035
0.000169195
0.0317323
0.000144894
0.000217286
0.0350839
0.023263
0.00941556
0.000149314
0.000155972
0.000143188
0.000181168
0.000148554
0.00737294
0.000148766
0.000137371
0.0371868
0.000143181
0.000200966
0.00024748
0.000242455
0.000154738
0.0195518
0.000154447
0.000137665
0.000138082
0.00702196
0.000143595
0.000143431
0.0300477
0.000174051
0.000147427
0.0109741
0.000145378
0.0068384
0.000211962
0.000145379
0.000240634
0.000141148
0.000132653
0.000162099
0.00015624
0.000248421
0.00021242
0.000140624
0.00014694
0.000151746
0.00782347
0.000166119
0.000143758
0.00359029
0.000131823
0.000162128
0.00518346
0.000156872
0.000148739
0.000132366
0.0277858
0.000267061
0.000183408
0.000156291
0.000165583
0.000158838
0.000193613
0.000261991
0.0325821
0.000217516
0.000171944
0.000169389
0.00019578
0.00014863
0.00607373
0.000136451
0.000188454
0.0309687
0.000216366
0.000211832
0.000134477
0.0406955
0.000153956
0.000154277
0.000248053
0.000148703
0.000150515
0.000148963
0.000310255
0.000140274
0.0050524
0.000133146
0.000143166
0.00013855
0.000130031
0.000149862
0.000143383
0.035944
0.000144044
0.000127499
0.000137464
0.000157543
0.000138539
0.000133387
0.00765784
0.000147437
0.000152643
0.028648
0.000148075
0.0320215
0.000150483
0.0398427
0.0140669
0.00560388
0.000143292
0.000130267
0.00021645
0.000214011
0.000129961
0.00013315
0.00831217
0.000141708
0.000150287
0.000193093
0.000174732
0.000146613
0.000141721
0.0100134
0.000135979
0.000138344
0.000143547
0.000148847
0.00616827
0.000148106
0.000138753
0.000234202
0.000144085
0.000141255
0.000134301
0.000160839
0.000152217
0.00013774
0.0243238
0.000182294
0.00212884
0.000139822
0.000141184
0.000142387
0.000208174
0.000181683
0.000153925
0.000222343
0.000143238
0.00017113
0.000253812
0.00015468
0.000156432
0.000158035
0.000133156
0.000143353
0.03662
0.000147489
0.000211866
0.000151845
0.000173978
0.0020129
0.000174874
0.00015267
0.000164313
0.000157988
0.000160749
0.000156181
0.000154928
0.0140296
0.000183755
0.000150227
0.000182589
0.0333898
0.00679459
0.000238147
0.000172294
0.0338523
0.000166054
0.000136005
0.000140313
0.0134229
0.00159176
0.000166617
0.000232889
0.000152754
0.000207222
0.0285142
0.000663877
0.0106583
0.000148682
0.035821
0.000216216
0.000135292
0.000188597
0.00017586
0.000163884
0.000143687
0.000158375
0.000160197
0.00013017
0.000183956
0.000167912
0.0363386
0.000140961
0.000183471
0.000137372
0.000221016
0.000224963
0.000143468
0.000255788
0.000155545
0.00393939
0.000173503
0.000140295
0.00032453
0.000142387
0.0364772
0.000155999
0.00014839
0.000139577
0.000209292
0.000144628
0.000248156
0.000142366
0.0312638
0.000132177
0.00014388
0.000225399
0.000152096
0.000143352
0.000139776
0.000277646
0.000174505
0.000260597
0.000152671
0.0222298
0.000136127
0.000163362
0.000145932
0.00013961
0.000173854
0.00422495
0.00021134
0.0383268
0.000132212
0.000157146
0.000147638
0.000211105
0.000154427
0.000179622
0.000172402
0.00267625
0.000141937
0.0364737
0.000143834
0.000148104
0.000143415
0.000152019
0.000174236
0.000149054
0.000159783
0.00013546
0.0243441
0.000205243
0.022032
0.000164499
0.000170597
0.000154992
0.0344028
0.000138983
0.000137232
0.000274583
0.00013474
0.000235272
0.000143392
0.000153589
0.000235604
0.000155723
0.000204803
0.000202908
0.0149992
0.000138788
0.000130237
0.000240871
0.000142173
0.000171675
0.000377228
0.000167249
0.0169021
0.000147327
0.0348527
0.000227614
0.000141176
0.0345533
0.000220451
0.000160524
0.0137549
0.000180535
0.000199863
0.000211774
0.000159537
0.0121757
0.000186315
0.000162848
0.00013202
0.00874335
0.000146272
0.00470143
0.000146591
0.00690062
0.000151476
0.000148254
0.000147226
0.000143337
0.034092
0.00014247
0.000141772
0.00018063
0.000143594
0.000162862
0.000153496
0.000151853
0.000176554
0.000145383
0.00017577
0.000143501
0.000139256
0.000145769
0.000174719
0.000143043
0.000194464
0.000382731
0.000131826
0.000148836
0.000135363
0.000213442
0.000144925
0.00013417
0.000131896
0.000134493
0.0032791
0.000137581
0.000137687
0.0045547
0.000231448
0.000174617
0.000259741
0.000145478
0.000154003
0.000217975
0.000146682
0.000174735
0.000154083
0.000143782
0.00015834
0.000155294
0.000142816
0.000154331
0.000263209
0.000131969
0.000130339
0.000211364
0.000159247
0.000184797
0.000141536
0.00015172
0.00254375
0.000142065
0.000149531
0.000132498
0.000171674
0.0385152
0.000272594
0.021353
0.000159224
0.000143411
0.000143391
0.0425057
0.000146332
0.000254042
0.00236894
0.000170981
0.000197285
0.000142688
0.000148123
0.000164074
0.00014196
0.000139617
0.000175335
0.000233988
0.000141854
0.000170054
0.000139643
0.000144611
0.000148687
0.000150032
0.00784279
0.000142693
0.000160173