/*--------------------------------*- C++ -*----------------------------------*\
| =========                 |                                                 |
| \\      /  F ield         | OpenFOAM: The Open Source CFD Toolbox           |
|  \\    /   O peration     | Version:  v2012                                 |
|   \\  /    A nd           | Website:  www.openfoam.com                      |
|    \\/     M anipulation  |                                                 |
\*---------------------------------------------------------------------------*/
FoamFile
{
    version     2.0;
    format      ascii;
    class       volScalarField;
    location    "100";
    object      nut;
}
// * * * * * * * * * * * * * * * * * * * * * * * * * * * * * * * * * * * * * //

dimensions      [0 2 -1 0 0 0 0];


internalField   nonuniform List<scalar> 
37809
(
0.00584278
0.00226553
0.0023196
0.000283232
0.00593558
0.00596033
0.00596026
0.0115648
0.00593941
0.00174522
0.00549306
0.00336895
0.00594414
0.00569457
0.00590847
0.00394176
0.00599181
0.00622959
0.00387685
0.00589816
0.00357425
0.0112141
0.0190987
0.00633922
0.00944371
0.00604099
0.00311066
0.00925608
0.00201656
0.00584447
0.00562328
0.0122157
0.00582692
0.00308923
0.00318366
0.00582719
0.00209374
0.000476897
0.00565569
0.0059214
0.00584471
0.00111104
0.00352753
0.00164741
0.00583946
0.0026069
0.00479089
0.0057843
0.00431725
0.000466316
0.00794207
0.00949838
0.0032037
0.00347073
0.00310225
0.00594331
0.000847248
0.00257662
0.000647019
0.0103972
0.00301328
0.0020127
0.000328311
0.00165985
0.00579313
0.00590968
0.00197798
0.00473418
0.00180322
0.00092822
0.00594253
0.0060038
0.010642
0.00135709
0.00599814
0.00573234
0.000506267
0.0057992
0.00357982
0.00598045
0.00159465
0.00574761
0.00590408
0.00349023
0.00290414
0.00339868
0.00594334
0.00877192
0.00196887
0.00209329
0.00602628
0.00879004
0.00177485
0.00600497
0.00195515
0.00583071
0.0117124
0.00582958
0.00578144
0.0089322
0.00599742
0.000843359
0.00584435
0.00580263
0.000686129
0.00593359
0.0108696
0.00597284
0.00970999
0.0158031
0.00594992
0.0013634
0.00574655
0.00592289
0.0109101
0.00559223
0.00592113
0.00582882
0.00901038
0.00588806
0.00195112
0.00183705
0.0121288
0.00583325
0.00592536
0.00456611
0.00579622
0.00549216
0.00581448
0.00582166
0.00239062
0.00591494
0.0059448
0.00592437
0.00579608
0.00584394
0.00154875
0.00525634
0.00754776
0.00301771
0.00406333
0.000854754
0.00553277
0.0059375
0.00582394
0.00582394
0.00391284
0.00579359
0.00581574
0.00579608
0.000803935
0.00593771
0.00595729
0.00103238
0.00581621
0.00563053
0.00579647
0.00503859
0.00578235
0.00595529
0.00583288
0.00697043
0.0119527
0.00437179
0.00581788
0.00115447
0.0058335
0.00145943
0.00582551
0.0186207
0.00594847
0.000435485
0.0059523
0.00578027
0.00550699
0.00592297
0.00593722
0.00595026
0.00146123
0.005843
0.00591161
0.000948215
0.00593825
0.00591223
0.00585508
0.00584469
0.0112959
0.00595133
0.00821915
0.000923368
0.0156531
0.00185278
0.00590068
0.00038605
0.00597557
0.00590351
0.00590384
0.00112374
0.00593591
0.006292
0.014781
0.00161044
0.00596123
0.00577634
0.00295189
0.00591592
0.0059591
0.0100458
0.00584471
0.00839251
0.0079906
0.000423098
0.000538182
0.000478873
0.00599199
0.00578309
0.0111481
0.00141901
0.00584519
0.0196334
0.0024525
0.00595959
0.00296014
0.00605302
0.00599141
0.00140171
0.00583544
0.0115802
0.0057966
0.000759909
0.00423848
0.00596018
0.00589927
0.00596058
0.00579174
0.000506461
0.0124882
0.00605372
0.00587492
0.00584587
0.00190741
0.00601195
0.000239933
0.0116406
0.00166844
0.00244079
0.00142765
0.00317577
0.010949
0.00173697
0.00584526
0.00583448
0.00195439
0.00676746
0.00595898
0.00585489
0.00100941
0.00584125
0.0058525
0.00307734
0.00592182
0.00594553
0.00585685
0.00588467
0.00480507
0.00596131
0.00527325
0.00036083
0.00579898
0.00590721
0.00593682
0.00595709
0.00592812
0.00159925
0.00144815
0.0056864
0.00578371
0.00340369
0.00595736
0.00533821
0.000360644
0.00587079
0.0057705
0.0187201
0.000999965
0.00584025
0.0123887
0.00201368
0.00583043
0.0198508
0.00581189
0.00602095
0.00443396
0.00873279
0.00162903
0.00583225
0.002763
0.00584057
0.00583863
0.00118745
0.00995975
0.00594054
0.00379079
0.00181171
0.00435588
0.00571003
0.0058418
0.00599635
0.00590581
0.00127571
0.00523126
0.00596223
0.00590503
0.0014857
0.00217245
0.00581575
0.00124756
0.00584672
0.00160911
0.00153352
0.00473567
0.00434375
0.0068844
0.000768427
0.0121478
0.00584709
0.00176009
0.010317
0.00584402
0.00579323
0.00117347
0.00107682
0.000710216
0.00582805
0.00587966
0.00592752
0.00593435
0.000358444
0.0115508
0.00596401
0.00464512
0.00581457
0.00713393
0.00137275
0.00592533
0.00596332
0.0111963
0.0120632
0.00188456
0.00265603
0.00569365
0.00593334
0.00446485
0.00652666
0.00176006
0.00594228
0.00580418
0.0124491
0.00986053
0.00590057
0.00583501
0.0178339
0.00233719
0.00583777
0.00592704
0.00120878
0.00592068
0.00115838
0.00103297
0.00585205
0.00549766
0.00584862
0.0044212
0.00579658
0.0010186
0.00592179
0.00590093
0.00583765
0.00174117
0.0108124
0.0032227
0.00592303
0.0188304
0.00142789
0.00123081
0.00592819
0.00601932
0.00200702
0.00382431
0.0120079
0.00583006
0.00551716
0.0115251
0.00127703
0.00311084
0.00592648
0.00582954
0.00593006
0.00763364
0.00584422
0.00592719
0.00582386
0.00551786
0.0116896
0.00580781
0.00383378
0.00283075
0.00586218
0.00294022
0.00121066
0.00434096
0.00578102
0.00137911
0.000539027
0.00138756
0.00585151
0.00584266
0.00516168
0.00147678
0.000317182
0.00594291
0.00592728
0.00379057
0.00548142
0.0184195
0.000646938
0.00305985
0.00582729
0.00584499
0.00594339
0.00582571
0.0118476
0.00313397
0.00149364
0.00538835
0.00550623
0.00359077
0.00908384
0.00586123
0.0161863
0.00586241
0.0055167
0.00593341
0.00598113
0.00584783
0.00583789
0.00593633
0.00592904
0.00583448
0.00569457
0.00586533
0.00592451
0.00104199
0.00596178
0.00590484
0.00582382
0.00595657
0.0056279
0.00583951
0.00540347
0.0023958
0.00596461
0.00315875
0.00593007
0.00594442
0.00225988
0.0058243
0.00593042
0.000981456
0.00563273
0.0011659
0.00583219
0.000726567
0.00547749
0.0101662
0.00586358
0.00479502
0.0157789
0.00330055
0.00593336
0.00287599
0.0181444
0.00187115
0.00582303
0.000713085
0.00594917
0.0080419
0.00201208
0.00582672
0.00143338
0.00593703
0.00582301
0.00142471
0.0099936
0.00584782
0.00595706
0.00583301
0.00582041
0.0122464
0.00040984
0.0057971
0.00244246
0.00345219
0.00587628
0.00584983
0.0057952
0.00564977
0.0124864
0.009427
0.00892039
0.00592853
0.0100971
0.00584048
0.00601753
0.000711482
0.00582387
0.000881833
0.00191481
0.0179177
0.00576638
0.00141648
0.00579471
0.00252732
0.00162235
0.00304808
0.00577544
0.00241714
0.00247137
0.00582687
0.00126065
0.00585179
0.00363082
0.00263098
0.00567143
0.00593611
0.00119774
0.000858051
0.00741815
0.00579407
0.00593276
0.00582461
0.00177904
0.0124035
0.00380118
0.0123677
0.00141606
0.00561588
0.00587149
0.00552862
0.00104534
0.0124559
0.00136423
0.00582293
0.00587254
0.00102215
0.00208196
0.00317464
0.00523803
0.000956496
0.000647152
0.00758658
0.00582534
0.00581789
0.0124891
0.00595575
0.00581145
0.00579636
0.00582462
0.00585476
0.00588729
0.0120277
0.00582088
0.0105877
0.00584684
0.00534859
0.00824804
0.00368585
0.00305753
0.0018738
0.00827198
0.00583903
0.00584385
0.00590182
0.00592417
0.00134372
0.00683416
0.00591901
0.00299666
0.00142793
0.00562837
0.00582379
0.00584736
0.00117424
0.0057936
0.000320542
0.0003734
0.0016771
0.00588404
0.00585357
0.000394593
0.00548596
0.00543311
0.00594397
0.00594184
0.00207226
0.000969667
0.00202109
0.00447742
0.0059498
0.00314362
0.000606798
0.00184544
0.00432532
0.000966201
0.0057356
0.000575303
0.000917353
0.0022675
0.00597466
0.0096683
0.000313934
0.00231681
0.00086252
0.0024032
0.00885903
0.00597217
0.00578663
0.00282241
0.00120387
0.00583441
0.00150032
0.0142949
0.00590127
0.00587647
0.00498549
0.00217004
0.00133637
0.00256376
0.00373467
0.00583929
0.00149986
0.00715445
0.00593434
0.000372525
0.00585647
0.00594164
0.00585981
0.000665984
0.00546392
0.00142528
0.00159763
0.00592032
0.00109377
0.00317273
0.00161828
0.000724587
0.00590715
0.005057
0.00579661
0.000259809
0.00594618
0.000943538
0.00589091
0.00606684
0.0058329
0.00462932
0.00820224
0.00585335
0.00579694
0.00579899
0.00573413
0.00986773
0.000877635
0.000810485
0.0058303
0.00598326
0.000640198
0.00582452
0.005942
0.0027464
0.00584984
0.0120543
0.000633858
0.00246297
0.00630964
0.00582913
0.00581656
0.00583781
0.00591039
0.0156977
0.0157324
0.00329214
0.00578059
0.00579769
0.0101809
0.00326732
0.00590527
0.00583079
0.0167441
0.00552674
0.00422955
0.000601562
0.00299898
0.00120888
0.00244166
0.0101155
0.00584893
0.000414029
0.00252472
0.00585234
0.00589813
0.00147214
0.00579794
0.00587071
0.00579402
0.00219631
0.0141896
0.00512011
0.0059722
0.0059598
0.00595947
0.0059441
0.00583589
0.00147271
0.0058044
0.00599002
0.00579306
0.00585526
0.000325333
0.0122231
0.00135669
0.00515632
0.00575149
0.00317012
0.00596153
0.00582301
0.00558663
0.00110801
0.00548639
0.000852727
0.00221262
0.000718328
0.0059022
0.00927745
0.000916253
0.00591751
0.00582785
0.00693754
0.00582133
0.00594621
0.00350317
0.00592166
0.00196987
0.00582878
0.00690237
0.0059621
0.00589064
0.000450023
0.00316252
0.0014585
0.00582056
0.00581041
0.00590915
0.00584516
0.00218859
0.00582438
0.00571066
0.00584785
0.00467749
0.00246371
0.00228052
0.0022006
0.0059455
0.00487854
0.0059463
0.00593453
0.00584444
0.00583487
0.00587099
0.00143358
0.00878722
0.00579377
0.00579382
0.0116095
0.00595837
0.00594563
0.000840242
0.00120725
0.00143301
0.00385662
0.000607243
0.0101006
0.00438581
0.00596055
0.0113654
0.0059479
0.000355413
0.00551321
0.00582472
0.0057484
0.0173532
0.00587429
0.0058247
0.0121956
0.00346211
0.00274824
0.00764203
0.000946105
0.00588967
0.000971825
0.0138692
0.00591371
0.0017559
0.00585836
0.00154462
0.0181395
0.00601158
0.00581643
0.00267939
0.0058246
0.000385213
0.00390774
0.00960048
0.00595876
0.00944137
0.00147625
0.00596677
0.00582175
0.00585542
0.00581459
0.00595671
0.000793905
0.0150078
0.00590581
0.00596454
0.000719106
0.00317902
0.00549435
0.00575132
0.00595793
0.00268369
0.00581431
0.00305387
0.00584791
0.00582487
0.00145654
0.00601046
0.00587981
0.00584844
0.00084495
0.000880132
0.0058494
0.00582938
0.000619552
0.00601818
0.00822503
0.00290907
0.00149808
0.00588265
0.00185564
0.00581191
0.00582252
0.00514357
0.00555422
0.00587177
0.000546266
0.00582359
0.00578145
0.00595958
0.00123208
0.00578209
0.00120306
0.0180784
0.00545089
0.00118883
0.0121699
0.00153549
0.00590697
0.00595776
0.0036658
0.00984318
0.00594846
0.00595877
0.00471939
0.000973742
0.00420381
0.00194076
0.000811275
0.00596105
0.000889592
0.00988159
0.00876549
0.00236546
0.0165992
0.00560518
0.00581704
0.00109174
0.00592182
0.0190055
0.00587506
0.00453488
0.00138046
0.00594652
0.0058194
0.00415179
0.0203148
0.00602568
0.00593771
0.00582488
0.00592926
0.00594401
0.0147459
0.00603488
0.00585032
0.0103263
0.00581406
0.00101694
0.0056535
0.000878689
0.00156159
0.00601519
0.005814
0.0119086
0.0102607
0.00546941
0.00127628
0.00231142
0.00581964
0.00588769
0.00113336
0.00530089
0.005946
0.00574892
0.00195478
0.0028149
0.00582311
0.000692822
0.000556174
0.000893393
0.00594446
0.00200331
0.00243294
0.0103013
0.00599166
0.0059667
0.00485062
0.00591827
0.00582194
0.00586958
0.00036864
0.0059036
0.0033688
0.000558907
0.00593984
0.00872644
0.00583592
0.0044666
0.00579727
0.00919281
0.0148952
0.000668819
0.00582019
0.0041579
0.00534971
0.00601096
0.00141107
0.00176278
0.00054469
0.00582162
0.00583888
0.00114006
0.00356093
0.00990858
0.0016287
0.00794212
0.00593136
0.00147337
0.00583785
0.00284098
0.00028653
0.00181716
0.00128598
0.00582881
0.00129202
0.00408984
0.000718722
0.0123698
0.00257313
0.00549785
0.0123072
0.00838923
0.00869644
0.00159193
0.0122975
0.00806407
0.0171978
0.00584629
0.00596122
0.00582208
0.00333455
0.00579349
0.0120605
0.0093356
0.00582287
0.00118325
0.00169654
0.00595433
0.00579223
0.0135469
0.00118541
0.00599904
0.00291776
0.00587314
0.00582089
0.00130152
0.000805885
0.00170384
0.00581952
0.0117454
0.00308046
0.0159125
0.00581187
0.00862848
0.00170992
0.00362103
0.00152741
0.00581185
0.00583358
0.0035784
0.00593431
0.00391642
0.00108268
0.00148767
0.00353485
0.00328477
0.00593831
0.00592825
0.00268973
0.00597621
0.000984062
0.00113136
0.00156225
0.00036074
0.00592856
0.000755402
0.00192955
0.00357191
0.0105794
0.00470159
0.00582541
0.00174076
0.0128525
0.00580686
0.00476934
0.00182428
0.000429835
0.0056383
0.00223623
0.00229561
0.00157662
0.00319086
0.00596281
0.0037865
0.0185656
0.00579719
0.000822703
0.00336044
0.0011212
0.00268541
0.00586251
0.00546082
0.00170018
0.000460668
0.00402324
0.00587523
0.012511
0.00243087
0.0121262
0.00377892
0.00595625
0.0151021
0.00586626
0.00394485
0.00591739
0.00174545
0.00320794
0.00839006
0.00597204
0.00036851
0.00591934
0.00593996
0.00582219
0.0012909
0.0124257
0.0060075
0.00479476
0.00590282
0.00138284
0.0106055
0.00436358
0.00593059
0.00597121
0.00588026
0.00591859
0.0059379
0.00486456
0.0059649
0.00551992
0.0119047
0.00543118
0.0129768
0.00156812
0.00586019
0.00310402
0.00592405
0.00129197
0.00590911
0.0059635
0.00565316
0.00583933
0.0016572
0.00562854
0.000341854
0.00195008
0.00596183
0.00585686
0.00482055
0.000714669
0.00561932
0.00106916
0.00590417
0.00578175
0.00522262
0.0010153
0.0189596
0.00550044
0.00136661
0.00318562
0.0158147
0.00460926
0.00593508
0.0115257
0.00232939
0.00582284
0.00582491
0.00583864
0.00582294
0.00578994
0.00604413
0.00114785
0.000552556
0.0123771
0.00911801
0.000380919
0.00200198
0.00578491
0.00239652
0.00298655
0.00579746
0.00160017
0.00600116
0.00385518
0.00579214
0.00211022
0.00579864
0.00599283
0.00593646
0.00586239
0.00583968
0.00572983
0.00583875
0.00580004
0.00579322
0.00559406
0.00576495
0.0058138
0.0015783
0.00194789
0.00596596
0.00583052
0.00236947
0.00593784
0.0058274
0.011561
0.00590795
0.0023496
0.00134415
0.00588979
0.00582737
0.00582149
0.0058646
0.0148372
0.00991342
0.00924647
0.00596205
0.00158267
0.0059107
0.00581934
0.0124195
0.00135136
0.00582653
0.0059366
0.00595539
0.00357879
0.00591051
0.00587566
0.00581296
0.00105951
0.00594109
0.00345187
0.00149056
0.00582195
0.00592923
0.00596968
0.00582079
0.00584239
0.00583092
0.00211207
0.00585297
0.00648635
0.00594193
0.00586544
0.00584681
0.000939907
0.00113374
0.00550777
0.00593155
0.00596328
0.00852778
0.00583958
0.00592758
0.00581974
0.00593589
0.0118158
0.00568425
0.00582918
0.00579912
0.00205918
0.00422027
0.00106591
0.000414386
0.00253479
0.0184368
0.0124019
0.00604895
0.00595469
0.00572509
0.00178556
0.00739426
0.00591777
0.00590074
0.00182339
0.000799444
0.00105924
0.00581858
0.00830973
0.00587842
0.00508587
0.00582039
0.00578622
0.00586069
0.00584362
0.00579811
0.00590734
0.00578187
0.00789077
0.00596057
0.00587493
0.00579935
0.00582336
0.00187612
0.00607267
0.0181577
0.00585477
0.00607861
0.0185415
0.00120539
0.00576578
0.00149493
0.000287437
0.00590882
0.00585627
0.00115653
0.00038685
0.000696139
0.00106896
0.00612545
0.00583177
0.00996278
0.00435817
0.00582541
0.00586998
0.000536941
0.0189606
0.0135405
0.00596368
0.000932744
0.00206297
0.00596241
0.00597958
0.000424194
0.0058005
0.00593904
0.00600097
0.00592574
0.00591229
0.00602944
0.00586978
0.00591672
0.00587257
0.00205072
0.00750916
0.00595995
0.00122439
0.00591489
0.00579603
0.00583353
0.00216739
0.00594574
0.00198456
0.000882504
0.00369777
0.00238539
0.00440379
0.00579226
0.011161
0.00582399
0.00595354
0.00576439
0.00581334
0.0024836
0.000778186
0.00589651
0.00583903
0.00579497
0.00585939
0.00532256
0.00591074
0.00579298
0.00598021
0.00176689
0.0125454
0.00584399
0.000757292
0.000822858
0.000804445
0.0057921
0.00569592
0.00516575
0.00594299
0.00570101
0.00582147
0.00119837
0.00590774
0.00311896
0.000992495
0.00583701
0.00537906
0.00575359
0.00592015
0.00582063
0.00181659
0.00586453
0.018764
0.00948634
0.0121861
0.000967769
0.0115698
0.00596029
0.000645454
0.00124339
0.00585709
0.00583102
0.000692071
0.0040048
0.00595787
0.00226257
0.00598218
0.00597766
0.00581081
0.00157376
0.00600336
0.000702899
0.00516523
0.00585685
0.00180932
0.00581987
0.00195962
0.0132074
0.00588559
0.00595319
0.00582107
0.0117699
0.00603193
0.0060318
0.00596297
0.00151468
0.000835876
0.000443017
0.00595246
0.00153923
0.0058316
0.00594356
0.00587807
0.00122965
0.00145265
0.000784303
0.00137646
0.00591189
0.00582552
0.00137791
0.00106347
0.00596049
0.000677076
0.0058324
0.00177585
0.00591295
0.00584023
0.00126507
0.0058244
0.00153025
0.00211711
0.0125469
0.001615
0.00227605
0.00547194
0.00134697
0.00575498
0.000500774
0.00588964
0.00582455
0.000904449
0.00583739
0.00322227
0.00199358
0.00591599
0.0122466
0.00498907
0.0178841
0.0113391
0.000402554
0.00573675
0.00571174
0.00427991
0.00579022
0.00178898
0.00579068
0.0102639
0.00532576
0.0117758
0.00554023
0.00584289
0.00214583
0.00586337
0.00587866
0.00178149
0.00287075
0.011989
0.00343734
0.00594999
0.0011025
0.0059246
0.0119598
0.00590654
0.0059553
0.00591466
0.0058408
0.00597198
0.00599179
0.00548218
0.000587448
0.0059432
0.00197328
0.00589053
0.00584087
0.00205077
0.00604817
0.0011738
0.00591103
0.00264511
0.00125656
0.00584847
0.00579511
0.00599473
0.0021969
0.00168002
0.0164494
0.00579518
0.00493277
0.00582473
0.00629061
0.00343647
0.0059167
0.0059495
0.00579968
0.00584001
0.00584302
0.00526734
0.0120633
0.0125642
0.00056376
0.000409783
0.00286325
0.00613347
0.00595602
0.00590542
0.00491644
0.0046083
0.00130874
0.00601706
0.00593775
0.0123244
0.0057753
0.00582679
0.0117506
0.0027846
0.00594429
0.00585598
0.00583956
0.00588802
0.00622978
0.00582126
0.00109801
0.000517477
0.0028842
0.00579931
0.00589476
0.00268373
0.00598576
0.00601594
0.0116354
0.00583208
0.00594076
0.0058592
0.0124011
0.00575254
0.00292763
0.0060713
0.00580044
0.00589316
0.00313621
0.0014373
0.00597302
0.0024122
0.000888299
0.00591654
0.00035999
0.0012702
0.00218396
0.00600456
0.016202
0.00375443
0.00337201
0.00247068
0.00517704
0.000428572
0.00568351
0.00139096
0.0120859
0.00127648
0.00101165
0.00169555
0.00117074
0.00582771
0.00213536
0.00591348
0.0033639
0.00142534
0.00586368
0.00591772
0.0028194
0.00587784
0.00209715
0.005389
0.00589771
0.00182847
0.00591636
0.00144085
0.000923871
0.00249929
0.00134576
0.00642098
0.00586921
0.000440749
0.00573634
0.00592669
0.00590783
0.00585696
0.000496014
0.00585964
0.0058955
0.000679805
0.00589253
0.0010901
0.0058992
0.00574877
0.00775059
0.0140036
0.0123478
0.00582459
0.00745114
0.0021722
0.000725227
0.00708166
0.00593727
0.00700641
0.00160876
0.00586878
0.00278097
0.00587033
0.00597515
0.0118885
0.00582434
0.00584732
0.000724285
0.000688003
0.00323753
0.00570173
0.000299491
0.00513586
0.00565144
0.00591434
0.00166708
0.00670897
0.00567205
0.00592676
0.00589172
0.00595722
0.00581351
0.00581566
0.0123176
0.00082536
0.00175378
0.00116968
0.00585943
0.00596512
0.00152066
0.00401463
0.00264127
0.0057525
0.00589624
0.00540028
0.00582656
0.000791265
0.000641858
0.0122095
0.00585744
0.00592141
0.00307419
0.000864047
0.00124364
0.002076
0.00803001
0.00546609
0.00589875
0.0056137
0.00599826
0.00115577
0.00580201
0.00116961
0.00151753
0.0010091
0.00591065
0.00599391
0.0058457
0.00817657
0.00591612
0.00914907
0.000961152
0.00583618
0.000661168
0.00592163
0.000755262
0.00185486
0.00267847
0.00589025
0.00592165
0.0056596
0.00555226
0.00548937
0.00567599
0.00266906
0.00579858
0.00589134
0.00580888
0.00688325
0.00755004
0.00592618
0.000382212
0.00139764
0.00581517
0.00132751
0.00247759
0.00594334
0.00589284
0.0058131
0.00603793
0.00147082
0.00125304
0.00123998
0.00108543
0.00058377
0.00603717
0.00212597
0.00516133
0.00581323
0.0059005
0.000981268
0.00555909
0.0061513
0.00596318
0.00597962
0.00569092
0.00163741
0.00579752
0.00516312
0.00707832
0.00180494
0.00595853
0.00586126
0.00229012
0.0057961
0.00593721
0.00593561
0.00239166
0.00582906
0.00314624
0.00171913
0.00596132
0.000914706
0.00769804
0.0058207
0.00406533
0.00575342
0.00595847
0.00590556
0.00590914
0.00159266
0.00602784
0.00607117
0.00802929
0.00583349
0.00594362
0.00577313
0.00593659
0.00307248
0.00581273
0.00581898
0.00810994
0.00400775
0.00994854
0.0101199
0.0035327
0.00583658
0.00588035
0.00584574
0.00120114
0.00584301
0.00043013
0.00586774
0.000735097
0.000731913
0.00223873
0.00134739
0.00586075
0.00582928
0.00582646
0.00509246
0.0027003
0.00581221
0.00439624
0.00194632
0.00654376
0.00574027
0.00583514
0.00144811
0.00478045
0.00183784
0.00593779
0.00603719
0.00582577
0.00580868
0.0113577
0.00273708
0.00586085
0.00583971
0.00545283
0.00594753
0.00999447
0.0022451
0.00211218
0.00493689
0.00583291
0.000848945
0.00591334
0.000716339
0.00594598
0.00233718
0.00118872
0.00595672
0.00554852
0.007994
0.0007295
0.00593708
0.0056044
0.00597174
0.00569621
0.0100609
0.00553037
0.00196485
0.00184331
0.000807814
0.00596159
0.000469218
0.00551399
0.00592311
0.00252421
0.00585457
0.00599162
0.00573036
0.00237095
0.0188206
0.00434084
0.00276397
0.00378056
0.000430202
0.00584811
0.0020614
0.00580051
0.00577871
0.00421008
0.0057731
0.00590373
0.000887359
0.00376295
0.00586037
0.000408341
0.00588528
0.00596345
0.00579846
0.00579576
0.00583779
0.00599961
0.00581701
0.00255878
0.00731979
0.00593481
0.00604056
0.00588949
0.00579581
0.00281887
0.00597135
0.00584988
0.00262701
0.00126754
0.00111586
0.000706331
0.000622175
0.00593485
0.00507654
0.00582781
0.00317505
0.00167928
0.0123183
0.0122704
0.0134862
0.00593235
0.0101849
0.00606594
0.00585644
0.00596277
0.000232588
0.00137932
0.0130547
0.0133439
0.00580345
0.00583133
0.00553424
0.000476713
0.00388944
0.000550595
0.00457958
0.0058281
0.000762105
0.00584402
0.00288628
0.00595616
0.00162574
0.00588653
0.00160509
0.00324639
0.00154004
0.00184557
0.00594297
0.00167424
0.00677779
0.00274556
0.0192879
0.00555764
0.00595806
0.00595882
0.00595569
0.00211464
0.00125026
0.00301791
0.00234992
0.00583366
0.0023642
0.00586349
0.00250982
0.00591331
0.00594974
0.0012526
0.00595889
0.00853054
0.001482
0.00592346
0.00592095
0.00578835
0.00246187
0.00592759
0.0114609
0.00583965
0.00594725
0.00607259
0.0141163
0.00590177
0.0109339
0.000947425
0.00594238
0.00162581
0.00588791
0.00594384
0.00583244
0.00591663
0.00587641
0.00830648
0.00346228
0.00580798
0.0058596
0.00592906
0.00585976
0.00586898
0.00592963
0.00567733
0.0025318
0.00594715
0.00154882
0.00580081
0.00584964
0.00602146
0.00601497
0.0059441
0.00101808
0.00589338
0.00142892
0.00590042
0.00579153
0.00593614
0.000722014
0.00031208
0.00157712
0.00606337
0.00238091
0.00527563
0.00451032
0.00599532
0.00152012
0.00573485
0.00529181
0.00182174
0.00586404
0.00593577
0.000686472
0.00291871
0.00197537
0.00591713
0.00159533
0.00950017
0.0055322
0.000805546
0.00582842
0.00588784
0.00120436
0.00296138
0.00595989
0.00962186
0.00521898
0.0108255
0.00588605
0.00593336
0.00583676
0.011342
0.00116136
0.00174626
0.00135716
0.00582791
0.00592871
0.00217841
0.0054175
0.00584633
0.0055796
0.00564797
0.000671412
0.00592934
0.0058341
0.00799332
0.00582242
0.0059953
0.00156868
0.00592962
0.00503918
0.00176687
0.00809447
0.00596261
0.00385067
0.00581041
0.00581027
0.00574318
0.00584292
0.00596212
0.00593942
0.0058444
0.00587192
0.00548889
0.00584183
0.00591683
0.00205188
0.00112203
0.00582567
0.0010403
0.00592592
0.00391283
0.00597942
0.00592308
0.00588865
0.00362675
0.00591814
0.00840197
0.00575146
0.00582394
0.00184954
0.00123656
0.00586463
0.00574396
0.00607502
0.00599852
0.00211052
0.00579792
0.000884239
0.00579671
0.00584663
0.00587292
0.000855382
0.00300523
0.0058472
0.00585136
0.0034242
0.000304365
0.000338901
0.00522177
0.000788352
0.00238833
0.00592415
0.00581857
0.00582498
0.00579818
0.00578945
0.000284066
0.00596036
0.00584353
0.00196678
0.00573947
0.00584644
0.00544986
0.00191156
0.00204266
0.00587494
0.00126923
0.00595799
0.0105156
0.00190759
0.00590792
0.00674999
0.00585984
0.00592523
0.00587922
0.00512192
0.00543312
0.00582565
0.00585755
0.0118194
0.00532199
0.00582675
0.0106107
0.00591349
0.00591004
0.00193774
0.00127937
0.00191446
0.000336874
0.00327323
0.000541005
0.0201492
0.00928528
0.000506836
0.0147818
0.0058015
0.0058633
0.00592936
0.00584861
0.00169572
0.0108008
0.00598066
0.000576309
0.0157587
0.00737962
0.00319588
0.00594171
0.0057157
0.00583322
0.0012606
0.00593882
0.0100563
0.00594725
0.00591253
0.0098808
0.0058638
0.000674375
0.0018121
0.000875708
0.00298049
0.00632414
0.0057263
0.00584693
0.00592414
0.0179252
0.00584871
0.00586905
0.0137746
0.00171392
0.00596088
0.0141573
0.00598503
0.0178065
0.000444631
0.00589849
0.000906321
0.0058236
0.00581774
0.00516649
0.00605043
0.00627189
0.0016294
0.00584004
0.00596047
0.00390405
0.0195142
0.0018343
0.00584485
0.0065939
0.00580178
0.00258365
0.0177193
0.00572923
0.0059221
0.0057975
0.00797822
0.00632581
0.000992183
0.00327302
0.00556765
0.00532622
0.000589108
0.0023151
0.0111636
0.00114709
0.00154112
0.00170297
0.000605064
0.00594893
0.012678
0.00582114
0.00147208
0.00996446
0.00115944
0.00136334
0.00584574
0.0123594
0.00364698
0.00572292
0.000852541
0.00590012
0.0059467
0.00594425
0.00273489
0.00584713
0.00793013
0.00588711
0.00583326
0.00592576
0.00578991
0.00592345
0.00585645
0.0119988
0.00594305
8.24285e-05
0.00583216
0.00378057
0.0059286
0.0058914
0.0192855
0.00596165
0.0059786
0.011266
0.00580531
0.0113677
0.00420252
0.0120959
0.00798839
0.0085481
0.00586572
0.00579219
0.00543045
0.00163926
0.00579172
0.00583204
0.0160843
0.0058433
0.00594038
0.000771413
0.00138757
0.00591112
0.00584877
0.00950699
0.00591285
0.00592782
0.00587091
0.00594419
0.0120507
0.00595816
0.00592726
0.000914204
0.00591591
0.00582416
0.00584695
0.00604489
0.00600247
0.00581774
0.0097868
0.00175864
0.00485159
0.0058253
0.00582348
0.00583175
0.000459347
0.00188384
0.0058322
0.000546153
0.00585973
0.00150329
0.00627011
0.00254232
0.00380452
0.00276542
0.00583098
0.00585163
0.0173259
0.00591091
0.000574992
0.00419992
0.00220843
0.00762902
0.00132823
0.00586354
0.00559766
0.0037454
0.00572238
0.00573986
0.00579801
0.00467154
0.00101407
0.00594286
0.000943874
0.0112587
0.00933239
0.00138494
0.00157622
0.0108919
0.00231082
0.00581072
0.00593567
0.01123
0.00559602
0.00471955
0.000691917
0.00443122
0.00132865
0.00920393
0.00042113
0.00348369
0.00569036
0.0120586
0.000351302
0.00589424
0.000966835
0.00127605
0.00495717
0.00587512
0.0028024
0.00555733
0.00579164
0.000978637
0.00320393
0.0123255
0.00586931
0.000927971
0.00584188
0.00101465
0.00179219
0.00585272
0.0027357
0.0057689
0.00973232
0.00175349
0.00593571
0.00198551
0.00587305
0.0105231
0.0057594
0.00595215
0.00582635
0.000633559
0.00594196
0.000826571
0.00583186
0.0106323
0.00582519
0.00593212
0.00118437
0.00582116
0.00586166
0.0058219
0.000567582
0.00192476
0.00738578
0.00460131
0.00559022
0.00583592
0.00223068
0.00592796
0.00582613
0.00180325
0.010445
0.00081581
0.00949323
0.0058248
0.00563292
0.0059468
0.000581483
0.00568587
0.00125296
0.00143015
0.00786396
0.00592786
0.0123228
0.00594354
0.00596372
0.00583801
0.00491634
0.00186984
0.00528193
0.00574253
0.00589604
0.0096722
0.00139227
0.00858201
0.00217878
0.0016124
0.00580014
0.0167289
0.00592934
0.00583289
0.000609267
0.00585937
0.000310339
0.00583692
0.00582347
0.00165528
0.00574748
0.000415305
0.000546113
0.00402957
0.00592748
0.0057903
0.000446872
0.00593081
0.00176587
0.00321347
0.00303031
0.00726576
0.00596069
0.012026
0.000525591
0.00593889
0.0111125
0.00146081
0.0053465
0.00429907
0.00216369
0.000518888
0.000325955
0.00608286
0.0160863
0.00243576
0.00218221
0.00579658
0.00285179
0.00599094
0.00931998
0.00590918
0.0164685
0.00588415
0.00595371
0.00589828
0.00585188
0.0100309
0.00583444
0.00584591
0.00182991
0.00594351
0.00222723
0.0028225
0.00588202
0.00290346
0.00582807
0.00134646
0.00584432
0.00593298
0.00595114
0.0018959
0.00583443
0.00056638
0.00259289
0.00579944
0.00596439
0.00590223
0.00030404
0.00589343
0.00585227
0.00579546
0.00586498
0.00536673
0.00584174
0.00590952
0.00910075
0.00051175
0.00140932
0.00619587
0.0058291
0.00570436
0.0006637
0.00598133
0.00313179
0.00584408
0.00585784
0.00552663
0.00579066
0.00584074
0.00253861
0.000812647
0.00579567
0.00579314
0.00118849
0.00233892
0.00086703
0.00583653
0.00591965
0.00603078
0.00594409
0.00596088
0.00582599
0.00153583
0.00925554
0.000606615
0.00782372
0.00545548
0.00583639
0.00583561
0.0189065
0.0059595
0.00161514
0.00412336
0.00172383
0.000556529
0.00584252
0.0058322
0.00560606
0.00592778
0.00591869
0.00140582
0.000554982
0.00592486
0.00160285
0.00591954
0.00590409
0.0059397
0.00596693
0.0108559
0.00584506
0.00527854
0.00617992
0.00594446
0.000910568
0.0054416
0.00234875
0.00599866
0.000415981
0.00582149
0.00587986
0.00584119
0.00278275
0.00554838
0.000922196
0.00596425
0.00590593
0.00188929
0.000353129
0.00599346
0.00593905
0.00698347
0.00566263
0.0059485
0.0185841
0.0110273
0.00575058
0.0103186
0.0058922
0.00154299
0.000315617
0.00579838
0.00238018
0.00131682
0.000526507
0.00308668
0.000916773
0.0124159
0.00580087
0.017361
0.00593115
0.011609
0.00592392
0.0119163
0.005554
0.00582314
0.00581831
0.00594807
0.00583523
0.00226907
0.00218957
0.00407003
0.0058343
0.00218732
0.00592605
0.00585809
0.00595714
0.00115141
0.0109315
0.00565042
0.00568219
0.00348896
0.00595477
0.0060412
0.0180449
0.0105074
0.00563419
0.00121454
0.00229761
0.00581947
0.00221503
0.00582994
0.00588053
0.00594763
0.00168099
0.00595163
0.00180775
0.00580123
0.00627344
0.00586146
0.00594654
0.00216321
0.00587873
0.00139123
0.000326142
0.0160556
0.011957
0.00594188
0.00589919
0.00591184
0.00107267
0.000922656
0.00589549
0.00576048
0.00589587
0.00047501
0.00585217
0.0118998
0.00583777
0.00583531
0.00581397
0.0056087
0.00128553
0.00595604
0.000704433
0.00181837
0.00578818
0.00575341
0.016489
0.00590713
0.00051551
0.00591274
0.00577103
0.00595553
0.00593497
0.00596264
0.00589798
0.00153814
0.000284158
0.00591022
0.00587437
0.00230283
0.00282018
0.0013725
0.00825425
0.000827183
0.000534291
0.00570486
0.00375251
0.0101531
0.0058699
0.00599598
0.000795944
0.00587154
0.00127285
0.00589647
0.0124316
0.00578245
0.0190301
0.00600231
0.00580931
0.0018509
0.00583516
0.001177
0.000847517
0.00591055
0.00596991
0.00585535
0.00590502
0.00568205
0.00594949
0.0114552
0.00579381
0.00591392
0.00587682
0.00177719
0.00554358
0.00190927
0.00195808
0.000407015
0.00240878
0.00209143
0.00124406