/*--------------------------------*- C++ -*----------------------------------*\
| =========                 |                                                 |
| \\      /  F ield         | OpenFOAM: The Open Source CFD Toolbox           |
|  \\    /   O peration     | Version:  v2012                                 |
|   \\  /    A nd           | Website:  www.openfoam.com                      |
|    \\/     M anipulation  |                                                 |
\*---------------------------------------------------------------------------*/
FoamFile
{
    version     2.0;
    format      ascii;
    class       volScalarField;
    location    "100";
    object      omega;
}
// * * * * * * * * * * * * * * * * * * * * * * * * * * * * * * * * * * * * * //

dimensions      [0 0 -1 0 0 0 0];


internalField   nonuniform List<scalar> 
37809
(
0.0230904
0.0774963
0.0288872
0.61376
0.0237307
0.0245684
0.0236976
2.84792
0.0252986
0.0369461
0.0287343
0.0295054
0.0244051
0.0276809
0.0257056
0.0264303
0.0244477
3.79076
0.0294593
0.0246849
0.0264262
3.02009
0.472714
0.0270729
3.21582
0.0256574
0.0290398
3.03647
0.0347575
0.0226594
0.0291935
3.06713
0.0245865
0.0567043
0.0295954
0.02459
0.0919812
0.372517
0.792642
0.0233957
0.0222787
0.219001
0.0264973
0.0382895
0.024537
0.0304012
0.0257298
0.0267988
0.0263771
0.094708
3.24178
1.10247
0.0605614
0.054502
0.0293169
0.0238555
0.134962
0.0284739
0.196445
2.95951
0.0303692
0.0348608
0.55181
0.0383144
0.0268576
0.0257065
0.0748957
4.408
0.036523
0.0647092
0.0238648
0.0248826
1.1062
0.155296
0.024166
0.411126
0.0921891
0.0229071
0.026244
0.0256019
0.0389572
3.74196
0.0248145
0.0599329
0.884416
5.34357
0.0248996
3.15892
0.0365809
0.0919898
0.0256841
3.13821
0.0331293
0.0242847
0.0343569
0.0229144
3.24622
0.0229025
0.022058
3.28591
0.0248808
0.137959
0.0231083
0.0267096
0.419063
0.025506
3.02469
0.0241402
2.63347
2.09464
0.0241836
0.154295
4.0177
0.023395
2.9224
3.94932
0.0255952
0.0236593
2.07012
0.0250742
0.122815
0.0423679
2.93538
0.0244983
0.0233494
0.352222
0.0228001
0.026387
0.022808
0.0228609
0.0286423
0.0256486
0.0243578
0.0233512
0.0227995
0.0239534
0.0400406
0.395021
3.55514
0.0270385
0.0298072
0.190979
0.027992
0.0250185
0.0228729
0.0239066
0.0297835
0.0267053
0.0228256
0.0227973
0.322846
0.0250181
0.0253463
0.170839
0.0228182
0.0290105
0.0227987
2.60759
0.0220825
0.0238938
0.0246001
3.73965
3.04904
0.0256568
0.0228366
0.0568342
0.0246078
0.446269
0.0263854
0.462992
0.0245188
0.0981988
0.025021
0.0250768
0.0280047
0.0233298
0.0253352
0.0244223
0.0462507
0.0239468
0.0240326
0.212327
0.0237696
0.0240254
0.0244858
0.0230105
2.92004
0.0250246
3.42236
0.0837882
0.607312
0.104627
0.0246985
0.149147
0.0241531
0.0248018
0.0247998
0.166425
0.0249866
3.48917
0.583792
0.0389693
0.0247299
0.027037
0.0307443
0.0256529
0.0238458
2.98192
0.0230605
4.06674
0.337329
0.160668
0.51188
0.0966716
0.0245884
0.0220945
2.17629
0.14501
0.0231036
0.47943
0.0765248
0.0247813
0.0307083
0.0259558
0.0250309
0.147503
0.0239071
3.20432
0.0227865
0.342616
0.0259189
0.0247801
0.0251662
0.0247315
0.02685
0.0875677
3.0381
0.0259591
0.0257214
0.0229762
0.101247
0.0241251
0.110978
3.26137
0.0386377
0.0287389
0.145803
0.0854869
3.34218
0.039862
0.024397
0.0238958
0.0342553
3.79709
0.0250209
0.0244801
0.0530377
0.0245004
0.025105
0.0292528
0.0239964
0.0243935
0.0250514
0.0259934
3.64369
0.0247902
3.15172
0.16439
0.0229078
0.0254222
0.0240755
0.024947
0.0239064
0.046712
0.0419357
3.71985
0.0267932
0.0264709
0.0244405
4.11534
0.155537
0.0246264
0.0269704
2.28612
0.148608
0.0244922
3.05831
0.0338736
0.0236407
0.484194
0.0264994
0.0254255
0.0627037
3.37298
0.0369685
0.0236523
3.09326
0.0243804
0.0243666
0.056374
0.383426
0.0238116
0.0264644
0.0347245
0.0256614
0.0274054
0.0243813
0.0249649
0.0257793
0.0528188
0.0291904
0.0247883
0.024816
0.0621117
0.0881897
0.0236105
0.091285
0.0230295
0.606029
0.0605397
0.0295526
0.0707164
4.02951
0.339815
3.15199
0.0231224
0.0361976
3.26943
0.02456
0.0267055
0.0483363
0.0495524
0.340066
0.0227779
0.0247747
0.0233856
0.0250082
0.13919
2.9681
0.0250231
3.10475
0.0236096
3.68703
0.0802178
0.0232751
0.0248242
3.33622
3.62795
0.0357383
0.0285703
0.0279665
0.0253434
0.026291
3.69675
0.0378776
0.0251125
0.0221604
3.13817
0.50529
0.0241804
0.022823
0.290268
0.0320073
0.0228376
0.0233001
0.0556297
0.0239231
0.154416
0.0655875
0.0230133
0.0324783
0.022998
0.0256039
0.0227989
0.0715568
0.0239039
0.0241729
0.0243667
0.0420234
2.94206
0.029073
0.0253437
2.21702
0.145662
0.0565202
0.0233283
0.0260704
0.530017
0.279441
3.01441
0.0234224
0.0317524
2.82965
0.0454384
0.0677412
0.0233089
0.0234132
0.0233404
3.57996
0.0240906
0.0233402
0.0239904
0.0287332
3.20322
0.0267107
4.87704
0.13498
0.0227459
0.0311076
0.813618
0.025723
0.0269358
0.0426306
0.0885898
0.21641
0.0229318
0.0240787
0.0283389
0.0472777
0.232831
0.0238753
0.0233643
0.0258468
0.39196
0.410787
0.0989511
0.0289015
0.0227604
0.024568
0.0238874
0.0227661
3.01377
0.0503917
0.0489323
0.0296915
0.0287884
0.0308759
3.33273
0.0248335
2.10327
0.0248028
0.029634
0.023525
0.0247975
0.0230243
0.0227755
0.0237273
0.0233086
0.0236348
0.02766
0.0247109
0.0251633
1.58952
0.0248675
0.0257769
0.0240671
0.0238007
0.02782
0.0244766
0.0295751
0.0783271
0.0249822
0.0531324
0.0233392
0.0247928
0.0454356
0.0235651
0.0233682
0.0677974
0.0333621
0.0555131
0.0236233
0.333963
0.0289511
2.9732
0.0247045
0.0256669
0.777988
0.21607
0.0235218
0.0266937
0.403125
2.88719
0.0239728
0.195912
0.0245563
3.56342
0.035762
0.0240765
0.142883
0.0250353
0.0240676
2.73959
1.22176
0.0230745
0.0249817
0.0236164
0.0226945
3.15417
1.56532
0.022682
2.40896
0.277279
0.0228661
0.0229916
0.0226786
0.0286262
3.05812
2.61561
1.21422
0.0234083
2.98669
0.024484
0.0243311
0.195311
0.0239826
0.0529814
0.431913
2.09429
0.0272385
0.145286
0.022671
0.0739739
0.592681
0.0463776
0.0250935
0.135638
0.0756853
0.0240725
0.0532616
0.0245725
0.0309147
0.0271091
0.0353698
0.0250349
0.046677
0.0599198
3.64521
0.0226697
0.0255134
0.0239225
0.0384531
3.08488
0.556868
3.05208
0.0540983
0.0281461
0.0261211
0.0320878
0.059005
3.03601
0.0541556
0.0242278
0.0256388
0.0589921
0.0356007
0.0496505
0.029053
0.0563962
0.45431
3.49933
0.023946
0.0228424
3.15035
0.0249792
0.0235475
0.0227858
0.0228812
0.0262633
4.28184
2.93969
2.3247
3.03758
0.0244208
0.0262608
0.481935
0.0262357
0.0281006
0.0382011
0.479891
0.0237052
0.0243955
0.023223
0.0234162
0.0984082
3.79887
0.023365
0.0311326
0.0493674
0.0370293
0.0239132
0.0228224
0.186307
0.0226384
0.31431
0.175182
0.0385753
0.0256256
0.0229512
0.477904
0.0289652
0.0292136
0.0248344
0.0238554
0.0333593
0.173309
0.0337483
0.0261252
0.0247069
0.0432615
0.099431
0.0378718
0.0257296
0.0646528
0.0271989
2.1621
0.0589154
0.704758
0.0251244
2.9843
0.225619
0.59697
0.0576129
0.0396909
3.42122
0.024203
0.0267622
0.0611671
0.0483208
0.0236873
0.0410186
2.09398
0.0254912
0.0260449
4.70785
0.359813
0.0441521
0.0388244
5.57542
0.0242504
0.0406709
3.49594
0.0253128
0.139587
0.022922
0.025253
0.022938
0.0899608
0.0289044
0.0478553
0.0471171
0.0276493
0.160588
0.0283049
0.0506237
0.0707696
0.025322
0.0251385
0.0228061
0.269492
0.0246836
0.0571414
0.0258338
0.0263631
0.023677
0.0261973
4.07902
0.0237606
0.0228331
0.0229195
0.0271977
3.07607
0.0582313
0.311636
0.0236692
0.0244647
0.194304
0.023929
0.0238534
0.136231
0.0230448
3.17364
0.0859718
0.134024
0.0270721
0.0235699
0.0237828
0.0242448
0.0252425
0.629413
0.625574
0.0265147
0.0269367
0.0226981
3.69838
0.0284549
0.0246954
0.0235819
0.445193
0.0290928
0.0257869
0.107185
2.35534
0.179509
0.0287421
3.0337
0.0231439
0.174123
0.0271623
0.0230659
0.0257665
1.11458
0.0226909
0.0245933
0.022666
0.401426
0.600867
2.28363
0.0242319
0.0247385
0.0246429
0.0252194
0.0243537
0.0575453
0.0266748
0.0249476
0.0226128
0.0229473
0.800082
3.44323
0.0515586
0.0552874
0.0264519
0.0277332
0.0238488
0.0239653
0.0284325
0.195621
0.0257089
0.300576
0.0315878
1.58362
0.0246797
3.94059
0.154268
0.0226921
0.023403
3.92256
0.0240813
0.02421
5.72582
0.0231728
0.0516728
0.0233974
0.809297
0.0249288
0.0244762
1.25567
0.0708589
0.0575487
0.0240775
0.0265982
0.0233011
0.0244767
0.0291568
0.0245322
0.0273849
0.0244368
2.58096
0.639455
0.500521
0.0291667
0.0253234
4.27357
0.0242085
0.0250559
0.0228078
0.0243537
0.024621
0.0522915
3.4929
0.0226548
0.022652
3.29653
0.0246033
0.0241727
0.0843517
0.0516942
0.142882
2.33678
0.091723
2.62862
5.06872
0.024898
2.90374
0.0252742
0.146517
0.0331679
0.023961
0.027213
2.01675
0.0260852
0.0239686
3.1919
0.0262896
0.0327876
3.49659
0.45256
0.0244831
0.106276
0.554461
0.0256926
0.0461464
0.0237938
0.0503025
0.393854
0.0243582
0.0237759
0.0747277
0.0227489
0.215193
0.734504
1.20977
0.0247535
1.20999
0.0801566
0.0241687
0.0240728
0.0237805
0.0237499
0.0247138
0.0609343
0.772395
0.0256881
0.0241743
0.0676144
0.0280782
0.0287054
0.0270942
0.0248294
0.0719162
0.0237492
0.028226
0.0235377
0.0245461
0.139862
0.0247279
0.0236697
0.0244328
0.05756
0.0565078
0.0222991
0.0235625
0.0725025
0.0249327
3.37939
0.0324398
0.0428815
0.0229068
0.0347663
0.0264928
0.0240775
3.12129
0.028677
0.0246245
0.538211
0.0243762
0.0220686
0.0246961
0.0468004
0.022075
0.176094
0.455608
0.0292247
0.0535514
3.54965
0.0428917
0.0230985
0.0247604
0.0292565
2.50539
0.0241871
0.0249043
0.0257102
0.0690908
0.0291438
0.0512094
0.324315
0.0249303
0.273758
3.72815
3.27876
0.0799626
0.618214
0.0293841
0.0238577
0.155818
0.0256012
0.49155
0.0260202
3.07078
0.0507926
0.0242577
0.0238122
0.346369
0.503578
0.0250368
0.0254405
0.0245502
0.023414
0.0240851
0.620368
0.0253184
0.0230954
3.4597
0.0237368
0.216358
0.0285737
0.0565295
0.0500638
0.0250774
0.023735
2.89804
3.26091
0.0290854
0.0448672
0.0351325
0.0238066
0.0235781
0.0500213
2.65725
0.0241502
0.0272048
0.101172
0.0598459
0.0243691
0.13872
0.0919372
0.0946679
0.0241221
0.0376426
0.0770925
3.2024
0.0250473
0.0242399
0.0256585
0.0249907
0.0254805
0.0246177
0.219405
0.0233215
0.0263289
0.553394
0.02483
3.17398
0.0235635
2.73434
0.0228413
3.07934
0.288298
0.178397
0.0255611
2.61849
0.0299857
0.0266156
0.0472989
0.0355121
0.0999708
0.0233473
0.0235732
0.188921
0.0264066
1.08532
0.0396487
2.41106
0.0234777
0.041096
0.0227981
0.0284827
0.188039
0.0361952
0.0453608
0.0235989
0.249045
0.927574
0.0661117
3.03864
0.0546891
0.0250891
2.98365
3.47359
3.96371
0.0409954
3.34426
4.09958
2.05044
0.0245367
0.023898
0.0242267
0.0274031
0.0226404
3.33085
0.369634
0.0227056
0.0576749
0.0379528
0.0249197
0.0224823
1.16646
0.0496385
0.0249302
0.031565
0.0514884
0.0233169
2.1423
0.314525
0.138193
0.0233083
0.417166
0.0416396
0.773301
0.0230517
3.9894
0.0370388
0.214144
0.040052
0.0230555
0.0227848
2.56888
0.0249833
0.0285822
0.0650861
0.0415356
0.0262805
0.0275556
0.024074
0.0242928
0.0286899
0.0243881
0.0544424
0.0558874
0.047206
0.13918
0.0242988
0.0634608
2.85012
0.0315214
3.18289
0.026268
0.0240164
0.0367844
0.755302
0.0221654
0.025733
0.0362113
0.22037
0.0347385
0.032275
0.0350837
0.0530993
2.47906
0.0249739
0.0287429
0.453687
0.0228229
1.40245
0.0314907
0.0569413
0.0267695
0.0247088
0.0303395
0.0463692
0.241092
0.0301455
0.0242412
3.07131
0.0771546
3.48563
0.886882
0.0249488
0.435491
0.0247026
0.0301259
0.0226612
0.0369545
0.0273785
4.11613
0.0239965
0.479793
0.0232648
0.0248278
0.023343
0.0523346
3.26295
0.0248681
0.0489108
0.0246773
0.0429909
3.43761
4.63421
0.0233693
0.0442381
0.0228856
0.0232669
0.0237586
0.0256027
0.0248577
0.0287101
2.96834
0.0260799
0.412273
0.0491694
0.0229912
0.044969
0.025607
0.161255
0.0254154
0.024975
0.0277428
0.0222713
0.0382134
0.0280942
0.146079
0.105137
0.024735
0.0229675
0.04818
0.0904848
0.0603287
0.0647656
0.0251593
0.0220778
0.0261902
0.0612985
0.457403
0.0300817
0.0479201
2.08456
2.22054
0.0695295
0.0250275
2.96101
0.11799
0.0231159
0.0243854
0.0244615
0.0231234
0.0224676
0.0263762
0.1135
0.0998006
3.19244
2.57517
0.122235
0.0965355
0.0267063
0.0783103
0.0265938
0.0227269
0.0460862
0.025067
0.0288355
0.0266697
0.053912
0.0227072
0.0260209
0.0253562
0.0248153
0.0235667
0.0251224
0.0237115
0.0267082
0.022617
0.0283529
0.0264816
0.0235915
0.0379977
0.0351687
0.025483
0.0235895
0.0319936
0.0236996
0.0235893
2.943
0.0251271
0.125088
0.0992249
0.0229321
0.0228256
0.0230549
0.0246931
0.619457
0.504136
3.07939
0.024898
0.0470964
0.0247868
0.0230481
3.21483
0.0509376
0.0228309
0.0236662
0.0239919
0.276294
0.0231275
0.026005
0.0235822
0.0656115
0.0241064
0.026314
0.0409175
0.0234622
0.0233551
0.0236797
0.0242172
0.0227892
0.023634
0.0329163
0.0227137
3.11939
0.0277663
0.0261031
0.0240979
0.163721
0.0530293
0.030174
0.0234133
0.0250275
1.05798
0.0235021
0.0233558
0.0232988
0.0250078
3.28087
0.0281961
0.0236518
0.022571
0.0332657
0.0308692
0.0572695
0.12515
0.0300518
0.392678
2.99877
0.0262348
0.0251572
0.0272903
2.33837
3.41922
0.0231468
0.0246196
0.0389734
0.0609043
0.0514279
0.0232912
3.35369
0.0228861
4.26237
0.0238226
0.0220975
0.024703
0.0240588
0.0225539
0.0238901
0.022079
3.98211
0.0246991
0.0247016
0.0225641
0.0227312
0.0341251
0.0261993
0.392651
0.0227573
0.0261484
0.390884
0.111494
0.0270819
0.0620216
0.182139
0.0254206
0.0237743
0.0480527
0.102258
0.0686868
0.0565303
0.0409041
0.0236589
2.9354
0.0308707
0.0240215
0.0260831
0.247962
0.436922
2.07086
0.0239916
0.0563127
0.0338362
0.0249027
0.0326937
0.101639
0.0225814
0.0254059
0.0247032
0.0255139
0.0230672
0.0256962
0.0257207
0.0250155
0.0223532
0.147004
0.440873
0.0239828
0.176456
0.0230676
0.0225493
0.0236412
0.0289296
0.0241155
0.0736941
0.0688798
0.0290266
0.0291358
3.03704
0.0225272
2.83141
0.0235727
0.0246786
0.0269892
0.025367
0.0286547
0.313082
0.0258642
0.0239414
0.0225398
0.0227466
0.0301938
0.0254227
0.0225353
2.70439
0.0357434
3.09762
0.0240533
0.0632381
0.0766919
0.305581
0.0225191
0.0279286
3.57573
0.0252071
0.0273871
0.0242179
0.107262
0.0247732
0.0462211
0.178935
0.023933
0.0281825
0.0266601
0.0231461
0.0233303
0.0352178
0.0227396
0.429015
2.51003
3.3766
0.231829
2.89839
0.0248675
0.0843134
0.0482683
0.0244745
0.0235163
0.0687181
0.242695
0.0249513
0.0357902
0.0250669
0.025072
0.0235467
0.0617232
0.0243255
0.0656624
0.0387998
0.0244697
0.0361568
0.0238275
0.09966
1.16971
0.0259176
0.0251995
0.0233266
3.02871
0.025331
0.0266473
0.0247825
0.0512955
0.0587782
0.440155
0.024713
0.132779
0.0235102
0.0248227
0.0242485
0.0556794
0.0419423
0.33242
2.56045
0.023327
0.023939
0.0796419
0.205044
0.0250872
0.0685042
0.0235341
0.0367933
0.0250577
0.024072
0.165514
0.023998
0.133747
0.0328564
3.02915
0.0391611
0.0358488
0.0297115
0.0434745
0.0270638
0.479496
0.0242921
0.0227244
0.150402
0.0236953
0.0365607
0.0712529
0.0231203
3.12931
0.379684
0.28965
2.95075
0.127853
0.027397
3.04887
0.0436257
0.0224442
0.0351355
0.0224514
3.4845
3.53085
3.74494
3.88599
0.0245699
0.028894
0.0244727
0.0243887
0.0399937
0.0380082
3.65717
5.31143
0.0250864
0.057283
0.0256004
3.03684
0.0246317
0.0248767
0.0239156
0.0244171
0.0238468
0.0241568
0.0261557
0.207964
0.0238722
0.0352624
0.0242877
0.0240073
0.0328441
0.0258204
0.181717
0.0246462
0.0295046
2.63009
0.0263095
0.0227374
0.0257071
0.0353972
0.543974
0.770201
0.0227464
2.05107
0.0245372
0.0354676
0.0273128
0.0230931
0.0250872
0.0227242
0.0239978
0.0245753
0.0304439
2.92908
3.14081
0.0886211
0.106419
0.0264603
0.038688
0.0247325
0.0248599
0.0334072
3.7942
0.100027
0.0257222
0.0237509
3.10175
0.0263338
0.0233852
3.60556
0.0267848
0.0240815
0.0231524
0.0244427
0.0227768
0.035473
0.0265914
0.206525
0.0879585
0.0330184
0.0229213
0.0255506
0.0384119
0.0255669
0.0252183
3.31143
0.0227909
0.0248052
0.0227755
3.28687
0.0266574
0.0324857
0.0262029
0.026096
0.0258486
0.0279393
0.106275
0.0243401
2.07541
0.0966955
0.0238187
0.165632
0.16485
0.0876709
0.0253627
0.772747
0.0255418
5.31588
0.0757041
0.0270368
1.95591
0.0275112
0.0426372
3.14559
0.0515564
0.0544278
0.0472519
0.183934
0.0233802
0.109785
0.025631
1.81859
0.0418724
0.0227664
0.023283
0.0272883
0.0256999
0.0792627
0.0299865
0.0229082
0.0337812
0.0253579
0.0416687
0.136536
0.0836934
0.05163
0.356081
0.0227592
0.343676
0.0276786
0.0242263
0.0256551
0.0231058
0.0911095
0.0237609
0.0228832
0.0697052
0.0255521
0.198024
0.0229083
0.0269668
3.46336
0.601596
3.04534
0.0257831
0.406045
0.0331713
0.140587
3.54326
0.0237523
3.64464
0.0386816
0.0246837
0.132951
0.0242346
0.0246512
3.57413
0.0243779
0.0244164
0.0919977
0.348673
0.0273682
0.0275961
0.167023
0.0283549
0.0280484
0.0256325
0.0502166
3.61228
0.0277252
0.0255564
0.0242795
0.0248339
0.0230467
0.0230548
2.94345
0.303266
0.0360516
0.0555756
0.0230777
0.0249805
0.0460041
0.0254994
2.85692
0.0268099
0.0242976
0.0295092
0.0235715
0.214986
0.345598
3.16754
0.0261881
0.0255569
0.0321618
0.233939
1.91075
0.137174
3.71009
0.0343823
0.0257544
0.0281845
0.0249006
0.104874
0.0224501
0.184072
0.0461884
1.4122
0.023043
0.0251412
0.023126
3.52753
0.0239138
0.660342
0.0843773
0.0244437
0.181613
0.0242076
0.13683
0.0390633
0.0285822
0.0241689
0.0251779
0.027467
0.0357134
0.0324938
0.0278172
0.0338104
0.022908
0.0228009
0.0266964
3.62785
3.65765
0.0247932
0.126952
0.0482806
0.0234547
0.156089
0.0285344
0.025189
0.0245896
0.0228924
0.0262906
0.0459753
0.0542521
1.86973
0.0636315
0.23739
0.0261187
0.0297211
0.0251113
0.0228993
0.0246632
0.05576
0.0284251
0.0412174
0.0249365
0.0253428
0.0274653
0.047506
0.0227338
0.0314079
3.45029
0.0471639
0.0249251
0.0244614
0.0347918
0.0227387
0.023734
0.0240461
0.0786511
0.0227284
0.0279081
0.0408593
0.0245539
0.0555193
0.692043
0.0234455
0.0258301
0.0268055
0.0249512
0.0249513
0.0239154
0.107802
0.0255841
0.0276431
3.68703
0.0246141
0.025079
3.86363
0.023703
0.0433134
0.0221799
0.0227279
3.32494
0.0304736
3.23881
2.9254
5.15368
0.0227797
0.0314878
0.0235548
0.180803
0.023541
0.113632
0.0230045
0.0980375
0.336046
0.115184
0.0441132
0.024022
0.0226943
0.0245549
0.0319645
0.0327487
0.0221813
0.339252
0.1004
1.74161
0.0271058
0.0235701
2.2669
0.034732
0.0457725
0.0237351
0.04124
0.0231169
0.023394
2.79556
0.0273699
0.0240263
0.024469
0.0259814
0.0242746
3.22116
0.675745
0.0324772
0.033296
0.024593
0.298869
0.024814
0.35019
0.0247794
0.0420574
0.100249
0.0249798
0.028492
0.542558
0.155926
0.0242747
0.0294226
0.0243446
0.0275429
2.99873
0.0280376
0.0987129
0.0351381
0.21997
0.0247818
0.204189
0.0317073
0.024779
0.0532106
0.0237277
0.0244329
0.0271596
0.0395978
0.390563
0.0254446
0.0291193
0.0283361
0.187338
0.0242369
0.0532849
0.0230345
0.0269044
0.0305007
0.0262181
0.0254769
0.226641
0.025878
0.0246572
0.122874
0.0259767
0.025035
0.0228156
0.0258803
0.0240731
0.0259193
0.0238534
0.0296282
3.4472
0.0244606
0.0340274
0.0254835
0.0227314
0.0272986
0.0242339
0.0242473
0.81673
0.0496467
0.0708706
0.14347
0.106403
0.0244594
0.025798
0.0229148
0.027631
2.7369
2.96202
3.01081
1.59497
0.0246383
3.72949
3.69238
0.0237472
0.024695
0.285586
0.219238
1.60637
0.742268
0.0224603
0.0236071
0.0286865
0.203779
2.69291
0.0842177
1.46016
0.0229203
0.159805
0.0230853
0.0272286
0.0240676
0.124077
0.0241024
0.0859246
0.037018
0.0542111
0.0342329
0.0250417
0.0498587
2.67668
0.0380717
0.398277
0.0285156
0.0241562
0.0249239
0.0249517
0.0553789
0.144468
0.026876
0.0444582
0.0245084
0.0800131
0.0333005
0.108089
0.0256594
0.0246548
0.175247
0.0249045
3.42549
0.0406834
0.0233733
0.0241777
0.0221127
0.133698
0.0232752
2.86362
0.0244077
0.025097
0.02662
0.77454
0.0257728
2.8169
0.0560497
0.0250871
0.124109
0.0259442
0.0250216
0.0245065
0.0241597
0.0260569
3.25276
0.0377812
0.0233936
0.0244757
0.023301
0.0244703
0.0242657
0.023329
0.0272865
0.0299155
0.0242709
0.0397426
0.0230426
0.0224027
0.026659
0.0266249
0.0253603
0.0678138
0.0229326
0.0430191
0.0330761
0.0225115
0.023701
0.13077
0.793827
0.0473356
0.0274677
0.0411542
0.0305407
0.0255647
0.0245455
0.111492
0.0273299
0.0304436
0.0361902
0.0254003
0.0253945
0.0811903
0.0270799
0.0418297
0.0233334
0.0480043
2.59306
0.0261571
0.314978
0.0234349
0.0240997
0.0529972
0.027547
0.0245566
2.45758
4.08808
2.92567
0.0246102
0.0250625
0.0235895
2.9688
0.18625
0.0389828
0.0529585
0.0234383
0.0233638
0.0584111
0.0261373
0.0250334
0.0282675
0.0279073
0.123363
0.0234783
0.0245875
0.766039
0.0234571
0.0251576
0.0468408
0.0234388
0.0405004
0.0934814
0.69339
0.0249877
0.0281101
0.0235301
0.0235254
0.0285464
0.0244148
0.0245576
0.0253155
0.0246006
0.025714
0.0334721
0.0238046
0.0233356
0.0563355
0.0706773
0.0232112
2.2301
0.0247347
0.025772
0.0254164
0.0239427
0.0246233
0.02661
0.0253633
3.31971
0.0270025
0.0232004
0.045773
0.0473344
0.0258534
0.0269043
0.0260743
0.0252311
0.0328221
0.0228701
0.080706
0.022816
0.0230788
0.0246213
0.080568
0.0315602
0.0242206
0.02307
0.0377979
0.188844
0.145222
0.0309586
0.133161
0.0338973
0.023371
0.0228925
0.0244982
0.0228796
0.026795
0.311794
0.02453
0.0242459
0.18575
0.0271542
0.0242458
0.0292341
2.35544
0.0369732
0.0246272
0.0460256
0.0249821
2.95185
0.0802335
0.0250826
3.59101
0.0247074
0.0233071
0.0247661
0.0317259
0.0292391
0.0231234
0.0249081
3.29615
0.0302137
0.0245601
0.446201
0.0246053
0.0239144
0.0335275
0.0466005
0.0465835
0.245216
0.0322096
0.128266
0.49157
3.19083
0.239853
0.608565
0.022148
0.0249572
0.0234152
0.0239972
0.0376314
2.93666
0.024227
0.214322
2.23498
3.1485
2.93315
0.02513
0.0272879
0.024547
0.0536794
0.025014
0.741909
0.0250142
0.0232339
3.75791
0.0244177
0.140907
0.0980192
0.276875
0.0270172
3.08749
0.0269697
0.0235448
0.0233085
0.392138
0.0245515
0.0244386
2.19679
0.0461916
0.0247324
0.771481
0.0242903
0.384406
0.114007
0.0246469
0.265536
0.0242372
0.0228015
0.0313747
0.025823
0.0395872
0.0663975
0.0240793
0.0246524
0.0258264
0.401328
0.0349869
0.0245956
0.53797
0.0227211
0.0313577
0.292575
0.0273808
0.0251163
0.0228316
3.48204
0.0421645
0.0545013
0.0276547
0.0297382
0.0281934
0.0809085
0.113017
2.91897
0.189665
0.0410046
0.0381837
0.10507
0.0249842
0.47785
0.0234406
0.0816177
2.97054
0.186655
0.0724665
0.0230043
3.29054
0.0266048
0.026956
0.290991
0.025203
0.0253108
0.02506
0.113168
0.0239902
0.630413
0.0226166
0.0245431
0.0233809
0.0224581
0.0252994
0.024483
2.99426
0.0242374
0.923348
0.02357
0.0282624
0.0233679
0.022641
0.397641
0.0247309
0.0255316
2.5076
0.0255079
2.81962
0.025477
3.29307
1.79742
0.649061
0.0244288
0.02249
0.0399486
0.0667603
0.0224392
0.0228308
0.517072
0.0242513
0.0252992
0.098252
0.0449482
0.0248029
0.024231
1.07161
0.0229973
0.0233381
0.0244506
0.0250408
0.514718
0.0248577
0.0234093
0.256232
0.0243557
0.0242532
0.0229695
0.0266074
0.025359
0.0236759
2.48829
0.0433617
0.429279
0.0240026
0.0242439
0.0244158
0.103795
0.0429163
0.0263931
0.237191
0.0244445
0.0401093
0.040491
0.0271232
0.0276796
0.0286962
0.0228359
0.024498
2.11656
0.0249522
0.191086
0.0258309
0.0416837
0.264501
0.0437237
0.0260378
0.0293523
0.028506
0.0280933
0.0272094
0.0267218
2.99748
0.0548064
0.0252786
0.0545501
2.96439
0.726656
0.107249
0.0419533
3.10757
0.0344282
0.023406
0.023639
1.19655
0.285431
0.0353061
0.337475
0.0261076
0.156
3.09667
1.54406
3.04373
0.0250659
2.96916
0.141015
0.0229533
0.0776232
0.0448759
0.0330591
0.0244569
0.0287874
0.0288273
0.0224756
0.0606468
0.0328378
2.9482
0.0240165
0.0555437
0.0235151
0.217877
0.0736795
0.024513
0.082529
0.0269639
0.40606
0.0453418
0.0236357
0.164029
0.0242442
3.462
0.027087
0.0249303
0.0239562
0.178999
0.0243401
0.300536
0.0244118
2.93918
0.0226906
0.0242543
0.104737
0.0261308
0.0244559
0.0240087
0.285922
0.0425432
0.0353449
0.0260728
3.97498
0.0233256
0.0322969
0.0246176
0.0239628
0.045042
0.405685
0.0947939
3.81955
0.0226982
0.0278974
0.0248264
0.187743
0.0271603
0.0530127
0.0415275
0.341254
0.023944
2.95841
0.0242001
0.0248341
0.0245656
0.0258428
0.0457464
0.025141
0.027827
0.0229748
2.51787
0.147449
2.57507
0.0331964
0.0394705
0.0267217
2.05945
0.0234399
0.0235274
0.242065
0.0229957
0.2359
0.0245663
0.0263776
0.0902639
0.0270937
0.107039
0.0884232
3.70722
0.0234143
0.0224923
0.187993
0.0239719
0.0398787
0.117026
0.0330436
2.33487
0.0247164
2.899
0.138479
0.0237715
3.10882
0.0784646
0.0300233
3.18415
0.0569791
0.128521
0.160522
0.0262272
0.755751
0.0736724
0.0320468
0.0227756
3.0412
0.0244156
0.503684
0.0248072
0.4194
0.0257429
0.0249011
0.0249612
0.0244942
3.3987
0.0244188
0.0242514
0.0572075
0.0241598
0.0319168
0.0265837
0.0258158
0.0370763
0.024944
0.0446467
0.0245539
0.0234714
0.0244942
0.0468591
0.024517
0.0838698
0.110786
0.0227308
0.0249541
0.0229344
0.184201
0.024591
0.0229262
0.0227586
0.0229315
0.60638
0.0235513
0.0232991
0.499466
0.244059
0.0449419
0.0418524
0.0249558
0.0269978
0.108727
0.0245233
0.0362075
0.0263662
0.0245453
0.0286503
0.0268187
0.0244518
0.0269563
0.318517
0.0227702
0.0224988
0.177886
0.0295823
0.0574685
0.02425
0.0256297
0.421357
0.0239002
0.0250855
0.0227425
0.0407088
3.86545
0.23345
2.66743
0.0291859
0.0245719
0.0245717
2.24758
0.0245543
0.128118
0.567908
0.0404222
0.081497
0.0244224
0.0253962
0.0292662
0.0239482
0.0235891
0.0439864
0.247127
0.0239421
0.0388709
0.0235901
0.0244936
0.0250327
0.0251439
0.720401
0.0244127
0.0288199
0.0408769
0.0241178
0.0624104
0.0260526
0.045329
0.0247069
0.482913
0.0239385
0.0260462
0.0235576
0.0361964
0.0300657
0.0574959
0.0248329
0.0231415
0.0457196
0.141932
0.0246269
0.0250335
0.339106
0.0276654
0.025078
0.391459
3.32943
0.0266591
3.80863
0.0246451
0.0837402
0.24818
0.0227138
0.029584
0.0667352
0.0872644
0.0268202
0.25966
2.95045
0.023044
0.406979
0.0254556
3.23966
0.0231678
2.92881
0.031294
0.0238976
0.023128
0.0246325
0.0244348
0.0324356
0.0307851
0.869849
0.0239398
0.0354553
0.0255525
0.0237151
0.024659
1.57209
1.20328
2.6343
0.0280814
0.676136
0.0246624
0.0260306
0.307861
2.9916
0.0252596
0.174262
0.0402707
0.0231368
0.0332824
0.0254289
0.0252667
0.0250963
0.0396814
0.0242705
0.107684
0.0266971
0.0467258
0.0237293
0.0245695
0.0323888
0.0244694
0.0423068
0.23151
0.291218
3.27199
0.0240898
0.0242873
0.0248822
0.202357
0.079795
0.0242692
0.0264247
0.0294914
0.122046
0.0245952
3.55362
0.0244462
0.0245892
0.0234531
0.0292706
0.161826
3.08472
0.128746
0.0342448
0.0268934
0.0299265
0.773961
0.024802
0.0827772
0.0246075
0.0271895
0.0242982
0.0240926
0.0249926
0.0246038
0.0484922
1.09284
0.0294231
0.0250696
0.0287163
2.96725
0.118706
3.41804
0.0715814
0.481016
0.405642
1.28764
2.97973
0.0261077
0.0241555
0.320545
0.0252293
0.0615475
0.0242647
3.03138
0.02209
0.400697
0.0244868
0.0257503
0.0331739
0.02397
0.182319
0.0611079
0.0256604
0.0237807
0.0224359
0.0246313
0.0280518
0.0242417
3.26243
0.0224305
0.024804
0.0228622
0.036754
0.0313082
0.0699249
0.0331
0.12504
0.0291459
0.033156
0.17644
0.0228765
0.0230505
0.023943
0.0256264
0.0728025
0.0271093
0.471302
0.100276
0.0239335
0.379969
0.0244679
3.43829
0.0313208
0.382164
0.0334679
0.50269
0.04985
0.0261862
0.024812
0.0239341
0.145509
0.130276
0.0251206
3.66494
0.0251953
0.292234
0.0272099
2.50892
0.0715987
0.0264947
0.502341
0.0235694
0.494384
0.0271353
0.096296
0.0253062
0.0257234
0.030559
3.7901
0.0248416
0.033091
0.0240401
0.673934
2.03683
0.0263837
0.0281376
2.27043
0.026033
0.0256913
0.0251076
0.0435011
0.0494635
0.0256067
0.0268959
0.0246825
0.0263333
0.0250234
0.0268369
0.0252224
2.5494
0.022943
0.0292685
0.0500846
0.0252296
0.0241637
0.0237803
0.487086
0.0315805
0.0332886
0.0224364
0.0664522
3.44612
0.0224593
0.0231557
0.0241869
0.0298708
0.0512563
0.0245677
0.0267934
0.0291638
2.93566
0.0903803
0.0266723
0.0239321
0.0275756
0.0318159
0.0264029
0.0254471
3.14368
0.0269128
0.0260254
0.786159
0.0303488
1.82767
3.19833
0.025879
2.01896
0.0436815
0.0269399
0.072552
3.0759
0.0252435
0.0232378
0.0245961
0.0262384
0.0238918
0.055277
0.0738076
3.11152
0.0231394
0.0833204
0.0919901
0.0335736
0.11146
0.0256573
0.0225103
0.0314604
0.359138
0.0307181
0.0345397
0.0240253
1.88976
0.0244505
0.0285583
0.229367
0.0290196
0.0329071
0.0252266
0.0245836
0.0768483
0.0245734
0.0231741
1.18669
0.0240636
0.0248384
3.9229
0.0253168
0.0462384
2.37632
0.0227124
3.01313
0.0314516
0.0279361
0.0466419
0.0246704
0.0338338
0.0434582
0.0245201
0.0334671
0.0493004
0.0235252
0.0522823
0.0437485
0.188372
0.046449
0.0240354
0.0279798
0.0231093
0.8103
0.320878
0.0231372
0.0264569
0.024813
0.026508
0.0716169
0.0336207
0.0230541
0.0273003
0.0247794
0.0316865
0.0231555
0.0232379
0.0262937
0.0624788
0.0241437
0.266422
0.0989089
0.0241586
2.71124
0.0226264
0.0431186
0.119529
0.0380091
0.0224771
2.79149
0.0263533
0.142457
0.0292289
0.0260785
0.200617
0.0267683
2.4402
0.0237857
0.0712685
0.024439
0.0325613
0.0261833
2.08289
0.0890975
0.0230905
0.0230811
0.0275829
2.89501
0.0224743
0.0256902
0.0263163
0.0225886
0.523133
0.024598
0.0224449
0.0457436
0.0240213
0.0236674
3.07721
0.0766877
0.0249576
0.314079
0.0424799
0.0242537
0.024643
3.6443
0.0224318
0.133787
0.0263292
0.0368657
0.0244105
0.0239126
0.0230958
0.10301
0.43568
2.65465
0.0313408
0.0243135
0.0956134
3.33589
0.0247482
0.0263066
0.0241616
2.78544
0.0250345
0.310142
3.61441
1.27321
0.0240056
0.29711
0.0245766
0.0704739
0.0247301
0.0230612
0.0694032
0.0327195
0.024126
0.0451942
0.112316
0.0726753
0.0345813
0.142574
0.0261915
2.93593
0.160936
0.02432
0.0239653
0.305251
0.0459286
0.0611506
0.0230907
0.0412914
0.0227386
0.0228975
0.0487582
0.0298761
0.0264923
0.100468
0.0236884
0.0291566
0.0236372
0.774492
0.0229192
0.0239152
0.0354091
0.101996
0.0256236
3.23897
3.06799
0.0264991
0.0227348
0.024282
0.0266984
0.0934336
0.0244196
2.94803
0.182254
0.102866
0.0236282
0.0259803
2.58834
0.500523
0.691695
0.144486
0.0225864
0.184212
0.0660823
0.0516915
0.0227164
0.0230483
0.0242046
0.084672
0.0268954
2.33381
0.0244994
0.0230385
0.0240659
3.65865
0.0279947
0.0328863
0.0226025
0.0231685
0.0227733
0.0492441
0.0518552
0.0223809
0.0419787
0.173125
0.274195
0.0234757
0.188188
0.0241026
2.94778
3.46972
0.0227758
0.0230083
0.0491708
0.0247041
0.122993
0.0822436
0.0244072
0.0273549
0.0255726
0.0313039
0.0244149
0.0297323
0.800808
0.0298876
0.0230857
0.8156
0.329286
0.0571197
0.0226841
0.0229056
0.0234784
0.105315
0.0260318
0.0277401
0.0245091
0.0258709
0.0225967
0.106258
0.0228826
0.0231542
0.0227214
0.0229861
0.0254495
0.0258044
0.0460456
0.0260259
3.75588
0.0228916
3.90202
0.0381163
0.303509
0.49726
0.024551
3.00365
0.0288846
0.0254681
0.0437944
0.035822
0.0560091
0.0245922
0.10728
3.81418
0.403196
0.0291041
0.0389057
1.14338
2.19373
0.0245226
0.0242326
0.0259988
3.1833
0.0237988
0.0249434
0.657877
0.0250411
0.0225376
0.165928
0.0734823
0.099759
0.112623
0.0373825
0.0306971
0.0336334
3.70825