/*--------------------------------*- C++ -*----------------------------------*\
| =========                 |                                                 |
| \\      /  F ield         | OpenFOAM: The Open Source CFD Toolbox           |
|  \\    /   O peration     | Version:  v2012                                 |
|   \\  /    A nd           | Website:  www.openfoam.com                      |
|    \\/     M anipulation  |                                                 |
\*---------------------------------------------------------------------------*/
FoamFile
{
    version     2.0;
    format      ascii;
    class       volScalarField;
    location    "100";
    object      p;
}
// * * * * * * * * * * * * * * * * * * * * * * * * * * * * * * * * * * * * * //

dimensions      [0 2 -2 0 0 0 0];


internalField   nonuniform List<scalar> 
37809
(
0.00352324
-0.0493995
-0.0349172
-0.047985
0.00439345
0.0026412
0.00180652
-0.123856
-0.0094729
-0.0182191
0.00974108
-0.00863569
0.00536602
0.00558265
-0.00427481
-0.0222424
0.00381487
-0.0374956
-0.00814501
-0.00994971
-0.021965
-0.0890684
-0.00543902
0.000129777
-0.0393272
0.00333388
-0.0160242
-0.059554
-0.0277872
0.00152117
0.00848253
-0.0415323
-0.00796649
0.00684104
-0.0152135
-0.0079376
-0.0582281
-0.0435142
-0.00741758
0.00366713
0.000157068
0.0545897
-0.0241337
-0.0159518
-0.00643371
-0.012899
-0.0167126
-0.000761089
-0.0140865
-0.0221323
-0.055736
-0.0531115
0.0084022
0.00754516
-0.0153226
0.00456974
-0.0546027
-0.0272108
-0.0591473
-0.0556989
-0.0123613
-0.0227638
-0.0484749
-0.0168359
0.0078872
-0.00394206
-0.0491314
-0.0437282
-0.009013
0.0213904
0.00456322
0.00350572
-0.0519844
-0.0591975
0.000412286
0.001687
-0.021962
0.00325489
-0.0233107
-0.00709762
-0.0173894
-0.039258
-0.0149353
0.00864247
0.019235
-0.0435086
0.00619717
-0.0567782
-0.00815569
-0.0578279
0.00331625
-0.0513203
-0.0386636
0.000429111
-0.0227867
0.00308758
-0.0513613
0.00308203
3.02349e-05
-0.039485
0.00293904
-0.0548356
0.00356179
0.00776891
0.0194816
0.00206118
-0.0908734
0.00323018
-0.138385
-0.0505764
0.00524894
-0.0587008
-0.0363176
0.00364173
-0.0528927
-0.0382548
-0.00332396
0.00390222
-0.00720428
-0.0198506
0.021481
0.0113347
-0.0966255
-0.00643513
0.00340977
0.00391999
0.00298752
-0.00766582
0.00286933
0.00300343
-0.0333023
-0.00385646
0.00531836
0.00342884
0.00298982
0.00283168
-0.0133742
0.0041695
-0.0367808
-0.0318127
-0.00776777
0.0551389
0.00593958
-0.0180504
0.00301286
0.002024
-0.00731685
-0.00186169
0.00292199
0.00296786
-0.0462731
-0.0179591
-0.00681995
-0.0537746
0.00289712
0.00845144
0.00297304
0.0332535
9.11063e-05
0.00224835
-0.00890542
-0.0743608
-0.0411286
-0.0209623
0.00293874
-0.0349964
-0.00905852
0.0199549
-0.00727353
-0.00868095
0.00261867
-0.0207229
0.00368342
-0.0197069
0.00621369
0.00339064
-0.00962058
0.00445194
0.00765057
0.00285616
0.00363239
0.0577511
0.00438821
0.0036234
-0.00703435
0.00326877
-0.0516075
0.0038877
-0.0361081
-0.0446138
-0.0280456
-0.0528694
-0.0101375
-0.00417316
0.00128871
-0.0145349
-0.0144437
-0.0536806
0.00631483
-0.0538133
-0.0231401
-0.0182467
0.00417143
0.00792585
-0.0121263
-0.00347483
0.00225027
-0.0531141
0.00341875
-0.035233
0.00586449
0.00025562
-0.0837102
-0.0200662
0.00378634
0.000100345
-0.00501931
-0.0538211
0.00353857
-0.0107705
-0.0560822
0.00437998
-0.0115588
0.00259516
0.00381647
-0.053737
0.00278068
-0.0567225
0.00290736
-0.0461573
-0.0233419
0.00450442
0.00250143
0.00403424
0.00784902
-0.00107305
-0.0612021
0.00260984
0.00667824
0.00315113
-0.0529376
0.000179824
0.0192624
-0.0503065
-0.0269245
-0.0338857
-0.0592257
0.0191991
-0.0511741
-0.0339956
-0.00533628
0.00276744
-0.0236838
-0.07733
-0.000196833
-0.00684841
-0.0106082
-0.00792796
0.00343009
-0.0159838
0.00384278
0.00437382
0.00339695
-0.000548725
-0.0390451
-0.000831232
-0.0587015
-1.62172e-05
0.0032696
0.00615736
0.00507485
-0.00737221
0.00383293
0.0119902
-0.010584
-0.038804
-0.00106755
-0.0228849
0.00252237
-0.044066
-0.00375557
-0.00514605
0.00589463
0.0500964
0.0397094
-0.00778266
-0.059319
-0.0236619
0.00399205
-0.00557431
-0.00669525
-0.000184879
0.0118607
-0.0356576
-0.0189834
0.00401136
-0.0482872
-0.00526251
-0.00507452
0.0118065
0.00513313
0.00441488
-0.023135
-0.0283768
-0.0205792
0.00132025
-0.00521021
0.00352919
-0.00176082
0.0146964
0.00560652
-0.00061524
-0.0149071
0.0119727
-0.0582832
0.00365519
0.00322172
0.00331158
-0.0127017
0.012279
0.0058747
0.011442
-0.035243
-0.0464245
-0.0516012
0.00358647
-0.0497813
-0.0570135
-0.00921443
-0.00216658
-0.00227695
-0.00159231
-0.0452593
0.00264705
-0.00621854
0.00346559
-0.0185683
-0.0469172
-0.0459705
-0.000882095
-0.0589074
0.00362118
-0.0362874
-0.0475534
0.00304164
0.000698781
-0.0498238
-0.0356392
-0.0497107
-0.0278698
0.00805976
0.00401727
-0.0140992
-0.0442782
-0.0526352
0.0045636
0.000180282
-0.0407141
-0.000267133
0.00359631
0.002743
-0.00849501
-0.018044
0.002771
0.00297041
-0.0344536
0.00365154
-0.0535323
-0.0382046
0.00322381
0.00871473
0.00320455
-0.0208402
0.00295112
-0.0400788
0.00363174
0.00362045
-0.00512048
0.0111519
-0.0509408
-0.0176203
0.000504201
0.0482341
-0.0588976
0.0112233
0.00289881
-0.00694816
-0.020403
0.0014291
-0.0439279
0.00415749
0.00839286
-0.12945
-0.00588859
0.017197
0.00308929
0.00414273
0.00311214
-0.0353783
0.00121541
0.00314494
0.00101285
-0.00161163
-0.0577618
0.00570205
-0.0460234
0.0192742
0.0015005
-0.0106037
0.00921592
-0.0206874
0.00640428
-0.0131064
-0.00255472
0.0500477
0.00296311
0.00126074
0.00658014
-0.0343564
-0.062045
0.00452852
0.00282115
-0.0231348
0.00167909
-0.00543367
-0.0461208
-0.0176409
0.00258873
-0.00940491
0.00452787
0.00261711
-0.0433871
0.00791264
0.0123839
-0.00114825
0.0049682
0.00787891
-0.0355481
0.00347756
-0.0475574
0.00344576
0.00900718
0.00379024
0.0036281
0.00328647
0.00253335
0.00437231
0.00306636
0.00408809
0.00528822
-0.0129773
0.00653633
-0.0348081
-0.00337941
-0.00212181
-0.000284325
0.00177069
0.00518121
-0.00750307
-0.00153574
-0.0524565
-0.000862124
0.00764322
0.00299872
0.00604074
0.0129041
0.00399781
0.00292908
-0.0384349
0.00641645
0.0149547
0.0040666
-0.044518
0.0100568
-0.0524312
-0.0127725
-0.0166386
-0.055486
0.00260266
0.00377038
-0.0333074
-0.00785631
-0.0480408
0.00115833
0.0415625
0.00250801
-0.0341163
-0.0102699
-7.60111e-05
-0.0535036
-0.0184641
-0.000306453
-0.0480632
-0.00719856
0.00344084
-0.00731076
0.00409353
0.00240933
-0.0376704
-0.0418932
0.00259436
-0.0934014
0.00226348
0.00247844
0.00317027
0.00259887
0.00822669
-0.053167
-0.13625
-0.0145775
0.00285338
-0.0550128
-0.00766057
9.31525e-05
0.0428135
0.00112285
-0.0117427
0.0123981
0.0413322
0.00603555
-0.0534084
0.00257357
-0.0560408
-0.0083209
0.00844855
-0.0202531
0.0208579
-0.0533475
3.86178e-05
0.015038
-0.00603886
0.00773784
-0.0323086
0.00643583
-0.0186521
-0.00534502
-0.0178058
-0.0357612
0.00257831
0.00189306
0.00190927
-0.0326209
-0.0534987
0.0123933
-0.0605397
0.0115876
0.00303542
7.46116e-05
0.00682164
-0.0331068
-0.0601264
0.0113779
-0.00316207
0.00695486
-0.0323991
-0.0107964
0.00811509
0.00525462
0.00651179
0.0569725
-0.0427987
0.00167713
0.00295029
-0.0409485
-0.00825724
0.00371493
0.00292655
0.00302375
0.000313788
-0.0318681
-0.0986813
0.0617456
-0.0876945
-0.00580851
-0.00944618
0.00284212
-0.0236808
-0.0202415
-0.00538728
0.00302337
0.00405314
-0.00538514
0.000163785
0.00370195
0.00256318
-0.0353697
0.00362024
-0.0111919
0.0121622
0.00617497
0.00193486
0.00261921
-0.0573575
0.00245346
-0.0576873
0.00472277
-0.0331954
0.00653713
0.00301992
-0.0429746
-0.00125671
0.0100412
0.006124
0.00449024
-0.024488
0.0483846
-0.0244908
-0.0157594
-0.00197435
0.0089622
-0.0459267
-0.0523565
-0.020284
0.0200421
0.000685715
-0.0480838
-0.0176862
-0.0209266
0.0037983
-0.0592951
-0.0584893
-0.00923696
-0.0103382
0.00461803
-0.0347871
0.0029806
-0.0016371
0.0168188
0.00295942
0.00397994
-0.0234093
-0.0508579
0.00629919
-0.00135729
-0.0313927
-0.0200832
-0.00751516
0.00394456
-0.0311665
-0.00235823
-0.0157969
-0.0425864
0.00401136
-0.0080717
0.0028975
-0.0106479
0.00291895
-0.0402557
0.0097755
0.00844478
0.0126831
0.00330452
-0.0537284
-0.018109
0.0130423
0.0093116
0.00672448
-0.0208565
0.00300851
-0.0554515
-0.00210343
-0.0189365
-0.00704172
-0.00135481
0.00396446
-0.014543
-0.0355123
0.00424752
0.00307371
0.00330458
0.000424938
-0.117996
-0.0189107
-0.0481088
0.00391527
0.00367597
-0.0594101
0.00181826
0.00448087
0.0180667
0.00333523
-0.038513
-0.0394415
0.0166658
7.09606e-05
0.00408236
0.00268333
-0.00235436
0.00661333
-0.0262131
-0.0265182
-0.0237098
0.00618868
0.00264764
-0.0384157
-0.0181842
-0.0095145
0.00409945
0.00426831
0.00897276
-0.0203788
-0.049396
0.0108592
-0.0573857
-0.0344516
-0.0873656
0.00361832
0.00796993
-0.0363276
0.00337632
-0.00717374
0.0107014
0.00261756
0.00348686
0.002553
-0.0212632
-0.0113171
0.0626984
0.00127954
8.00164e-06
0.00378219
-0.0107073
-0.00494792
0.011585
0.00776609
0.00275114
0.00237151
0.00298977
0.0566687
-0.0372451
0.0123285
0.00468672
0.00327264
-0.0208624
0.00250496
0.00127106
0.00432189
-0.0508682
-0.0159246
-0.0468113
-0.0196075
-0.0895934
-0.00927961
-0.036068
0.0439386
9.14837e-05
0.00412583
-0.0321949
-0.00066943
0.00517331
-0.0726593
0.00286773
-0.0499818
0.00413275
-0.0104472
-0.00425826
0.0039759
-0.0428699
0.017251
0.0116395
-0.000699408
0.00764711
0.00358357
-0.00520842
-0.0416501
-0.00742569
0.0010076
-0.00617408
0.038014
-0.0335077
-0.0298423
-0.042044
0.00199666
-0.0468891
0.00516693
-0.0192618
0.00259606
-0.00498726
0.00350267
0.0119874
-0.0468615
0.00252525
0.00250435
-0.0493289
0.00359708
0.00512571
-0.0446821
0.0122739
-0.053173
0.000432948
-0.0376036
-0.142841
-0.0778409
-0.00414743
-0.05322
0.00202587
-0.00801521
0.00647411
0.00145946
0.00700281
0.0382617
-0.000311068
0.00134711
-0.0383971
-0.0242721
-0.00853257
-0.0391606
0.0597082
0.00398197
0.012991
-0.0234973
-0.00238363
0.0130884
0.00427938
0.0132498
-0.0125866
0.000373205
0.00274136
0.00851434
0.0025665
-0.01944
-0.00715836
-0.017747
-0.00103609
-0.0258699
-0.0477454
0.00323241
-0.000505594
0.00425174
0.00277186
8.67118e-05
-0.00279303
-0.053021
-0.00768729
0.00295157
0.00681571
-0.01873
0.00980028
0.00558324
0.00478812
0.00845799
0.00276961
-0.0187767
0.00431773
-0.00757685
-0.0532547
0.00381825
0.000104448
-0.00601792
-0.00904801
-0.00838077
0.000186679
0.00410031
0.0102164
0.00374369
-0.0393402
-0.00825753
-0.0316569
0.00256104
-0.0494065
-0.00708666
-0.00047337
-0.0579303
0.00461992
-0.01021
-0.0846142
-0.0057844
4.45755e-05
0.00259743
-0.00413524
4.59751e-05
-0.0515399
0.00317788
-0.00159286
0.0122083
-0.0354845
-0.0323677
0.00292998
-0.00125441
-0.00932329
-0.148341
0.00524826
0.00361415
-0.0156862
-0.0395671
-0.00941451
-0.0494167
-0.047217
-0.00451987
-0.0479348
-0.0388174
-0.117118
-0.0585509
-0.0592995
0.00828634
0.00199486
0.0385539
-0.0029471
0.00231492
-0.00375467
-0.059333
0.0138659
0.00521886
0.00261995
0.00271185
0.000991016
0.00358742
0.00196631
-0.0075599
0.00351827
0.00493672
-0.0210332
0.00165243
0.00348184
-0.0471562
0.00282901
-0.0518323
0.00819596
-0.00707309
-0.0400523
0.00373885
0.00288073
-0.0541711
-0.0592864
-0.00201919
-0.0101927
-0.00708232
0.00267737
0.000109841
-0.000311253
-0.108151
0.00519733
0.0067582
0.00832855
0.0171686
-0.00567146
-0.0558824
-0.0374231
-0.0484243
0.00497427
-0.00502585
-0.0541311
-0.0361814
0.00378274
0.00321804
-0.0170283
0.00258867
0.00335598
-0.010145
-0.01748
0.000149094
-0.0234513
0.0213503
-0.01012
-0.0519776
0.00419428
-0.0929859
0.00309396
-0.0506223
-0.0014778
-0.0586164
0.00338866
-0.103436
0.00136857
0.000365585
-0.0350161
-0.0517666
0.0225861
0.00405977
0.00422607
-0.0510583
-0.024019
-0.0628968
-0.0332463
0.0625182
0.00319425
-0.0336866
0.00262435
-0.0267207
-0.0576562
-0.0273835
-0.00697778
0.00403795
0.0570996
-0.0222983
0.00205963
-0.0441358
0.0168991
-0.020434
-0.0470103
-0.0469116
-0.0358218
-0.0329914
-0.0383966
-0.036623
-0.0340019
-0.00592804
0.00178191
-0.00322025
-0.0194054
0.00247587
-0.0346749
0.00483205
0.00243498
0.0109468
-0.0270349
-0.00810567
0.0018748
0.00845581
0.0038316
0.00224862
-0.0096637
0.00547663
0.00403545
0.0456715
-0.0477279
0.0202394
0.00401606
0.00410661
0.00964975
-0.0487941
0.00357619
-0.037062
-0.0314082
0.00228475
-0.0143225
0.00359579
0.00261738
-0.100302
-0.00280525
-0.0110322
0.0103715
-0.0257735
-0.0246149
-0.0193405
0.00509058
0.00414603
-0.0261761
0.00122965
0.00530781
0.0164461
0.0125786
-0.0475716
0.00411578
-0.000478022
-0.0510973
0.00831106
-0.0543146
-0.0145278
0.00078944
-0.0265521
-0.0542109
0.000173342
-0.0163447
-0.0280104
-0.0675795
0.00642452
-0.0199339
-0.00787716
-0.0421414
0.0153139
-0.00322347
-0.0108871
0.00245952
0.00305136
-0.0885435
0.00845781
-0.0356923
-0.0338195
-0.0128196
0.00917303
0.0128211
-0.0691414
-0.00688216
0.00122886
-0.0444583
-0.0536838
-0.0358331
-0.0264697
-0.00766319
0.00459528
-0.0126896
-0.00639196
9.57216e-05
-0.0306822
-0.0218945
-0.0342661
0.00286337
-0.0434309
0.00327448
-0.0099572
0.00405996
0.0102696
-0.0375314
0.00356254
0.0105321
-0.00904006
-0.0101317
-0.0453211
-0.0467266
0.00316931
0.00526956
0.00250622
0.00329257
0.00442725
-0.0169818
0.000704751
-0.00209071
-0.0463005
-0.010064
0.00483005
-0.0392775
0.00308556
0.00953307
0.00260189
-0.0588584
0.00641735
-0.00290715
-0.002099
0.000165922
-0.024778
0.00369616
-0.048356
0.00758637
0.00503214
0.00304094
0.0105673
-0.0445386
0.00489035
0.00999902
0.00327947
8.91008e-05
-0.00951447
0.011146
0.00107992
0.0090843
0.00929304
0.0615616
-0.013441
0.00396736
-0.0190053
-0.0471467
0.00807942
0.00369125
-0.0059027
-0.00719849
0.0037079
0.00182953
-0.00454858
-0.0523092
0.024463
-0.0369621
-0.132735
-0.0353942
-0.0558179
0.00602868
-0.0528599
-0.0330315
0.00274531
-0.0383999
0.00294594
-0.0102406
0.00602212
-0.0505854
0.00266961
-0.00710484
-0.00856214
0.00414802
0.00423894
-0.0204979
0.00402456
0.000766173
0.00239113
0.00401153
0.00333517
0.00365668
-0.0534287
-0.0277515
-0.00701254
0.00408109
-0.0186925
0.00412082
0.00402337
-0.0492029
0.00331849
0.00730634
0.00232064
0.00256082
0.00282388
0.00356072
-0.0124905
-0.0184051
0.000413313
-0.052416
-0.00386016
-0.0384508
-0.013034
0.00355123
-0.0373413
0.0102934
0.00284504
0.00410254
0.002495
0.00268654
0.00296161
-0.00417824
0.0036565
-0.0388415
0.00513298
-0.0255116
-0.0130127
0.0040752
0.00323172
0.000887095
-0.00315088
0.00253455
0.00401946
-0.0252964
0.00152631
-0.0639498
0.00332629
-0.003539
0.00130905
0.0459201
0.012629
0.00910198
0.00320494
-0.00113569
-0.0615447
0.00424788
0.00325433
0.00400546
-0.0184061
-0.0493622
0.00831012
0.00393357
0.00215627
-0.0252971
-0.00446765
-0.0330307
-0.048641
-0.0229755
-0.0190084
-0.0473441
-0.00681318
0.00179662
0.00132706
-0.0906311
-0.157379
0.00284339
-0.006872
-0.00483128
-0.00424902
0.000276275
0.00399399
-0.0400974
0.00253184
-0.0516311
0.00258722
7.15247e-05
-0.0126048
0.00163277
0.00209818
0.00480622
0.000105602
-0.0363778
0.0027721
0.00420472
0.00212423
0.002514
-0.0314704
0.000299014
-0.0125416
0.00229052
0.000213613
-0.0215979
-0.0520539
0.00610816
0.0116584
-0.0552501
0.00626261
0.00427744
-0.00354765
-0.018491
-0.0164182
0.0172927
0.00551711
0.00398069
-0.103448
-0.00496144
0.000698338
-0.00256133
-0.0688302
-0.000417194
-0.0545495
0.00239098
0.00760339
-0.0310157
-0.00322923
0.00490709
-0.016594
0.0021803
0.00227472
0.00383995
-0.00556072
0.00267603
0.00327239
0.00703761
0.00243169
9.18127e-05
-0.00518184
-0.0196995
0.0022233
-0.0567144
0.00264985
0.00210321
0.0040625
-0.0355107
0.00516813
-0.0485799
0.0225368
-0.0100864
-0.0345463
-0.0614316
0.00205655
-0.128318
0.00397611
-0.000105777
0.00101966
0.0032933
-0.0327455
-0.0458609
-0.00151211
0.00268073
0.0020774
0.00220706
0.00138065
0.00651218
0.00208412
-0.109299
-0.050424
-0.0436791
0.00175035
-0.00198848
0.0250773
-0.0458721
0.00202407
0.00813346
-0.0411892
0.00376937
-0.0021862
-0.00310375
-0.0516986
-0.0127509
0.00878156
-0.0537095
0.00264615
0.00677962
0.00534785
0.00281191
0.00404169
-0.030809
0.00211718
-0.00301211
-0.152572
-0.0350822
-0.0517299
-0.0534666
-0.00369009
-0.0378939
0.00176362
-0.00653902
0.00416189
-0.0177074
0.00181788
-0.00674319
-0.00663302
0.000433363
0.000565123
0.00369008
0.0127267
0.000372671
0.000375809
0.0101888
-0.00636395
-0.0302546
0.00252077
-0.0603178
0.0105762
-0.00441472
0.00176966
0.00403818
-0.0407262
0.00221754
0.000155893
0.000514387
-0.0401106
-0.005088
-0.0437221
-0.00166031
-0.0582986
0.00417036
-0.00878219
0.00130435
0.0152283
-0.0115484
-0.04597
-0.059381
0.0036138
0.00178368
-0.0470152
-0.0512527
-0.00272282
0.00294342
0.00416765
-0.0272923
0.0059041
0.00116862
-0.0518105
0.000913945
-0.0587571
-0.0409728
-0.0474109
-0.0155872
-0.0058036
0.00914632
-0.0238784
0.000968975
-0.086511
0.00163472
0.00248405
0.0428047
0.00403145
0.00865951
-0.0484144
0.00278367
-0.0541316
0.00401957
-0.007558
-0.048636
-0.0503926
0.0056794
-0.065878
0.000169372
0.0017338
-0.0502917
0.0017602
-0.0455344
-0.0404976
-0.035516
-0.0380556
-0.00934623
-0.041694
-0.00595992
-0.00164351
-0.00235115
0.00915767
-0.0354827
-0.0438354
-0.0116225
-0.0337628
0.00239133
-0.0408451
-0.00658348
0.00497452
0.00485714
-0.00612919
0.000913919
0.000726423
-0.00998001
-0.0598144
0.00459774
-0.0302713
0.00176311
0.00209312
-0.0405529
0.00288079
-0.0513446
-0.00657389
-0.0220541
-0.0520252
-0.000128353
0.00280151
-0.00618889
-0.00922995
-0.011378
-0.0489432
0.00282529
0.0554673
-0.00750266
0.00511204
-0.0189214
0.00270682
-0.0117854
0.0027148
0.00207515
-0.00944397
0.0110721
-0.0510211
-0.0439567
0.0158907
-0.0147455
-0.0330322
0.00600566
-0.0015781
-0.00517066
0.00498448
-0.0380714
-0.0507155
0.00331834
0.00434041
-0.040574
0.00701873
0.00411664
-0.0364786
-0.034307
0.00379148
0.00361238
-0.00675791
0.00197393
0.00498026
0.00539766
0.0522959
-0.0237151
0.00970287
0.00329132
0.00658236
0.00922678
-0.00600549
0.00168243
-0.0487894
0.00264883
-0.00856999
0.00231786
-0.0381723
0.005086
-0.00756517
-0.00146834
0.00696055
-0.00424184
-0.0202652
0.000858857
0.00345488
-0.0830684
-0.0489747
0.0038197
-0.034925
-0.0518891
-0.0588437
0.00378051
-0.0526664
-0.0252757
-0.0417636
-0.0529024
-0.00937944
-0.0520542
-0.00291553
-0.0121101
-0.0359349
-0.0334679
-0.0234659
-0.0585095
-0.0514013
0.00411659
0.00834174
-0.00581802
0.0569498
-0.0233118
0.00223357
0.0033755
-0.0303464
0.00689118
-0.0630647
0.010804
0.00234736
-0.0497455
0.00639604
-0.0135756
0.0389594
0.01892
-0.033972
0.000347936
0.00214834
-0.0451071
0.00584932
0.00452548
-0.00888423
0.00346702
-0.0238582
0.0043609
0.00228665
0.00775836
0.00649718
-0.0520526
0.00231729
-0.00939881
-0.0397139
-0.010461
-0.0624543
0.00669851
-0.0228502
-0.0181344
-0.0558049
-0.0445999
0.00433164
-0.0408163
-0.0261882
-0.0060252
0.0167998
0.000944521
0.00336785
-0.0349242
-0.00580035
-0.00567964
0.0303099
-0.0466566
-0.0222975
0.00478947
-0.0345205
0.00685009
0.00699338
-0.00554205
0.0128816
-0.0467182
0.00268182
-0.00248807
0.00201687
0.00469144
0.00358105
0.00358911
-0.0514487
-0.0487917
-0.0519816
-0.0338033
0.00336028
-0.000594861
-0.0356698
-0.0248568
-0.0597467
0.00817072
0.00202069
0.00988635
0.00403149
0.0456358
-0.0457823
-0.0360079
-0.00232117
-0.00586278
0.00905198
0.0536249
0.0595297
-0.00422459
-0.042022
0.00679491
-0.00756712
0.00336624
0.00333873
-0.0513759
0.0016134
-0.0511843
0.00654279
-0.0297256
0.00262092
0.00378094
0.00359946
-0.0346669
0.00486715
-0.0297763
-0.0456299
-0.00687552
-0.0586365
0.00442973
0.040309
-0.00392013
-0.0256239
0.00336323
0.00656175
0.00886674
0.00638928
0.0086956
0.00540588
-0.00694173
0.00328324
0.00200304
0.00583508
-0.0438473
-0.0344576
-0.0110287
-0.0368893
-0.03434
0.00397908
-0.052142
-0.0321698
0.00377049
0.00443634
0.00314737
-0.00361667
-0.0350315
0.0143492
-0.0772628
-0.0385964
-0.0611664
-0.00640483
-0.0410845
-0.0208816
0.0031671
-0.00882651
-0.0233288
-0.0024706
0.00587091
-0.00339139
0.00380554
-0.00228749
0.0135156
0.00276628
0.00246709
-0.16302
0.0128476
-0.00622905
-0.00580105
-0.00955377
0.00279659
0.0042447
0.00505881
-0.05448
0.00245665
-0.020823
-0.00168992
0.00147061
-0.00510958
-6.9314e-05
0.00407102
-0.0212338
0.0080924
-0.00645108
-0.00621834
0.00482017
0.000510741
0.00347532
-0.00410343
-0.0413846
-0.0090673
0.00471042
-0.0504109
0.00420367
0.0103746
0.000130978
0.00254596
-0.0448446
-0.00543767
-0.036132
-0.107687
-0.0405151
0.00256026
0.00486468
0.00430121
-0.0566329
0.0042774
0.00949909
0.00306503
0.0319284
-0.0450135
0.00761088
-0.00856355
0.00320418
0.00232364
-0.00773404
0.00344421
-0.00923036
0.000149823
0.00229189
-0.0597323
-0.0572639
-0.00201443
0.00417906
0.0409787
0.00319096
-0.0477512
0.00423742
0.00601964
0.00368113
0.00393095
-0.136159
-0.0309648
0.00314698
-0.00734706
-0.0106333
0.00519056
-0.0356668
0.000274119
-0.0260445
0.00604698
-0.00889251
-0.0472868
-0.0139953
-0.0473973
0.00317972
0.0153634
-0.0505306
-0.00791993
-0.00355471
-0.0215
0.0442275
0.00468394
0.00828788
0.00150968
0.00237085
-0.0546493
0.00722883
-0.0560311
-0.0509587
0.0480939
0.000236304
0.0139207
0.00836917
-0.0109836
0.0173251
0.00432742
0.00369922
-0.00301842
0.0147337
-0.021376
-0.0233215
-0.0216715
-0.0117796
0.0118472
-0.00114294
-0.0500829
0.00357448
0.00174652
-0.00594053
0.00519539
0.00653209
0.0527596
-0.0215822
-0.00638065
-0.0463882
-0.00090394
-8.85215e-05
0.00302454
0.00510622
0.000940858
-0.00639851
0.00207517
-0.0225585
-0.0475359
0.00238248
0.00456386
0.00686152
0.00276961
-0.0299149
0.00250928
-0.00121712
-0.0394215
0.0103544
0.00919975
-0.056081
-0.0493723
0.00253224
-0.014028
0.00310127
-0.0203524
-0.0554013
-0.0783292
-0.0452697
-0.0147955
-0.00293691
-0.039734
-0.0509902
0.00433226
0.00487473
-0.0810505
0.0503987
-0.00778359
-0.0428845
0.00164221
0.00407767
0.00200982
0.0176062
-0.09105
-0.025124
-0.0479105
0.00312408
0.0457271
0.00350031
-0.0293171
0.00239139
-0.0576042
0.00374537
0.00837623
0.00881109
-0.0422126
-0.0492157
-0.0162327
0.0131838
-0.116544
0.0139439
-0.0201514
0.00199776
0.00281847
-0.00594311
-0.00837118
-0.0553551
0.0168388
-0.0283686
0.0157967
-0.00800379
-0.0591396
0.00334264
0.00489272
-0.00459701
-3.86318e-05
0.0402532
-0.00568838
-0.0356639
-0.0148871
0.00354882
0.00456336
8.51407e-05
0.0176407
0.00301909
-0.121591
-0.00594157
-0.0133659
-0.00374049
-0.0418596
-0.00446248
-0.130075
-0.0223043
0.00487306
-0.0580135
-0.00162381
-0.0156354
-0.00794411
0.00447728
-0.00100647
-0.0477487
0.00905548
0.00391886
-0.00636274
0.00294977
-0.00620395
0.000212438
0.00287797
0.00865063
-0.0225132
0.00524271
-0.0161071
0.00358519
9.1882e-05
0.000275971
0.000303423
0.00171353
-0.037841
0.00149397
-0.0221895
0.00337298
0.00199983
0.00418899
-0.0550592
-0.08671
0.0125711
-0.00472428
0.00692473
0.00183995
-0.0203495
0.00377174
-0.00116312
0.00474138
0.00264558
-0.0307024
0.00642791
-0.00633587
-0.0375645
-0.029148
0.00763434
0.00354762
-0.0392031
-0.13659
-0.00864967
-0.0475367
0.00414801
0.00381858
-0.0327924
-0.0252381
0.00451615
-0.137307
-0.0511105
-0.0592894
-0.00834792
0.00641604
0.00418593
-0.0464631
-0.0514408
-0.034687
0.015611
0.00413739
0.00279926
-0.0498237
-0.00835718
0.00415819
-0.00389396
0.00269236
0.0379386
0.00320989
-0.00898554
0.00982967
0.00408203
0.00383597
0.0121923
0.00346755
0.0103146
0.00826925
-0.00166907
0.00109249
-0.0125086
0.00371911
0.00372041
0.00578375
-0.00596307
0.00261956
-0.00833473
-0.00997769
0.00704179
0.0082793
0.00374507
0.00356677
-0.0558482
0.00838712
0.00387943
-0.0601955
0.00557769
-0.0233084
-0.00274874
0.0049171
-0.00858345
-0.0207146
0.00647449
-0.0415069
-0.00332202
0.00386062
-0.0459937
-0.00163869
0.00713531
0.00539294
0.00112799
0.0037751
-0.026058
0.00316445
-0.0437806
0.00303782
0.00345562
-0.0100275
0.0252035
-0.010262
-0.000887226
0.00339567
0.00901115
-0.0665005
-0.0197371
0.00155562
0.0405613
-0.00952938
0.00352932
0.00310607
-0.00728461
0.00318319
0.000687008
-0.0803607
0.0017183
-0.0017601
-0.011541
0.00553709
-0.00149073
-0.00123196
-0.0933659
-0.00559504
-0.0100956
-0.00238673
-0.0069821
-0.0501117
0.0146989
0.00580838
-0.0470571
-0.0126506
0.00324846
0.00440848
0.00332625
0.010135
0.0036931
0.00421194
-0.0485997
0.00256633
-0.0078314
0.00619006
-0.00447038
0.00483517
-0.0391847
0.000886837
-0.0465595
-0.0506285
0.00887106
-0.054725
-0.0020491
-0.041632
-0.0652457
-0.0161254
0.000144946
0.00440724
0.00323578
0.00268957
-0.0180101
-0.0508052
0.00332817
-0.0606564
-0.00470551
-0.0630796
-0.0607774
0.00450972
-0.00169768
-0.00850302
0.0157132
-0.0176093
-0.0317664
0.00476924
0.00328186
-0.0371317
-0.00419
-0.0562232
0.00769474
-0.0488314
-0.0285422
-0.0645495
0.00644662
0.00431313
0.0032752
-0.0108606
-0.00905259
-0.00428108
-0.0103494
-0.0584868
0.0044071
-0.0570462
0.00349553
-0.0133529
0.00735124
-0.00835836
-0.0482792
-0.00325788
0.00282206
0.00210225
0.00289168
0.00602457
0.012854
0.00103152
0.00317042
-0.0235361
-0.0244453
-0.0292585
-0.00990235
0.00437919
0.00268637
-0.019995
-0.00739934
0.00463178
0.00649892
0.00307373
-0.0382942
0.00618542
0.00434621
-0.0197985
0.00878528
0.00704313
-0.0263999
0.00387057
-0.11181
-0.0514675
-0.0241754
-0.0254697
-0.0483454
0.00503607
0.00478944
0.00407977
-0.0482702
-0.057057
-0.0512024
0.00869984
0.00323899
-0.0409157
-0.0210596
0.00648711
-0.048384
0.00596032
0.00168738
0.00487657
0.0209909
0.00268208
-0.0357332
0.00124566
-0.00851362
0.00349405
0.00179323
0.00636344
-0.00684043
-0.0450331
0.00513255
0.0598064
0.0041339
-0.0123783
0.00295246
0.00127412
-0.0260276
0.00452881
-0.00691978
0.0585328
0.00325156
-0.131176
-0.0237795
-0.0368353
-0.0582087
-0.0384114
-0.00434653
0.00190569
0.00440783
0.0133744
0.00169405
0.00279679
-0.0415403
-0.00191238
-0.00911969
-0.0485345
-0.030095
-0.0137478
-0.00096142
-0.0555692
0.00240198
0.00302351
-0.00443424
-0.015983
-0.0124376
-0.00453139
0.00287894
-0.0491293
0.00453446
-0.00352401
0.00312943
-0.0043906
0.00374582
0.00345367
-0.142442
0.0126834
0.00579863
0.000918857
-0.00342835
-0.00544523
0.00890195
0.0128219
0.00604774
-0.0647659
-0.00543006
-0.0252376
0.00565514
-0.0356684
-0.0138714
-0.0267191
0.00282272
-0.00757468
-0.0240828
0.00567239
-0.0608617
-0.0208149
0.0101263
0.0034406
-0.0106982
0.00589732
0.0087055
-0.0116522
0.00502577
0.0020522
0.00644227
-0.065692
0.00839556
-0.00776048
-0.0103722
-0.0461796
0.000455553
0.00171933
-0.0324578
-0.072384
-0.00913061
0.00395426
0.00404671
-0.0280997
-0.0140669
0.00375919
-0.0449645
-0.0161432
-0.0522923
-0.0522027
-0.0477122
-0.0571482
-0.0202057
-0.046724
-0.0148433
0.00258929
-0.0436167
-0.00911767
0.00483214
-0.00414044
-0.0179343
0.00900985
0.00185195
-0.0316351
0.0116261
-0.0803407
0.00360902
-0.00638362
0.00426841
-0.0510989
0.0140435
-0.00794334
0.0199341
0.00588717
-0.00674226
-0.0576461
0.00403214
-0.00978087
0.00104544
-0.0459747
0.00686746
0.0049565
0.00164234
-0.059314
0.00457423
-0.0499541
-0.00534027
-0.0522466
0.00234565
0.00457864
0.007247
0.00327973
-0.00559345
0.000536978
-0.00796696
0.0104274
0.00518748
-0.0153588
-0.0464507
0.00406638
-0.0192204
-0.00279791
0.00153095
-0.044722
-0.00861415
0.0297353
-0.0391751
0.00237653
-0.00190656
0.00335434
-0.0608196
0.00860713
-0.0334234
-0.0249328
0.0012571
0.0038989
-0.0499512
0.0050746
-0.000352487
-0.00913465
-0.0143497
-0.0471075
-0.0211578
0.00543124
0.00264704
-0.152315
-0.0525569
-0.128617
-0.0173975
-0.0253802
0.00111099
-0.0447684
0.00317478
0.00417734
0.0294848
0.00310589
-0.0700778
-0.00900248
0.00321384
0.00783239
3.94255e-05
-0.0165392
0.0174009
-0.0383132
0.00353258
0.00192882
0.00874065
0.00496875
-0.00334419
0.021785
0.00950246
-0.0831057
0.00200828
-0.103732
0.0268288
0.004277
-0.0706506
0.00850036
0.00178343
-0.0527388
-0.0458503
-0.0548728
-0.0507212
-0.00127479
-0.042658
-0.0501105
-0.0267919
0.00288314
-0.0518913
0.00355605
0.0064737
-0.0142915
-0.00228242
0.00287949
-0.0082793
0.00554209
-0.00745921
-0.0344229
-0.00640377
-0.0016646
-0.0456765
0.00503976
-0.0201847
-0.0333408
0.0028915
0.0134283
0.0029663
-0.00529813
-0.00911257
0.00349594
0.00254908
-0.0527889
-0.00816401
-0.0265309
0.0202007
0.00274075
-0.00183176
0.00237596
-0.0646481
-0.00671746
0.00293589
0.00285556
0.00284718
-0.00227384
0.00426714
0.00355992
0.00552013
-0.0683486
-0.0308461
0.00625354
0.00298089
0.00841601
0.0342402
0.00354306
0.012902
0.00516986
-0.00858381
-0.00452802
0.00652346
-0.00692877
-0.0352403
-0.0477968
0.00287903
0.00193279
-0.0520256
-0.0332031
-0.00442981
-0.00244529
-0.00226226
0.00388772
0.00456246
-0.0024203
0.00253814
-0.0259773
-0.0367862
0.0310178
0.0281511
-0.00260623
-0.00906263
-0.00896241
0.0414546
0.00452688
0.000223016
-0.00201749
-0.0342658
-0.00139264
-0.00614403
0.00293253
0.00893054
0.00387888
0.00283163
-0.00277946
-0.0682266
0.00492331
-0.0246797
0.00281066
0.00452621
-0.0174882
0.00383018
-0.0057231
-0.00576772
0.00917108
0.00621404
0.00515619
-0.0308577
-0.0105423
0.0160781
0.00383117
-0.0440572
0.00146641
0.000220414
0.00425661
-0.000244142
0.00745084
-0.0222028
-0.000119951
0.000113122
-0.0527114
-0.0126909
0.00376789
-0.0176912
-0.0206785
-0.00261159
-0.0127819
-0.025344
-0.0489199
0.00528384
-0.0404469
0.00452906
0.00798834
-0.052295
0.00269402
-0.0327305
0.00895116
-0.0253501
-0.027786
-0.0483248
-0.0517084
0.00358256
-0.00591104
-0.00575605
-0.0542282
0.00273353
-0.0505404
0.0073072
0.00205363
0.00373237
0.00028246
-0.00671053
-0.017858
-0.0343397
-0.0230792
0.00237604
-0.00830355
-0.00281962
0.00438762
0.0022521
-0.0384641
-0.0262082
-0.112195
0.00652105
-0.010939
0.00308536
-0.00288455
-0.00530319
-0.11244
-0.0161945
-0.0515888
0.00986924
0.00374903
-0.0345248
0.00294242
0.00636738
-0.0131117
-0.03474
0.00534477
-0.0529514
0.00780279
0.00610202
0.00441812
0.0057482
-0.026781
-0.0040681
-0.0204652
-0.0675298
-0.00190485
-0.0368732
0.00512183
0.00243529
0.00559943
-0.0517193
-0.0441604
0.0024218
0.00520297
0.00268258
-0.0511219
-0.00629114
-0.0362285
-0.0068915
-0.00912589
0.00396074
0.00896797
-0.0519519
-0.0644662
-0.0546413
-0.0499078
0.00578075
0.00475606
-0.0544765
-0.0140828
-0.00237803
-0.00468573
0.00280001
0.00253309
0.00505858
0.00134927
-0.00664858
-0.0378884
-0.0763177
0.00271083
0.00163443
-0.0368371
-0.0556486
0.00535588
-0.0493757
0.0236708
0.0336302
0.00213336
-0.0455491
-0.075674
0.00478149
0.000522721
-0.0472311
0.00168848
0.0094254
0.00256922
-0.0607123
0.000144422
-0.0221418