/*--------------------------------*- C++ -*----------------------------------*\
| =========                 |                                                 |
| \\      /  F ield         | OpenFOAM: The Open Source CFD Toolbox           |
|  \\    /   O peration     | Version:  v2012                                 |
|   \\  /    A nd           | Website:  www.openfoam.com                      |
|    \\/     M anipulation  |                                                 |
\*---------------------------------------------------------------------------*/
FoamFile
{
    version     2.0;
    format      ascii;
    class       volVectorField;
    location    "100";
    object      U;
}
// * * * * * * * * * * * * * * * * * * * * * * * * * * * * * * * * * * * * * //

dimensions      [0 1 -1 0 0 0 0];


internalField   nonuniform List<vector> 
37809
(
(1.00917 -0.00105925 0)
(1.08096 0.0620175 -6.64759e-21)
(1.05878 0.02682 -3.42465e-21)
(1.09086 0.0379979 -7.26241e-21)
(1.01129 -0.000827385 0)
(1.00253 -4.75481e-05 -5.60367e-22)
(1.00572 -0.000125998 2.66558e-22)
(0.831339 0.056152 1.51178e-20)
(1.02895 0.0168448 -1.50505e-21)
(1.04025 0.0477398 -2.81328e-21)
(1.01509 0.00572106 0)
(1.03192 0.0316896 0)
(1.01163 0.000468786 7.65832e-22)
(1.01501 0.0205676 -4.39285e-22)
(1.02494 0.0195841 -7.4963e-22)
(1.04405 0.020899 1.57316e-21)
(1.00329 -4.56237e-05 3.99544e-22)
(0.875647 0.0482385 -3.47098e-21)
(1.03147 0.0315083 0)
(1.02592 0.00847055 0)
(1.04375 0.0211571 -1.92713e-21)
(0.856185 0.0384173 1.23312e-20)
(0.868107 -0.0739337 1.29906e-21)
(1.02447 -0.00193464 2.38575e-25)
(0.488005 0.0142059 1.92697e-21)
(1.0022 6.41258e-05 1.7946e-22)
(1.03882 0.0321844 3.36752e-21)
(0.59365 -0.0208891 0)
(1.05167 0.044111 0)
(1.00839 -0.000340757 2.98882e-22)
(1.00725 0.00156023 2.29616e-21)
(0.570751 0.0219533 -5.20923e-21)
(1.01952 0.000484899 9.44465e-22)
(1.03053 0.0602216 0)
(1.03803 0.0333322 -7.97797e-22)
(1.01948 0.000386776 0)
(1.08587 0.0585635 0)
(1.0659 0.0568367 -7.0438e-21)
(0.913539 -0.240287 0)
(1.01171 -0.00150504 0)
(1.01461 -0.00144993 5.33334e-23)
(0.91822 -0.0583119 -3.04231e-21)
(1.04606 0.0205897 -3.5958e-21)
(1.0372 0.0492371 1.07605e-21)
(1.01734 0.000724495 2.15542e-21)
(1.03579 0.0348287 -2.86398e-21)
(1.03732 0.0182518 0)
(1.02337 0.0229579 6.63239e-23)
(1.03564 0.0228269 0)
(1.03044 0.110728 -2.50913e-21)
(0.569796 -0.0322077 -8.78858e-21)
(1.02006 0.228535 1.79828e-20)
(1.02606 0.0686541 -7.2658e-22)
(1.02863 0.0558412 0)
(1.03811 0.0328343 3.47041e-21)
(1.01137 -0.000443498 -3.97076e-22)
(1.09624 0.0698554 8.74029e-21)
(1.05041 0.0287806 -2.43841e-21)
(1.10845 0.0648296 0)
(0.587634 -0.00661689 5.78757e-21)
(1.03526 0.0346866 2.56366e-21)
(1.04573 0.0446248 1.00423e-22)
(1.0918 0.0385962 7.69177e-21)
(1.03825 0.0494189 -1.08579e-21)
(1.01016 0.00569971 -7.70168e-22)
(1.02458 0.0195615 -4.07525e-22)
(1.08039 0.0617276 0)
(0.460181 0.00550855 0)
(1.03043 0.0433259 -6.261e-22)
(1.01054 0.0103342 3.77724e-21)
(1.01147 -0.000503515 -3.26193e-22)
(1.00399 0.000107149 4.91203e-22)
(1.03597 0.204378 -1.17142e-20)
(1.08284 0.0663636 0)
(1.00568 -5.20662e-05 -2.11534e-23)
(1.04511 -0.0356963 -1.27043e-22)
(1.03087 0.108343 -4.40677e-21)
(1.0066 -0.000378757 0)
(1.04491 0.0193062 -1.70325e-21)
(1.01628 0.000337519 7.64539e-22)
(1.03874 0.0505077 2.30111e-21)
(0.906346 0.0480062 0)
(1.03166 0.0055975 0)
(1.0187 0.0690181 0)
(0.998365 -0.0846575 -4.83615e-21)
(0.44634 0.0043332 -3.74008e-21)
(1.01145 0.00413569 4.77316e-22)
(0.573542 -0.0261155 5.47368e-21)
(1.02955 0.0429648 8.26851e-22)
(1.0856 0.058545 3.0229e-21)
(1.00113 -2.05987e-06 0)
(0.550112 -0.00721474 -3.66367e-22)
(1.06358 0.0369359 0)
(1.00491 -2.25372e-05 0)
(1.04576 0.0438683 0)
(1.0094 -0.00106825 2.96759e-22)
(0.761973 0.0279859 0)
(1.0093 -0.00105667 0)
(1.01125 -0.000568109 0)
(0.479574 0.0131444 0)
(1.00503 0.000275663 4.38863e-22)
(1.09691 0.0688267 -1.48914e-20)
(1.00918 -0.00103823 2.1085e-22)
(1.0103 0.00535293 1.52027e-21)
(1.00373 -0.0765769 -3.21829e-22)
(1.01714 0.0154281 0)
(0.876091 0.0430982 -1.20071e-20)
(1.00386 -9.89125e-05 0)
(0.896669 0.16793 -3.31712e-20)
(0.972988 -0.101052 5.22329e-21)
(1.01091 0.00199222 -1.72312e-22)
(1.08266 0.0657049 0)
(0.854139 0.0636121 3.74025e-21)
(1.01182 -0.00155849 0)
(0.578865 0.00857385 -3.17465e-21)
(0.885523 0.0639471 3.49762e-21)
(1.0236 0.018788 -1.10719e-21)
(1.00742 0.00104785 0)
(1.11241 -0.0732616 0)
(1.0384 0.00697609 8.77532e-22)
(0.891365 0.00549433 8.77018e-22)
(1.00888 0.0436934 0)
(0.781843 0.021075 -1.94523e-20)
(1.01737 0.000824906 -1.74404e-21)
(1.01247 -0.00165782 -3.45988e-22)
(1.0264 -0.0352326 8.24928e-25)
(1.00726 -0.000524008 3.27727e-22)
(1.02952 0.0229856 8.74459e-22)
(1.00886 -0.00104225 0)
(1.00907 -0.00103569 0)
(1.05686 0.0266675 -3.32033e-21)
(1.0243 0.0191878 2.82348e-22)
(1.01155 0.000441924 4.82114e-22)
(1.01233 -0.00165581 3.55882e-22)
(1.00717 -0.000487216 6.5255e-22)
(1.00942 0.00302903 -4.14291e-22)
(1.03375 0.0505657 2.43094e-21)
(1.02326 -0.0410908 0)
(0.456207 0.0118019 0)
(1.05451 0.0193351 0)
(1.03115 0.0319729 0)
(0.92652 -0.0704831 -8.3253e-21)
(1.01467 0.0209923 -1.01632e-21)
(1.0363 0.00801403 6.47162e-21)
(1.00919 -0.00104086 -3.81225e-22)
(1.00892 0.00223449 1.41771e-22)
(1.03077 0.0318222 0)
(1.02436 0.0230071 0)
(1.00886 -0.00101367 -9.94723e-22)
(1.00714 -0.00047186 -6.55912e-22)
(1.07096 0.0527352 2.67612e-23)
(1.03622 0.00828463 -2.93201e-21)
(1.01657 0.000382087 1.02371e-21)
(1.09536 0.0568374 0)
(1.00894 -0.00105313 1.70239e-22)
(1.0078 0.00104413 -1.35272e-21)
(1.00706 -0.000435514 6.447e-22)
(0.604307 0.26046 -4.77993e-21)
(1.01109 -0.000545569 -9.97874e-24)
(1.00484 -0.000106399 0)
(1.02121 0.000827951 0)
(0.597529 -0.0549977 7.28926e-21)
(0.556168 0.0203853 1.60722e-22)
(1.04153 0.0155469 1.37064e-21)
(1.00896 -0.0010258 4.33068e-22)
(1.06105 0.0680201 3.70205e-21)
(1.02146 0.000782226 0)
(0.861416 0.0297695 -8.75122e-22)
(1.02915 0.0229909 7.96366e-22)
(0.855293 -0.061687 -1.11863e-22)
(1.00306 -8.52739e-05 5.25589e-22)
(1.0256 0.114498 2.5345e-21)
(1.01442 0.0105789 7.68398e-22)
(1.03827 0.00738181 9.76382e-22)
(1.01414 0.020607 2.59653e-21)
(1.01237 -0.00162163 -4.64949e-23)
(1.02927 0.0171393 1.8799e-21)
(1.0118 0.00590167 -5.26066e-22)
(1.01399 0.0347009 0)
(1.00933 0.00293478 -9.75256e-23)
(1.01421 -0.00243622 2.79992e-22)
(0.903455 -0.0587077 6.28831e-21)
(1.01157 -0.000928394 5.5475e-22)
(1.01434 -0.00244836 2.52905e-22)
(1.02079 0.00612478 -1.54797e-21)
(1.0097 -0.00113113 3.55823e-22)
(0.580865 0.0118398 -6.8367e-21)
(1.01429 0.0104576 -3.41562e-22)
(0.46174 0.0127489 -6.93154e-22)
(1.07644 0.0794013 1.67378e-20)
(0.838922 -0.0286039 3.78261e-21)
(1.08495 0.0589782 9.91614e-21)
(1.02626 0.00858772 0)
(0.976434 0.143812 3.96332e-22)
(1.00504 -5.16574e-05 -2.68147e-22)
(1.03115 0.0058976 0)
(1.03108 0.0061781 0)
(1.09453 0.0572008 1.1566e-20)
(1.01145 0.00408988 5.17137e-22)
(0.55223 -0.0374754 -3.50382e-21)
(0.83909 -0.0613545 -5.49641e-21)
(1.03979 0.0507042 0)
(1.0133 0.00838568 -7.81633e-22)
(1.01041 0.00666006 8.93989e-22)
(1.03494 0.0354006 -1.20548e-21)
(1.02393 0.0191764 2.76069e-22)
(1.0051 -0.000119604 -1.13727e-22)
(0.571373 -0.00293629 -5.78094e-21)
(1.00943 -0.00113147 -8.01471e-22)
(0.757854 0.0590739 0)
(0.973533 -0.0185292 -7.56105e-22)
(0.963778 0.146722 -5.8794e-22)
(1.14003 0.126405 -1.41793e-20)
(1.02596 0.11212 1.89092e-21)
(1.00262 -6.55057e-05 -8.48468e-22)
(1.01099 -0.000512344 0)
(1.07732 -0.0994138 3.37234e-22)
(1.08262 0.058307 1.18373e-21)
(1.00927 -0.00107106 -2.02562e-22)
(0.851667 -0.0303862 0)
(1.08442 0.0566917 0)
(1.01331 0.00846024 1.53718e-21)
(1.03441 0.0352509 -2.14528e-21)
(1.00185 7.39121e-05 -4.1447e-23)
(1.00142 -3.38351e-05 0)
(1.08221 0.0584106 -2.45722e-21)
(1.00896 0.00256334 7.48781e-22)
(0.783911 0.0284029 9.18383e-21)
(1.00707 -0.000419978 -1.65539e-22)
(1.06393 0.0620702 0)
(1.04445 0.016575 3.18041e-21)
(1.01322 0.00833301 7.82731e-22)
(1.00111 -2.12008e-05 0)
(1.0134 0.00851887 0)
(1.01046 0.00628408 6.97481e-22)
(0.998281 0.0905586 -1.38072e-22)
(0.71695 0.0206245 7.71504e-22)
(1.00248 7.04995e-05 1.11056e-22)
(1.01375 0.00891203 7.50717e-22)
(1.00997 -0.00116297 1.90046e-22)
(1.08468 0.0590321 1.21463e-20)
(1.00593 -2.30438e-05 -9.23739e-24)
(0.990458 -0.0660893 2.79208e-21)
(0.76329 0.0288578 4.85276e-21)
(1.0505 0.0504763 -5.7988e-21)
(1.05754 0.0269242 3.98581e-21)
(1.08347 0.0652063 -1.09178e-20)
(0.994058 -0.0582055 2.3538e-21)
(0.795336 0.0309758 2.29277e-21)
(1.05912 0.0504581 -2.34629e-21)
(1.01837 0.0057485 -6.58753e-22)
(1.00886 0.0024638 -5.87502e-22)
(1.04683 0.0436192 -4.3094e-23)
(0.602671 -0.0572604 7.57299e-21)
(1.00907 0.000629779 -2.17197e-23)
(1.02059 0.00616912 8.42181e-22)
(1.02612 0.0641247 0)
(1.02087 0.00388113 6.76487e-22)
(1.01744 -0.00293767 9.16027e-22)
(1.03878 0.0327268 -3.68496e-21)
(1.01339 -0.00178628 0)
(1.0117 0.0057426 -1.55674e-22)
(1.01762 -0.00267161 0)
(1.02149 0.0197905 6.10324e-23)
(0.948402 0.0491532 -1.78957e-21)
(1.01816 0.0123628 2.31895e-22)
(1.01049 0.0395034 -2.00127e-21)
(0.960514 0.150799 5.7124e-22)
(1.00662 -0.00039878 8.79744e-23)
(1.01361 0.00878908 1.99137e-23)
(1.0105 0.00182899 0)
(1.02548 0.0141245 1.52849e-21)
(1.01325 -0.00174061 -5.46419e-22)
(1.03595 0.0279032 1.67071e-21)
(1.02991 0.0514638 7.24382e-22)
(0.919622 0.0492228 -1.77564e-21)
(1.02371 0.0230271 0)
(1.04473 0.0210674 -3.6755e-21)
(1.00331 -0.000100721 5.23534e-22)
(0.467431 0.00593762 -7.11253e-21)
(0.972896 0.148355 -8.3281e-22)
(1.01563 0.000842369 0)
(1.01258 -0.00275566 4.5756e-22)
(0.629593 -0.129435 -5.08184e-21)
(0.989743 -0.0450279 0)
(1.02061 0.00382851 7.64715e-23)
(0.730335 0.0225432 -2.67681e-21)
(1.04683 0.0428909 -5.95917e-23)
(1.00744 0.000910446 0)
(0.859913 -0.0478001 -1.20666e-21)
(1.02874 0.023385 4.59566e-24)
(1.00813 0.000442379 0)
(0.968215 0.00534338 2.97135e-22)
(0.457671 0.0150234 2.13196e-21)
(1.04118 0.0478767 6.5964e-22)
(1.00754 0.000968597 0)
(1.04133 0.0360505 -4.16552e-21)
(1.01795 0.00521898 -8.41295e-22)
(1.01762 0.00506543 -7.94154e-22)
(1.04726 0.0335561 -7.22654e-22)
(0.966306 -0.0200065 1.04359e-23)
(1.0117 -0.000929526 0)
(1.04501 0.0207172 3.64409e-21)
(1.05243 0.0438651 3.3796e-21)
(1.04115 0.0158739 -1.28865e-21)
(1.02193 0.0238488 -1.20675e-22)
(1.01799 0.00538802 1.21251e-21)
(1.00323 5.89712e-05 -1.00176e-21)
(1.02238 0.0193294 -1.56554e-22)
(1.03461 0.0186305 0)
(1.01761 0.0253412 0)
(1.01793 0.0122643 5.71224e-23)
(1.03164 0.00588121 1.08014e-21)
(0.999885 0.0703543 0)
(1.08594 0.058253 0)
(1.00672 0.0007607 0)
(1.06274 0.0854592 0)
(1.00969 -0.0011484 1.93216e-22)
(0.87865 -0.268067 -6.953e-22)
(0.997605 0.0659935 0)
(1.0175 0.0257662 0)
(0.963004 0.00617707 -3.10221e-22)
(0.839201 0.0636368 1.09007e-21)
(1.06522 0.0611493 0)
(0.741178 0.0259444 -3.18436e-23)
(1.00929 -0.00104348 0)
(1.07544 0.0362549 0)
(0.846801 0.0330832 2.39172e-21)
(1.02245 0.0032164 4.5079e-22)
(1.0247 0.0231349 0)
(1.01826 0.051375 0)
(1.0169 0.0520316 -2.43983e-22)
(1.0628 0.0615797 7.29251e-21)
(1.01 -0.00144246 0)
(1.01668 0.00060058 0)
(1.01246 -0.0017058 0)
(1.03674 0.00698624 -7.86266e-22)
(1.06789 0.13672 5.70176e-21)
(0.565851 0.0153574 1.37368e-21)
(1.01918 0.0143437 -1.1546e-22)
(1.02775 0.0405465 -2.05692e-21)
(1.00666 0.000743022 -9.56284e-22)
(0.442036 0.0119325 5.18709e-21)
(1.08033 0.0678273 1.46992e-21)
(1.0131 -0.00182107 -5.43088e-22)
(1.0167 0.011798 0)
(0.7805 0.0301762 0)
(0.542273 0.0487434 0)
(1.07534 0.0353686 0)
(1.05114 0.0291025 7.12436e-22)
(1.0092 0.00134621 1.31154e-21)
(1.01468 0.012019 0)
(1.03557 0.0223953 0)
(0.479719 0.0071235 1.03041e-20)
(1.07861 0.0368542 1.92993e-20)
(1.01392 0.00996185 0)
(1.01268 -0.00111456 -2.1521e-23)
(0.589365 0.0255371 0)
(0.990153 -0.116225 0)
(1.0148 -0.00259864 0)
(1.01016 -0.00146857 -9.48973e-22)
(0.892421 0.00972828 0)
(1.04082 0.0391433 3.87108e-21)
(1.01026 -0.00148173 8.80692e-22)
(1.01337 -0.00203182 -7.27907e-22)
(1.06002 0.0672641 -3.6118e-21)
(1.01384 -0.00227931 0)
(1.09378 0.0586752 4.82111e-24)
(1.06564 0.0734867 -4.18257e-21)
(1.01009 -0.001191 6.72525e-22)
(1.00922 -0.00750975 8.83255e-22)
(1.00998 -0.00116711 -6.85268e-22)
(1.04129 0.0150816 -2.67947e-21)
(1.00703 -0.000418426 -8.14218e-22)
(1.06866 0.0763812 4.50679e-21)
(1.01394 -0.00229712 0)
(1.01464 -0.00260884 -5.08535e-22)
(1.01758 0.00489321 7.93656e-22)
(1.0109 0.0437794 0)
(0.567387 0.0106683 -3.19196e-21)
(1.04044 0.0322944 0)
(1.00163 -2.07179e-05 0)
(0.622601 -0.152469 4.30749e-21)
(1.08338 0.0646579 1.33139e-20)
(1.04702 0.0362431 2.05207e-21)
(1.01367 -0.0022749 0)
(1.0152 0.000173684 0)
(1.16442 0.12329 0)
(1.04857 0.014016 0)
(0.569988 0.0188116 -4.11475e-23)
(1.00745 0.000133151 -5.06926e-22)
(1.01067 -0.00680725 0)
(0.829419 0.0597734 0)
(1.02333 0.052042 -1.06345e-22)
(0.998741 -0.0334739 5.06674e-23)
(1.01315 -0.00174098 0)
(1.00737 0.000108649 -7.43228e-22)
(1.01329 -0.00172141 -1.83588e-22)
(0.445077 0.0130674 -7.03118e-21)
(1.0112 0.00442976 -9.84596e-23)
(1.01318 -0.00167744 -7.06732e-22)
(1.00998 0.00272597 -1.42512e-22)
(1.02633 0.0275452 -1.92358e-22)
(0.776391 0.0280309 -3.16067e-21)
(1.01383 0.0161329 7.51649e-22)
(0.460529 0.00353641 0)
(0.894158 0.0485382 -1.59277e-21)
(1.00822 -0.000311103 -3.06401e-22)
(1.03348 0.0356821 -1.53494e-21)
(1.13876 -0.0438978 5.12283e-22)
(1.04137 0.0163773 -1.34611e-21)
(1.0129 0.0154459 0)
(1.03265 0.0536457 -1.79723e-21)
(0.999265 0.0938172 0)
(0.938213 -0.0461268 -9.93963e-21)
(1.01051 -0.00138102 -3.35463e-22)
(1.01105 0.00427555 -1.96919e-22)
(1.01372 0.0210241 -2.12346e-21)
(1.05984 0.0588709 1.45899e-21)
(1.07766 0.186933 -3.22506e-22)
(1.01156 -0.00066442 -3.5878e-22)
(1.01403 -0.00251776 0)
(1.04413 0.0161485 0)
(1.04652 -0.0289465 0)
(0.984798 -0.136452 -5.17998e-22)
(1.07791 0.0927881 -9.29441e-23)
(1.04034 0.0318318 0)
(1.01004 -0.00144566 5.49519e-22)
(1.02275 0.00323664 1.04058e-21)
(1.01167 -0.000735154 7.35267e-23)
(1.00992 -0.00141951 0)
(0.561504 0.0183584 -6.85088e-22)
(1.03322 0.0451485 -1.58193e-21)
(1.03768 0.0271924 0)
(1.02641 0.0287927 -1.40661e-22)
(1.01837 0.0249572 -1.78537e-21)
(1.01419 0.027026 6.518e-23)
(0.460342 0.0162541 0)
(1.01662 -0.00299279 4.39181e-22)
(0.958167 -0.127266 -4.30225e-21)
(1.0168 -0.00280642 -4.18235e-22)
(1.01368 0.0134083 0)
(1.01209 -0.00137638 -2.8141e-22)
(1.00195 -5.15406e-05 2.15233e-22)
(1.0098 -0.0011585 -1.85178e-22)
(1.01065 -0.0015885 0)
(1.01136 -0.000860512 -2.98757e-24)
(1.01324 -0.00179874 0)
(1.00758 0.000833768 0)
(1.01555 0.0208606 -7.70804e-22)
(1.02804 0.00257484 0)
(1.01143 0.00424001 -5.57023e-22)
(0.927279 0.316134 -3.67207e-21)
(1.02113 0.0137056 -4.21181e-22)
(1.02277 0.0194275 3.85679e-22)
(1.01128 0.00292209 -5.6288e-23)
(1.00546 -0.00010598 2.06778e-22)
(1.01623 0.0218111 4.33621e-22)
(1.02023 0.00395331 -7.73967e-23)
(1.02662 0.0287417 4.27518e-22)
(1.08256 0.0585041 0)
(1.01897 0.013967 1.70119e-22)
(1.03587 0.0498797 -1.0361e-21)
(1.01351 -0.00200673 1.10204e-21)
(1.01143 0.00370524 0)
(0.941222 0.00582992 0)
(1.00704 0.000589384 -5.1971e-22)
(1.01379 -0.00226056 0)
(1.06619 0.0749358 -7.36742e-21)
(1.02288 0.013313 0)
(1.03889 0.0184709 2.23234e-21)
(1.00747 0.000784662 5.00315e-22)
(1.06405 0.0573872 -6.37407e-21)
(1.0147 0.00521644 -9.90797e-22)
(0.572782 -0.000394569 3.29475e-21)
(1.02768 0.00242778 0)
(1.03714 0.0178072 0)
(1.00999 -0.030383 0)
(1.04401 -0.00101252 0)
(1.01209 -0.00142504 0)
(1.05577 0.0154114 -6.82357e-23)
(0.976057 -0.146787 0)
(1.06195 0.0357538 -4.68515e-21)
(1.00975 0.00256627 1.43811e-22)
(0.891466 0.0705661 0)
(1.00279 -7.13975e-05 -7.71114e-22)
(0.427857 0.0157955 -2.70427e-21)
(1.03185 0.0429451 6.96598e-22)
(1.01135 0.00330531 0)
(1.08311 0.0577675 -7.56618e-21)
(1.03683 0.00798995 -5.84921e-21)
(1.01125 0.00282243 3.98207e-23)
(1.06896 0.0357464 4.59199e-21)
(0.727125 0.055163 0)
(1.00953 -0.00115461 8.47768e-22)
(1.02557 0.0145022 -1.08512e-21)
(1.0075 0.000748933 -9.55227e-22)
(1.01 -0.00134579 0)
(0.555002 0.0271569 -3.97316e-21)
(1.0611 0.0607284 0)
(1.00814 -0.000829901 0)
(1.12351 0.112109 1.0715e-20)
(1.04699 -0.00435686 0)
(1.01215 -0.00192303 7.19116e-22)
(1.01008 -0.00118308 0)
(1.00802 -0.000779995 0)
(1.00904 -0.000238735 0)
(0.71067 0.0227928 5.34019e-21)
(0.905132 0.177541 1.03086e-20)
(0.726765 0.0405837 1.3077e-21)
(1.01413 -0.0025258 0)
(0.577605 -0.00583446 8.00242e-22)
(1.0205 0.00400782 -7.47771e-22)
(1.00494 -8.75935e-05 0)
(0.889887 0.0617631 -5.73109e-21)
(1.00988 0.00270929 -9.10188e-24)
(1.02775 0.0647294 -1.86689e-21)
(0.924102 -0.00345683 -2.85901e-21)
(0.58643 -0.164416 1.67614e-21)
(1.01212 -0.0028956 -9.26415e-22)
(1.08273 0.0578046 6.63761e-21)
(1.00799 -0.000756098 1.4351e-22)
(1.0843 0.056327 0)
(0.870052 -0.263486 0)
(1.0357 0.0358871 0)
(1.03893 0.00695426 9.34885e-22)
(0.885046 0.0165772 0)
(1.08274 0.0575468 -7.30127e-21)
(1.01123 0.00329529 4.15435e-24)
(1.03293 0.0173497 1.52205e-21)
(1.01679 0.000772485 1.29556e-21)
(1.01491 0.0273771 8.86975e-22)
(1.05515 0.0194928 0)
(1.02195 0.0174461 0)
(1.03698 0.00769726 1.84563e-21)
(1.02216 0.0528738 9.58417e-25)
(1.03355 0.0752123 -4.99695e-22)
(0.438755 0.0126773 2.83904e-21)
(1.00789 -0.000709686 1.42261e-22)
(1.01739 0.0156517 0)
(1.0091 0.00237455 2.4363e-22)
(1.05736 0.0486582 -1.4547e-21)
(0.721999 0.0225472 -5.47317e-21)
(0.921628 -0.0138262 1.44773e-21)
(0.736006 0.0221624 0)
(1.01107 0.0608576 -1.42805e-21)
(1.02084 0.0247508 0)
(1.02101 0.0200245 2.52261e-23)
(1.02606 -0.00111184 -6.19822e-22)
(1.058 0.071471 -3.53535e-21)
(0.723234 0.021135 0)
(1.01449 0.0610823 -1.28275e-21)
(1.01424 0.0029053 0)
(1.0114 0.00300554 -6.58357e-22)
(1.05681 0.0720456 0)
(1.03253 0.0428102 3.80696e-22)
(1.0386 0.0398058 0)
(1.01832 0.0254018 0)
(1.00611 0.0473926 0)
(0.921012 -0.086366 -6.14803e-21)
(0.901035 0.0371593 -1.11602e-20)
(1.00939 0.00256427 5.67682e-22)
(1.00893 -0.00100867 1.0706e-21)
(0.598932 0.0259859 4.75395e-21)
(1.0265 0.014204 0)
(1.00635 0.000484328 1.05745e-21)
(1.0071 -0.000439871 0)
(1.00917 -0.00103358 2.43014e-22)
(1.02096 0.0203494 0)
(0.381572 0.0121819 0)
(0.796301 0.0268332 1.35117e-20)
(0.6899 0.0744722 -7.60359e-21)
(0.887485 0.0440085 0)
(1.019 0.00577154 -2.31545e-22)
(1.03098 0.0225758 -1.33535e-21)
(0.994912 -0.0843298 -4.19674e-22)
(1.0453 0.0189722 5.44819e-21)
(1.04292 0.029177 -3.90455e-21)
(1.02629 0.0428702 6.19922e-22)
(0.982549 -0.0788943 4.8237e-23)
(1.0079 0.00127802 9.11721e-22)
(1.01831 0.00556431 -8.55842e-22)
(1.01969 -0.00194895 0)
(1.01179 -0.00149282 -3.38105e-22)
(1.06758 0.090733 2.55388e-22)
(0.431047 0.0117705 0)
(1.01171 -0.00155133 -4.36987e-22)
(1.03402 0.0358309 5.71698e-22)
(1.03903 0.0293794 0)
(1.02306 0.0193871 -1.8488e-21)
(1.00899 0.00225624 -1.36335e-22)
(1.01091 -0.00168405 0)
(1.07954 0.067736 -3.892e-21)
(1.00796 -0.000653811 0)
(1.04495 0.23947 4.467e-21)
(0.951915 0.153742 -6.77074e-22)
(1.0581 0.048875 1.21967e-21)
(1.01371 0.00883989 0)
(1.0105 -0.00133517 0)
(1.06677 0.0556116 0)
(1.02618 0.027756 -6.45757e-23)
(1.01719 0.00540612 -1.2909e-21)
(1.01144 0.00381592 0)
(1.01157 -0.000768688 0)
(1.04778 0.0419174 0)
(0.943421 -0.0369505 0)
(1.0478 0.0426296 3.06902e-21)
(1.03702 0.0212608 0)
(1.01889 0.0119067 2.93452e-23)
(1.03596 0.0280186 1.65988e-21)
(1.0774 0.0948133 -6.71255e-21)
(1.07825 0.0374781 -9.56356e-23)
(1.04098 0.0166867 1.34875e-21)
(1.00897 0.0127258 -2.13822e-21)
(1.02239 0.0235628 4.63518e-23)
(1.08478 0.0364314 4.44931e-21)
(1.03396 0.0741194 4.21216e-22)
(1.17299 0.108785 0)
(1.001 -3.7146e-05 -1.07013e-21)
(0.599101 -0.01587 0)
(1.07199 0.184957 0)
(0.846596 -0.26356 0)
(1.02402 0.0689911 7.12699e-22)
(1.02024 0.0328263 5.85035e-22)
(0.438097 0.0178756 0)
(1.00342 -8.64409e-05 -3.08595e-22)
(1.0242 0.0231353 6.97283e-23)
(1.00101 -0.0293125 0)
(1.01407 0.0447105 -3.07634e-22)
(1.00771 0.00119338 2.46276e-22)
(1.04582 0.054234 -4.88297e-23)
(1.02873 -0.0564851 -3.00058e-21)
(1.01365 0.00890081 -1.66243e-21)
(1.02254 0.0203574 2.61012e-22)
(0.369866 0.00997944 6.93386e-23)
(0.938502 0.296926 0)
(1.02563 0.0519842 0)
(1.02095 0.0330985 0)
(0.360924 0.00827933 2.6477e-21)
(1.01469 0.00500744 0)
(1.03643 0.0523228 1.14255e-21)
(0.915231 0.0358147 1.10776e-20)
(1.0146 0.0117764 -2.73669e-22)
(0.987581 0.140511 0)
(1.01079 -0.00151704 1.10758e-24)
(1.02998 0.0162023 1.26749e-21)
(1.0109 -0.00152292 0)
(1.06727 0.0949038 0)
(1.0171 0.0060699 -1.18066e-21)
(1.01272 0.0342649 0)
(1.00031 0.0486595 0)
(1.01984 0.00115145 -4.86236e-22)
(1.0946 0.0582308 -7.40989e-21)
(1.04075 0.0300902 7.96633e-22)
(0.995011 0.0506953 0)
(0.993898 0.0571861 3.53862e-22)
(1.01142 0.00363198 -1.76909e-21)
(1.03988 0.00736277 4.46271e-21)
(1.00729 -0.00053816 8.83444e-25)
(1.03629 0.244156 6.83753e-21)
(1.01889 0.011685 0)
(1.03641 0.072354 1.96808e-21)
(1.02794 0.0205362 -8.02496e-22)
(1.00728 0.000377069 1.52287e-22)
(1.00762 0.00112894 -2.34001e-22)
(1.03589 0.0218865 5.52762e-23)
(0.770288 0.0605705 -3.73297e-21)
(1.00847 0.00144828 2.96193e-22)
(1.00711 -0.000487723 7.38098e-22)
(1.00661 -0.000412783 -1.14567e-21)
(1.02273 0.0236702 5.8664e-23)
(0.71984 -0.00953665 0)
(1.036 0.073623 -2.19118e-21)
(1.08225 0.0449843 1.96155e-21)
(1.00751 0.00111069 0)
(1.00292 -5.44577e-05 -8.18763e-22)
(1.10835 0.0664803 0)
(1.00917 0.00239842 0)
(1.01167 -0.000835659 2.53406e-22)
(0.890845 0.0589365 4.39821e-21)
(1.0098 -0.00117617 -2.07723e-22)
(0.529116 0.0272902 0)
(1.0662 0.0931017 4.31014e-21)
(0.897102 0.0786679 3.17386e-21)
(1.02446 -0.00150142 0)
(1.00726 0.000580973 0)
(1.00766 0.00133938 3.66686e-22)
(1.01457 0.00490455 7.09588e-22)
(1.01148 0.00346953 1.22982e-21)
(0.835871 0.10225 0)
(0.835808 0.0210403 2.44113e-21)
(1.04566 0.0209402 0)
(1.01317 0.0158678 -9.5809e-22)
(1.00809 -0.00082798 -1.5166e-22)
(0.761158 0.0414777 6.83309e-21)
(1.04083 0.0305462 1.00959e-21)
(1.02567 0.00920805 0)
(1.00736 0.000613293 0)
(0.970802 -0.0623837 0)
(1.01602 0.0123689 1.02193e-21)
(1.04118 0.0171785 -1.46689e-21)
(1.08398 0.0926573 2.01072e-21)
(0.64326 0.318078 -2.46222e-21)
(1.08003 0.0671652 0)
(1.0581 0.0264071 0)
(0.908377 0.0484063 0)
(1.00931 -0.000998108 -4.96317e-23)
(0.94551 0.149258 0)
(1.05929 0.0165025 1.6021e-21)
(1.00982 -0.00119224 2.02689e-22)
(1.02793 0.0201601 8.8074e-24)
(1.13472 -0.0595274 -3.63409e-22)
(1.00818 -0.000854303 -1.4438e-22)
(1.0161 -0.00282744 0)
(1.00786 -0.000682365 0)
(0.954454 0.298349 1.37833e-21)
(0.837632 0.0155696 1.02598e-21)
(0.711387 0.0524924 8.34996e-21)
(1.00476 -4.70266e-05 1.66988e-22)
(1.01706 0.0114807 1.03579e-23)
(1.01329 0.00823432 -7.14569e-22)
(1.02992 0.0158875 2.28107e-21)
(1.01728 0.00474717 0)
(1.00992 0.0651598 1.84851e-21)
(1.01016 0.00474655 -1.09082e-23)
(1.00486 0.000265066 0)
(1.00816 -0.000688137 0)
(1.01062 -0.00138247 0)
(0.930103 -0.0992257 0)
(0.579697 0.039263 0)
(1.04109 0.0291041 -1.7732e-21)
(1.02254 0.0231955 3.51642e-22)
(1.0194 -0.00183707 6.67871e-24)
(1.04342 0.0278372 -3.8705e-21)
(1.00491 -0.000147426 0)
(1.00965 0.00254675 0)
(1.01907 0.0246069 0)
(1.085 0.0518478 6.15872e-21)
(1.0365 0.018305 1.04544e-21)
(1.07219 0.0536779 -9.2701e-21)
(1.04258 0.038354 0)
(1.14527 0.119935 -1.58562e-20)
(1.0253 0.00907382 0)
(0.732482 0.0521959 -7.5568e-21)
(0.959715 -0.0290417 0)
(1.01792 -0.00172954 2.17521e-23)
(1.00733 7.61061e-05 -7.51356e-22)
(0.389579 0.0141358 2.67256e-21)
(1.0115 0.00262048 -2.43405e-23)
(1.01139 0.000347106 -7.39776e-22)
(0.563499 -0.078328 0)
(1.01309 -0.00214234 -8.35356e-22)
(1.07762 0.051652 0)
(1.00738 3.89235e-05 1.35975e-21)
(0.925158 -0.243955 0)
(1.02232 0.0143262 -3.00048e-22)
(1.01379 -0.00155528 -2.80261e-25)
(1.06547 0.0595543 0)
(1.00237 -0.0374959 4.24515e-21)
(1.00625 0.0653642 1.76826e-21)
(1.01147 0.00249506 2.21819e-23)
(1.01031 0.00446246 4.27378e-22)
(1.01136 -0.00149206 -2.03719e-22)
(1.01592 0.000962618 0)
(1.06576 0.023054 -1.96403e-23)
(1.01867 0.000791783 1.27229e-21)
(1.02228 0.0238975 1.1449e-22)
(1.01945 0.00573336 5.59464e-22)
(0.61884 0.240072 6.04893e-21)
(0.96509 0.327199 -3.62386e-21)
(0.964346 0.314241 4.29778e-21)
(1.06617 0.0225455 5.7603e-21)
(1.0168 0.0143052 0)
(0.472832 0.0046047 7.22415e-21)
(1.01147 0.000278925 0)
(1.03771 0.00739453 0)
(1.01082 -0.00165265 -2.90003e-22)
(1.01724 0.00457632 -3.84607e-22)
(1.01596 -0.00297097 -5.44908e-22)
(1.04242 0.0318729 0)
(0.867058 0.0353572 0)
(1.00794 -0.000701536 -1.43312e-22)
(1.00791 -0.000669159 1.40573e-22)
(0.757275 0.0293667 4.14165e-21)
(1.01329 0.008161 0)
(1.01139 0.000283462 0)
(1.07639 0.080606 -1.36683e-20)
(1.0103 0.0289634 0)
(1.08328 0.0573921 -1.12656e-20)
(0.627956 0.334951 0)
(1.0619 0.0999992 -2.00899e-21)
(0.871652 0.162598 0)
(0.587236 -0.0708324 -7.93094e-21)
(1.02203 0.0140198 0)
(0.591917 0.00993031 -6.54845e-21)
(1.01664 0.013946 1.76444e-23)
(0.984522 0.145655 9.37336e-22)
(1.02813 0.00497226 0)
(1.00958 0.00263383 -1.97981e-22)
(1.01213 0.0150821 0)
(0.585746 -0.191377 -9.22172e-21)
(1.02141 0.0200931 0)
(1.00968 0.00266932 0)
(0.539633 0.0292088 1.09194e-21)
(1.04596 0.0191624 -3.58914e-21)
(1.0312 0.0373739 2.7767e-21)
(0.468316 0.0101164 2.93425e-21)
(0.760772 0.0837436 8.49129e-21)
(1.01379 -0.0013521 -5.30466e-22)
(0.938573 -0.00307452 -1.28813e-21)
(0.843896 -0.109708 -1.47713e-21)
(1.02285 0.0191072 -6.12377e-22)
(0.995521 0.0419236 -1.807e-21)
(1.00867 0.00165079 -6.25311e-22)
(1.03669 0.0238528 -1.00608e-21)
(0.979114 -0.142454 2.7147e-21)
(1.00469 -4.47311e-05 0)
(1.00762 0.00133574 -4.11259e-22)
(1.06578 -0.0180208 -7.29945e-22)
(1.00995 -0.00141337 -5.51088e-22)
(0.984493 0.196546 4.35962e-21)
(0.897336 -0.248476 -2.85045e-22)
(0.727319 0.0700911 0)
(1.01821 0.012121 -1.35196e-22)
(0.732348 0.0530917 -2.20585e-21)
(1.08031 0.0668957 0)
(1.00359 -9.75043e-05 0)
(1.01135 0.00265413 0)
(1.00856 0.00158493 8.94282e-22)
(1.00741 0.0011458 -4.2042e-22)
(1.01686 0.0111994 1.33455e-23)
(1.01253 0.065781 3.68916e-22)
(1.01409 -0.0775398 -4.74065e-21)
(1.02828 0.0197402 0)
(1.00386 -0.000104746 -1.44679e-22)
(0.998285 0.0588391 0)
(1.04133 0.0292557 -1.63073e-21)
(1.01575 0.00573151 9.49564e-22)
(1.01548 -0.00356162 0)
(1.01316 0.00823188 -2.4399e-22)
(1.0721 -0.0127606 1.21077e-21)
(1.00735 0.0010958 3.85984e-22)
(1.0414 0.0298191 1.71993e-21)
(1.00815 0.000378752 5.56265e-22)
(1.01889 0.00071707 -1.77783e-22)
(1.08365 0.0574082 1.08171e-20)
(1.00243 -4.36135e-05 0)
(1.02086 -0.00188312 -6.79195e-25)
(1.01931 0.00584903 0)
(1.02214 0.0683201 -1.99174e-21)
(1.02182 0.0661202 6.59005e-22)
(1.01477 -0.00148302 -2.54599e-23)
(1.00728 0.000557525 -2.60484e-22)
(0.991472 0.0576115 -4.04915e-21)
(1.00328 8.79845e-05 4.47127e-22)
(0.476524 0.0109894 7.69789e-22)
(1.03107 0.0366792 -9.25612e-22)
(1.05627 0.0551589 7.31714e-22)
(1.01222 -0.00198898 -1.51526e-22)
(1.0749 0.0335938 -1.69954e-21)
(1.02909 0.0234044 -1.11208e-21)
(1.01139 0.0027831 0)
(1.01644 0.0406697 -6.72115e-21)
(1.01898 0.0250172 9.44628e-22)
(1.02516 0.00608423 0)
(1.1435 0.123359 1.83e-20)
(1.01705 0.00229524 -2.99752e-23)
(1.01128 -0.000611945 0)
(1.01443 0.00952091 3.24651e-22)
(1.02084 0.0518549 5.01097e-22)
(1.01113 -0.000536171 0)
(1.08556 0.0536689 5.47369e-21)
(0.965132 -0.0717048 -4.08434e-22)
(1.02655 0.0282967 8.3471e-24)
(1.04438 0.0316003 0)
(0.5246 0.0461681 -4.39547e-21)
(1.05716 0.0547894 2.31634e-21)
(1.01238 -0.00184598 -3.4604e-22)
(1.01847 0.0122288 -1.39048e-22)
(1.03243 0.0313973 0)
(0.76432 0.207415 1.28585e-20)
(1.0109 0.00207385 1.83759e-22)
(1.00138 -5.40392e-05 -1.95585e-22)
(1.03627 0.0185135 1.19725e-21)
(1.06785 0.0752226 3.86733e-21)
(1.03254 0.031084 0)
(1.07697 0.0515282 0)
(1.06696 0.0616162 0)
(1.0226 0.014325 1.86325e-21)
(1.07324 0.0557857 0)
(0.772666 0.0424959 -7.02481e-21)
(0.70502 -0.0192337 0)
(1.08614 0.0570575 4.49239e-21)
(0.949424 0.0511872 0)
(1.00999 -0.00291323 0)
(1.00838 0.00157171 -1.18947e-22)
(0.998384 -0.0496517 0)
(1.02325 0.0187792 2.78256e-22)
(0.891951 0.0276596 3.55977e-22)
(1.02506 0.0209741 -4.01723e-22)
(1.03352 0.0415748 1.2705e-20)
(1.03647 0.0220946 0)
(1.01149 0.000352919 -6.14675e-24)
(1.00795 0.00155587 0)
(1.04707 -0.0135404 2.17976e-22)
(0.882403 0.0228948 0)
(1.00283 7.647e-05 9.54071e-22)
(1.01706 0.0150291 2.92314e-22)
(1.01887 0.000654547 0)
(1.01243 -0.00173949 -5.91409e-22)
(1.01172 0.000190448 0)
(0.835482 0.110733 -1.47268e-21)
(1.00567 0.000314948 -1.85276e-22)
(1.00956 -0.00115307 2.12226e-22)
(0.805691 0.03296 0)
(1.00727 0.00104896 -4.88124e-23)
(1.09152 0.0495627 0)
(1.00961 -0.00104574 7.01648e-22)
(1.01995 0.0654647 0)
(1.06709 0.0577359 1.92028e-21)
(1.00248 -6.05582e-06 4.77306e-22)
(1.00724 0.00105627 0)
(0.614628 0.0112755 7.00577e-21)
(0.852043 0.0330817 5.62123e-21)
(1.02678 0.0281877 0)
(1.02841 0.0546819 0)
(1.02909 0.0400793 -1.53387e-21)
(1.00791 0.00155728 0)
(1.02062 -0.00195398 0)
(1.01555 0.0507524 -4.99482e-24)
(1.06817 0.135858 9.04748e-21)
(1.01078 0.0019122 3.11615e-22)
(1.01243 0.0155663 0)
(0.982636 0.119194 -1.21192e-21)
(0.99597 -0.0251564 7.3878e-22)
(1.01689 0.00224746 0)
(1.09861 0.076757 0)
(1.06095 0.101625 2.62182e-21)
(1.08329 0.077438 0)
(1.01183 0.000167612 -3.59274e-22)
(1.02627 0.0418284 -5.85396e-22)
(1.08328 0.0573711 -5.72657e-21)
(0.477505 0.0196211 3.05138e-23)
(1.00146 -4.71323e-05 7.1632e-22)
(1.00334 -0.00010212 0)
(1.03752 0.0175622 0)
(1.00176 -2.02505e-05 4.73107e-22)
(1.01847 -0.0023408 0)
(1.02497 0.00585958 0)
(0.977999 0.198505 -4.3025e-21)
(1.02001 -0.00196582 0)
(1.04512 0.0198828 0)
(0.868037 0.0163198 1.87933e-21)
(1.02744 0.011362 4.21296e-22)
(0.556581 -0.0174719 -6.23837e-21)
(1.00757 0.00052874 7.77718e-22)
(1.08263 0.0940758 0)
(1.00707 -0.000481512 0)
(0.555014 -0.00445729 3.4277e-21)
(1.03275 0.0109554 0)
(1.10606 0.0687264 0)
(1.01834 -0.00270802 4.81312e-22)
(1.09274 0.129789 0)
(1.02499 0.0280866 0)
(1.00095 8.41976e-06 -6.95231e-23)
(1.06074 0.0584399 -1.39685e-21)
(1.07739 0.0334904 6.80611e-21)
(0.96403 0.0539407 9.02345e-22)
(1.00705 -7.21656e-05 -2.67742e-22)
(1.00771 0.000533371 -2.78033e-22)
(1.08489 0.0525688 -6.44831e-21)
(1.04583 0.020109 0)
(0.974064 0.235631 -1.00701e-20)
(1.0582 0.050158 -1.17512e-21)
(0.689368 0.044781 7.92769e-21)
(1.01374 -0.00166768 -3.70529e-22)