/*--------------------------------*- C++ -*----------------------------------*\
| =========                 |                                                 |
| \\      /  F ield         | OpenFOAM: The Open Source CFD Toolbox           |
|  \\    /   O peration     | Version:  v2012                                 |
|   \\  /    A nd           | Website:  www.openfoam.com                      |
|    \\/     M anipulation  |                                                 |
\*---------------------------------------------------------------------------*/
FoamFile
{
    version     2.0;
    format      ascii;
    class       volScalarField;
    location    "100";
    object      ddt0(k);
}
// * * * * * * * * * * * * * * * * * * * * * * * * * * * * * * * * * * * * * //

dimensions      [0 2 -3 0 0 0 0];


internalField   nonuniform List<scalar> 
37809
(
-1.29332e-07
-0.000604885
2.5765e-09
-1.16703e-07
-0.00249047
-3.89751e-07
-7.34856e-08
-1.84328e-07
-0.000160265
-2.10088e-05
-1.80214e-07
-3.62698e-08
-3.03169e-09
-9.81293e-10
0.000492247
1.00114e-07
-3.2613e-09
-4.67073e-05
8.51283e-08
1.64788e-08
-4.18224e-08
-4.0318e-08
-0.000182404
8.85441e-09
5.2121e-09
0.00621309
-0.00371049
-2.08166e-08
1.1539e-09
-2.60878e-07
2.36981e-06
-0.00028947
8.55769e-09
6.18379e-07
1.17841e-08
-2.97098e-09
-3.19293e-08
0.00259304
5.35121e-07
-3.27893e-07
-0.000508768
0.00035683
-0.0010451
4.1091e-05
-8.5867e-08
1.48219e-08
-9.10834e-07
-0.00796605
-0.00217549
-4.53473e-08
-5.65723e-08
4.24852e-08
-2.23196e-09
9.88137e-08
0.000174344
-8.03337e-10
4.82655e-08
2.67674e-08
4.75639e-07
-6.89728e-05
-0.000568129
4.59656e-10
2.6929e-09
7.83039e-07
2.35982e-06
7.45974e-09
-0.00134262
8.73749e-08
4.14945e-08
0.00453325
5.47635e-08
-0.000120421
-5.24346e-08
-2.71673e-10
-2.20441e-08
-2.12489e-08
-3.36049e-07
2.78103e-07
-1.8179e-07
3.44854e-07
-1.78387e-08
1.167e-09
-0.0087031
3.11562e-08
6.04798e-08
-0.00111523
3.25662e-08
0.000308387
4.7087e-08
3.88156e-08
0.00218446
-0.000103509
2.92814e-08
-0.00119961
3.87829e-08
-0.00672438
-5.4888e-08
-5.0604e-08
-0.000481452
-1.27856e-09
0.00211542
-4.85075e-08
7.74071e-07
-0.000105303
-0.00627525
1.06261e-10
-1.24158e-07
-5.41162e-07
-8.8783e-09
-3.31927e-08
2.44708e-08
2.74616e-08
4.7138e-09
6.0916e-08
5.09654e-08
5.21183e-07
-5.66634e-08
-5.9332e-09
8.99141e-06
0.00100352
6.05596e-12
-5.70457e-09
1.34167e-08
-0.00213601
4.59252e-06
-5.99126e-08
-1.28774e-07
-2.08828e-08
4.00046e-08
3.08791e-08
3.37534e-06
-8.04259e-07
-0.000862368
7.37656e-09
1.58733e-06
-8.908e-10
-5.69648e-08
-2.33061e-11
-0.000298388
0.00062729
1.14996e-08
-0.00108647
-0.000492277
-0.000543096
-5.55913e-08
-0.00170835
-9.66289e-08
1.61754e-08
-0.00834584
-1.70226e-08
-0.000595937
3.01822e-08
-2.34609e-07
-5.0338e-08
8.35467e-08
-1.6496e-08
-0.000266767
5.67449e-06
9.66222e-08
4.01118e-05
3.69452e-08
-6.05351e-06
2.76254e-07
0.000186826
-9.29962e-10
-1.5047e-08
3.5969e-08
0.00048794
5.94184e-07
5.69877e-08
5.73954e-05
-2.19138e-08
0.00101756
-7.37099e-08
4.0733e-08
8.83636e-08
-0.00600114
3.77849e-08
-0.00221011
-6.41886e-08
0.000972297
-6.1953e-08
-1.35924e-09
-4.65905e-08
-6.54536e-09
4.41002e-06
-6.7141e-08
-2.66045e-08
0.000148302
0.000145135
-3.56968e-08
-5.61124e-08
-8.06934e-08
-5.13884e-06
-6.5595e-07
-2.18863e-06
1.24029e-08
6.73741e-09
-2.31673e-09
5.24725e-08
0.000242623
-1.93675e-07
0.000529431
-3.41854e-08
-0.000674163
-9.4969e-09
-7.9417e-08
-8.15266e-08
3.79063e-08
-8.41574e-07
-1.1805e-07
-0.000633936
-2.27121e-09
-2.98939e-09
1.01236e-08
0.00199539
-3.58791e-08
3.74228e-08
-3.10133e-09
8.43961e-08
-0.00131433
4.18555e-07
-4.98649e-08
-4.29366e-08
-1.80709e-08
-0.000611318
-0.000654502
-2.83784e-07
-1.32718e-08
0.00131959
-5.12287e-08
-1.04855e-07
3.90826e-06
1.41933e-09
6.81968e-05
4.35371e-05
-1.04559e-08
-0.000595209
-2.91403e-09
-3.92927e-07
-0.00956588
-2.20542e-08
0.000155208
-0.00693196
-8.3857e-08
2.54801e-08
1.25417e-09
-1.01928e-08
2.65979e-08
-2.20944e-09
1.79622e-09
8.54554e-09
5.51604e-09
-0.00090083
-7.67463e-08
-8.39326e-08
8.36547e-09
5.43278e-10
3.91912e-07
0.000892269
1.79177e-06
-7.96998e-08
0.000348509
-1.39404e-09
-0.000535516
-3.90498e-08
-7.898e-07
2.33077e-09
7.57329e-09
-1.70095e-06
-0.000995928
3.82386e-09
-0.00309024
0.000221992
8.08222e-09
-3.36204e-07
5.18166e-08
-1.38068e-08
-0.000116964
8.95983e-09
-6.43458e-08
0.00022616
-8.57844e-06
8.99103e-09
-3.94244e-06
2.58704e-08
-5.42991e-08
-5.78446e-09
-8.54477e-08
0.00212894
3.31939e-08
1.23297e-07
0.000173374
-1.61736e-09
-3.39815e-08
-2.99538e-08
7.4758e-07
2.60758e-05
-7.36497e-08
1.24588e-06
1.09732e-07
-0.000173277
-1.87803e-08
1.25076e-05
-1.99929e-05
3.07283e-08
2.84982e-09
6.59706e-08
-0.00047997
-2.096e-08
-1.82595e-06
-0.00110508
-0.000574398
-3.19254e-08
8.47838e-12
-0.000603648
1.8624e-08
8.38642e-08
-7.29603e-06
0.00108951
3.73199e-07
3.45683e-07
5.60322e-09
6.69695e-08
-0.00260315
-2.84135e-09
-2.14915e-05
3.03927e-09
2.73279e-09
7.52895e-06
-1.05524e-08
-6.41332e-09
-6.76435e-08
-1.45129e-06
6.6961e-09
5.02712e-09
-2.86002e-07
7.6562e-08
2.38387e-09
-9.86287e-08
-8.71249e-09
4.11866e-09
-2.75032e-07
0.00413325
-1.17862e-07
7.52807e-06
7.1596e-06
-1.29643e-08
0.00106183
-9.63125e-08
2.75423e-07
-4.09319e-08
-2.65201e-08
9.36213e-08
0.000931042
0.00225114
-4.53156e-09
-3.67575e-07
1.48516e-08
-0.000595287
-0.00840797
7.68678e-08
-0.00095407
0.000494612
-0.00148829
-0.000560522
1.10267e-08
1.02295e-07
-1.06692e-07
2.00694e-08
4.1876e-09
2.42749e-08
-4.2645e-07
9.46191e-05
-1.57574e-07
1.43469e-08
1.39214e-07
1.74843e-09
-0.000576262
-2.81958e-08
-5.67951e-08
2.9459e-08
-0.000834301
6.16189e-08
-3.83421e-07
-1.22817e-07
0.00153809
3.56621e-08
1.22476e-06
1.00178e-08
5.29096e-09
-0.000377542
2.42185e-09
-3.3687e-08
8.29879e-08
3.34988e-08
0.000970085
6.13985e-07
-9.55972e-08
2.77506e-09
-0.000650422
-7.91636e-07
9.22193e-09
-4.45481e-08
2.09695e-08
-7.51613e-08
-1.97715e-08
-0.000588076
-0.00807948
0.000978287
6.24183e-09
-8.93778e-08
-1.35185e-07
-4.81241e-08
-2.4748e-08
-7.69876e-05
6.50836e-07
-1.67894e-05
1.13429e-09
5.01436e-10
-0.000583526
5.35617e-07
2.50471e-06
7.29562e-06
-4.45753e-09
-0.00125245
-3.28149e-08
4.19293e-10
2.00102e-08
8.77341e-07
-1.0022e-08
-5.11031e-08
-1.1296e-07
6.41577e-08
-0.000564665
-5.458e-08
-0.00018223
-0.00345312
-1.10776e-07
-1.01054e-08
3.30673e-08
2.11666e-06
-2.54042e-08
-9.78961e-08
3.68641e-08
-2.33066e-08
0.000837889
-4.79646e-07
-7.38472e-08
4.3643e-06
1.03223e-07
1.43719e-08
6.26901e-08
6.49962e-10
-5.72983e-08
8.00738e-09
-3.09977e-08
-4.83666e-10
-0.000527206
-5.62266e-08
-4.5963e-08
7.92916e-08
-4.7803e-07
-0.00489162
-0.000986139
-0.000675925
3.82957e-08
3.76973e-08
-0.000192584
3.67326e-08
-5.01771e-08
-8.87375e-09
-1.30029e-08
-2.25515e-08
-6.21042e-07
-3.88379e-08
-9.80442e-08
0.000528923
-2.06591e-07
-3.70367e-10
1.79828e-08
2.05115e-08
-1.04045e-07
3.55061e-10
2.58466e-05
3.15228e-08
1.4387e-07
8.18569e-06
0.0014293
-6.39315e-08
0.000983545
-2.9859e-07
-1.47029e-06
-4.76062e-08
-1.07605e-07
0.000943538
-9.48533e-09
1.07739e-07
-1.06242e-07
-1.2251e-07
-1.69215e-07
2.79181e-06
-0.000570366
-0.00168545
1.02512e-07
2.99665e-08
4.93843e-07
-0.000111671
6.57173e-08
7.27566e-08
-2.3677e-08
-3.69632e-08
-0.000704872
2.81348e-08
4.34616e-08
0.00074669
-8.08584e-06
4.18854e-08
1.31679e-07
8.38385e-08
8.4666e-06
9.87353e-07
-3.14216e-09
-1.73649e-05
4.25305e-08
1.13703e-07
3.33618e-06
-1.47978e-07
8.09854e-08
4.16621e-06
-2.19053e-05
-6.46847e-09
1.98733e-06
-3.19023e-08
9.22873e-11
1.90865e-09
6.15756e-08
0.00259077
3.5917e-08
-4.3782e-09
-3.12911e-07
1.13026e-07
-0.000579783
5.51766e-06
1.04586e-05
-5.97108e-08
-5.17827e-09
0.000264345
-3.34792e-06
7.08249e-11
-1.19378e-07
-6.98386e-08
-1.39421e-08
-3.85131e-07
-0.00051768
-9.78205e-08
6.8141e-09
-1.14169e-07
3.06641e-06
3.64739e-08
5.00224e-07
0.000228949
1.26438e-06
1.99747e-09
0.000108588
4.08285e-09
6.56441e-08
-3.87502e-08
0.00138345
-1.06944e-05
6.85104e-10
-9.9984e-05
3.01354e-09
-5.24265e-08
4.0327e-08
4.50846e-09
-0.000368869
0.00104277
6.87954e-09
-1.36384e-08
8.27205e-08
3.914e-08
1.28014e-07
3.40325e-06
3.54169e-05
-0.000236006
-0.000700448
7.95746e-06
4.09777e-05
-0.000675831
-4.93094e-09
7.81186e-09
1.81897e-08
0.000709244
-4.01362e-08
5.45666e-09
8.71085e-09
-0.00976076
-0.000492667
9.61894e-09
-7.85351e-08
1.62572e-09
-0.000497335
-7.10277e-08
5.11345e-08
-5.03294e-08
-1.44613e-06
-1.02738e-07
-1.47405e-07
3.86623e-07
-1.67536e-09
0.000794432
-6.67667e-08
-1.39561e-06
-7.12473e-08
5.05219e-08
-6.37641e-08
0.000128393
-3.76222e-07
-1.45999e-08
-3.99222e-09
-0.00134729
-0.000490957
-3.66486e-09
-7.92419e-06
-3.80705e-06
-1.86249e-06
7.02924e-09
5.0875e-09
1.87073e-08
0.000591622
0.00212713
-3.13953e-07
-0.00037743
-4.53451e-10
1.03434e-08
1.0196e-07
-9.56762e-08
1.25798e-08
-0.000503321
5.16071e-08
-3.46962e-06
2.01908e-07
-0.000486071
-0.000605084
-1.47963e-06
9.65404e-06
2.87639e-09
5.05658e-09
2.80217e-08
-7.90514e-08
3.24488e-08
-0.000580113
6.98849e-09
0.000193152
6.50872e-07
-0.000493998
-1.17078e-07
-0.00952352
-9.81055e-08
-1.63798e-05
3.89476e-08
-5.29243e-09
-2.02119e-08
3.39323e-09
-1.08406e-07
8.45293e-07
-0.000101348
0.000293478
1.2522e-05
-2.5965e-05
0.000204308
-8.12437e-08
3.61774e-08
0.000733213
-1.50929e-08
0.00165404
-0.000565951
1.14382e-08
-6.57717e-08
-5.41758e-07
-0.000538007
3.41555e-08
2.17397e-09
-0.00809975
0.000266949
-0.000434516
-8.80155e-08
0.000330186
9.21626e-08
4.46511e-05
-9.23766e-08
-9.96129e-08
-2.60748e-08
-0.000530654
6.07375e-08
-7.44682e-08
-8.856e-08
3.85332e-08
4.62101e-06
-0.00148002
0.000282448
-5.54712e-05
4.02444e-09
0.001052
-1.01982e-07
5.45471e-08
4.16194e-05
-4.27749e-08
0.000375147
-2.91318e-09
5.03835e-08
-0.000712087
0.000561096
2.39345e-06
0.00445405
-0.0096092
-7.47936e-08
-0.000176139
4.76903e-07
-1.26735e-08
-0.000850974
1.5279e-08
8.83378e-08
3.53568e-08
4.77546e-08
-9.37781e-08
6.05008e-08
4.54195e-09
4.22063e-06
3.56844e-08
1.90037e-08
1.74527e-08
-1.36658e-06
4.03653e-08
-2.20408e-08
-5.8523e-08
-8.95761e-08
-1.87619e-08
9.31323e-06
1.5483e-05
-2.8825e-08
3.89282e-08
-4.32575e-08
-0.000230839
1.56598e-10
8.87839e-08
-1.23618e-08
8.1941e-06
2.48138e-09
7.13419e-08
3.90384e-08
8.02578e-07
7.24515e-08
-5.04246e-08
-1.49197e-08
-0.00097413
-0.000685869
-8.79412e-05
2.2188e-08
2.62404e-09
-4.0932e-10
5.48726e-08
2.70155e-11
3.46489e-08
-6.32432e-08
-0.0010474
5.35661e-07
0.00528863
1.14288e-08
5.34333e-08
1.2896e-07
2.39044e-05
6.67308e-09
1.13326e-05
0.00128004
3.59796e-07
-2.97059e-08
-9.87956e-10
-0.000493335
-7.36174e-07
-1.0442e-07
-1.70407e-07
-0.00330519
0.000795117
8.67492e-08
1.02489e-07
4.38087e-06
-0.000243407
-7.67717e-08
0.000718993
-1.03982e-07
0.00010054
-0.000452126
-6.99117e-07
-1.33064e-07
-4.75415e-09
-0.00403247
4.42233e-08
3.50753e-06
-1.20338e-07
-8.79532e-09
8.81527e-08
4.15177e-09
-0.00044985
-8.23363e-09
-2.69979e-07
7.9709e-09
4.01091e-08
3.30314e-06
1.77831e-08
4.27409e-08
-0.00048899
-5.12387e-09
5.58987e-09
5.45161e-08
-0.000718578
4.7488e-07
2.67346e-08
-5.20363e-06
-8.36964e-09
9.64928e-08
1.59238e-08
-5.63475e-06
0.000299921
-0.000107035
-0.000473871
-1.26132e-06
-2.64692e-07
-3.94197e-08
-1.07056e-07
1.26595e-08
-0.0080222
0.000370982
9.38222e-07
3.5763e-08
1.03096e-07
9.22621e-09
7.69932e-08
-0.00438699
-5.03389e-05
-9.22748e-07
2.67104e-09
2.18628e-08
8.7395e-08
-6.3671e-09
0.000184162
-9.14364e-08
5.60935e-05
0.00297034
1.97523e-08
8.62835e-09
-7.21056e-08
-7.86676e-09
-8.48348e-08
-0.000886736
-3.97769e-08
-2.47873e-07
2.6631e-05
7.77308e-07
3.62583e-08
-1.11647e-08
-1.37223e-08
2.98311e-08
1.5996e-08
2.6312e-09
0.000379729
1.25534e-07
6.15656e-09
-6.9054e-08
5.91656e-09
-6.65856e-08
-9.24746e-09
3.65266e-07
1.31565e-08
1.06272e-07
1.0834e-05
-0.000636515
-1.05934e-08
-4.67628e-07
3.17838e-08
2.04622e-08
2.94335e-09
-2.61469e-08
-0.000219489
8.44167e-08
0.000160132
-7.69357e-08
-1.77332e-08
0.000166607
-0.00821537
-1.73015e-09
3.90233e-08
1.91626e-05
0.000235103
2.75703e-09
0.000275364
-4.88878e-09
-3.99689e-09
6.86803e-07
-5.51345e-09
0.000243515
4.88555e-08
2.11028e-08
-4.40929e-08
-3.25875e-09
-1.60611e-08
1.02456e-07
0.000522687
-2.8284e-07
-6.17034e-08
0.00125831
-6.88604e-08
0.00528283
-7.44159e-08
1.29981e-09
-3.31504e-07
-0.00284461
-1.15793e-07
-4.83712e-08
-1.10182e-07
-0.00052546
1.94723e-05
9.81204e-08
-8.09486e-08
-5.27394e-09
-0.000317627
-2.21447e-09
-1.95186e-08
3.89234e-08
3.73286e-08
6.57792e-08
0.000996162
9.70639e-08
-7.06984e-08
5.35022e-08
-8.86018e-09
-2.67603e-08
2.95649e-06
3.5764e-06
-8.95937e-08
-8.32623e-09
-1.20487e-06
-0.000561448
-2.32452e-06
9.30029e-09
6.29816e-09
3.1026e-07
-0.00484119
0.00101091
-4.90025e-08
-2.08165e-08
1.52943e-09
-5.74178e-08
8.19929e-06
-1.36871e-06
1.91415e-08
2.47414e-06
6.35163e-09
3.27308e-08
2.21847e-09
-5.74521e-08
3.33587e-08
3.85764e-08
-5.49457e-08
1.87357e-06
3.92956e-05
-9.32733e-08
1.62433e-08
-1.04652e-08
-2.5781e-08
2.06094e-08
4.93388e-08
1.13845e-06
-0.000562605
-2.89626e-08
-0.000918833
2.11836e-08
-1.85019e-06
-3.07409e-07
1.34353e-07
-1.07213e-07
-6.32276e-09
-5.66084e-09
-0.000684701
-7.26956e-10
-5.26093e-06
1.02986e-07
4.28679e-09
2.40965e-07
-2.7034e-08
7.01643e-09
0.00481777
-5.98695e-07
2.78582e-08
-1.1127e-07
-0.000495292
5.17341e-07
0.000571795
2.08014e-08
-3.10566e-08
1.36236e-06
-0.000345495
-8.16632e-09
2.88421e-08
2.79817e-08
-0.000594781
-0.00786377
1.1881e-07
-0.000208675
3.6895e-11
-7.25968e-08
6.88472e-08
-0.00281809
-0.000550309
-3.32521e-09
-2.84553e-07
3.33753e-08
-5.76839e-08
2.27884e-08
3.15758e-08
-2.8431e-08
3.95701e-08
0.000246053
3.54956e-08
-1.20955e-09
4.47063e-06
3.14183e-08
5.55182e-11
-6.59222e-09
-0.00973736
-7.0773e-08
-2.81628e-07
5.58137e-08
-3.45503e-07
8.79279e-07
2.21938e-08
2.62494e-05
8.86593e-08
1.43133e-07
-0.00819563
3.43737e-08
4.25479e-08
1.46723e-06
1.65792e-07
6.09238e-08
-0.00107175
-3.51574e-07
9.74361e-07
8.07174e-08
-1.32487e-08
-1.10243e-06
8.22279e-08
-1.14878e-06
3.40808e-08
0.000221818
1.53721e-07
-6.32324e-08
-4.85438e-08
1.8844e-10
2.33136e-11
-3.17484e-08
-1.35644e-09
1.69049e-10
2.43597e-08
0.000397372
5.54222e-08
-1.81144e-08
4.44914e-08
4.05235e-08
-6.1375e-08
-0.00219669
-1.77049e-08
-2.66089e-06
-5.13198e-08
-4.24241e-08
-5.44015e-07
1.33443e-06
-1.11633e-07
0.00021631
-0.00295978
-1.04934e-08
-9.06535e-08
-2.30283e-07
9.87047e-07
-3.30384e-07
-1.77415e-07
-1.38382e-08
-5.37595e-08
-0.000560853
-6.10814e-08
-0.000106014
2.01081e-06
1.39088e-06
4.07841e-08
4.30044e-08
7.52935e-09
-1.93988e-08
2.49395e-08
5.5341e-09
-4.58447e-09
-1.02931e-08
0.000521196
1.91445e-08
-0.000541746
-1.07906e-08
-1.47946e-07
-0.00041244
4.34409e-11
1.71348e-09
4.33771e-06
0.000230591
-5.14282e-06
4.16976e-10
0.00315715
5.11546e-10
2.54895e-08
2.66996e-09
7.74671e-05
-0.00144266
-1.07434e-06
-5.3047e-05
-0.00207694
2.41576e-08
7.1651e-07
-1.58737e-09
3.80409e-08
0.000777659
-0.00108197
-1.96686e-06
-1.89066e-07
-4.60134e-08
-0.000334518
3.64452e-07
3.32841e-07
-1.05207e-08
2.63893e-06
-7.77547e-08
9.96553e-08
-1.15627e-07
-2.77216e-08
0.000414816
9.50528e-08
-1.10004e-07
-0.00154164
0.000229509
-5.26144e-09
3.98221e-08
0.0050561
1.60389e-09
8.16112e-07
-9.16409e-08
-1.21461e-08
-8.8283e-08
-2.682e-07
0.0010123
-6.92939e-09
-4.21862e-08
-4.63101e-09
-1.29428e-06
-0.00104369
1.18677e-09
-1.37679e-05
-5.80613e-08
-2.11251e-05
-0.00051005
5.00654e-07
-2.03667e-09
1.16264e-08
3.39416e-06
0.000949058
-1.02458e-08
0.000924427
-1.73248e-08
-0.000241205
2.9045e-08
-1.75853e-08
-4.64574e-08
-1.53108e-07
2.99917e-07
8.91633e-08
5.14328e-08
-9.21375e-10
-7.42845e-05
8.27442e-08
-7.63398e-09
-1.23655e-07
0.00157899
0.00101093
2.74264e-08
-0.00112066
-0.0060473
-8.15005e-08
-7.1645e-07
4.51136e-08
5.43503e-06
3.78872e-09
1.97661e-06
5.05251e-08
-0.000958969
-1.70132e-09
-5.42098e-08
-6.36607e-08
8.76767e-06
-1.09821e-07
-0.0021982
-1.0002e-08
-4.46985e-10
0.000115142
-1.74556e-08
3.5521e-06
-1.14192e-08
5.31496e-09
-0.000317051
1.26626e-05
5.5913e-07
3.55182e-09
-1.81217e-08
-8.55192e-08
-2.16163e-09
9.03673e-09
0.00669243
-0.00633336
7.24729e-08
-1.68491e-06
-3.47042e-10
2.77572e-08
-4.30125e-06
-0.000501216
-0.000711515
-8.73229e-07
2.58315e-08
1.43877e-09
0.00511424
-6.28631e-08
-2.52731e-07
-0.00063836
5.83836e-08
-2.88291e-06
1.49337e-06
1.72608e-09
-2.22915e-08
1.4926e-06
2.15907e-09
-0.000508543
8.59965e-06
1.23266e-05
-5.16724e-08
-4.90121e-09
-0.00634631
-4.27188e-10
-0.00170258
0.000771119
-3.33983e-05
5.34242e-07
1.24389e-08
1.18127e-09
0.000191725
4.7819e-08
5.00938e-09
2.39549e-08
5.05376e-08
0.000207317
0.000513114
-1.13869e-08
-5.29005e-09
-7.10647e-08
-6.88703e-09
0.000989559
-7.01359e-07
1.94701e-06
0.00102544
4.35155e-08
3.88525e-08
0.000678844
1.86783e-08
5.61039e-07
7.44305e-09
0.000552679
0.00041849
-5.10842e-08
-0.00738263
-0.000578714
-5.57007e-09
7.25055e-08
1.3804e-06
3.30463e-08
2.429e-09
-4.3207e-09
-1.03792e-08
7.77709e-07
0.000304933
-0.000391365
1.77053e-08
-6.37266e-08
-0.00175666
0.000892815
0.00029135
1.4529e-06
2.59704e-08
-0.000505284
-2.02791e-08
1.45952e-06
-0.000493064
-1.16912e-07
1.93249e-08
-1.40621e-07
-1.24682e-08
-1.0717e-09
-5.43865e-08
5.9374e-08
3.84719e-08
5.29136e-08
-1.25566e-07
-0.000523653
8.18299e-09
-8.66896e-09
0.0053027
-4.86024e-07
-8.84498e-07
-0.000426104
-0.000402583
0.00460239
-2.22849e-09
-4.56078e-08
-0.000589176
-1.25079e-07
-1.50184e-06
7.38841e-08
-4.66397e-08
6.68501e-11
8.87877e-09
-5.33156e-09
-1.15578e-07
-0.00284213
-1.99164e-10
3.79459e-08
6.40842e-08
-6.84588e-08
-0.00221962
-1.0654e-07
-5.65983e-08
5.91714e-06
-2.8896e-09
3.65966e-09
2.08479e-05
0.000468779
-4.79719e-08
0.00223331
4.10862e-08
-1.24232e-07
0.000263573
-2.13286e-06
-0.00140007
8.48533e-08
-4.94006e-09
-0.000210451
1.89638e-07
2.40392e-09
-6.5765e-09
-1.43837e-07
-0.00012671
-2.43756e-09
1.07573e-08
1.48328e-09
1.03598e-08
-2.66564e-08
-0.00625526
8.80573e-06
-1.59085e-08
1.36504e-08
4.28428e-08
-5.85941e-09
4.40805e-08
1.9435e-09
-1.42561e-08
-4.80032e-08
-2.4734e-07
-5.05801e-08
-3.90567e-08
-1.15915e-07
1.94317e-09
-0.000628308
1.8956e-08
-2.2123e-05
3.248e-08
0.00108923
-8.19776e-07
-9.15825e-09
1.52995e-09
-5.34008e-08
-6.28737e-08
-3.43223e-09
1.12573e-08
-0.000570193
0.000874244
3.58746e-05
5.41434e-09
-2.31867e-06
-2.4186e-06
-3.74355e-08
-0.00249308
-4.47834e-09
6.27531e-07
1.3488e-08
9.8733e-07
-0.000473902
-1.99829e-08
9.02185e-08
-0.000455586
-0.000234047
-1.41525e-08
5.27582e-07
-5.53335e-06
0.000132211
-0.000876317
0.0041493
2.86376e-09
-0.00659875
0.000987772
0.000315273
1.05713e-09
-8.63312e-07
1.07301e-09
8.96989e-10
-0.00204235
2.25317e-09
-1.6608e-06
-8.29624e-05
4.55248e-09
0.000488662
-8.34877e-09
-0.00839261
-7.24287e-08
-1.01791e-07
-4.73522e-09
-2.93682e-09
-1.7252e-08
-2.26374e-08
8.15526e-09
-0.00586882
3.16288e-09
0.00672373
0.00100058
-1.06743e-07
-0.00793539
-2.45171e-08
1.11259e-08
-9.69191e-06
1.00801e-09
-0.00189755
1.53771e-05
-0.00023347
-0.000526569
-3.58027e-05
-1.08357e-07
7.36619e-07
-1.10854e-07
-1.89593e-05
-5.00106e-10
-1.47531e-08
-1.43362e-07
7.7081e-10
2.27691e-09
1.80772e-05
-4.96459e-08
1.53273e-06
-4.39527e-08
1.11555e-07
-0.000599466
-8.58321e-09
1.01033e-08
9.88781e-08
-3.8977e-06
9.25741e-09
-1.77273e-06
1.27548e-10
0.000852342
4.09498e-08
-0.000541736
-6.0599e-08
0.000246467
-1.67122e-06
1.69031e-08
2.70665e-05
7.92012e-08
-5.44869e-08
1.75432e-10
-1.49794e-05
-1.013e-07
-1.30054e-08
2.07382e-06
6.64008e-09
9.89754e-10
-0.000430985
-1.15979e-08
-0.000681603
-5.99771e-08
-5.49961e-09
6.45955e-10
-3.62895e-08
2.2061e-05
-1.03666e-08
3.19197e-06
-7.19052e-09
-9.79847e-09
8.89661e-09
6.49207e-08
-1.12694e-06
-2.54472e-07
2.39741e-07
3.45446e-08
1.00321e-09
1.4175e-09
6.19988e-09
1.16486e-08
0.000537893
-1.35936e-08
-2.27223e-08
-0.00701238
1.1812e-09
3.62747e-08
4.03076e-08
1.03712e-09
0.000757016
1.75514e-08
1.01665e-07
3.01895e-08
-8.82019e-09
1.5964e-09
0.00166368
-7.55972e-08
9.89068e-05
0.00403869
-1.26471e-07
-2.9671e-05
5.16781e-09
1.02954e-09
0.000621183
-0.000212498
1.41057e-08
2.68641e-08
-1.21579e-07
4.8352e-07
-1.14478e-08
3.28867e-08
-1.77831e-08
1.06638e-10
-4.08533e-08
-2.7065e-05
-1.47316e-08
3.84507e-06
-4.1526e-08
-6.77214e-06
2.1462e-06
4.84467e-08
-0.000243128
-2.24268e-09
-0.000512733
-3.8364e-07
1.21975e-06
-1.02085e-07
1.42263e-06
1.0655e-07
-0.0015057
-1.22427e-06
1.02768e-08
-4.39671e-10
-4.31137e-08
1.71488e-05
9.55964e-08
4.67029e-06
-1.09218e-06
2.55797e-09
6.34976e-08
-0.000524631
-7.33525e-08
0.000245096
-4.12366e-08
7.2151e-07
1.88133e-08
-3.27637e-08
-8.56471e-08
-1.16063e-07
-1.48614e-08
3.67061e-08
1.41175e-08
-6.46285e-09
4.28277e-08
3.13655e-07
3.24778e-08
4.69325e-08
1.74191e-06
-1.01929e-07
-0.000432593
-5.4302e-09
8.21565e-08
0.00396463
4.17602e-08
2.36664e-08
4.28136e-07
6.76243e-08
-0.00213375
-1.12945e-06
7.76206e-09
-0.00111703
-7.21479e-09
0.000361529
-1.45921e-08
-1.85012e-08
-0.00761377
-8.02186e-07
-2.17221e-08
-8.04748e-08
-4.73011e-08
-4.73332e-07
2.59481e-09
0.000749139
-6.92184e-08
5.22009e-06
-0.000510267
-6.69522e-07
-5.36873e-08
-5.89602e-08
0.00220505
3.37517e-08
3.88935e-08
-0.000421166
-1.27741e-08
-2.01832e-06
-0.000577386
-8.72657e-07
-5.70835e-08
5.35577e-09
-0.000202884
6.22856e-06
1.37066e-05
-1.40201e-07
3.11188e-05
6.11016e-08
3.96224e-07
-3.46787e-07
-7.02841e-05
-4.19238e-08
0.000469363
-3.18219e-08
1.43716e-07
2.61622e-08
-7.18446e-09
-3.29027e-07
-3.99526e-08
-2.97476e-07
0.00020231
-1.35729e-07
0.000246921
-0.000466062
-6.43111e-08
1.0367e-07
-0.000128432
-3.31602e-08
7.63308e-07
3.94024e-08
-1.46422e-08
-9.93202e-05
-7.19324e-09
1.67094e-07
2.21613e-08
2.5414e-09
1.76234e-08
-0.00109276
-0.000660511
5.71873e-07
-7.19482e-08
0.000881442
1.06543e-08
-0.000402244
1.23383e-05
-1.82436e-05
-5.32553e-08
-0.000364204
-4.18303e-07
-1.61555e-08
-1.03472e-07
4.37023e-08
-2.45689e-08
-2.77626e-11
9.60421e-08
4.8814e-09
1.02451e-07
-7.75109e-08
-1.05876e-08
1.15295e-07
8.10805e-08
-0.000787726
-4.58556e-08
1.89906e-07
-0.000541219
-1.12828e-07
-1.08832e-07
-7.20455e-09
8.68451e-06
0.000379018
2.90587e-08
-2.6766e-08
2.12923e-06
-6.3557e-08
-8.02107e-07
-3.6859e-08
7.41451e-06
3.78263e-07
3.40388e-08
-4.80643e-07
9.64996e-07
-1.47055e-07
-5.93011e-08
-0.000213586
1.84513e-08
-0.000536413
0.00609037
3.15016e-08
2.37829e-07
2.61804e-09
-1.82179e-06
-3.36479e-08
0.000267711
3.33053e-09
6.9763e-09
0.000727154
1.04849e-07
1.14383e-08
0.000736531
8.33829e-08
0.000742179
8.8279e-08
-1.70246e-07
-0.00405341
1.98614e-08
-2.37782e-09
-0.000372059
-1.77131e-07
3.39159e-08
-0.000202483
0.000209379
-7.85669e-09
1.82855e-05
-9.84535e-08
-1.68055e-08
6.90826e-09
7.79038e-06
-0.000237324
0.0012452
-1.5674e-08
-5.24877e-09
0.000378491
-1.18344e-08
-1.24666e-07
0.000264054
0.000976306
-1.12182e-10
1.9121e-09
5.37378e-05
0.00059338
1.57229e-08
4.06506e-06
0.000172317
-0.00240191
0.00648575
3.53472e-08
-1.47747e-08
1.27265e-09
0.000182994
1.28493e-08
2.6706e-07
5.6616e-08
-7.28988e-09
5.86332e-08
1.60357e-09
-2.3858e-07
2.68316e-08
0.00481325
9.51433e-09
-1.08233e-07
-1.21006e-05
-1.24477e-07
-3.96601e-09
9.8003e-07
2.9191e-09
4.93301e-07
7.29609e-08
1.03695e-05
-1.31989e-07
-0.000732357
-1.36603e-08
-0.000646445
2.17662e-08
7.75635e-08
7.36616e-06
-1.2978e-07
9.35336e-09
-1.78884e-07
-7.42009e-08
3.61578e-08
-1.33472e-07
2.47544e-05
1.68389e-09
-6.75001e-08
4.73649e-11
-3.55397e-10
-0.001199
-1.47944e-08
9.26029e-07
-2.90869e-08
0.00368996
2.41159e-06
-5.55294e-07
-1.7054e-08
-1.03199e-06
8.12589e-08
9.66049e-10
-1.68834e-06
-1.32907e-08
-1.09522e-08
0.0043433
-0.00282792
-2.27878e-06
4.76566e-08
-1.17065e-07
-9.01515e-08
4.32746e-06
1.65296e-05
-4.87005e-08
-0.00013229
-2.80466e-08
-3.28022e-07
6.10378e-10
-3.1373e-08
2.15361e-09
7.02832e-07
-2.56392e-07
0.000813723
0.00608402
1.0021e-07
1.83771e-08
-0.000831556
1.86074e-10
-1.60076e-07
1.47197e-08
4.64573e-07
1.72244e-05
-0.00707968
-4.54186e-07
0.000510736
9.28188e-05
-0.000745593
7.41499e-09
-0.000322059
-1.97623e-08
0.000402373
0.000252297
8.57382e-09
5.01079e-08
-0.000493241
-2.11813e-11
-1.01956e-10
1.15883e-08
-1.3485e-08
-3.45294e-08
8.11439e-11
4.36333e-08
-1.68766e-07
9.59804e-09
-0.000208664
1.46275e-07
-4.67367e-09
0.00104761
-0.000339112
0.00180547
8.86044e-06
1.84327e-09
-0.000232863
4.60897e-08
-8.10588e-08
1.96368e-08
-4.29989e-10
0.000318455
5.65165e-09
0.00495674
3.08604e-07
-3.027e-07
-4.2546e-09
-1.11708e-07
0.000184836
-1.54879e-08
-6.87583e-07
4.25702e-08
-0.000215011
-3.21881e-09
1.92656e-07
-5.94264e-08
-0.000564625
1.67003e-09
-1.46054e-08
-2.56107e-07
1.30765e-08
3.5357e-08
6.06001e-08
2.9455e-07
-1.2122e-06
-8.44598e-09
8.72187e-09
3.96194e-08
6.8333e-08
4.81508e-07
1.72678e-08
7.19954e-08
3.3749e-06
-3.92834e-08
0.000674916
-0.00103316
-0.00347407
0.00104993
-1.89691e-07
-1.54133e-08
4.86167e-08
-2.10953e-08
-7.11951e-08
5.72909e-08
-0.000658796
1.29319e-08
1.67122e-08
-1.25808e-08
-1.06817e-08
4.27295e-08
-6.76022e-08
-1.1019e-07
-2.07477e-08
-1.51529e-06
0.000627134
-0.00842223
0.00691133
-5.85193e-09
-0.000605123
-6.70374e-09
-0.000189992
-8.56759e-08
-1.13108e-07
5.29159e-08
-2.97985e-09
-2.09149e-08
8.13462e-10
-0.00135451
1.47806e-08
2.62104e-08
4.61583e-07
-9.19515e-08
-6.98683e-09
1.16462e-08
2.39136e-06
-0.00349918
-5.17127e-09
1.78524e-08
7.407e-09
-0.000898131
1.95945e-06
-7.45542e-09
-1.13979e-08
4.37718e-06
-4.1449e-08
-1.89015e-08
2.30586e-08
0.00115895
-3.9167e-09
-4.33823e-08
-7.55665e-08
7.58458e-09
0.000858708
0.000585984
0.000902426
1.09828e-07
1.10385e-08
2.15659e-06
-0.000524421
-6.09652e-09
-1.50839e-08
-1.22802e-07
-2.71738e-09
5.73343e-08
1.41047e-10
-0.000488392
-1.58223e-08
-3.31336e-08
3.83934e-08
3.69001e-08
-3.67709e-09
-7.55721e-09
0.000500112
-0.000472811
-7.73725e-08
1.14421e-08
0.000191727
1.57631e-05
4.03416e-06
-1.74062e-08
-0.000791159
8.56443e-08
1.44484e-08
-1.53902e-07
-5.01422e-08
-1.67505e-08
0.000148127
1.45168e-08
0.000369619
-0.000264408
0.000425796
2.4662e-08
1.01279e-07
4.16886e-08
-6.73301e-09
-2.70617e-09
-3.03243e-07
0.000547319
3.98346e-08
-1.22631e-09
2.13479e-07
8.2695e-09
0.00102091
-0.00183557
-0.000594371
-4.48793e-08
1.49796e-08
2.71911e-08
9.96615e-08
1.41961e-08
-3.57552e-08
9.90495e-09
1.20752e-08
-0.000343736
-0.000560427
-6.98865e-09
5.40935e-06
2.42005e-05
2.11184e-08
1.74205e-06
-1.18051e-07
-7.82898e-08
-0.000108314
2.46066e-06
-1.15597e-07
1.15026e-08
0.000987027
-3.26728e-08
-1.41153e-08
8.74616e-10
7.79827e-05
-0.000992489
-1.09293e-07
-2.17202e-08
-0.000614103
3.86837e-06
-8.31523e-09
7.31222e-07
-0.000719223
-7.00667e-05
7.70678e-09
4.77854e-08
-6.54085e-07
0.000485669
-2.98376e-06
0.00086441
-1.35103e-09
2.39393e-09
-0.00158223
-8.55195e-09
7.40699e-09
7.36886e-08
-6.9839e-09
5.58385e-07
3.75999e-10
2.28839e-09
-3.81865e-08
3.92919e-09
-0.0076955
0.000225251
4.68345e-08
-4.2498e-09
-0.000425136
-6.85966e-08
9.24579e-08
9.84429e-09
1.00871e-07
9.64044e-06
0.00155833
1.88152e-05
-1.12934e-07
2.49509e-09
-3.57218e-08
0.00117527
3.60367e-06
-0.0273805
-4.17696e-06
7.46503e-08
3.81318e-09
-0.00637798
-1.62961e-06
6.39663e-07
-1.37404e-06
9.64423e-09
4.17904e-08
-4.73383e-07
4.55493e-05
-3.00742e-08
-1.16677e-08
0.00104618
-0.00556639
2.85676e-09
-0.0027272
-4.67676e-08
7.50935e-09
5.62591e-09
-0.00102154
-4.25835e-08
5.28417e-06
-0.000370738
2.32425e-11
8.40697e-07
1.71194e-05
3.05642e-05
3.6287e-06
8.62885e-10
-0.000620649
-5.54377e-07
2.86261e-08
0.000180734
-2.17234e-10
9.91688e-09
3.60897e-07
1.0167e-08
1.67959e-08
8.53083e-08
-6.60736e-07
3.2536e-08
2.34492e-08
4.42045e-07
-7.68521e-07
-1.54951e-08
1.48564e-08
6.81438e-09
-0.00103064
-0.000549641
1.64007e-08
-1.30703e-07
0.000102918
5.31994e-07
5.57476e-10
-0.00254247
7.31376e-08
3.57986e-08
1.18035e-08
3.44247e-08
5.71027e-10
-2.45256e-07
1.65408e-08
4.5067e-09
-7.3797e-07
-4.7564e-06
-3.73345e-06
-1.36253e-08
-0.00244716
3.40455e-08
2.12189e-08
-0.00630941
-9.33905e-10
-2.30507e-06
1.92803e-08
7.28149e-10
-0.000584917
-7.25791e-08
-4.14877e-09
8.55464e-07
-6.36974e-08
-2.54606e-08
-1.25509e-05
2.16006e-06
-8.72461e-08
0.000151294
0.000289838
-1.26583e-08
-9.41867e-09
-5.55108e-09
2.83447e-09
0.00126839
-2.1863e-08
-0.000407117
0.00337379
-6.61231e-08
9.70206e-08
-0.00137019
1.33088e-08
0.000632768
-3.01584e-05
-6.65044e-06
-1.54307e-06
-3.51566e-09
-4.5699e-07
-3.08418e-08
-7.2231e-07
-8.4166e-09
-1.50989e-08
-0.000477187
-7.62429e-08
-4.92232e-07
7.96361e-09
0.000681967
-5.73729e-09
-0.000276548
5.62934e-10
1.13799e-08
-4.84734e-08
-0.000531751
-3.70859e-08
1.01381e-09
1.43116e-06
2.8067e-08
8.30966e-08
7.69446e-09
5.89454e-08
0.000550498
8.94299e-08
0.000471503
-4.79488e-08
3.41639e-08
-2.44843e-06
3.99975e-08
-0.000596636
-3.19252e-09
-6.55342e-07
0.000222183
9.64788e-10
0.000143411
2.0033e-08
7.56528e-08
-3.36529e-08
-1.44465e-08
-0.000542255
5.76415e-08
1.61865e-08
0.000654194
-0.000454085
-0.000542481
-0.00058318
-0.000431654
-3.27728e-06
5.99566e-08
-8.55718e-09
-2.78809e-06
1.10935e-05
-6.78989e-08
-0.000528182
-1.63292e-07
-0.0257937
-1.43547e-08
-1.16781e-07
2.52342e-07
0.00044506
4.38434e-08
-5.16865e-08
-0.000583049
-4.56938e-07
1.47228e-05
-0.000497834
1.42225e-08
0.00349926
-0.000266772
-0.000427935
0.00382121
-1.05407e-07
-0.000696638
3.00726e-06
-7.95336e-10
-1.04473e-07
-3.10372e-09
0.00469059
9.86738e-08
0.000286112
7.41647e-10
-0.000552899
-0.000284023
3.57702e-08
8.76266e-07
0.000112376
2.4122e-08
1.08248e-09
1.26165e-09
8.3997e-08
-1.67666e-08
-8.93929e-11
-1.42491e-08
4.82476e-07
2.23937e-08
-1.4501e-07
-0.000968762
-1.62225e-06
7.61766e-08
1.43652e-08
1.32846e-08
-8.49897e-05
-6.64552e-05
-5.32856e-07
-0.00145973
-6.73367e-07
4.49453e-07
-6.44981e-09
1.621e-07
2.91635e-10
7.42663e-09
-4.82096e-09
-2.43085e-08
1.6506e-09
1.81149e-09
5.59365e-06
5.55814e-06
2.13807e-10
-0.000474055
-2.56409e-08
7.77747e-10
-0.000843693
4.2153e-08
0.00074118
-1.12611e-07
-9.50907e-08
8.48122e-10
-1.94656e-07
7.22299e-08
-0.000537057
-3.94036e-09
-0.00354016
-1.3583e-06
6.90756e-09
-5.6096e-08
7.84167e-09
-2.82841e-08
0.000477113
0.000409372
3.79454e-08
2.06499e-08
-8.90491e-08
4.47427e-07
4.19409e-10
-1.43418e-07
-1.31441e-06
1.43541e-08
8.56095e-05
7.85869e-09
-2.1945e-08
-0.000294814
-9.05179e-08
5.29038e-09
3.99981e-08
-5.94365e-07
-3.34836e-08
-0.00113724
1.02272e-08
-1.43761e-05
3.73908e-08
1.58219e-09