/*--------------------------------*- C++ -*----------------------------------*\
| =========                 |                                                 |
| \\      /  F ield         | OpenFOAM: The Open Source CFD Toolbox           |
|  \\    /   O peration     | Version:  v2012                                 |
|   \\  /    A nd           | Website:  www.openfoam.com                      |
|    \\/     M anipulation  |                                                 |
\*---------------------------------------------------------------------------*/
FoamFile
{
    version     2.0;
    format      ascii;
    class       volScalarField;
    location    "100";
    object      k_0;
}
// * * * * * * * * * * * * * * * * * * * * * * * * * * * * * * * * * * * * * //

dimensions      [0 2 -2 0 0 0 0];


internalField   nonuniform List<scalar> 
37809
(
0.000177096
0.0189318
0.000149665
0.000154656
0.0661821
0.000180412
0.000182156
0.00051134
0.00697992
0.00818383
0.000178308
0.000147974
0.000153131
0.000153178
0.0170021
0.000153848
0.000148385
0.0367688
0.000148642
0.000176158
0.000165572
0.000165453
0.0567411
0.000147559
0.000165286
0.0167457
0.00248218
0.000149162
0.000149603
0.000528198
0.000198555
0.0218467
0.00014759
0.000268713
0.000148843
0.000148434
0.000145731
0.00292587
0.000181455
0.000186093
0.0685815
0.0161498
0.0241102
0.0123266
0.000147702
0.000159964
0.000196335
0.0339535
0.00142262
0.000166197
0.00014935
0.000147791
0.000146868
0.000149642
0.0248238
0.000146896
0.000158985
0.000155937
0.00018055
0.000177301
0.0240329
0.000151701
0.000152993
0.000185415
0.000198469
0.000165436
0.0318038
0.000148846
0.000153714
0.0120994
0.000152958
0.00753356
0.000148178
0.000153086
0.000149137
0.000145522
0.000185965
0.000182883
0.000176773
0.000218168
0.000147249
0.000149643
0.0389098
0.000162518
0.000147469
0.0198835
0.000150963
0.000262407
0.000181771
0.000158588
0.00236855
0.0148026
0.000168657
0.0853477
0.000151128
0.0508712
0.000148224
0.000149519
0.018506
0.000146968
0.00642141
0.000149545
0.000184857
0.0346784
0.00530491
0.000149414
0.000542233
0.00445408
0.00018855
0.000147957
0.000175879
0.000162308
0.000174621
0.000151973
0.000158754
0.000180895
0.00014896
0.000148209
0.000260644
0.0241022
0.000149858
0.000149413
0.000166834
0.0655523
0.0133771
0.000148928
0.000195937
0.000148212
0.000158168
0.000154319
0.000262083
0.000204179
0.0199467
0.000147217
0.000228869
0.000148845
0.000149346
0.000151816
0.010438
0.00476016
0.000148779
0.00212323
0.00800785
0.0679787
0.000148186
0.0296586
0.000154101
0.000151567
0.0408658
0.000150551
0.0173686
0.000154315
0.000171401
0.000246326
0.000195249
0.000151017
0.000321198
0.000254874
0.000149729
0.00768786
0.000158154
0.000208981
0.000607528
0.0267832
0.000150688
0.000144249
0.000147643
0.0435558
0.00018183
0.000193335
0.000225114
0.000146624
0.03149
0.000152052
0.00015407
0.000154556
0.00550565
0.000158546
0.0620164
0.000170678
0.0243677
0.000149633
0.000146891
0.000149385
0.000144527
0.000218344
0.000149688
0.00016023
0.000354491
0.00742336
0.000166157
0.00014823
0.000148623
0.0130516
0.0002016
0.000287271
0.000148007
0.000143473
0.00014676
0.000153094
0.00620502
0.000179332
0.0208521
0.000170668
0.0233075
0.000144569
0.000152361
0.000167086
0.000147677
0.000189989
0.000167106
0.0192918
0.000146565
0.000148181
0.000147582
0.000275001
0.000165518
0.000147132
0.000146549
0.000202987
0.0828277
0.000393531
0.000149312
0.000149619
0.000147267
0.0437033
0.0573656
0.000195235
0.000156496
0.00303916
0.000149302
0.000179363
0.000211841
0.00015147
0.000214134
0.000284177
0.000146431
0.0464786
0.000150626
0.000188635
0.0435014
0.000146654
0.000185448
0.00677473
0.000147721
0.000148041
0.000149713
0.000143963
0.000193516
0.000144578
0.000148559
0.000147641
0.000148189
0.0682305
0.000148319
0.000148272
0.000143429
0.000148215
0.000347195
0.0345297
0.000239394
0.000148652
0.00795078
0.000149476
0.0185241
0.000169784
0.000197154
0.000165971
0.000148065
0.000273186
0.0202445
0.000147588
0.065144
0.000219287
0.000147676
0.00018756
0.000253152
0.000148536
0.000131555
0.000148195
0.000149005
0.0148948
0.00993625
0.000147476
0.00019939
0.000148026
0.000148136
0.000148263
0.000148255
0.0197543
0.000147878
0.000170681
0.00702985
0.000146859
0.000148175
0.000159909
0.00020375
0.00659749
0.000148302
0.00097344
0.000170159
0.0169916
0.000145571
0.000236578
0.00659204
0.000162645
0.000149619
0.000152968
0.0661121
0.00014666
0.000195403
0.0691791
0.0161324
0.000167187
0.000149809
0.0551349
0.000151749
0.0001487
0.00103572
0.0077227
0.000183579
0.00039895
0.000163526
0.000152861
0.00823806
0.000165287
0.00679823
0.000148075
0.000149622
0.000218669
0.000146466
0.000146608
0.000148986
0.00425457
0.000144962
0.000147179
0.00017428
0.000148654
0.000147961
0.000180611
0.000147502
0.000153106
0.000532078
0.0109888
0.000157311
0.000218743
0.000937822
0.000148562
0.0199935
0.000154199
0.000382889
0.000182575
0.000147952
0.000148814
0.0120942
0.00992634
0.000144618
0.000202993
0.00014799
0.0574419
0.00779777
0.000155107
0.0229382
0.0219728
0.0753403
0.0418964
0.000162059
0.00015405
0.000154846
0.000147433
0.000153204
0.000168323
0.000181147
0.00668215
0.000177185
0.000145732
0.000185988
0.000144635
0.0178474
0.00054476
0.000148141
0.000151687
0.0230495
0.00016752
0.000514118
0.000168132
0.0076203
0.000160296
0.000995745
0.000145203
0.00014822
0.0234772
0.000149661
0.000148817
0.000154326
0.000182678
0.025203
0.000254004
0.000159525
0.000149663
0.0576363
0.000189497
0.000145165
0.000148352
0.000148673
0.000171949
0.00014669
0.0457723
0.0400955
0.0350994
0.00016587
0.000160055
0.000175007
0.000149356
0.000145521
0.000164228
0.000263619
0.00722853
0.00014978
0.00014789
0.0638697
0.000180901
0.000193393
0.000228602
0.000148229
0.0588446
0.000149633
0.000158413
0.000156588
0.000675335
0.000147285
0.000169803
0.000154537
0.000151866
0.0599241
0.000149267
0.0187006
0.0650066
0.000173479
0.000146503
0.000150553
0.000213138
0.000173371
0.000175572
0.000147812
0.000147358
0.0381096
0.000227377
0.000173721
0.000209351
0.000168445
0.000145715
0.000151974
0.0001482
0.000148361
0.000147498
0.000145744
0.000147956
0.0198202
0.000147601
0.000149394
0.00015493
0.00019906
0.00262993
0.0224702
0.0181729
0.00015468
0.000159618
0.0324392
0.000147932
0.000161344
0.000147255
0.000148559
0.000147646
0.00018026
0.000146841
0.000168995
0.0198252
0.000169551
0.000148218
0.000147392
0.000147958
0.000158837
0.000144663
0.0113454
0.000147883
0.000171433
0.000220803
0.0606081
0.000149163
0.0251058
0.000174013
0.00018849
0.000149557
0.000180328
0.0390456
0.000143928
0.000168894
0.000173515
0.000167977
0.00017798
0.000238622
0.0582183
0.0399979
0.000154127
0.000158897
0.000181078
0.0208522
0.000148655
0.0001487
0.00014545
0.000146821
0.0598103
0.000158798
0.000153492
0.000270153
0.00359161
0.000149806
0.00168905
0.000154221
0.00335946
0.000213379
0.000148531
0.00927557
0.000153812
0.000151679
0.000238554
0.0543733
0.000162887
0.000205543
0.00775246
0.000150652
0.000234987
0.000167197
0.000149808
0.000145026
0.000147457
0.021631
0.000147923
0.000148232
0.000185683
0.000151666
0.0566668
0.000210957
0.00212067
0.000149119
0.000148269
0.0110266
0.000199569
0.00014985
0.000157311
0.000174315
0.000148531
0.000188607
0.0327006
0.000159369
0.000148165
0.000185264
0.000264909
0.00016025
0.000177365
0.0187253
0.000193123
0.000145004
0.0137061
0.000162231
0.000182897
0.000148758
0.065288
0.000230146
0.000149815
0.0120436
0.000148124
0.000149316
0.000147145
0.000148213
0.040363
0.0188452
0.000145064
0.000144172
0.000154538
0.000159752
0.000165734
0.0002086
0.0143801
0.0273592
0.0490112
0.00895673
0.0147884
0.0472981
0.000148262
0.000147723
0.000153402
0.0146992
0.000149689
0.000148195
0.000145121
0.0426165
0.0165851
0.000147262
0.000148472
0.000149825
0.0203185
0.000165548
0.000328208
0.000149681
0.000190504
0.000153776
0.000176092
0.000183212
0.000146792
0.0172439
0.000149151
0.000200461
0.000148445
0.000149916
0.000148862
0.0729096
0.000539827
0.000518657
0.000148559
0.0593873
0.0404694
0.000150693
0.0130852
0.000199102
0.000195107
0.000147762
0.000148045
0.000147973
0.000514313
0.0869744
0.000175576
0.0407818
0.000149211
0.000148083
0.000169634
0.000163447
0.000147221
0.0371676
0.00015487
0.000200206
0.000178124
0.00744335
0.01913
0.000636537
0.000250177
0.000148118
0.000145044
0.000156216
0.000148597
0.000158619
0.0657997
0.00014805
0.0065548
0.000216999
0.0402878
0.00015469
0.0453838
0.000166441
0.000593199
0.000154117
0.000148257
0.000157864
0.000148338
0.000154853
0.000193993
0.000301749
0.0305874
0.000236113
0.0140331
0.0728071
0.000165446
0.00014783
0.014775
0.000144261
0.00182549
0.0279847
0.000149849
0.000156595
0.000225363
0.042354
0.000150461
0.00014972
0.0385382
0.00805647
0.0397232
0.000148206
0.0405089
0.000148356
0.000238536
0.00016594
0.000151105
0.000169416
0.0250354
0.000148697
0.000148515
0.000148184
0.000147281
0.000221253
0.0584191
0.0677732
0.0307459
0.00014795
0.0216436
0.000162693
0.000195144
0.000808079
0.000155189
0.0175699
0.000150601
0.00015119
0.0560001
0.000242375
0.000199184
0.0265405
0.00989005
0.000168317
0.0137101
0.00020378
0.000149154
0.0563385
0.000157165
0.000168869
0.000156154
0.000156083
0.00016606
0.000152094
0.000158668
0.000205756
0.00015774
0.000158155
0.000158115
0.000187785
0.000155289
0.000147927
0.000149038
0.000148173
0.000149271
0.000255439
0.000307275
0.000149695
0.000147616
0.000165133
0.0294238
0.000149377
0.000154392
0.000165602
0.000220428
0.000149658
0.000149174
0.000155381
0.000185671
0.000152331
0.000147788
0.000146747
0.0189886
0.0599144
0.000145219
0.000159205
0.000149617
0.000147963
0.00015761
0.000148187
0.000147614
0.000156498
0.0738029
0.000180718
0.0359832
0.000147839
0.000154811
0.000168621
0.0550631
0.000169193
0.00853154
0.00340572
0.000644052
0.000145633
0.000148009
0.0441519
0.000181756
0.000166284
0.000177961
0.0671263
0.0171812
0.000182939
0.000149605
0.000214435
0.0316218
0.000156566
0.0897542
0.000173454
0.000632542
0.01739
0.000199671
0.000174744
0.000150665
0.0239206
0.000147598
0.000511907
0.000157388
0.00014652
0.000148607
0.000145001
0.0160885
0.000146625
0.000188043
0.000148026
0.0001598
0.000235858
0.000159151
0.000147802
0.0525621
0.000175114
0.000147848
0.000148654
0.0828407
0.000179823
0.000162464
0.000202146
0.000156544
0.000153881
0.000145952
0.000209197
0.0651819
0.0634799
0.0528508
0.000180706
0.000188149
0.000165676
0.000204828
0.000151517
0.050313
0.0347361
0.000215525
0.000147582
0.000153916
0.000179935
0.00014926
0.030686
0.0163405
0.000204969
0.000148221
0.000167446
0.000148279
0.000164049
0.0180316
0.000148132
0.00023462
0.0796645
0.000148059
0.000161305
0.000165121
0.000143832
0.00016278
0.0615238
0.000173363
0.000171642
0.00542944
0.00018517
0.000150562
0.000152888
0.000146737
0.000158933
0.000145956
0.000148217
0.0344214
0.000170484
0.000153144
0.00015098
0.000144953
0.000151125
0.000145293
0.000177725
0.000181894
0.00015158
0.000235776
0.0191214
0.0001464
0.000185309
0.000147595
0.000158151
0.000149618
0.00014929
0.0347197
0.000155224
0.00767114
0.000148515
0.000150317
0.000242546
0.053526
0.000148555
0.000158456
0.00940778
0.0272872
0.000149663
0.028372
0.000161162
0.000164159
0.000216726
0.000153044
0.0062128
0.000155939
0.000147945
0.000147836
0.000146714
0.000150349
0.000151557
0.018478
0.000171477
0.000161666
0.000572833
0.00017112
0.0329482
0.000162673
0.000149068
0.000175385
0.0666818
0.000159871
0.000172682
0.000158681
0.0210913
0.000264603
0.00015319
0.00016303
0.000150676
0.0318569
0.000148527
0.00018132
0.000147025
0.000158573
0.000152464
0.0330158
0.000153919
0.000171313
0.000157731
0.000168688
0.000145584
0.000222022
0.000203032
0.000163217
0.000143847
0.000186855
0.0243511
0.000244355
0.000145185
0.000153252
0.000624057
0.00311674
0.0059339
0.000148495
0.000173798
0.000149652
0.000166822
0.000244314
0.000247883
0.000157707
0.000201442
0.000158797
0.000147916
0.000149516
0.000196683
0.000147908
0.000147734
0.000151012
0.000200582
0.000217509
0.000163014
0.000146496
0.00014541
0.000145544
0.000161794
0.000148697
0.000192554
0.0284134
0.000145664
0.0247624
0.000149959
0.0179757
0.000534213
0.000170263
0.000154659
0.000162312
0.00014824
0.0593942
0.000145933
0.000212025
0.000153768
0.00014835
0.000180967
0.000164663
0.000147197
0.00911532
0.000180137
0.000158344
0.000153002
0.0396533
0.000184465
0.02028
0.000149831
0.000165569
0.000228688
0.0214389
0.000146559
0.000158674
0.000147205
0.0152452
0.00827331
0.000424478
0.0642646
0.000149853
0.000162572
0.000151054
0.0668833
0.000266192
0.000150902
0.000188178
0.00014789
0.000161425
0.000147191
0.000147932
0.000147623
0.000154665
0.0150291
0.000147897
0.000163191
0.000216741
0.00014794
0.000149818
0.000161165
0.0414508
0.000156797
0.000188265
0.00014787
0.000552064
0.000531321
0.000148051
0.00024424
0.00016245
0.000171632
0.0553721
0.000159695
0.000148657
0.000230762
0.000176557
0.000150919
0.0002281
0.000194498
0.000213761
0.000154673
0.000144148
0.000208773
0.000183486
0.000220482
0.000147263
0.0256968
0.000171371
0.000190267
0.000165356
0.000145867
0.000149861
0.000146766
0.000148107
0.000149248
0.000151884
0.0210807
0.000158375
0.000149292
0.000156029
0.000156117
0.000147625
0.0620917
0.00015629
0.000199956
0.000165396
0.000150993
0.000576382
0.000193896
0.000173869
0.0288917
0.0615168
0.000146335
0.000168808
0.000184125
0.000191477
0.000186056
0.000378337
0.000144242
0.000148357
0.0219952
0.000149032
0.0207868
0.000207358
0.000196825
0.000156176
0.000156149
0.000147217
0.000146688
0.000147929
0.00014811
0.00014869
0.000148094
0.0166745
0.000148043
0.0327603
0.000153446
0.000173469
0.0378577
0.000149829
0.000148244
0.000214294
0.0486921
0.00020263
0.000149645
0.0769571
0.000149611
0.000148041
0.000150563
0.000278282
0.000831117
0.000215872
0.012475
0.0260187
0.000161478
0.000171766
0.000145903
0.000148702
0.0442712
0.0741734
0.000200508
0.000169048
0.000151041
0.017358
0.000171562
0.00258147
0.000146796
0.000218999
0.000150977
0.000151743
0.000159958
0.000175234
0.00797439
0.000154097
0.000189566
0.0590002
0.00711305
0.000148249
0.000154989
0.0132283
0.000151704
0.000605655
0.000154954
0.000165865
0.000165805
0.000180426
0.0238475
0.00014629
0.000147991
0.000163148
0.000187563
0.0201428
0.000149546
0.0127415
0.000151067
0.00551254
0.0370024
0.00020245
0.000148102
0.000147297
0.000202577
0.0275122
0.000144125
0.0773371
0.000150966
0.032922
0.000158447
0.000155914
0.000148348
0.000173291
0.000180836
0.000154871
0.000156485
0.000147047
0.0378846
0.000168522
0.000145186
0.000164776
0.0377748
0.0331074
0.000158518
0.0755839
0.0493769
0.000168799
0.000181578
0.000158333
0.000210432
0.000147148
0.000195792
0.000150625
0.024807
0.000148983
0.00014896
0.00042488
0.000226198
0.000153297
0.00125968
0.000144127
0.000148295
0.0231853
0.000146691
0.000264196
0.00016246
0.000148116
0.0245709
0.000265758
0.000201542
0.000148157
0.000158122
0.000179149
0.000149013
0.000153178
0.0290383
0.0458828
0.000161847
0.00019406
0.000148216
0.00015516
0.000200241
0.0360945
0.0496232
0.000181335
0.000164435
0.000150641
0.000372873
0.000179162
0.000179684
0.0570242
0.000147887
0.000197415
0.000203205
0.00014582
0.000149009
0.000203173
0.00014976
0.0198197
0.000223232
0.000554325
0.000148163
0.00014901
0.0517747
0.000149211
0.0720527
0.0213499
0.000362636
0.000171632
0.000147318
0.00015153
0.0459732
0.000158054
0.000147167
0.000161325
0.000150615
0.0325465
0.0161069
0.000154406
0.000148998
0.000148495
0.00014629
0.0360369
0.000247583
0.000264195
0.0789149
0.000147765
0.000147651
0.00936885
0.000147508
0.000185328
0.000160712
0.0192831
0.0243321
0.000166319
0.0470926
0.0192782
0.00014665
0.0001678
0.000196212
0.000155257
0.000149657
0.00016272
0.000154283
0.00018491
0.000260607
0.018906
0.000147462
0.000147583
0.0604904
0.030407
0.0189458
0.000231379
0.000157131
0.0459744
0.000145121
0.00018915
0.0410058
0.000175945
0.000150238
0.000175594
0.000145535
0.000148249
0.000147063
0.000147465
0.000150473
0.000158591
0.000167832
0.0816916
0.000148096
0.00014387
0.0383804
0.000224141
0.000181418
0.0373284
0.0288793
0.0722027
0.00014812
0.000149441
0.0215135
0.00016807
0.000190005
0.000150886
0.000148145
0.000148531
0.000145263
0.000150714
0.000174122
0.00429326
0.000148659
0.000151577
0.000157691
0.000150973
0.0615892
0.000174714
0.000172048
0.0105862
0.000168768
0.000147935
0.010058
0.0249648
0.000170588
0.0864947
0.000153194
0.000165758
0.0139814
0.000199912
0.0624089
0.00015504
0.000148063
0.0134643
0.000171729
0.000149555
0.000148298
0.000173078
0.0243785
0.000147047
0.000145094
0.000149516
0.000145091
0.00014741
0.0439852
0.000222811
0.000149443
0.000159828
0.000168032
0.000148056
0.000155122
0.000149519
0.000144193
0.000148447
0.000171275
0.00015632
0.000148928
0.000157278
0.000149559
0.0149811
0.000151432
0.00687058
0.000202263
0.00104753
0.00018871
0.00014389
0.000149556
0.000147052
0.000179312
0.000146528
0.000145137
0.0401577
0.0174623
0.000244632
0.000145397
0.000196725
0.000226967
0.000148917
0.020867
0.000152854
0.000551354
0.000147803
0.000223151
0.0168467
0.000149845
0.00014868
0.0409835
0.0280063
0.000168879
0.000470136
0.000293269
0.019296
0.0216203
0.0609445
0.000148343
0.0488154
0.0229534
0.0814444
0.000149706
0.000256655
0.000147681
0.000143811
0.0614611
0.000149656
0.00019001
0.0388647
0.000145443
0.0162493
0.000170168
0.0225108
0.000166213
0.000151217
0.000164443
0.000146654
0.000148653
0.000165754
0.000158613
0.0455412
0.000145777
0.0153628
0.029477
0.000169269
0.0206842
0.000169725
0.000148034
0.011992
0.000148015
0.0684414
0.00779106
0.0309352
0.0310088
0.000594713
0.000173742
0.000182113
0.000154101
0.039586
0.000149206
0.000148548
0.000175272
0.000148982
0.000163755
0.00935362
0.000149302
0.000259842
0.000153996
0.000150558
0.0449701
0.000152948
0.000148043
0.000169193
0.000349741
0.000156407
0.000193868
0.000149438
0.040604
0.000147751
0.0377753
0.000147571
0.00793427
0.000189496
0.000199926
0.00661667
0.000151021
0.000182981
0.000149243
0.000289349
0.000150908
0.000146532
0.000204293
0.000147804
0.000149783
0.0408261
0.000147387
0.0477312
0.000148111
0.000146175
0.000148267
0.000168896
0.000246862
0.000147301
0.000241419
0.000148049
0.000146811
0.000153286
0.000167045
0.000185737
0.000186078
0.000421337
0.000156171
0.000149556
0.000149798
0.000148159
0.000156296
0.0435198
0.000147017
0.000149805
0.0331217
0.000149445
0.000156259
0.000147881
0.000149014
0.0418485
0.000146006
0.000152391
0.000147561
0.000147459
0.000149013
0.0280605
0.000151048
0.00963889
0.0750081
0.000171718
0.0116094
0.000163937
0.000149521
0.00124843
0.020289
0.000146472
0.0001475
0.000171909
0.000179893
0.000149178
0.000167953
0.000150373
0.000149858
0.000146858
0.0101481
0.00014856
0.000210271
0.000156148
0.000268552
0.00392249
0.00014995
0.051178
0.000148127
0.0165624
0.000182321
0.000202109
0.000170065
0.000194382
0.000150633
0.0570869
0.000186447
0.000146097
0.00014727
0.000149499
0.00023985
0.000184725
0.000206539
0.000207637
0.000149617
0.000147493
0.0484775
0.000148434
0.0180038
0.000163964
0.000658737
0.000165482
0.000153889
0.000156676
0.000164131
0.000148533
0.000149701
0.000147358
0.000148279
0.000147773
0.000261989
0.000159923
0.000166525
0.000234114
0.000150851
0.0441909
0.000165557
0.000152204
0.0747964
0.00015363
0.000179532
0.000171894
0.000154504
0.0296927
0.000223917
0.000148065
0.0751059
0.000146215
0.0833627
0.000148524
0.000148674
0.0574915
0.000188242
0.000148216
0.000156808
0.000155155
0.000199086
0.00016161
0.074914
0.000148847
0.000219257
0.0103905
0.000179318
0.000148374
0.000164377
0.0870049
0.00015783
0.000150985
0.0454701
0.000150423
0.00147335
0.0217408
0.00018152
0.000148402
0.000147062
0.0542087
0.000238041
0.000295786
0.000171737
0.000690645
0.000167188
0.000240454
0.000180265
0.0177554
0.000164003
0.0402951
0.000175014
0.000262878
0.000148042
0.000146075
0.000187323
0.000163628
0.000259779
0.00606274
0.000170589
0.0418999
0.0214181
0.00016578
0.000152232
0.000352632
0.000147606
0.000184442
0.000150889
0.00014644
0.00658004
0.000146044
0.000178443
0.000148044
0.00014962
0.000148003
0.0205261
0.0616369
0.000200763
0.000147331
0.042153
0.000161638
0.0838096
0.000248913
0.00577406
0.000148406
0.0150934
0.000185115
0.000147356
0.000174537
0.000150828
0.000145147
0.000149231
0.000151574
0.000148229
0.000151354
0.00014845
0.000147288
0.000150609
0.000168546
0.0630371
0.000148391
0.000186784
0.0248667
0.000175406
0.000158822
0.000146201
0.000252284
0.0380066
0.000158121
0.000145281
0.000196677
0.000148341
0.000187508
0.000148194
0.000254091
0.000183969
0.000147301
0.00054617
0.000196086
0.000172302
0.000156497
0.0210618
0.000168614
0.0246514
0.0507004
0.000150607
0.000336085
0.000146877
0.00019054
0.000147672
0.0676001
0.000147219
0.000163741
0.0235362
0.000151378
0.000148046
0.0769917
0.000151964
0.0474269
0.000151126
0.000176843
0.0275691
0.000156701
0.0001468
0.032499
0.00019771
0.000157671
0.0567894
0.018055
0.000148037
0.000264229
0.000168853
0.000150355
0.000148212
0.000172766
0.0884601
0.0118812
0.000150321
0.000150697
0.0385178
0.00014856
0.00016784
0.0301594
0.0364126
0.000146699
0.000149561
0.0522892
0.0464601
0.000147424
0.000209917
0.0130557
0.016891
0.0438997
0.000147607
0.000150346
0.000149498
0.000171293
0.000153208
0.000426779
0.000161967
0.000148298
0.000165879
0.000146754
0.000188162
0.000148031
0.012738
0.000164848
0.000153386
0.0109677
0.000167651
0.000165635
0.000279854
0.000147212
0.000175613
0.000152548
0.000249915
0.000175654
0.0619531
0.000164592
0.0157613
0.000151468
0.000150168
0.00023381
0.000173766
0.000145207
0.000177867
0.000175454
0.000147555
0.000171198
0.00592847
0.00014952
0.000147316
0.000149856
0.000149206
0.0777824
0.000148553
0.000223117
0.00018059
0.0813279
0.000205886
0.000274146
0.000158279
0.00020545
0.000153872
0.000147729
0.000192776
0.000149796
0.000165013
0.00848786
0.0631207
0.000204396
0.000184547
0.000157385
0.000148093
0.000220101
0.000239362
0.000156339
0.0367918
0.000158546
0.000185933
0.000147752
0.000146783
0.000149519
0.000184744
0.000187928
0.038695
0.0502282
0.000153653
0.000148722
0.0648997
0.000149813
0.00018353
0.000146389
0.000344816
0.0456049
0.0281611
0.000171615
0.015595
0.00645829
0.0188255
0.000145327
0.00927216
0.000147397
0.0214382
0.00026918
0.000145216
0.000153931
0.0367892
0.000149756
0.000148706
0.000145138
0.000162763
0.000254462
0.000149818
0.0001536
0.000178557
0.000147973
0.00599052
0.000165027
0.000146693
0.0276525
0.0100576
0.00233961
0.000225728
0.00014724
0.0287935
0.000156821
0.000185026
0.000149175
0.000144737
0.0653957
0.000164921
0.0669358
0.000195759
0.000347725
0.000148558
0.000166613
0.0211587
0.000155805
0.000553451
0.000153857
0.0513336
0.000149083
0.000178361
0.00016212
0.019711
0.000146794
0.000156467
0.000171441
0.000147324
0.000147622
0.000166537
0.000198011
0.000202624
0.000148071
0.000148039
0.000149582
0.000150716
0.000197769
0.000145998
0.000168151
0.000207076
0.000150297
0.0178598
0.0730694
0.0363541
0.0229423
0.000459862
0.00014855
0.000164678
0.000146069
0.000159258
0.000157442
0.0177119
0.000147899
0.000163151
0.000149839
0.000148077
0.000147766
0.000148364
0.000174461
0.000149037
0.000191318
0.00898141
0.0372745
0.0346621
0.000148272
0.0178371
0.000149772
0.0176022
0.000174553
0.000157528
0.000153991
0.00014677
0.000146053
0.000149816
0.057391
0.000160926
0.000165029
0.000182913
0.000185038
0.000147658
0.00016208
0.000205864
0.0216586
0.000161696
0.000154588
0.000148049
0.0841652
0.000278186
0.000149815
0.000146351
0.000218489
0.000146966
0.000156011
0.000246835
0.0805938
0.000149056
0.00014696
0.000158786
0.000148011
0.0791219
0.0445939
0.0790178
0.000149179
0.000145244
0.0002074
0.0281187
0.00014856
0.00014849
0.000175912
0.000148302
0.000165532
0.000149846
0.0188818
0.000148525
0.0001463
0.000157753
0.000147036
0.000162869
0.000162773
0.046709
0.0902672
0.00016023
0.000148169
0.016131
0.00878116
0.000217272
0.000146469
0.0222364
0.00015456
0.000148032
0.000507078
0.000161793
0.000166852
0.0517931
0.00015322
0.0215318
0.0500594
0.0161356
0.00016551
0.000153421
0.000153192
0.000154558
0.00014833
0.000183988
0.0184856
0.000147718
0.000148526
0.000178694
0.000148189
0.0237736
0.0210657
0.0420012
0.00014701
0.000148648
0.000151811
0.000153658
0.000147029
0.000187381
0.000148042
0.00014731
0.0429549
0.0516915
0.000162609
0.000257307
0.000245649
0.000160615
0.000235881
0.000158172
0.000165901
0.0377905
0.000200048
0.000156631
0.000170623
0.0878116
0.000146303
0.000147044
0.00014975
0.0147501
0.000459959
0.000166993
0.000148247
0.0484323
0.000204691
0.000165174
0.000185173
0.0208988
0.0147885
0.000147564
0.000147094
0.000180023
0.0017971
0.0559516
0.0770177
0.000148554
0.000146856
0.0674797
0.000149162
0.000148211
0.00015009
0.000146051
0.00020151
0.000149636
0.000149557
0.000148295
0.000148353
0.0546785
0.000295048
0.000147082
0.000154444
0.0449932
0.000148497
0.000151842
0.000144952
0.000153643
0.00363403
0.0059958
0.00882069
0.000166919
0.000149619
0.000147643
0.00200929
0.000203686
0.00446742
0.000207704
0.000147826
0.000147525
0.0468602
0.000252197
0.000200657
0.000220125
0.000158936
0.000147775
0.000225714
0.0132693
0.000148486
0.000147641
0.027843
0.0388236
0.000146865
0.0661448
0.000148301
0.000148099
0.000147896
0.0645242
0.00016361
0.000210534
0.0448488
0.000148055
0.000229398
0.00469138
0.0121041
0.000214308
0.00014782
0.0432022
0.000589907
0.000155731
0.0204148
0.000149723
0.0001533
0.000197015
0.00014499
0.000147432
0.000149365
0.000212737
0.000155567
0.000160418
0.000171914
0.000187047
0.000148521
0.000156882
0.000148111
0.0238161
0.0401319
0.000161629
0.00017588
0.0575534
0.000197093
0.000145856
0.0629094
0.000147872
0.000147347
0.000159083
0.000152834
0.000149501
0.000393323
0.000151443
0.000154577
0.000181416
0.000206944
0.000207678
0.000144169
0.0658829
0.00015831
0.000147617
0.0499115
0.000149013
0.00020442
0.000175565
0.000154661
0.040985
0.000363999
0.000148638
0.00021046
0.000151003
0.000145251
0.0345265
0.000196832
0.000163103
0.0234141
0.043649
0.000147068
0.000147536
0.000148533
0.000149625
0.0605273
0.000165758
0.048002
0.0779572
0.000164716
0.00016808
0.059487
0.000161294
0.0191831
0.0149817
0.000306566
0.000188732
0.000148918
0.000238062
0.000161604
0.000528287
0.000219545
0.000162708
0.0428816
0.000148588
0.000278862
0.000148193
0.0452649
0.000146333
0.0478579
0.000149853
0.000160381
0.000149021
0.0243012
0.000148299
0.000147791
0.000204279
0.000148034
0.000149321
0.000156918
0.000154744
0.0186586
0.000167464
0.0405508
0.000147027
0.000152793
0.0002011
0.000147755
0.018872
0.000148298
0.00023408
0.00718648
0.000145888
0.0218095
0.000148031
0.000155328
0.000148454
0.000149814
0.0202139
0.000158071
0.000147606
0.0164359
0.0505214
0.0388527
0.0218442
0.029636
0.000203732
0.000157984
0.000147564
0.000221144
0.00025732
0.000167804
0.0029539
0.000177474
0.0195092
0.000146426
0.000154789
0.000182128
0.0498391
0.000151145
0.000148407
0.0532715
0.000219557
0.000301562
0.0272134
0.000153448
0.0653436
0.0481324
0.0481203
0.0653224
0.000158675
0.0609578
0.00022907
0.000148976
0.000166742
0.000148946
0.0184092
0.000153446
0.0447096
0.0001493
0.0235974
7.23163e-05
0.000152674
0.000190867
0.0107532
0.000152385
0.000148597
0.000147051
0.000149215
0.000164532
0.000149009
0.000147644
0.000180057
0.000160935
0.00016751
0.0276679
0.000196894
0.000154295
0.000155357
0.000162583
0.0565075
0.000190311
0.000512911
0.0595979
0.000179769
0.0033097
0.00016059
0.000190124
0.00014924
0.000156896
0.000149006
0.000145424
0.000149606
0.000148197
0.00021419
0.000213884
0.000149816
0.0207601
0.000171654
0.000143945
0.0203754
0.000147047
0.0422143
0.000157831
0.000151274
0.000149337
0.000262372
0.000155358
0.0334804
0.00014853
0.0255949
0.000189208
0.000147198
0.000149137
0.000159484
0.000145479
0.0470393
0.00763177
0.000151602
0.000159001
0.000166675
0.000187171
0.000148154
0.000179716
0.000196685
0.000145931
0.0117434
0.000147219
0.000159471
0.0569588
0.000148133
0.000149508
0.000147848
0.000178491
0.000166315
0.0206417
0.000151615
7.92378e-05
0.000152714
0.000147071
0.0515925
0.0198392
0.041699
0.0152601
0.000171086
0.000181422
0.0179971
0.000167196
0.000148146
0.000147703
0.0170065
0.0724289
0.0423727
0.000147975
0.000149719
0.000159802
0.000147059
0.0623176
0.000151044
0.00481176
0.000156843
0.000156703
0.000148197
0.0322257
0.0615072
0.000159842
0.0104519
0.0108282
0.000146872
0.000162479
0.0163578
0.000149061
0.0382893
0.00018467
0.000148853
0.000154662
0.000147324
0.069168
0.0651104
0.000155845
0.000159758
0.0001799
0.0355215
0.000183319
0.000145166
0.054737
0.000150386
0.000148006
0.00181413
0.0001621
0.000158894
0.00505156
0.000149147
0.000153332
0.000148561
0.000147542
0.0521074
0.02421
0.000148199
0.000159046
0.000207542
0.000242071
0.0432313
0.025
0.000204237
0.0168287
0.000148192
0.0174743
0.00015488
0.000148146
0.000199818
0.000145869
0.000207606
0.000199834
0.000167423
0.000144996
0.0485322
0.000165337
0.000160154
0.000152106
0.000396706
0.000165273
0.000148559
0.0449297
0.000153558
0.000154547
0.000179668
0.0259585
0.000148056
0.000149097
0.000149843
0.000158622
0.000151575
0.000287774
0.0121288
0.000164985
0.000148637
0.000185104
0.000162459
0.000154948
0.000303649
0.00520888
0.0168537
0.000147939
0.0214316
0.000269881
0.000158154
0.000147696
0.000146419
0.000148694
0.0330645
0.000149032
0.000143855
0.000146442
0.000166455
0.0265893
0.000170303
0.000149817
0.000194832
3.32067e-05
0.00774184
0.000145801
0.000221489
0.000151398
0.000144948
0.000149939
0.000169539
0.000170913
0.0227537
0.00023882
0.00014662
0.0180741
0.000149851
0.000149854
0.00445134
0.000204873
0.000148818
0.0315608
0.000157253
0.000272008
0.0599395
0.000187163
0.00015049
0.000148175
0.0176188
0.000146146
0.000151991
0.00015939
0.000147174
0.00175617
0.000157665
0.000150486
0.00390144
0.0817247
0.000184219
0.000205495
0.000226568
0.000148133
0.0536776
0.000152398
0.000149831
0.000183847
0.000159536
0.000172395
0.000199328
0.0792703
0.000169232
0.000148726
0.0200874
0.000170711
0.052805
0.000149264
0.000266157
0.000148253
0.00014747
0.0673669
0.000163739
0.0495107
0.000144313
0.000151822
0.000193563
0.056281
0.0477468
0.000151866
0.067062