/*--------------------------------*- C++ -*----------------------------------*\
| =========                 |                                                 |
| \\      /  F ield         | OpenFOAM: The Open Source CFD Toolbox           |
|  \\    /   O peration     | Version:  v2012                                 |
|   \\  /    A nd           | Website:  www.openfoam.com                      |
|    \\/     M anipulation  |                                                 |
\*---------------------------------------------------------------------------*/
FoamFile
{
    version     2.0;
    format      ascii;
    class       volScalarField;
    location    "100";
    object      omega;
}
// * * * * * * * * * * * * * * * * * * * * * * * * * * * * * * * * * * * * * //

dimensions      [0 0 -1 0 0 0 0];


internalField   nonuniform List<scalar> 
37809
(
0.1485
7.20364
0.0256465
0.0282622
4.5402
0.0602891
0.248009
3.98522
39.4116
6.72716
0.0837005
0.025295
0.0281768
0.0282177
11.2112
0.0285213
0.025443
3.51169
0.025376
0.16109
0.0664088
0.0656376
4.1685
0.0253055
0.0613801
6.7241
2.99502
0.0255535
0.025637
3.93833
0.128949
9.30607
0.0253106
1.85978
0.0251628
0.0254512
0.0248303
3.58484
0.0660567
0.122142
6.45999
9.63161
7.94136
9.41544
0.0252321
0.0309365
0.123035
5.22677
1.90731
0.053263
0.0253876
0.0253214
0.0251891
0.025704
9.11219
0.0251944
0.0358892
0.0282113
0.0637022
0.814858
7.95468
0.0269593
0.0281004
0.0798573
0.128531
0.0617916
9.6414
0.0254298
0.0268319
3.44121
0.0275718
35.5979
0.0253199
0.0281616
0.0255485
0.0248418
0.12004
0.186961
0.142888
0.242302
0.0252252
0.0256432
4.69799
0.0339165
0.0251318
10.7284
0.0264079
1.91344
0.0647499
0.0364459
3.59014
9.16684
0.089207
9.48563
0.0265081
4.74004
0.0253272
0.0254236
9.52502
0.025118
6.51001
0.0254284
0.0778496
3.5868
3.31327
0.0256075
4.14068
5.63586
0.220661
0.0252939
0.157232
0.0336589
0.151198
0.0271013
0.0355161
0.0648347
0.0254877
0.0253314
0.371995
7.17562
0.0256776
0.0255788
0.0406966
4.43993
8.72723
0.0254785
0.120759
0.0252936
0.0355295
0.0270926
0.382294
0.177799
9.90594
0.0252434
0.288516
0.0252874
0.0253892
0.0270575
22.5635
5.62006
0.0251484
3.1836
39.6047
6.27742
0.02532
9.68573
0.0275298
0.0268402
4.69918
0.0253884
9.89574
0.0270786
0.0435229
0.365655
0.135404
0.0254053
1.69138
0.349873
0.0257384
27.639
0.0355647
0.205814
5.6179
7.88995
0.0262726
0.0247111
0.0253067
15.227
0.0683778
0.127228
0.355334
0.025131
5.46023
0.0267068
0.027002
0.0294835
3.33288
0.0363978
4.24369
0.085654
7.20338
0.0256039
0.0251925
0.0256352
0.0247004
0.220749
0.0256112
0.0321335
2.50683
20.5019
0.0532825
0.0253271
0.0253999
7.29107
0.236382
1.86638
0.0253156
0.0246084
0.0251729
0.0276839
35.2435
0.0887772
8.80694
0.0860288
7.65023
0.0247066
0.0268757
0.0737981
0.0253089
0.0908766
0.0741333
7.34475
0.0251434
0.0253284
0.025273
1.42205
0.0654993
0.0251156
0.0251403
0.168391
9.80225
2.81346
0.0256062
0.0256205
0.0252296
3.66882
4.45197
0.117235
0.0326043
5.21107
0.0256069
0.214595
0.191486
0.0267846
0.349531
1.4965
0.0251131
3.67086
0.026233
0.137286
5.11
0.0251372
1.19188
3.52629
0.0252318
0.0253646
0.0256539
0.0247087
0.128852
0.0246987
0.025467
0.0253187
0.0254008
4.64659
0.0253281
0.0253214
0.0246038
0.025402
3.34527
5.24491
0.33883
0.0254063
29.4566
0.0255925
10.7699
0.0816138
0.128587
0.0394421
0.025322
1.64614
9.99515
0.0252726
4.55181
1.42206
0.0253247
0.139007
1.59256
0.0254623
0.710761
0.0253974
0.025323
14.2957
12.5925
0.0252918
0.137713
0.025361
0.0253134
0.0254189
0.0253177
3.77397
0.0253467
0.0441406
35.9937
0.0251884
0.0252877
0.031822
0.17287
7.0195
0.0253241
29.9658
0.0431994
12.5103
0.0248488
0.317283
8.92387
0.0341123
0.0256392
0.0276226
6.13565
0.0251403
0.114804
4.76042
9.85688
0.0608411
0.0256696
4.44049
0.026991
0.0253885
25.4904
38.324
0.0792739
2.88305
0.0498391
0.0275331
8.40819
0.0650281
9.80021
0.0253193
0.0256396
0.242212
0.0251187
0.0248512
0.0253238
6.15641
0.0248512
0.0252365
0.0478051
0.0253768
0.0253713
0.0806042
0.0252585
0.0282067
5.05101
3.38125
0.0306434
0.244189
27.3147
0.0254668
9.88491
0.0275729
2.7046
0.259958
0.0252948
0.0254257
17.1739
6.35578
0.0247047
0.168606
0.0253154
4.23371
3.79871
0.0296794
8.47185
7.39883
12.4821
3.70905
0.0481262
0.0288446
0.0280547
0.0252771
0.0282398
0.086449
0.0621476
34.9034
0.0751616
0.0249602
0.0773331
0.0246981
9.7687
5.76717
0.0253127
0.0269636
8.00469
0.0410418
4.02299
0.0472214
6.28301
0.0393393
25.5711
0.0248775
0.0254026
8.70492
0.0256458
0.0254406
0.0292443
0.0673265
7.91897
1.24101
0.0321016
0.0256462
4.56763
0.0889209
0.0248739
0.0253488
0.0252203
0.108311
0.0251459
3.66867
5.28828
4.85129
0.0686095
0.0326771
0.0770965
0.0256269
0.0248294
0.630759
1.36169
11.398
0.0256648
0.0253616
5.50769
0.0656589
0.387144
0.296197
0.0254131
4.05231
0.0256348
0.036451
0.0327527
19.2117
0.0251548
0.0817588
0.0282145
0.0270095
5.10102
0.0255949
9.5625
4.64199
0.0591249
0.0251255
0.0261642
0.55166
0.0554113
0.0508825
0.0253355
0.0250481
4.76544
0.300468
0.0476712
0.200931
0.0412551
0.0249572
0.0270976
0.0253988
0.0253497
0.0252962
0.0248348
0.0253729
9.20049
0.0252479
0.0256343
0.0295207
0.220536
3.1255
9.12758
7.77614
0.0273103
0.0369447
4.49451
0.025352
0.0337209
0.0251513
0.0254663
0.0251988
0.0591148
0.0251421
0.0564592
8.41518
0.0407014
0.0254032
0.0252694
0.0253166
0.0314764
0.0247026
12.5467
0.0253464
0.0454593
0.251602
6.19002
0.0253542
7.80162
0.0475356
0.0827061
0.0254302
0.0805746
4.5226
0.0247018
0.0417535
0.0589862
0.0469052
0.152887
0.341498
4.90799
9.79289
0.0288805
0.0346217
0.0647896
11.0393
0.0253739
0.0253851
0.0248252
0.025139
4.55023
0.0346531
0.0267515
1.18119
7.21349
0.0257928
17.4974
0.0291492
5.44458
0.214582
0.0254621
8.93418
0.0269087
0.0268148
0.337909
3.86951
0.0519558
0.166142
8.77277
0.0262473
0.320054
0.0613672
0.0256697
0.0248411
0.0251322
3.80636
0.0253491
0.0254134
0.116792
0.0267991
4.28636
0.209004
6.3126
0.0255444
0.0253394
25.8891
0.132139
0.0256763
0.0304874
0.0487924
0.0254614
0.137948
5.16155
0.0320588
0.0253956
0.189272
1.62995
0.0392998
0.149929
9.26514
0.105613
0.024841
10.1439
0.0330016
0.0834467
0.0254235
6.22466
0.303662
0.0256706
10.9561
0.0253319
0.0256069
0.0251141
0.025401
4.23477
10.9126
0.0248571
0.0247018
0.0291376
0.0386029
0.0668577
0.202272
8.48587
8.85045
3.67153
13.6258
7.71062
3.65239
0.0253388
0.0253321
0.0278303
11.5305
0.0256424
0.0253974
0.0248652
5.03895
11.3708
0.0252497
0.025369
0.025672
8.2688
0.0472912
2.7156
0.0256304
0.0912286
0.0273313
0.0820394
0.0780093
0.025178
7.95132
0.0253553
0.150617
0.0253649
0.0258384
0.0254593
5.08166
3.65
4.04297
0.0254669
4.11374
3.76715
0.0262738
7.8994
0.135587
0.113409
0.0253387
0.0253165
0.0253161
1.76684
7.38998
0.0500544
4.23584
0.0255742
0.025329
0.0425767
0.0374872
0.0251383
4.68786
0.0293006
0.135805
0.194762
38.9327
8.60474
3.27721
0.336802
0.0253324
0.0248495
0.0283982
0.0253958
0.036618
5.80665
0.025318
35.5012
0.234692
4.47174
0.0282936
5.1105
0.0468563
8.19479
0.0270209
0.0254176
0.0351407
0.0253479
0.0280921
0.391473
1.0202
17.2783
0.315496
5.89199
5.07039
0.0458109
0.0253382
10.3733
0.0247096
3.52518
6.4333
0.025312
0.0304443
0.283717
3.70929
0.0261137
0.0256553
4.63559
38.7783
4.33562
0.0253092
21.9729
0.0253111
0.351084
0.0462202
0.0260392
0.0799729
5.65373
0.025381
0.0253787
0.0253054
0.0251318
0.233981
3.92725
4.61057
6.56522
0.0253688
8.9482
0.0363872
0.13571
2.7169
0.0279886
9.49551
0.0262244
0.0265366
4.30951
1.0471
0.13175
5.91201
4.00915
0.0586933
10.7302
0.173385
0.0255515
4.31842
0.0338102
0.0413887
0.0319405
0.0317264
0.0465726
0.0271915
0.0370988
0.166908
0.034729
0.0294095
0.0298315
0.0797999
0.0276833
0.0252938
0.025517
0.0253052
0.0255967
0.355475
2.47144
0.0256521
0.0251364
0.0502169
4.52327
0.0256019
0.0289845
0.0632991
0.251229
0.0256454
0.0255432
0.0277083
0.0781618
0.0271506
0.0252271
0.0251606
11.8679
4.03758
0.983145
0.0350528
0.025639
0.0253734
0.0341574
0.0253969
0.0253021
0.0303468
5.33994
0.0655806
3.9155
0.0253488
0.0292054
0.0865767
3.91882
0.0793414
27.2176
2.49303
9.3253
0.0248272
0.0253815
4.32674
0.167947
0.0467392
0.0783464
4.79512
8.4572
0.261924
0.0256937
0.203456
4.37777
0.0303557
7.69445
0.0784508
2.53213
12.8255
0.292271
0.0769209
0.026254
4.12214
0.0251373
3.83971
0.0305447
0.0251293
0.0253739
0.0248449
12.1066
0.0248549
0.117034
0.0253153
0.038794
0.306319
0.0350834
0.0253244
4.53857
0.15875
0.0253526
0.0253692
10.1274
0.0630244
0.0339229
0.154957
0.0287929
0.0287229
0.0249581
0.208209
4.43226
4.28675
4.57606
0.159514
0.116921
0.0639158
0.34079
0.0268113
5.38075
12.3594
0.226642
0.0252941
0.0286464
0.220285
0.025565
4.26326
5.18163
0.217378
0.0254026
0.0769399
0.0252915
0.0515725
7.68181
0.0253
0.348803
7.51537
0.0253653
0.0398342
0.0454685
0.0246762
0.039494
4.11796
0.047287
0.0436536
8.07717
0.0763377
0.0261614
0.0280014
0.0251599
0.037383
0.0249603
0.0254021
5.61913
0.0438837
0.0282411
0.0261588
0.0248461
0.0262094
0.0247548
0.188896
0.248463
0.026765
0.315298
8.00429
0.0251072
0.187486
0.0253011
0.0293846
0.025639
0.025599
4.23035
0.0303192
27.1202
0.0253769
0.0260513
1.14813
5.34063
0.0254663
0.0340237
4.75855
10.3075
0.0256461
14.9568
0.0319362
0.0521593
0.234412
0.0280942
36.2225
0.0315477
0.0253137
0.0252327
0.0251648
0.0260634
0.0267516
9.67701
0.11622
0.0342033
2.4623
0.101437
3.87614
0.039472
0.0255518
0.0498629
4.636
0.033477
0.0460932
0.0315212
10.1802
0.393336
0.0280398
0.0397036
0.0262658
4.56136
0.0254614
0.239607
0.0251005
0.0342665
0.0274856
8.82354
0.0287406
0.103608
0.0343385
0.0760169
0.0248293
0.242305
0.153457
0.0397827
0.0246794
0.0768994
5.37545
0.707562
0.0249096
0.0282751
6.79058
2.81137
5.63079
0.0253774
0.0561155
0.0256446
0.0542964
0.322285
1.24428
0.0294985
0.150902
0.0373392
0.0253283
0.0256228
0.125539
0.0253254
0.0253089
0.0261891
0.146771
1.81664
0.0396995
0.0250618
0.0247653
0.0248267
0.0330786
0.0253771
0.103348
6.53478
0.0248331
8.23668
0.0254117
12.2706
4.91735
0.0437879
0.0279271
0.049325
0.0253357
4.71472
0.0250185
0.226326
0.0285189
0.0253497
0.233478
0.0489152
0.0252426
4.86994
0.0591706
0.0296759
0.0269356
4.62762
0.0806098
8.46029
0.0253767
0.0657274
0.695437
7.66766
0.0251365
0.0299501
0.0251284
10.8135
3.7787
3.70126
4.33088
0.0256768
0.0392376
0.0264429
4.6627
1.13481
0.0264082
0.119355
0.0253238
0.033901
0.0251306
0.0253276
0.025198
0.0273134
9.22128
0.0253265
0.0457946
0.21411
0.0253302
0.0256713
0.0446132
5.04714
0.0305607
0.11921
0.0252155
3.89928
3.71145
0.025365
0.348393
0.0492613
0.045619
5.13977
0.0371112
0.0253643
0.300006
0.176464
0.0263603
1.29219
0.112811
0.216349
0.0296969
0.0247019
0.239829
0.0858927
0.286165
0.0251328
8.33514
0.0454838
0.399355
0.036089
0.0249135
0.0256783
0.0251307
0.0253953
0.0255801
0.0270612
7.888
0.0348671
0.0255997
0.0316994
0.031848
0.0252479
4.23917
0.0321428
0.145689
0.0361469
0.0261987
4.31435
0.108961
0.0787224
5.19441
4.47807
0.025096
0.0603877
0.129722
0.0984859
0.11958
2.90275
0.0247011
0.0253498
6.65696
0.0255173
5.09725
0.196146
0.125629
0.0319197
0.0318424
0.0252463
0.0251478
0.0253138
0.0253311
0.0254164
0.0253369
11.4721
0.0253587
5.44276
0.0256936
0.0637873
4.36109
0.0256731
0.0254077
0.202715
22.561
0.159102
0.0256439
7.58827
0.0256384
0.0253619
0.026205
1.40677
1.6111
0.260464
10.2466
4.07005
0.0328104
0.119948
0.025018
0.0253743
9.13164
5.45256
0.150705
0.0400476
0.0262123
16.126
0.117778
7.15446
0.025171
0.229628
0.0261461
0.0268829
0.0335657
0.154913
39.2459
0.0287365
0.387412
3.96343
28.3375
0.025336
0.0294064
6.24419
0.0269656
6.45379
0.0280563
0.0653561
0.0462486
0.0608517
8.33777
0.0250955
0.0252956
0.0457882
0.0797055
8.61039
0.0256279
5.92935
0.0262085
9.62696
4.85034
0.164341
0.0253965
0.0252562
0.150801
6.21342
0.0247346
5.39063
0.0262238
4.29509
0.0297947
0.0315263
0.0253475
0.0467588
0.0707035
0.029834
0.0311844
0.0251289
4.90336
0.0410262
0.024747
0.041819
8.8854
5.38863
0.029803
5.56275
4.65967
0.0596601
0.244882
0.0339533
0.189022
0.0252318
0.116883
0.0262002
7.62166
0.0255382
0.0254878
3.30175
0.270317
0.0271158
2.29924
0.024736
0.0254181
6.61681
0.0251503
1.42685
0.0498514
0.025331
6.32821
0.393274
0.158659
0.0253889
0.035734
0.149763
0.0255431
0.0282752
7.2289
4.63435
0.047057
0.107701
0.0254058
0.0295247
0.144498
4.76438
3.68062
0.0605783
0.0355792
0.0262465
1.90249
0.149235
0.0589223
4.57099
0.0252182
0.125764
0.157251
0.0249114
0.0255052
0.157015
0.0256617
8.93955
0.260191
7.56549
0.0252889
0.0255417
4.72258
0.0255741
12.7741
7.72807
1.90269
0.118464
0.0252604
0.0268238
3.83115
0.0335794
0.0252357
0.0325997
0.0261916
4.56907
12.2066
0.0295633
0.0255396
0.0253742
0.0250952
4.85814
0.777445
0.386363
5.5716
0.0253193
0.0253048
23.7799
0.0252927
0.0836918
0.0315375
9.57234
9.22626
0.0522623
4.72817
7.81893
0.0251529
0.0399931
0.122927
0.0295397
0.0256452
0.0335145
0.0294435
0.0776462
1.10427
11.8083
0.0252846
0.0252425
4.12859
5.42496
7.44119
0.302941
0.0336735
4.26668
0.024759
0.229777
4.4503
0.170079
0.0253706
0.0841375
0.0247749
0.0254122
0.0251678
0.0251296
0.0261176
0.0353077
0.0468461
9.61942
0.0253291
0.0246794
3.93595
0.286422
0.0605529
4.44514
6.96459
6.79219
0.0253995
0.0256558
10.2398
0.0475962
0.0892633
0.0263424
0.0252842
0.0254622
0.0249194
0.026287
0.0793785
5.57149
0.0254881
0.0259488
0.0338078
0.0259064
4.27957
0.0492564
0.109931
7.05782
0.0906555
0.0253667
4.76064
8.4485
0.098869
6.67966
0.0277464
0.0434824
11.6254
0.146092
9.91238
0.0300744
0.0253633
11.457
0.118835
0.0256293
0.0254251
0.0464099
8.94658
0.0252027
0.0248734
0.0256235
0.024875
0.0250534
4.59031
0.259687
0.0252391
0.0308412
0.0816541
0.0253597
0.0294237
0.0256239
0.0247099
0.0253662
0.043248
0.0302409
0.0254835
0.0306116
0.0256301
10.0256
0.0267386
7.76981
0.555914
2.78208
0.0856488
0.0246832
0.0256298
0.0251683
0.214456
0.0251361
0.0248851
3.61238
10.3069
0.349294
0.0249437
0.121344
0.577356
0.0254809
3.99472
0.0279486
6.83568
0.0253427
0.264171
13.7562
0.0258213
0.0253908
4.59849
5.23232
0.0774887
3.8909
0.855007
12.3897
10.1704
6.43831
0.0253494
4.69186
8.75024
5.63535
0.0256533
1.3694
0.0252779
0.0246429
4.21546
0.025645
0.0879622
3.49361
0.0249514
10.9653
0.0942537
5.00475
0.0370546
0.0260825
0.0531451
0.0251362
0.0254101
0.0546383
0.0369396
4.58495
0.0249925
5.80607
6.30926
0.0562609
4.97717
0.0469143
0.0253201
9.29421
0.0253802
4.7278
8.16901
4.38245
5.41483
4.67945
0.0789015
0.183351
0.0278801
5.26331
0.0255733
0.0254647
0.101134
0.0255381
0.0510901
9.50971
0.0256056
1.32289
0.0281589
0.0261514
3.66703
0.0280055
0.0253797
0.0433912
3.29366
0.0281753
0.106983
0.0256111
4.27472
0.0253133
3.69306
0.025243
27.8426
0.0860154
0.524322
7.77796
0.026422
0.188422
0.0255792
0.814504
0.0259721
0.0249514
0.173128
0.0253453
0.0256653
4.26771
0.0250681
3.65813
0.0252805
0.0250644
0.0254123
0.0450811
0.342311
0.0252376
0.328495
0.0253574
0.0251739
0.0283085
0.040246
0.0732046
0.142623
4.84833
0.0320077
0.0256299
0.0256679
0.0253889
0.0281443
4.40884
0.0251337
0.0258095
5.29832
0.0256118
0.0320409
0.0253426
0.0255431
4.43671
0.0249699
0.0272529
0.0252948
0.025249
0.025543
8.46429
0.0261636
27.2227
6.69445
0.0556479
10.4052
0.0348153
0.0256244
3.55288
8.50548
0.0250617
0.0252843
0.055707
0.0640071
0.0255575
0.0839163
0.0256414
0.0256775
0.0251483
8.37458
0.0254663
0.184205
0.0301406
1.73689
6.05038
0.0258466
4.26605
0.025399
11.6138
0.255561
0.153794
0.0597288
0.111385
0.0261597
10.0018
0.0756945
0.0250211
0.0251483
0.0256761
0.323969
0.073138
0.173403
0.259318
0.0256387
0.0251394
4.25938
0.0253611
11.1213
0.0451638
24.136
0.0661268
0.0281054
0.0303824
0.0402789
0.0254618
0.0257085
0.0252673
0.0254196
0.0253215
1.37246
0.0374486
0.072293
0.318135
0.0259681
4.41211
0.0664867
0.0270919
6.66165
0.0268064
0.215718
0.12108
0.028988
4.13687
0.679005
0.0253835
5.57568
0.0250825
5.82111
0.0254606
0.0254134
5.35614
0.08375
0.0253301
0.0305099
0.0279851
0.509102
0.040496
5.18195
0.0254565
0.226298
25.3714
0.056749
0.0253337
0.0446827
7.35917
0.0349075
0.026411
3.70672
0.0256477
14.6286
6.25114
0.0613089
0.025341
0.0251266
9.39968
0.30788
1.31149
0.0443126
5.11689
0.0406124
0.697059
0.060235
5.86655
0.045157
20.0325
0.153127
1.37846
0.0253648
0.0250595
0.122025
0.0437118
1.3286
33.9659
0.0573226
25.1756
10.4088
0.0363075
0.0271406
1.5558
0.0250761
0.0763774
0.0263549
0.0249447
37.6075
0.0250536
0.0656129
0.0253621
0.0256394
0.0253211
10.343
4.13722
0.526786
0.0252061
4.29753
0.0410182
8.83138
0.335594
6.86273
0.0253579
11.2824
0.16264
0.0250585
0.0615731
0.0263213
0.0247724
0.0255772
0.026768
0.0254058
0.0266167
0.025364
0.0252364
0.0261764
0.0424431
4.22277
0.0253558
0.0800199
5.60332
0.159045
0.0315479
0.0250801
0.341236
4.97112
0.0296247
0.0247926
0.120679
0.0253294
0.0809388
0.0252924
0.358921
0.0810383
0.025091
4.49709
0.460424
0.0451832
0.0304096
9.81407
0.0893008
7.03412
7.3644
0.0261936
2.86063
0.0251966
0.0901074
0.0250834
4.59531
0.025238
0.0346135
8.65022
0.0266254
0.025354
5.27987
0.0269125
3.61217
0.026481
0.0796684
4.19481
0.0329202
0.0251787
5.7482
0.48318
0.0292759
4.10375
10.5534
0.025356
0.396912
0.0564617
0.0260784
0.0254011
0.680155
8.29668
7.46332
0.0260545
0.0262748
9.38782
0.0254665
0.0475602
9.53805
4.85132
0.0251658
0.0256305
4.2298
3.57089
0.0252791
0.209748
12.5768
3.86432
7.42136
0.025298
0.0260667
0.0256203
0.312065
0.028302
4.26104
0.0476621
0.0254226
0.0656461
0.0251763
0.115516
0.0253615
5.26308
0.0543493
0.027128
10.4196
0.0471261
0.066151
2.05955
0.0252371
0.164783
0.0273144
0.340197
0.0837624
4.15159
0.0535891
10.3359
0.026745
0.0259019
0.293819
0.0724127
0.024912
0.0843838
0.134193
0.0251275
0.0592196
9.86827
0.025624
0.0252065
0.0256773
0.0255734
5.85712
0.0254655
0.263497
0.226355
7.09197
0.18465
1.5334
0.0329287
0.240322
0.0287798
0.0253366
0.101334
0.0258043
0.0603358
5.05729
4.43087
0.178358
0.0727116
0.0304166
0.0252957
0.228909
0.323638
0.03031
3.53868
0.0332631
0.129545
0.0253405
0.0251298
0.0256237
0.0749474
0.11547
4.71057
7.39989
0.0283267
0.0253668
4.85008
0.0256705
0.133858
0.0250051
3.24094
30.9831
5.19598
0.11822
12.3774
36.5781
11.5471
0.0249312
24.4325
0.0250587
7.52573
1.32973
0.0249146
0.0289851
4.16261
0.0256616
0.0254955
0.0248836
0.0511911
0.945034
0.0256713
0.0268342
0.20109
0.0253695
32.0963
0.0621063
0.0251606
6.63958
29.0977
3.33525
0.269973
0.0251447
5.11392
0.0316545
0.0967296
0.0252747
0.024819
4.44998
0.054719
7.20841
0.133768
3.01624
0.0254665
0.0469291
8.26946
0.0314559
3.85684
0.026915
5.15281
0.0255541
0.0648361
0.0388439
8.44899
0.0251825
0.0287703
0.0432683
0.0252571
0.0253028
0.0723336
0.144474
0.166297
0.0253392
0.0253569
0.0256545
0.0262402
0.481576
0.0249669
0.0420311
0.190611
0.025635
10.5691
5.30544
4.29979
8.10416
4.22322
0.0254649
0.0598308
0.0248951
0.0315919
0.0337508
12.5127
0.0253574
0.048863
0.0258246
0.0253382
0.0253219
0.0253352
0.0616828
0.0255128
0.0950902
24.4669
4.64176
7.32306
0.0254207
8.49107
0.0257948
12.175
0.0609088
0.0303668
0.0289982
0.0251738
0.0248921
0.0256708
3.86707
0.0393212
0.0363246
0.165386
0.0967762
0.0252729
0.0329975
0.184834
4.04748
0.0268881
0.0271966
0.025358
9.90823
1.6139
0.0258111
0.0250971
0.221455
0.0251762
0.031734
1.14825
5.78543
0.0255497
0.0251722
0.0311112
0.0253761
5.46588
3.98226
5.7403
0.0255432
0.0248849
0.196295
4.80587
0.0254668
0.0251355
0.0840178
0.0254298
0.0640115
0.0256756
11.7779
0.0254604
0.0248898
0.0346916
0.0251041
0.0514981
0.047451
4.25789
8.17839
0.0326748
0.0253953
10.1786
10.5747
0.216106
0.0248481
9.34547
0.0294994
0.0253456
3.96672
0.0384987
0.0719377
13.4856
0.0283044
8.03619
4.85695
10.9132
0.0662197
0.0281104
0.0277359
0.0297513
0.0254344
0.126875
10.0546
0.0253181
0.0254615
0.0651863
0.025399
8.23624
9.3515
3.68787
0.0251527
0.0253441
0.0270011
0.0284868
0.0251191
0.318561
0.0253513
0.0252545
3.75539
4.31176
0.0505244
0.361368
0.338011
0.0386878
0.768536
0.0311372
0.0477892
4.15864
0.135666
0.0299763
0.107773
7.80666
0.0248933
0.0252052
0.0256603
16.6496
1.32005
0.0472477
0.0253342
3.68169
0.166376
0.0639656
0.0761758
10.1329
8.49803
0.0252698
0.0250944
0.0583449
4.08503
4.20467
5.39961
0.0254662
0.0251928
4.60048
0.0255551
0.0254011
0.0258729
0.0250561
0.158403
0.0256425
0.0256297
0.025339
0.0253497
5.4105
1.28717
0.0250965
0.0296786
4.38913
0.0253761
0.026865
0.0248703
0.0283029
7.16574
3.19437
6.31299
0.0471751
0.0256395
0.0252029
2.07461
0.160571
12.7882
0.198684
0.0252007
0.0252636
5.50806
0.916482
0.152811
0.904825
0.0377591
0.0253177
0.626386
5.91878
0.0252791
0.0252699
6.4334
4.45951
0.0251952
4.56946
0.0253403
0.0253307
0.0253599
4.32378
0.0436142
0.189418
9.43153
0.0253865
1.05106
6.58695
5.05358
0.203184
0.0253511
3.57113
4.5602
0.0280959
9.34898
0.0256563
0.0283309
0.139133
0.0248761
0.0252798
0.025597
0.238023
0.0279686
0.0421196
0.121062
0.0791595
0.0254601
0.0333241
0.0253308
8.15107
3.74399
0.0325388
0.0828772
7.2606
0.470448
0.0250057
4.33484
0.025208
0.0250975
0.0379879
0.0278739
0.0256211
3.37448
0.025968
0.0298143
0.0616729
0.191673
0.199449
0.0247097
4.50166
0.0358777
0.025284
4.67809
0.025543
0.178977
0.162299
0.0298636
3.60315
2.62821
0.0254032
0.201401
0.025909
0.0247789
5.53044
0.121396
0.052691
8.20877
3.89111
0.0252091
0.0252621
0.0254623
0.0256403
6.16848
0.0545865
4.29852
6.63298
0.0450253
0.0408675
4.17356
0.040303
8.57259
4.9835
2.45112
0.0828679
0.0255276
0.369979
0.046288
4.04494
0.900512
0.0502263
4.42279
0.0253944
1.71596
0.0253975
4.24995
0.0250821
4.64394
0.0256767
0.0313228
0.0254111
5.99563
0.0253413
0.025346
0.163497
0.025364
0.0255875
0.0289916
0.0291917
9.63205
0.0399918
18.5443
0.0251559
0.0278459
0.154354
0.0253247
7.78178
0.0253442
0.345393
27.5172
0.025009
7.88814
0.0253552
0.030462
0.0252716
0.0258156
7.99204
0.0345602
0.0252805
10.6879
4.47144
3.64677
6.21154
4.76723
0.172955
0.0342544
0.0250992
0.935209
0.360866
0.0391026
3.09555
0.129804
9.71031
0.0248419
0.0281299
0.0664536
4.18273
0.0265214
0.0253587
4.35102
0.866744
1.00417
5.2057
0.0278954
6.41045
4.31572
4.36399
6.43409
0.0314402
4.8955
0.275928
0.0255372
0.047083
0.0255321
5.70323
0.0283116
4.41069
0.0255888
5.45435
1.29107
0.0277278
0.0962493
27.0029
0.0263356
0.0254737
0.0252174
0.0255582
0.0602854
0.0255424
0.0251961
0.0639715
0.0395959
0.0378939
6.66972
0.126074
0.0288251
0.0296776
0.0503432
4.0761
0.467899
3.84546
4.23458
0.0575589
6.77816
0.0267825
0.359444
0.0255788
0.0289768
0.0255416
0.0247816
0.0256373
0.0253984
0.204601
0.20347
0.0256709
7.86963
0.0446008
0.0246511
11.3388
0.0250987
4.41631
0.031034
0.0262435
0.0255946
1.36968
0.0305315
5.35117
0.0254619
4.13767
0.085877
0.0252421
0.0255516
0.0354631
0.024808
4.25024
39.4332
0.025966
0.0378304
0.0374974
0.0817442
0.0253884
0.111335
0.125505
0.0249521
10.6806
0.0252458
0.0313449
4.18117
0.0253011
0.0256703
0.0253385
0.0547917
0.057344
10.2807
0.0268648
0.506722
0.027758
0.0252209
4.26416
10.5173
4.10785
13.8963
0.112725
0.0643293
7.5213
0.0381194
0.0253352
0.0253143
11.1489
6.75583
4.4746
0.0253731
0.0256553
0.0358161
0.025197
4.69887
0.0262421
7.33571
0.0332504
0.0328771
0.0253996
4.55774
4.51114
0.037195
21.7784
28.1361
0.0251494
0.0499253
12.3242
0.0255207
4.4832
0.0792056
0.0255172
0.0278241
0.0250477
4.72435
13.1654
0.481731
0.0399119
0.219049
4.4882
0.136476
0.0247777
4.21465
0.0260877
0.0249927
25.775
0.0329694
0.0334202
5.71802
0.0255644
0.0270626
0.0254667
0.0252979
3.71628
8.29794
0.0253984
0.0377476
0.260143
1.28991
3.48761
7.9817
0.177672
9.34669
0.0253974
9.34903
0.0281597
0.0253344
0.132033
0.024946
0.259197
0.147366
0.0395506
0.0248506
4.29932
0.0522656
0.041262
0.027183
3.14845
0.0557644
0.0254661
3.53053
0.0284752
0.0290315
0.061307
4.19084
0.0252921
0.0255313
0.0258273
0.0310521
0.0268415
1.57633
4.94798
0.0419041
0.025317
0.163616
0.0392171
0.0279161
1.57239
4.05765
4.65835
0.0253641
8.94442
1.27704
0.0305851
0.0252762
0.0250945
0.0253904
5.40863
0.0255124
0.0246503
0.0250988
0.0536098
4.41696
0.0466049
0.0256712
0.112671
0.433729
39.4496
0.0249957
0.27239
0.0266984
0.0247949
0.0257115
0.0544171
0.1103
8.35409
0.312048
0.025148
7.20396
0.0256763
0.0256769
9.3374
0.232856
0.0255115
5.20634
0.0340098
1.48916
7.29276
0.0816467
0.0261228
0.0253931
8.73894
0.0250709
0.0260875
0.0315422
0.0252396
12.9496
0.0322449
0.0256989
7.41022
5.84892
0.0778397
0.239402
0.302826
0.0253335
4.24237
0.0263416
0.025465
0.139016
0.035512
0.0935205
0.129252
5.60547
0.0562446
0.0254032
7.53798
0.10847
4.16215
0.0253774
0.396648
0.025334
0.0251383
12.6332
0.0378284
5.39851
0.0247091
0.0270372
0.108046
5.11934
3.67668
0.0260452
5.11938
0.0250616
0.0262736
0.0277491
0.0309723
0.0253837
4.95379
0.0275242
0.0337856
0.0252449
8.51746
0.0268104
26.7487
1.00104
0.0250659
0.185092
0.0656369
4.67641
0.0255177
0.0253063
0.0253877
6.46451
0.0251827
0.0731136
0.025248
0.0391243
0.0251208
7.0876
0.0310162
0.0461947
9.99548
0.0248232
0.0803216
4.26627
0.342082
0.195657
0.0257042
6.3101
0.0253113
0.0255432
0.025278
0.0267475
0.049033
5.79587
0.0247488
0.0297343
4.79201
6.32737
0.0253228
0.0295393
5.38646
0.0254014
0.0283417
0.337691
0.0253221
0.0333958
0.0252858
0.0248531
0.0251565
8.29972
0.0426396
0.0251573
0.0264843
0.0254727
0.0321421
0.0255377
0.0312853
0.0253038
4.42119
0.20111
0.0254806
4.84267
0.0274981
11.2363
0.0282871
0.101332
9.09668
0.0246657
0.0451153
0.0253299
0.0256626
0.0253073
0.120622
3.72266
0.0249172
6.12462
0.210871
4.28073
0.0260475
0.0248611
0.0293667
0.0786034
0.0256457
5.82601
0.025211
5.56233
0.02531
0.0256392
0.0248138
8.95856
9.75488
5.79815
12.3608
0.0255862
0.902991
6.50802
4.27453
4.20713
0.0251212
0.0446208
0.0298742
6.30628
0.0620949
0.40576
0.0478674
6.86621
0.0255117
0.17929
0.202735
3.34391
5.04902
0.253538
0.0300121
0.104086
0.0328323
5.54985
0.335607
0.0255365
0.0447522
0.0575827
9.50523
0.0278089
4.06197
0.0250674
2.32441
0.0261479
0.0250216
0.0330941
6.74915
0.025052
3.76805
0.0394942
0.0254725
0.0825839
0.0249965
0.0575433
6.25998
3.75121
5.89965
0.0614325
0.0329215
9.27151
7.78135
0.0256768
4.17705
9.45386
0.321274
0.10113
0.0252159
0.0266997
0.0251088
0.0312076
4.05737
0.025107
0.0262448
0.0267412
0.024819
0.220582
0.0635142
9.00362
0.0255577
0.0253299
0.0256704
0.0246951
0.0254549
0.215887
0.127108
7.04076
0.0247675
0.0837407
0.100663
0.0252012
0.0253989
0.0250274
4.25302
0.0468512
0.0300759
0.0252732
0.0247924
3.69775
0.0256456
0.0260759
0.0290283
7.98734
6.61096
0.0831136
0.0253339
0.0268684
0.0256612
0.0248344
0.0251907
7.77009
8.00382
4.31862
0.0251801
5.44246
0.0256008
0.985167
0.025408
0.02768
0.546083
0.0627639
8.88733
13.6848
2.53026
0.110711
0.0513043
4.11214
0.0517347
10.6848
3.8708
0.15407
13.7379
0.0250931
10.5546
0.0250685
0.0388835
0.544013
0.375101
29.724
0.258884
0.0349007
0.0265516
35.3253
15.9773
0.15176
9.23417
0.0263966
0.0254249
3.50507
0.0319671
4.13716
3.4093
0.0264187
0.0255076
6.27114
0.0911573
0.261416
7.90038
0.0254307
0.12247
37.5998
0.0400652
0.0251747
0.035995
6.80811
6.74976
0.0252107
0.405847
0.0252811
0.0254642
8.76352
0.0895435
0.0249888
0.0251642
0.0806622
8.09981
0.0361947
0.0253214
0.138638
0.024926
0.0255533
1.77029
0.0267196
0.0406848
9.76217
0.0250981
0.0311651
0.0254406
5.70896
4.24177
0.102569
0.0255343
0.0340978
0.0940012
0.0256299
0.0255581
0.0405446
0.0296951
3.30177
0.0250549
4.70913
0.0268113
11.2042
0.0801188
0.0253425
8.5995
1.42857
0.0254034
0.0254613
0.173852
0.056842
3.12849
0.0304202
0.0252015
0.0279253
0.0620999
3.69189
3.76646
4.75463
0.681084
0.152332
4.57659
0.0254618
0.0329288
0.058895
4.6898
0.0276996
0.199121
0.0254664
5.08357
0.0606552
0.0250282
0.0251323
4.43962
0.0255172
0.0268282
6.03752
0.0375693
0.025216
0.0255337
7.25006
0.154228
4.50684
0.041471
0.0247596
6.71899
1.30904
0.0269977
0.0338917
0.024919
0.0252196
4.18216
4.91277
0.274493
0.360873
0.024744
0.0247016
0.0467113
29.4433
0.0252175
4.20069
0.0253313
0.0266642
0.0517029
0.241368
0.0252983
4.42375
2.18896
0.188134
26.876
0.0700103
5.82375
0.0337062
0.0253364
1.19071
0.0249295
0.0323595
1.36006
0.0249268
0.0254329
0.0249392
0.0875052
0.0275951
5.64072
0.0253292
0.0555776
0.0251658
0.0255884
3.60019
0.0309748
4.28982
0.0253612
0.0421354
9.29836
5.37561
0.0254093
12.9772
8.03505
0.0246918
4.28561
0.0274008
11.1641
0.162773
0.0296585
4.24237
10.7072
0.311758
0.154335
0.0261903
0.0405788
0.0409917
0.151309
0.0683486
0.0789663
0.0270899
0.0252153
0.0339654
0.0881769
0.0258257
0.0255162
0.0283361
0.150514
4.1508
5.78723
4.12689
5.57147
0.0406075
10.9478
18.5302
30.1935
8.54145
0.169604
0.0331751
0.203873
0.029076
0.0253601
0.0543326
5.57603
0.0266805
0.0252821
4.1036
0.110176
6.49694
0.0261824
0.0255509
0.226657
0.0256293
0.0259812
0.0252201
6.01172
0.0475169
0.0353009
8.13102
0.0249082
0.289879
5.7208
9.55319
0.0247739
0.0251432
0.184199
0.262389
0.0247254
0.53649
0.0472203
0.544536
0.0253947
0.0250355
3.56557
5.53629
0.0634214
6.07685
0.0256484
14.1261
0.0396743
0.0250874
0.0251789
0.0757765
3.553
4.86749
5.2851
0.177375
0.0284299
0.0558817
8.52556
6.34802
0.0249001
0.0255902
10.6136
0.0252786
4.28559
0.0569355
3.80181
0.0781776
0.0256717
0.0595119
7.95317
0.0265515
0.0320927
0.0463792
0.02563
0.787392
5.82125
6.31474
0.15137
4.38148
0.0254196
0.0252855
4.55913
0.025654
4.61286
0.0255771
6.53621
0.0308516
0.0257912
1.27984
0.128611
0.025217
3.62204
0.0256392
0.0255796
0.0252325
0.0253323
0.0251614
5.11193
0.122616
0.0372943
0.024981
0.186879
0.907446
5.54841
0.0278385
0.0427831
8.65453
0.0372353
8.41822
4.92507
0.0253983
0.172998
0.0890087
3.79197
0.29962
7.4989
5.77277
0.0348667
4.49072
0.0247999
1.20756
0.0261902
0.0279086
0.0475018
0.381596
0.0530036
5.83714
0.0336842
0.0254644
0.197082
0.0334732
0.0853479
5.35113
0.0247706
0.0246432
0.025275
0.0286749
0.0281177
5.70961
0.0252229
4.1395
17.5368
4.11188
0.025573
0.0484527
0.0288849
0.0253933
0.0250437
0.0251208
1.73534
26.5703
0.0256771
0.0251
0.025091
0.0253272
0.0649064
0.0250555
1.17691
0.0324139
3.36579
0.0537905
0.0346282
4.5846
0.0619559
0.0254665
0.22413
0.02531
3.58714
0.0253329
7.47815
0.123558
0.0256247
0.0255639
0.0249391
0.0251577
0.237997
0.0253329
20.0797
0.0400783
4.29228
0.0312331
3.51719
0.0254107
1.14305
0.29614
0.0251338
0.0251403
2.42138
0.721247
0.0253999
7.33707
0.0564705
32.522
0.0262305
0.0253922
0.110644
6.09925
0.143778
0.025193
0.0249778
0.0458453
4.18157
0.0247449
0.0253382
0.0253417
0.0816511
0.0255167
11.5396
4.26324
0.0622279
0.0254456