/*--------------------------------*- C++ -*----------------------------------*\
| =========                 |                                                 |
| \\      /  F ield         | OpenFOAM: The Open Source CFD Toolbox           |
|  \\    /   O peration     | Version:  v2012                                 |
|   \\  /    A nd           | Website:  www.openfoam.com                      |
|    \\/     M anipulation  |                                                 |
\*---------------------------------------------------------------------------*/
FoamFile
{
    version     2.0;
    format      ascii;
    class       volScalarField;
    location    "100";
    object      omega_0;
}
// * * * * * * * * * * * * * * * * * * * * * * * * * * * * * * * * * * * * * //

dimensions      [0 0 -1 0 0 0 0];


internalField   nonuniform List<scalar> 
37809
(
0.14853
7.20321
0.0256465
0.0282624
4.53899
0.060293
0.24801
3.98522
39.4148
6.72684
0.0837049
0.025295
0.0281769
0.0282178
11.2118
0.028521
0.025443
3.51215
0.0253759
0.161092
0.0664105
0.0656387
4.16959
0.0253055
0.061382
6.72158
3.00252
0.0255535
0.025637
3.93832
0.12892
9.30776
0.0253106
1.85973
0.0251629
0.0254512
0.0248303
3.57619
0.0660508
0.122153
6.45979
9.63067
7.93982
9.41433
0.0252322
0.0309371
0.123029
5.22715
1.91436
0.0532638
0.0253877
0.0253213
0.0251891
0.0257038
9.11021
0.0251944
0.035889
0.0282115
0.0636978
0.812954
7.95434
0.0269593
0.0281004
0.0798464
0.128503
0.0617833
9.64194
0.0254297
0.0268321
3.43971
0.0275717
35.6
0.02532
0.0281616
0.0255485
0.0248418
0.120051
0.186958
0.142916
0.242288
0.0252252
0.0256432
4.69781
0.0339167
0.0251318
10.727
0.0264078
1.91996
0.0647499
0.0364457
3.58163
9.16797
0.0892071
9.48548
0.026508
4.7396
0.0253272
0.0254236
9.52242
0.025118
6.50719
0.0254284
0.0778391
3.5871
3.3209
0.0256075
4.14068
5.63585
0.220631
0.0252939
0.157234
0.0336592
0.151194
0.0271011
0.0355159
0.0648295
0.0254878
0.0253314
0.371998
7.17738
0.0256776
0.0255788
0.0406959
4.43886
8.72633
0.0254786
0.12075
0.0252936
0.0355292
0.0270928
0.382247
0.177784
9.89704
0.0252433
0.288478
0.0252874
0.0253892
0.0270575
22.571
5.61811
0.0251484
3.18893
39.6137
6.27732
0.0253201
9.68633
0.02753
0.0268402
4.69898
0.0253884
9.89363
0.0270787
0.0435255
0.365604
0.135402
0.0254053
1.69519
0.349837
0.0257383
27.6446
0.0355645
0.205806
5.61785
7.88908
0.0262726
0.0247111
0.0253067
15.2254
0.0683706
0.127227
0.355123
0.025131
5.46076
0.0267069
0.0270021
0.0294832
3.34034
0.0363976
4.24393
0.0856569
7.20501
0.0256039
0.0251925
0.0256353
0.0247004
0.220708
0.0256112
0.0321336
2.50514
20.4992
0.0532833
0.0253272
0.0254
7.29171
0.236412
1.86634
0.0253156
0.0246084
0.0251729
0.0276838
35.2385
0.0887828
8.80768
0.0860197
7.64577
0.0247066
0.0268758
0.0737983
0.0253089
0.09088
0.0741335
7.34359
0.0251434
0.0253284
0.025273
1.42565
0.0655047
0.0251156
0.0251403
0.168377
9.80202
2.81343
0.0256063
0.0256205
0.0252296
3.66928
4.4524
0.117229
0.0326043
5.2068
0.025607
0.214597
0.191448
0.0267846
0.349197
1.4989
0.0251131
3.67131
0.026233
0.1373
5.10987
0.0251372
1.18802
3.53358
0.0252318
0.0253646
0.0256539
0.0247087
0.128851
0.0246987
0.025467
0.0253187
0.0254008
4.64484
0.0253282
0.0253215
0.0246038
0.025402
3.34523
5.24491
0.338784
0.0254064
29.4543
0.0255925
10.77
0.0816158
0.12858
0.0394416
0.025322
1.64612
9.98755
0.0252726
4.55094
1.41722
0.0253247
0.139021
1.59255
0.0254623
0.709132
0.0253974
0.0253231
14.2998
12.5913
0.0252918
0.137718
0.0253609
0.0253135
0.0254189
0.0253177
3.77341
0.0253467
0.0441403
35.9905
0.0251884
0.0252878
0.0318221
0.172855
7.01967
0.0253242
29.9653
0.043199
12.513
0.0248488
0.317183
8.92371
0.0341124
0.0256392
0.0276224
6.13549
0.0251403
0.114806
4.75854
9.85579
0.0608422
0.0256696
4.44085
0.026991
0.0253884
25.4913
38.3039
0.0792667
2.88303
0.0498392
0.0275329
8.42036
0.065028
9.79987
0.0253193
0.0256396
0.242192
0.0251187
0.0248512
0.0253238
6.1564
0.0248512
0.0252365
0.0478083
0.0253767
0.0253713
0.0806057
0.0252585
0.0282067
5.05096
3.37952
0.0306436
0.244178
27.3152
0.0254668
9.88605
0.027573
2.70456
0.259967
0.0252948
0.0254256
17.1915
6.35272
0.0247047
0.168593
0.0253154
4.23459
3.80379
0.0296792
8.47161
7.39935
12.4812
3.70947
0.0481261
0.0288442
0.0280549
0.025277
0.0282398
0.0864489
0.0621517
34.9016
0.0751647
0.0249602
0.0773309
0.0246981
9.76625
5.76709
0.0253128
0.0269636
8.00065
0.041041
4.02298
0.0472221
6.27958
0.0393392
25.5705
0.0248775
0.0254026
8.7038
0.0256458
0.0254406
0.029244
0.0673265
7.91832
1.241
0.0321017
0.0256462
4.56804
0.0889238
0.0248739
0.0253489
0.0252203
0.108301
0.0251459
3.66913
5.28849
4.85171
0.0686094
0.0326771
0.0771002
0.0256269
0.0248294
0.629816
1.36167
11.3976
0.0256648
0.0253616
5.50784
0.0656525
0.387381
0.29624
0.0254131
4.05329
0.0256348
0.0364509
0.0327527
19.2112
0.0251548
0.08176
0.0282146
0.0270093
5.10122
0.025595
9.55797
4.64104
0.0591257
0.0251255
0.0261641
0.551462
0.0554105
0.0508846
0.0253355
0.0250481
4.7654
0.300446
0.0476728
0.200904
0.0412546
0.0249572
0.0270974
0.0253988
0.0253497
0.0252961
0.0248348
0.0253729
9.20072
0.0252479
0.0256344
0.0295205
0.220564
3.13662
9.12696
7.77468
0.0273105
0.0369445
4.49455
0.025352
0.0337209
0.0251514
0.0254663
0.0251988
0.0591203
0.0251421
0.0564607
8.41499
0.0407036
0.0254032
0.0252694
0.0253166
0.0314765
0.0247026
12.5455
0.0253463
0.0454587
0.251593
6.19036
0.0253542
7.80141
0.0475389
0.0827158
0.0254302
0.0805763
4.52272
0.0247018
0.0417529
0.0589869
0.0469058
0.152846
0.341455
4.90824
9.79299
0.0288802
0.0346216
0.0647845
11.0375
0.0253738
0.025385
0.0248252
0.025139
4.55075
0.034653
0.0267517
1.18305
7.21365
0.0257927
17.4974
0.0291489
5.44462
0.214561
0.0254621
8.93375
0.0269088
0.0268145
0.337858
3.87097
0.0519473
0.166112
8.77241
0.0262473
0.320009
0.0613683
0.0256697
0.0248411
0.0251322
3.80586
0.0253491
0.0254134
0.116802
0.0267989
4.28708
0.208972
6.31263
0.0255445
0.0253394
25.8828
0.132144
0.0256763
0.0304875
0.0487941
0.0254614
0.137962
5.16129
0.0320589
0.0253956
0.189293
1.62975
0.0392996
0.149891
9.25975
0.105598
0.024841
10.1423
0.0330023
0.0834442
0.0254235
6.22498
0.30366
0.0256706
10.9575
0.0253319
0.025607
0.0251141
0.025401
4.23493
10.913
0.0248571
0.0247019
0.0291373
0.0386027
0.0668492
0.202251
8.48482
8.85084
3.67199
13.6265
7.7097
3.65289
0.0253388
0.0253321
0.0278303
11.5316
0.0256424
0.0253974
0.0248652
5.03886
11.3714
0.0252497
0.0253691
0.025672
8.26655
0.0472921
2.71558
0.0256304
0.0912355
0.0273314
0.0820438
0.0780023
0.025178
7.95195
0.0253553
0.150608
0.025365
0.0258383
0.0254594
5.07995
3.65001
4.04296
0.0254669
4.11463
3.76752
0.0262738
7.90008
0.135593
0.113413
0.0253387
0.0253165
0.0253161
1.76147
7.39114
0.0500578
4.23601
0.0255742
0.025329
0.0425767
0.0374872
0.0251382
4.68761
0.0293005
0.135808
0.19474
38.942
8.60292
3.2773
0.336808
0.0253324
0.0248495
0.0283985
0.0253958
0.0366178
5.80672
0.025318
35.4974
0.234675
4.47155
0.0282937
5.11034
0.0468573
8.19561
0.027021
0.0254176
0.0351408
0.0253479
0.0280922
0.391347
1.02028
17.2771
0.315493
5.89244
5.06871
0.0458118
0.0253382
10.3741
0.0247096
3.51486
6.43282
0.025312
0.0304445
0.283742
3.70972
0.0261136
0.0256553
4.63542
38.7735
4.33569
0.0253093
21.9714
0.025311
0.350855
0.0462211
0.0260393
0.0799745
5.65333
0.0253809
0.0253787
0.0253055
0.0251318
0.233939
3.92785
4.60912
6.56419
0.0253688
8.94869
0.0363874
0.135709
2.71792
0.0279887
9.49441
0.0262244
0.0265365
4.31006
1.04714
0.13172
5.91172
4.01285
0.0586948
10.7315
0.17337
0.0255515
4.31897
0.0338102
0.0413887
0.0319404
0.0317261
0.0465735
0.0271914
0.0370987
0.166877
0.0347288
0.0294098
0.0298317
0.0798092
0.0276835
0.0252938
0.0255171
0.0253053
0.0255967
0.355595
2.47108
0.0256521
0.0251363
0.0502175
4.52355
0.0256019
0.0289842
0.063299
0.251221
0.0256454
0.0255432
0.0277085
0.0781522
0.0271505
0.0252271
0.0251606
11.8674
4.03695
0.980162
0.0350528
0.025639
0.0253734
0.0341571
0.0253969
0.025302
0.0303469
5.34116
0.0655742
3.91528
0.0253488
0.0292053
0.0865771
3.92026
0.0793422
27.2229
2.4911
9.32519
0.0248272
0.0253815
4.32663
0.167943
0.0467402
0.0783499
4.79356
8.45804
0.261924
0.0256936
0.203418
4.37802
0.0303559
7.69563
0.0784541
2.53074
12.8284
0.292285
0.0769245
0.026254
4.12224
0.0251373
3.83982
0.0305449
0.0251293
0.0253738
0.0248449
12.1076
0.0248549
0.117042
0.0253153
0.0387938
0.306253
0.0350833
0.0253243
4.53879
0.158747
0.0253526
0.0253692
10.1266
0.0630188
0.033923
0.154958
0.028793
0.0287226
0.0249581
0.208202
4.43094
4.2855
4.57626
0.159515
0.116928
0.0639164
0.340783
0.0268113
5.38054
12.358
0.226623
0.0252941
0.0286461
0.22029
0.0255649
4.26316
5.18201
0.217407
0.0254026
0.07694
0.0252914
0.0515727
7.6808
0.0253001
0.348429
7.51633
0.0253653
0.0398342
0.0454693
0.0246762
0.0394946
4.1172
0.0472884
0.0436564
8.07732
0.0763292
0.0261614
0.0280015
0.0251599
0.0373827
0.0249603
0.0254021
5.61863
0.0438832
0.0282411
0.0261588
0.0248461
0.0262094
0.0247548
0.188863
0.248467
0.0267648
0.315258
8.00265
0.0251072
0.187494
0.0253011
0.0293849
0.025639
0.025599
4.23051
0.0303189
27.1172
0.025377
0.0260513
1.14714
5.34017
0.0254663
0.0340236
4.7586
10.3065
0.0256461
14.9556
0.0319369
0.0521594
0.234393
0.0280943
36.2174
0.0315475
0.0253136
0.0252328
0.0251648
0.0260634
0.0267514
9.67737
0.116236
0.0342032
2.42864
0.101444
3.87583
0.0394725
0.0255518
0.0498665
4.63466
0.0334772
0.0460946
0.0315214
10.1822
0.393315
0.0280395
0.0397041
0.0262658
4.56157
0.0254614
0.239609
0.0251005
0.0342664
0.0274854
8.8233
0.0287402
0.103617
0.0343382
0.0760178
0.0248293
0.242261
0.153429
0.0397833
0.0246794
0.0769078
5.37495
0.707691
0.0249096
0.028275
6.79049
2.82371
5.62767
0.0253774
0.0561148
0.0256446
0.0542974
0.32235
1.24449
0.0294987
0.150881
0.0373392
0.0253282
0.0256228
0.12553
0.0253254
0.0253089
0.0261892
0.146752
1.81681
0.0397
0.0250618
0.0247653
0.0248267
0.033079
0.0253771
0.103336
6.53431
0.0248331
8.23679
0.0254117
12.2729
4.91733
0.0437872
0.0279272
0.049325
0.0253357
4.71517
0.0250185
0.226317
0.0285186
0.0253497
0.233461
0.0489158
0.0252426
4.86466
0.0591761
0.0296763
0.0269357
4.62726
0.0806009
8.4605
0.0253768
0.0657279
0.695413
7.66611
0.0251365
0.0299505
0.0251284
10.8119
3.78447
3.70123
4.32955
0.0256768
0.0392381
0.0264427
4.66129
1.13434
0.0264083
0.119364
0.0253238
0.033901
0.0251306
0.0253276
0.0251981
0.0273135
9.22017
0.0253265
0.0457947
0.214073
0.0253301
0.0256713
0.0446132
5.04711
0.0305609
0.119219
0.0252155
3.89928
3.71139
0.025365
0.348135
0.0492612
0.0456184
5.13904
0.0371111
0.0253643
0.299964
0.176445
0.0263602
1.29814
0.112804
0.216328
0.0296966
0.0247019
0.239859
0.0858908
0.286189
0.0251327
8.3337
0.045483
0.399372
0.0360901
0.0249135
0.0256783
0.0251307
0.0253953
0.0255801
0.0270611
7.88399
0.0348668
0.0255997
0.0316992
0.0318478
0.0252479
4.23936
0.0321428
0.145683
0.0361481
0.0261988
4.31439
0.108946
0.0787257
5.19403
4.47802
0.025096
0.0603894
0.129732
0.0984747
0.11959
2.90272
0.0247011
0.0253498
6.65642
0.0255174
5.0977
0.196123
0.125606
0.0319195
0.0318422
0.0252463
0.0251478
0.0253138
0.0253311
0.0254164
0.0253369
11.4723
0.0253587
5.44228
0.0256936
0.0637895
4.36119
0.0256731
0.0254077
0.202674
22.5595
0.1591
0.0256439
7.58918
0.0256384
0.0253619
0.026205
1.40084
1.61739
0.260484
10.2476
4.0699
0.0328107
0.119891
0.025018
0.0253743
9.1319
5.45377
0.150698
0.0400496
0.0262123
16.1248
0.117743
7.1545
0.025171
0.22959
0.0261461
0.0268827
0.0335659
0.154914
39.2384
0.0287362
0.387426
3.96403
28.3364
0.025336
0.0294063
6.23973
0.0269656
6.45362
0.0280565
0.065356
0.0462494
0.0608546
8.33747
0.0250955
0.0252956
0.0457883
0.0797144
8.61038
0.0256279
5.92977
0.0262086
9.62682
4.84992
0.16433
0.0253965
0.0252562
0.150773
6.2146
0.0247346
5.38987
0.0262238
4.2953
0.0297951
0.0315265
0.0253476
0.046761
0.0706979
0.0298336
0.0311842
0.0251289
4.903
0.0410262
0.024747
0.0418197
8.88526
5.38877
0.0298034
5.56404
4.65932
0.0596617
0.244967
0.0339532
0.18899
0.0252318
0.116862
0.0262001
7.62133
0.0255382
0.0254878
3.30174
0.270321
0.0271159
2.30944
0.024736
0.0254181
6.61614
0.0251503
1.42685
0.0498514
0.025331
6.3273
0.393261
0.158646
0.0253889
0.0357341
0.149813
0.0255431
0.0282752
7.22794
4.63405
0.047057
0.107703
0.0254058
0.0295246
0.144499
4.76414
3.68106
0.0605859
0.0355798
0.0262465
1.88582
0.149275
0.0589251
4.5714
0.0252181
0.12577
0.157224
0.0249114
0.0255052
0.156988
0.0256617
8.93985
0.26019
7.56482
0.025289
0.0255417
4.72213
0.0255741
12.7734
7.72835
1.9034
0.11845
0.0252604
0.0268238
3.83142
0.0335793
0.0252357
0.0326001
0.0261915
4.56926
12.206
0.0295633
0.0255396
0.0253743
0.0250952
4.8583
0.777461
0.386316
5.57094
0.0253192
0.0253048
23.7899
0.0252927
0.0836823
0.0315381
9.57274
9.22408
0.0522632
4.72781
7.81836
0.0251529
0.0399931
0.122903
0.0295397
0.0256452
0.0335152
0.0294435
0.0776359
1.10314
11.8073
0.0252846
0.0252425
4.12923
5.42593
7.44035
0.302899
0.0336734
4.26674
0.024759
0.229725
4.45012
0.170084
0.0253706
0.0841419
0.024775
0.0254122
0.0251678
0.0251296
0.0261175
0.0353075
0.0468468
9.61862
0.0253291
0.0246794
3.93588
0.286421
0.0605605
4.44517
6.96367
6.79296
0.0253995
0.0256559
10.2417
0.0475971
0.0892713
0.0263422
0.0252843
0.0254622
0.0249194
0.026287
0.0793818
5.57038
0.0254881
0.0259489
0.0338075
0.0259064
4.27992
0.0492583
0.109931
7.05824
0.090654
0.0253667
4.76067
8.44704
0.0988651
6.68068
0.0277463
0.0434832
11.6238
0.146086
9.91237
0.030074
0.0253633
11.4585
0.118811
0.0256293
0.0254251
0.046412
8.94493
0.0252027
0.0248734
0.0256235
0.024875
0.0250534
4.59003
0.259688
0.0252391
0.0308417
0.0816545
0.0253597
0.0294236
0.0256239
0.0247099
0.0253662
0.0432507
0.030241
0.0254835
0.0306118
0.0256301
10.0243
0.0267385
7.7696
0.555904
2.77432
0.0856526
0.0246832
0.0256298
0.0251684
0.214456
0.0251361
0.0248851
3.61293
10.3055
0.348922
0.0249437
0.121348
0.577605
0.0254809
3.99471
0.0279485
6.8355
0.0253427
0.264148
13.7594
0.0258213
0.0253907
4.59808
5.23212
0.0774896
3.89092
0.854889
12.3873
10.1708
6.43885
0.0253494
4.69149
8.74969
5.63633
0.0256533
1.36965
0.0252779
0.0246429
4.21588
0.025645
0.0879719
3.49423
0.0249514
10.9646
0.094249
5.00604
0.0370559
0.0260826
0.0531453
0.0251362
0.0254101
0.0546392
0.0369395
4.58467
0.0249925
5.80384
6.3092
0.0562625
4.9787
0.0469134
0.0253201
9.29506
0.0253802
4.72602
8.1693
4.3827
5.41459
4.67943
0.0789049
0.183348
0.0278803
5.26275
0.0255733
0.0254647
0.101138
0.0255381
0.0510901
9.50941
0.0256057
1.32279
0.028159
0.0261512
3.6675
0.0280056
0.0253797
0.04339
3.29335
0.0281755
0.106988
0.0256111
4.27498
0.0253133
3.69349
0.0252431
27.8418
0.0860261
0.524313
7.77819
0.0264218
0.188429
0.0255792
0.814539
0.0259721
0.0249514
0.173109
0.0253453
0.0256653
4.26782
0.0250681
3.65861
0.0252805
0.0250644
0.0254123
0.0450808
0.342035
0.0252376
0.328422
0.0253574
0.0251739
0.0283085
0.0402452
0.073213
0.142635
4.84827
0.0320075
0.0256299
0.0256679
0.0253889
0.0281445
4.40859
0.0251337
0.0258095
5.29876
0.0256118
0.0320407
0.0253426
0.0255431
4.43657
0.0249699
0.0272527
0.0252948
0.025249
0.025543
8.46362
0.0261636
27.2172
6.69518
0.055649
10.4062
0.034816
0.0256244
3.55334
8.50166
0.0250617
0.0252843
0.0557079
0.0640011
0.0255575
0.083914
0.0256415
0.0256775
0.0251484
8.37399
0.0254663
0.184167
0.0301408
1.73712
6.05029
0.0258465
4.26584
0.025399
11.6142
0.255607
0.153771
0.0597306
0.11137
0.0261596
10.0018
0.0757036
0.0250211
0.0251483
0.0256762
0.323897
0.0731367
0.173374
0.259356
0.0256387
0.0251394
4.25951
0.0253612
11.1228
0.0451643
24.1354
0.0661248
0.0281055
0.0303826
0.0402795
0.0254618
0.0257085
0.0252673
0.0254196
0.0253215
1.37244
0.0374485
0.0722931
0.318089
0.0259682
4.41179
0.066486
0.0270918
6.66237
0.0268065
0.215708
0.121076
0.0289878
4.1367
0.679108
0.0253835
5.5769
0.0250825
5.82225
0.0254606
0.0254134
5.3554
0.0837539
0.0253301
0.0305101
0.0279852
0.509103
0.0404962
5.18086
0.0254566
0.226259
25.3777
0.0567549
0.0253338
0.0446833
7.36033
0.0349073
0.0264109
3.70712
0.0256478
14.6285
6.25061
0.0613165
0.0253411
0.0251266
9.39987
0.307933
1.31517
0.0443147
5.11649
0.0406116
0.697078
0.0602386
5.8671
0.0451576
20.031
0.153128
1.37853
0.0253648
0.0250595
0.122036
0.0437123
1.3286
33.9617
0.0573243
25.1741
10.4073
0.0363088
0.0271403
1.55583
0.0250761
0.0763672
0.0263549
0.0249447
37.6096
0.0250536
0.0656091
0.0253621
0.0256394
0.0253211
10.3414
4.13634
0.526601
0.0252062
4.29754
0.0410183
8.83173
0.335638
6.86262
0.0253579
11.2835
0.16264
0.0250585
0.0615737
0.0263213
0.0247724
0.0255772
0.0267678
0.0254057
0.0266165
0.025364
0.0252364
0.0261762
0.042442
4.22173
0.0253558
0.080017
5.60304
0.159052
0.031548
0.0250801
0.341316
4.97075
0.0296251
0.0247927
0.120656
0.0253294
0.080944
0.0252925
0.358846
0.0810313
0.0250909
4.49712
0.460229
0.0451854
0.0304097
9.81618
0.0892991
7.03403
7.36496
0.0261936
2.86061
0.0251966
0.0901175
0.0250834
4.59386
0.025238
0.0346142
8.6492
0.0266252
0.025354
5.27983
0.0269123
3.61357
0.0264808
0.0796729
4.19477
0.0329201
0.0251787
5.74747
0.483212
0.0292762
4.10495
10.5608
0.025356
0.396866
0.0564633
0.0260785
0.0254011
0.680026
8.29739
7.46153
0.0260545
0.0262748
9.38651
0.0254665
0.0475611
9.53698
4.85146
0.0251658
0.0256305
4.22949
3.5722
0.0252791
0.209725
12.5749
3.86446
7.42168
0.025298
0.0260668
0.0256203
0.311465
0.0283019
4.26101
0.047662
0.0254226
0.0656461
0.0251763
0.115522
0.0253615
5.2599
0.0543495
0.0271281
10.4205
0.047127
0.0661544
2.05949
0.0252371
0.164747
0.0273142
0.340319
0.0837668
4.1507
0.0535894
10.3344
0.0267449
0.0259018
0.293853
0.0724157
0.024912
0.0843886
0.134216
0.0251275
0.0592216
9.86852
0.025624
0.0252065
0.0256773
0.0255734
5.85844
0.0254655
0.263479
0.226356
7.09292
0.184631
1.53343
0.0329289
0.240357
0.0287795
0.0253366
0.10134
0.0258043
0.0603358
5.05411
4.43068
0.178343
0.0727111
0.0304168
0.0252957
0.228864
0.323495
0.0303101
3.53913
0.0332632
0.129557
0.0253405
0.0251298
0.0256237
0.0749399
0.115477
4.7105
7.40033
0.0283264
0.0253668
4.85081
0.0256705
0.133867
0.0250051
3.24089
30.9818
5.19678
0.118227
12.3773
36.5761
11.5484
0.0249312
24.4352
0.0250587
7.52572
1.32538
0.0249146
0.0289849
4.16241
0.0256616
0.0254955
0.0248836
0.0511911
0.94504
0.0256713
0.0268344
0.20112
0.0253695
32.1026
0.0621063
0.0251606
6.63969
29.101
3.32876
0.269984
0.0251447
5.1136
0.0316543
0.0967314
0.0252747
0.024819
4.44866
0.0547193
7.20927
0.133761
3.01622
0.0254665
0.0469301
8.27351
0.031456
3.85683
0.0269151
5.15253
0.0255541
0.0648322
0.0388444
8.44695
0.0251825
0.0287705
0.043271
0.0252571
0.0253028
0.0723337
0.144468
0.166284
0.0253392
0.0253568
0.0256545
0.0262401
0.481545
0.0249669
0.0420302
0.190589
0.025635
10.573
5.30662
4.29961
8.10517
4.22324
0.0254649
0.0598307
0.0248952
0.0315919
0.0337505
12.5144
0.0253574
0.048863
0.0258246
0.0253382
0.0253219
0.0253353
0.0616835
0.0255129
0.0950973
24.4728
4.64163
7.3228
0.0254207
8.48993
0.0257948
12.1777
0.0609094
0.0303669
0.028998
0.0251738
0.0248921
0.0256708
3.86752
0.0393213
0.0363252
0.165367
0.0967778
0.0252729
0.0329981
0.184814
4.04761
0.0268881
0.0271968
0.025358
9.9076
1.61384
0.0258111
0.0250971
0.221413
0.0251762
0.0317339
1.14825
5.78499
0.0255497
0.0251722
0.0311113
0.0253761
5.46595
3.98245
5.73943
0.0255431
0.0248848
0.196272
4.80586
0.0254668
0.0251355
0.0840223
0.0254298
0.0640115
0.0256756
11.7773
0.0254605
0.0248898
0.0346914
0.0251041
0.0514981
0.047451
4.25758
8.1792
0.0326748
0.0253953
10.1773
10.5753
0.216065
0.0248482
9.34632
0.0294991
0.0253456
3.96663
0.0384991
0.0719378
13.4844
0.0283044
8.0399
4.85682
10.912
0.0662182
0.0281101
0.0277358
0.0297513
0.0254345
0.126886
10.0548
0.0253181
0.0254615
0.0651822
0.025399
8.236
9.35447
3.68831
0.0251527
0.0253441
0.027001
0.0284865
0.0251191
0.318573
0.0253513
0.0252545
3.75577
4.31203
0.0505244
0.361288
0.337799
0.0386878
0.768551
0.0311373
0.0477901
4.15845
0.135637
0.0299764
0.107774
7.80768
0.0248933
0.0252052
0.0256603
16.6489
1.32505
0.0472487
0.0253343
3.68212
0.16635
0.0639655
0.0761673
10.134
8.49893
0.0252698
0.0250944
0.0583507
4.08402
4.20562
5.39863
0.0254662
0.0251928
4.59885
0.0255551
0.0254011
0.0258728
0.0250561
0.15839
0.0256425
0.0256297
0.025339
0.0253497
5.41003
1.28334
0.0250964
0.0296787
4.38884
0.0253762
0.0268648
0.0248703
0.0283026
7.16566
3.193
6.31325
0.0471761
0.0256395
0.0252029
2.07202
0.160547
12.7725
0.198665
0.0252006
0.0252636
5.50813
0.916466
0.152797
0.904977
0.0377591
0.0253177
0.626476
5.91844
0.0252791
0.0252699
6.43395
4.4593
0.0251952
4.56829
0.0253404
0.0253307
0.0253599
4.32258
0.0436148
0.189387
9.43162
0.0253865
1.05097
6.58695
5.05346
0.203143
0.0253511
3.57181
4.56023
0.0280961
9.35077
0.0256563
0.0283309
0.139125
0.0248761
0.0252798
0.025597
0.238039
0.0279688
0.0421195
0.121043
0.079164
0.0254601
0.033324
0.0253308
8.1497
3.74438
0.0325394
0.0828815
7.25951
0.470411
0.0250057
4.33479
0.025208
0.0250975
0.0379877
0.0278738
0.0256211
3.37449
0.0259681
0.0298142
0.0616794
0.191656
0.199433
0.0247097
4.50055
0.0358775
0.025284
4.67771
0.025543
0.178963
0.162299
0.0298636
3.60371
2.62822
0.0254032
0.20138
0.025909
0.0247789
5.52977
0.121372
0.0526971
8.20799
3.89149
0.0252091
0.0252621
0.0254623
0.0256403
6.16879
0.0545872
4.29832
6.63368
0.0450261
0.0408671
4.1744
0.040303
8.57288
4.98381
2.4515
0.0828781
0.0255276
0.369957
0.0462879
4.04492
0.900515
0.0502264
4.42251
0.0253945
1.71599
0.0253975
4.24972
0.0250821
4.6439
0.0256767
0.0313234
0.0254112
5.99494
0.0253414
0.025346
0.16347
0.025364
0.0255874
0.0289918
0.0291915
9.63195
0.0399914
18.5429
0.025156
0.0278458
0.154347
0.0253246
7.78093
0.0253442
0.345386
27.5118
0.025009
7.88961
0.0253552
0.0304617
0.0252716
0.0258156
7.99065
0.03456
0.0252805
10.6883
4.47163
3.64728
6.21098
4.76717
0.172946
0.0342542
0.0250992
0.93538
0.360867
0.039104
3.09665
0.129815
9.7265
0.0248419
0.02813
0.0664516
4.18235
0.0265213
0.0253587
4.35132
0.866785
1.00425
5.2053
0.0278954
6.41098
4.31543
4.36418
6.43464
0.0314403
4.89593
0.275873
0.0255372
0.047084
0.0255321
5.7023
0.0283113
4.41034
0.0255888
5.45398
1.29128
0.0277277
0.09624
26.9957
0.0263357
0.0254737
0.0252174
0.0255581
0.0602853
0.0255424
0.0251962
0.0639655
0.0395958
0.0378954
6.66892
0.12607
0.0288249
0.0296776
0.0503416
4.07733
0.467665
3.84547
4.23531
0.0575648
6.77818
0.0267825
0.359424
0.0255788
0.028977
0.0255416
0.0247817
0.0256373
0.0253984
0.204567
0.203434
0.0256709
7.86812
0.044602
0.0246511
11.3398
0.0250987
4.41616
0.0310342
0.0262436
0.0255946
1.36967
0.0305312
5.35069
0.0254619
4.13765
0.0858847
0.0252421
0.0255517
0.0354631
0.024808
4.24992
39.4254
0.0259661
0.0378303
0.0374989
0.081739
0.0253884
0.111341
0.125501
0.0249521
10.6789
0.0252458
0.031345
4.18221
0.0253012
0.0256703
0.0253384
0.0547971
0.0573445
10.2762
0.0268647
0.504747
0.0277579
0.0252209
4.26408
10.5125
4.10819
13.8952
0.112752
0.0643276
7.52057
0.038121
0.0253352
0.0253143
11.1494
6.7566
4.47436
0.0253731
0.0256553
0.0358163
0.025197
4.6995
0.0262421
7.33568
0.0332503
0.0328769
0.0253996
4.55795
4.511
0.0371949
21.7706
28.1278
0.0251494
0.0499253
12.3244
0.0255207
4.48352
0.079196
0.0255172
0.0278242
0.0250477
4.72255
13.1649
0.481348
0.039912
0.219051
4.48827
0.136488
0.0247777
4.21551
0.0260877
0.0249927
25.7703
0.0329701
0.0334204
5.718
0.0255644
0.0270627
0.0254667
0.0252979
3.71763
8.29693
0.0253984
0.0377474
0.26018
1.28975
3.48868
7.98102
0.177657
9.34563
0.0253974
9.3481
0.0281598
0.0253344
0.132036
0.024946
0.259235
0.147351
0.0395508
0.0248506
4.29906
0.0522663
0.0412619
0.0271828
3.14846
0.0557647
0.0254661
3.53175
0.028475
0.0290313
0.0613029
4.19093
0.0252922
0.0255313
0.0258273
0.0310522
0.0268414
1.57638
4.9482
0.0419047
0.025317
0.163596
0.0392177
0.0279163
1.61508
4.05168
4.66077
0.0253641
8.94573
1.27708
0.0305852
0.0252762
0.0250945
0.0253903
5.40875
0.0255125
0.0246503
0.0250988
0.0536107
4.41674
0.0466037
0.0256712
0.112649
0.433008
39.4446
0.0249957
0.272434
0.0266984
0.024795
0.0257116
0.0544185
0.110294
8.35037
0.311978
0.025148
7.20345
0.0256763
0.0256769
9.33742
0.23289
0.0255115
5.20693
0.0340097
1.48913
7.29347
0.0816414
0.0261228
0.0253931
8.73682
0.0250709
0.0260876
0.0315423
0.0252396
12.9494
0.032245
0.025699
7.41019
5.85063
0.07783
0.239437
0.302825
0.0253335
4.24303
0.0263417
0.025465
0.139025
0.035512
0.0935243
0.129259
5.60488
0.0562462
0.0254031
7.53674
0.108468
4.1617
0.0253774
0.396612
0.025334
0.0251383
12.6325
0.0378287
5.39836
0.0247091
0.0270372
0.108039
5.11856
3.67712
0.0260453
5.12012
0.0250616
0.0262736
0.0277493
0.0309724
0.0253837
4.95401
0.027524
0.0337858
0.0252449
8.5191
0.0268103
26.7411
1.00107
0.0250658
0.185059
0.0656331
4.67614
0.0255177
0.0253063
0.0253878
6.46506
0.0251827
0.0731165
0.025248
0.0391245
0.0251208
7.08688
0.0310164
0.0461947
9.99903
0.0248232
0.0803239
4.26593
0.341814
0.195623
0.0257042
6.30959
0.0253113
0.0255432
0.0252781
0.0267476
0.0490312
5.79754
0.0247488
0.0297347
4.78512
6.32715
0.0253228
0.0295395
5.38644
0.0254013
0.0283416
0.337491
0.0253221
0.0333957
0.0252858
0.0248531
0.0251565
8.30098
0.042639
0.0251574
0.0264842
0.0254727
0.032142
0.0255377
0.0312855
0.0253038
4.42104
0.201135
0.0254806
4.84077
0.027498
11.235
0.028287
0.101338
9.0959
0.0246657
0.0451161
0.0253299
0.0256627
0.0253073
0.120635
3.72306
0.0249172
6.12495
0.210843
4.2805
0.0260476
0.0248611
0.0293669
0.0785936
0.0256457
5.82596
0.025211
5.56301
0.02531
0.0256392
0.0248138
8.95708
9.75517
5.79932
12.3616
0.0255862
0.903069
6.5077
4.27418
4.20776
0.0251212
0.0446203
0.0298745
6.30625
0.0620949
0.405807
0.0478672
6.86552
0.0255117
0.17927
0.202735
3.34387
5.04977
0.253526
0.0300122
0.104088
0.0328327
5.54936
0.335348
0.0255365
0.0447513
0.0575826
9.50528
0.027809
4.0629
0.0250674
2.32443
0.026148
0.0250216
0.0330941
6.75013
0.025052
3.76798
0.0394944
0.0254725
0.0825759
0.0249965
0.0575492
6.25969
3.75255
5.90022
0.0614402
0.0329215
9.26934
7.77812
0.0256768
4.17685
9.45323
0.321271
0.101127
0.0252159
0.0266995
0.0251088
0.0312076
4.05812
0.025107
0.0262448
0.0267411
0.024819
0.220567
0.0635147
9.0026
0.0255577
0.0253299
0.0256704
0.0246951
0.0254549
0.215844
0.127087
7.04062
0.0247675
0.083741
0.10067
0.0252013
0.0253989
0.0250274
4.2527
0.0468505
0.030076
0.0252731
0.0247924
3.69909
0.0256456
0.026076
0.0290285
7.98809
6.61114
0.0831135
0.0253339
0.0268685
0.0256612
0.0248344
0.0251906
7.76956
8.006
4.31914
0.0251801
5.44147
0.0256008
0.985229
0.025408
0.0276799
0.545534
0.0627657
8.88836
13.6864
2.52422
0.110717
0.0513058
4.11226
0.0517347
10.69
3.87113
0.154062
13.738
0.0250931
10.5561
0.0250685
0.0388839
0.543434
0.375646
29.7193
0.258884
0.0349009
0.0265515
35.3295
15.9379
0.15176
9.23339
0.0263964
0.0254248
3.50558
0.0319676
4.13705
3.40059
0.0264187
0.0255077
6.27115
0.0911548
0.261463
7.90063
0.0254307
0.122481
37.5962
0.0400651
0.0251747
0.035995
6.80654
6.75057
0.0252107
0.405812
0.0252811
0.0254642
8.76392
0.0895362
0.0249888
0.0251643
0.0806648
8.09966
0.0361948
0.0253214
0.138638
0.024926
0.0255534
1.77939
0.0267197
0.0406841
9.7632
0.0250981
0.0311652
0.0254406
5.70921
4.2415
0.102574
0.0255343
0.0340975
0.0939953
0.0256299
0.0255581
0.0405449
0.0296951
3.29383
0.0250549
4.70869
0.0268114
11.2034
0.0801077
0.0253425
8.60026
1.42901
0.0254034
0.0254613
0.173834
0.0568434
3.12442
0.0304204
0.0252015
0.0279253
0.0621073
3.69252
3.76685
4.75462
0.681156
0.152318
4.57494
0.0254618
0.0329288
0.0588964
4.69011
0.0276994
0.199099
0.0254664
5.08383
0.0606629
0.0250282
0.0251323
4.43969
0.0255172
0.0268283
6.03885
0.0375699
0.025216
0.0255337
7.25091
0.154302
4.5072
0.0414709
0.0247597
6.71888
1.30886
0.0269976
0.0338916
0.024919
0.0252196
4.18178
4.9144
0.274552
0.36082
0.024744
0.0247016
0.046712
29.4426
0.0252176
4.20073
0.0253313
0.0266641
0.0517029
0.241363
0.0252983
4.42789
2.18912
0.188127
26.8747
0.0700046
5.8235
0.0337062
0.0253363
1.18933
0.0249296
0.0323595
1.36
0.0249268
0.0254329
0.0249392
0.0874975
0.027595
5.64054
0.0253292
0.0555781
0.0251658
0.0255885
3.60074
0.0309749
4.28974
0.0253611
0.0421359
9.29932
5.37598
0.0254093
12.9758
8.03379
0.0246918
4.2856
0.0274006
11.1625
0.162812
0.0296588
4.24205
10.7079
0.311688
0.154326
0.0261901
0.0405792
0.0409917
0.151275
0.0683414
0.0789662
0.02709
0.0252154
0.0339651
0.0881786
0.0258257
0.0255162
0.028336
0.150495
4.15067
5.78881
4.12607
5.57101
0.0406075
10.9486
18.5285
30.1873
8.54091
0.169608
0.0331748
0.203939
0.0290762
0.0253601
0.0543338
5.5762
0.0266806
0.0252821
4.10379
0.110179
6.49665
0.0261823
0.0255509
0.226638
0.0256293
0.0259812
0.0252201
6.01345
0.0475157
0.0353016
8.1316
0.0249082
0.289964
5.72109
9.55436
0.0247739
0.0251432
0.184162
0.262398
0.0247254
0.536438
0.0472208
0.544779
0.0253947
0.0250355
3.56619
5.5374
0.0634232
6.07593
0.0256484
14.1222
0.0396759
0.0250874
0.0251789
0.0757744
3.55355
4.86734
5.285
0.177338
0.0284296
0.0558832
8.52478
6.34817
0.0249001
0.0255901
10.6152
0.0252786
4.28572
0.0569401
3.80231
0.0781806
0.0256717
0.0595135
7.95212
0.0265514
0.0320928
0.0463787
0.02563
0.787291
5.8205
6.31487
0.151372
4.38131
0.0254196
0.0252856
4.55754
0.025654
4.61249
0.025577
6.53533
0.0308517
0.0257913
1.27982
0.128616
0.0252171
3.6226
0.0256392
0.0255796
0.0252326
0.0253323
0.0251613
5.10988
0.12259
0.037294
0.024981
0.186903
0.904765
5.54687
0.0278386
0.042783
8.65291
0.0372351
8.41896
4.9231
0.0253983
0.172987
0.0890146
3.79344
0.29962
7.49805
5.77423
0.0348674
4.49098
0.0247999
1.2077
0.0261902
0.0279083
0.0475015
0.380337
0.0530042
5.83832
0.0336842
0.0254644
0.19705
0.0334731
0.0853528
5.35119
0.0247706
0.0246432
0.025275
0.0286747
0.0281179
5.71001
0.0252229
4.13953
17.5343
4.11107
0.025573
0.0484527
0.0288846
0.0253933
0.0250437
0.0251208
1.73547
26.579
0.0256771
0.0251
0.025091
0.0253272
0.0649005
0.0250554
1.17691
0.0324143
3.36582
0.0537914
0.034628
4.5834
0.0619544
0.0254665
0.224138
0.02531
3.58765
0.0253329
7.4792
0.123538
0.0256247
0.0255639
0.0249391
0.0251577
0.237968
0.0253329
20.0796
0.0400799
4.29209
0.0312333
3.5179
0.0254107
1.14301
0.296176
0.0251338
0.0251403
2.42138
0.721267
0.0253999
7.33778
0.0564705
32.5318
0.0262305
0.0253922
0.110643
6.09682
0.143791
0.025193
0.0249778
0.0458465
4.182
0.0247449
0.0253382
0.0253417
0.0816432
0.0255167
11.5383
4.26309
0.0622355
0.0254456
0.025564
0.113805
0.112477
0.0254596
0.0636854