/*--------------------------------*- C++ -*----------------------------------*\
| =========                 |                                                 |
| \\      /  F ield         | OpenFOAM: The Open Source CFD Toolbox           |
|  \\    /   O peration     | Version:  v2012                                 |
|   \\  /    A nd           | Website:  www.openfoam.com                      |
|    \\/     M anipulation  |                                                 |
\*---------------------------------------------------------------------------*/
FoamFile
{
    version     2.0;
    format      ascii;
    class       surfaceScalarField;
    location    "100";
    object      phi;
}
// * * * * * * * * * * * * * * * * * * * * * * * * * * * * * * * * * * * * * //

dimensions      [0 3 -1 0 0 0 0];
oriented        oriented;


internalField   nonuniform List<scalar> 
56134
(
-0.0529884
0.0525211
0.00046725
-0.00675817
0.00281262
0.00394555
-0.428297
0.257166
0.171131
-0.161806
0.143879
0.0179267
-0.00201715
-0.0114699
0.0134871
0.0418295
-0.105782
0.0639521
-0.0274834
-0.00970629
0.0371897
0.0118742
-0.00767117
-0.00420303
-0.0016814
0.0016814
0.00466652
-0.00731316
0.0334507
-0.0898802
0.0564294
-0.220667
0.176586
0.0440811
0.0113889
-0.103651
0.0922626
-0.0836158
0.0950046
0.00880193
-0.00886512
6.31871e-05
0.117585
-0.0302735
-0.0873114
-0.245019
-0.0868902
0.331909
0.002421
-0.0109852
0.00856422
0.205905
-0.13593
-0.0699751
-0.0448158
0.0407418
0.004074
-0.0436257
0.0098341
0.0337917
0.00222062
-0.0458464
0.0101728
0.0157904
-0.0259632
-0.399543
0.248488
0.151055
0.0685731
-0.00426658
-0.0643066
0.0460368
0.0108988
-0.0569357
0.0322151
-0.051221
0.0190059
-0.079459
0.154608
-0.0751487
-0.189695
0.37837
-0.188674
0.0136827
-0.0102713
-0.00341132
0.0908254
-0.067597
-0.0232284
-0.00579839
0.00633522
-0.24429
-0.155252
0.00723325
0.0211141
-0.0283474
0.201316
0.0279441
-0.22926
0.128908
-0.373927
-0.304015
0.197418
0.106597
-0.0682066
0.0585028
0.00970381
0.0640542
0.0290742
-0.0931284
0.057686
0.0249953
-0.0826812
0.00380816
-0.00303457
-0.000773593
-0.0111195
0.00933954
0.00177995
-0.00158117
0.00200838
0.00789078
-0.00962735
0.00173656
0.266067
-0.166098
-0.0999691
0.121843
0.0136583
-0.135501
0.0223785
-0.0726952
0.0503167
0.0135326
-0.0439605
0.030428
0.0554828
-0.0232677
0.0584094
0.0283978
-0.0868072
0.145922
-0.243152
0.09723
-0.147982
0.282226
-0.134244
-0.123019
-0.184543
0.307562
0.152124
-0.182789
0.0306645
0.00780633
-0.00437812
-0.00342821
0.179279
-0.302298
-0.0935103
0.0862731
0.00723717
0.0397359
0.113259
-0.152995
-0.0658004
-0.0324444
0.0982449
0.0714573
-0.0492309
-0.0222264
-0.00309286
-0.00484414
0.007937
0.0308196
-0.127514
0.0966944
0.00143786
-0.105089
0.0498961
-0.0848465
0.0349503
0.0212707
0.0695547
0.0563818
0.0121914
0.0621391
-0.0458043
-0.0163348
-0.214735
0.126067
0.0886679
0.0704739
-0.193894
0.12342
0.0529734
-0.0521376
-0.000835887
0.158041
-0.119318
-0.038723
0.00742748
-0.00742748
0.143865
0.043275
-0.18714
0.0253373
-0.108953
-0.157025
0.0775656
-0.248602
0.278223
-0.0296207
0.085687
-0.028001
-0.0740486
0.0633692
0.0106794
-0.0516346
-0.00135378
0.0495966
0.0247439
-0.0743405
-0.109053
-0.124369
0.233422
-0.403714
0.214018
0.0445637
-0.0320283
-0.0125353
0.075643
-0.122623
0.0469803
-0.258085
0.189166
0.0689188
-0.00212721
0.000546037
0.0666967
0.0880099
-0.154707
0.0229952
-0.0652623
0.0422671
0.0181529
-0.0950651
0.0769122
-0.0721041
-0.00456278
0.0766669
-0.0560222
-0.0121844
-0.00893668
0.010743
-0.00180634
-0.0214007
0.0436137
-0.022213
-0.0143515
-0.0116939
0.0260455
-0.0635863
0.130283
0.0368338
-0.0165651
-0.0202687
0.142118
0.0517743
-0.193892
0.214224
-0.068302
0.00288123
-0.0029123
3.10696e-05
0.246942
-0.373801
0.12686
0.0318515
-0.0626894
0.0308379
0.167086
0.0471386
0.0949395
-0.0450433
0.00897712
-0.00655613
0.0674374
-0.0466507
-0.0207867
0.335549
-0.0710065
-0.264542
0.00362418
0.0100585
-0.00602446
0.00405651
-0.0184431
-0.0463956
0.0648386
-0.135688
-0.0849789
-0.00554121
-0.0392746
-0.0464943
0.122137
0.00692561
0.0230153
-0.0299409
0.0773239
0.0369103
-0.114234
-0.0801041
-0.0134061
0.0967275
-0.0326733
-0.130631
0.00158588
0.129045
-0.217547
0.149304
0.0682439
0.0414248
0.0179238
-0.0593486
-0.00039636
0.000123519
0.000272842
0.213058
0.116859
-0.329917
-0.111743
0.196335
-0.084592
-0.0285251
0.106467
-0.0779422
-0.0107502
0.00873304
0.00746605
-0.00964898
-0.181552
0.0509205
0.0474624
0.0272288
-0.0746912
-0.264359
0.169989
0.0943706
-0.0629568
0.094097
-0.0311402
0.197962
-0.130123
-0.0678385
0.0769327
-0.0356952
-0.0412375
-0.0144697
0.0681096
-0.0536399
-0.000208148
1.47366e-05
0.000193411
0.327673
-0.179565
-0.148108
-0.0459711
-0.0229096
0.0688807
-0.060923
0.307865
-0.146666
-0.0964858
-0.0815568
0.112376
0.00577594
-0.00687698
0.00110103
-0.018461
0.0673344
-0.0488734
0.240904
-0.0395876
-0.0146251
0.0493368
-0.0347117
0.00577594
0.00327002
0.00053814
-0.0361594
0.180025
0.0403847
0.0217544
0.137201
-0.0563814
-0.0808192
0.0303197
0.0902102
-0.12053
0.0331778
0.0113858
-0.337476
0.284552
0.0529241
0.00328759
-0.00329204
4.45523e-06
0.137297
0.0606653
0.117491
-0.0907108
-0.0267798
0.036165
0.0271261
-0.0632911
-0.0890043
0.0474898
0.0415144
0.0151962
-0.352672
-0.0522153
0.0375902
0.0616295
-0.0202047
0.0154026
0.136722
0.000603635
-0.00659946
0.00599583
-0.0864804
0.0235236
-0.076475
0.0368096
0.0396654
0.0206568
-0.0241204
0.00346364
-0.00131009
0.00171165
-0.000401553
-0.134729
0.0170551
0.117674
0.155034
0.178396
-0.33343
0.15329
0.111177
-0.264467
-0.003961
-0.00307312
0.00703412
-0.0320319
0.0988377
-0.0668058
-0.0985281
0.0500725
0.0484556
-0.0415535
0.0612982
-0.0197447
-0.317193
0.10094
0.216253
-0.000305883
0.00075857
-0.000452686
0.0618035
-0.174681
0.112878
0.197516
-0.127042
0.11953
-0.0814102
-0.0381195
0.0156531
0.0517842
0.0219929
-0.0189765
0.0141558
0.00482068
0.0678524
-0.0559111
-0.0119413
0.000107812
-0.000504172
0.228684
-0.0895576
-0.139126
-0.32678
0.142237
0.153321
-0.0595316
-0.0937898
-0.363505
0.181883
0.181622
0.0353512
-0.0742284
0.0388772
0.106486
0.122198
-0.0889286
0.124935
-0.0360067
-0.0754468
0.0569858
0.00915962
-0.0122663
0.00310667
0.0877889
-0.0293795
0.185393
0.17838
-0.0498001
-0.128579
0.00443859
-0.00919033
0.00475173
-0.0422247
-0.0316409
0.0738656
-0.0203146
0.00306961
0.017245
-0.115121
0.208365
-0.0932437
0.182578
0.129612
-0.31219
-0.188434
0.341922
-0.153488
0.14157
0.0164711
0.00722643
-0.00722643
0.0923733
-0.0589225
0.00886492
0.0106532
0.0571992
0.000116719
-0.000324866
-0.160269
-0.203236
0.159938
-0.0981346
-0.0386007
-0.010087
0.0486877
0.188473
-0.300124
0.11165
-0.0551798
0.0824982
-0.0273184
0.0124603
-0.051061
-0.00272227
-0.0040359
0.108136
-0.328276
0.22014
-0.107184
-0.110364
0.0725854
0.112768
-0.185354
0.0735638
-0.0440462
-0.0295176
0.0241892
0.0241364
-0.0483256
0.264154
-0.1422
-0.121954
0.291837
-0.1837
0.0792686
-0.0567808
-0.0224879
0.0162864
-0.030638
0.00143531
-0.00351739
0.00208209
0.111076
-0.177593
0.0665166
-0.111886
0.200431
-0.0885445
-0.239787
0.130734
-0.00424283
-0.00337848
0.00762131
-0.00188448
0.0032265
-0.00134202
-0.0277547
0.0752171
-0.0453166
-0.0343276
0.0796442
-0.0290501
0.0609016
0.0552494
0.106925
-0.162175
-0.0153027
-0.014288
0.0295907
0.026645
0.0431577
-0.0698027
0.060453
0.0569026
-0.117356
0.0166026
-0.058156
0.0555137
-0.0325185
-0.176431
0.362039
-0.185608
0.00871819
-0.00390388
-0.00481431
-0.0100523
-0.124677
-0.0948412
0.057204
0.0376373
0.0408323
-0.0290346
-0.0117977
-0.205861
-0.111332
-0.0788681
0.0379647
0.0409034
0.0611459
-0.0451745
-0.0159715
0.0965065
0.16956
0.224825
0.036878
-0.261703
-0.36275
0.103473
0.259277
0.102709
-0.315023
0.212314
-0.0685369
-0.0299912
-0.357751
0.19601
0.161741
0.2283
-0.339822
-0.389395
0.145104
0.0498577
-0.236542
0.186684
0.00340878
0.00621
-0.00961879
-0.171193
0.0913528
0.0798398
0.0764413
-0.185691
0.10925
-0.126914
0.147473
0.112158
-0.259631
0.00938124
-0.0320681
0.0226869
0.000372682
-0.00264963
0.00227695
0.0670202
-0.0308552
0.154982
0.0233979
0.00887345
-0.00164702
-0.207171
0.0954284
-0.00952724
0.00643438
-0.0483475
-0.0222468
0.0705943
0.0710959
-0.0487174
-0.123164
0.0946389
-0.108035
0.211108
-0.103073
-0.0159201
-0.00439453
-6.97634e-06
0.000123695
0.200823
-0.128238
0.0105142
-0.0190152
0.00850098
-0.0725687
0.0337601
0.0388085
-0.232231
-0.157163
-0.0383024
-0.0430365
0.081339
-0.0243382
0.0315714
-0.219786
-0.0323443
0.25213
0.0478475
0.0236098
-0.235034
0.244985
-0.00995119
-0.231201
0.138569
0.0926322
0.000476266
-0.000253286
-0.00022298
0.00892388
-0.00145783
-0.338652
0.274636
0.064016
-0.047106
-0.0157323
0.0628383
0.00123517
0.22359
0.161022
-0.197181
0.24303
-0.347285
0.104255
-0.0947513
0.0495012
-0.00378799
-0.0457132
-0.0911389
0.267801
-0.176662
-0.0592607
-0.0326091
0.0918698
0.00817224
-0.00817224
0.29965
-0.120371
-0.15079
-0.11357
-0.146777
0.0578487
0.075516
-0.0504611
-0.0250549
-0.0057249
0.00675087
-0.00102597
0.180268
-0.0889149
0.0306704
-0.00196919
-0.0287012
0.0721604
-0.131421
-0.00666232
0.000863938
-0.261108
0.0125057
0.0374029
-0.0634751
0.0260721
0.00635173
-0.00168521
0.0841073
0.052884
-0.136991
-0.358043
0.0185754
0.339468
-0.181638
0.06232
-0.00209403
-0.000940547
-0.373761
0.1679
0.0646845
0.0154205
-0.0801051
-0.00760104
0.0110098
0.00509855
-0.00504131
-5.72428e-05
-0.0441573
-0.0318922
0.0760495
-0.102814
0.315872
0.00239466
-0.00405297
0.00165832
-0.0969783
0.0999178
-0.00293956
0.14087
0.065035
-0.0344925
-0.00314267
0.0376352
0.000476266
0.0733251
0.00452045
-0.0778456
-0.00034653
0.00178184
0.0807727
-0.0323697
-0.048403
-0.0759489
-0.105689
0.0337885
-0.065077
0.0312885
0.051523
-0.022364
-0.029159
0.00856196
-0.00794631
-0.000615647
-0.147792
-0.0358016
0.183594
-0.26754
-0.051753
0.319293
0.0689498
-0.0522783
-0.0166715
-0.333749
0.157318
-0.279457
-0.0737377
-0.157464
-0.00287918
0.0847189
-0.295296
0.210577
0.231881
0.0957919
0.0968377
0.00116973
-0.0980074
0.222475
-0.0816049
0.162095
-0.335938
0.173843
-0.107486
0.0726451
0.0348407
0.352974
-0.349543
-0.00343063
0.0755547
0.0329069
-0.108462
0.0259406
-0.0052838
0.00516447
0.118287
0.0114493
-0.129736
0.0582076
0.0107422
-0.00155291
-0.0329396
0.100183
-0.319969
0.000415351
-0.000539322
0.000123971
0.135128
0.00207276
-0.00313848
-0.000378912
-0.0022895
0.0241551
-0.0218656
-0.216298
0.0806106
-0.149393
-0.0653424
-0.00167355
-7.85077e-06
-0.0705993
0.00790992
-0.175868
0.0176578
0.0616108
-0.212849
0.0977275
-0.00237751
-0.0181973
0.0205748
0.0144953
-0.00559872
0.087492
-0.0818933
0.00377776
-0.00113726
-0.0026405
-0.00274066
0.00464967
-0.0323345
0.0257119
0.00662258
-0.00700198
0.00275914
0.036271
-0.0636992
0.0274282
0.13015
-0.117114
-0.0130361
-0.146839
0.0620455
0.0847937
0.130979
0.153156
-0.284136
0.100892
-0.0409611
0.0195604
-0.0529768
0.0948063
-0.00511243
0.00511243
0.0497307
-0.0978434
0.0481126
0.280837
-0.262611
-0.018226
-0.0313749
-0.0664809
0.0978558
-0.355737
0.00310654
-0.00310207
-4.46737e-06
0.0307076
-0.0238076
-0.00690002
0.198047
-0.0370255
-0.0666586
0.000327784
-0.000334761
0.0793306
0.0308569
-0.110187
-0.00458349
0.00720384
-0.00262036
-0.118923
0.10761
0.0113126
-0.0147426
-0.0558567
0.058057
0.0293951
-0.0874521
0.036319
-0.0056486
0.136622
-0.287494
0.150873
0.0644342
-0.299468
0.00502615
-0.00968241
0.00465626
0.108355
-0.375895
-0.21955
0.0534813
0.166069
-0.031209
0.11012
-0.0789107
0.078869
-0.0607162
0.0039035
-0.00194725
-0.00195625
0.0101941
-0.00353781
-0.00665626
0.0433272
-0.134877
0.0915493
-0.00930278
-0.34874
0.00300333
-0.000608677
0.0323303
-0.0875102
0.305901
-0.169279
0.0964241
0.0919851
-0.188409
0.328079
-0.0129433
-0.315136
-0.0415453
-0.0120282
0.0535735
-0.254373
-0.119388
0.00582311
0.00289507
-0.0258646
0.0393972
-0.000500973
0.00019509
0.0348613
0.0166617
-0.0849355
0.128263
0.0336113
-0.0868468
0.0532355
-0.0944045
0.149654
-0.0787159
0.215086
-0.136371
0.0721086
-0.0242611
0.00638152
0.00381255
0.00803147
-0.0086473
0.000615832
-0.311385
-0.0513649
-0.38904
0.151079
0.237961
-0.000575704
-0.00103099
0.0016067
-0.0981436
0.0661117
0.0584937
-0.0308707
-0.027623
0.0586343
-0.0212314
-0.0753325
0.318363
-0.0135872
0.0187322
-0.005145
0.198848
-0.114846
-0.084002
0.0250202
0.0481785
-0.0731988
0.0308044
0.0535026
-0.084307
-0.00726763
-0.0345324
0.0418
0.107744
0.103361
-0.211104
-0.0629906
0.0146431
-0.0465708
-0.115235
0.0432218
0.0850112
-0.128233
-0.00131511
0.000739403
0.0617722
-0.162593
0.100821
0.00196335
-0.00205419
9.08474e-05
0.0222839
-0.0117697
0.133889
-0.058244
-0.0756454
-0.163831
-0.169918
0.0993775
0.0406111
-0.139989
0.00854425
-0.056277
0.0477328
-0.0675387
0.104849
-0.0373103
-0.0175273
-0.0794362
0.0969636
-0.127855
0.271202
-0.143347
0.142512
-0.252536
0.110024
0.00228941
-0.00191673
0.0223026
-0.0762804
0.0539778
0.0276299
-0.101908
0.0742783
-0.037702
-0.0330589
0.0707609
0.0186543
-0.116172
0.0975176
0.258924
0.0219127
0.120546
-0.105816
0.253289
-0.0973592
-0.0747252
0.172084
-0.0901645
-0.171403
-0.132613
-0.299407
-0.0896329
-0.00978431
0.000859409
0.0089249
0.249108
-0.130357
-0.118751
-0.0475333
0.158609
-0.103618
0.0980193
0.028061
-0.0702858
-0.066003
0.0250362
0.0409668
0.0023712
-0.000248368
-0.00212283
-0.00472008
0.00648432
-0.00176424
-0.204918
0.144449
0.0604684
-0.059087
0.0924586
-0.0333716
0.00299677
0.00151097
-0.00450775
-0.0646997
0.22896
-0.164261
-0.0466726
-0.0751401
0.121813
0.231616
-0.123872
0.287096
-0.31944
-0.252155
0.175155
0.0769999
-0.112833
0.0784344
0.0343986
0.11078
-0.228771
0.117991
-0.106328
0.0561296
0.0501988
0.00936595
-0.0106497
-0.0678378
-0.0488823
0.11672
0.176853
-0.282669
-0.147436
0.278416
0.113012
0.103514
-0.216526
0.0449036
-0.140568
0.0956648
-0.159727
-0.00572971
0.00897403
-0.00324432
-0.238165
0.147026
-0.102315
0.0697061
0.0696457
-0.0523128
-0.0173329
-0.0102904
0.0302583
-0.0199679
-0.22121
0.156518
0.0646922
0.00168031
0.00222319
-0.0119567
0.108794
-0.0302288
0.086254
-0.0560252
0.0312873
0.135798
-0.0818868
-0.025599
0.00137974
-0.000429421
-0.000950315
0.28771
-0.185001
0.0901759
-0.0715216
0.0547285
0.0791609
-0.104599
-0.0143234
0.0372973
0.0152238
0.0697614
-0.0474588
-0.000955324
-0.000359784
-0.00809263
0.0484773
0.0263266
0.103824
0.0715757
-0.112085
0.0405097
0.030927
0.00917625
-0.00921713
4.0884e-05
-0.140944
0.236293
-0.0953488
0.0815314
-0.243084
0.164368
-0.122518
0.233298
0.00121817
-0.00310265
0.103728
-0.0321523
0.0852891
-0.197071
0.111782
0.0809881
-0.0503024
-0.0306857
-0.00335097
-0.00129025
0.00464121
0.0949684
-0.175485
0.0805165
0.00560588
-0.00560588
-0.120368
0.0891586
0.00301975
-0.00442599
0.0837018
-0.0463668
-0.0373351
-0.218301
-0.0338244
0.252126
0.00730038
0.191809
-0.10652
-0.0581685
-0.0759843
0.134153
0.042893
0.0241271
-0.0138071
0.0192369
-0.00542983
0.0412894
-0.0588278
0.0175384
-0.0890111
0.0633565
0.0256546
0.0069103
0.0939159
0.0421811
-0.136097
0.0697615
-0.0268685
0.0226121
-0.0667695
-0.320999
-0.0173034
0.338302
-0.112475
0.279188
-0.166713
-0.14342
-0.114665
0.0118768
0.0376244
-0.208166
0.143466
-0.244362
-0.00637336
0.250735
-0.0541052
0.085815
-0.0317098
-0.126017
0.0678484
-0.0216668
0.0192893
-0.0643576
0.0266556
-0.00432147
0.000970501
-0.18875
0.0432232
0.145527
-0.146542
-0.0158893
0.162432
0.00574619
-0.000913123
-0.00483307
-0.0477737
0.0750777
-0.027304
0.0803617
-0.401361
-0.103889
0.144626
-0.0407374
0.0928266
-0.0651966
0.02243
0.264666
-0.0426794
-0.0521618
-0.00134932
0.00799622
-0.0066469
-0.089973
-0.241023
0.290881
0.0496592
-0.0681023
-0.0121847
-0.0129355
0.0251202
0.0847095
-0.0266525
-0.0216217
0.058919
-0.00178728
0.00152379
0.000263492
0.064563
0.0132525
-0.0778156
-0.283165
0.170691
-0.000764072
-0.00771711
0.00848118
0.0597995
-0.150037
0.0902376
-0.0464105
-0.0456394
0.0920499
-0.078215
-0.141335
-0.0266081
0.0163177
0.0421969
0.0164374
0.390856
-0.213462
-0.177393
-0.00978121
0.00084453
-0.157162
-0.0239264
0.181089
0.168697
0.186396
0.0777579
0.200612
0.0787545
-0.279367
-0.00612604
0.00339493
0.00273111
0.00112528
-0.00010303
-0.00102225
-0.130639
0.274693
-0.144054
-0.139916
0.29495
-0.015638
-0.08798
0.0775031
-0.0785364
0.00103332
-0.00952821
0.0337174
-0.0443758
-0.0231345
0.0675103
0.00874753
-0.0484635
-0.0118175
0.0602809
-0.0103053
0.00640142
0.00752079
-0.00308219
0.00533526
-0.0104906
0.00515536
0.0651312
-0.211673
-0.370687
0.138455
0.151587
-0.0294523
-0.122135
-0.00761533
0.00855645
-0.000941117
0.0869613
-0.0094526
0.210065
0.175262
-0.0416317
0.0171924
0.0244393
-0.0100113
0.000227017
-0.335296
0.197301
0.137996
-0.0228347
0.160231
-0.137397
0.37364
-0.174367
-0.199273
0.000988008
0.00189322
-0.0227875
0.100043
-0.0772556
0.0263599
-0.00957059
-0.0167893
0.0747093
0.125722
0.0615443
0.0187811
-0.0803253
-0.16212
0.105739
-0.0536396
0.087251
-0.0234913
0.0968164
0.130544
-0.318978
-0.00795343
0.000338093
-0.0826412
0.0781765
-0.0569216
-0.0212549
0.0764327
0.101126
-0.177559
-0.051623
0.146591
-0.106002
-0.0755493
-0.00972468
0.00206443
0.00766025
0.0062442
0.00563
0.00908208
-0.00552828
-0.0035538
0.0884248
-0.306726
0.00800886
-0.021596
0.00356017
0.00276202
-0.0063222
0.110971
-0.00665602
-0.00253431
0.0197431
-0.0668491
-0.00210703
0.0667916
-0.206773
-0.163913
-0.0742322
-0.117152
0.191384
-0.099837
-0.0441232
-0.0284454
0.0294438
-0.0185111
-0.0109328
0.108242
-0.104396
-0.00384686
-0.00224437
-0.00388167
-0.12449
-0.182697
0.307186
0.145558
-0.234655
0.0890967
-0.034375
0.106535
-0.0424343
-0.0706266
0.113061
-0.124417
-0.110917
0.235334
-0.00267048
0.00772912
-0.00505863
-0.145327
0.119837
0.0254907
0.0254499
-0.0732237
-0.0285063
0.0204961
0.00801026
0.0048559
-0.0048559
0.00116205
0.00212554
2.94229e-05
-0.00112458
0.00109516
-0.0423989
0.0614997
-0.0191007
0.0635035
-0.220666
-0.0754125
-0.207753
0.125631
-0.0858952
-0.112932
-0.0545704
0.167502
0.0329438
-0.0889022
0.0559584
0.000631857
-0.00166285
-0.222025
0.00915962
0.0522399
-0.0739513
0.0217113
-0.00755778
0.0048873
0.042049
0.10183
0.0285169
0.0123154
-0.103849
0.0688298
0.0350195
0.0236138
-0.0267564
0.170451
0.0270649
-0.319694
0.0564782
0.0235872
-0.0800654
0.141737
0.0517691
-0.193506
-0.120708
-0.0261311
0.0400555
0.0184382
0.0747758
-0.0447614
-0.0300144
0.000740801
0.00116516
-0.00190596
0.0724359
-0.0532324
-0.0192035
0.000960566
-0.00633002
0.00536946
-0.00881853
-0.000906149
0.105803
-0.0251015
-0.0807013
0.139946
-0.00837917
0.000425739
0.305709
-0.127314
-0.0735401
0.0524222
0.021118
-0.0102136
0.0053695
0.340231
-0.352086
0.0118551
-0.151217
0.135172
0.0160452
0.0607774
-0.0185805
-0.0034418
0.0406205
0.107349
-0.14797
-0.223222
-0.205075
-0.0448135
0.0171032
0.0277103
-0.00677118
0.00677118
-0.00422097
0.00712375
-0.00290278
-0.244955
0.0592642
-0.00778682
0.00852762
-0.0754256
0.177015
-0.10159
-0.0407919
0.060563
-0.0197712
0.116102
-0.086768
-0.0293335
-0.10013
0.180329
-0.0801983
0.0425647
-0.0656955
0.0231308
-0.00270075
0.00474183
-0.00204108
0.14837
0.0879226
0.117356
-0.181763
0.0644065
-0.15539
-0.089565
-0.267159
0.160384
0.106775
0.0662837
-0.0309325
0.0138503
-0.0147942
0.000943912
0.00679778
-0.00579391
-0.00100387
-0.0016217
-0.00623034
0.00785204
0.315316
-0.154497
-0.16082
-8.58022e-05
0.00121108
0.0840269
-0.126461
-0.0389318
-0.0480363
-0.0202516
0.0682879
-0.185762
0.130088
0.0556743
-0.00431143
-0.00680806
0.127686
0.000206185
-0.127892
-0.0927843
-0.037195
0.129979
-0.0352958
0.0136289
0.0413839
0.0396042
-0.00306051
-0.0645365
-0.0202463
0.0487393
-0.028493
-0.0579775
0.012803
-0.00386295
0.0743555
-0.0704925
-0.00949515
0.00965585
-0.000160698
0.0187352
0.0763661
0.0663446
-0.142711
-0.0240913
-0.0112045
-0.0338975
-0.0443225
0.07822
0.0786239
-0.112999
0.0912142
0.00856105
-0.0997752
-0.0523084
-0.0310301
0.0833384
0.0122522
0.118291
-0.0813805
-0.0505811
0.0756013
-0.0602746
-0.0287365
0.0243567
0.0604064
-0.0847631
0.207353
-0.0906542
-0.116698
-0.0212038
-0.0994385
0.120642
-0.0867052
0.0564764
0.174844
-0.108911
-0.0659327
-0.0899817
-0.126317
0.186478
-0.0936076
-0.0928706
-0.242815
0.0874243
0.0719656
0.0826421
0.0192306
0.0173798
-0.0331747
0.0157949
-0.204625
0.089779
-0.225876
0.109101
0.116775
-0.0174951
-0.0512573
0.0687524
0.0041859
-0.00700899
0.00282309
0.354543
-0.0189947
-0.1157
0.100062
0.0572162
-0.000536531
-0.0566797
0.0173674
0.319811
-0.371564
0.0761386
0.0928591
-0.168998
0.13592
0.0389236
0.0500951
-0.0863477
0.0362525
-0.152065
0.0726784
0.079387
0.125466
-0.220711
0.0952451
-0.0709373
0.229963
-0.159026
0.00243417
-6.29726e-05
0.00464461
-0.0096487
0.00500408
0.013862
-0.0630928
0.0789776
0.0247504
-0.00563393
0.325445
-0.090024
-0.209383
0.0504875
0.046222
-0.0967095
-0.0450018
0.221854
0.294815
-0.141525
-0.113845
-0.0373724
-0.001681
0.00116486
0.000516138
-0.0294781
-0.0686655
0.0018628
0.0288343
-0.0306971
0.190201
0.140192
-0.330393
-0.105532
-0.0397954
-0.0193237
-0.0252034
0.0445271
-0.017684
0.00387688
-0.0204259
0.00659946
0.000828022
-0.0291373
0.0563732
-0.0272359
0.0251202
0.00558741
-0.32666
0.155257
-0.282032
0.192008
0.00246894
-0.00696129
0.00449234
-0.0603599
0.0641839
-0.00382397
0.100315
-0.0314848
-0.029622
0.0793527
0.00893025
-0.0191865
0.0102563
-0.00756572
-0.00081345
-0.0370255
0.00954213
-0.0669051
-0.115884
0.0265044
-0.0673314
0.0408269
0.00678487
-0.00259897
-0.0801098
0.128348
-0.0482386
-0.0176569
-0.00565539
0.0233123
0.0992571
-0.030947
-0.0683101
-0.0237855
-0.0516613
0.00534998
-0.00514835
-0.000201631
0.0115448
0.0510185
-0.0625632
-0.0343881
-0.0524587
0.117634
-0.0329629
0.0466757
-0.0137128
-0.053544
-0.172332
-0.00254003
0.00256946
0.042638
-0.146527
-0.349655
0.185824
0.0814828
-0.181787
0.100304
-0.247513
0.172101
-0.00941597
0.0104153
-0.000999344
-0.154323
-0.125135
0.0961636
-0.0681636
-0.028
0.0912135
-0.00349021
0.0809933
-0.037731
0.069566
-0.0318351
0.102591
-0.0236135
0.102543
-0.250525
0.00356343
-0.00176786
-0.00179557
0.0297126
-0.022787
0.332808
-0.194912
-0.137896
0.233968
-0.0855975
-0.00751621
0.0192657
-0.0117495
-0.0981082
0.0686302
-0.0385159
-0.0482345
-0.0184851
0.0667196
-0.179275
0.0945787
0.0846967
0.115499
0.00764942
-0.123149
-0.254885
0.19364
0.0612446
-0.0244532
-0.0520218
-0.00560383
0.00406595
0.00153788
0.00604761
0.0010945
-0.00714211
0.00203462
0.00152881
-0.0542214
-0.00613846
0.0664233
0.0297403
0.0529496
0.061425
-0.0498802
0.0391755
0.0819728
-0.121148
0.0141597
-0.0348396
0.0206799
-0.00328976
-0.000671242
0.0785557
-0.0263158
-0.185737
-0.0629096
0.248646
-0.090761
0.117088
-0.00866583
0.0217775
-0.0131116
-0.0966688
0.172807
0.0253316
0.0221623
-0.0474939
0.00535431
-0.00439374
0.0209748
0.0568235
-0.0777983
-0.27874
0.120822
0.157918
0.0540328
-0.0415725
-0.180509
0.105083
0.0803834
-0.0626194
-0.017764
-0.139618
-0.103196
0.0205063
-0.0262185
-0.00739349
0.033612
0.139981
0.0900479
-0.230029
0.101207
-0.0767108
-0.0244965
-0.10382
0.0810327
-0.234339
-0.083859
0.318198
-0.0686625
0.10511
-0.0364473
0.0106823
-0.00603769
-0.0294295
-0.0724787
0.0957108
0.0217798
-0.00614574
0.000420841
0.0928534
-0.0427583
0.139998
0.100433
0.00820641
-0.10864
-0.236224
0.165287
0.0724277
-0.0394839
-0.189377
-0.0655076
0.129141
0.123526
-0.252668
-0.00399617
-0.00161269
0.00560885
-0.126747
0.0355293
0.091218
0.0638809
0.0401109
-0.103992
-0.0627019
0.154352
-0.0916504
0.227905
-0.143186
-0.155183
0.0924811
-0.157837
-0.122566
0.280403
-0.0055811
-0.0229253
-0.0111071
-0.00982022
0.0209273
-0.124929
-0.0130492
0.137979
0.00896081
-0.00253566
-0.00202352
0.00455919
0.148825
0.213214
-0.0167964
0.0664556
0.274146
-0.149592
-0.124554
0.088722
0.118631
-0.337675
0.332041
-0.0919913
-0.0497259
0.141717
0.00498601
-0.00198923
-0.0516834
-0.0426114
0.0942947
-0.00538746
-0.00687883
0.17508
-0.0577236
0.122189
0.00384295
-0.126032
-0.0354104
-0.0339408
0.0693513
0.0109841
-0.031689
0.0207049
0.262862
-0.296687
0.122087
-0.0965691
-0.0255183
0.00511342
-0.00437142
-0.000742001
-0.00178653
0.00245253
-0.000666002
-0.346978
0.00348917
-0.00253541
-0.000953761
-0.0151239
-0.0924247
0.107549
0.0712727
0.00911067
-0.0243547
0.101871
0.00880815
-0.00880815
0.048293
-0.100601
-0.107464
0.210978
-0.0557182
0.181185
0.163027
0.178895
0.00442304
0.117766
0.0322486
-0.157178
-0.00342793
0.000687273
0.0217145
0.0138928
-0.0356072
0.0655055
0.0445098
-0.110015
-0.0580255
0.0630037
-0.00497824
0.0552952
-0.0486487
-0.00664649
-0.0295826
0.105933
-0.123742
0.0178087
0.312836
-0.186178
-0.126659
0.109412
-0.0182723
0.00680241
0.130338
-0.114283
-0.0160557
-0.103711
0.0742819
0.140678
-0.0520069
-0.0886709
0.000111347
0.00523863
0.0616984
-0.0460668
-0.0156315
0.132658
-0.0454516
-0.0872063
0.0372704
0.0665154
-0.126238
0.0597227
-0.00754638
0.00333276
0.00421362
0.00403345
0.258829
-0.0196067
0.0109409
-0.195002
0.206832
-0.01183
0.010002
-0.0766577
-0.040587
0.117245
-0.0386947
0.0556295
-0.0169348
0.0246349
0.0908643
0.0558221
-0.000526939
-0.0209077
0.0713952
0.0683559
-0.0566923
-0.0116636
-0.0488124
0.223715
-0.174903
-0.0295104
-0.0304215
0.0599319
-0.052472
0.0606985
-0.00822653
0.0774632
0.0276465
-0.276263
0.0419233
0.0286035
0.0580453
-0.0866488
-0.00491312
0.00698328
-0.00207016
-0.013252
-0.0472961
0.0605481
-0.220973
0.364256
-0.143283
0.0967878
0.00213298
-0.0281598
-0.0378432
0.057202
0.0101324
-0.11493
-0.0559188
0.170848
0.0397327
-0.107271
0.230224
-0.407413
0.177189
-0.0201839
-0.0573677
0.0775516
-0.0408683
0.0621629
-0.0212946
0.017278
-0.00886467
-0.00841337
-0.118378
0.0971746
0.043191
-0.0684714
0.0252804
0.00273407
-0.0521204
0.0493864
0.183372
0.0460647
-0.229436
-0.201435
-0.136871
0.338306
-0.0421942
0.069423
-0.0266978
0.210069
-0.266756
0.0686518
0.198104
-0.131189
0.198308
-0.0671187
-0.0237232
0.0669142
0.0240255
0.0435347
-0.0675602
0.106383
-0.0289201
-0.12442
0.251634
-0.127214
0.111822
-0.269659
0.166274
0.0805377
-0.120664
0.0401263
0.142216
0.0917519
-0.0258302
0.0903933
-0.00331525
-0.00689838
-0.102944
-0.00458184
0.00430234
0.131748
-0.204482
0.0727336
0.0065545
-0.00595086
-0.00770136
-0.0164191
-0.0585694
-0.0681778
0.152834
-0.0907889
0.0364816
-0.0494946
0.013013
0.18216
-0.19805
-0.00195272
0.00219887
-0.000246153
0.0291086
-0.225289
0.196181
-0.0318382
0.0686478
-0.120776
0.0300146
0.00465934
0.137078
-0.0200409
0.00593958
0.0141013
0.0604038
-0.077899
-0.226597
-0.0258319
0.252429
-0.0314301
-0.0258896
0.0573197
-0.0500094
-0.0628236
-0.0982347
-0.0479592
0.146194
0.0687405
-0.164736
0.0959959
-0.00504654
-0.00294549
0.00799203
0.0219851
-0.0922243
0.0702392
0.00768484
-0.00925312
-0.0828947
0.214643
0.0157283
0.0299925
-0.0457208
-0.00185519
0.0563939
-0.0545387
-0.00221209
-0.00070021
-0.168615
-0.18104
0.0871252
0.038272
-0.125397
-0.241715
0.131962
0.109754
-0.00353938
0.00100371
-0.0329413
0.0230435
-0.0137421
-0.00930132
-0.000675778
0.00672339
0.270427
0.0622385
-0.332665
-0.0903755
-0.0333661
-0.150115
0.117546
0.0325694
-0.00934208
-0.0435517
0.0678231
-0.0242714
-0.12161
0.0538569
0.0677529
0.0973832
-0.0531294
-0.0442538
-0.200104
0.024009
0.176095
0.116802
-0.0512967
-0.111017
-0.130699
-0.153816
0.199881
-0.135105
-0.11705
-0.138434
-0.0664839
0.00277935
-0.00816681
-0.226802
0.0585811
0.026097
-0.0846781
0.062989
-0.0364845
0.0812201
-0.235036
-0.0941233
0.36455
-0.0239706
0.0616502
-0.0376796
-0.0131148
0.0550623
0.0292195
0.222687
-0.0517877
-0.170899
0.00141091
0.00166466
-0.00263423
0.000969576
0.178177
0.0747948
-0.252971
-0.0414497
0.0608446
-0.0193949
-0.0315512
-0.0240638
0.055615
-0.112873
0.0105577
0.0333626
-0.0167144
-0.0166482
-0.0883188
0.0292318
0.209516
-0.0673007
-0.0712977
0.0253266
-0.0324809
0.0171782
-0.0483393
-0.101776
0.0300121
-0.076694
0.0489392
0.0403473
0.0433545
0.0826738
0.0274459
-0.305495
0.165579
0.072287
-0.0513122
-0.0845778
0.0381673
-0.0180171
0.0716137
-0.0535966
-0.135197
0.00257548
0.00523084
-0.0773436
-0.0304614
0.0139268
0.0165345
0.152543
-0.0913213
-0.0612222
-0.142133
0.229657
-0.0875241
0.227864
-0.361304
0.13344
0.125298
0.10931
-0.234608
0.345794
-0.175946
-0.169848
0.194089
0.130921
-0.325011
-0.0399368
-0.0728193
0.112756
-0.000577303
-0.00120998
0.0968213
-0.0229403
-0.073881
-0.0691212
0.141087
0.0695436
-0.100574
0.09429
-0.00353939
-0.0907506
0.169545
0.0795625
-0.0121004
-0.00687607
-0.0810513
0.0357348
-0.083455
0.032122
0.051333
0.0937666
0.0587769
0.199865
-0.119487
-0.0803784
-0.0139814
0.0119284
0.00205296
0.0608931
-0.0476406
0.0912612
-0.0713513
-0.0199099
-0.00147606
0.00359551
-0.00211945
-0.0265947
0.0110302
0.0155645
0.244604
0.109827
-0.354431
0.050628
-0.0544909
0.0211023
0.0588035
-0.0799057
0.0556595
-0.0814898
0.0315817
0.00645186
0.00105878
-0.00751064
-0.142654
-0.145761
0.288415
0.0778307
-0.17519
-0.00400519
0.00130444
-0.0565812
-0.132169
0.00300066
-0.00815332
0.00515266
-0.0768796
0.0543695
0.0225102
0.0417811
-0.0657789
0.0239979
0.0143371
0.0799529
0.0838807
0.06218
-0.288777
-0.0588109
-0.195562
0.100908
-0.208372
0.190098
-0.214024
-0.179327
0.111455
0.0678718
-0.211144
0.0992996
0.00839295
-0.00817575
-0.000217202
0.125923
0.0973461
-0.223269
-0.00885159
0.00553634
0.336086
-0.336742
0.000656072
0.0697913
-0.105477
0.0356853
-0.00256822
-0.0046497
0.00721792
0.290103
-0.162745
-0.115995
-0.0406864
-0.00657593
-0.00579795
0.0123739
-0.0713664
0.023132
0.148997
0.184947
-0.333944
0.00060059
-0.0268191
0.330856
-0.181859
0.215055
0.117835
0.0126167
-0.130452
0.0387924
0.0213687
-0.0601611
-0.0395457
0.0571245
-0.0175788
0.0572682
-0.0752853
-0.00931597
0.00942898
-0.000113006
-0.0149642
-0.0300399
0.0450041
0.133995
-0.0534576
-0.0200122
-0.00698872
0.0270009
-0.19961
0.228719
0.131525
0.0779914
0.0161991
-0.0548938
0.00215365
-0.00186779
-0.00028586
0.0548282
0.0233483
0.0580221
-0.12586
0.0686762
-0.00274737
0.00777351
0.00755942
0.0273765
-0.0349359
-0.00130172
-0.335226
0.0990015
-0.0624187
0.0329083
-0.0863474
-0.0703017
0.156649
-0.136892
0.100374
0.0365177
0.0204655
0.109873
0.0268316
-0.0375521
0.0107205
0.00574619
0.0831923
0.0343926
-0.00908222
-0.0213791
0.0157296
-0.00187933
0.00081693
-0.00744544
0.00662851
0.0140975
0.168063
0.124628
-0.0796256
-0.0450023
-0.00491213
0.050949
-0.0628866
0.12334
-0.0455279
0.0382602
-0.0570544