/*--------------------------------*- C++ -*----------------------------------*\
| =========                 |                                                 |
| \\      /  F ield         | OpenFOAM: The Open Source CFD Toolbox           |
|  \\    /   O peration     | Version:  v2012                                 |
|   \\  /    A nd           | Website:  www.openfoam.com                      |
|    \\/     M anipulation  |                                                 |
\*---------------------------------------------------------------------------*/
FoamFile
{
    version     2.0;
    format      ascii;
    class       volScalarField;
    location    "400";
    object      ddt0(k);
}
// * * * * * * * * * * * * * * * * * * * * * * * * * * * * * * * * * * * * * //

dimensions      [0 2 -3 0 0 0 0];


internalField   nonuniform List<scalar> 
37190
(
-3.01551e-09
-0.000152781
6.63531e-09
5.46603e-09
0.000101094
1.98738e-09
-4.90404e-09
-1.91764e-08
5.61249e-09
1.02377e-06
2.69581e-10
3.2084e-09
-1.47359e-08
-4.64595e-10
-0.000473652
-3.34799e-09
-1.33437e-08
-2.72071e-08
-0.000177594
3.1008e-06
-1.7397e-08
-2.66654e-09
-0.000324825
-7.14839e-09
-1.08373e-08
-3.8907e-09
6.64552e-09
1.10636e-07
-2.08978e-06
8.87924e-05
0.000662574
2.4018e-09
3.12522e-07
4.08233e-07
6.9451e-08
8.42245e-08
4.23061e-09
-6.35227e-09
6.9223e-09
1.49006e-08
1.43597e-06
-0.000110619
-8.76958e-09
-1.04111e-07
-2.95943e-09
-2.05806e-07
4.40372e-05
8.27079e-07
6.76913e-09
0.000105053
3.37494e-09
1.11988e-08
7.99807e-09
-4.50331e-09
1.32612e-09
1.19875e-08
1.03413e-06
4.2216e-09
9.81642e-05
-8.73471e-10
0.00010309
8.78078e-08
-7.73754e-11
-0.00017585
-1.61753e-08
-9.89568e-09
-2.90439e-09
-1.07672e-07
2.749e-08
1.38993e-10
1.48805e-09
3.43487e-09
2.21594e-08
4.20111e-09
1.46611e-08
-1.68227e-08
0.000159647
1.93341e-08
-0.000125792
2.55384e-08
5.41643e-10
-9.14842e-09
4.17198e-09
-1.99455e-07
8.60691e-06
-1.32026e-08
-3.40604e-05
7.93694e-05
-0.000425217
2.55496e-09
0.000126825
3.69893e-07
-9.45071e-09
1.67429e-09
7.9822e-09
-1.05587e-08
-0.000128116
2.11479e-10
3.7321e-09
-5.0277e-05
-8.69809e-09
6.75764e-07
-5.1709e-05
7.91464e-05
-2.29634e-09
-1.59978e-08
9.3173e-05
8.25587e-10
-2.65296e-09
0.000426455
0.000715271
-0.000292814
4.79759e-09
5.18868e-09
8.68166e-09
-5.68293e-09
1.34452e-08
7.35477e-09
1.52324e-08
-8.51924e-09
1.38856e-08
7.53273e-07
-3.03467e-09
3.21825e-09
-4.72537e-09
-0.000774531
5.12283e-09
-3.7344e-09
2.81624e-05
7.88576e-09
-3.63723e-09
-0.00014721
1.38931e-08
-1.12732e-08
-6.15164e-05
-8.42865e-09
2.95511e-09
-1.062e-07
-1.87601e-07
-2.93396e-09
1.72944e-08
1.10217e-07
9.96046e-10
-1.13541e-08
6.59081e-09
-1.68394e-08
0.000289921
-1.53102e-08
-1.29655e-07
1.87499e-09
-5.37247e-10
-8.9265e-09
-1.99697e-07
-4.16166e-10
9.61712e-05
-2.5963e-09
-0.000120415
-2.58439e-10
0.000115241
1.72434e-08
3.7147e-08
2.62761e-09
4.32761e-06
-0.000141046
-9.01654e-09
-9.59261e-09
0.00125436
-1.53585e-07
-0.000367873
8.65711e-07
-8.37603e-09
-0.000178247
2.64527e-09
5.05069e-09
-1.40124e-05
3.05385e-07
-5.72927e-09
-1.24725e-08
1.32022e-08
-6.57119e-09
-9.46174e-08
-1.23157e-09
-1.64493e-09
3.35825e-09
0.000348592
1.2574e-09
2.99534e-07
2.27252e-08
-0.000288633
-4.93351e-07
9.62915e-10
-3.33484e-08
4.96513e-09
-7.21212e-09
-4.53673e-07
1.45564e-08
1.20662e-08
-2.65466e-09
-6.08456e-05
2.65124e-05
3.94404e-07
1.77126e-09
-1.14011e-09
1.82154e-09
-8.22903e-05
2.10223e-08
-4.19224e-09
4.67662e-09
1.37346e-08
-1.05263e-05
-3.05007e-09
-0.000310376
1.65046e-09
1.89852e-08
-0.000149746
-0.000262784
-1.43061e-07
-1.57406e-08
4.22737e-07
-3.37896e-10
8.41749e-05
3.01335e-09
5.46071e-10
1.50866e-08
0.000266574
-1.16871e-09
-0.000135424
8.69421e-09
-3.02751e-09
3.33485e-05
-7.64109e-09
7.60812e-09
-1.0871e-09
2.69728e-06
5.79314e-09
-4.74455e-08
-1.59177e-07
2.99803e-05
7.3652e-10
7.2106e-09
3.05087e-08
1.16507e-09
-7.57365e-05
9.60404e-09
-2.89998e-09
0.000634294
-6.74183e-10
9.71562e-05
3.32283e-07
-8.75356e-08
-1.09519e-08
1.19975e-07
7.10842e-09
-1.294e-08
1.89291e-08
-2.40728e-09
-3.31333e-08
1.08034e-09
4.52872e-08
-6.79324e-10
9.97233e-05
2.00009e-08
1.92753e-09
0.000780365
1.77932e-08
-2.37367e-09
-7.10303e-10
-7.93534e-09
0.000282364
4.28575e-09
-0.000655034
0.000592971
4.2268e-07
-5.2637e-09
1.79721e-05
7.07771e-09
-7.12617e-09
-2.79712e-05
2.74915e-08
1.67307e-08
3.01929e-07
4.2747e-09
3.63463e-08
1.44277e-06
1.6944e-08
2.3169e-08
1.00852e-09
4.0627e-09
-2.59045e-09
-2.21098e-09
-3.85928e-09
1.30467e-07
5.41583e-08
1.07563e-08
1.85954e-05
-1.46796e-09
-1.17498e-08
0.000333008
2.33956e-08
4.23569e-09
-0.000127249
-5.33739e-05
-4.1209e-09
4.86552e-07
5.74806e-09
5.00382e-09
-2.697e-09
1.25511e-09
8.21864e-06
4.0491e-09
1.48622e-10
0.0002419
2.52965e-09
7.91229e-07
3.36796e-05
1.98118e-05
-9.91878e-09
2.08309e-05
2.12857e-08
5.04528e-09
-1.06342e-09
-4.85322e-09
4.68908e-07
-1.01038e-08
7.15313e-05
3.89902e-07
-2.43115e-08
-7.69621e-05
-2.94213e-10
-0.000262406
-5.78914e-08
2.66947e-08
-1.15844e-08
0.00163479
-1.59584e-07
-1.63653e-05
2.10623e-05
3.9694e-09
1.73093e-08
-0.000178792
-1.47856e-08
4.43329e-07
8.17094e-09
1.15435e-08
0.000116605
2.21087e-07
8.40586e-07
1.22376e-11
5.39386e-09
2.91437e-09
9.84568e-10
0.000632013
4.3245e-10
6.92932e-09
-1.19599e-08
0.000284142
-1.75631e-09
-0.000452662
-3.86749e-09
-1.88946e-08
-4.39521e-08
-0.000132943
2.20736e-08
0.000127598
-1.74365e-08
-6.75697e-08
6.61148e-09
1.73449e-11
1.21543e-07
2.87614e-08
-1.47157e-08
7.79213e-09
-1.0278e-08
-7.46034e-06
-1.51035e-08
2.81321e-07
-9.05887e-08
-5.16913e-07
-8.6829e-08
-0.000134866
-0.000395268
-9.83551e-08
-0.00129062
1.12143e-08
-2.51359e-09
-0.000525481
-3.89885e-09
1.81783e-08
-4.04565e-08
-2.94516e-09
-3.81096e-09
5.36185e-07
2.0914e-08
7.63843e-09
-1.28416e-08
-1.2222e-09
-0.00017118
-1.48436e-08
-7.30122e-12
-2.90158e-08
7.58265e-11
9.43957e-05
-1.9656e-08
1.40797e-08
-1.33701e-08
-4.07235e-10
-1.46421e-10
0.000109027
1.75396e-08
1.66819e-10
-1.47138e-08
2.30503e-05
9.75166e-06
1.99952e-09
-1.06447e-08
-2.86167e-09
2.21396e-08
-4.90277e-09
4.12636e-09
1.32067e-09
0.000104069
-2.84118e-08
-0.000614363
4.75485e-09
4.19777e-09
-8.72917e-08
0.000310514
-2.3905e-13
-1.96845e-08
6.7809e-09
1.03124e-06
2.44917e-10
-1.9608e-08
2.66188e-08
4.14166e-09
-0.000569763
-1.14927e-09
1.65736e-08
-1.58784e-08
-3.31455e-09
-8.26861e-09
3.16884e-09
-0.00019034
-1.27351e-08
-7.8958e-09
4.33011e-05
-0.00128819
-4.52978e-10
0.000132252
-1.63532e-08
1.96281e-08
4.23111e-07
-5.61596e-09
0.000115219
-2.87236e-10
2.69048e-05
4.88603e-09
2.39073e-10
2.33192e-08
2.76982e-09
-0.000165276
2.92907e-08
3.79891e-11
-0.00116885
-1.16268e-07
-2.21029e-10
7.59031e-07
0.000160541
-1.57322e-08
-7.97904e-10
2.21715e-08
0.000326813
-3.24207e-06
-3.97609e-07
0.0016055
4.71411e-05
3.27049e-08
0.000226449
4.07659e-09
1.91313e-09
4.37451e-09
-2.64731e-09
-0.000215075
-0.000785746
-5.61062e-09
2.74497e-08
3.01603e-06
8.18139e-10
3.47363e-05
6.65571e-09
5.77545e-09
-1.02192e-08
-3.68946e-09
1.10592e-06
-1.22024e-07
-6.20458e-09
-8.40018e-09
-6.47487e-09
-3.3774e-07
4.4526e-06
-1.96013e-08
1.75509e-11
-2.6592e-09
0.000241143
2.0472e-08
-0.000102211
0.000714555
1.30374e-05
0.000887783
4.07316e-09
3.02111e-05
4.47832e-12
0.000665259
6.36867e-09
-1.0477e-06
-0.000208659
2.87493e-08
6.87099e-09
1.13721e-10
3.04684e-05
2.34502e-08
-3.35375e-08
3.34748e-05
0.00100243
-1.97065e-09
2.38591e-08
3.55521e-09
-1.3218e-08
1.78858e-06
-7.55616e-12
-1.10694e-08
-2.45435e-09
0.00128459
1.7242e-09
-1.99739e-09
8.48234e-05
2.4498e-09
-2.02459e-09
1.09798e-08
-9.46978e-09
-7.30604e-12
-1.87022e-11
1.4486e-09
-1.14076e-08
-1.09855e-05
-3.49249e-10
-1.01275e-08
2.57549e-08
-4.77216e-09
8.65201e-10
8.69833e-10
-5.56831e-09
-9.70339e-09
8.6034e-05
1.00137e-07
-3.31384e-09
5.40518e-09
9.97582e-08
4.48194e-05
-3.3929e-10
3.53182e-09
3.91401e-05
-6.68108e-05
-5.00501e-05
9.31156e-05
-1.70687e-08
2.25443e-08
-2.4502e-09
-1.6006e-06
-3.11117e-05
1.22113e-09
-1.99177e-08
1.28778e-05
-6.65874e-08
-6.93758e-09
-6.91005e-08
9.15977e-05
-0.000543218
-1.04647e-08
2.28209e-08
2.08497e-08
1.26413e-08
6.30694e-09
1.33276e-08
0.00019524
0.000445267
-6.41057e-10
0.000713217
-0.00059928
2.33408e-10
2.94178e-09
-2.34186e-09
1.16331e-07
2.24265e-08
-2.5683e-09
1.19056e-06
-0.000442925
2.06316e-08
1.84214e-05
-2.34967e-09
-1.21529e-08
5.49856e-10
-1.45489e-08
2.38125e-08
-4.12561e-08
1.41846e-09
2.47935e-08
1.74918e-09
-0.000266919
1.10061e-08
5.47775e-09
1.81024e-06
-1.96104e-09
0.0002148
1.38499e-05
-7.18241e-10
-0.000147749
3.93868e-09
-1.38127e-08
-5.71793e-09
-7.79777e-10
-5.32584e-09
2.40646e-08
5.4176e-09
-1.00222e-09
6.12056e-09
1.59338e-07
-0.000563406
-4.61974e-10
1.15084e-08
-0.000236832
4.08081e-11
4.01682e-09
-1.24974e-07
-2.80894e-09
-4.42308e-09
-3.13834e-08
-1.94692e-08
2.68263e-09
-5.15322e-09
0.000466328
0.000130635
4.45663e-07
0.000113958
5.24732e-10
3.95323e-07
4.69288e-09
-3.01136e-10
0.000996674
-1.22441e-07
2.85018e-09
-3.97202e-10
-1.54204e-07
-1.1712e-08
0.000681739
3.46471e-07
-8.23574e-09
0.000148526
-1.62005e-08
1.59342e-05
1.78367e-08
-7.49985e-10
2.28393e-08
4.20213e-09
1.14625e-09
1.90141e-08
6.34072e-10
2.01421e-07
1.27131e-09
1.12913e-07
1.74688e-09
6.3335e-09
-1.66938e-08
-2.75705e-05
1.41458e-10
-3.99365e-10
-3.62222e-05
1.34364e-08
-8.57872e-09
-9.49829e-08
4.09391e-06
-3.84131e-06
2.31267e-08
2.29132e-09
0.000109854
2.66575e-08
3.42852e-06
-1.26037e-08
2.19458e-08
-3.53492e-08
-2.03706e-09
-3.75552e-07
7.20221e-09
4.80944e-06
1.01403e-08
-0.00016337
4.14314e-09
1.53296e-08
1.02441e-06
4.07417e-09
1.23101e-08
4.18141e-09
9.67807e-09
-0.000393762
1.22175e-08
2.30941e-05
-5.10495e-09
0.00174479
1.2986e-09
-4.86647e-09
2.99212e-06
-4.48477e-10
0.000104057
-8.63106e-09
-9.94354e-09
-1.83242e-09
-8.09158e-13
-9.12224e-08
-7.69107e-10
-0.00166745
7.96691e-05
2.20919e-05
-0.000549648
3.29457e-07
-3.89304e-10
1.87789e-09
3.62495e-05
-0.000524209
1.12058e-08
3.73216e-06
0.000122677
3.00423e-07
1.11583e-08
2.30429e-08
0.000441296
-7.0771e-09
-3.10228e-08
0.00011374
-1.44565e-08
5.61002e-07
0.000394246
-1.04501e-08
8.59028e-10
4.22532e-09
0.000175697
-0.000147258
3.4153e-09
-3.67691e-07
-0.000231488
2.01393e-08
1.64183e-05
8.36911e-08
-3.00155e-05
1.41325e-08
-9.83755e-08
-2.46756e-07
-4.47714e-07
2.21024e-08
8.98675e-09
-0.000100874
6.93795e-08
-2.45844e-08
1.86166e-10
3.27358e-08
2.2509e-09
4.24288e-08
-4.14375e-09
1.52001e-08
-1.81707e-08
8.91984e-09
1.72272e-08
1.59999e-07
2.25639e-08
-1.11401e-08
-2.85828e-08
-1.65404e-08
-0.000463012
0.000140842
6.69916e-09
6.83121e-09
9.19675e-09
-4.37092e-10
7.6395e-05
0.000644094
-1.09941e-08
8.24152e-09
-4.60643e-09
1.22296e-08
-1.07113e-08
7.11465e-05
-4.68972e-10
1.97001e-08
5.18587e-08
-1.19843e-10
-1.04268e-08
-5.53475e-09
2.44977e-09
-4.19462e-09
9.50819e-09
6.70344e-09
2.20208e-08
-5.09329e-13
8.72244e-09
0.0001038
0.000639326
9.48595e-10
3.77732e-09
5.87544e-09
1.18162e-08
1.03786e-08
-0.00020892
2.93067e-07
-1.63911e-08
3.41076e-09
-2.4957e-08
0.00120103
-3.61609e-09
7.3207e-10
-2.86621e-09
-3.27505e-09
8.85041e-09
1.66542e-09
1.23046e-08
2.51985e-08
-6.72471e-09
0.000115152
-1.08382e-05
-2.63862e-09
2.51808e-08
5.97544e-09
-1.31457e-05
6.58121e-08
-1.79153e-05
-3.67081e-08
0.000298639
5.63213e-09
-4.08416e-09
1.49852e-08
1.22012e-05
-3.49688e-10
-2.13473e-09
9.08216e-06
-9.18423e-10
-2.93902e-09
-2.36141e-09
2.06768e-05
7.03383e-08
2.89355e-08
7.71603e-09
8.21164e-08
2.56406e-09
0.00145821
-3.19794e-09
-7.07733e-08
-1.01237e-08
-5.42017e-06
-1.20098e-08
-6.32009e-10
0.00042588
1.23286e-08
8.46434e-05
-0.000118174
-3.62408e-09
1.96463e-10
0.000128379
-5.66208e-09
-4.23244e-09
0.000121048
-2.85388e-09
1.69704e-05
-1.60513e-10
0.000411961
5.04114e-09
-3.42959e-07
0.000189246
2.64551e-10
-1.78543e-09
6.16896e-09
7.91941e-09
5.48048e-09
3.31478e-08
1.34907e-08
-2.95914e-09
2.21171e-08
-0.000196935
-3.04104e-09
8.24315e-09
1.38146e-08
-4.84918e-09
1.31166e-10
-1.34511e-08
-9.75542e-05
9.34179e-09
8.10592e-10
2.01657e-08
-2.80214e-09
-7.23448e-09
-1.4211e-05
2.09048e-09
-1.8137e-08
5.55448e-09
5.74758e-10
2.04018e-08
-1.02144e-08
-1.94485e-09
1.48038e-08
0.000446017
-2.38387e-09
-3.30922e-08
-1.28112e-08
-2.28622e-09
-0.00013718
-2.83359e-09
0.00129429
-3.91362e-10
2.57222e-08
1.43461e-08
2.66648e-10
9.26781e-08
8.36748e-09
-2.54574e-10
-8.62935e-09
3.32071e-07
0.000172437
2.19746e-08
-1.99094e-08
-5.62287e-11
-1.33453e-05
1.76414e-09
-0.000384819
1.24722e-09
-1.97757e-08
5.2961e-09
2.67766e-08
-8.78397e-09
0.000148809
-8.04974e-09
-1.52032e-08
-1.71056e-08
-4.79322e-09
8.82065e-07
4.03699e-07
3.33376e-09
2.56047e-08
2.4837e-08
2.11607e-05
1.36221e-08
-0.000249081
-0.000129691
-8.72578e-10
-1.63608e-08
-1.86624e-08
-6.28822e-10
0.00066549
-7.24008e-09
1.20101e-08
8.28065e-09
2.00562e-08
-0.000130405
1.85692e-11
-1.75023e-08
-8.66635e-09
1.35169e-08
1.41212e-05
4.61814e-05
-1.02998e-08
7.86617e-05
2.34573e-08
1.01717e-10
4.33202e-07
-2.63389e-09
-8.14533e-05
1.54737e-10
-8.11484e-07
-1.97358e-08
2.89213e-09
-0.00049125
6.89838e-09
-1.20214e-08
-1.12403e-08
-0.000396549
-5.678e-09
9.10002e-07
-5.90841e-09
0.000303067
-2.02846e-08
-6.59815e-09
-1.65813e-08
-2.71969e-10
0.00124202
7.26672e-09
2.12108e-08
-1.00263e-08
0.000298614
-1.36744e-09
-1.51431e-07
9.14473e-10
-8.63282e-09
-1.95439e-08
2.46439e-08
5.29515e-09
1.30073e-07
0.000117186
1.89722e-09
5.66407e-09
1.39115e-10
0.000539685
-2.38266e-11
-9.72004e-09
-6.46733e-09
3.39819e-07
-1.9762e-08
-0.000421737
2.40303e-08
0.000655334
1.01704e-10
-1.47183e-09
3.1001e-08
2.73796e-10
-7.76337e-07
-2.70761e-09
-1.12004e-08
1.37499e-08
0.000125983
0.000609126
4.88166e-11
8.72704e-08
-1.10921e-09
1.18009e-07
-1.10538e-08
5.60032e-06
9.50594e-09
-1.84057e-09
-2.39474e-05
-8.39985e-06
-4.79364e-09
1.65979e-10
-4.14481e-08
1.76688e-08
9.4632e-10
-1.19927e-08
-1.50476e-08
-1.36009e-08
3.53468e-05
4.64665e-09
-4.57832e-09
-1.65631e-08
-5.71895e-08
2.08861e-08
-1.68138e-05
5.31836e-05
0.00166025
1.07253e-08
-2.5141e-09
-0.000233204
7.97885e-08
8.63756e-11
1.45005e-08
2.11783e-09
1.19568e-08
-2.79689e-09
6.14078e-10
8.36811e-06
-6.89513e-09
-1.16026e-08
-4.46162e-09
-0.000217618
1.24498e-05
9.19561e-07
-0.000213618
0.000280072
1.31927e-08
3.56321e-05
-6.87554e-09
4.04599e-05
-5.26473e-09
-8.11089e-10
7.69338e-05
-5.16471e-06
0.000784689
1.73737e-09
4.44283e-10
8.7168e-05
0.000708516
7.99991e-12
1.15673e-08
2.10819e-08
-1.05069e-08
2.44753e-08
-1.60268e-05
-0.00157666
-5.90753e-08
-5.18497e-09
5.4459e-10
2.43945e-08
-1.05863e-06
-2.51776e-09
0.000118458
-3.23266e-09
-1.47117e-08
-1.50917e-07
7.56808e-10
-2.51158e-05
0.000485225
1.99445e-09
1.39996e-08
6.72685e-10
1.2383e-09
0.000131422
4.3988e-09
2.38603e-09
2.08594e-05
-8.61045e-10
-1.01837e-08
1.22432e-08
4.43088e-05
2.14074e-08
2.10778e-08
0.00057591
3.36298e-09
-3.98688e-09
0.000136172
-5.74196e-09
-2.13308e-11
-8.69119e-09
5.0933e-07
7.11271e-05
-2.25356e-12
-2.15587e-09
1.07353e-09
7.50849e-08
3.07937e-05
2.4436e-10
9.20081e-05
2.14089e-08
1.95165e-08
1.04031e-06
2.14832e-08
1.93278e-08
-7.08625e-09
9.19855e-07
2.83521e-08
0.000307543
1.89683e-09
1.64474e-08
1.55655e-09
-9.95198e-09
-1.66483e-08
-4.10763e-09
-1.35039e-08
3.93031e-07
-4.97289e-07
-1.13896e-08
-4.21981e-06
1.38005e-10
-4.40467e-07
9.69466e-10
0.000211951
7.77214e-05
2.03357e-08
1.19201e-09
2.06104e-10
1.37391e-08
-2.11761e-09
1.01881e-08
1.55947e-10
1.63051e-05
5.85357e-05
-0.000804457
4.8607e-08
1.14609e-05
3.74608e-07
-4.96769e-09
-0.000226648
-1.01142e-07
-4.80219e-09
5.26093e-07
-2.57006e-09
0.000135857
2.06025e-08
-1.64615e-08
0.00020239
-3.27883e-09
1.54555e-08
2.31497e-08
-1.1601e-10
-4.87379e-09
0.000762534
3.11081e-08
4.74905e-09
-2.04097e-09
-1.09545e-08
0.000136226
8.76836e-10
8.01254e-09
2.36679e-11
7.61077e-10
-5.71656e-08
-2.64147e-09
-2.92962e-09
-9.86305e-05
1.45446e-08
-4.39394e-09
-0.000547331
1.81735e-05
0.000878124
5.18944e-05
-8.02606e-09
3.33659e-05
2.35301e-08
-1.69272e-09
0.000103553
5.2636e-07
3.81551e-08
3.4403e-09
2.28609e-09
3.60364e-08
0.00014231
-0.00109346
-4.04464e-09
6.81181e-10
2.04037e-09
-9.64526e-09
-3.32476e-06
-7.71786e-09
1.0301e-09
8.78199e-10
1.24789e-08
3.15651e-09
-1.64455e-07
-6.68252e-09
-3.48714e-06
-1.41006e-07
5.27805e-09
1.87734e-08
-7.10757e-09
-1.43629e-09
-1.23433e-08
-8.86181e-09
-2.77009e-09
9.34423e-05
-4.89061e-07
-2.28483e-10
3.41403e-09
-1.22731e-05
-1.97618e-08
-0.000166703
1.02323e-08
1.02873e-10
-5.17364e-09
-2.3241e-07
-6.48653e-09
1.89352e-08
0.000125819
6.33233e-12
-7.92391e-09
-8.82889e-05
-6.29906e-06
6.2491e-11
3.15699e-09
1.19766e-08
-8.52294e-11
-9.33113e-09
0.000371236
0.000196323
-3.74747e-09
2.5392e-05
1.09132e-07
-8.14837e-09
-2.56438e-07
2.02062e-08
1.5243e-08
-3.65379e-07
-2.46175e-09
-1.17024e-08
4.89509e-09
-1.58422e-08
-5.53129e-09
1.89801e-05
-2.19939e-09
-7.20388e-10
2.88116e-07
-3.96123e-10
-0.000339204
-2.65899e-10
2.69201e-09
-0.000158579
-1.51807e-08
2.89295e-10
3.46835e-07
2.28241e-08
2.63122e-08
-2.89821e-11
4.35745e-10
1.30967e-08
-6.38158e-09
5.92855e-07
-3.0772e-09
3.15643e-09
9.6179e-09
-1.20831e-09
-1.34697e-09
-4.65977e-10
5.2771e-09
-7.89862e-07
3.7553e-05
2.92355e-09
2.02349e-07
1.9158e-08
2.3754e-08
0.00109854
-4.65268e-09
2.02052e-08
0.00115948
4.82585e-08
-1.31202e-08
-1.51612e-08
4.38955e-09
-3.75121e-09
6.98886e-06
1.67124e-05
-1.03082e-09
-3.18402e-09
2.54663e-09
1.14383e-07
-0.00015133
0.000121346
-3.52746e-07
1.44707e-08
-6.05452e-09
2.39926e-08
0.000249865
2.45296e-08
-2.61437e-09
-3.05429e-08
2.53307e-07
0.00114369
1.45961e-08
-8.75394e-09
-6.27127e-10
-3.23615e-09
2.23439e-05
2.40167e-05
1.22775e-08
-1.53225e-08
2.01999e-08
1.99983e-10
-0.000247196
2.71386e-10
1.68203e-09
-1.59953e-11
3.99849e-05
-0.000525623
1.17706e-11
-4.62772e-07
-9.08221e-11
5.57347e-05
2.40581e-08
0.000225089
-4.36477e-09
0.000220431
2.01575e-08
-1.20843e-08
-1.51604e-09
-8.45465e-08
2.4661e-05
1.64494e-08
-1.30655e-07
2.66969e-10
0.00102725
-0.000361401
3.73431e-06
1.68209e-08
2.56448e-08
9.32796e-10
-1.20741e-08
4.22604e-06
-2.6478e-08
5.80186e-09
-3.6197e-07
-5.02021e-09
9.43832e-09
3.4756e-07
-9.16235e-09
-3.7233e-09
-1.8207e-08
1.37124e-09
-8.57945e-07
-2.40393e-09
-4.03127e-05
-1.32536e-07
0.000447159
2.45271e-09
-1.33643e-07
0.000527846
-1.8401e-08
1.52233e-05
2.22421e-10
-7.38012e-09
0.000283513
1.14951e-10
-1.74753e-09
-7.26853e-09
-5.35418e-09
3.35975e-09
-4.45269e-09
0.000267924
-1.51103e-11
0.000603753
2.28524e-08
-1.59698e-09
1.32399e-08
0.000140066
-2.55668e-09
0.000371244
-1.25486e-08
5.45756e-09
2.09218e-08
-1.04659e-08
3.4057e-09
-3.25224e-05
-0.000450024
-2.13673e-08
2.66226e-09
-5.1085e-10
0.00049836
9.90863e-09
2.20893e-08
-4.01957e-09
1.40918e-09
6.41287e-06
1.52914e-08
-3.63905e-09
-6.30346e-05
-0.000483224
2.11763e-08
-1.50291e-09
-0.00124099
6.56858e-07
-2.31225e-09
-6.50897e-10
-8.66315e-09
-2.96489e-09
-1.02388e-08
-1.19572e-07
3.98406e-10
-1.62858e-09
7.12301e-10
9.92701e-09
-1.16847e-09
-1.05457e-08
-3.05551e-14
-5.41237e-05
-0.000177079
0.00126068
9.57626e-08
-6.87499e-05
2.03435e-08
4.03353e-07
2.90167e-09
5.30802e-09
1.47229e-09
2.39726e-05
1.14836e-08
3.67689e-07
-2.64913e-09
2.30821e-08
-1.56197e-08
-8.06321e-08
-0.000181667
2.31971e-08
5.78476e-10
3.91309e-09
8.61283e-09
1.26881e-08
-1.56029e-10
1.4057e-08
0.000410893
1.29478e-09
-7.40723e-05
-7.06694e-09
-1.46073e-08
2.94957e-09
-0.00053029
1.82976e-09
-3.14469e-09
-0.00042049
2.73691e-08
-4.55814e-07
1.81857e-08
9.88368e-10
6.882e-10
-7.07753e-09
2.93524e-07
1.91225e-05
-7.64369e-09
-3.19546e-09
8.20119e-09
1.15299e-09
-1.79554e-08
0.00170365
-7.86747e-10
0.00144579
0.000116842
4.26868e-09
8.30261e-09
-9.43022e-09
1.63804e-07
7.87666e-08
1.53018e-09
1.55323e-08
-5.1652e-07
1.24237e-08
-3.06534e-09
-1.74544e-08
-1.04598e-08
-4.16059e-07
2.69699e-10
-1.14706e-08
4.48735e-08
-8.68162e-09
1.07222e-08
0.000602118
0.000142039
1.44295e-07
-3.55283e-09
-1.11941e-08
1.13962e-09
5.7134e-09
-4.09254e-05
-1.34143e-08
7.31666e-10
-5.61219e-05
5.43792e-10
3.49087e-07
4.64933e-06
-1.88979e-05
-0.00035482
-3.24123e-08
-9.81017e-05
-5.97494e-08
-4.2019e-07
-0.000151722
5.41266e-10
-0.000146528
-1.75904e-05
-1.17277e-09
1.04508e-08
0.000126148
-2.00593e-09
1.42764e-08
-3.80398e-09
1.44153e-09
4.28818e-09
-5.09645e-07
9.21489e-07
-1.11525e-08
6.26977e-07
-0.000159293
1.36565e-09
-0.000149444
2.82879e-05
5.90801e-08
-1.42353e-08
1.35306e-08
-9.92599e-09
-7.64005e-09
-1.16723e-08
2.40133e-08
7.92517e-09
7.90791e-07
1.3778e-06
5.49401e-09
3.94479e-05
-1.52218e-08
1.36257e-07
1.101e-08
4.12721e-10
-6.58156e-12
-3.05413e-07
-4.75193e-08
5.45532e-09
0.00132096
-4.59276e-09
-0.000582644
1.35029e-07
2.22532e-08
-3.28154e-05
-8.53674e-09
-3.00918e-08
-1.57819e-10
1.10377e-08
2.98289e-09
7.71899e-10
1.24697e-08
2.055e-08
4.24982e-09
-2.63993e-05
1.07592e-08
1.14961e-08
-1.77879e-08
8.1866e-10
2.55896e-10
-1.50149e-08
-1.9078e-08
4.26512e-05
-1.69866e-08
-5.22681e-09
5.62913e-10
1.84119e-08
0.000348647
1.09359e-06
-0.00113333
-1.06803e-09
-1.85742e-08
2.02794e-09
-1.45538e-08
-3.32415e-10
3.05538e-09
-4.87931e-10
8.82466e-09
0.000187921
5.40592e-07
-5.84728e-09
2.20886e-08
0.000392316
0.000301303
-8.39447e-12
-2.53633e-09
-2.07946e-05
8.91406e-11
-4.82567e-10
1.31831e-09
3.19337e-08
2.01604e-08
8.62051e-11
1.16663e-09
1.69975e-08
5.92829e-09
-2.36094e-09
1.8099e-08
6.84237e-09
-2.905e-09
3.09141e-09
6.50514e-09
2.72126e-10
-1.04205e-07
-1.05691e-08
4.43285e-09
0.00023957
-7.64884e-09
3.13565e-09
2.3257e-09
1.74195e-08
-1.09958e-09
-4.43184e-10
3.42593e-09
1.37311e-09
1.33445e-06
-0.00120839
1.0084e-09
-3.35303e-10
-2.01233e-05
-9.16323e-05
-2.13422e-07
0.00134485
-3.40963e-07
1.19111e-08
4.27e-08
7.69278e-05
-5.02463e-09
2.96637e-07
-7.7838e-09
1.9666e-05
5.15103e-07
1.75725e-08
2.82715e-09
3.75445e-07
0.000152596
7.40039e-09
4.38609e-07
-1.3158e-07
3.17645e-09
1.76962e-08
1.0244e-08
9.16193e-06
-0.000363432
-2.76398e-05
2.21075e-08
7.81479e-10
0.0002239
-1.25111e-07
2.89288e-08
7.46542e-09
-0.000274347
6.72165e-09
-6.92324e-09
-1.40512e-08
-1.5121e-05
-5.92415e-08
0.000146696
-1.55273e-08
-3.3136e-08
1.43847e-09
7.7154e-09
-6.63937e-09
2.58267e-09
1.41339e-05
-1.56818e-08
-1.44692e-10
-8.41075e-09
4.17361e-05
-1.86092e-08
-7.51297e-09
-0.0001072
0.000246822
0.000444908
-0.000275979
2.67099e-05
2.43897e-07
8.39966e-10
-2.5998e-08
-0.00626442
0.000149364
2.63424e-09
-1.13355e-08
-6.22729e-09
2.29825e-08
-5.20659e-10
3.03259e-09
-3.96521e-09
-8.51109e-07
-5.28874e-09
2.87791e-05
0.000276319
-9.0153e-09
-1.12884e-09
-1.24437e-07
2.5054e-08
6.74338e-09
-9.22631e-06
1.20182e-08
-9.93321e-08
1.78806e-08
-3.32076e-07
2.05341e-08
4.42572e-08
-8.47011e-10
6.43555e-09
3.60603e-08
6.01618e-09
-0.00081157
7.43693e-10
5.18981e-05
-2.11765e-09
-8.16184e-09
-6.89111e-09
-1.16861e-07
1.40167e-07
0.00019407
1.28651e-09
-1.66973e-08
4.78517e-09
-5.04287e-08
-1.09242e-08
1.56295e-08
5.10558e-09
0.000292774
5.87954e-10
3.46286e-09
0.000346087
0.00012841
1.12496e-08
4.71744e-05
-0.000200019
6.05618e-05
0.000477155
0.000187672
-0.000223896
-7.97581e-10
-1.77477e-08
2.65798e-10
7.57371e-09
-0.000132161
9.71944e-09
1.53041e-08
0.000125735
-9.35532e-10
-1.86866e-08
3.50225e-07
0.000159449
3.88386e-08
6.4565e-09
1.14812e-08
-3.1137e-09
-1.77158e-08
2.33197e-08
4.00427e-11
-1.19443e-06
-1.56431e-08
3.41006e-09
-1.28094e-08
0.000973896
5.11854e-07
1.79092e-09
1.5303e-09
5.23335e-09
-1.04578e-07
2.39261e-07
-1.64527e-08
8.29576e-09
1.29605e-07
1.51252e-11
-9.76505e-09
2.04618e-08
-8.27802e-08
-4.44339e-09
3.33768e-09
1.41381e-09
9.72625e-10
-1.92637e-08
-1.53929e-09
3.04293e-07
1.25969e-07
-7.08061e-09
-4.02669e-09
4.32676e-08
-3.50755e-05
0.000347522
-2.15085e-09
2.55163e-08
-1.94323e-09
0.00109821
4.05498e-09
-1.18216e-08
-1.2649e-08
1.59402e-08
-0.000109371
-1.00264e-08
-3.07417e-08
-1.81428e-10
5.96621e-05
8.32802e-08
3.14103e-09
2.3315e-05
1.95025e-08
-4.89142e-09
-4.02869e-09
1.4194e-05
-1.50797e-09
9.80241e-08
0.00140687
-5.90308e-09
-2.68809e-09
2.58657e-05
3.18394e-09
-2.06636e-09
6.49844e-09
-7.27604e-05
-5.7057e-09
1.35019e-09
1.60539e-07
2.0626e-08
5.39056e-09
2.41818e-08
1.3683e-08
6.0878e-09
6.90661e-05
2.27106e-08
-3.88961e-08
-1.24797e-08
1.13272e-08
-2.36116e-09
-0.000568901
-7.79316e-08
-4.66176e-09
2.60701e-05
2.9713e-09
-1.80638e-08
4.9761e-09
-2.02159e-08
8.57927e-09
0.000583124
1.54076e-07
2.09223e-08
-0.000151348
-0.000220076
3.95075e-09
3.19658e-07
7.18786e-07
-0.000197757
-2.93764e-09
-1.12371e-09
-1.50528e-09
-2.88008e-09
4.43432e-10
1.96964e-07
-5.86929e-08
1.01934e-10
1.49852e-10
-2.74232e-09
1.43693e-07
7.35502e-08
-1.07701e-07
0.000125883
0.000136611
2.18457e-09
0.00146868
5.67117e-09
2.78042e-10
4.98159e-10
8.40162e-06
-1.74224e-08
-1.90776e-08
1.38067e-09
-6.05997e-09
5.3771e-09
2.02697e-08
0.000482713
-3.08333e-09
9.34672e-07
-6.01504e-05
-4.32707e-06
-7.89516e-05
2.46068e-05
-1.43313e-08
3.64329e-07
1.39122e-08
7.2901e-05
-2.05675e-09
4.22413e-10
3.57357e-09
8.58897e-09
-3.22445e-05
1.10495e-08
7.18907e-07
-2.75568e-09
7.72266e-08
-1.76484e-08
-5.68509e-09
3.48279e-09
9.93511e-09
-2.31856e-09
3.30657e-09
-1.22756e-08
7.96913e-05
-1.30615e-08
5.63397e-09
1.21694e-08
-1.2698e-08
-2.16853e-07
-1.91915e-11
-4.80367e-09
3.30671e-07
0.000145354
-1.97621e-05
-0.000192328
-0.000303736
-2.89084e-08
-1.064e-08
2.52719e-09
2.71948e-09
0.00015224
-7.89803e-09
5.78451e-05
-1.13317e-08
-5.78426e-10
3.83479e-08
-1.12949e-09
0.00108079
2.14198e-05
0.000161276
1.33651e-09
1.75513e-10
-2.77749e-10
1.54072e-09
-0.000145339
-1.46447e-08
1.21316e-10
1.36842e-08
0.000996476
9.77052e-09
-1.39954e-08
-5.45795e-09
0.000124771
-3.57221e-09
9.40513e-09
-0.000165531
0.000164173
3.25365e-07
4.8274e-05
4.10144e-05
-0.000131911
1.40581e-08
2.27783e-05
-3.05262e-09
-3.9465e-09
1.27061e-07
-0.000163193
8.77833e-07
-0.000153661
6.30884e-10
1.32399e-08
2.54591e-09
1.63014e-07
0.000162104
-6.18032e-09
4.88639e-05
-5.86744e-09
-0.000208349
-2.61988e-05
-4.69841e-09
2.4636e-07
-1.37091e-08
1.07885e-08
1.26004e-08
-2.51107e-10
-0.00163844
-0.000143658
1.20638e-10
1.39804e-08
1.56055e-06
-5.99733e-09
1.37822e-08
0.000177108
-2.88211e-07
8.61216e-11
1.43227e-08
4.11852e-09
-2.98091e-09
3.79503e-05
2.13591e-08
1.05476e-08
9.40376e-10
-0.000159134
-7.1264e-09
4.57028e-10
-0.00155264
7.001e-09
-6.03237e-09
1.46347e-06
-7.75783e-10
-9.58798e-09
4.59021e-09
8.75469e-05
-2.22015e-09
1.99614e-08
3.68775e-05
7.43374e-08
4.81463e-10
5.24648e-07
8.10558e-08
1.00715e-05
-5.81641e-05
2.31178e-08
-0.000279808
-1.36623e-09
-1.30349e-08
9.4154e-10
-6.22038e-10
-5.01218e-09
-5.52247e-09
1.18712e-07
-5.888e-10
1.19457e-09
-4.11479e-09
1.91108e-07
0.000366108
9.32135e-10
4.59594e-10
7.04409e-05
8.83161e-05
1.68359e-08
1.51134e-09
1.38919e-08
-1.02508e-09
-4.22285e-09
9.53929e-09
0.000281964
8.95287e-08
1.30577e-09
4.05116e-05
3.46279e-05
1.07498e-08
2.89566e-10
-0.00137092
1.95216e-09
5.97746e-10
-9.87411e-05
7.0196e-06
4.2291e-10
1.33774e-09
3.32317e-06
-0.00024524
1.22408e-07
-1.42177e-08
1.19109e-07
0.00135498
2.5413e-08
4.41555e-09
6.28128e-08
9.14186e-10
0.000237419
-3.75955e-09
-1.01194e-08
0.000169609
4.3211e-05
1.59925e-09
5.03722e-10
-0.000144979
-0.000196378
-1.08794e-08
-1.10921e-08
4.60021e-09
-1.03677e-09
5.0719e-09
8.40368e-09
-1.8035e-05
-1.80499e-08
5.86056e-07
1.43652e-06
2.56859e-08
3.39539e-10
4.96602e-10
-1.74523e-09
0.000194422
7.25069e-05
-3.02786e-08
-1.1618e-07
-1.2104e-08
-0.000205118
-5.20562e-09
-9.42891e-09
-9.35782e-11
4.74149e-10
-5.15505e-07
0.000856967
-1.41975e-10
-6.60605e-09
-8.10762e-10
3.83955e-09
0.000147782
6.44677e-09
-9.65516e-09
-6.56464e-09
-1.28679e-10
9.1444e-05
1.18474e-06
-1.7673e-08
2.06128e-08
2.48398e-08
-2.4021e-05
-9.4773e-09
-1.348e-08
-0.000175435
1.30168e-09
-3.85827e-09
1.14069e-08
7.76778e-08
1.2804e-09
-3.84455e-09
0.00034113
4.02934e-07
8.04004e-05
1.19302e-07
1.44377e-09
4.61497e-05
-1.76403e-08
-5.7207e-08
3.88495e-10
-1.12432e-08
8.09256e-09
-3.39203e-08
-1.36328e-08
0.00011135
2.22591e-09
4.68313e-09
-0.0024481
2.19425e-08
2.75303e-07
-2.36858e-09
-1.14368e-08
0.000268632
-3.92632e-07
9.55839e-09
-1.00748e-08
7.69883e-07
-3.58901e-07
-4.36832e-07
2.25152e-08
0.000120196
-0.00139306
0.000358129
2.39111e-10
7.03202e-10
-1.71344e-09
4.73142e-08
-3.05223e-07
-9.05759e-10
-1.04403e-08
-0.000101065
9.89549e-05
-4.16529e-11
0.000136546
8.72544e-09
9.43132e-08
1.11266e-08
1.05941e-09
1.18574e-09
-3.28432e-07
-1.23544e-08
-2.28002e-07
-2.88803e-09
1.47734e-09
6.41327e-05
0.000471295
-1.02251e-10
9.63015e-08
1.57591e-09
-2.23517e-09
6.88414e-09
-0.000153969
-6.32571e-09
-3.74025e-09
-1.33735e-08
-0.000158254
-0.000100786
7.10332e-09
0.000301502
2.04619e-08
4.78971e-05
-1.06087e-08
3.43347e-10
-3.90809e-09
-2.89404e-09
-6.71677e-07
-1.71486e-08
-1.48077e-09
1.00376e-09
1.67962e-08
0.000567084
-4.56057e-07
-2.08068e-09
-4.38162e-09
1.43286e-08
1.56514e-08
-0.00011647
2.93083e-05
-1.01929e-08
0.000147898
-1.03325e-07
1.31975e-08
2.07989e-09
2.36175e-09
5.82915e-09
-1.12309e-08
-1.88969e-08
1.03089e-08
-5.06689e-08
-5.05703e-10
6.58396e-09
-1.1855e-08
-0.000286717
5.02574e-09
-8.71452e-09
0.000219985
-4.48262e-07
1.86615e-06
1.23286e-08
-0.00033177
4.16548e-10
1.34511e-06
0.000245069
2.86963e-05
2.218e-08
1.63811e-08
-1.00113e-08
-1.64739e-08
3.35513e-05
0.000142863
-2.03601e-05
2.21579e-08
-1.9527e-09
3.25472e-08
-4.01952e-09
2.30295e-09
-0.00105979
6.20171e-09
-5.10618e-08
-7.8949e-10
-1.12096e-08
8.74267e-09
4.04658e-07
5.80046e-09
7.52576e-09
0.000640321
5.13625e-09
-1.87178e-08
1.8281e-08
-4.73827e-09
-4.58074e-05
5.67328e-09
-1.61592e-08
-6.22898e-10
1.88222e-08
-1.96974e-09
-1.2151e-09
2.65958e-05
-0.000940203
-0.000162949
-5.27317e-09
1.07609e-06
-0.000172799
-1.59666e-08
1.09899e-06
3.89329e-10
-3.46246e-09
2.51273e-08
1.17518e-08
5.2896e-08
-0.000132021
0.000112315
1.98647e-08
1.14115e-08
-9.23932e-09
1.39253e-08
-8.83629e-09
-0.00160801
0.000131951
-0.00013397
-0.000548752
-1.93357e-08
-0.000127037
1.61156e-07
8.20454e-10
2.78443e-05
-8.47476e-10
-1.10652e-08
-1.25167e-09
0.000179482
2.48035e-10
-4.51597e-07
-1.65634e-08
0.00132849
-6.67756e-09
1.14394e-08
6.1307e-05
-1.37046e-08
-1.09325e-08
-0.000102112
-2.02283e-10
-2.14566e-09
9.16245e-09
-8.56528e-10
9.20459e-05
0.000584902
1.13096e-07
1.07117e-08
-0.000300709
-1.6752e-08
-1.70575e-09
2.16934e-05
-5.99506e-09
1.21286e-07