/*--------------------------------*- C++ -*----------------------------------*\
| =========                 |                                                 |
| \\      /  F ield         | OpenFOAM: The Open Source CFD Toolbox           |
|  \\    /   O peration     | Version:  v2012                                 |
|   \\  /    A nd           | Website:  www.openfoam.com                      |
|    \\/     M anipulation  |                                                 |
\*---------------------------------------------------------------------------*/
FoamFile
{
    version     2.0;
    format      ascii;
    class       volScalarField;
    location    "400";
    object      k_0;
}
// * * * * * * * * * * * * * * * * * * * * * * * * * * * * * * * * * * * * * //

dimensions      [0 2 -2 0 0 0 0];


internalField   nonuniform List<scalar> 
37190
(
0.000148041
0.0624134
0.000146674
0.000168106
0.040666
0.000146872
0.000175291
0.000150813
0.000167709
0.00021597
0.000147948
0.0001445
0.000154934
0.000146151
0.0527404
0.000148112
0.000151284
0.000182591
0.0583601
0.000153182
0.000151957
0.000148044
0.0791242
0.000154097
0.000152049
0.000148131
0.000173896
0.000178389
0.000258594
0.0478091
0.0754631
0.000146544
0.000188412
0.000218291
0.000192385
0.000178309
0.000144711
0.000154065
0.000152543
0.000147745
0.000212753
0.0364778
0.000151726
0.000191423
0.000148217
0.000203267
0.0359082
0.000239478
0.000146657
0.042347
0.000149524
0.000148059
0.000163786
0.000161467
0.000148876
0.000149766
0.000214784
0.000144732
0.0372828
0.000144932
0.0358265
0.000178321
0.000143466
0.0689983
0.000151669
0.000151896
0.0001462
0.000195222
0.000170461
0.000143486
0.000148936
0.000148763
0.000158187
0.000147137
0.000148142
0.000148496
0.0736241
0.000168323
0.0458719
0.000158353
0.000148387
0.000157926
0.000147097
0.000180468
0.000880065
0.000151211
0.0527138
0.0456305
0.0535327
0.000146555
0.0715232
0.000190452
0.000151933
0.000147121
0.000147703
0.000152111
0.0439279
0.000147323
0.000167535
0.0870856
0.000151799
0.000180652
0.0752481
0.085558
0.000148366
0.000149201
0.0610626
0.000148694
0.0001462
0.0649737
0.0726486
0.0571478
0.000153199
0.000145341
0.000148772
0.000148069
0.000168587
0.000152571
0.000147758
0.000150897
0.000148018
0.0332823
0.000148156
0.000148739
0.000147834
0.0500941
0.00014535
0.000147764
0.000168359
0.000168798
0.000147738
0.0623253
0.000156634
0.000152236
0.0729605
0.000147213
0.000167362
0.000195623
0.000201739
0.000150514
0.000158743
0.000178737
0.000167342
0.00015222
0.000147699
0.000148476
0.0800834
0.000151095
0.000196312
0.00014564
0.000147602
0.000159279
0.000206923
0.000148042
0.035797
0.000145438
0.0466215
0.000147943
0.0628014
0.000167196
0.000173964
0.000148363
0.0348747
0.0499623
0.000159197
0.000150728
0.0547891
0.000192935
0.0488593
0.000211227
0.000147193
0.0510155
0.000148377
0.000154454
0.0344597
0.000194467
0.000147909
0.000151566
0.000172653
0.000154949
0.000190681
0.000148459
0.000148421
0.00014717
0.0715886
0.000149014
0.000188027
0.000163371
0.0825445
0.000212997
0.000148736
0.000182066
0.000145672
0.000151291
0.000237877
0.000157049
0.00014767
0.00017456
0.0877637
0.0601485
0.000202528
0.000146587
0.000147618
0.000149068
0.048235
0.000167185
0.000174809
0.000149425
0.000147991
0.0521299
0.000147949
0.0479132
0.000146592
0.00016387
0.0642081
0.0863563
0.000196463
0.000194305
0.000218224
0.000148333
0.037372
0.000144473
0.000148173
0.000165958
0.0680446
0.000148074
0.0442055
0.00014766
0.000163743
0.0211679
0.000151589
0.000148202
0.00014493
0.0525702
0.000161538
0.000187521
0.000184665
0.0306171
0.000143546
0.000148759
0.000171937
0.00014902
0.047424
0.000148059
0.000147874
0.00656736
0.000147421
0.0406418
0.000189094
0.000186786
0.000147653
0.000180049
0.000148197
0.000157661
0.000156556
0.000148223
0.000181887
0.000148883
0.000166908
0.000147405
0.0421322
0.000159873
0.000145577
0.0740305
0.000152062
0.00014615
0.000148884
0.000151641
0.0690875
0.000144813
0.0711505
0.0680886
0.000218235
0.000161334
0.0176854
0.000146999
0.000146833
0.041827
0.000164943
0.000158788
0.000262835
0.000148756
0.000189439
0.000212665
0.000151873
0.000157673
0.000148693
0.000148737
0.000174259
0.000148245
0.000149209
0.000192575
0.000165617
0.000172382
0.0173838
0.000148074
0.000147593
0.0708085
0.000170054
0.000144819
0.0443068
0.000128831
0.000151505
0.000205432
0.000147603
0.000145417
0.00014616
0.000148935
0.000258095
0.000154114
0.00014969
0.0711418
0.000161411
0.000181105
0.0277289
0.0558468
0.000158077
7.61565e-05
0.000165657
0.000145414
0.000148068
0.00015961
0.000216359
0.000148106
0.0836231
0.000206182
0.000179078
0.0878091
0.000147204
0.0886392
0.000163913
0.000169837
0.00014772
0.0177581
0.000206289
0.0448926
9.11151e-05
0.000167495
0.000150885
0.0698982
0.00015029
0.000205241
0.000148751
0.000149688
0.0614452
0.000199513
0.000211243
0.000149695
0.000147395
0.00014541
0.000148705
0.0762333
0.000147295
0.000146873
0.000156995
0.00244856
0.000145991
0.0554145
0.000176536
0.000150599
0.000164609
0.0444037
0.000173346
0.06295
0.000156382
0.000184911
0.000148225
0.000145686
0.000190834
0.0001643
0.000150196
0.00016536
0.000156277
0.000158113
0.000151155
0.00018706
0.000187482
0.000214052
0.000187324
0.0426216
0.0652041
0.00020136
0.0375938
0.000166397
0.000173713
0.0545527
0.000174615
0.000163159
0.000186868
0.000159725
0.000149158
0.000198836
0.000158616
0.000148785
0.000151989
0.00014608
0.000440566
0.000155133
0.00014981
0.000193749
0.000145697
0.0729688
0.000151943
0.000148045
0.000152015
0.00014723
0.000146948
0.0407903
0.000150794
0.000145719
0.000148354
0.000126483
0.0490621
0.000148557
0.000147663
0.000147817
0.000170319
0.000147864
0.000144905
0.000146928
0.0743422
0.000202162
0.0536785
0.000147622
0.0001449
0.000192393
0.0709044
0.000149841
0.000151235
0.000146949
0.000197145
0.000145827
0.000152005
0.000169302
0.000149086
0.0762059
0.000150756
0.000189924
0.000149076
0.000147852
0.000149795
0.000147143
0.0726196
0.000151393
0.00014814
0.0482263
0.033821
0.000145692
0.0834651
0.000148968
0.000168895
0.000205731
0.000148078
0.0426547
0.000147406
0.0791441
0.000145675
0.000149201
0.000156119
0.000145482
0.0663819
0.00016657
0.000145979
0.00649761
0.000195323
0.000147202
0.000209238
0.00184551
0.00014884
0.000147152
0.000169663
0.0717755
0.0869485
0.000207828
0.0140706
0.0840787
0.000164149
0.0746737
0.000149432
0.000146848
0.000145752
0.000149323
0.0513838
0.00261782
0.000146729
0.000164936
0.00479426
0.000148179
0.023547
0.000166109
0.000151876
0.000156743
0.00014783
0.000209137
0.000189406
0.000161496
0.00014811
0.000146815
0.000204987
0.0335957
0.000151873
0.000149367
0.000149455
0.0478473
0.000168209
0.0399702
0.00279549
0.000116557
0.0723773
0.000149064
0.0490777
0.000149397
0.0668858
0.000146937
0.000185088
0.0869208
0.000166255
0.000146864
0.000145756
0.0513133
0.000155164
0.000188254
0.000326078
0.0042857
0.000147825
0.000158445
0.000164196
0.000151426
0.000186155
0.000149821
0.000169227
0.000145325
0.018429
0.000147656
0.00014827
0.0853629
0.000146586
0.000148389
0.000147691
0.000152759
0.00014986
0.00014983
0.000167794
0.000152751
0.0371846
0.000148027
0.000154283
0.000173272
0.000161706
0.000146486
0.000147021
0.000154844
0.00015835
0.0415833
0.000191333
0.000147954
0.000153141
0.0002384
0.0602265
0.000147231
0.000144945
0.0217987
0.0540985
0.0744984
0.0418578
0.000148993
0.000166687
0.000148086
0.0359515
0.00152769
0.000157428
0.000151774
0.000129676
0.000185016
0.000147241
0.000195725
0.0403634
0.0543134
0.000148028
0.000173685
0.000171669
0.000149104
0.000152621
0.000147973
0.0746512
0.0419525
0.000147067
0.073405
0.0394617
0.000149569
0.000165419
0.000147613
0.0001899
0.000161837
0.000148189
0.000310674
0.0554122
0.00016277
0.000622173
0.000147613
0.000150031
0.000157206
0.000156455
0.000155468
0.000182375
0.000147333
0.000169833
0.000149112
0.0522886
0.000173292
0.000147146
0.000181962
0.000145105
0.0682667
0.0145328
0.000147585
0.0607421
0.000144987
0.00014833
0.000154622
0.000147555
0.000178706
0.000158475
0.000147136
0.000173026
0.000146961
0.000181005
0.0353942
0.000147386
0.000147707
0.0577142
0.000149727
0.00014499
0.00019502
0.000161955
0.000158195
0.000179744
0.000151467
0.000147117
0.000151633
0.00177888
0.0371122
0.000205823
0.0372547
0.000143517
0.000212293
0.000149299
0.000152361
0.0699662
0.000205695
0.000169706
0.0001474
0.000206287
0.00015225
0.00263773
0.000196921
0.00015942
0.0313537
0.000149088
0.0160666
0.000177727
0.000152179
0.000158509
0.000167343
0.00016773
0.000160141
0.000143499
0.000188507
0.000147344
0.000191416
0.000166392
0.000146972
0.000179409
0.0379979
0.00014859
0.000147994
0.0876363
0.000148295
0.000147048
0.000187404
0.00831726
0.0374975
0.000161828
0.000144219
0.0371264
0.00018827
0.000558584
0.000151585
0.000162814
0.000181932
0.000151878
0.000207134
0.000148233
0.00703748
0.000148066
0.000500553
0.000149389
0.000162765
0.000207634
0.000144608
0.000175002
0.000144695
0.000147687
0.000747787
0.000148974
0.0215305
0.000148096
0.0194763
0.000147262
0.000148122
0.000182275
0.000146067
0.0702274
0.000147065
0.000158524
0.000148296
0.000149804
0.000205077
0.000172209
0.0300191
0.0743759
0.0199958
0.00214171
0.000190251
0.000147901
0.000149671
0.0250552
0.0546235
0.0001477
0.00577072
0.0372712
0.000187978
0.000161481
0.000163756
0.0604344
0.000146797
0.000183078
0.0357301
0.000169743
0.000242564
0.0616874
0.000154201
0.000153735
0.000145507
0.0511636
0.0615845
0.000144941
0.000178355
0.0881525
0.000160179
0.0158599
0.000178649
0.0359548
0.0001481
0.000187203
0.000179916
0.000209585
0.000158647
0.000147304
0.0604589
0.0001932
0.000161154
0.000148584
0.000174156
0.000144234
0.00018473
0.000151658
0.00015059
0.000151493
0.000148562
0.000152854
0.000181009
0.000170024
0.000154099
0.000181736
0.000152521
0.0770794
0.0112794
0.000147057
0.000152324
0.000148576
0.00014831
0.0732378
0.0735911
0.00017853
0.000148185
0.000151442
0.000147582
0.000150922
0.0412723
0.000148007
0.000157076
0.000165015
0.000148128
0.000147471
0.000146664
0.000149719
0.000161768
0.000148541
0.000163465
0.000163385
0.000149808
0.000147304
0.083962
0.0758523
0.000152046
0.000144513
0.000147124
0.000164932
0.000164227
0.0871381
0.00018755
0.000151679
0.000148355
0.00017995
0.0579373
0.000150666
0.000148664
0.000145505
0.000148197
0.000164793
0.000149152
0.000148428
0.000176148
0.000147734
0.0413313
0.0379614
0.000152042
0.000155731
0.000158521
0.000824053
0.000172149
0.000178276
0.000180647
0.064861
0.000152045
0.00014786
0.00016251
0.0132006
0.000172723
0.000148057
0.000121905
0.000146016
0.00014553
0.000175411
0.000649318
0.000172843
0.000171455
0.000148167
0.000178665
0.000166808
0.0129482
0.000146233
0.00019001
0.000157601
0.000792997
0.000154328
0.000147794
0.0659574
0.000149923
0.0400612
0.0336398
0.000148154
0.000149649
0.0111577
0.000147758
0.000146949
0.0429031
0.000145598
0.0503508
0.000148131
0.0649053
0.000172533
0.000203164
0.0737312
0.000149147
0.000148321
0.000149222
0.000147443
0.000147499
0.000161033
0.00014924
0.000147664
0.000166031
0.0132995
0.000147674
0.000147673
0.000157649
0.000148126
0.000149704
0.000148132
0.0633686
0.00014881
0.000146097
0.000168853
0.000147947
0.000147304
0.0399882
0.000165037
0.000151739
0.000167312
0.000146079
0.000164966
0.000157338
0.000149792
0.000170127
0.0794914
0.000163534
0.000182821
0.000157287
0.000145296
0.0425607
0.000145598
0.0196442
0.000147035
0.000158218
0.000148173
0.000148368
0.000191857
0.000173575
0.000148376
0.000147064
0.000195896
0.0710238
0.000158007
0.000151843
0.000148525
0.000164639
0.000145439
0.0856638
0.000147159
0.000151259
0.000149362
0.000179589
0.00014708
0.0681727
0.000150692
0.000152691
0.000151781
0.000147886
0.000182459
0.000258858
0.00014957
0.00015806
0.000155798
0.000422781
0.000148221
0.0868087
0.0452206
0.000177504
0.000148589
0.000150557
0.000147965
0.0767123
0.000149929
0.000148577
0.000147432
0.000169524
0.0430292
0.000149761
0.000148787
0.000152829
0.000156802
0.0142902
0.0392001
0.000153164
0.0413506
0.000158548
0.000148001
0.000196299
0.000152557
0.0653614
0.00014926
0.00017984
0.000151934
0.000149622
0.0756206
0.000146992
0.000178266
0.000178577
0.0849764
0.000148051
0.00018222
0.00015511
0.0651329
0.000243378
0.000146777
0.000149198
0.00016135
0.00903682
0.000178936
0.000172699
0.000149743
0.0803802
0.000145016
0.000192759
0.000148727
0.000152542
0.000150869
0.000169386
0.000152082
0.000193383
0.0359316
0.000146733
0.000146888
0.000145706
0.0753373
0.000149825
0.000152919
0.000167453
0.000209655
0.000159778
0.0632122
0.000153868
0.0736656
0.000149361
0.000145053
0.000163124
0.000148146
0.03415
0.000147137
0.000154535
0.000148201
0.000969228
0.0769398
0.000148518
0.000175894
0.000163505
0.000180034
0.00014739
0.000144773
0.000148782
0.000145113
0.0344553
0.0332926
0.000178067
0.00014962
0.000188061
0.000157314
0.000149182
0.000154455
0.000152956
0.000176971
0.0259654
0.000147403
0.00014789
0.000148662
0.000188376
0.000162349
0.0530669
0.0742182
0.0214959
0.000174132
0.000145389
0.0577702
0.000175065
0.000149416
0.000148105
0.000165634
0.000148588
0.00016328
0.000148637
0.000124341
0.000157346
0.000150859
0.000154274
0.0456063
0.013008
0.000239059
0.044467
0.072086
0.000149207
0.026232
0.000150994
0.0322474
0.00014962
0.000170276
0.0376437
0.0367809
0.0104377
0.000146749
0.000148745
0.0363536
0.0725697
0.000149721
0.000154135
0.00016669
0.000150844
0.000154364
0.000152403
0.0338558
0.000166305
0.00014731
0.000147364
0.000154257
0.000103682
0.000148194
0.0372305
0.000157459
0.000178782
0.000192692
0.000146836
0.0683056
0.0790935
0.000144283
0.000148142
0.000148674
0.000146945
0.0848448
0.000148494
0.000145496
0.0511212
0.000147585
0.000157871
0.000148045
0.0440722
0.000155438
0.000161171
0.0754355
0.000148372
0.000147907
0.0400746
0.000157942
0.000147352
0.000147581
0.000177749
0.0397018
0.000149756
0.000145249
0.000147227
0.000174234
0.00131287
0.000148341
0.0608144
0.000163362
0.000151973
0.000253345
0.000155086
0.000172114
0.000150987
0.000212886
0.000173325
0.0742732
0.000144278
0.000151008
0.000149211
0.000147649
0.00015181
0.00014702
0.00015574
0.000191064
0.000213733
0.000147393
0.00053129
0.000149312
0.00020969
0.000148744
0.0589532
0.0398262
0.000164892
0.00014648
0.000147397
0.000147578
0.000145063
0.000153965
0.000148119
0.0366843
0.000233739
0.050112
0.000173471
0.000174573
0.000190595
0.000148037
0.0378483
0.000198608
0.000148057
0.000215414
0.000158206
0.0384039
0.000151678
0.000151833
0.072045
0.000152428
0.000147744
0.000161984
0.000148559
0.000148157
0.0750134
0.000172888
0.00014738
0.000148065
0.000147583
0.0356613
0.000148698
0.000148139
0.000147903
0.000143549
0.000194126
0.000145617
0.000146319
0.0478924
0.000148133
0.000147935
0.0775972
0.0488941
0.0109448
0.0730878
0.000155932
0.0287997
0.000170458
0.000163167
0.0506416
0.000198819
0.000168901
0.000149064
0.000150572
0.000168939
0.016912
0.0482957
0.000150634
0.000148641
0.000148024
0.000147637
0.000183361
0.000176227
0.000148048
0.000149207
0.000173445
0.000145392
0.000217987
0.00014812
0.000409214
0.000191888
0.000146986
0.000166595
0.000154104
0.000158087
0.000156756
0.000155654
0.000163702
0.0474742
0.000212084
0.000146964
0.000149103
9.33469e-05
0.000151564
0.0738882
0.000147442
0.000149683
0.000148104
0.000205057
0.000146775
0.000164031
0.0358842
0.000149814
0.000178313
0.0588865
0.00011282
0.000147962
0.000144594
0.000155603
0.000147342
0.000147668
0.0431143
0.0026181
0.00015053
0.0233263
0.000226289
0.00017436
0.000189695
0.000151542
0.000147762
0.000232015
0.000170963
0.000189292
0.000169756
0.000148737
0.000146878
0.000175862
0.000145038
0.000147492
0.000194438
0.000147519
0.087389
0.000168408
0.00015401
0.0720802
0.000155135
0.000145667
0.000209457
0.00015616
0.000187435
0.000147875
0.000148389
0.000169771
0.000148145
0.000200395
0.000146295
0.000146921
0.000148135
0.000148443
0.000146052
0.00014749
0.000146986
0.000184535
0.029733
0.00014702
0.000189236
0.000160393
0.000160846
0.0671594
0.000149543
0.000151579
0.00808823
0.000166357
0.000170192
0.000155311
0.000147383
0.000153084
0.000677246
0.00168426
0.000144968
0.000167784
0.00014412
0.000192538
0.0341038
0.035921
0.00017793
0.000148029
0.000154161
0.000158385
0.0719529
0.000156022
0.000148163
0.000173052
0.000175423
0.0149175
0.000148049
0.00015273
0.000168323
0.000148179
7.80779e-05
0.0217477
0.00014764
0.00015251
0.000156597
0.000145152
0.0886413
0.000149564
0.000148017
0.000149832
0.0583854
0.0503129
0.000147805
0.00022048
0.000148494
0.000145332
0.000153977
0.069323
0.000147969
0.0590175
0.000151548
0.000147572
0.00014835
0.000201394
0.000188259
0.000163388
0.000244936
0.000143678
0.0108862
0.0560518
0.0740043
0.000173545
0.000158246
0.000143546
0.000149779
0.0363157
0.000172396
0.000148273
0.00020576
0.000146496
0.000147459
0.00018971
0.000150947
0.000145984
0.000150715
0.000147199
0.000124108
0.000148086
0.0597501
0.000191188
0.0451353
0.000147996
0.000216371
0.0777165
0.000150765
0.0437972
0.000148586
0.000151245
0.0684924
0.00014966
0.000146165
0.000159711
0.00015173
0.000148465
0.00015429
0.0735927
0.000149866
0.0454189
0.00015742
0.000146022
0.00015648
0.000317947
0.00014537
0.0394733
0.000152501
0.000170238
0.000152169
0.000147683
0.000149567
0.000211608
0.079134
0.000179132
0.000144088
0.000165535
0.0776332
0.000148549
0.000185869
0.000162362
0.00014696
0.000488058
0.000163674
0.000148196
0.0450851
0.0522709
0.00015226
0.000168261
0.046601
0.000209879
0.000147379
0.000148104
0.000150015
0.000157744
0.000154324
0.000205757
0.000149504
0.000148068
0.000146815
0.000147665
0.000148483
0.000177945
0.000149842
0.0593133
0.0746958
0.00668788
0.000186537
0.0598656
0.000153184
0.00020642
0.000147651
0.000147439
0.000146548
0.016303
0.000147453
0.000212045
0.000163597
0.000166754
0.000152517
0.000194551
0.0444056
0.000153659
0.000148822
0.000144583
0.000147774
0.000169127
0.000148101
0.000147783
0.00227085
0.000147637
0.0618292
0.000146803
0.000150004
0.000167084
0.0744729
0.000149016
0.000170719
0.000782841
0.000169841
0.000215035
0.000170257
0.000150542
0.000148663
0.000157131
0.000187483
0.0344711
0.000150561
0.000150524
0.000148157
0.000149107
0.000150992
0.0230022
0.000147645
0.00942299
0.0850325
0.000170188
0.000164353
0.000158034
0.000211414
0.000191754
0.000148321
0.000150636
0.000221892
0.000148455
0.000148204
0.000176483
0.000156207
0.000213188
0.000148704
0.000147557
0.000170944
0.00014989
0.000148497
0.0480641
0.0317106
0.000209773
0.000147855
0.000147987
0.000146164
0.00014877
0.0616929
0.000148247
0.000146561
0.0577174
0.000146476
0.000196416
0.000238733
0.0410056
0.0614654
0.000200939
0.0545375
0.000198604
0.000218949
0.0612166
0.000143722
0.0621076
0.000160497
0.000147491
0.000159414
0.0650321
0.000148395
0.000147792
0.000147858
0.000146562
0.000145675
0.000221884
0.000205984
0.000154675
0.000208167
0.0633045
0.00014663
0.0364114
0.074135
0.000171336
0.000150138
0.000148287
0.000154081
0.000153753
0.000154979
0.000158427
0.000168728
0.000204643
0.000197819
0.000147539
0.0557338
0.000154897
0.000208015
0.000148459
0.00014734
0.000149855
0.000202881
0.000165929
0.000147621
0.0556718
0.000147916
0.0189367
0.00018206
0.000166447
0.000240365
0.000152989
0.000173055
0.000147404
0.000155422
0.000146845
0.000148722
0.000169752
0.000163092
0.00015613
0.000116214
0.000147667
0.000147421
0.000148647
0.000148767
0.0001487
0.00015034
0.000151572
0.0561623
0.000152042
0.000146543
0.000148294
0.000163448
0.00193382
0.000230798
0.010835
0.000165107
0.000150814
0.00014486
0.000155419
0.000147016
0.000144564
0.000148514
0.00015768
0.0724738
0.000205082
0.000166566
0.000161564
0.00227746
0.00422539
0.00014982
0.000147052
7.42712e-05
0.000148671
0.000147427
0.000166392
0.000172554
0.00017039
0.000150565
0.000146207
0.000151226
0.000149143
0.000148214
0.000150781
0.000169104
0.000152219
0.000146907
0.000146935
0.000149601
0.000195701
0.000174758
0.000168904
0.0616845
0.000147038
0.000144193
0.000151282
0.00015061
0.000166292
0.000147432
0.000150084
0.000167994
0.000222123
0.0140892
0.000149113
0.000145988
0.000371527
0.0448574
0.000173778
0.0548021
0.000204899
0.00014772
0.000162213
0.0859188
0.000148059
0.0002478
0.000147037
0.0396102
0.000196212
0.000152917
0.000147094
0.000196812
0.0610051
0.00017269
0.000196996
0.000197799
0.000173838
0.000158799
0.000165016
0.000142836
0.0494826
0.070399
0.000160783
0.000146518
0.0602594
0.000198548
0.000172949
0.000167487
0.0608712
0.000149166
0.000146759
0.000148244
0.0388582
0.000183748
0.000352793
0.00015476
0.000186111
0.000148867
0.000148911
0.000151273
0.000144029
0.000429882
0.000154562
0.000147007
0.000178526
0.0588689
0.000149564
0.000159258
0.0290891
0.0766336
0.065993
0.0451627
0.057306
0.000210322
0.000146169
0.000182036
0.00391634
0.0613961
0.000144
0.000154415
0.000146766
0.000155658
0.00014729
0.000144158
0.000147885
0.000203398
0.000148035
0.0729703
0.0731978
0.000147642
0.000148698
0.000189287
0.00016427
0.000147071
8.80869e-05
0.000147618
0.000198218
0.000173692
0.000203687
0.000156467
0.00017382
0.000167164
0.00014693
0.000168079
0.000179637
0.0497887
0.000147062
0.0241935
0.000151282
0.000147665
0.00015462
0.00019351
0.00017673
0.0559429
0.000148825
0.000150614
0.00014818
0.000193927
0.000154915
0.000163985
0.000147463
0.00408321
0.000143511
0.000144477
0.0671948
0.0850883
0.00014804
0.0621897
0.0434762
0.0494721
0.0783607
0.0558553
0.0873107
0.000148229
0.000149444
0.000148152
0.000148011
0.0462964
0.000169148
0.000171911
0.0551245
0.00014868
0.000149645
0.00018627
0.0625687
0.000168715
0.00015028
0.000156349
0.000147384
0.000148604
0.000193191
0.000149736
0.000207664
0.000148354
0.000173702
0.000152196
0.0173948
0.000216461
0.000145501
0.000148063
0.000148158
0.000204437
0.000188448
0.00015056
0.000148112
0.000179101
0.00014844
0.000153315
0.000156552
0.000204217
0.000162139
0.000174278
0.000145556
0.000147731
0.000151318
0.000162185
0.000189514
0.000189336
0.000149724
0.000150504
0.000169309
0.0344967
0.0671115
0.000145056
0.000158354
0.000144942
0.0587491
0.000152977
0.000149928
0.000154283
0.000193163
0.0479749
0.00015594
0.000162289
0.000146134
0.0626301
0.00017493
0.000147261
0.000100259
0.000162361
0.00015957
0.00016574
0.000141225
0.000162159
0.000246866
0.00976602
0.000156197
0.000147052
0.000106167
0.000146988
0.000146173
0.000147353
0.000519746
0.000149963
0.000145618
0.000181374
0.000163153
0.000149011
0.000155977
0.000148233
0.000146916
0.0377212
0.000170595
0.00021242
0.000175377
0.000176055
0.0001482
0.0514653
0.000186369
0.000178712
0.0181284
0.000146884
0.00014873
0.000168967
0.000181856
0.000148086
0.0743696
0.00020982
0.000162549
0.0638394
0.0443877
0.000145518
0.000212852
0.000186452
0.0736473
0.000152776
0.000164747
0.000145989
0.000164313
0.000146661
0.00017819
0.000195709
0.000148061
0.000146161
0.000145462
0.000188887
0.000172996
0.000173104
0.0431287
0.0404244
0.000145424
0.0241229
0.000149208
0.000148667
0.000146646
0.000143658
0.000149371
0.000151706
0.000148154
0.000177714
0.000149034
0.000152181
0.0675351
0.000148072
0.000204667
0.0427971
0.000197001
0.0640328
0.0313613
0.000158635
0.000190185
0.000148235
0.000270176
0.000144984
0.000147551
0.000147629
0.000148131
0.0607333
0.000148911
0.000209161
0.000145623
0.000173611
0.00015068
0.000162551
0.000152912
0.000150093
0.000156017
0.000144462
0.000147754
0.0634829
0.000148868
0.000167533
0.000155914
0.000152095
0.000172886
0.000148627
0.00014996
0.000190832
0.0326799
0.0732926
0.0735617
0.073043
0.00018511
0.000147537
0.000148353
0.000173174
0.0286457
0.000179086
0.000509709
0.000147914
0.000147312
0.000175733
0.000146017
0.00612623
0.0336526
0.069022
0.000146636
0.000149638
0.000144795
0.000146471
0.0604682
0.000148276
0.000149697
0.000164199
0.057904
0.000150119
0.000147852
0.000147366
0.0673387
0.000149881
0.000155743
0.0649565
0.000478832
0.000189722
0.0509903
0.0197365
0.044171
0.000148161
0.0465314
0.000149327
0.000147863
0.000178817
0.065411
0.000203438
0.0691286
0.000145535
0.000147608
0.000147281
0.000180983
0.000475785
0.00016277
0.0349205
0.000157356
0.0762641
0.0761296
0.00014817
0.000195053
0.000155409
0.000155127
0.000166176
0.000145813
0.0326818
0.0406376
0.000149682
0.000148147
0.00012721
0.000150052
0.000150561
0.056821
0.00020234
0.000148472
0.000148155
0.000148815
0.000148146
0.0732709
0.000158075
0.000147687
0.000146147
0.0631391
0.000146824
0.000148774
0.0373669
0.000147348
0.000196168
0.000471943
0.000158145
0.000152766
0.000162494
0.0672837
0.000145047
0.000153281
0.0262697
0.000179016
0.000148708
0.00019689
0.000173819
0.000153018
0.0646033
0.000155112
0.0424958
0.000148076
0.000148153
0.000148988
0.000148104
0.000154328
0.000163859
0.000206104
0.000147201
0.000166581
0.000154196
0.000248888
0.000146974
0.000148862
0.000143545
0.0700183
0.0465032
0.000166044
0.00014649
0.000166493
0.000147481
0.000158401
0.000147748
0.0744713
0.00017833
0.00014672
0.0773024
0.0597812
0.000147227
0.000148524
0.0362689
0.000167056
0.00014619
0.0592223
0.072927
0.000146166
0.000147657
0.00051914
0.045589
0.000214518
0.000148169
0.000207805
0.0527143
0.000164997
0.000145579
0.000171917
0.000143558
0.0815207
0.000150524
0.00015619
0.0557362
0.0398988
0.000148865
0.000148637
0.0400103
0.0743389
0.000147443
0.000149659
0.000148831
0.00014822
0.000147452
0.000174649
0.0333444
0.000151888
0.000207953
0.000176589
0.000165063
0.00014953
0.000148636
0.000145053
0.068229
0.058716
0.0001698
0.000193971
0.000152441
0.0768577
0.000190914
0.000158246
0.000148563
0.000148702
0.000213358
0.0728126
0.000145928
0.000159422
0.00014488
0.000147371
0.0311258
0.000189602
0.000156398
0.000146886
0.00014667
0.0595973
0.000327641
0.000150689
0.000162925
0.000170682
0.0420803
0.000152891
0.000177936
0.0884705
0.00016674
0.000147731
0.000168751
0.000179118
0.000146878
0.000147844
0.0799303
0.000191544
0.0364516
0.000187106
0.000152518
0.0354306
0.000151688
0.000189503
0.000146017
0.000159303
0.000148131
0.000162375
0.000147829
0.068829
0.000146551
0.00014833
0.00292311
0.00017122
0.000207603
0.000148079
0.000147455
0.0712127
0.000206858
0.000186775
0.000154344
0.000209789
0.00021782
0.000209349
0.000170086
0.0415681
0.0371236
0.0702113
0.00014809
0.000145551
0.000147639
0.000172174
0.000202708
0.000147673
0.000156926
0.0414206
0.0489464
0.000149862
0.0389706
0.00015685
0.000178866
0.000168693
0.000148964
0.000146756
0.000177073
0.000156778
0.000201006
0.000152895
0.000148902
0.0506558
0.0679743
0.00014599
0.000178922
0.00014895
0.000148342
0.000155691
0.0300391
0.000165025
0.000147883
0.00015071
0.00102355
0.0645548
0.000169071
0.0812681
0.000165843
0.0626635
0.000149837
0.000148677
0.000147801
0.00014807
0.000204197
0.000181854
0.000148072
0.000166429
0.000156244
0.0045844
0.000204825
0.000147713
0.000148201
0.000150598
0.000158133
0.0458652
0.0426487
0.000156389
0.0586733
0.000193879
0.000147592
0.000167719
0.000146546
0.000147102
0.00015732
0.000150737
0.000156929
0.000166709
0.000145879
0.000147737
0.000151931
0.0843979
0.000148096
0.000150686
0.0817474
0.000210497
0.000181698
0.000147963
0.0757439
0.000148557
0.000229723
0.0692719
0.0783595
0.000155546
0.000161707
0.000151209
0.000151103
0.0202968
0.0599434
0.0399395
0.000158142
0.000145222
0.000171068
0.000150636
0.000148051
0.0476111
0.000162919
0.000164962
0.000146908
0.000154506
0.00015947
0.000248458
0.000147087
0.000168692
0.00973504
0.000148313
0.000151412
0.00017306
0.000151167
0.034476
0.000147566
0.000150131
0.000147376
0.000157328
0.00014525
0.000145138
0.070344
0.0493625
0.0641869
0.000168349
0.00021385
0.0885295
0.000154351
0.000176091
0.000148674
0.000147715
0.000164326
0.000161967
0.000200546
0.0770109
0.0650479
0.000151567
0.000147269
0.000174952
0.000147664
0.000159453
0.031212
0.0359393
0.0470842
0.0497591
0.000151485
0.078003
0.000181347
0.000146705
0.0251794
0.000168823
0.000154592
0.000148094
0.0817437
0.000148944
0.00017832
0.000180734
0.0541296
0.000149126
0.000180434
0.03773
0.000178882
0.000154228
0.0487432
0.00014706
0.000145128
0.000152655
0.000147695
0.0565701
0.0777392
0.00021256
0.000148891
0.0253357
0.000151045
0.000162589
0.000188442
0.00016121
0.000179585
0.000143926
0.000148738
0.0532369
0.000208316
0.020892
0.000146888
0.000152458
0.000166773
0.000147394
0.000144832
0.00015114
0.000149548
0.000146346
0.000213032
0.000161146
0.00015288
0.00015512
0.000175316
0.059065
0.0574078
0.000158223
0.00045719
0.000176943
0.000158031
0.000147678
0.000152804
0.0405402
0.00470234
0.0432961
0.000159122
0.000148631
0.000149938
0.000160074
0.000149834
0.000148099
0.0639697
0.000877427
0.000146236
0.0306945
0.0875265
0.000144179
0.000145125
0.000152642
0.000150381
0.000187322
0.00018103
0.000202863
0.000210089
0.000195794
0.0536626
0.000170619
0.000146841
0.000148893
0.0333882
0.000167235
0.000172238
0.000165933
0.0716491
0.000146881
0.000214365
0.000150593
0.000148033
0.000152339
0.000188937
0.000187122
0.000147737
0.000148076
0.0710955
0.000158992
0.000158366
0.0737497
0.0491016
0.000171896
0.000148079
0.000176468
0.000145115
0.000151613
0.00672816
0.0544461
0.000179071
0.000189546
0.000151932
0.000174294
0.000163905
0.000209639
0.0692998
0.000171265
0.00014521
0.0658651
0.000152708
0.000150567
0.000147884
0.000146499
0.0483977
0.000176502
0.00014598
0.000208
0.00021297
0.000171032
0.0450148
0.000195473
0.000147373
0.000159611
0.0365312
0.0327704
0.000173087
0.00017301
0.000151713
0.00795316
0.000147091
0.0325998
0.000146385
0.000147386
0.000217788
0.000168125
0.000151817
0.000147728
0.000147325
0.0373485
0.000186325
0.000147095
0.000148169
0.000187654
0.000150417
0.000410746
0.000146976
0.0468507
0.000194492
0.000151534
0.0570289
0.000147305
0.000158962
0.000148166
0.064454
0.000177436
0.00017254
0.00015037
0.000185526
0.000147115
0.0749612
0.000148284
0.000146892
0.000158386
0.00802103
0.060661
0.000164921
0.000168188
0.00014774
0.000158951
0.000157593
0.0391382
0.000149715
0.000145784
0.0418157
0.000174963
0.000150738
0.000146958
0.000242276
0.00015272
0.0155402
0.00018589
0.000145936
0.000150774
0.000137277
0.0655822
0.0344752
0.000186425
0.000147381
0.000148345
0.000154675
0.000184566
0.000148352
0.000175273
0.000161972
0.000197531
0.000172522
0.063147
0.000150429