/*--------------------------------*- C++ -*----------------------------------*\
| =========                 |                                                 |
| \\      /  F ield         | OpenFOAM: The Open Source CFD Toolbox           |
|  \\    /   O peration     | Version:  v2012                                 |
|   \\  /    A nd           | Website:  www.openfoam.com                      |
|    \\/     M anipulation  |                                                 |
\*---------------------------------------------------------------------------*/
FoamFile
{
    version     2.0;
    format      ascii;
    class       volScalarField;
    location    "400";
    object      omega;
}
// * * * * * * * * * * * * * * * * * * * * * * * * * * * * * * * * * * * * * //

dimensions      [0 0 -1 0 0 0 0];


internalField   nonuniform List<scalar> 
37190
(
0.0253525
4.23121
0.0248994
0.0677992
3.85208
0.0251291
0.0569322
0.0262775
0.0642634
0.196515
0.0253213
0.0247484
0.029477
0.0249865
4.65455
0.0252785
0.0266004
0.0849703
4.5502
0.870195
0.0268915
0.0253508
6.98618
0.0270005
0.0271429
0.0252809
0.0561267
0.0554758
1.6846
4.91858
5.55287
0.025124
0.0785961
0.206538
0.0971958
0.0561077
0.024743
0.027001
0.0264554
0.0252486
0.186673
4.7423
0.0269105
0.101663
0.0254026
0.179646
5.67325
0.636118
0.0248946
3.79795
0.025683
0.0252829
0.0338862
0.0431737
0.0255188
0.0254901
0.191002
0.0247467
3.56787
0.0248374
3.63013
0.0560896
0.0246095
4.53187
0.0268428
0.0270432
0.025029
0.141041
0.101181
0.024613
0.0255288
0.0254293
0.030373
0.0251569
0.0253039
0.0253428
4.83926
0.0459037
4.1189
0.0309964
0.0254419
0.0335422
0.0251556
0.199024
4.59573
0.0265595
3.79295
4.72502
4.66545
0.0251257
4.67315
0.0853353
0.0270674
0.0251486
0.0252785
0.0272153
4.19534
0.0252591
0.0651247
8.53249
0.0269851
0.138826
4.86397
8.69178
0.0254333
0.0255556
4.10711
0.0254905
0.0250313
5.03042
5.41412
4.55644
0.0267262
0.0247974
0.0253064
0.0253748
0.0461708
0.0264734
0.0252509
0.0261816
0.0252939
3.49476
0.0253888
0.025424
0.0253418
4.0177
0.0247997
0.0253325
0.290287
0.086357
0.0253274
4.19477
0.0288525
0.0272981
4.69995
0.0250874
0.0535708
0.143995
0.172271
0.0261636
0.0305311
0.0561341
0.0624531
0.0272809
0.0252808
0.0253356
5.57506
0.0263077
0.151203
0.0248666
0.025293
0.0365153
0.162672
0.0253867
3.62641
0.0249055
4.08006
0.0253227
4.18338
0.0517493
0.0705617
0.0253515
4.45641
3.65689
0.0364166
0.0260878
5.27176
0.112224
3.64316
0.173248
0.0250872
3.72775
0.0253534
0.0284534
3.42777
0.101007
0.0252368
0.0267918
0.0753377
0.0274443
0.0983981
0.0254494
0.0254431
0.0249951
4.83244
0.0255426
0.0771026
0.0356355
6.91375
0.215053
0.025497
0.084368
0.0248348
0.0258229
0.330917
0.0291712
0.0252293
0.0572612
7.84013
4.77398
0.306528
0.0249536
0.0252973
0.0255504
3.56362
0.0436975
0.0558898
0.0256471
0.0252909
3.75384
0.0253331
3.56795
0.0249568
0.0391234
4.26104
6.79824
0.152462
0.143359
0.20616
0.0254321
3.54613
0.0247477
0.0253373
0.0669925
4.52991
0.0253555
4.18428
0.0252731
0.0400188
4.71354
0.0268296
0.0253262
0.0248394
3.77486
0.0393588
0.0856309
0.230368
4.43103
0.0246264
0.0253123
0.0748757
0.0255435
3.52956
0.0252819
0.0252354
4.7185
0.0252759
3.8717
0.0808103
0.092012
0.0251458
0.0587772
0.0253262
0.0333067
0.0299841
0.0254039
0.0843284
0.025521
0.0519766
0.0252745
3.82146
0.0315895
0.0248606
5.60659
0.0263645
0.0250272
0.0252677
0.026874
4.60599
0.0247562
7.96069
5.17624
0.206614
0.0431608
4.32053
0.0249136
0.0250718
4.09274
0.0359353
0.0305351
1.7591
0.0254277
0.133402
0.186503
0.0262726
0.0300232
0.0251369
0.0254244
0.0543636
0.0254086
0.0252115
0.0964561
0.0646975
0.0524684
4.30306
0.0253488
0.0251428
4.7623
0.0438068
0.0247592
4.17331
1.01446
0.0267801
0.146512
0.0250234
0.0248111
0.0250258
0.0255298
1.10852
0.0281901
0.0256505
4.7089
0.039009
0.140035
4.75939
15.1576
0.0338075
0.364937
0.0527072
0.0248083
0.0253529
0.0388738
0.197239
0.0252185
5.87665
0.150453
0.0709143
8.01069
0.025246
7.21703
0.0423702
0.0433252
0.0251908
4.92297
0.158905
3.96343
0.540403
0.0725247
0.025981
4.58879
0.0260114
0.14588
0.025304
0.0254673
4.12463
0.281856
0.173423
0.0256509
0.0252518
0.0248361
0.025491
5.98489
0.0251619
0.0248984
0.0321945
3.59779
0.0250117
4.4855
0.0763121
0.0261511
0.045425
4.18125
0.0644374
4.19223
0.0309838
0.0894124
0.0253306
0.0249912
0.0906371
0.0398937
0.0259717
0.0633933
0.0309454
0.800906
0.0263518
0.0745032
0.0953057
0.219264
0.0961374
4.27723
11.054
0.201146
4.2925
0.0448791
0.0532519
4.42369
0.0572143
0.0389893
0.0833474
0.0391965
0.0251977
0.117137
0.0318516
0.0253147
0.0270964
0.0250273
1.44594
0.0296645
0.0256695
0.141331
0.0249928
4.75886
0.0269282
0.0252962
0.0271122
0.0252509
0.0252061
3.84215
0.0259458
0.0249954
0.025316
0.935355
13.3415
0.0251151
0.0251848
0.0252053
0.0444802
0.0253474
0.0247717
0.0251957
4.86328
0.2088
4.44923
0.0252801
0.0247688
0.134033
4.74708
0.0256748
0.0264814
0.0251629
0.468837
0.0250056
0.0269677
0.0685461
0.02552
7.84011
0.0254366
0.136766
0.0255136
0.0251495
0.025799
0.0249961
4.7585
0.0266744
0.0252172
3.58068
4.24543
0.0249793
5.97583
0.0254786
0.0424629
0.148161
0.0253776
3.77597
0.0252719
11.8211
0.0248382
0.0255734
0.0293726
0.0248433
4.39937
0.0383601
0.0249125
3.35103
0.141042
0.0252456
0.163619
2.82076
0.025405
0.0250368
0.0434959
4.82395
8.40328
0.193437
4.57777
5.96099
0.0439122
4.96808
0.0256438
0.0251255
0.0248492
0.0255056
3.76402
2.83547
0.0250362
0.0359131
5.07124
0.0253373
4.40394
0.0440719
0.0261611
0.0318878
0.0251482
0.165482
0.100599
0.0433656
0.0252141
0.0250503
0.168551
4.58975
0.0269025
0.0255998
0.0255504
4.81638
0.0457436
4.37592
3.17396
0.451888
5.64647
0.0255156
3.60986
0.0256046
5.22721
0.0248943
0.203645
6.28464
0.0380089
0.0249002
0.0249969
11.5242
0.0285311
0.0872288
1.70711
3.88236
0.0252281
0.0315282
0.0427162
0.0266875
0.214019
0.0256719
0.0682277
0.0248938
4.55676
0.025291
0.0254131
8.77487
0.0251327
0.0254373
0.0252296
0.0277545
0.0256778
0.0256728
0.0758598
0.027377
3.37659
0.0253845
0.0270247
0.0488226
0.0443747
0.0250889
0.025212
0.0273941
0.0341649
3.87387
0.0928016
0.0253347
0.0267101
0.433381
4.79408
0.0252504
0.024786
5.77366
3.89615
12.2604
3.84743
0.0254893
0.0427981
0.0253662
3.40964
2.70897
0.0290295
0.0268532
0.693814
0.0894077
0.0250815
0.151023
3.90316
4.5399
0.0252034
0.0495819
0.0465699
0.0253683
0.0264838
0.0252903
4.94342
4.77891
0.0250282
5.99924
4.49772
0.0256309
0.0622621
0.0253049
0.0873686
0.0339677
0.025406
1.17522
4.42551
0.0350072
4.45271
0.0253048
0.0258963
0.0288867
0.0314611
0.0287309
0.0727969
0.0252549
0.0433687
0.0255574
3.85047
0.0583329
0.0252151
0.177234
0.024868
4.50628
4.37215
0.0253122
4.17328
0.0247842
0.0253105
0.027268
0.0253072
0.0836097
0.031534
0.0252138
0.0515445
0.0251562
0.059966
4.44107
0.0252708
0.0252689
4.58172
0.0256563
0.0247819
0.138024
0.0457613
0.0356945
0.0942008
0.0266609
0.0251509
0.026874
2.32988
3.70829
0.148329
3.62159
0.024621
0.178657
0.0255942
0.0269625
5.64297
0.155417
0.0693974
0.0252719
0.158659
0.027294
2.86157
0.110438
0.0369856
4.28586
0.0255196
4.34382
0.166571
0.026835
0.0316605
0.0519958
0.0545421
0.0317205
0.0246242
0.0811242
0.0252571
0.0927824
0.0583301
0.0251598
0.0923692
4.33115
0.025472
0.0253792
8.01907
0.0253302
0.0250868
0.0951472
5.17128
3.38417
0.0339807
0.0247339
3.61005
0.0843837
3.32878
0.0268099
0.0351117
0.070983
0.0266657
0.178906
0.0253311
4.65218
0.0252835
1.28391
0.0256311
0.0380418
0.157776
0.0247284
0.15076
0.0247368
0.0252256
1.61485
0.0253358
4.35484
0.0253871
4.98054
0.0251598
0.0253915
0.193685
0.0249779
4.57862
0.025087
0.034191
0.0254188
0.0256691
0.152102
0.116764
4.06991
4.85111
4.2817
2.29754
0.0850359
0.0251491
0.0256071
5.06134
4.46753
0.0252693
4.82046
3.66019
0.0771315
0.036607
0.0347567
5.04953
0.0250672
0.0871907
3.68223
0.0695697
0.674581
5.03851
0.0269819
0.0279218
0.0248302
4.85299
4.2088
0.0247873
0.190184
7.60713
0.0319188
4.33537
0.056898
4.53274
0.0253025
0.0950311
0.190943
0.190332
0.0318475
0.0252279
4.11332
0.10023
0.0388523
0.025471
0.0724092
0.0247382
0.230118
0.0268943
0.0258822
0.0265807
0.0253851
0.0270446
0.0600429
0.0438223
0.0269153
0.109362
0.0272856
7.25029
22.8777
0.0249118
0.0268703
0.0253875
0.0254284
4.76529
5.37572
0.0619437
0.0253245
0.0267282
0.0252205
0.0261922
3.91848
0.0253813
0.0306751
0.0456479
0.0253381
0.0251218
0.0250326
0.0256231
0.0453917
0.0253809
0.0335862
0.0343753
0.0256699
0.025229
6.09301
5.56313
0.0255299
0.024715
0.0249079
0.0349669
0.0343286
6.38321
0.075823
0.0268596
0.0253502
0.0736322
5.31388
0.0262503
0.0254843
0.0249223
0.0253989
0.0454412
0.0255639
0.0253555
0.0991226
0.0251418
3.80315
4.3247
0.0267813
0.0287051
0.0343512
2.17249
0.0448005
0.41012
0.0721737
4.43949
0.0266953
0.0253493
0.0376509
4.38996
0.0511374
0.025354
0.449751
0.0250215
0.0249275
0.0570539
4.48239
0.0457761
0.0739778
0.0253232
0.0569954
0.0596642
4.4391
0.025032
0.0943919
0.0288411
2.18896
0.0269965
0.0252253
4.99334
0.0255385
3.93704
5.18968
0.025389
0.0256433
23.0202
0.0251429
0.0250404
3.75319
0.0249419
3.66229
0.0253391
4.99762
0.0525221
0.161932
4.86584
0.0255648
0.0254233
0.0255745
0.0251951
0.0250115
0.0358862
0.0254005
0.0253142
0.0385548
5.65186
0.0253164
0.0252761
0.031161
0.0253919
0.0256526
0.0252671
4.20578
0.0254467
0.0250476
0.0674878
0.0253336
0.0250892
4.20792
0.0596238
0.0267389
0.0610039
0.0250436
0.0374899
0.0286807
0.0252841
0.070388
5.73356
0.0503243
0.0853406
0.0325989
0.0248875
4.27526
0.024944
4.59379
0.0252215
0.0308495
0.0253078
0.0254406
0.0948061
0.055269
0.0254391
0.0250933
0.106242
4.65961
0.0302131
0.0268819
0.0252784
0.497959
0.0248496
7.36515
0.0251498
0.0264967
0.0256235
0.0918404
0.0250932
5.79506
0.0256074
0.0273694
0.0269178
0.025235
0.19585
0.88469
0.025699
0.0306509
0.0287026
2.67894
0.0253149
6.73558
4.16084
0.0808291
0.0253437
0.0261396
0.0251603
5.77435
0.0258599
0.0253887
0.025195
0.043395
4.26564
0.0256618
0.0254048
0.0264065
0.0303774
4.39089
6.55113
0.0281213
3.89906
0.0316693
0.0253817
0.10718
0.0263599
4.28313
0.0255829
0.479394
0.0269325
0.0257221
7.32661
0.0249155
0.0745729
0.0619193
7.34697
0.0253707
0.177781
0.0275259
4.45841
0.457388
0.0250725
0.0255579
0.0391548
4.0391
0.0850997
0.0753576
0.0257725
5.65231
0.0248515
0.110079
0.0254958
0.0275707
0.0262985
0.0916331
0.0262472
0.099585
3.67994
0.0251617
0.0251505
0.0249952
5.35743
0.025672
0.0278981
0.0566806
0.16634
0.0359491
11.163
0.027469
5.41993
0.025599
0.024855
0.039348
0.0253378
10.5086
0.0251577
0.0295339
0.0253119
1.78475
5.94847
0.025461
0.0495533
0.0475859
0.0589362
0.0251204
0.482348
0.0254406
0.0248662
3.4069
3.47215
0.0597765
0.0256393
0.0868913
0.0308579
0.0255699
0.0270533
0.0275932
0.0590367
4.84996
0.0252546
0.0253529
0.0253643
0.088641
0.036356
3.80971
4.82561
5.07482
0.0605092
0.0248994
4.53278
0.0481784
0.0256076
0.0253021
0.052876
0.0253892
0.0494519
0.0254817
0.616418
0.0287786
0.0261779
0.0271304
3.4368
4.42518
0.630873
3.38851
4.8061
0.0253955
4.99604
0.0257222
4.11882
0.025722
0.0685988
3.52115
11.9385
5.88404
0.0251651
0.0254987
3.58067
5.38476
0.0256558
0.028077
0.0393727
0.0261662
0.0277814
0.377533
4.16202
0.0688728
0.0250793
0.0252622
0.027723
0.895269
0.0253977
3.64301
0.0289416
0.0630575
0.110209
0.0251211
4.84346
5.74552
0.0247473
0.0253018
0.025488
0.0251986
8.36788
0.0252556
0.0248484
3.69565
0.0253115
0.0335396
0.0252825
8.1436
0.0283037
0.0355774
5.42275
0.0253521
0.025239
3.71312
0.0350659
0.0252637
0.0251768
0.125251
3.99305
0.0256613
0.0248814
0.0251556
0.0469048
10.3357
0.0254362
4.91335
0.0356533
0.0264821
1.04393
0.0280459
0.0473104
0.0257192
0.181664
0.0487555
5.00621
0.0247476
0.0259245
0.0255735
0.0251405
0.0269245
0.025045
0.0307838
0.0873033
0.218857
0.025128
3.1778
0.0255911
0.190065
0.0254977
4.0717
3.96733
0.0374906
0.0250903
0.0252679
0.0252257
0.0248828
0.0279772
0.0254009
4.21218
0.904492
4.0641
0.0762461
0.337282
0.0856411
0.0253776
6.73682
0.162384
0.0253811
0.192879
0.0327604
3.79196
0.0262918
0.0269364
4.74887
0.0263077
0.0252516
0.0342169
0.0254668
0.0253936
5.78751
0.0480128
0.0252508
0.0253532
0.025137
3.80714
0.0254908
0.0253197
0.0253658
0.024633
0.107287
0.0249511
0.0250414
3.54577
0.025302
0.0253612
7.75178
11.6416
5.50459
4.7421
0.0314587
4.50014
0.101663
0.0465608
5.32389
0.117156
0.0395691
0.025516
0.0256659
0.0395622
52.4695
4.21562
0.026224
0.0254818
0.0253209
0.0251838
0.198052
0.152105
0.0253269
0.0255736
0.0764756
0.024831
0.212793
0.0252108
4.48976
0.107722
0.0248912
0.0396053
0.0270009
0.0326269
0.0321633
0.0310198
0.0513331
5.43438
0.207418
0.0252091
0.0255268
0.533408
0.0267027
4.93688
0.0252
0.0256495
0.0253881
0.189932
0.0250753
0.0423427
3.7273
0.0256704
0.0696287
4.72147
0.501331
0.0253753
0.0247561
0.0281359
0.025263
0.0251414
4.77773
2.63267
0.0261667
4.40578
0.413773
0.112623
0.198932
0.0262173
0.0252536
0.332171
0.0901176
0.130964
0.0860409
0.0253791
0.0250449
0.301102
0.0248791
0.0252498
0.1011
0.0253035
7.42353
0.0782051
0.0281442
4.81059
0.0300102
0.0248821
0.165833
0.0293786
0.0820551
0.0253612
0.025443
0.0674242
0.025214
0.511324
0.025038
0.0251874
0.0252948
0.0254472
0.0250231
0.0252986
0.0248901
0.209171
4.19809
0.0252044
0.0834349
0.0319982
0.0351579
5.64497
0.0256957
0.0262255
3.98142
0.0511738
0.0899537
0.0298703
0.0252529
0.0265809
3.82914
9.88569
0.0248419
0.0746751
0.0247179
0.0966493
5.12399
3.69947
0.126551
0.0252929
0.0270505
0.031411
4.7742
0.0291721
0.025391
0.0757066
0.0950666
4.40938
0.0252948
0.0277413
0.080322
0.0253938
0.54346
4.29206
0.0252268
0.0274721
0.0299906
0.0247711
7.08239
0.0256301
0.0253217
0.0256732
13.5829
4.64601
0.025349
0.231938
0.0254571
1.10012
0.027519
4.57793
0.0253672
4.07165
0.026218
0.025143
0.0254291
0.200587
0.29633
0.0390701
0.795994
0.0246232
4.09316
4.61125
4.79107
0.131499
0.030834
0.0246306
0.0257909
3.40933
0.119198
0.0253384
0.182184
0.0250169
0.0252001
0.0827431
0.0261946
0.0249672
0.0262285
0.0251547
0.348604
0.0253679
4.70069
0.211377
4.83009
0.0251554
0.203468
5.59609
0.0262549
10.513
0.0254713
0.0258064
4.57333
0.0256456
0.0250342
0.0371022
0.0269289
0.0252545
0.0271411
4.91329
0.0256787
4.87967
0.0298077
0.0250166
0.0287512
1.69077
0.0248999
4.71976
0.0271822
0.0686517
0.0265809
0.0251479
0.0256965
0.562723
8.4332
0.0723272
0.0247137
0.0577566
5.53347
0.0253815
0.138858
0.0484774
0.0252005
5.82769
0.0404781
0.0253985
4.11037
11.7368
0.0265995
0.078828
4.22051
0.166831
0.0251638
0.0253425
0.0258973
0.0291358
0.0293302
0.155144
0.025621
0.0253503
0.025118
0.0252702
0.025274
0.0609348
0.0256751
4.26839
4.97823
3.96762
0.142808
4.26653
0.027205
0.151179
0.025287
0.0250001
0.0251343
5.01345
0.0252057
0.177761
0.0507879
0.04273
0.0274932
0.109767
3.39073
0.0273907
0.0255114
0.0247216
0.0252362
0.0600003
0.0253968
0.0252682
2.45993
0.0252909
4.3448
0.0250645
0.0257931
0.0714161
8.62356
0.0255421
0.0851963
1.58796
0.0433313
0.238627
0.0987475
0.0256475
0.0254841
0.028646
0.0758255
4.35154
0.0255678
0.0261641
0.0253209
0.0255577
0.0262962
5.12319
0.0253217
4.263
7.80018
0.0709642
0.0343945
0.0347427
0.176292
0.0947813
0.0252284
0.0258989
0.238264
0.0253598
0.0253995
0.0585246
0.0317361
0.227679
0.0254915
0.0251369
0.0439308
0.0258395
0.0253712
4.92175
4.14084
0.169062
0.0253262
0.0251996
0.0250593
0.0253216
4.40775
0.0252913
0.0251412
4.20381
0.025085
0.251884
0.304947
4.17527
11.7712
0.195772
3.94351
0.167689
0.223242
4.1867
0.02463
4.1881
0.423144
0.0252867
0.0351245
5.39883
0.0254383
0.0252674
0.0253286
0.0251366
0.0248443
0.23791
0.149488
0.02969
0.158521
4.25679
0.0251483
4.78793
4.80967
0.0436947
0.0258566
0.0253287
0.0290485
0.0268216
0.0292565
0.0314257
0.0589818
0.356013
0.479471
0.0250111
4.39883
0.029778
0.160966
0.025364
0.0252603
0.0256769
0.154152
0.0496406
0.0252777
5.3515
0.0253577
11.3942
0.109842
0.0421775
0.952444
0.0264682
0.0761436
0.0252707
0.0280312
0.0251756
0.0254954
0.0674096
0.0357767
0.0282974
0.447945
0.0252256
0.0252046
0.0253734
0.0255029
0.0254929
0.0260359
0.0267471
3.99085
0.0269521
0.0250226
0.0254267
0.0391679
2.74156
0.740301
3.69081
0.0559335
0.026198
0.0247138
0.0304092
0.025218
0.0247565
0.0254592
0.0294115
6.50504
0.356568
0.0511652
0.0336486
3.22795
3.13072
0.0256715
0.0250376
0.626282
0.0254862
0.0252753
0.0583995
0.0472272
0.0851538
0.0256477
0.0250641
0.0260141
0.0255419
0.02541
0.0259309
0.0686922
0.0262169
0.0251849
0.0251596
0.0256367
0.146723
0.0678105
0.0865986
4.28067
0.0251023
0.0246925
0.0254203
0.0258589
0.0658215
0.0252756
0.0255243
0.0785286
0.671683
3.8742
0.0255582
0.0249983
1.12482
4.08904
0.133779
5.36098
0.168665
0.0252683
0.0405078
8.51545
0.0253806
0.448969
0.0251005
4.15196
0.106469
0.027083
0.0252162
0.254415
6.06161
0.0618451
0.109777
0.155325
0.0562435
0.0305823
0.035053
0.844421
12.5197
4.99186
0.0328456
0.0251339
4.16969
0.162636
0.0480153
0.0567703
12.3671
0.0255536
0.0250594
0.0252904
4.27691
0.0851775
1.4631
0.0293234
0.0807686
0.0255181
0.0254721
0.0258239
0.024705
3.3203
0.0291323
0.0250178
0.074926
4.84517
0.0256792
0.0378097
6.06868
6.34229
5.03798
3.41504
4.0925
0.170754
0.0250573
0.0851189
7.54841
22.4097
0.0247002
0.0287716
0.0250446
0.028887
0.0252601
0.0246908
0.025354
0.541504
0.0253765
4.72474
6.34638
0.0251355
0.025109
0.100618
0.0352995
0.02491
0.673393
0.0252235
0.158599
0.0648918
0.159595
0.0297814
0.0765808
0.0520676
0.0248965
0.0386908
0.092485
4.02679
0.025219
52.4147
0.0266324
0.0251367
0.0272484
0.134778
0.152122
3.90617
0.0255111
0.0261734
0.0252994
0.106348
0.0292038
0.0403924
0.0250138
3.36189
0.0246224
0.02474
4.63126
8.27418
0.0252805
17.8042
3.35299
3.6294
5.60456
3.90296
6.38139
0.0254148
0.0256369
0.0254067
0.0250911
4.12289
0.0560394
0.0642161
5.71894
0.0251096
0.0257017
0.205339
6.11657
0.039416
0.0256022
0.0286193
0.025078
0.0253647
0.101295
0.0256575
0.6296
0.0253109
0.0552329
0.0269725
10.5876
0.198012
0.0248562
0.025326
0.0252953
0.204528
0.0803088
0.0261445
0.0253162
0.055312
0.0254495
0.0282666
0.0298475
0.203674
0.0455933
0.0662511
0.0248662
0.0252981
0.0265116
0.0469907
0.0827484
0.0854123
0.0257694
0.0255967
0.0401699
3.38697
4.62969
0.024883
0.0310219
0.0248612
5.27305
0.0273245
0.0258509
0.0287122
0.101467
4.02825
0.0313707
0.0407077
0.0250432
14.4213
0.0480424
0.0252407
1.1515
0.0334104
0.038778
0.0643586
1.1162
0.0469958
0.468767
4.42694
0.0319507
0.0250401
0.463202
0.0251979
0.0250329
0.0252424
1.57904
0.0258761
0.0248697
0.0609508
0.0357991
0.0254995
0.0291649
0.0253231
0.0251547
3.50274
0.071658
0.324757
0.0557383
0.163549
0.0253976
11.3918
0.0924657
0.0608218
4.69814
0.0251334
0.0253931
0.055417
0.0850017
0.0252855
5.3758
0.169041
0.0367031
4.25011
3.3849
0.0248345
0.181814
0.206241
4.77906
0.0264594
0.0585349
0.0250129
0.055065
0.0251581
0.189197
0.17916
0.0253913
0.0250487
0.0249112
0.0835705
0.0457697
0.124513
3.73338
3.68856
0.0248446
4.77538
0.025565
0.0254881
0.0251554
0.345101
0.0256107
0.0268083
0.0253348
0.0593391
0.0255063
0.0266063
5.04241
0.0253644
0.143921
4.18864
0.349016
4.22803
4.60802
0.0343765
0.0841909
0.0253229
1.14147
0.0248683
0.0252849
0.025283
0.0253177
4.37881
0.0253283
0.163501
0.02495
0.0467904
0.0262253
0.0447048
0.0272835
0.0255731
0.0316813
0.0247411
0.0251955
4.96666
0.0254062
0.0618061
0.028358
0.0271898
0.0995932
0.0254785
0.0258747
0.0871307
4.10058
5.25485
4.8309
6.93651
0.0779627
0.0251295
0.0252298
0.0539524
4.73763
0.0622329
3.97056
0.0251862
0.025264
0.15938
0.0250201
3.78776
4.38587
5.98462
0.025149
0.0256425
0.0248189
0.025121
4.1707
0.0252942
0.0256513
0.0424888
5.21125
0.0255765
0.0252061
0.0250864
10.9131
0.0258403
0.0294842
4.31226
1.63528
0.0833216
3.68958
6.4053
4.20502
0.0253113
10.533
0.0253753
0.0253501
0.0547966
4.34991
0.137922
4.47962
0.0248694
0.0252525
0.0252446
0.0599512
1.41326
0.0456559
4.43023
0.0288137
4.96659
6.59687
0.0253966
0.104059
0.0303694
0.0278288
0.0415549
0.0249921
4.1226
4.40501
0.0256493
0.0253098
0.631348
0.0259174
0.025884
3.93828
0.151041
0.0254544
0.0253042
0.0254505
0.0253984
5.46477
0.0302309
0.0252706
0.0250554
4.2433
0.0250743
0.0255034
4.20462
0.0252406
0.180888
2.47608
0.0327191
0.0263643
0.0327126
16.544
0.0248806
0.0272715
4.193
0.0580164
0.0254922
0.109035
0.0469034
0.36419
4.24923
0.028504
14.5287
0.0253511
0.0252715
0.0255382
0.0253412
0.029404
0.0529289
0.15243
0.0252495
0.0621135
0.0292672
0.336244
0.766292
0.0255179
0.0246217
4.55592
5.18351
0.0430678
0.0251241
0.0420897
0.0252844
0.0360674
0.0252339
4.99793
0.0559635
0.0251629
12.5071
4.53997
0.025199
0.0254629
4.25204
0.0636743
0.025056
4.08028
4.71462
0.0250513
0.0252925
5.16179
3.4354
0.191318
0.0252716
0.160373
5.31575
0.036649
0.0248345
0.0445538
0.0246348
5.73909
0.0261613
0.0317302
3.89725
7.01989
0.0255171
0.0254798
4.43986
4.81699
0.0251216
0.0257341
0.0254541
0.0254133
0.0250157
0.133297
3.45057
0.0269853
0.157867
0.342731
0.0366521
0.0256247
0.0254797
0.0248732
4.49247
4.86061
0.0732001
0.13796
0.0271522
5.00461
0.135025
0.0351763
0.0254674
0.0254913
0.215579
5.81702
0.0250178
0.0383478
0.0248325
0.0252526
4.27529
0.133234
0.032119
0.0250543
0.0251008
4.87397
1.37569
0.0262157
0.0339111
0.0722614
4.14741
0.0264112
0.0733652
7.57349
0.0626679
0.0253208
0.0461642
0.0580827
0.0251878
0.0253276
5.63058
0.0888882
3.55807
0.0782596
0.0270328
5.35265
0.0267153
0.0921585
0.0250344
0.0354702
0.02511
0.0406797
0.0252048
5.48973
0.0251057
0.025346
4.41486
0.0457645
0.157745
0.0253629
0.0251275
4.73332
0.182378
0.0806451
0.0293341
0.576483
0.265723
0.194002
0.0580477
3.77951
4.25123
6.30328
0.025397
0.0248723
0.0253007
0.116298
0.157663
0.0253261
0.0328709
4.26901
5.44647
0.0256781
3.75136
0.0288579
0.0570141
0.0460754
0.0255342
0.0251692
0.105065
0.0322349
0.159139
0.0279282
0.0255238
8.91568
4.99471
0.025027
0.0570223
0.0255315
0.0254292
0.029455
5.91915
0.0515639
0.0253539
0.0262421
1.77216
4.25206
0.0821906
5.8192
0.042719
4.74663
0.0258118
0.025487
0.0253389
0.0253625
0.334486
0.0861227
0.025354
0.0669109
0.0297089
3.48665
0.334897
0.0253288
0.0254027
0.025894
0.0299929
4.09104
3.97525
0.032115
6.35565
0.108722
0.0252251
0.0748932
0.0251069
0.0252069
0.0327318
0.0261686
0.0289507
0.0519659
0.0249553
0.025286
0.0270591
6.89229
0.025163
0.0260784
5.76352
0.196121
0.176213
0.025292
6.98039
0.0254681
0.322759
4.58772
11.9191
0.0283995
0.0364142
0.0257367
0.0263372
4.90841
5.8116
4.23276
0.030375
0.0248755
0.0447829
0.0256398
0.0251648
4.07094
0.0331209
0.0608387
0.0250109
0.0288627
0.0340981
0.32711
0.0252044
0.0563881
3.94865
0.0253437
0.0265596
0.048701
0.0265523
3.37232
0.0250237
0.0258552
0.0252787
0.0295149
0.0249155
0.0248574
5.16262
4.13523
4.28555
0.0785804
0.186966
7.47507
0.0291303
0.119418
0.0254865
0.0253232
0.0352978
0.0396239
0.190606
5.31265
10.8871
0.026212
0.0252056
0.0547145
0.0252552
0.0371011
4.11239
3.76243
4.10059
11.4819
0.0266601
5.42677
0.0609711
0.0251088
4.46933
0.0854208
0.0296294
0.0253932
5.6784
0.0255328
0.187249
0.0878856
5.31342
0.0254575
0.08713
3.4886
0.0630967
0.0269809
4.00643
0.0251372
0.0248939
0.0270505
0.0253299
4.87632
5.71802
0.182125
0.025325
6.59166
0.0263043
0.0490749
0.577435
0.0408331
0.0579479
0.0246889
0.0254965
5.63675
0.194503
4.66038
0.0248777
0.0275058
0.055287
0.0252715
0.024786
0.0263969
0.0254265
0.0250479
0.182371
0.042551
0.0256298
0.0281107
0.116913
5.29276
3.9835
0.0300644
2.4061
0.0598593
0.0325804
0.0253275
0.0273991
3.6718
3.21944
3.71743
0.0364488
0.0254792
0.025481
0.0376459
0.0256733
0.0252952
4.23102
2.77931
0.0250515
4.066
7.83763
0.0247034
0.0248817
0.0270421
0.0256064
0.42111
0.0736869
0.153719
0.167568
0.114047
10.1599
0.0693254
0.025182
0.0255216
3.43014
0.0646533
0.115084
0.0567804
4.66873
0.0251519
0.188325
0.0256656
0.025367
0.0271437
0.0820571
0.0744965
0.0253331
0.0253675
4.74343
0.0304848
0.0302634
6.54168
3.67525
0.0749908
0.0252833
0.0756975
0.0248916
0.0262278
3.68482
5.17772
0.0678073
0.0839445
0.0269965
0.0532848
0.0437335
0.170106
4.47592
0.0444046
0.024869
5.16225
0.0271596
0.0260798
0.0253543
0.0250956
4.05416
0.0647006
0.0250165
0.184344
0.203087
0.087198
4.16777
0.11281
0.0252694
0.0369785
3.53837
4.05885
0.0461609
0.0543072
0.0262157
3.87951
0.0252149
4.28957
0.0250149
0.0252483
0.266603
0.0427688
0.0261643
0.0253374
0.0252715
4.15687
0.0944271
0.0250936
0.0253925
0.0777347
0.026104
1.58535
0.0251069
4.05112
0.104779
0.0254577
4.69057
0.0252676
0.0304649
0.0253921
4.31686
0.161355
0.0478929
0.0255569
0.203116
0.024952
5.06088
0.0250746
0.0251584
0.0302997
4.80302
4.72135
0.0513991
0.0781816
0.025323
0.0370781
0.0297305
3.72895
0.0257626
0.0249928
3.75782
0.115092
0.026093
0.0251605
1.31376
0.0273554
4.82014
0.0773558
0.0250164
0.0260984
0.413988
4.64875
4.30509
0.0943538
0.0250988
0.0253478
0.0271501
0.076238
0.0253439
0.0483646
0.0322829
0.111773
0.0471293
4.32917
0.0256495
12.3243
0.0258559
4.16007
0.0298317
0.646599
0.0252431
0.15658
0.0248474
0.603503
0.0251051
0.527185
4.26027
0.0608676
0.0255295
0.0257705
0.168014
0.0250978
4.81033
0.0255481
0.364866
0.0263203
6.31382
0.0251027
0.0249961
0.0273365
0.0250054
0.0248463
0.0696374
0.076934
4.62459
0.0525873
2.32632
0.0254342
4.88917
0.0254755
0.0250775
3.7664
0.0256555
0.0253638
0.0254107
0.0252729
10.027
13.2349
0.0315133
0.419694
0.0253122
0.0294269
0.0456339
6.59205
0.0253146
0.0251553
0.0268745
0.0254949
0.0255298
14.9564
0.632151
0.493852
0.0302461
0.0251997
0.0249547
0.0534756
0.03006
8.32667
5.96837
0.0252851
0.0266782
0.0253288
0.024755
0.025726
4.15248
3.93937
0.0251277
0.0284924
0.194502
0.0490314
0.0265438
0.0383322
3.89017
4.31931
0.0560682
0.0308521
0.0465676
0.0247891
0.0557257
0.024957
0.0256794
2.14118
0.0266691
0.1512
4.59204
0.0251963
0.0250319
0.0251957
0.451424
0.162875
0.0258884
0.0256735
0.0251586
0.0360294
0.0866892
0.100048
0.0266336
0.0252609
0.0252099
0.0609062
0.16171
0.0612108
0.135883
0.107743
1.16476
0.0249937
0.0254546
0.154349
0.0316364
0.506344
0.0253507
0.0261032
0.156687
0.0257453
6.04099
0.0249879
4.95132
5.94916
6.6811
0.106607
0.148282
0.0299273
0.0257688
0.0248047
4.45601
0.025664
0.026883
0.0547633
0.0276942
2.60375
0.0279552
0.19427
0.361886
0.0290188
0.0254955
8.84943
0.10942
0.17955
0.0256438
4.85363
4.21799
0.0247538
0.0253819
4.61439
0.0250489
6.02026
0.0808555
0.0305919
0.169232
0.0250493
4.30292
29.1238
4.93844
0.0568577
4.32221
0.0253919
0.389594
4.33584
0.0252919
0.417176
5.33952
0.0246853
0.0298918
0.0396129
0.0253372
0.0773219
0.0380856
0.0253351
0.0253115
0.476438
4.14218
6.43907
0.0254913
0.0253059
4.40695
0.596616
0.0253932
0.0298207
6.25317
0.0670759
0.0365302
0.0824864
0.0254858
0.112434
0.027386
0.0254319
3.60763
0.0347634
7.11103
0.025478
0.0254722
0.0254616
0.0253498
0.0255223
0.150659
0.09075
0.025273
0.0330935
0.0818139
0.0279087
9.8335
0.0509316
0.0255181
0.0271865
0.108442
3.36413
0.0254625
0.025473
0.0252319
0.0783825
0.0254771
0.0294546
0.533894
0.196045
0.0699174
0.0251362
0.147549
4.9207
0.0249989
5.55805
4.19226
0.0478022
4.17622
0.151762
0.0270722
0.0260916
0.0254261
4.18947
0.0250504
0.032686
0.0251788
12.1448
0.170277
0.0508116
0.0499699
7.56491
0.0288013
0.0250289
0.0257916
0.0533574
0.0698833
0.0250056
0.0255843
0.025414
3.99653
0.0287233
4.10511
0.109587
0.0562457
0.0255525
0.0394115
8.6623
0.153611
0.0444156
0.0252384
4.83822
0.0250949
0.0569451
5.22414
0.0353196
0.0251072
0.0254475
0.0248535
3.84625
0.0289017
0.0761885
0.0482848
0.0604125
0.231821
0.0254745
0.0246825
0.0577185
4.18879
0.0257978
4.83037
0.0250351
0.025489
6.27746
0.385674
0.0808014
4.94839
0.0573695
4.42203
0.0484179
0.0255534
8.18476
0.0251342
0.0325131
0.0255807
9.75098
0.133395
5.62681
0.0253535
3.95645
0.0312871
0.0254664
4.26513
0.0340196
3.71216
0.0278061
0.0251954
0.0575145
4.91619
0.0252085
0.0469405
6.54895
6.73205
0.0258186
5.41436
4.13821
5.3847
0.0251987
0.0252862
0.0258352
0.0256704
0.201385
0.0272074
0.498649
0.0823401
5.21392
0.709574
0.0258156
4.0856
0.0261566
4.28836
3.70894
0.551378
0.229678
0.100019
0.0255028
6.93151
6.27046
0.0409457
0.0252864
0.0390353
0.0574717
0.0256243
0.024704
0.0515749
0.0254104
0.0374089
0.034263
0.0251141
0.137435
10.3094
0.0314401
4.12622
0.0437735
0.0310055
0.0250257
4.48161
0.23607
0.0535408
0.026786
0.0297122
4.70078
0.0271483
0.0254051
0.0249019
0.0437761
3.98634
0.0251651
0.0254842
3.8894
0.0250985
4.98366
0.0549323
0.0250423
0.0252337
4.25445
0.157069
0.0251951
0.024921
0.025503
0.0460428
0.0849875
4.21998
0.0258148
0.0266778
0.0276971
0.0287757
4.21267
0.0295949
0.0248748
5.84785
0.0250071
0.156067
0.0254354
4.35873
12.1323
0.0300193
0.0254308
0.025289
0.0254659
0.23145
0.0252219
8.05485
0.0312184
0.0248758
0.0246843
2.36664
0.0772398
0.0252916
1.29125
0.0354174
0.283746
4.69846
0.0338875
0.0254276
0.0253561
0.0527734
0.0278488
0.0254755
0.0254198
1.36678
5.15361
0.0250309
0.0252417
0.0251957
5.4162
3.35915
0.0896496
0.0251906
0.0365272
0.0254927
0.0247807
0.0391188
1.04622
0.209259
0.0250822
0.303897
0.111875
0.0469171
0.0255096
7.14861
0.0254058
0.0293527
0.0252411
0.0251452
0.0293044
0.0252339
0.0251725
0.02561
5.08463
0.0257063
0.0412182
0.0251401
0.0252632
0.0286988
0.0717587
0.0568251
0.0256174
0.0254403
0.0287815
5.79503
0.297574
0.0263866
4.06051
0.0252928
0.0285268
4.78625
0.025688
0.0254777
0.038411
0.0253339
0.0814129
0.116365
4.61562
0.0249755
6.41815
1.04193
0.0253392
6.57279
0.07545
0.55356
0.0252713
0.175116
0.0302085
0.0254725
0.139252
0.0251704
0.0286825
0.0251413
0.0252643
5.41064
0.0960613
0.0252906
0.0253836
0.0262987
0.0425938
0.0255439
0.0254106
0.0458695
0.0325744
6.71926
1.4068
0.0252501
0.0249306
0.0254181
0.0255995
0.0256661
0.0574081
0.0254401
0.0262145
0.0254194
0.0326398
4.12338
0.168633
0.0256646
1.03605
4.46068
0.025339
0.025145
4.59576
0.026475
9.90297
3.98572
0.0249118
0.0307155
0.0394018
0.0573485
0.0252463
0.0457963
0.0269208
0.171235
0.0818524
0.0252836
0.0253263
4.07051
0.0251467
0.254626
0.0747986
0.193913
4.45666
6.70889
4.57505
0.134687
0.0494138
0.0259728
0.0287578
0.025639
3.16339
0.0252638
0.0251403
0.025371
0.024975
0.0472089
4.00914
0.0736842
0.0806081
0.0284267
7.48013
0.0328256
0.057683
0.231779
0.0252927
0.0253179
0.128804
0.0251727
0.0334766
0.027892
0.0248044
4.19513
0.0853638
0.0255649
0.025286
0.0270278
7.4251
0.0574692
5.9352
0.0253351
3.62919
0.0287349
0.0294298
0.0251926
0.69928
0.0266048
0.401735
0.0592997
0.0350692
0.0253266
0.0252171
0.0258911