/*--------------------------------*- C++ -*----------------------------------*\
| =========                 |                                                 |
| \\      /  F ield         | OpenFOAM: The Open Source CFD Toolbox           |
|  \\    /   O peration     | Version:  v2012                                 |
|   \\  /    A nd           | Website:  www.openfoam.com                      |
|    \\/     M anipulation  |                                                 |
\*---------------------------------------------------------------------------*/
FoamFile
{
    version     2.0;
    format      ascii;
    class       volScalarField;
    location    "400";
    object      p;
}
// * * * * * * * * * * * * * * * * * * * * * * * * * * * * * * * * * * * * * //

dimensions      [0 2 -2 0 0 0 0];


internalField   nonuniform List<scalar> 
37190
(
0.0316661
-0.287769
-0.0255125
0.0193644
-0.123441
-0.00142314
-0.137286
0.017662
0.00156701
-0.0900455
0.0294468
-0.0169321
0.0168864
-0.00979598
-0.0932286
0.0087704
0.0477168
-0.175084
-0.0926592
-0.190398
0.000236619
0.032108
-0.286266
-0.0515019
0.065331
0.00849463
-0.137846
-0.0933952
0.137354
-0.401542
-0.182024
-0.00225266
-0.0830283
-0.105376
-0.121797
-0.101435
-0.0194221
-0.0515787
-0.0508166
0.0174398
-0.0800381
-0.203072
0.0672433
-0.153633
0.0278324
-0.221569
-0.410169
-0.269065
-0.025476
-0.125608
0.0584228
0.0199142
-0.0647079
0.117506
0.0142607
-0.0382062
-0.0897059
-0.0192669
-0.0818802
-0.0139768
-0.0803312
-0.100898
-0.01608
-0.290664
0.0426295
0.0666421
-0.00863843
-0.211888
0.228529
-0.0160078
0.0140351
0.0498077
-0.0763065
0.0015709
0.0268363
-0.00163372
-0.19346
-0.113004
-0.233398
-0.0774519
0.00344237
0.042906
0.00154514
0.0536473
-0.363521
0.0468852
-0.0855034
-0.402754
-0.0917307
-0.00226249
-0.193921
-0.0838505
0.0681143
0.000102587
0.0215251
0.0666344
-0.230791
0.00512757
0.0196103
-0.365502
0.0682819
-0.134157
-0.230142
-0.36995
0.0221246
0.0102134
-0.177682
0.0107265
-0.00842602
-0.12121
-0.164677
-0.0903092
-0.0529446
-0.0214759
-0.0284712
0.0253931
-0.115247
-0.0511156
0.0179943
-0.0194222
0.0280572
-0.0728064
0.0289087
0.0496739
0.0140943
-0.0733951
-0.0212581
0.0111885
-0.0783331
0.214092
0.011421
-0.265614
-0.0676111
0.0640636
-0.227298
-0.0136869
-0.0666452
-0.215
-0.219691
0.0608458
-0.0751873
-0.0943924
0.00744161
0.0658404
0.0214331
-0.00211731
-0.208857
-0.00914537
-0.220049
-0.019627
0.0147463
0.0649542
-0.143625
0.00485595
-0.0821053
-0.0134953
-0.228815
0.029332
-0.176604
-0.0712408
-0.133255
0.0426128
-0.362306
-0.0783406
0.0679427
-0.018614
-0.146111
-0.170851
-0.0740007
-0.091387
-0.0132221
-0.0785693
0.0430631
-0.034709
-0.0719619
-0.100703
0.00407748
0.0531797
-0.108743
-0.0537632
-0.152014
0.0212307
0.0210654
-0.0241898
-0.16395
0.0229365
-0.077859
-0.0945144
-0.283432
-0.20433
0.011455
-0.176202
-0.0220518
-0.0419213
-0.0965465
-0.0688167
0.0128318
-0.139018
-0.350368
-0.100437
-0.229588
-0.0220584
0.0145503
0.0198124
-0.0780045
-0.108629
-0.135209
0.0524971
0.0273751
-0.0858621
0.0292172
-0.0713729
-0.0218558
-0.088766
-0.264856
-0.291358
-0.221003
-0.218618
-0.1044
0.00879922
-0.0804617
-0.0166989
0.0379487
0.232784
-0.16007
0.0329607
-0.242741
0.0201617
-0.0739582
-0.409377
0.0681856
0.0365427
-0.0137491
-0.0882331
-0.00441827
-0.142013
-0.0598467
-0.389862
-0.0157519
-0.0272638
-0.0923096
0.0230459
-0.0773032
0.0182471
0.0058938
-0.211084
0.00610734
-0.127244
-0.0830342
-0.169839
-0.0134627
-0.0958237
0.0365861
0.0481072
-0.0588384
0.028251
-0.174739
0.0229579
-0.0636903
0.00526639
-0.128568
-0.0796436
-0.0194902
-0.17718
-0.0495194
-0.00837931
-0.0075872
0.0692863
-0.16133
-0.0194508
-0.320604
-0.13673
-0.10338
0.126362
-0.409856
-0.0264426
-0.0101021
-0.173116
-0.0824436
-0.0756096
0.122089
0.0495744
-0.213496
-0.0795124
-0.0487748
-0.0747217
-0.0321817
0.0492947
-0.132689
0.0279356
-0.033132
-0.1151
0.228174
-0.130992
-0.409888
0.0337481
-0.0120607
-0.162855
-0.106007
-0.0192915
-0.231493
-0.239247
0.0792327
-0.0991583
-0.0266667
-0.0212839
-0.00859483
0.0230702
-0.206674
-0.0336063
0.0193269
-0.17509
-0.00168157
-0.140528
-0.389452
-0.404738
0.0415624
-0.0779168
-0.00807754
-0.021469
0.0333528
0.152649
-0.102759
-0.0157699
-0.243684
-0.10371
-0.159332
-0.353293
0.0016647
-0.321779
-0.0548848
-0.104313
-0.00332318
-0.164244
-0.142248
-0.174306
-0.0825414
0.154332
-0.0400988
-0.292722
0.028341
-0.0998452
-0.0279308
-0.0378441
-0.163836
-0.222176
-0.0923451
0.0195321
0.0115986
-0.0196833
0.0171551
-0.212807
0.00100587
-0.0261374
0.0419589
-0.210712
-0.00844039
-0.0838918
-0.154145
0.0174135
-0.0452934
-0.239412
-0.134639
-0.166009
0.013706
-0.175023
0.0374865
-0.00737566
-0.114853
-0.0900918
0.0272404
0.231283
0.0123135
-0.236188
-0.0102608
-0.079356
-0.172082
-0.20427
-0.176193
-0.237657
-0.361933
-0.245847
-0.0800162
-0.0903517
-0.13136
-0.0835039
-0.139432
-0.0721738
-0.139783
0.156302
-0.0327343
-0.0901562
-0.0720676
-0.0278541
0.0571925
-0.00772711
-0.0813603
0.0168944
0.0180517
-0.218071
-0.00743811
-0.201098
0.0167074
0.0281419
0.0561007
0.00176825
-0.000530025
-0.125844
-0.0397936
-0.00729041
0.00100888
-0.106312
-0.412429
-0.0316971
-0.00317033
-0.00553628
-0.108621
0.0142218
-0.0193229
0.000438843
-0.204263
-0.24947
-0.0851146
0.0185786
-0.01947
-0.214423
-0.165918
0.00529521
0.00902483
0.00232788
0.00159098
-0.00732617
0.0158128
-0.0375274
0.0542924
-0.317383
-0.00726695
-0.216115
0.00897339
-0.0198809
0.0328863
-0.0239051
-0.29277
0.0501439
-0.0175625
-0.0884891
-0.0804791
-0.00826909
-0.2422
0.00614717
-0.106494
-0.101704
0.0249471
-0.123999
0.00657548
-0.391576
-0.0218553
0.00639799
-0.0628241
-0.0198466
-0.290323
-0.0921234
-0.0130667
-0.0798011
-0.211753
0.0018999
-0.0925827
-0.212412
-0.0113252
-0.0199709
-0.107385
-0.167831
-0.364715
-0.209874
-0.138623
-0.237818
-0.0429346
-0.188617
0.0576263
-0.0017342
-0.0219212
-0.0228734
-0.0777313
-0.0805776
-0.0141791
-0.0820731
-0.40466
0.0381448
-0.409726
-0.089273
-0.0481044
0.0439636
-0.0192964
-0.0843944
-0.171957
0.121263
-0.0168682
-0.0132375
-0.185708
-0.361932
0.0217594
0.0050369
-0.0234432
-0.105439
-0.112846
-0.203435
-0.127335
-0.0823718
-0.176343
0.0540565
-0.0859886
0.00506204
-0.139136
-0.0262276
-0.111094
-0.277432
-0.0916683
-0.0260501
-0.00748174
-0.408727
-0.0600996
-0.138984
-0.210326
-0.163893
0.0056965
-0.0730748
-0.0545868
0.0489504
-0.112056
0.00681196
-0.0398626
-0.0132632
-0.129081
0.0191615
0.0275808
-0.373881
-0.00209368
0.0217761
0.0124182
0.0790472
0.0067403
0.0180864
0.155198
-0.0105701
-0.0726951
0.00461627
-0.0493238
-0.110804
0.130336
-0.00436699
0.00121794
-0.0543575
0.0294517
-0.133292
-0.117551
0.0292366
-0.0533468
-0.291494
-0.102152
0.00195318
-0.0188578
-0.39586
-0.085634
-0.384681
-0.130824
0.00528063
-0.10707
0.0315087
-0.0716341
-0.242394
-0.0627401
0.0227616
-0.105782
-0.175162
-0.0151472
-0.221933
-0.129835
-0.0863706
-0.0153756
-0.112312
-0.110705
-0.0317462
-0.0514002
0.0273119
-0.192924
-0.110329
-0.0198837
-0.215969
-0.0891888
0.0119157
0.181797
0.0101763
-0.114681
-0.0899677
0.0132141
-0.315304
-0.0891308
-0.0930504
-0.308687
0.0104952
0.0297912
-0.0619287
0.0427269
-0.0614358
-0.145877
0.00695097
-0.104355
0.019746
-0.0782698
-0.137393
0.00572871
-0.0921988
-0.0130904
-0.169805
-0.409005
0.00255862
-0.284558
-0.0192774
0.00185103
-0.0536163
0.00255785
-0.166115
-0.074372
0.00540884
-0.129088
0.00156265
-0.087079
-0.0918553
0.0053495
0.0211784
-0.091268
0.0122999
-0.019491
-0.208664
0.14936
0.149775
-0.170336
0.0229478
0.000533893
0.0773078
-0.126802
-0.0899043
-0.100871
-0.0851937
-0.0158429
-0.104715
0.0557148
-0.0279362
-0.177436
-0.139397
-0.0493201
0.00617963
-0.14084
0.0639117
-0.163175
-0.100555
0.0744036
-0.0923362
0.00810592
-0.409529
0.0706567
-0.0272208
-0.0726732
-0.0755831
-0.071367
-0.0791602
-0.0154357
-0.102512
0.00719542
-0.116242
0.0126149
0.00198115
-0.168463
-0.16693
0.0197794
0.00439916
-0.354165
0.0300958
-0.0104714
-0.173775
-0.404122
-0.0731287
-0.0895125
-0.0147286
-0.0836729
-0.126521
-0.356352
0.0518631
-0.0934353
-0.143683
-0.0250893
-0.187406
0.0373964
-0.404494
0.0189402
-0.0823534
0.0565553
-0.0777968
-0.0845372
-0.019108
0.263368
-0.019256
0.011263
-0.0782515
-0.0312226
-0.410815
0.0182705
-0.160661
0.00111668
0.0184913
-0.0599486
-0.0100101
-0.197388
-0.0109829
0.0316297
0.0273109
0.00530878
-0.136331
0.201268
-0.0771829
-0.207296
-0.41167
-0.0813307
-0.0907249
-0.0212962
-0.0265736
-0.396336
-0.085792
0.0206834
-0.4043
-0.0873358
-0.0785392
-0.0622056
-0.081366
-0.112777
-0.010296
-0.178027
-0.0827628
-0.0468334
-0.273155
-0.113516
-0.0486722
-0.0307495
-0.020967
-0.106434
-0.290437
-0.018602
0.15345
-0.336798
-0.0807389
-0.410036
-0.102877
-0.165461
0.0289643
-0.173214
0.0511574
-0.187847
-0.0735745
0.00997028
-0.233551
-0.121962
0.00451332
0.0174173
-0.134965
-0.0145915
-0.0627269
0.0807622
-0.0370108
-0.000687763
0.0434783
-0.0451067
-0.0876511
-0.106451
-0.0478634
-0.177845
0.00239564
-0.296603
-0.368856
-0.0265388
-0.034582
0.0432603
0.00866338
-0.205075
-0.165132
-0.135335
0.0361249
0.0762745
0.011588
-0.0171755
-0.1378
0.00465728
-0.0550664
-0.0542514
0.0366852
-0.0129667
-0.0138206
-0.0274282
0.145826
0.0424866
-0.0637456
-0.0801186
0.00527379
0.0100397
-0.241271
-0.183596
-0.0146846
-0.0190918
-0.0266125
-0.0648968
-0.0650588
-0.280372
-0.0799583
0.0407396
0.042129
-0.162053
-0.148473
0.062391
0.0171634
-0.0124974
0.0278354
-0.0508991
0.0194332
0.0316142
-0.119374
-0.017393
-0.122429
-0.35466
-0.0255921
-0.0662685
0.0239841
-0.237468
-0.0868975
-0.184854
-0.15632
-0.13086
-0.0334579
0.0118839
-0.075438
-0.408287
-0.127864
0.0325248
-0.093083
-0.00764478
-0.0122934
-0.137461
-0.297779
-0.0875073
-0.0866731
0.0355826
-0.103646
0.00758553
-0.140848
-0.00858387
-0.145218
-0.0544089
-0.236215
-0.0470495
0.00628732
-0.123689
-0.0389711
-0.131985
-0.204452
0.028194
0.0184778
-0.36829
-0.017941
-0.0165148
-0.121763
-0.011436
-0.0839278
0.036418
-0.118055
-0.131583
-0.18979
-0.190139
0.0063214
0.026975
0.0492209
0.0067881
-0.0263724
-0.0604985
-0.0332387
0.0108069
-0.0993808
-0.252858
0.0108795
0.0205461
-0.0586111
0.0190774
0.018249
-0.000435305
-0.233903
0.0454065
-0.00603437
-0.030485
0.0289
-0.0151019
-0.352874
0.180669
0.000646401
-0.00936524
-0.00629333
-0.0986883
-0.0539811
-0.0135699
-0.0594839
-0.207394
0.115257
-0.175654
0.0432457
-0.0135652
-0.24118
-0.0112728
-0.125803
-0.000213234
-0.0762166
0.0275209
0.00450308
-0.118885
-0.135598
0.00910256
-0.00983432
-0.100478
-0.184997
-0.0751727
0.0198121
-0.0228816
-0.185436
-0.0190007
-0.318718
8.68789e-05
0.0100787
0.0520982
-0.169825
-0.0102607
-0.379995
-0.0384903
-0.00235816
0.0383277
0.00459552
-0.0553835
-0.259535
0.0597339
-0.0761043
-0.0664149
-0.225608
0.0271671
-0.289016
-0.280629
-0.15844
-0.00988007
0.0185229
-0.0213709
-0.197206
0.0378497
0.0380826
0.00710977
-0.107844
-0.28318
0.0125746
-0.0073389
-0.0465615
-0.0536837
-0.409279
-0.410201
0.0795118
-0.135568
-0.0738098
0.00308359
-0.0931208
-0.0486953
-0.229082
0.00610669
-0.234551
0.0187132
0.0606664
-0.300034
-0.0263903
-0.163653
-0.135083
-0.316232
0.0256576
-0.103358
-0.054494
-0.131861
-0.295439
-0.00927457
0.00922916
0.00166595
-0.137521
-0.168347
-0.108243
0.0289128
-0.209308
-0.0136595
-0.166778
0.0109902
0.0795343
0.0190074
0.220564
-0.0488388
-0.115303
-0.0841475
-0.00108545
0.00104998
-0.00723837
-0.168144
0.0125564
0.0799049
-0.0483421
-0.10583
-0.00155409
-0.36277
-0.0569084
-0.167416
0.00608806
-0.0136693
-0.0653571
0.0370017
-0.408306
-0.00488725
0.0878326
0.0265769
-0.106504
-0.211106
0.0129162
-0.074461
0.0444703
-0.0968705
-0.0109961
-0.0943271
0.0446681
-0.0132911
-0.0710181
-0.0710274
-0.13136
0.0119726
-0.139784
-0.057235
0.0230027
-0.0477679
-0.00234187
-0.135437
-0.396986
0.0113911
0.0133522
-0.0100161
-0.143017
-0.0879111
-0.0868821
-0.210475
-0.165654
-0.140768
-0.0134892
-0.0899778
-0.0742355
0.00616001
0.0286243
-0.00530424
0.0378948
0.112109
0.00886162
-0.0945711
-0.0572301
-0.0160351
-0.0531632
-0.0747438
-0.408978
-0.275712
-0.0729346
-0.173862
-0.0327586
-0.388321
-0.0407553
-0.404598
0.0348656
-0.0767394
-0.0803478
-0.407413
-0.25897
-0.000910217
0.0247589
-0.0807465
-0.160936
0.00734506
-0.0427608
-0.100827
-0.0174522
-0.0591727
-0.140141
-0.0775041
0.229439
-0.0168423
0.00705835
-0.0587218
-0.189321
0.0285784
-0.0861656
-0.0597042
-0.137792
-0.16712
-0.00223338
-0.345749
-0.207825
-0.0144047
0.0254292
0.00892499
0.000679917
-0.368864
-0.0251799
-0.0196278
-0.0882637
0.0030384
0.0464147
0.020323
-0.409671
-0.0649682
-0.0723251
-0.169378
0.0426393
0.00536086
-0.103484
0.147184
0.00545948
-0.00234719
-0.0991936
-0.136888
0.00744967
-0.0136069
0.000519732
-0.074683
-0.342572
0.00454603
-0.378786
-0.094753
-0.0448671
-0.207663
-0.0638342
-0.111866
-0.0403167
-0.0910881
-0.110402
-0.178601
-0.014271
-0.0444038
0.0193952
-0.0144621
0.0401683
-0.0168457
0.0657673
-0.0816357
-0.205943
-0.00947922
-0.24348
0.00616936
-0.186821
0.0214302
-0.117247
-0.13437
-0.0990273
-0.00427556
0.00733622
0.012896
-0.0106217
-0.0412941
0.00355506
-0.376086
-0.167341
-0.0735469
-0.119866
-0.0897526
-0.0830643
0.0159714
-0.259689
-0.22377
0.0162339
-0.100931
-0.0265369
-0.105192
-0.045675
0.043837
-0.184386
-0.0479567
0.018198
-0.0907956
0.018952
0.0247265
-0.195167
-0.108808
0.010901
0.0328536
-0.0130188
-0.0903447
0.0111954
0.0346327
0.00279535
-0.0151451
-0.139072
-0.0107442
-0.00839025
-0.0778434
0.0261845
0.013232
-0.314016
-0.407288
-0.260831
-0.20911
0.110107
-0.396881
0.235897
0.0482927
-0.402345
-0.0909926
-0.0712445
0.0544601
-0.0415876
-0.0706066
-0.399127
-0.0770003
0.0592277
0.0106615
0.032508
-0.00239741
-0.0775552
0.0789416
0.0332785
0.0229002
-0.120179
-0.0198919
-0.133741
-0.0179075
0.034768
-0.169046
-0.0262349
-0.103392
-0.0508553
-0.0240758
0.0668742
0.108648
0.124076
-0.404947
-0.199441
-0.000507555
0.054972
-0.138407
0.0219975
-0.307046
0.00823036
0.0215296
0.0188512
-0.22439
-0.00883915
-0.0588003
-0.0868064
0.0200755
-0.15821
-0.0979602
-0.0774505
0.00295885
-0.0172587
-0.0636107
0.00507001
-0.0150729
-0.107639
-0.104939
0.0578474
-0.411335
-0.285861
-0.0262488
-0.189082
-0.0451144
0.0187311
-0.09741
0.0259252
-0.212818
0.0865897
-0.0111485
-0.0149022
-0.082931
-0.0107879
-0.00158181
-0.101698
0.00144002
-0.318616
0.114806
-0.0316493
-0.310355
0.0595978
-0.0132214
-0.106649
-0.0641782
-0.126026
0.00267473
0.0035881
-0.0678217
-0.0185615
-0.01593
-0.00851995
0.00153661
0.0200742
0.0188915
-0.00786704
0.0012975
-0.0262114
-0.0896699
-0.403616
0.00243314
-0.103486
-0.0803606
-0.0704748
-0.178064
0.0338995
-0.0463374
-0.126223
-0.0530293
0.0808065
0.0180945
0.0107266
-0.0499261
-0.356874
-0.333396
-0.0139446
0.127041
-0.0149725
-0.116326
-0.256615
-0.0854176
-0.099405
0.0274582
-0.0523377
-0.0736199
-0.175929
-0.06473
0.0289178
-0.114859
-0.115856
-0.121533
0.0274955
0.0803995
0.168653
0.0285807
-0.120114
-0.411347
0.0125929
0.0528865
-0.0600563
-0.0149678
-0.3194
0.0125216
0.0320631
0.00842859
-0.407286
-0.0924095
0.00217222
-0.15967
0.0126575
-0.12583
-0.0573795
-0.170912
0.0133354
-0.11687
-0.0455596
-0.0113806
0.0267136
-0.24709
-0.0780174
-0.0783195
-0.248674
-0.017059
-0.120132
-0.0894167
-0.217624
0.208254
-0.0771809
-0.0154618
0.0257909
-0.072923
0.20936
0.0391553
-0.206779
-0.013764
0.00782599
-0.0838237
-0.0187747
-0.0134687
0.0233274
0.000593093
-0.106183
0.0311259
-0.0989572
-0.19522
-0.111527
-0.0230643
-0.132813
-0.190096
0.022905
-0.408402
0.0168484
-0.0413289
-0.163469
0.0122717
-0.00776104
0.0504111
0.0790796
-0.0245229
-0.0535579
-0.180805
0.00859045
-0.115643
-0.0735514
-0.00826654
-0.0666116
-0.162126
-0.0132411
-0.108331
-0.00984281
-0.0741906
-0.0466436
-0.0141517
0.0594179
-0.276526
-0.337403
-0.160911
-0.0149131
0.0806488
-0.187123
0.0423931
-0.193627
0.195959
0.000877295
-0.0738642
-0.0675307
0.027513
-0.327296
-0.372105
-0.0474905
0.148833
-0.0773468
-0.0951766
-0.00579118
0.0352794
0.0376708
-0.0602409
0.0940207
-0.137683
0.0219036
0.0333953
-0.00258015
0.0202095
-0.0221737
-0.136071
0.00533995
-0.335862
-0.306675
-0.131728
-0.196662
-0.334555
-0.0490618
-0.102776
0.0191257
-0.02644
-0.00252038
-0.411598
0.009267
-0.105827
0.121457
-0.108214
0.0512534
-0.143223
-0.0718864
-0.0543634
0.0245663
-0.0192511
0.0123569
-0.0791379
0.00451197
0.0219034
-0.11827
0.0179413
-0.333458
-0.0108808
-0.013071
0.146337
-0.335146
0.019632
0.0093084
-0.076919
-0.103158
-0.226732
0.220477
-0.0411833
0.0188541
-0.0565158
-0.0806922
-0.377796
-0.0380765
0.0599141
0.0352085
0.0228897
-0.00415723
-0.165698
0.00296975
-0.136093
-0.366712
-0.0572263
-0.0644092
0.104563
-0.116631
-0.120237
-0.023173
-0.0379152
-0.166485
0.0322381
0.028186
-0.136726
0.102284
-0.224227
0.0249576
-0.012297
-0.0958361
0.0336929
0.0406773
-0.117178
-0.0878102
-0.11801
0.0244633
-0.0145771
-0.00559495
-0.0265339
-0.344135
0.000988056
-0.00250551
-0.334365
-0.00477553
-0.215568
-0.0785505
-0.35018
-0.378742
-0.243786
-0.0853495
-0.229021
-0.158154
-0.28915
-0.0170844
-0.258798
-0.141439
0.00746714
-0.000526483
-0.379874
0.0227183
0.0220826
0.0241027
-0.00234094
-0.0215383
-0.165108
-0.0855114
0.0888619
-0.0953336
-0.285339
-0.00200239
-0.255289
-0.213455
-0.0870934
-0.0136325
0.0295037
0.0928443
-0.0503822
-0.00732637
-0.0748047
-0.0744108
-0.218272
0.0137441
-0.0266985
-0.373226
0.0605487
-0.117905
0.0399456
0.00594798
0.00696969
-0.174713
-0.0504251
0.0189318
-0.155416
0.0134808
-0.360815
-0.181752
-0.106587
-0.188635
-0.047208
-0.114844
0.00751258
-0.0626785
0.000428733
0.00921944
-0.065347
-0.095819
-0.0619738
-0.127831
0.0116848
0.00904231
-0.00469143
0.00928648
0.00416917
0.028129
0.0280933
-0.0928259
0.00113184
-0.0136172
0.00332726
-0.0788466
-0.194238
-0.209466
-0.0827054
0.0774971
-0.00399006
-0.0210032
0.0640957
-0.000252801
-0.0170021
0.0190146
-0.0675148
-0.381007
-0.22512
-0.0591547
-0.0884066
-0.196523
-0.106764
0.0070509
-0.0184068
-0.163884
0.0257023
0.00688202
0.0185205
-0.106636
0.0332521
-0.0413961
-0.00542444
-0.0454351
0.0529701
0.0129685
-0.040336
-0.0273538
-0.0472995
0.001402
0.00188263
0.0216993
-0.217144
-0.144114
0.206267
-0.112744
-0.00765168
-0.0176932
-0.0149012
-0.0393383
0.142501
0.00733296
-0.039518
0.16571
-0.197714
-0.0829243
0.0229794
-0.00842861
-0.0930126
-0.206608
0.201962
-0.156134
-0.186846
0.0212381
-0.0155417
-0.370681
0.0173114
-0.290872
-0.0080525
-0.153307
-0.0863075
-0.0463005
0.00347001
-0.21667
-0.3937
-0.130792
-0.0938398
-0.218269
-0.137507
-0.0756618
-0.0645871
-0.179209
-0.369697
-0.343623
-0.0855795
-0.00255979
-0.113396
-0.223936
-0.108123
-0.0465621
-0.373505
0.048873
-0.0110614
0.000225667
-0.351158
-0.172038
-0.118019
0.0189383
-0.138826
0.0213513
0.04865
-0.0420357
-0.0150288
-0.162034
0.0232191
-0.0202986
-0.163206
-0.101601
0.00893399
0.138625
-0.293643
-0.250401
-0.124461
-0.0710486
-0.0941326
-0.111672
-0.0057111
-0.17704
-0.354536
-0.39674
-0.0151621
-0.000847822
-0.0134238
-0.0620129
0.00254318
-0.017502
0.0116868
-0.04425
0.0175508
-0.213399
-0.243829
-0.0153336
-0.0315412
-0.172441
-0.0821419
-0.0265767
-0.210656
0.0118906
-0.221293
-0.137736
-0.176512
-0.0611543
-0.124811
-0.0699848
-0.0262099
-0.0729181
-0.171507
-0.0757577
0.0014244
-0.396321
0.0787211
-0.0159085
-0.0531669
-0.210812
0.0527148
-0.112667
0.0214856
0.0272061
0.0166462
-0.137228
-0.00827352
-0.0765377
-0.0258563
-0.104918
-0.0156323
-0.0173139
-0.13762
-0.375785
0.019296
-0.399438
-0.0683299
-0.0884655
-0.194132
-0.114902
-0.282628
0.00875483
0.00992087
0.00321011
-0.0283696
-0.277672
-0.0959017
-0.117657
-0.399542
-0.0313782
0.00942439
-0.13342
-0.393905
-0.0725801
-0.0408618
-0.0656831
-0.0185118
-0.00414702
-0.128201
0.0153847
-0.0558178
-0.000691826
-0.136304
-0.0104681
-0.364191
-0.101483
-0.019134
0.0337004
0.0166773
-0.243053
-0.0974001
0.0277402
0.0336452
-0.0776707
0.00920593
0.0832123
-0.0625753
-0.242115
0.124862
-0.141155
-0.0187366
-8.12042e-05
0.00367745
0.162581
-0.0907763
-0.113306
0.0332352
-0.0398617
-0.0729053
-0.0702998
-0.136528
-0.0106506
-0.0770726
-0.0115382
-0.141021
-0.0334904
0.0290087
0.00301937
-0.129244
-0.222894
0.103379
-0.0135136
-0.00659809
-0.40621
-0.0749591
0.00713871
-0.180132
-0.0790881
0.149591
0.188142
-0.192334
0.166198
-0.295086
-0.164839
0.125705
-0.0181265
-0.118867
0.00220123
-0.00795029
0.0109049
-0.0874366
0.0415901
-0.0189762
-0.088703
-0.095919
0.0523935
-0.0638732
0.03269
0.00142076
-0.0787772
-0.0692805
-0.271347
-0.132492
0.273264
0.0286086
-0.362433
-0.174167
-0.130463
-0.411257
-0.000970334
-0.00661714
-0.0926875
-0.175954
0.0179229
-0.170282
-0.116674
-0.0891417
-0.260413
-0.0693552
-0.0207927
-0.107894
-0.133247
-0.274054
-0.049362
0.174182
-0.00825292
0.13982
-0.00207976
0.167229
-0.235871
0.00342547
-0.00628489
-0.0132501
-0.110685
-0.084372
0.175186
-0.118869
-0.101749
-0.0192562
-0.13277
0.0534797
0.00410708
-0.0023009
-0.0903601
0.00965519
0.0272103
0.0370282
-0.130722
0.0526623
-0.0459061
-0.130069
0.030797
-0.0836526
-0.329714
-0.119469
-0.227886
-0.378644
0.0264564
-0.0815322
0.0322206
-0.127915
-0.0113243
0.0135317
0.0186252
0.0342291
-0.345528
-0.0304934
-0.0934665
-0.0109403
-0.0853612
0.0248179
0.0548219
-0.0322244
-0.0400348
0.127334
-0.0171085
-0.00400902
-0.373058
-0.0147263
-0.0150346
-0.0646166
0.0591835
-0.0171096
0.0259327
0.0428641
-0.0912859
-0.0913959
-0.344248
-0.294797
-0.280201
-0.138886
-0.0133311
-0.0238616
-0.134087
-0.091409
-0.13206
-0.185934
-0.0142173
0.00251386
0.253166
-0.00782088
-0.151201
-0.378344
-0.381115
-0.00183269
0.0217011
-0.0140706
-0.00301336
-0.290256
-0.000541373
0.0154309
-0.0584681
-0.137011
-0.0404842
-0.00579377
-0.0168079
-0.404723
0.0427896
-0.0448706
-0.277946
-0.16479
-0.0889478
-0.0885411
-0.395567
-0.279082
0.030526
-0.408371
-0.00504362
0.0113177
-0.0768762
-0.28942
-0.083854
-0.256778
-0.0183859
0.0175832
0.00695175
-0.0862839
-0.120314
0.056926
-0.139408
-0.0577554
-0.276763
-0.260937
0.0243489
-0.106045
0.0612259
-0.0616811
-0.106235
-0.00797462
-0.0769528
-0.261094
0.0213657
0.0300785
-0.139913
0.0416492
-0.0360911
-0.134849
-0.171482
0.00992673
0.0261209
0.0303214
0.0131526
-0.354247
-0.0755635
0.0206686
-0.00584463
-0.27906
-0.00961748
0.0247548
-0.0766094
0.0107833
-0.237708
-0.344716
-0.0210171
-0.0457768
-0.0637137
-0.403196
-0.0107504
-0.049346
-0.409776
-0.105992
0.0244148
-0.0869108
-0.0831469
-0.0911677
-0.221101
-0.0589076
-0.369673
0.0336266
0.000262247
0.00974492
0.0354083
0.110317
0.139343
-0.118982
0.000523827
0.0553711
0.108274
-0.0991934
-0.279424
0.00960568
-0.0160077
-0.201164
-0.40445
-0.0973107
-0.00285604
-0.107812
0.00758699
0.153467
0.0122389
-0.182807
-0.099847
-0.00132925
-0.387964
-0.366982
0.00753877
0.010017
-0.0787942
0.0479341
-0.00586133
-0.231707
-0.216316
-0.0061542
0.0187521
-0.107269
-0.0689034
-0.118111
-0.00115471
-0.119143
-0.153915
-0.0905415
-0.0213231
-0.0876663
-0.0151589
-0.217705
0.0568014
0.104571
-0.134059
-0.410514
0.0165804
0.0196994
-0.256038
-0.271192
-0.0122781
0.0252179
0.0311327
0.00895132
-0.0257677
0.100385
-0.0705076
0.0358144
-0.0961574
-0.0957486
-0.0908318
0.0120907
0.0191549
-0.0111043
-0.172489
-0.104499
-0.0379351
-0.214031
-0.0110865
-0.270868
-0.21592
0.104732
0.0195349
0.0246806
-0.201784
-0.196167
-0.00731412
0.145584
-0.0138091
0.0101369
-0.0900826
-0.215255
0.114332
-0.0135966
-0.00397948
-0.380664
-0.324415
0.0259442
-0.0794029
-0.0664282
-0.348065
-0.0463931
-0.160804
-0.338711
0.0600093
0.0149984
-0.115892
-0.10522
-2.77658e-05
0.0233719
-0.208672
-0.0823729
-0.0792662
-0.111262
-0.029806
-0.410859
-0.00076156
-0.143058
-0.00658641
0.0151148
-0.0289764
-0.0214222
-0.00509755
-0.371807
-0.00316132
0.0411259
-0.255141
-0.109266
-0.110154
0.0319358
-0.0112982
-0.171818
-0.197231
-0.129351
0.0926162
-0.121445
-0.245659
-0.198211
-0.105078
-0.119766
-0.0758801
-0.238049
0.00306435
-0.0182588
0.0153892
0.190461
-0.185097
0.00343379
0.107361
-0.206085
-0.404105
0.0200404
-0.102624
-0.0658218
-0.0998232
-0.115922
0.0103579
-0.00113077
-0.125983
0.0697809
-0.204045
0.0970839
0.0215273
-0.407801
-0.131072
-0.00668919
-0.0990824
0.0214194
0.0225464
-0.0452482
-0.255969
0.0120436
0.0111549
0.0385104
-0.0874604
-0.234894
0.101786
-0.21997
-0.0950508
-0.367176
0.0295816
0.024661
0.0113306
0.0311811
-0.227858
-0.177191
0.0330993
0.148338
-0.057009
-0.111728
-0.23408
0.00639718
0.0241646
-0.0369376
-0.0724341
-0.225257
-0.153779
0.112545
-0.399425
-0.148158
0.0125855
0.136008
-0.00308525
0.00509972
0.0466987
-0.00266015
-0.0667679
-0.0575625
-0.0101505
0.0227192
0.0600894
-0.28795
-0.0247601
-0.0193276
-0.221819
-0.19193
-0.0873056
0.0277233
-0.282527
0.0107545
-0.0904327
-0.168425
-0.378577
-0.0653519
-0.0729564
-0.0384235
-0.00796519
-0.408902
-0.393883
-0.348916
-0.0759792
-0.0138928
-0.102614
-0.0403706
-0.0231568
-0.0724246
-0.064075
0.227001
-0.0198358
-0.00255021
-0.0454417
-0.0918409
0.00474179
-0.0852533
-0.111583
0.0405459
0.000659749
-0.112968
0.0699612
-0.070305
-0.0264296
-0.0109961
0.00122178
-0.0716899
-0.00979693
-0.0146796
-0.354653
-0.0753892
-0.280756
0.123539
-0.0885201
-0.336555
0.0546284
-0.0710929
0.024416
0.0112766
-0.0815645
-0.0195857
-0.241517
-0.321027
-0.406417
-0.0459311
0.00848024
-0.13038
0.0189031
0.0710592
-0.0773086
-0.0888526
-0.274895
-0.36079
0.0247083
-0.321639
-0.0894682
-0.00316705
-0.411353
0.198264
0.0936238
0.00756735
-0.224984
0.00547132
0.148365
-0.177196
-0.14909
-0.0199569
-0.175121
-0.0782758
-0.137471
-0.0485593
-0.220105
-0.00140536
-0.010348
-0.0372364
0.00351757
-0.105121
-0.195914
-0.118152
-0.030166
-0.256025
-0.00667848
0.193938
-0.272525
0.0536336
-0.0948377
-0.015136
0.0168639
-0.401598
-0.210204
-0.130912
-0.0258571
0.0827665
-0.0305495
0.00574678
-0.0176186
0.00366282
-0.0370674
-0.00811889
-0.106757
0.127155
-0.0137869
-0.0639494
-0.0544387
-0.145928
-0.114085
-0.0731655
-0.337767
-0.138854
-0.0212841
0.0030667
-0.00688783
-0.100332
-0.0818735
-0.116907
0.0753539
0.0253961
-0.0388876
0.0369157
0.0155901
0.0248884
-0.238746
-0.347663
-0.00655916
-0.0746585
-0.357426
-0.016882
-0.0109719
-0.0350291
-0.0408568
-0.185767
-0.158227
-0.173248
-0.0942144
-0.141745
-0.351741
-0.082499
-0.000272395
0.015785
-0.0701925
0.0445691
0.170128
0.0233424
-0.199062
0.00108521
-0.104455
-0.0417432
0.025589
0.00241577
-0.099411
-0.0786106
0.00631528
0.0304718
-0.169138
-0.0717726
-0.074604
-0.258361
-0.0733959
-0.0937073
0.0171924
-0.153052
-0.0105923
-0.0466232
-0.136309
-0.136726
-0.152483
-0.100389
0.0375396
-0.128702
-0.0390736
-0.0807869
-0.225938
-0.0966359
-0.014411
-0.371387
-0.0303248
-0.00250657
0.0106329
-0.00387942
-0.0726936
-0.151318
-0.0078857
-0.190339
-0.178522
0.00207027
-0.275911
-0.140014
0.00491828
0.0540718
-0.0783692
-0.0896719
-0.086952
-0.134768
-0.0481343
-0.107625
-0.00155016
-0.388897
-0.0126377
0.0113625
-0.245255
-0.112682
-0.0482408
0.00226853
0.000679711
-0.380779
-0.178125
-0.00846559
0.0282214
-0.0973874
0.0555225
-0.212569
-0.0059787
-0.22161
-0.121025
-0.0147233
-0.0939492
0.000535952
-0.0724538
0.027877
-0.291458
0.0515954
-0.111642
-0.039338
-0.121655
-0.0262556
-0.309072
-0.0305284
0.00150171
-0.074924
-0.406519
-0.372402
0.0146603
0.140904
0.0147467
0.137173
-0.072899
-0.100777
0.0276534
-0.00828858
-0.117593
-0.0452563
-0.0212558
0.00238321
-0.0283671
-0.00765955
-0.158399
-0.12468
-0.00721961
-0.0207407
-0.12653
-0.34497
-0.380692
-0.178652
-0.0102533
0.0416766
-0.0472427
-0.136854
0.0372449
-0.0724359
-0.0638578
-0.0911278
-0.106134
-0.126446
-0.0415564
-0.381252
0.0552934
-0.374126
-0.0575186
-0.221924
-0.0257845
-0.215429
-0.0207983
-0.175168
-0.00824482
-0.161858
-0.375327
-0.00363488
0.0147327
0.0346429
-0.206088
-0.00440459
-0.132519
0.00981747
-0.277192
-0.0449459
-0.240498
-0.00632406
-0.00817823
-0.053795
-0.00778635
-0.0220794
-0.157726
-0.125274
-0.255509
-0.13105
-0.350601
0.0158672
-0.104942
-0.00706156
-0.0201143
-0.0732055
0.011779
0.041595
-0.0143815
0.00484437
-0.350628
-0.386091
0.123663
-0.189502
0.0326179
-0.0627183
-0.0492795
-0.291776
0.0256805
0.0011064
-0.0339894
-0.020475
0.00572401
-0.378159
-0.287561
-0.234297
0.072771
0.000514762
-0.01432
-0.0890529
-0.0744774
-0.354443
-0.21198
0.0196032
0.0746381
0.0248653
-0.0165303
-0.03424
-0.179617
-0.0838305
-0.0100922
-0.0627793
-0.198874
-0.0460283
0.0771762
-0.05672
-0.0839075
-0.21952
-0.0343342
-0.0776669
-0.0768909
-0.0175477
-0.0914868
-0.0140036
0.00822542
-0.113063
-0.0339122
-0.110276
-0.192636
0.00692153
-0.0129087
0.000666221
-0.190206
-0.0591946
-0.0350735
0.00809035
0.00197127
0.000883272
-0.127974
0.0349082
-0.0506458
0.0161168
0.00320305
-0.136576
-0.111456
-0.113987
-0.0874893
-0.169925
-0.312295
-0.0115412
0.0187808
0.137832
-0.0480452
-0.235725
-0.0291248
-0.00964298
-0.212718
-0.0414076
-0.408866
-0.00952139
-0.230529
-0.247877
-0.399854
-0.146373
-0.207455
0.0707994
0.0448019
-0.0168698
-0.125849
0.034079
-0.0361725
-0.088498
0.013399
-0.34905
0.078503
-0.105576
-0.126956
-0.0596454
0.0162922
-0.408745
-0.156002
-0.0802519
-0.0405114
-0.3076
-0.282405
-0.0163108
0.00276934
-0.0175461
-0.0078109
-0.216502
-0.0889424
-0.0751315
-0.0812126
-0.0152365
-0.33569
-0.387659
-0.176557
-0.0966318
-0.410018
0.0044876
-0.161839
-0.217183
0.00195027
-0.175058
-0.40528
-0.0152449
-0.0597808
-0.103114
0.0373564
-0.157136
-0.0974134
0.0386019
0.00273018
-0.21591
-0.389025
-0.395131
0.0117013
0.0150906
-0.411338
-0.275296
0.00436564
-0.0579489
-0.235017
-0.15488
-0.0735541
0.111014
0.00610623
-0.169873
-0.00951574
0.0208625
-0.0792783
0.0155245
-0.280097
0.0174424
0.00196593
0.047469
0.03756
0.0200639
-0.096172
0.071016
0.00102281
-0.0778972
0.0320097
-0.0626253
-0.356479
-0.128333
0.0202362
0.0141044
-0.155668
-0.0717914
-0.000205097
0.0242778
0.00195728
0.0385779
0.00992449
0.05885
-0.295558
-0.177132
-0.154357
-0.00136635
-0.0841878
-0.235465
-0.0189275
-0.21098
-0.304007
-0.0771166
-0.248464
-0.187962
0.034959
-0.0473926
0.0434516
-0.260127
-0.00670239
-0.0283008
0.0006736
-0.365983
0.0576397
-0.1269
-0.000739899
-0.331413
0.00114704
-0.00679716
-0.0156929
-0.133029
-0.154659
-0.00681759
0.0105057
0.0478608
-0.0882821
0.0798744
-0.178563
-0.0948221
-0.040812
-0.0393286
-0.0732509
-0.329915
-0.129314
0.0406328
-0.023072
-0.155738
-0.00357941
-0.127838
-0.380756
-0.0943125
-0.00354034
0.0194625