/*--------------------------------*- C++ -*----------------------------------*\
| =========                 |                                                 |
| \\      /  F ield         | OpenFOAM: The Open Source CFD Toolbox           |
|  \\    /   O peration     | Version:  v2012                                 |
|   \\  /    A nd           | Website:  www.openfoam.com                      |
|    \\/     M anipulation  |                                                 |
\*---------------------------------------------------------------------------*/
FoamFile
{
    version     2.0;
    format      ascii;
    class       volVectorField;
    location    "400";
    object      ddt0(U);
}
// * * * * * * * * * * * * * * * * * * * * * * * * * * * * * * * * * * * * * //

dimensions      [0 1 -2 0 0 0 0];


internalField   nonuniform List<vector> 
37190
(
(1.14636e-05 -2.80438e-05 2.99181e-21)
(0.00376069 0.00032303 3.51744e-22)
(1.01336e-05 2.60289e-05 -2.31924e-21)
(0.000340283 -0.000199512 5.24241e-22)
(-0.00565173 -0.000189926 -7.02329e-21)
(4.58611e-05 -4.11699e-05 2.80653e-24)
(0.000128701 -0.000127251 -3.94242e-21)
(0.000110873 -7.29351e-05 7.71993e-21)
(0.000343512 -0.000168416 -1.52841e-21)
(-0.000169773 0.00358146 -5.3812e-21)
(2.31569e-05 -1.06374e-05 3.01585e-21)
(5.92802e-06 5.54612e-06 -5.57383e-21)
(0.000158283 -5.3577e-05 -4.31057e-21)
(1.5026e-05 3.19141e-06 1.68291e-21)
(0.00320229 0.00386445 -3.22823e-21)
(7.0326e-05 -7.71277e-05 2.20936e-24)
(9.44542e-05 -0.00013663 1.089e-21)
(-0.000123847 3.96913e-05 7.53066e-24)
(0.00112926 0.00305964 -4.06882e-22)
(0.00339124 -0.00368007 4.27941e-21)
(0.00013132 -1.74784e-05 0)
(1.08436e-05 -2.67675e-05 -3.69244e-21)
(0.000983576 -0.000110601 -3.4999e-21)
(3.00172e-05 0.000159278 8.17582e-22)
(7.91668e-05 -0.000161257 6.80217e-25)
(7.13552e-05 -7.67806e-05 2.24001e-24)
(7.4205e-05 7.74305e-06 -2.86505e-21)
(0.000445815 0.000644681 6.15595e-21)
(0.000115482 -0.000600766 2.69215e-21)
(-0.000952871 -0.000224392 1.52568e-21)
(-0.00293274 -0.00330432 -1.74104e-24)
(2.47204e-05 -1.9065e-05 -3.68397e-24)
(-0.000187403 0.00127414 -4.39798e-21)
(0.00192617 0.00307483 0)
(0.00143024 0.000457663 5.57697e-21)
(0.000589809 0.000435502 -5.82015e-21)
(4.4654e-06 1.37858e-05 -1.54309e-21)
(3.24803e-05 0.000155947 0)
(7.67585e-05 7.97355e-05 -4.91366e-21)
(4.61114e-05 -5.56741e-05 -2.07546e-21)
(-0.00198363 0.00260134 2.04917e-21)
(0.000320623 -0.000911747 -2.07209e-21)
(7.18312e-05 -0.00016959 0)
(0.000818829 -0.000696609 8.08288e-21)
(6.82268e-06 -7.54227e-05 -1.9929e-21)
(-0.000860307 -0.000355636 -2.8211e-21)
(-0.000588344 -0.000420827 0)
(0.00100916 -0.000190908 0)
(9.58898e-06 2.7703e-05 0)
(-0.00555542 -0.000244796 6.77374e-21)
(2.5554e-05 -0.000150915 -3.16241e-21)
(5.56558e-05 -8.45538e-05 0)
(-2.34069e-06 0.000412489 3.35326e-21)
(0.000159259 -0.00020689 -1.33524e-21)
(5.79322e-06 -5.18689e-05 1.53381e-21)
(5.70525e-05 4.76807e-05 1.10256e-21)
(-0.000234904 0.00347673 6.72823e-21)
(5.46713e-06 1.23431e-05 -1.40671e-21)
(-0.00206477 0.00134587 -4.57282e-21)
(1.10549e-05 1.72886e-05 1.59794e-21)
(-0.00185371 0.00141934 5.04213e-21)
(0.000587051 0.000461547 3.68443e-21)
(-2.35292e-06 1.54668e-05 -4.61681e-22)
(0.00332115 0.000448233 -6.29243e-21)
(0.000104375 -0.000122423 2.72092e-21)
(7.7063e-05 -0.000165675 0)
(3.88689e-05 4.96942e-06 0)
(-0.00056083 -3.22099e-05 2.49462e-21)
(0.000141459 -0.000364993 -1.91321e-24)
(-1.72021e-06 1.40113e-05 0)
(5.0429e-06 -4.96557e-05 -6.49469e-21)
(9.29143e-06 -9.42487e-05 -7.99191e-22)
(0.00017179 5.5044e-05 6.82947e-22)
(5.01269e-05 -5.14925e-05 0)
(4.66195e-05 -7.49462e-05 0)
(8.45331e-05 -3.21491e-05 1.45064e-21)
(-0.00047945 -0.00296454 1.29576e-21)
(0.000146993 7.88753e-05 -1.23348e-21)
(0.00290004 -0.000994217 3.395e-21)
(0.000157778 4.3256e-05 2.8931e-21)
(1.06169e-05 -1.57526e-06 -1.59454e-23)
(0.000176601 -0.00010175 0)
(4.89539e-05 -5.04442e-05 0)
(0.000316068 -0.000441826 0)
(0.00147595 -8.298e-05 0)
(9.29939e-05 -0.000135788 0)
(-0.00113709 0.002701 -3.44217e-21)
(-0.00102626 -0.000230884 -4.8092e-21)
(0.00293847 0.00372483 7.50399e-22)
(2.51689e-05 -1.97894e-05 1.66963e-21)
(-0.00032846 -0.00284268 -1.06775e-23)
(-0.000222736 0.00139879 2.40867e-21)
(7.58567e-05 -0.000168217 2.37988e-21)
(5.17729e-05 -4.86472e-05 -1.97697e-21)
(3.37874e-05 -1.164e-05 0)
(7.98013e-05 -0.00016486 2.33237e-21)
(0.00279025 -0.000934801 -4.88666e-21)
(2.45703e-05 8.77396e-06 -1.10173e-22)
(0.000325287 -0.000189728 -1.0473e-21)
(0.00340713 0.00147976 0)
(6.81559e-05 -0.000168365 2.40217e-21)
(0.00060666 -0.000115257 0)
(0.00146133 -0.00227161 -5.66538e-21)
(0.00284456 0.000981104 0)
(1.44558e-05 -8.98858e-05 -4.43863e-21)
(9.22448e-05 -7.00355e-05 2.39357e-23)
(-0.0015427 -0.00217295 1.43617e-21)
(8.68382e-06 -5.07771e-05 2.73508e-21)
(3.8326e-05 3.05367e-06 0)
(-0.00164937 0.000144701 -3.71018e-21)
(-0.00308378 -0.0027574 0)
(0.00191939 0.00335386 0)
(7.62881e-05 9.42006e-05 3.44113e-21)
(7.19099e-06 1.58331e-05 1.04804e-21)
(6.46503e-05 6.38075e-05 -4.19158e-21)
(1.83848e-05 -4.89831e-05 0)
(0.000136684 7.53753e-05 0)
(7.89892e-05 7.79315e-05 1.94149e-21)
(4.62699e-05 -5.55999e-05 0)
(0.000116431 3.84441e-05 3.73112e-21)
(3.79711e-05 -4.91865e-05 0)
(0.00283613 0.00151234 0)
(8.4736e-06 -6.68352e-05 0)
(8.86605e-06 -9.16352e-05 2.99762e-21)
(2.71386e-05 -1.4824e-05 -2.53413e-21)
(0.00484227 0.0037838 -1.13654e-22)
(8.15311e-06 1.44935e-05 0)
(2.68447e-05 -7.5314e-06 4.07165e-21)
(-0.00388515 0.00424921 0)
(0.000147197 -0.000344115 -2.8344e-21)
(2.71771e-05 -6.34663e-06 -5.01397e-21)
(0.00379667 -0.000708074 2.64296e-21)
(0.000144237 9.63801e-05 0)
(8.49884e-05 -0.000159502 -3.24463e-21)
(0.00176019 -0.00218453 -3.39256e-21)
(5.60725e-05 3.50455e-05 -8.70141e-22)
(0.000341906 1.38057e-05 3.50576e-21)
(-0.000605131 2.9599e-05 0)
(-0.000811003 -0.000301522 0)
(5.69275e-05 -0.000167168 3.13513e-21)
(0.000178378 9.45928e-05 0)
(0.000474277 0.000643154 -2.37898e-21)
(0.000331202 -0.000173182 -4.24913e-21)
(8.16851e-05 -0.000158991 4.98677e-21)
(3.22046e-05 -8.79049e-06 1.90989e-21)
(8.41485e-05 -3.02483e-05 -2.83709e-21)
(-0.00149049 -0.00323596 0)
(0.000121335 7.48563e-06 3.77173e-21)
(-0.000582775 0.000196471 -1.31543e-21)
(1.52432e-05 1.84391e-05 0)
(3.01884e-05 3.97981e-06 0)
(0.000176739 -0.000139534 0)
(0.00238706 -0.000358684 -5.49768e-21)
(1.7126e-05 -1.82132e-05 -7.5859e-21)
(-0.00169908 0.00147414 1.31411e-21)
(2.00488e-05 3.11297e-05 0)
(0.00265927 -0.00107655 9.71028e-22)
(2.22362e-05 -1.00134e-05 -6.89548e-21)
(-0.00158378 -0.00225512 0)
(0.000323146 3.94775e-05 -1.2721e-21)
(0.000349225 0.000180124 -2.50151e-25)
(7.8263e-06 -4.28603e-05 0)
(0.000149791 0.000622112 2.69358e-21)
(0.000616981 0.00307523 0)
(0.000173689 -0.000142637 0)
(0.000114489 3.70414e-05 2.23476e-22)
(-0.00369994 -0.00146424 4.7553e-21)
(0.000302629 -0.000882447 0)
(0.00323228 0.00322708 -7.5655e-21)
(4.44228e-05 0.00321167 -3.27686e-21)
(5.65091e-05 3.27672e-05 -1.75883e-21)
(0.000844747 0.0032118 -3.76262e-21)
(7.01252e-06 -4.85281e-05 0)
(0.000150941 5.07854e-05 0)
(0.002874 0.0016176 0)
(0.000864054 0.00158113 0)
(6.93682e-05 -6.32106e-05 -5.97687e-21)
(8.85782e-05 -0.00014545 -2.50907e-21)
(0.000454547 4.87051e-05 0)
(3.40407e-05 0.000176859 0)
(0.000797367 -0.000662618 -4.49718e-21)
(1.32511e-05 -9.24674e-05 0)
(1.39599e-05 -9.04006e-05 0)
(2.93148e-05 3.32943e-05 0)
(-0.00211712 -0.00257883 2.61698e-21)
(2.56957e-06 -6.68425e-05 1.63977e-21)
(-0.000440367 0.001094 0)
(0.000225053 2.04349e-05 0)
(0.000964526 1.16335e-05 -1.16778e-21)
(-0.000263623 -0.00173676 1.08586e-22)
(8.18768e-06 -5.24237e-05 0)
(-0.000100832 0.00010505 1.10879e-21)
(1.06786e-05 1.43049e-05 -1.9823e-21)
(9.35086e-06 0.000108704 -3.67677e-21)
(0.00149433 0.00506203 3.88918e-21)
(0.000149071 9.80959e-05 4.77122e-21)
(5.14986e-05 -6.64003e-05 0)
(7.25015e-05 -1.8364e-05 -6.24557e-22)
(0.00315972 0.00177905 4.92194e-21)
(0.000382053 0.00221003 2.87473e-21)
(0.000883744 -3.20414e-05 -6.50216e-22)
(2.5777e-05 3.22229e-05 0)
(2.96402e-05 3.52412e-06 -2.28403e-21)
(2.80169e-06 -5.40741e-05 0)
(7.46821e-05 0.00284731 -2.03246e-23)
(0.000148211 7.1062e-05 2.28731e-21)
(0.000133862 -0.000118947 0)
(4.13252e-05 -0.000146386 -1.57516e-21)
(3.76844e-05 -4.59995e-05 0)
(-0.00143324 0.00258908 3.39536e-21)
(2.02502e-05 -1.50795e-05 4.8224e-21)
(0.0030389 0.00308219 -4.21691e-21)
(2.64839e-05 3.37055e-05 1.79211e-21)
(0.000178854 8.32569e-05 -1.0328e-21)
(0.00368681 -0.000761883 -8.67368e-22)
(0.00107347 0.000331759 0)
(-0.000558533 0.000229688 1.75776e-21)
(-0.000433701 0.000303791 0)
(0.00184844 0.0031655 -1.1232e-21)
(1.55262e-05 -4.43292e-05 -2.66748e-21)
(-0.00170766 0.00155869 2.65245e-21)
(5.77334e-06 5.15929e-06 6.57106e-21)
(5.42331e-06 -2.07189e-05 -5.00559e-22)
(9.94412e-05 -0.000311998 0)
(-0.00229719 -0.00227377 0)
(4.3419e-06 -3.01068e-05 7.49576e-22)
(0.003436 -0.000781407 0)
(3.44294e-05 -1.23247e-05 2.69122e-21)
(0.000217071 7.81909e-05 -2.32257e-21)
(-0.00116448 -0.000169867 3.46477e-21)
(6.66028e-05 -0.000170188 2.15741e-21)
(2.3166e-05 -3.84989e-05 8.32956e-21)
(1.08611e-05 1.71163e-05 2.51478e-24)
(-0.00171561 0.00249659 2.18945e-21)
(0.000245883 -4.99869e-05 0)
(0.000819402 -0.000419154 -3.80296e-21)
(0.000460671 -0.000418972 0)
(-0.00135202 0.000192772 -3.49716e-21)
(-2.53829e-07 1.02646e-05 -5.37851e-22)
(6.87588e-05 6.56827e-05 3.65155e-21)
(0.000452305 -1.79186e-05 -1.67847e-21)
(2.03498e-06 -6.45874e-05 7.20234e-22)
(0.000142428 0.00278092 4.03561e-21)
(5.77627e-05 -8.56328e-05 -1.18741e-21)
(6.70693e-05 -6.9038e-05 0)
(-0.00243324 -0.00448135 -2.89474e-21)
(2.50452e-05 8.74879e-06 1.7705e-21)
(-0.00558318 -0.000260226 0)
(-0.000211609 0.00131313 -4.57712e-21)
(-2.11697e-06 -0.000483765 -1.30167e-22)
(6.55169e-05 3.20903e-05 3.17509e-21)
(0.000518035 0.000678409 0)
(2.29075e-05 -3.63629e-05 -7.0871e-21)
(0.000169664 -0.000109486 -3.48423e-21)
(0.000151882 6.3621e-05 2.93262e-21)
(7.51503e-06 -8.02377e-05 3.30068e-21)
(-8.55451e-05 0.000115245 0)
(3.06771e-06 -7.66244e-05 -3.13983e-21)
(0.000331918 1.67279e-05 -5.51645e-21)
(2.40698e-05 8.8061e-06 1.83098e-21)
(-0.00548321 -0.000314632 -1.68952e-21)
(0.000196799 8.20637e-05 -3.69752e-21)
(1.47683e-05 1.71556e-05 2.06168e-22)
(-0.00338607 -0.00331132 1.88966e-21)
(9.44002e-05 5.94611e-05 0)
(3.6983e-05 3.38253e-06 -5.1503e-22)
(2.10308e-05 4.51095e-07 0)
(6.60976e-05 -0.000173355 -2.22013e-21)
(-0.00220021 -0.00238756 0)
(5.97179e-06 1.18472e-05 1.54022e-21)
(0.00341393 0.0012323 -4.45553e-21)
(-0.00245174 -0.00107201 -6.54803e-22)
(0.00169693 0.00323189 2.23866e-21)
(0.000150682 -0.000215128 -1.38107e-22)
(-0.000392622 -0.000191193 3.06795e-21)
(7.0906e-06 3.56853e-05 -1.69053e-21)
(5.26426e-05 1.33106e-05 -2.56332e-21)
(-0.00226539 -0.00109372 -1.76407e-21)
(0.000245007 0.000260084 -3.87944e-21)
(0.000179402 9.89371e-05 -2.82994e-21)
(0.000127914 -0.000604437 3.10169e-21)
(1.06402e-05 -9.48653e-05 7.85033e-21)
(0.000139053 0.000544446 -1.83478e-21)
(-0.00209381 0.00256543 1.93029e-21)
(9.17174e-05 5.88799e-05 3.31672e-21)
(0.00016383 5.17402e-05 0)
(1.44626e-05 4.54211e-05 -4.71213e-21)
(1.06238e-05 -9.17727e-05 -4.61872e-21)
(0.000146768 -0.000113048 -3.93571e-23)
(7.30592e-06 -8.54221e-05 -3.43267e-21)
(-1.22296e-06 7.79103e-05 4.63276e-21)
(0.00135523 0.00078873 -9.98798e-22)
(9.82993e-05 -0.00030518 0)
(9.85142e-05 1.38917e-06 -2.59779e-21)
(-0.000413818 -0.000188249 -5.11962e-21)
(6.47932e-06 -2.32474e-05 1.08341e-23)
(6.54621e-05 2.38314e-05 0)
(-0.00217194 -0.00248649 0)
(0.000374098 3.11237e-05 0)
(6.46283e-06 1.07674e-05 0)
(0.00268957 -0.000977093 0)
(-0.00162096 -0.00318107 2.30353e-21)
(4.09084e-05 -0.000188058 -1.05763e-21)
(0.000940829 0.00255796 7.9028e-21)
(2.86464e-05 2.92266e-05 -1.85596e-22)
(9.18293e-06 1.33211e-05 5.07938e-21)
(3.76262e-05 5.2623e-06 1.39333e-22)
(2.88041e-06 -7.53791e-05 1.50481e-21)
(0.000615057 -0.000618403 0)
(0.000148335 5.04011e-05 -1.10709e-21)
(-5.46706e-07 6.32809e-06 -1.30848e-21)
(-0.00147881 -0.00277909 -6.59533e-21)
(0.00024092 -5.17238e-05 4.42476e-21)
(0.000621568 -0.000101199 2.2543e-21)
(-0.00133043 0.000161355 -4.12472e-21)
(-0.000726625 -0.000200908 2.84043e-21)
(0.00017987 -0.000101565 4.63381e-21)
(-0.00455088 0.00434455 0)
(0.000316339 -0.000102518 5.02472e-21)
(8.63054e-06 1.43227e-05 0)
(3.63555e-06 -2.78556e-05 -9.354e-25)
(8.61767e-05 -0.000223511 0)
(0.00157226 0.00317121 0)
(7.26292e-05 4.16703e-05 0)
(-0.000677846 -0.00234465 1.47576e-21)
(0.00136961 0.00239127 5.04461e-21)
(-2.41639e-05 -2.39256e-05 3.35038e-21)
(0.00330527 0.00174603 -7.54121e-21)
(1.90592e-05 6.84212e-06 0)
(0.00258508 0.00172712 2.38671e-21)
(0.000262054 3.96668e-05 0)
(0.000378629 5.4085e-05 1.41704e-21)
(6.97711e-05 -3.15349e-05 -6.48893e-25)
(-0.00400603 -0.00222262 0)
(0.00234072 -0.00028962 7.03664e-21)
(-0.00213167 -0.00124582 -2.21152e-22)
(-0.00224746 0.00556084 0)
(0.000195136 -0.000305952 2.65967e-21)
(9.55442e-05 6.63874e-05 -3.60928e-21)
(0.00316525 0.000535373 3.28745e-21)
(9.69138e-05 -0.000107105 -5.10814e-21)
(0.0010047 0.00249477 -6.54617e-21)
(6.73223e-05 6.36488e-05 0)
(5.45611e-05 4.69393e-05 0)
(-0.0018759 -0.00211623 1.85943e-22)
(0.000855961 -3.26233e-05 -7.34189e-22)
(0.00017812 0.00319233 6.49038e-21)
(5.6962e-09 6.4164e-06 1.39768e-21)
(3.21855e-05 -1.57574e-06 -2.67134e-21)
(1.22769e-05 1.26616e-05 5.49948e-21)
(9.49362e-06 -7.73758e-05 1.0277e-24)
(-0.003223 -0.00343233 -1.47999e-21)
(5.56879e-05 -5.24164e-05 3.34056e-21)
(5.04012e-06 3.85389e-05 0)
(0.000166485 -9.83483e-05 -2.03685e-22)
(-0.000931842 -0.00446126 0)
(3.27787e-05 5.53363e-06 -3.39847e-21)
(0.00271318 0.00379065 -3.03614e-21)
(0.000279568 0.000253154 -4.98861e-21)
(0.000108309 -7.48788e-05 -5.97511e-21)
(0.000290419 4.58944e-06 2.34613e-21)
(0.00327383 -0.000835036 -3.78332e-21)
(0.000253794 0.000190589 -3.04759e-21)
(-0.0017519 -0.00222659 0)
(0.000175764 -5.06184e-05 -3.43103e-21)
(-0.000150781 -0.000204929 -5.72682e-21)
(2.11454e-05 -3.74828e-05 0)
(2.10023e-05 9.04259e-07 0)
(0.00125202 0.000686638 2.14726e-21)
(0.000181244 8.52088e-05 3.4789e-21)
(9.56371e-05 -0.000105446 3.91062e-21)
(9.08685e-05 -0.00030452 1.50738e-21)
(0.000174951 -4.6139e-05 -5.0952e-21)
(-0.00148455 -0.00314602 -2.04439e-21)
(0.000121833 9.74353e-06 0)
(-0.00030999 0.00110507 5.869e-21)
(-3.52714e-05 -0.000495572 2.93518e-21)
(-0.000226195 -0.00180894 1.75269e-21)
(-0.000131211 -0.000397863 0)
(0.00318161 -0.00078675 4.66164e-21)
(0.00467345 0.000971681 0)
(-4.94429e-05 0.000810461 5.28621e-21)
(0.00637541 0.0050878 0)
(0.000226672 9.50588e-05 2.96462e-21)
(0.000145782 -0.000100495 0)
(0.00312839 0.00390219 0)
(7.18521e-05 -3.13115e-05 3.58323e-21)
(0.000212991 7.67509e-05 3.10084e-24)
(0.000822814 -0.000373179 0)
(8.70007e-05 -0.000226949 1.99085e-21)
(-3.24893e-06 7.88117e-05 -4.39101e-21)
(1.22624e-05 0.00214652 0)
(0.000155224 6.1791e-05 8.34316e-22)
(6.76145e-05 6.41335e-05 2.34679e-21)
(9.04436e-05 -0.000148027 5.98003e-21)
(3.36835e-05 -9.00955e-07 0)
(-0.000603775 0.00572826 4.41301e-21)
(0.000161138 -5.26965e-05 1.9768e-21)
(-5.62632e-07 5.79616e-06 -1.12076e-25)
(-0.000395344 0.000335829 0)
(2.06201e-05 9.6736e-07 0)
(0.000127667 -0.00282399 -3.65161e-21)
(0.000125522 -6.12982e-05 0)
(3.90912e-05 -5.31757e-05 -4.18992e-21)
(9.27723e-05 -0.000145962 -2.7909e-21)
(1.90091e-05 6.92796e-06 6.20579e-22)
(1.55276e-05 1.93124e-06 1.37608e-21)
(-0.00567694 -0.000145304 4.81706e-21)
(9.40655e-05 6.62211e-05 6.88919e-21)
(2.05036e-05 5.41934e-07 0)
(8.05613e-05 -4.62021e-05 1.41132e-21)
(0.00365722 0.00493337 -2.40956e-21)
(-0.000664099 -0.000278831 -4.19814e-24)
(1.38012e-05 4.46825e-05 2.74179e-21)
(6.82991e-05 -3.24703e-05 3.13365e-21)
(1.91779e-05 -9.72439e-07 1.01905e-21)
(0.000355203 -4.15197e-06 -4.60446e-21)
(2.67747e-05 -1.83573e-05 0)
(7.30478e-06 9.66394e-06 0)
(2.00792e-05 -1.31565e-06 2.86155e-21)
(7.49858e-05 -0.00288883 2.79511e-21)
(-2.36477e-05 0.000850875 -5.64918e-21)
(0.0037243 0.00403565 3.75975e-22)
(3.21178e-05 -3.07552e-06 6.11361e-21)
(6.95623e-06 1.04325e-05 0)
(-0.000360598 0.000315697 0)
(-0.00201726 -0.00258219 -2.76843e-21)
(-1.09739e-07 3.13106e-07 2.61943e-21)
(0.000120546 -4.50042e-05 -1.86152e-21)
(3.85971e-05 -3.78592e-05 -2.40146e-21)
(0.000329665 -0.000538198 9.5545e-22)
(1.9779e-05 5.3531e-07 3.76238e-21)
(0.000127257 -5.84295e-05 1.62776e-25)
(0.000394084 -0.000126366 0)
(1.50764e-05 -0.000125244 -6.5235e-21)
(0.0032117 0.00135302 1.08675e-23)
(2.22189e-05 2.4844e-07 0)
(0.000160007 0.000565718 0)
(9.0701e-05 -6.80693e-05 -1.81974e-22)
(6.02585e-05 5.79639e-05 0)
(8.34264e-05 -0.000123627 3.33973e-21)
(3.01476e-05 3.48713e-05 0)
(0.00295255 0.000576435 -3.12611e-21)
(9.07153e-05 -0.000142017 4.32173e-21)
(7.1218e-05 4.91273e-05 1.18012e-21)
(-0.0023239 0.00217799 4.83222e-21)
(0.00620361 0.005265 5.84073e-21)
(1.88076e-05 2.11021e-06 4.13065e-21)
(-0.00111055 -0.00246912 2.83325e-21)
(8.96766e-05 -5.89573e-05 0)
(0.000321693 -1.63054e-06 0)
(0.00118321 0.00244647 6.14154e-21)
(1.84308e-05 -5.06876e-05 4.37192e-21)
(-0.00563416 -0.000143286 -3.22551e-21)
(2.5789e-05 8.97427e-06 3.78687e-21)
(0.00269501 0.000240481 0)
(1.12866e-05 1.37108e-05 2.10333e-21)
(3.58246e-07 -7.58104e-06 0)
(0.000145034 5.99133e-05 -4.44212e-21)
(1.30003e-05 1.36276e-05 -4.04661e-21)
(0.00347752 0.000430327 0)
(0.000319628 0.000165992 4.78788e-21)
(3.96624e-06 1.47518e-06 0)
(0.00482065 0.00565332 2.58106e-23)
(-0.000583653 -8.46081e-05 -5.06362e-21)
(1.95654e-05 6.8328e-06 1.92635e-22)
(0.000209238 0.00304277 0)
(-0.000313438 -0.00439401 -2.56552e-21)
(8.91936e-05 1.65282e-05 -2.1517e-21)
(4.2341e-05 5.41836e-05 -3.06438e-21)
(0.000342906 5.61543e-07 4.68611e-21)
(-0.00196951 -0.00267701 -2.75818e-21)
(0.00324422 0.0014087 0)
(-0.000609605 -0.00121711 4.60294e-21)
(-0.00259481 0.000299802 3.20166e-24)
(-0.000657716 -0.00219956 0)
(0.000282901 6.1305e-06 -2.3699e-21)
(-0.000959326 -0.00304644 1.45337e-21)
(2.44821e-05 -0.0001471 3.19694e-21)
(4.5749e-05 -3.99718e-05 3.45664e-21)
(1.2354e-05 1.37279e-05 0)
(8.96527e-05 5.86881e-05 -2.32638e-21)
(0.00115977 0.00331013 -3.88036e-21)
(0.00288563 0.0057087 5.603e-21)
(4.70762e-05 4.15523e-05 -2.60621e-21)
(0.000240373 0.000270705 2.57657e-21)
(-0.000140573 -2.99974e-05 0)
(6.08236e-06 -2.13111e-05 0)
(-0.00112941 -0.00019844 0)
(0.000220621 9.77283e-05 -2.5725e-21)
(6.54904e-05 7.46427e-05 -3.98439e-21)
(0.00016183 -0.000101795 2.17497e-22)
(6.06498e-05 5.72684e-05 2.03842e-21)
(-0.00103457 0.00279735 7.78571e-21)
(6.5992e-05 -0.000656056 -3.47553e-21)
(0.000158101 -0.000210881 0)
(7.14309e-05 4.67879e-05 -1.00326e-21)
(4.98259e-05 3.57636e-05 2.86851e-21)
(0.000386702 -0.00156471 0)
(0.000249084 0.000593365 -3.49358e-21)
(0.000122841 -7.37386e-05 -3.02719e-22)
(-3.96631e-07 -2.16698e-07 -1.35884e-21)
(9.15013e-05 5.9008e-05 4.60997e-24)
(0.000438571 0.00278768 -2.45136e-21)
(0.00014772 8.106e-05 2.52246e-21)
(0.000480193 -0.00105838 -3.68805e-21)
(0.00137248 0.00222809 5.41254e-21)
(-0.0025517 0.00534062 -2.87261e-21)
(-0.00376724 -0.0033336 -2.26189e-21)
(1.5067e-05 -0.000122764 5.3226e-21)
(-0.00210005 0.00228699 -4.18158e-21)
(-4.59151e-07 2.19248e-08 -2.21235e-21)
(-0.00253228 -0.00100607 3.18368e-21)
(1.6533e-06 4.69466e-05 0)
(0.000571393 -0.00031135 3.01258e-21)
(0.0007921 -0.000138276 -5.6546e-21)
(0.000312835 0.000157828 -4.91536e-21)
(6.35076e-06 3.59121e-05 1.46126e-23)
(2.00742e-05 9.25646e-07 -3.95199e-21)
(-0.000512469 -0.000355333 0)
(0.000138481 6.02346e-05 0)
(0.000955497 -0.000348116 4.42902e-21)
(0.000768269 -0.00429582 -4.7501e-21)
(-0.000968329 -0.00232711 0)
(6.57637e-05 -6.82865e-05 -2.64555e-22)
(0.000153536 5.66722e-05 4.63761e-24)
(0.000267547 3.80096e-05 0)
(9.26792e-05 -0.000138895 -4.82059e-21)
(0.000574615 -0.000326156 -3.11651e-21)
(-2.37844e-08 2.1013e-06 0)
(0.000393375 -0.000115226 0)
(1.8449e-05 2.76964e-05 1.50276e-21)
(-0.00169751 0.00165572 0)
(3.12154e-05 -4.94691e-07 -3.12271e-21)
(8.17316e-06 -8.82092e-05 3.07357e-23)
(0.00282117 0.000929611 -2.41714e-21)
(2.3673e-05 -1.75804e-05 0)
(1.42278e-05 -9.00286e-05 0)
(5.2746e-05 -6.87738e-05 6.28561e-21)
(7.15587e-05 -0.000176334 -5.1321e-21)
(-1.56283e-08 1.82405e-06 -3.3059e-22)
(-3.15529e-07 5.92671e-06 0)
(0.000195351 -0.000313912 -1.99977e-21)
(0.000140555 9.59162e-06 0)
(0.00187782 0.00188918 0)
(1.69177e-05 -1.69509e-05 0)
(-3.63519e-06 0.000184082 -7.91123e-21)
(0.00044611 1.90428e-05 3.41707e-21)
(0.000152188 -0.000219804 7.19024e-22)
(3.77359e-05 -2.57607e-05 0)
(2.03531e-05 2.36856e-06 0)
(4.64542e-05 0.000160354 -3.99895e-21)
(0.000190483 -8.27471e-05 2.88089e-21)
(-0.00530968 -0.00044806 0)
(0.00131818 0.000591671 1.05941e-21)
(2.02672e-05 -1.66719e-05 -3.16874e-21)
(7.80484e-05 9.06837e-05 -7.61848e-21)
(0.000507724 0.00118984 3.0659e-21)
(0.000309024 0.00209974 0)
(1.94019e-05 7.33716e-06 0)
(8.1308e-06 8.14516e-06 2.75538e-21)
(-0.00146573 4.00567e-05 6.3059e-21)
(-0.000779109 0.0028544 0)
(0.00305668 0.000325391 -1.03253e-21)
(-0.0054018 -0.000383432 1.67945e-21)
(8.98641e-05 -5.56585e-05 0)
(0.000148169 6.87496e-05 2.05418e-21)
(6.75708e-06 -4.11586e-05 4.77341e-21)
(0.00203834 0.00176069 -7.43322e-22)
(-0.00140011 -0.00332428 -2.25258e-21)
(8.85306e-05 0.000196683 0)
(0.000120823 -7.70147e-05 2.89554e-22)
(0.00366417 0.00492545 2.64809e-21)
(-0.000149979 -0.000237206 -2.02419e-21)
(5.48695e-05 4.43579e-05 0)
(-0.000469622 0.000334402 2.50768e-21)
(-0.00551055 -0.000323596 1.83222e-21)
(0.00345564 0.00390656 0)
(7.1423e-05 4.01899e-05 3.04905e-21)
(0.000452852 4.93544e-06 -3.54699e-21)
(0.000384035 -1.16205e-05 4.08405e-21)
(6.67713e-05 5.89789e-05 -7.18779e-21)
(7.59259e-05 8.23102e-05 -1.11968e-21)
(3.65555e-05 -4.20697e-05 -2.175e-21)
(-0.000727119 -0.00303597 -2.79877e-21)
(6.9724e-05 0.00277923 1.18284e-21)
(4.12663e-05 5.32232e-05 0)
(-0.00346672 -0.00352598 1.30323e-21)
(0.0038619 0.00476008 -3.82366e-21)
(-4.86807e-07 5.15388e-07 -3.50783e-21)
(0.000148695 -0.000291273 0)
(2.75539e-05 3.68981e-06 -1.89126e-21)
(0.00120249 0.000644988 1.63622e-21)
(0.000205825 3.01381e-05 -2.87677e-21)
(2.1088e-05 -5.25909e-05 -1.85096e-21)
(0.00119514 -0.000177678 0)
(0.00262138 0.00384793 0)
(0.000213853 2.14207e-05 3.10112e-21)
(0.000737342 -0.000834941 2.89422e-21)
(2.74627e-05 3.1216e-06 2.38447e-21)
(9.06965e-05 -0.000114362 -3.88593e-21)
(8.24127e-05 0.000194896 2.15415e-21)
(0.000159582 -9.93737e-05 -4.28198e-22)
(0.000140912 5.89341e-05 1.39373e-21)
(0.000349847 -0.000382769 2.82133e-21)
(2.67223e-05 6.40808e-06 2.19392e-21)
(0.000370192 4.59119e-05 0)
(2.25599e-06 -4.68101e-05 0)
(0.00146758 0.00345114 0)
(0.000121417 0.000133205 3.72947e-22)
(2.99436e-05 -7.6105e-06 -4.91567e-21)
(0.000535199 -0.000305446 3.55346e-21)
(1.42252e-05 2.20167e-05 -2.526e-21)
(-0.00175858 -0.0025248 2.77199e-21)
(-0.000336813 -0.000141338 0)
(1.83273e-05 8.09261e-07 0)
(0.00387462 0.000260844 0)
(8.16737e-06 9.20443e-06 1.09183e-23)
(8.08858e-05 -4.95207e-05 1.35015e-22)
(4.54615e-05 0.000158967 -3.70266e-21)
(1.85108e-05 1.83689e-06 2.20461e-21)
(0.0002317 0.000293907 -9.6058e-22)
(0.000153359 5.51929e-05 3.11315e-21)
(2.99034e-05 -8.0923e-06 6.26515e-21)
(0.000156307 -9.37399e-05 6.50856e-22)
(4.0598e-05 -4.22217e-05 3.89858e-21)
(0.000234635 0.000891891 -9.97524e-22)
(0.003767 0.00497991 6.5853e-22)
(2.43194e-05 9.03771e-06 2.37453e-21)
(3.64892e-05 -2.23458e-05 -2.51258e-21)
(0.00163342 0.00320677 1.66426e-21)
(-3.29382e-07 4.51292e-06 -1.08684e-24)
(7.8742e-06 9.57253e-06 1.63725e-21)
(-0.000562276 -0.000103675 7.34985e-21)
(0.000138358 -0.000235807 1.95378e-22)
(5.55199e-05 -0.000220101 1.22032e-21)
(0.00037935 0.000300219 2.35562e-21)
(0.000116665 -8.04592e-05 0)
(5.07218e-05 -4.97416e-05 7.43467e-21)
(4.91623e-05 -0.000184591 -2.51568e-21)
(0.00291543 0.00253702 -5.90747e-21)
(-0.00398301 0.0010927 0)
(0.00111501 0.00252226 -5.10179e-21)
(-0.00297743 0.00134218 0)
(-1.04176e-06 1.14805e-05 4.2372e-24)
(0.00167067 0.00276674 -3.64843e-24)
(2.42677e-05 -0.000140078 -3.20953e-21)
(0.000130726 4.98857e-05 2.14862e-21)
(-0.004071 -0.00329775 -1.78757e-24)
(0.00235333 -9.63511e-05 -1.22684e-21)
(0.000406379 -9.93574e-05 3.43289e-21)
(2.53121e-05 8.98491e-06 0)
(0.00240362 -0.000181608 0)
(8.76249e-05 -0.000158654 0)
(0.00124788 -0.00207846 -2.29726e-21)
(0.000884075 0.00177674 0)
(0.000171215 -0.00015144 -4.49996e-21)
(-0.00448668 0.000721909 -1.29154e-21)
(9.1084e-05 -6.44349e-05 0)
(-0.000363302 -0.000164017 0)
(0.000300373 -0.000417215 -1.47219e-21)
(0.00012894 4.96598e-05 0)
(0.00015467 5.89029e-05 3.0972e-21)
(0.000324138 4.60578e-05 -1.76998e-24)
(0.000347226 2.26541e-05 2.69916e-21)
(0.000200732 0.000101818 -6.1559e-21)
(-1.06143e-07 8.20577e-06 1.02675e-21)
(0.00083152 0.00103744 0)
(2.7509e-05 7.6015e-06 -4.12736e-21)
(0.00131186 0.000660805 1.08972e-21)
(0.000321402 -0.000158126 0)
(4.03399e-05 -4.16634e-05 0)
(0.000361172 0.000295735 4.10845e-21)
(-0.00287284 -0.000859279 -3.93333e-21)
(1.11218e-05 -8.96486e-05 3.71408e-21)
(1.7123e-05 -1.50659e-05 2.41382e-23)
(0.00322755 0.00168832 0)
(4.72447e-05 -8.57815e-05 2.78081e-21)
(5.60718e-05 1.5004e-05 0)
(-6.44677e-05 -0.000473892 0)
(-0.000143827 -6.12727e-05 2.04083e-21)
(0.00156211 0.00191276 5.49211e-21)
(0.000201848 2.79075e-05 3.05574e-21)
(4.15254e-06 2.92424e-06 0)
(-0.00271131 0.00137838 0)
(0.00114002 6.457e-05 0)
(0.00154094 -0.000144563 0)
(9.14783e-05 -0.000143534 2.77195e-21)
(0.00020981 1.8155e-05 4.06126e-21)
(0.000364403 -0.000358935 0)
(0.000125742 4.64671e-05 1.93703e-21)
(0.000392006 -0.00165526 -2.95238e-21)
(2.15608e-05 -3.95777e-05 -5.26001e-22)
(-0.000148895 -5.39218e-05 6.39057e-21)
(5.74267e-05 -8.60051e-05 1.30301e-21)
(-0.00100632 0.00575091 2.84376e-21)
(2.55506e-05 -0.000144093 -3.21011e-21)
(0.000194467 7.78819e-05 9.98165e-22)
(-0.000963665 0.0027116 0)
(4.07042e-06 1.54649e-05 0)
(0.000127286 -0.000406209 -3.30973e-21)
(4.63434e-06 1.53732e-05 8.56624e-24)
(5.43708e-05 -7.02196e-05 -3.54558e-24)
(-0.000803554 0.00464224 2.83762e-21)
(6.43045e-05 6.01884e-05 2.98987e-21)
(-0.000464091 -0.000255608 4.63102e-21)
(2.2322e-05 -5.12153e-05 0)
(-0.00418154 -0.00211138 -2.43957e-21)
(5.44321e-05 -5.24052e-05 -3.76466e-21)
(2.19779e-05 -5.49914e-05 1.13698e-21)
(0.000478878 -0.000369301 1.71389e-22)
(1.42769e-05 3.43694e-06 5.39775e-22)
(-0.000145311 -0.00276248 3.89543e-21)
(5.56678e-05 1.80244e-05 0)
(0.000191212 -8.5229e-05 -1.22935e-21)
(7.81156e-06 -9.2513e-05 -3.0663e-23)
(-1.79401e-07 4.48216e-07 -2.28107e-21)
(0.00235467 8.92001e-05 -7.69821e-21)
(0.000171121 -0.000377942 -2.84365e-21)
(0.00726228 0.00488284 -1.46323e-21)
(0.000306715 -0.00282983 2.81987e-21)
(-0.000471896 -0.000234679 -3.37362e-21)
(0.00177594 0.00577592 -8.03364e-21)
(0.000226627 0.00142923 1.24023e-22)
(5.86591e-05 6.07704e-05 0)
(9.13559e-05 6.41593e-05 -3.04681e-21)
(-0.00146862 5.05161e-05 0)
(0.0032525 0.00397619 0)
(3.64162e-05 -2.08123e-05 9.74009e-22)
(-0.000139499 -3.53465e-05 1.33543e-22)
(-0.00348971 0.00122785 4.35467e-21)
(-0.000400817 0.00111561 3.46039e-21)
(0.00020358 7.03217e-05 -5.30886e-21)
(0.000232739 0.000230053 9.31056e-22)
(-0.00116761 0.000903913 4.13692e-21)
(5.17949e-05 1.50866e-05 3.14275e-21)
(-0.000137908 6.11975e-05 6.49471e-24)
(-0.00261954 0.00131704 0)
(0.000406535 -0.000109172 -3.75753e-21)
(0.00101176 -0.00022291 0)
(-0.00105685 0.000856308 -1.44422e-25)
(-5.70337e-06 0.000181319 6.24091e-21)
(0.000145498 4.76884e-05 -5.32906e-21)
(1.12228e-05 1.21205e-05 0)
(0.000508587 0.00263403 -1.42596e-21)
(0.00373396 0.000411786 -1.54647e-21)
(8.49774e-06 8.09725e-06 -4.6794e-21)
(0.000211753 -0.000439918 8.16539e-22)
(0.00321574 0.0019501 -2.42103e-21)
(0.00020054 7.93324e-05 -4.60477e-24)
(-0.000389179 -0.000163817 -9.25155e-22)
(0.000620237 0.000421844 1.43703e-21)
(-0.00303004 -0.000755439 4.83671e-21)
(4.03361e-05 -5.97982e-05 4.6445e-21)
(-7.206e-05 -0.000447722 0)
(0.000320107 -0.000432292 0)
(0.000493571 -0.00179146 -2.20982e-25)
(0.000155444 6.00468e-05 -7.6082e-22)
(3.482e-05 -1.65371e-05 -5.30944e-21)
(0.00280813 -0.001555 4.62029e-22)
(0.00149014 0.000487384 0)
(0.000236712 -6.10917e-05 2.52042e-21)
(1.19593e-05 -8.16261e-05 8.78242e-22)
(0.000363569 0.00017971 -3.27669e-21)
(4.15662e-06 2.59228e-06 0)
(0.000473608 -0.000402931 2.837e-21)
(4.03638e-05 -0.000188897 -1.84714e-21)
(9.50321e-05 6.73854e-05 -2.86722e-21)
(0.000126331 -1.66992e-05 0)
(2.61285e-05 -8.28937e-05 -2.53888e-21)
(0.000124215 6.62555e-05 4.14571e-21)
(0.00026048 0.000871614 0)
(0.000363422 2.13995e-05 0)
(-1.52529e-05 0.000183874 -8.87275e-22)
(0.000467357 0.00029051 -1.19222e-21)
(0.000137093 -2.24575e-05 8.9063e-24)
(0.0018575 0.000507159 0)
(-0.00089397 7.57919e-05 -1.21296e-21)
(4.72369e-06 4.07804e-05 0)
(0.000125112 6.15681e-05 0)
(2.69085e-05 -8.48473e-05 -1.37471e-21)
(1.62171e-05 -4.29286e-05 0)
(0.000338448 -0.002795 7.15461e-22)
(-0.00284038 -0.00279929 0)
(0.000329543 -0.000242009 1.53877e-21)
(2.48946e-05 -3.78659e-05 0)
(4.71988e-05 -0.000184379 4.73742e-21)
(4.94232e-05 -6.12983e-05 0)
(0.000117026 3.19491e-05 0)
(-0.00507196 -0.000553601 1.92158e-21)
(1.73898e-05 -1.63003e-05 5.30355e-21)
(0.000160673 6.79972e-05 -1.76447e-21)
(0.000291786 2.24984e-05 -6.08939e-21)
(4.5065e-06 -1.83974e-05 3.289e-21)
(6.22265e-05 3.00635e-05 3.1424e-21)
(4.64196e-05 3.9716e-05 1.93073e-21)
(9.13447e-05 6.42726e-05 7.91034e-22)
(0.000136813 -0.000231297 -7.38458e-22)
(2.77014e-05 -8.18343e-05 -3.78152e-21)
(-1.10986e-05 0.00040651 -6.38989e-21)
(0.000221382 0.000233929 0)
(-2.04092e-07 2.97862e-07 -1.01879e-21)
(3.41912e-05 -1.3382e-05 0)
(-0.00110906 -0.00227681 -5.83852e-21)
(-0.00288268 -0.00330051 4.3446e-21)
(1.64999e-06 9.09129e-07 0)
(2.84661e-06 1.79886e-05 1.56395e-21)
(1.21525e-06 4.8979e-05 -1.27653e-21)
(-1.97708e-05 0.000441092 -1.98867e-21)
(-5.85258e-06 0.000423909 0)
(0.000751923 -7.42593e-05 4.23662e-21)
(-0.000305959 0.00114987 -4.26219e-21)
(0.000105255 -0.000119144 -3.03964e-21)
(8.29438e-06 -4.32624e-05 0)
(-4.1518e-05 -2.72424e-05 3.61077e-21)
(-0.0037689 -0.00163691 -5.14102e-21)
(5.68721e-05 -0.000169088 -5.82416e-21)
(1.06694e-05 -7.92425e-05 -3.45004e-21)
(2.24631e-05 3.01913e-05 -3.9182e-24)