/*--------------------------------*- C++ -*----------------------------------*\
| =========                 |                                                 |
| \\      /  F ield         | OpenFOAM: The Open Source CFD Toolbox           |
|  \\    /   O peration     | Version:  v2012                                 |
|   \\  /    A nd           | Website:  www.openfoam.com                      |
|    \\/     M anipulation  |                                                 |
\*---------------------------------------------------------------------------*/
FoamFile
{
    version     2.0;
    format      ascii;
    class       volScalarField;
    location    "400";
    object      k;
}
// * * * * * * * * * * * * * * * * * * * * * * * * * * * * * * * * * * * * * //

dimensions      [0 2 -2 0 0 0 0];


internalField   nonuniform List<scalar> 
37190
(
0.000148041
0.0624122
0.000146675
0.000168106
0.0406668
0.000146872
0.000175291
0.000150812
0.00016771
0.000215978
0.000147948
0.0001445
0.000154934
0.000146151
0.0527369
0.000148112
0.000151283
0.000182591
0.0583588
0.000153205
0.000151957
0.000148043
0.0791217
0.000154097
0.000152049
0.000148131
0.000173896
0.00017839
0.000258575
0.0478097
0.0754681
0.000146544
0.000188414
0.000218294
0.000192385
0.00017831
0.000144711
0.000154065
0.000152543
0.000147745
0.000212764
0.036477
0.000151726
0.000191422
0.000148217
0.000203265
0.0359085
0.000239483
0.000146657
0.0423478
0.000149524
0.000148059
0.000163786
0.000161467
0.000148876
0.000149766
0.000214792
0.000144732
0.0372835
0.000144932
0.0358273
0.000178322
0.000143466
0.068997
0.000151669
0.000151896
0.0001462
0.000195221
0.000170461
0.000143486
0.000148936
0.000148763
0.000158187
0.000147137
0.000148142
0.000148496
0.0736253
0.000168323
0.0458709
0.000158353
0.000148387
0.000157926
0.000147097
0.000180467
0.000880126
0.000151211
0.0527135
0.0456311
0.0535295
0.000146555
0.0715242
0.000190454
0.000151933
0.000147121
0.000147704
0.000152111
0.043927
0.000147323
0.000167535
0.0870852
0.000151799
0.000180657
0.0752477
0.0855586
0.000148366
0.000149201
0.0610633
0.000148694
0.0001462
0.064977
0.072654
0.0571456
0.000153199
0.000145341
0.000148772
0.000148069
0.000168587
0.000152572
0.000147758
0.000150897
0.000148019
0.0332823
0.000148156
0.000148739
0.000147834
0.0500882
0.00014535
0.000147764
0.000168571
0.000168799
0.000147738
0.0623242
0.000156634
0.000152236
0.07296
0.000147213
0.000167362
0.000195622
0.000201738
0.000150514
0.000158743
0.000178738
0.000167342
0.000152219
0.000147699
0.000148476
0.0800856
0.000151095
0.000196311
0.00014564
0.000147602
0.000159279
0.000206921
0.000148042
0.0357977
0.000145438
0.0466205
0.000147943
0.0628023
0.000167197
0.000173965
0.000148363
0.0348747
0.0499612
0.000159197
0.000150728
0.0547987
0.000192934
0.0488565
0.000211234
0.000147193
0.0510141
0.000148377
0.000154454
0.0344596
0.00019447
0.000147909
0.000151566
0.000172653
0.000154949
0.00019068
0.000148459
0.000148421
0.00014717
0.0715912
0.000149014
0.00018803
0.000163371
0.0825423
0.000212993
0.000148736
0.000182066
0.000145672
0.000151291
0.000237873
0.000157049
0.00014767
0.00017456
0.0877633
0.0601488
0.000202531
0.000146587
0.000147618
0.000149068
0.0482344
0.000167185
0.000174809
0.000149425
0.000147991
0.0521298
0.000147949
0.0479109
0.000146592
0.00016387
0.064207
0.0863542
0.000196462
0.000194305
0.000218227
0.000148333
0.0373726
0.000144473
0.000148173
0.000165958
0.0680467
0.000148074
0.0442045
0.00014766
0.000163743
0.0211682
0.000151589
0.000148202
0.00014493
0.0525702
0.000161538
0.000187521
0.000184664
0.0306173
0.000143546
0.000148759
0.000171938
0.00014902
0.0474234
0.000148059
0.000147874
0.00657216
0.000147421
0.0406425
0.000189097
0.000186785
0.000147653
0.00018005
0.000148197
0.000157661
0.000156556
0.000148223
0.000181887
0.000148883
0.000166909
0.000147405
0.042133
0.000159873
0.000145577
0.0740364
0.000152062
0.00014615
0.000148884
0.000151641
0.0690896
0.000144813
0.0711455
0.0680931
0.000218239
0.000161334
0.0176856
0.000146999
0.000146833
0.0418268
0.000164943
0.000158788
0.000262834
0.000148756
0.000189439
0.000212676
0.000151873
0.000157673
0.000148693
0.000148737
0.000174259
0.000148245
0.000149209
0.000192576
0.000165617
0.000172382
0.0173839
0.000148074
0.000147593
0.070811
0.000170054
0.000144819
0.0443058
0.000128547
0.000151505
0.000205436
0.000147603
0.000145417
0.00014616
0.000148935
0.000258113
0.000154114
0.000149691
0.0711437
0.000161411
0.000181111
0.0277292
0.0558469
0.000158077
7.63171e-05
0.000165657
0.000145414
0.000148068
0.00015961
0.000216362
0.000148106
0.0836236
0.000206185
0.000179078
0.0878086
0.000147204
0.0886372
0.000163912
0.000169838
0.00014772
0.0177705
0.000206288
0.0448925
9.12753e-05
0.000167495
0.000150885
0.0698969
0.00015029
0.000205244
0.000148751
0.000149688
0.0614461
0.000199514
0.00021125
0.000149695
0.000147395
0.00014541
0.000148705
0.0762381
0.000147295
0.000146873
0.000156995
0.00245071
0.000145991
0.0554111
0.000176536
0.000150599
0.000164608
0.0444027
0.000173346
0.062951
0.000156382
0.000184911
0.000148225
0.000145686
0.000190835
0.0001643
0.000150196
0.00016536
0.000156277
0.000157985
0.000151155
0.000187062
0.000187481
0.000214048
0.000187323
0.0426206
0.0652011
0.000201359
0.037584
0.000166397
0.000173713
0.0545488
0.000174615
0.000163159
0.000186868
0.000159725
0.000149158
0.00019884
0.000158616
0.000148785
0.000151989
0.00014608
0.000439273
0.000155133
0.00014981
0.000193749
0.000145697
0.0729695
0.000151943
0.000148045
0.000152015
0.00014723
0.000146948
0.0407911
0.000150795
0.000145719
0.000148354
0.00012666
0.0490622
0.000148557
0.000147663
0.000147817
0.00017032
0.000147864
0.000144905
0.000146928
0.074343
0.000202162
0.0536739
0.000147622
0.0001449
0.000192393
0.0709068
0.000149841
0.000151235
0.000146949
0.000197154
0.000145827
0.000152005
0.000169302
0.000149086
0.0762016
0.000150756
0.000189924
0.000149075
0.000147852
0.000149795
0.000147143
0.0726182
0.000151392
0.00014814
0.0482266
0.0338113
0.000145692
0.083466
0.000148968
0.000168895
0.000205734
0.000148078
0.0426556
0.000147406
0.0791443
0.000145675
0.000149201
0.000156119
0.000145482
0.0663806
0.00016657
0.000145979
0.00648874
0.000195322
0.000147202
0.000209243
0.00184672
0.00014884
0.000147152
0.000169663
0.071778
0.0869485
0.000207825
0.0140829
0.0840791
0.000164149
0.0746754
0.000149432
0.000146848
0.000145752
0.000149323
0.0513821
0.00261187
0.000146729
0.000164936
0.00479429
0.000148179
0.0235472
0.000166109
0.000151876
0.000156743
0.00014783
0.000209146
0.000189405
0.000161496
0.00014811
0.000146815
0.000204984
0.0335958
0.000151873
0.000149367
0.000149454
0.0478491
0.000168209
0.0399695
0.00280094
0.000116658
0.072384
0.000149064
0.049078
0.000149397
0.0668909
0.000146937
0.000185081
0.0869192
0.000166255
0.000146864
0.000145756
0.0513136
0.000155164
0.000188254
0.00032633
0.00429333
0.000147825
0.000158445
0.000164196
0.000151426
0.000186169
0.000149821
0.000169227
0.000145325
0.0184388
0.000147656
0.00014827
0.0853636
0.000146586
0.000148389
0.000147691
0.000152759
0.00014986
0.00014983
0.000167794
0.000152751
0.0371845
0.000148027
0.000154283
0.000173272
0.000161706
0.000146486
0.000147021
0.000154843
0.00015835
0.0415839
0.000191334
0.000147954
0.000153141
0.000238401
0.0602269
0.000147231
0.000144945
0.021799
0.054098
0.074498
0.0418585
0.000148993
0.000166687
0.000148086
0.0359515
0.00152741
0.000157428
0.000151774
0.000129775
0.000185016
0.000147241
0.000195725
0.0403641
0.0543093
0.000148028
0.000173685
0.000171669
0.000149104
0.000152621
0.000147973
0.0746526
0.0419559
0.000147067
0.0734104
0.0394572
0.000149569
0.000165419
0.000147613
0.000189901
0.000161837
0.000148189
0.000310683
0.0554088
0.00016277
0.000622325
0.000147613
0.000150031
0.000157206
0.000156455
0.000155468
0.000182375
0.000147333
0.000169834
0.000149112
0.0522866
0.000173292
0.000147146
0.000181976
0.000145105
0.0682683
0.0145329
0.000147585
0.060741
0.000144988
0.00014833
0.000154622
0.000147554
0.000178706
0.000158475
0.000147136
0.000173026
0.000146962
0.000181007
0.0353899
0.000147386
0.000147707
0.0577124
0.000149727
0.00014499
0.000195019
0.000161955
0.000158195
0.000179743
0.000151467
0.000147117
0.000151633
0.00178244
0.0371132
0.000205826
0.0372556
0.000143517
0.000212296
0.000149299
0.000152361
0.0699738
0.000205694
0.000169706
0.0001474
0.000206286
0.00015225
0.00264292
0.000196924
0.00015942
0.0313548
0.000149088
0.0160667
0.000177727
0.000152179
0.000158509
0.000167343
0.00016773
0.000160141
0.000143499
0.000188508
0.000147345
0.000191417
0.000166392
0.000146972
0.000179409
0.0379977
0.00014859
0.000147994
0.0876361
0.000148295
0.000147048
0.000187403
0.0083173
0.0374975
0.000161828
0.000144219
0.0371272
0.00018827
0.000558607
0.000151585
0.000162814
0.000181932
0.000151878
0.000207131
0.000148233
0.00703752
0.000148066
0.000499319
0.000149389
0.000162765
0.000207642
0.000144608
0.000175002
0.000144695
0.000147687
0.000744797
0.000148974
0.0215307
0.000148096
0.0194896
0.000147262
0.000148122
0.000182298
0.000146067
0.0702282
0.000147065
0.000158524
0.000148296
0.000149804
0.000205076
0.000172209
0.0300064
0.0743765
0.0199959
0.00213755
0.000190254
0.000147901
0.000149671
0.0250555
0.0546195
0.000147701
0.00577075
0.0372721
0.000187981
0.000161481
0.000163756
0.0604378
0.000146797
0.000183077
0.035731
0.000169743
0.000242566
0.0616905
0.000154201
0.000153735
0.000145507
0.0511649
0.0615834
0.000144941
0.000178353
0.0881507
0.000160179
0.0158601
0.000178649
0.0359546
0.0001481
0.000187202
0.000179914
0.000209582
0.000158647
0.000147305
0.0604581
0.0001932
0.000161154
0.000148584
0.000174157
0.000144234
0.00018473
0.000151658
0.00015059
0.000151492
0.000148562
0.000152854
0.00018101
0.000170024
0.000154099
0.000181736
0.000152521
0.0770758
0.0112805
0.000147057
0.000152324
0.000148576
0.00014831
0.0732384
0.073596
0.000178529
0.000148186
0.000151442
0.000147582
0.000150921
0.0412728
0.000148007
0.000157076
0.000165016
0.000148128
0.000147471
0.000146664
0.000149719
0.000161768
0.000148541
0.000163465
0.000163385
0.000149808
0.000147304
0.0839628
0.0758571
0.000152046
0.000144513
0.000147124
0.000164932
0.000164227
0.0871365
0.000187552
0.000151679
0.000148355
0.00017995
0.0579465
0.000150666
0.000148664
0.000145505
0.000148197
0.000164793
0.000149152
0.000148428
0.000176148
0.000147734
0.0413322
0.0379613
0.000152042
0.000155731
0.000158521
0.000823948
0.000172149
0.000178142
0.000180647
0.0648632
0.000152045
0.00014786
0.00016251
0.0132007
0.000172723
0.000148057
0.000121973
0.000146016
0.00014553
0.000175411
0.000649406
0.000172843
0.000171455
0.000148167
0.000178666
0.000166808
0.0129593
0.000146233
0.00019001
0.000157601
0.000792945
0.000154328
0.000147794
0.0659606
0.000149923
0.0400618
0.0336389
0.000148154
0.000149649
0.0111586
0.000147758
0.000146949
0.042904
0.000145598
0.0503509
0.000148131
0.0649085
0.000172534
0.000203161
0.0737326
0.000149147
0.000148321
0.000149223
0.000147443
0.000147499
0.000161033
0.000149241
0.000147664
0.000166031
0.013298
0.000147674
0.000147673
0.000157649
0.000148126
0.000149704
0.000148131
0.0633679
0.00014881
0.000146097
0.000168853
0.000147947
0.000147304
0.0399881
0.000165037
0.000151739
0.000167312
0.000146079
0.000164966
0.000157338
0.000149792
0.000170127
0.0794948
0.000163534
0.000182821
0.000157287
0.000145296
0.0425597
0.000145598
0.0196541
0.000147035
0.000158218
0.000148173
0.000148368
0.000191858
0.000173575
0.000148376
0.000147064
0.000195898
0.0710251
0.000158007
0.000151843
0.000148525
0.000164538
0.000145439
0.0856609
0.000147159
0.000151259
0.000149362
0.000179589
0.00014708
0.0681738
0.000150692
0.000152691
0.000151781
0.000147886
0.000182464
0.00025886
0.000149571
0.00015806
0.000155799
0.000422714
0.000148221
0.0868068
0.0452196
0.000177504
0.000148589
0.000150557
0.000147965
0.0767174
0.000149929
0.000148577
0.000147432
0.000169524
0.0430283
0.000149761
0.000148787
0.000152829
0.000156802
0.0142903
0.0392004
0.000153164
0.0413512
0.000158548
0.000148001
0.000196303
0.000152557
0.0653608
0.00014926
0.000179844
0.000151933
0.000149622
0.0756168
0.000146992
0.000178265
0.000178577
0.0849734
0.000148051
0.000182228
0.00015511
0.0651352
0.000243377
0.000146777
0.000149198
0.00016135
0.00904628
0.000178936
0.000172699
0.000149743
0.0803824
0.000145016
0.000192758
0.000148727
0.000152542
0.000150869
0.000169386
0.000152082
0.000193384
0.0359325
0.000146733
0.000146888
0.000145706
0.0753414
0.000149825
0.000152919
0.000167453
0.000209658
0.000159778
0.063209
0.000153868
0.0736706
0.000149361
0.000145053
0.000163125
0.000148146
0.03415
0.000147137
0.000154535
0.000148201
0.000970197
0.0769444
0.000148518
0.000175895
0.000163505
0.000180035
0.00014739
0.000144816
0.000148782
0.000145113
0.0344551
0.0332925
0.000178067
0.00014962
0.00018806
0.000157314
0.000149182
0.000154455
0.000152956
0.000176971
0.0259657
0.000147403
0.000147889
0.000148662
0.000188376
0.000162349
0.0530668
0.0742186
0.0215086
0.000174132
0.000145389
0.0577684
0.000175066
0.000149416
0.000148105
0.000165634
0.000148588
0.00016328
0.000148637
0.000124405
0.000157345
0.000150859
0.000154274
0.0456047
0.0130081
0.000239065
0.0444654
0.0720882
0.000149207
0.0262323
0.000150994
0.0322477
0.00014962
0.000170276
0.0376443
0.0367808
0.0104492
0.000146749
0.000148745
0.0363543
0.0725751
0.000149721
0.000154135
0.00016669
0.000150844
0.000154365
0.00015228
0.0338438
0.000166304
0.00014731
0.000147364
0.000154257
0.000103674
0.000148194
0.0372314
0.000157459
0.000178782
0.000192691
0.000146836
0.0683054
0.0790972
0.000144283
0.000148143
0.000148674
0.000146945
0.0848458
0.000148494
0.000145496
0.0511214
0.000147585
0.00015787
0.000148046
0.0440726
0.000155438
0.000161171
0.0754398
0.000148372
0.000147907
0.0400757
0.000157942
0.000147352
0.000147581
0.000177752
0.0397024
0.000149756
0.000145249
0.000147227
0.000174234
0.00131306
0.000148341
0.0608151
0.000163362
0.000151973
0.000253379
0.000155087
0.000172114
0.000150987
0.000212893
0.000173326
0.0742755
0.000144278
0.000151008
0.000149211
0.000147648
0.00015181
0.00014702
0.00015574
0.000191067
0.000213729
0.000147393
0.00053129
0.000149312
0.000209687
0.000148744
0.0589549
0.0398268
0.000164892
0.00014648
0.000147397
0.000147578
0.000145063
0.000153965
0.000148119
0.0366844
0.000233829
0.0501059
0.000173471
0.000174659
0.000190598
0.000148037
0.0378465
0.000198607
0.000148057
0.000215418
0.000158206
0.0384049
0.000151679
0.000151833
0.0720465
0.000152428
0.000147744
0.000161984
0.000148559
0.000148157
0.0750192
0.000172888
0.000147381
0.000148065
0.000147583
0.0356623
0.000148698
0.000148139
0.000147903
0.000143549
0.000194125
0.000145617
0.000146319
0.0478916
0.000148133
0.000147935
0.0775931
0.0488942
0.0109353
0.0730882
0.000155932
0.0287999
0.000170458
0.000163167
0.0506424
0.000198823
0.000168901
0.000149064
0.000150572
0.000168939
0.0169122
0.0482874
0.000150634
0.000148641
0.000148024
0.000147637
0.000183337
0.000176227
0.000148048
0.000149207
0.000173445
0.000145392
0.000217986
0.00014812
0.000409236
0.000191887
0.000146986
0.000166596
0.000154104
0.000158086
0.000156756
0.000155654
0.000163702
0.0474749
0.000212081
0.000146964
0.000149104
9.32535e-05
0.000151564
0.073887
0.000147442
0.000149683
0.000148104
0.000205056
0.000146775
0.000164031
0.0358851
0.000149814
0.000178313
0.0588859
0.000112774
0.000147962
0.000144594
0.000155603
0.000147342
0.000147668
0.0431171
0.00261961
0.00015053
0.0233265
0.00022629
0.000174359
0.000189693
0.000151542
0.000147762
0.000232012
0.000170963
0.000189292
0.000169756
0.000148737
0.000146878
0.000176006
0.000145038
0.000147492
0.000194441
0.000147519
0.0873864
0.000168408
0.00015401
0.072079
0.000155135
0.000145667
0.00020946
0.00015616
0.000187435
0.000147875
0.000148389
0.000169771
0.000148145
0.000200401
0.000146295
0.000146921
0.000148135
0.000148443
0.000146052
0.00014749
0.000146986
0.000184527
0.0297333
0.00014702
0.000189238
0.000160393
0.000160846
0.0671677
0.000149543
0.000151579
0.00809708
0.000166357
0.000170192
0.00015531
0.000147383
0.000153084
0.000677303
0.00168436
0.000144968
0.000167784
0.00014412
0.000192539
0.0341027
0.0359219
0.000177926
0.000148029
0.000154161
0.000158385
0.0719548
0.000156022
0.000148163
0.000173051
0.000175425
0.0149263
0.000148049
0.00015273
0.000168323
0.000148179
7.82383e-05
0.0217479
0.00014764
0.00015251
0.000156597
0.000145152
0.0886394
0.000149564
0.000148017
0.000149832
0.0583857
0.0503089
0.000147805
0.000220476
0.000148494
0.000145744
0.000153977
0.0693247
0.000147969
0.0590192
0.000151548
0.000147572
0.00014835
0.000201394
0.000188444
0.000163388
0.000244934
0.000143678
0.0108941
0.0560491
0.0740043
0.000173545
0.000158246
0.000143546
0.000149779
0.0363158
0.000172395
0.000148273
0.000205757
0.000146496
0.000147459
0.000189712
0.000150947
0.000145984
0.000150715
0.000147199
0.000124101
0.000148086
0.0597498
0.000191187
0.0451387
0.000147996
0.00021637
0.0777206
0.000150765
0.0437973
0.000148586
0.000151245
0.0684946
0.00014966
0.000146165
0.000159711
0.000151729
0.000148465
0.00015429
0.0735947
0.000149866
0.0454235
0.000157421
0.000146022
0.00015648
0.000319015
0.00014537
0.0394762
0.000152501
0.000170238
0.000152169
0.000147683
0.000149567
0.000211098
0.0791305
0.000179132
0.000144088
0.000165535
0.077637
0.000148549
0.00018587
0.000162362
0.00014696
0.000488117
0.000163675
0.000148196
0.0450847
0.0522673
0.00015226
0.000168261
0.0465916
0.000209884
0.000147379
0.000148104
0.000150015
0.000157744
0.000154324
0.000205756
0.000149504
0.000148068
0.000146815
0.000147665
0.000148483
0.000177945
0.000149842
0.0593129
0.0746944
0.00669749
0.000186538
0.0598651
0.000153184
0.000206423
0.000147651
0.000147439
0.000146548
0.0163032
0.000147453
0.000212048
0.000163597
0.000166754
0.000152517
0.000194551
0.0444043
0.000153659
0.000148822
0.000144583
0.000147774
0.000169127
0.000148101
0.000147783
0.002274
0.000147637
0.0618287
0.000146803
0.000150004
0.000167084
0.0744689
0.000149017
0.000170719
0.000779649
0.000169842
0.000215032
0.000170257
0.000150542
0.000148663
0.000157131
0.000187485
0.0344712
0.00015056
0.000150524
0.000148157
0.000149107
0.000150992
0.0230151
0.000147645
0.009434
0.0850334
0.000170188
0.000164353
0.000158034
0.000211416
0.000191754
0.000148321
0.000150636
0.000221888
0.000148455
0.000148204
0.000176483
0.000156207
0.000213185
0.000148704
0.000147557
0.000170945
0.00014989
0.000148497
0.0480687
0.0317117
0.000209774
0.000147855
0.000147987
0.000146164
0.00014877
0.0616926
0.000148246
0.000146561
0.057717
0.000146476
0.000196418
0.000238769
0.0410054
0.0614627
0.000200939
0.0545368
0.000198604
0.000218946
0.0612155
0.000143722
0.0621065
0.000160363
0.00014749
0.000159414
0.065033
0.000148395
0.000147793
0.000147858
0.000146562
0.000145675
0.00022188
0.000205991
0.000154675
0.000208172
0.0633033
0.00014663
0.0364103
0.0741352
0.000171336
0.000150138
0.000148287
0.000154081
0.000153753
0.000154979
0.000158427
0.000168728
0.000204649
0.000197829
0.000147539
0.0557341
0.000154896
0.000208016
0.00014846
0.00014734
0.000149855
0.000202878
0.000165928
0.000147621
0.0556819
0.000147916
0.0189335
0.000182061
0.000166448
0.00024014
0.000152989
0.000173055
0.000147404
0.000155423
0.000146845
0.000148722
0.000169752
0.000163092
0.00015613
0.000116012
0.000147667
0.000147421
0.000148647
0.000148767
0.0001487
0.00015034
0.000151572
0.0561626
0.000152042
0.000146543
0.000148294
0.000163448
0.00193647
0.000230806
0.0108264
0.000165107
0.000150814
0.00014486
0.000155419
0.000147016
0.000144564
0.000148514
0.00015768
0.0724752
0.000205086
0.000166566
0.000161564
0.00228044
0.00422771
0.00014982
0.000147052
7.41126e-05
0.000148671
0.000147427
0.000166392
0.000172554
0.00017039
0.000150565
0.000146207
0.000151226
0.000149143
0.000148214
0.000150781
0.000169104
0.000152219
0.000146907
0.000146935
0.000149601
0.000195701
0.000174758
0.000168904
0.0616863
0.000147038
0.000144193
0.000151282
0.000150611
0.000166292
0.000147432
0.000150084
0.000167994
0.000222133
0.01408
0.000149113
0.000145988
0.000371377
0.0448567
0.000173777
0.0548124
0.000204896
0.00014772
0.000162213
0.0859194
0.000148059
0.000247802
0.000147037
0.0396103
0.000196216
0.000152918
0.000147094
0.000196815
0.0610062
0.00017269
0.000196999
0.000197799
0.000173838
0.000158799
0.000165016
0.000142906
0.0494799
0.0703988
0.000160784
0.000146518
0.0602611
0.000198547
0.000172949
0.000167487
0.0608691
0.000149166
0.000146759
0.000148244
0.0388581
0.000183748
0.000353922
0.00015476
0.00018611
0.000148867
0.000148911
0.000151273
0.000144029
0.000429935
0.000154562
0.000147007
0.000178526
0.0588693
0.000149564
0.000159258
0.0290883
0.0766354
0.0659964
0.0451606
0.0573063
0.000210323
0.000146169
0.000182036
0.00387309
0.0613972
0.000144
0.000154415
0.000146766
0.000155658
0.00014729
0.000144158
0.000147885
0.000203392
0.000148035
0.0729705
0.0731999
0.000147642
0.000148698
0.000189286
0.00016427
0.000147071
8.8017e-05
0.000147618
0.000198218
0.000173693
0.000203684
0.000156467
0.000173821
0.000167164
0.00014693
0.000168079
0.000179637
0.0497825
0.000147062
0.0241938
0.000151282
0.000147665
0.00015462
0.000193509
0.000176731
0.0559444
0.000148825
0.000150614
0.00014818
0.000193926
0.000154915
0.000163985
0.000147463
0.00408548
0.000143511
0.000144477
0.0671974
0.0850893
0.00014804
0.0621901
0.0434747
0.0494726
0.0783644
0.0558567
0.0873089
0.000148229
0.000149444
0.000148152
0.000148011
0.0462953
0.000169148
0.000171912
0.0551255
0.00014868
0.000149645
0.000186272
0.0625699
0.000168715
0.00015028
0.000156349
0.000147384
0.000148604
0.000193192
0.000149736
0.000207655
0.000148354
0.000173702
0.000152196
0.0174017
0.000216465
0.000145501
0.000148063
0.000148158
0.000204437
0.00018845
0.00015056
0.000148112
0.000179102
0.00014844
0.000153315
0.000156553
0.000204217
0.000162139
0.000174278
0.000145556
0.000147731
0.000151318
0.000162185
0.000189516
0.000189337
0.000149724
0.000150504
0.000169309
0.0344964
0.0671142
0.000145056
0.000158354
0.000144942
0.0587575
0.000152977
0.000149928
0.000154282
0.000193163
0.0479741
0.00015594
0.000162289
0.000146134
0.0626306
0.000174931
0.000147261
0.000100437
0.000162362
0.00015957
0.00016574
0.000141332
0.000162159
0.000246867
0.00977673
0.000156197
0.000147052
0.000106358
0.000146988
0.000146173
0.000147353
0.000519198
0.000149963
0.000145618
0.000181375
0.000163153
0.000149011
0.000155977
0.000148233
0.000146916
0.0377218
0.000170595
0.00021242
0.000175377
0.000176055
0.0001482
0.051461
0.000186368
0.000178712
0.0181285
0.000146884
0.000148729
0.000168967
0.000181856
0.000148086
0.074374
0.000209821
0.000162549
0.0638382
0.044386
0.000145518
0.000212854
0.000186457
0.0736458
0.000152776
0.000164746
0.000145989
0.000164313
0.000146661
0.000178193
0.000195708
0.000148061
0.000146161
0.000145462
0.000188888
0.000172996
0.000173104
0.0431297
0.0404255
0.000145424
0.0241341
0.000149208
0.000148668
0.000146646
0.000143722
0.000149371
0.000151706
0.000148154
0.000177714
0.000149034
0.000152181
0.0675388
0.000148072
0.000204674
0.0427966
0.000196965
0.0640322
0.0313615
0.000158635
0.000190187
0.000148235
0.000270724
0.000144984
0.000147551
0.000147629
0.000148131
0.0607331
0.000148911
0.000209167
0.000145623
0.000173611
0.00015068
0.000162551
0.000152912
0.000150093
0.000156017
0.000144462
0.000147754
0.0634835
0.000148868
0.000167534
0.000155914
0.000152095
0.000172884
0.000148627
0.00014996
0.000190835
0.032681
0.0732924
0.0735602
0.0730407
0.00018511
0.000147537
0.000148353
0.000173174
0.0286468
0.000179086
0.000509449
0.000147914
0.000147312
0.000175733
0.000146017
0.00613447
0.0336527
0.0690233
0.000146636
0.000149638
0.000144795
0.000146471
0.0604671
0.000148276
0.000149697
0.000164199
0.0579116
0.000150119
0.000147852
0.000147365
0.0673396
0.000149881
0.000155743
0.0649552
0.000480084
0.000189725
0.0509906
0.0197368
0.04417
0.000148161
0.0465316
0.000149327
0.000147863
0.000178818
0.0654098
0.000203445
0.0691274
0.000145535
0.000147608
0.000147281
0.000180985
0.000477029
0.00016277
0.0349208
0.000157356
0.0762625
0.0761294
0.00014817
0.000195055
0.000155409
0.000155127
0.000166176
0.000145813
0.0326693
0.0406365
0.000149682
0.000148147
0.000127222
0.000150052
0.000150561
0.0568223
0.000202337
0.000148472
0.000148155
0.000148815
0.000148146
0.0732712
0.000158076
0.000147687
0.000146147
0.0631379
0.000146824
0.000148774
0.0373551
0.000147348
0.000196168
0.000471955
0.000158145
0.000152766
0.000162494
0.0672844
0.000145047
0.000153281
0.0262699
0.000179017
0.000148708
0.000196894
0.00017382
0.000153094
0.0646029
0.000155112
0.0424941
0.000148076
0.000148153
0.000148988
0.000148104
0.000154327
0.000163859
0.000206104
0.000147201
0.000166581
0.000154196
0.000248889
0.000149912
0.000148862
0.000143545
0.0700188
0.0465039
0.000166044
0.000146491
0.000166493
0.000147481
0.000158401
0.000147748
0.0744734
0.00017833
0.00014672
0.0773027
0.0597815
0.000147227
0.000148524
0.0362585
0.000167056
0.00014619
0.0592215
0.072927
0.000146166
0.000147657
0.000519172
0.0455871
0.000214519
0.000148169
0.000207806
0.0527246
0.000164997
0.000145579
0.000171918
0.000143558
0.0815225
0.000150523
0.00015619
0.0557375
0.0398992
0.000148865
0.000148637
0.0400092
0.0743374
0.000147442
0.000149659
0.000148831
0.00014822
0.000147452
0.00017465
0.0333443
0.000151888
0.000207958
0.0001766
0.000165064
0.00014953
0.000148636
0.000145053
0.0682305
0.0587166
0.000169799
0.00019397
0.000152441
0.0768562
0.000190914
0.000158246
0.000148563
0.000148702
0.000213354
0.0728192
0.000145928
0.000159422
0.00014488
0.000147371
0.031127
0.000189602
0.000156398
0.000146886
0.00014667
0.059598
0.00032765
0.000150689
0.000162925
0.000170682
0.0420801
0.000152891
0.000177936
0.0884692
0.00016674
0.000147731
0.000168751
0.000179118
0.000146878
0.000147844
0.0799329
0.000191548
0.0364522
0.000187107
0.000152518
0.0354309
0.000151688
0.000189503
0.000146017
0.000159303
0.000148132
0.000162375
0.000147829
0.0688299
0.000146551
0.00014833
0.0029132
0.00017122
0.000207605
0.000148079
0.000147454
0.0712147
0.000206855
0.000186775
0.000154344
0.000209795
0.000217817
0.000209346
0.000170086
0.041569
0.0371131
0.070214
0.00014809
0.000145551
0.000147639
0.000172174
0.000202706
0.000147673
0.000156926
0.0414198
0.0489472
0.000149862
0.0389716
0.00015685
0.000178867
0.000168693
0.000148964
0.000146756
0.00017707
0.000156778
0.000201004
0.000152895
0.000148902
0.0506563
0.0679779
0.00014599
0.000178923
0.00014895
0.000148342
0.000155691
0.0300379
0.000165025
0.000147883
0.00015071
0.00102236
0.064554
0.000169071
0.0812704
0.000165844
0.0626639
0.000149837
0.000148677
0.000147801
0.00014807
0.000204191
0.000181854
0.000148072
0.000166429
0.000156244
0.00458875
0.000204821
0.000147712
0.000148201
0.000150598
0.000158133
0.0458643
0.0426489
0.000156389
0.0586745
0.000193878
0.000147592
0.000167719
0.000146546
0.000147102
0.00015732
0.000150736
0.000156929
0.000166708
0.000145879
0.000147737
0.000151931
0.0843957
0.000148096
0.000150686
0.081749
0.000210494
0.000181712
0.000147963
0.0757414
0.000148557
0.000229733
0.0692737
0.0783597
0.000155546
0.000161707
0.000151209
0.000151103
0.0202971
0.0599445
0.0399393
0.000158142
0.000145222
0.000171068
0.000150636
0.000148051
0.047603
0.000162919
0.000164962
0.000146908
0.000154505
0.00015947
0.000248461
0.000147087
0.000168692
0.00973995
0.000148314
0.000151411
0.000173061
0.000151167
0.0344757
0.000147566
0.000150131
0.000147376
0.000157329
0.00014525
0.000145138
0.0703442
0.0493554
0.0641857
0.000168349
0.000213859
0.0885282
0.00015435
0.000176098
0.000148674
0.000147715
0.000164326
0.000161967
0.000200546
0.0770099
0.0650487
0.000151568
0.000147269
0.000174952
0.000147664
0.000159453
0.0311998
0.0359403
0.0470832
0.0497549
0.000151485
0.078002
0.000181348
0.000146705
0.0251796
0.000168823
0.000154592
0.000148094
0.0817451
0.000148944
0.000178318
0.000180734
0.0541397
0.000149126
0.000180435
0.0377305
0.000178882
0.000154228
0.0487424
0.00014706
0.000145128
0.000152655
0.000147695
0.0565708
0.0777436
0.000212561
0.000148891
0.0253327
0.000151045
0.000162589
0.000188482
0.00016121
0.000179586
0.000143926
0.000148738
0.0532378
0.000208313
0.0209025
0.000146888
0.000152458
0.000166773
0.000147394
0.000144832
0.00015114
0.000149548
0.000146346
0.000213035
0.000161146
0.00015288
0.000155121
0.000175316
0.0590735
0.0574094
0.000158223
0.000457189
0.000176943
0.000158031
0.000147678
0.000152803
0.0405413
0.00469515
0.0432971
0.000159122
0.000148631
0.000149938
0.000160074
0.000149834
0.000148099
0.0639689
0.00137283
0.000146236
0.0306816
0.0875263
0.000144179
0.000145125
0.000152642
0.000150381
0.000187201
0.000181029
0.000202861
0.000210094
0.000195793
0.0536566
0.000170619
0.000146841
0.000148893
0.033388
0.000167235
0.000172237
0.000165933
0.0716499
0.000146881
0.000214368
0.000150593
0.000148033
0.000152339
0.000188939
0.000187124
0.000147737
0.000148076
0.0710977
0.000158992
0.000158366
0.0737499
0.0490984
0.000171896
0.000148079
0.000176468
0.000145115
0.000151613
0.00673689
0.0544544
0.00017907
0.000189547
0.000151932
0.000174294
0.000163905
0.000209649
0.0692993
0.000171265
0.00014521
0.0658658
0.000152708
0.000150567
0.000147884
0.000146499
0.0483904
0.000176502
0.00014598
0.000207997
0.000212967
0.000171032
0.0450138
0.000195472
0.000147373
0.000159611
0.0365317
0.0327715
0.000173088
0.00017301
0.000151713
0.00795658
0.000147091
0.0326
0.000146385
0.000147386
0.000217785
0.000168125
0.000151817
0.000147728
0.000147325
0.0373487
0.000186324
0.000147095
0.000148169
0.000187656
0.000150417
0.000411003
0.000146976
0.0468498
0.000194493
0.000151534
0.0570272
0.000147305
0.000158962
0.000148166
0.0644528
0.000177436
0.000172541
0.00015037
0.000185521
0.000147115
0.07496
0.000148284
0.000146892
0.000158386
0.00802108
0.0606615
0.000164921
0.000168188
0.00014774
0.000158951
0.000157593
0.0391393
0.000149714
0.000145784
0.0418166
0.000174975
0.000150738
0.000146958
0.000242284
0.00015272
0.0155524
0.00018589
0.000145936
0.000150774
0.000137068
0.065582
0.0344754
0.000186424
0.000147381
0.000148345
0.000154675
0.000184566
0.000148352
0.000175274
0.000161972
0.000197535
0.000172522
0.0631491