/*--------------------------------*- C++ -*----------------------------------*\
| =========                 |                                                 |
| \\      /  F ield         | OpenFOAM: The Open Source CFD Toolbox           |
|  \\    /   O peration     | Version:  v2012                                 |
|   \\  /    A nd           | Website:  www.openfoam.com                      |
|    \\/     M anipulation  |                                                 |
\*---------------------------------------------------------------------------*/
FoamFile
{
    version     2.0;
    format      ascii;
    class       volScalarField;
    location    "400";
    object      nut;
}
// * * * * * * * * * * * * * * * * * * * * * * * * * * * * * * * * * * * * * //

dimensions      [0 2 -1 0 0 0 0];


internalField   nonuniform List<scalar> 
37190
(
0.00583933
0.0147504
0.00589069
0.000139163
0.0105571
0.00584472
0.000686575
0.00114537
0.000161231
0.00109904
0.00584283
0.00583876
0.000702885
0.00584918
0.00998147
0.0033708
0.00106798
0.000430042
0.0121051
0.000176058
0.00109063
0.0058398
0.00915279
0.00240925
0.000899648
0.00315944
0.000518492
0.00130681
2.87892e-05
0.00972024
0.0130941
0.00583282
0.00162726
0.00105692
0.000858544
0.00118683
0.00584855
0.00243189
0.00236253
0.00441312
0.00113977
0.00769184
0.000956854
0.000659464
0.00583473
0.000417313
0.00632945
0.000261011
0.00589113
0.0111502
0.00163252
0.00343769
0.00191413
0.000200984
0.00583397
0.00297088
0.00112456
0.00584854
0.0104498
0.00583521
0.00986941
0.00109954
0.00582969
0.0152248
0.000907602
0.000781236
0.00584123
0.000383916
6.7404e-05
0.00582971
0.00583403
0.00233762
0.00122907
0.00584879
0.00328366
0.00255449
0.0152142
0.000533358
0.0111367
0.000966768
0.00583238
0.000459231
0.0058475
6.26197e-05
0.00019151
0.000985519
0.0138978
0.00965733
0.0111182
0.00583286
0.0153054
0.00166469
0.000823074
0.00585008
0.00584304
0.000806104
0.0104704
0.00583248
0.000146131
0.00848221
0.000866303
0.000127904
0.0154704
0.00915524
0.00583351
0.00199843
0.0148677
0.00583333
0.00584071
0.0115959
0.0121032
0.0114375
0.00217678
0.00586115
0.0033581
0.00583529
0.000548237
0.0023034
0.00455782
0.001476
0.00399433
0.00952349
0.0058355
0.00248781
0.00583359
0.0124669
0.00586094
0.005833
0.000580705
8.05634e-05
0.00583311
0.0148576
0.00152669
0.000838486
0.0148687
0.00515301
0.000268672
0.000385954
0.000412528
0.00113485
0.00144178
0.00129303
0.000160079
0.000754554
0.00584234
0.0026779
0.0133291
0.00144845
0.000359544
0.00585684
0.00583569
0.000317885
0.000664658
0.00583148
0.00987138
0.0058396
0.0114264
0.00584229
0.0150123
0.00030176
0.000299338
0.00336955
0.00782574
0.0136622
0.000315965
0.00159237
0.0095271
0.000554052
0.0134105
0.00121926
0.00489806
0.013685
0.00337593
0.00087656
0.0100531
0.00106941
0.00353209
0.000902182
0.000213345
0.00232434
0.000579587
0.00583348
0.00583342
0.00588797
0.014738
0.00583393
0.00194578
0.00097455
0.00984365
0.000586493
0.00583348
0.000417303
0.00586564
0.00312251
0.000718832
0.0016135
0.00458142
0.000549212
0.0102172
0.0125993
0.000148068
0.00587438
0.00583531
0.00583429
0.0135352
0.000547122
0.000575568
0.00163729
0.0041772
0.0138871
0.00584015
0.0134281
0.00587385
0.000623773
0.0150684
0.0107849
0.000396723
0.000353099
0.00103731
0.0058325
0.010539
0.00583785
0.00453783
9.93351e-05
0.0150216
0.00583992
0.0105644
0.0058426
0.000503705
0.00449093
0.000880831
0.00375101
0.00583469
0.0139264
0.000327105
0.000672511
6.73481e-05
0.00690975
0.00582896
0.00304554
0.000203816
0.00583398
0.0134361
0.00331261
0.00361246
0.00139285
0.00583248
0.0104973
0.00166024
0.000496371
0.00406078
0.00114647
0.00425235
0.000439465
0.000870194
0.00583466
0.00040249
0.00583375
0.000278982
0.00583216
0.0110254
0.00125333
0.00585572
0.0103465
0.00205459
0.00583967
0.00589228
0.000889648
0.0149999
0.00584958
0.0089371
0.0105613
0.00105626
0.000201893
0.00409338
0.00590036
0.00585651
0.0102198
0.00149651
0.0014181
2.81841e-05
0.002452
0.000286573
0.00114034
0.00200182
0.00127558
0.00517901
0.00254341
0.000636425
0.00583444
0.00468357
0.000976068
9.99314e-05
0.000571073
0.00403989
0.00584146
0.0043195
0.0148691
0.000941091
0.00584911
0.0106165
0.000126714
0.00089453
0.00106027
0.00558252
0.00586098
0.00584039
0.00583378
0.000143153
0.00100081
0.00583577
0.0151084
0.000370979
0.00014106
0.00582622
0.00367291
0.000384782
0.000209124
0.000211682
0.00586149
0.0058403
0.000231787
0.00109695
0.00345538
0.0115
0.00107018
0.000453813
0.00895175
0.00583079
0.00939877
0.000408344
0.000965616
0.0039143
0.00360972
0.000714766
0.0113267
0.000168902
9.93984e-05
0.00196754
0.0152321
0.00159535
0.00126308
0.00312513
0.00318784
0.0148974
0.000141464
0.00121812
0.00583589
0.00583699
0.00585481
0.00583362
0.00954574
0.00490513
0.0058989
0.000469359
0.000681171
0.00583692
0.011048
0.000298286
0.00125017
0.000315243
0.0106195
0.000325324
0.0150161
0.00054849
0.000469401
0.0038189
0.00582947
0.000941578
0.000536367
0.00132272
0.00010336
0.000619973
0.000197257
0.00125216
0.00175351
0.000482718
0.000550131
0.00052109
0.00996454
0.00589842
0.000308553
0.00803659
0.000431408
0.000672236
0.0116141
0.000546409
0.000486536
0.000668739
0.000219426
0.00500909
0.00144413
0.000828819
0.00319049
0.000819346
0.00583681
0.000303797
0.000660931
0.00583609
0.000351103
0.00582955
0.0153334
0.00111813
0.00389014
0.000911615
0.0058307
0.00582984
0.0106167
0.00207895
0.0058298
0.00265495
0.000135414
0.00346517
0.00447812
0.00422925
0.00586451
0.000917639
0.0058335
0.00584963
0.00583148
0.0145022
0.000298303
0.010354
0.00583948
0.00585011
0.000347996
0.0149369
0.0058361
0.00125494
0.00583991
4.16516e-05
0.00583179
0.000989227
0.000175733
0.00195705
0.00889501
0.00592673
0.000257327
0.00195869
0.00400956
0.00156696
0.00588663
0.0152607
0.000977464
0.00337088
0.0134686
0.00709047
0.00583253
0.0109119
0.00201984
0.000893683
0.00113205
0.00583498
0.0112966
0.00583279
0.00669517
0.00586494
0.00583422
0.00107733
0.00585598
0.0150887
0.00115024
0.00585969
0.00193634
0.000387953
0.00583082
0.00127885
0.000654691
0.0025342
0.00587743
0.000893998
0.0145887
0.00954874
0.000538705
0.00307636
0.0115632
0.000330385
0.0147394
0.00167561
0.00584458
0.00586547
0.0024295
0.0136509
0.00092114
0.00586069
0.0013989
0.000945387
0.00446775
0.00534685
0.000523739
0.00248481
0.000474034
0.00355782
0.00126386
0.000519775
0.00020714
0.00339596
0.00586079
0.000525317
0.00731974
0.000978128
0.00583467
0.00227484
0.00905359
0.000569304
0.00913395
0.000882474
0.000258157
0.0111035
0.00207717
0.0135955
0.00583476
0.010536
0.00590245
0.000102981
0.0133178
0.00112948
0.00589809
0.00583097
0.00381263
0.00114626
0.00068105
0.00019116
0.00110586
0.003725
0.0008569
0.000383382
0.00102558
8.94679e-05
0.00583602
0.000181943
0.00583778
0.00404646
0.00583829
0.0058344
0.0083663
0.00583246
0.00583351
0.00425162
0.000725507
0.00583616
0.00583614
9.39598e-05
0.000978611
0.0110124
0.00583139
0.00245197
0.000916691
0.000175269
0.00583867
0.00583139
0.00211484
0.000416941
0.0107345
0.000877025
0.00583997
0.00235097
0.000452857
0.0120942
0.00583084
0.00584785
0.00377559
0.013885
0.00607633
0.0108796
0.00205368
0.00058887
0.00583791
0.0105441
0.000563835
0.00181675
0.00101467
0.000187045
0.000476092
0.00538022
0.000374109
0.0103414
0.0099647
0.00354246
0.000838854
0.000883225
0.00277124
0.00216618
0.00427095
0.0144987
0.00820287
0.00587605
0.00985309
0.00759621
0.00583548
0.000106397
0.00583336
0.000934979
0.0010198
0.00583283
0.000264362
0.0109558
0.000962753
0.000139763
0.0058334
0.00149855
0.00196118
0.000497864
0.00119463
0.000626466
0.00583381
0.00103529
0.00583438
0.0135793
0.000408762
0.00583563
9.00702e-05
0.00583502
0.0151496
0.00332397
0.00583058
0.0145547
0.00585
0.00309242
0.00216913
0.00583054
0.000306328
0.000871792
0.00583553
0.000680288
0.00584195
0.00135184
0.00722513
0.00583225
0.0058454
0.0113989
0.00583588
0.00585063
0.000402218
0.000182867
0.000280476
0.00025057
0.00106968
0.00584938
0.000879006
0.000765036
0.0100082
0.0011033
0.0102871
0.00582902
0.00106016
0.00173155
0.00118592
0.0102193
0.000667459
0.000164731
0.00583257
0.00075056
0.000857119
0.00092359
0.00130767
0.000297432
0.00731588
0.00217819
0.00369875
5.55934e-05
0.00133809
0.00084089
0.000296252
0.000265072
0.00128923
0.00582753
0.00111778
0.00583379
0.000896746
0.000174693
0.00584153
0.000277321
0.00877312
0.00583349
0.0058313
0.00879678
0.00309501
0.00567733
0.00050217
0.00160836
0.0110803
0.00106523
0.00583083
0.0102844
0.000772536
0.000167811
0.000915736
0.00102671
0.000630653
0.00131595
0.000544182
0.00351846
0.00151273
0.00337781
0.000388906
0.00168768
0.000521888
0.00131605
0.00584783
4.85262e-05
0.00584938
0.0043355
0.000461218
0.00346621
0.00494407
0.00583352
0.00391315
0.00561251
0.00583353
7.80354e-05
0.00584786
0.0151758
0.00531663
0.000409721
0.00583409
0.00583595
0.000714744
6.13717e-05
0.00737275
0.0152241
0.00467009
0.000930366
0.00137949
0.00414498
0.00196078
0.00495037
0.0104514
0.00556755
0.00119714
0.0101831
0.00178636
0.000545511
0.00140107
0.00975595
0.00585611
0.000393972
0.00970364
0.000187266
0.000249609
0.0101164
0.00278672
0.00101391
0.00586008
0.00822522
0.0146321
0.00584738
4.78932e-05
0.00982764
0.0011848
0.00365829
0.00107871
0.00793221
0.0035127
0.000511844
5.69882e-05
0.000540405
0.000804667
0.00583896
0.0146981
0.000856145
0.000345692
0.00583347
0.000263964
0.00583042
7.4829e-05
0.000895225
0.00197908
0.00119044
0.00266677
0.00132666
0.00150917
0.000959315
0.00272839
0.000233344
0.000932703
0.0106307
0.000493077
0.00590309
0.00133109
0.00258357
0.00583245
0.0153691
0.0119465
0.000709102
0.00384636
0.000913808
0.00482067
0.00145748
0.0105329
0.00583135
0.00076432
0.00032777
0.00520248
0.00462086
0.00585893
0.00215312
0.000163152
0.00298561
0.00194355
0.00142379
0.00583595
0.00583869
0.0105567
0.0136357
0.0059556
0.00584716
0.0059067
0.00215678
0.0018319
0.0115028
0.00182767
0.000957086
0.00352207
0.000485688
0.00946812
0.00115455
0.00583356
0.00583834
0.00583477
0.000342567
0.00583448
0.00288397
0.000160424
0.00368415
0.0108679
0.00877779
0.00132224
0.00134246
0.000415951
0.000379264
0.00127444
0.000434364
0.0005212
0.0146105
0.00135171
0.00583291
0.000489829
0.00300703
0.000589597
0.0058396
0.000271201
0.00583559
0.00583812
0.000616987
0.000144879
0.0014321
0.000192968
0.00385566
0.0010853
0.000169623
0.00291936
0.00584186
0.000646325
0.00238128
0.000362248
0.00280853
0.00376708
0.0117025
0.00288404
0.0101756
0.00648187
0.00583535
0.00583579
0.000484731
0.00405379
0.00586848
0.0114314
0.0058375
0.0137485
0.00498173
0.0129879
0.000565033
0.000518163
0.0151531
0.00583408
0.00583406
0.00179077
0.0049719
0.00576248
0.000568898
0.0030461
0.00583326
0.00092701
0.00235285
0.00583314
0.00584239
0.000706613
0.0058336
0.00583583
0.00315985
0.0150668
0.00227621
0.0058328
0.000160716
0.00583996
0.00500112
0.00950305
0.00011994
0.00119474
0.000173844
0.00583301
0.000947892
0.00231699
0.00592435
0.00017481
0.0138648
0.000165755
0.000427016
0.000443031
0.00583811
0.00995487
0.005837
0.0042784
0.00582976
0.000998438
0.00357729
0.00583193
0.000902939
0.000530248
0.0058326
0.00534645
0.00119024
0.0152427
0.00126641
0.00102664
0.00313559
0.000330424
0.00585277
0.0116306
0.00581694
0.00116794
0.00174114
0.0002713
0.00574999
0.0117641
0.00372132
0.000932466
0.000950123
0.00359209
7.69871e-05
0.00024705
0.00154929
0.00106765
0.00129906
0.000157791
0.00309661
0.0108857
0.0108679
0.000280945
0.00275992
0.00134871
0.0038889
0.0115184
0.00147263
0.00278622
0.00569543
0.0009117
0.0100872
0.00583597
0.0025027
0.00267303
0.000862372
0.00325454
0.00598376
0.000687477
0.0106054
0.000874189
0.00583101
0.00135428
0.00257824
0.0152601
0.00583437
0.000375149
0.000951061
0.0014895
0.00974296
0.00589961
0.000434156
0.000693808
0.0115658
0.00583551
9.60081e-05
0.00224839
0.0146095
0.000451424
0.00585409
0.00192794
0.000332685
0.00223968
0.000293579
0.000210243
0.00158372
0.0120547
0.00583531
0.00052972
0.00583341
0.000736316
0.00125447
7.37262e-05
0.00239203
0.000980117
0.00976442
0.0058316
0.00584038
0.00582938
0.0139081
0.00583613
0.00069085
0.000227616
0.00105429
0.000427997
0.00566239
0.00147137
0.0122692
0.00583466
0.00583596
0.000487351
0.00510981
0.00324971
0.00584857
0.000562072
0.00303443
0.000543603
0.012876
0.00583316
0.00184756
0.000196631
0.00110831
0.00482276
0.00030023
0.00203128
0.00583574
0.0101133
0.00958846
0.000772672
0.0058356
0.000736793
0.000848775
0.00583427
0.00276005
0.000922514
0.000659249
0.00535378
0.00583668
0.00583323
0.00253472
0.000687223
0.000654635
0.0139294
0.0153802
0.00423829
0.000424601
0.00583906
0.0123797
0.00162754
0.00583483
0.00375176
0.000215299
0.00277165
0.000159918
0.00583307
0.000201819
0.00206058
0.00136809
0.00231736
0.0132695
0.00293956
0.00025272
0.0131224
0.0146162
0.0030692
0.00525061
0.00355201
0.00782935
0.00159257
0.000205438
0.0106909
0.0028021
0.00177585
0.00583146
0.00583345
0.0101529
0.0131337
0.00583576
0.00103567
0.00102492
0.00156227
0.00138958
0.000403355
0.00738392
9.51773e-05
0.00530425
0.00583338
0.00142089
0.000115802
0.00583494
0.01022
0.00205544
0.000673053
0.000599362
0.00584515
0.0141026
0.012506
0.00583023
0.00347844
0.00583311
0.00583148
0.00727581
0.00333219
0.00585535
0.0138328
0.00583073
0.000410347
0.00330885
0.00541193
0.00146942
0.000607372
0.0128099
0.00327955
0.00347391
0.010793
0.000293876
0.00583255
0.00427971
0.000137572
0.00994288
0.00583587
0.00583764
0.00560346
0.00173108
0.000127041
0.00583189
0.012029
0.000973187
0.0016655
0.000142168
0.00152087
0.0008267
0.00342234
0.00117191
0.000928965
0.0142863
0.00582998
0.00229157
0.00583462
0.00423118
0.00095632
0.00587023
0.000500389
0.00176399
0.00052008
0.004721
0.000167188
0.00583453
0.000550653
0.00583362
0.0144792
0.0100387
0.000938529
0.0058381
0.00583336
0.00513202
0.00582984
0.000964142
0.00583127
0.00870913
8.82176e-05
0.0121101
0.00022506
0.000517843
0.00167032
0.00583336
0.00561786
0.000372748
0.00583337
0.00107826
0.0005484
0.010128
0.00181821
0.000992925
0.0147994
0.00261268
0.00457744
0.000945956
0.00583344
0.00583442
0.0109559
0.000904714
0.00583667
0.0058401
0.00439278
0.00936721
0.00583338
0.00384419
0.00583079
0.00582752
0.000676227
0.0058361
0.00584309
0.0135067
0.00358293
0.00583313
0.0100097
0.00366913
0.00198658
0.0154126
0.000408959
0.00639978
6.76636e-05
0.000219687
0.00951229
0.00145936
0.00170686
0.0021604
0.00319185
0.001766
0.000322324
0.00900708
0.00112529
0.00583322
0.00541624
0.00409195
8.17035e-05
6.67756e-05
0.00534244
0.00583441
0.000228907
0.00585523
0.000856022
0.00342381
2.61734e-05
0.00051562
0.00590514
0.000909903
0.00256672
0.00051357
0.000437809
0.000463978
0.000160854
0.00873604
0.000520423
0.0058298
0.00185042
0.000174826
0.00105918
0.0149663
0.00544036
0.00583571
0.00583362
0.000399578
0.00585337
0.000391865
0.00962766
0.00583606
0.000466756
0.0112323
0.000224949
0.00583093
0.00584074
0.00169473
0.00583235
0.00417118
0.00808911
0.000995041
0.00116059
0.00529452
0.000325319
9.71315e-05
0.00014176
0.00204566
0.00437122
0.000698472
0.000101649
0.000295982
9.65533e-05
0.00264759
0.00586459
0.000584539
0.00582971
0.00584132
0.00112116
0.00582996
0.00911202
9.83555e-05
0.000985532
0.0149834
0.000539462
0.00585431
0.00102075
0.00103544
0.000816837
0.00583075
0.00583222
0.000196688
0.00335508
4.52734e-05
0.00584293
0.00583312
0.00315945
0.00583337
0.00583671
0.00582995
0.00590539
7.97988e-05
0.00708258
0.00583311
0.00105855
0.00128079
0.000602403
0.00998168
0.00167526
0.00188763
0.00203372
0.000272085
9.16263e-05
0.00057485
0.0058363
0.00247772
0.000176881
0.000170383
0.00583562
0.000103113
0.0058306
0.000880604
0.00665549
0.00971001
0.000131949
0.00408271
0.00234057
0.000879342
0.0150716
0.00106909
0.00583524
0.000228057
0.000183004
0.00338512
0.00375497
0.000714834
9.05566e-05
0.00583524
0.000143963
0.00506701
0.00473094
0.000795845
0.000947314
0.00585972
0.0113646
0.00583548
0.00481442
0.0058361
0.00429846
0.00746278
0.0058308
0.000693378
0.00583311
0.00013248
0.00145122
0.0151432
0.00583307
0.0144951
0.00181263
0.00432172
0.00583386
0.000313471
0.000635926
0.00061173
0.000193174
0.00583507
0.00266154
0.0111802
0.0154463
6.04733e-05
0.00104914
0.00582795
0.00155072
0.0106519
6.2647e-05
0.00367414
0.000421766
0.00585586
0.00495542
0.00164401
0.00156133
0.00584703
0.00145454
0.00584638
0.000355996
0.00583752
0.012061
0.000137414
0.00838155
0.00416445
0.000787364
0.0117149
0.00124354
0.0040834
0.00583346
0.00326278
0.014977
0.00583572
0.00583862
0.000336867
0.000854224
0.00341468
0.0024304
0.0149787
0.0058362
0.00810306
0.00113953
0.00583702
0.00167147
0.00018868
0.00583816
0.00782391
0.00104581
0.000195464
0.00167011
0.00407975
0.00159449
0.000375136
0.00882821
0.00044918
0.00583028
0.000150004
0.0140305
0.00272834
0.000216591
0.000151487
0.00583164
3.73219e-05
0.000460017
0.00583483
0.0109685
0.00445328
0.00166145
8.8093e-05
0.00851497
0.00125806
0.0058568
0.00560329
0.00137282
0.00206325
0.000548915
0.000746028
0.00583521
0.00584089
0.00584501
0.00584344
0.00312596
0.000674444
0.00583609
0.0138958
0.0150042
0.00168804
0.000186431
0.0140313
0.00137745
0.00106433
0.005839
0.00589755
0.00583061
0.00325188
0.00542826
0.0010987
0.000175769
0.00057321
0.000789493
0.000681406
0.0130958
0.00138663
0.00583353
0.00584846
0.00390801
0.000245721
0.00583148
0.00530673
0.000924418
0.00583756
0.0142305
0.005857
0.00181954
9.64115e-05
0.00863552
0.00583415
0.000116479
0.000490976
0.000923314
0.000465223
7.31724e-05
0.00320643
0.00583357
0.00217249
0.00166327
0.00792162
0.00377532
0.00123134
0.00414819
0.00583412
0.00133381
0.00449235
0.00583076
0.00221299
0.00928673
0.00018008
0.00185574
0.000332492
0.000884718
0.000820693
0.00349577
0.00202152
0.000688102
0.0027813
0.00583493
0.000633959
0.000411451
0.000458181
0.00583347
0.00435007
0.00113546
0.00154916
0.00276974
0.00866138
0.00765827
0.000895882
0.00583802
0.00350512
0.00583274
0.00305926
0.0139964
0.00280488
0.00582953
0.0137297
0.00583919
0.000174715
0.000782984
0.00982101
0.00522144
0.000312897
0.0138295
0.000373456
0.000665332
0.0146214
0.00583523
0.0148293
0.000378979
0.00583273
0.000437451
0.0116373
0.00583352
0.00493124
0.00583756
0.00583063
0.00586352
0.000675033
0.00137798
0.000541251
0.00131322
0.0148711
0.0058306
0.00760461
0.0154042
0.00134364
0.00171938
0.0030567
0.00056485
0.00283858
0.000698034
0.000913544
0.000223061
0.000136438
4.2017e-05
0.00586062
0.0126702
0.000563343
0.000881386
0.00287586
0.00583287
0.00583617
0.000530551
0.000281456
0.00583995
0.0101698
0.0058332
0.00166168
0.00022916
0.000599916
0.00010939
0.002506
0.000217593
0.00583299
0.00174257
0.00583282
0.00583328
0.000189592
0.000896148
0.00189095
0.000258986
0.00460729
0.00552803
0.00236158
0.00583335
0.00583301
0.00133508
0.00102857
0.0140729
0.00104748
0.00585643
0.00583219
0.000543439
0.000706338
0.000129736
0.00293335
0.000153581
0.00139147
0.00586149
0.000517927
0.00582981
0.00583943
0.00583341
0.00173746
0.0109414
0.000134967
0.000276745
0.00104473
0.000706467
0.0013504
0.00583604
0.00587325
0.000118337
0.0058334
0.00583284
0.00016765
0.000957686
0.000106041
0.00353657
0.00583331
0.00225337
0.00191774
0.00583287
0.00211015
0.000156885
0.00264286
0.00583313
0.00584012
0.00583544
0.00037968
0.000311559
7.82589e-05
0.0144105
0.00584209
0.00583955
0.00595121
0.00216849
0.000112685
0.00583298
0.00325976
9.49728e-05
0.00010328
0.0036343
0.00583426
0.00583991
0.000330167
0.01097
5.7986e-05
0.00895177
0.00053168
0.00531316
0.000355001
0.00851614
0.00583356
0.00049129
0.00585793
0.00954015
0.00164443
0.00134586
0.0058333
0.000148166
0.00953819
0.000347941
0.00133636
0.000395604
0.000531032
0.00133428
0.00192866
0.000169236
0.00395216
0.0141027
0.00107621
0.0058295
0.0130567
0.000374663
0.000934947
0.000237629
0.00492185
0.001933
0.00585644
0.00308129
0.00908554
0.000445293
0.000241899
0.000618621
0.000707471
0.0058338
0.00215708
0.00321743
0.00582994
0.000103681
0.000651591
0.00587611
0.00038421
0.0109398
0.00173377
0.000254064
0.00479319
0.00940915
0.0115267
0.013224
0.0140027
0.00108685
0.00583337
0.000402831
0.0005131
0.00273976
0.0058299
0.000782263
0.00586018
0.00107152
0.00583094
0.00583852
0.00583283
4.56801e-05
0.00583355
0.0154443
0.00944396
0.00431296
0.0055564
0.00053256
0.00134769
0.0059041
0.000130707
0.00458888
0.000384971
0.000366566
0.000538211
0.000952644
0.000228491
0.000298022
0.00590164
0.00167703
0.000272953
0.0123628
0.00583139
0.000461585
0.000929267
0.00401915
0.00230865
0.00037981
7.17039e-05
0.0143221
0.00583374
0.00121461
0.00300651
0.000752119
0.000757982
0.000474346
0.00581522
0.00121523
0.00582849
0.00583984
0.0145095
0.00790471
0.00346589
0.00349299
0.0129659
0.0136311
0.0119569
0.013897
0.0113343
0.00583236
0.00180687
0.00583123
0.00464857
0.0112289
0.000290708
0.00029674
0.00951582
0.00542135
0.00187382
0.000100705
0.00915016
0.0016859
0.00303043
0.00167899
0.00518953
0.00254276
0.000800169
0.00583594
4.33009e-05
0.00263725
0.000543147
0.0010973
0.00164359
0.00109319
0.0058537
0.00505068
0.00349406
0.000350434
0.00119389
0.00139889
0.00403035
0.00169316
0.00583271
0.000635876
0.000919826
0.000357018
0.000191344
0.000364639
0.00585357
0.00583962
0.00117244
0.000162881
0.00141337
0.000932949
0.00156604
0.00348386
0.00167183
0.010185
0.0144965
0.00582955
0.00105669
0.00583004
0.011143
0.00115483
0.00149315
0.00075146
0.000786193
0.0119094
0.000428394
0.000321837
0.0058353
0.00434291
0.00174564
0.00583426
8.72227e-05
0.00141913
0.000234488
0.000108336
0.000126619
0.000159124
0.000515537
0.00220846
0.000390714
0.00587264
0.000229615
0.00583333
0.00583926
0.00583752
0.000328806
0.00142977
0.00585522
0.00135554
0.000899171
0.00221232
0.00111451
0.00326013
0.0058405
0.0107692
0.000184088
0.000260564
0.000662317
5.0047e-05
0.00583518
0.00451736
0.000474157
0.000653587
0.00385867
0.00584418
0.00228796
0.00031046
0.000403785
0.00326741
0.0121857
0.000930686
0.000640356
0.0150204
0.013113
0.00585954
0.000994623
9.45854e-05
0.0145861
0.00257403
0.000122781
0.00583652
0.000139829
0.00582957
4.34114e-05
0.000263491
0.00583116
0.00583508
0.00583924
0.000968947
0.00144411
6.2429e-05
0.0115524
0.0109597
0.00585333
0.00505387
0.00189134
0.00583281
0.00582959
0.000416463
0.00192411
0.00100521
0.00447213
0.000700022
0.0020141
0.00163032
0.0120823
0.0058378
0.00142213
0.0102173
0.000548398
0.0151447
0.00680586
0.000430692
0.00171674
0.00325057
0.000237171
0.00583008
0.00583555
0.00583904
0.00412331
0.0138698
0.00334774
0.0012793
0.00583657
0.00133663
0.00120259
0.000224938
0.00111795
0.00276771
0.000405759
0.00583895
0.00355598
0.0127819
0.00236987
0.000168277
0.00168237
0.000803182
9.84317e-05
0.00583343
0.0014265
0.00140566
0.00796984
0.0139476
0.015227
0.0098168
0.000696512
0.00449827
0.00344064
0.000572061
0.00604666
0.000716985
7.8692e-05
0.0037439
0.00583089
5.30216e-05
0.00583601
0.00161955
0.00767298
0.0110605
0.00583068
0.00583556
0.00583407
0.00583062
0.0144981
0.00296475
0.00583585
0.000396767
0.00929784
0.00318478
0.00376639
0.00503249
0.00522769
0.00149047
0.000850513
0.0150629
0.000293578
0.00139327
0.0138202
0.00308132
0.0105041
0.00366079
0.00440385
0.00588475
0.00583283
0.00163334
0.015037
0.00147508
0.0150288
0.00585195
0.00580513
0.00583413
0.00139813
0.000337538
0.000215754
0.0078824
0.00226896
0.0153551
0.0104179
0.00583426
0.00106331
0.000519355
0.00175604
0.000619306
0.00583437
0.00717398
0.00922507
0.00583571
0.00330151
0.000201508
0.00136187
0.00202714
0.0144282
0.000568551
0.00583285
0.00338874
0.00222344
0.00583287
0.0134079
0.001257
0.00579255
0.00583293
0.0148795
0.00585557
0.0058335
0.0079533
0.00583772
0.000266318
0.000190606
0.000608029
0.0028014
0.00191208
0.00406698
0.00582971
0.00131269
0.00626519
0.00103156
0.00583348
0.00159481
0.00145671
0.000420369
0.0152034
0.00118839
0.00292484
0.005841
0.00304791
0.00583392
0.00558161
0.000503559
0.000141998
0.000868823
0.00582986
0.000138866
0.000541029
0.000740204
0.000195633
0.00583361
0.00583002
0.0140655
0.00897149
0.000494001
0.00583067
0.000605842
0.00583288
0.000272593
0.00439409
0.0145088
0.00108259
0.00583079
0.00618069
0.0131678
0.00584256
0.00583294
0.00770745
0.000165801
0.00583454
0.0145141
0.0154683
0.00583466
0.00583797
2.57985e-05
0.0132698
0.000918277
0.00308532
0.000881112
0.00840242
0.00125375
0.00586197
0.0013392
0.00582745
0.0117202
0.00118322
0.000413473
0.0143017
0.00568373
0.00583391
0.00583354
0.00901137
0.0150034
0.00460282
0.00161219
0.00222726
0.00583238
0.00589439
6.32896e-05
0.00966341
0.000929955
0.0013173
0.000515272
0.0012121
0.00583538
0.00583352
0.00583171
0.0151877
0.0110883
0.000149232
0.00037966
0.00107071
0.0153571
0.000312748
0.000320519
0.00583344
0.00583345
0.000509526
0.0103521
0.00583298
0.000238392
0.0058343
0.00583588
0.00728067
0.000298551
0.000385318
0.00586272
0.00584324
0.0122278
0.000238172
0.00128495
0.0014034
0.000183982
0.0101461
0.00286527
0.000338298
0.0096596
0.00014858
0.00583438
0.000583371
0.00101837
0.0058313
0.00583727
0.0118614
0.00173201
0.0102449
0.000964306
0.00130399
0.00661932
0.00110727
0.000659402
0.00583266
0.000409982
0.0046179
0.000356236
0.00339886
0.0125379
0.00583737
0.00355744
0.000659861
0.000924791
0.000936011
0.00583842
0.00462983
0.0150454
0.000508902
0.00077906
0.000542641
6.27599e-05
0.000473276
0.000531774
0.000301042
0.0109985
0.00872996
0.00967798
0.00583101
0.00585193
0.00583537
6.38868e-05
0.00052719
0.00583085
0.000374646
0.00970243
0.00875338
0.00583621
0.0103887
0.00170686
0.00108575
0.000627237
0.00583391
0.00583077
0.000159203
0.000430439
0.000464773
0.00067122
0.00583386
0.00492308
0.0131638
0.0058333
0.00110709
0.00583394
0.00583354
0.000866302
0.00507471
0.000219113
0.00583275
0.00117118
0.0005769
0.0151818
9.67375e-05
0.0105112
0.000445958
0.0132018
0.0015556
0.00583343
0.00583296
0.00583815
0.000141748
0.000382645
0.0058402
0.000102435
0.000858649
0.00131609
0.000155493
0.00583181
0.00583409
0.00196987
0.00145925
0.0112109
0.0107286
0.000379671
0.00923186
0.000650625
0.00488878
0.000101773
0.00583689
0.0058358
0.000448956
0.00139619
0.00163488
0.0002729
0.00584562
0.00584266
0.000792151
0.0110064
0.00408963
0.00159536
0.011942
0.000534605
9.20026e-05
0.00439901
0.0107281
0.00583306
0.000711779
0.0150998
0.00657428
0.00138178
0.000615008
0.00373829
0.00129702
0.00413516
0.0103146
0.00943578
0.00122908
0.00583793
0.00101148
0.0033458
0.00398125
0.0108264
0.00191141
0.000108764
0.00587378
0.000733159
0.000568691
0.000759563
0.00583575
0.000318449
0.00246665
0.00357977
0.00123627
0.000908683
0.000992633
0.0102231
0.00577345
0.00171714
0.00583002
0.00139225
0.00582969
0.00583882
0.0134536
0.0119354
0.0149772
9.61836e-05
0.00114383
0.00931659
0.000603
0.000111047
0.00583346
0.00583319
0.00131972
0.000366879
0.000317489
0.0144956
0.00479837
0.00187908
0.00584271
0.00067568
0.00584689
0.000302222
0.00721554
0.0095524
0.011482
0.00433334
0.00104424
0.0138555
0.00139941
0.00584277
0.00563386
7.98804e-05
0.000535449
0.00583206
0.0119841
0.00583344
5.10778e-05
0.000322896
0.00982819
0.0024476
0.000327688
0.0108154
0.000661429
0.00275529
0.012166
0.00585031
0.00582985
0.00133167
0.00583084
0.0101372
0.0121116
0.00086258
0.00344407
0.00384314
0.00132586
0.000142113
0.000326412
0.000296863
0.00130414
0.00582958
0.00583368
0.00924559
0.00051726
0.00448516
0.00590439
0.000733205
0.000247817
0.00583244
0.00584329
0.00123357
0.00318323
0.00584267
0.00102602
0.000221319
0.00596494
0.00139675
0.000102093
0.0101767
0.014247
0.0014528
0.000190012
0.000627386
0.000609681
0.00583073
0.00100177
0.0110413
0.00145837
0.0116471
0.000319857
0.00583343
0.00336151
0.000339072
0.00583617
0.00341017
0.015119
0.000493946
0.0058374
0.0075459
0.0095589
0.00583639
0.0058326
0.00119934
0.00315127
0.000444542
0.000535559
0.000587419
0.00125379
0.000685605
0.00528119
0.000200588
0.00583119
0.00583399
0.00973373
0.000141714
6.3705e-05
0.000174582
0.0152372
0.00583978
0.00101203
0.00314572
0.00583567
0.000995652
0.00115499
0.00178816
0.00583177
0.00583723
0.0149887
0.00161595
0.00136007
0.0112738
0.0133592
0.000203322
0.00339449
0.000323686
0.00582987
0.00203847
0.00182829
0.00939233
0.000522551
0.00116676
0.000935759
0.000680852
0.00034793
0.00123246
0.0154827
0.00119385
0.00583902
0.0127591
0.00111178
0.00145032
0.00583267
0.00583766
0.0118734
0.000458166
0.00583533
0.000535007
0.000620067
0.000111711
0.0108004
0.000691671
0.00583209
0.000320856
0.0103245
0.00807408
0.00137222
0.000533963
0.0019447
0.00205092
0.00583352
0.00759984
0.00585192
0.00583748
0.000480261
0.000755499
0.00233514
0.00583044
0.00582966
0.00898481
0.0004508
0.00586186
0.00583517
0.00121186
0.00122584
0.00025925
0.00585398
0.0115647
0.000862328
0.0059524
0.0108044
0.00582979
0.00146048
0.00583512
0.0149305
6.71026e-05
0.000844235
0.00356501
9.3812e-05
0.00589594
0.0148117
0.00518368
0.0058387
0.00150557
0.00167001
0.0128483
0.000224958
9.45618e-05
0.00583421
0.00026526
0.00133179
0.0104961
0.0015695
0.00583304
0.0111279
9.22174e-05
0.00156723
0.00584082
3.69241e-05
0.00105111
0.00322654
0.000814131
0.0058336
0.00158799
0.000331092
0.0141074
0.00800804
0.000460912
0.00587204
0.00342563
0.00277308
0.000709673
0.00311286
0.00177532
0.00192787
0.00143992
0.000998932
0.0145869
0.00302545
0.00626768
0.00140847
0.00915852
0.00215487
0.000179773
0.00342582
0.000215013
0.00586022
0.000186025
0.00586187
0.000196717
0.00845522
0.000176529
0.00583405
0.00150103
0.000458263
0.00584383
0.00539832
0.00583407
0.000282493
0.00289549
0.00972702
0.00585396
0.00583319
0.00139731
0.00583302
0.00586645
0.000451455
0.000230867
0.0155124
0.000528732
0.000191151
0.0058332
0.0112891
0.0022662
0.00506142
0.0132249
0.00583586
0.00294304
0.00253192
0.00583201
0.00635354
0.00542461
0.000399795
0.0005791
0.00424473
0.00108737
0.000320115
0.004155
0.00305199
0.00580957
0.00133564
0.00237526
0.00583343
0.000748719
0.000357859
0.000523165
0.000574623
0.00583127
0.0058477
0.00136953
0.00131776
0.00860126
0.00957785
0.00583934
0.000938371
0.00583789
0.0058377
0.00223634
0.014966
0.0137812
0.00470814
0.00184646
0.000512349
0.000280626
0.000977922
0.000471178
0.0138455
0.0153255
0.000200811
0.00108474
0.00162398
0.00584343
0.000276898
0.00584728
0.00583621
7.53747e-05
0.00141216
0.000957531
0.0153429
0.00584166