/*--------------------------------*- C++ -*----------------------------------*\
| =========                 |                                                 |
| \\      /  F ield         | OpenFOAM: The Open Source CFD Toolbox           |
|  \\    /   O peration     | Version:  v2012                                 |
|   \\  /    A nd           | Website:  www.openfoam.com                      |
|    \\/     M anipulation  |                                                 |
\*---------------------------------------------------------------------------*/
FoamFile
{
    version     2.0;
    format      ascii;
    class       surfaceScalarField;
    location    "400";
    object      phi;
}
// * * * * * * * * * * * * * * * * * * * * * * * * * * * * * * * * * * * * * //

dimensions      [0 3 -1 0 0 0 0];
oriented        oriented;


internalField   nonuniform List<scalar> 
55428
(
0.141709
0.0626548
-0.204364
-0.00110744
0.002065
-0.00095756
0.273558
-0.169367
-0.104191
-0.0097901
-0.0477117
0.0575018
-0.0035791
0.00296565
0.000613457
0.118142
-0.236867
0.118725
-0.0401665
0.0903731
-0.0502065
-0.095923
-0.038324
0.134247
-0.0673539
0.0126357
0.0547181
0.0396513
0.0137012
-0.0533524
-0.244675
0.0755149
0.16916
-0.116004
-0.20747
0.323474
0.0744684
-0.125423
0.0509541
0.349464
-0.360642
0.0111781
-0.0248085
0.00483475
0.0199737
0.191923
-0.0639894
-0.127934
-0.126185
0.0109406
0.115244
-0.058329
0.0949517
-0.0366227
0.0170384
-0.0211053
0.00406696
0.0626476
-0.0459409
-0.0167067
-0.0929174
-0.0452836
0.138201
-0.0546712
0.196381
0.00672744
0.0206456
-0.027373
-0.168687
0.140015
0.0286719
-0.0565738
0.117868
-0.0612946
0.0620114
0.129912
0.0545963
-0.102514
0.0479178
-0.0813333
-0.0087992
0.0901325
0.029204
0.00383527
-0.0330393
0.00101486
0.000996528
-0.00201139
0.00744102
-0.0210622
0.0136211
0.0776857
-0.254244
0.176558
0.0273557
0.0540536
-0.0814093
0.0631272
-0.0127294
-0.0503977
0.0333151
0.0436244
-0.0769395
0.101672
-0.0704319
-0.0312403
-0.329144
0.245806
0.0833379
-0.110397
-0.0582902
-0.163485
0.164239
-0.000754166
-0.0659458
-0.100999
0.166945
0.0604632
-0.014673
-0.0457902
8.30096e-06
0.00298673
-0.00299504
0.110103
-0.047028
-0.0630751
-0.010743
0.060139
-0.049396
0.136529
0.108204
-0.244733
-0.0461815
-0.0249678
0.0711493
0.00162196
-0.00245139
0.000829432
-0.0552422
0.0707017
-0.0154595
0.13522
0.138337
-0.00243868
-0.00114043
-0.159782
0.107224
0.0525577
-0.178235
0.0562553
0.121979
0.0696775
0.0487878
-0.118465
0.0208092
-0.0681404
0.0473312
-0.130485
-0.142293
0.272778
0.125951
0.0482509
-0.174202
0.0599045
-0.0202533
-0.234579
-0.0945646
0.00669373
-0.00669438
6.46436e-07
-0.0999161
-0.184517
0.284433
0.00707526
-0.000381528
0.0860799
0.0155923
-0.344792
0.0359243
-0.0010681
0.00105032
1.77774e-05
0.0755768
0.0435771
-0.119154
-0.0509278
0.112692
-0.0617642
-0.164907
-0.0245399
0.189447
-0.0557138
0.0791686
-0.0234549
-0.028196
-0.00931434
0.0375103
-0.283557
-0.0612344
0.178354
-0.308839
-0.116357
-0.0260818
0.142439
0.0816534
-0.139043
0.0573898
-0.120613
0.238081
-0.117468
0.0711958
0.0932985
-0.164494
0.0594386
0.0918417
-0.15128
0.00350073
0.00660717
-0.0101079
0.0810626
-0.112027
0.0309642
-0.00250476
0.00350076
-0.000996003
0.0754312
-0.1378
0.0623688
-0.354053
0.3552
-0.00114715
0.105677
-0.0657322
-0.039945
-0.229771
0.109158
0.0123956
0.0302346
-0.0426302
-0.0618199
0.0630256
-0.00120563
-0.125765
-0.000420206
-0.0108239
-0.00265085
0.0134748
-0.00115607
0.00217093
0.00104827
-0.0258567
0.282543
-0.204857
-0.00356495
0.00706568
0.0789287
-0.0302799
-0.0486488
0.0591754
-0.230006
0.139565
0.0904416
-0.199542
0.124756
0.0747864
0.0561182
-0.00336138
0.000856625
-0.128952
-0.140379
0.269331
0.0481426
-0.0579327
-0.0187598
0.00148969
0.0172702
-0.104307
0.0572788
0.074818
-0.0351427
-0.0396753
0.0018914
-0.00702495
0.00513354
-0.0191745
0.00969086
0.00948359
-0.0629485
0.230465
-0.167517
0.0879956
0.0587
-0.146696
0.000945015
-0.003362
0.00241698
-0.197786
0.340213
-0.142428
0.102118
-0.267025
-0.0152295
0.0238154
-0.0085859
-0.0140183
0.0226527
-0.00863431
-0.0179564
-0.00270561
0.020662
-0.177783
0.0756553
0.102128
-0.271684
0.231184
0.0405
-0.224177
0.177627
0.0465505
-0.0966437
0.246601
-0.149958
0.0049929
0.0760697
-0.0439992
-0.119486
-0.166044
0.100098
-0.0516824
-0.0835873
0.13527
-0.106095
0.214938
-0.108843
0.00884424
0.00111767
-0.00996191
-0.111358
-0.12671
0.238068
-0.17597
-0.271072
0.185077
0.0859948
-0.0240574
0.0217241
0.00233328
-0.222855
-0.0488284
0.159884
-0.275664
0.11578
0.00623842
0.0452884
-0.0515269
0.0133014
0.0340504
-0.0473519
0.297866
-0.137982
-0.00133753
0.000806414
0.000531119
0.0348229
0.10298
-0.137803
-0.0421891
0.0950978
-0.0529087
0.00465059
-0.00275919
-0.23064
0.18969
0.04095
-0.03285
0.0848795
-0.0520295
0.019975
-0.0756888
-0.0752459
0.0290644
0.0734247
0.051204
-0.124629
0.143478
-0.119071
-0.0244075
0.0312387
-0.112572
-0.0141059
-0.053248
0.0756793
-0.136059
-0.0634833
-0.09842
0.157859
-0.0164029
0.0130084
0.00339457
0.152337
-0.0983634
-0.0539732
-0.0797304
0.0444461
0.0352842
0.203788
-0.291712
0.0879235
-0.143005
-0.0534351
0.19644
-0.0859187
0.0165394
0.0693792
0.0472733
0.0251941
-0.0724674
0.215449
0.114485
-0.329934
0.00488238
0.00219288
0.169547
-0.296113
0.126566
0.00268296
0.000179534
-0.00286249
-0.0939833
-0.150692
0.00432567
-0.00338065
0.0997051
-0.0626814
-0.0370237
-0.0489172
0.0887433
-0.0398261
0.152823
0.0379981
-0.190821
-0.00812927
0.00666758
0.00146169
-0.0026214
0.0111607
-0.00853932
-0.00105978
-0.0848589
0.0855765
-0.137259
-0.0200678
0.0335594
-0.0134916
-0.0325263
0.0824266
-0.0499004
0.000149942
0.0163255
-0.0164754
-0.0743717
0.0326995
0.0416722
-0.0537793
-0.176861
0.011183
-0.0138044
0.0075192
0.145304
-0.0597522
0.127418
-0.0676654
0.00996837
-0.00112413
-0.0780162
0.0102835
0.0677327
-0.21864
0.137398
0.0812425
0.0670725
0.0449054
-0.111978
0.0611588
-0.0855269
0.0243681
-0.109624
-0.0332184
0.142842
-0.0687146
0.0579715
0.221622
-0.304643
0.0830207
0.247332
-0.0257096
-0.239233
0.136109
0.103124
0.0124298
-0.00800385
-0.00442597
-0.10904
0.266612
-0.157573
-0.107636
-0.123706
0.0665409
0.0571646
-0.0182718
0.0249993
0.0688914
-0.0694281
0.000536662
0.223016
0.0811256
-0.304142
-0.0886833
0.0771956
0.0114878
-0.288811
0.181093
0.107719
0.132194
-0.187815
0.0556203
-0.0685142
0.0282027
0.0403115
0.133428
-0.0986053
0.188961
-0.110756
-0.0782055
0.110371
-0.0504824
-0.0598884
-0.0186659
0.00272918
0.0159367
-0.0262738
0.0132266
0.0130472
-0.0401785
0.0674981
-0.0273196
-0.256366
0.124675
0.131691
0.090943
-0.233948
-0.38345
0.2323
0.15115
0.0130764
-0.00342688
-0.00964954
0.0364408
-0.0917133
0.0552724
0.0369696
-0.0771361
-0.168255
0.108372
0.0598825
-0.196017
0.0899219
-0.0124863
0.00166235
-0.166098
-0.00546115
0.171559
0.0132741
-0.0131242
-0.161268
-0.095098
-0.020593
0.0945585
-0.0739655
-0.00102476
-0.000312777
0.0184892
-0.00388562
-0.0146036
-0.0495318
-0.0301986
-0.0730421
0.0210332
0.0520089
0.0527888
0.0103384
0.344212
-0.17192
-0.172292
0.00796203
-0.00307965
-0.285675
0.169671
0.112291
-0.194277
-0.0548513
0.0477181
0.00713315
-0.0104854
0.00800766
0.00247774
0.105907
0.100623
-0.20653
-0.00355761
0.0040034
-0.000445796
-0.142948
0.184044
-0.0410958
-0.0226332
0.0951548
-0.0725216
0.00153749
-0.00680233
0.00526484
-0.0385913
-0.0657155
-0.180511
0.00614191
0.174369
0.191578
-0.291494
0.0102322
0.000969446
-0.0112017
-0.101833
0.0809187
0.0209145
0.0490542
0.0337078
-0.082762
0.0453571
-0.0566211
0.0112639
-0.000714311
-0.00650797
0.00722229
0.230058
0.0294997
-0.259557
0.229298
-0.11814
-0.111158
-0.0885492
0.0734505
0.0150987
-0.280164
0.171125
0.0105923
0.0024841
-0.0881774
0.170164
-0.0819871
-0.100889
0.209671
-0.108782
-0.0046074
0.0388099
-0.0342025
0.156628
0.119595
-0.276223
-0.00336242
0.000923742
-0.0518192
0.0791749
-0.0366487
0.0831868
-0.0465381
-0.115154
0.230359
-0.115204
-0.0984766
0.0584328
0.0400438
0.0100695
-0.19058
0.109267
-0.0502203
-0.0590463
0.137684
-0.0802019
-0.0574823
-0.332444
0.188002
0.144442
-0.0668608
-0.0218226
-0.11764
-0.143249
0.260889
-0.0935955
0.0607455
0.148396
0.132587
-0.280983
-0.00216543
-0.00119699
-0.0518215
0.124924
-0.0731027
-0.0643215
0.26811
-0.0134769
0.0209179
-0.0249421
-0.104528
0.12947
0.131468
-0.25825
0.126782
-0.20093
-0.150204
0.351135
0.0640057
-0.102597
-0.0038388
-0.00664659
-0.330899
0.0963201
0.00858064
-0.0364965
0.0279159
-0.00205248
-0.0142232
0.0162757
0.0277769
0.0250119
0.0432715
0.0475811
-0.0908526
-0.006553
0.00417677
0.00237623
0.156126
-0.266678
0.110552
0.141239
-0.249509
0.10827
-0.000832256
-0.000329386
0.00116164
0.116417
-0.0508183
-0.0655989
0.0311541
0.112324
-0.00254842
0.0317525
-0.15077
0.0102828
0.140487
-0.0408079
0.0688132
-0.0280053
0.0064528
-0.142968
0.118026
-0.100147
0.149703
-0.0495567
-0.0454226
-0.129438
0.174861
-0.176852
-0.0769166
0.113886
-0.194108
-0.138336
0.153817
-0.180845
0.027028
0.0484326
-0.0922067
0.0437741
-0.0405723
-0.014279
0.10634
-0.0498256
-0.0565142
-0.00211206
-0.00444094
-0.105373
-0.105164
0.210537
-0.233644
0.112456
0.121188
0.00859101
0.0850968
-0.123731
0.0386345
-0.234144
-0.0967556
-0.000678425
0.0427799
0.0172229
-0.0600028
0.0886526
0.0386183
-0.127271
-0.0688842
0.062051
0.00683317
0.134032
-0.229833
0.0958006
0.302984
-0.0978683
-0.205116
0.233586
0.148972
0.0593746
-0.0515153
-0.00785924
-0.122932
0.0631799
-0.068774
0.292721
-0.223947
0.00706258
-0.0105848
0.00352217
-0.0637449
-0.0380883
0.0565952
0.0182229
-0.00690007
0.00618576
-0.00666104
-0.00302777
0.00968881
0.080845
0.0248322
0.0401684
-0.0339299
-0.044442
0.0791727
-0.0347307
0.0801292
0.20634
0.0535268
0.0199555
-0.0734823
0.058562
-0.0307851
-0.0903056
0.201736
-0.111431
0.00701937
-0.0136193
0.00659996
0.0688836
-0.0154094
-0.0534741
0.0387862
-0.0867155
0.0479293
-0.0143613
-0.00430463
-0.246125
-0.0283869
0.274512
-0.00339848
0.0174558
-0.0140573
-0.0302377
0.0854634
-0.0552257
-0.115309
0.0912064
0.024103
-0.0996114
0.199512
-0.0999008
0.0525451
-0.0366261
-0.015919
0.0679133
-0.02064
-0.000198824
-0.000633432
0.0378194
0.013774
-0.0515934
0.0378001
0.00162321
-0.0394233
0.0909502
0.0598336
-0.150784
-0.00129534
0.00022724
-0.0551584
0.126684
-0.0715254
-0.0587426
-0.0101416
-0.150066
-0.0741113
-0.0710492
0.197
-0.00566769
0.00434246
0.00132524
0.0213041
-0.0614827
-0.0218761
-0.0524956
-0.275826
0.207052
-0.139749
0.245245
-0.105496
-0.164747
0.282044
-0.117296
0.320062
-0.160074
-0.159989
-0.00771753
0.0221077
-0.0143901
-0.135998
-0.0586142
0.194612
-0.244051
0.0938316
0.150219
-0.104762
0.0576768
0.0470847
-0.0486297
0.0440223
-0.157177
-0.107688
0.264865
-0.00496105
0.0217237
-0.0167627
0.0168925
0.0619759
-0.0788684
-0.155661
0.0597378
-0.0468246
0.102261
-0.0554362
-0.00332804
0.00390951
-0.000581467
-0.0295789
0.0857173
-0.0561384
-0.00134202
0.0584899
-0.107524
0.0490336
0.0896559
-0.0332002
-0.0564558
0.160412
0.0416143
-0.202026
-0.216119
0.341573
-0.125454
-0.0334158
-0.0497835
0.0831993
0.0646346
-0.0852275
-0.139513
0.0843542
-0.05212
-0.0417565
0.100246
-0.0204093
0.0631892
0.118073
0.0342637
-0.0601125
0.0896787
-0.0295662
-0.0688337
0.0321849
0.0689834
-9.19773e-05
-0.0306044
0.0820023
-0.0513979
-0.00389355
0.00056551
-0.0457898
0.0205488
0.025241
-0.0470355
0.0716927
-0.0246572
-0.0111457
0.0364491
-0.0253034
0.0322342
-0.0815417
0.0493075
0.00867534
-0.0855919
0.0155363
-0.0215035
0.0059672
0.0720794
0.0382915
-0.0784626
0.0558295
-0.0367612
0.0858154
-0.00253706
0.0560639
0.195829
-0.0420121
-0.0766976
0.0626338
0.0140638
0.134403
-0.085594
-0.0488093
0.079232
0.081322
0.00833526
-0.0896573
0.162908
-0.280455
0.117547
-0.0491983
0.0118128
0.0373855
-0.00783644
0.0823049
-0.440985
0.319301
0.121684
-0.0227405
-0.0503016
-0.201641
-0.135328
0.336969
-0.00832216
0.00731431
0.00100784
0.156047
-0.0943592
-0.0616874
0.114398
0.10054
0.114802
-0.0334797
0.0137457
-0.25987
-0.140288
0.324192
-0.183904
0.00168569
0.00127996
0.159996
-0.0690459
0.140337
-0.341978
-0.145376
-0.043055
0.188431
0.0339758
0.0191125
-0.0530883
-0.00673381
7.27653e-05
-0.193288
0.147865
-0.202748
0.103137
0.388035
-0.200206
-0.187829
-0.0492848
0.102302
-0.0530171
-0.111856
-0.159215
0.329334
-0.222796
-0.106538
-0.201605
-0.11331
0.314915
-0.00634213
-0.00198002
0.0273484
-0.0743839
-0.00848927
0.0240256
0.150257
-0.249047
0.0987904
0.0951904
-0.0745045
0.051764
-0.0110479
0.0030441
0.129688
0.242911
-0.3726
-0.0612821
0.13562
-0.0743383
0.131992
0.0888882
-0.22088
0.0484532
-0.0459331
-0.00252012
0.207176
-0.362689
0.155513
0.0630053
0.0930413
0.0565146
-0.0797511
0.0232365
-0.130009
-0.00581374
0.135823
0.0290841
-0.0205034
-0.286069
0.0851388
-0.068599
0.0277912
0.121503
0.0424083
-0.163912
-0.21272
0.177756
0.0349631
0.102839
-0.162264
0.0594249
-0.121011
-0.118222
-0.00248499
0.00118965
0.0956054
0.0358918
-0.131497
-0.207879
0.132885
0.0749944
0.0045351
-0.00756752
0.00303242
-0.0374216
0.0262759
0.248538
-0.38405
0.135512
-0.00804074
0.0150601
0.142121
-0.148922
0.00680095
0.0537747
-0.107045
0.0532705
0.0751465
-0.0556006
-0.0195458
-0.256522
0.159878
0.00317632
-0.00149063
-0.11839
0.265688
-0.147298
0.0160439
-0.026115
0.0100711
-0.18992
-0.0988915
0.383172
-0.212325
-0.170848
0.159449
-0.108522
-0.0509262
-0.273992
0.109245
4.59172e-05
0.00100441
-0.0965269
0.121508
-0.0249808
0.384394
-0.170624
-0.213771
-0.00717931
-0.0344204
0.0415997
0.0577666
0.021402
-0.275515
0.291274
-0.0157589
-0.0690754
0.0471993
-0.0142085
-0.0344213
-0.054503
-0.121362
0.175865
0.110471
-0.21663
0.106159
-0.106192
0.0569072
-0.00789204
-0.00315591
0.0015441
-0.0203039
0.00277004
0.055087
-0.0578571
-0.0510749
0.0321192
0.0189557
-0.00546945
0.0152433
-0.00977387
-0.0945859
0.0477613
-0.00638125
0.0103567
-0.00397546
-0.102877
-0.0569047
0.241365
-0.123224
-0.117024
0.267261
-0.150236
0.0556509
-0.18357
0.127919
-0.00335789
0.0145409
-0.0451184
0.0379391
-0.104957
-0.124991
0.229949
0.0817442
0.034673
-0.0023522
0.183633
-0.0713419
0.00663914
-0.00510165
-0.0565019
0.0887361
0.082868
-0.189294
0.106426
-0.0535894
-0.0511721
-0.0493291
-0.16339
-0.007862
-0.0453181
0.0531801
-0.0839927
0.0670816
0.016911
0.0640807
-0.115609
-0.0922706
0.125638
0.0998261
-0.225464
0.0262169
-0.0734275
0.0472105
-0.00761623
-0.000513036
-0.141743
0.0765211
0.0652221
-0.331399
0.272347
0.0590528
0.163735
-0.108084
0.0171918
-0.0376301
0.0204383
-0.0341055
-0.0779212
0.00263829
-0.00262999
0.0422174
0.0102746
-0.052492
-0.0140224
0.0518418
0.0136263
-0.0271032
0.0194244
-0.149434
-0.00397101
0.00850611
0.0112806
-0.34268
-0.0192309
0.0171784
0.0929278
-0.234404
0.141477
-0.0331394
-0.0232504
0.0563898
-0.0166359
0.00339218
0.0132437
0.00258578
-0.0991126
-0.0879244
0.347513
0.000779419
-0.0059425
0.00516308
0.0816084
-0.143655
0.0620463
-0.0845209
0.0715584
0.0129624
-0.0520335
0.0378251
0.0344415
0.0191166
-0.0535581
-0.201242
0.100353
0.14666
-0.087125
-0.0595346
-0.0779591
0.0477213
0.106546
-0.0572989
0.0241594
-0.278625
-0.066235
0.344859
0.0732777
-0.016763
0.302016
-0.210419
-0.0915967
0.0451681
-0.0364189
-0.00874928
0.229091
-0.114311
-0.11478
-0.299058
0.10495
-0.0111035
-0.00807097
0.0341284
-0.288373
-0.256019
0.193071
0.0971519
0.0918093
0.124368
-0.0619906
-0.0623778
-0.294591
0.015966
-0.195379
-0.245606
0.0556831
-0.017883
-0.0698174
-0.0543608
0.124178
0.00956811
-0.00948884
-7.92759e-05
0.18899
0.0850883
-0.274078
0.113875
0.0487758
-0.162651
-0.0645851
0.106028
-0.0414427
0.0652905
-0.0177093
-0.124598
0.266013
-0.141415
-0.340032
0.181629
0.158403
0.0340426
0.0903139
-0.124356
-0.0291348
0.087828
-0.0586933
0.00255433
-0.00149845
-0.00105587
0.0824998
-0.04993
-0.0325698
-0.1817
0.0156029
-0.0704197
-0.107364
-0.0445156
-0.0212316
0.0657472
-0.0121463
-0.0141276
-0.303902
-0.203622
0.259193
-0.0555704
0.00100473
-0.00725071
0.00624598
0.0123025
-0.0149534
-0.01596
0.0320039
0.00301322
-0.0017652
-0.00124803
0.148366
-0.00624472
0.10124
-0.0647994
-0.146963
0.264067
-0.117103
0.00992347
-0.00035536
-0.0451177
0.0623406
0.0762864
-0.134972
0.0586856
-0.068812
-0.0729311
-0.0154004
0.0493763
0.0168806
0.0727753
-0.0988873
-0.110169
0.209056
-0.0497161
0.0707492
0.000847795
0.0172367
-0.0221978
-0.199165
0.10886
0.0412134
-0.105799
0.0322479
0.0568405
-0.0890885
-0.0154186
0.150438
-0.13502
0.092085
0.0721543
-0.101874
-0.0941428
0.00972031
-0.00311314
0.0388107
-0.0276249
-0.0111858
0.227193
-0.116722
-0.0267255
0.019008
-0.00725565
0.032107
-0.0248514
-0.405742
0.281891
0.123851
-0.0503271
0.0132004
0.0371267
-0.0795247
-0.169827
0.249351
0.0476792
-0.081095
-0.143513
0.066014
0.077499
-0.140462
0.282255
-0.141793
-0.00723051
0.0586193
-0.0513888
0.0138602
-0.0214422
0.00758207
-0.135703
0.0811158
0.0545867
-0.0561228
0.00953869
0.0465841
-0.216954
0.13743
-0.0791546
0.142591
-0.0634365
-0.0651646
0.141451
-0.105058
0.0514683
-0.0301869
0.111795
0.0461689
0.0418358
-0.0880047
-0.306009
0.208895
0.0971141
-0.0302126
-0.199666
-0.183784
-0.0162186
0.0128607
0.0441352
-0.0909093
0.046774
0.110621
0.116715
-0.227336
0.0696262
-0.0574121
-0.0122142
0.0844002
-0.301779
0.217379
-0.00872021
0.00611424
0.00260597
-0.00594313
0.00406204
0.00188109
0.177447
0.175368
-0.352815
-0.00194072
0.000833288
0.286011
-0.0664728
-0.219539
-0.172411
0.0270343
-0.0985265
0.132569
-0.120938
0.298385
-0.0502495
0.0818185
-0.031569
0.0854769
0.0611827
0.253493
-0.142872
-0.0960834
0.104759
-0.274923
0.0687825
0.20614
-0.099697
0.0835749
0.0161221
-0.0394709
0.0322153
0.27096
-0.122564
-0.0676672
0.165625
-0.0979576
0.0215638
-0.00452542
-0.197469
0.395867
-0.198398
0.0632158
0.0819368
-0.0241702
-0.0533549
-0.00875401
0.062109
-0.0746915
0.0464106
0.0282808
0.0426385
-0.0732962
0.0306577
0.145238
-0.0765977
-0.0686402
-0.113422
-0.116584
-0.112759
0.0717215
0.0410372
-0.0180386
0.060256
-0.0049422
0.00640043
-0.00145823
0.0164039
0.00706477
-0.00617543
-0.000889349
-0.051826
0.281884
-0.0717706
0.0260268
0.0457438
0.156565
-0.0928565
-0.0637086
-0.0491511
0.125438
-0.0762871
-0.0115333
0.0251596
-0.0476969
0.0678522
-0.0201553
-0.0598617
0.0734176
-0.0135559
0.252066
-0.0954379
0.0202164
0.0908121
0.00428569
-0.017465
0.0519065
-0.0117431
-0.0488359
0.060579
0.0716767
-0.0919211
0.0202444
0.0044726
-0.000153559
-0.00431904
-0.0045616
0.126065
-0.00602466
0.00378327
0.00224139
-0.0429076
0.0528096
-0.00990201
-0.130853
0.0817017
-0.0716266
0.137573
-0.0659467
0.0406712
0.0590339
0.0549242
0.0299554
-0.0676434
0.129698
-0.0620544
-0.220705
-0.0602084
0.280913
-0.0383725
0.0841033
-0.0457308
-0.175005
-0.131004
0.0327163
0.0771619
-0.060372
-0.0167899
-0.21365
-0.0612724
0.0740222
-0.0313837
-0.000431433
-0.00072189
0.00115332
-0.290363
0.15508
0.135283
0.296609
-0.107619
0.0165054
-0.00501519
-0.0114902
0.086332
0.0716785
-0.15801
0.2418
-0.16885
-0.0729504
-0.0745768
0.00574313
-0.00186856
-0.00204506
0.00391362
0.00969728
-0.00866491
-0.00103237
-0.0934781
-0.0500349
-0.099283
-0.20801
0.307294
0.0068566
-0.00621412
-0.000642477
-0.047817
-0.0361762
0.0839932
-0.011396
-0.0504239
0.102964
-0.098485
-0.0372175
-0.0439107
0.0900796
0.0397259
0.0913341
-0.13106
-0.0455954
0.0718124
0.170481
0.00246197
-0.00433053
-0.162978
0.0748006
-0.0354243
0.0536877
-0.10561
0.00261895
0.102991
-0.0583929
0.0505309
-0.142516
0.253426
-0.11091
0.00327477
0.0287073
-0.0319821
0.10329
-0.221955
0.135772
0.0861824
0.059334
-0.0425883
-0.0167457
-0.153175
0.137756
0.00238006
-0.00458046
0.00220039
-0.215352
0.00838147
0.206971
0.0384231
0.014122
0.0482862
-0.184284
0.0513725
-0.266725
-0.0530064
0.0595108
-0.00650438
0.312873
0.0365915
-0.00590692
0.00234196
0.191316
0.0504847
-0.0762542
0.0471195
-0.161135
-0.137923
-0.211222
0.34091
-0.0477306
-0.0200504
0.067781
-0.000742094
0.0398696
-0.0391275
-0.031133
0.0414628
-0.0103298
0.00877289
-0.00586043
-0.00291245
-0.00217845
0.00455851
-0.0333056
-0.0411211
-0.0410067
0.0821278
-0.0951455
-0.0997849
0.19493
0.165857
-0.0275701
-0.138287
0.00792654
-0.00692181
-0.00764338
-0.189922
0.122255
-0.00440031
0.00204811
0.00656182
-0.0054215
-0.00114032
-0.0388818
-0.0687545
-0.0392334
0.0839925
-0.044759
0.0586619
0.0587161
-0.117378
0.0164471
0.00462298
-0.0210701
0.252877
-0.111638
0.0304326
-0.0887616
0.00689461
-3.8005e-05
0.013416
0.00657783
-0.06182
0.0223787
-0.00593165
0.155771
-0.0418961
0.0590587
-0.124029
0.0649705
-0.272609
0.122061
0.150548
0.0291491
-0.0119573
-0.00162648
-0.000525148
0.00215163
0.0556421
-0.259264
-0.0463939
0.0140478
0.0323461
-0.0111876
0.0204388
-0.00925114
-0.108686
0.0568643
-0.00184789
-0.114482
0.0440498
-0.0011158
0.000684369
0.189659
-0.00510777
-0.184552
-0.0581482
-0.0164286
-0.029183
0.0415786
0.0670506
-0.0210637
-0.0459869
0.0627766
-0.232725
0.181736
0.0509895
-0.00114235
0.000266054
0.000876292
0.0752755
-0.0419604
0.094755
-0.0586973
-0.0360577
-0.311016
0.0933125
0.217703
0.0355832
-0.0845004
-0.309237
0.209954
-0.00997459
0.0553317
-0.0150094
0.103662
0.170127
-0.126006
-0.0441207
0.0890448
-0.15896
0.0699152
0.117026
-0.179055
0.0620288
0.140187
-0.0327651
-0.107422
-0.0702926
-0.0294045
-0.0647206
-0.0590107
-0.0982951
0.155481
-0.0571859
0.0749213
-0.0119583
-0.062963
-0.0738003
0.133332
-0.0595316
-0.0330859
0.0274389
0.00564703
-0.0445609
0.0126318
0.0319291
0.234965
-0.141134
-0.0572097
-0.106335
0.163545
-0.0309978
0.148024
0.22138
0.122832
0.00243075
-0.0204163
0.00639791
0.10051
-0.0597616
-0.0407481
-0.166691
0.172833
-0.0733103
-0.0394484
0.127678
-0.219499
0.0918213
-0.147353
0.0713452
0.0760079
0.00181408
-0.000855406
-0.000958676
0.300537
-0.0487196
0.101461
-0.0527416
-0.0903359
0.0325411
0.0577948
0.219004
-0.107212
0.120296
-0.226532
0.106236
-0.233324
0.128367
0.151895
0.0139622
-0.0683378
0.0149828
0.146821
-0.177818
-0.0509748
0.120652
-0.0546241
0.113286
-0.0407252
0.283637
-0.0654196
-0.167306
0.0107359
-0.0162054
-0.0163731
-0.00468906
0.399828
-0.192298
-0.20753
-0.161687
-0.0971182
0.258805
0.237105
-0.144177
-0.0295914
0.108251
-0.07866
0.11214
-0.0633518
-0.0118679
-0.00476796
-0.0899671
0.0298546
0.138215
-0.0626378
0.128824
0.0469719
-0.175796
0.0867481
-0.0479619
0.00888773
-0.0289555
0.130851
-0.057426
0.181343
0.138719
-0.30414
0.109558
0.194582
0.237492
-0.100963
-0.0596438
-0.0306921
-0.359718
0.160052
-0.0465968
-0.107271
0.153868
-0.00339325
0.0534039
-0.0500106
0.212955
-0.0495057
-0.16345
0.00219671
0.000979603
-0.00610731
-0.00124833
0.00735565
-0.0911268
0.163864
-0.0640971
-0.0997669
-0.0457415
-0.047973
0.0937145
0.0630939
-0.0184598
-0.0446341
0.0318988
-0.106515
0.0746164
0.0301477
-0.0664229
0.0362752
-0.0384114
-0.036058
0.0744694
-0.0149999
0.00693359
0.00806626
0.08931
-0.14652
-0.17069
0.288923
-0.118232
0.00162437
-0.107235
-0.00562553
0.00362032
0.00200521
-0.0911338
-0.00494965
0.101148
-0.223231
0.122083
-0.0558465
0.0139818
0.0418646
0.105141
0.170998
-0.276139
-0.219792
-0.0843478
0.0711565
0.0192166
-0.021619
-0.0345038
0.101618
-0.0697187
-0.0239875
-0.0645617
0.0181765
-0.184867
-0.0678126
-0.0466691
0.063056
-0.0319256
-0.0191493
0.150213
-0.174753
0.0507026
0.0273899
-0.0780924
-0.0355017
-0.0812537
0.116755
0.0508453
0.0122486
-0.106258
0.15703
-0.0507716
-0.103588
-0.0976536
-0.0212659
0.00603644
-0.1091
0.157351
0.000789131
-0.00108239
0.00406913
-0.125147
-0.113457
0.238604
-0.10055
-0.19424
0.29479
-0.0105445
-0.0340164
0.175
0.0379551
0.0829387
0.126512
-0.209451
0.00342202
-0.00122531
-0.0809945
-0.161775
0.24277
-0.00944833
0.00547733
0.234073
-0.115676
-0.118397
0.0140852
0.00973019
0.0584208
0.047919
-0.0229725
-0.0508973
0.0738698
0.00333906
0.258157
0.125015
-0.312471
0.151337
-0.166106
0.104263
0.0618429
-0.215569
0.140244
0.0753256
0.228189
-0.0941571
0.0538716
-0.093105
-0.23175
0.0869257
0.144824
-0.302567
0.0856128
0.0509667
-0.117675
0.0667083
0.0592722
-0.0416349
-0.0176373
-0.181812
-0.120755
0.0750237
-0.217972
-0.0254621
-0.0694386
0.0949007
0.154661
-0.23641
0.081749
0.218751
-0.114709
0.196503
-0.0817946
-0.00140976
0.000267412
-0.157631
0.0193999
0.138231
0.309375
-0.23949
-0.0698853
-0.0316899
-0.0480612
0.160156
-0.165617
-0.201188
0.1023
-0.00704707
0.000939752
-0.0139107
-0.0364165
0.0393992
-0.132317
0.0768026
-0.0574369
-0.0193657
0.253865
0.0555107
-0.121297
0.0626863
0.0586112
-0.122233
0.0867308
0.341998
-0.0463613
-0.295637
-0.0593655
0.0711182
-0.0117527
0.0177071
0.00072767
-0.0184348
-0.0344632
-0.0227334
0.0571966
0.0381537
0.056798
-0.0509395
0.108616
0.194729
0.107287
0.000351899
-0.254098
0.173103
0.0132671
0.0319011
0.145402
-0.326645
0.181242
0.128086
-0.0526547
0.169504
-0.0983085
0.154351
-0.354506
0.200155
-0.0781246
0.0281946
0.0956223
-0.041026
-0.327152
0.155232
0.27467
-0.104189
-0.170481
-0.0612745
0.0495314
0.00609359
-0.00879916
0.00270557
0.131906
-0.0502523
0.155062
-0.0785405
-0.186222
0.113521
0.0727014
0.0452056
-0.0150579
-0.193868
0.289979
-0.0961106
0.0251519
-0.0203314
-0.00482049
-0.0537116
0.193276
-0.133005
0.0717234
-0.106752
-0.0615032
-0.0553282
-0.0207756
0.0761039
0.10582
0.000108033
-0.00244543
0.0023374
-0.0579875
-0.0942104
0.152198
0.0618631
-0.146663
0.0847997
-0.060387
0.123851
-0.0634638
-0.121474
-0.0971666
-0.062981
-0.0508009
0.0640864
-0.0132855
0.124194
0.0214791
-0.145673
-0.0662289
0.127
-0.0607709
0.0792464
0.0846176
-0.00986867
-0.0352856
0.0451543
0.0275825
-0.12624
0.0986575
0.00411101
0.0143782
0.00436312
-0.00509661
0.000733484
-0.0566941
0.0735866
0.0708379
0.102035
-0.172873
-0.100221
-0.0554399
-0.187516
0.0923704
0.0122279
0.00881142
-0.0210393
0.154905
-0.0768078
-0.0780968
0.127958
0.00271971
-0.130678
-0.110003
-0.105566
-0.0524173
0.0051249
-0.000761778
-0.38714
0.189671
-0.173229
0.0665078
0.106721
-0.0869568
0.157616
-0.0706595
-0.108005
0.0592853
-0.00215986
0.000792815
0.000829148
-0.117248
0.0381458
0.0791024
-0.00119226
0.00226214
-0.00106988
0.0504484
0.351865
-0.117333
-0.234532
-0.0457136
0.0739957
-0.0282821
0.0990057
0.0578988
-0.156905
0.00198808
-0.000564388
-0.0014237
-0.377141
0.150197
0.226944
-0.0613957
0.0409864
0.0607023
0.119377
0.00481754
-0.00885429
-0.0242316
-0.121113
-0.145565
0.10043
-0.0677671
-0.0326627
0.076139
0.0243707
0.00752058
0.0176313
0.206237
0.0403645
0.0463759
0.0502745
-0.159898
-0.00651211
-0.00848774
-0.0660855
0.0215699
-0.250409
0.14025
0.110159
0.130404
0.0310101
0.0566368
-0.0245176
-0.0765682
0.0263187
0.0748227
-0.0136639
0.0775751
0.0600678
-0.137643
-0.0107758
-0.00562715
-0.125352
0.273689
-0.148337
-0.0884152
0.0211647
0.0672505
0.111459
-0.309245
0.119124
-0.0558916
-0.0632328
-0.127042
0.0887178
0.0424852
-0.0291838
-0.0731017
0.15597
0.0776325
-0.0291999
0.000850651
-0.295079
0.0445019
0.250577
-0.112826
-0.118539
0.231366
-0.351447
-0.0159999
0.0148358
0.00116408
-0.216219
-0.170921
0.068862
0.0555064
-0.044893
-0.0326124
0.0775054
-0.0713588
0.0159879
0.0553708
-0.0470761
-0.0483491
0.0954252
-0.020922
-0.0248679
-0.0909472
0.137691
-0.0467439
-0.0129406
-0.00747564
-0.385683
0.224565
0.161117
-0.244489
0.119137
0.0447017
-0.101824
0.0571222
0.0769832
0.15709
-0.00144121
-0.00151876
0.00295997
0.217773
0.150351
-0.368124
0.0978163
-0.0373922
-0.0604241
-0.107801
0.135384
0.041645
-0.0225325
0.0212467
0.000861003
0.152578
-0.266365
0.113787
-0.0331481
0.0882236
-0.0550755
-0.0782879
0.0137643
0.0645236
-0.0568863
-0.0415904
0.113616
-0.225487
0.111871
-0.0349063
-0.0209402
-0.0095189
-0.148112
0.269655
-0.185254
-0.00873526
0.0101037
-0.00136842
0.00123312
-0.090501
-0.0075577
0.0980587
-0.175307
-0.230435
-0.0542629
-0.030258
0.0759991
-0.35752
0.263278
0.0942425
-0.16609
0.0598318
0.121245
-0.0593817
-0.0463459
-0.0491621
0.095508
0.00184217
0.00608437
0.088561
-0.22831
-0.27824
0.125997
0.152243
0.157291
-0.0864533
0.0853092
-0.0516015
-0.0505167
-0.0570489
0.107566
-0.00225401
0.00825033
-0.00525627
-0.00299406
0.0534729
-0.0250838
-0.0283891
0.0939788
-0.0498435
-0.124219
0.293767
0.00360741
-0.10223
0.0690822
-0.300582
-0.0851011
0.0245574
0.165102
0.030393
-0.0748349
-0.00422839
0.132187
0.0286265
-0.0630897
-0.404717
0.149682
0.255034
-0.0543943
0.019488
0.0746789
-0.134735
0.0600558
-0.1008
-0.0465534
-0.170441
0.0719149
0.000538273
0.0115527
-0.012091
-0.00156348
0.0412494
0.0294522
0.0119063
-0.00651068
-0.00539559
0.0106824
-0.00361985
-0.0813113
0.00107904
-0.00797911
0.1481
0.0237357
-0.171836
-0.0010063
0.0060916
-0.0050853
-0.0753341
0.146438
-0.0711037
-0.064156
0.0850109
-0.0208549
-0.00665888
0.00809845
-0.00143957
-0.00271901
0.0012778
-0.0654187
0.0227124
0.0427063
-0.260221
-0.0348575
0.311461
-0.175621
-0.13584
0.00130315
0.0110125
0.0116401
-0.292972
-0.0623545
0.355327
-0.135115
0.0331124
0.102003
0.110689
-0.0597228
0.120635
-0.0492896
0.0861215
-0.125322
0.0392009
-0.0629477
0.0294343
0.0335134
0.0065058
0.0282277
-0.0347335
0.0439854
0.00373276
-0.105338
-0.10286
0.208198
-0.29819
0.123185
-0.0450435
0.131165
0.00775955
0.0548881
0.247048
-0.0590455
-0.00596164
0.00730719
-0.00134555
0.0406211
0.0839397
-0.124561
-0.0417138
0.0959083
-0.0541945
-0.0593976
-0.0290175
0.129998
0.111367
0.000200711
0.000414067
-0.000614778
0.0045978
0.0131093
-0.107796
-0.201441
-0.0688093
-0.0939259
0.162735
-0.234846
-0.16987
0.0658
-0.267405
0.0121805
-0.00248963
-0.202233
0.0982143
0.104018
-0.112032
-0.16196
-0.00847889
0.290496
-0.0413382
-0.249158
0.0435344
-0.140271
-0.0379635
-0.00136703
0.00311868
-0.00175166
-0.0671319
-0.0663063
0.133438
-0.0886926
-0.00320343
0.0918961
-0.00173132
-0.0142686
0.166823
0.088197
-0.00275666
0.00475803
-0.00200136
-0.0467594
-0.027932
-0.26844
0.139488
0.111108
-0.213144
0.102036
-0.0304406
0.0577779
-0.0273374
0.000621822
-0.301001
0.00802896
0.310907
-0.116177
-0.15468
0.202966
0.0446201
-0.101417
0.056797
-0.0574596
0.046915
0.344213
-0.189862
0.000160665
0.000770901
-0.000931566
-0.0425898
0.0551927
-0.150591
0.0953986
0.0394968
0.0198778
0.0910242
-0.158156
0.0794788
-0.0472308
0.0272593
0.120841
0.0655433
-0.0328438
0.0632586
0.0427692
-0.00805355
0.0121273
-0.00407373
-0.313742
0.205945
0.0464822
-0.176562
0.13008
-0.190969
-0.168749
0.247539
-0.138426
-0.109113
0.0778277
0.193745
-0.110807
-0.0585844
-0.0418054
0.10039
-0.0176207
-0.0586445
0.0762652
-0.0358588
-0.0335692
0.23631
-0.131008
-0.105301
-0.0418408
0.0319721