/*--------------------------------*- C++ -*----------------------------------*\
| =========                 |                                                 |
| \\      /  F ield         | OpenFOAM: The Open Source CFD Toolbox           |
|  \\    /   O peration     | Version:  v2012                                 |
|   \\  /    A nd           | Website:  www.openfoam.com                      |
|    \\/     M anipulation  |                                                 |
\*---------------------------------------------------------------------------*/
FoamFile
{
    version     2.0;
    format      ascii;
    class       volVectorField;
    location    "400";
    object      U_0;
}
// * * * * * * * * * * * * * * * * * * * * * * * * * * * * * * * * * * * * * //

dimensions      [0 1 -1 0 0 0 0];


internalField   nonuniform List<vector> 
37190
(
(0.990799 -0.00625474 4.85035e-21)
(-0.0438168 0.0221801 -3.55731e-21)
(1.0356 -0.00437626 3.61524e-21)
(0.969503 -0.258768 3.82096e-22)
(0.081101 0.024529 3.31357e-20)
(1.0137 -0.0209723 5.13619e-23)
(1.14666 -0.0381899 2.20773e-20)
(1.00058 -0.0656928 6.42389e-21)
(0.990277 -0.247055 -8.20654e-24)
(1.10054 0.0656476 1.43644e-20)
(0.991581 -0.0137611 4.48529e-21)
(1.02362 -0.0032993 6.32056e-21)
(0.99911 -0.101717 -3.39176e-21)
(1.01469 -0.000783036 -9.84718e-22)
(0.662355 0.0733501 9.51978e-21)
(1.00803 -0.037021 -3.70685e-24)
(0.971843 -0.0617383 2.4897e-21)
(1.17857 -0.0650023 -4.49106e-22)
(0.530094 0.0673748 1.22221e-21)
(1.20305 0.0699863 -2.9761e-20)
(1.01692 -0.0747962 0)
(0.990407 -0.00614428 -5.99058e-21)
(0.655148 0.0375608 3.44475e-20)
(1.06609 0.00317451 -2.02804e-21)
(0.954145 -0.0576051 -1.75366e-22)
(1.00835 -0.0374553 1.18119e-23)
(1.14615 -0.0636567 1.6751e-20)
(1.10676 0.0292506 -2.11448e-20)
(0.595585 -0.64464 2.00341e-20)
(-0.052373 -0.0166158 -2.83722e-20)
(0.473088 0.0722892 8.27424e-23)
(1.01043 -0.0102698 -2.00136e-23)
(1.09646 0.0472523 1.19739e-20)
(1.11461 0.0688259 0)
(1.13233 0.0406752 -2.41414e-20)
(1.11444 0.0235927 2.1961e-20)
(1.02701 -0.0027617 2.03794e-21)
(1.06614 0.00235589 0)
(1.06518 -0.0108104 1.20114e-20)
(1.00027 -0.0272251 -1.79338e-21)
(1.09215 0.0615362 -4.6723e-21)
(-0.104392 0.014929 1.53071e-20)
(0.952575 -0.0514332 0)
(1.16167 0.0177667 -4.61992e-20)
(0.994572 -0.00466195 -2.84784e-21)
(1.219 -0.0299147 2.38831e-20)
(-0.0509176 -0.028627 0)
(1.21186 -0.338264 0)
(1.03559 -0.00400491 0)
(0.0864079 0.0262114 -3.19714e-20)
(0.963548 -0.0183734 -9.307e-21)
(0.998382 -0.0325162 0)
(1.07999 0.0215941 -8.91581e-21)
(0.887691 -0.152103 -7.52973e-21)
(1.0002 -0.00488905 1.10751e-21)
(1.05154 -0.0159054 -2.13465e-21)
(1.10032 0.0650135 -1.79978e-20)
(1.02687 -0.0029043 1.83331e-21)
(0.233921 0.0235125 1.10575e-20)
(1.0204 -0.00509205 -1.38556e-21)
(0.228555 0.0216722 -1.21881e-20)
(1.11393 0.0243712 -1.38262e-20)
(1.02168 -0.000285382 5.90801e-22)
(0.0149823 0.0255832 6.35076e-20)
(0.976217 -0.0685044 5.70378e-21)
(0.95321 -0.054605 0)
(1.01793 -0.0139865 0)
(1.21025 -0.0487042 -2.08072e-20)
(0.72477 -0.252073 1.2431e-21)
(1.02157 -0.000368861 0)
(1.00024 -0.00476225 -4.67954e-21)
(0.972743 -0.0070325 -1.9976e-21)
(1.09073 -0.0251864 -2.26921e-21)
(1.01212 -0.0242965 0)
(0.992652 -0.028792 0)
(1.01769 -0.0414629 -1.83546e-22)
(0.218984 0.0545361 -9.17461e-21)
(1.12287 -0.0836091 6.09602e-21)
(-0.1017 0.019206 -2.80167e-20)
(1.09166 -0.0448711 -9.79908e-21)
(1.00179 -0.000250843 -2.93278e-24)
(0.970581 -0.125844 0)
(1.01201 -0.0237343 0)
(0.872445 -0.421204 0)
(1.29973 -0.309057 0)
(0.972621 -0.0608675 0)
(0.367799 0.0472497 9.00926e-21)
(-0.0704724 -0.0161163 8.93057e-20)
(0.649822 0.0726796 -2.21097e-21)
(1.01055 -0.010557 -2.024e-22)
(0.186805 0.0516127 2.78616e-22)
(1.09706 0.0491834 -6.52618e-21)
(0.951593 -0.0535744 8.08035e-21)
(1.01338 -0.0244007 6.67958e-24)
(0.997027 -0.0200887 0)
(0.952722 -0.0571485 7.54479e-21)
(-0.109301 0.017852 4.04997e-20)
(1.00541 -0.0114686 -2.86381e-23)
(0.970734 -0.252009 -1.11915e-21)
(0.472966 -0.0121123 0)
(0.951515 -0.0507031 8.06339e-21)
(1.10771 -0.291031 0)
(0.161263 0.0457676 4.4803e-20)
(0.401643 -0.0199028 0)
(0.997847 -0.0072447 -5.027e-21)
(1.00748 -0.0500565 1.24637e-23)
(0.109508 0.0419416 -9.53159e-21)
(1.00083 -0.00519826 1.53273e-21)
(1.01759 -0.0138054 0)
(0.52306 0.0756465 1.69617e-20)
(0.490282 0.075862 0)
(0.557908 0.0674254 0)
(1.06739 -0.00802606 -8.70447e-21)
(1.03006 -0.00377404 -1.45178e-21)
(1.04181 -0.0258114 6.0544e-21)
(0.995422 -0.00928445 0)
(1.12484 -0.0828935 0)
(1.06548 -0.0112331 -4.74931e-21)
(0.999791 -0.0272062 0)
(1.03558 -0.0576871 -3.39293e-21)
(0.991838 -0.0239983 0)
(0.299722 0.0191443 0)
(0.993623 -0.00446509 0)
(0.972977 -0.00630433 7.55708e-21)
(1.00112 -0.0122746 -1.83938e-21)
(0.585842 0.0545791 2.23974e-22)
(1.02984 -0.0039471 0)
(1.00232 -0.0117063 2.36409e-21)
(1.08978 0.0664722 0)
(0.75111 -0.234453 -2.96129e-20)
(1.00228 -0.0119641 -2.91299e-21)
(-0.0199145 0.0266508 -2.39929e-20)
(1.08229 -0.0124776 0)
(0.955285 -0.0606758 -1.02738e-20)
(0.129239 0.0437365 2.63565e-20)
(1.02572 -0.0228573 6.22863e-22)
(1.06892 -0.184748 -1.05407e-20)
(1.21282 -0.0502189 0)
(1.21727 -0.0321294 0)
(0.959932 -0.0392853 9.57727e-21)
(1.08965 -0.0129938 0)
(1.10782 0.0293884 8.08124e-21)
(0.985319 -0.242959 -1.43082e-21)
(0.953501 -0.0597865 1.60531e-20)
(0.997096 -0.0195779 2.04688e-21)
(1.01813 -0.0408932 2.61061e-22)
(0.364303 0.0625124 0)
(1.02585 -0.0642781 -1.63417e-21)
(1.2169 -0.0592904 1.17382e-20)
(1.02839 -0.0078511 0)
(1.00121 -0.0158774 0)
(0.94594 -0.139012 0)
(1.15175 0.0529651 2.83697e-20)
(1.00256 -0.00468693 -1.91894e-21)
(0.231864 0.0214906 -3.13092e-21)
(1.02091 -0.00820906 0)
(-0.0920956 0.0206902 -7.93095e-21)
(0.991759 -0.0133448 -1.01968e-20)
(0.125758 0.045339 0)
(1.07509 -0.17271 4.25895e-21)
(1.13272 -0.164134 -4.62487e-22)
(0.980181 -0.00567805 0)
(-0.23837 0.00191904 -3.9118e-20)
(0.395084 0.0439585 0)
(0.943142 -0.137334 0)
(1.03476 -0.0566021 -1.85307e-22)
(0.752599 0.0869989 -2.73461e-20)
(1.17684 0.00472923 0)
(0.466621 0.0441947 1.49147e-20)
(1.10216 0.0637857 9.01409e-21)
(1.02522 -0.022766 1.1965e-21)
(0.413237 0.0462478 8.45667e-21)
(0.979665 -0.00547199 0)
(1.05022 -0.0781215 0)
(0.30756 0.0208995 0)
(1.11232 0.0506492 0)
(1.01187 -0.0347076 -1.16244e-21)
(0.966198 -0.0611907 -6.41903e-21)
(1.10252 -0.214375 0)
(1.06847 0.00395113 0)
(1.16029 0.0168535 2.52612e-20)
(0.998338 -0.00692369 0)
(0.998362 -0.00718863 0)
(1.03496 -0.0124368 0)
(0.29233 0.0619726 -1.66218e-20)
(0.998905 -0.00260964 1.93075e-21)
(1.09178 0.0480281 0)
(1.1081 -0.0238886 0)
(0.589479 0.0396827 1.15628e-20)
(1.20553 0.0163603 -8.06472e-22)
(1.0007 -0.00527505 0)
(1.17882 -0.0732024 -7.9067e-21)
(1.03102 -0.00512197 2.73047e-21)
(1.05559 0.000689782 8.03716e-21)
(1.10258 0.0769761 -1.16705e-20)
(1.08351 -0.0121197 -1.45704e-20)
(1.00395 -0.0288731 0)
(1.1474 -0.0587552 3.62602e-21)
(0.402624 0.000257043 -7.00105e-20)
(0.549233 0.0727456 -9.93737e-21)
(1.18968 -0.296564 6.94264e-21)
(1.03226 -0.0116096 0)
(1.00129 -0.0155011 -1.66349e-21)
(0.999474 -0.00380605 0)
(0.363526 0.0407645 -1.12703e-22)
(1.11912 -0.0814407 -1.0725e-20)
(1.14496 -0.0385509 0)
(0.968961 -0.0279504 -4.22292e-21)
(0.992404 -0.0238407 0)
(0.35402 0.046073 -8.89819e-21)
(0.992063 -0.0115425 7.16506e-21)
(0.445056 0.0422325 7.97259e-21)
(1.03205 -0.0119118 -2.1673e-21)
(1.09989 -0.0949512 4.09372e-21)
(-0.0054857 0.0295092 7.82598e-21)
(0.491037 0.0397977 0)
(1.21735 -0.0619214 -1.56878e-20)
(1.21466 -0.0706161 0)
(1.11365 0.0689839 3.70772e-21)
(1.00159 -0.0061612 -1.23678e-21)
(0.242346 0.0237646 -6.20261e-21)
(1.02327 -0.00324001 -7.40467e-21)
(0.984928 -0.00376598 -9.57934e-22)
(0.746167 -0.154068 0)
(0.23645 0.0575246 0)
(0.989953 -0.0027494 1.27196e-21)
(-0.121747 0.0175563 0)
(0.998007 -0.0204052 2.77645e-21)
(1.08442 -0.117943 7.6412e-21)
(-0.228958 -0.00917584 -6.56317e-20)
(0.952103 -0.0482505 7.07432e-21)
(0.985098 -0.0154712 1.53545e-20)
(1.02007 -0.00492825 2.05924e-23)
(0.348941 0.0467418 -5.91695e-21)
(1.01376 -0.156338 0)
(1.15138 0.0158765 2.01989e-20)
(0.994675 -0.417298 0)
(-0.239685 -0.00389254 5.96474e-20)
(1.02119 -0.000529924 6.53295e-22)
(1.04071 -0.0271465 -4.96606e-21)
(1.08456 -0.228579 7.08005e-21)
(0.998917 -0.0024879 8.46988e-22)
(0.358463 0.0392711 -8.86599e-21)
(0.999842 -0.0332138 -1.0701e-21)
(1.01024 -0.0340916 0)
(1.18474 0.066073 2.15706e-20)
(1.00479 -0.0113824 5.46315e-22)
(0.073495 0.0244081 0)
(1.0964 0.0480209 1.24994e-20)
(1.17572 -0.0195839 8.55026e-22)
(1.02659 -0.0273463 -2.15777e-21)
(1.10914 0.0308757 0)
(0.985194 -0.0150281 -1.3037e-20)
(0.965673 -0.122834 -7.868e-21)
(1.0732 -0.0704142 -7.70702e-21)
(0.994353 -0.00398008 4.78578e-21)
(1.17762 -0.0748048 0)
(0.998736 -0.00302138 -3.69857e-21)
(1.06684 -0.180725 1.63768e-20)
(1.00497 -0.0105879 4.87829e-22)
(0.0789602 0.025998 8.4092e-21)
(1.09407 -0.0146617 1.26205e-20)
(1.02814 -0.00755396 -2.45843e-22)
(0.519345 0.0756027 -1.28227e-20)
(1.06397 -0.0218277 0)
(1.0173 -0.0131072 2.29843e-22)
(1.01199 -0.000432485 0)
(0.950792 -0.0472422 -7.53934e-21)
(0.247005 0.0582252 0)
(1.02714 -0.00322023 -2.0073e-21)
(0.801815 0.00905553 5.25768e-20)
(0.503899 0.074805 3.65843e-21)
(1.11264 0.0687418 -7.45401e-21)
(0.877911 -0.148175 -8.45026e-22)
(-0.14118 -0.0247057 -5.88042e-20)
(1.03681 -0.00299635 2.758e-21)
(1.02169 -0.0209683 1.37417e-21)
(-0.026613 0.0211309 1.15848e-20)
(1.09687 0.00797774 1.28401e-20)
(1.09 -0.0120402 9.15284e-21)
(0.619975 -0.649502 1.88966e-20)
(0.972923 -0.00847784 1.96008e-20)
(1.2061 -0.126231 1.65424e-20)
(1.0917 0.0614499 -4.32429e-21)
(1.06306 -0.0215026 -7.71073e-21)
(1.08907 -0.0281005 0)
(1.04404 -0.00416853 8.67155e-21)
(0.973295 -0.00797185 -1.15019e-20)
(1.14273 -0.0377495 2.12732e-22)
(0.994676 -0.00378926 -4.88886e-21)
(1.04534 0.000441014 -8.98472e-21)
(1.12606 0.0437524 4.08087e-21)
(0.75385 -0.147976 0)
(1.14019 -0.0612684 1.44459e-20)
(-0.149333 -0.023473 9.81076e-20)
(0.989076 -0.00382083 1.87712e-23)
(1.02525 -0.0275108 0)
(0.281326 0.061104 0)
(1.11896 -0.00463938 0)
(1.02696 -0.0033831 0)
(-0.105376 0.0183221 0)
(1.24994 0.0345682 -1.96405e-20)
(0.941476 -0.0302141 -4.12251e-21)
(1.10975 0.0609063 -2.50227e-20)
(1.03779 -0.0114114 2.74573e-22)
(1.02992 -0.00450652 -6.87867e-21)
(1.01764 -0.0134145 -6.71551e-23)
(0.99874 -0.00285996 1.77335e-21)
(1.09315 -0.513804 0)
(1.04912 -0.0767959 1.8397e-21)
(0.999965 -0.00109535 -1.30077e-21)
(0.235141 0.0568647 4.40274e-20)
(1.01121 -0.154774 -3.28282e-22)
(1.11441 -0.289223 -1.5033e-20)
(-0.256227 -0.00407753 7.01235e-20)
(0.265631 -0.0934589 -5.37777e-20)
(0.971802 -0.128063 9.08475e-21)
(1.0936 0.0668703 0)
(1.00837 -0.20824 -1.8858e-21)
(1.03013 -0.00429665 0)
(0.989588 -0.00242998 1.65581e-23)
(0.856013 -0.0898868 0)
(1.11214 0.0679302 0)
(1.02958 -0.0309973 0)
(0.367895 0.0540967 -1.1951e-20)
(1.11399 0.0613316 -1.69451e-20)
(1.16514 -0.059578 -2.18675e-20)
(0.430197 -0.00117839 1.07567e-19)
(1.00584 -0.00710542 0)
(0.429026 0.023399 -2.80404e-20)
(1.0639 -0.145627 0)
(1.1174 -0.00294911 -5.88056e-21)
(1.01796 -0.0317773 -6.76391e-23)
(1.07349 0.0892412 0)
(1.15035 0.0522825 -3.62612e-20)
(-0.0105635 0.0240934 1.4542e-21)
(1.09879 0.0715367 0)
(0.822937 -0.244197 1.92091e-20)
(1.05469 -0.0342244 6.95403e-21)
(0.0229482 0.0256338 -3.34714e-20)
(0.990539 -0.0585537 -6.92967e-21)
(1.11048 0.0606067 2.07118e-20)
(1.04123 -0.0260252 0)
(1.05108 -0.0152888 0)
(0.124559 0.0443377 -1.17951e-21)
(1.18268 -0.295539 7.38141e-21)
(1.10303 0.0638666 -1.83397e-20)
(0.999953 -0.00106709 1.38945e-21)
(1.00338 -0.0180124 -1.56624e-21)
(1.0281 -0.00639176 -6.67686e-21)
(0.999754 -0.00606086 4.84591e-23)
(0.577553 0.0683652 1.09354e-20)
(1.01315 -0.026552 1.82893e-22)
(1.0364 -0.00235045 0)
(0.972603 -0.117675 -4.17282e-22)
(1.21109 0.064201 0)
(1.01651 -0.010855 1.57432e-21)
(0.575286 0.0662605 7.98285e-21)
(1.15348 -0.143498 3.34883e-20)
(1.00078 -0.0637399 -4.99059e-21)
(1.05179 -0.165629 -4.77145e-21)
(-0.117157 0.0181241 3.21431e-20)
(1.13738 -0.136238 1.8098e-20)
(0.132759 0.0454036 0)
(1.00107 -0.113042 -2.43411e-21)
(1.17951 -0.0416727 4.0368e-20)
(0.984438 -0.0141457 0)
(1.01269 -0.00243906 0)
(1.12597 0.0407824 -8.76034e-21)
(1.10127 -0.0965281 -1.4009e-20)
(0.991582 -0.0579971 5.30512e-21)
(0.751154 -0.138332 1.73871e-20)
(1.00278 -0.111971 -2.87234e-21)
(1.24145 0.0346658 1.70819e-20)
(1.02693 -0.0647142 0)
(1.09315 0.0466997 -1.54643e-20)
(1.17787 -0.0198949 -1.96651e-20)
(1.20553 0.0180238 -1.29818e-20)
(1.18093 -0.0275568 0)
(-0.123897 0.0170787 -3.97607e-20)
(0.893941 -0.071139 0)
(1.23378 -0.112709 -5.46243e-20)
(0.817656 0.0719535 0)
(1.09969 -0.120741 -1.22143e-20)
(1.14131 -0.0388574 0)
(0.580107 0.0646474 0)
(1.1479 -0.0566194 -2.09676e-20)
(1.08291 -0.116142 -2.78177e-22)
(1.14942 0.0159171 0)
(0.851627 -0.0909547 1.52428e-20)
(1.04488 0.00063837 8.50449e-21)
(1.10207 0.0559449 0)
(1.08573 -0.0694833 -2.71263e-21)
(1.04136 -0.0269004 -3.33371e-21)
(0.961912 -0.0634842 1.65232e-20)
(1.01601 -0.0114565 0)
(1.09669 0.0714021 -1.01806e-20)
(0.99917 -0.103633 1.47394e-21)
(0.999998 -0.000828348 -3.03324e-23)
(1.21404 -0.0740193 0)
(1.01266 -0.00195741 0)
(0.18797 0.0516166 2.65524e-20)
(1.00091 -0.0760557 0)
(0.991732 -0.0246667 -5.84286e-21)
(0.962948 -0.0645821 -7.87357e-21)
(1.00567 -0.00689812 6.64394e-23)
(1.0066 -0.00446899 -4.81961e-23)
(0.0858708 0.0243354 -2.25623e-20)
(1.05436 -0.0333812 -1.31779e-20)
(1.0125 -0.00174417 0)
(1.01521 -0.0399538 8.17127e-23)
(1.12362 0.0851284 8.52327e-21)
(0.181195 -0.0832122 1.41171e-22)
(1.04338 -0.00427256 -4.99732e-21)
(1.0177 -0.0311683 -5.50909e-22)
(1.01023 -0.000470207 -3.29558e-22)
(1.1213 -0.00812725 1.98497e-20)
(1.00103 -0.0119925 0)
(1.02707 -0.00385814 0)
(1.0076 -0.0089495 8.89716e-23)
(0.2051 0.0527338 -2.0275e-20)
(1.23658 -0.115365 5.93614e-20)
(0.602533 0.0669845 -9.45002e-22)
(0.999056 -0.0186346 5.7419e-21)
(1.02725 -0.00368334 0)
(1.21097 -0.0746721 0)
(0.268247 0.0593794 1.76016e-20)
(1.00001 -4.66697e-05 7.29346e-22)
(1.00861 -0.0697273 -8.57484e-22)
(1.01018 -0.0195223 -2.62852e-22)
(0.883145 -0.510434 9.5602e-22)
(1.01252 -0.00124434 -1.62731e-21)
(1.00177 -0.0770299 1.61346e-22)
(1.02864 -0.246711 0)
(0.967971 -0.0110911 -1.775e-20)
(0.731928 0.0123469 -1.39606e-22)
(1.01109 -0.000257654 0)
(1.20844 -0.128563 0)
(1.00857 -0.0486934 -8.34277e-23)
(1.03256 -0.0250028 0)
(0.986557 -0.0511469 5.45261e-21)
(1.03471 -0.0128177 0)
(0.0520031 0.0271362 3.19374e-20)
(0.969194 -0.0611182 1.04321e-20)
(1.03123 -0.0301863 -1.0841e-21)
(0.30053 0.0387102 -1.29153e-20)
(0.854364 0.0728118 -1.38082e-20)
(1.01346 -0.00116891 -2.04009e-21)
(0.404406 0.0591856 -2.31098e-20)
(1.01102 -0.0475069 0)
(1.11937 -0.0115179 0)
(1.11218 0.0609515 -1.99917e-20)
(0.99573 -0.0093306 5.5217e-21)
(0.0968389 0.0271456 1.51297e-20)
(1.00479 -0.012092 1.2885e-21)
(0.697761 -0.080686 0)
(1.03083 -0.00540064 -2.87182e-21)
(1.0004 -0.00155066 0)
(1.07733 -0.057392 1.26175e-20)
(1.02839 -0.00669816 4.92554e-21)
(-0.00970319 0.0240232 0)
(1.10591 0.0020606 -1.76128e-20)
(1.01787 -0.00050565 0)
(1.05632 0.0709832 9.7524e-23)
(1.21041 -0.0456288 4.1703e-20)
(1.00586 -0.00751587 2.0471e-23)
(1.1034 0.0629147 0)
(1.21894 0.0624798 1.94857e-20)
(1.02679 -0.0413167 1.25672e-21)
(1.0312 -0.0177811 3.33424e-21)
(1.12017 -0.00923946 -2.02018e-20)
(0.280923 0.0603162 1.78302e-20)
(0.435076 -0.0118508 0)
(1.20999 0.000432416 -3.57462e-20)
(1.06979 0.0924317 -1.06836e-22)
(0.376325 0.055018 0)
(1.05013 -0.161939 4.79202e-21)
(0.257266 0.0584896 -1.00778e-20)
(0.964388 -0.0175396 9.11539e-21)
(1.01388 -0.0206501 -3.05637e-22)
(1.03097 -0.0059632 0)
(1.03773 -0.0391116 2.6293e-21)
(0.427469 0.0474222 8.51325e-21)
(1.07901 0.0708514 -1.26943e-20)
(1.02515 -0.0186648 1.95143e-21)
(1.09651 0.00861943 -8.5973e-21)
(-0.143596 -0.00750921 0)
(0.984707 -0.00427836 0)
(-0.212259 -0.0105744 0)
(1.09854 -0.119142 1.03649e-20)
(1.06216 -0.01011 9.24097e-21)
(0.970852 -0.114884 4.45579e-22)
(1.03195 -0.0249948 -1.99902e-21)
(1.09611 0.0613221 -1.92062e-20)
(1.17773 -0.00966643 2.26301e-20)
(0.882677 -0.15303 0)
(1.03054 -0.0301979 8.169e-22)
(1.02448 -0.0197375 -2.03919e-21)
(1.18965 0.0214027 0)
(-0.245638 0.00198159 5.07816e-20)
(0.996197 -0.0756159 -1.74378e-22)
(1.00025 -0.00011864 -3.606e-22)
(1.03837 -0.0398553 -1.04841e-22)
(0.758932 0.0834731 9.02268e-21)
(1.12241 -0.0855647 -1.23597e-20)
(-0.0895515 0.0174224 2.78404e-20)
(1.12488 0.0900092 -2.48363e-20)
(1.09642 0.0706373 6.58467e-21)
(0.564595 0.0763945 1.51075e-20)
(0.968331 -0.0105565 1.44673e-20)
(0.312549 0.0407534 1.11757e-20)
(1.00022 -8.89318e-05 -5.92196e-22)
(0.544467 0.0774073 -1.67137e-20)
(1.03654 -0.00121022 0)
(1.06506 -0.367275 -1.51802e-20)
(0.354367 0.0418909 5.40542e-20)
(1.10547 0.00108647 1.81085e-20)
(1.03631 -0.00273315 -5.95318e-23)
(1.01268 -0.00146964 1.70932e-21)
(0.170224 -0.0681449 0)
(1.07477 -0.0513357 0)
(1.14866 0.0207057 -2.26379e-20)
(1.2263 0.0608004 3.55536e-20)
(1.15311 0.0865492 0)
(1.01033 -0.0333759 -7.9295e-23)
(1.08702 -0.0632016 -1.97681e-22)
(1.06348 -0.148248 0)
(0.970257 -0.0620111 -1.16362e-20)
(1.06372 -0.374039 1.75172e-20)
(1.00001 -0.0003443 0)
(1.03236 -0.242714 0)
(1.02034 -0.0073307 -1.17574e-21)
(1.03126 0.092469 0)
(0.998641 -0.0174534 -3.07058e-21)
(0.994937 -0.00403165 4.30426e-23)
(0.405813 -0.0209947 3.96639e-20)
(1.01017 -0.0100747 0)
(0.998028 -0.00724059 0)
(1.00435 -0.029388 3.90666e-21)
(0.940284 -0.0537142 -1.9872e-20)
(1.00001 -0.000268334 -1.18086e-22)
(0.999995 -0.000636808 0)
(0.819594 -0.250574 -1.43165e-20)
(1.02714 -0.0783416 0)
(0.309423 0.0244657 0)
(1.00259 -0.00441804 0)
(1.06404 0.00691935 1.89573e-20)
(1.12336 0.000270497 -1.47248e-20)
(0.872541 -0.151927 4.4881e-21)
(1.0143 -0.0152245 0)
(1.00702 -0.00904896 0)
(1.06908 0.00231337 1.02399e-20)
(0.983755 -0.131255 3.92344e-21)
(0.063585 0.0249146 0)
(1.12845 0.0405244 -4.39889e-21)
(0.992132 -0.0111914 -4.68799e-21)
(1.06762 -0.00876393 1.91823e-20)
(1.2669 -0.147093 -3.84216e-20)
(0.552015 0.0734995 0)
(1.00572 -0.00734045 0)
(1.02652 -0.00451516 -3.32978e-21)
(-0.276604 -0.00342561 -1.11585e-19)
(0.392078 0.0505591 0)
(0.781292 -0.0844272 1.80934e-20)
(0.0713646 0.0255541 -8.57315e-21)
(1.01187 -0.0475618 0)
(1.11765 -0.0798196 -9.28084e-21)
(0.991333 -0.00364012 7.63339e-21)
(0.303745 0.0230682 1.38995e-21)
(1.2491 0.0367466 1.92066e-20)
(1.07773 0.0033223 0)
(0.995255 -0.0743481 3.09669e-22)
(1.12086 0.0837867 -9.24151e-21)
(1.17974 -0.0393536 1.39503e-20)
(1.0271 -0.0222462 0)
(1.21761 -0.0694585 -2.28018e-20)
(0.0661667 0.0239301 -9.12213e-21)
(0.609228 0.0673759 0)
(1.0291 -0.0303577 -2.37419e-21)
(1.12485 0.000186026 1.55877e-20)
(1.12332 -0.00590958 -1.77259e-20)
(1.04526 -0.0238641 1.16411e-20)
(1.06556 -0.0100905 2.86954e-21)
(0.992488 -0.0231981 -3.01677e-21)
(0.243976 0.0566053 1.97443e-20)
(0.824286 0.0865102 -4.5462e-21)
(1.03098 -0.0172598 0)
(0.63065 0.0694916 -9.93679e-21)
(0.81558 0.0781512 1.06989e-20)
(1.00008 -0.00171062 -2.1772e-21)
(0.803641 -0.192539 0)
(1.00307 -0.0127821 -1.00674e-21)
(1.12591 0.0393986 -6.58167e-21)
(1.10364 -0.02648 1.08646e-20)
(1.00096 -0.00884143 -1.25171e-21)
(1.25015 -0.332407 0)
(0.566136 0.0640186 0)
(1.10682 -0.026304 -1.22292e-20)
(1.16794 -0.585201 -4.37947e-20)
(1.00293 -0.0128615 1.26928e-21)
(0.989305 -0.0550781 -5.57833e-21)
(1.0768 0.00340492 -5.9283e-21)
(0.9724 -0.112414 -8.90324e-22)
(1.07621 -0.0512015 -3.90394e-21)
(1.15492 -0.00735768 -1.59751e-20)
(1.00522 -0.0139735 7.88921e-22)
(1.11744 -0.00405909 0)
(0.999534 -0.00358045 0)
(0.449445 0.0497569 0)
(1.14367 -0.0952607 -2.19323e-21)
(1.00671 -0.0162959 -1.44197e-21)
(1.04867 -0.359568 -1.45283e-20)
(1.01957 -0.00571643 2.02896e-21)
(0.205088 0.0532403 -1.80814e-20)
(-0.147284 -0.0229654 0)
(1.00401 -0.00449356 0)
(-0.05435 0.0215701 0)
(1.02708 -0.00435891 1.39091e-23)
(1.01441 -0.0401442 1.51825e-23)
(1.06823 0.0021983 9.33396e-21)
(1.00412 -0.00474209 3.14829e-22)
(1.16501 -0.134473 6.97469e-21)
(1.08822 -0.0622445 -1.02632e-20)
(1.00688 -0.0161235 1.76878e-21)
(1.13924 -0.037842 -3.42051e-21)
(1.01105 -0.0203993 3.06943e-22)
(1.10072 0.0368839 3.08634e-21)
(0.856024 0.0790145 -1.87945e-21)
(1.00505 -0.010891 6.7692e-22)
(0.997251 -0.0219103 -2.65931e-21)
(0.552361 0.0683127 -4.84454e-21)
(1.00003 -0.00109133 -6.88009e-25)
(1.02733 -0.00418201 -2.06235e-21)
(1.2079 -0.0442265 -6.02149e-20)
(0.852244 -0.14695 1.43239e-21)
(0.862192 -0.0557141 8.91671e-21)
(1.16551 -0.164188 -1.80239e-20)
(0.995201 -0.0713785 0)
(1.01295 -0.024215 2.53173e-22)
(0.943135 -0.0360314 -9.5776e-21)
(1.13355 0.0895417 2.70954e-20)
(0.188084 0.0225294 0)
(1.11131 0.0612771 1.66684e-20)
(0.214132 0.0232276 0)
(1.02132 -0.000486576 -1.88234e-24)
(1.1144 0.065574 -4.44706e-23)
(0.966325 -0.017311 -8.85001e-21)
(1.04389 -0.0651928 -2.78049e-21)
(0.607989 0.0778053 7.79999e-23)
(1.14759 0.0529939 6.14929e-21)
(1.04217 -0.240954 -7.64808e-21)
(1.00486 -0.0116912 0)
(1.14904 0.0536243 0)
(0.955399 -0.0617746 0)
(1.16623 0.0863027 1.3787e-20)
(1.11183 0.053148 0)
(0.936185 -0.138357 -1.5617e-20)
(0.147914 0.0160412 3.81024e-21)
(1.00938 -0.0487592 0)
(-0.144269 -0.0237971 0)
(0.865534 -0.393445 -5.16768e-21)
(1.04318 -0.064094 0)
(1.0865 -0.0661415 -9.92168e-21)
(1.07906 -0.17169 1.14544e-22)
(1.07331 -0.18463 -9.05753e-21)
(1.09358 -0.011027 2.07235e-20)
(1.02071 -0.000466692 -1.23679e-21)
(1.11461 0.0419452 0)
(1.00501 -0.013825 -1.57696e-21)
(1.1272 0.0413477 -4.45153e-21)
(0.9825 -0.231717 0)
(1.01069 -0.0203431 0)
(1.16397 -0.161097 -3.0137e-20)
(-0.0361644 0.0178642 2.47291e-20)
(0.999011 -0.00638234 3.78408e-21)
(1.00269 -0.00440045 5.51882e-24)
(0.409453 -0.00145312 0)
(0.989866 -0.0293885 4.13346e-21)
(1.02252 -0.022526 0)
(1.17901 -0.0220586 0)
(-0.116686 -0.0155895 -3.89578e-20)
(0.305993 0.0248653 -1.04877e-20)
(1.10334 -0.0279772 -1.15196e-20)
(1.02031 -0.0020914 0)
(0.219609 0.0232992 0)
(1.13707 0.029666 0)
(1.30088 -0.31615 0)
(0.967446 -0.0622464 7.09159e-21)
(1.10709 -0.0277509 -1.59348e-20)
(1.15297 -0.0072253 0)
(1.04106 -0.062784 -2.36245e-21)
(1.19109 0.0231448 2.01489e-20)
(0.984443 -0.0147369 -9.80325e-22)
(-0.132292 -0.0131697 -1.21871e-19)
(0.999252 -0.0331712 1.24295e-21)
(1.09804 0.071734 -6.694e-21)
(0.965448 -0.0181161 -9.15294e-21)
(1.08898 -0.104363 -3.50441e-21)
(1.09634 0.060839 0)
(1.02663 -0.00230931 0)
(0.660768 -0.288552 -4.27958e-20)
(1.02691 -0.00243423 1.06579e-23)
(1.00531 -0.0298081 -2.0423e-24)
(1.09036 0.0670333 -5.99679e-21)
(1.04455 -0.0236523 -4.71996e-21)
(-0.131585 -0.026367 -8.88573e-20)
(0.999207 -0.010342 0)
(1.05809 0.0896964 1.44955e-20)
(1.01294 -0.0260302 -2.06112e-22)
(0.999113 -0.0101244 1.08351e-21)
(1.00761 -0.387269 -5.37492e-22)
(1.01499 -0.000855323 -3.30097e-22)
(0.167121 0.0490932 -2.7641e-20)
(1.02302 -0.0226251 0)
(0.981191 -0.132436 -1.60124e-21)
(0.995231 -0.00380548 -4.29409e-23)
(1.00002 -7.39598e-05 -6.35226e-22)
(1.14483 0.0534404 3.78579e-20)
(0.746208 -0.294267 -2.67537e-20)
(0.881172 0.0686412 3.12867e-21)
(0.196087 0.0515956 -2.08509e-20)
(-0.143909 -0.025749 6.47697e-20)
(1.08561 0.0716719 1.84807e-20)
(1.10334 0.0476489 -3.68553e-22)
(1.03394 -0.023982 0)
(1.0413 -0.0391484 4.01816e-21)
(-0.259972 -0.00403551 0)
(0.589498 0.0663044 0)
(0.997625 -0.0217887 1.04465e-21)
(-0.136705 -0.00934533 -2.54282e-21)
(0.201887 0.0230027 -1.19725e-20)
(1.09241 0.0478117 -8.95163e-21)
(1.07412 -0.11204 1.47934e-20)
(1.09581 0.00524383 -3.09784e-21)
(0.612485 0.0790869 -1.70419e-20)
(1.02175 -0.0204633 -1.6986e-21)
(1.1809 -0.0665984 -4.99205e-22)
(0.214578 0.0218156 0)
(1.03844 -0.244971 8.37128e-21)
(1.21304 -0.346249 0)
(0.586238 0.0790744 -5.24887e-22)
(1.06332 0.00700499 -1.49335e-20)
(1.04642 -0.0757804 7.75309e-21)
(1.02965 -0.00560593 0)
(0.719698 0.0824891 5.25239e-21)
(-0.0523058 0.0217492 1.59519e-20)
(1.02618 -0.00455288 5.64791e-21)
(0.762245 -0.394979 5.88686e-21)
(0.458657 0.0111918 3.13749e-20)
(1.09526 -0.0150005 1.35144e-22)
(-0.153273 -0.0221412 1.77629e-20)
(1.11578 0.0236756 -5.39146e-21)
(-0.0417597 0.0166053 -3.04689e-20)
(0.990977 -0.0253447 6.69973e-21)
(1.17866 -0.023646 0)
(0.879954 -0.414551 0)
(1.19145 0.0269433 2.34404e-22)
(1.08716 -0.0683594 2.47368e-21)
(1.0048 -0.019823 -2.67541e-21)
(-0.0034219 0.031046 -3.74437e-21)
(1.1324 0.0419843 0)
(1.00521 -0.154904 7.17911e-22)
(0.999654 -0.0067965 7.83176e-22)
(1.13334 -0.168181 1.95776e-20)
(1.02009 -0.00199948 0)
(1.00213 -0.408217 -7.94226e-21)
(0.939739 -0.0299231 -7.44301e-21)
(1.05166 -0.0355812 5.12235e-21)
(1.01781 -0.0707972 0)
(0.978459 -0.0174528 -5.59669e-21)
(1.06031 -0.0502441 -8.8569e-21)
(1.10128 0.0363286 0)
(1.11931 -0.00604021 0)
(1.06245 0.00774015 2.09392e-21)
(1.16863 -0.182839 9.04939e-21)
(1.01461 -0.0801004 6.55043e-25)
(0.698656 0.0290541 0)
(1.03799 -0.498593 2.15993e-20)
(1.03694 -0.00220414 0)
(1.05017 -0.058756 0)
(0.978566 -0.018221 -2.95197e-21)
(1.0017 -0.00631334 0)
(0.182642 0.0507044 -5.22782e-21)
(0.45522 0.0731425 0)
(1.14545 -0.0124732 -8.33464e-21)
(0.985526 -0.0161441 0)
(0.944317 -0.0344172 1.77019e-20)
(1.00481 -0.0276505 0)
(1.03345 -0.0593384 0)
(0.0497489 0.0241573 -1.04602e-20)
(1.00267 -0.00464872 1.32853e-21)
(1.06943 -0.0814483 4.4113e-21)
(1.06073 -0.16246 1.539e-20)
(0.986255 -0.00300068 6.12133e-21)
(1.02574 -0.0256505 -2.12478e-21)
(1.02467 -0.0182754 -1.46116e-21)
(1.04218 -0.0391944 -9.79262e-22)
(0.856627 -0.144925 -5.20529e-21)
(0.979344 -0.0186488 -8.0098e-21)
(1.07906 0.0215101 1.69524e-20)
(1.09463 0.00547396 0)
(1.00003 -4.84032e-05 -2.81976e-22)
(1.00467 -0.0195406 0)
(0.426957 0.0551196 4.78569e-20)
(0.467202 0.0712569 -2.96944e-20)
(1.01823 2.51909e-05 0)
(1.0265 -0.00191042 -2.0826e-21)
(1.03707 -0.00106589 2.16513e-21)
(1.08023 0.0237403 5.3188e-21)
(1.0803 0.0223363 0)
(0.374108 0.0417882 -4.02559e-20)
(1.09372 0.0471596 1.12229e-20)
(0.977977 -0.0689338 -5.93202e-21)
(0.980584 -0.00691183 0)
(1.16757 -0.0589657 -2.42809e-20)
(0.719057 0.0852465 2.94931e-20)
(0.958375 -0.0393126 -1.7847e-20)
(0.999739 -0.00633874 -3.05472e-21)
(1.01986 -0.00843682 1.77825e-23)
(0.994482 -0.00497194 0)
(1.05751 -0.1623 7.0639e-21)
(0.999614 -0.00350942 -2.38981e-21)
(0.988468 -0.0309662 0)
(1.10438 -0.252907 -1.43042e-20)
(1.03009 -0.0255623 0)
(0.0948672 0.025705 1.07423e-21)
(-0.224356 0.0032273 0)
(1.04161 -0.0640845 -2.28642e-21)
(1.0808 -0.0370478 -1.40496e-20)
(0.989042 -0.132303 5.91139e-21)
(1.2489 0.0395748 1.74173e-20)
(1.10095 0.0225853 0)
(1.18633 0.0689112 -7.61382e-20)
(1.16352 -0.0357756 0)
(0.29869 0.0584185 -1.33635e-20)
(1.0491 -0.0575132 0)
(1.00187 -0.011031 -2.36933e-21)
(1.08666 -0.104283 1.58428e-21)
(-0.147769 -0.0218819 0)
(1.13809 -0.0388938 3.70521e-21)
(0.990235 -0.00433856 -2.22076e-21)
(1.10738 0.0782206 7.81486e-21)
(1.01546 -0.0102189 1.37736e-21)
(1.01967 -0.00855823 1.35554e-21)
(1.14683 -0.0369811 -1.18727e-22)
(1.15241 -0.590192 -7.94981e-21)
(1.10148 0.023585 1.56876e-20)
(1.07945 -0.228359 -1.30623e-20)
(0.986052 -0.0160238 8.89798e-22)
(1.1165 0.0227779 -1.59892e-20)
(0.986843 -0.236006 1.16394e-21)
(1.07888 0.0922309 1.2955e-20)
(1.01804 -0.0143691 0)
(1.15416 0.0205861 6.54222e-21)
(1.06959 0.0138458 6.82627e-21)
(1.24561 0.041536 0)
(1.06173 0.00954834 2.01889e-21)
(1.00977 -0.0328985 7.28271e-23)
(0.491945 0.073836 -2.81176e-20)
(1.0524 -0.0159469 -5.14438e-21)
(0.0584344 0.0233338 9.76281e-21)
(-0.117663 0.0126507 -1.28041e-20)
(0.994033 -0.00560747 0)
(0.99993 -0.00123639 0)
(1.06595 -0.524888 9.56819e-20)
(1.03068 -0.0256051 0)
(1.02773 -0.0189888 0)
(0.105013 0.0276271 2.05707e-21)
(1.01886 -0.0087992 2.506e-21)
(0.325409 0.0424169 0)
(0.986432 -0.0041369 0)
(0.514847 0.0758217 -6.20099e-21)
(1.14072 -0.0589812 0)
(1.19321 0.0126111 -1.89865e-20)
(0.232118 0.0559954 0)
(1.00046 -0.00165133 0)
(0.995464 -0.00404011 0)
(0.972165 -0.0280457 3.87357e-21)
(1.00852 -0.0273888 7.9844e-22)
(1.0374 -0.0109674 4.18359e-21)
(1.07251 -0.110721 -1.94468e-20)
(1.04665 -0.0233391 -2.99603e-21)
(1.00271 -0.0125652 0)
(1.11274 -0.0142945 -2.82154e-20)
(1.1864 0.0388729 0)
(1.00262 -0.0123184 0)
(0.997709 -0.0201043 -3.48721e-21)
(1.07291 -0.0816571 -1.3575e-20)
(0.998866 -0.0100365 -4.82798e-21)
(0.999944 -0.00117957 3.99878e-21)
(1.01617 -0.0371742 -5.18542e-23)
(0.021011 0.0337812 3.23417e-20)
(0.976272 -0.0233876 1.83754e-21)
(1.01321 -0.00851484 0)
(1.02194 -0.245173 4.72411e-21)
(0.992303 -0.0118231 3.24633e-22)
(1.02718 -0.0227586 7.01115e-22)
(-0.212899 0.0042853 0)
(0.806841 -0.184034 1.88151e-20)
(1.01649 -0.0733923 3.12254e-24)
(1.00388 -0.235082 1.3528e-21)
(1.0135 -0.00858704 -3.39016e-22)
(1.11201 -0.0214394 0)
(1.06913 0.0132919 6.45206e-21)
(1.01761 -0.000241887 3.9368e-21)
(1.05216 -0.238568 -4.26751e-21)
(0.442792 0.0669549 2.00283e-20)
(0.882812 -0.189701 -2.15284e-20)
(1.179 -0.0623427 -1.32282e-20)
(0.971034 -0.120123 3.49255e-21)
(1.02066 -0.00723766 0)
(-0.128558 0.0168293 0)
(1.01858 -0.00854619 0)
(1.01871 0.0915856 0)
(1.00612 -0.00388953 7.48853e-23)
(1.09055 -0.0436683 1.48738e-20)
(0.992068 -0.0290708 0)
(1.00172 -0.00251452 0)
(1.12969 0.041108 9.88419e-21)
(1.14428 -0.0620748 -1.68122e-20)
(1.00149 -0.00615141 1.14967e-21)
(1.0219 -0.0230422 0)
(1.1118 0.0523921 0)
(0.202458 0.0534033 -1.92342e-20)
(1.08965 -0.0244494 2.39163e-21)
(0.998044 -0.0751627 6.10883e-21)
(1.03658 -0.0298029 5.58058e-21)
(1.19106 0.0703579 5.56652e-20)
(1.02736 -0.00714977 5.04931e-22)
(0.552934 0.0217548 -1.6606e-20)
(1.01353 -0.0249111 -4.6918e-24)
(1.00749 -0.0704128 8.73579e-22)
(0.969413 -0.0269976 -8.5915e-21)
(1.16582 -0.155107 -1.52441e-20)
(1.02238 -0.023138 -1.53479e-21)
(0.06489 -0.00562568 0)
(1.0518 0.00231099 -5.93226e-21)
(1.01914 -0.0807377 0)
(0.980314 -0.0709122 6.30707e-21)
(1.01137 -0.0342375 -1.06897e-21)
(0.999254 -0.39579 6.95165e-21)
(1.18127 -0.411356 -8.3905e-20)
(0.962299 -0.016593 -7.47717e-21)
(1.09033 -0.0412518 -1.03356e-20)
(1.08111 -0.0359711 7.01799e-21)
(1.0531 -0.616177 -2.40652e-20)
(0.992274 -0.0305015 -3.96623e-21)
(0.469399 0.0398141 -4.07686e-20)
(-0.155875 0.0141564 -3.76725e-20)
(1.15716 -0.144895 -3.88345e-20)
(1.0252 -0.0394873 -2.12837e-21)