/*--------------------------------*- C++ -*----------------------------------*\
| =========                 |                                                 |
| \\      /  F ield         | OpenFOAM: The Open Source CFD Toolbox           |
|  \\    /   O peration     | Version:  v2012                                 |
|   \\  /    A nd           | Website:  www.openfoam.com                      |
|    \\/     M anipulation  |                                                 |
\*---------------------------------------------------------------------------*/
FoamFile
{
    version     2.0;
    format      ascii;
    class       volVectorField;
    location    "400";
    object      ddt0(U);
}
// * * * * * * * * * * * * * * * * * * * * * * * * * * * * * * * * * * * * * //

dimensions      [0 1 -2 0 0 0 0];


internalField   nonuniform List<vector> 
27802
(
(-4.65573e-05 -9.82241e-05 -1.2244e-22)
(2.62543e-07 2.55954e-06 0)
(-1.7056e-05 -0.000128341 -8.50167e-23)
(-9.31308e-05 0.000204842 2.15527e-22)
(-1.46046e-05 1.42134e-05 0)
(-0.000713348 0.00314922 0)
(-1.39814e-05 1.26516e-05 0)
(-0.00010619 0.000651823 3.14395e-23)
(-2.31589e-05 -2.12726e-05 6.84575e-24)
(-0.0054949 0.00280313 0)
(-0.000892085 -0.00148271 1.11401e-22)
(0.000110781 -3.58697e-05 4.83859e-22)
(-0.000119379 8.63025e-05 1.15044e-23)
(-1.2404e-05 -5.99619e-05 7.51268e-23)
(-0.00204853 0.000418693 -5.42691e-22)
(-7.17855e-05 -7.53837e-05 -1.31839e-21)
(0.00119096 -0.000892303 5.39359e-23)
(-2.31538e-05 -2.04375e-05 -5.22078e-24)
(-0.000710181 -0.00148058 0)
(-0.00530901 -0.000505603 -3.4811e-22)
(-0.00142542 0.00015378 -1.40833e-22)
(-0.00202534 0.000557751 0)
(-2.0793e-06 1.45036e-05 -2.80412e-23)
(-0.00137547 0.000396217 0)
(-0.000988218 -0.000526094 -4.12796e-23)
(-6.53869e-05 -8.23026e-05 -2.66587e-23)
(-6.93155e-06 2.33807e-05 0)
(-0.000222801 0.000246364 2.07896e-22)
(-9.73555e-06 7.92238e-08 -5.10093e-26)
(-8.85493e-06 -3.32755e-05 5.3721e-22)
(-0.00137575 0.000475017 2.69439e-22)
(-8.05312e-05 0.000300367 1.05918e-23)
(-4.52884e-05 -9.7397e-05 1.17367e-22)
(1.88898e-07 9.89978e-06 5.43679e-23)
(6.66934e-07 3.25538e-05 -5.76312e-23)
(-0.00214524 -7.89603e-06 2.40165e-22)
(-0.000731686 -0.000118599 -1.03983e-22)
(-1.22202e-05 4.07611e-05 0)
(-6.08791e-06 -1.13438e-05 0)
(2.32268e-05 -2.33291e-05 0)
(0.000112952 -3.62168e-05 -2.1648e-22)
(-2.04445e-07 3.49528e-05 3.90255e-23)
(-7.45197e-05 -4.30062e-05 0)
(-5.21166e-07 -7.95667e-06 -6.06351e-23)
(-6.59565e-05 -7.19875e-05 1.00578e-23)
(0.00252427 -0.000503597 1.33964e-22)
(-4.53331e-06 -9.24223e-05 2.39361e-24)
(-7.03578e-06 -9.22818e-05 0)
(-4.98247e-06 2.90125e-05 -1.28508e-22)
(-4.46209e-05 0.00318129 -2.08325e-22)
(-0.000918459 -0.00187277 -4.26898e-22)
(-6.7085e-05 -8.18587e-05 2.69687e-23)
(-0.00563034 0.000163145 0)
(0.000435865 -6.13734e-05 3.7758e-23)
(-5.60302e-06 1.3807e-05 -5.95645e-23)
(5.09077e-06 6.01466e-07 0)
(-0.0028844 -0.00187764 -2.5602e-22)
(-1.25816e-05 8.91527e-06 0)
(-6.2257e-05 -7.44451e-05 -4.4536e-23)
(-0.000240413 0.000698947 0)
(0.000664615 0.000636102 0)
(-5.50138e-06 -0.000129888 0)
(-0.00010212 2.63697e-05 -2.631e-24)
(-1.33071e-06 1.24505e-05 -2.95417e-23)
(-1.29605e-07 -9.62703e-06 0)
(-3.93075e-05 -2.94523e-05 8.8006e-24)
(-0.00189562 0.00499371 -6.54786e-24)
(-0.00285198 -0.00204415 0)
(-0.000284664 0.00068068 -2.33516e-23)
(-3.49379e-05 -6.22209e-05 2.71619e-23)
(-1.43579e-07 -6.62644e-06 2.17672e-26)
(0.00410535 -0.0026516 4.02798e-22)
(0.00219217 -0.0041234 0)
(0.000160611 0.00347548 0)
(1.61008e-06 -0.000139122 1.07017e-22)
(-9.93236e-06 0.000103612 8.71453e-24)
(-0.00166196 0.00495082 -6.06589e-24)
(0.000763578 -0.000121685 -5.29196e-24)
(-0.00912847 4.0874e-05 -6.38408e-22)
(-0.00389827 3.29539e-05 0)
(-1.04429e-05 -2.7368e-07 4.93937e-26)
(-5.84126e-06 6.21561e-06 9.30505e-23)
(-1.76992e-05 -9.59446e-05 0)
(-5.9086e-05 -6.35383e-06 -2.4827e-23)
(-3.94116e-05 2.967e-05 0)
(2.65982e-05 -4.44364e-05 4.7525e-23)
(1.81365e-06 1.22958e-05 -6.67571e-23)
(0.00753421 -2.7471e-05 0)
(0.00011636 0.000302619 1.06201e-21)
(-1.80075e-06 3.16092e-05 -1.01955e-22)
(-1.18748e-05 1.97549e-05 -3.71159e-24)
(-0.00775725 0.000341714 1.08099e-21)
(-2.12767e-05 -8.93747e-06 0)
(-9.92931e-07 -2.5691e-05 4.43026e-22)
(0.00165075 -0.00396749 3.17348e-23)
(-0.000373105 0.000125455 -1.32863e-22)
(-6.16524e-06 3.674e-06 -6.2842e-23)
(-0.000322026 0.000173783 -9.02364e-23)
(-4.95002e-07 -4.64941e-05 6.57457e-23)
(-0.00145555 -0.00274352 4.39634e-22)
(-4.8044e-06 -1.20338e-05 -3.00635e-22)
(-6.91943e-06 3.08343e-05 0)
(0.000231837 0.000106482 -1.9339e-22)
(0.000625404 0.000444841 0)
(0.0024092 -0.00419573 7.76675e-23)
(-0.000102698 2.43124e-05 -7.42805e-24)
(-1.03854e-05 3.03934e-05 8.40101e-23)
(-4.37893e-07 -8.9463e-06 1.39259e-22)
(-6.32459e-06 9.54047e-06 -5.52243e-23)
(-6.31873e-05 -7.74686e-05 -2.21255e-23)
(-0.000140669 -8.57515e-05 9.72513e-22)
(-9.0192e-06 1.78375e-05 -1.27002e-23)
(-8.71714e-07 6.03621e-06 9.74762e-23)
(-2.33006e-06 -4.70974e-05 7.62174e-23)
(-1.18032e-05 3.08992e-05 0)
(-1.16686e-06 1.06214e-05 -2.84209e-23)
(-5.81545e-05 9.57876e-05 -3.6012e-24)
(4.63908e-05 -0.000182683 0)
(0.00710873 -0.000752593 -4.76802e-22)
(-0.000956512 -0.000399766 1.52009e-22)
(-0.00613323 -0.000196264 0)
(-0.00019431 0.000666042 0)
(-0.00563584 -0.000274349 -1.46189e-23)
(5.76141e-05 -0.000186653 3.95726e-22)
(0.00137437 -0.000531504 -1.75165e-21)
(3.79273e-05 -0.000122057 1.62839e-22)
(-4.77102e-05 1.88374e-05 -7.91824e-24)
(-6.92581e-05 -1.99029e-05 -1.69457e-22)
(0.00180245 0.000449476 -7.13121e-23)
(-6.58048e-07 1.18413e-06 1.02708e-22)
(0.000349628 -0.0012759 4.31364e-24)
(0.00011555 0.000166963 2.52161e-23)
(-4.18354e-05 -8.12814e-05 -1.35812e-22)
(0.00027965 -0.000110179 4.39049e-22)
(0.00330767 -0.000376517 3.57464e-22)
(-4.60006e-05 9.14695e-06 0)
(-2.24495e-08 -7.0724e-05 0)
(-8.07209e-06 -5.20945e-05 -4.70791e-23)
(-5.68066e-06 -4.66497e-05 1.13113e-22)
(-4.27506e-05 -8.1325e-05 -1.85908e-25)
(-1.28643e-05 -6.16914e-05 0)
(-0.00568302 0.00272996 -1.85345e-22)
(-8.53485e-06 -0.00010545 6.93277e-23)
(-6.97931e-05 -8.23377e-05 2.52673e-23)
(-1.35766e-05 3.96267e-05 0)
(0.00310631 0.00155671 8.07224e-23)
(-3.43275e-05 -0.000100124 1.01678e-22)
(-0.000324514 -7.40571e-05 1.73265e-22)
(-6.14779e-06 -1.13872e-05 0)
(-0.00400751 -0.00210177 -5.5611e-22)
(-9.37332e-05 -6.53158e-05 0)
(-0.00117098 -1.56007e-05 3.6333e-23)
(-6.89184e-05 -3.96461e-05 -2.60602e-22)
(-0.00505239 0.000562674 -1.45216e-22)
(9.03343e-07 1.12378e-06 -2.61922e-23)
(-0.00830922 0.000107536 4.00778e-22)
(-4.31464e-05 7.594e-06 0)
(-0.000387882 0.000136555 3.34203e-22)
(2.9156e-07 -1.09645e-05 8.45147e-23)
(2.21168e-06 -6.60415e-06 2.89338e-23)
(-9.45725e-07 1.1619e-05 3.47138e-23)
(-3.94644e-05 -3.39702e-05 0)
(-0.00312725 0.00263725 -1.12752e-23)
(-1.01441e-05 -2.04734e-05 -3.56789e-23)
(1.95425e-06 2.04258e-05 -1.87945e-24)
(7.84587e-07 7.79022e-06 0)
(0.00206539 -0.00409853 -2.40907e-22)
(-1.43813e-05 -2.75891e-05 -3.06403e-23)
(-4.09922e-05 -7.95397e-05 6.09086e-23)
(-2.92159e-05 -0.000110013 8.29079e-23)
(-0.00030735 -0.000108148 -9.34147e-23)
(-0.000942548 -0.000615498 8.08701e-24)
(0.00147339 -0.000786133 3.66238e-22)
(-0.00108747 0.0119469 -4.50703e-22)
(-9.84874e-06 1.49737e-05 -6.17841e-23)
(0.00224488 -0.000169108 -8.95674e-23)
(-0.00591283 6.20882e-05 -8.93072e-23)
(0.00227277 -0.00387122 -3.32726e-22)
(-6.79811e-07 9.95669e-06 2.7656e-23)
(-8.02719e-06 3.13873e-05 0)
(0.000150647 -0.000627661 -1.04999e-21)
(0.0028558 0.00291013 -1.09145e-22)
(0.000617385 0.00029422 0)
(5.73857e-06 0.00331226 0)
(1.10586e-06 -8.66217e-06 3.35941e-23)
(-4.04644e-06 -4.10252e-05 -1.63988e-22)
(0.00103061 -0.000926676 1.35041e-22)
(-0.000121445 0.000234614 0)
(-0.0028291 0.00166838 3.89006e-22)
(2.38336e-06 -1.3923e-05 -2.18438e-22)
(-0.00188429 0.002836 -1.98975e-22)
(1.79475e-07 9.13648e-06 0)
(-1.47008e-05 -0.000119673 -1.26897e-22)
(-0.00227488 -0.00388336 -5.76975e-24)
(-4.24832e-06 -1.29609e-05 1.35603e-22)
(-0.00184119 0.000706302 -1.1861e-22)
(-0.00678054 0.000406867 2.7185e-22)
(-0.00274042 0.000732468 0)
(-0.00212866 -0.00378122 2.33007e-22)
(0.00532077 -0.000909248 0)
(-0.000183587 -0.000193505 4.0449e-23)
(2.81131e-06 2.42983e-06 0)
(-4.2522e-05 -9.98013e-05 0)
(-5.62519e-05 9.66054e-05 0)
(-0.00196971 0.00283679 -8.97466e-23)
(0.000297924 -4.73765e-05 -3.00109e-23)
(-1.41802e-05 -2.42226e-05 6.82731e-23)
(-2.43358e-05 -1.45537e-05 -1.27223e-23)
(2.93011e-05 -2.30799e-05 1.3714e-22)
(-1.6591e-05 5.02986e-05 6.96331e-23)
(-7.80645e-06 -1.07724e-05 3.54584e-23)
(0.00676816 -0.0042 -1.94798e-22)
(-9.89177e-05 0.000191196 -2.11303e-22)
(0.00274563 -0.000126759 0)
(2.54816e-07 -1.1133e-05 -7.11908e-23)
(-6.48039e-06 2.12394e-05 0)
(0.000281808 -0.00121676 -1.25448e-23)
(-1.17532e-05 -7.95871e-05 -1.0021e-22)
(-1.2314e-05 2.62476e-05 6.65244e-23)
(6.0891e-07 1.6384e-05 0)
(0.00159533 -0.00394991 4.15109e-23)
(-1.39361e-05 4.48328e-06 -1.26091e-22)
(-1.24217e-05 7.55892e-06 -1.00065e-24)
(0.000896345 -0.00307076 -6.20421e-23)
(-1.70412e-05 -4.74431e-05 0)
(-0.00102478 -0.00336464 2.00534e-25)
(-3.96114e-05 5.9271e-05 2.57327e-23)
(-0.000341991 -7.79078e-05 -1.93709e-22)
(-3.40064e-07 -9.74691e-07 6.85609e-23)
(-1.55389e-05 -4.27403e-05 2.21616e-22)
(-3.16533e-06 -4.80593e-05 0)
(-6.33081e-05 0.000124153 -4.82753e-23)
(-0.0015176 -0.00284869 0)
(-8.01428e-08 3.43171e-05 -3.9367e-23)
(3.30264e-07 7.9263e-06 0)
(0.00322097 0.000277621 7.06393e-22)
(3.28202e-06 -7.59301e-05 4.20353e-23)
(-3.87316e-07 -0.000106802 0)
(-4.79247e-05 2.0881e-05 5.63713e-24)
(0.000107646 0.000138431 0)
(-0.000952123 -0.000444689 0)
(0.00118326 0.00109261 1.50428e-22)
(0.00280472 0.00292554 9.11926e-24)
(0.00513719 -0.00178656 1.8373e-22)
(-0.00251576 0.000485802 0)
(-4.62629e-05 -7.90931e-07 0)
(-1.05179e-05 2.76666e-05 1.26534e-22)
(9.52021e-06 -5.38612e-05 0)
(1.48384e-06 -8.91472e-06 -4.62857e-23)
(5.40178e-06 5.17176e-07 5.77303e-23)
(0.00168001 0.000225432 2.42353e-23)
(-8.876e-06 6.07604e-06 0)
(-0.000436303 -0.000493984 0)
(-8.94683e-06 -8.57457e-05 1.86427e-22)
(0.00777882 -4.09277e-05 8.27136e-24)
(0.00484678 -0.00200631 0)
(-8.02896e-05 -3.1917e-05 9.17159e-23)
(-0.000522969 8.84807e-05 6.74296e-23)
(-3.66903e-05 -6.57473e-05 3.39318e-23)
(2.4772e-06 -0.000139623 -6.49e-24)
(-6.82877e-06 8.21937e-06 0)
(-0.00413434 -0.00032691 -8.3922e-23)
(0.00680114 -0.00090793 0)
(-0.00265579 0.00165471 -3.02764e-22)
(-3.78569e-05 -4.99441e-05 -1.85694e-23)
(-1.63874e-05 -3.09126e-05 -1.08207e-22)
(5.10376e-06 -6.51194e-05 -1.39211e-23)
(1.60365e-06 -2.75876e-05 0)
(0.00487511 -0.00197293 0)
(-8.62874e-05 0.000285301 -1.78036e-23)
(0.000569894 -0.000106403 0)
(-3.11339e-05 6.5467e-05 -1.23626e-22)
(-0.00289572 0.000848149 7.73189e-23)
(-9.08291e-06 -1.76478e-05 -3.97154e-23)
(-7.95292e-06 7.54936e-06 -6.29244e-23)
(7.67295e-08 3.04378e-05 2.94213e-23)
(9.58349e-05 0.000173347 0)
(-2.78372e-06 -9.39479e-05 -4.34066e-23)
(-1.63718e-05 4.77379e-05 -5.22466e-23)
(0.00514444 -0.00174153 3.93066e-22)
(-2.40264e-06 -7.72016e-05 1.22958e-22)
(-0.000194677 9.45671e-05 1.69471e-23)
(-0.000430169 -0.000920318 2.67213e-22)
(0.000358941 0.00349279 0)
(0.0010962 -0.000944841 -5.45063e-23)
(-6.2752e-05 5.46098e-05 -2.3076e-22)
(0.00247085 -0.00430637 0)
(-1.2328e-05 -2.1183e-05 7.95785e-25)
(-0.000617177 -9.56088e-05 -1.06857e-22)
(-0.00518893 0.00049666 -1.87882e-22)
(-0.000724671 1.9351e-05 0)
(-0.0059701 0.00032863 -3.09083e-22)
(-0.0052858 -0.000243673 -4.37484e-22)
(-6.44439e-05 -7.37128e-05 1.26745e-23)
(-1.30539e-06 -1.66966e-06 6.15606e-23)
(-4.12167e-05 -4.22238e-05 0)
(-3.05394e-06 -8.40445e-05 1.6319e-22)
(0.00234997 -0.000332823 0)
(0.000136071 -4.12116e-05 5.20407e-23)
(-0.000152052 0.000687216 0)
(0.003342 0.000351263 0)
(-0.000165413 -1.25878e-05 0)
(-0.000113336 0.00345922 -8.80286e-23)
(0.0206747 -0.0102851 8.87437e-21)
(-2.10235e-05 -0.00181586 -5.78686e-23)
(2.5472e-08 -9.02818e-05 -1.43664e-23)
(0.000800349 -0.00100274 -7.03533e-24)
(-3.42972e-05 -6.18185e-05 -2.49549e-23)
(-0.00254527 -0.00163052 -4.76052e-23)
(-7.86826e-06 3.52878e-05 3.57769e-23)
(-0.000437773 0.00311121 -6.45878e-23)
(-0.000229407 0.00122201 -5.0227e-23)
(0.000940847 -0.000522353 -5.21782e-24)
(-1.24199e-05 1.29271e-05 -1.39906e-23)
(0.00269521 -0.000169715 0)
(0.00232708 0.00116519 1.13241e-22)
(0.000272152 0.00046491 0)
(-9.69226e-06 -5.52482e-07 -1.74751e-23)
(-0.000227186 0.000226419 -3.44039e-22)
(0.00235236 -0.000224736 1.28154e-22)
(-8.97652e-06 3.84171e-05 -3.83025e-23)
(5.13682e-06 -0.000137012 -4.49265e-23)
(-0.000743149 -0.00192794 0)
(0.000113429 0.00340196 -7.97098e-23)
(-0.00776407 -0.000225153 -2.10381e-22)
(-2.16543e-05 -7.85094e-06 0)
(-2.57639e-05 -9.57111e-05 -6.67483e-23)
(-4.75576e-06 -7.34049e-05 0)
(0.00506423 -0.00060222 -1.45625e-22)
(-6.91747e-06 9.8537e-06 -8.02377e-23)
(-0.000791765 0.00354795 -2.15386e-22)
(-7.77959e-06 -1.9148e-05 2.12826e-23)
(1.70319e-06 -3.73715e-06 2.5363e-22)
(-0.000725343 -0.00205363 0)
(0.000347456 -0.000657759 2.52316e-21)
(-4.15065e-05 5.89863e-05 1.319e-23)
(-1.28942e-05 2.64513e-05 -6.35418e-23)
(-2.39325e-06 3.29206e-05 -8.07841e-23)
(-0.000136435 0.00122801 -2.09934e-24)
(-1.37363e-05 9.81322e-05 4.82521e-22)
(-2.56524e-05 5.33657e-05 3.04527e-23)
(-0.00160655 0.00160974 0)
(-1.73992e-05 -1.21218e-05 7.81456e-23)
(-0.000715093 -0.000171471 0)
(3.81724e-05 -5.95388e-05 -1.29059e-21)
(-0.00313365 -1.01493e-05 0)
(-5.2226e-05 -1.05578e-05 0)
(-2.53995e-05 -4.07862e-05 0)
(-4.49682e-05 3.37311e-06 -8.00155e-23)
(-2.05637e-05 -3.33015e-05 -6.32643e-24)
(-9.84672e-06 -3.71707e-05 0)
(-1.95567e-07 -4.1818e-05 1.27573e-22)
(-5.48436e-06 -2.09656e-06 0)
(-0.000518775 0.000107806 -6.32924e-23)
(-3.48326e-05 4.98562e-05 6.46732e-23)
(-1.46466e-05 5.01179e-05 -6.6794e-23)
(-3.3276e-05 -0.000107949 0)
(-2.99467e-05 -6.01687e-05 4.22739e-23)
(-0.000196083 -0.000580619 -9.26329e-22)
(-7.23143e-06 -6.62291e-06 -5.39503e-23)
(-0.000790698 -0.00338592 1.72489e-23)
(-0.000116575 0.000214215 9.06057e-23)
(-0.00160312 -0.00171873 2.85211e-22)
(1.06225e-06 -7.74577e-06 4.47199e-23)
(-2.50618e-05 5.61773e-05 2.00335e-23)
(-2.5473e-05 5.86725e-05 6.93421e-23)
(0.00122826 0.00121747 0)
(-1.10132e-05 -2.15976e-05 -1.40258e-23)
(9.89829e-05 -0.000334669 0)
(-2.32648e-06 9.23816e-07 -1.34344e-22)
(-0.00162589 -0.00272485 0)
(-0.000429123 0.000271047 0)
(0.000296012 -7.81018e-05 -2.10781e-22)
(-3.93288e-05 3.81741e-05 2.95429e-23)
(-7.85143e-06 -0.000101816 -8.81376e-23)
(-2.48494e-05 5.65873e-05 -1.40527e-22)
(-0.00019075 -0.000176488 -2.4225e-23)
(-1.34136e-05 1.1095e-05 1.06589e-22)
(-0.00312217 0.00150066 -3.40182e-22)
(-2.32669e-05 -0.000133152 4.27432e-23)
(-3.38548e-05 -0.00010356 -1.19106e-22)
(1.90786e-06 2.71046e-06 -2.43553e-22)
(-1.37643e-05 3.3652e-06 1.36504e-22)
(4.46556e-07 1.51823e-05 -4.89192e-24)
(-2.50892e-05 5.90386e-05 0)
(-0.00015959 -6.5067e-05 3.59849e-22)
(-2.46709e-05 -7.18932e-05 0)
(-0.00120485 0.000715506 1.64953e-22)
(0.00220427 0.000400604 6.86914e-23)
(-7.71436e-05 -1.46865e-05 0)
(-1.49503e-05 9.34955e-06 -5.61235e-23)
(0.000613445 0.00661922 7.08364e-23)
(-1.2378e-05 -9.11127e-06 -2.06237e-22)
(-2.46185e-05 -6.10111e-05 -4.62111e-23)
(-3.27606e-06 -0.000106335 -1.29965e-22)
(-4.22042e-05 7.31347e-05 -6.07626e-23)
(2.12878e-06 1.07322e-06 -2.92494e-23)
(0.00608348 0.000727809 5.82836e-22)
(-0.000720419 0.00328647 2.25189e-23)
(0.00803076 0.000473399 0)
(-0.000250879 0.000727169 3.86846e-22)
(0.00192941 -0.000644146 0)
(-9.96171e-07 -1.69118e-06 -1.01269e-22)
(-4.63276e-07 -9.01988e-05 0)
(0.000679091 0.00328624 2.65982e-22)
(0.000968926 -0.000568706 8.36426e-24)
(-3.65215e-06 -9.31059e-05 -1.29921e-22)
(-1.50513e-05 -0.000120302 0)
(0.000697222 -0.000996451 -1.89157e-23)
(-6.25176e-05 -1.12995e-05 8.39047e-23)
(-1.61009e-05 4.75358e-05 9.25301e-23)
(-0.000112925 2.53031e-05 -2.4517e-24)
(0.0047055 -0.00101628 0)
(0.00189229 -0.0040628 -4.60468e-23)
(-0.00381703 0.00624007 -9.08702e-23)
(-0.00607189 0.000484579 0)
(-8.27114e-06 9.18333e-06 5.59228e-23)
(-0.00250438 0.002693 2.59149e-23)
(-5.9404e-06 2.75412e-05 0)
(-0.00541167 0.00316696 -5.57225e-22)
(-0.000147076 1.27408e-05 1.71332e-22)
(8.36986e-05 -4.347e-05 5.67885e-23)
(-1.82684e-07 8.52621e-06 0)
(-1.46253e-05 6.14333e-06 0)
(-5.98028e-05 8.50668e-05 -4.16255e-23)
(-4.15419e-05 -3.97656e-08 1.47197e-22)
(-9.11825e-05 -6.58384e-05 0)
(-1.52702e-05 3.01826e-06 -6.63428e-23)
(-7.99164e-06 2.70096e-05 -2.94448e-23)
(-1.20159e-06 -7.29388e-05 -6.34009e-23)
(-6.85106e-06 -4.47092e-05 -1.46438e-22)
(-3.44395e-05 -7.70615e-05 -1.96935e-24)
(0.000913686 -0.00278235 1.38721e-22)
(0.00219745 -0.00384275 5.56994e-24)
(-0.000200044 0.000611251 -2.8215e-22)
(0.00113303 -0.00051086 0)
(-6.1312e-05 0.000670008 2.15747e-23)
(1.16699e-05 -6.04499e-05 -1.28805e-22)
(0.0016369 0.000132434 0)
(-2.33049e-05 -5.81403e-05 0)
(-2.01248e-05 -9.69742e-05 1.20147e-22)
(-0.000734811 -0.000605584 -7.70395e-24)
(-4.14261e-05 3.4803e-05 1.0653e-22)
(-1.32004e-05 8.17159e-06 1.24955e-22)
(-0.000117495 2.62374e-05 2.14054e-27)
(-6.57642e-05 4.72723e-05 2.60658e-22)
(7.08725e-06 -8.19938e-05 -6.0547e-23)
(-3.30309e-05 3.88697e-05 -3.29967e-24)
(-2.66519e-06 -4.24829e-05 0)
(-7.80816e-06 9.16303e-06 -9.09153e-23)
(0.00147501 0.000353225 -1.69776e-22)
(0.000127965 0.00321562 9.68445e-23)
(-3.31832e-05 3.81935e-05 0)
(-5.34113e-06 1.479e-05 -2.13574e-23)
(0.00278861 -0.000864212 2.02248e-22)
(3.54645e-06 -1.97972e-08 -1.25658e-22)
(0.00359128 0.000835109 0)
(4.08199e-06 -6.17818e-06 -1.47025e-23)
(-4.05356e-05 2.65281e-05 1.77196e-23)
(-5.58155e-05 -5.7188e-06 1.02489e-23)
(0.00438668 0.000113718 9.80652e-23)
(-3.61783e-05 -6.83001e-05 -3.66178e-23)
(-1.11869e-06 3.55657e-06 0)
(-0.00309382 0.00045899 -1.6706e-22)
(-5.64267e-06 -8.08044e-05 0)
(-1.10325e-05 -0.000375674 -6.22e-23)
(0.00724542 -0.000653605 3.06397e-22)
(-3.16007e-05 -7.58277e-05 0)
(-1.28164e-05 -3.02335e-05 0)
(-0.00771486 -0.00030119 -2.10282e-22)
(-0.000607029 -0.000831927 -2.89941e-22)
(1.204e-05 -6.07867e-05 0)
(-0.000638781 -0.000594594 0)
(0.000383165 0.000380451 -5.32482e-22)
(-5.79414e-05 -1.305e-05 1.72295e-23)
(-0.000121322 -3.53154e-05 2.30899e-24)
(-7.08785e-07 9.04786e-06 0)
(0.00207667 0.00528957 -7.21241e-23)
(-1.89465e-06 -8.87619e-05 1.18276e-22)
(-3.27949e-05 -0.000146671 9.72204e-24)
(-2.51693e-05 -6.22066e-05 0)
(-0.000137486 1.27337e-05 -3.47533e-22)
(-0.000992873 0.00025758 1.03301e-22)
(0.0050387 -0.00163303 0)
(-4.99353e-06 1.59993e-05 -4.22101e-23)
(-8.84378e-06 3.4517e-05 9.59449e-23)
(3.75518e-06 -8.21176e-05 9.56782e-23)
(-1.1302e-05 -7.56983e-05 2.96636e-23)
(-2.31443e-05 5.57775e-05 6.24372e-23)
(-1.79362e-05 -4.10616e-05 0)
(-6.4521e-06 -5.89856e-06 5.99418e-23)
(0.000908729 0.000162532 5.78223e-24)
(-0.000171878 -9.72542e-05 6.00129e-24)
(7.70316e-05 0.000131087 -2.56275e-23)
(0.00331123 -0.00347038 -8.58421e-22)
(-9.91752e-06 1.80272e-07 -9.82662e-24)
(-0.000234112 -0.000198153 1.26133e-22)
(0.00779061 0.000669403 -3.36338e-22)
(-1.30207e-05 -0.000135616 0)
(-3.41651e-05 -1.896e-06 -2.30887e-24)
(1.30613e-06 -7.01726e-06 -1.69191e-24)
(1.63633e-06 1.2385e-05 -3.35575e-23)
(0.00591341 -0.00543079 0)
(0.00239578 -8.29394e-05 0)
(-0.000163504 4.57292e-05 -1.5741e-23)
(0.00228109 -0.000320405 -1.15061e-22)
(0.00137829 0.00202292 1.19592e-22)
(-1.10282e-05 1.3209e-05 0)
(0.00151477 0.000425778 3.49302e-23)
(-1.59337e-05 1.6719e-05 0)
(0.000462362 -0.000375408 0)
(-0.000106363 9.00057e-05 6.51751e-24)
(-1.75355e-05 -4.10717e-05 2.98604e-23)
(1.21764e-06 -0.000135962 0)
(-1.31263e-05 2.91032e-05 0)
(-6.57686e-05 -1.75154e-05 -1.72165e-22)
(0.000752051 0.000342681 0)
(0.00276084 -0.000110086 -1.03635e-22)
(1.46697e-06 -0.00013219 2.0179e-22)
(-0.000120582 0.000461291 0)
(0.0039062 -0.000366325 0)
(-0.00293284 0.00147402 1.61087e-22)
(-1.19754e-05 -2.55241e-05 0)
(-1.22768e-05 -3.08316e-05 0)
(-0.00189974 0.000593266 -9.46083e-22)
(-0.000106159 -8.65143e-05 -4.5428e-24)
(2.17743e-08 3.19194e-05 1.35683e-22)
(-2.18676e-05 0.000217886 2.19443e-23)
(-9.84521e-05 -1.75068e-06 -9.09885e-24)
(-0.00162178 0.000124493 0)
(0.000255247 0.000895081 1.25202e-22)
(-0.00557509 -0.00032999 5.6051e-22)
(-5.17471e-07 -0.000132534 -2.00284e-22)
(-3.62345e-05 -6.66318e-05 -3.85084e-23)
(0.000698106 -8.36467e-05 0)
(-1.12112e-05 1.26771e-05 -1.70475e-22)
(-6.26628e-06 -7.94151e-05 -1.06458e-22)
(-1.04264e-05 -0.000135196 6.30912e-23)
(0.00147271 -0.00327018 2.024e-22)
(-5.5521e-06 4.17424e-06 -4.74586e-23)
(0.00105609 -0.000561518 0)
(-2.08108e-05 -0.000131214 0)
(-2.0331e-05 1.71872e-05 -2.28251e-22)
(2.88898e-05 -0.000128354 7.11725e-23)
(0.00189015 -0.000416324 -1.32348e-21)
(-4.22915e-07 -6.00336e-07 -3.59977e-23)
(-1.25111e-05 -2.40666e-05 0)
(0.00798975 0.000555412 0)
(0.000289183 -7.51269e-05 1.60419e-23)
(-5.41242e-06 -8.99459e-05 0)
(2.36179e-05 0.000273243 0)
(-3.85322e-05 7.40796e-05 -3.19222e-23)
(-1.80701e-05 -3.7251e-05 0)
(-2.47283e-05 -2.47525e-05 -6.15991e-24)
(-0.00545517 0.000224118 0)
(0.000147814 -0.000225873 6.28212e-23)
(0.00489304 0.000488596 0)
(0.00401899 -0.000819831 0)
(-1.61174e-05 4.41777e-05 -9.74948e-23)
(-2.63631e-05 -3.68585e-05 -3.34835e-24)
(0.00424271 -0.00250058 -3.72001e-22)
(-0.000109064 -8.24257e-05 -1.51605e-24)
(-2.27086e-05 -5.51364e-05 0)
(-9.4974e-06 -5.84582e-05 2.34459e-22)
(-0.00705035 -0.000257914 9.46284e-22)
(-8.40824e-06 -1.23673e-05 -1.00076e-22)
(-2.36765e-06 -3.97329e-06 5.27194e-23)
(-6.91006e-06 1.59974e-05 2.6639e-23)
(0.0015354 0.00189872 -5.25234e-22)
(-1.28935e-05 2.99349e-05 -6.2509e-23)
(-2.51765e-07 8.18463e-06 0)
(-1.94591e-06 1.238e-05 0)
(-3.75824e-05 -4.72821e-05 2.52316e-24)
(0.00011985 -0.000374488 9.43607e-23)
(-1.02077e-05 2.88198e-05 0)
(0.000526096 -0.000147561 0)
(-0.000340842 -0.000166759 2.08185e-22)
(-1.44724e-05 1.76425e-05 1.30759e-24)
(-0.00130337 0.000719899 -2.97289e-24)
(0.000151804 -0.000255601 -5.29962e-23)
(0.00461538 -0.00105619 -1.12828e-22)
(-0.00250793 -0.00146045 -2.69101e-23)
(-0.00649292 0.000454204 4.23223e-22)
(-3.37335e-05 -6.85105e-05 5.51169e-23)
(-1.16047e-05 1.63489e-05 -1.24672e-23)
(-9.61712e-06 4.79264e-07 -6.81365e-24)
(0.000713155 0.000172637 4.63644e-22)
(-7.96753e-06 -1.19841e-05 0)
(5.49892e-05 -0.00161301 1.62949e-22)
(-0.000277537 0.00243825 3.79223e-23)
(-3.54163e-05 -0.000110728 0)
(0.00119073 0.000284062 -1.11515e-22)
(0.00589565 0.000362931 1.51733e-22)
(-3.57177e-05 -9.32468e-05 0)
(-1.36777e-06 -2.75367e-05 4.26035e-23)
(0.00815972 0.000368706 7.1514e-22)
(2.82054e-05 0.0018794 -1.76893e-22)
(-6.82055e-06 -1.82858e-05 -3.59325e-23)
(5.31955e-06 5.41754e-07 9.49448e-23)
(-0.00312822 0.00101137 2.89649e-22)
(0.00148411 0.00303811 0)
(-0.00293813 0.000409172 0)
(0.00282609 5.88259e-05 4.31845e-23)
(-0.000136303 -3.93932e-05 0)
(-6.30127e-05 -5.28489e-06 1.84001e-23)
(-3.10161e-05 5.25911e-05 -1.51147e-22)
(6.32659e-05 -1.64083e-05 -1.33272e-22)
(-6.17696e-06 -9.6663e-07 2.58508e-23)
(0.00030085 0.00156286 1.70472e-22)
(0.00499911 -0.00159611 -2.18429e-22)
(0.000222309 8.12583e-05 -4.42293e-25)
(0.000204063 0.00014526 0)
(0.000228976 0.000100052 1.08648e-22)
(-8.78864e-06 -0.000136444 4.06714e-23)
(-0.000309285 8.59344e-05 4.6057e-23)
(-1.20842e-05 3.11151e-05 3.86884e-23)
(6.33456e-07 -6.90245e-05 -1.70103e-23)
(-8.08339e-06 -2.0946e-05 0)
(-9.8238e-05 -4.65267e-05 -6.58984e-23)
(-7.04247e-06 -0.000102403 7.55318e-23)
(-2.01131e-06 -0.000103273 1.63146e-22)
(0.00369581 -0.00231209 5.03506e-23)
(0.000154114 0.00182984 1.47358e-22)
(-0.00480108 -0.00065415 -1.31575e-22)
(-4.09731e-05 3.90049e-05 2.82536e-23)
(-0.00123752 0.000226286 -5.3258e-22)
(7.09523e-07 6.1873e-06 -1.12925e-22)
(-5.45068e-05 -5.80381e-05 3.77557e-23)
(-0.000107157 3.03241e-05 -3.79392e-25)
(1.23884e-05 -6.90885e-05 1.20628e-22)
(-1.19921e-05 -3.15728e-05 -9.65222e-23)
(-2.33789e-05 -0.00015589 1.86479e-23)
(-1.07099e-05 4.36807e-08 2.25154e-23)
(1.71125e-05 -0.000377098 0)
(-4.02413e-05 -0.000112545 -2.44363e-23)
(-9.78517e-06 1.02679e-05 3.8732e-24)
(-9.02464e-06 -3.27751e-05 1.39956e-22)
(-2.41662e-05 0.000107313 3.32332e-23)
(9.10126e-07 -5.37395e-05 3.10051e-22)
(-7.75153e-05 0.000601283 -2.08e-22)
(-0.000935224 -0.00117257 3.0755e-24)
(-6.57024e-05 5.55157e-05 0)
(0.00388193 -0.000122636 3.16342e-22)
(-0.0037362 0.00644525 0)
(0.000596971 0.00676915 6.37284e-24)
(-1.82486e-05 -3.41952e-05 -1.33237e-23)
(-4.08965e-05 -9.19281e-05 1.00338e-22)
(-0.00142623 0.0012466 0)
(0.00537755 -0.00112145 -1.94226e-22)
(-6.66593e-05 4.93639e-05 0)
(-6.38054e-06 5.47045e-06 3.74113e-23)
(-1.07917e-05 3.57001e-05 0)
(-0.00178041 -0.0010166 -3.2876e-22)
(-1.17826e-05 2.54708e-05 0)
(-3.58919e-05 3.1873e-05 8.01152e-23)
(4.31189e-07 3.18364e-05 9.0449e-23)
(0.000311151 -5.50946e-05 0)
(0.000198944 -0.000482398 0)
(-3.19343e-07 3.79274e-05 -4.08025e-23)
(-1.11687e-05 3.04822e-05 -1.0215e-22)
(-0.000378224 -0.000384988 0)
(0.00376624 0.00525924 0)
(-6.82804e-05 2.76516e-05 -1.28482e-25)
(-0.000137869 -1.16877e-05 -1.48025e-22)
(0.000727928 -0.000124041 7.52931e-23)
(4.62137e-07 2.65183e-05 8.75746e-23)
(-5.65776e-05 -1.44512e-05 0)
(-0.00189045 0.000203785 0)
(-1.97013e-05 -0.000119287 -2.77106e-22)
(0.000281046 0.000513399 0)
(-1.30898e-05 2.4925e-05 3.15443e-23)
(-1.4408e-06 2.07718e-07 0)
(-2.75331e-05 -3.07213e-05 -1.26003e-25)
(0.00138152 -0.000551483 -1.02739e-23)
(-0.000203294 0.000183543 5.98748e-23)
(1.24957e-06 -7.97587e-06 4.66931e-23)
(-0.00915774 4.49433e-06 1.40584e-22)
(-9.97724e-06 9.62102e-07 2.69285e-23)
(-3.55416e-05 0.00022825 -2.30686e-22)
(0.00458385 -0.00123485 4.1822e-22)
(-1.29775e-07 4.14489e-05 -8.9723e-23)
(-3.61402e-05 0.00288459 1.26132e-22)
(5.38974e-05 -8.95364e-05 1.2442e-23)
(-2.53422e-05 -2.0422e-05 1.2662e-23)
(-1.57835e-05 -0.000119734 1.25095e-22)
(-1.14136e-05 1.18104e-05 3.87754e-24)
(0.00168691 -0.000142098 0)
(-0.000416926 0.000937915 2.75489e-23)
(0.00349945 0.00113403 0)
(6.90413e-06 3.7192e-05 0)
(0.00279854 9.4701e-05 -4.16279e-23)
(0.00245901 0.00040246 0)
(-1.1286e-05 9.81852e-06 2.95528e-24)
(0.00095019 -0.00044741 2.42475e-23)
(-9.29765e-05 -8.99534e-05 7.8945e-25)
(2.4594e-07 9.29163e-06 0)
(-9.85867e-06 -2.11905e-05 5.46044e-23)
(-3.39958e-05 -7.85426e-05 0)
(-6.46206e-05 3.17762e-05 3.53729e-24)
(-0.000407038 0.000140337 0)
(-6.12695e-06 -1.36991e-05 0)
(1.95717e-06 3.17689e-05 0)
(-4.74174e-06 -0.000100431 6.86218e-23)
(0.0059832 -0.00547229 -2.27594e-23)
(4.36529e-06 -6.70469e-06 1.64834e-22)
(0.000915814 -0.000159926 -4.15884e-23)
(0.00663344 -0.00102293 -4.4009e-22)
(-0.00232985 0.00223775 1.59407e-22)
(-1.00252e-06 3.61092e-06 0)
(-4.03965e-05 3.67248e-05 0)
(-2.73219e-07 4.13474e-06 0)
(-6.08566e-05 -3.48509e-06 2.87894e-23)
(0.000825362 -7.92046e-06 9.85782e-24)
(-1.15383e-05 2.66139e-05 -1.20331e-22)
(-5.16535e-05 -8.57453e-05 -7.01886e-23)
(2.73035e-07 7.23423e-06 0)
(-6.03539e-05 -9.83337e-06 -1.80643e-22)
(-7.10203e-05 4.54001e-05 7.55934e-24)
(0.00668366 -0.00440685 3.15621e-22)
(-0.00119792 -0.000633793 0)
(-0.00534608 -0.00237877 0)
(-8.75537e-05 -3.13433e-05 0)
(-3.62723e-05 -9.0846e-05 -5.45947e-23)
(-0.000313099 0.000197279 -4.04057e-23)
(-2.57743e-05 5.51128e-05 -2.09665e-23)
(-8.49539e-06 3.94397e-05 -1.80928e-23)
(-3.15853e-05 -5.58879e-05 -1.04524e-24)
(2.52963e-05 -0.000240746 1.13647e-23)
(-5.05058e-06 -7.39764e-05 -8.82664e-23)
(0.000343325 0.000517733 -2.04468e-22)
(0.00547076 -0.000956857 -1.07883e-21)
(0.000855923 0.00148994 -1.72661e-22)
(-6.90772e-06 -1.7444e-05 3.28622e-23)
(-0.00177726 0.000388659 9.84461e-22)
(-2.59607e-05 -2.89504e-05 -3.00415e-24)
(1.91925e-06 -3.75573e-06 0)
(-2.1677e-05 2.59146e-05 2.28397e-22)
(-1.28498e-05 3.00452e-05 7.6901e-23)
(0.000476738 -4.03005e-05 9.72697e-23)
(0.00255093 -0.00490532 -6.29422e-22)
(0.000839959 9.97439e-05 -1.19396e-21)
(-0.00100845 -0.000111028 0)
(-0.00849189 0.00022281 0)
(-1.22664e-05 3.50162e-05 3.89339e-23)
(-9.60898e-05 -9.20564e-05 -8.1662e-25)
(-3.4879e-05 -2.71965e-05 1.83566e-22)
(2.07093e-05 -3.30261e-05 -2.52655e-23)
(0.00813033 0.000317298 -1.07896e-21)
(-1.80202e-05 -5.97635e-05 6.98638e-23)
(-1.10741e-05 -2.69507e-05 2.53299e-23)
(-0.000990416 0.00306562 0)
(-5.33494e-07 -4.19778e-05 -4.52715e-23)
(0.00768838 0.000684791 3.18998e-22)
(0.00213372 -0.000526791 1.01494e-21)
(-3.47345e-05 -9.19214e-05 -1.12256e-22)
(-4.63548e-07 -1.19036e-05 -1.81513e-22)
(-0.000559549 0.00301359 -2.18849e-22)
(-8.6509e-06 -2.18314e-05 -4.55973e-23)
(-4.54857e-05 -1.44434e-05 0)
(-0.0028893 0.000955445 1.97167e-21)
(-0.00480754 0.00306666 6.03841e-22)
(0.000265563 0.000337182 0)
(0.00196644 -0.00404293 -3.85517e-24)
(-1.1749e-05 3.5976e-05 6.62152e-25)
(-0.000110722 -4.65286e-05 0)
(-4.28385e-05 -0.000100932 6.80848e-23)
(-6.82828e-06 -8.08985e-05 1.68634e-24)
(-9.97338e-06 4.09684e-05 -1.58188e-23)
(-0.00123702 0.000904826 -3.45448e-22)
(5.86567e-05 -0.00010569 -1.52643e-24)
(-1.68134e-05 -9.82544e-06 -7.05191e-23)
(0.00237404 0.000376835 0)
(0.00265653 -0.000205595 0)
(0.000684051 0.00375731 -6.17749e-23)
(-0.000218142 0.00018318 6.0399e-23)
(-8.59446e-06 -4.2395e-05 -7.70854e-24)
(-5.35343e-06 -8.87348e-05 4.9012e-23)
(-0.00320041 0.00261739 -2.89929e-22)
(-0.000190509 8.82338e-05 6.27e-25)
(-5.69893e-05 6.45369e-05 -4.93858e-23)
(-0.00124148 0.0035883 -3.1334e-23)
(-0.000931494 0.00112697 0)
(-0.000399791 -0.000160256 0)
(2.63269e-09 1.77679e-06 1.06497e-22)
(-3.42425e-06 -9.03098e-05 -1.00839e-22)
(-9.88671e-06 0.000264062 0)
(-1.26475e-05 3.10004e-05 1.17627e-22)
(0.00427987 -0.00255211 -6.11538e-22)
(-0.00027432 0.00107914 2.91392e-23)
(-4.76848e-05 0.00030437 0)
(-1.65092e-05 -0.000125392 -2.6965e-23)
(0.000222223 0.000171891 2.14551e-22)
(-2.81221e-05 -6.51165e-05 -2.80763e-23)
(0.00542365 0.000563487 8.91756e-22)
(-0.00015748 -1.05252e-05 0)
(0.00111662 0.000225742 -7.07023e-22)
(-4.67651e-05 -9.32947e-05 0)
(0.00191882 0.00050087 -2.0819e-22)
(-2.72319e-06 -0.000128979 -3.7149e-24)
(-6.58293e-06 -2.43453e-05 -1.34843e-22)
(-0.000151932 0.000319485 -1.08736e-23)
(-4.66022e-05 -2.5365e-06 3.01565e-24)
(-2.63981e-06 -4.8304e-05 -2.10807e-22)
(-0.00532196 0.00163762 3.36193e-22)
(-5.16961e-05 -8.46632e-05 0)