/*--------------------------------*- C++ -*----------------------------------*\
| =========                 |                                                 |
| \\      /  F ield         | OpenFOAM: The Open Source CFD Toolbox           |
|  \\    /   O peration     | Version:  v2012                                 |
|   \\  /    A nd           | Website:  www.openfoam.com                      |
|    \\/     M anipulation  |                                                 |
\*---------------------------------------------------------------------------*/
FoamFile
{
    version     2.0;
    format      ascii;
    class       volScalarField;
    location    "400";
    object      ddt0(omega);
}
// * * * * * * * * * * * * * * * * * * * * * * * * * * * * * * * * * * * * * //

dimensions      [0 0 -2 0 0 0 0];


internalField   nonuniform List<scalar> 
27802
(
2.22488e-06
1.17146e-09
-1.09274e-06
-2.62586e-05
-1.07947e-06
1.33411
-1.01819e-06
5.78585e-05
1.94594e-07
-0.0612696
-0.00854322
-0.0082447
-3.97935e-05
0.00197623
0.0170065
-0.00457585
0.000508061
2.50207e-07
-0.00810795
0.0845399
-0.0159501
0.01381
6.83796e-08
-0.000172045
-0.00317006
3.6492e-05
-2.09064e-09
-7.57877e-05
7.56569e-08
-0.00676581
-0.000194377
9.78089e-06
1.89837e-06
-3.43991e-07
1.97915e-09
0.110764
0.0216285
3.52344e-07
-5.46411e-07
0.00906944
-0.0253685
2.38687e-09
-1.47209e-05
-3.33819e-07
-1.81886e-05
0.00737374
1.62385e-07
0.00156944
0.000640758
-0.0395503
0.0436884
2.13803e-05
0.0148411
-0.0120614
-2.6557e-07
-3.62883e-09
0.00219222
6.91423e-07
1.5349e-05
-0.00108516
-0.013947
-6.78925e-06
3.43738e-06
2.15383e-07
-3.25846e-07
2.01372e-06
0.0103342
0.00641793
0.00059632
5.66488e-07
-3.34387e-07
0.0126035
0.054855
-0.000529719
2.21947e-08
-3.86043e-06
0.0062428
-0.0187055
-0.0128618
0.208612
-2.43396e-08
-2.3004e-07
-0.00278945
-1.89143e-07
1.54084e-06
3.17251e-06
3.82248e-09
-0.021257
-0.0299137
-6.95887e-08
5.59669e-07
-0.0108045
2.16485e-07
-0.000942213
0.0505258
-8.49094e-05
-2.85647e-07
-8.55352e-05
2.98441e-08
-0.0284294
-5.90725e-07
1.27992e-07
0.000191391
-0.0101427
0.0545531
-1.41639e-05
-3.54182e-07
-3.40958e-07
-2.25372e-07
-8.14347e-06
-0.0061727
6.14411e-07
-3.36529e-07
1.51917e-07
-3.92835e-07
1.96891e-07
-6.66049e-06
-0.0956681
-0.00919603
-0.00308012
0.146218
-0.000638915
0.00653422
-0.115787
0.130522
-0.0337906
3.17408e-06
-5.36065e-06
0.0204737
-4.00659e-07
2.77251e-05
6.05295e-07
8.03279e-07
-0.0136601
-0.182199
-4.48812e-06
-0.000865223
0.00576935
5.60419e-07
5.53146e-07
-0.00105223
0.0227149
-4.23204e-05
-3.1094e-05
3.58462e-07
-0.00559208
-6.93965e-05
-4.58538e-05
-6.90199e-07
0.834273
4.52547e-05
-2.1181
-1.44545e-05
0.0129286
1.92337e-10
-0.451404
-4.25681e-06
-8.7834e-05
-2.81743e-07
-1.82067e-07
1.97617e-07
1.87896e-06
-0.0538772
-1.77377e-07
7.38225e-09
3.28678e-09
0.0543524
-1.11439e-06
6.00651e-07
-1.39995e-06
-0.00816152
-0.0180139
-0.0124394
-2.82385
-5.6889e-07
-0.0153806
0.182616
-0.00359103
1.84335e-07
-2.57689e-07
-0.00244178
-0.0462941
0.0208039
-0.0290425
-2.27941e-07
0.0352325
0.00181845
0.00181193
0.0014471
0.00296626
-0.0429876
3.12005e-09
-1.02829e-06
-0.861283
-5.49769e-07
-6.68314
0.00342847
-0.0156149
-0.709213
0.00504724
0.0221833
-1.58395e-07
1.00174e-06
6.07405e-06
-0.04586
0.000132139
-1.13051e-06
3.88238e-07
0.00393872
2.06582e-07
-6.84255e-07
0.0027921
-2.68566e-05
0.00146903
-2.79541e-07
-4.78319e-08
0.000148068
-1.87346e-06
4.10549e-07
8.47334e-09
0.0518808
-1.10267e-06
-1.52297e-06
-0.0263628
-2.27833e-06
-0.0212695
7.47504e-07
-4.75194e-05
-2.93732e-07
-2.26823e-06
2.11684e-07
-4.90322e-05
0.0149059
8.01043e-09
3.54485e-09
-0.0600104
-0.00170453
-0.0823323
3.26489e-06
-0.00737787
0.0336
0.00650804
-0.0455304
-0.00588933
-0.0249746
-3.78133e-06
1.08203e-07
0.0121648
-2.35537e-07
-2.87214e-09
-0.00746064
6.53645e-08
-0.000638083
-1.72847e-06
-0.019116
-0.00205372
-1.81049e-05
0.000277342
8.35161e-07
-1.59817e-07
6.56045e-08
0.00475933
-0.0114348
0.00153546
1.17082e-06
-1.35834e-06
4.02495e-07
0.173997
-0.00224933
-0.000118186
-0.0179485
1.67932e-06
0.00648351
-1.65231e-07
6.7762e-08
4.41824e-09
-5.55353e-05
-3.75742e-08
1.78827e-07
-0.0063683
-5.99188e-07
-0.000286955
-0.0167054
-0.00064628
0.000949915
-8.81379e-06
-0.00469879
-1.39863e-07
0.00194505
0.0112424
-0.355692
-0.00298945
0.00671358
0.000152343
-2.74501e-07
1.67283e-06
-6.76186e-07
0.133338
0.00464038
-0.00102415
-0.040349
-1.1901e-05
-0.0456909
1.57576
-0.00296787
-6.00865e-08
0.000198392
6.54287e-07
0.00216956
1.21858e-07
-0.0367147
0.0495893
-0.00441859
6.60877e-07
0.00044076
0.00983376
-0.000183708
1.3839e-07
-7.49221e-05
-0.00380791
1.62953e-07
3.55577e-07
0.00426977
-0.0454872
-0.116521
2.6903e-07
-0.00855445
-6.88193e-05
0.00342663
7.41588e-08
-0.0224498
-1.91107e-07
-1.81151e-07
0.00316612
-0.0192912
9.11972e-07
5.10562e-07
-5.15373e-08
0.0239886
-4.31867e-06
4.94429e-07
0.131592
-1.76681e-06
-0.119785
-0.00264918
0.105764
-6.06557e-06
1.44909e-07
-3.89818e-06
1.67454e-08
-0.0155627
0.0264209
-2.79632e-07
-0.000173967
9.31857e-07
2.00658e-07
-5.40824e-07
2.03182e-07
0.0214766
-1.4347e-07
0.0003751
2.32488
0.0468501
-2.66792e-07
3.75905e-07
3.41348e-07
0.00271735
-1.65567e-07
0.000471833
-2.2824e-07
0.00815799
-0.000958996
-0.0152895
-4.48255e-06
-1.85046e-06
-2.76085e-07
0.00899456
6.86384e-07
0.000310487
1.41272e-06
-9.31203e-05
-1.5502e-07
-1.59388e-06
6.93701e-09
2.05826e-07
0.0120582
0.00067837
-7.45999e-05
0.0127466
-0.0290519
-1.41529e-06
0.0177532
-1.55972e-06
-1.38951e-06
-0.0267207
-3.80907e-06
-1.55458e-07
-0.0329866
-3.1655
-0.00597451
-0.000237632
0.0212584
-4.79197e-08
-3.57725e-08
-6.13634e-05
-0.00343877
-6.01244e-08
2.38434e-06
0.000317699
-6.26863e-06
1.32571e-07
0.000815979
0.0370579
0.0550662
0.0162697
-0.0120345
6.9895e-08
-0.0552447
8.2732e-08
-0.0985552
-2.26183e-05
0.00379347
5.9588e-09
-1.1981e-06
5.023e-06
-3.22878e-06
8.76564e-05
-1.48786e-06
5.12726e-07
2.11131e-05
5.00999e-07
-2.00403e-07
-0.0241541
-0.00874236
-0.000214298
-0.00544857
-0.000844664
-0.0331147
-0.00317576
-1.38557e-06
0.000114385
-0.0175203
-6.03378e-06
7.08681e-07
0.000600054
-8.18702e-06
-7.58552e-05
-2.42678e-06
1.64682e-07
7.15957e-08
0.0171441
-0.0401439
-2.3134e-06
-3.47752e-08
0.0250324
-1.52962e-07
-0.0122135
-1.82276e-07
1.66996e-06
-5.5377e-06
0.667654
3.78467e-07
-2.21458e-07
-0.0163889
2.81817e-07
7.84182e-05
-0.00585392
0.000731866
6.58892e-07
-0.0816274
-0.0110154
-0.0077363
0.0312446
0.00839435
5.38503e-06
7.10172e-05
1.85663e-07
0.111074
-7.13425e-08
-0.0444152
-1.06037e-06
-1.85929e-05
-0.0738429
-0.00631052
2.50039e-09
-1.19782e-07
0.00010177
-1.84124e-06
-3.4322e-07
-1.15774e-06
-1.43056e-07
0.000877793
-2.56603e-05
0.00594805
-2.40878
9.76487e-09
-0.00591882
-0.012943
-1.01609e-05
-2.53143e-06
-2.4108e-07
4.22918e-09
-0.0319003
0.00436738
-0.000116486
-0.00378607
-0.00403457
5.46325e-07
0.0179569
2.54291e-07
0.00187538
-2.59908e-06
-1.10554e-06
1.71225e-05
-6.11955e-07
5.84134e-06
-0.00622698
0.00148813
6.7507e-05
0.0265627
0.00871144
-0.000634472
7.14291e-07
6.7292e-07
-0.00242698
0.000633728
7.17288e-09
-4.11489e-05
1.18859e-05
-0.00275891
-0.000319797
0.00862636
1.71215e-05
6.32688e-07
0.00477944
5.75881e-07
3.33162e-07
2.38273e-07
-0.00604268
-2.4406e-07
-0.00451094
1.47742e-06
0.0534985
-0.0089865
0.00484413
-4.1087e-07
7.04425e-07
-0.00890324
9.23239e-05
1.7571e-07
0.000179477
-1.98587e-06
-1.77656e-06
3.16387e-07
0.0207685
4.51592e-05
0.10816
-0.0259713
0.0296134
2.63408e-07
0.00772611
0.000114609
-1.68594e-06
-0.00153572
-0.0877417
1.95371e-08
-4.09678e-07
-1.53196e-07
-0.0102928
-2.88616e-07
1.85876e-07
3.48641e-08
1.27851e-06
-0.0103516
-1.95188e-07
-0.0147383
-2.82253e-05
-1.20728e-06
-1.59793e-06
9.39025e-05
-0.0219257
-0.00237143
-0.00486867
4.93638e-08
2.05384e-07
5.33239e-08
-0.044146
-1.4413e-07
-0.00741381
1.20267
-0.0192471
0.0172861
0.0247655
-1.58135e-06
9.14605e-08
-0.00116966
-0.000355694
-2.99046e-07
2.09876e-09
-0.0285875
0.000360514
-0.0158868
0.00615799
0.0434814
2.74335e-06
0.14371
0.00623606
1.19649e-07
-0.0476846
-0.00584105
7.2669e-05
-0.00367908
0.0361124
1.50755e-06
0.000625209
-8.8536e-08
0.00110434
-3.58759e-07
-1.45906e-05
1.59572e-05
-0.0394372
-1.22252
-0.000461465
-0.00133461
-4.62266e-06
-0.0155996
2.34354e-09
2.30004e-06
0.000155345
-0.00339112
7.00996e-07
-0.0620018
-2.86094e-07
8.56781e-05
-0.00369045
-6.26637e-07
6.14719e-07
-6.49889e-06
0.0141793
-0.000210139
0.404115
-2.02468e-05
0.00839121
0.0308297
0.0668201
-1.78408e-06
0.000335859
0.158306
-0.0173984
3.5095e-05
-2.73619e-07
0.0455555
0.000483116
4.87323e-07
-0.0657298
1.27673e-08
-0.000834237
0.00508296
2.99535e-09
-8.80035e-08
-0.00870126
0.112198
5.54969e-06
-2.22291e-05
-0.0181993
1.33214e-08
4.89132e-06
-0.011313
-1.31396e-06
-8.05471e-05
-6.54226e-07
-6.28135e-07
4.48961e-07
-0.0353923
-5.70204e-05
-8.47388e-08
-0.0378614
-7.29665e-07
-1.3196e-05
-0.0171366
6.20568e-09
-0.0318166
1.15843e-05
3.73994e-07
-1.13181e-06
1.61717e-07
-0.0271911
0.0177357
-0.00721515
-8.77577e-07
0.00607354
0.00911661
1.3356e-07
-0.0311083
7.34108e-05
5.57836e-09
-1.78801e-07
-2.77103e-08
4.73754e-06
0.0184224
-3.05337e-07
1.6885e-09
0.0134536
-0.0442726
-1.80833e-07
-0.0172468
-0.0125552
-0.00602277
-6.18083e-07
-5.43773e-06
1.34871e-09
1.60249e-05
0.000429376
1.4839e-07
3.86061e-06
3.71366e-09
-5.81932e-06
-4.32013e-06
-0.00281295
-0.0310156
-1.28438
5.15946e-06
0.000496217
-8.56868e-05
4.37474e-07
2.34458e-07
3.32866e-07
-0.0786871
-0.000731719
0.0542932
-0.0215824
-0.0392207
-3.07855e-07
-0.00411495
3.5695e-07
-1.17942e-07
0.00133111
1.94789e-07
-0.0172609
0.206937
0.0234049
0.0267797
-0.063501
7.31325e-08
0.000204177
0.0730559
2.40349e-06
0.00310924
0.00122132
-2.82388e-07
-0.0358565
4.29862e-08
-0.0162679
0.00983671
-9.34943e-07
-3.3326e-07
-0.0347075
-2.05575e-07
2.99906e-06
-3.08361
-0.08005
0.0094901
-0.00824162
-4.90001e-09
-1.65689e-05
1.12859e-06
-0.00192316
2.38301e-07
0.00926326
2.49361e-05
-1.71568e-06
0.0113899
-0.000801483
0.000361525
-6.18086e-05
5.93083e-07
1.89888e-07
-0.183266
-0.000183865
-2.53908e-05
0.000300372
0.00771587
-0.0103591
7.37867e-10
1.88635e-07
-8.06478e-05
-2.29117e-07
0.0170829
-0.0275818
0.00390586
-1.22541e-06
-0.00173335
-3.71623e-07
-0.0321029
-0.000118873
-0.0398908
8.87374e-05
0.0139414
-4.28436e-06
-7.60943e-06
0.0346813
-5.57127e-06
0.00687047
-0.226177
3.47942e-06
-0.000535194
-0.000216688
-0.0270488
6.23199e-06
-1.50372e-07
-0.0186302
-8.89136e-08
-9.62063e-07
0.000593864
0.0778277
9.55636e-05
0.0609614
1.01733e-05
-1.00839e-07
-0.0105231
-0.953075
-1.30582e-08
-0.00150808
0.000173749
0.00163289
-2.72776e-07
-1.33631e-06
7.93264e-05
-4.33876e-07
0.00745417
3.4719e-07
0.000141658
-0.00592866
-0.0001389
6.28434e-06
0.000489442
-0.0137339
-1.68191e-06
2.2448e-07
-1.256e-06
-0.00282434
-0.658135
-1.32791e-06
1.18525e-07
0.000368299
-7.92695e-06
0.0445046
0.000305804
-0.0102563
-0.0255813
-0.0229209
-2.3298e-06
-0.0324861
-0.0643934
-1.38566e-05
-0.00356936
4.67267e-07
2.12905e-06
0.00136009
9.67397e-09
-0.0237061
-2.15953
-0.0167392
7.3949e-05
0.0295159
-1.56398e-05
-0.0113903
1.02424e-08
0.0118391
1.25405e-05
0.02225
7.15711e-06
9.8573e-08
-5.28079e-06
-1.70587e-07
-0.130805
0.00195285
8.58208e-05
-0.0150715
-0.00396344
-2.55959e-05
3.34962
-0.0148103
0.00652673
-0.0458339
0.000100692
0.000979567
0.0323335
2.40061e-07
3.41551e-10
2.83526e-05
0.000181801
0.0429816
0.00117066
-1.20842e-07
-0.0146705
6.03515e-07
1.67271e-05
1.8336e-06
3.7595e-09
9.28941e-09
-4.93117e-06
7.91682e-09
-8.7252e-05
-7.79011e-07
-4.00821e-06
0.0134192
0.00188422
-5.04374e-07
5.67285e-08
-0.105233
1.08656e-06
0.000595251
2.54316e-07
-0.00200065
-0.000266581
-0.01796
-0.000358167
-5.38927e-08
2.57375e-06
0.00296131
0.000127705
8.04735e-09
-0.0859893
2.60156e-09
0.00793496
-9.14914e-08
2.92092e-06
0.161142
-1.05128
2.20665e-07
-2.45732
-0.154198
-0.00726135
4.40265e-05
-5.67276e-07
0.0204398
9.3612e-07
-0.0102825
-3.01638e-06
0.000749111
-3.25802e-08
7.63662e-09
-1.98317e-06
0.0141965
-0.0172119
0.482213
-0.00238651
-0.0153999
-0.0144038
2.32318e-07
-8.09631e-07
-0.00696605
0.0567347
-0.00962589
-1.40466e-05
-1.586e-06
1.76536e-07
0.00460457
-0.000772431
0.00306241
-6.95514e-07
-0.3988
-9.33705e-06
0.00907304
-1.82044e-07
8.94109e-05
0.00742129
1.90299e-07
-3.36832e-07
2.57082e-05
-7.18272e-06
-8.80954e-07
-3.52921e-06
-0.0004456
0.012143
-5.79729e-07
-7.78068e-05
0.0307523
-0.0211649
-0.000474861
0.0191263
0.0223529
-9.32822e-06
-1.64804e-07
-0.00833755
0.00417803
-1.43062e-06
0.0374144
-0.00195688
-0.000681752
0.660063
-0.000584372
0.310752
3.8141e-08
-0.042777
-0.0458211
-4.21796e-05
-6.59955e-05
3.60825e-07
9.70778e-07
0.017688
-3.75664e-06
2.35793e-06
-9.75045e-08
-0.0190732
-7.58321e-08
-2.90772e-07
1.87401e-06
3.67488e-06
0.0249674
7.23172e-06
0.115875
4.06705e-07
-0.304662
-0.00143394
-1.24563e-06
-0.0045839
-3.46834e-07
1.58805
-0.0101307
-0.000543958
-0.0240194
6.20903e-05
-6.2303e-07
-1.8456e-05
-3.96892e-07
3.74778e-06
-0.00257964
-0.166378
0.0050242
2.33044e-09
6.8271e-08
3.66632e-06
-2.27202
1.91599e-07
-1.04554e-07
-1.16572e-05
-1.86874e-07
-0.00234078
-0.000453395
-4.43364e-08
1.12591e-07
-9.75886e-07
0.000754265
-3.58885e-07
1.08779e-07
-0.00231314
1.63989e-05
-9.54161e-08
1.08478e-07
0.000569138
9.08715e-08
-6.31322e-07
-2.18955
-8.60304e-06
-7.4849e-08
6.21446e-09
-0.000215234
1.48431e-08
-5.44845e-07
1.11493e-07
-2.30831e-07
0.00024718
-0.0325636
6.67076e-07
0.0494052
1.05916e-07
-0.0133945
-0.0332265
-2.46323e-06
-0.00354596
0.0159349
-1.33749e-05
-6.61497e-07
-1.73435e-07
-0.00300556
0.00525699
-0.0133635
-0.21083
7.3694e-09
-0.00225562
-1.51082e-06
0.00420703
-2.94736e-05
-0.0180592
3.18356e-10
0.0130501
-0.0492649
0.00692464
-3.52075e-08
-0.00374591
0.691306
1.17558e-06
-0.0178472
8.2215e-08
-1.38297e-07
-2.70453e-06
-9.28622e-07
-8.68302e-06
0.020233
0.0252225
1.61799e-09
1.87595e-07
0.0388572
-2.56906e-06
2.13439e-06
6.38219e-07
-2.36015e-07
-0.00173368
-3.18214e-07
-1.79773e-06
-1.0381e-05
-0.0312004
-2.47806e-07
6.00743e-07
0.0115062
-7.21981e-08
-5.29306e-07
-0.0289343
6.08735e-07
5.79985e-06
0.00184632
-0.00358697
-0.00428653
-5.77874e-05
-1.3866e-05
-1.21533e-08
-0.00107062
0.00302419
-4.53137e-05
0.000960418
-0.0209053
-0.0256026
-0.00124827
-9.20217e-10
-2.22101e-07
-1.27662e-06
0.013724
0.0843413
1.65273e-06
-0.000172724
2.09909e-07
-0.0418109
1.85308e-07
6.53549e-07
-0.0386311
0.000298633
-0.0372814
-2.50954e-07
-0.037239
-0.047646
1.39289e-08
0.00478007
3.49046e-09
-0.000276652
-2.44248e-07
-2.36919e-06
-2.68645e-05
0.0231582
2.70701e-08
-4.01806e-05
-0.172439
9.21237e-08
-0.0439368
5.48344e-06
5.58244e-05
-0.0834622
-9.35402e-06
0.0423494
9.4675e-06
8.79247e-08
0.00822238
4.74938e-06
-1.10897e-07
0.0171672
3.20519e-07
-4.38392e-08
0.0208547
1.57518e-07
4.86765e-08
-2.17722e-05
0.0209136
-4.13499e-07
1.87558e-08
-1.44448e-07
-1.47536e-07
-2.42098e-07
7.43786e-07
0.048513
-0.0382445
-0.0268553
-5.44538e-07
-1.0857e-07
-0.0320421
-0.00463123
0.0397188
-1.94747e-07
-0.0176423
-0.00714998
-0.0203597
-0.0015802
-0.0312868
1.94703e-05
-0.113126
0.026608
0.000226118
2.46771e-07
1.7611e-06
0.00238102
-4.38067e-07
0.00608649
3.07059e-05
0.0426239
-0.074395
-1.7176e-05
0.00204456
-1.20609e-07
-0.946361
0.0541033
-0.00543972
-3.15323e-05
0.0334075
-1.36881e-06
-2.14224e-06
-0.00288967
-0.00614304
-0.00257838
-3.32034e-06
-1.9095e-08
-3.8017e-07
-1.91398e-06
1.54166e-07
-0.000176922
5.92115e-07
-1.44681e-06
-0.0204028
0.0459373
-1.08641e-07
-0.0255528
4.29996e-09
7.21782e-06
-0.0404162
-2.83341e-05
4.61207e-08
-2.38958e-06
0.0325221
-9.44711e-08
3.08733e-06
-1.76869e-07
0.0434073
-0.00808293
0.0508787
-0.0166196
-0.0216588
0.00249073
-1.71476e-06
-9.96169e-07
-0.0469481
0.0466457
-0.0542716
0.00192163
-2.37034e-06
-0.0757529
0.000216245
-0.000286269
1.81041e-07
-2.22705e-05
-1.72014e-07
0.0402144
-0.00257185
-0.0536369
0.0818112
1.80401e-07
3.09968e-06
-0.0255889
-0.299136
5.63384e-07
-0.00101971
0.0451974
0.000443874
-0.00179124
0.979869
3.30078e-07
0.0927795
-0.00748343
-0.00926855
0.00914849
-3.46396e-07
0.799972
0.00242609
-0.0193784
0.00486618
-4.21795e-07
-0.0452341
-0.000177713
2.52722e-07
5.04498e-09
-0.0361601
-3.78911e-05
-2.25025e-06
-1.55316e-07
0.000567485
0.00134942
-8.84111e-06
-9.75528e-05
0.0086716
-1.37173e-06
1.89038e-07
-0.0508617
-4.80131e-06
6.01019e-07
-7.85785e-07
6.99605e-07
-1.18708e-07
-6.92851
-0.00834365
0.00137769
-0.000258928
-1.48519e-05
-0.0127449
-3.39676e-07
-0.00211516
-2.18626e-09
-0.0385603
0.0298737
3.20393e-07
-0.00235659
0.0449091
-1.3222e-06
3.31338e-05
-0.0528259
-2.64982
1.98307e-08
-0.00683967
0.0231849
-0.00029857
-2.01148e-07
-9.44109e-08
0.041709
-0.00146563
-0.00125792
0.00872391
0.000532095
-0.00648661
2.47502e-07
-2.66918e-06
-0.024885
-8.07242e-08
-1.32406e-08
5.70125e-09
0.00253056
-1.5197e-08
1.00548
0.0209246
-2.39551e-06
-7.34269e-08
-1.28708e-07
2.84511e-05
-0.0422822
-4.84294e-05
-3.00178e-08
1.87275e-06
0.17574
-2.41003e-06
-0.0336175
0.0178996
0.0193895
0.000463833
0.000769905
-0.00242093
-0.213004
-5.79813e-05
-0.0168769
-2.36318e-05
-5.78485e-07
-1.1505e-06
0.0042592
-1.28087e-05
1.27575e-08
0.00939627
0.000318264
-1.04234e-06
0.00327718
3.96345e-07
8.50187e-09
-3.90131e-06
-2.01117e-06
0.000177315
1.97784e-07
6.80645e-08
-3.65045e-07
-1.85752
0.0259369
0.344934
0.0152548
-0.0291911
2.16039e-07
0.0496739
2.2581e-07
-2.50931e-06
3.55183e-07
-0.0248186
-3.07214e-07
5.22291e-07
2.4748e-07
-3.07015e-08
-4.46279e-07
-6.3705e-08
-0.00374418
0.0129192
-7.80369e-06
3.31361e-08
-0.0235394
-1.04862e-05
0.000153547
-2.93634e-07
0.0183166
9.17455e-09
-3.38519e-08
0.0193469
-2.51663e-05
2.06197e-07
0.0248182
-0.0263613
0.00469706
-1.38853e-07
-0.000124179
-7.90017e-05
-0.0211934
5.86111e-07
-2.51174e-06
-0.000807339
0.015998
0.068341
-2.71878e-08
1.08381e-06
-0.0306066
0.0396921
0.00392484
1.93031e-07
-0.0106651
0.000457456
-9.32086e-07
2.70712e-06
3.10713e-07
-0.0137778
-0.000226816
-0.0199596
0.0447273
-1.90288e-06
6.78945e-08
0.00163225
-0.00702948
0.000189508
-1.09124e-07
-0.0164247
0.0454337
-1.84857e-06
-8.84334e-07
-0.000216483
0.969081
-3.26328e-07
2.36693e-07
-0.0221213
6.70198e-07
-1.49248e-07
-2.21223e-07
-0.0831142
-0.0147778
2.0631e-07
2.11037e-07
0.00251965
-7.71959e-07
4.10017e-07
0.0936062
-0.0122721
0.0160619
0.000735046
1.65434e-08
-1.51678e-06
-2.82723e-06
-0.010331
-0.000278639
-0.140022
-0.0104793
-3.18672e-06
-1.28974e-07
0.0107572
8.96106e-08
9.59205e-06
0.0656416
-1.37005e-07
6.03189e-07
0.00399701
0.306461
-2.32415e-06
-0.0212371
1.30055e-09
1.6805e-08
-5.30375e-06
0.0249565
3.25827e-08
-1.3865e-06
-1.25085e-07
4.13773e-05
0.000855566
-0.104075
0.0257649
2.06514e-09
-2.86016e-06
-3.31257e-07
0.000639319
0.0062682
-1.84913e-07
-0.09489
-4.59292e-05
-5.99986e-06
-0.000642188
-1.43915e-06
0.00437595
0.0059989
-6.02813e-08
-0.00992412
-1.24061e-06
3.5518e-07
-1.51652e-06
-1.86634e-06
-2.7474e-07
0.000495493
1.71846e-10
0.0599539
-0.000283774
4.4064e-08
-7.13133e-08
-0.00611583
-5.66821e-07
1.29729e-07
-2.25016e-07
7.16919e-09
-0.00179987
-5.21108e-06
-0.00146662
0.4648
-6.85105e-08
-9.38687e-05
-0.00575278
0.000101127
-0.00752422
-0.0379672
6.2547e-08
0.505789
0.0516512
-2.56811e-07
-0.0280595
6.12748e-07
0.00195077
-0.0310508
0.0308695
-4.85989
0.0161162
-3.74784e-06
-2.71735e-07
0.0077838
-4.80863e-07
0.00186382
0.054316
-0.0122452
-2.40728e-05
-2.17052e-07
-0.000899476
0.00445513
1.86074e-06
2.62456e-06
-2.4843e-08
0.0140331
2.63491e-05
-0.0242261
8.76307e-05
-5.98931e-07
0.283052
2.54103e-06
-0.00406091
0.00120368
0.0549829
3.04816e-07
-0.0137148
-1.16762e-08
0.00171419
0.000206879
-0.005776
0.0117344
0.00512133
0.00596182
-2.62847e-07
-1.56937e-07
-3.06165e-07
-0.189399
0.0106631
-0.000226515
-1.7674e-07
-3.51063e-07
6.05845e-06
-1.26178e-06
-4.83796
7.57604e-09
0.185407
-0.00174467
0.151436
-0.0522404
-0.00423882
0.0627928
-0.00477673
-1.99424e-08
-0.0171253
0.00545818
0.00013849
-0.0157473
0.000119595
-2.62455e-05
-0.0150554
-8.62226e-07
-0.0486626
2.27728e-07
-0.0700676
-0.00176364
-5.21945e-07
0.048439
-7.02584e-09
-2.65099e-07
-1.74519e-08
0.750057
-6.88626e-07
-0.0133074
2.48316e-08
1.07658e-07
-3.42773e-05
-0.00297163
2.87705e-06
3.04726
4.71604e-09
-0.652574
-2.28847e-07
7.52389e-09
-0.0152755
0.0167947
-0.984908
-1.52337e-07
-9.39375e-08
-8.11766e-07
0.00462983
0.0231546
-6.30359e-07
8.38751e-07
0.0168628
-5.63597e-05
-0.00765435
8.10347e-07
2.28323e-06
-1.70937e-07
-5.64868e-05
-0.0362183
-4.88406e-06
0.0137686
-5.25199e-09
2.12003e-06
-1.85832e-07
-3.14327e-07
0.00583874
-0.00396554
-1.38813e-06
-3.35721e-06
-0.0114243
-2.08312e-06
-0.00776981
0.138339
-1.78157e-06
1.2755e-06
0.00678352
-0.00288163
-9.98777e-07
3.63306e-07
2.37483e-07
-2.10263e-07
0.00044427
-0.000173011
-1.55208e-07
0.0141704
0.00481285
-0.0358812
0.000542719
2.68288e-07
-0.00436513
-1.15518e-05
0.0800355
-0.0907406
-0.00326848
-0.00191967
-0.0301908
0.00582201
-0.00158316
4.04606e-07
-0.0138037
0.0395309
-3.32459e-08
0.00181965
-2.16593e-07
1.77401e-07
2.50317e-07
0.00823169
1.85861e-05
-2.47726e-06
-4.06129e-07
2.3155
-6.7482e-09
2.10762e-07
-4.05601e-05
-0.00220246
0.422519
0.0265458
0.0792215
9.0615e-08
0.000164542
6.21326e-07
-0.00376528
-2.32534e-06
-1.7472e-07
-3.81975e-05
-3.80453e-07
-2.2237e-07
-0.00226418
2.59704e-07
-7.21608e-07
-0.0265342
-2.24073e-06
1.44128e-05
0.0157465
-2.67565e-05
-0.00306236
-0.000994373
0.00790868
2.70886e-07
0.000398528
8.47966e-05
2.51514e-07
-4.13139e-07
0.00933815
6.69332e-08
0.00257978
-0.0114991
-0.00252467
4.82861e-05
-1.6485e-07
-0.0107653
1.71654e-06
2.18453e-07
0.0158098
-0.0123737
0.000373756
-0.00624578
-0.0178889
-4.33452e-07
-5.14077e-05
-1.34394e-06
-1.52671e-07
-1.24273e-07
0.00758374
0.112192
0.0335207
-0.0161539
-0.000179386
-9.90483e-05
1.23409e-07
0.000134446
3.67919e-06
2.28361e-05
0.0393046
2.72187e-07
6.20041e-11
-0.000647262
-2.03789e-05
0.00107072
1.36103e-07
1.78642e-06
1.47473e-09
-1.72665e-05
2.29539e-08
-0.000884754
-2.63078e-05
-0.0139213
-1.64299e-06
0.00173103
0.00340213
-0.000341981
-0.0103103
0.00728909
-0.00312891
-3.30337e-08
-0.000433048
2.5351e-05
-3.04542e-07
-0.000241663
-0.0549555
0.0122977
-0.000111415
-0.00104719
2.41035e-07
-0.00374355
1.46891e-06
0.00241391
-5.43021e-05
7.37137e-07
-0.31016
0.0184578
2.45622e-07
0.00397148
-0.00180848
-6.07808e-07
-0.0482537
-0.011194
-2.55201
1.09105e-06
-4.70962e-07
0.143275
-2.43308e-08
-7.13778e-06
-0.0117393
-0.616454
-2.15931e-07
-0.0112266
1.70667e-07
-9.24339e-07
-3.31056e-05
-1.57259e-06
0.0618554
-0.000504636
8.48692e-07
-0.000483305
-6.49347e-07
-2.13992e-07
-1.40391e-07
-1.49121e-05
-0.0330964
-1.15828e-07
0.00361289
0.00862569
-0.000344567
-0.0475688
-0.00124546
7.68231e-05
-0.00554569
-1.00405e-07
-1.61736e-07
0.0926206
0.000989832
5.55134e-07
0.00559871
9.86e-09
0.016232
-0.0187169
0.0950432
-0.0418896
0.00289321
7.16866e-07
6.3182e-05
0.0489239
0.000172738
0.0109092
-0.0332523
6.78999e-08
-0.0187723
-2.40323e-06
0.0776717
-0.00239147
5.32224e-06
-2.78452e-07
7.94634e-06
-0.00274494
0.000999223
3.49864e-07
-1.4941e-05
-0.0168621
-3.01653e-07
-0.0130393
0.000366729
7.09947e-06
-0.00236075
0.00537439
-3.15454e-07
1.91415e-08
4.9013e-06
1.87008e-05
-3.11511e-08
-1.85338e-05
0.00364817
-0.328112
9.37099e-07
-0.000350297
-0.256513
-0.0336486
-0.00326271
-0.0243515
-0.000155711
0.00110676
3.41662e-07
2.413e-07
-0.0337214
-6.80631e-08
0.0121802
0.00768164
4.47768e-06
-0.0019356
0.00443371
3.87656e-06
7.54718
2.82946e-09
-0.00652325
-1.97781e-05
-4.57887e-07
0.0796341
-5.45002e-07
-1.48852e-06
2.66613e-07
-2.76936e-08
-1.34634e-06
0.00205279
0.011218
5.24026e-06
0.0646733
-4.99282e-07
1.59089e-07
0.00302615
-0.000170059
-2.02537e-06
6.25575e-07
-0.00362338
-0.000751927
4.7876e-05
5.89995e-08
-1.49534e-05
-1.8674e-06
2.09387e-07
8.82901e-05
2.78438e-07
-0.196694
5.49241e-07
-0.0101224
-0.00416859
-3.4468e-07
-0.00904405
-0.0462801
0.000158832
0.00347843
-3.91628e-05
-2.57105e-06
-4.85551e-08
-2.13771e-06
-2.71331e-07
-0.0280723
0.00690777
1.40382e-09
1.41609e-09
0.0127282
-2.34672e-07
0.00029297
5.99417e-07
-2.33153e-07
0.0108417
-2.06946e-07
-1.9291e-05
-1.24302e-06
-1.44924e-07
-1.3617e-06
-1.14458e-07
-7.02388e-07
2.60028e-07
-0.00196287
-0.000209531
-1.30786e-06
3.47643e-07
0.000705298
0.0224029
5.42392e-07
-0.00425032
0.000901375
0.000785772
0.000282417
-2.20055e-07
0.0647779
-0.0347865
-0.00781299
2.46713e-07
0.045875
-7.92457e-07
-0.00041183
0.0812785
-9.90453e-08
0.161861
0.00507256
-2.11389e-06
-0.0444898
-0.013594
-0.00199158
-0.005343
0.000510992
-2.07253e-06
-0.0297816
8.97276e-09
-2.47364e-06
-0.000243265
-1.08683e-06
1.57418e-07
-7.6897e-08
0.000146633
-1.69768e-07
0.0184355
2.91411e-05
0.00713975
8.25775e-07
0.170716
-0.0177948
-0.00321035
-0.117691
1.38393e-08
-0.0112058
5.73145e-07
0.000134088
5.3139e-07
-0.0401835
-0.0158922
-1.04397e-07
3.22977e-07
3.45851e-06
-0.000279622
8.17922e-08
-0.409998
6.74885
-0.000170326
-0.00423258
0.0134886
-1.95763e-05
-1.8135e-06
3.95793e-06
-8.32611e-07
-1.58224
-2.5201e-06
0.0378488
1.23317e-07
0.0411868
-0.159452
-0.0447693
7.70905e-05
-0.037427
0.0241871
0.0115503
-1.80822e-06
6.5666e-08
4.19282e-05
8.02285e-08
-1.34177e-06
-0.00720056
1.48263e-07
2.42924e-06
-5.62487e-07
-4.84146e-08
-9.79378e-07
-1.61849e-07
4.89513e-07
-2.30173e-05
-0.0439305
0.000144163
0.000105957
7.74367e-06
-0.0461507
-0.0206027
-0.00521898
0.00527556
-4.07362e-06
7.09452e-05
4.2599e-06
-0.00507381
4.46746e-07
-6.76199e-07
0.479783
-2.20508e-07
2.16687e-07
-0.000194422
-1.35024e-07
-0.00109122
-0.125455
-2.94979e-05
5.37358e-09
8.5835e-09
-5.61141e-07
-0.000628854
-1.08431e-06
3.69142e-06
0.0185844
-0.0122369
6.76953e-07
0.000555904
4.40164e-06
-6.63148e-06
-2.40043e-06
-0.00172969
4.31648e-10
9.51587e-05
0.0127722
-1.21322e-06
0.0129785
0.0592333
-0.00355614
-0.0199017
0.000427529
0.0421681
-0.00512486
0.000943672
-0.0468604
-0.0294297
-0.000156567
1.44689
6.61363e-08
-0.000296164
0.00327171
0.898624
0.000520032
4.30449e-07
4.08481e-07
0.074773
0.0550724
4.18108e-09
-2.99278e-06
2.37291e-05
-3.62274e-07
-1.45439e-06
-1.74463e-06
-0.0280056
-0.000397266
3.53663e-07
0.000553986
-2.18239
6.41754e-07
-7.11176e-06
0.00262323
3.15284e-07
-0.00610733
0.000961405
4.45887e-05
-0.00144793
-0.0550393
0.00615595
0.0105351
-0.0426257
0.0272079
-0.0415017
6.21444e-07
3.04758e-07
0.0161327
0.0125389
3.76844e-06
0.0522933
9.39637e-07
-3.95116e-07
1.50991e-06
6.647e-11
5.39755e-06
3.7053e-09
0.000641583
-0.000199864
-0.00247833
0.0379628
6.44182e-06
0.0011884
-0.0464081
0.0222633
-6.92682e-06
-0.0123532
7.75875e-06
-0.032571
2.3435e-07
0.162745
-0.0263205
-0.00306841
0.00139519
-0.0281804
0.103971
0.000156516
0.00026954
-4.32088e-05
2.32014e-07
0.00104134
0.0621292
0.0241965
-3.65427e-07
-8.36175e-08
-1.38717e-05
0.0167378
0.0141405
-4.12959e-07
4.05278e-05
0.00103746
0.000501229
-0.00550797
-2.7734e-05
-2.36585e-07
7.46083e-07
0.000744737
0.000350862
-0.0591994
4.62206e-07
4.75314e-08
2.31498e-07
0.551649
-2.62428e-07
-1.13355e-06
0.00163478
-0.00426745
-2.63841e-06
-0.0266997
-0.457498
-3.23558e-06
-0.0233125
3.68591e-07
-1.39662e-07
0.0719093
-2.93093e-07
0.000734273
-1.74411e-07
-1.41118e-07
-0.0039966
-2.55306e-08
-5.00201e-06
0.197342
-1.00895e-06
0.0444245
2.11552e-06
-0.0666793
0.015382
-0.00860608
0.000161288
-0.0016818
-0.0408589
0.0463659
0.000455646
-1.21876e-07
3.37231e-05
-3.11067e-07
-1.7317e-06
0.036985
-6.99368e-07
0.0182742
0.000185836
-1.96543e-07
0.0190814
0.0917866
8.7785e-06
-0.0149868
-2.46855e-06
0.397354
-0.0216475
1.47891e-07
-5.61155e-07
-0.0275725
-2.44618e-06
-0.316277
-0.0488558
-7.47831e-07
-9.45736e-05
-1.34609e-05
-0.0511959
3.8983e-10
-0.0162479
0.0321081
5.97931e-07
6.40864e-05
-0.0534849
0.00537787
6.22017e-08
-0.0145465
5.47604e-09
0.0233873
-0.0101066
2.42679e-07
0.021394
-2.44453e-06
0.00167716
-2.81232e-06
-0.0129422
-1.05084e-06
0.00277341
0.0150204
3.8191e-05
-1.31402
-0.0297929
0.0163669
-0.00986738
-0.0281724
4.38052e-06
0.000249759
2.79883e-06
1.10758e-09
6.80072e-08
-7.64252e-07
2.86708e-07
0.0114892
-5.80271e-08
0.0381217
-8.03306e-07
0.0131231
3.60968e-07
-1.62312e-06
1.00703e-07
-3.01573e-06
0.01051
-1.90665e-05
0.00168449
-5.0913e-08
0.0196355
-0.00148949
-1.124e-07
9.53546e-07
-2.49147e-06
0.000190733
-0.00654846
-4.27313e-05
4.32947e-09
0.00782861
7.22599e-07
-0.000470805
-0.000206994
0.0272479
0.0085382
3.17065e-06
-3.77441e-07
-0.000378704
-4.67157e-05
3.21317e-05
-0.00832606
6.14631e-07
0.0575999
-3.02135e-08
0.0355193
0.0506085
7.6261e-07
-0.0234805
-1.06045e-06
-1.85295e-06
-8.76529e-08
-1.92788e-07
-0.00574765
-0.475201
0.0149613
-0.00165364
-2.44701e-05
0.000184179
3.14581e-05
0.0110316
-6.443e-07
-8.64813e-08
0.0134454
-0.0192572
-0.000970675
-4.15007e-05
0.000138529
0.20812
0.0270405
-0.0315897
4.67142e-09
2.00081e-06
-0.0587566
0.377356
0.00157697
-0.0150245
7.05303e-07
-6.43136e-07
-2.74517e-06
0.000386571
6.34868e-05
-0.0285756
-1.99963e-07
-7.23449e-07
1.98954e-07
0.520982
2.90365e-07
-1.07158
1.17212e-09
-3.84219e-05
-0.0319973
9.03108e-10
-0.00260598
-1.86848e-09
3.82292e-06
4.08243e-06
7.92511e-05
0.00139688
0.178511
0.000312288
-2.60991e-07
-6.28497e-08
-0.00023587
-0.0126474
-0.015086
9.33158e-06
0.000261099
-0.017512
3.87617
-3.4874e-07
-0.04665
-0.000674068
-9.38949e-05
-9.62032e-06
0.00920289
3.86631e-09
9.12256e-05
-1.81669e-06
0.426659
-0.0209814
-1.70596e-06
-2.37031e-07
-5.10332e-05
-0.0272478
0.0102346
2.16474e-08
0.0136395
0.0001985
0.00971757
-0.0143907
1.00849e-05
-0.000417295
-0.0227786
5.20691e-06
2.90845e-07
-9.37816e-05
1.43224
-0.0199834
-0.0154313
-0.0432719
-0.0356033
0.0120344
0.0034868
-3.04397e-07
-0.0024792
-9.29696e-05
-1.17528e-06
1.44496e-05
-3.51664e-06
-0.0120747
1.3487e-08
1.22226e-07
-0.0228463
4.3514e-05
-1.48666e-06
0.129726
0.00287588
0.0104006
-4.68743e-05
-7.91141e-05
-1.48625e-07
9.73173e-10
0.0378111
0.000658424
-1.98326e-07
0.0558605
-1.48674e-07
1.16769e-06
-0.0119461
1.34027e-08
0.000164618
-2.84996e-07
-0.0699309
-0.00129596
2.08665e-07
7.51062e-05
-0.0397846
1.56588e-06
0.132698
-2.10574e-07
-0.051519
-4.49111e-09
0.00582645
-0.000701207
0.0091067
2.06594e-07
0.132357
-0.0607861
4.12233e-07
-1.91185e-06
-1.74544e-07
-1.49864e-07
0.0128179
-0.00279757
-4.28139e-05
0.0345413
0.000115043
-1.94848e-06