/*--------------------------------*- C++ -*----------------------------------*\
| =========                 |                                                 |
| \\      /  F ield         | OpenFOAM: The Open Source CFD Toolbox           |
|  \\    /   O peration     | Version:  v2012                                 |
|   \\  /    A nd           | Website:  www.openfoam.com                      |
|    \\/     M anipulation  |                                                 |
\*---------------------------------------------------------------------------*/
FoamFile
{
    version     2.0;
    format      ascii;
    class       surfaceScalarField;
    location    "400";
    object      ddtCorrDdt0(phi);
}
// * * * * * * * * * * * * * * * * * * * * * * * * * * * * * * * * * * * * * //

dimensions      [0 3 -2 0 0 0 0];
oriented        oriented;


internalField   nonuniform List<scalar> 
41211
(
-1.46422e-05
1.76656e-05
-3.02321e-06
-1.54756e-06
1.5473e-06
5.41173e-06
-2.01254e-05
1.47139e-05
2.04496e-05
1.62974e-05
-3.67469e-05
2.87015e-06
1.12634e-06
-3.99674e-06
0.000184149
-0.000205784
2.16348e-05
-2.99013e-06
5.86047e-06
-4.37267e-05
-1.09207e-05
5.46486e-05
4.23675e-06
-8.93023e-06
4.69436e-06
0.000139807
-0.000429864
0.000290059
1.30665e-05
-8.31008e-05
7.00464e-05
-5.5608e-06
4.18681e-06
1.38759e-06
8.79617e-06
-1.76685e-05
8.87257e-06
-4.21348e-06
2.13822e-06
2.07993e-06
0.000115996
-5.72928e-05
-5.87049e-05
-6.91229e-07
4.30829e-06
-3.53957e-06
-1.17143e-05
-5.17203e-05
6.34334e-05
-5.41864e-06
9.65622e-06
-4.95401e-05
6.26109e-05
-8.245e-05
-8.48991e-05
7.43406e-05
1.05588e-05
6.16394e-05
5.4356e-05
-5.1671e-06
1.77479e-06
3.39237e-06
-0.000162748
7.42567e-05
8.84919e-05
-5.48202e-05
-2.51516e-06
5.73287e-05
-9.86466e-06
9.48154e-06
3.84008e-07
-3.46497e-06
-4.16673e-06
7.63153e-06
5.10015e-05
-2.23715e-05
-2.86306e-05
5.28335e-06
-3.02367e-06
-2.26073e-06
6.78358e-07
-2.463e-06
1.77144e-06
-9.29904e-05
-6.9754e-05
3.28992e-05
-9.61109e-06
-2.32805e-05
5.53322e-06
-2.01752e-05
7.34316e-07
2.04616e-06
-2.77565e-06
-1.27228e-05
1.28133e-05
-8.77757e-08
9.41176e-05
-9.41243e-05
-1.29687e-06
-2.94475e-05
2.0967e-06
-1.13119e-05
9.21341e-06
-1.9247e-06
4.08634e-06
-2.16216e-06
-7.21909e-07
8.92358e-08
-7.8699e-07
-4.74896e-06
-1.1286e-05
-1.43582e-06
1.23795e-05
-1.53045e-05
2.92426e-06
5.23535e-07
2.01866e-06
-2.53931e-06
1.43005e-05
-6.60826e-06
-7.69178e-06
-9.05524e-05
7.33993e-05
2.68171e-05
-2.86584e-05
1.83928e-06
-3.9394e-06
1.75019e-06
2.62337e-06
-7.78581e-07
7.78241e-07
-3.06188e-06
-0.000112987
0.000116041
0.00011364
-6.16595e-05
-5.19897e-05
1.08308e-06
-1.09477e-05
0.000136145
6.65311e-05
-0.000202669
-1.1027e-05
2.08763e-05
-9.82621e-06
2.79909e-06
-3.45932e-06
6.5984e-07
1.4456e-06
-2.33147e-06
8.85867e-07
0.000279762
-0.000156091
-0.000123686
9.21238e-07
-4.4556e-06
3.53379e-06
1.9863e-06
8.89655e-06
-1.08833e-05
5.37435e-06
4.81957e-05
-5.35712e-05
-5.26091e-06
3.27927e-05
1.25588e-05
-2.13431e-05
8.78332e-06
-4.51602e-06
1.40293e-05
-9.51233e-06
3.77858e-06
1.01514e-06
-4.79589e-06
7.84339e-07
-2.84828e-06
2.06566e-06
9.77719e-06
8.42562e-07
-1.06192e-05
0.000172729
9.08772e-05
-0.000263604
0.000123789
0.000155964
4.29979e-05
-3.76246e-05
-1.81252e-05
9.63834e-06
8.485e-06
1.95847e-06
-1.43221e-06
0.000189411
-2.71803e-05
-0.00016223
3.94735e-05
-0.000157016
0.00011754
-2.42595e-05
-0.000203155
0.000227432
2.00288e-05
-1.21901e-05
-7.83675e-06
-5.82339e-06
2.13836e-05
-1.55597e-05
-0.000113738
0.000286466
-3.14688e-05
8.34093e-06
2.31222e-05
-0.000283744
0.000315392
-0.000184042
0.000184043
2.67402e-06
2.60728e-06
-2.44297e-06
6.01227e-07
1.84159e-06
3.88758e-06
-8.34708e-06
4.46579e-06
1.08174e-05
-5.49522e-06
-5.32209e-06
-2.2991e-06
-6.94955e-06
9.24856e-06
-5.86432e-06
1.12392e-06
4.74115e-06
-4.97702e-06
1.88115e-06
3.09542e-06
-0.000140765
0.000322869
-0.000182097
3.80337e-06
6.36469e-06
1.57263e-07
5.26124e-06
-5.41966e-06
-1.28642e-06
5.18327e-06
-3.89729e-06
0.000223615
-0.000228048
-4.57607e-07
5.98466e-06
-5.52636e-06
6.75007e-07
-0.000106105
-4.63309e-05
0.000152439
-3.67877e-05
5.4796e-05
-1.8007e-05
-4.68665e-07
-1.9746e-06
-5.16499e-05
1.41124e-05
3.75377e-05
1.12465e-05
-1.18102e-05
5.66108e-07
-0.000129695
3.22366e-05
9.75048e-05
-4.11083e-06
2.1859e-06
-2.50242e-06
-5.56341e-06
8.0637e-06
1.52681e-06
7.46587e-06
-8.95649e-06
1.51292e-05
-2.03899e-05
0.00019822
-0.000158744
-1.42662e-05
9.75053e-06
-9.68575e-06
3.38582e-06
6.29843e-06
2.80308e-06
-1.2469e-06
4.04551e-06
7.43287e-06
6.86869e-06
3.62981e-06
-4.35791e-06
5.61016e-06
-6.89692e-06
-9.25891e-07
1.66376e-06
-1.26978e-05
1.13879e-05
1.31191e-06
-7.50414e-06
-2.18231e-06
-4.1376e-06
3.32702e-06
8.08881e-07
5.48634e-06
7.45733e-06
-1.29448e-05
1.11497e-05
-8.47056e-06
-2.6565e-06
-0.000189048
-9.16544e-05
0.000280702
1.95739e-05
-7.43926e-05
0.00014745
-0.0001847
-8.41945e-06
5.66153e-05
-0.000126527
-9.2695e-05
0.000219226
4.98147e-06
6.20411e-06
3.6136e-05
-2.38622e-05
-1.26342e-05
-8.04092e-06
2.73872e-06
5.30495e-06
-7.36773e-07
8.52676e-06
-7.78979e-06
1.41043e-05
-4.09991e-06
-1.00048e-05
2.56396e-05
4.95963e-05
-7.52404e-05
3.84484e-07
-5.17882e-07
1.40646e-07
-0.00010642
1.36851e-05
9.27321e-05
-8.03371e-07
-1.83684e-05
1.91736e-05
7.28363e-07
-1.21623e-05
1.1434e-05
1.15668e-05
-7.93111e-06
-3.63642e-06
0.000115531
-4.02964e-05
-7.52292e-05
6.11745e-06
-9.60778e-06
3.48916e-06
-5.35217e-06
3.83776e-06
1.5079e-06
-2.77195e-06
-1.43934e-06
9.68909e-06
-1.31705e-05
3.48358e-06
-1.27077e-05
1.34357e-05
3.91625e-06
-1.77849e-06
-0.000257869
0.000397679
4.34133e-06
-1.07907e-05
6.44753e-06
-9.53945e-06
8.85211e-06
6.88389e-07
1.18058e-05
-9.7108e-06
9.94804e-05
2.20367e-05
-0.000121519
9.59884e-06
-1.20969e-05
2.49786e-06
-4.31983e-06
3.78796e-05
-3.35602e-05
-3.75157e-07
-1.93919e-06
2.31554e-06
0.000208477
-0.0003382
1.20315e-05
-1.10848e-05
-9.47382e-07
9.16104e-05
-2.63057e-05
-6.53011e-05
2.23587e-06
1.01446e-05
2.16285e-05
-0.000204021
0.000182388
6.82778e-07
-3.57486e-07
-3.25344e-07
0.000271728
-0.000347302
7.55726e-05
1.09025e-05
-4.7884e-06
7.59461e-06
-4.43829e-05
-4.21654e-06
1.52875e-06
2.6901e-06
-2.4867e-06
2.49437e-06
-8.06307e-09
-3.59436e-07
1.13653e-05
-1.58799e-06
-0.000204663
0.000130877
7.37873e-05
8.68154e-06
-5.4647e-06
-3.21694e-06
7.78284e-06
-8.27571e-07
-6.9551e-06
2.69192e-06
-3.38207e-06
6.89801e-07
0.000206277
-7.61696e-05
-0.000130104
7.59696e-06
-9.61251e-06
2.01509e-06
-1.86887e-05
5.98108e-06
1.28489e-05
-1.95661e-05
6.71486e-06
2.67253e-05
-1.02394e-05
-1.6485e-05
-3.72788e-05
3.65328e-05
7.46265e-07
-2.74136e-05
7.38367e-05
-4.64239e-05
-0.000117098
-7.83014e-05
0.000193768
-3.54629e-06
-2.26457e-06
5.81292e-06
-5.23256e-05
0.000155311
-0.000102989
-2.82247e-05
-0.000155815
-0.000137235
-0.00010529
0.000242531
3.413e-06
-8.63262e-08
8.73144e-06
-5.34671e-06
3.37113e-05
-1.52357e-05
-1.85941e-05
9.30102e-05
8.32346e-05
-0.000176245
-1.88324e-05
2.50281e-05
-6.19682e-06
0.000156519
-0.00013861
-1.7908e-05
1.10911e-06
-2.94096e-06
1.83302e-06
1.73752e-06
-1.2582e-06
-4.81336e-07
4.34696e-05
1.87026e-05
-6.21716e-05
-1.01871e-05
5.7757e-06
4.38261e-06
2.14551e-05
0.000165997
-0.000187453
5.0986e-07
-7.47229e-07
2.3858e-07
0.000111739
7.00473e-06
-0.000118742
5.63995e-06
-5.63992e-06
1.96965e-05
-5.73412e-06
-1.39686e-05
0.000129773
-0.000236696
0.00010688
4.03553e-06
-1.37924e-06
-2.65644e-06
0.000169176
-7.75652e-05
0.000271728
0.000150246
-0.000150195
-5.24137e-08
0.000274119
-0.000144348
0.000236623
0.000107518
-0.000344141
-1.61777e-05
1.95481e-05
-3.37549e-06
-4.15687e-08
-2.44541e-06
1.37724e-05
-2.00735e-05
6.30107e-06
1.42109e-05
-8.72437e-06
-2.37056e-05
0.000135448
2.54911e-05
1.50366e-06
-2.69962e-05
1.34619e-06
6.25055e-06
8.01475e-06
-5.99791e-06
-2.01585e-06
-1.9354e-06
5.74289e-07
1.36303e-06
1.10082e-05
-1.7175e-05
6.16487e-06
-2.87347e-06
2.49866e-06
-2.31848e-05
-0.00035461
0.000377789
3.72914e-05
-1.6841e-05
-9.74562e-05
1.18199e-06
9.6274e-05
-1.92676e-06
-2.28794e-06
4.64476e-06
-8.1106e-06
-6.91976e-07
-0.000105728
8.32941e-06
-1.44382e-05
6.10714e-06
-5.07713e-06
8.75925e-06
-3.68307e-06
4.98267e-06
6.57228e-07
0.000100172
5.04459e-07
-3.8425e-06
3.33838e-06
-2.97801e-06
2.66482e-06
3.12364e-07
-0.000262332
0.000110111
0.000152225
-1.1279e-05
6.6566e-06
4.61972e-06
0.00016883
-0.00027844
0.000109607
1.58292e-05
-1.24605e-05
-3.36755e-06
-3.96287e-05
3.53082e-05
-2.92707e-07
-2.56433e-07
5.46843e-07
-6.45378e-06
-4.82545e-06
1.15014e-05
-1.30753e-05
1.57586e-06
1.94609e-05
-3.72808e-06
-1.57325e-05
-0.000253329
4.92562e-05
0.000204079
1.15761e-05
-1.00266e-06
-1.05739e-05
4.98277e-06
8.67669e-05
-0.000105111
1.83421e-05
-4.27315e-06
-1.08197e-06
-3.76333e-07
-4.89931e-06
5.27503e-06
-9.07392e-06
8.33689e-06
-1.69197e-06
7.10317e-06
-5.39392e-06
4.35214e-05
-1.07344e-05
-3.27877e-05
5.96645e-05
-6.63459e-05
6.68301e-06
0.000157888
-6.48774e-05
-0.000239075
0.000236528
2.54651e-06
-0.000115323
0.000132595
-1.7275e-05
9.38681e-06
-5.25707e-06
-4.12682e-06
4.77621e-06
4.86624e-06
-9.64383e-06
-6.59332e-06
2.66973e-06
2.63783e-06
1.89714e-06
-4.51545e-07
0.000109826
-0.00012152
1.16951e-05
-4.03271e-06
3.47977e-06
5.53048e-07
5.65442e-06
2.97836e-05
-3.54486e-05
3.97249e-06
-1.36595e-05
9.68623e-06
-0.000297433
0.000156671
0.000220604
-0.00022989
9.28521e-06
-1.29353e-05
1.34038e-06
1.15921e-05
-2.04515e-05
3.47788e-05
-1.43301e-05
1.67316e-05
-7.93491e-06
-8.79111e-06
1.14892e-05
8.54082e-06
-5.00013e-06
1.98607e-06
3.01429e-06
-2.45986e-06
0.000124855
-0.000122395
0.000110784
-0.000299833
0.000209267
-0.000187813
-1.54088e-05
5.45929e-06
9.94824e-06
4.64529e-06
-1.04975e-05
5.85348e-06
-1.05611e-05
-1.19109e-07
1.91251e-06
-1.7638e-07
-1.84709e-05
6.43631e-06
2.64613e-05
-9.89668e-06
-1.10156e-05
2.09076e-05
-7.98974e-06
1.24228e-05
-4.43391e-06
-0.000143609
2.82858e-05
8.20251e-06
-4.03004e-06
-4.17249e-06
-9.56392e-07
-3.07634e-06
2.90288e-07
-1.85064e-05
1.77037e-05
-2.43059e-05
3.10218e-05
-6.71452e-06
1.56459e-05
-9.85927e-06
-5.78664e-06
0.000226539
9.98868e-06
-1.63642e-06
1.18871e-05
-1.02495e-05
2.49694e-05
-1.07012e-05
-1.42676e-05
-5.7596e-05
3.62207e-05
2.13587e-05
0.000174025
-0.000198279
-1.45251e-05
5.7994e-05
2.00978e-05
-1.10965e-05
-9.00172e-06
-0.000284705
0.00014747
-5.23894e-06
9.65725e-06
-4.41858e-06
3.30645e-05
-4.86595e-05
1.55914e-05
0.000182557
-0.000160934
-1.78969e-05
3.80668e-05
-2.01592e-05
0.000213227
8.74122e-06
-0.00022197
-0.000210226
0.000102916
0.000107316
1.08317e-05
-8.84575e-06
4.48182e-07
-7.42021e-07
-9.33754e-06
-3.7889e-06
1.31271e-05
1.12562e-05
-1.28918e-05
0.000115532
1.11356e-06
-4.57906e-06
-5.21451e-05
0.000109897
1.48618e-05
5.0295e-07
-1.53649e-05
-3.5528e-05
-0.000107027
0.000142548
0.000145567
-0.000413745
0.000268315
6.95042e-05
-7.67607e-06
-6.1827e-05
-2.69714e-05
2.66627e-06
-4.44319e-05
0.000113763
-6.933e-05
-9.06949e-06
-9.0572e-06
8.81742e-05
-0.000108004
1.98311e-05
5.57765e-06
-1.03858e-05
4.80429e-06
-9.1129e-05
-5.48133e-05
0.00014595
2.54914e-05
4.36335e-05
-6.91299e-05
1.73233e-05
-3.47565e-05
1.74275e-05
-3.56352e-06
4.48488e-06
1.48629e-05
-0.00011232
9.08762e-05
-6.52305e-05
-5.57873e-05
3.61153e-05
1.96754e-05
-2.76409e-06
4.76579e-06
-2.00065e-06
3.20325e-05
1.89689e-05
-8.91462e-05
1.06094e-05
7.85372e-05
-3.44659e-06
9.02103e-06
-1.43133e-05
-4.16221e-06
1.84759e-05
0.000218657
-0.000115546
-0.000103105
8.70203e-05
-0.000122552
0.000291883
-3.56268e-06
-0.000288322
-5.96386e-06
5.50697e-06
8.04353e-06
-4.15228e-06
-5.15259e-06
3.19987e-06
1.94921e-06
-2.73433e-05
0.000263968
-3.25044e-06
-1.74951e-06
-2.00978e-06
0.00015853
5.50541e-06
-7.98406e-06
2.47845e-06
-1.40894e-06
1.36698e-06
0.000116432
0.000102213
2.37103e-06
3.14408e-05
1.06116e-05
5.21872e-06
3.36799e-06
4.80856e-06
-8.17693e-06
-5.33098e-06
5.48843e-06
8.71025e-05
-6.16118e-05
9.80569e-06
-1.56295e-05
-1.72074e-05
8.03209e-06
9.17539e-06
4.99263e-05
-0.000152971
0.000103049
5.01721e-06
-4.72175e-06
-2.97476e-07
-4.81626e-05
3.02777e-05
-2.54465e-06
3.28889e-07
2.17537e-06
1.26169e-05
8.14923e-05
6.9511e-06
1.65205e-06
-8.60167e-06
-7.86566e-06
1.43396e-05
-6.47446e-06
3.30051e-06
6.08998e-06
-4.95723e-06
-5.81727e-06
1.07746e-05
4.88454e-07
1.42318e-06
-2.17955e-06
9.20085e-07
1.53446e-06
-2.24802e-06
7.13616e-07
-3.63466e-05
1.58945e-05
1.63632e-05
-8.76636e-06
-7.59685e-06
1.46125e-05
-3.60634e-06
1.94019e-05
-6.55361e-06
2.0865e-05
-1.09888e-05
-9.87685e-06
-2.37301e-05
-5.10965e-06
4.76438e-07
-3.54571e-06
3.06904e-06
0.000241101
-7.22745e-05
-5.85828e-06
-6.84858e-06
1.27076e-05
8.43361e-05
2.93096e-05
-2.87316e-06
2.76967e-06
1.02519e-07
-1.86447e-05
9.3128e-06
9.33159e-06
-9.06739e-06
-9.5782e-06
-6.89877e-06
6.65621e-05
2.98155e-06
-8.22055e-06
-2.2059e-05
1.91937e-06
2.00276e-05
1.29692e-06
-8.47746e-07
-0.000192509
-6.082e-05
2.10649e-05
-4.56821e-05
2.4616e-05
1.0506e-05
1.0601e-06
-1.02551e-05
9.14846e-06
1.1051e-06
1.74231e-05
-1.34504e-05
7.55341e-06
-1.33604e-05
5.80587e-06
-1.93904e-05
3.21334e-06
-5.49581e-07
4.24702e-06
-3.69764e-06
5.87876e-05
0.000168023
-0.00022681
-7.86465e-06
-8.17369e-06
1.60378e-05
9.40376e-06
1.94405e-07
5.25848e-07
-1.93436e-06
-3.39447e-07
-2.63933e-06
3.9504e-07
4.58825e-06
1.78038e-05
-1.17225e-05
-6.08325e-06
4.5985e-06
-1.7697e-06
7.38773e-07
-3.63891e-06
2.90268e-06
-1.18289e-05
0.000118157
-0.000106316
-1.80991e-05
-6.62235e-05
8.43238e-05
-1.07891e-06
3.99127e-06
-2.9165e-06
-5.43769e-06
6.47458e-07
4.78952e-06
-0.00013798
-0.000289635
0.000427608
-5.68289e-08
2.4071e-06
-2.35035e-06
-1.0389e-05
-5.32925e-06
1.57181e-05
5.53235e-06
-5.90684e-06
6.67903e-06
7.52543e-06
-1.42093e-05
-3.84733e-07
1.292e-06
-9.07351e-07
0.000286577
-0.000114262
-0.000172315
0.000163776
2.03732e-05
-0.000180973
-0.000113935
0.000294928
-3.33684e-05
-5.81173e-05
9.14857e-05
-2.43665e-05
-5.63819e-05
8.07681e-05
-7.8265e-07
3.23018e-07
4.59502e-07
2.94676e-06
-2.79513e-05
2.50058e-05
5.34375e-05
-0.000243831
0.00019039
4.40777e-05
-2.67556e-05
-2.52265e-05
-1.74547e-06
1.76578e-05
-1.82132e-05
5.54033e-07
-0.000110875
6.64429e-05
-4.92268e-06
1.28084e-05
-7.8857e-06
8.60437e-06
7.04084e-06
-1.59439e-05
5.0659e-06
1.08783e-05
0.000144173
-0.000266079
0.000121897
0.000122049
0.000247962
0.000176792
-0.000424749
0.000226721
3.16304e-06
-4.11937e-06
-0.000136125
-6.85412e-05
4.59061e-06
-7.09377e-06
-3.93269e-05
-0.000390533
9.77513e-06
1.36878e-05
-2.34624e-05
-4.79506e-06
2.314e-06
4.49444e-06
-4.49332e-06
-2.48556e-06
1.2036e-05
1.30636e-06
-1.33403e-05
-5.81017e-06
9.71539e-06
-3.90722e-06
3.35799e-06
8.67322e-06
-2.3053e-06
-3.13271e-06
-9.23026e-06
4.15272e-06
-5.1999e-06
3.85641e-06
1.33568e-06
1.29293e-05
-3.23945e-06
9.72203e-06
-2.04569e-05
1.07359e-05
-0.00010101
-0.000161326
0.000265074
-0.000128344
-0.000136736
-8.05919e-05
1.44896e-05
6.61013e-05
-5.32691e-05
5.06732e-05
2.59644e-06
-4.95661e-05
3.86471e-05
-4.82698e-06
2.0658e-06
2.76226e-06
-2.08506e-05
0.000130677
4.62205e-06
-1.50112e-05
3.74637e-06
-1.00564e-05
6.30815e-06
-3.9362e-05
2.08302e-06
1.08938e-05
-3.22315e-06
-7.67133e-06
3.78506e-06
-4.33425e-06
-1.37457e-05
-2.19802e-06
1.17138e-05
8.38314e-06
4.56949e-06
-6.59686e-06
2.02524e-06
1.60435e-06
7.19025e-06
-8.79474e-06
-1.19598e-06
-1.21764e-06
4.3808e-06
2.19119e-05
-3.68104e-05
1.48961e-05
-0.000110093
-7.0537e-06
8.65801e-06
6.17852e-06
-1.07488e-06
-5.10378e-06
0.00011563
-0.000139968
-2.97902e-07
1.59927e-06
-1.30144e-06
0.000204216
-0.000211281
7.06693e-06
2.10973e-06
7.90919e-06
-1.02083e-05
-4.61653e-06
1.15704e-05
-0.00026021
4.83814e-05
0.000211811
-1.1007e-05
-9.5856e-06
2.05952e-05
4.12845e-07
8.84762e-07
-0.000172644
2.18887e-05
0.000150756
2.59541e-05
-2.34766e-05
-2.48182e-06
2.46283e-05
-4.1092e-05
1.64634e-05
-0.000245237
0.000153582
-3.3608e-06
7.58419e-06
-1.12552e-05
3.6704e-06
0.000261635
-9.0543e-06
-4.85479e-05
-3.18601e-06
-1.64074e-06
1.36985e-05
-1.91418e-05
-1.6307e-05
3.54832e-05
3.03659e-06
7.78036e-06
1.52205e-05
-9.31411e-06
-5.90577e-06
2.69747e-06
7.14792e-07
0.000330871
-2.15565e-05
-0.000309274
-2.48003e-05
-4.25727e-07
3.16571e-06
-9.38448e-06
6.24281e-06
-5.17701e-06
-1.00402e-05
1.52172e-05
2.2922e-05
-1.3146e-05
1.93752e-05
8.37001e-06
-2.77558e-05
0.00014127
6.85948e-05
-0.000209865
4.51089e-06
1.66777e-06
2.76411e-06
5.96629e-06
6.92828e-06
-2.35965e-06
1.07821e-05
-2.45358e-06
1.36755e-05
-6.1236e-06
-1.38957e-05
7.85629e-06
6.03855e-06
-1.83304e-06
2.30943e-06
-8.93911e-05
5.01198e-05
3.9272e-05
2.38718e-05
1.60404e-06
-2.54756e-05
2.84546e-06
-4.54047e-06
0.000220652
-0.000134392
-8.62923e-05
-2.03129e-06
4.09901e-06
-2.06585e-06
2.20516e-05
-1.98047e-05
-2.23813e-06
-0.00014117
-0.000149723
0.000290891
3.13202e-06
1.45246e-05
-3.47609e-06
-4.55498e-06
8.03151e-06
-2.16873e-06
-7.04391e-07
-1.36972e-06
-3.60757e-06
0.000388337
-0.000524677
0.000136324
-0.000163589
0.000111263
-4.4456e-06
1.62669e-05
-1.18189e-05
8.73131e-07
-9.00196e-05
-8.61459e-05
0.000147849
-6.1691e-05
-2.94336e-06
3.41472e-06
-4.72152e-07
-3.3877e-05
5.57892e-05
-1.50953e-06
6.63217e-06
-5.12374e-06
-2.64391e-05
8.0737e-06
1.83375e-05
-6.73189e-06
1.55249e-05
-8.84094e-06
-5.05541e-06
-2.04276e-05
1.15029e-05
8.92687e-06
-6.61107e-06
-3.03872e-06
9.6495e-06
9.18192e-06
7.55329e-06
1.75141e-05
-7.21128e-05
7.32946e-05
1.58008e-05
-1.16355e-06
-1.46367e-05
-1.25331e-05
1.39207e-05
-1.38443e-06
8.32962e-05
0.000112486
-0.000195788
0.000224784
1.1245e-05
-3.66098e-06
6.23904e-06
5.00559e-06
3.19887e-05
-8.41481e-05
5.21458e-05
-9.72335e-06
1.25259e-05
-2.79685e-06
1.35533e-05
-9.44287e-06
-4.11019e-06
2.26177e-05
-1.58024e-05
-6.81821e-06
-7.79476e-06
-3.9999e-06
1.17948e-05
7.81315e-05
-7.81321e-05
9.2895e-05
-2.99425e-05
-6.29542e-05
-0.000255503
0.000128973
8.8848e-07
1.49122e-05
8.25453e-06
8.48024e-06
-1.25491e-05
-6.56825e-06
9.9626e-07
-3.94009e-06
2.49611e-05
-2.24135e-05
-2.54665e-06
-1.27659e-05
1.69368e-05
-4.17141e-06
5.12171e-05
-0.000177202
0.000125984
-1.86297e-06
2.46423e-06
-9.19094e-06
7.63664e-06
-1.55013e-05
-1.07654e-06
1.09522e-06
-1.96793e-08
-2.79634e-07
-7.76802e-06
-5.7023e-05
7.02887e-05
-1.32658e-05
-6.15335e-08
4.47912e-07
-8.18281e-06
-3.07254e-06
-0.000322138
3.39612e-05
-8.47051e-06
-2.78897e-05
2.58117e-05
2.07809e-06
1.6064e-05
1.43016e-05
-3.03719e-05
-5.8516e-06
1.25286e-05
1.20009e-05
-1.90647e-06
-1.00947e-05
-6.38405e-06
-4.03298e-06
1.04177e-05
-0.000181264
0.000218566
-3.72951e-05
3.31755e-05
-9.90209e-06
-2.32736e-05
3.36954e-05
-0.000293906
-9.97703e-05
0.00024396
1.53877e-06
-1.81609e-06
2.72474e-07
3.98156e-06
-1.18475e-05
0.000178368
1.10441e-05
-1.23507e-05
2.62978e-06
-1.59828e-05
7.76608e-06
8.21784e-06
1.73336e-06
2.18282e-06
-0.000232428
0.000204815
-2.83334e-06
-3.14942e-06
5.98312e-06
8.11532e-07
4.73329e-07
-1.28641e-06
-1.63149e-06
5.50455e-06
-3.87377e-06
3.1626e-05
-0.000117748
9.94521e-06
-7.17445e-06
-2.76956e-06
-5.86547e-08
2.75599e-06
-1.04123e-06
-4.12592e-06
-6.03825e-06
-9.37127e-06
-3.93534e-06
-1.81897e-05
-6.22376e-06
8.31963e-06
-2.09423e-06
-2.07923e-05
1.08887e-05
5.41083e-05
-3.30632e-05
-2.10436e-05
-4.45835e-06
6.06104e-06
-1.60333e-06
-0.00012453
0.000112703
6.41783e-06
2.67574e-05
6.1394e-05
0.000113898
-0.000175292
0.00011547
-2.72949e-05
-0.000217039
0.000225426
-1.97066e-05
8.69839e-06
7.45456e-06
-6.39147e-06
-1.06201e-06
1.66339e-06
-3.6939e-06
2.00847e-05
-3.57611e-05
1.56773e-05
-3.52713e-06
5.42626e-06
-1.89894e-06
3.22691e-05
3.72357e-05
0.000140456
2.33206e-05
-4.62552e-06
-3.51695e-06
8.14381e-06
-5.05397e-05
2.10073e-05
2.95278e-05
-0.000205251
0.000218734
-1.34777e-05
3.91945e-06
1.18869e-05
-1.5806e-05
7.72166e-06
-7.25377e-06
-4.65867e-07
0.00019098
-0.000304917
7.54586e-05
7.48297e-05
-0.000150279
6.67355e-06
-3.02167e-06
-3.65251e-06
-1.59293e-06
-2.97556e-07
1.89045e-06
0.000131794
1.25208e-05
-0.000144314
0.000250364
-0.000242913
-7.44915e-06
-1.21887e-05
-0.000160456
0.000122871
-6.16719e-05
-6.11988e-05
2.03532e-06
-6.67526e-06
6.29034e-06
4.1862e-06
-1.04769e-05
-9.3647e-07
-1.23729e-06
2.16911e-06
-1.93602e-06
-2.55958e-06
2.93944e-06
-3.79896e-07
-8.64929e-05
4.46373e-05
4.18551e-05
-6.56459e-05
0.000206914
7.84198e-06
-2.50495e-05
1.72079e-05
8.63798e-06
3.80462e-06
1.48645e-06
-5.30495e-06
-1.80051e-05
5.23882e-06
-1.20272e-05
2.46491e-05
-1.26194e-05
8.79523e-06
3.86214e-07
-9.18148e-06
2.23162e-06
-4.61919e-06
2.38689e-06
6.9575e-06
-4.22358e-06
-2.73355e-06
-1.73753e-05
1.73167e-05
6.13233e-08
9.66455e-06
-6.17899e-06
-3.48686e-06
1.27264e-06
4.26133e-06
5.82498e-05
0.000162391
-8.58249e-05
0.000161283
0.000103737
8.50963e-05
-0.000188831
2.0419e-06
8.85222e-06
-3.27373e-05
3.57162e-05
-2.5153e-06
2.0541e-06
4.60829e-07
4.02613e-06
9.04352e-06
-1.30703e-05
-9.19969e-06
-5.28991e-06
3.59644e-06
1.69241e-06
4.23096e-06
-1.02875e-05
6.05606e-06
9.29136e-06
-6.12192e-06
-3.87138e-06
1.10317e-06
-1.34858e-05
3.81139e-05
-8.7932e-06
4.16956e-06
-3.71955e-06
1.74198e-07
2.95861e-06
6.2005e-06
-9.15903e-06
-1.18689e-05
1.40673e-05
-2.19805e-06
4.00448e-06
-1.47005e-06
-2.53714e-06
-2.36237e-05
7.08262e-05
-4.72031e-05
-1.37611e-05
7.2732e-05
-5.89766e-05
6.78736e-06
6.02389e-06
-1.28094e-05
0.000189318
-0.000106023
-0.00023858
0.000486541
0.000279532
-0.000417506
8.42281e-06
3.57679e-06
1.00198e-05
-7.42072e-06
-2.59597e-06
0.000122531
-7.26117e-05
-3.55256e-05
0.000218857
-0.000183331
-4.70708e-06
1.14948e-05
1.85569e-06
-2.3247e-06
4.61775e-07
-0.000197834
0.000140675
5.71578e-05
5.34675e-06
-8.26022e-06
2.91282e-06
5.49945e-07
-1.48992e-06
-1.17062e-05
1.13789e-05
3.27949e-07
1.61083e-05
-1.12187e-05
-4.85268e-06
-1.9788e-05
-6.705e-06
1.48888e-06
9.78375e-06
-1.12716e-05
-1.01068e-06
9.80622e-06
-4.91234e-06
-2.28219e-05
2.77312e-05
0.000458576
-0.000127696
-7.17258e-06
1.03308e-05
-3.15867e-06
-2.28695e-05
8.24538e-06
1.46253e-05
-1.63617e-05
-1.51124e-05
-1.13109e-05
1.01478e-05
-7.11157e-06
-5.35665e-05
6.40139e-05
-2.21824e-05
3.13512e-06
1.90442e-05
-4.26092e-05
-1.31768e-05
-4.11677e-07
-6.19939e-06
-4.49465e-07
4.10774e-07
4.17871e-08
8.84779e-06
-1.21473e-05
3.29901e-06
5.01108e-05
-4.99288e-05
-1.71206e-07
-9.36191e-06
-2.71472e-05
3.65087e-05
3.91949e-06
-2.77051e-06
-1.15153e-06
-0.000321925
3.8182e-05
-2.76069e-06
-8.61206e-07
3.62346e-06
4.10639e-05
-1.05506e-05
-0.000138901
0.000200295
-1.5454e-05
1.44516e-05
1.90116e-05
-0.000110144
1.64815e-05
-1.20855e-05
-4.39565e-06
1.92305e-06
-8.30625e-06
6.40564e-06
1.3286e-05
5.36704e-06
-4.12794e-06
-1.23977e-06
5.44573e-05
-6.20505e-05
7.59334e-06
3.61948e-05
-4.2055e-05
5.86561e-06
6.55642e-06
0.000197659
-1.25046e-06
8.50202e-05
3.78471e-05
6.33963e-05
3.28943e-05
-9.62869e-05
4.55778e-06
8.09124e-07
1.98458e-05
-4.85135e-05
2.86737e-05
-1.19759e-05
1.09015e-05
1.07757e-06
2.64796e-06
-3.93373e-06
1.28558e-06
2.96828e-06
5.71308e-06
1.758e-05
-7.85739e-06
-9.23948e-06
2.06637e-06
4.14526e-06
6.25232e-06
-1.03852e-05
-2.49912e-06
5.30793e-06
-2.809e-06
8.27415e-06
-6.78641e-06
-4.91678e-06
6.18901e-06
-0.000358777
0.000471891
-0.000113077
9.94154e-07
-3.14848e-05
3.38527e-05
-2.36886e-06
0.000281048
-0.000170265
8.73772e-05
-0.000164037
7.66621e-05
-1.27327e-06
8.2485e-07
-8.98452e-06
-1.27101e-06
-7.03985e-07
-8.43739e-07
4.37216e-06
-9.86759e-06
-3.0645e-05
6.97217e-05
-3.90757e-05
-5.61953e-06
1.03952e-05
-1.88825e-05
1.19756e-05
6.90734e-06
3.03598e-06
-3.88163e-07
5.755e-06
7.0535e-06
-1.24217e-05
1.16989e-05
7.22011e-07
-0.000313204
0.000409395
-9.62022e-05
-6.22579e-05
5.97438e-05
6.72928e-06
-0.000320014
0.000313277
-4.01412e-06
-6.65079e-06
1.06655e-05
3.5537e-06
6.46684e-06
-8.54438e-06
-4.31057e-05
-7.89471e-06
1.14347e-05
-1.08006e-05
-6.38517e-07
1.82658e-05
-1.03368e-05
-7.92936e-06
-1.47118e-05
5.00734e-06
9.72617e-06
4.3969e-06
-2.16694e-06
-3.11958e-05
3.50156e-05
-0.0001687
0.000133175
-7.01557e-05
-1.63382e-05
4.1743e-06
5.46616e-05
-2.26748e-05
-1.13748e-05
5.38865e-06
5.98615e-06
2.66618e-06
-1.92052e-06
-7.46697e-07
-1.0402e-06
-2.30703e-07
1.26747e-06
1.06434e-05
-5.40858e-06
-5.2351e-06
-2.27971e-05
2.2795e-05
0.000203418
-0.000388871
0.000185451
-4.62266e-05
4.62348e-05
-1.90909e-05
2.95683e-05
-1.0476e-05
-0.000191763
0.000250191
-5.84139e-05
5.83304e-06
-9.04916e-06
3.21746e-06
5.51686e-07
2.61608e-06
-1.52092e-06
-1.31286e-06
-4.55113e-06
0.000264629
-7.36496e-05
1.30236e-06
-3.49149e-06
2.18626e-06
1.11255e-05
-2.86715e-06
-8.25883e-06
9.60186e-05
-8.92178e-07
-9.51241e-05
1.07694e-05
4.78579e-07
0.000157543
-0.000307268
-8.1939e-05
1.67996e-05
-1.28806e-05
3.2547e-06
-4.61741e-07
-2.79226e-06
6.69491e-05
-0.000121761
6.03226e-06
-8.63139e-06
2.5988e-06
9.64107e-06
-8.06742e-06
-1.57326e-06
0.000242323
-0.000361267
-0.000353614
0.000314289
2.4584e-05
-1.44026e-05
-1.00676e-05
0.000117109
0.000147967
8.74034e-06
-2.90679e-06
-6.6118e-07
-1.67122e-05
1.93057e-05
5.85035e-06
-6.88656e-06
1.03533e-06
2.72426e-07
1.11591e-05
5.09456e-05
-6.11955e-05
1.02477e-05
4.75673e-06
1.17249e-05
1.09447e-08
5.00606e-06
0.0001022
-3.88036e-05
9.98732e-05
-8.50085e-05
-3.51678e-05
0.000270824
-0.000235658
2.95162e-05
-3.88785e-05
-1.05522e-05
1.35106e-05
-7.78216e-06
3.00684e-05
-2.22901e-05
0.000247014
7.0234e-06
-0.000254033
1.15526e-05
1.3418e-05
1.35071e-05
-1.37319e-05
2.26343e-07
0.000290646
-0.000188939
-0.000101709
9.75389e-06
4.11953e-05
-2.00926e-06
-2.12487e-05
2.32614e-05
-1.08093e-06
1.08074e-06
-7.46678e-07
2.75618e-05
-1.17154e-05
2.77788e-05
3.72175e-06
2.51138e-05
-0.000223459
0.000198345
9.1081e-05
-4.74476e-05
-1.01865e-05
-1.48317e-05
2.02421e-05
-5.08139e-06
3.19498e-06
-1.46152e-05
1.14188e-05
0.000101784
-0.000249768
0.000147987
-1.14002e-06
1.60021e-05
4.70798e-05
-2.69941e-05
1.05897e-05
-8.04388e-06
-2.54094e-06
3.91302e-05
3.61477e-05
-7.52748e-05
-3.82174e-06
1.63799e-05
-3.69125e-06
2.45562e-07
3.44566e-06
-2.11696e-06
-1.04175e-05
6.55232e-06
-1.1168e-05
2.01776e-06
1.98366e-06
0.000387368
-0.000140343
-9.30366e-06
-9.57862e-06
-5.37242e-05
0.000174978
-0.00012126
-1.63631e-05
-6.42293e-05
-4.15277e-05
6.13727e-05
-8.4766e-06
-5.40162e-06
1.38774e-05
1.71292e-06
-5.24005e-06
3.55435e-06
7.24617e-05
-7.60243e-05
3.8029e-07
3.53852e-06
3.86734e-07
5.54911e-06
-5.93893e-06
3.73841e-05
-4.32229e-06
2.71109e-05
5.10189e-05
7.66764e-06
0.00024269
-4.19326e-05
2.08536e-05
2.10529e-05
6.16018e-06
-1.39549e-05
2.81994e-06
-9.60923e-07
-1.85833e-06
-1.32221e-06
0.000193121
-0.000191802
0.00012854
0.000145591
-1.10217e-05
9.07548e-06
1.94675e-06
-0.000417876
0.000104655
7.20648e-05
-3.88543e-05
-3.32105e-05
-0.000105037
0.000208775
-3.28505e-07
-5.13584e-06
-1.70483e-05
2.18571e-05
-1.40151e-05
1.40957e-05
-1.0901e-05
-3.21651e-06
8.00867e-06
-4.79519e-06
-3.84407e-06
-7.5306e-06
-1.24254e-05
5.2044e-06
7.22205e-06
6.97652e-05
-5.91561e-05
-0.000165832
0.000122803
4.30298e-05
-8.65555e-06
-1.17713e-05
3.16981e-06
-5.91873e-06
-1.14339e-05
1.73526e-05
5.69329e-06
4.94993e-06
4.94498e-06
-4.52155e-06
-4.22822e-07
4.10396e-05
-3.23164e-05
-8.72694e-06
-0.000164063
0.00029261
1.41607e-05
-1.23229e-06
-1.29278e-05
-1.50279e-05
3.77756e-06
1.12514e-05
8.35157e-06
-1.27977e-05
-7.94837e-06
3.31242e-05
-2.51755e-05
4.58283e-05
-0.00010749
-6.15692e-06
9.90176e-06
7.04419e-06
4.71093e-06
-1.17674e-05
2.71627e-06
-3.79993e-06
-0.000229552
-2.53025e-05
0.000254958
-1.34063e-05
6.9515e-06
0.000253243
-0.000151457
-0.00025844
1.73831e-05
2.07777e-06
-7.72998e-05
7.81739e-05
-3.88375e-06
1.36526e-06
1.21426e-05
1.4295e-05
2.18663e-06
-5.97332e-06
3.78677e-06
-0.000112831
0.000111933
8.97651e-07
-8.39522e-05
1.55702e-05
3.05773e-05
-4.61486e-05
8.86153e-09
1.08228e-05
-0.000174918
-0.00014968
0.000324596
9.35065e-06
-2.61654e-08
-9.32504e-06
5.84184e-06
1.52037e-06
-7.36379e-06
-5.6548e-06
2.82158e-06
-0.000206864
2.56011e-05
6.01707e-05
-7.21718e-05
1.19966e-05
-3.71066e-05
-9.03266e-06
5.01923e-06
-5.29497e-06
-9.73287e-06
-8.97622e-06
5.75258e-06
-5.81938e-06
4.13675e-06
1.68107e-06
-0.000160377
0.000198743
-3.83716e-05
-0.000314116
0.000172502
0.000141611
-2.21518e-05
2.00591e-07
2.19515e-05
2.33905e-05
6.76933e-05
4.69295e-06
-2.89155e-06
1.22419e-05
6.08742e-05
-6.67311e-05
2.2462e-05
-1.65575e-05
-5.91872e-06
7.83599e-05
0.0001226
-0.000200964
8.33989e-05
-7.15695e-05
-1.18411e-05
6.65891e-06
8.56083e-06
5.27425e-05
-9.74568e-06
-4.39413e-05
6.27028e-05
-1.87635e-05
-1.17781e-05
-1.29669e-06
5.54847e-07
1.27901e-07
-1.00981e-05
-2.24841e-06
-6.34055e-06
-6.08359e-06
1.50587e-05
0.000437716
-0.000452751
7.65027e-06
8.48149e-07
-8.5002e-06
-7.24877e-06
4.84948e-06
2.39925e-06
-1.51888e-05
-0.000136975
0.000152166
1.84164e-05
-1.00938e-05
-8.32465e-06
-1.01902e-05
-6.66345e-06
1.68554e-05
2.02822e-06
9.86646e-07
6.79632e-06
3.74385e-06
-6.5292e-06
2.78516e-06
-1.27397e-05
8.60039e-06
4.13797e-06
9.34839e-06
-8.89106e-06
-4.57135e-07
5.00542e-05
-3.59418e-05
-1.96154e-06
3.48459e-06
-1.52162e-06
-6.23374e-06
1.05731e-05
4.29173e-05
-6.71986e-06
8.59754e-07
-3.49756e-07
5.97202e-06
6.34556e-06
-1.23174e-05
-1.76668e-05
1.3191e-05
4.47598e-06
1.93729e-05
7.02076e-06
9.34245e-06
-8.39266e-05
-0.000113902
5.53672e-06
-7.04782e-06
2.66348e-05
-3.15534e-05
-2.42542e-05
8.67294e-05
-6.24752e-05
3.3595e-06
-9.45058e-05
9.11425e-05
-1.36442e-06
6.24946e-06
-8.30079e-06
8.59895e-06
-2.98755e-07
8.13628e-06
-3.69099e-06
-4.44758e-06
2.78768e-05
-1.94449e-05
-8.4313e-06
1.74354e-06
1.18098e-05
7.92247e-05
-3.93202e-05
-3.9884e-05
4.96724e-07
1.05037e-06
1.7225e-05
3.55073e-06
-2.07747e-05
2.7081e-06
-2.46401e-06
-2.46473e-07
1.67833e-07
9.47401e-06
1.3785e-05
-3.89801e-05
-4.52871e-05
-0.000332481
0.000377794
1.46373e-06
5.16782e-06
0.000265817
-0.000114425
-0.000151394
-4.69726e-05
0.000112204
-6.52323e-05
1.82759e-05
8.44945e-06
1.12875e-05
-1.4465e-05
3.17919e-06
2.41123e-06
1.67505e-06
-7.09615e-05
6.191e-06
-2.05044e-05
0.000159713
-7.23338e-05
-4.73461e-06
8.42072e-06
-3.6869e-06
4.2173e-06
-7.75655e-06
3.53585e-06
8.10654e-06
-2.52212e-06
-5.58438e-06
5.80004e-06
-2.05633e-06
-9.9955e-06
-4.44394e-06
-7.07197e-05
-1.60196e-05
-6.88781e-05
-0.000363927
0.000318628
-0.00011183
8.58235e-05
2.60072e-05
1.3697e-05
-3.19172e-06
4.29593e-05
-0.000138997
9.60374e-05
-4.93266e-06
6.39566e-06
-4.27905e-06