/*--------------------------------*- C++ -*----------------------------------*\
| =========                 |                                                 |
| \\      /  F ield         | OpenFOAM: The Open Source CFD Toolbox           |
|  \\    /   O peration     | Version:  v2012                                 |
|   \\  /    A nd           | Website:  www.openfoam.com                      |
|    \\/     M anipulation  |                                                 |
\*---------------------------------------------------------------------------*/
FoamFile
{
    version     2.0;
    format      ascii;
    class       volScalarField;
    location    "400";
    object      k_0;
}
// * * * * * * * * * * * * * * * * * * * * * * * * * * * * * * * * * * * * * //

dimensions      [0 2 -2 0 0 0 0];


internalField   nonuniform List<scalar> 
27802
(
0.000150812
0.00014994
0.000151251
0.000161918
0.000147324
0.00124141
0.000147317
0.000185979
0.000146493
0.000289168
0.0591837
0.000249467
0.000160885
0.000175046
0.0824768
0.0072657
0.0591205
0.000146563
0.0610287
0.0236018
0.0829624
0.0830476
0.000145529
0.000189922
0.000219265
0.000160917
0.000147069
0.000168488
0.000147065
0.00362162
0.000189931
0.000174749
0.000150634
0.000144281
0.000149246
0.00667307
0.0116827
0.000145918
0.000147411
0.00611915
0.000237899
0.000149305
0.00015861
0.000144151
0.000158629
0.0246882
0.000148259
0.0119372
0.00048637
0.0426761
0.0785325
0.000161153
0.0297488
0.000426091
0.000147167
0.00014896
0.000214838
0.000147836
0.00015684
0.000187783
0.0174936
0.000151185
0.000158563
0.000144767
0.000144252
0.000148645
0.0293359
0.000214806
0.000187881
0.000148276
0.000144098
0.0623621
0.0724173
0.000207778
0.000152638
0.000154094
0.0283275
0.0126834
0.0210791
0.00871078
0.00014781
0.000146807
0.000165072
0.000151495
0.000148657
0.000165881
0.000149594
0.0439314
0.0191583
0.000148314
0.000147668
0.0184887
0.000146275
0.00397404
0.0698871
0.000171008
0.000146789
0.000170013
0.000148083
0.00345647
0.000147447
0.000146169
0.000506081
0.0148587
0.0721661
0.000158897
0.000148153
0.00014422
0.000147022
0.000158323
0.00616258
0.000147705
0.000144312
0.00014808
0.000148196
0.000144726
0.00015762
0.000191098
0.0376008
0.000215279
0.0217955
0.000186751
0.0428328
0.000191205
0.0584984
0.000177952
0.000150187
0.000155814
0.0624672
0.000144439
0.000193076
0.000173531
0.000149253
0.0125609
0.0121208
0.000152997
0.00016738
0.000176482
0.000148035
0.00014917
0.000173356
0.000327515
0.000158821
0.000161862
0.000145925
0.0311484
0.000158171
0.000169144
0.000148081
0.0013965
0.000161809
0.00335709
0.000158579
0.051278
0.000149713
0.00962315
0.000152593
0.000171483
0.000144509
0.000149014
0.00014473
0.000148613
0.0907183
0.000146093
0.000149586
0.000149762
0.0714408
0.000147116
0.000149091
0.000150069
0.000174207
0.0257862
0.061626
0.0157131
0.000147077
0.00021672
0.0113781
0.0537841
0.0001447
0.000148125
0.000238894
0.0468519
0.0196706
0.0521526
0.0001446
0.000188469
0.0716901
0.00070544
0.000207216
0.000519537
0.0850108
0.000149942
0.000150763
0.000259351
0.000146919
0.0045108
0.00597822
0.0764468
0.000268019
0.0462293
0.000173294
0.000149062
0.000150316
0.000157656
0.0858469
0.000177954
0.000147125
0.000146615
0.00365784
0.000146985
0.000148033
0.0476933
0.000161929
0.0317904
0.000144401
0.000147029
0.000192062
0.000149611
0.000147675
0.000149903
0.0703542
0.000147298
0.000148268
0.000223074
0.000148952
0.000221063
0.000150073
0.000169616
0.000143916
0.000148891
0.000148078
0.000162411
0.000213498
0.000149278
0.000149953
0.0187532
0.000167601
0.000168961
0.000150131
0.000498172
0.0208194
0.0466285
0.0463636
0.0573324
0.0754381
0.000152134
0.000147268
0.0156006
0.000144568
0.000148985
0.000205948
0.000147339
0.000205373
0.000149832
0.0415856
0.0586642
0.000157194
0.000181724
0.000148509
0.000152708
0.000147205
0.023973
0.0405515
0.000205784
0.00014831
0.000147315
0.000149454
0.00019733
0.059079
0.000173933
0.0122455
0.000158332
0.0724826
0.000146052
0.000147322
0.000149244
0.000172905
0.00014851
0.00014726
0.0577002
0.000149629
0.000167126
0.000248051
0.000207726
0.0665069
0.000155635
0.0470286
0.000146068
0.000189267
0.0474024
0.000250967
0.0170939
0.0257388
0.000157121
0.000143858
0.00014858
0.000149749
0.00684409
0.00348742
0.000186702
0.0232086
0.000164801
0.0444515
0.000677074
0.0454919
0.000148544
0.000194139
0.000148252
0.0467042
0.000146453
0.041775
0.00020162
0.0354454
0.000147811
0.034268
0.0706097
0.000183526
0.000146892
0.0001682
0.0300123
0.000146437
0.000152179
0.000199943
0.0444395
0.0204913
0.000146306
0.000164613
0.000168206
0.0436888
0.000147156
0.0505659
0.000146171
0.000149023
0.000201095
0.000247746
0.000149989
0.000147747
0.000148283
0.000200628
0.000154186
0.000147637
0.000267872
0.00014766
0.000237148
0.0174647
0.00716797
0.000153397
0.000147043
0.000152094
0.000146558
0.000188175
0.000186653
0.000146699
0.000181934
0.000148657
0.000146876
0.000150222
0.000147747
0.0244765
0.0001459
0.000221013
0.000400457
0.0774486
0.000144048
0.000147787
0.00014791
0.0504339
0.000146084
0.000208115
0.000143771
0.000213518
0.000180183
0.010188
0.000152066
0.000149936
0.000148466
0.000173235
0.000147766
0.000209614
0.000152901
0.000157933
0.000149071
0.000148313
0.000149902
0.000148057
0.00833127
0.000174284
0.000189542
0.0335778
0.000260111
0.000147656
0.000804832
0.000148585
0.00014781
0.000168416
0.000151492
0.000149055
0.0505862
0.000671347
0.029867
0.000182393
0.0812377
0.000148303
0.00014854
0.000206304
0.0375949
0.000148517
0.000154349
0.000193066
0.000155247
0.000147164
0.000159891
0.0229226
0.0716375
0.0187975
0.0195448
0.000147228
0.0894308
0.000146167
0.00027622
0.000160099
0.0202419
0.000149952
0.000147313
0.00015579
0.000151925
0.000161568
0.000147673
0.000147695
0.000167574
0.000148018
0.000148605
0.000218534
0.0325261
0.000179949
0.034636
0.0001862
0.000171997
0.000205404
0.00014775
0.000159713
0.0259024
0.000153364
0.000147792
0.000160358
0.000155454
0.00016392
0.00015055
0.000148067
0.000147255
0.0248133
0.0428806
0.000150529
0.000146895
0.0785949
0.000149047
0.0297432
0.000149006
0.000148666
0.000153249
0.000386063
0.000148354
0.000143724
0.0624806
0.000148168
0.000176134
0.0347118
0.000174615
0.000147901
0.0236109
0.000240837
0.000172254
0.0246653
0.000687551
0.000151371
0.000162375
0.000144698
0.00103508
0.000148548
0.000172682
0.000147728
0.000159385
0.00686473
0.0587522
0.000146943
0.000148097
0.000164395
0.000149488
0.000148429
0.000147244
0.00014592
0.000191422
0.00016391
0.00059025
0.00566283
0.000145523
0.000174797
0.0349793
0.000154677
0.000150978
0.000144062
0.000149622
0.0313673
0.000220969
0.000164325
0.032322
0.0522053
0.000147868
0.029249
0.000145799
0.00029943
0.000160569
0.000147209
0.000152613
0.000147375
0.000155745
0.00373399
0.0280665
0.000154875
0.0260857
0.0569669
0.000207495
0.000147885
0.00014791
0.0167788
0.000164964
0.00014973
0.000171521
0.00015839
0.00825281
0.000186814
0.0464774
0.000154733
0.000148547
0.000626386
0.000147904
0.000148164
0.000152065
0.0438279
0.000146774
0.0371422
0.00015281
0.000272954
0.000176037
0.0212494
0.000144403
0.000147867
0.0322758
0.000177978
0.00014826
0.000175197
0.000151432
0.000147653
0.000146768
0.0312138
0.000175586
0.000362853
0.0180476
0.000278907
0.000147064
0.0609024
0.00016466
0.00014782
0.000173339
0.0230218
0.000147795
0.00014873
0.000146926
0.0539341
0.000147795
0.000144686
0.000145572
0.000148282
0.000209249
0.000147579
0.0164242
0.000171566
0.000147653
0.000190492
0.000176023
0.0370335
0.0434543
0.0194768
0.000148252
0.000145413
0.000145704
0.0776253
0.000145948
0.0422603
0.0003929
0.000166793
0.0224982
0.0163218
0.000149273
0.000148057
0.0267031
0.000195329
0.000146473
0.000149216
0.077414
0.00020696
0.0658815
0.0322397
0.000266889
0.000152048
0.000253959
0.00313864
0.000147791
0.0779048
0.0593357
0.000176116
0.000582828
0.0649512
0.00015214
0.000172464
0.000147208
0.000166922
0.000146526
0.000159391
0.000159076
0.000168204
0.0203892
0.000194941
0.0383548
0.000152958
0.018763
0.000149766
0.000151005
0.000159416
0.000170778
0.000147929
0.000171899
0.000149853
0.000176102
0.00016602
0.000147062
0.000147981
0.000163377
0.000172515
0.000179967
0.000281599
0.000153973
0.0543864
0.0144193
0.000670969
0.000147649
0.0001625
0.000257568
0.0390964
0.000153911
0.000146819
0.000273316
0.000197134
0.000147719
0.00027689
0.000149766
0.000336072
0.000267801
0.00014974
0.000147203
0.000195569
0.000342658
0.000153695
0.000159623
0.0135562
0.000149815
0.000151116
0.0205847
0.00015072
0.000184115
0.000147374
0.000145526
0.000147163
0.0241279
0.00016593
0.000149002
0.0177174
0.000147008
0.000160429
0.0399185
0.000149354
0.0404989
0.000168794
0.000146779
0.000150736
0.000145425
0.0138843
0.0387842
0.0313926
0.000148479
0.0327621
0.0374826
0.000145431
0.0743616
0.000164478
0.000149801
0.000146129
0.000148546
0.000153767
0.00906361
0.000146554
0.000149807
0.000167634
0.0229273
0.000149005
0.0159076
0.0432769
0.0779709
0.00014552
0.000152375
0.00014985
0.000151725
0.000189606
0.000147306
0.00015114
0.000149835
0.000155239
0.000154259
0.0435408
0.000228094
0.000527051
0.000157851
0.000162623
0.00017007
0.000147742
0.000146301
0.000147743
0.000184398
0.000167139
0.0524327
0.036048
0.0739804
0.000146512
0.0134325
0.000146917
0.000149021
0.000486947
0.000147378
0.00498613
0.0141597
0.00803655
0.0106594
0.0142557
0.000147821
0.000164597
0.000263467
0.000165436
0.0240415
0.000173661
0.000146351
0.0413985
0.000148071
0.0372521
0.0251302
0.000149188
0.000145149
0.0412095
0.000146216
0.000149491
0.0196467
0.00025234
0.00677738
0.0401955
0.000147815
0.00015946
0.000150454
0.000164013
0.000146279
0.0217833
0.000169216
0.00014767
0.0345876
0.0384899
0.000209596
0.000166395
0.000148004
0.000148223
0.00204087
0.000166709
0.000152996
0.000210601
0.0248833
0.000179738
0.00014995
0.000148236
0.000174681
0.000147715
0.0636991
0.000199407
0.000790582
0.00015105
0.000496845
0.000147767
0.0541294
0.000164234
0.0742917
0.00016281
0.0340985
0.000151001
0.000163015
0.019418
0.000152941
0.000172547
0.000544839
0.000151096
0.000195949
0.000180914
0.0695766
0.000156129
0.000145983
0.0364063
0.000148959
0.000148566
0.000186991
0.00872601
0.000205536
0.007725
0.000158463
0.000148965
0.033183
0.000291156
0.00014942
0.0450154
0.000184525
0.0416086
0.00014673
0.000150777
0.000175245
0.000147745
0.00016367
0.000146885
0.000160233
0.0262135
0.0836488
0.000152612
0.000162858
0.000412999
0.00014912
0.000147387
0.00014725
0.000183516
0.000362699
0.000149766
0.000148013
0.000164457
0.00016915
0.0783845
0.000160145
0.000178236
0.00026432
0.0422409
0.000149001
0.0525589
0.0179972
0.000161809
0.0364446
0.000147701
0.00015271
0.000578921
0.000146925
0.0736571
0.00164309
0.0314279
0.000157208
0.0209067
0.000155672
0.0693369
0.000147836
0.0346035
0.000177783
0.0138909
0.000157833
0.000148061
0.000153463
0.000146965
0.0142776
0.000213895
0.0001758
0.000198319
0.000182244
0.000155429
0.000476675
0.000182052
0.000206074
0.000268176
0.000162202
0.000186841
0.012702
0.000148064
0.000149679
0.000165015
0.000160334
0.0186496
0.000160624
0.000145936
0.000216433
0.000148119
0.000150741
0.000148638
0.000149544
0.000149673
0.000151726
0.000149589
0.000170617
0.000147059
0.000158577
0.0428899
0.0004813
0.000148648
0.000148086
0.00610295
0.000148511
0.000196985
0.000145844
0.000198027
0.000182639
0.0369456
0.000167619
0.000147784
0.000149302
0.000162851
0.00017584
0.00014981
0.000237071
0.000149899
0.000173225
0.000149013
0.00014942
0.0221069
0.00244832
0.00014578
0.000305476
0.000217476
0.000174154
0.000156679
0.000147537
0.0162382
0.00015193
0.0807869
0.000151306
0.000163615
0.000148222
0.00014971
0.000149546
0.0335217
0.0830362
0.00151967
0.0214708
0.012161
0.035263
0.000145734
0.000147734
0.000202748
0.0235576
0.0159575
0.000170846
0.00014988
0.000145579
0.026782
0.000176961
0.046082
0.000147769
0.0336193
0.000159899
0.000178628
0.000146884
0.000175703
0.000164002
0.000145416
0.000146646
0.000164919
0.000163081
0.000147766
0.000152136
0.000196787
0.000175246
0.0001473
0.000197978
0.0119376
0.0373421
0.000179237
0.0506603
0.0215181
0.000156729
0.000148075
0.000227054
0.000169522
0.000149609
0.0239935
0.0290208
0.000527263
0.00028742
0.000209535
0.000233304
0.000148132
0.020908
0.0496914
0.000168048
0.000158629
0.000145891
0.000148756
0.000213328
0.000152655
0.000149438
0.000148966
0.000172086
0.0001484
0.000146379
0.000148709
0.000151126
0.0188962
0.000152062
0.0130349
0.000150323
0.0120075
0.000186158
0.000147277
0.000180586
0.000146608
0.000286608
0.0241561
0.000196028
0.0334462
0.000208899
0.000145822
0.00015721
0.000144406
0.000158502
0.0100018
0.010911
0.0818184
0.000149812
0.000145575
0.000151708
0.000306852
0.000148253
0.000149023
0.00016857
0.000150092
0.000169563
0.000169961
0.000146524
0.000145482
0.000147707
0.000529677
0.00014997
0.00014813
0.000172696
0.000499391
0.000147776
0.000145899
0.0525739
0.000148116
0.000146281
0.00029038
0.000157581
0.000147477
0.000149845
0.000188319
0.000149661
0.000148653
0.000147782
0.00014877
0.0561064
0.0217421
0.000147857
0.0727611
0.000147865
0.0401248
0.0408622
0.000149281
0.0585535
0.00999078
0.000157508
0.000147149
0.000146085
0.0342407
0.000192096
0.0793587
0.00158102
0.0001498
0.000202
0.00014854
0.000431489
0.000161375
0.0137946
0.000149951
0.000353623
0.0782782
0.000201916
0.000148583
0.0305137
0.000284406
0.000148534
0.000178126
0.000146819
0.00014904
0.000148601
0.000148067
0.000156126
0.0261544
0.0230524
0.000147832
0.000148249
0.00859271
0.000152017
0.000152651
0.000147968
0.00014876
0.0755779
0.000147188
0.000147925
0.000157507
0.0772892
0.000155633
0.000147666
0.0382932
0.000146985
0.000151296
0.000182367
0.000151975
0.000151348
0.0641985
0.000169512
0.03169
0.000158713
0.000156474
0.000149224
0.000164153
0.0208169
0.00016746
0.000487304
0.0309935
0.0328754
0.000185269
0.000147782
0.000149929
0.000147675
0.0293192
0.0599861
0.000150911
0.000207048
0.000145273
0.0807198
0.000148247
0.000147888
0.0422006
0.000168068
0.0145108
0.00014691
0.0456866
0.0508607
0.0001478
0.000217911
0.000149824
0.000169676
0.000144102
0.000151959
0.000164443
0.000171009
0.000147267
0.000162421
0.0203493
0.000145525
0.0794578
0.000151707
0.000156552
0.000243999
0.000150853
0.0722126
0.00015185
0.00014685
0.000220166
0.00015138
0.000148906
0.000218636
0.000147143
0.000145761
0.0168738
0.000147215
0.000145615
0.000159653
0.0434978
0.0001451
0.000149834
0.000146063
0.000149229
0.000148721
0.000169374
0.077104
0.000209531
0.000179398
0.000147076
0.000145879
0.0248408
0.0419269
0.0758872
0.000146158
0.00953134
0.000192248
0.00868045
0.000187787
0.0468807
0.000162258
0.000250432
0.000225744
0.000185499
0.000145699
0.000150307
0.00017278
0.000145076
0.000171011
0.000156955
0.0238683
0.00800562
0.000158702
0.000164071
0.000148796
0.00729802
0.0757289
0.000207253
0.00017188
0.000187224
0.000148589
0.000150752
0.0331482
0.0327161
0.000164046
0.000151613
0.000145894
0.000148637
0.000158153
0.000145506
0.000163514
0.000148012
0.000149652
0.0171958
0.021291
0.000148976
0.0348557
0.000149538
0.000151218
0.0197509
0.000161009
0.000147009
0.000148045
0.0198871
0.00014695
0.000150204
0.000146102
0.074166
0.000193086
0.0763267
0.0829156
0.0178551
0.000178271
0.000147903
0.000149205
0.0518663
0.00861248
0.0230323
0.000198555
0.00014899
0.0234468
0.000182159
0.000242173
0.000150848
0.000162392
0.000148029
0.00485026
0.0422917
0.0805348
0.000276713
0.000145373
0.000165975
0.0177834
0.0477621
0.000148021
0.000163544
0.00158071
0.000190335
0.000195577
0.000636581
0.000148046
0.000209943
0.0163242
0.0171413
0.000195685
0.000144138
0.0131294
0.000484527
0.0117713
0.000169728
0.000148613
0.0519904
0.00015558
0.00014822
0.000149546
0.0243826
0.000161865
0.000149435
0.000149072
0.000196388
0.000215823
0.000157493
0.00016119
0.056899
0.0001473
0.000147348
0.00018428
0.000152837
0.000147684
0.000147677
0.00014792
0.000148733
0.00721787
0.0342751
0.000162833
0.000311371
0.000161623
0.000287638
0.00014741
0.000502817
0.00014725
0.073183
0.0220416
0.000145688
0.0277456
0.0182946
0.000148544
0.000172211
0.0810262
0.0196513
0.000149761
0.0207393
0.015723
0.0530297
0.000148063
0.000149015
0.0200332
0.000358914
0.000188261
0.0409734
0.000191635
0.0425846
0.000148219
0.000152119
0.0215018
0.000149077
0.000145726
0.000149557
0.000482491
0.000148063
0.000923052
0.000174291
0.000148062
0.000148069
0.000149029
0.000178754
0.0751284
0.000161031
0.00014854
0.000148886
0.00838297
0.000168084
0.0501616
0.000417851
0.0371292
0.000173803
0.000172041
0.000173379
0.000257307
0.000179358
0.048434
0.000164587
0.000147153
0.000154378
0.000221276
0.000159043
0.000149647
0.00019973
0.000184157
0.000147227
0.000240287
0.000163677
0.000149391
0.000152395
0.000150494
0.000181883
0.000148089
0.000147447
0.000145233
0.000286239
0.0239822
0.0228299
0.0412084
0.0558507
0.000145918
0.0771003
0.000147947
0.000148521
0.000148058
0.0799184
0.000146419
0.000151256
0.000148068
0.000149171
0.00014741
0.000147957
0.000205859
0.017876
0.000153696
0.000146981
0.0503899
0.000154752
0.00020743
0.000146438
0.0247543
0.000149911
0.000148614
0.0827312
0.000158588
0.000148231
0.0813798
0.0724827
0.000201152
0.00014993
0.000159027
0.000172792
0.000234686
0.000147755
0.000149085
0.0280376
0.0633414
0.0243524
0.000148664
0.000148133
0.0824702
0.0228374
0.000220332
0.000148085
0.0335034
0.000196951
0.000148049
0.000149233
0.000148058
0.0659135
0.000182089
0.0275435
0.0211464
0.000147703
0.000146553
0.0589974
0.0512566
0.000192962
0.000145904
0.0731411
0.0131586
0.000150155
0.000148274
0.000206373
0.000309929
0.000150499
0.000148216
0.0297505
0.000147959
0.000146741
0.000148059
0.000249644
0.0755225
0.000147396
0.000147415
0.0313841
0.000147243
0.000148144
0.000240377
0.0304017
0.0322668
0.0737667
0.000149678
0.000147704
0.000151513
0.000204887
0.000183905
0.000210951
0.0457353
0.000151376
0.00014898
0.0567275
0.000148103
0.000155395
0.0123691
0.000146764
0.000147838
0.0163044
0.000242687
0.000148697
0.0155385
0.000149773
0.000149825
0.00015376
0.0293243
0.000147687
0.000149608
0.000144137
0.000161145
0.000217019
0.000218393
0.00017045
0.000149809
0.000151184
0.000148671
0.000552382
0.0417187
0.000146138
0.0011589
0.000164945
0.000158559
0.000191735
0.000149638
0.000198408
0.000463555
0.000145672
0.000315671
0.000147854
0.000149547
0.00015251
0.000147701
0.000144243
0.000205999
0.000149955
0.0185762
0.000182896
0.000147641
0.00014754
0.000586665
0.000148692
0.000148069
0.00014393
0.000149898
0.000183897
0.000151473
0.000221001
0.000267781
0.000145687
0.000157347
0.0571575
0.000171134
0.040005
0.0127853
0.000147497
0.0333682
0.0703016
0.000143995
0.0171417
0.000148002
0.0793563
0.0544051
0.000166507
0.0069777
0.0309742
0.000152453
0.000149295
0.0279321
0.000149026
0.000174074
0.0728455
0.0644352
0.00016328
0.000146996
0.000207282
0.000173656
0.000148639
0.000149159
0.0001492
0.000166728
0.000176619
0.0360502
0.00019309
0.000146915
0.00860496
0.000150164
0.033633
0.000214846
0.0210389
0.000146671
0.0455411
0.000147066
0.000173925
0.0202198
0.0471666
0.000209976
0.0453809
0.000197471
0.000143875
0.000148998
0.000146589
0.00891322
0.0362556
0.000180297
0.000149027
0.000148103
0.000150868
0.000155052
0.000312667
0.000149586
0.000548676
0.000177963
0.000214364
0.0476035
0.000173622
0.000449578
0.0368062
0.000147135
0.0211145
0.000167795
0.000177389
0.0357367
0.000158913
0.000161299
0.000172038
0.000148433
0.0473375
0.000148228
0.00153065
0.0252081
0.000147115
0.000249437
0.000149451
0.000147223
0.000147944
0.000277524
0.000147758
0.0740023
0.00014689
0.00014706
0.000172059
0.000213208
0.000149795
0.000320801
0.000149958
0.000295765
0.00014385
0.000149915
0.000265131
0.0823905
0.000435036
0.000149078
0.000143518
0.000150461
0.0394181
0.0181719
0.000147828
0.000152075
0.000183352
0.000158949
0.0144012
0.000149603
0.000152408
0.000148052
0.000165926
0.0415548
0.00019679
0.0630618
0.000146897
0.000149736
0.000147248
0.000148484
0.00017451
0.000181647
0.000148479
0.000151322
0.00641636
0.000151811
0.000436005
0.000951949
0.000150203
0.000148704
0.0509096
0.0142736
0.000149005
0.000145874
0.000148178
0.000152476
0.0292589
0.000163133
0.000148993
0.000165192
0.0307281
0.0193009
0.000183089
0.000145244
0.024674
0.000154714
0.000236884
0.000259199
0.0304833
0.0360246
0.000172712
0.0606286
0.000213084
0.000147031
0.0574074
0.0174955
0.000147856
0.00019901
0.000148657
0.00014544
0.000156509
0.000173384
0.00016942
0.000149388
0.000144718
0.00087724
0.000147908
0.00014822
0.000165745
0.000193293
0.000288991
0.016722
0.0192326
0.000145551
0.000177917
0.000147997
0.000167087
0.000151944
0.000149034
0.0001649
0.000146565
0.000146209
0.000183783
0.000145651
0.000147054
0.0780053
0.000151194
0.000151804
0.000167724
0.000155359
0.0249502
0.000405837
0.0177224
0.000147557
0.000189582
0.000181058
0.000148164
0.00014913
0.000167943
0.000147238
0.000183831
0.0578841
0.0001616
0.000158265
0.000148022
0.000272361
0.000149506
0.00014709
0.00616533
0.0589984
0.000207428
0.0397957
0.039696
0.000144796
0.000165428
0.000147309
0.000143589
0.000144693
0.0166353
0.0210819
0.0147951
0.0392834
0.000164428
0.000178882
0.000146882
0.000172475
0.000152248
0.000165017
0.0740435
0.00014819
0.000149797
0.000157719
0.000158152
0.0496083
0.000148102
0.000149446
0.000149812
0.000161626
0.000145665
0.0157174
0.000157487
0.0420824
0.000147787
0.00016413
0.000208341
0.000194346
0.0533101
0.054104
0.0206458
0.000148506
0.000209534
0.000155167
0.000147076
0.000164071
0.00884601
0.0672646
0.000170644
0.000171383
0.000148199
0.0430576
0.000148674
0.000373536
0.000164126
0.000147905
0.0107575
0.0210507
0.000147479
0.0165828
0.000214915
0.000150944
0.0199929
0.00844939
0.00062147
0.00015195
0.000144845
0.0193206
0.000148568
0.000160625
0.0315739
0.000266415
0.000148029
0.0170384
0.000147581
0.00014914
0.000170807
0.000148164
0.0202422
0.000178375
0.000149542
0.000178705
0.000145681
0.000147563
0.000148985
0.000162741
0.000227325
0.000148859
0.000183502
0.000218628
0.000186379
0.0466655
0.000177841
0.00017498
0.000202338
0.000147994
0.000147018
0.0107999
0.000163899
0.00014765
0.0198561
0.00014991
0.000266656
0.0528536
0.000252309
0.0538205
0.048084
0.000147892
0.000175276
0.0106381
0.0001789
0.0221438
0.00022404
0.000148072
0.0299936
0.000150841
0.000244012
0.0565401
0.000156957
0.0001471
0.000151514
0.0446898
0.00021235
0.000148159
0.000159017
0.0190388
0.000146402
0.0430954
0.000207358
0.000151593
0.000345351
0.0337453
0.000148534
0.000149793
0.000150671
0.00048897
0.000148508
0.000163008
0.0774032
0.0269682
0.000148164
0.0200294
0.000249192
0.0571248
0.079117
0.0680874
0.000182133
0.000198834
0.000148703
0.000147479
0.000225915
0.000145813
0.000167757
0.0242546
0.000153944
0.000179654
0.000499793
0.000152272
0.00057014
0.000149955
0.000171737
0.000164328
0.000144939
0.000621947
0.000148559
0.000148109
0.000145288
0.000145726
0.000149473
0.000209675
0.0178046
0.000155371
0.0730713
0.000150785
0.000145643
0.000510193
0.000178788
0.000150093
0.000152213
0.000180622
0.000234842
0.000172901
0.000148065
0.000156264
0.000149231
0.000144847
0.000175836
0.00014819
0.000285981
0.000147778
0.0139236
0.0420282
0.00014654
0.043178
0.000182253
0.000190061
0.0424122
0.000166352
0.00014851
0.000149061
0.000153043
0.000147042
0.00731584
0.000239431
0.000149903
0.000149904
0.000296192
0.000148733
0.000182911
0.000147798
0.000146944
0.0194837
0.000146181
0.000156636
0.000147297
0.000147039
0.000148456
0.000146203
0.000148768
0.000147523
0.0155345
0.000181318
0.00014927
0.00014778
0.000169021
0.0108548
0.000149396
0.0417978
0.000174162
0.000164074
0.000168849
0.000146417
0.0183163
0.0779869
0.000210298
0.000147387
0.000181512
0.000148745
0.000193948
0.000214641
0.000147007
0.0110788
0.000163695
0.000150047
0.0231315
0.0591392
0.000174772
0.0363045
0.000160336
0.000149155
0.0338552
0.00014966
0.000148184
0.000182929
0.000148816
0.000145375
0.000147724
0.000185506
0.000143641
0.0151565
0.000155464
0.000225352
0.000152078
0.0115768
0.0169411
0.032077
0.000331503
0.00014965
0.000212895
0.000147709
0.000158783
0.000148406
0.0545575
0.014107
0.000146208
0.000149661
0.000151011
0.000171426
0.000147157
0.000366978
0.00447781
0.000177155
0.0163351
0.000173309
0.000155786
0.000150361
0.000152286
0.000148279
0.000735287
0.000153995
0.0246517
0.000148061
0.0675264
0.000297725
0.0839717
0.000158876
0.000182767
0.0145692
0.0477936
0.000148292
0.000145894
0.000196337
0.000147168
0.000149444
0.000167695
0.000146486
0.000152655
0.000148535
0.000148678
0.000148607
0.000148309
0.000151882
0.000168572
0.0842213
0.000178186
0.000176263
0.000152147
0.0230852
0.0128511
0.0365648
0.0448872
0.000167217
0.000164391
0.00015251
0.0545854
0.000147729
0.00014628
0.000256876
0.000148661
0.000144823
0.000178871
0.000146232
0.000171616
0.0295248
0.000155478
0.000149838
0.000149386
0.00014866
0.000206009
0.000148822
0.000168559
0.000167629
0.0191251
0.000147748
0.000163602
0.000153897
0.000158561
0.000150845
0.000161451
0.000149909
0.000160957
0.0185004
0.000147274
0.000405923
0.000214839
0.0481003
0.052493
0.00017048
0.067437
0.024876
0.0472032
0.000238576
0.0048599
0.000177053
0.000281614
0.000147157
0.000210134
0.000217343
0.000840022
0.000188032
0.000150133
0.000147008
0.000174945
0.000212263
0.000149545
0.000151296
0.000170176
0.00014875
0.00014883
0.000150227
0.000182652
0.000163525
0.000145808
0.000520339
0.0316519
0.000147985
0.000161169
0.000175
0.000145719
0.0309565
0.000169006
0.000163863
0.000522652
0.0850788
0.000163612
0.0498142
0.0433621
0.0224216
0.0763354
0.000147993
0.000145854
0.0173048
0.0152924
0.000151833
0.0232795
0.00014846
0.00014717
0.000148311
0.000149953
0.000151238
0.000148246
0.000173941
0.000163461
0.00020747
0.000181409
0.000157766
0.000560844
0.0441838
0.064375
0.000161187
0.000278786
0.000151744
0.0691152
0.000145264
0.000771759
0.0204275
0.000173969
0.000212226
0.0057737
0.00102323
0.000163693
0.000163975
0.000161442
0.00014823
0.000230348
0.00128227
0.000179204
0.000144234
0.000147987
0.000158575
0.0159716
0.000225086
0.000155069
0.000197097
0.0760126
0.000160661
0.0346322
0.000163198
0.000143688
0.000147837
0.0825077
0.000188718
0.0843283
0.000151239
0.000148043
0.00014739
0.000654636
0.000156261
0.000148314
0.000197387
0.0375738
0.000151006
0.000207404
0.000279682
0.000151554
0.000223408
0.000145905
0.000147627
0.000183191
0.000146942
0.000169258
0.000149004
0.000149047
0.0294409
0.000148294
0.000160607
0.00709983
0.000148415
0.000180919
0.000153702
0.000171075
0.0372844
0.0411217
0.000334146
0.000208555
0.000209303
0.0687348
0.000185247
0.000145913
0.000169134
0.000147021
0.000148988
0.0662077
0.000147655
0.0278178
0.000184023
0.00014714
0.0212919
0.00781692
0.000152797
0.0597672
0.000149101
0.0361205
0.085304
0.000148402
0.000149037
0.000172332
0.000148579
0.000254385
0.0839057
0.000149027
0.000157036
0.000158069
0.0497747
0.000149911
0.0311237
0.0112547
0.000147672
0.000173421
0.0480368
0.0260551
0.000147065
0.0165784
0.000149792
0.0203712
0.000164607
0.00014807
0.0620853
0.000148705
0.0487398
0.000150518
0.0428579
0.000150551
0.00020015
0.000216499
0.000157584
0.000365276
0.0182126
0.00812561
0.0599516
0.0566508
0.000151291
0.000204593
0.000151068
0.000149817
0.000147055
0.000146991
0.000148075
0.00755561
0.000146138
0.0769878
0.000147033
0.0508385
0.000145896
0.000148186
0.000147086
0.000150894
0.0465251
0.000172233
0.0212355
0.000149096
0.0282244
0.0413173
0.000147879
0.000148434
0.000148205
0.000170037
0.0391417
0.000168813
0.000149831
0.0503253
0.000148158
0.000180605
0.000179587
0.0204632
0.000163678
0.000150982
0.000146848
0.000205949
0.000195577
0.000163438
0.045692
0.000147878
0.000247762
0.000145623
0.0197603
0.0766602
0.000149075
0.0415667
0.000147734
0.000147781
0.000145826
0.00014827
0.0613001
0.0034896
0.0172604
0.0491119
0.000161719
0.000172163
0.000169918
0.0480947
0.00014567
0.000148545
0.0517061
0.0364479
0.000171709
0.0001655
0.000185373
0.000566549
0.0639866
0.000184416
0.000149818
0.000152289
0.0195217
0.000275359
0.000167302
0.0752163
0.000147773
0.00014582
0.000150906
0.000159897
0.000160663
0.0234162
0.000146581
0.000147076
0.000145325
0.000628878
0.000146739
0.000663204
0.000149905
0.000166537
0.0145826
0.000149906
0.00019881
0.000149076
0.000151902
0.000152933
0.000174886
0.000198757
0.00122048
0.000190622
0.000143935
0.000145652
0.00018134
0.0689386
0.0358029
0.000155564
0.000209753
0.0168784
0.000807598
0.000149149
0.0766909
0.000427643
0.000187928
0.000162406
0.0233802
0.000149867
0.000180823
0.000148857
0.000349237
0.0179588
0.000149999
0.000143689
0.000165468
0.0184278
0.0516645
0.000148126
0.0426603
0.000190442
0.0492084
0.000294178
0.000157405
0.000209997
0.000166422
0.000151315
0.000145838
0.000393812
0.0027013
0.000203805
0.0212181
0.0879607
0.0515531
0.0294047
0.0443022
0.000147433
0.0373031
0.000158855
0.000148053
0.000157745
0.000153815
0.0350712
0.000149821
0.000148144
0.00021388
0.000183723
0.000148332
0.00311887
0.0472361
0.0196093
0.000158716
0.000186263
0.000147271
0.000149533
0.0792656
0.000208793
0.000146604
0.0195897
0.000146001
0.000148648
0.00840299
0.000149913
0.000182664
0.000144086
0.00022877
0.0292608
0.000145363
0.000158651
0.0855226
0.000148467
0.0085986
0.000148626
0.0201577
0.000147662
0.000176822
0.000163164
0.0469739
0.000148071
0.000235012
0.000281876
0.000146639
0.000148875
0.000146271
0.000146047
0.0172127
0.0458091
0.000188705
0.0149508
0.00018822
0.000148093
0.000174236
0.000155892
0.000146559
0.000147829
0.000169553
0.0454274
0.0544529
0.000172946
0.000207687
0.000211167
0.000145671
0.000148443
0.000150259
0.00025483
0.000144138
0.0087979
0.0531316
0.000195189
0.000148257
0.0485775
0.000149785
0.000266928
0.00020764
0.000148138
0.00014882
0.00015592
0.0396825
0.000147079
0.00027866
0.000146624
0.0843574
0.000146123
0.00660548
0.00015626
0.00015911
0.0345028
0.000146751
0.000252384
0.000148513
0.000147278
0.0158822
0.000194605
0.0498714
0.000145546
0.000149388
0.000149184
0.000206291
0.000179282
0.000167366
0.000151136
0.000155136
0.00014594
0.0322038
0.000160754
0.0821501
0.00979115
0.0670749
0.000157188
0.000144968
0.000149821
0.00901339
0.0584986
0.000147462
0.000147329
0.000193151
0.000179471