/*--------------------------------*- C++ -*----------------------------------*\
| =========                 |                                                 |
| \\      /  F ield         | OpenFOAM: The Open Source CFD Toolbox           |
|  \\    /   O peration     | Version:  v2012                                 |
|   \\  /    A nd           | Website:  www.openfoam.com                      |
|    \\/     M anipulation  |                                                 |
\*---------------------------------------------------------------------------*/
FoamFile
{
    version     2.0;
    format      ascii;
    class       volScalarField;
    location    "400";
    object      nut;
}
// * * * * * * * * * * * * * * * * * * * * * * * * * * * * * * * * * * * * * //

dimensions      [0 2 -1 0 0 0 0];


internalField   nonuniform List<scalar> 
27802
(
0.00132271
0.00583642
0.000963101
0.00201658
0.00584232
0.000501888
0.0058417
0.000307055
0.00584681
0.000641897
0.00922297
2.70412e-05
0.000540415
5.16351e-05
0.0141084
0.00106895
0.00865896
0.00584883
0.00955978
0.00342931
0.00792234
0.0140081
0.0058534
0.00130499
0.000204722
0.00025736
0.005832
0.00168978
0.00586485
0.000190425
0.00136687
0.000387622
0.00119292
0.00584785
0.00583433
0.000125687
0.00137106
0.00585072
0.00590301
0.00075188
2.96745e-05
0.00583447
0.00133657
0.00583732
0.000386832
0.00320436
0.00583419
0.00190698
1.29875e-05
0.0125995
0.0137489
0.000230369
0.00476358
2.19064e-05
0.00589126
0.0058335
0.000973917
0.00583826
0.000465806
0.00027609
0.0025868
0.000982133
0.000540515
0.00582976
0.00583792
0.00249234
0.00698929
0.000888595
0.000296285
0.00294482
0.00583753
0.0144607
0.013878
0.0011858
0.000707654
0.00275554
0.00697176
0.00134419
0.0030629
0.000249965
0.00587659
0.00583279
0.000114714
0.00121224
0.0027072
0.000809497
0.00583537
0.0123135
0.00194652
0.00353479
0.00583663
0.0024439
0.00584436
9.9667e-05
0.014413
0.00153383
0.00583309
0.00159611
0.00583763
0.00131285
0.00590497
0.00586418
2.31093e-05
0.00180787
0.0119984
0.000483269
0.00391301
0.00583846
0.00588816
0.000348631
0.000845381
0.00583678
0.00584815
0.00583748
0.00374363
0.00582939
0.000822416
4.14119e-05
0.00971582
0.000204484
0.0028844
0.000301442
0.00989569
3.59876e-05
0.0021992
5.01969e-05
0.00172256
0.00160696
0.00365428
0.00584915
0.000598732
0.000494751
0.00178731
0.00176991
0.000715866
0.00272177
8.35404e-05
5.11915e-05
0.00583608
0.00223643
5.35772e-05
0.000609179
0.000264899
0.000224603
0.00584989
0.0087011
0.000304982
0.00122686
0.0055661
0.000822645
0.000246553
0.00072259
0.00133581
0.0123419
0.00583566
0.000450828
0.00239994
0.00150504
0.00584151
0.00583408
0.00582986
0.00270556
0.0100699
0.0058324
0.00583544
0.00583584
0.012902
0.00584466
0.0019766
0.00136933
0.000160999
0.00382507
0.010913
0.000715011
0.00583662
0.000496095
0.000501054
0.00863133
0.00582934
0.00414345
0.000100366
0.0131676
0.00199957
0.0113063
0.00584143
3.89729e-05
0.00794794
2.13806e-05
0.00121796
7.07757e-05
0.01373
0.00583643
0.00106833
0.00056145
0.00589471
0.000952447
0.000192112
0.0101008
0.000568491
0.00911744
0.000116856
0.00583422
0.00135801
0.000816163
0.0136172
0.000537634
0.00584404
0.00585125
0.000213504
0.00587657
0.00487174
0.00851198
0.00211649
0.00645844
0.00583963
0.00583218
0.00065444
0.00161813
0.0058382
0.00583626
0.0143761
0.00584278
0.00315215
0.000733773
0.0020688
0.000853406
0.00182161
0.00127557
0.00583682
0.00231839
0.00583739
0.000604988
0.000745202
0.00583443
0.00583644
0.00160888
7.36712e-05
7.44683e-05
0.00180445
2.40882e-05
0.00225595
0.0108131
0.0131262
0.014386
0.00748701
0.00224729
0.00583289
0.00210498
0.00584081
0.00583369
0.000390379
0.00583014
0.000128569
0.00129393
0.0115919
0.0144497
0.00159781
0.000204245
0.00263399
0.000708252
0.00582977
0.00297282
0.0108611
0.00126702
0.00291664
0.00559827
0.00156409
3.86994e-05
0.0144405
0.000367951
0.0014981
0.000896042
0.00720338
0.00583144
0.00583012
0.00583432
0.000504279
0.00583352
0.00501557
0.0143989
0.00147215
0.000330895
0.00021885
0.00118929
0.00799158
0.00238138
0.00798621
0.00583368
0.000162728
0.011224
0.000360826
0.00208749
0.00354429
0.000409957
0.00583527
0.00256799
0.00147469
0.00023447
0.000419583
0.000298157
0.00274571
0.000280385
0.0127734
1.39369e-05
0.0116131
0.00583351
0.00053699
0.00294666
0.0116674
0.0058694
0.0124593
0.000309066
0.00765029
0.00583841
0.00727979
0.00426764
0.000382027
0.0058577
0.00192151
0.00597629
0.00586845
0.000721673
0.000775583
0.012776
0.00256499
0.00584586
0.000128577
7.876e-05
0.00834383
0.00582979
0.0104076
0.00583153
0.00583415
0.000733095
0.000104505
0.00185555
0.00583928
0.00375623
0.000293857
0.00275281
0.00441763
0.000417722
0.00552386
0.000305021
0.00328497
0.000294263
0.00197127
0.00585543
0.00221701
0.00584545
3.98794e-05
4.13723e-05
0.00583278
0.000213563
0.00290923
0.00587454
0.00131707
0.00377052
0.00326693
0.00582912
0.000700065
0.000252483
0.0126834
0.0058319
0.00416186
0.00400423
0.0117954
0.00583296
5.79806e-05
0.00583516
0.00082415
0.000235044
0.00121942
0.00186541
0.00144611
0.00358112
0.000126047
0.00583724
0.00114441
0.000653084
0.000322681
0.00583427
0.00313881
0.00583627
0.00400612
0.000831576
5.77563e-05
0.00141387
0.00654671
2.87355e-05
0.00536428
0.000647106
0.00278969
0.00385808
8.99112e-05
0.00161409
0.00583417
0.0137208
0.000430204
0.00712655
0.00165918
0.00544253
0.00583217
0.00583348
0.00124069
0.00805092
0.00583349
0.000559627
0.000551708
0.00157191
0.00588115
0.000470793
0.00514084
0.0141127
0.00504288
0.0028717
0.00583002
0.0113968
0.00586511
0.000658993
0.00184845
0.00361703
0.00583643
0.00584285
0.000889533
0.00273984
0.000250934
0.00455959
0.00583803
7.83099e-05
0.0058366
0.00247461
0.000652345
0.00561796
0.00168919
0.00755314
0.000319864
5.64671e-05
0.000441413
0.00400565
0.000222404
0.00383355
0.00160736
0.00583723
0.000431105
0.00231448
0.000118656
0.00270177
0.0058378
0.00582992
0.00333641
0.0126165
0.00246893
0.00583097
0.00533253
0.00583412
0.00670601
0.00583405
0.00290917
0.00208002
0.000466977
0.00283191
0.00583426
0.00889366
0.00583481
0.000827388
0.00849148
4.81958e-05
0.00583462
0.00361891
0.000215059
7.27492e-05
0.00340207
1.59752e-05
0.00124303
0.000285233
0.005829
0.000750998
0.00583349
7.70445e-05
0.00405668
0.00161868
0.000313476
0.0143809
0.00583075
0.00430719
0.000112113
0.00160404
0.00360844
0.00584932
0.00582905
0.000426696
0.00129435
2.70881e-05
0.000626212
0.00582997
0.000121136
0.00946307
0.000465605
0.00264704
0.00583149
0.00583547
0.00609329
0.0005194
0.000360888
0.00675819
0.00983785
0.00584021
0.00491687
0.00584009
3.20488e-05
0.000525291
0.00576972
0.000718466
0.00583952
0.00158444
0.000423361
0.00518706
0.00046787
0.00381563
0.0106178
0.00120868
0.00583489
0.00583472
0.00229954
0.000194782
0.0058358
0.00045594
0.000487544
0.000179997
0.00189954
0.011182
0.000509905
0.00249714
1.26985e-05
0.00584063
0.00583456
0.000792123
0.0072856
0.00583262
0.00803145
0.000600103
3.89448e-05
5.02549e-05
0.00227127
0.00584774
0.00583461
0.00825609
0.000633594
0.00583406
0.000423677
0.00160711
0.0041989
0.00585253
0.0051743
0.00067211
0.000505877
0.00428608
3.5055e-05
0.00569397
0.0145113
0.000188966
0.00368519
5.47404e-05
0.00338905
0.00583085
0.0026284
0.00583244
0.0107199
0.00485029
0.00582899
0.00585507
0.00291081
5.75226e-05
0.0053995
0.0025301
0.00113654
0.00540341
0.00130622
0.000645868
0.00910688
0.0105506
0.00280637
0.00299101
0.00583422
0.00583456
0.0109208
0.00582993
0.010493
0.000374916
0.000111578
0.00274719
0.00185794
0.00180595
0.00583924
0.00561591
0.00159802
0.00583315
0.00583456
0.00793507
0.00121678
0.00976826
0.0064259
2.48108e-05
0.00107542
3.41112e-05
8.79879e-05
0.0058637
0.0135682
0.0143545
0.00054526
1.9412e-05
0.00508276
0.000792709
0.000242783
0.00583426
8.41651e-05
0.00583434
0.00147231
0.000237537
8.12896e-05
0.00166961
0.0017818
0.0083672
0.00160212
0.00191602
0.00583586
0.00121851
0.000498858
5.7583e-05
0.00583529
8.07436e-05
0.00590537
0.0007186
0.00011748
0.00583727
0.00583663
0.000653721
4.96815e-05
0.00182421
0.000325244
0.000945867
0.0100169
0.00412992
0.000545464
0.00414595
0.000166145
0.000451769
0.0100654
0.000859664
0.00583319
4.34656e-05
0.000926427
0.00583864
3.32979e-05
0.00583587
2.22536e-05
3.26804e-05
0.00583575
0.00583417
0.000100457
0.000440296
0.000813645
0.00162688
0.0015763
0.00583603
0.00128331
0.00240371
0.00115075
0.000366575
0.00584012
0.00587173
0.00540844
0.00336088
0.00168872
0.00583383
0.00194787
0.00583783
0.00242423
0.0102612
0.00583461
0.0122606
0.000720289
0.00585367
0.00111352
0.00583266
0.00139388
0.00811368
0.00696938
0.00593049
0.00648619
0.00794756
0.00583217
0.0110561
0.000203126
0.00583598
0.00583264
0.00251245
0.000864354
0.000376276
0.00583303
0.00583596
8.68841e-05
0.004654
0.00583403
0.00219018
0.011782
0.0137402
0.00587279
0.00179587
0.00583624
0.0011511
0.000450319
0.00583274
0.00118609
0.00583611
0.00164531
0.000973402
0.00801737
0.000222175
0.000557319
0.000453241
0.000164682
0.00163086
0.00419503
0.00586407
0.00364739
5.39206e-05
8.65431e-05
0.00408029
0.00881661
0.0136524
0.00583332
0.00142222
0.00585526
0.00583394
3.93763e-05
0.00583387
0.000110638
0.00299378
0.000179888
0.000907034
0.00135955
0.00567477
0.0001749
4.11593e-05
0.000758892
0.00437971
5.37667e-05
0.00583482
0.0123939
0.00583794
0.0103802
0.00336756
0.00189606
0.00585479
0.0123856
0.00583252
0.00192844
0.000956702
0.000708176
0.000584952
0.00685571
0.00556993
0.00137401
0.00125789
0.000121911
0.00586307
0.00447605
0.000825422
0.00443295
0.0069542
0.0086124
0.00111712
0.00179211
0.00583608
0.00583436
0.000953853
0.000282315
0.00126488
0.00109812
0.00615843
0.000152046
0.00583643
0.00583431
0.000385233
0.00512587
0.0140862
0.000292796
4.77547e-06
0.000978864
1.68657e-05
0.00356796
0.0139854
0.000272502
0.011474
0.00016344
0.00669499
0.000965269
0.000825546
0.00179124
0.00207992
5.56385e-05
0.0005066
0.00112035
0.00177862
0.00179821
0.01045
0.000389744
0.0058297
0.00834441
0.00583372
0.0057626
0.000152243
0.000344329
0.00127241
0.000302751
0.000464856
0.00583385
0.00923579
0.000543641
0.00583504
0.00869861
0.000589373
0.00960045
0.00583291
0.00107223
0.000536939
0.00432396
0.000131304
0.00585495
0.000231285
0.00466805
0.0129412
0.000731344
0.000168766
1.74833e-05
0.00195694
0.00583361
0.00584465
0.000189512
0.000621269
0.00253066
0.00583225
0.000355646
0.001031
0.0133769
0.000211279
5.85548e-05
2.73619e-05
0.000758043
0.002016
0.0139034
0.00224358
0.000636104
0.00806499
0.00583883
0.0013279
2.66664e-05
0.00583059
0.00699766
5.28334e-05
0.0060232
0.000384593
0.00296104
0.00108928
0.00562795
0.00583092
0.00656747
0.000961705
0.00179749
0.000478853
0.00583228
0.00155229
0.00583295
0.00257519
0.00100249
0.000577378
0.000278094
0.000187821
0.00122354
0.000224677
8.7026e-05
0.000851182
0.000321091
0.000283725
0.000270211
0.00108636
0.00583762
0.0058356
0.00020073
0.000243003
0.0053371
0.000207845
0.00583206
0.000513769
0.00314686
0.00105088
0.00236738
0.0058353
0.00583565
0.0018342
0.00583548
0.00150682
0.00583857
0.000255478
0.00962027
6.49204e-05
0.00350204
0.00583225
0.000177097
0.00291081
0.000978026
0.00584043
0.000106643
0.00176569
0.00863976
7.64194e-05
0.0039753
0.00215137
0.000142368
0.000489969
0.00583599
0.000347816
0.00583625
0.000141123
0.00583388
0.00200581
0.000482689
0.00101259
0.00583913
0.000405634
0.000372428
0.000155338
0.000895644
0.00590481
0.00211778
0.00085759
0.0145129
0.00261406
0.000127805
0.0037967
0.00583576
0.00165397
0.00612584
0.00799294
0.000738026
0.00263663
0.00160239
0.0104712
0.00583874
0.00401476
0.000986069
0.00260842
0.00219315
0.000470832
0.00305137
0.00585126
0.00712666
0.000304654
0.00916134
0.00368453
0.004584
0.00233968
0.000148186
0.00583265
0.000509892
0.000119987
0.00583356
0.00583346
0.000183422
0.000928604
0.00384686
0.00264011
0.00160146
6.10224e-05
0.00590248
0.00158985
0.0034589
0.011206
0.000257034
0.00415684
0.00244757
0.000959806
0.00327075
3.41364e-05
0.000156464
0.00284065
0.00286106
0.0046857
5.58756e-05
0.00026347
0.00112642
0.000307614
0.00583224
0.00211128
0.0127294
0.00126358
0.000257253
0.00584849
0.00291365
0.000360354
0.00207649
0.0020827
0.00583374
9.66157e-05
0.0058331
0.00583568
0.00266948
0.00116743
0.00261117
0.000991791
0.0026686
0.00593608
0.000756296
0.000189495
0.00584479
0.000127249
0.0058337
0.000275103
0.00305653
0.00177067
0.00714177
0.00115742
0.00587518
0.00154342
0.00584921
0.000878636
0.00164982
0.00194106
0.0134769
0.00583601
0.00583221
0.00125446
0.000442198
0.00583392
0.00583394
0.00104935
0.00592336
0.000141523
6.76189e-05
0.00584422
0.00583209
0.00518556
4.85893e-05
0.00135757
0.00583267
0.000183243
5.17527e-05
0.00583224
0.00585953
0.0101333
0.00583276
0.00588376
0.000388627
0.00155193
0.00584605
0.00583613
0.000225099
0.00583568
0.00332574
0.00584286
0.00583377
0.00945596
0.00248985
0.00583442
0.0116203
0.00543836
0.0099012
0.012305
0.00181405
0.00966647
0.00116614
0.00152717
0.0059019
0.00583156
0.00669196
3.64105e-05
0.007332
0.000891193
0.00583601
0.00116593
0.00266376
5.43376e-05
0.00176055
0.00170309
0.00583643
2.88086e-05
0.0125734
0.000125338
0.00583341
0.00847736
0.000297476
0.00256823
5.22302e-05
0.00582974
0.00583405
0.00247884
0.00592515
0.000453682
0.00357734
0.00288693
0.00583084
0.00583384
0.00270501
0.00177516
0.000697338
0.00583687
0.00583376
0.0147801
0.00583574
0.00407992
0.00216942
0.0102009
0.000990993
0.00583496
0.00822253
0.00583201
0.000909323
8.3999e-05
0.00114615
0.00112007
0.00896295
0.000143511
0.00730821
0.000244869
0.000938931
0.00196625
0.000180857
0.00213533
0.00132156
5.52295e-05
0.00603175
0.00682097
0.000207233
0.00584361
0.00157357
0.00513518
0.00499035
0.00231019
0.00113164
0.000168662
0.00583248
0.012733
0.00583382
0.00583433
0.0124997
7.59803e-05
0.00119711
0.00588728
0.00498804
0.0130054
0.00583082
0.000926441
0.00583602
0.000154247
0.00583289
0.00314299
0.00118274
6.42036e-05
0.0058339
0.000578183
0.00243264
0.00583234
0.0102805
0.00107733
0.000457107
0.000475303
0.00111798
0.0149541
0.00105129
0.00582989
0.000896361
0.00135646
0.00583373
0.00066035
0.00547293
0.005832
0.00192315
0.0053711
0.00583245
0.00166891
0.00338914
0.00585574
0.00583611
0.00582951
0.00189695
0.00583368
0.000297362
0.0137024
0.000470433
4.23229e-05
0.00589751
0.0058314
0.00311011
0.00757554
0.0144042
0.00583182
0.00103441
3.87653e-05
0.00083364
0.000162188
0.00510663
0.000226349
0.000593301
0.00026211
0.000606479
0.00583914
0.00136836
0.000236834
0.00585622
6.07198e-05
0.000970605
0.00283377
0.000153258
0.000890854
0.000125886
0.00583346
0.000660409
0.0125053
0.000819793
0.00109584
3.87255e-05
0.00253216
0.00288508
0.00680518
0.00617683
0.000126138
0.00235541
0.00583442
0.0027642
0.000505062
0.00585026
0.000453816
0.0058356
0.00316426
0.00223004
0.00304204
0.00583379
0.00831173
0.00583535
0.00117169
0.00200411
0.00184526
0.00583045
0.00346346
0.0017906
0.0058322
0.00178173
0.00583209
0.0148796
3.36663e-05
0.0122573
0.0134409
0.00207018
0.000130951
0.00434983
0.00191885
0.0135447
0.00264698
0.00469914
0.000535579
0.00200744
0.00352282
0.000598018
0.000317601
0.00593964
0.00127111
0.00449471
0.00170304
0.00758719
0.0124165
0.000283538
0.00583275
0.000805459
0.0020532
0.003684
0.0058358
0.000136605
0.000947223
0.000445362
0.000625796
0.00071105
0.00583882
0.000351062
0.00183805
0.0023668
0.000274517
0.00584247
0.00086323
5.88127e-05
0.00142183
7.55248e-05
0.00288709
0.0135723
0.000921258
0.00583393
0.00583535
0.0035062
0.000223031
0.00161936
0.00583427
0.00117195
0.000963499
0.00241105
0.00016801
0.00195251
0.00584742
0.00583281
5.64122e-05
0.00167784
0.00583474
0.00549364
0.00583505
0.00242994
0.00074038
0.00848209
0.000139097
4.3799e-05
0.00022269
2.67784e-05
0.00583875
5.45594e-05
0.00583409
0.0135882
0.00609286
0.00584206
0.00557709
0.00174839
0.00351605
0.000488756
0.0113366
0.00166412
0.00583596
0.00262191
0.00119784
0.0123567
0.00429477
0.005834
0.00195105
4.75982e-05
0.000247312
0.00911085
0.000417512
0.00712018
0.00583386
0.00293039
0.00212086
0.00583414
0.00583224
0.00583543
3.51166e-05
0.00583941
0.000750292
5.26851e-05
0.0033823
0.00583806
0.00583399
0.00104034
0.0126868
0.000265388
0.00583347
0.00251985
0.000305252
0.0009469
0.0136843
0.000519192
0.00751698
5.346e-05
6.42796e-05
9.24072e-05
0.000441327
0.00114666
0.00986447
0.000104023
0.0058375
0.00596056
0.000658483
0.00102045
0.00583571
0.000792051
0.000569181
0.00566302
3.65262e-05
0.000661014
0.00583474
0.0024151
0.00300088
0.000670711
0.00512889
0.00583036
0.00585701
0.00039966
0.00625783
0.00345854
0.00902757
0.0139927
0.00584024
0.0129025
0.00403806
0.00260428
0.00583763
0.00781354
0.00583375
0.000916241
0.00533226
0.0058341
0.00583942
0.00484788
0.00104819
0.00245288
0.00141648
0.00583053
0.0106257
0.00164246
0.00120566
0.00583343
0.00421408
0.00583634
0.00583342
0.0110783
0.000873095
0.0058342
0.0111436
0.00919935
0.000112971
0.00592048
0.000273471
0.000481012
2.64263e-05
0.00583857
0.00196507
0.00663832
0.01432
0.00354249
0.00583338
0.00317293
0.00918077
0.00248003
0.000530499
0.00556376
0.00975221
0.00121439
0.00592343
0.00212954
0.00563349
0.0107059
0.0016363
0.00451344
0.00213601
0.00437311
0.00584621
0.014483
0.0116527
0.000423308
0.00583192
0.00929656
0.000964001
0.0012585
0.0034919
0.00123752
0.000605617
0.00110858
0.00583378
0.00590837
0.00583495
0.00583152
0.00431883
0.000630718
0.0101199
0.00583192
0.00583182
0.00602339
0.00591098
0.00306592
0.000270164
0.00532173
0.00596239
0.0073591
0.00583569
0.00413358
0.00192873
0.001027
0.00193842
0.000338912
0.00942892
0.00240697
0.00583383
0.00216147
0.00528296
0.00050147
0.000463247
0.00583164
0.00583903
0.00217286
0.000389551
0.00233297
0.00159962
0.00583587
0.00583612
0.0013016
0.00453654
0.00583064
0.00254883
0.00582834
0.000296253
0.000945907
0.000383313
6.55468e-05
0.005836
0.0026842
0.00238778
4.79861e-05
0.00937658
0.0058314
0.000726492
0.00184644
0.00115685
0.000548428
0.00258203
0.00077299
5.95778e-05
0.00583013
2.9929e-05
0.00368797
0.00245839
0.000681244
0.00435959
0.00584871
0.00125628
0.00583644
0.0014381
0.00157001
0.00583061
0.00583506
1.76882e-05
0.00230324
0.00583795
0.00582795
0.00583627
0.00028361
0.00134191
0.000768028
0.000521502
0.00583008
0.000316738
0.0130695
0.000373344
0.00841235
0.00112358
0.00583039
0.00131696
0.0116609
0.00583085
0.00193632
0.00583536
0.00710017
0.0139969
8.85575e-05
0.000816083
0.0055772
0.00252603
0.00175346
0.0055828
0.00208352
0.000193518
0.0106398
0.00746014
0.00131172
0.00585132
0.00120703
5.99018e-05
0.00283729
0.00214488
0.00583421
8.28691e-05
0.000944392
0.00876862
0.000642953
0.0058954
0.000413735
0.00172021
0.00802565
0.00102322
0.00212139
0.00585151
0.0124767
0.00585433
5.08138e-05
0.00251363
0.00887323
0.000688867
0.0109468
0.000318077
0.00583018
0.00583396
0.00583316
0.000350678
0.0075025
0.00183518
0.00583418
0.00309633
0.00123787
0.00597381
0.000228773
0.00583545
0.000557449
0.000380957
0.000360496
0.0130158
0.000174478
0.000119292
0.0078694
0.00583733
0.00297364
0.000139655
0.000557723
0.0102944
0.000245467
0.000163155
5.85291e-05
0.00592837
0.0131731
0.00583404
0.000905673
0.00343034
0.00583683
0.000735252
0.00583513
0.00583589
0.00583103
0.000320391
0.00590754
0.00930301
0.00583859
0.00585571
0.000441704
0.000978329
0.00160178
0.000252935
0.00583646
0.000267374
0.00582774
0.00583629
0.000563118
0.0114285
0.000595391
0.0058343
0.00583326
0.00121137
0.00862603
0.00240544
0.00520477
0.000777431
4.06909e-05
0.000292371
0.00158387
0.00206348
0.000754871
0.00431919
0.00178903
0.0124177
0.00132108
0.0143066
0.00583067
0.00193441
0.00583549
0.0030954
0.000118701
6.47782e-05
0.00274276
0.00203418
0.000593594
0.00332786
3.50313e-05
0.000636682
0.00126125
0.00268324
0.00930541
0.00143001
0.0019368
0.00584657
0.00583467
0.00593937
0.00842423
0.00016448
0.00583392
0.000113871
0.0052288
0.00194842
0.000230715
0.00583449
0.00390312
0.00164903
0.000658458
2.64241e-05
0.00530678
0.00433303
9.21816e-05
0.014498
0.00106009
0.00585768
0.011478
0.00193606
0.00529446
0.00115421
0.0058336
0.0058483
0.000422532
0.000134296
0.000796612
0.00171534
0.0058583
0.000649581
0.00583099
0.00583474
0.00203149
3.15594e-05
0.000433929
0.00173731
0.00153473
0.00585289
0.000558611
0.00583597
9.14805e-05
0.00330925
0.00583421
0.00207221
0.00583448
0.0058325
0.000210462
0.00583869
0.00590728
0.0079512
0.000985844
0.00115724
0.000113139
0.00118445
0.00408295
5.16755e-05
0.00250597
0.00583196
0.000464576
0.00089391
0.00379294
0.00222824
0.000138404
0.00583293
0.000221853
0.00705544
0.000188199
0.000265159
0.00444206
2.76819e-05
0.00211895
0.00554173
0.000198121
0.011111
0.00119668
0.00805006
0.00469983
0.0058598
0.00180053
0.00584886
0.00583322
0.00584068
0.00224656
0.00243868
0.00415249
0.0101764
0.000164309
0.00135133
0.00585248
0.00038483
0.00081336
0.000120344
0.0148885
0.00583451
0.00583597
0.000418112
0.00174459
0.00952684
0.00516247
0.0021702
0.005836
0.00216858
0.00583232
0.00195231
0.000436509
0.0112009
0.00414727
0.000119581
0.00068144
0.00176473
0.0118886
0.00992148
0.00208436
0.00583351
0.00112598
0.000459864
0.00583475
0.000287153
0.000373176
0.00737341
0.000351311
5.89755e-05
0.00583457
0.00936483
0.0028611
4.44844e-05
0.000321448
0.00583538
0.000689327
0.00228025
0.0058319
0.00244911
0.000995979
0.00104084
0.00176517
0.00093237
0.000442918
0.000838248
0.00585961
0.00225488
0.00583228
0.000635605
0.00582287
0.000427155
0.00424976
0.00236277
0.00583132
0.00192331
0.00122891
0.00345744
0.00217491
0.000262115
0.00219846
0.000318991
0.00587358
0.00441301
0.00583386
0.00104953
6.79238e-05
0.00583359
4.07169e-05
0.000434895
0.00191834
0.0131128
0.000331706
0.000660576
0.000153033
0.00465009
0.00583303
0.000523113
0.00014444
0.0058361
0.00211163
0.00583632
0.000139808
0.0140051
0.000619977
0.0136251
0.00881069
0.00583514
0.000726988
0.00328311
0.000525555
0.00460327
3.89684e-05
0.00583805
0.00595317
0.00278804
3.1147e-05
0.00982889
0.000541144
0.00583483
0.00150362
0.010099
0.00104825
0.00583435
0.000240896
0.00294983
0.00583384
0.011748
0.00120064
0.0010986
4.66211e-05
0.00634662
0.0027521
0.005836
0.00130694
6.31766e-05
0.00583348
0.000944261
0.00488256
0.00136773
0.00306107
0.00243141
0.000649139
0.00222827
0.0146677
0.00867604
0.000152642
0.00118051
0.00590858
0.00583199
7.26146e-05
0.00583189
0.000115086
0.00493798
0.000834567
0.000313431
6.05776e-05
0.000823937
0.000267088
0.00583646
6.71592e-05
0.000543545
0.0058621
0.000578719
0.00264595
0.00358338
0.00583497
0.0058318
0.00315144
0.00109883
0.00212966
0.000420576
0.00439623
0.00103887
0.00585313
6.35439e-05
0.00160614
0.00134606
0.000779915
4.63534e-05
3.84235e-05
0.000446503
0.00583877
0.00158147
0.00186192
0.0058298
0.000552814
0.00583444
0.000584632
0.00583919
0.00136263
0.00784252
0.0058339
0.0110429
0.00011314
0.00042749
0.00859856
0.00221177
0.00263447
0.00583391
0.00319512
0.00588994
0.000142887
0.0002499
0.00583627
0.00583628
0.000219142
0.0058337
0.00070883
0.00583904
0.00583323
0.0019454
0.00583223
0.00146514
0.00584378
0.00583321
0.00290681
0.00583686
0.00253774
0.00583199
0.00134521
0.00162506
0.00427878
0.00393643
6.81353e-05
0.00315674
0.00163275
0.00994733
4.90561e-05
0.000109888
7.55416e-05
0.00583165
0.00157525
0.0142145
0.000126575
0.00585782
4.83995e-05
0.00282027
0.00182483
0.00041378
0.00585266
0.000500654
0.000129487
0.00133845
0.00265995
0.0140278
0.000126136
0.00799001
0.000209573
0.00183069
0.00777888
0.00583563
0.00311032
0.00181034
0.00485235
0.00584751
0.00583185
0.00114593
0.00583414
0.00159463
0.000987664
3.68101e-05
0.000778113
0.000707873
0.00230692
0.0059026
0.000422375
0.00583556
0.000480592
0.00583376
0.000238818
0.00281146
0.0135235
0.00132506
0.00582917
0.00228831
0.00134008
0.000255074
0.00583048
0.00013188
0.000396272
0.00184015
0.00150706
7.6377e-05
0.000827569
0.00306339
0.000837237
0.00331426
0.000714076
0.00324527
0.00307629
0.00583867
0.0140561
0.000282263
0.0102494
0.0002343
8.47694e-05
0.00172896
0.0112343
0.0029106
0.00586049
0.000312971
0.00583196
0.00309081
8.03e-05
0.00586883
0.000622537
0.00286837
0.00252636
0.00571404
0.00366563
0.00595663
0.000401797
0.0120394
0.000564236
0.000506234
0.00108417
0.00259408
0.00144601
0.00801508
0.0103284
0.000954421
0.000511074
0.000804953
0.0106737
0.00583951
0.0058847
0.000521745
0.00583364
0.00582958
0.00183976
0.00583738
0.000237006
0.00270156
0.00118587
0.00583612
0.00583533
0.00226505
0.00124449
0.0048817
0.000910642
0.000103574
0.00237268
0.0058367
0.000119722
0.000949431
0.00107922
0.00278118
0.000216816
0.00583629
0.000233538
0.00212408
0.00584376
3.29205e-05
0.000632839
0.0110369
0.013972
0.000245042
0.0125974
0.00339693
0.00826628
0.000334469
0.000227522
0.00157137
0.000266734
0.00582968
0.0011307
0.000649513
0.000293266
0.000170585
0.00140189
0.00578382
5.1411e-05
0.000497684
0.00583533
0.00265141
0.000474059
0.00240257
0.00220944
0.0012756
9.65023e-05
0.000300106
0.0058456
5.20624e-05
0.00110242
0.00583569
0.000674905
4.67204e-05
0.00584181
0.00802382
7.04117e-05
0.000173093
5.5473e-05
0.0109593
0.000126853
0.0117842
0.0126407
0.00246183
0.0118928
0.00583515
0.00584304
0.00276671
0.00421145
0.00109558
0.00306938
0.00306444
0.00583637
0.00310466
0.00583644
0.00111348
0.00583274
0.000212799
0.000443189
0.000350399
4.43345e-05
0.000548221
4.79051e-05
0.0125859
0.0135881
0.000651868
0.000389065
0.0013077
0.0131149
0.00583295
0.000685677
0.00201331
0.000171594
0.00105154
0.000273814
0.000752203
0.000174174
0.000121691
0.000253629
0.00583415
3.71273e-05
0.000745595
9.25057e-05
0.00584377
0.00583169
0.000335009
0.00142688
2.66435e-05
0.000471514
0.000754147
0.0140701
0.000214568
0.00759851
0.00125376
0.00582998
0.00583661
0.00606626
0.000469795
0.0120214
0.000923003
0.00465364
0.00583275
0.000563344
0.000392971
0.00313769
0.000270137
0.00817112
0.00279441
0.000477664
0.000317142
0.0027361
0.000297275
0.00584782
0.00429898
3.93569e-05
0.00584981
0.00029166
0.00583401
0.00583409
0.0074397
0.00583275
0.000702173
0.000217813
0.00592689
6.43831e-05
0.000777663
7.89274e-05
0.00757485
0.0100608
4.26767e-05
0.00107217
0.000343639
0.0126672
0.000561597
0.00583153
0.000709658
0.00585121
0.00211512
0.0139132
0.0057456
0.00714819
0.00040417
0.00583447
0.00315007
0.000327113
0.000609043
0.011427
0.00198258
0.00118362
0.0128646
0.00590825
0.00199344
5.67777e-05
0.00246044
0.00047602
0.0110767
0.00199134
0.000335867
0.00118202
0.0132951
0.00583629
0.00585963
0.00104474
0.0058361
0.00060121
0.0129205
0.00659088
0.00583041
0.00250397
0.00583596
0.00279573
0.000120831
0.00535163
0.0146664
0.00231175
0.0126001
0.0011465
0.0113031
0.00113959
0.000745435
0.000679085
0.00034326
0.000119066
0.00208636
0.000713669
0.0129231
0.0138703
0.00110794
0.00131655
0.00108127
0.00583602
0.00582956
0.00583798
0.00583703
0.000922464
0.00583706
0.0130066
0.00583866
0.0124571
0.00584613
0.00330984
0.00585603
0.00232261
0.0107815
0.000445904
0.00223296
0.00583402
0.00455081
0.00965044
0.00428977
0.00270033
0.00313501
0.00030606
0.00652157
0.00123487
0.0058361
0.0127439
0.0031054
0.00023398
0.00173767
0.00173125
0.000134804
0.00109841
0.00584687
0.00125748
0.00155749
0.000171744
0.0121491
0.00583406
0.000650591
0.0058576
0.00208566
0.0132541
0.00201447
0.0118734
0.00502244
0.00368892
0.0058315
0.00375141
0.00758523
0.00102483
0.00170891
0.0040561
0.00214612
0.000382909
0.000705446
0.0115064
0.00587454
0.0058335
0.01252
0.00838199
5.69417e-05
0.002022
0.00110542
0.000556473
0.0146508
4.13721e-05
0.00583602
0.000778867
0.00179817
0.000608469
0.00012065
0.00438278
0.00583668
0.00587625
0.00218925
0.000230768
0.000226855
0.00311467
0.00583163
0.00583804
0.00583242
0.000643654
0.00587015
8.68998e-05
0.00583628
0.00130211
0.00141859
0.00583629
0.000758634
0.00583395
0.0014361
0.00072706
0.000583589
0.000524629
0.000156826
0.000388446
0.00583079
0.00582966
0.00180152
0.00958255
0.0101449
0.000463747
0.00111251
0.00358729
0.000162831
0.00206584
0.0125528
4.68366e-05
0.00134872
0.00110442
0.00538132
0.00583616
0.000913548
0.00225258
0.000584062
0.00225925
0.00295766
0.00582937
0.00186194
0.00175639
0.0122952
0.00315114
0.0095216
0.000545398
0.0121625
3.03099e-05
0.000359655
0.00113496
9.05612e-05
0.00135925
0.005842
5.18789e-05
0.000671453
0.000579568
0.00328562
0.0119302
0.0137976
0.00500128
0.0101383
0.00472422
0.00782734
0.000244976
0.00320653
0.000896027
0.00308881
0.00687896
0.00583605
0.00446361
0.000229861
0.000262628
0.00293904
0.00118801
0.0118598
0.00337955
0.000306458
0.000942285
0.00583548
0.00583521
0.0129239
0.00114406
0.00583177
0.0019823
0.0058316
0.00266127
0.000811245
0.00583634
0.000337542
0.00584412
0.000293172
0.0075314
0.00583325
0.000251851
0.0118033
0.00278079
0.00048862
0.00583355
0.00193904
0.00392944
0.00016268
0.000125571
0.0113459
0.00583283
0.000428628
0.000290796
0.00585215
0.00224375
0.00583673
0.00582971
0.00198925
0.0117361
0.00127583
0.00120537
0.000167395
0.00325436
0.000495851
0.000362229
0.00584947
0.00399356
0.00151401
0.0127607
0.00776006
0.000512703
0.00119539
0.000404485
0.00582966
0.00318258
0.00256418
0.000442504
0.00582867
0.000395412
0.0135278
0.00117138
0.00295534
0.013293
0.00583598
0.000465914
0.000169136
0.00308523
0.00228158
0.000467148
0.0118775
0.00575359
0.00029277
0.00586724
0.0137641
0.00583279
0.00139566
0.00100909
0.000226102
0.00738098
0.0058715
2.8705e-05
0.00583348
0.00585302
0.00158263
0.00151347
0.011907
0.00583765
0.00163261
0.00583447
0.00123937
7.31459e-05
8.6204e-05
0.00233817
0.000952085
0.00584123
0.00883195
0.000244127
0.0103315
0.000380082
0.00679121
0.000396966
0.00583201
0.00583602
0.000409942
0.0140802
0.00447926
0.00539632
0.000636893
0.000256119
0.00993588
0.00066367
0.000612226
0.00590089
0.00760757
0.00265095
0.00583586
0.00429572
0.00583726
0.000398441
0.000171166
4.04709e-05
0.00584274
0.000331321
0.00757393
0.000568651
0.000270926
0.00167584
0.0122988
0.00174136
0.0119391
0.00484339
0.0105592
0.00440342
0.00287326
0.00270604
5.88299e-05
0.00380421
0.00583311
0.00525012
0.00279558
0.00480655
0.00133992
0.0030343
0.00583854
0.0131777
0.000251704
0.00109271
0.0128218
0.00296358
0.012635
0.0143224
0.00183852
0.00583829
0.000428421
5.22126e-05
0.0078623
0.000788237
0.000510515
0.00128554
0.00542723
5.86109e-05
0.005837
0.0126511
0.0038464
0.00583323
0.00162637
0.00136016