/*--------------------------------*- C++ -*----------------------------------*\
| =========                 |                                                 |
| \\      /  F ield         | OpenFOAM: The Open Source CFD Toolbox           |
|  \\    /   O peration     | Version:  v2012                                 |
|   \\  /    A nd           | Website:  www.openfoam.com                      |
|    \\/     M anipulation  |                                                 |
\*---------------------------------------------------------------------------*/
FoamFile
{
    version     2.0;
    format      ascii;
    class       volScalarField;
    location    "400";
    object      omega_0;
}
// * * * * * * * * * * * * * * * * * * * * * * * * * * * * * * * * * * * * * //

dimensions      [0 0 -1 0 0 0 0];


internalField   nonuniform List<scalar> 
27802
(
0.0262881
0.0256903
0.026628
0.032208
0.0252167
2.45629
0.0252181
0.112983
0.0250551
0.450895
6.41754
1.36581
0.0363022
0.154287
5.84598
6.79712
6.25599
0.0250585
6.3844
6.88144
10.4719
5.92861
0.0248624
0.089088
0.463639
0.0409059
0.0252177
0.0394657
0.0250757
19.0188
0.0891439
0.0653855
0.0262053
0.0246725
0.0255806
30.8575
8.52083
0.0249402
0.0249722
8.13842
1.20687
0.0255901
0.0307066
0.0246948
0.0353478
7.70404
0.025412
6.2597
8.08417
3.38758
5.54165
0.0414615
6.24514
4.77297
0.0249805
0.0255353
0.210209
0.0253219
0.0322897
0.127106
6.76304
0.0265824
0.0336492
0.0248325
0.0247096
0.025372
4.07706
0.210392
0.127752
0.0252984
0.0246847
4.31217
5.21745
0.17522
0.0277173
0.0269045
4.06309
9.43582
6.88259
33.5133
0.0251523
0.0251693
0.0604025
0.0265878
0.0253515
0.0396945
0.0256358
3.56776
9.84291
0.0253458
0.0253003
7.56601
0.0250284
23.1891
4.84827
0.0434154
0.0251649
0.0418592
0.025367
2.65073
0.02497
0.0249258
5.29879
8.21944
5.24206
0.0340916
0.0253221
0.0247017
0.024969
0.0349332
7.28977
0.0253059
0.0246766
0.0253671
0.0253269
0.0248269
0.0312483
0.387344
3.87004
0.415194
7.55486
0.118861
4.32852
0.393529
26.6022
0.186577
0.0258755
0.028419
13.268
0.024694
0.112402
0.0564843
0.0255736
7.09699
16.9363
0.0265653
0.0785834
0.171971
0.0253655
0.0255386
0.135236
0.535674
0.0373086
0.0435559
0.0249449
3.57978
0.035145
0.0415384
0.0250545
1.66882
0.042468
4.67013
0.0307105
4.15479
0.0256549
21.3525
0.0263954
0.0441164
0.0247382
0.0255419
0.0248257
0.0253657
7.20796
0.0250486
0.0256341
0.0256625
5.07185
0.025171
0.0255224
0.0259303
0.0921662
6.74187
5.64036
22.0595
0.025199
0.249015
22.7075
5.96428
0.0248227
0.0253204
0.939801
3.5585
9.83685
4.29396
0.0247542
0.344743
8.20685
14.6527
0.17012
3.96746
6.192
0.0256908
0.0262946
0.464699
0.0249239
4.76913
31.1184
6.71614
0.476594
4.77443
0.0993888
0.0255496
0.0260364
0.0312402
6.30468
0.0654122
0.0251752
0.025057
17.1325
0.0250121
0.0250543
5.14519
0.0322412
4.92218
0.0247278
0.02521
0.108166
0.0257254
0.0252946
0.0256848
4.89322
0.0252103
0.0253306
0.258556
0.0254925
0.242471
0.0257906
0.0421923
0.0246565
0.0254694
0.0253672
0.0372921
0.205898
0.0255857
0.0256925
11.6566
0.0811583
0.0878122
0.0258624
4.97136
9.22767
4.3121
3.53251
3.98513
10.0761
0.0263268
0.0252479
7.4112
0.0247514
0.0255386
0.195153
0.0252719
0.385059
0.0258322
3.5875
4.0597
0.0294014
0.119896
0.0253543
0.0277873
0.0252505
8.06453
3.73364
0.162402
0.0252994
0.0251883
0.0256403
0.426377
4.09099
0.0630714
8.17415
0.0314387
10.0624
0.0250455
0.0252692
0.0255804
0.055334
0.0254581
0.0250314
4.0071
0.0257248
0.0503679
0.718643
0.174665
7.30506
0.0278304
5.88853
0.0250387
0.182102
4.22332
0.611739
8.18937
7.26241
0.0327308
0.0246532
0.0253609
0.0257812
29.1907
8.31161
0.118274
8.45304
0.0480644
3.48052
20.8731
3.91737
0.025464
0.12097
0.025295
4.00303
0.0249519
3.35335
0.20653
4.63318
0.0253171
4.70717
15.4151
0.0921143
0.0250767
0.0391202
5.02182
0.0249532
0.0273184
0.139397
3.47886
7.99024
0.0250272
0.0583044
0.0848902
4.72556
0.0252421
4.31687
0.0250656
0.0255433
0.145087
1.08759
0.0257513
0.0253023
0.0253418
0.197814
0.0269691
0.025112
0.642045
0.0252345
0.536496
5.31655
24.3595
0.0269342
0.0251122
0.0263298
0.0250721
0.346585
0.314206
0.0251508
0.120298
0.025339
0.0250022
0.0260012
0.025205
7.49157
0.0250295
0.242698
1.5952
5.36147
0.0247001
0.0251308
0.0251523
4.27567
0.0250446
0.590973
0.0246388
0.205349
0.100874
8.3549
0.02646
0.0258724
0.025236
0.0971496
0.0253144
0.183156
0.0279456
0.0347816
0.025551
0.0253401
0.0256845
0.0251729
10.0186
0.143759
0.0871707
5.12873
1.55874
0.0252452
1.24725
0.0253935
0.0252314
0.0835453
0.026371
0.0255486
3.68695
1.57681
4.1908
0.0635207
13.7892
0.0254285
0.0254634
0.166275
4.6696
0.0254593
0.0294751
0.115344
0.0280734
0.0250229
0.0356666
4.4555
5.07543
3.72852
6.80666
0.0252534
6.921
0.0249215
0.420341
0.0312255
5.59622
0.0256924
0.0252125
0.0295873
0.0261516
0.0419315
0.0252451
0.0252987
0.0809623
0.0253602
0.025381
0.2386
5.78951
0.0579207
4.58562
0.113315
0.125178
0.190086
0.0252235
0.0394784
6.75728
0.0271633
0.0253189
0.0362842
0.0277524
0.0567526
0.025811
0.0253635
0.0252585
7.43672
3.39923
0.0258028
0.0251921
14.7387
0.0255476
4.43354
0.0255408
0.0253535
0.0268669
0.835207
0.0253207
0.0246345
6.78541
0.0253938
0.0560721
4.08778
0.14772
0.0253488
6.52522
0.668058
0.122824
7.24942
9.22923
0.0265458
0.0425188
0.0248238
1.38022
0.0254647
0.110831
0.0252139
0.0306502
21.8979
4.08524
0.0252014
0.0253182
0.0590848
0.0256753
0.0252283
0.0251728
0.0250332
0.119577
0.0354502
5.04786
9.21003
0.0249612
0.106396
3.69636
0.0299174
0.0258571
0.0247042
0.0256401
5.14609
0.270716
0.0444947
4.78258
4.51251
0.025319
5.9484
0.0249651
2.40227
0.0357997
0.0251683
0.0277027
0.0252375
0.0284164
8.3012
5.41071
0.0301492
6.83616
4.73913
0.171674
0.0253449
0.02535
7.29639
0.0524733
0.0256571
0.0541264
0.0336748
32.71
0.0751333
4.1565
0.0299686
0.0253605
9.32338
0.0253233
0.0253942
0.027255
6.01596
0.0251644
4.62457
0.0278658
1.47894
0.164128
9.35509
0.0246939
0.0253432
3.90924
0.0650018
0.0254128
0.063931
0.0263665
0.0252235
0.0250777
6.03247
0.0566505
0.732822
4.20755
1.57141
0.0251093
4.1966
0.0522841
0.0252362
0.136933
6.79384
0.025347
0.0254232
0.0251912
4.48475
0.0250749
0.0248217
0.0248626
0.0252949
0.59474
0.0250429
6.4916
0.0453859
0.0252505
0.0904712
0.0573655
4.06673
4.1188
6.94078
0.0252972
0.0249241
0.0249725
6.3973
0.0250343
4.02763
1.03894
0.0685302
8.18909
8.78394
0.0255926
0.0253555
4.75467
0.107832
0.0251105
0.0255746
9.75622
0.170073
6.74532
5.01698
1.782
0.0269681
1.38633
20.7778
0.0252043
5.74199
4.13339
0.0616831
5.39115
12.7781
0.0272966
0.0712304
0.0252317
0.0753257
0.0251144
0.0311454
0.038015
0.0824073
12.2486
0.105669
4.58413
0.0269314
9.79325
0.025663
0.026367
0.0348481
0.108645
0.0253507
0.104917
0.0253757
0.0562476
0.0637065
0.0251937
0.0253539
0.0379073
0.128056
0.0574758
0.865017
0.0281935
4.73778
3.49249
1.22563
0.0252234
0.0477114
0.569044
3.88435
0.0281935
0.0251696
1.48877
0.121938
0.0253003
1.63385
0.0256629
3.03904
1.8409
0.025659
0.0252313
0.284023
0.777255
0.028106
0.0309475
8.60009
0.0256707
0.0263778
8.56415
0.026285
0.0956029
0.0252348
0.0247842
0.025113
7.17973
0.0364787
0.0255411
9.09667
0.025182
0.0308565
3.89035
0.0255979
3.30353
0.0440688
0.0250748
0.0262965
0.0249329
9.961
4.77991
4.45462
0.0250365
5.05087
4.71607
0.024936
6.56501
0.0516807
0.0256685
0.0250536
0.0253709
0.0281638
24.0862
0.0251248
0.0256696
0.0783721
4.92357
0.0255407
7.26321
3.67313
5.30964
0.0247786
0.0266276
0.0256759
0.026751
0.108589
0.0252551
0.0264811
0.0256739
0.0280925
0.0285002
5.13793
0.503262
0.930016
0.0332666
0.0479574
0.0418679
0.0251289
0.0249487
0.0252005
0.255663
0.0767013
12.8496
4.08881
5.37795
0.0251164
9.44438
0.0250915
0.0255439
4.0193
0.0252625
25.5772
4.73582
31.2938
11.7519
10.4875
0.0252957
0.0521239
1.35706
0.0392362
5.48898
0.140302
0.0250824
3.3407
0.0253635
3.58876
7.46191
0.0255619
0.0247915
3.32764
0.0250691
0.0256292
20.3605
0.356462
11.5861
5.86295
0.025293
0.0311984
0.026102
0.0565306
0.0249493
4.86647
0.0445801
0.02524
4.97343
4.46904
0.187612
0.03707
0.0253602
0.0254052
2.11712
0.0495024
0.0273615
0.191773
4.04041
0.127923
0.0256921
0.0254077
0.0628689
0.0250632
4.52162
0.194228
13.1051
0.0264805
5.08606
0.0252098
3.87051
0.0464901
5.97491
0.048674
5.09291
0.0264599
0.035921
10.8398
0.0267017
0.126767
1.09986
0.0264478
0.11017
0.0598768
5.95521
0.0319588
0.0250414
4.3632
0.0255341
0.0250686
0.168378
25.3408
0.161521
25.5146
0.0336963
0.0255345
3.59283
0.5643
0.0256073
5.1733
0.0818082
4.33417
0.0251555
0.0263209
0.0590766
0.0252065
0.0541998
0.0250873
0.039793
5.61544
5.89785
0.0276625
0.0486225
4.48072
0.0255409
0.0252652
0.0251941
0.127085
0.599059
0.0255775
0.0253784
0.0447152
0.0425565
5.54827
0.0406802
0.17371
1.6076
51.3349
0.0255036
3.78037
8.02299
0.0362906
4.5188
0.0252963
0.0271709
8.18536
0.0251991
10.5259
31.409
5.21815
0.0328109
7.05992
0.0289551
12.3195
0.0253539
5.26898
0.0570153
7.72783
0.0333019
0.0253865
0.0272366
0.0251957
5.56207
0.213333
0.0596785
0.187147
0.120943
0.0287488
2.0654
0.18097
0.167371
0.833381
0.0422543
0.123287
11.6923
0.0253638
0.0256493
0.0526897
0.0401324
3.49663
0.0419564
0.0250231
0.241197
0.0252673
0.0263152
0.0253735
0.0256274
0.0256481
0.0263386
0.0256344
0.0427169
0.0251875
0.0367562
4.45815
3.83299
0.0252782
0.025391
29.0197
0.025299
0.1212
0.0249714
0.305161
0.0639199
4.27644
0.0808988
0.0252075
0.0255456
0.0508929
0.0621307
0.02567
0.511226
0.0256841
0.0940162
0.0255426
0.025607
45.8002
2.45663
0.0249661
0.790377
0.296321
0.093086
0.0301707
0.0249859
7.66751
0.0271181
5.56673
0.0259603
0.0546897
0.0253349
0.0256539
0.0256975
5.47221
10.3886
2.06743
8.14301
7.58941
3.36768
0.0249599
0.0252099
0.148137
9.03118
7.27638
0.0522864
0.0255241
0.0248799
3.75795
0.0762358
4.48594
0.0252142
7.34063
0.0304276
0.125763
0.025183
0.0612508
0.0563967
0.0249275
0.0251388
0.0523053
0.035939
0.0252173
0.0262319
0.115914
0.154924
0.0249556
0.12132
3.45122
3.33249
0.0951483
12.1858
8.7911
0.0299369
0.0252648
0.943523
0.0721963
0.0255259
8.38587
6.19383
4.10194
1.05891
0.186015
0.518365
0.0253988
9.90307
3.68088
0.0401535
0.0368743
0.0249451
0.0253601
0.27138
0.0265648
0.0255971
0.0255352
0.0989219
0.025441
0.0250835
0.0253688
0.0264509
7.2359
0.0269734
4.86292
0.0253236
15.755
0.150191
0.025198
0.132804
0.0251313
1.03954
7.90367
0.11071
4.68348
0.180474
0.02482
0.0293937
0.0246881
0.0316144
6.06239
5.63421
5.68011
0.0256703
0.0249605
0.0266464
0.708207
0.0254122
0.0255442
0.0417726
0.0253389
0.0734642
0.097788
0.0250717
0.024945
0.0252619
5.94474
0.0258802
0.0253966
0.0812124
6.02154
0.0253377
0.0248995
4.57839
0.0253937
0.0248619
0.758513
0.0295748
0.0252268
0.0256754
0.146869
0.0256459
0.0252788
0.0252927
0.0255015
5.93336
8.73282
0.0253422
5.42836
0.0253001
4.05268
3.32114
0.0255967
5.89983
8.56728
0.0295472
0.0249324
0.0250507
5.11696
0.40485
10.8235
1.73871
0.0256683
0.144687
0.0253815
3.37541
0.032064
8.09983
0.0256923
2.81305
6.13624
0.33402
0.025471
3.59938
0.949418
0.0253575
0.174233
0.0251845
0.0255466
0.0253945
0.0249895
0.0313313
7.31135
7.98458
0.0253534
0.0254119
3.1756
0.0264949
0.0277108
0.0253506
0.0254999
5.1136
0.0252218
0.025273
0.0289455
7.06772
0.0291796
0.0253072
4.65692
0.0252032
0.0266471
0.189136
0.0268939
0.026593
7.08449
0.0726405
4.33609
0.0371214
0.0299459
0.0255696
0.0514431
9.74943
0.0393126
8.82326
5.13633
4.82009
0.135631
0.0252894
0.0258592
0.0252502
5.8749
25.9656
0.026363
0.346728
0.0249075
5.75583
0.0254117
0.0253479
3.37662
0.0843194
12.1215
0.0249537
9.16034
3.75896
0.025348
0.235146
0.0256723
0.0732649
0.0247052
0.0260362
0.0361641
0.109061
0.0252434
0.0373596
8.36704
0.0249514
6.78095
0.026777
0.0319313
0.481726
0.0263724
4.8287
0.0268623
0.0251892
0.245505
0.0264731
0.025525
0.239263
0.0251149
0.0249933
8.77414
0.0251298
0.0249664
0.0309371
12.834
0.024779
0.0256735
0.0250558
0.0255712
0.0254936
0.0574742
5.35821
0.210135
0.20752
0.0249386
0.0250161
7.98718
5.06621
5.1359
0.0250622
9.21448
0.412379
10.4129
0.165648
9.1813
0.0442009
0.424088
0.459055
0.0852371
0.0249521
0.0260311
0.0729379
0.024773
0.109852
0.0301272
8.42268
35.2087
0.0319961
0.0558054
0.0255074
10.6003
5.32691
0.172849
0.0459839
0.334609
0.0253946
0.0257598
4.52497
5.29688
0.0556138
0.0261281
0.0250057
0.0253996
0.0330391
0.0248717
0.0405516
0.0253637
0.0254572
7.711
6.99811
0.0255368
4.19376
0.0256263
0.0264946
9.85575
0.0317613
0.025214
0.0252827
11.107
0.0251963
0.0258767
0.0250513
4.98416
0.422956
5.49519
5.79777
8.62487
0.124189
0.0252719
0.0255684
3.82958
3.25347
4.89925
0.141682
0.0255004
6.65649
0.07349
0.576272
0.0253968
0.0339466
0.0253114
2.84212
5.21537
6.05159
0.855491
0.0249235
0.0397165
8.6613
12.9673
0.0253644
0.0543203
1.66948
0.112938
0.127845
0.899637
0.0253554
0.258645
8.8821
7.24297
0.172234
0.0246708
15.2014
4.11289
8.27913
0.093416
0.0253964
3.83092
0.0293789
0.0254066
0.0256275
6.9548
0.0435676
0.025655
0.0255511
0.116428
0.223975
0.0289137
0.0446569
29.1332
0.0251906
0.025262
0.24778
0.0268769
0.0253112
0.025261
0.0253502
0.0254248
9.68104
4.04081
0.0509973
1.95104
0.0431579
1.9583
0.0252468
3.82732
0.0252396
5.38595
3.6155
0.0249378
4.97491
10.463
0.0253814
0.0544656
6.52152
11.7553
0.0256617
7.91038
13.1266
4.29154
0.0253151
0.0255426
10.2675
2.63057
0.144075
4.49706
0.121378
5.981
0.0254066
0.0261082
10.1378
0.0255524
0.0249864
0.0256291
3.96194
0.0253559
1.23247
0.147639
0.0252866
0.0253627
0.025545
0.0591826
5.5373
0.0406328
0.0254634
0.0254141
27.4607
0.0415404
3.66575
0.809614
4.93918
0.143066
0.120563
0.110583
0.584411
0.0590648
4.29873
0.0605258
0.0252082
0.0259
0.247574
0.0313739
0.0256434
0.137128
0.0821103
0.0251672
1.07637
0.0383319
0.0256036
0.0263451
0.0256817
0.0722348
0.0253359
0.0252896
0.0247965
0.730441
3.62267
6.59429
4.56458
3.99146
0.024985
5.38203
0.0251527
0.0253744
0.0253628
10.2283
0.0250986
0.0266253
0.0253344
0.0255688
0.0252439
0.0253026
0.164213
7.28712
0.0276186
0.0252089
4.30094
0.0278216
0.172037
0.0251033
5.87376
0.0256858
0.0254763
5.94165
0.0318824
0.0254072
5.73797
7.8801
0.342465
0.0253239
0.0376441
0.056709
1.1638
0.0253068
0.0255284
4.22339
4.42287
6.87355
0.0254851
0.0252629
7.89207
9.20809
0.261813
0.0253375
3.43549
0.118389
0.0249937
0.0255429
0.0253353
6.15671
0.0635089
6.10303
9.8996
0.0252312
0.0250681
4.07333
4.39868
0.125741
0.0250181
6.76067
13.65
0.0259748
0.0253338
0.166759
0.507704
0.0261602
0.0254065
5.03294
0.0253574
0.0251633
0.0253133
0.396665
6.68167
0.0252741
0.0252777
5.21032
0.0249101
0.0252699
0.531808
5.71314
5.41146
8.39988
0.0256487
0.0252195
0.0261812
0.158972
0.0663412
0.263586
4.2552
0.026029
0.0255373
26.2297
0.0253389
0.0306017
18.4639
0.0251668
0.025319
7.50336
0.50954
0.0254205
9.71498
0.0256642
0.0256719
0.0276583
6.46398
0.0253294
0.0255204
0.0247303
0.0398462
0.229433
0.298339
0.104077
0.0256699
0.0259064
0.0254105
3.88916
4.44911
0.0250606
1.61856
0.0353035
0.0308885
0.109902
0.0255263
0.13104
3.68674
0.024986
2.28249
0.0252346
0.0255812
0.027608
0.0252299
0.0246624
0.163965
0.0256929
12.9165
0.0649836
0.0253217
0.0252852
5.77662
0.0254198
0.0253632
0.0246965
0.0256839
0.110551
0.0264919
0.245996
0.513713
0.0249888
0.0339947
4.37334
0.0564746
4.74892
11.3791
0.0252979
25.4048
4.94089
0.0246953
8.85276
0.0253629
9.44813
3.887
0.0725987
8.65542
5.55344
0.0263748
0.0255951
5.00296
0.0255055
0.08412
5.3305
6.61467
0.0348221
0.0251219
0.171725
0.137321
0.025351
0.025528
0.0255733
0.0741902
0.055397
4.11147
0.110909
0.0249202
20.7918
0.0258722
4.19063
0.209948
9.91676
0.0250656
3.65007
0.0251209
0.143739
8.04374
4.39229
0.192418
4.14568
0.172857
0.0246775
0.0255397
0.0251302
25.4174
4.83228
0.0584582
0.0255437
0.0252691
0.0263005
0.0259552
1.39465
0.025634
0.976814
0.0739811
0.28152
3.65791
0.0854661
3.79798
4.67736
0.0252059
7.1011
0.0679054
0.0624649
3.47148
0.0375039
0.0451101
0.119002
0.0250378
3.59392
0.0254075
1.69405
7.34903
0.0252047
0.337959
0.0256123
0.0252272
0.0253718
0.854302
0.0250117
7.49476
0.0251585
0.025114
0.0554013
0.201519
0.0257782
1.26087
0.0256933
1.05591
0.0246836
0.0256866
0.474472
5.80423
0.722513
0.0255519
0.0246034
0.026139
4.56979
7.55372
0.0250212
0.027216
0.26855
0.0366461
9.09305
0.0256084
0.0274519
0.0251519
0.0364275
3.3469
0.117659
4.40747
0.0251938
0.0257487
0.0252332
0.0253715
0.106293
0.200616
0.0253696
0.0260977
10.8095
0.0259685
4.87472
1.49903
0.0259977
0.0253573
4.68522
9.98097
0.0255021
0.0249503
0.0253962
0.0256721
3.47319
0.0495331
0.0255391
0.0610694
5.87695
9.90697
0.115974
0.024894
6.32147
0.0277806
0.358054
1.64928
5.74454
8.31626
0.109322
4.18157
0.20101
0.0251006
5.00151
9.03573
0.0252971
0.128093
0.0254828
0.0248687
0.0318793
0.0961117
0.0439825
0.0256382
0.0247031
1.33973
0.0253659
0.025403
0.0358137
0.436118
0.659331
9.62421
12.5317
0.0248682
0.0640344
0.0253595
0.0746256
0.0260275
0.0255448
0.0349991
0.0251205
0.0250679
0.126872
0.0249459
0.0248937
9.81076
0.0265946
0.0267892
0.0721036
0.0286664
6.11068
3.05529
7.07155
0.0253014
0.108026
0.0655437
0.0251924
0.0255364
0.0682612
0.0252425
0.121777
6.60618
0.0446889
0.036067
0.0253088
1.76493
0.0255973
0.0250217
31.1192
5.30992
0.17332
4.72502
8.44845
0.02471
0.0358767
0.0251859
0.0246157
0.0247734
7.40438
8.64334
3.56419
3.86034
0.0521
0.0575368
0.0250973
0.0601772
0.0272708
0.0619999
4.973
0.0253989
0.025668
0.0335649
0.0297705
4.53672
0.0253371
0.0255843
0.0256703
0.0318226
0.0249754
8.05094
0.0332291
3.75711
0.0252318
0.0573662
0.183758
0.103521
4.48415
4.71245
9.90443
0.0254574
0.186084
0.0305292
0.025207
0.0455586
23.7059
8.48284
0.0550899
0.115703
0.0254001
4.23722
0.0253512
2.85765
0.0442772
0.0253462
15.6113
9.23093
0.0252883
6.77071
0.215807
0.026426
11.3269
9.06237
1.40052
0.0271114
0.0247193
8.5672
0.0254734
0.0346949
5.42274
0.628473
0.0251447
7.21169
0.0253083
0.0255451
0.0442282
0.0253143
9.30608
0.0890056
0.0255864
0.0835124
0.0248027
0.0251784
0.025538
0.0349378
0.86336
0.0255175
0.274358
0.28276
0.0737429
3.55918
0.079
0.0558321
0.309616
0.0253061
0.0252043
20.6467
0.0564089
0.0252994
9.40273
0.0256857
1.01902
3.77385
0.405587
3.95033
5.17084
0.0253451
0.0550863
3.24136
0.0686305
4.81018
0.882147
0.0253633
5.03584
0.025799
1.23478
5.75238
0.0318883
0.0252106
0.0264947
4.34494
0.202553
0.0253942
0.0379188
6.45425
0.0250953
3.6683
0.172691
0.0267232
2.373
5.31723
0.0253769
0.0256671
0.0261876
3.85314
0.0254579
0.035372
15.8517
19.7261
0.0252672
8.2381
0.384956
25.6253
5.3941
7.84885
0.141687
0.12713
0.0251672
0.0252879
0.836047
0.0250028
0.0723476
4.9115
0.0283474
0.0866681
3.98899
0.0273011
2.07221
0.0256927
0.116019
0.0402567
0.0247247
1.07837
0.0253874
0.025306
0.0248995
0.0249881
0.0254304
0.183378
8.36049
0.0308171
16.6184
0.0263324
0.024883
4.19955
0.0562481
0.0259375
0.0273409
0.218615
0.998275
0.0560699
0.0253588
0.0287318
0.0255816
0.0248459
0.0599545
0.0253992
0.4883
0.025308
10.2178
4.9922
0.0251186
3.91011
0.16318
0.114245
4.45186
0.0364133
0.0253753
0.0255508
0.0264276
0.024965
33.7034
0.602601
0.0256847
0.0256849
1.24339
0.0254955
0.0748372
0.025312
0.0251908
10.0148
0.0250643
0.0290048
0.0252058
0.0252073
0.0253653
0.0250483
0.025436
0.0252954
11.5474
0.0617544
0.0252664
0.0252045
0.0929702
3.43928
0.0256349
4.20206
0.146323
0.0573577
0.0869034
0.0251072
11.627
5.4867
0.440253
0.0251607
0.229088
0.0254292
0.101871
0.259393
0.0251181
22.1248
0.0544325
0.0259214
8.69644
4.20492
0.106155
4.54371
0.0411602
0.0255539
4.35246
0.0256459
0.025302
0.0648479
0.0251548
0.0248611
0.0253305
0.0764169
0.0246208
9.50385
0.0290308
0.886018
0.0272285
16.3502
7.34435
5.43467
0.770138
0.0256445
0.228351
0.0253197
0.0372936
0.0253267
4.03448
10.6474
0.0250822
0.0256149
0.0263423
0.0679988
0.0252392
2.94415
11.0476
0.0520963
10.8396
0.113977
0.0295956
0.0256357
0.0272943
0.0253357
1.03566
0.0268242
8.01318
0.0253587
4.66841
1.05155
7.43333
0.0377389
0.189478
8.42644
4.2542
0.0253175
0.0248946
0.163667
0.0252347
0.0254307
0.0798214
0.02496
0.0277531
0.0253814
0.0254098
0.0250675
0.0253451
0.0254979
0.0512295
6.10069
0.0655655
0.062621
0.0270129
8.89937
8.88738
4.56197
4.34587
0.0403643
0.0405618
0.0274844
4.55512
0.0252981
0.0248576
0.487715
0.0254834
0.0248427
0.05536
0.0250511
0.0680887
10.9263
0.0287405
0.0256743
0.0256003
0.0254082
0.163767
0.0251611
0.0424043
0.0725621
8.06041
0.0253137
0.0550724
0.0283231
0.0311274
0.0257929
0.0440425
0.0256857
0.0413235
8.71004
0.0252019
3.31755
0.223875
4.35808
3.75699
0.0643643
4.63154
7.32359
5.25729
0.521974
21.3602
0.052926
1.04524
0.0252426
0.185844
0.22948
2.72664
0.169124
0.0259424
0.0250969
0.150029
0.222334
0.0256275
0.025965
0.0506237
0.0254281
0.0254504
0.0260078
0.182193
0.0440329
0.0249431
4.39571
29.2938
0.0253586
0.0351964
0.153589
0.0249441
3.85795
0.0927415
0.0509068
3.9781
7.07818
0.054543
4.22715
3.43088
9.10789
6.32022
0.0253623
0.0249619
6.25994
3.63202
0.0268364
7.58363
0.0252884
0.025216
0.0252676
0.0256926
0.0265259
0.0254163
0.0818822
0.0405486
0.230527
0.227513
0.032721
3.86923
3.51122
4.64973
0.0353023
0.711921
0.0266439
5.2701
0.0249041
1.16161
10.1459
0.0893417
0.201798
21.0864
1.39875
0.0506367
0.0558256
0.0417978
0.0254073
0.933428
1.73066
0.153516
0.0246816
0.0253764
0.0356922
11.1938
1.03146
0.0303417
0.125945
5.1318
0.0411382
4.55774
0.0347992
0.0246465
0.0253292
13.589
0.103588
6.51331
0.026614
0.0253159
0.0252694
1.10571
0.0321484
0.0253397
0.183073
4.59859
0.0258771
0.197543
0.883835
0.0260211
0.401695
0.0249503
0.0251866
0.26198
0.0251191
0.0571808
0.0255405
0.0255477
3.95713
0.0254244
0.0344443
32.5977
0.025041
0.197701
0.0282698
0.100387
4.92207
4.08745
2.34572
0.178124
0.245392
4.77355
0.085764
0.0250214
0.0450048
0.0251267
0.025499
4.52353
0.0252621
3.71344
0.0918371
0.0252191
6.75866
23.8972
0.0278474
5.23034
0.0255359
30.3397
6.10059
0.0251178
0.0255094
0.126507
0.0253927
0.538947
6.1051
0.0255083
0.0333594
0.0303142
3.74427
0.0256859
5.3119
10.7727
0.0253031
0.0538305
3.71848
3.95308
0.0252237
6.62089
0.025667
7.28591
0.0582504
0.0253363
4.23283
0.0254213
3.86823
0.0261761
3.79178
0.0261769
0.141293
0.224994
0.0342848
3.27199
8.73025
11.3856
4.31154
4.08435
0.0265651
0.15539
0.0264518
0.0256711
0.0252258
0.0251783
0.0253683
8.19061
0.0250362
5.71213
0.0251826
4.08108
0.0249561
0.0253169
0.0251171
0.0259239
4.31519
0.055507
9.50936
0.0255562
6.20173
4.28155
0.0251172
0.0253308
0.0253073
0.0590765
6.00231
0.0412067
0.0256731
3.94896
0.0252697
0.102933
0.0568461
11.4516
0.0535154
0.0263921
0.0251156
0.163404
0.11055
0.0500922
3.76096
0.0253474
0.380146
0.0248606
9.47376
5.37943
0.0255198
3.50089
0.0252613
0.0252335
0.0250066
0.0251939
6.27299
3.42123
10.1005
12.1075
0.0320299
0.0599433
0.0463637
4.17984
0.0247969
0.0254642
4.12986
4.3486
0.119065
0.0356041
0.0760487
1.01558
4.36705
0.284322
0.0256713
0.0273511
10.8568
0.446955
0.0705481
17.1617
0.025318
0.0248151
0.0259453
0.0397149
0.0412859
7.51871
0.0251355
0.0251927
0.0249168
0.964811
0.0249976
7.83645
0.025685
0.0381181
10.2811
0.0256851
0.133896
0.0255532
0.0266958
0.0278582
0.0570653
0.143117
6.14535
0.117729
0.0246854
0.0249847
0.0611147
6.68216
3.52913
0.0308047
0.188532
4.70226
4.48163
0.0255448
5.76412
3.6269
0.0821797
0.0344715
4.34457
0.0256791
0.0648492
0.0254622
0.596368
7.94993
0.0255613
0.0246491
0.0358409
10.4925
4.20196
0.0252697
4.48024
0.105234
4.04593
2.02578
0.0336493
0.185026
0.071322
0.0264454
0.0249637
2.83115
4.00534
0.165236
6.45788
6.55286
3.73651
5.87917
4.36969
0.0251662
4.76571
0.0374758
0.0252667
0.0308034
0.0267777
5.09619
0.0256716
0.0253305
0.359846
0.110483
0.0253239
2.60623
3.98291
5.802
0.0360258
0.0799742
0.0252371
0.0256259
5.52505
0.182487
0.0251388
9.88119
0.0250362
0.0253391
10.3582
0.0256862
0.0911433
0.0246549
0.455767
3.88504
0.0249198
0.0370148
6.20948
0.0253323
17.5945
0.0254778
10.3961
0.0251876
0.106961
0.0523934
4.14022
0.0253857
0.436561
0.970602
0.0250572
0.0254646
0.0250605
0.0250522
8.65214
3.90333
0.0846314
12.4037
0.16887
0.0252819
0.0584131
0.0316392
0.025055
0.0251112
0.0410669
3.56054
6.23657
0.0556241
0.173729
0.23331
0.024988
0.0252772
0.025703
0.572408
0.0247292
22.2485
3.92783
0.111392
0.0253125
3.65477
0.0256658
0.569742
0.354036
0.0252828
0.025447
0.031281
3.34119
0.0251285
0.972369
0.0249903
6.12914
0.025052
4.73814
0.0295035
0.0379771
4.62468
0.0249938
1.45655
0.0254587
0.0251626
10.0339
0.106177
4.1884
0.0249323
0.0256292
0.0255694
0.166441
0.171494
0.077063
0.0259823
0.0288649
0.0249844
3.64623
0.0409068
7.72138
25.7618
9.87682
0.0333122
0.0248572
0.0256717
21.9843
4.15455
0.0251664
0.0250372
0.111987
0.0943203
4.14936
0.053573
0.0278321
0.0249361
6.39187
0.026145
0.0256571
5.95414
0.0249412
0.0959334
0.0436826
1.13661
0.0246442
0.145509
7.46974
0.0290281
42.088
11.123
3.55938
0.0616074
6.41789
0.0250342
4.35498
0.0253176
7.35313
0.0263835
0.205553
0.0251897
0.0255066
4.91753
8.04559
0.0253004
0.0754515
7.00362
0.0247457
5.19544
0.0606218
0.0568469
5.34433
0.0253591
5.70221
3.94208
0.0265727
0.024874
18.5623
0.140623
4.5424
0.0305475
0.509602
0.0259701
5.19403
0.11797
0.0251873
3.48934
0.0251895
0.0255128
0.0263413
0.0330416
8.24181
0.0259583
0.0318195
8.66657
0.0426359
0.0831218
0.0269227
1.95771
0.0354519
4.33334
0.0254638
0.0255058
0.0255887
0.130036
0.042971
0.051536
0.0327202
4.17288
3.9348
0.0727452
0.0252436
0.0495005
7.36262
0.0255055
0.0256123
6.67835
0.373602
0.0253203
0.0396117
0.726655
0.0253333
0.0566759
0.0370438
0.0253551
0.0304823
0.0262258
0.024937
0.0254006
0.0306315
0.0947144
0.0383544
7.30002
0.0252214
0.0255855
4.30646
0.025927
0.091884
0.0256556
0.0253789
3.45276
0.030195
0.0246623
0.182861
0.0249209
0.0254651
3.76899
0.0253676
4.43722
0.0249095
0.392867
0.427165
7.061
0.0561467
0.0250387
0.0250869
5.33895
0.0256723
10.3928
0.0249176
0.0255835
4.71536
0.0255964
0.032864
4.62464
0.0364039
0.442213
0.0249271
0.025358
1.24465
4.56978
0.0249237
0.0253334
0.0510901
23.6757
0.0287256
3.6132
8.38567
0.0251312
0.0772493
0.0303861
0.0253467
0.025283
0.0253577
0.0253399
0.0798187
0.0251117
4.55031
0.0251135
2.69735
0.106425
0.110672
18.593
0.124099
0.200114
1.4066
0.0335042
17.744
0.0268242
0.0251422
0.0254778
0.0251844
9.29717
0.0400341
4.14215
0.559611
0.0255993
0.0347444
0.0982374
0.025901
0.0251232
0.0251895
24.3335
0.168225
0.0286887
0.0253394
0.0248705
0.0550878
0.0313885
0.0317447
0.0255914
0.0253377
0.0255005
0.0248581
12.5364
0.0428532
4.47676
9.86968
0.0264761
0.0256163
7.98806
4.01777
0.0437206
2.02515
0.0248595
0.0840804
0.0591829
0.0253248
0.0521221
0.492662
3.92512
7.67489
0.0249313
4.33997
0.0254063
0.0950763
0.0253878
1.32036
4.38114
15.6052
0.105204
14.6533
0.868327
0.0338219
0.0348692
0.0250344
0.871961
0.0254964
0.025633
0.0258254
7.9144
0.180226
0.0259263
0.0549031
0.0278374
0.0247731
0.0254297
0.0265386
0.0254072
0.0253307
0.0250651
0.0251495
0.0253391
6.92503
4.32153
0.0253718
4.73793
0.0652887
0.0345434
0.0928696
0.0254932
0.386179
4.06431
1.39592
2.15409
0.0712132
0.0309461
0.0249366
14.2536
7.70643
0.0256278
5.0686
0.026265
0.128723
0.0254842
4.80096
0.613155
0.196399
4.82467
0.0254339
0.02515
7.55919
0.118927
0.0252866
0.0253289
0.279065
0.0253158
0.612092
0.0248596
0.0285677
0.025715
0.0253043
0.117029
5.60847
0.728968
0.0253078
0.025195
4.80758
0.0312781
0.0250388
4.34984
0.038439
0.0261327
0.0253119
0.0251268
8.30298
0.0255362
0.045414
0.0338399
0.604096
0.0824716
0.0794124
0.0642176
0.425778
0.0253592
0.0255449
7.94301
0.0249792
0.0550895
0.0253167
0.0255076
0.0255675
0.0259223
0.0567174
3.5306
3.48577
4.81021
0.0252958
0.0252296
9.0762
0.0252031
0.0823911
4.43987
0.0393158
0.0252473
7.05809
5.72396
0.0254712
4.14731
5.98358
0.0438077
0.025512
4.12427
8.67172
0.0254058
6.9072
21.6733
4.46505
0.295753
0.478626
7.07987
4.61319
0.0251874
4.39432
1.5935
0.0778282
0.0250688
0.0255943
13.7478
0.960401
0.401469
0.0371471
8.91605
0.0540728
0.0329097
4.53317
0.0252715
0.0910543
0.0252844
0.126723
0.0263076
3.66605
3.65221
6.8597
12.9864
6.09065
0.0263111
0.0247
0.0251431
0.0252943
0.0252119
0.135996
2.50824
0.027464
6.16222
0.0259674
0.513188
0.0256491
0.0256644
0.0248325
0.0405593
0.025675
0.0260228
0.0435377
0.0756932
0.0257369
0.0260246
0.0271108
0.0248695
0.0586628
0.0658787
0.025303
0.0318984
0.0254904
0.739716
0.0250784
0.0271989
0.0256392
0.158753
0.0801971
0.0253208
0.0308638
0.0700983
0.0268631
0.0252136
0.0255589
0.025575
7.12994
4.30937
0.0251114
0.102504
0.0575907
0.0254001
8.39677
0.0255523
5.73951
0.0251226
0.0254861
0.0290821
0.110581
0.0436759
0.0253575
0.0253578
0.0305149
0.0307682
4.8055
3.45694
3.51245
0.0259408
0.0251198
0.0253294
0.0265824
0.027384
8.93492
0.0252225
0.0255222
0.0305669
0.154835
0.0276176
6.34612
0.0253928
0.0254677
5.13542
8.10308
0.11668
0.0255045
0.0414572
10.5655
0.0249029
8.4546
0.04416
0.0576162
9.8886
3.80018
0.0254625
0.107095
0.0254979
0.135567
0.0393558
0.025108
0.0257051
0.0250409
0.0364839
5.12635
0.0253394
0.0253382
0.0253591
0.0541659
0.0252629
0.024686
6.18728
7.27088
0.0249092
7.60384
0.0327466
0.133812
0.0249098
3.88115
0.0249789
0.0249406
0.434062
0.0255977
0.0635204
0.0254612
0.025901
0.0291642
0.293747
7.17784
0.533342
0.0251071
0.0253621
0.0357073
0.0345656
0.025195
0.272907
3.86585
10.1306
0.0293475
0.0253929
0.0256318
0.0250494
1.89049
5.17203
4.08947
0.0399385
0.0264327
1.20405
4.79033
0.614297
0.613682
5.17099
0.0615419
0.256021
0.0252566
0.0253237
0.0254689
0.0264178
0.0284108
0.585449
0.0346006
7.38149
0.287554
0.0253144
0.0249465
0.0349081
5.43686
0.0251063
0.446952
0.649764
0.0252648
0.0253374
0.0253081
7.61134
0.0463866
0.0268109
0.0427951
0.0400022
0.0268857
0.0311506
3.58948
3.63023
0.0246539
0.0258295
3.96524
0.0253061
0.0393486
0.0262905
0.0256932
0.0254706
6.0927
0.0255531
3.47082
0.0271507
6.61716
0.0253354
0.0254026
12.5818
8.93991
0.0248837
0.172229
8.78387
3.71381
7.12286
0.0252751
0.0364109
0.0289241
8.27966
7.62709
0.0268677
0.0591535
3.60518
0.0754723
0.0403854
4.34819
4.01076
0.025466
0.025689
0.0258727
0.183536
0.245501
0.0249942
0.0253798
0.454892
0.025162
0.03489
0.0250786
6.92852
0.0858955
9.04838
3.33938
0.0572415
3.28114
0.0253422
8.33292
0.0249176
8.82643
0.0246829
0.0253672
0.072077
0.0253268
3.6255
8.85481
0.0460097
0.24935
3.90645
0.0254757
0.0519924
0.0356461
6.61227
0.0283886
8.1515
0.172744
0.0253904
0.0258879
0.026282
0.0256859
7.61701
5.04434
0.0843288
0.0292004
8.81584
3.64327
0.0256866
0.0379486
0.0254233
10.4406