/*--------------------------------*- C++ -*----------------------------------*\
| =========                 |                                                 |
| \\      /  F ield         | OpenFOAM: The Open Source CFD Toolbox           |
|  \\    /   O peration     | Version:  v2012                                 |
|   \\  /    A nd           | Website:  www.openfoam.com                      |
|    \\/     M anipulation  |                                                 |
\*---------------------------------------------------------------------------*/
FoamFile
{
    version     2.0;
    format      ascii;
    class       volScalarField;
    location    "400";
    object      p;
}
// * * * * * * * * * * * * * * * * * * * * * * * * * * * * * * * * * * * * * //

dimensions      [0 2 -2 0 0 0 0];


internalField   nonuniform List<scalar> 
27802
(
0.0341161
0.00815874
0.077442
-0.0574734
0.0127702
-0.319087
0.0122489
-0.195073
-0.00643955
-0.0946043
-0.21815
0.342702
-0.0453323
0.358569
-0.234608
-0.417574
-0.407054
-0.00666687
-0.215547
-0.124338
-0.375857
-0.236967
-0.0169042
-0.0955262
-0.266702
0.0826515
0.00404397
-0.0693485
-0.0070164
-0.424278
-0.0948263
-0.141491
0.0327617
-0.0171797
0.0237901
-0.38116
-0.423138
-0.0138647
-0.0249999
-0.419576
0.333163
0.0237359
-0.0731339
-0.0152293
0.0654881
-0.181661
0.026399
-0.417967
0.486166
-0.0686944
-0.197981
0.079309
-0.24171
0.0486905
-0.0227947
0.00601863
-0.12257
0.0263
0.0580843
-0.20409
-0.0616908
0.0809366
-0.0155605
-0.0103882
-0.015227
-0.00481664
-0.0819046
-0.124178
-0.205176
0.00358952
-0.0153382
-0.110996
-0.153147
-0.0779631
0.0969374
-0.0432876
-0.0833583
-0.420525
-0.0846864
-0.237112
-0.00674778
0.00196137
0.175975
-0.0033612
-0.0150851
-0.101396
0.00818455
-0.0888134
-0.328563
0.0422398
0.0205803
-0.0736936
-0.00757048
-0.424949
-0.143474
-0.0798886
0.00188255
-0.0758487
0.0317814
-0.117002
-0.0253111
-0.0180897
0.186258
-0.060858
-0.149378
-0.0149672
0.0370717
-0.0154045
-0.0225357
0.0693397
-0.417814
0.0209321
-0.0170802
0.0315563
0.0378121
-0.0102425
-0.0575096
0.0823543
-0.101014
-0.259933
-0.119104
-0.19928
-0.216882
0.0931246
-0.406495
0.210004
-0.0130832
-0.0619639
-0.416325
-0.0174061
-0.151913
-0.132802
0.0140876
-0.422826
-0.129127
-0.046972
0.289622
0.365582
0.0285374
0.0146998
0.348386
-0.0952128
0.16504
0.0791266
-0.0134357
-0.0697889
0.117493
-0.0861755
-0.0277151
-0.117101
0.0429797
-0.345445
-0.0731483
-0.247407
0.00657783
-0.0821491
-0.0460444
-0.0805178
-0.0154963
0.0205381
-0.0104856
-0.00397692
-0.326297
-0.00410468
0.0107568
0.00785255
-0.145919
0.00549076
0.0138227
0.0456618
-0.101868
-0.154507
-0.399173
-0.355043
0.0071886
-0.212276
-0.233628
-0.189769
-0.0103476
0.0364797
-0.181646
-0.0730712
-0.33871
-0.0811135
-0.0154499
0.430801
-0.40369
0.140545
-0.0949137
0.519671
-0.306406
0.0226012
0.0719422
-0.145628
-0.0237552
-0.345426
-0.0816082
-0.250768
-0.1472
-0.103523
-0.052195
0.0203177
0.032322
-0.0578247
-0.309233
-0.142499
0.00604425
-0.00737717
-0.423731
-0.0184047
-0.0273004
-0.126287
-0.0583801
-0.390049
-0.0152925
0.0037736
-0.149787
0.0573548
0.0222471
0.0225013
-0.142039
0.0111875
0.0362499
-0.169994
0.0469288
-0.146321
-0.0258461
-0.087213
-0.0150774
0.0463496
0.0312968
-0.0789804
-0.138839
0.0237392
0.0223591
-0.294014
0.294598
0.198666
-0.0136799
0.273737
-0.155698
-0.341671
-0.0742596
-0.103793
-0.371153
-0.0468111
0.00746544
-0.417746
-0.0155858
0.00598311
-0.210684
0.00310224
-0.216923
0.0621006
-0.0904123
-0.108344
-0.0666289
-0.172202
0.00456
0.0968585
0.00216619
-0.185287
-0.102143
-0.0943901
-0.00038118
0.00808999
0.0602994
0.429133
-0.105828
-0.13751
-0.421455
-0.070622
-0.366071
-0.0040796
0.00288508
0.0238304
-0.129868
0.0263413
-0.0199944
-0.104369
0.0632015
-0.0806908
-0.261502
-0.077254
-0.405425
-0.0523654
-0.187197
-0.00464475
-0.198808
-0.248912
-0.293688
-0.0682815
-0.205028
0.0597132
-0.014944
-0.00183053
0.0646687
-0.128376
-0.415243
-0.199877
-0.292769
-0.0281986
-0.0700204
-0.332603
-0.142707
0.0261014
-0.165185
0.00262389
-0.16268
-0.018959
-0.0681252
-0.241977
-0.418411
0.0259531
-0.391357
-0.410805
-0.176545
-0.00596392
-0.0696686
-0.399696
-0.0184563
0.0914815
-0.138513
-0.070545
-0.106253
-0.00784535
0.176747
0.268193
-0.105025
0.00207724
-0.0799953
-0.0033096
0.019997
-0.139997
-0.19362
-0.0246973
0.0248005
0.0415482
-0.239603
-0.0440138
-0.0181159
-0.309442
0.0166176
-0.285544
-0.421658
-0.382607
-0.0524092
-0.00389845
-0.0467137
-0.00483601
0.423785
0.426172
0.000885226
-0.171107
-0.0193443
-0.0184331
0.0469404
0.0017325
-0.16039
-0.00440736
-0.148945
-0.332539
-0.19889
-0.013773
-0.0195743
-0.0203005
-0.340142
-0.00448151
-0.0950661
-0.0150172
-0.136953
-0.1691
-0.422694
-0.0458499
0.0636372
-0.0257073
-0.0515623
0.0238424
-0.0968579
0.0909657
0.118199
0.0197666
0.037076
0.0222378
-0.0218088
-0.425146
0.289812
-0.090816
-0.359452
0.329353
0.0191577
-0.0762933
0.0437381
0.00959364
0.199227
-0.0348527
0.0209383
-0.0840646
-0.314988
-0.0802935
-0.0749611
-0.409991
0.00486309
0.0264205
-0.076037
-0.417439
0.0260498
0.10944
-0.161572
-0.0601649
-0.0195606
-0.0168733
-0.108822
-0.145802
-0.0800632
-0.0690696
0.00268084
-0.319791
-0.0185278
-0.0937173
-0.0669224
-0.421022
0.0217393
0.0117982
-0.0451123
-0.0442314
0.0478958
0.019039
0.0226647
0.283863
0.028975
0.0105559
-0.169481
-0.192744
-0.0727583
-0.410915
-0.196117
0.33112
-0.206883
0.00925687
0.152833
-0.152022
-0.0516776
0.0242943
-0.0197409
-0.0520351
0.238808
-0.0383305
0.031731
0.00254271
-0.350624
-0.0689386
-0.0384539
0.00194713
-0.400094
0.0214386
-0.0962895
0.0207977
-0.0146744
-0.0514308
-0.238489
0.0056933
-0.0148629
-0.246725
0.0275628
-0.118387
-0.102023
0.286281
0.0211066
-0.107541
-0.257745
0.326587
-0.157461
-0.10168
-0.00149983
0.00823149
-0.0101453
-0.0709277
0.025832
0.0688246
0.00686979
-0.0657379
-0.0648414
-0.10644
0.00203403
0.0357321
0.241159
0.0568798
-0.0257196
0.00544655
-0.00420078
-0.186834
-0.0828305
0.298793
-0.364658
-0.00656231
-0.0795561
-0.0811145
0.111523
-0.0415833
-0.0135691
0.00834692
-0.141219
-0.216166
-0.0488982
-0.400967
-0.0865716
0.0287112
-0.350259
-0.0095133
0.00231004
-0.0454567
0.00494813
0.0971169
0.0146261
-0.0618851
-0.416102
-0.391985
0.120146
-0.328957
-0.0963452
-0.0963808
0.021687
0.0220193
-0.0645802
0.0370745
0.0228637
-0.124203
0.00196953
-0.302632
-0.0700937
-0.216743
0.11881
0.00555704
0.0447139
0.0291055
0.0265256
0.0894422
-0.200296
0.00162813
-0.411452
0.0888823
0.459998
0.202633
-0.176525
-0.0171809
0.0208218
-0.0811207
-0.140625
0.025334
-0.143686
-0.0337581
0.0121792
-0.00626079
-0.248466
-0.126092
-0.237943
-0.108276
0.447856
-0.00460622
-0.110102
0.0332796
0.011994
0.339348
-0.112032
0.00501049
0.0497924
0.00308493
-0.084428
-0.0246598
-0.0102485
-0.0172725
-0.00120973
-0.0963648
-0.0237624
-0.421542
-0.0935109
0.0200993
-0.0917939
-0.127303
-0.116186
-0.16375
-0.0698114
0.00566248
-0.00908693
-0.00667382
-0.376822
-0.00418664
-0.143711
-0.307197
0.122374
-0.346895
-0.073103
0.0252443
0.0328426
-0.0801676
-0.0767665
-0.00121917
0.0061776
-0.366707
-0.0734603
-0.245909
-0.38064
0.186695
-0.0021277
0.418537
-0.424107
-0.0036627
-0.347944
-0.104646
-0.139976
0.210612
-0.378172
0.0901841
-0.11383
0.0083877
0.291953
-0.000818793
-0.0729089
0.174975
0.210178
-0.384633
-0.0759694
-0.19161
-0.0501164
-0.345557
0.00740496
0.0143099
-0.0178667
0.312676
0.0238449
0.0789167
-0.00607909
-0.12025
0.119367
0.0068208
0.0279409
-0.0894808
0.362445
-0.0697594
-0.302879
-0.0260524
-0.0954559
-0.0784202
-0.0748153
0.0128769
0.128031
-0.30218
-0.110705
-0.0242185
0.00222875
0.448834
-0.117449
0.0237217
0.423248
0.0221501
0.173528
0.0252632
0.0231215
0.0079901
-0.186464
-0.070818
-0.0130627
-0.0680908
-0.419404
0.0222722
-0.00141229
-0.353849
0.0694
-0.180221
0.0145464
-0.0205397
-0.00561001
-0.137563
-0.0679823
0.024012
-0.0836025
0.00588022
-0.0517226
-0.115385
0.0235965
-0.0684471
-0.109544
-0.00685907
0.0722857
-0.00835915
-0.41225
-0.323069
-0.0944678
-0.0267296
-0.378576
-0.3644
-0.00813023
-0.385173
0.0475065
0.0089411
-0.00386006
0.0114608
-0.0148975
-0.32355
-0.00050027
0.0230845
0.211889
-0.137306
0.0213071
-0.418971
-0.102037
-0.279941
-0.0205767
-0.0472338
0.00829892
-0.00355257
-0.177943
0.00777571
0.0291889
0.00884357
-0.0600069
-0.0210216
-0.129544
-0.277242
-0.119798
0.0231832
0.13452
-0.07516
-0.0187791
-0.0175834
5.51794e-05
-0.0117885
0.297097
-0.372749
-0.112128
-0.350154
-0.000914747
-0.0638097
-0.00577778
0.0231428
0.420869
0.0106298
-0.420836
-0.184057
-0.312309
-0.42275
-0.0776181
0.0277902
0.043302
0.463325
-0.0997296
-0.079644
0.320601
-0.00229826
-0.0672533
0.0320591
-0.0818904
-0.178286
0.0256245
-0.0181633
-0.0674322
-0.00318388
-0.00634713
-0.386513
-0.0930925
-0.415758
-0.190973
0.0274479
-0.0731973
0.0334817
0.229368
-0.0171159
-0.0652582
-0.110925
0.0171698
-0.363452
-0.391295
-0.0763808
-0.0692256
0.0276326
0.0273221
-0.0991774
-0.0761907
-0.0308626
-0.08306
-0.0655332
-0.137485
0.00765021
0.0268099
-0.140751
-0.0240393
-0.107313
-0.240588
-0.00192791
0.0758061
0.106147
0.00324269
-0.0870398
-0.0245942
-0.371186
0.118704
-0.355743
0.0795308
-0.0914612
-0.328649
-0.0501657
0.361637
-0.0990789
0.027597
-0.074945
-0.0734163
-0.388874
0.125425
-0.00404561
-0.134583
0.0241975
-0.0276711
-0.190758
-0.302932
-0.0735431
-0.313034
-0.00150866
0.0113244
-0.0738046
-0.148707
0.0126255
-0.131122
-0.146676
-0.194239
0.00122516
0.0691532
-0.136535
0.00376931
0.19144
-0.00620559
0.110586
-0.401136
-0.258566
0.0969468
0.124636
0.12523
0.0273118
0.0103085
0.0090241
-0.183504
-0.15042
-0.0329066
0.0105801
-0.0494754
-0.0976633
-0.192301
0.157529
0.0387658
0.352313
-0.416621
0.0470821
-0.0866131
-0.0777888
-0.0769937
-0.400852
0.0233166
-0.0303811
-0.0056973
0.0018177
-0.370102
-0.369087
-0.15029
0.0632683
-0.0867215
-0.0591929
-0.392814
0.00501048
-0.247959
-0.104965
-0.421969
0.0214919
0.0103725
-0.0525112
0.00377478
-0.274844
-0.0850826
-0.135436
-0.23538
-0.177811
-0.0583832
-0.339623
-0.0988582
-0.132969
-0.294
0.0130984
-0.202618
-0.413131
0.0314252
0.00655504
0.0250127
0.106492
-0.0710434
0.150917
-0.00505832
-0.203984
0.00183199
0.0771235
-0.00282808
0.0105478
0.0101597
-0.0431544
0.0121892
-0.0773556
0.00665171
0.161817
-0.322898
0.520306
-0.0266823
0.0100501
-0.0644174
-0.0186049
-0.115943
-0.00933352
-0.199318
-0.0732001
-0.129382
0.291256
0.0023605
-0.0134764
0.212548
-0.141253
0.0227554
-0.291137
0.00801238
-0.0728815
0.0237488
-0.0050205
-0.415124
-0.1683
-0.00916754
-0.275627
-0.258955
-0.0973599
-0.0566896
-0.0253548
-0.412262
0.090124
-0.279273
-0.0428875
0.213542
0.0397147
0.0100956
0.0567554
-0.243451
-0.379974
-0.164496
-0.376095
-0.422262
-0.0703955
-0.00928173
0.00536547
-0.114345
-0.242125
-0.0606917
-0.120914
-0.0362299
-0.015858
-0.0654955
-0.155634
-0.0874372
0.00476032
-0.288863
-0.0508623
-0.129177
0.00270894
-0.139209
0.221063
-0.00884941
0.000414636
0.0216402
-0.090419
0.00631725
-0.0450745
-0.0865515
0.371693
-0.0247923
-0.0863419
-0.0809643
-0.070724
-0.164422
-0.381168
-0.339476
-0.0632622
0.00544488
0.445264
-0.0372862
-0.0323312
-0.295242
-0.185565
0.453646
-0.305894
-0.0783763
-0.287194
0.00984264
-0.259218
-0.0790583
-0.0860683
0.16841
-0.012944
-0.0191942
-0.25642
-0.0490983
-0.0140851
0.0239771
0.0174546
0.00481242
-0.00225302
-0.0133259
0.0205184
-0.073468
0.00124212
-0.180285
-0.0113656
-0.37079
-0.192897
0.00965703
-0.145694
2.26067e-05
-0.297568
-0.162815
-0.0756114
-0.129704
-0.083464
-0.0212046
-0.0668504
-0.0173465
-0.071667
-0.417909
-0.270464
-0.251598
0.00774744
-0.00731879
-0.0152749
-0.289961
0.024139
0.0234671
-0.0966205
-0.0091334
-0.0230459
0.273586
-0.00458073
-0.00778911
0.0223073
0.446533
0.0673926
0.0125126
-0.0972487
0.481461
0.0031306
-0.0177064
-0.0891784
0.0122403
-0.02231
-0.304021
-0.0671495
-0.000794845
0.00960125
-0.209131
0.0132194
-0.0267273
0.0267017
0.0176483
-0.410417
-0.32759
0.0204089
-0.151382
0.0289389
-0.130826
-0.0678967
0.0524874
-0.40759
-0.424002
-0.0663038
-0.0245606
-0.00392033
-0.192366
0.377593
-0.372148
-0.120118
0.0094566
-0.115186
0.0429035
0.517043
-0.0645539
-0.419602
0.00725081
0.373122
-0.364529
-0.213969
0.0261209
-0.0696594
-0.311349
0.00249242
0.0523293
-0.000154217
0.0223573
0.0300542
-0.0261825
0.0648983
-0.201545
-0.337062
0.00476633
0.0234856
-0.0812078
-0.0445669
0.0962609
0.0284746
0.0182328
-0.275566
0.00902335
0.0241439
-0.0537506
-0.387855
-0.0541427
0.0178277
-0.355099
0.0034127
0.077158
-0.0865777
0.0027855
0.0210174
-0.40435
-0.0249209
-0.0928754
0.169287
-0.0563426
0.0575628
0.0602059
-0.163526
-0.0842532
0.494852
-0.143333
-0.134601
-0.191826
0.0264343
0.0668308
0.0200116
-0.360568
-0.418157
0.0375525
-0.248877
-0.00913184
-0.322622
0.0228212
0.0201048
-0.0665255
0.277081
-0.399682
-0.0226217
-0.345054
-0.0788042
0.00475076
-0.0860157
0.00800368
-0.034573
-0.0138634
-0.0395417
-0.0844064
0.305132
0.00879889
-0.0780249
-0.108598
-0.00767519
-0.378849
0.0101573
0.0596674
-0.29555
0.0783232
-0.205994
0.008574
5.81877e-05
-0.0864569
-0.0145661
0.0112567
-0.172353
-0.00489636
-0.00613237
-0.396959
-0.00311026
-0.00720027
-0.0677041
-0.393279
-0.0183931
0.0207622
-0.00355513
0.0573844
0.0184647
-0.098179
-0.190021
-0.20431
0.201382
-0.0241973
-0.00517953
-0.260912
-0.125728
-0.211112
-0.00350086
-0.422003
0.356363
-0.420586
-0.198713
-0.336939
0.0586874
-0.217906
-0.279416
-0.148342
-0.00972331
0.0305094
-0.116884
-0.0184881
0.287262
-0.0649211
-0.250894
-0.326743
-0.0701712
0.192295
0.0108868
-0.364003
-0.17742
-0.132512
-0.0951075
0.416383
0.0444747
-0.0400235
-0.101544
-0.181096
0.185315
-0.0445584
-0.00578823
0.0477734
-0.0131574
-0.0157736
-0.0650774
0.0263903
-0.0352355
-0.411489
-0.0886231
0.0236996
-0.112208
0.0129232
0.0147704
-0.30594
-0.0639335
0.00218485
0.0223639
-0.186671
0.00309403
-0.0152983
-0.00392421
-0.207766
0.371445
-0.173877
-0.282584
-0.398523
-0.121777
0.0241649
0.0271214
-0.0817188
-0.0808124
-0.140843
-0.170298
0.0465087
-0.109551
-0.138053
-0.283067
-0.0100875
-0.0805359
0.0335876
-0.0807957
-0.134352
-0.34992
-0.275303
-0.0087128
-0.100458
-0.399102
-0.393722
0.0271214
0.227969
-0.0769636
-0.181456
-0.166858
-0.134032
0.0321622
-0.253852
-0.069298
-0.0631995
-0.230593
-0.0162242
-0.107353
0.512353
-0.421577
0.17806
0.0475509
-0.0814341
-0.0445414
0.0239633
0.0119361
-0.135478
0.0735962
0.0554295
0.0191682
-0.104192
-0.0845583
-0.0532544
0.204131
-0.397682
0.00862761
0.00824816
-0.0158291
-0.0493817
0.0175519
0.021643
0.0229775
0.0501672
-0.366509
-0.0933979
0.215743
0.501283
0.0825572
0.345208
0.0154247
0.472234
0.00917166
-0.357891
-0.0714644
-0.0113025
-0.421204
-0.318211
0.0439852
-0.127639
-0.36709
-0.377469
0.0152
-0.368929
-0.369312
-0.342649
0.0347041
0.0116486
-0.293517
0.508604
-0.205627
-0.356221
-0.188412
-0.198023
0.0233029
-0.0402412
-0.204661
0.0116785
-0.00607398
0.0131737
0.401997
0.0329209
-0.134385
0.374357
0.0232221
0.0320496
0.0227648
-0.106531
-0.355941
0.0579349
0.0262959
-0.0151481
-0.275214
-0.0994618
-0.08524
-0.0820114
-0.318989
0.30701
0.352375
0.0116214
-0.303403
-0.0955735
-0.0795971
0.256556
0.00857342
-0.00769144
-0.155893
-0.0759987
0.0134835
-0.13637
-0.151234
0.00433438
0.455512
-0.0906744
0.0235223
-0.0458881
-0.0390608
-0.135386
0.0360361
0.00358527
-0.0185171
-0.315549
-0.0708566
-0.288011
-0.317863
-0.0886273
-0.00868252
-0.188915
-0.0211723
0.0293243
0.0311563
-0.369362
-0.00177897
0.0829323
0.0353489
0.0237842
0.0153032
0.0313431
-0.115173
-0.0707045
-0.0474993
0.00215499
-0.0799889
-0.058564
-0.0820117
-0.00161951
-0.0933654
0.021545
0.0260143
-0.229668
-0.0693998
0.0263144
-0.226643
-0.323385
-0.205031
-0.00940586
0.164048
-0.131218
0.308289
0.0246202
0.0467713
-0.0756017
-0.109881
-0.12912
0.0257395
-0.00176049
-0.385684
-0.30486
-0.207927
0.0358691
-0.070565
-0.0986696
-0.0263408
-0.00467818
0.0348989
-0.398217
-0.0810288
-0.148657
-0.283761
0.0148403
-0.00544549
-0.106806
-0.375777
-0.187496
-0.00519395
-0.250173
-0.398107
0.0606132
0.038574
-0.0767599
-0.153803
0.0712275
0.0226038
-0.136924
0.0236418
0.000982246
0.0343862
-0.216382
-0.251556
0.00677452
0.00691478
-0.421044
-0.0244278
0.00272123
-0.282122
-0.167917
-0.351964
-0.402758
0.0211514
0.00984022
-0.0439143
-0.115808
-0.066867
-0.255275
-0.0777309
-0.0435205
0.0233969
-0.408138
0.0361806
0.0894777
-0.410427
0.00124627
0.0269771
-0.0635756
-0.294627
0.0416801
-0.0655343
0.00706022
0.0152052
-0.0480155
-0.25163
0.00453361
-0.0327777
-0.0121107
0.0294055
-0.0913052
-0.261077
0.285184
0.00751818
-0.0419441
0.0489203
0.449145
-0.363938
-0.00352939
-0.0819179
-0.0637854
-0.0745711
-0.160313
-0.033585
-0.13462
0.517617
-0.00601481
0.381222
0.0090389
-0.0249833
0.0937176
0.0142475
-0.0169835
-0.0815051
0.00694696
-0.306328
-0.0760027
0.00436688
0.00178002
0.181017
0.0493028
0.0319371
-0.0125352
0.0219227
-0.190513
-0.0207042
-0.153608
-0.233735
-0.00578792
0.131073
-0.342235
-0.121529
-0.103255
-0.400476
0.00374303
-0.383863
-0.14426
-0.0134595
-0.402125
0.0256239
-0.400688
-0.0880263
0.288417
-0.36831
-0.354348
-0.0464878
0.058528
-0.0937436
0.0545534
-0.118685
-0.144046
-0.236914
-0.0816718
-0.00162742
-0.082925
0.351154
-0.0135092
-0.00333666
0.0238059
0.294189
-0.108385
-0.11297
-0.146121
-0.0239044
-0.0826216
-0.0159758
-0.10188
-0.121874
-0.317026
-0.00700751
-0.101035
-0.00265496
0.319124
-0.378274
-0.0871154
-0.1531
-0.193568
-0.227854
-0.0135011
0.0222337
-0.000191121
-0.228615
-0.361293
-0.0708622
0.0194078
0.00642838
0.015827
-0.0070913
-0.336955
0.0117088
-0.0746837
-0.158251
-0.258372
-0.0723619
-0.103392
-0.21892
-0.180467
-0.000480881
-0.0879014
0.0163579
-0.136688
-0.075221
0.1641
0.207932
0.279324
-0.0268502
-0.0733748
0.0251804
-0.081493
-0.173435
0.00777716
-0.0921361
0.012879
0.00957915
0.00500146
-0.314211
-0.0260013
-0.397504
-0.00187731
-0.00502963
-0.127648
-0.118608
0.00936614
-0.327334
0.0205215
-0.3264
-0.0126539
0.0227232
-0.232674
-0.242979
-0.118936
0.0185982
-0.0147135
0.0736694
-0.214282
-0.0731065
-0.0262782
0.07653
0.207311
0.0981333
-0.0613325
-0.024195
0.0719484
-0.023878
-0.0670354
-0.0694687
-0.0994858
-0.108744
0.00176266
0.0100795
0.00988493
0.0455792
-0.0696486
-0.0323665
0.0421139
-0.0426764
-0.421361
-0.0382824
0.0240879
-0.0720705
0.061967
-0.0183063
-0.0940984
-0.0646032
0.0221936
-0.0121472
0.0276292
-0.00313653
-0.0659459
0.108606
0.0226548
0.168191
-0.211579
-0.136405
-0.183517
-0.0102474
-0.391703
-0.0583864
-0.0766899
0.224786
-0.182472
-0.331499
0.0573522
-0.10855
-0.12003
-0.00569619
-0.394215
-0.084069
0.0285782
-0.100183
0.0217946
-0.0153489
0.0638849
-0.0714636
-0.106005
0.0533072
-0.0184535
-0.164374
0.00500055
0.0274215
-0.0580216
0.352247
-0.269483
-0.0862378
-0.20477
-0.0165579
-0.139674
0.0269072
0.214739
-0.0391054
0.0188527
-0.0585046
-0.000493179
-0.00333887
-0.184951
-0.00980708
-0.0240578
-0.362617
0.0807307
-0.00171312
0.0679357
-0.0587531
-0.392313
0.510066
-0.0688438
0.0080008
-0.176408
-0.114005
-0.021894
0.0230981
0.00883221
0.00708157
-0.188762
-0.235653
0.138396
0.162617
0.0332621
0.331045
-0.0190403
-0.0189414
-0.0893188
-0.398858
-0.0708025
-0.10448
-0.334385
-0.0186933
-0.0659037
0.00748383
-0.014719
-0.015127
-0.0649577
-0.129876
-0.0761237
-0.110284
0.0552699
-0.0906924
-0.00530539
-0.129483
0.0473323
0.23739
-0.208885
0.0266416
0.00660201
0.0579671
-0.064497
-0.087802
0.0364187
-0.0179174
0.00732484
-0.0532211
-0.00684244
-0.0608932
0.0568734
-0.110128
0.0111476
0.225891
-0.153208
-0.0777462
-0.380098
-0.0948046
-0.183016
0.0264181
-0.0790945
0.115961
0.00633953
-0.0261384
-0.314081
-0.408796
-0.117972
0.321332
0.0271473
-0.0791031
-0.0163994
0.481831
-0.0445127
0.0235237
-0.0782865
-0.158903
0.00763266
-0.0636645
-0.0916531
0.073617
-0.307354
-0.421836
-0.278899
0.0744644
-0.0187693
-0.107719
0.00550501
-0.071462
-0.168026
-0.311177
-0.0237316
-0.0619877
0.00632483
0.0558369
-0.0922053
0.0331165
-0.139507
-0.160869
-0.023
-0.164416
-0.0208918
0.00109609
0.0230485
-0.0870953
-0.140389
0.0109325
0.407494
-0.243841
-0.0695424
-0.0721354
-0.159954
-0.126492
-0.234459
0.0324687
0.00457908
-0.159071
0.249436
0.0201917
-0.358223
0.0207522
-0.218452
-0.0956344
-0.203759
-0.0806839
-0.126194
0.0226582
-0.121578
-0.0777201
-0.146167
-0.0667379
0.479814
0.0320365
-0.135127
-0.0407486
0.402098
-0.406987
0.0183076
0.00673299
-0.0235157
-0.0839244
-0.0835906
0.0253072
0.174305
-0.415211
-0.00215905
-0.101331
-0.071237
0.0138657
0.503624
-0.212767
0.0462934
0.0209368
0.0153282
0.507272
0.0265063
-0.0888102
-0.403039
-0.384634
-0.00093651
-0.373662
-0.179091
-0.394678
-0.274751
-0.320096
-0.159306
-0.0989494
-0.0108396
0.00735656
-0.152638
-0.00578201
0.0750738
-0.0734309
-0.010037
-0.168631
0.515694
0.0519084
-0.341198
0.0106127
0.278401
-0.0863699
-0.0190177
-0.0725521
0.0467096
0.0315315
-0.0102389
-0.00624833
-0.0340023
-0.11591
-0.387388
0.125706
-0.403111
0.0745897
-0.0162937
0.518088
-0.0799806
0.0545531
0.0798743
0.141218
0.485773
-0.130405
0.0326105
-0.0635142
0.0535663
-0.00959098
-0.136846
0.0260867
-0.179019
0.0257794
-0.0636351
-0.119698
-0.000710962
-0.13048
-0.128305
-0.185647
-0.0881387
-0.0585376
0.0347712
0.0241403
-0.039757
-0.0229606
-0.311172
-0.27309
0.0077611
0.00753255
-0.229863
0.0179059
-0.136062
0.0262336
0.00371081
-0.34831
-0.003433
-0.0650756
0.0107491
0.00493521
0.0413415
-0.00473247
0.0496055
0.00828016
-0.355789
-0.0812084
-0.0321196
0.000687419
0.29454
-0.0809652
0.0599092
-0.16507
0.304026
0.251587
0.26731
-0.00155322
-0.275567
-0.319301
-0.223846
-0.00397214
0.109298
0.0492878
-0.0777179
-0.238955
-0.00241563
-0.149815
0.197602
0.0582663
-0.27231
-0.0954754
-0.0798052
-0.411253
0.151613
0.0523269
-0.114855
0.0107686
0.0214835
-0.0742087
-0.0299885
-0.0152611
0.00296418
-0.105745
-0.0148596
-0.0687657
-0.0530085
0.4564
0.0780262
-0.149581
-0.0635597
-0.184006
-0.291843
0.0212181
-0.205586
0.0155026
0.167756
0.00458499
-0.0819582
-0.0634571
-0.00275711
-0.0248838
0.000201378
-0.104413
0.00306287
-0.261707
-0.336879
-0.0689697
-0.353612
0.0487228
-0.0437581
-0.038308
0.0453415
0.0389265
-0.139585
-0.0414133
-0.28239
0.0324971
-0.130717
-0.286413
-0.376704
0.171269
-0.0988169
-0.416695
-0.28883
0.0168962
-0.0180406
-0.223524
0.000853187
-0.0335891
0.240258
-0.0182466
0.0961821
0.0460418
0.0492831
-0.0274859
0.0420647
-0.0122216
-0.100462
-0.314229
-0.141986
-0.141536
-0.00623328
-0.268104
-0.418314
-0.412426
-0.355875
-0.0978794
-0.0855145
0.0518268
-0.0884578
0.0243565
-0.022434
-0.276371
0.0212812
-0.00979367
-0.0691972
-0.00455043
-0.108872
-0.373175
-0.0594574
0.00924725
0.00623321
0.0483911
-0.105958
-0.0300554
-0.101891
0.0999904
-0.395323
0.0227954
0.241758
-0.0084939
-0.0746945
-0.0408288
0.136825
0.00688145
0.0887575
-0.386298
0.0101395
0.382509
-0.171787
-0.376096
-0.0961065
-0.0989601
-0.133675
-0.176189
-0.133642
-0.29002
-0.420707
-0.0795192
-0.31909
0.0019161
-0.0990721
-0.160879
-0.347247
-0.197201
0.02947
-0.00613383
0.211784
-0.202839
0.0114623
-0.0427669
-0.117564
0.0503656
0.0219828
0.0550749
-0.109084
-0.0229418
-0.0120652
0.457799
-0.389152
0.0261479
-0.0771121
0.377489
-0.0108487
-0.0761737
0.285742
0.0732539
0.475562
-0.364881
0.208585
-0.29336
-0.0687595
-0.233422
-0.37686
0.0248254
-0.0103999
-0.266418
-0.0787179
0.00650194
-0.140796
-0.018799
0.00868314
-0.014008
0.00683199
0.0242858
0.0121816
-0.115865
-0.0631178
-0.244482
0.122016
-0.00359266
0.431424
-0.068551
-0.109108
-0.0760775
-0.306982
-0.0218362
-0.369335
-0.00938527
-0.101069
-0.219907
-0.0991151
-0.0846199
-0.419735
-0.106923
0.0853053
0.204997
0.0582261
0.0257743
0.459783
-0.0757347
-0.0874682
-0.0164155
0.00390285
0.0842618
-0.374824
0.294849
0.110176
-0.136786
-0.278511
0.119542
-0.411317
-0.0819309
-0.0137874
0.0244894
-0.402686
-0.172718
-0.349115
0.0825572
0.0344224
0.00853032
-0.160408
0.126884
0.0391848
-0.235281
-0.179003
-0.0417302
-0.200306
-0.300344
-0.0432344
-0.281565
-0.0125683
0.00108233
0.191621
-0.00146905
-0.0949367
0.0217883
0.0219156
-0.075026
0.0119465
-0.0750088
-0.157864
-0.0272261
-0.00995758
0.0109658
0.101342
-0.269051
-0.145137
0.488047
-0.116465
-0.249342
-0.135416
-0.153022
-0.0049796
-0.112449
-0.00095689
0.0507559
-0.134193
0.0217111
-0.0719116
-0.174887
0.00715169
-0.087409
-0.376106
0.0991399
-0.395539
0.0473789
-0.389228
-0.28006
-0.0122333
0.0549614
0.340882
0.0355707
-0.293296
-0.324797
0.0543996
0.128419
-0.0715154
-0.0752377
0.00677748
-0.152071
-0.417192
0.0199337
-0.127115
-0.0717719
-0.0666772
0.00249402
-0.420128
0.00911468
-0.0844374
0.185162
0.0354064
-0.123107
0.0412187
-0.140946
0.0736274
-0.116375
0.0707532
-0.143605
-0.158784
0.129343
-0.280042
-0.085284
-0.425424
-0.0945466
-0.087969
0.0262868
-0.0701067
0.0370468
0.00714741
0.00145866
0.00536664
0.0310184
-0.42314
-0.00539456
-0.180443
0.00614514
-0.213103
-0.0117798
0.0338199
-0.00336597
-0.0405215
-0.316057
-0.127875
-0.17968
0.0239612
-0.347612
-0.178751
-0.0233919
0.00251397
0.0224343
-0.102938
-0.198787
-0.0871316
0.00832726
-0.160841
0.000881834
-0.174966
-0.0714556
-0.418479
0.170392
0.0303856
-0.00122716
-0.104734
-0.0879668
0.0970409
-0.118966
0.0192348
-0.200802
-0.0179199
-0.322867
-0.181761
0.0121445
-0.0825658
0.0222698
0.0126759
-0.00556166
-0.0248018
-0.212634
-0.235332
-0.382092
-0.37327
-0.0565163
-0.125836
-0.114143
-0.236896
-0.0209339
0.0255232
-0.236208
-0.132571
0.321824
-0.0589211
-0.106116
-0.0739938
-0.124593
0.423938
0.00865865
0.0697608
-0.273742
-0.15517
0.106392
-0.409173
0.0232493
-0.0212777
-0.0410647
0.141877
0.114924
-0.146281
-0.000278186
0.00704188
-0.00880095
-0.0872911
-0.0172605
-0.260119
0.00733642
-0.0833233
-0.075265
0.00715823
-0.138768
0.00618786
-0.0264241
0.0581415
-0.132155
-0.171731
-0.308019
-0.187804
-0.0135841
-0.00594598
-0.074595
-0.400097
-0.0767752
0.0906504
-0.0770957
-0.148214
-0.333685
0.0564695
-0.357719
0.474413
-0.0930762
-0.0854249
-0.0645812
0.00858078
-0.112501
0.047763
-0.101101
-0.0749388
-0.0369211
-0.0136206
-0.0650063
-0.331836
-0.287073
0.00459573
-0.316459
-0.160862
-0.190685
0.367287
0.101952
-0.0978766
0.267349
-0.0126624
-0.0101083
0.514543
-0.343834
-0.166973
-0.407847
-0.301628
-0.0846779
-0.363196
-0.365365
0.00116314
-0.414948
0.170286
0.01003
-0.0685366
-0.0425428
-0.131634
0.0219489
0.0377892
-0.268719
-0.189016
0.0151727
-0.0928907
-0.161559
-0.0655341
0.0966633
-0.113602
0.0104382
0.00650157
-0.210399
-0.0760492
-3.75847e-05
-0.141995
-0.00447501
-0.0173451
-0.424195
0.0202936
-0.175626
-0.0165287
-0.283817
-0.0717879
-0.00899305
0.166751
-0.304415
-0.00169483
-0.0715826
0.0216334
-0.28707
0.000186133
-0.123759
0.216855
-0.213591
0.0137858
-0.289004
-0.276461
-0.00791864
0.0477449
-0.00404606
-0.00367844
-0.078739
-0.141615
-0.0929421
-0.387171
-0.201205
0.0163852
-0.135872
0.131449
-0.00731368
-0.0227298
-0.0731449
-0.0686631
-0.2085
-0.130151
-0.0794533
-0.232077
-0.00569519
-0.0199799
-0.0376474
-0.302658
-0.0122618
-0.0691544
-0.0826717
-0.104369
0.0185813
-0.074652
0.0110286
-0.302225
-0.244756
0.0115805
0.0516753
0.0841716
-0.0717463
-0.000993209
-0.300011
-0.0167502
-0.315626
-0.00405727
-0.236946
-0.0613467
0.167187
-0.105164
-0.0178289
0.324846
0.0258141
-0.0033273
-0.082818
-0.0870485
-0.25368
-0.00996324
0.0598146
0.0130168
-0.0754743
-0.0227526
0.222778
-0.0421891
-0.0472353
-0.00898138
-0.0737738
0.0920002
-0.310712
-0.307894
-0.360959
0.101796
-0.0104709
0.00676921
-0.0746761
-0.0947216
0.000412566
-0.0206656
-0.148282
-0.166229
-0.0748244
-0.12345
0.0991852
-0.0244951
-0.226419
-0.0442021
0.00825472
-0.390502
-0.0095597
-0.178905
0.19109
0.467415
-0.0162542
-0.213391
-0.410844
0.110514
-0.418561
-0.22881
-0.0889019
-0.0727174
-0.275645
-0.0230786
-0.376027
0.0351908
-0.0971981
-0.0459368
0.0308991
-0.00406828
0.00772124
-0.419965
-0.143522
0.0309579
-0.0917408
-0.0863044
-0.0149485
-0.160155
-0.0887247
-0.103096
-0.162303
0.0403356
-0.36627
-0.0996981
-0.0473734
-0.00966863
-0.0648059
0.331153
-0.40929
-0.0591236
-0.267415
0.0595889
-0.11226
0.329946
0.00625696
-0.0682276
-0.00318899
0.00792243
-0.0360675
-0.0767615
-0.415508
0.0511511
0.0146838
-0.393952
0.0212143
-0.0747906
0.00506126
0.503766
-0.0736139
-0.367882
0.0227563
0.010411
-0.0310897
-0.13236
-0.103606
0.067784
-0.000691099
-0.071902
-0.0820817
-0.15553
0.00223455
0.114844
-0.293753
0.0541026
0.00644737
-0.246075
-0.220696
0.0162706
-0.00870373
-0.285336
0.0391045
0.247854
-0.0480426
0.0399544
0.113231
0.0753535
-0.0124035
0.0439432
-0.0719731
0.188054
-0.0956701
-0.425157
0.00756327
0.00820643
-0.0669329
-0.040024
0.0998833
0.0607496
0.0465008
-0.0687288
-0.0655136
-0.0162924
-0.193826
-0.00941555
0.0251842
-0.085228
0.0317998
-0.103305
-0.0110686
-0.0774538
0.294867
-0.345534
0.210846
-0.00521421
-0.00256407
-0.208752
0.0108132
-0.209537
-0.0240871
0.0569695
-0.102494
0.00828142
0.0981667
-0.271371
-0.091248
-0.288338
-0.0100317
0.02536
0.474073
-0.414159
-0.0132324
0.01463
-0.101666
-0.389688
-0.0216411
0.391995
-0.106386
-0.00251286
-0.138257
0.113646
0.0424822
0.00866564
0.0245195
0.035662
-0.121495
-0.00185106
-0.0890374
-0.000641388
0.489095
-0.0735683
0.335513
-0.0898755
-0.130506
-0.0255668
-0.319369
-0.0788304
-0.404932
0.0848826
-0.0106854
0.0211342
-0.0247037
-0.295189
0.16041
-0.322789
-0.282316
0.052869
-0.088005
0.262985
-0.0421744
-0.00359659
-0.0304929
-0.397313
0.350797
-0.0564931
0.0405022
-0.00977766
-0.0803654
0.121884
-0.0767002
0.0581527
0.0360196
0.0101643
-0.0102866
-0.37242
-0.104181
-0.105109
-0.0647185
-0.0265816
0.0123998
-0.392943
-0.0734359
0.186646
-0.108978
-0.0148689
-0.0912376
0.253142
0.0241117
0.0101354
-0.116052
-0.0750927
-0.312025
-0.0132672
-0.366575
0.0401046
0.275557
0.00404222
0.369251
-0.389563
-0.412855
-0.129628
-0.401284
-0.284536
0.133627
-0.0870676
-0.0069946
0.479231
0.0509026
-0.0109597
0.000970913
-0.0669222
-0.137463
0.0440911
0.241825
0.098467
-0.0154145
-0.0346037
-0.0406799
0.0246218
0.0384605
-0.00382332
0.000361704
0.040392
-0.139749
-0.066188
0.0452049
-0.0763337
0.208086
0.083148
-0.179163
0.0501827
-0.173457
-0.0910119
-0.0871546
-0.0874874
0.284739
0.0622334
-0.011628
-0.396684
-0.12581
0.0124244
-0.119964
0.036097
0.28148
0.0491994
-0.0972588
-0.0821356
-0.10129
-0.10066
0.012076
-0.00536252
-0.417852
-0.136668
0.00202513
0.0378028
-0.0778106
0.0157916