/*--------------------------------*- C++ -*----------------------------------*\
| =========                 |                                                 |
| \\      /  F ield         | OpenFOAM: The Open Source CFD Toolbox           |
|  \\    /   O peration     | Version:  v2012                                 |
|   \\  /    A nd           | Website:  www.openfoam.com                      |
|    \\/     M anipulation  |                                                 |
\*---------------------------------------------------------------------------*/
FoamFile
{
    version     2.0;
    format      ascii;
    class       surfaceScalarField;
    location    "400";
    object      phi_0;
}
// * * * * * * * * * * * * * * * * * * * * * * * * * * * * * * * * * * * * * //

dimensions      [0 3 -1 0 0 0 0];
oriented        oriented;


internalField   nonuniform List<scalar> 
41211
(
-0.0758888
-0.097886
0.173775
0.141173
0.275493
-0.164651
0.0957312
0.0689195
-0.212295
0.144611
0.0676846
0.0934692
-0.228538
0.135068
-0.0658977
-0.00899697
0.0748947
0.258932
-0.165462
-0.0573762
0.113149
-0.0557731
0.108478
0.18293
-0.291408
-0.054215
0.0826753
-0.0284603
0.0431356
-0.0103718
-0.0327638
-0.000645344
0.0234714
-0.0228261
0.0268174
0.0866629
-0.11348
0.00479876
-0.0338751
0.0290763
-0.0165979
0.00945163
0.0071463
-0.00584594
0.00635499
-0.000509051
-0.000330942
0.00113966
-0.00080872
0.315773
-0.207295
0.0363342
0.00680138
0.000279651
0.0404872
-0.0318052
-0.00868205
-0.00872586
-0.00787207
0.228243
-0.374172
0.145929
0.118879
-0.0369988
-0.0818803
0.049829
0.0248903
-0.0747193
0.107403
-0.0402058
-0.0671974
0.392333
-0.237086
-0.155246
-0.142765
0.159769
-0.0170038
-0.523943
0.311206
0.212738
-0.0086209
0.00249173
0.00612917
0.0928444
0.0260347
-0.0667609
0.114189
-0.0474283
-0.167279
0.0913901
-0.385168
0.291531
0.0936366
-0.265922
-0.071234
0.337156
0.0106842
-0.0106842
0.000383322
-0.0108766
-0.342509
0.218089
0.12442
0.323634
-0.21464
-0.108994
-2.41401e-05
-0.00721162
0.0262899
-0.0269353
0.147084
-0.413006
-0.208702
0.150083
0.0586191
0.480661
-0.300773
-0.179888
-0.0999987
-0.0155318
0.11553
0.00376394
-0.00367177
0.166433
0.14204
-0.308474
-0.000672541
-0.00503418
0.00570673
0.0100437
-0.0100437
-0.0251867
0.0125698
0.0126169
-0.00499149
0.0177286
-0.0127371
0.0496392
0.0577641
0.00386801
0.00288653
-0.00675454
-0.0342675
0.00608253
0.028185
0.126274
0.123481
-0.249756
0.246576
-0.446891
0.200315
-0.0880525
0.08518
0.00287247
0.173312
0.107708
-0.28102
0.077362
-0.130069
0.0527069
-0.105549
0.044761
0.0607881
-0.00828375
0.0105834
-0.130361
0.0165316
0.113829
-0.0071178
-0.112714
0.119832
0.357734
-0.377358
0.0196238
0.410045
-0.144912
-0.265133
-0.289285
0.0955342
0.193751
-0.0525427
0.0320025
0.0205402
-0.0791656
-0.00888689
-0.0841527
-0.0213963
0.132634
0.103907
-0.23654
0.167318
0.313343
0.00886672
0.005317
-0.0141837
0.0205436
-0.0168652
-0.00367842
0.100862
-0.053249
-0.0476132
0.00532259
0.108763
-0.114086
-0.227489
0.076375
0.151114
-0.0351939
-0.0173488
0.0113093
-0.00227033
-0.00903895
0.00419377
-0.00426319
-0.00782301
0.00782301
-0.282357
-0.241587
0.17266
0.186698
-0.359358
-0.0879915
0.0505473
0.0374441
-0.189821
0.0953029
0.094518
-0.137448
0.23719
-0.0997422
-0.143701
0.162402
-0.0187015
-0.179288
0.411351
-0.232063
-0.00327431
0.010466
-0.00719169
-0.0108291
0.00064406
-0.240962
0.154251
0.0867103
-0.276777
0.00818796
0.26859
-0.00462777
0.00540347
0.13954
-0.313014
0.173474
-0.0086209
-0.0183878
0.0116263
0.00676153
0.0572359
-0.146389
0.0891527
-0.156387
0.329047
0.171287
-0.105608
-0.0656792
0.1634
0.111978
-0.275379
-0.0335249
0.0676488
-0.0341239
0.191035
0.132599
0.305766
-0.211201
-0.0945653
-0.020702
0.0381953
-0.0174933
0.0014405
-0.00972425
0.0155908
0.00495279
0.114186
-0.121304
0.157088
-0.251735
0.0946469
0.109272
0.261974
-0.135699
0.0144316
-0.11443
0.000676051
-0.00652199
-0.30832
0.0315429
-0.241502
-0.143666
0.141849
0.137653
-0.279503
-0.071947
0.229035
0.0120523
0.356237
-0.368289
0.121445
-0.145096
0.0236518
-0.0286678
-0.0201997
0.0488675
-0.00407159
-0.00145494
0.00552653
-0.0392917
0.0891207
-0.00013004
0.000593103
0.113596
-0.0688354
-0.00257835
-0.00128639
0.00386474
-0.0400803
0.0114125
0.0217258
-0.0144128
-0.00731306
-0.01641
0.0490399
-0.0326299
0.114254
-0.199721
0.085467
-0.222877
0.110656
0.112221
0.00343311
0.00428048
-0.00771358
-0.212709
0.377324
-0.164615
0.0297605
-0.0961132
0.0663527
-0.116188
0.00397459
0.112213
-0.185711
0.192501
-0.00679027
-0.00812187
0.00886265
-0.000740779
-0.00156353
2.98896e-05
0.00153364
-0.0906353
0.207055
-0.11642
0.015565
0.0323192
-0.0478842
-0.0229657
0.0277644
0.199413
0.104598
-0.30401
-0.0783113
-0.107399
-0.000383299
-0.0334918
0.0196614
-0.0738764
-0.0908898
0.0388103
0.0520795
0.0427946
-0.0940008
0.0512062
-0.186595
-0.155914
0.011648
-0.00505168
-0.00659631
-0.0979615
0.0273473
0.0706141
0.0562371
-0.144733
0.0884961
-0.270448
0.267046
0.00340189
-0.0746348
0.0411099
-0.111512
0.0668744
0.0446379
-0.0791372
0.0563584
0.0227787
-0.122618
-0.0860841
0.00189039
-0.00387228
0.0019819
0.247472
-0.455131
0.207659
-0.00315635
0.00449842
-0.00134208
-0.25198
0.161345
-0.0564194
0.113655
0.0533064
-0.25322
0.199914
-0.379892
0.0219736
0.357918
0.369786
-0.179147
-0.110138
0.0114012
-0.016433
0.00503178
-0.200435
-0.150842
0.351277
0.254548
-0.43854
0.183992
-0.216125
-0.198099
0.414224
0.0124485
-0.020336
0.00788755
-0.312292
0.112194
0.200098
0.137653
-0.215964
0.104891
0.0778074
-0.182698
-0.0880415
0.0270929
0.0609486
-0.00259124
0.00182732
0.000763917
0.000751871
-0.0012171
0.000465229
-0.061891
0.0317015
0.0301895
0.346626
-0.193378
-0.153248
-0.0317454
0.0856069
-0.0538616
-0.00127774
-0.00654528
0.0189685
-0.0437728
0.0248043
-0.0237423
0.379979
-0.127612
-0.124123
-0.031289
0.0623601
-0.0310711
0.0210295
-0.0110978
-0.00993172
0.0109644
-0.0108035
-0.000160905
0.0151847
0.0152457
-0.0304304
0.381063
-0.201432
-0.179631
0.00878397
-0.0270788
0.0182948
-0.00196426
0.00628204
-0.00431778
0.0309175
-0.012318
-0.0185995
0.0403258
-0.0764604
0.0361347
-0.00283049
0.00182297
0.00100752
-0.0112121
0.00751696
0.0036951
0.230751
0.185916
-0.0731308
0.144467
-0.071336
-0.0903689
0.0446179
0.045751
-0.195934
0.339621
-0.143687
-0.0662258
-0.0129114
-0.00315635
-0.0310408
0.0374141
-0.00637334
-0.0502752
-0.0400937
0.038872
0.0110672
-0.0499392
0.0308021
-0.0782288
0.0474267
0.00538102
-0.385273
0.0763661
0.0945097
-0.170876
-0.0218224
0.143267
-0.00644002
-0.00477203
0.115333
-0.0156862
-0.0996468
-0.253001
-0.059291
-0.205944
0.28705
-0.0811059
0.00764526
-0.00137553
-0.00626973
0.167006
0.102153
-0.269159
-0.00203175
-0.268416
0.0203618
-0.0469394
0.0265776
-0.119814
-0.0924811
0.00863059
0.000320088
-0.00895068
0.301383
-0.248077
0.20917
0.183163
0.104368
-0.0746076
-0.174099
0.0429416
0.131157
-0.192896
-0.0859814
0.278878
-0.191403
0.422154
-0.00593935
-0.142878
0.281196
-0.138318
0.156835
-0.235233
0.0783978
-0.0471104
0.0837704
-0.03666
0.0727496
-0.165642
0.0928921
-0.0899943
0.0222207
0.0677736
-0.179292
-0.00229822
0.18159
0.139517
-0.0832795
0.148331
0.170067
-0.318398
0.186369
-0.113619
0.12193
0.157044
-0.278974
0.0133185
-0.120651
0.107333
0.0752483
-0.0756418
0.000393508
0.199522
-0.367669
0.168147
0.225263
-0.00789185
0.00880392
-0.00091207
-0.0193016
0.0348666
-0.0676983
0.05254
0.0151584
0.209271
-0.095017
-0.0184312
0.0298511
-0.0114199
0.00208272
0.00017599
-0.00225871
-0.00127796
0.00682864
-0.00555068
0.0137394
0.00729015
-0.0130559
0.0149833
-0.00192744
0.0431457
-0.0392638
-0.00388194
-0.230801
0.127717
0.103084
-0.386254
0.24367
0.142584
0.00418594
-0.00485848
0.127843
0.35442
-0.107844
0.0704786
-0.0882554
0.0177768
0.396805
-0.148016
-0.248789
-0.0535086
-0.0134387
0.0669473
0.1857
-0.0385505
-0.147149
-0.00823113
0.00495682
0.0156923
-0.013554
-0.00213832
0.190695
-0.087169
-0.103526
0.0764493
-0.0817466
0.00529724
-0.108849
-0.115837
0.224686
-0.102301
0.107624
0.208684
0.188923
-0.397607
-2.08407e-05
0.00395328
-0.00393244
0.0027006
-0.00677219
-0.04409
0.0844158
0.127267
0.1172
-0.244467
-0.301453
0.194854
0.106599
-0.0655128
0.170538
-0.00933681
0.0181208
0.00263644
-0.102059
0.0352985
0.00203226
0.00712951
-0.00916177
-0.0848592
-0.0702597
0.155119
0.0341995
0.00894624
-0.208551
0.378261
-0.16971
0.301715
0.0950898
0.346606
-0.127654
0.0114664
-0.323437
0.0246386
0.298798
-0.0704517
0.235584
-0.165132
0.0118171
0.00316627
0.187542
-0.103227
-0.0843151
-0.118069
0.10607
0.0119994
0.0447574
0.00820772
-0.0529651
0.0597682
0.041094
-0.00296948
0.00100522
-0.186603
0.213389
-0.0267855
-0.0288259
0.0477945
-0.205354
-0.133944
0.339298
-0.060096
0.0916715
-0.0315755
0.00488745
-0.00299707
0.0337603
-0.0750593
0.041299
-0.00806829
0.000156127
0.00791216
-0.00600231
0.00318649
0.00281582
-0.0273611
0.104723
0.327069
-0.178738
0.272764
-0.124223
-0.148541
0.119912
0.0676303
-0.00156353
-0.0017402
0.00492431
0.0562202
-0.00809747
-0.08819
-0.0110836
0.0992735
-0.0244019
0.0141112
0.0102908
-0.0377167
-0.00600746
0.0437242
0.000461603
0.00219267
-0.00265427
0.034287
-0.357724
0.0521318
0.0451745
-0.0973063
-0.0987468
0.23138
0.000959324
0.000614464
-0.00157379
-0.321667
0.0970555
0.224611
-0.0134788
0.0219035
-0.00842475
0.0939391
-0.0794826
-0.0144565
-0.00564705
0.0060046
-0.000357548
0.298525
-0.125213
-0.00184625
0.0104768
0.0145404
-0.0111072
-0.0413598
0.101947
-0.0605874
0.248644
-0.47631
0.227665
-0.0217797
-0.120986
0.00869839
1.04687e-05
-0.00870886
-0.238723
-0.0829437
-0.121992
0.120484
0.00150812
-0.0327199
0.098889
-0.0661691
-0.0175806
-0.00682138
-0.00226969
0.000168276
0.00210141
0.305044
-0.165505
-0.0426553
-0.0453362
-0.00345557
0.0469774
-0.0435218
-0.0036497
0.0425217
-0.15665
0.365334
0.0314084
-0.0162236
0.159967
0.195714
-0.355681
-0.354995
0.360376
-0.0856421
0.0529222
-0.0610665
0.0297775
0.00929319
-0.188585
-0.294527
0.168641
0.125885
-0.126765
-0.114196
0.0307878
0.0631513
-0.186444
-0.0410454
0.122407
-0.265035
0.142628
0.0450755
0.0332437
-0.0783192
-0.122684
0.236994
-0.11431
0.0764918
-0.0427315
0.00113202
0.00451921
-0.00565123
0.00147712
0.00920712
-0.160468
-0.0109469
0.171415
0.297507
-0.165832
-0.131675
-0.0965158
-0.134285
-0.198529
0.354256
-0.155728
0.0161025
-0.0254393
-0.00182931
-0.0252495
-0.200104
0.36989
-0.169786
0.0808263
-0.00437703
-0.13868
-0.0951926
0.233873
-0.122988
0.289993
-0.0397689
0.14466
-0.0853068
0.238269
-0.152962
-0.00221097
0.00245943
-0.36154
0.409698
-0.0481578
-0.0213864
-0.0686079
-0.0501889
0.0863247
-0.0361358
-0.0120821
0.00709059
-0.222839
-0.145387
0.368226
0.124373
-0.265632
0.141259
0.299456
-0.175083
0.00505477
-0.00633273
-0.393497
0.188143
0.0530259
-0.0598431
0.0068172
0.168891
0.158178
0.0025439
0.0727044
0.0303136
0.0603131
-0.0906267
-0.00884351
0.000721634
0.087434
-0.209956
0.122522
0.0442132
0.141486
0.183201
0.0420882
-0.225289
0.0814755
-0.0506735
-0.15146
-0.148769
0.300229
0.0251501
-0.0749953
0.0498453
-0.124254
0.108444
0.0158104
-0.0130413
-0.0849201
0.076659
-0.431654
-0.0297279
0.186563
0.415385
-0.190121
-0.157917
-0.0975148
0.255432
0.00838668
-0.00242626
0.0534132
-0.0182354
-0.0351777
-0.0433455
-0.0622808
0.105626
0.000466495
0.00881838
-0.00928488
-0.023231
-0.000232597
0.0234636
0.321645
-0.181834
-0.139811
0.0781542
-0.0485091
-0.0296451
-0.126752
-0.0634033
0.190155
-0.0984821
0.257336
-0.158854
-0.0426038
-0.0250945
-0.211981
0.124012
0.0879687
0.334671
0.0600807
-0.394751
0.0170419
-0.0105402
-0.00650175
0.0141413
-0.080039
-0.00570023
-0.0017902
0.00749043
-0.103679
0.112431
-0.00875226
0.00949371
-0.0229541
0.0134604
0.225211
-0.438484
0.213273
-0.377682
0.222137
0.155545
-0.0985175
0.0124658
0.0860517
-0.00647977
0.000832715
-0.254476
0.288763
0.0642353
0.060512
-0.124747
-0.0626785
0.11481
0.117203
-0.222966
0.105763
-0.250877
0.180426
0.111834
0.00502775
-0.116862
0.0388827
-0.0546778
0.015795
-0.00474524
0.0376952
-0.0622854
0.0245902
-0.00730846
0.0893412
0.212374
0.0145
-0.0030988
0.188339
0.117427
0.0436995
0.0389758
-0.0566173
-0.106678
0.163296
0.00540301
-0.00427099
0.172521
0.244145
0.116054
0.0523299
-0.159102
0.106772
0.149613
-0.260753
0.11114
-0.0735143
-0.037998
0.104597
0.217048
0.0770607
-0.269957
0.00395261
0.0381771
-0.0421297
-0.0353913
0.234804
-0.240058
0.142713
0.0973442
-0.0910801
0.0439697
0.032438
-0.0603442
0.0279062
-0.0141957
0.122936
-0.10874
0.0050331
-0.00718971
0.00215661
0.0369904
0.0761589
0.00815304
-0.0306111
0.0224581
-0.0233776
0.0938562
-0.256153
0.157671
0.0770511
0.00882117
-0.0858723
-0.00112595
-0.00146529
-0.0909206
-0.106616
0.197537
-0.286778
0.135318
0.132591
-0.0207574
-0.193227
0.00662423
0.0555535
0.000564153
-0.0561176
-0.234925
0.00845506
0.226469
0.26378
0.34919
-0.259849
-0.00152055
0.00619395
-0.00467339
-0.0110755
-0.0202236
-0.214701
-0.260509
0.357887
-0.0973777
0.0322028
-0.0227091
0.287668
0.0933554
-0.381024
0.056849
-0.0450449
-0.0118042
0.356644
-0.234978
0.0975301
0.0735376
-0.234006
-0.0733989
0.00768389
0.065715
-0.138792
0.236582
-0.0977897
0.347238
-0.178346
0.0435067
-0.00370346
-0.0398033
-0.129855
-0.161276
0.291131
-0.126425
0.00556018
0.120865
-0.00400273
0.0025478
0.025413
0.0311378
0.293792
-0.32493
-0.00174677
-0.0176014
0.0623588
-0.0245037
0.0326567
0.0024668
0.000491025
-0.0306876
0.0301966
-0.0810831
-0.108738
-0.122154
0.0659531
0.0562014
0.367749
-0.391491
-0.0205654
0.0620848
-0.0415194
0.112699
-0.367176
-0.0719093
0.0490566
0.0228527
0.260601
-0.102169
-0.158432
-0.181798
0.125181
-0.0071904
0.00132649
0.00586391
0.0121703
0.0019143
-0.0140846
0.133952
-0.394461
-0.24153
0.113919
0.0148201
0.0407333
-0.0265166
-0.147582
-0.0717334
0.254934
0.126966
-0.254822
0.127857
0.00949215
-0.371033
-0.111225
0.0709149
0.0403097
-0.0582853
-0.10014
0.158425
0.00403621
-0.0224674
0.0300562
-0.0594562
0.0294
0.22552
-0.416801
0.191281
-0.0853887
0.0460479
0.0393408
-0.00266989
-0.00605631
0.00872621
0.10117
-0.0369345
0.0993118
0.148881
-0.248193
0.206483
-0.429322
-0.404382
0.225094
0.0644643
-0.0498515
-0.0146128
-0.0833854
0.05164
0.0752748
-0.118129
0.0428542
-0.0013956
0.010094
0.0165062
0.0180298
-0.034536
-0.0452675
-0.174872
0.22014
0.00786507
-0.00938563
-0.187124
-0.130441
0.317565
0.00559134
-0.0374022
0.0318109
0.106166
-0.0793485
0.280087
-0.153121
-0.00659279
0.118704
-0.112111
0.297939
-0.201177
-0.0967622
-0.105674
0.000757475
-0.00588918
0.00756696
-0.00724687
-0.077946
0.0981643
-0.0202182
0.00237569
0.00694893
-0.00932462
0.012805
0.0180371
-0.0308421
-0.0513104
-0.245659
0.276797
0.101645
-0.347304
-0.00723159
0.0114557
-0.00422415
0.020188
-0.0751309
0.0549428
-0.155602
-0.258858
0.41446
0.0145318
0.0978941
-0.112426
0.0977902
0.0261301
-0.12392
0.0101158
-0.0101158
0.0722783
-0.122803
0.0505244
-0.00348879
0.000910437
-0.115146
0.0372001
0.0994128
-0.208261
-0.0270383
0.0275293
-0.21223
0.166962
-0.143554
-0.152237
0.295791
0.120107
0.00428873
-0.124396
0.0544282
-0.0431656
-0.0112626
0.344297
-0.1576
-0.00144667
-0.120162
-0.0040924
0.0118611
-0.0175587
0.00569754
-0.04784
0.03143
0.00339535
-0.00378936
0.000394005
0.0517056
-0.264414
0.00777757
0.286014
-0.00837012
0.116847
-0.00151388
0.166583
0.149714
-0.316297
-0.102145
0.106017
-0.00387148
-0.100894
-0.111087
-0.276183
0.246619
0.029564
0.275341
-0.0891596
-0.186181
-0.00659404
0.00741695
-0.000822905
0.0979737
-0.116263
0.018289
0.00384631
-0.0772452
-0.0190097
0.0578924
-0.0192048
0.0161638
0.00304098
0.158818
0.138688
0.0133628
-0.00449607
0.0781966
-0.0580086
0.141974
-0.264018
0.122043
-0.0334352
0.0330519
0.00142364
-0.000960872
-0.23661
0.428746
-0.192136
-0.227583
0.153454
0.0741289
0.370498
-0.196823
-0.173676
0.0316887
-0.0151826
-0.162272
-0.0933881
0.25566
0.406911
-0.0391624
0.305019
-0.0767757
-0.10459
0.231857
0.0629898
-0.00996388
-0.0946799
-0.218989
0.313669
0.00865068
-0.00661841
-0.139764
0.0378749
0.101889
0.277667
-0.120923
-0.156744
0.0549564
-0.0983019
0.104584
-0.00661029
0.00131772
0.00189321
-0.00321093
0.00070527
0.000254053
0.00743705
-0.00655823
0.130015
-0.268807
-0.14819
0.371979
-0.223788
-0.17226
0.397779
0.0022239
-0.00444645
0.00222256
-0.199515
-0.198394
0.397909
-0.000764932
0.00122653
-0.0587431
0.0728844
-0.0319638
0.0650335
-0.0330697
0.0107091
-0.00137645
-0.00933266
-0.00695215
0.00702088
-6.87302e-05
-0.216959
0.079893
0.137066
-0.119383
-0.135135
0.254518
0.00479142
-0.00658162
0.10511
-0.0747466
-0.0303636
-0.200514
0.380989
-0.180475
-0.394691
0.0110456
0.383645
-0.0416947
0.0158137
0.0258809
-0.02147
-0.0503272
0.0717973
-0.00134622
0.0448529
-0.0114144
0.00568843
0.00572594
-0.0343951
0.0109631
-0.110861
-0.0585027
0.169364
0.00970254
0.010854
-0.0205565
0.00764526
0.431019
-0.429601
-0.00141819
1.93125e-05
-0.0037418
0.00372249
-0.00176442
0.0139348
0.00530159
-0.103805
0.0985033
0.00914906
-0.0173416
0.0385929
-0.0212513
0.0233505
0.0967562
-0.000656412
-0.0676439
0.0683003
0.138197
-0.275138
0.136941
0.0507444
-0.00548807
-0.0452564
-0.163982
-0.159425
0.323407
0.195879
-0.137213
-0.0586658
-0.0218231
-0.0530853
0.0749085
-0.0630147
0.0204109
-0.0332424
0.0632986
0.0728981
0.0322121
0.00133279
0.00181257
-0.00314536
0.112286
-0.203207
-0.00916822
0.00754828
-0.202552
-0.209153
0.411705
0.0811095
-0.175594
0.0944847
0.119214
-0.00505663
-0.0269798
0.0320364
-0.316303
0.19044
0.125863
-0.037501
-0.0344083
0.357062
-0.108418
-0.109735
-0.0166902
0.0351192
-0.067083
0.15012
0.196506
-0.27893
0.155829
0.123101
-0.0890231
-0.0467141
0.135737
-0.0014348
0.0265147
-0.0250799
-0.125789
0.0159351
0.109854
0.052663
-0.0772771
0.0246142
-0.16853
0.0614479
0.107082
0.0329566
-0.0201516
0.0640862
-0.026391
0.0537241
0.0244302
-0.0239767
-0.252207
-0.0207071
0.0703117
-0.0496046
-0.0448465
0.089922
-0.000667913
0.00455516
-0.00388725
-0.0330685
-0.135462
-0.331881
0.175494
-0.00734365
0.0849784
-0.102891
0.0179127
0.182043
0.0894101
-0.271453
-0.00886134
0.0185639
-0.223553
-0.17842
0.401973
0.0231105
0.0108234
-0.0339338
0.041945
-0.0363536
-0.419644
0.219064
0.200579
0.298555
-0.160358
0.0551744
0.0147342
-0.0699086
0.0430479
-0.0636133
0.156072
-0.136938
-0.0191338
0.179532
-0.08137
-0.0981618
0.00450328
0.00680601
0.191832
-0.18739
0.106307
-0.0098081
0.00968741
0.1157
-0.149055
0.0333544
-0.102566
0.0612064
0.234171
0.063768
0.313094
-0.18702
-0.126074
-0.322565
0.200661
0.121904
-0.000564565
0.00122335
-0.000658785
-0.0896916
0.164944
-0.0752528
0.272721
0.11683
-0.389552
0.00450728
-0.000313506
0.253233
0.0742082
-0.327441
0.0395507
-0.183937
-0.00300598
0.0043237
-0.183571
-0.184098
-0.0231579
0.00967919
0.134563
-0.007176
-0.127387
0.0928441
0.182496
-0.149414
0.076283
-0.175885
0.371426
-0.195541
-0.0101086
0.0109981
-0.000889487
-0.00339367
-0.00479771
0.00819139
0.0190548
0.0377942
-0.30681
-0.00841048
-0.00300389
-0.00764745
-0.00151558
0.00916303
-0.389546
0.213661
-0.000550672
-0.00400713
0.0045578
0.113994
-0.0626647
-0.0513296
-0.410183
0.0300941
0.380089
-0.353871
0.153436
-0.10326
-0.136798
0.113031
0.0430413
0.00975158
-0.00117543
-0.00857615
0.367853
-0.21968
-0.148173
-0.162496
-0.257148
-0.031298
-0.0317168
-0.0586731
0.0347783
0.0238948
0.347749
0.0105908
-0.00940368
-0.00118711
0.00729368
-0.00459308
-0.000205837
0.00428656
-0.00408072
0.12609
0.187004
0.208936
-0.121502
0.356458
-0.215284
-0.0696809
0.164984
-0.0432584
0.100441
-0.0571823
-0.186859
-0.199395
0.0809176
-0.146379
0.0654614
0.00650162
-0.416685
-0.123405
-0.0995606
0.0730881
-0.163404
0.0903155
-0.0493574
0.0344553
0.0149022
0.063333
-0.0384426
0.0356321
0.0383093
-0.0739414
0.013383
0.0863762
-0.0997592
0.0477681
-0.0684751
0.086931
0.0843565
-0.143225
-0.236317
-0.0169565
0.253273
-0.123138
-0.122029
0.245167
0.0370134
-0.061017
0.0240037
0.0191111
0.0316333
-0.047811
0.0304694
-0.00279231
0.0021244
-0.00105951
0.00107882
0.167339
-0.00928731
0.00205573
0.195249
0.0509522
-0.246202
0.189483
0.176399
-0.365882
0.0183199
-0.00654522
-0.0117747
-0.161812
0.334723
-0.172912
0.00993328
-0.00993328
0.0788853
-0.0465426
-0.0323427
0.0104004
-0.0104004
-0.00647639
0.00919319
-0.00271679
0.00304585
-0.00411676
0.00107092
0.196905
0.0534915
-0.250397
0.0388635
-0.0115222
-0.00603643
-0.120046
-0.023655
0.00576397
-0.000972548
0.0368929
-0.00598832
-0.0309046
-0.0475654
-0.233578
0.281144
-0.0211729
0.0201181
0.00105479
-0.0829107
0.246311
0.00349278
-0.00954909
0.00372092
-0.129138
-0.0878204
0.144338
-0.309915
0.165576
0.0145623
0.00734119
0.156604
0.191909
-0.348513
-0.223411
0.156515
0.0668959
-0.0307921
-0.0310989
0.0800892
-0.0363897
-0.00173484
0.00549217
-0.00375733
0.0523764
-0.0199384
-0.0296535
0.226559
0.0824429
0.113436
-0.0909128
-0.0605147
0.0075143
0.0530004
-0.251966
0.0156498
-0.00347947
0.0116535
-0.00817401
0.14066
-0.00609792
0.124753
-0.247437
-0.010516
0.00286851
-0.00817594
0.00632969
-0.0982007
0.065359
0.0328417
-0.156397
0.0667057
-0.161128
-0.117802
0.281773
-0.0672187
-0.214554
-0.0285824
-0.0400858
0.0686681
-0.0929344
-0.0251348
-0.0118075
0.129262
-0.117454
-0.037046
-0.0459002
0.0829462
0.0081751
-0.0116546
0.0184448
0.0476099
-0.0660547
0.210774
0.205893
0.297028
-0.130595
-0.0994621
-0.00268309
-0.256952
-0.00646636
-0.0133781
0.0198445
-0.0319794
-0.0475032
0.0309175
-0.0846032
-0.0800475
0.0111571
-0.302348
0.229603
0.0727442
0.0105026
-0.0183113
0.00780868
0.0206899
-0.10888
0.00277536
-0.000551462
-0.0292385
0.0732044
-0.0439659
-0.0024102
-0.00710188
0.00951208
-0.133393
0.00303262
0.141822
-0.124934
-0.016888
0.00955961
-0.00718391
-0.124408
0.197945
-0.0244416
0.0230068
-0.0761383
0.0475559
0.151807
-0.070889
-0.116438
0.0665746
0.0498638
-0.111276
0.0970799
-0.00113424
0.000583564
0.106507
-0.0914806
-0.0150262
-0.381773
0.182258
0.000107589
0.0013305
-0.00143809
0.356359
-0.0836372
0.30538
-0.157534
-0.147846
-0.0756327
0.0155366
0.00189287
0.00822295
-0.0731365
0.0516665
-0.00943512
0.00195591
0.00747921
-0.0453388
0.143129
0.488091
-0.256348
-0.231742
-0.00385165
0.0107204
-0.0068687
-0.0985478
0.0482726
-0.199055
-0.197399
0.396454
-0.042016
-0.00734146
0.0614013
-0.108941
0.0475393
-0.00171919
0.00305199
0.144193
0.156871
-0.0411708
0.110958
-0.105656
-0.19065
-0.111698
0.069175
-0.030403
-0.038772
-0.0952165
0.290466
0.0638225
0.0273988
-0.0912214
-0.00749065
0.00750112
0.0104915
-0.0120243
0.00153287
-0.118278
0.111685
0.0410731
0.209913
-0.0795332
-0.13038
-0.353842
0.19203
-0.142453
0.280797
-0.138344
-0.0564958
0.074806
-0.0183102
-0.0478759
-0.0506719
0.0300206
-0.178594
0.148573
-0.0843878
0.276467
-0.192079
-0.00959296
0.0848678
-0.102666
-0.0329322
0.135598
0.0142802
0.00344834
0.07557
0.00148111
-0.0660367
0.0389593
0.0270774
-0.027392
0.00416094
-0.00128283
-0.0121231
0.0134059
0.0974554
0.0889131
0.0165976
-0.00609499
0.00489182
-0.116392
0.12971
0.00639769
-0.00779329
0.259104
0.12114
-0.132947
0.0336118
-0.391101
0.222636
0.168465
0.0266136
-0.0442271
0.0176135
-0.0389995
-0.00046304
0.00134023
-0.000877191
0.0722388
-0.0995999
-0.00213069
-0.0025282
0.00465888
0.0509929
-0.143712
0.092719
0.0151758
-0.0432135
0.0280377
0.168927
-0.405538
-0.00655634
-3.77044e-05
-0.0303937
0.119647
-0.0892536
-0.00970331
0.0921069
-0.0787239
-0.295727
0.211339
0.0886821
-0.195298
0.176945
0.131913
-0.308858
0.0822332
-0.0642485
-0.0179848
0.0364746
0.0419485
-0.078423
-0.114566
0.0143033
0.100263
-0.0846193
0.0526399
0.0243305
0.147429
-0.0964365
0.024408
-0.0745969
-0.0490245
0.0868309
-0.0378064
0.0593283
-0.086934
0.0276057
0.0356333
0.0397717
-0.075405
-0.0399013
-0.0822531
-0.0295003
-0.0546524
-0.00760893
0.0102903
-0.0026814
-0.0994628
0.256507
0.35342
-0.105948
0.0313222
0.0468744
-0.0156784
0.0795009
-0.038943
-0.0191027
0.0580456
-0.0832519
0.076842
0.00640988
0.215102
-0.38776
0.172658
-0.0344082
-0.0538497
0.0882579
-0.146599
0.257403
-0.110803
0.136691
-0.146933
0.0102414
0.0936167
0.39121
-0.136662
-0.386865
0.0633759
0.323489
0.0885176
-0.207133
0.118615
0.20866
0.196249
-0.404909
-0.142775
0.0371665
0.20229
-0.335672
0.133382
-0.071929
-0.0189608
0.00517913
-0.0085728
0.000111794
-0.00294228
0.228394
-0.216557
-0.011837
-0.0563997
-0.24078
0.29718
-0.0071904
0.114891
-0.253571
0.00431216
0.0806663
-0.31463
0.127507
-0.0197652
0.0749395
-0.122226
0.0211306
0.101095
-4.8374e-06
-0.00176556
0.0017704
0.0362718
0.144297
0.100259
-0.199739
0.0994802
-0.0305603
0.0739147
-0.0433544
0.106646
-0.121266
0.0146194
-0.394275
0.238673
-0.0794473
0.0362209
0.0432264
0.486562
-0.211068
-0.0421827
-0.0378763
0.080059
0.20979
0.13733
-0.34712
-0.0854357
-0.137975
-0.00178494
-0.0103382
0.0789454
-0.0656135
-0.0133319
0.199057
-0.329498
0.0341349
0.0449184
-0.0790533
-0.102899
0.0508933
0.0520057
-0.0699514
-0.0180901
0.0572465
0.0663562
-0.123603
0.0376167
-0.252257
-0.0106021
-0.122672
0.00068037
-0.00695674
0.0067509
0.140834
-0.258796
0.117962
0.0413893
0.0235754
-0.0649647
-0.126485
0.246326
-0.119841
-0.0621816
-0.324684
-0.125803
0.168744
-0.00268833
0.0172812
0.023206
0.0272014
0.0517441
0.0125729
-0.0101146
-0.00245828
-0.00811418
-0.000729331
-0.00584287
-0.00779514
0.013638
0.340656
-0.141599
0.292808
-0.16535
-0.127458
-0.0736856
-0.0130127
0.0866983
0.00820479
-0.00531827
-0.0125759
-0.0978807
0.112412
-0.115706
-0.126578
0.242283
0.179831
0.134537
-0.314368
-0.00485169
0.0130268
0.0918123
0.00256491
-0.0943772
-0.0191159
-0.0213866
0.0405026
0.102158
0.0327411
0.0275596
-0.0603007
-0.144121
-0.0886158
0.0565869
0.0320288
0.186003
0.184496
0.108034
-0.00138801
-0.0177355
0.0591248
0.204965
-0.353156
0.336362
-0.159985
-0.176377
0.0862248
-0.0549025
-0.011632
0.153454
0.0952514
-0.0542169
0.20383
0.0458716
-0.10083
0.0549587
-0.00231275
0.0228341
-0.0205214
-0.103285
0.29432
0.0932873
-0.0474157
-0.0431877
0.0586052
-0.0154175
-0.0133939
0.00755101
0.102582
-0.0722686
0.0523204
-0.0371447
0.00402862
0.00693581
0.156217
-0.0243612
-0.131856
-0.137661
0.242644
-0.104982
0.00270293
-0.0168421
0.0141392
-0.0360533
-0.0433102
0.0793635
0.189982
-0.159962
-0.00762632
0.00911279
-0.00148647
-0.0029101
0.00288926
0.0129903
-0.0119446
-0.00104573
0.0723646
-0.0367313
-0.0986448
0.0453958
0.0342992
0.0421925
-0.292369
0.235969
0.00759535
-0.00810287
0.000507517
-2.47091e-05
-0.0126502
0.0126749
0.0809333
0.0677099
-0.148643
0.0240181
0.0568317
-0.0808499
-0.340788
0.154193
-0.223189
0.127996
0.0690016
-0.0984533
0.0294517
0.0895518
-0.21396
-0.0948965
0.195156
0.32662
0.0329403
-0.0659288
0.0329885
0.33662
-0.111408
-0.255959
0.208393
0.0973089
0.12852
-0.225829
0.0775941
0.0841127
-0.161707
-0.00217738
-0.00477477
-0.190114
0.148397
0.0417169
0.0405883
0.038297
-0.22985
0.445164
-0.215314
0.0372198
0.0229009
-0.0601207
-0.00911011
0.0789195
-0.0698093
-0.275797
0.133343
0.0665452
-0.0481004
0.185156
0.151206
0.0829811
-0.0543332
-0.0286479
0.00311481
-0.000857188
-0.00225762
-0.0435404
0.00090174
-0.000906577
0.0490493
-0.0860953
0.318279
-0.188892
-0.129387
0.128551
0.0621433
0.135822
0.074125
-0.158984
-0.00668857
0.00165438
0.0535876
0.0286456
-0.000427553
0.010919
-0.416372
0.200247
0.396726
-0.22365
-0.173076
-0.0864917
0.192391
-0.1059
-0.0797098
0.0327352
0.0469746
0.210389
0.121449
-0.331838
0.214478
0.167987
-0.382466
-0.153446
0.0507804
0.378879
0.0267624
-0.405642
0.0315624
0.0388048
-0.0703672
0.00910381
-0.0448349
0.0357311
0.0736894
-0.272218
-0.216344
-0.173202
-0.115371
0.260177
-0.144806
0.0132133
-0.000223002
-0.0678505
0.118188
-0.0503371
0.0615907
-0.283911
0.22232
0.053776
0.0385284
-0.0923043
0.000766969
0.00927677
0.390107
0.00782741
-0.397934
0.31637
-0.108197
-0.208172
0.0174006
0.0176818
-0.0350824
-0.240172
0.301763
0.309944
-0.193986
-0.115959
0.0123492
-0.0710923
-0.190114
0.170314
0.0198003
-0.399181
0.415423
-0.0162417
0.319957
-0.419607
0.0996499
0.0711879
-0.0930494
0.0218615
0.405019
-0.140429
-0.26459
0.270482
0.231098
-0.260752
0.217743
0.128469
-0.346212
0.000489216
-0.000820158
-0.00670716
-0.282335
0.290113
0.0125372
0.00869409
-0.0212313
0.170651
-0.257896
0.0872452
0.000371114
-0.00213668
-0.0105881
0.180036
-0.090937
-0.0890989
0.000303293
0.00108906
-0.00139236
8.92071e-05
-0.00909824
-0.176879
-0.0132353
-0.31726
0.181583
0.135678
-0.364226
0.155675
0.003909
-0.00209643
0.0314851
-0.0242799
-0.00720527
-0.032818
0.0010128
-0.0390027
-0.0799065
0.399864
-0.00402788
-0.0696577
-0.20728
0.0805278
-0.0013745
0.00414389
-0.0027694
-0.0649279
0.132065
-0.0671376
0.00103895
0.00955184
0.207106
0.20956
-0.0208412
-0.00597511
0.0268164
-0.00411528
-0.000457285
0.00457256
-0.0290041
-0.0436885
0.0726926
-0.187222
-0.19046
0.0080887
0.0035593
-0.0137449
0.0664079
-0.103008
0.22673
-0.123722
-0.0486779
-0.0173587
-0.408894
0.322656
0.0862382
0.228734
0.146761
-0.375494
-0.0935032
-0.0847311
0.178234
-0.293608
0.163295
0.130313
0.123001
-0.0495617
-0.0734389
-0.00153262
-0.00446969
-0.00942356
-0.00137996
0.228416
-0.397625
0.169209
0.100937
0.209183
-0.31012
-0.016327
0.0531858
-0.0368587
0.205382
-0.116865
0.119683
-0.0103093
-0.109373
-0.118008
0.273837
0.274031
0.092416
-0.366447
0.000117538
0.00416902
-0.16951
0.325283
-0.155773
-0.239268
0.145718
0.0935494
0.237747
-0.132303
-0.105444
0.00206878
-0.00607591
0.0136659
0.123872
-0.137538
-0.240126
-0.0811504
0.321276
0.00631605
-0.00872625
0.383068
-0.173898
0.127786
-0.032055
0.0853639
-0.0548128
-0.030551
-0.117985
-0.0721287
-0.0886463
0.16624
-0.00182982
0.0771303
-0.0455678
-0.00365287
-0.00145875
0.00511162
0.0789956
-0.0549775
0.158604
-0.101357
-0.0228278
-0.13059
0.153417
0.106559
-0.053717
-0.0528418
8.43018e-05
0.00303051
-0.0688436
0.149777
-0.00566899
-0.00437475
0.027133
0.0373313
-0.000410504
0.000518094
-0.0451152
-0.0498995
0.0950148
0.0346641
0.196434
-0.131264
0.063414
0.0958337
-0.00703481
0.00750131
0.0167499
0.00497591
0.161102
-0.0700072
-0.0910944
-0.0760041
0.0367124
0.191893
-0.378018
0.186125
0.00424989
0.00020673
-0.00445662
0.0928863
0.23393
-0.326816
0.0395156
-0.321851
-0.00661059
0.038757
-0.0422125
-0.00872713
0.0106928
-0.00196563
-0.144124
-0.128194
0.272317
-0.0626276
0.0243141
0.0383135
-0.0150168
0.0149921
0.397344
-0.0379601
0.074981
-0.0370209
0.288462
0.041077
0.225554
-0.370941
-0.0853025
0.225263
-0.139961
-0.158448
0.100163
-0.0336219
0.0285653
-0.0738002