/*--------------------------------*- C++ -*----------------------------------*\
| =========                 |                                                 |
| \\      /  F ield         | OpenFOAM: The Open Source CFD Toolbox           |
|  \\    /   O peration     | Version:  v2012                                 |
|   \\  /    A nd           | Website:  www.openfoam.com                      |
|    \\/     M anipulation  |                                                 |
\*---------------------------------------------------------------------------*/
FoamFile
{
    version     2.0;
    format      ascii;
    class       volVectorField;
    location    "400";
    object      U;
}
// * * * * * * * * * * * * * * * * * * * * * * * * * * * * * * * * * * * * * //

dimensions      [0 1 -1 0 0 0 0];


internalField   nonuniform List<vector> 
27802
(
(0.985658 0.0616161 7.96434e-21)
(1.00001 0.000113554 0)
(0.943655 0.0260911 8.95339e-21)
(1.0759 -0.0183514 -6.85855e-21)
(1.00389 0.0220595 0)
(1.31137 0.0871573 0)
(1.00429 0.0218726 0)
(1.19434 0.107181 -4.08702e-20)
(1.01863 0.0178131 -1.10229e-21)
(1.11704 -0.0628102 0)
(0.813468 -0.0644991 7.76018e-21)
(0.379401 0.466449 -7.55182e-20)
(1.0587 0.120549 -6.22067e-21)
(0.561272 -0.122383 -3.9342e-20)
(0.287812 -0.0553841 -3.46788e-20)
(-0.176426 0.0139969 -7.20695e-20)
(0.00374927 0.0197347 -3.72901e-20)
(1.01904 0.0183836 1.00293e-21)
(0.789614 -0.0675836 0)
(0.0116387 0.00774189 9.95744e-21)
(0.685302 0.0591307 2.59043e-20)
(0.297172 -0.0549351 0)
(1.02718 0.00781079 1.07299e-21)
(1.11253 -0.0392451 0)
(1.22346 0.292962 1.38445e-20)
(0.925086 0.15684 7.14227e-21)
(1.00675 0.0109141 0)
(1.08774 -0.0223962 -9.66238e-21)
(1.01351 0.00061816 -4.24852e-24)
(-0.267537 0.00228448 7.40887e-20)
(1.11182 -0.0398346 -1.49405e-20)
(1.14821 0.106011 -6.72801e-21)
(0.987035 0.0605109 -7.63483e-21)
(1.0264 0.000403864 -1.34102e-21)
(0.999247 7.87661e-05 5.21702e-21)
(-0.247219 -0.00216428 -3.21557e-20)
(-0.282232 -0.00551177 3.2871e-20)
(1.02462 0.0119663 0)
(1.03766 0.00647445 0)
(-0.201729 -0.0107275 0)
(0.413717 0.458269 3.30198e-20)
(0.999331 -2.88382e-05 -3.43573e-21)
(1.08995 0.0215128 0)
(1.02347 0.00191492 1.6462e-21)
(0.947494 0.129902 -1.93095e-21)
(-0.107049 0.00762189 -3.41228e-21)
(0.995679 0.00555715 -1.63521e-22)
(-0.153771 0.0199617 0)
(0.0217906 -0.19307 7.34635e-20)
(0.447764 -0.0341934 -1.06289e-20)
(0.320415 -0.0617952 -2.96539e-20)
(0.927737 0.161715 -7.22596e-21)
(-0.18745 -0.00915445 0)
(0.504273 0.824119 9.37441e-21)
(1.03549 0.0105983 2.38441e-21)
(1.0006 0.000212851 0)
(1.13515 -0.0537736 2.0594e-20)
(0.99438 0.0135239 0)
(0.95757 0.112587 6.39306e-21)
(1.20129 0.118773 0)
(0.296163 0.00639846 0)
(0.940367 0.00670889 0)
(1.03018 0.121031 -1.86479e-21)
(1.01752 0.00306056 2.151e-21)
(1.02356 0.00232079 0)
(1.02185 0.0414311 7.83828e-22)
(0.905408 -0.0645092 6.7546e-23)
(1.13656 -0.0541868 0)
(1.20153 0.123117 3.34665e-20)
(1.01383 0.0387203 -4.25676e-22)
(1.02356 0.00171699 1.11202e-23)
(0.344738 -0.050249 -1.1602e-20)
(0.403297 -0.066407 0)
(1.09833 -0.0569704 0)
(0.92319 -0.00465414 -2.00401e-20)
(1.06042 -0.00893369 3.51602e-23)
(0.913989 -0.0652679 1.61259e-23)
(-0.282295 0.00399929 5.55515e-23)
(0.133856 0.00758299 9.71957e-21)
(-0.174314 -0.00429634 0)
(1.01298 0.000600744 4.11396e-24)
(1.00869 0.0116574 -4.97046e-22)
(0.811959 0.186988 0)
(1.02158 0.0693402 -7.99774e-22)
(1.03133 0.0362773 0)
(1.11598 0.0397901 -1.01638e-20)
(1.00009 0.000781622 8.24899e-22)
(0.244078 -0.0266249 0)
(-0.296767 0.00269526 -5.22214e-20)
(0.980627 0.00288741 7.89413e-21)
(0.99815 0.0157823 1.27026e-22)
(0.17809 0.00650514 -1.17569e-20)
(1.01892 0.0154202 0)
(-0.193003 0.00242055 7.08318e-20)
(0.340097 -0.0591582 -6.45061e-21)
(1.09753 -0.019079 8.82539e-21)
(1.00893 0.0121124 3.40439e-22)
(1.09386 -0.0200661 5.30211e-21)
(0.991238 0.000424782 -6.23424e-21)
(1.11756 -0.069446 -1.15769e-20)
(1.03796 0.00588941 9.40939e-21)
(1.02954 0.0109474 0)
(0.275953 0.768478 8.81997e-21)
(0.282505 0.00394009 0)
(0.413147 -0.0655868 -2.17908e-20)
(1.02913 0.124499 -2.74922e-21)
(0.985074 0.0143598 -4.31927e-21)
(1.02376 0.00214364 -3.76305e-21)
(1.03502 0.0102269 2.08691e-21)
(0.943547 0.127577 4.25089e-21)
(-0.188587 0.0106098 5.25498e-20)
(0.997931 0.0155246 4.28674e-22)
(1.02629 0.000619443 -2.35345e-21)
(0.99141 0.00218521 -5.97138e-21)
(0.984294 0.0142364 0)
(1.01724 0.00261498 2.19583e-21)
(1.07345 0.079541 7.67372e-22)
(0.80333 0.486738 0)
(0.139598 -0.0190605 1.1619e-20)
(1.21939 0.28535 -4.74685e-20)
(0.0185015 0.00751288 0)
(1.19712 0.115476 0)
(-0.0960493 -0.0189556 -1.76764e-22)
(0.78715 0.492945 -2.09311e-20)
(0.41711 0.205933 -4.32984e-20)
(0.705523 0.35727 -2.51771e-20)
(1.03066 0.0535722 3.81474e-21)
(1.07887 0.0179789 1.36092e-20)
(0.201286 0.0748458 -9.28074e-20)
(1.0267 0.00108924 -2.44871e-21)
(1.16156 -0.0150508 1.86804e-20)
(1.14301 0.0685551 -1.46365e-20)
(1.0048 0.0496839 5.43856e-21)
(-0.246592 0.00842318 8.64107e-20)
(-0.0428179 -0.00410689 -2.1066e-20)
(1.06358 0.00308372 0)
(0.677576 -0.091125 0)
(0.549294 -0.110013 2.2248e-20)
(0.993504 0.00779398 -5.03377e-21)
(1.00433 0.0487646 -1.09819e-23)
(0.580017 -0.118459 0)
(1.11995 -0.0635974 4.53619e-21)
(0.845262 0.0416879 -1.52921e-20)
(0.92649 0.173001 -7.87966e-21)
(1.02424 0.0122326 0)
(0.297978 -0.0167724 8.52451e-21)
(0.895105 0.0972446 -1.89294e-20)
(1.10317 -0.00880282 -1.54158e-20)
(1.04096 0.00685453 0)
(1.13337 -0.0684177 2.02339e-20)
(0.963949 0.174294 0)
(1.3108 0.15101 2.61334e-20)
(1.08981 0.0231107 2.80472e-20)
(-0.0907698 -0.0238964 -2.45367e-20)
(1.00005 6.11925e-05 2.6765e-22)
(0.107656 0.0058579 -5.58667e-21)
(1.0624 0.00357486 0)
(1.0981 -0.0199828 -2.24068e-20)
(1.02423 0.00309945 -2.35957e-21)
(0.999352 0.00362693 -1.00022e-21)
(1.01758 0.0028841 -2.50243e-21)
(1.021 0.0410218 0)
(0.348093 -0.020908 5.13542e-20)
(1.01277 0.00846115 -9.2028e-22)
(1.00008 0.00128193 3.1584e-23)
(1.00004 0.000406964 0)
(0.381233 -0.0619264 4.19587e-20)
(1.00955 0.0226149 6.06278e-22)
(1.00504 0.0479194 -2.44932e-21)
(0.975123 0.0470347 -5.30826e-21)
(1.089 0.255677 1.54193e-20)
(-0.0610169 -0.00911387 -2.74038e-21)
(-0.0112871 0.013148 -1.00001e-19)
(1.09201 0.556951 -7.168e-20)
(1.00698 0.0176605 1.25739e-21)
(1.21303 -0.00514781 -1.8754e-20)
(-0.235397 -0.00128843 -9.08862e-21)
(0.827095 -0.0752427 -2.62934e-20)
(1.01731 0.00245401 -2.14323e-21)
(0.985656 0.0136362 0)
(1.06946 0.51761 3.09299e-20)
(0.420466 -0.0369478 1.21671e-20)
(-0.309912 -0.0022446 0)
(0.620967 -0.054936 0)
(1.02419 0.00369075 -1.00749e-21)
(0.423445 -0.0631499 7.76932e-20)
(0.133637 0.0314619 -6.01347e-20)
(0.158739 -0.948165 0)
(1.11244 -0.054274 -1.62824e-20)
(0.0456659 0.0589057 8.31757e-20)
(0.203602 -0.029947 -8.81814e-20)
(1 8.14056e-05 0)
(0.949419 0.0241674 1.17138e-20)
(1.15549 -0.0635938 -1.66687e-20)
(1.03596 0.00530791 -4.18064e-21)
(1.30594 0.154501 6.53242e-21)
(0.0761413 0.000503381 -3.85857e-21)
(0.643697 -0.0593048 0)
(1.15708 -0.0633449 -2.95046e-20)
(0.786403 -0.0666185 0)
(1.02942 0.302531 -3.75185e-21)
(0.999447 0.00347801 0)
(0.987603 0.0570283 0)
(1.07393 0.0777039 0)
(0.214982 -0.0288921 -5.55545e-20)
(1.15295 0.0387068 2.33236e-20)
(1.00903 0.0223915 -1.28753e-21)
(1.02 0.0191679 1.50106e-21)
(-0.243831 -0.00628357 -7.36508e-20)
(1.0311 0.0160758 -3.42569e-21)
(1.04045 0.00712281 -1.19488e-21)
(0.80503 -0.0740319 8.03115e-21)
(1.07665 -0.0175117 7.33703e-21)
(-0.256885 0.00142857 0)
(1.0238 0.00301578 1.94453e-21)
(1.00707 0.0111335 0)
(1.15952 -0.0138179 3.13599e-20)
(0.964562 0.0220824 7.32108e-21)
(0.997031 0.016579 -2.39092e-21)
(0.999992 0.000164992 0)
(0.342013 -0.0600564 -6.12575e-21)
(1.00515 0.0223805 3.31872e-21)
(0.985284 0.0218652 1.27966e-22)
(1.17563 -0.0433106 -1.36065e-20)
(0.974825 0.0232443 0)
(1.15538 -0.0512881 1.07312e-20)
(1.04262 0.0428653 -2.70873e-21)
(1.10417 -0.00996697 1.72311e-20)
(1.02322 0.00105304 -1.83979e-21)
(0.975481 0.0238565 -1.26985e-20)
(0.991608 0.00304482 0)
(1.09282 0.0913518 1.64652e-20)
(1.14896 -0.0498115 0)
(0.99931 -0.00027475 4.05743e-21)
(1 8.66243e-05 0)
(-0.274535 0.00441617 -2.63872e-20)
(0.668278 -0.0868193 -1.73572e-20)
(0.76599 0.249918 0)
(1.03127 0.0523637 -2.29638e-21)
(0.175154 0.675269 0)
(-0.0691284 0.00662002 0)
(-0.186834 -0.00783204 -7.59531e-20)
(0.418581 -0.0363761 3.84207e-23)
(0.30356 -0.0428969 -4.61409e-21)
(0.794528 0.0550314 0)
(1.06319 0.015151 0)
(1.0053 0.0129959 -1.94562e-21)
(-0.127304 0.0235958 0)
(1.02434 0.00352673 1.26411e-21)
(1.00065 0.000160025 -5.59671e-22)
(1.21191 0.0123453 8.03648e-21)
(1.00459 0.00430758 0)
(1.16423 0.354447 0)
(0.959965 0.0199502 -1.52232e-20)
(0.225881 -0.0238171 -1.22266e-22)
(0.314398 -0.04585 0)
(1.08359 0.0174581 -8.37263e-21)
(1.1613 0.210094 -2.98647e-20)
(1.0132 0.0415043 -7.5332e-22)
(0.923151 -0.00728702 1.23701e-21)
(1.00521 0.00375555 0)
(-0.125564 -0.0084485 -7.55439e-21)
(0.153041 -0.0218589 0)
(1.11191 -0.0534665 1.32257e-20)
(1.01746 0.0386879 -1.10168e-22)
(1.008 0.0250371 2.52602e-21)
(0.962027 -0.00726262 1.79692e-21)
(0.419977 -0.094594 0)
(0.324754 -0.046181 0)
(1.14453 0.10625 1.15845e-20)
(-0.269392 0.00385458 0)
(1.08662 0.0578464 2.23203e-20)
(0.833048 0.054859 -1.30617e-20)
(1.01225 0.00714523 -1.03225e-21)
(1.00481 0.00442272 3.94548e-22)
(0.999235 -0.000168926 -2.80303e-21)
(1.14035 0.0709914 0)
(0.996533 0.00186819 2.81728e-21)
(1.03307 0.0163129 2.39904e-21)
(0.313234 -0.0429964 -9.67628e-21)
(0.95914 0.00504171 -1.34145e-20)
(1.08741 0.155513 -6.39038e-21)
(1.19678 0.376156 -4.62812e-20)
(1.09771 -0.057151 0)
(0.0743533 0.025345 2.2248e-20)
(1.06955 -0.00425124 9.87492e-21)
(0.882752 -0.0758647 0)
(1.01375 0.00956497 3.6037e-23)
(1.17528 0.251723 3.15615e-20)
(-0.113861 -0.0208231 -2.8097e-20)
(1.24914 0.271993 0)
(0.206235 0.00642867 2.66146e-21)
(-0.151868 -0.00890155 -3.11352e-20)
(0.955514 0.115943 -1.95234e-21)
(1.02293 0.000980475 -1.68779e-21)
(1.01905 0.0413835 0)
(0.957642 0.00540164 -1.81843e-20)
(-0.043901 -0.000139554 0)
(-0.160291 -0.00838826 2.0769e-20)
(1.19804 0.111292 0)
(-0.259129 0.00480972 0)
(1.03413 0.183249 0)
(0.469624 -0.037485 -5.68246e-21)
(0.924932 0.850883 3.88288e-20)
(0.0565622 -0.0266872 8.05101e-21)
(0.996764 0.00191847 8.60016e-22)
(1.17296 -0.00652129 -3.21643e-22)
(1.01465 0.0382723 4.04605e-22)
(0.0170435 -0.0262643 -1.821e-20)
(1.03077 0.0121606 -1.77515e-21)
(0.44649 -0.0336908 -2.94018e-21)
(1.23405 0.103066 4.73721e-20)
(-0.162873 0.0142547 -1.00041e-19)
(0.994583 0.0140073 5.54902e-22)
(-0.242196 0.00208276 0)
(0.327942 0.104231 -8.3967e-20)
(1.18108 0.0717271 0)
(1.01245 0.000665894 -1.03284e-21)
(1.08796 -0.0214687 1.60078e-20)
(-0.253564 0.0033789 -4.9887e-20)
(1.03024 0.0124297 2.01587e-21)
(0.928997 -0.012371 8.74329e-21)
(1.14915 -0.0359523 0)
(0.464827 -0.0377498 -6.38458e-21)
(0.0522934 0.00652779 4.25154e-21)
(1.01935 0.0158383 0)
(0.813228 0.177509 2.01638e-20)
(0.697065 -0.154914 0)
(0.815398 -0.0693409 3.27934e-21)
(1.00541 0.00406474 4.13456e-22)
(0.654603 -0.0566119 6.55958e-21)
(1.0117 0.00770454 4.04842e-22)
(0.999441 0.0037377 -8.68721e-21)
(1.15051 -0.0374322 0)
(1.07146 0.535926 -6.58101e-20)
(1.04138 0.0426979 -1.38367e-21)
(0.995255 0.0159627 2.50063e-21)
(0.981343 0.00289146 6.34682e-21)
(1.23262 0.0988173 2.40495e-22)
(1.06114 -0.008394 -1.43598e-20)
(1.03215 0.0226153 -1.54474e-21)
(1.27948 0.1588 0)
(1.00151 0.0268753 -2.48953e-21)
(1.24432 0.266882 0)
(-0.165176 0.0232491 -1.29941e-19)
(-0.350655 -0.000572039 0)
(1.06902 0.0152551 0)
(1.01792 0.0236458 0)
(1.0631 0.016277 4.40157e-21)
(1.01712 0.0180593 -7.77217e-22)
(0.434902 -0.10565 0)
(0.43752 -0.0546684 -6.04359e-20)
(1.0094 0.0113306 0)
(1.1614 0.206478 2.80115e-20)
(1.03519 0.0331941 -5.00537e-21)
(1.03097 0.0155094 3.27522e-21)
(0.973754 0.047973 0)
(1.01468 0.0320001 -3.93766e-22)
(-0.0670937 0.00874365 2.49905e-20)
(1.01119 0.00214343 -1.65045e-21)
(1.15751 -0.0509467 -2.61018e-20)
(1.29364 0.268736 1.50086e-22)
(0.274963 -0.0586304 1.78863e-20)
(1.02132 0.00192604 -1.4416e-21)
(1.03375 0.0226686 -1.07245e-21)
(1.03466 0.02329 -3.86822e-21)
(-0.162672 -0.00901225 0)
(1.01341 0.00919764 -5.16558e-22)
(0.986262 0.514174 0)
(1.023 0.00072944 3.68313e-21)
(1.14727 -0.0496881 0)
(1.16464 0.170245 0)
(-0.260984 0.00693928 -3.86658e-20)
(1.06245 0.0299885 -2.42027e-21)
(0.958386 0.0203642 7.24249e-21)
(1.04051 0.0224983 7.89672e-21)
(1.03184 0.293049 1.94829e-21)
(0.99605 0.0145341 -3.90535e-21)
(1.11412 -0.0548639 1.4116e-20)
(0.928991 0.0400968 -5.20653e-21)
(0.894854 0.0928756 2.21788e-20)
(0.999529 0.00359702 8.3264e-21)
(0.984452 0.0221537 -6.67935e-21)
(0.999992 0.000185081 2.33516e-22)
(1.03634 0.0231795 0)
(-0.250329 -0.00822746 -1.4671e-19)
(0.637507 -0.244362 0)
(1.1083 -0.0405851 -9.02094e-21)
(-0.259364 -0.00255864 -2.1327e-20)
(0.376275 -0.496296 0)
(0.999402 0.0247183 1.84841e-21)
(1.10292 -0.0640568 -7.0938e-21)
(0.978332 0.018982 1.1724e-20)
(1.0078 0.0321112 1.3311e-21)
(0.767464 0.24096 3.42016e-20)
(1.05182 0.0474293 7.72883e-21)
(0.999359 0.00330442 1.06521e-21)
(0.341545 -0.0371023 -1.40975e-20)
(1.30995 0.09157 -8.75271e-21)
(0.197783 -0.0131162 0)
(1.09376 -0.0378912 -1.93823e-20)
(0.490958 0.104254 0)
(1.00177 0.000341159 8.62891e-22)
(0.996613 0.000670018 0)
(1.09645 -0.056852 -1.98576e-20)
(-0.153931 0.0144978 8.91655e-20)
(0.996701 0.00234266 7.36773e-21)
(0.909166 0.031177 0)
(1.16993 -0.00626729 -1.72702e-20)
(1.07707 0.0199771 -6.92767e-21)
(1.03245 0.0159643 -4.24609e-21)
(1.03038 0.130799 -5.36271e-21)
(0.983652 -0.0711684 0)
(0.375013 -0.061632 1.26228e-20)
(0.979894 -0.0639631 4.03584e-21)
(0.213921 0.00756311 0)
(1.00501 0.00440603 -3.48861e-22)
(0.294328 -0.0249623 -5.7125e-20)
(1.02998 0.0106362 0)
(1.11657 -0.062883 1.61643e-20)
(1.08445 -0.00254253 -1.02144e-20)
(-0.138815 0.0272374 -6.84936e-23)
(0.999997 0.000129594 0)
(1.00471 0.0225403 0)
(1.06163 0.0782586 7.60606e-21)
(1.06042 0.00667035 -6.59488e-21)
(0.959654 0.170538 0)
(0.999569 0.0253951 2.21713e-21)
(0.996753 0.0162272 1.05725e-21)
(0.682183 -0.113016 2.81727e-20)
(0.993097 0.00779865 6.5168e-21)
(1.00778 0.0424416 1.16462e-22)
(1.17543 -0.040871 2.39965e-20)
(0.99911 -0.0737735 4.89529e-23)
(1.09161 -0.0359544 1.32155e-20)
(-0.178844 0.0106368 0)
(1.19554 0.103396 -2.79991e-20)
(0.605014 0.120817 4.37385e-20)
(1.20872 0.0117813 0)
(1.00802 0.0312512 0)
(0.855462 0.0963847 -2.65973e-20)
(-0.0573471 -0.00773086 2.63742e-21)
(1.06845 0.033287 -9.94961e-21)
(0.995773 0.0141741 -4.74228e-21)
(1.03282 0.133503 7.38539e-21)
(1.06915 -0.0034606 -1.11556e-20)
(0.749908 -0.0810061 2.55518e-20)
(1.05446 0.0240099 1.98398e-22)
(0.991211 0.00268427 0)
(1.00503 0.00421804 5.14408e-22)
(-0.295881 -0.00233799 6.33152e-20)
(0.446102 -0.0348119 6.08021e-21)
(1.05457 0.0247041 0)
(1.00735 0.00852146 9.89866e-23)
(0.637396 0.133318 -6.57986e-20)
(0.999269 0.00314385 4.63942e-21)
(0.923562 -0.0684225 0)
(0.999337 0.0035203 5.21792e-22)
(1.03101 0.0371102 -2.02925e-21)
(1.06805 0.0158854 -6.14438e-22)
(1.24193 -0.0248119 1.37836e-20)
(1.01206 0.0397012 8.13986e-22)
(1.02272 0.000618252 0)
(0.820091 -0.0525122 -1.465e-20)
(0.994676 0.0056966 0)
(1.13246 0.00953302 1.61277e-20)
(0.123992 -0.0160154 -7.4974e-21)
(0.636775 -0.257111 0)
(0.997951 0.0121152 0)
(0.0591289 0.00831789 4.27275e-21)
(1.19514 0.368861 4.76491e-20)
(0.612836 0.128639 0)
(-0.0605278 0.00842713 0)
(0.340141 1.19433 -4.6384e-21)
(1.01974 0.0685783 6.70491e-23)
(0.999744 0.173053 2.28915e-21)
(1.01701 0.00219839 0)
(1.09591 -0.0650947 -1.57456e-20)
(0.996895 0.00243772 -6.75868e-21)
(0.893637 0.332346 -3.92178e-21)
(1.01005 0.0314398 0)
(1.08323 -0.00175864 2.05595e-20)
(0.236378 -0.00162598 2.57235e-21)
(0.344271 -0.0451492 0)
(1.00711 0.00817089 2.0865e-22)
(0.986327 0.0139442 -4.7919e-21)
(0.745141 -0.0889273 -3.96266e-20)
(0.965162 0.0209892 -2.15105e-21)
(1.04038 0.021778 -3.55606e-21)
(1.01012 0.0248692 0)
(1.01093 0.00197789 1.79569e-21)
(1.19148 0.0304424 3.93545e-22)
(1.09961 0.00483674 -1.97762e-22)
(0.115524 0.657912 2.85383e-21)
(1.28293 0.30975 5.31245e-20)
(1.01333 0.00156151 -1.45385e-21)
(1.05699 0.298223 -1.18621e-20)
(0.226033 -0.017945 9.55616e-21)
(0.906504 0.0301133 0)
(1.05763 0.0128919 8.10898e-23)
(1.021 0.00192672 3.2255e-23)
(1.00007 0.000766503 4.2847e-22)
(0.951221 -0.0769813 0)
(1.21639 -0.00608544 0)
(1.05746 0.158365 4.38537e-21)
(-0.238897 0.0045542 4.49783e-20)
(0.670733 -0.0588149 -2.79283e-21)
(0.992596 0.012602 0)
(-0.277819 -0.00326249 -1.22145e-20)
(1.01932 0.0109076 0)
(0.721634 0.721835 0)
(1.05913 0.11782 -6.24422e-21)
(1.01045 0.0244709 -5.19015e-22)
(0.923127 0.00111751 0)
(1.00236 0.0202705 0)
(1.07878 0.0193761 1.36202e-20)
(-0.174133 0.00985559 0)
(-0.276668 0.00181249 3.18473e-20)
(0.897623 0.00282541 -4.20924e-20)
(-0.281869 -0.00283568 0)
(0.629974 -0.0617971 0)
(1.1136 -0.0540648 -6.5966e-21)
(0.9976 0.0123111 0)
(0.997424 0.0119464 0)
(0.285346 -0.00585519 -2.18388e-20)
(0.962478 0.214256 -3.68886e-21)
(0.999936 0.000253521 -7.64013e-21)
(1.13398 0.0920802 -1.18536e-20)
(1.01245 0.126378 2.13981e-22)
(-0.226835 -0.000209341 0)
(1.08949 -0.0444983 -6.06579e-21)
(-0.0761884 -0.0224262 3.45463e-20)
(0.899441 0.00113341 4.22968e-20)
(1.01232 0.0420523 1.00899e-21)
(0.420547 0.929903 0)
(0.992265 0.0124038 7.28058e-21)
(0.995306 0.0067819 4.33622e-21)
(0.931351 0.0181857 -8.01903e-21)
(0.920431 -0.0724997 1.35784e-20)
(1.00884 0.0114013 2.45114e-22)
(-0.161026 0.013713 0)
(0.931345 0.0396573 0)
(0.249304 -0.249982 1.32384e-19)
(0.720738 0.349349 -1.17277e-20)
(-0.10867 0.00614987 3.3797e-20)
(1.02636 0.0011676 8.73162e-22)
(0.998081 0.0124296 0)
(0.207945 -0.015139 0)
(1.1514 0.0365507 -1.27976e-20)
(0.99625 0.00651794 0)
(1.1515 0.086727 0)
(1.05067 0.0480699 4.2837e-21)
(1.00532 0.0288218 0)
(1.01934 0.0206662 1.99438e-21)
(-0.188525 -0.00915716 0)
(1.13884 0.0247658 -2.42691e-20)
(1.24031 -0.0221052 0)
(1.01581 -0.0706153 0)
(0.250669 -0.296363 5.82025e-20)
(1.01863 0.0237486 -5.0183e-22)
(0.32067 -0.0475981 1.05631e-20)
(0.96746 0.211148 -6.91644e-21)
(1.00566 0.0316138 0)
(0.590785 -0.134068 -1.20561e-19)
(0.042626 0.00771318 -1.90665e-20)
(1.00313 0.00437757 9.51027e-22)
(0.972984 0.00579434 -4.55948e-21)
(1.00775 0.0115435 -1.99952e-22)
(0.630506 -0.0581084 1.21247e-20)
(1.03815 0.0144752 2.6374e-21)
(1.01708 0.00201575 0)
(1.02774 0.0078369 0)
(1.01818 0.0380401 -7.05472e-24)
(0.995356 0.501176 -3.08943e-21)
(1.03686 0.0137367 0)
(-0.246909 0.00652199 0)
(1.10999 -0.00784996 -2.18311e-20)
(0.998649 0.0237655 -8.4033e-23)
(1.10922 -0.0413503 3.5288e-23)
(1.13987 0.0225998 2.07156e-20)
(0.0838207 -0.0184698 3.93778e-21)
(-0.00149501 -0.023367 -1.14865e-20)
(0.207308 0.00757653 -3.70924e-21)
(1.01193 0.0384691 -1.32146e-21)
(1.0174 0.00694903 1.18722e-21)
(1.01347 0.00130774 -7.23095e-22)
(0.103723 0.00346194 -6.64246e-20)
(1.01153 0.00465464 0)
(0.0378664 -0.0236475 -1.87275e-20)
(1.2953 0.0889466 2.81008e-20)
(0.86142 0.244153 0)
(-0.303545 -0.00182968 3.57603e-20)
(0.189936 -0.00480131 -1.18872e-20)
(0.994521 0.0473315 0)
(0.990147 0.00148973 -3.59425e-21)
(0.179841 -0.010449 -2.08321e-20)
(1.0963 -0.0499613 9.62114e-21)
(1.01103 0.0108808 -1.62472e-22)
(1.00043 7.53596e-05 -9.36587e-22)
(0.778368 0.0467086 -5.0404e-20)
(1.09391 -0.0575348 0)
(0.77878 -0.055064 0)
(-0.262237 -0.000292599 -1.31897e-20)
(0.529971 -0.62861 0)
(1.02039 0.074425 2.632e-22)
(0.302405 -0.344971 9.27441e-20)
(-0.171031 -0.00348175 7.13004e-20)
(1.00971 0.000547602 6.14818e-22)
(0.0820556 -0.0120723 -3.24454e-20)
(0.358529 -0.0473343 5.28188e-21)
(1.15027 0.052176 1.9316e-23)
(0.196925 0.760515 0)
(0.891684 0.127893 -2.81059e-20)
(0.930269 0.0196213 -5.25299e-21)
(1.11341 0.187993 -1.74325e-20)
(1.00538 0.0151465 -7.04779e-22)
(0.678982 -0.0386369 6.41024e-21)
(1.01131 0.0124024 0)
(1.08983 0.013617 5.91861e-21)
(0.834532 0.0127829 -1.9671e-20)
(0.756356 0.231605 -4.29086e-20)
(1.19118 0.276479 -7.19296e-21)
(1.09547 -0.0499976 -8.3002e-21)
(-0.0815071 -0.0169073 -1.05125e-20)
(1.06677 0.033395 -2.28698e-21)
(-0.308314 0.00297378 3.57314e-20)
(1.00003 0.000325782 1.27166e-21)
(1.0046 0.0674198 -1.71912e-21)
(1.03173 0.12744 -4.89921e-22)
(0.629869 0.149629 -3.85284e-20)
(0.996339 0.0115071 3.46903e-21)
(0.884786 0.324078 -4.42553e-21)
(1.01168 0.000563768 1.33074e-21)
(1.13406 0.0108618 0)
(0.86714 0.23697 9.47712e-21)
(1.00735 0.0180382 -7.64769e-23)
(0.993706 0.00937644 -5.82987e-21)
(1.10366 0.0746529 -9.4146e-21)
(0.565257 -0.000122289 -1.23502e-19)
(1.08884 -0.037247 8.67443e-21)
(1.24403 0.309471 -9.46227e-21)
(1.04319 0.0796199 0)
(0.670963 -0.0627476 -7.06954e-21)
(1.01189 -0.0656519 0)
(1.10181 -0.064467 -6.29692e-23)
(1.00462 0.0286327 3.9967e-22)
(0.872647 0.169431 -2.91016e-20)
(1.27508 0.155277 0)
(0.110614 -0.0200544 5.87062e-21)
(1.0413 0.080167 0)
(1.00876 0.0123808 -2.27418e-22)
(0.261675 -0.280316 0)
(1.13122 -0.0409549 2.76697e-20)
(0.996018 0.0161508 0)
(0.272882 -0.354483 -5.02353e-20)
(0.999942 0.000482784 -4.14769e-21)
(0.446858 0.715014 0)
(0.731122 0.680415 0)
(0.999915 9.23483e-05 2.61585e-21)
(1.00562 0.0149903 1.89001e-21)
(1.14205 0.339013 0)
(1.10076 -0.0646818 0)
(1.03035 0.0845328 -1.53258e-21)
(1.08542 0.00144712 9.86066e-21)
(-0.274955 0.0038123 3.89075e-20)
(0.999965 0.000362196 -4.2242e-21)
(1.0197 0.0666079 0)
(-0.309833 -0.00196478 0)
(0.951922 0.0304986 2.38888e-20)
(1.18447 0.0731602 0)
(1.00251 0.020731 -9.32357e-22)
(1.03141 0.00136461 0)
(1.0198 0.0246689 -3.18701e-23)
(-0.0308215 -0.00770107 -1.20197e-22)
(1.08621 -0.0184111 -2.73424e-21)
(0.998714 0.00137984 -2.37318e-21)
(0.124804 0.00617984 -2.07657e-21)
(1.00813 0.0182972 -5.02453e-22)
(1.07009 -0.0196272 6.18607e-21)
(0.10124 -0.0211385 -1.40334e-20)
(0.999455 -0.000238552 9.11341e-21)
(0.425231 -0.0311513 5.58288e-21)
(1.12358 0.0350861 -3.01813e-21)
(1.01997 0.020788 -1.67401e-21)
(0.949121 0.0225396 -1.15466e-20)
(1.01632 0.00616949 -9.74135e-22)
(-0.307413 0.00148781 0)
(-0.222469 -0.00747977 4.01606e-20)
(0.908703 -0.0679981 0)
(1.04014 -0.00264904 0)
(-0.259422 0.000359807 1.23629e-20)
(-0.23957 -0.00238158 0)
(1.01596 0.00587916 -9.85588e-22)
(0.0898032 0.00948729 -4.11822e-21)
(0.951787 0.209295 -1.14988e-21)
(1.00001 0.000466567 0)
(1.01265 0.00877333 1.43225e-21)
(1.00694 0.0415505 0)
(1.03225 0.0842199 4.28147e-21)
(-0.329325 -0.000987156 0)
(1.01048 0.0110522 0)
(0.999952 7.20398e-05 0)
(0.757554 0.22106 -1.87585e-20)
(1.01065 -0.0769955 2.20533e-21)
(0.999255 0.00336843 -6.06569e-21)
(-0.273355 0.00540663 -4.72987e-20)
(0.172644 -0.024869 1.08629e-20)
(0.113174 -0.0369092 3.52437e-20)
(1.03146 0.000996244 0)
(1.06391 0.030314 0)
(0.999989 0.00019006 0)
(1.02177 0.0712413 9.27412e-22)
(1.18388 0.0269859 1.04808e-20)
(1.00499 0.012672 1.90856e-21)
(0.990216 0.0666359 4.69058e-21)
(1.00002 0.000348252 0)
(1.07692 0.0213552 1.41211e-20)
(1.03796 0.0852627 -3.49245e-21)
(0.845917 -0.0756448 -1.60361e-20)
(1.23234 0.293545 0)
(1.14019 -0.0677412 0)
(0.991371 0.126159 0)
(0.865643 0.168049 1.5548e-20)
(1.0932 -0.0207299 2.31378e-21)
(1.03295 0.0231306 1.12237e-21)
(1.02921 0.0124927 9.79093e-22)
(1.01619 0.0318915 -3.57954e-24)
(0.933072 0.446586 -9.23009e-22)
(0.67073 -0.0438993 3.39114e-20)
(1.00196 0.159078 5.29805e-20)
(0.0941377 -0.0169195 3.06628e-20)
(0.0363302 -0.0112703 3.35595e-20)
(1.01091 0.0111971 1.42488e-22)
(0.267429 -0.00322706 2.24306e-20)
(1.01935 0.0222331 1.82041e-21)
(0.998919 0.00225885 0)
(0.0927103 -0.441192 -1.39843e-19)
(1.0039 0.0147303 -1.63958e-21)
(-0.217519 0.00209352 6.88711e-20)
(1.10709 -0.0720048 -3.93398e-20)
(-0.226092 -0.000656015 4.96992e-20)
(-0.299799 -0.0026879 0)
(0.144604 0.00370659 0)
(0.992864 0.0172138 -1.69688e-21)
(0.955557 0.213141 1.18738e-21)
(0.259177 -0.228872 -1.06044e-19)
(1.11439 0.0411983 5.27558e-21)
(0.171379 -0.00907357 3.16068e-20)
(0.606802 -0.191978 -4.23118e-20)
(1.01248 0.0119223 3.74e-22)
(0.456386 -0.0340094 0)
(0.990957 6.58024e-05 4.14484e-21)
(0.237796 -0.0202482 -9.00389e-21)
(-0.0990177 0.0078179 -2.59923e-20)
(0.994167 0.0461025 5.25615e-21)
(1.02818 0.00434493 5.04981e-21)
(0.443303 -0.033321 -9.23951e-21)
(1.0121 0.00903356 -8.36867e-22)
(1.024 0.0496755 0)
(1.07354 0.565145 5.09455e-20)
(1.11366 -0.0621163 -1.73456e-20)
(-0.151341 -0.0165401 0)
(0.940122 -0.0746504 4.86899e-22)
(0.993088 0.0176887 -2.87805e-23)
(1.09002 0.0122266 0)
(0.986424 0.0581619 -4.29509e-21)
(0.760371 0.091418 -4.95958e-22)
(1.02866 0.0125322 8.91701e-22)
(0.30105 -0.00917275 -8.69097e-21)
(1.12486 0.0334701 4.14385e-22)
(1.00102 0.026892 2.29888e-21)
(-0.254795 -0.00198811 0)
(-0.216967 0.00266924 0)
(1.09705 -0.0582883 5.26776e-21)
(1.08744 -0.0186924 -2.99341e-21)
(0.994037 0.0089009 3.21969e-22)
(0.995039 0.00492958 -2.16694e-21)
(1.11342 -0.0657787 1.02502e-20)
(1.08306 0.154934 4.19567e-22)
(1.04823 0.0658929 7.34021e-21)
(1.10302 -0.057271 1.56374e-21)
(0.314852 -0.0121239 0)
(1.1173 0.27111 0)
(1 7.9686e-05 -1.2513e-21)
(0.99537 0.00546349 4.26949e-21)
(1.14872 0.0886733 0)
(1.03737 0.014434 -4.98847e-21)
(0.413118 -0.0547759 1.6508e-20)
(1.23231 0.106374 -4.36067e-20)
(0.0820328 -0.758583 0)
(0.945501 0.0249633 2.70082e-21)
(0.307319 0.827787 -9.78374e-21)
(1.01333 0.0323464 4.25468e-22)
(0.381169 -0.0411648 -2.10271e-20)
(1.03084 0.179599 0)
(0.0655457 0.000697851 9.95366e-20)
(0.881621 0.178609 0)
(-0.256875 -0.00435257 7.15289e-20)
(0.941948 0.00562722 4.80133e-22)
(1.10703 0.039794 2.43148e-20)
(-0.304475 -0.000844148 3.18739e-20)
(1.06676 0.0150152 -1.73466e-22)
(0.566849 -0.0142206 8.66182e-20)
(1.12364 -0.0649712 -8.98178e-21)
(0.991879 0.0665449 0)
(1.09457 -0.0510606 0)
(1.09226 -0.0368616 5.02998e-21)
(0.0374917 0.00781309 4.69866e-21)
(0.891156 0.042739 -1.67992e-20)
(1.0113 0.00436853 7.9529e-22)
(0.0295395 -0.0180492 -1.61299e-20)
(0.998566 0.00131986 0)
(1.04121 -0.00145829 0)
(1.1687 0.250497 -3.42961e-20)
(-0.317037 -0.00344159 0)
(1.09389 -0.0569018 0)
(-0.323643 -0.000994194 0)
(1.01596 0.124932 0)
(1.0005 0.00358136 -2.03425e-21)
(0.270852 -0.0177368 0)
(1.16141 -0.0654392 3.52234e-20)
(1.00013 0.00210059 -1.46572e-22)
(0.832618 -0.0756399 0)
(1.15707 0.00745455 1.51701e-20)
(-0.0693788 -0.0193988 5.50199e-21)
(1.00926 0.011598 1.62928e-22)
(0.952065 0.03214 -2.39398e-20)
(1.14718 0.052269 -4.18348e-23)
(1.01278 0.0318714 0)
(0.801376 0.14612 -2.50169e-20)
(1.01961 0.0218207 -1.30149e-21)
(0.897493 0.13779 1.10018e-20)
(-0.274529 0.00313956 1.99534e-21)
(0.246609 -0.048293 -1.84807e-20)
(0.92329 0.0037572 0)
(0.874732 0.178388 -1.5206e-20)
(0.432108 0.774251 -1.18126e-20)
(0.992615 0.0445356 0)
(1.00398 0.014296 1.55165e-21)
(1.00694 0.023181 1.98682e-21)
(1.17198 0.201417 3.38101e-20)
(1.16273 -0.0650321 -2.48106e-20)
(1.04886 0.026577 6.78433e-21)
(1.00198 0.00803197 -1.66116e-21)
(1.05899 0.156114 -4.09663e-21)
(1.11342 0.00507344 0)
(0.329116 -0.0629954 2.68056e-20)
(0.849587 0.0985945 2.20178e-20)
(0.896846 0.403611 4.05925e-21)
(0.345466 -0.469288 0)
(0.377932 0.300091 0)
(0.974643 0.0250472 -1.18748e-22)
(0.358902 -0.0387498 1.0968e-20)
(0.158685 0.00652787 0)
(1.09106 0.0890363 0)
(-0.213414 0.00533225 -4.90386e-20)
(0.996292 0.0165392 3.70909e-23)
(1.04774 0.0649141 2.42893e-21)
(0.489576 0.916661 3.06296e-21)
(1.00702 0.00755328 4.18725e-22)
(0.827633 0.065568 5.12724e-20)
(0.804411 0.803363 0)
(-0.0310066 -0.0125975 2.67433e-21)
(0.951592 0.115733 2.2055e-21)
(0.126043 -0.0066052 0)
(1.07611 0.0506279 0)
(0.871974 0.117985 0)
(1.00302 0.00413288 -9.51459e-22)
(-0.175173 -0.0122137 0)
(1.12037 -0.0125973 2.24098e-20)
(-0.288852 -0.00322293 0)
(0.993645 0.124296 3.1216e-21)
(1.002 0.00791798 1.73304e-23)
(1.06932 0.0346255 0)
(1.00763 0.0124937 0)
(1.19211 -0.0170935 2.90762e-20)
(1.10476 -0.0582855 1.41768e-20)
(1.14662 0.0440107 0)
(1.22799 0.107368 3.72206e-20)
(1.16669 0.201423 -3.21873e-20)
(1.0751 0.0494729 4.29349e-21)
(1.3086 0.275743 -4.0451e-20)
(1.0571 0.35624 1.3935e-20)
(1.14399 -0.0450674 0)
(1.2308 0.335974 -1.53014e-22)
(0.995178 0.171206 2.32712e-21)
(1.199 0.124715 -5.86346e-20)
(-0.318407 -0.000550977 0)
(0.991435 0.0035158 0)
(1.00007 5.28754e-05 6.69342e-22)
(0.97519 0.214905 2.52639e-21)
(0.901687 0.140411 -5.54744e-21)
(0.966625 -0.0637197 0)
(0.854946 0.117957 -3.66597e-21)
(1.01333 0.00749986 1.23143e-21)
(1.20588 -0.0128614 4.36105e-22)
(1.01519 0.0365322 0)
(0.944643 -0.000449058 0)
(1.02009 0.0419338 0)
(1.00011 0.00138554 3.41812e-23)
(1.00003 0.000938708 0)
(1.05978 0.0332478 -8.89536e-21)
(1.00007 0.00144403 2.49491e-21)
(1.09528 -0.020258 -7.61152e-21)
(1.00776 0.0190938 -7.12445e-23)
(0.849451 0.0383058 4.18693e-20)
(-0.201235 -0.00919582 -8.70848e-20)
(0.0602143 0.0385775 -1.85067e-19)
(1.0417 0.0237202 9.41485e-21)
(1.00187 0.00712866 -6.30653e-22)
(0.159772 0.000122488 0)
(1.03424 0.0325327 2.46775e-21)
(1.12987 -0.0408186 -2.00632e-20)
(1.01929 0.0113014 0)
(1.15288 0.340756 1.02013e-20)
(1.09216 -0.0388729 0)
(0.0449955 -0.0181333 -1.71316e-20)
(0.672791 -0.10471 0)
(1.01418 0.0325482 0)
(1.03053 0.0444598 2.80195e-21)
(0.782892 0.091555 2.39531e-20)
(1.15136 0.0601198 7.18532e-21)
(0.99996 0.000247021 1.95546e-21)
(1.25491 0.238104 6.73987e-20)
(1.00002 0.000185004 2.78702e-22)
(1.05663 0.275762 -4.20273e-22)
(0.998786 0.0016721 0)
(1.02273 0.0491756 7.20375e-22)
(0.122741 0.14295 1.73529e-21)
(1.17015 -0.0694745 -1.80359e-20)
(1.01883 0.0105696 -1.36716e-21)
(1.2723 0.0240048 -5.44763e-20)
(1.25023 0.0742599 0)
(1.08375 0.259273 0)
(1.07314 0.0694688 0)
(1.03814 0.00680581 0)
(-0.304625 -0.000242798 0)
(0.930607 -0.0108778 -8.20275e-21)
(0.155937 -0.0387399 -4.53474e-20)
(1.05895 0.0114079 6.38918e-21)
(0.778132 0.117192 -5.81177e-20)
(0.983057 0.00644132 2.7662e-21)
(1.00003 0.000793081 0)
(0.965197 0.0234652 0)
(-0.17577 -0.0109182 1.91294e-20)
(0.7053 0.0582476 2.62656e-20)
(1.17498 -0.0695885 -1.63387e-20)
(-0.311362 -0.000854741 0)
(-0.254969 0.00793963 -3.58356e-20)
(0.327627 -0.0213399 8.85496e-24)
(1.01881 0.0101726 1.41521e-21)
(1.01138 0.0317037 -1.31354e-21)
(1.12841 -0.047457 0)
(-0.209049 -0.00631883 4.35615e-22)
(0.309619 0.00468796 -2.50549e-21)
(1.13118 0.0898145 1.29749e-21)
(1.05156 0.0145056 -3.43527e-22)
(1.02615 0.00879594 0)