/*--------------------------------*- C++ -*----------------------------------*\
| =========                 |                                                 |
| \\      /  F ield         | OpenFOAM: The Open Source CFD Toolbox           |
|  \\    /   O peration     | Version:  v2012                                 |
|   \\  /    A nd           | Website:  www.openfoam.com                      |
|    \\/     M anipulation  |                                                 |
\*---------------------------------------------------------------------------*/
FoamFile
{
    version     2.0;
    format      ascii;
    class       volVectorField;
    location    "400";
    object      U_0;
}
// * * * * * * * * * * * * * * * * * * * * * * * * * * * * * * * * * * * * * //

dimensions      [0 1 -1 0 0 0 0];


internalField   nonuniform List<vector> 
27802
(
(0.985659 0.0616169 7.96402e-21)
(1.00001 0.000113534 0)
(0.943655 0.0260922 8.95353e-21)
(1.0759 -0.0183531 -6.85972e-21)
(1.00389 0.0220594 0)
(1.31138 0.0871309 0)
(1.00429 0.0218725 0)
(1.19434 0.107176 -4.08713e-20)
(1.01863 0.0178132 -1.103e-21)
(1.11708 -0.0628327 0)
(0.813475 -0.0644872 7.75909e-21)
(0.3794 0.466449 -7.55221e-20)
(1.0587 0.120548 -6.22117e-21)
(0.561272 -0.122382 -3.9343e-20)
(0.287829 -0.0553875 -3.46738e-20)
(-0.176426 0.0139976 -7.20727e-20)
(0.00373967 0.0197419 -3.72913e-20)
(1.01904 0.0183838 1.00358e-21)
(0.78962 -0.0675716 0)
(0.0116815 0.00774606 9.95478e-21)
(0.685313 0.0591295 2.5906e-20)
(0.297189 -0.0549397 0)
(1.02718 0.00781067 1.0734e-21)
(1.11254 -0.0392483 0)
(1.22346 0.292966 1.38451e-20)
(0.925087 0.156841 7.14223e-21)
(1.00675 0.0109139 0)
(1.08774 -0.0223982 -9.66349e-21)
(1.01351 0.00061816 -4.25182e-24)
(-0.267537 0.00228472 7.40888e-20)
(1.11183 -0.0398384 -1.49418e-20)
(1.14821 0.106009 -6.72821e-21)
(0.987035 0.0605116 -7.63453e-21)
(1.0264 0.000403785 -1.34163e-21)
(0.999247 7.8504e-05 5.21734e-21)
(-0.247202 -0.00216421 -3.21541e-20)
(-0.282226 -0.00551082 3.28699e-20)
(1.02462 0.0119659 0)
(1.03766 0.00647454 0)
(-0.201729 -0.0107274 0)
(0.413716 0.458269 3.30215e-20)
(0.999331 -2.912e-05 -3.43593e-21)
(1.08995 0.0215131 0)
(1.02347 0.00191499 1.64698e-21)
(0.947494 0.129902 -1.93093e-21)
(-0.107069 0.00762596 -3.41233e-21)
(0.995679 0.0055579 -1.63533e-22)
(-0.153772 0.019962 0)
(0.0217907 -0.19307 7.34657e-20)
(0.447764 -0.0342191 -1.0625e-20)
(0.320422 -0.0617802 -2.96498e-20)
(0.927738 0.161716 -7.22593e-21)
(-0.187404 -0.00915578 0)
(0.504269 0.824119 9.37415e-21)
(1.03549 0.0105982 2.38507e-21)
(1.0006 0.000212847 0)
(1.13517 -0.0537583 2.05956e-20)
(0.99438 0.0135239 0)
(0.957571 0.112588 6.39295e-21)
(1.20129 0.118767 0)
(0.296158 0.00639332 0)
(0.940367 0.00670995 0)
(1.03018 0.121031 -1.86515e-21)
(1.01752 0.00306046 2.15227e-21)
(1.02356 0.00232087 0)
(1.02185 0.0414314 7.84318e-22)
(0.905423 -0.0645494 6.76086e-23)
(1.13658 -0.0541702 0)
(1.20153 0.123111 3.34675e-20)
(1.01383 0.0387208 -4.25287e-22)
(1.02356 0.00171704 1.11129e-23)
(0.344705 -0.0502275 -1.16049e-20)
(0.403279 -0.0663737 0)
(1.09833 -0.0569985 0)
(0.92319 -0.00465301 -2.00406e-20)
(1.06042 -0.00893453 3.5132e-23)
(0.914002 -0.0653078 1.61807e-23)
(-0.282302 0.00400028 5.55769e-23)
(0.13393 0.00758268 9.71672e-21)
(-0.174283 -0.00429661 0)
(1.01298 0.000600746 4.11717e-24)
(1.00869 0.0116574 -4.96108e-22)
(0.811959 0.186989 0)
(1.02158 0.0693402 -8.00445e-22)
(1.03133 0.0362771 0)
(1.11598 0.0397904 -1.01642e-20)
(1.00009 0.000781524 8.24627e-22)
(0.244017 -0.0266247 0)
(-0.296768 0.00269282 -5.22216e-20)
(0.980627 0.00288715 7.89438e-21)
(0.99815 0.0157822 1.2702e-22)
(0.178153 0.00650239 -1.17551e-20)
(1.01892 0.0154203 0)
(-0.193003 0.00242076 7.0832e-20)
(0.340084 -0.0591261 -6.45088e-21)
(1.09753 -0.01908 8.82615e-21)
(1.00893 0.0121124 3.39804e-22)
(1.09386 -0.0200674 5.30261e-21)
(0.991238 0.000425162 -6.23456e-21)
(1.11757 -0.0694256 -1.15797e-20)
(1.03796 0.00588951 9.4121e-21)
(1.02954 0.0109472 0)
(0.275951 0.768477 8.82141e-21)
(0.2825 0.0039365 0)
(0.413128 -0.065553 -2.17913e-20)
(1.02913 0.124499 -2.74991e-21)
(0.985074 0.0143596 -4.3193e-21)
(1.02376 0.00214372 -3.76485e-21)
(1.03502 0.0102268 2.08751e-21)
(0.943548 0.127578 4.25087e-21)
(-0.188587 0.0106106 5.25522e-20)
(0.997931 0.0155245 4.28653e-22)
(1.02629 0.000619395 -2.35452e-21)
(0.99141 0.00218559 -5.97163e-21)
(0.984294 0.0142362 0)
(1.01724 0.00261489 2.19714e-21)
(1.07345 0.0795402 7.67428e-22)
(0.803329 0.486739 0)
(0.139541 -0.0190544 1.16225e-20)
(1.2194 0.285353 -4.74707e-20)
(0.0185509 0.00751448 0)
(1.19713 0.115471 0)
(-0.0960037 -0.0189534 -1.76732e-22)
(0.787149 0.492947 -2.09331e-20)
(0.417101 0.205929 -4.3289e-20)
(0.705522 0.357271 -2.51782e-20)
(1.03067 0.0535721 3.81575e-21)
(1.07887 0.0179791 1.36105e-20)
(0.201272 0.0748425 -9.2809e-20)
(1.0267 0.00108923 -2.44979e-21)
(1.16156 -0.0150405 1.86802e-20)
(1.14301 0.0685537 -1.46369e-20)
(1.0048 0.0496845 5.43772e-21)
(-0.246594 0.00842405 8.64112e-20)
(-0.0428444 -0.00410385 -2.10689e-20)
(1.06358 0.00308365 0)
(0.677576 -0.0911244 0)
(0.549294 -0.110013 2.22486e-20)
(0.993504 0.00779436 -5.03382e-21)
(1.00433 0.0487652 -1.09818e-23)
(0.580017 -0.118459 0)
(1.12 -0.0636194 4.5373e-21)
(0.845262 0.0416888 -1.52924e-20)
(0.926491 0.173002 -7.87959e-21)
(1.02424 0.0122323 0)
(0.297952 -0.016785 8.52273e-21)
(0.895106 0.0972455 -1.89296e-20)
(1.10318 -0.00880221 -1.54168e-20)
(1.04096 0.00685462 0)
(1.13341 -0.0684014 2.02375e-20)
(0.96395 0.174294 0)
(1.31081 0.151011 2.61348e-20)
(1.08981 0.023111 2.80492e-20)
(-0.090729 -0.023901 -2.4534e-20)
(1.00005 6.11835e-05 2.6753e-22)
(0.107723 0.00585705 -5.58514e-21)
(1.0624 0.0035748 0)
(1.0981 -0.0199838 -2.24087e-20)
(1.02423 0.00309954 -2.36063e-21)
(0.999352 0.00362699 -1.0002e-21)
(1.01758 0.002884 -2.5039e-21)
(1.021 0.0410221 0)
(0.348118 -0.0209293 5.13543e-20)
(1.01277 0.00846131 -9.21315e-22)
(1.00008 0.00128177 3.15776e-23)
(1.00004 0.000406902 0)
(0.381216 -0.0618933 4.19603e-20)
(1.00955 0.0226151 6.06015e-22)
(1.00504 0.04792 -2.44895e-21)
(0.975123 0.0470356 -5.30819e-21)
(1.089 0.255678 1.54205e-20)
(-0.0610091 -0.0091089 -2.74047e-21)
(-0.011299 0.0131544 -1.00006e-19)
(1.09204 0.556879 -7.16718e-20)
(1.00698 0.0176604 1.25695e-21)
(1.21301 -0.00514652 -1.8753e-20)
(-0.235349 -0.00128894 -9.08759e-21)
(0.827077 -0.0752115 -2.62903e-20)
(1.01731 0.00245393 -2.14451e-21)
(0.985656 0.0136359 0)
(1.06946 0.517613 3.09362e-20)
(0.420443 -0.0369712 1.21665e-20)
(-0.309917 -0.00224696 0)
(0.620967 -0.0549626 0)
(1.02419 0.00369082 -1.00793e-21)
(0.423445 -0.0631495 7.76953e-20)
(0.133629 0.0314694 -6.01371e-20)
(0.15874 -0.948167 0)
(1.11247 -0.0542874 -1.62844e-20)
(0.0456659 0.0589058 8.31781e-20)
(0.203618 -0.0299699 -8.8179e-20)
(1 8.13353e-05 0)
(0.949419 0.0241684 1.1714e-20)
(1.15551 -0.063563 -1.66687e-20)
(1.03596 0.00530801 -4.18189e-21)
(1.30596 0.15449 6.53352e-21)
(0.0761961 0.000500096 -3.85748e-21)
(0.643719 -0.0593108 0)
(1.1571 -0.0633139 -2.95066e-20)
(0.78636 -0.066611 0)
(1.02942 0.302532 -3.75224e-21)
(0.999447 0.00347799 0)
(0.987603 0.0570292 0)
(1.07393 0.0777031 0)
(0.214998 -0.028915 -5.55533e-20)
(1.15295 0.0387072 2.33238e-20)
(1.00903 0.0223917 -1.28691e-21)
(1.02 0.019168 1.50194e-21)
(-0.243831 -0.00628344 -7.36478e-20)
(1.0311 0.0160754 -3.42671e-21)
(1.04045 0.0071229 -1.19519e-21)
(0.804975 -0.0739978 8.03251e-21)
(1.07665 -0.0175133 7.33818e-21)
(-0.256907 0.00142961 0)
(1.0238 0.00301587 1.94543e-21)
(1.00707 0.0111333 0)
(1.15952 -0.0138081 3.13597e-20)
(0.964562 0.0220831 7.32117e-21)
(0.997031 0.0165787 -2.39081e-21)
(0.999992 0.000164863 0)
(0.342001 -0.0600244 -6.12597e-21)
(1.00515 0.0223805 3.31804e-21)
(0.985284 0.0218652 1.27975e-22)
(1.17562 -0.043286 -1.36059e-20)
(0.974825 0.0232447 0)
(1.15539 -0.051261 1.07311e-20)
(1.04262 0.0428648 -2.70917e-21)
(1.10417 -0.00996633 1.72323e-20)
(1.02322 0.00105305 -1.84071e-21)
(0.975481 0.0238569 -1.26986e-20)
(0.991608 0.00304521 0)
(1.09282 0.0913508 1.64661e-20)
(1.14897 -0.0497884 0)
(0.99931 -0.000275027 4.05772e-21)
(1 8.65637e-05 0)
(-0.274561 0.00441392 -2.63887e-20)
(0.668278 -0.0868187 -1.73577e-20)
(0.76599 0.249919 0)
(1.03127 0.0523635 -2.29697e-21)
(0.175153 0.675267 0)
(-0.0691209 0.00662363 0)
(-0.186844 -0.00784086 -7.59536e-20)
(0.418558 -0.0363996 3.83523e-23)
(0.303518 -0.0428823 -4.61542e-21)
(0.794549 0.0550278 0)
(1.06319 0.015151 0)
(1.0053 0.0129957 -1.94489e-21)
(-0.127305 0.0235958 0)
(1.02434 0.0035268 1.26469e-21)
(1.00065 0.00016002 -5.59388e-22)
(1.2119 0.0123434 8.03622e-21)
(1.00459 0.00430753 0)
(1.16423 0.354451 0)
(0.959965 0.0199509 -1.52234e-20)
(0.225818 -0.0238167 -1.22322e-22)
(0.314358 -0.0458337 0)
(1.08359 0.0174584 -8.37332e-21)
(1.1613 0.210093 -2.98662e-20)
(1.0132 0.0415049 -7.52875e-22)
(0.923151 -0.00728589 1.23704e-21)
(1.00521 0.00375548 0)
(-0.12553 -0.00844587 -7.55388e-21)
(0.152986 -0.0218515 0)
(1.11193 -0.0534798 1.32273e-20)
(1.01746 0.0386883 -1.10591e-22)
(1.008 0.0250374 2.5252e-21)
(0.962027 -0.00726209 1.79699e-21)
(0.419977 -0.0945938 0)
(0.324715 -0.046165 0)
(1.14453 0.106248 1.15849e-20)
(-0.269397 0.00385545 0)
(1.08662 0.0578459 2.23216e-20)
(0.833071 0.0548528 -1.30625e-20)
(1.01225 0.00714537 -1.03341e-21)
(1.00481 0.00442266 3.94053e-22)
(0.999235 -0.000169171 -2.80321e-21)
(1.14035 0.07099 0)
(0.996533 0.00186895 2.8174e-21)
(1.03307 0.0163125 2.39971e-21)
(0.313193 -0.0429823 -9.67913e-21)
(0.95914 0.00504234 -1.34149e-20)
(1.08742 0.155513 -6.39079e-21)
(1.19678 0.376163 -4.62833e-20)
(1.0977 -0.0571791 0)
(0.0743445 0.0253527 2.22489e-20)
(1.06955 -0.00425168 9.87644e-21)
(0.882732 -0.0758298 0)
(1.01375 0.00956514 3.60705e-23)
(1.17528 0.251724 3.15631e-20)
(-0.113819 -0.0208272 -2.80939e-20)
(1.24914 0.271992 0)
(0.206283 0.00642602 2.66152e-21)
(-0.151825 -0.0088996 -3.11322e-20)
(0.955515 0.115943 -1.95232e-21)
(1.02293 0.000980489 -1.68865e-21)
(1.01905 0.0413838 0)
(0.957642 0.00540232 -1.81847e-20)
(-0.0439199 -0.00013687 0)
(-0.160291 -0.0083879 2.0767e-20)
(1.19804 0.111287 0)
(-0.259156 0.00480688 0)
(1.03413 0.18325 0)
(0.469624 -0.0375129 -5.68062e-21)
(0.924712 0.850984 3.87668e-20)
(0.0565625 -0.0266725 8.05152e-21)
(0.996764 0.0019192 8.60049e-22)
(1.17295 -0.00651321 -3.21573e-22)
(1.01465 0.0382728 4.04253e-22)
(0.0170643 -0.0262511 -1.82098e-20)
(1.03077 0.0121603 -1.77571e-21)
(0.446493 -0.0337159 -2.93895e-21)
(1.23405 0.103056 4.73733e-20)
(-0.16288 0.0142589 -1.00043e-19)
(0.994583 0.0140071 5.54892e-22)
(-0.242217 0.00208415 0)
(0.327922 0.104222 -8.39696e-20)
(1.18108 0.0717233 0)
(1.01245 0.000665899 -1.03372e-21)
(1.08797 -0.0214705 1.60097e-20)
(-0.253583 0.00338073 -4.9889e-20)
(1.03024 0.0124294 2.01653e-21)
(0.928997 -0.0123699 8.74353e-21)
(1.14916 -0.0359367 0)
(0.464826 -0.0377773 -6.38273e-21)
(0.0523561 0.00652962 4.25025e-21)
(1.01935 0.0158383 0)
(0.813228 0.17751 2.01642e-20)
(0.697065 -0.154914 0)
(0.815357 -0.0693358 3.28035e-21)
(1.00541 0.00406466 4.12764e-22)
(0.654609 -0.0566405 6.56063e-21)
(1.0117 0.0077047 4.05364e-22)
(0.999441 0.00373772 -8.68703e-21)
(1.15052 -0.0374156 0)
(1.07146 0.53593 -6.58279e-20)
(1.04138 0.0426974 -1.38391e-21)
(0.995255 0.0159625 2.50056e-21)
(0.981343 0.0028912 6.34704e-21)
(1.23262 0.0988074 2.40483e-22)
(1.06114 -0.00839479 -1.43628e-20)
(1.03215 0.0226149 -1.54516e-21)
(1.2795 0.158788 0)
(1.00151 0.0268754 -2.48926e-21)
(1.24433 0.266883 0)
(-0.165177 0.0232492 -1.2994e-19)
(-0.35063 -0.000571952 0)
(1.06902 0.0152552 0)
(1.01792 0.0236461 0)
(1.0631 0.016277 4.40214e-21)
(1.01712 0.0180595 -7.77887e-22)
(0.434902 -0.10565 0)
(0.43752 -0.0546681 -6.04376e-20)
(1.0094 0.0113306 0)
(1.1614 0.206477 2.80129e-20)
(1.03519 0.0331937 -5.00652e-21)
(1.03097 0.015509 3.2762e-21)
(0.973754 0.0479739 0)
(1.01468 0.0320006 -3.93109e-22)
(-0.0670923 0.00874834 2.49887e-20)
(1.01119 0.00214349 -1.65228e-21)
(1.15752 -0.0509194 -2.61018e-20)
(1.29364 0.268734 1.50066e-22)
(0.274976 -0.0586166 1.78837e-20)
(1.02132 0.0019261 -1.44236e-21)
(1.03375 0.0226681 -1.07273e-21)
(1.03466 0.0232895 -3.86917e-21)
(-0.162682 -0.00902208 0)
(1.01341 0.00919781 -5.17065e-22)
(0.986262 0.514176 0)
(1.023 0.000729434 3.68503e-21)
(1.14728 -0.049666 0)
(1.16464 0.170243 0)
(-0.260986 0.0069399 -3.86659e-20)
(1.06245 0.0299881 -2.42055e-21)
(0.958386 0.020365 7.24259e-21)
(1.04051 0.0224979 7.89839e-21)
(1.03184 0.293051 1.94857e-21)
(0.99605 0.014534 -3.90523e-21)
(1.11414 -0.054876 1.41178e-20)
(0.928991 0.0400979 -5.2066e-21)
(0.894854 0.0928765 2.21791e-20)
(0.999529 0.003597 8.32623e-21)
(0.984452 0.0221536 -6.67931e-21)
(0.999992 0.000184961 2.33523e-22)
(1.03634 0.023179 0)
(-0.250327 -0.00822699 -1.46705e-19)
(0.637508 -0.244362 0)
(1.10831 -0.0405908 -9.02167e-21)
(-0.259382 -0.00256185 -2.13276e-20)
(0.376276 -0.496296 0)
(0.999402 0.0247182 1.84824e-21)
(1.10291 -0.06411 -7.0933e-21)
(0.978332 0.0189821 1.17241e-20)
(1.0078 0.0321117 1.33079e-21)
(0.767464 0.240961 3.42025e-20)
(1.05183 0.0474287 7.72981e-21)
(0.999359 0.00330441 1.0652e-21)
(0.341495 -0.0371081 -1.41012e-20)
(1.30996 0.0915436 -8.75304e-21)
(0.197718 -0.01312 0)
(1.09376 -0.0378971 -1.9384e-20)
(0.490943 0.104259 0)
(1.00177 0.000341173 8.62317e-22)
(0.996613 0.000670748 0)
(1.09644 -0.0568785 -1.98571e-20)
(-0.153938 0.0145024 8.91676e-20)
(0.996701 0.00234341 7.368e-21)
(0.909166 0.031178 0)
(1.16992 -0.00625926 -1.72699e-20)
(1.07707 0.0199772 -6.9283e-21)
(1.03245 0.0159639 -4.24729e-21)
(1.03038 0.130799 -5.36378e-21)
(0.983614 -0.0711601 0)
(0.374998 -0.0615992 1.2623e-20)
(0.979924 -0.0640135 4.03603e-21)
(0.21397 0.00755921 0)
(1.00501 0.00440595 -3.48418e-22)
(0.294348 -0.0249841 -5.71252e-20)
(1.02998 0.010636 0)
(1.11662 -0.0629084 1.61676e-20)
(1.08445 -0.00254263 -1.02154e-20)
(-0.138815 0.0272374 -6.85925e-23)
(0.999998 0.000129529 0)
(1.00471 0.0225402 0)
(1.06164 0.0782579 7.60671e-21)
(1.06042 0.00667035 -6.59598e-21)
(0.959654 0.170538 0)
(0.999569 0.0253951 2.21694e-21)
(0.996753 0.016227 1.05721e-21)
(0.682183 -0.113015 2.81735e-20)
(0.993097 0.00779901 6.51687e-21)
(1.00778 0.0424422 1.16468e-22)
(1.17543 -0.0408486 2.39953e-20)
(0.999092 -0.0737428 4.89247e-23)
(1.09161 -0.0359593 1.32168e-20)
(-0.178853 0.0106409 0)
(1.19554 0.103391 -2.79997e-20)
(0.605014 0.120817 4.37397e-20)
(1.20871 0.0117802 0)
(1.00802 0.0312516 0)
(0.855462 0.0963855 -2.65977e-20)
(-0.0573409 -0.00772597 2.6375e-21)
(1.06845 0.0332868 -9.95061e-21)
(0.995773 0.014174 -4.74217e-21)
(1.03282 0.133503 7.3867e-21)
(1.06915 -0.00346098 -1.11573e-20)
(0.749908 -0.0810054 2.55525e-20)
(1.05446 0.0240095 1.98428e-22)
(0.991211 0.00268462 0)
(1.00503 0.00421796 5.13664e-22)
(-0.295893 -0.00234076 6.33158e-20)
(0.446101 -0.0348379 6.07822e-21)
(1.05457 0.0247038 0)
(1.00735 0.00852134 9.87813e-23)
(0.637374 0.133326 -6.58016e-20)
(0.999269 0.00314385 4.63942e-21)
(0.923533 -0.0684289 0)
(0.999337 0.00352035 5.21788e-22)
(1.03101 0.03711 -2.02978e-21)
(1.06805 0.0158854 -6.1451e-22)
(1.24189 -0.0248131 1.37829e-20)
(1.01206 0.0397017 8.13559e-22)
(1.02272 0.000618223 0)
(0.820116 -0.0525161 -1.46482e-20)
(0.994676 0.00569726 0)
(1.13246 0.00953606 1.61281e-20)
(0.123934 -0.01601 -7.49962e-21)
(0.636775 -0.257111 0)
(0.997951 0.0121155 0)
(0.0591911 0.00832033 4.27147e-21)
(1.19515 0.368867 4.76513e-20)
(0.612836 0.128639 0)
(-0.0605228 0.00843194 0)
(0.340138 1.19433 -4.6344e-21)
(1.01974 0.0685784 6.7391e-23)
(0.999745 0.173053 2.28814e-21)
(1.01701 0.00219832 0)
(1.0959 -0.0651376 -1.57412e-20)
(0.996895 0.00243844 -6.75892e-21)
(0.893637 0.332347 -3.92173e-21)
(1.01005 0.0314403 0)
(1.08323 -0.00175874 2.05617e-20)
(0.236386 -0.00162806 2.57103e-21)
(0.344231 -0.0451359 0)
(1.00711 0.00817076 2.08255e-22)
(0.986327 0.0139439 -4.79192e-21)
(0.74514 -0.0889267 -3.96276e-20)
(0.965162 0.0209898 -2.15107e-21)
(1.04038 0.0217775 -3.5568e-21)
(1.01012 0.0248695 0)
(1.01093 0.00197794 1.79769e-21)
(1.19147 0.030441 3.93479e-22)
(1.09961 0.00483753 -1.97803e-22)
(0.115523 0.657911 2.85403e-21)
(1.28291 0.309776 5.3134e-20)
(1.01333 0.00156151 -1.45501e-21)
(1.05699 0.298225 -1.18634e-20)
(0.22597 -0.0179503 9.55808e-21)
(0.906504 0.0301144 0)
(1.05763 0.012892 8.1101e-23)
(1.021 0.00192677 3.22553e-23)
(1.00007 0.000766403 4.28336e-22)
(0.951173 -0.0769375 0)
(1.21638 -0.00608477 0)
(1.05746 0.158365 4.38578e-21)
(-0.238915 0.0045568 4.49801e-20)
(0.670722 -0.0588311 -2.79358e-21)
(0.992596 0.0126019 0)
(-0.277832 -0.00326587 -1.22146e-20)
(1.01932 0.0109075 0)
(0.72163 0.721838 0)
(1.05913 0.117819 -6.24475e-21)
(1.01045 0.0244712 -5.18716e-22)
(0.923127 0.00111862 0)
(1.00236 0.0202703 0)
(1.07878 0.0193763 1.36215e-20)
(-0.174141 0.0098533 0)
(-0.27669 0.00181339 3.18486e-20)
(0.897623 0.00282648 -4.20933e-20)
(-0.281868 -0.0028394 0)
(0.629942 -0.061794 0)
(1.11362 -0.0540766 -6.59747e-21)
(0.9976 0.0123113 0)
(0.997424 0.0119466 0)
(0.285361 -0.00585998 -2.18264e-20)
(0.962479 0.214257 -3.68858e-21)
(0.999936 0.000253267 -7.64047e-21)
(1.13398 0.0920784 -1.1854e-20)
(1.01245 0.126378 2.13678e-22)
(-0.226822 -0.000210347 0)
(1.08949 -0.0445056 -6.0662e-21)
(-0.0761433 -0.0224236 3.45425e-20)
(0.899441 0.00113448 4.22978e-20)
(1.01232 0.0420529 1.00852e-21)
(0.420541 0.929903 0)
(0.992265 0.0124037 7.28058e-21)
(0.995306 0.00678255 4.33627e-21)
(0.931351 0.0181868 -8.01918e-21)
(0.920419 -0.0724732 1.35766e-20)
(1.00884 0.0114012 2.44633e-22)
(-0.161034 0.0137176 0)
(0.931345 0.0396583 0)
(0.249304 -0.249982 1.32388e-19)
(0.720738 0.34935 -1.17282e-20)
(-0.108685 0.00615323 3.37969e-20)
(1.02636 0.00116761 8.73556e-22)
(0.998081 0.0124298 0)
(0.20788 -0.0151435 0)
(1.1514 0.0365513 -1.27978e-20)
(0.99625 0.00651867 0)
(1.1515 0.0867248 0)
(1.05067 0.0480693 4.28423e-21)
(1.00532 0.0288221 0)
(1.01934 0.0206664 1.9957e-21)
(-0.188481 -0.00915899 0)
(1.13884 0.0247676 -2.42696e-20)
(1.24027 -0.0221081 0)
(1.01578 -0.0706086 0)
(0.250669 -0.296363 5.82044e-20)
(1.01863 0.0237489 -5.02226e-22)
(0.320636 -0.0475778 1.05658e-20)
(0.967461 0.211148 -6.91595e-21)
(1.00566 0.0316142 0)
(0.590785 -0.134068 -1.20565e-19)
(0.0426829 0.00771527 -1.9061e-20)
(1.00313 0.00437767 9.50428e-22)
(0.972984 0.00579438 -4.55961e-21)
(1.00775 0.0115434 -1.9972e-22)
(0.630494 -0.0581236 1.21279e-20)
(1.03815 0.014475 2.63807e-21)
(1.01708 0.00201568 0)
(1.02774 0.0078368 0)
(1.01818 0.0380405 -7.00359e-24)
(0.995356 0.501179 -3.09e-21)
(1.03686 0.0137365 0)
(-0.246913 0.00652318 0)
(1.11 -0.00784859 -2.18324e-20)
(0.998649 0.0237653 -8.40401e-23)
(1.10923 -0.0413561 3.53044e-23)
(1.13987 0.0226019 2.0716e-20)
(0.0837835 -0.0184613 3.93871e-21)
(-0.00147458 -0.0233552 -1.14864e-20)
(0.207361 0.00757287 -3.70926e-21)
(1.01193 0.0384697 -1.32084e-21)
(1.0174 0.0069489 1.18791e-21)
(1.01347 0.00130773 -7.23676e-22)
(0.103717 0.0034606 -6.64291e-20)
(1.01153 0.00465474 0)
(0.0378662 -0.0236344 -1.87289e-20)
(1.2953 0.0889256 2.81011e-20)
(0.86142 0.244154 0)
(-0.303554 -0.00183207 3.57605e-20)
(0.189888 -0.00480422 -1.18872e-20)
(0.994521 0.0473323 0)
(0.990147 0.00148996 -3.59442e-21)
(0.179775 -0.010452 -2.08362e-20)
(1.0963 -0.0499765 9.62152e-21)
(1.01103 0.0108809 -1.63049e-22)
(1.00043 7.53553e-05 -9.36135e-22)
(0.778393 0.0467003 -5.0407e-20)
(1.0939 -0.0575593 0)
(0.778804 -0.0550674 0)
(-0.262259 -0.000293064 -1.31902e-20)
(0.529971 -0.628609 0)
(1.02039 0.074425 2.63621e-22)
(0.302405 -0.344972 9.27474e-20)
(-0.171032 -0.00348163 7.12975e-20)
(1.00971 0.00054761 6.15574e-22)
(0.0820532 -0.0120849 -3.24468e-20)
(0.358488 -0.0473213 5.28346e-21)
(1.15026 0.0521754 1.92958e-23)
(0.196924 0.760513 0)
(0.891682 0.127892 -2.81074e-20)
(0.930269 0.0196224 -5.25308e-21)
(1.11342 0.187993 -1.74334e-20)
(1.00538 0.0151463 -7.04554e-22)
(0.678982 -0.0386364 6.4104e-21)
(1.01131 0.0124026 0)
(1.08983 0.0136174 5.91907e-21)
(0.834532 0.0127837 -1.96715e-20)
(0.756356 0.231606 -4.29097e-20)
(1.19115 0.276499 -7.19358e-21)
(1.09547 -0.0500124 -8.30047e-21)
(-0.0814682 -0.016902 -1.05117e-20)
(1.06677 0.0333947 -2.28725e-21)
(-0.308304 0.00297196 3.57307e-20)
(1.00003 0.000325733 1.27118e-21)
(1.0046 0.0674203 -1.71884e-21)
(1.03173 0.12744 -4.90016e-22)
(0.629868 0.149629 -3.85295e-20)
(0.996339 0.0115074 3.46896e-21)
(0.884786 0.324079 -4.42557e-21)
(1.01168 0.000563768 1.33188e-21)
(1.13406 0.0108648 0)
(0.867141 0.236971 9.47719e-21)
(1.00735 0.0180381 -7.64475e-23)
(0.993706 0.00937671 -5.82988e-21)
(1.10366 0.074652 -9.41504e-21)
(0.565257 -0.000121851 -1.23506e-19)
(1.08884 -0.0372518 8.67533e-21)
(1.24404 0.30948 -9.46249e-21)
(1.04319 0.0796194 0)
(0.670931 -0.0627465 -7.07174e-21)
(1.01192 -0.0657039 0)
(1.10181 -0.0645216 -6.30042e-23)
(1.00462 0.0286329 3.99607e-22)
(0.872648 0.169431 -2.91019e-20)
(1.2751 0.155266 0)
(0.110571 -0.0200454 5.8721e-21)
(1.0413 0.0801666 0)
(1.00876 0.0123808 -2.27046e-22)
(0.261675 -0.280316 0)
(1.13123 -0.0409466 2.76714e-20)
(0.996018 0.0161506 0)
(0.272882 -0.354484 -5.0237e-20)
(0.999942 0.00048253 -4.14779e-21)
(0.446855 0.715014 0)
(0.731119 0.680419 0)
(0.999915 9.20456e-05 2.61598e-21)
(1.00562 0.01499 1.88941e-21)
(1.14206 0.339016 0)
(1.10073 -0.0647244 0)
(1.03035 0.0845326 -1.53289e-21)
(1.08542 0.00144722 9.86162e-21)
(-0.27496 0.00381331 3.89081e-20)
(0.999965 0.000361984 -4.22432e-21)
(1.01971 0.066608 0)
(-0.309817 -0.00196642 0)
(0.951923 0.0304996 2.3889e-20)
(1.18447 0.0731561 0)
(1.00251 0.0207308 -9.32238e-22)
(1.03141 0.00136461 0)
(1.0198 0.0246691 -3.18932e-23)
(-0.0308324 -0.00769661 -1.20145e-22)
(1.08621 -0.0184125 -2.73457e-21)
(0.998714 0.00137991 -2.37327e-21)
(0.124878 0.00617982 -2.07596e-21)
(1.00813 0.0182972 -5.02219e-22)
(1.07009 -0.019629 6.1873e-21)
(0.101203 -0.0211285 -1.40367e-20)
(0.999455 -0.000238886 9.11405e-21)
(0.425231 -0.0311746 5.58063e-21)
(1.12358 0.0350868 -3.01823e-21)
(1.01997 0.0207882 -1.67499e-21)
(0.949121 0.0225405 -1.15467e-20)
(1.01632 0.00616939 -9.74769e-22)
(-0.307427 0.00148896 0)
(-0.222466 -0.00748734 4.01596e-20)
(0.908674 -0.0680069 0)
(1.04014 -0.00264934 0)
(-0.259445 0.000359058 1.23634e-20)
(-0.23959 -0.00238481 0)
(1.01596 0.00587908 -9.86241e-22)
(0.0897955 0.00949095 -4.11848e-21)
(0.951788 0.209296 -1.14983e-21)
(1.00001 0.000466493 0)
(1.01265 0.0087735 1.43385e-21)
(1.00694 0.0415511 0)
(1.03225 0.0842196 4.28242e-21)
(-0.329322 -0.000988289 0)
(1.01048 0.0110523 0)
(0.999952 7.17878e-05 0)
(0.757554 0.221061 -1.8759e-20)
(1.0106 -0.0769511 2.20548e-21)
(0.999255 0.00336849 -6.06568e-21)
(-0.273363 0.00540792 -4.72997e-20)
(0.172591 -0.0248607 1.08661e-20)
(0.113192 -0.0369273 3.52405e-20)
(1.03146 0.000996215 0)
(1.06391 0.0303137 0)
(0.999989 0.000190027 0)
(1.02177 0.0712414 9.28191e-22)
(1.18387 0.026986 1.04806e-20)
(1.00499 0.0126718 1.90789e-21)
(0.990216 0.0666366 4.69033e-21)
(1.00002 0.000348195 0)
(1.07692 0.0213553 1.41225e-20)
(1.03797 0.0852624 -3.49301e-21)
(0.845863 -0.0756091 -1.60383e-20)
(1.23235 0.29355 0)
(1.14023 -0.0677215 0)
(0.991371 0.12616 0)
(0.865643 0.16805 1.55482e-20)
(1.0932 -0.0207314 2.31401e-21)
(1.03295 0.0231301 1.12266e-21)
(1.02921 0.0124924 9.7942e-22)
(1.01619 0.031892 -3.60265e-24)
(0.933072 0.446588 -9.23492e-22)
(0.67073 -0.0438988 3.39122e-20)
(1.00196 0.159074 5.29833e-20)
(0.0940936 -0.0169118 3.06708e-20)
(0.0363232 -0.0112823 3.35609e-20)
(1.01091 0.0111973 1.43012e-22)
(0.267443 -0.00323019 2.24178e-20)
(1.01935 0.0222334 1.82163e-21)
(0.998919 0.00225888 0)
(0.0927105 -0.441192 -1.39849e-19)
(1.0039 0.0147301 -1.63922e-21)
(-0.217522 0.00209385 6.88724e-20)
(1.10706 -0.0719627 -3.93346e-20)
(-0.226099 -0.000656822 4.97006e-20)
(-0.299791 -0.00268701 0)
(0.144673 0.00370481 0)
(0.992864 0.0172135 -1.69686e-21)
(0.955558 0.213142 1.18732e-21)
(0.259177 -0.228872 -1.06048e-19)
(1.11439 0.0411985 5.27579e-21)
(0.171313 -0.00907611 3.16129e-20)
(0.606802 -0.191978 -4.23131e-20)
(1.01248 0.0119225 3.74597e-22)
(0.456393 -0.0340342 0)
(0.990957 6.61458e-05 4.14504e-21)
(0.237734 -0.0202537 -9.00572e-21)
(-0.0990351 0.00782215 -2.59922e-20)
(0.994168 0.0461033 5.25586e-21)
(1.02818 0.00434502 5.05179e-21)
(0.443307 -0.0333454 -9.23543e-21)
(1.0121 0.00903374 -8.37969e-22)
(1.024 0.0496756 0)
(1.07355 0.565179 5.09306e-20)
(1.1137 -0.0621411 -1.73491e-20)
(-0.151341 -0.0165419 0)
(0.940106 -0.0746183 4.8694e-22)
(0.993088 0.0176884 -2.87799e-23)
(1.09002 0.012227 0)
(0.986424 0.0581628 -4.29494e-21)
(0.760371 0.0914186 -4.95969e-22)
(1.02866 0.0125319 8.92005e-22)
(0.30106 -0.00918006 -8.68635e-21)
(1.12486 0.033471 4.14397e-22)
(1.00102 0.0268921 2.29865e-21)
(-0.254814 -0.00199114 0)
(-0.216989 0.00267092 0)
(1.09705 -0.0583186 5.26754e-21)
(1.08745 -0.0186938 -2.99375e-21)
(0.994037 0.00890125 3.2197e-22)
(0.995039 0.0049303 -2.16699e-21)
(1.11344 -0.0657976 1.02518e-20)
(1.08306 0.154934 4.19571e-22)
(1.04823 0.0658924 7.34111e-21)
(1.10303 -0.0572999 1.56383e-21)
(0.314859 -0.0121331 0)
(1.1173 0.271111 0)
(1 7.96724e-05 -1.25085e-21)
(0.99537 0.00546422 4.26957e-21)
(1.14872 0.0886712 0)
(1.03737 0.0144337 -4.98971e-21)
(0.413084 -0.0547552 1.65125e-20)
(1.23231 0.106365 -4.36077e-20)
(0.0820331 -0.758586 0)
(0.945501 0.0249643 2.70086e-21)
(0.307318 0.827785 -9.78534e-21)
(1.01333 0.032347 4.25114e-22)
(0.381125 -0.0411692 -2.10329e-20)
(1.03084 0.179599 0)
(0.0655367 0.000696082 9.95434e-20)
(0.881622 0.17861 0)
(-0.256891 -0.00435658 7.15303e-20)
(0.941948 0.00562827 4.80144e-22)
(1.10703 0.0397942 2.4316e-20)
(-0.304474 -0.00084672 3.18734e-20)
(1.06676 0.0150152 -1.73488e-22)
(0.566849 -0.0142202 8.66205e-20)
(1.12368 -0.0649832 -8.98395e-21)
(0.991879 0.0665456 0)
(1.09457 -0.051076 0)
(1.09226 -0.0368669 5.03043e-21)
(0.0374806 0.00781664 4.69896e-21)
(0.891157 0.0427399 -1.67994e-20)
(1.0113 0.00436862 7.96185e-22)
(0.0295268 -0.018039 -1.61319e-20)
(0.998566 0.00131999 0)
(1.04121 -0.00145851 0)
(1.1687 0.250498 -3.42978e-20)
(-0.317018 -0.00344307 0)
(1.09388 -0.0569252 0)
(-0.323633 -0.000995756 0)
(1.01596 0.124932 0)
(1.0005 0.00358138 -2.03389e-21)
(0.270807 -0.0177474 0)
(1.16142 -0.0654029 3.52298e-20)
(1.00013 0.00210038 -1.4655e-22)
(0.832564 -0.0756035 0)
(1.15707 0.00745919 1.51701e-20)
(-0.0693389 -0.019393 5.50153e-21)
(1.00926 0.011598 1.6243e-22)
(0.952065 0.032141 -2.394e-20)
(1.14718 0.0522684 -4.18178e-23)
(1.01278 0.0318719 0)
(0.801376 0.146121 -2.50174e-20)
(1.01961 0.0218209 -1.30235e-21)
(0.897493 0.137791 1.10019e-20)
(-0.274549 0.00314109 1.99542e-21)
(0.246628 -0.0483062 -1.84784e-20)
(0.92329 0.0037583 0)
(0.874733 0.178389 -1.52062e-20)
(0.432105 0.77425 -1.18162e-20)
(0.992615 0.0445363 0)
(1.00398 0.0142958 1.55131e-21)
(1.00694 0.0231812 1.9863e-21)
(1.17199 0.201416 3.38117e-20)
(1.16274 -0.0649872 -2.48165e-20)
(1.04886 0.0265765 6.78542e-21)
(1.00198 0.00803231 -1.6608e-21)
(1.05899 0.156114 -4.09701e-21)
(1.11342 0.0050752 0)
(0.329122 -0.0629788 2.6802e-20)
(0.849587 0.0985953 2.20181e-20)
(0.896846 0.403613 4.05898e-21)
(0.345466 -0.469287 0)
(0.377895 0.300089 0)
(0.974643 0.0250476 -1.18751e-22)
(0.358855 -0.0387544 1.09711e-20)
(0.158754 0.00652607 0)
(1.09106 0.0890353 0)
(-0.213432 0.00533546 -4.90406e-20)
(0.996292 0.016539 3.70894e-23)
(1.04775 0.0649136 2.42923e-21)
(0.48957 0.916661 3.06761e-21)
(1.00702 0.00755316 4.17884e-22)
(0.827653 0.0655632 5.12754e-20)
(0.804386 0.803365 0)
(-0.0310014 -0.0125905 2.67444e-21)
(0.951593 0.115734 2.20547e-21)
(0.125972 -0.00660584 0)
(1.07611 0.0506274 0)
(0.871976 0.117985 0)
(1.00302 0.00413299 -9.5086e-22)
(-0.175129 -0.0122155 0)
(1.12037 -0.0125942 2.24108e-20)
(-0.288843 -0.00322177 0)
(0.993646 0.124296 3.12128e-21)
(1.002 0.00791831 1.73335e-23)
(1.06932 0.0346252 0)
(1.00763 0.0124935 0)
(1.19213 -0.0171068 2.9075e-20)
(1.10477 -0.0583152 1.41781e-20)
(1.14662 0.0440107 0)
(1.22799 0.107359 3.72215e-20)
(1.1667 0.201422 -3.21888e-20)
(1.0751 0.0494724 4.29383e-21)
(1.30859 0.275736 -4.04558e-20)
(1.0571 0.356243 1.39366e-20)
(1.144 -0.0450499 0)
(1.2308 0.33598 -1.53073e-22)
(0.995179 0.171206 2.32664e-21)
(1.199 0.12471 -5.86363e-20)
(-0.318391 -0.000549951 0)
(0.991435 0.00351616 0)
(1.00007 5.28678e-05 6.69042e-22)
(0.975191 0.214906 2.52604e-21)
(0.901688 0.140412 -5.54748e-21)
(0.966679 -0.0637659 0)
(0.854946 0.117957 -3.66602e-21)
(1.01333 0.00749998 1.23257e-21)
(1.20586 -0.0128551 4.35937e-22)
(1.01519 0.0365327 0)
(0.944643 -0.000448081 0)
(1.02009 0.0419342 0)
(1.00011 0.00138537 3.4174e-23)
(1.00003 0.000938575 0)
(1.05978 0.0332473 -8.89639e-21)
(1.00007 0.00144384 2.49452e-21)
(1.09528 -0.0202593 -7.61221e-21)
(1.00776 0.0190938 -7.12163e-23)
(0.849451 0.0383067 4.18701e-20)
(-0.201232 -0.00920474 -8.70828e-20)
(0.0602143 0.0385776 -1.85072e-19)
(1.0417 0.0237198 9.41674e-21)
(1.00187 0.00712901 -6.30505e-22)
(0.159774 0.000121505 0)
(1.03424 0.0325323 2.4683e-21)
(1.12989 -0.0408112 -2.00644e-20)
(1.01929 0.0113013 0)
(1.15288 0.34076 1.02019e-20)
(1.09216 -0.0388789 0)
(0.0449768 -0.0181227 -1.71343e-20)
(0.672791 -0.104709 0)
(1.01418 0.0325487 0)
(1.03053 0.0444597 2.80269e-21)
(0.782892 0.0915557 2.39537e-20)
(1.15136 0.0601186 7.18545e-21)
(0.99996 0.000246797 1.95554e-21)
(1.25492 0.238107 6.74013e-20)
(1.00002 0.000184972 2.78608e-22)
(1.05663 0.275763 -4.20273e-22)
(0.998786 0.00167214 0)
(1.02273 0.0491757 7.20891e-22)
(0.122739 0.142952 1.73191e-21)
(1.17014 -0.0694167 -1.80364e-20)
(1.01883 0.0105695 -1.36792e-21)
(1.27229 0.0239729 -5.44778e-20)
(1.25023 0.0742471 0)
(1.08375 0.259274 0)
(1.07314 0.0694681 0)
(1.03814 0.0068059 0)
(-0.304609 -0.000241517 0)
(0.930607 -0.0108767 -8.20297e-21)
(0.155956 -0.0387585 -4.53433e-20)
(1.05895 0.0114079 6.39019e-21)
(0.778132 0.117192 -5.8119e-20)
(0.983057 0.00644105 2.76627e-21)
(1.00003 0.00079296 0)
(0.965197 0.0234659 0)
(-0.175725 -0.01092 1.91274e-20)
(0.705313 0.0582455 2.62672e-20)
(1.17497 -0.0695323 -1.6337e-20)
(-0.311385 -0.000855365 0)
(-0.254972 0.00794048 -3.58358e-20)
(0.327603 -0.0213559 8.84643e-24)
(1.01881 0.0101724 1.41599e-21)
(1.01138 0.0317042 -1.31288e-21)
(1.12843 -0.04745 0)
(-0.209003 -0.00631997 4.3559e-22)
(0.309601 0.00468385 -2.50713e-21)
(1.13118 0.0898128 1.29754e-21)
(1.05156 0.0145055 -3.43588e-22)
(1.02615 0.00879573 0)