/*--------------------------------*- C++ -*----------------------------------*\
| =========                 |                                                 |
| \\      /  F ield         | OpenFOAM: The Open Source CFD Toolbox           |
|  \\    /   O peration     | Version:  v2012                                 |
|   \\  /    A nd           | Website:  www.openfoam.com                      |
|    \\/     M anipulation  |                                                 |
\*---------------------------------------------------------------------------*/
FoamFile
{
    version     2.0;
    format      ascii;
    class       volScalarField;
    location    "400";
    object      ddt0(k);
}
// * * * * * * * * * * * * * * * * * * * * * * * * * * * * * * * * * * * * * //

dimensions      [0 2 -3 0 0 0 0];


internalField   nonuniform List<scalar> 
54593
(
2.51789e-06
-4.78782e-06
1.5322e-05
5.817e-07
-4.95593e-07
1.1146e-05
-4.93301e-09
3.48628e-07
-8.25897e-08
2.16881e-08
-4.36045e-11
-2.93543e-06
1.87485e-09
4.82062e-09
7.11037e-06
6.76411e-09
5.82659e-05
-6.3167e-10
6.78394e-09
-1.81956e-06
-1.44941e-07
-2.68689e-08
3.88358e-05
3.95737e-08
-1.19773e-08
2.41863e-08
0.00127333
8.5659e-06
-1.51968e-06
-2.06067e-07
4.57084e-06
4.93912e-06
-7.29006e-10
4.12554e-05
-4.58207e-09
3.91737e-08
1.94939e-08
0.000292999
0.00178892
0.00365141
-0.00431051
2.34153e-09
5.95109e-09
-6.51304e-09
-4.0311e-09
-8.52632e-08
-5.65623e-09
0.000758397
0.00028804
-2.74275e-08
-4.0652e-09
-2.47443e-08
-5.98186e-08
1.73204e-08
2.22118e-08
6.32771e-11
3.13693e-07
-9.91451e-09
-6.7992e-06
-1.82389e-07
0.00164336
-1.1055e-08
-7.40725e-09
-9.83988e-09
-8.10135e-05
0.00279512
1.00698e-09
-0.000616655
-2.3567e-08
-5.01598e-09
-4.57477e-05
-3.7881e-09
1.73583e-08
-7.33873e-10
-6.94823e-11
-5.33184e-09
0.000279443
-3.21504e-09
-0.00418
2.34415e-08
4.05997e-08
9.33575e-09
-5.56959e-05
-0.000577171
4.87377e-09
-1.45012e-08
-1.45469e-06
-1.59649e-07
-1.16427e-08
3.8864e-07
5.64704e-09
3.94286e-08
-0.00056014
9.34467e-09
-0.00778989
3.02335e-08
2.20407e-07
1.78784e-08
6.38495e-09
-5.02032e-09
0.000278903
-0.00104581
-1.07782e-08
-2.01447e-06
1.89178e-05
-5.20238e-07
-3.30976e-09
1.27484e-07
-1.11865e-09
4.82839e-09
9.47507e-09
-2.75704e-09
-5.56661e-05
4.40786e-07
0.000449313
2.53446e-09
3.8987e-10
-1.35482e-07
1.44121e-05
0.000129581
4.02951e-08
-1.82888e-06
2.36605e-08
-5.32972e-06
-6.64408e-08
6.835e-05
-1.07055e-08
4.8414e-07
-0.000648005
3.53433e-09
-6.89713e-09
2.44093e-08
5.44492e-09
2.15449e-07
-6.65965e-09
-4.24726e-09
3.66411e-08
-1.18458e-07
-6.01653e-08
0.00368362
2.59592e-09
-1.2375e-07
3.5528e-09
5.77905e-05
4.86852e-09
1.80111e-07
4.63127e-08
2.41445e-08
4.20133e-09
5.4954e-05
-1.5436e-07
-7.75831e-06
1.68558e-08
-1.79246e-08
1.26944e-08
-1.58054e-06
4.28154e-07
9.81454e-05
-6.4622e-06
1.76276e-08
6.03892e-06
-1.17067e-07
-0.000561064
-1.66097e-09
-1.02991e-06
-1.68377e-09
-1.75116e-07
7.1015e-09
3.28977e-09
9.9878e-09
0.000451267
-5.39835e-09
-1.46562e-07
2.4167e-08
-6.59579e-09
3.46624e-09
2.01364e-07
3.40428e-07
6.66989e-05
-1.9036e-09
-4.89537e-09
-2.30512e-07
-0.000615588
2.31095e-06
-6.91445e-06
-7.75705e-10
-0.00934569
5.85084e-09
1.96277e-07
2.06927e-09
0.00109803
-1.75301e-06
1.58877e-09
-0.00158053
-5.44264e-07
-9.04613e-09
4.61641e-09
-1.27623e-07
-4.22651e-07
-2.22358e-07
0.000509874
9.35904e-06
-6.49636e-09
6.80598e-08
4.84175e-05
-7.17437e-08
-8.87225e-08
7.18808e-08
-1.22413e-09
-0.0104636
1.76356e-09
-4.8431e-06
6.2229e-08
-6.0657e-06
-1.52163e-09
1.3816e-07
9.08341e-09
9.39293e-06
-4.05291e-10
-6.97724e-10
-1.10617e-07
0.000430301
-2.28191e-09
0.00130228
-0.00149779
1.24867e-07
2.70139e-08
0.000595167
6.60062e-07
-0.000655154
2.14427e-05
-1.10997e-09
8.42691e-09
-1.35851e-07
2.23991e-08
3.22501e-09
-6.7763e-08
-0.00143366
-4.56842e-07
-3.8913e-09
-2.8075e-10
-1.95683e-10
4.16735e-09
-1.54111e-10
2.21814e-08
-6.03646e-09
-0.000429898
0.00168096
-2.79318e-07
-1.08753e-08
-4.95099e-07
-1.09277e-09
1.25111e-07
3.44373e-09
0.00108502
5.11762e-09
-0.000123005
0.000508551
1.32498e-07
-4.88192e-09
2.69984e-08
8.47828e-10
7.06827e-07
0.00045737
5.55705e-06
-2.91754e-07
-4.75877e-10
-6.52076e-07
2.39999e-08
-1.94454e-09
2.00797e-06
0.00206667
-1.9484e-09
3.99686e-07
-3.87692e-07
-0.00455177
1.71381e-08
1.62804e-09
1.37183e-07
2.26333e-09
-4.81876e-09
9.44745e-08
-2.86415e-07
5.54183e-08
-0.000173077
-7.19857e-06
5.23519e-08
-9.17208e-08
-6.2713e-07
1.67058e-08
-2.21677e-07
0.00137533
2.53212e-06
-0.000575116
-3.00528e-07
-6.43321e-09
1.40458e-06
-1.05481e-08
-6.28601e-08
-6.81669e-05
2.08097e-07
-2.2654e-07
6.04119e-06
1.043e-05
-8.66512e-07
-5.89188e-07
-0.000400039
-0.000136829
-0.00182138
-0.000559399
-5.22908e-08
-1.37162e-05
-5.91467e-07
0.000222628
5.79707e-07
2.74144e-06
-0.00015814
1.00281e-07
7.77848e-07
4.82014e-09
-0.000644259
-7.39923e-09
4.93052e-09
2.71163e-06
-5.73742e-09
0.00014605
-2.73488e-09
8.49416e-06
6.41143e-09
0.00141507
5.52244e-07
-4.72907e-09
-8.4061e-05
3.35153e-06
2.31383e-08
7.07314e-09
8.01401e-08
2.35983e-05
1.55252e-07
2.66677e-08
7.16593e-07
0.00301399
6.48028e-05
2.45304e-08
-1.36529e-09
0.00025352
5.83917e-09
1.5254e-05
4.69151e-07
-5.62058e-09
0.000296015
-2.05975e-09
-2.82462e-05
1.87672e-08
2.32575e-06
-3.92561e-07
3.68369e-07
-0.000335707
2.00537e-06
7.92123e-07
0.000153656
3.99218e-06
-0.000148719
-9.53195e-09
2.1385e-05
-5.51648e-09
-3.59006e-07
-6.07279e-10
-9.27077e-09
-8.69656e-07
-1.92289e-07
0.0016102
-8.89472e-06
2.34304e-07
-1.50027e-09
1.89087e-07
1.09854e-07
2.46983e-08
-1.36137e-06
-0.0182423
1.31596e-07
-1.21068e-06
-0.000304282
-2.32021e-07
1.56914e-05
6.54017e-08
7.47615e-08
-1.61507e-07
-1.5405e-08
-1.76862e-08
-8.94041e-08
-2.17094e-06
6.31562e-05
-2.51982e-06
5.70982e-09
8.45567e-09
2.00217e-08
8.71725e-09
-3.84297e-07
-5.01224e-08
-5.52181e-06
-8.45929e-10
3.7977e-09
3.79805e-08
-2.31874e-06
1.80566e-08
7.66765e-07
2.11174e-06
-8.78271e-06
6.34921e-07
-6.78329e-09
-7.73117e-05
0.000696435
9.49961e-07
1.37895e-09
-1.28914e-09
-6.74052e-05
5.34424e-05
7.049e-07
9.90388e-08
0.000775167
-1.96649e-07
4.07958e-08
-0.000390995
7.69962e-07
2.7394e-06
-6.75099e-05
1.43507e-09
2.67839e-08
-6.77964e-09
-1.26107e-06
0.000283176
9.16919e-06
-1.95339e-07
-0.000765294
-3.9054e-09
1.88267e-09
-5.45421e-06
4.47237e-06
1.68394e-06
-2.64137e-07
-4.46696e-09
-0.00693729
2.12606e-08
-0.000323331
-4.58737e-07
-4.62184e-06
-1.71605e-06
0.000601917
-0.000411624
1.47323e-06
2.97858e-07
6.53088e-08
6.02498e-10
-5.70073e-06
-5.561e-08
8.01891e-07
-7.34454e-06
-1.4038e-08
9.35601e-07
0.000583991
6.28751e-10
2.69052e-09
1.22383e-06
2.04814e-07
1.92899e-05
1.28551e-07
3.95133e-05
-4.10874e-09
3.47222e-09
-3.21587e-07
3.90265e-07
-1.33163e-06
-1.63373e-06
8.4359e-07
-1.89648e-08
-1.24572e-06
2.22425e-08
1.13464e-07
4.82534e-06
-6.25754e-10
-0.00402776
-6.59051e-07
-1.84e-06
-0.000155526
0.000472926
2.15424e-06
-5.01153e-07
6.28532e-10
1.96877e-08
1.88951e-08
-0.00095802
-2.14255e-06
-2.56276e-07
0.00032223
0.000485131
3.50202e-06
1.53886e-07
7.26135e-07
-2.44675e-10
-7.49254e-10
-0.00176139
-1.1208e-08
-3.77705e-10
1.49216e-09
-1.73689e-09
-4.06685e-07
-9.5624e-10
2.14774e-05
-0.000152113
3.33298e-09
1.38562e-09
1.71506e-08
7.00845e-09
9.09847e-10
-1.10275e-07
3.95462e-09
-5.31629e-07
-5.21373e-07
1.39545e-07
1.40868e-07
0.000308467
0.000247909
1.14043e-07
-1.08616e-05
-5.17312e-07
3.18352e-06
1.08652e-09
3.64314e-09
1.13343e-09
-3.0174e-07
-4.93848e-07
-5.46668e-09
0.000369604
0.000640181
-1.79101e-07
-1.22239e-05
3.48467e-08
-9.14936e-06
0.000755453
-2.45234e-08
4.24392e-06
4.07834e-09
3.76538e-06
-9.29687e-09
3.95281e-09
-4.47127e-08
1.63478e-08
3.34243e-07
1.11725e-08
3.80016e-06
-3.04736e-09
9.28043e-09
-1.18829e-06
2.54677e-07
-5.29855e-09
0.000179684
-0.00042816
-1.17974e-07
5.29594e-08
-0.0011271
-1.4411e-09
0.000195976
-3.09279e-07
-1.33211e-06
1.18122e-06
6.57639e-05
-0.00923549
5.43788e-06
-9.224e-08
-1.07394e-08
1.30168e-05
5.2406e-09
-1.0887e-07
-0.000147348
1.59267e-08
1.73121e-07
-9.74162e-09
5.13313e-08
5.04528e-09
1.63643e-08
4.9878e-09
-0.000997075
5.82251e-07
-1.61784e-09
6.39107e-05
-8.02624e-08
-1.58419e-06
8.81844e-06
2.17761e-06
1.23557e-05
3.02684e-06
-2.30719e-06
-1.24881e-07
1.01379e-07
-1.17153e-06
4.34565e-06
-0.000107941
1.29944e-09
-5.74519e-08
0.000127372
-0.0032375
-8.49612e-09
-1.34083e-09
-0.000304297
-1.42418e-08
0.000650818
6.15349e-09
0.00111318
-5.30392e-07
-0.00160377
-4.03846e-09
-0.00232357
-2.38755e-09
-5.3356e-08
-0.00122588
-4.81757e-09
-1.16818e-06
-0.00011788
-0.0006311
-2.32352e-09
2.4775e-09
-5.60774e-07
0.000987458
-1.21249e-09
0.00142559
-4.14608e-08
-7.84055e-08
6.11026e-09
0.000405431
-5.26062e-07
1.47744e-07
2.48654e-08
-3.71399e-09
-2.80231e-09
-0.0104698
-1.01237e-09
2.58794e-07
2.27452e-09
3.73956e-08
-0.000193193
0.00137129
-5.80973e-09
2.6785e-07
9.22919e-06
0.0010758
1.24742e-08
-0.000332491
-6.27271e-08
-5.37967e-07
-0.000190319
5.95391e-09
3.76042e-09
-1.14586e-08
7.01762e-09
1.28654e-06
-5.01238e-09
-3.05725e-06
0.000709764
9.62874e-08
3.5205e-09
-0.0099099
-0.0125126
2.07872e-08
7.60087e-09
1.2201e-08
1.22301e-08
-2.05641e-07
3.86875e-06
0.0016468
-4.68542e-07
2.67742e-06
-1.4675e-06
1.78593e-08
-9.7495e-07
3.2503e-05
0.000484033
-0.000963156
0.00151658
-1.66629e-08
-0.00142474
-3.65733e-10
-0.0201444
2.57593e-05
-9.60565e-09
-0.00199584
8.3523e-08
1.23137e-07
-0.000331386
-4.13204e-08
4.76353e-07
-8.66239e-09
-4.73754e-07
0.000144162
-7.69434e-08
0.0002337
5.59578e-08
-5.61627e-07
-1.10708e-07
-1.94631e-09
-7.6084e-08
-8.20753e-08
-3.27105e-05
5.25832e-07
0.000780268
4.13483e-09
-9.5321e-06
-0.00103776
-3.37013e-09
1.27973e-09
-0.00145325
-1.01206e-06
1.45742e-06
1.0011e-05
1.30116e-09
1.65481e-08
-1.98184e-09
4.72775e-07
2.83024e-07
2.89371e-09
-2.52154e-08
2.45853e-07
0.000295959
-9.30776e-09
5.34723e-07
2.83353e-07
9.88724e-07
-5.99826e-09
1.23042e-07
8.03987e-08
6.86728e-10
-0.000641592
0.000210503
3.35678e-10
2.8237e-08
-3.2392e-09
-2.5272e-07
1.71364e-05
2.08424e-09
-2.52252e-06
-1.17946e-06
0.00155435
2.22128e-05
0.000333553
3.58864e-09
-0.0139367
-1.2534e-09
-2.50797e-07
0.000478779
-5.3053e-10
-2.38387e-08
-0.000493111
-9.25357e-08
-1.04155e-06
2.7181e-09
-0.00451039
-1.78581e-05
-9.71782e-07
-2.00699e-09
2.22026e-08
-2.17128e-05
-2.59709e-06
6.11231e-05
3.53041e-07
2.1628e-08
4.70237e-08
3.17255e-05
-2.07687e-05
-2.20684e-09
-0.000980346
8.30585e-07
0.000835445
0.000727244
2.8939e-08
-3.14473e-07
-5.00668e-09
1.04885e-08
-3.76747e-08
1.52904e-06
1.96172e-07
2.68407e-09
3.03735e-08
-2.01788e-09
0.000173638
0.00029788
2.43437e-07
4.19346e-07
6.0554e-07
4.56296e-07
2.1385e-07
5.644e-09
8.30661e-07
1.61012e-07
-1.68788e-07
-1.30244e-06
4.93932e-09
-1.42348e-07
6.36023e-09
-3.41156e-05
-0.0111299
-7.61498e-07
-0.000554651
-2.36148e-06
2.03272e-09
-1.68436e-08
0.000108385
3.00406e-08
-9.74545e-09
0.000480263
-0.000309725
1.27989e-05
-7.55692e-07
-2.5565e-05
-1.08262e-05
8.88938e-06
0.000504916
2.0717e-08
2.27831e-08
-0.000463033
1.89139e-09
0.000204415
1.96298e-07
0.000182725
-1.67351e-10
-3.07998e-09
-0.000538312
2.14705e-08
-8.25689e-07
2.34814e-07
3.4294e-06
-7.82481e-09
-5.63294e-06
-2.69533e-09
-7.93272e-10
0.000234468
-2.16451e-06
0.00126579
4.04084e-09
-7.11107e-07
-0.000378801
5.07308e-07
-2.33194e-09
-0.000435908
0.000927629
-0.00567413
-1.39783e-05
-3.27204e-08
3.21963e-07
-1.36844e-08
-1.18658e-07
-0.00117402
3.28139e-09
0.000234514
-2.76189e-05
0.00913137
-0.00068201
-1.1239e-07
2.41238e-10
8.17649e-10
0.000223647
3.20484e-10
-3.68109e-08
2.14515e-08
-4.15806e-09
1.36028e-09
-1.4479e-05
-7.25987e-07
-1.3676e-07
8.20954e-05
6.81272e-07
-9.7048e-09
-1.55519e-08
-2.05176e-07
-3.66569e-09
-0.000872182
-0.00092728
-0.000521061
2.99539e-08
0.000708806
-1.49327e-07
-9.28135e-09
1.92026e-07
-0.000607058
0.000175832
1.72725e-09
7.67526e-08
1.10184e-07
8.8777e-09
0.000422776
1.15552e-07
2.33514e-08
0.000281275
6.85091e-10
-1.00829e-06
1.12032e-07
8.33655e-07
2.24264e-07
8.71113e-09
-6.90198e-09
3.79317e-06
2.19161e-07
-0.00116399
2.71616e-08
3.17416e-08
-7.68484e-09
-2.68565e-09
9.21379e-09
1.01131e-07
-8.80522e-08
4.7334e-07
0.00126212
0.00090007
-1.13237e-06
5.33932e-09
-3.30205e-09
0.000888285
2.17372e-09
-4.42295e-09
1.50158e-07
-0.00485445
-8.76862e-07
0.00127301
-2.00715e-08
-1.72705e-05
-7.7341e-07
-0.00117991
-8.40687e-05
1.20892e-09
-2.73746e-09
1.05734e-07
-6.22683e-09
-1.94134e-08
-0.000250585
1.62054e-09
-5.1951e-09
-0.000658591
-5.141e-09
0.000537742
1.4186e-10
-7.65316e-09
6.21184e-08
2.12215e-08
-5.6829e-07
6.63758e-09
-0.00543092
3.45719e-08
-2.70809e-09
-4.0118e-09
2.65281e-06
-3.04998e-09
-5.20966e-10
-0.0231881
6.16673e-07
0.000774027
-1.94191e-09
0.00146938
4.54641e-09
-7.68131e-09
2.74337e-06
9.31469e-07
-4.95487e-06
-4.53785e-05
-9.68592e-08
-5.45518e-08
-5.74121e-07
-5.01164e-07
7.34944e-09
7.76114e-06
1.63581e-08
-0.00118158
3.23599e-09
1.7178e-07
2.6876e-08
1.49405e-07
-1.47707e-06
0.00010796
0.000172686
0.000430372
2.19006e-08
-4.66809e-07
8.33763e-09
-0.00624302
-0.0060187
1.7442e-07
-1.00725e-08
2.74984e-07
-2.39508e-09
-1.13398e-08
-2.28078e-09
2.69783e-08
-3.71314e-07
-1.54308e-09
-9.3766e-10
-1.88997e-09
0.000681628
0.00039428
-9.83436e-08
2.77509e-07
-1.82982e-09
-1.3611e-06
1.45411e-09
0.000201842
-1.45494e-08
-2.49193e-07
-1.88533e-10
1.23505e-06
-5.15279e-05
-0.000297517
1.13835e-07
-1.94934e-09
2.12549e-06
-1.56399e-09
-0.00027445
-6.51204e-07
-1.35268e-09
-0.00798534
8.5354e-07
3.23291e-09
3.33575e-07
-2.73363e-08
2.27998e-09
-2.35122e-06
2.45854e-07
-0.00564628
-1.7592e-09
-1.98328e-06
-0.000522152
-2.43531e-08
-1.77085e-08
3.33119e-07
4.25437e-09
4.59831e-10
3.37474e-07
-2.68966e-06
-1.09104e-08
-1.83959e-08
4.87783e-09
-2.43452e-05
-5.04382e-09
-1.75022e-09
-8.7835e-05
2.82421e-07
7.20671e-08
1.0156e-06
-0.0117682
1.04957e-07
-1.18001e-07
1.45933e-05
2.84779e-08
-1.02371e-05
-8.41811e-11
-8.00591e-08
-2.21131e-09
-3.45375e-07
-2.40853e-06
-2.51231e-05
0.000849287
-5.60241e-09
-0.000102883
-3.91557e-07
-4.32009e-08
-1.52711e-08
-4.60781e-09
-1.19176e-08
6.97707e-08
-5.55628e-06
8.79284e-09
-4.23034e-09
-1.59566e-09
-0.0063037
5.50766e-09
0.0017274
-5.7356e-09
-1.83907e-06
-0.00617848
-3.6065e-10
5.07349e-06
-3.83019e-09
-7.00639e-10
-9.47765e-08
3.20881e-07
-2.18003e-05
0.00105829
2.79802e-10
-3.87469e-08
1.69329e-07
0.000600717
4.74232e-11
-2.56761e-07
-2.51263e-06
1.70585e-07
-4.32895e-05
1.34236e-09
-1.81225e-08
-8.29972e-07
-1.17021e-06
-0.0103616
0.000438869
-7.60797e-09
-0.000110508
3.24439e-08
-4.39272e-08
2.03648e-09
-1.14641e-06
1.78646e-08
-5.77741e-05
4.39059e-09
-2.93997e-08
9.36266e-09
1.89269e-08
1.05573e-08
1.34984e-09
-5.44205e-09
-2.77111e-09
8.64973e-08
-2.32199e-06
1.23851e-08
6.94825e-09
-3.20413e-08
2.06477e-08
-1.53118e-06
1.16231e-07
6.81385e-07
-1.452e-09
-2.78841e-10
0.00108114
4.55977e-09
3.34311e-07
1.57896e-10
4.07948e-09
-3.89713e-08
9.09999e-07
5.50758e-06
6.10313e-07
-2.60597e-07
-1.72509e-09
7.90929e-06
-1.96521e-08
8.13386e-06
-0.00115995
2.79376e-08
5.98903e-09
-2.12796e-09
-8.82678e-07
3.55977e-07
-1.15889e-06
2.11714e-09
3.19499e-09
-3.17045e-08
3.99529e-07
-2.19861e-09
-1.37417e-07
-6.01891e-09
3.56037e-08
-0.00517758
3.83492e-07
-6.02359e-07
-7.88127e-09
-2.59264e-09
-1.78467e-06
2.13646e-08
-1.47754e-07
-1.27977e-09
-0.00486784
-0.00105074
-4.09151e-10
4.82519e-07
-1.44165e-07
0.000578849
9.85007e-10
-1.25971e-06
2.05165e-07
-5.75018e-05
7.11511e-08
3.90449e-09
-1.1568e-08
-2.19774e-09
5.27683e-09
1.4486e-09
-5.55635e-10
3.8939e-09
-8.43389e-08
1.11447e-06
-1.61013e-07
2.05012e-08
2.14952e-08
1.21201e-06
-1.27657e-07
2.73413e-08
9.6624e-07
2.20856e-08
-0.002901
-4.86239e-07
-5.10825e-07
7.74087e-09
1.45847e-09
2.16233e-08
0.00048082
-8.64332e-08
1.43712e-08
2.9322e-08
-1.96161e-08
1.23819e-08
-4.15339e-07
4.89997e-07
5.42316e-09
2.15334e-08
-1.22242e-08
-4.95729e-08
0.00220236
-1.10814e-08
-3.78541e-07
-2.34958e-06
3.47177e-08
-0.000271865
-3.31664e-09
2.61325e-08
-1.62858e-07
0.00540842
1.22471e-07
-1.82344e-09
0.000594237
-1.6314e-09
-1.2793e-10
3.84832e-09
5.49364e-10
-4.27235e-10
-2.07351e-07
0.00528716
7.27244e-08
2.81165e-07
-1.78667e-09
-1.12672e-06
5.19924e-08
-0.00320019
6.0414e-09
-6.12475e-06
2.68072e-08
-7.49681e-05
-1.47615e-09
-1.55521e-07
-7.61589e-09
0.00522806
9.94141e-09
2.52137e-08
-1.41939e-06
5.66246e-09
2.15922e-09
0.000620899
-1.45278e-08
-1.12004e-08
7.99272e-09
0.0100236
1.45071e-06
3.01858e-08
1.56232e-05
-7.3862e-09
2.73909e-10
-0.000194426
1.24772e-06
-3.68281e-09
-2.74045e-09
6.44894e-09
-0.000946936
5.8383e-09
-5.09436e-09
1.49726e-09
1.19472e-09
-2.21228e-10
-0.000957049
1.56137e-08
-8.09438e-08
3.22998e-07
-8.8337e-08
0.000190421
-4.02852e-08
1.2185e-08
6.35583e-08
-2.68151e-09
2.89586e-08
4.21194e-09
3.85342e-09
0.000452915
1.6051e-05
-5.04058e-09
-5.77661e-07
4.8984e-10
1.47948e-09
-1.06837e-07
1.00057e-08
3.51894e-08
-2.13462e-09
7.38936e-05
6.15593e-07
-1.3891e-08
0.00141484
4.76675e-05
-8.96912e-09
-1.13234e-08
1.57619e-05
1.5244e-07
3.96602e-07
-3.6024e-09
-2.72274e-07
-5.47471e-09
0.000221641
1.30506e-08
7.58122e-10
0.00188305
-1.24274e-08
-3.10822e-08
2.53046e-08
2.08864e-08
9.88362e-08
-0.00645026
4.32758e-06
3.95439e-09
-2.99628e-08
3.02252e-09
5.91867e-08
-1.75035e-09
-1.47875e-08
-0.000501365
6.17795e-07
-1.64786e-09
4.17388e-06
-0.0023886
8.58387e-07
-0.0059297
3.73963e-10
1.00699e-08
1.59316e-06
-1.57512e-05
-0.00517539
3.03398e-05
6.17655e-09
-4.88963e-08
-0.00131351
-0.00143927
-5.21927e-08
4.09478e-09
6.34554e-10
-5.77949e-08
-9.42219e-09
-1.70512e-09
-5.52498e-10
-1.64278e-07
1.35115e-09
-0.000957282
0.00397082
2.63954e-09
-5.3516e-09
-1.35643e-08
1.50974e-09
-4.15084e-08
-3.10399e-07
2.17281e-08
1.21481e-06
3.3053e-08
0.00166347
-1.37062e-06
5.29751e-07
-1.29622e-07
4.58231e-07
1.04077e-09
0.00361452
-2.38677e-06
-1.10839e-07
-6.03315e-07
2.0245e-08
4.55123e-08
-6.8124e-11
0.00456853
-9.02968e-09
2.46984e-08
-7.94479e-10
3.83635e-09
-0.00293359
-2.02392e-07
-3.32028e-09
-0.000726878
-0.000610514
-1.0983e-08
3.5716e-08
1.96959e-09
-2.10919e-06
-1.57324e-05
-6.09099e-10
7.1977e-08
3.95e-08
-8.70509e-09
-3.43624e-09
-2.73102e-09
0.00048438
2.57903e-08
3.07454e-09
1.86455e-09
-9.23302e-10
3.09137e-08
-1.53423e-07
5.96379e-11
3.48159e-09
0.00165019
-2.46796e-07
2.94366e-09
8.71551e-08
1.06335e-09
-1.35875e-08
4.91107e-07
-8.68959e-10
2.9505e-06
-1.56256e-05
7.52446e-09
-0.000235951
4.20641e-10
-0.000870163
-6.23432e-09
1.59345e-07
-9.47178e-10
-6.87353e-07
-7.71612e-05
-5.57177e-07
-1.00663e-05
-1.08499e-09
5.62403e-09
2.02552e-05
-5.46675e-07
-0.000189417
1.18854e-08
2.00018e-08
1.42555e-06
-6.18623e-10
-2.81601e-09
1.81231e-09
5.01652e-07
2.57517e-08
0.000641905
-5.86055e-06
2.60498e-08
2.20317e-09
-2.3334e-09
-0.00048352
1.2377e-05
8.59233e-07
3.1858e-08
-8.40252e-06
4.9734e-09
-4.19086e-10
7.49026e-09
0.00121181
6.3123e-09
3.40098e-07
1.39956e-09
3.61826e-09
1.9553e-08
-1.77948e-09
0.000162964
-7.72937e-07
6.87384e-09
1.25285e-09
2.91113e-08
1.85272e-09
0.00286202
3.19025e-09
9.36695e-08
2.87752e-09
3.44645e-09
-2.08781e-09
-0.000765535
2.73571e-09
1.18618e-08
1.21174e-09
-4.35378e-06
7.53935e-08
0.00120824
-2.83421e-09
9.21431e-05
4.78913e-07
-2.99744e-07
5.18322e-09
1.84742e-05
-0.00441016
4.11428e-08
1.31936e-09
-3.61706e-08
-9.9844e-09
1.96722e-09
3.4784e-08
-1.83242e-09
4.68656e-09
-7.15208e-09
0.00102241
-1.02921e-07
-5.19614e-08
1.00583e-10
3.46668e-07
-6.07667e-09
7.98979e-10
0.00175931
-1.31978e-08
1.42502e-07
3.1634e-08
-1.12197e-07
1.65477e-07
-0.000274747
1.51973e-06
-3.31059e-09
0.000302386
3.83087e-07
0.00021525
-0.00715491
-9.96955e-09
2.0051e-08
2.96746e-09
6.84484e-07
-4.53353e-09
1.56372e-07
3.12147e-08
0.000297853
-9.12904e-09
9.11372e-09
0.00135639
4.18788e-07
3.00878e-07
0.000728004
-8.22492e-09
1.99266e-05
1.72033e-08
-6.86725e-06
4.47736e-09
4.69058e-07
-1.406e-05
0.000781099
9.05727e-08
1.12556e-09
2.46938e-09
2.21624e-07
0.013544
3.71117e-08
-2.79361e-08
-5.48135e-09
2.01757e-09
2.59832e-08
1.75888e-05
5.25545e-09
-8.21997e-07
-5.14881e-09
-3.91763e-09
-2.54244e-07
1.2341e-07
-6.29619e-06
-7.39992e-09
1.45154e-07
0.000400093
8.94132e-08
-2.37431e-08
-0.000364033
-0.00044418
-0.0140206
-3.65035e-06
-5.27462e-09
-0.000479085
3.23187e-06
-3.67211e-08
-1.21221e-08
0.000792661
5.2209e-09
-1.50867e-07
-5.7874e-09
-0.000286207
0.000522112
-5.17869e-09
7.76209e-10
-1.1524e-05
-1.9068e-09
1.52422e-07
-5.64749e-06
-2.34368e-09
-1.36291e-09
-6.05697e-09
-0.000573514
5.1727e-09
-1.19705e-08
4.09739e-07
4.15322e-07
2.48597e-08
0.000487118
2.12408e-05
5.87714e-08
3.53795e-09
0.000784637
3.80994e-08
-3.38139e-09
3.04615e-08
-0.00402108
-3.554e-09
2.58859e-08
-2.90077e-07
2.87416e-07
4.18334e-09
-0.000552235
2.07324e-08
9.21928e-10
-4.28357e-09
-2.11066e-06
9.62167e-08
-2.22892e-09
-0.00937095
-1.04297e-06
2.08755e-08
-3.09331e-09
-1.86155e-06
-5.09876e-06
1.35091e-07
2.01871e-07
2.38006e-07
7.09334e-10
-2.99918e-07
1.40551e-07
0.000299492
-6.30443e-07
3.69199e-09
1.78379e-08
2.3675e-08
7.86831e-10
-3.02645e-07
2.18271e-07
0.0100155
6.50547e-09
-5.78126e-09
1.01057e-07
3.80479e-08
-1.31696e-08
4.5877e-07
0.000325381
-9.76456e-09
-2.11695e-09
-1.15615e-07
4.68712e-09
2.30585e-09
4.23803e-09
-2.53912e-07
2.56547e-08
2.76795e-09
-6.12271e-09
-2.38922e-06
-1.12701e-08
-0.00113016
-9.42851e-09
-9.14464e-09
-2.64849e-09
-9.36176e-09
-6.65771e-09
-9.57265e-06
-0.00108233
-1.09608e-08
-2.18028e-09
-1.53545e-07
-1.32078e-08
-6.53362e-09
-6.67151e-07
2.01034e-09
0.000348533
-2.06965e-06
-5.48361e-06
2.36556e-07
1.25559e-08
-7.97364e-06
2.03101e-08
6.15658e-07
2.27248e-10
-4.14027e-07
-1.24488e-08
0.00411166
8.31467e-10
0.00351939
-1.98484e-09
-2.13879e-09
-5.46625e-07
4.51147e-10
0.000308737
0.000105711
-1.09429e-06
5.56611e-09
7.30706e-09
-3.58199e-09
-8.46085e-07
2.10988e-10
5.17565e-07
-4.52876e-08
2.71825e-05
4.29519e-09
5.67586e-07
7.5307e-05
1.96799e-08
3.0865e-08
2.63885e-08
9.93752e-08
-4.48091e-09
1.50876e-07
-2.15218e-09
-3.75705e-09
0.00176521
8.28181e-05
-2.90584e-09
-3.60515e-09
-2.19817e-09
0.000600482
-3.91686e-08
-1.56836e-07
2.72048e-08
1.22845e-07
-8.12999e-10
-5.89111e-09
0.000409329
-1.89081e-09
-3.64574e-08
1.83034e-07
-1.03411e-06
7.64574e-09
-5.4495e-06
5.58074e-07
2.30426e-07
0.00691302
-2.60891e-09
-2.09443e-09
1.68925e-09
8.56187e-09
-1.16273e-07
1.81293e-08
2.52541e-08
-6.42569e-06
4.58315e-09
-1.71804e-09
1.92304e-09
2.26721e-09
7.40673e-10
-1.00728e-09
4.25736e-09
5.82762e-06
1.91123e-07
0.000555751
-2.34387e-06
0.000273835
-2.74399e-09
-1.13492e-07
8.76119e-09
-1.88425e-07
-8.80703e-07
2.21721e-07
-3.29478e-09
1.14198e-07
0.00349527
1.42787e-07
-2.9524e-07
4.78939e-05
-0.000566121
1.81719e-07
8.74298e-09
3.52923e-08
2.29694e-09
-1.719e-09
5.98078e-07
-3.81459e-08
0.00106584
1.14082e-09
1.28431e-09
-1.09303e-06
-0.000264383
1.28482e-08
-9.90886e-07
-2.79784e-09
2.28852e-05
-1.10239e-07
-2.77423e-08
-1.00151e-08
5.89361e-08
9.28972e-09
2.28942e-08
-9.39328e-09
0.000530517
-2.82948e-09
9.14964e-07
1.50196e-08
3.66282e-09
-9.83408e-07
-2.93798e-10
3.59623e-07
3.04865e-08
-8.68439e-10
0.000285327
4.48546e-07
8.071e-08
-2.17073e-09
-2.67077e-09
-7.19445e-07
0.00149137
-3.86912e-08
2.22713e-08
0.00190811
4.54083e-09
-8.1043e-07
-0.000244686
1.55767e-08
-4.09938e-10
0.000621544
-5.01402e-09
-2.18406e-06
-9.24954e-10
-0.000620156
1.25412e-09
8.25747e-07
4.26931e-09
2.2705e-08
7.04863e-09
-1.13366e-08
-1.28659e-05
1.32499e-06
1.21086e-05
7.03044e-09
1.23101e-05
-0.00101891
-8.03698e-05
-3.49285e-08
1.10772e-07
7.80735e-07
8.35748e-10
6.48221e-06
-6.41823e-10
-3.18926e-09
-6.77021e-07
2.43394e-08
1.5211e-09
-0.00403463
9.98773e-05
-4.69537e-07
0.00932891
2.47942e-08
1.10239e-08
-1.24073e-08
0.0015247
-4.56098e-09
-0.00235626
-0.000113226
-4.32783e-09
1.46209e-07
2.47606e-08
5.9826e-08
-2.5519e-05
8.31993e-05
-2.55581e-09
1.82258e-06
-3.94933e-09
3.57661e-07
-0.00357029
-0.000394576
4.15222e-09
-1.25413e-09
-0.00220829
0.00131023
-1.24374e-08
1.30792e-07
-3.26565e-06
4.46391e-08
-2.81567e-08
-7.60403e-07
9.86775e-06
-2.7291e-06
-4.57778e-05
-5.36143e-08
9.97915e-09
0.000764629
4.58811e-10
-3.80586e-07
8.80807e-08
-2.8716e-11
-1.46057e-05
-0.00768115
-8.00899e-07
-1.34101e-08
9.92084e-09
-1.63228e-09
0.000843139
-1.01142e-08
4.48814e-07
-3.40437e-07
5.97422e-09
3.07555e-08
8.05299e-08
-3.95626e-10
1.50389e-08
4.81591e-10
-2.28289e-06
2.42322e-06
6.35064e-06
0.000303753
0.000951255
0.000940991
-8.45543e-09
4.59937e-07
-4.46454e-06
-1.05352e-06
-2.1446e-07
7.85939e-07
1.57451e-06
-0.000210164
-0.000127453
-6.04824e-07
-1.57575e-06
2.9279e-08
-1.97473e-09
1.48259e-06
0.000369728
3.68262e-09
-5.41876e-08
-8.35353e-07
-4.60255e-09
1.15354e-05
1.44802e-09
4.1742e-10
-0.000646966
9.54051e-06
9.92673e-09
-4.16342e-08
2.05788e-09
2.52868e-08
1.67923e-07
-1.6801e-07
4.0979e-08
2.42664e-08
1.47074e-06
4.84026e-07
1.19123e-08
2.80387e-08
0.00305626
6.97637e-05
5.03065e-09
-0.000273997
4.92485e-08
1.90944e-07
-2.50235e-09
3.89425e-08
-4.77416e-09
-6.67379e-09
4.84417e-08
-2.63004e-09
-1.3938e-07
6.86336e-09
4.56583e-09
0.000650445
-3.96161e-05
-7.84191e-07
6.67994e-08
6.76609e-09
3.745e-06
2.95873e-08
1.37743e-07
-0.000217683
-0.00328226
-4.68761e-08
-3.31007e-09
-0.00069864
-0.000196991
1.30221e-07
1.42762e-06
2.88008e-09
8.04348e-08
1.64207e-08
-0.00353843
-4.92227e-09
1.73486e-09
-5.76764e-07
-0.00346068
-1.78554e-06
4.02806e-09
5.5486e-08
5.00143e-06
-1.81907e-09
1.10004e-08
2.08195e-07
-2.5223e-08
3.2187e-07
0.000328941
2.24684e-08
0.0018077
-2.98814e-07
-0.000211279
3.43565e-06
-3.56305e-07
4.85672e-07
-0.000167304
5.52967e-09
9.31931e-10
-4.2739e-08
2.00709e-09
-1.97879e-09
1.1235e-08
-7.48347e-07
1.72225e-07
4.92398e-08
-1.60505e-09
-4.07561e-09
-0.000593121
-1.8278e-07
-7.01178e-11
-6.38131e-07
-5.46046e-07
-9.65156e-05
-3.34629e-08
-0.000904195
3.75428e-06
-0.00116097
6.63073e-05
3.93823e-07
3.10457e-09
-0.0217175
-8.06446e-08
1.54562e-07
6.33168e-08
-0.00192202
5.38317e-08
-1.3037e-06
1.20385e-09
-1.8863e-08
-0.000270413
3.28747e-09
9.21057e-08
1.6388e-06
0.000179467
-1.89408e-06
-5.39586e-06
-4.15684e-08
-1.17162e-08
-2.26384e-06
-2.4782e-08
4.73883e-08
2.15954e-07
-7.8549e-09
0.000358102
1.37896e-07
5.34581e-08
5.02636e-09
5.95943e-06
1.05499e-07
-4.79715e-08
-6.87461e-05
-5.21807e-08
2.23026e-05
-0.000205132
5.42956e-09
1.07991e-07
-0.000575166
-0.00237868
-2.99073e-09
-7.69523e-05
2.87647e-07
-8.15993e-09
-2.17564e-09
-6.75076e-07
-4.03362e-09
0.000896299
7.22422e-07
3.19733e-10
-0.00211671
4.91835e-09
0.000274616
2.14404e-09
7.45027e-09
1.5622e-08
-1.77512e-07
3.60488e-06
-0.000576825
-0.00132737
2.01104e-10
0.000959999
2.14202e-08
7.43157e-08
5.6653e-07
-2.14203e-07
7.12739e-10
-2.07079e-06
1.34234e-09
1.63111e-06
7.25644e-09
9.48709e-09
-9.06478e-08
1.44183e-09
3.92636e-08
1.11517e-08
1.06516e-07
-0.000291527
3.86456e-09
-1.33582e-09
2.43547e-09
0.001188
0.0011
2.96726e-08
7.66889e-07
1.88573e-08
-2.76998e-09
-2.97881e-07
-8.0481e-08
1.52826e-08
1.40759e-08
1.31952e-08
6.75486e-07
1.53206e-07
-0.00875044
-1.19944e-06
-6.85734e-07
-0.000101077
-0.000537615
-1.26763e-07
4.92781e-07
-0.000597732
-0.00119531
-1.248e-07
1.91694e-05
-2.25858e-09
-0.000343547
-0.000340989
7.14404e-08
0.000886466
-6.21375e-09
-0.000742292
-0.000269557
-7.75597e-07
5.4481e-06
7.09764e-08
-2.71043e-06
6.68966e-09
1.75838e-08
-1.33647e-06
1.55218e-08
-8.92662e-07
-2.40615e-06
2.25275e-08
-1.08743e-10
8.59699e-07
-2.27589e-10
-0.000166708
1.79338e-05
-2.49886e-08
-0.000246255
9.59871e-09
-5.37771e-07
-1.10694e-09
-2.2895e-08
4.69568e-08
-1.16412e-07
-4.26679e-05
-3.04585e-08
5.97977e-06
2.30068e-07
4.07868e-10
-2.33809e-09
2.27452e-07
1.2762e-07
-2.81421e-08
4.63173e-08
9.03784e-09
-1.72156e-09
-2.68173e-08
-1.6937e-08
1.53745e-07
5.88441e-09
2.39316e-08
6.76525e-08
0.00353999
2.20062e-10
4.5019e-05
9.10123e-09
0.0109729
2.98464e-09
-0.00171642
3.76295e-06
1.04543e-07
2.62791e-05
-3.74812e-09
-0.000115669
1.27836e-07
2.23319e-08
0.00799343
8.26721e-10
-2.68298e-10
-9.27655e-08
-6.85939e-09
-4.98829e-07
1.3343e-07
-1.23799e-08
-8.20147e-07
-0.00150764
1.21462e-09
9.2212e-09
-7.76322e-07
5.23419e-05
3.47161e-09
0.000196881
1.41742e-09
-1.05349e-09
4.95507e-08
6.06356e-09
-1.92998e-05
1.04839e-09
-0.000908258
-1.50122e-07
2.08477e-08
-4.29516e-07
-4.32969e-08
-1.66731e-09
4.1272e-09
-9.03284e-09
-2.15902e-09
-1.25734e-09
1.71078e-08
-0.000635875
-9.86959e-08
2.14962e-08
5.17234e-07
0.000972232
-0.0225861
-0.000607209
-1.97619e-07
-2.45278e-07
4.48385e-09
-1.76481e-07
2.93766e-07
2.99477e-07
3.92757e-09
2.38751e-07
-1.54566e-09
8.33522e-10
-0.000863763
-0.000111993
8.45291e-09
-6.44829e-09
2.14821e-09
-5.8821e-08
9.43146e-08
2.48181e-07
-5.088e-06
0.000323722
-1.64903e-09
1.8295e-08
-1.84701e-08
-1.94628e-09
-1.41121e-07
3.81787e-05
4.11904e-05
-5.91739e-07
-9.34023e-07
4.13615e-09
0.00331305
-5.62394e-10
6.97845e-09
-5.05e-09
-1.85974e-06
6.58415e-06
8.87218e-09
-3.52309e-07
9.01621e-09
-1.72745e-06
-0.0251186
7.27319e-07
-1.61191e-09
-0.000922557
7.94989e-09
-1.91663e-08
-5.4266e-09
0.000134709
8.56622e-07
-7.84805e-08
-4.04813e-09
-6.62154e-10
-0.000863997
1.28833e-09
-1.0995e-08
-1.53411e-08
4.74681e-10
7.91062e-09
1.52944e-08
-2.35583e-09
-0.000238004
1.25339e-08
2.35978e-08
3.37298e-09
-0.000808349
-5.27713e-09
3.68827e-09
-1.16384e-08
-3.80509e-09
-0.000567863
-0.000179291
2.32528e-09
4.11645e-08
0.00177351
0.00116126
5.55526e-09
6.05703e-08
2.51897e-07
2.26844e-07
3.36935e-09
1.39186e-07
1.93651e-08
4.23316e-06
-3.95074e-09
-1.88535e-07
-0.000236208
-3.5145e-08
1.0569e-07
2.26887e-07
1.60259e-08
-3.33747e-06
-2.55416e-09
-1.54338e-05
-2.94399e-08
-1.87784e-08
6.72246e-06
-1.55045e-07
1.74108e-09
1.51419e-05
-1.08397e-06
-4.34152e-08
1.02409e-07
3.00704e-08
3.18642e-08
-3.79134e-07
-4.65675e-07
-5.11601e-09
-2.55532e-08
4.59538e-07
5.94656e-09
6.34565e-06
4.08616e-08
1.27923e-08
-9.36916e-05
1.62893e-07
-5.65995e-09
1.33482e-08
1.19881e-07
-1.9891e-09
6.47076e-08
-1.82539e-08
1.05589e-08
0.000529805
-6.46028e-07
1.39066e-07
1.05527e-06
0.000223059
6.2591e-09
4.9049e-10
9.47361e-08
5.79851e-09
1.44135e-08
-0.000226026
-6.86516e-07
-5.325e-09
3.31594e-09
7.68601e-09
0.00011836
-4.71679e-09
8.70909e-07
-3.73779e-07
-2.17943e-06
1.41616e-08
1.03302e-06
-1.18743e-06
-5.9271e-05
-3.00975e-09
6.76548e-07
9.57947e-09