/*--------------------------------*- C++ -*----------------------------------*\
| =========                 |                                                 |
| \\      /  F ield         | OpenFOAM: The Open Source CFD Toolbox           |
|  \\    /   O peration     | Version:  v2012                                 |
|   \\  /    A nd           | Website:  www.openfoam.com                      |
|    \\/     M anipulation  |                                                 |
\*---------------------------------------------------------------------------*/
FoamFile
{
    version     2.0;
    format      ascii;
    class       volScalarField;
    location    "400";
    object      ddt0(omega);
}
// * * * * * * * * * * * * * * * * * * * * * * * * * * * * * * * * * * * * * //

dimensions      [0 0 -2 0 0 0 0];


internalField   nonuniform List<scalar> 
54593
(
-0.0022912
0.000461797
-0.00194465
5.8112e-05
0.000397074
-0.00272366
-3.90434e-07
-0.000272237
0.000400567
1.90463e-05
4.90442e-08
-0.00778949
1.87491e-07
3.59892e-07
0.00132194
5.28075e-07
0.0219917
-3.53377e-08
5.40758e-07
0.00236083
-1.32904e-05
-4.86253e-06
0.0295757
3.59724e-06
-9.14075e-07
2.0949e-05
0.172954
0.000605569
-0.000697791
-1.83218e-05
0.00322299
0.00389343
-5.77881e-08
0.0271823
-3.35793e-07
3.52617e-06
1.42906e-05
0.0588441
0.0869792
0.703003
-0.112132
2.70894e-07
4.58288e-07
-4.99277e-07
-3.05668e-07
-8.86767e-06
-4.18089e-07
0.105616
0.0663241
-5.0098e-06
-3.06853e-07
-1.94552e-06
-4.8903e-06
8.56165e-06
2.03011e-05
6.79664e-08
-0.000256882
-1.098e-06
0.00181608
-7.76223e-06
0.11626
-1.2479e-06
-1.70652e-07
-1.11918e-06
0.0267975
0.616143
7.71624e-08
0.0181506
-1.70823e-06
-3.64106e-07
0.0280494
-2.93792e-07
8.68453e-06
-5.84281e-08
9.77115e-09
-3.98917e-07
0.103555
4.37931e-07
-0.113946
2.03881e-05
3.65357e-06
8.05959e-07
0.028153
0.0120637
3.61713e-07
-8.86077e-07
0.0027531
-1.43614e-05
-8.52723e-07
-0.000651002
4.27953e-07
3.55184e-06
0.0198985
8.03334e-07
-0.553166
3.11507e-05
2.34889e-05
2.53647e-06
4.84099e-07
-3.74152e-07
0.0236423
-0.00016487
-1.25378e-06
0.00117653
0.00284632
0.000729437
-2.40178e-07
0.000134352
-8.86692e-08
3.68451e-07
6.72525e-07
4.7709e-07
0.0200442
-1.60666e-06
0.0446431
1.94894e-07
-1.45883e-08
-1.28414e-05
0.00233919
0.0123543
3.67807e-06
6.43385e-05
2.00576e-05
0.000252046
-7.54166e-06
0.0221164
-7.95973e-07
4.33226e-05
0.0214815
2.34006e-07
-7.28135e-07
6.82221e-06
4.04525e-07
1.84368e-05
-5.09102e-07
-3.19134e-07
3.91157e-05
0.000725357
-6.7718e-06
-0.0388079
1.96712e-07
-5.8937e-06
2.86707e-07
0.027402
3.65797e-07
1.26077e-05
1.23782e-05
1.01454e-05
3.12111e-07
0.0228122
-1.40866e-05
0.0048553
1.47393e-06
-1.36398e-06
3.54984e-06
0.00159974
-0.000631209
-0.034918
-0.000379558
2.35337e-06
0.0007858
-0.000145012
0.00972737
-1.30726e-07
0.00488274
5.81562e-07
-1.58279e-05
5.74093e-07
2.59081e-07
7.60809e-07
-0.0289645
-1.10527e-06
-1.40269e-05
8.21927e-05
-6.00545e-07
2.66403e-07
0.000317726
2.1719e-05
0.0261078
-1.43027e-07
-3.64518e-07
-1.7547e-05
0.0258135
0.000157208
-0.000445017
-1.35925e-07
-0.0250632
4.29219e-07
2.16877e-05
2.37861e-07
0.0633921
0.00151545
1.47819e-07
-0.0594153
-0.000510159
-1.02404e-06
6.69504e-07
-7.54196e-06
-0.000613426
-1.70397e-05
0.0461511
0.000831263
1.87966e-07
8.18184e-05
-0.00369151
-7.45282e-06
-4.81094e-06
8.69552e-05
1.1236e-07
-0.040136
1.36645e-07
-0.0118651
9.31172e-05
0.00478451
-2.51562e-07
4.40889e-07
7.97954e-06
-0.00688637
-3.7851e-08
-1.48895e-07
-5.59341e-06
-0.047368
-1.83402e-07
0.209589
-0.0687041
-0.00037597
6.76953e-06
0.0521232
3.48377e-05
0.0225658
0.0580572
-8.54817e-08
-2.17775e-06
-1.24657e-05
2.0044e-05
2.41346e-07
-7.16518e-06
-0.069475
-0.000504894
-5.73546e-07
-1.80494e-08
-7.93226e-09
3.15017e-07
-1.50084e-08
2.00957e-05
-4.48936e-07
0.0027846
0.236873
-1.7893e-05
-7.84027e-07
-0.000755998
-1.84119e-07
0.000129004
4.2183e-07
-0.0580386
3.74947e-07
-0.00562638
0.0474933
-0.00075993
-3.73671e-07
2.40356e-06
6.72134e-08
0.000182351
0.272513
0.00272035
0.000471762
-3.74439e-08
-6.37652e-05
2.6625e-06
-2.65235e-07
-0.00409486
0.225666
-1.35693e-07
-0.00211
-0.000456604
-0.146037
1.5207e-06
1.26563e-07
0.000179426
1.68072e-07
-3.71923e-07
2.26429e-05
-2.01389e-05
6.64494e-05
0.0176527
0.000106121
6.33021e-05
-4.86179e-06
6.10858e-05
1.50526e-06
-1.13389e-05
-0.0609282
0.000681794
0.0146753
5.081e-06
-4.34293e-07
0.000471293
-7.94857e-07
-1.26392e-06
-0.000113325
0.000328962
0.000320015
-0.000667945
0.00398617
7.96765e-05
-3.04658e-05
0.000407937
0.00129962
-0.0782612
0.0119642
-4.18529e-06
-0.000596264
-5.74747e-05
0.0194762
0.0097455
0.00019524
0.0166739
1.53544e-05
5.84038e-05
3.8847e-07
0.0280713
-2.07467e-05
3.71678e-07
0.000175967
-4.23782e-07
0.0368448
-7.2642e-06
0.00373328
4.68547e-07
0.260836
-0.00165986
-3.64748e-07
-0.00286412
-0.00220149
2.06015e-05
5.51179e-07
7.45802e-06
0.00947396
6.14112e-06
2.45972e-06
5.37277e-05
-0.0761167
0.02327
2.43318e-06
-9.98853e-08
0.0131916
4.50995e-07
0.00605471
5.66389e-05
-5.84146e-07
0.0665737
-1.9352e-07
-0.0093643
2.46183e-06
0.000139484
0.000394328
3.34312e-05
0.00176569
0.00057637
0.00021519
-0.0216542
-0.000988552
0.00147786
-5.32261e-07
0.00638073
-1.49491e-05
-3.80774e-05
-6.64533e-08
-7.52283e-07
8.50423e-06
-1.70901e-05
0.207219
-0.27105
0.000112602
-6.45889e-06
0.00032117
0.000290104
1.09059e-05
0.00288581
-0.1485
0.000226804
0.000181087
-0.0253237
0.00026041
0.0062267
9.64294e-05
9.00016e-05
0.000260115
0.000182286
-1.27853e-06
-3.49442e-06
-0.000278594
-0.00768125
-0.000187689
4.47016e-07
7.34524e-07
1.57221e-05
7.42775e-07
-2.91895e-05
4.33766e-07
0.000222252
-6.33477e-08
3.84454e-07
4.19288e-05
-0.000183633
2.03314e-05
5.89724e-05
0.000300519
-0.00351928
2.05302e-05
-5.07036e-07
-0.00857598
-0.0120416
0.000134987
1.09395e-07
-2.51544e-07
0.0226034
-0.00809535
0.000367693
8.77466e-06
0.0849548
-1.81959e-05
3.70895e-06
0.0336963
3.32316e-05
0.000648745
-0.0996087
1.27972e-07
5.81267e-05
-5.03851e-07
0.000182316
-0.457954
-0.0837926
-1.73213e-05
-0.306119
-2.89029e-07
1.34494e-07
-0.000362346
-0.00130624
0.000396465
-0.000325062
6.16653e-07
-0.139017
1.96902e-05
-0.000627917
-1.44077e-06
-0.000225192
-0.000142932
0.33467
0.0328358
0.00026293
0.000114371
7.97441e-05
4.7048e-08
0.00201506
5.57071e-05
3.64053e-05
-0.00390869
-1.01044e-06
0.000110538
0.344587
4.95782e-08
4.78093e-07
0.000134576
1.90171e-05
0.00318387
0.000164019
0.0277257
-3.12125e-07
2.71339e-07
-0.000337148
2.69722e-05
-0.00290676
-0.000131386
9.17514e-05
0.000155904
0.00326248
2.84608e-06
0.000219035
0.000624435
-3.39014e-08
-0.140566
-0.000336466
0.000347927
0.0232856
0.373449
0.000634287
-4.89166e-05
4.73533e-08
1.20704e-05
2.19673e-05
0.0208511
-0.00248519
-2.62487e-05
0.00507564
-0.0742397
0.0008561
1.61441e-05
2.97644e-05
-2.06661e-08
-8.01951e-08
-0.900733
-7.07763e-07
-3.02066e-08
1.18166e-07
-2.92743e-07
0.000128132
-7.64037e-08
0.0033951
-0.0640722
2.91627e-07
4.0475e-07
1.49156e-06
5.2486e-07
6.69402e-08
-1.10163e-05
3.71845e-07
-8.19809e-06
-0.000340082
0.000185627
0.000233855
0.00515083
0.0156148
0.000233147
0.0043796
0.000355782
0.000315353
8.26052e-08
2.67868e-07
8.54892e-08
-2.5804e-05
-0.000366032
-4.27187e-07
0.393038
0.0566212
-0.000312719
0.00380599
4.51026e-05
-0.00331507
-0.013008
-4.14106e-06
0.000564028
2.89979e-07
0.000418583
-9.6929e-07
2.95937e-07
0.000349794
2.39962e-06
3.0494e-05
-5.2392e-07
0.000443175
1.01206e-05
8.17628e-06
-0.000486989
3.57356e-05
-4.95347e-07
-0.119476
0.0321997
-1.97507e-05
6.54781e-05
-0.0478151
-1.10477e-07
-0.0653255
8.81253e-05
0.00217509
7.77566e-05
0.00856528
-0.216937
0.00338619
-2.37661e-05
-6.6493e-07
0.00244584
3.91788e-07
-1.93809e-05
0.0215518
1.66807e-06
2.91106e-05
-1.23562e-06
6.3263e-05
3.5689e-07
1.33561e-06
3.73206e-07
0.0184222
-0.00170435
-1.24784e-07
0.0203153
-8.41153e-06
-0.00314861
0.00213065
0.000326854
0.00250575
0.000382022
-0.000216536
-0.000148348
-0.000131665
0.00121564
0.000579409
-0.0640768
9.80968e-08
-0.000220593
-0.0547071
-0.128858
-1.00804e-06
-1.0187e-07
0.0295615
-2.87003e-06
0.351617
5.52448e-07
0.300142
-0.000319811
-0.490428
-3.1546e-07
-0.0900743
9.43503e-07
-1.98635e-05
-0.449167
-3.56716e-07
0.000443948
-0.00491383
-0.0590015
9.93208e-07
5.07229e-07
-0.000303421
-0.043668
-9.39274e-08
0.165423
-1.35708e-05
-7.78797e-06
5.17488e-07
0.0717245
-0.000324103
1.46737e-05
2.71114e-06
-2.95976e-07
-3.96554e-07
-0.0939096
-5.71309e-07
2.4296e-05
1.74793e-07
-0.00116981
0.0253132
0.101168
-4.81436e-07
-0.00027577
0.00266626
0.111236
2.46656e-06
-0.0239155
-2.08895e-05
-0.00080037
0.0235325
6.80061e-07
2.85136e-07
-1.34845e-06
5.31817e-07
9.01831e-05
-2.95669e-07
-0.000279729
0.00757344
-0.000612581
-1.31383e-06
-0.11174
-0.342558
1.9116e-05
5.67894e-07
2.11907e-06
3.59732e-06
-2.96329e-05
0.00289661
0.513502
-0.00041726
-0.000852145
-0.000134114
2.29382e-05
0.000789912
0.0288404
0.0431931
0.0213601
0.0124079
-3.18523e-05
-0.0325157
-3.06547e-08
-0.252816
0.0188046
-1.26227e-06
-0.0504035
7.54956e-06
0.00017008
-0.0269246
-1.31657e-05
4.26621e-05
-6.90118e-07
0.000362883
0.0392818
0.000162412
0.014336
-0.00297395
-0.000347907
5.40498e-05
-1.52928e-07
0.000172526
-2.37805e-06
0.00898762
7.86755e-06
0.26203
3.13261e-07
0.0343168
0.00400307
-2.5905e-07
1.01651e-07
-0.0810102
0.000855745
0.000115149
0.0001202
1.03537e-07
-7.58317e-07
-1.53739e-07
3.06844e-05
2.53684e-05
2.16205e-07
-4.31585e-06
4.43428e-05
0.00421007
-6.45916e-07
0.000160647
3.87941e-05
0.0102988
-3.99307e-07
-0.000105436
0.000362954
4.48568e-08
-0.0632318
0.0149104
8.89061e-09
7.16662e-05
-1.90414e-07
-5.80644e-05
0.00387498
2.25405e-06
-0.000360658
0.00119344
-0.0085176
0.00113123
0.00929794
2.67785e-07
-0.0687135
-9.85826e-08
-6.32123e-05
0.359641
-4.16182e-08
-3.99499e-06
0.00103934
-3.55281e-06
0.000924206
3.96011e-07
-0.611215
-0.0733407
-1.62329e-05
-2.2375e-07
1.92309e-05
0.00120946
-0.00020723
0.00664764
0.000228976
1.80739e-05
1.26109e-05
0.00303521
0.00354251
-3.23203e-07
0.0198685
0.000113208
0.253635
0.229378
2.22863e-06
-2.68203e-05
-4.61822e-07
1.73982e-06
0.000177889
0.00012503
2.94276e-05
2.13058e-07
2.19611e-06
5.73012e-07
0.0397049
0.257263
0.000320443
-0.000774415
8.14221e-05
-0.000702242
1.25043e-05
-9.43512e-07
0.000111951
3.90166e-05
-1.04151e-05
-0.000103829
-1.62819e-06
0.00019138
4.62175e-07
-0.0182538
-0.496585
-4.25342e-06
0.00458809
4.65496e-05
1.46485e-07
-3.50208e-05
0.00449121
3.10285e-05
-6.42146e-07
0.0940512
-0.00343814
0.00371116
0.00053012
-0.0806973
0.00456315
0.00139875
0.0955854
2.24426e-06
2.88742e-06
0.0040906
1.83836e-07
0.0396866
-2.73873e-05
0.0181173
-8.61377e-09
-2.28289e-07
-0.209231
1.8168e-05
-5.3796e-05
2.01915e-06
0.000612129
-5.87955e-07
0.000186096
-1.99167e-07
-6.53685e-08
0.0154947
-0.00230679
0.0283758
2.25917e-05
-4.36071e-06
0.0339739
0.000174366
1.21272e-06
-0.127806
-0.0068597
0.046877
0.00378734
0.000172227
2.89837e-05
-9.27524e-07
-6.32398e-06
-0.0392814
3.03908e-07
0.0176308
-0.0509337
-0.0202579
0.0251525
0.000244593
2.38742e-08
6.44237e-08
0.019298
2.63861e-08
8.25856e-05
1.9039e-05
-2.34304e-07
1.02552e-07
0.00405691
-0.000401291
-0.00327745
0.00198609
0.000190683
-1.18551e-06
-1.36603e-06
-2.89524e-05
-2.40603e-07
-0.237862
0.0208025
0.00537612
1.61002e-05
-0.391445
-2.83312e-05
2.94069e-08
6.15638e-06
-0.235079
-0.225622
1.29367e-07
0.000283289
9.16858e-06
6.61581e-07
0.0872633
0.00015712
2.64383e-06
-0.401556
6.95251e-08
0.00111666
9.12643e-06
4.1869e-05
9.36318e-06
6.75292e-07
-5.5859e-07
0.000613962
0.015279
-0.0576755
1.07551e-05
3.5023e-05
-5.78141e-07
-3.36616e-07
2.33144e-05
2.33018e-05
-4.27058e-09
5.40961e-05
0.0328163
-0.00754212
-8.4659e-05
4.17344e-07
-2.68327e-07
0.0989401
2.19949e-06
-3.44944e-07
0.000218277
-0.541259
-4.67209e-05
0.0641298
-2.04554e-06
0.0254065
-2.60567e-05
0.00305831
0.0285224
8.95708e-08
-2.02607e-07
1.77112e-05
-1.11705e-06
-1.79009e-06
-0.00270506
-6.71412e-07
-3.29493e-07
0.00746647
-3.45927e-07
0.0455324
1.30757e-08
-5.23333e-07
5.01095e-06
1.01714e-05
-0.00180071
0.000163208
-0.145583
1.67989e-05
-2.01861e-07
-2.41174e-07
0.000433267
-1.10992e-06
-3.53599e-08
-0.460393
9.75453e-05
-0.0128404
1.8928e-06
-0.00764476
3.5105e-06
-4.65949e-07
0.000447316
5.16447e-05
-0.00371043
-0.111412
-8.93593e-06
5.68722e-07
-7.22204e-06
-0.000400086
2.95136e-06
0.000901831
1.37872e-06
-0.0155364
5.82089e-07
2.90014e-06
2.41526e-05
1.15869e-06
-0.00143836
-0.185888
0.00878953
0.0420002
1.91527e-05
0.00630727
6.81458e-07
-0.454137
0.0444137
1.77636e-05
-6.23168e-07
2.74448e-05
-1.73553e-07
-1.48457e-06
-1.66816e-07
2.51231e-05
-3.69612e-05
-1.22416e-07
-6.12981e-08
-1.37626e-07
-0.317332
-0.45273
-8.8097e-07
4.31742e-05
-1.36437e-07
-0.000130158
2.34475e-07
0.0124297
-1.72482e-06
3.50088e-05
9.68153e-09
7.95433e-05
-0.0397206
-0.0354859
4.88086e-06
1.80644e-06
0.000527768
-1.18911e-07
0.031356
-0.000351352
-8.38921e-08
-0.413115
-0.00065115
2.8733e-07
3.32115e-05
-4.68653e-06
1.71727e-07
-0.00194849
-0.00024925
-0.150418
8.35394e-07
-0.000335401
0.0239755
-1.70754e-06
-1.96859e-06
3.2413e-05
3.20907e-07
8.41685e-08
2.1707e-05
-1.37873e-05
-7.30773e-07
-2.037e-06
2.86106e-07
-0.0042493
-9.70084e-07
7.26942e-07
-0.00474343
-0.000242177
9.72537e-05
6.05669e-05
-0.216176
6.33946e-06
0.000217133
0.00373811
2.03216e-05
0.0651768
-1.35377e-08
-0.000193149
1.33334e-06
-0.000885362
-0.00191906
-0.00694899
-0.013132
-1.83639e-07
-0.00695776
-0.00109332
-3.78558e-06
-1.13383e-06
-3.51614e-07
-1.4509e-06
9.4829e-05
-0.000125345
7.0904e-06
-3.19558e-07
-1.20261e-07
-0.149574
0.00016492
0.0138943
-4.15849e-07
0.000353988
-0.144017
-2.83117e-08
0.000745616
-2.94118e-07
7.25852e-08
-8.42894e-06
3.48229e-05
-0.00481129
0.409855
2.22174e-08
-3.4518e-06
3.99706e-06
-0.00255874
3.58476e-09
-3.97169e-05
-0.000211634
9.75064e-06
-0.00325088
9.89383e-08
-2.55802e-06
-1.31638e-05
-0.000475408
-0.27678
-0.575158
-6.44509e-07
-0.089658
3.52084e-05
-3.59054e-06
1.51568e-07
0.00110711
1.56764e-05
0.0201046
5.82817e-07
-2.46649e-06
7.68339e-06
1.87275e-06
9.09275e-06
1.07435e-07
-1.58559e-07
-5.90502e-06
3.73678e-06
-0.00240677
9.70736e-07
5.30231e-07
-2.64416e-06
2.26068e-06
-0.00069845
6.92264e-06
0.000211398
-1.06901e-07
-2.94243e-08
0.342149
3.66157e-06
3.15139e-05
-1.09621e-09
3.06671e-07
-4.07602e-06
0.000140944
0.00104307
0.000116811
-2.04717e-05
-1.32634e-07
0.000910104
-1.5151e-06
0.000918579
0.00521471
2.95651e-05
6.06434e-07
-3.2068e-07
-4.95642e-05
4.71375e-05
-6.86156e-05
-1.31097e-07
2.43624e-07
-2.57205e-06
2.80363e-05
3.95592e-07
-2.18781e-05
5.44371e-07
4.28066e-05
-0.198692
-0.00216092
-0.000796931
-8.53793e-07
-1.97665e-07
-0.00177146
2.32344e-06
-0.000173092
-1.00325e-07
-0.33206
-0.506166
4.8008e-07
5.73039e-05
-1.16266e-05
-0.00269808
1.64891e-07
0.00138915
-0.000266894
-0.00380611
1.33522e-06
5.37563e-07
-1.11648e-06
-1.66089e-07
3.9243e-07
2.0633e-07
-3.64014e-08
6.31345e-07
-0.00164173
7.17454e-05
-2.42939e-05
3.14903e-05
1.78927e-05
8.44927e-05
-2.16363e-05
1.06065e-05
8.03145e-05
2.38671e-06
-0.107533
0.000248729
-4.93636e-05
6.40466e-07
2.87415e-07
0.000153054
0.167366
-8.318e-06
2.14969e-06
3.13183e-05
-1.4534e-06
9.38886e-07
-6.84019e-05
4.28781e-05
4.04215e-07
0.000156168
-1.98196e-06
-4.7065e-06
-0.0500076
-1.03971e-06
-6.39931e-05
-0.000373117
1.10412e-05
-0.392279
-2.56509e-07
2.35504e-05
-1.28693e-05
-0.0598138
1.23689e-05
-1.33636e-07
0.0461407
-1.25133e-07
-5.42625e-06
2.92498e-07
5.38788e-07
3.75609e-07
0.00223457
0.130111
0.000227427
1.55511e-05
-1.34362e-07
-7.12179e-05
1.24222e-05
-0.166731
5.82078e-07
-0.000163442
2.48001e-05
0.0283586
-1.14836e-07
0.000258608
-8.14421e-07
0.211613
-2.00454e-06
2.87674e-06
-0.00191257
4.25019e-07
1.37372e-07
0.0398323
-1.74704e-06
-9.65378e-07
1.68907e-05
0.00182849
3.79076e-05
0.000238266
0.00249832
-5.76349e-07
2.46043e-07
0.0472757
0.000167718
-2.59587e-07
1.17668e-06
4.73798e-07
0.022816
6.6076e-07
-3.93608e-07
1.17937e-07
2.46234e-07
3.11071e-08
-0.00654914
1.44032e-06
-0.000200336
1.78146e-05
-8.8155e-06
-0.193349
-5.157e-06
5.29054e-06
0.000289725
1.2798e-06
2.07031e-05
3.18711e-07
2.95988e-07
0.0430437
0.00587872
-3.81088e-07
-0.000104991
4.56322e-08
1.08886e-07
-9.20979e-06
7.9165e-06
4.25722e-05
-1.6108e-07
0.0208101
6.1523e-05
-9.44529e-07
0.199067
-0.0148428
-1.0253e-06
-1.72806e-06
0.00504322
0.000186601
2.59068e-05
-2.70527e-07
-2.83817e-05
-4.59595e-07
0.00920686
5.55533e-06
5.97104e-08
0.231867
-2.05996e-06
-2.34245e-06
2.34152e-05
1.6901e-05
7.48391e-06
-0.175248
0.00125062
2.97e-07
-2.2779e-06
3.63133e-07
7.26234e-05
3.93319e-07
-1.09607e-06
0.0275341
0.000145691
-1.30816e-07
0.00117262
-0.165208
-0.000696021
-0.0985485
3.96867e-08
7.55095e-06
6.06426e-05
-0.0327397
-0.234026
0.0114314
3.96085e-07
-4.17067e-06
-0.0517501
-0.055286
-4.52504e-06
6.46007e-07
5.15482e-08
-5.01335e-06
-7.25673e-07
-1.3498e-07
-4.21141e-08
-2.07127e-05
1.02747e-07
0.0213608
-0.0499667
1.96253e-07
-7.76022e-07
-2.38652e-06
1.41232e-07
-3.50027e-06
-4.64538e-05
1.13098e-05
0.000168493
2.95781e-06
0.0708194
-0.00050204
4.69058e-05
-5.61557e-05
0.000304675
7.96285e-08
0.28415
-0.000261968
-5.83457e-05
0.00045854
1.57122e-05
-0.00280776
2.26504e-09
0.156264
-6.69596e-07
8.29494e-05
-5.81553e-08
2.90419e-07
-0.167153
-2.34589e-05
-2.46864e-07
-0.147742
0.0043041
4.94857e-06
4.58049e-05
1.48766e-07
-0.000304003
0.0064374
-2.58154e-07
1.27564e-06
3.56487e-06
-9.9297e-07
-2.54737e-07
-3.97967e-07
0.325857
2.4415e-05
1.18555e-06
1.61356e-07
-6.75073e-08
2.30507e-06
-1.94162e-05
4.69665e-08
3.75376e-07
0.00195454
-1.30428e-05
1.18091e-06
7.09833e-06
1.64495e-07
-1.71612e-06
0.000292002
-6.29762e-08
0.000731018
0.0269646
5.75295e-07
0.025592
6.62486e-08
0.0171121
-8.46617e-07
0.000297943
-4.96203e-06
0.000481842
0.0297832
-0.000107126
-0.00160123
8.26217e-09
4.78152e-07
0.0064151
0.000409465
0.0337654
1.02132e-06
1.80397e-05
0.000106816
-2.47653e-07
-5.21649e-06
1.32234e-07
3.62468e-05
2.39536e-06
0.0497724
-0.000391131
1.67783e-05
3.31743e-07
-3.65009e-07
0.0235199
0.0417479
5.93721e-05
8.32467e-05
-0.00280713
3.81975e-07
1.59541e-07
5.54353e-07
0.121144
3.0298e-06
-5.84758e-05
2.00159e-07
2.68153e-07
1.75435e-05
-4.65863e-07
-0.466087
-2.17896e-05
5.07937e-07
1.98049e-07
7.70596e-05
1.75375e-07
0.414294
4.29629e-07
-1.76196e-06
2.03678e-07
4.79591e-07
-1.55349e-07
0.0119686
2.06333e-07
9.64449e-07
9.02486e-08
0.0109674
1.11095e-05
0.124731
-2.1221e-07
-0.295196
0.000134797
-1.24544e-05
3.93308e-07
0.00223747
-0.300371
0.000206962
9.71385e-08
-2.65369e-06
-7.88073e-07
1.43509e-07
3.16136e-06
-2.41793e-07
3.56259e-07
-6.88609e-07
-0.00149302
-9.44991e-06
0.000225591
7.48241e-09
3.25156e-05
-1.09726e-06
3.34878e-07
0.0131681
-9.89778e-07
0.000196159
3.43384e-05
6.91124e-05
5.69026e-05
-0.0443655
0.000118309
-8.75059e-08
0.0713131
-6.90641e-05
0.00883977
-0.155343
6.17164e-06
3.17749e-06
2.29568e-07
9.6416e-05
-3.32981e-07
-0.00241548
3.21072e-05
0.0113598
-2.59784e-07
7.72352e-07
0.0674515
8.34428e-05
2.98523e-05
0.0508294
7.43648e-05
0.0404623
1.88024e-06
0.00270194
3.42072e-07
-5.6249e-05
0.0143502
0.0510222
-3.48559e-06
-1.20312e-07
1.79164e-07
0.000215133
0.131615
4.81432e-05
-4.85067e-06
2.35281e-08
1.90106e-07
2.36454e-05
0.00395869
3.9829e-07
0.000632234
-3.89898e-07
-2.97934e-07
-0.000309895
5.05897e-05
-0.00192728
-5.00256e-07
1.32073e-05
0.213901
1.23253e-05
-1.77427e-06
0.0343682
-0.243759
-0.138507
-0.000183792
7.31696e-08
0.0154916
0.0479914
-2.05069e-06
-9.4344e-07
0.244208
4.00378e-07
-2.06952e-05
-4.47738e-07
-0.0136805
0.286271
-5.07817e-07
5.21911e-08
-0.00232022
-2.07129e-07
1.52243e-05
0.00413551
-1.70882e-07
-1.07682e-07
-3.56166e-07
0.00781716
3.74746e-07
-9.20362e-07
3.09403e-05
-6.72573e-05
2.30647e-05
-0.00272413
0.00723763
1.29673e-05
4.23899e-07
0.220756
9.24207e-06
-2.48196e-07
3.22404e-05
-0.141876
-2.96939e-07
2.43096e-05
-0.000324017
2.44009e-05
3.12602e-07
0.028174
1.6424e-05
2.29881e-07
-1.21341e-06
-0.000537734
-0.000485052
-1.67951e-07
-0.386589
-0.00223476
1.62743e-06
-2.30757e-07
-0.000156842
0.0175809
0.000142346
0.000237068
7.85551e-06
5.76232e-08
0.000274236
0.000147882
0.0714671
-6.48496e-05
7.72089e-07
1.4651e-06
2.61315e-06
7.8297e-08
-1.07579e-05
0.0002358
0.754665
5.42244e-07
3.44099e-08
1.46095e-05
4.83584e-05
-5.67646e-06
3.19375e-05
0.0127371
-1.52011e-06
-1.63732e-07
-1.71247e-05
4.10472e-07
2.255e-07
5.42743e-07
-2.02395e-05
1.64738e-05
2.71272e-07
-5.93354e-07
-0.00831097
-1.04063e-06
-0.0256209
-1.48999e-06
-7.17385e-07
-2.1468e-07
-4.62239e-07
-1.31097e-06
-0.00377553
-0.0913896
-5.95505e-07
-1.64866e-07
-0.000132523
-2.24415e-06
-4.33812e-07
-6.55543e-05
5.10072e-07
0.0109156
0.000257851
-0.00147008
-0.000145535
3.82334e-06
-0.019333
1.09953e-05
6.79598e-05
1.47355e-08
-0.000354949
-1.34584e-06
0.334867
6.98939e-08
0.352149
-1.48752e-07
-3.08737e-07
-0.000103166
1.18601e-07
0.407468
0.0411588
-0.000392442
4.12406e-07
4.7825e-06
-2.67046e-07
0.000537621
9.47051e-09
3.22271e-05
-3.66871e-06
9.15083e-05
3.23473e-07
0.000127847
0.0203984
1.6539e-06
3.1652e-05
2.57469e-05
1.16586e-05
-3.37218e-07
0.000196496
-1.6895e-07
-2.84538e-07
0.0315597
0.0212753
-2.14158e-07
-2.7395e-07
-1.66945e-07
0.353914
-3.55283e-06
-0.00120076
2.22385e-06
1.04394e-05
-2.30836e-07
-1.10272e-06
-0.000859505
-2.52898e-07
-1.75014e-05
-0.000481826
0.000519369
6.49836e-07
-0.00146741
4.62956e-05
0.000214357
0.846018
-2.12272e-07
-1.51091e-07
1.55348e-07
4.83893e-06
-5.42538e-06
2.80576e-05
2.36581e-05
0.00033893
3.58654e-07
-1.37262e-07
1.60449e-07
2.95033e-07
5.73347e-08
-8.95506e-08
-6.43565e-07
0.00373178
1.7881e-05
-0.0025815
0.00106149
0.197132
-2.03703e-07
-1.05069e-05
9.49607e-07
0.000254957
0.00935797
2.97004e-05
-5.13564e-07
3.93561e-06
0.706624
0.000191189
-0.00130445
0.0224266
0.0104387
1.69247e-05
-1.59378e-06
4.33365e-05
1.73675e-07
-1.31513e-07
6.22224e-05
-3.35041e-06
-0.000318117
8.60778e-08
9.28098e-08
0.00212902
0.0344475
3.98968e-06
-2.82157e-05
-2.08827e-07
0.000957699
-2.40711e-05
-1.69292e-05
-1.05578e-06
1.29476e-05
3.66006e-06
2.50572e-06
-1.08774e-06
-0.00288833
-2.10338e-07
9.15039e-05
1.25624e-05
2.75805e-07
0.00349503
-2.12792e-08
-4.11392e-05
1.14925e-05
-6.53694e-08
0.0111236
3.11509e-05
0.000215146
-4.14569e-07
-2.02928e-07
0.000433141
-0.0214185
-3.40554e-06
1.79192e-05
0.662471
3.40174e-07
-1.57637e-05
0.00539112
6.63685e-06
-2.36164e-08
0.00251708
-3.51483e-07
-0.00246932
-8.51857e-08
0.00827824
9.29831e-08
8.41839e-05
3.14438e-07
1.88368e-05
3.07472e-07
-4.90343e-06
0.00148464
9.41885e-05
0.004912
5.26887e-07
0.00448021
-0.00234827
-0.00517369
-3.9213e-06
-0.000743967
8.41936e-05
1.8755e-08
0.00665027
-4.08636e-08
-4.04419e-07
-5.14175e-05
2.69513e-06
3.50663e-08
-0.187495
0.0293671
0.000338654
-0.00263146
2.26954e-05
9.31982e-07
-1.29618e-06
0.00607844
6.05681e-07
-0.0960766
0.0177754
-1.98245e-07
1.29884e-05
0.000203217
3.98991e-06
-0.0500201
0.0206661
-1.76885e-07
-0.0212379
-5.0088e-08
1.24958e-05
-0.148637
-0.0178517
3.41766e-07
-3.76304e-07
-0.100701
0.0793155
-9.54686e-07
1.36083e-05
-0.000284519
2.1055e-07
-3.03486e-06
-3.90545e-05
0.00813196
-0.000488661
0.0495585
-6.4085e-06
5.37023e-07
0.42544
3.18496e-08
-0.0010511
-8.78118e-05
-7.82409e-08
0.0113855
-0.136732
-0.000698325
-9.9749e-07
6.41248e-07
-1.16969e-07
-0.0384144
-4.47335e-06
-0.000790801
0.00022079
2.32518e-07
1.1087e-05
0.000124196
-1.1323e-08
1.18882e-05
1.82268e-06
0.0010397
0.000341763
0.0038017
0.023132
-0.0108956
0.0732012
-1.07994e-06
4.03656e-05
-0.000711288
0.00014633
-0.000938419
-0.00093739
0.000211471
0.0265843
-0.00549786
0.000346428
-0.00247447
3.32122e-06
-1.44566e-07
0.000211942
0.00439662
2.77396e-07
-4.3994e-06
-0.000507751
-3.43246e-07
0.00353234
1.06812e-07
1.79015e-06
-0.0164023
0.0024313
4.91365e-06
-3.84651e-06
3.10035e-07
2.34346e-05
-2.1658e-06
-0.000197901
3.45507e-06
3.17431e-05
0.000403493
-0.000686786
4.04836e-06
5.81484e-05
-0.0680364
0.0202958
3.74914e-07
0.0084944
4.0296e-06
1.92729e-05
-1.89904e-07
4.03418e-06
4.30883e-07
0.000809631
5.98255e-06
-2.00342e-07
-0.000107306
4.83662e-07
3.38455e-07
0.0287681
-0.0703666
-0.000516944
8.86438e-05
5.06611e-07
0.000368571
2.69332e-06
1.20417e-05
0.034396
-0.129054
1.31021e-06
-2.42977e-07
0.0101591
-0.00948938
1.8063e-05
0.000106556
2.15433e-07
2.89557e-06
2.7534e-05
-0.15162
-4.71548e-07
1.70152e-07
-5.64444e-05
-0.143381
-0.00182748
3.04967e-07
0.00240899
0.000748994
-1.40865e-07
1.27591e-06
-0.000262431
-1.82594e-06
1.85731e-05
0.00288453
1.83195e-05
0.015885
0.000246254
-0.000322632
0.000891664
-5.15104e-05
4.20699e-05
-0.00206319
4.15494e-07
6.96739e-08
-3.34607e-06
3.58359e-07
-1.485e-07
5.39108e-06
-3.59899e-05
2.31605e-05
1.06747e-05
-1.4305e-07
-3.04251e-07
0.0151877
-0.000124808
-7.88733e-09
-4.89717e-05
-4.38129e-05
-0.172248
-3.52058e-06
0.0235826
0.000471578
-0.0660904
0.0195892
-0.000519397
4.29842e-07
-0.243554
-2.24592e-05
1.48343e-05
4.02416e-06
0.154687
0.000197159
0.00162829
9.25558e-08
-1.17096e-06
0.0269673
3.57395e-07
-2.09944e-05
0.000433176
-0.250476
-0.00050074
-0.000269098
-3.62972e-06
-9.03725e-07
-0.00666883
-1.84589e-06
6.24329e-05
-0.000142788
-1.04274e-06
0.00718458
7.11363e-06
1.28177e-05
3.88834e-07
0.00107896
-6.44925e-05
-6.04529e-06
0.0247787
-6.59382e-06
-0.0830124
-0.00453122
4.41352e-07
0.00030781
-0.219456
-0.0907453
-2.18417e-07
0.0154479
0.000834484
-1.14315e-06
-2.16658e-07
-0.000443366
-3.10466e-07
-0.00438055
0.000170153
2.66492e-08
-0.195093
4.18369e-07
0.416712
1.60663e-07
5.78454e-07
1.50007e-06
-3.02255e-06
0.000533244
0.017448
-0.0593198
1.79667e-08
-0.00490239
1.80675e-05
0.00020012
0.000270526
-2.52254e-05
5.32327e-08
-0.000161844
1.0928e-07
0.000270754
5.89818e-07
5.27309e-06
-2.29691e-05
1.16625e-07
1.2853e-05
-1.04498e-06
1.14428e-05
-0.0112451
2.96821e-07
-9.75363e-08
1.83053e-07
0.156388
-0.0273324
2.67104e-06
5.78668e-05
1.63056e-05
1.39584e-06
-0.00180175
-1.99283e-05
6.316e-06
1.18794e-05
6.07564e-06
-0.00135809
7.80104e-06
-0.182227
0.00101997
-0.00201008
0.019973
0.0169061
0.000157086
4.29914e-05
0.0173853
-0.0711959
-1.72858e-05
0.00956012
-1.76029e-07
0.000393805
0.031532
9.21313e-05
-0.00482764
-4.89563e-07
0.0100651
-0.00911889
-0.000496409
0.000617202
5.55201e-06
-0.000291392
1.56091e-06
1.34896e-06
7.76653e-05
1.19727e-05
0.000676717
-0.00033769
2.33403e-06
-8.79705e-09
-0.00027714
8.27899e-08
0.0333649
0.00998505
-1.88009e-06
-0.00144791
1.77794e-06
-4.14592e-05
-1.95035e-07
-9.95531e-06
6.87979e-05
-1.6053e-05
0.0259102
-3.78809e-06
-0.00254488
-0.00032113
4.25798e-08
-1.99579e-07
-0.000270696
5.53956e-05
-2.26504e-06
6.04674e-05
-8.96948e-07
-1.51702e-07
-3.40616e-06
-1.12814e-06
7.80309e-05
3.08917e-07
2.24956e-05
0.00020227
0.466535
1.07776e-08
0.0218295
6.9761e-07
0.0504697
2.11894e-07
-0.0724743
0.000260095
1.10765e-05
-0.0027752
-2.9552e-07
0.0217041
4.63943e-05
2.70595e-06
-0.0520691
1.46799e-07
-2.77528e-08
-0.000113319
-5.55692e-07
-3.86719e-05
1.13616e-05
-1.0086e-06
-0.00051744
-0.0575648
9.49914e-08
6.92291e-07
0.000493962
0.0249617
2.65403e-07
0.0180572
1.07342e-07
-8.08076e-08
7.28719e-05
-2.90935e-06
0.00295694
8.27759e-08
-0.00911629
-2.36672e-05
2.45583e-06
-0.00160137
-3.77771e-06
-1.30578e-07
3.0129e-07
-7.66456e-07
1.71092e-06
-1.51715e-08
1.50778e-05
0.0150233
-1.65426e-05
2.51339e-06
4.89533e-05
0.545646
-0.173485
0.0168228
-2.13399e-05
2.96582e-05
3.35427e-07
0.000150845
3.07421e-05
2.98353e-05
2.87175e-07
1.16104e-05
-1.11461e-07
1.54206e-07
-0.0117049
0.0252371
8.86446e-07
-4.98065e-07
1.64737e-07
-7.0506e-06
1.73926e-05
1.88113e-05
-0.00232008
0.0425246
-1.23936e-07
1.5583e-05
0.000197409
-1.13375e-06
2.73387e-05
0.00606667
-0.00915859
-0.000132578
0.000660982
3.13699e-07
0.233658
-4.17586e-08
5.82353e-07
1.08247e-07
-0.000361218
-0.000717797
6.86923e-07
0.000288293
6.97475e-07
-0.00197036
-0.410218
0.000136403
-9.98051e-08
-0.00498735
8.99351e-07
-3.33083e-06
-4.13715e-07
0.0210284
-0.00024539
-2.21017e-05
-3.56322e-07
-4.70766e-08
-0.0444215
2.23123e-07
-8.10923e-07
-1.1561e-06
-2.33008e-08
5.0902e-06
-2.13423e-06
6.09562e-07
-0.0598523
1.93439e-06
2.18814e-05
2.54155e-07
0.014229
-3.9688e-07
2.80155e-07
-1.8531e-06
-2.78307e-07
0.0147788
-0.00721847
1.70036e-07
4.8242e-05
0.042267
0.505128
4.00804e-07
8.08328e-05
-0.000153817
1.61816e-05
3.20485e-07
8.36572e-05
2.0836e-06
0.012155
-2.95626e-07
-2.83438e-05
0.00386651
-2.14915e-06
6.62248e-06
2.51062e-05
7.8333e-05
-0.000122768
-6.28795e-07
0.0243069
1.23478e-05
0.000231775
0.00265613
0.000273986
1.39283e-07
0.00975855
0.000145057
9.15864e-05
0.000272707
-0.00134243
1.93106e-05
-0.000345892
0.000501919
-3.8884e-07
-1.12821e-05
0.000181977
5.29881e-07
0.00244639
4.76784e-05
2.62346e-05
0.0398943
1.70434e-05
-4.18683e-07
-1.54091e-06
-6.91969e-06
-1.54903e-07
8.3821e-05
-1.25412e-06
7.7745e-05
0.24711
-6.51928e-05
1.11933e-05
9.99089e-05
0.00366282
4.71784e-07
3.46998e-08
6.74975e-06
4.24993e-07
2.70961e-06
-0.00382676
-0.000262651
1.35219e-07
2.45905e-07
9.13029e-07
-0.00524836
-3.46632e-07
-0.000465308
-2.83037e-05
6.30442e-05
1.18388e-05
-0.000139063
0.000560034
0.165324
-4.58811e-06
-0.000214902
7.36276e-07
-1.01356e-05
-3.18195e-06
2.10818e-05
-0.189466
3.5085e-07
1.50577e-06
3.49671e-05
2.34841e-06
1.92285e-05
-1.15291e-07
0.000145808
1.47109e-07
6.99126e-07
-9.09297e-05
6.17684e-06
-1.18908e-06
-0.0724566
0.0677161
2.85509e-05
1.89355e-07
4.44873e-05
4.39247e-07
-0.00124693
3.3661e-07
6.66865e-07
-8.95334e-06
5.89855e-06
9.02514e-06
2.36552e-06
0.000480506
3.59096e-05
-0.000173484
9.65323e-07
-7.21332e-07
0.000134645
0.0183203
1.87608e-05
0.000418361
0.182538
0.00247376
2.96248e-07
-9.61241e-05
2.28986e-05
-1.62681e-06
1.37478e-05
1.6714e-07
2.17163e-05
-2.04653e-08
5.65995e-06
-0.032924
0.0226106
0.00047919
0.000314611
-0.00335001
-1.33026e-06
1.2718e-05
2.41007e-07
0.000106546
0.00323153
1.41507e-05
0.100209
1.85631e-05
1.87481e-07
1.43577e-05
1.29448e-07
3.81672e-06
-1.20992e-07
2.06164e-05
9.70839e-06
-4.78988e-08
-7.12035e-06
-3.02507e-05
2.23612e-05
-0.131524
-0.110392
-1.64404e-06
1.91775e-06
1.12012e-06
-0.0012264
2.69022e-07
0.000123567
0.0178212
-6.38659e-07
-1.49664e-06
-0.00011252
3.08063e-07
-0.00135799
7.30235e-08
0.000104894
-8.95471e-05
1.08497e-05
0.0185018
3.08073e-06
1.83518e-06
-1.09709e-05