/*--------------------------------*- C++ -*----------------------------------*\
| =========                 |                                                 |
| \\      /  F ield         | OpenFOAM: The Open Source CFD Toolbox           |
|  \\    /   O peration     | Version:  v2012                                 |
|   \\  /    A nd           | Website:  www.openfoam.com                      |
|    \\/     M anipulation  |                                                 |
\*---------------------------------------------------------------------------*/
FoamFile
{
    version     2.0;
    format      ascii;
    class       surfaceScalarField;
    location    "400";
    object      ddtCorrDdt0(phi);
}
// * * * * * * * * * * * * * * * * * * * * * * * * * * * * * * * * * * * * * //

dimensions      [0 3 -2 0 0 0 0];
oriented        oriented;


internalField   nonuniform List<scalar> 
81438
(
0.002469
-0.0036382
0.0011692
-0.00225463
0.00360499
-0.00135036
0.00382792
-0.00135891
-4.22005e-05
-5.31199e-06
4.7511e-05
0.000511238
-0.000175558
-0.00033568
-0.00191325
-0.00172495
5.60843e-07
-6.55691e-06
5.99596e-06
-5.14991e-05
6.78187e-05
-1.63202e-05
-0.000468938
0.000222583
0.000246355
-1.78267e-05
-2.07361e-05
3.85629e-05
-7.73077e-06
5.2332e-06
2.49748e-06
0.000180308
9.77362e-07
-0.000181286
-2.0168e-06
1.38731e-06
6.29493e-07
6.22392e-06
-8.18271e-06
1.95884e-06
0.00295568
-0.00173845
-0.00121723
1.86419e-06
-3.13086e-06
1.26658e-06
-0.000269115
0.000189544
7.95715e-05
1.26408e-05
-8.12456e-06
-4.51628e-06
2.4415e-06
-5.77347e-07
0.000192063
-0.000114534
-7.75287e-05
-3.18408e-05
9.2476e-05
-6.0635e-05
-2.20157e-05
1.28501e-05
9.16558e-06
0.0043082
-0.00245834
-0.00184986
-1.62699e-05
3.11136e-05
-1.48437e-05
-7.58884e-06
-1.18039e-05
1.93926e-05
3.82834e-05
-3.88394e-06
-3.43995e-05
0.00999631
-0.00741575
-0.00258054
0.00145983
0.00149586
0.00150102
-0.000996887
-0.000504136
0.000295337
-0.000147148
-0.000148189
0.00332405
-0.000100393
-0.00322366
-0.00152181
-0.00373173
0.00525354
-1.46738e-07
9.06166e-07
-7.59424e-07
-0.00896839
0.004437
0.0045314
1.93567e-06
1.14463e-06
-3.08027e-06
-8.87719e-06
-1.80745e-05
2.69517e-05
-2.83921e-05
4.16072e-05
0.0116265
-0.00135271
-0.0102738
-0.00190929
0.00184445
6.48472e-05
0.0103696
-0.00388792
-0.0064817
-0.00392196
0.00418626
-0.000264289
9.58008e-06
-4.71509e-06
-4.865e-06
9.38951e-06
-1.03965e-05
1.007e-06
-7.41827e-06
-1.83334e-06
9.2515e-06
-8.24238e-07
-3.98905e-06
4.81339e-06
0.000128763
7.63901e-05
-0.000205154
-9.06311e-07
-5.75592e-06
6.66215e-06
0.012056
-0.00205972
0.00159592
0.0100306
-1.15741e-05
-1.04416e-05
-5.76227e-06
4.93809e-06
2.29018e-05
-1.30125e-05
-9.88932e-06
8.48533e-05
-7.78963e-05
-6.95693e-06
7.919e-06
-3.3387e-05
2.54681e-05
-5.01476e-05
3.89314e-05
1.12156e-05
-3.87913e-06
-3.8517e-06
-5.61264e-05
4.6272e-06
-4.31835e-06
-5.83078e-06
1.01488e-05
-0.00311807
-0.000626194
0.00374426
4.80476e-05
0.000262671
-0.000310719
-0.000250533
-0.00165876
1.31883e-05
-1.41383e-05
9.50014e-07
-3.89918e-05
1.35615e-05
2.54304e-05
-1.44583e-05
1.45364e-05
-7.81692e-08
2.69116e-05
0.000139602
-0.000166514
0.0100719
0.00029771
-1.89052e-07
-6.49951e-06
6.68855e-06
-0.00043668
-6.14547e-05
0.000498135
4.52011e-06
1.83816e-05
5.13887e-06
-4.57806e-06
-0.000221816
6.75977e-05
0.000154219
6.27717e-06
-9.16044e-06
2.88318e-06
3.3087e-05
-2.51681e-05
-6.73826e-07
5.27087e-07
1.78215e-06
-2.02083e-06
2.38653e-07
-7.22993e-06
6.32357e-06
-0.00394932
-0.0109321
0.0148815
-4.21899e-06
-4.7251e-06
8.94398e-06
0.000941488
-0.00486345
-4.66498e-05
2.58906e-05
2.07592e-05
1.26607e-05
-2.89306e-05
-1.02185e-05
1.38815e-05
-3.66301e-06
-5.23078e-05
-0.000169509
0.000551152
-0.000436164
-0.000114988
7.74798e-06
-9.78174e-06
2.03368e-06
-7.0327e-07
6.2158e-07
8.16394e-08
-8.47634e-06
-0.000101181
0.000109657
-8.89193e-05
5.70784e-05
2.36143e-06
-3.06471e-06
-0.000137781
0.000100357
3.74236e-05
2.76222e-06
2.20145e-06
-4.96361e-06
1.69283e-05
-2.58055e-05
6.86587e-05
-0.000325621
0.000256965
-1.44492e-05
4.23071e-06
-0.00672792
0.0167575
-0.0100296
-3.14835e-05
5.0029e-05
-1.85457e-05
0.000187069
-0.000257351
7.02821e-05
-1.30755e-05
-1.6883e-05
2.99583e-05
1.01789e-05
-7.8946e-07
1.03142e-07
-1.68836e-06
1.58511e-06
0.0058245
0.00168422
-0.00750875
0.000189523
-0.000105501
-8.40218e-05
-1.27006e-06
-0.000152398
-4.41629e-06
0.000156814
0.00429569
-0.00318721
-0.00110849
-0.0011413
0.000353747
0.000787549
8.68404e-06
-2.40689e-06
5.10667e-05
-2.00808e-05
-3.09856e-05
-4.07544e-07
8.07544e-07
-3.99987e-07
-3.25219e-06
1.10058e-05
-7.75357e-06
4.84442e-06
-5.81142e-06
9.66965e-07
4.29517e-06
-8.51415e-06
-0.000171699
-2.40781e-05
0.000195777
3.86465e-05
0.000579482
-0.000618128
0.0103429
0.00171312
-5.17082e-06
-1.95019e-06
7.1212e-06
4.00293e-06
8.63778e-06
0.000175684
1.80209e-05
-0.000193705
0.0012002
0.00309549
0.00416387
0.00166063
1.69825e-05
-3.71236e-05
2.01411e-05
0.000169786
-0.000133774
-3.60116e-05
4.37451e-05
-5.46178e-06
0.00203225
0.00043266
-0.0024649
3.19636e-05
1.42984e-05
-4.62621e-05
-0.000262499
9.2624e-05
0.000169875
-3.87381e-06
-4.65755e-06
8.53122e-06
0.000304858
-0.000332293
2.74335e-05
-0.000471448
3.47674e-05
-1.36386e-06
-1.12965e-05
1.26605e-05
-2.34695e-08
6.98019e-06
-6.95685e-06
-8.74711e-05
0.000102142
-1.46713e-05
8.98691e-07
2.86389e-06
-3.76272e-06
0.000266812
-0.000331693
6.48815e-05
1.20009e-06
-8.61846e-06
-1.41278e-06
3.34844e-06
-3.49932e-05
-1.35731e-05
4.85662e-05
-0.000933429
-0.000207867
-1.9426e-05
5.13895e-05
0.0096804
-0.026172
0.0164916
8.94808e-07
-6.06555e-06
-2.892e-05
-0.000184858
0.000213778
-3.24065e-06
9.06168e-06
-5.821e-06
8.11431e-05
-0.000159697
7.8554e-05
9.21503e-06
-1.46706e-06
0.000281282
-1.44698e-05
6.28709e-05
-4.07544e-05
-2.21166e-05
3.19226e-05
-2.98492e-06
-2.89377e-05
5.43973e-06
-8.69191e-06
-0.00010976
-0.000159356
0.000267066
-9.55321e-05
-0.000171534
-0.00469327
0.000358334
0.00433493
1.13273e-05
-5.98582e-06
-5.34143e-06
-5.50081e-06
5.58337e-06
-8.25913e-08
3.1321e-05
-1.34944e-05
-1.78266e-05
0.000109795
-0.000118272
-4.40324e-05
-9.37479e-05
0.0131413
-0.00279842
-0.00219947
0.00326203
-0.00106256
1.47555e-05
-2.78309e-05
-0.000468375
-0.00122596
0.00169434
-2.52551e-05
5.58825e-05
-3.06269e-05
0.000176455
0.000374695
1.19334e-06
2.67128e-06
-3.86463e-06
0.000120033
7.20293e-05
-2.08985e-06
1.03286e-05
-8.23886e-06
4.00235e-05
0.000135661
-1.92536e-06
-1.77357e-06
3.69899e-06
1.0283e-05
-1.07227e-06
-9.21053e-06
-1.37717e-06
6.22155e-06
0.00169793
-0.000485219
-0.00121271
7.0763e-06
-8.86107e-06
1.78488e-06
9.02857e-05
0.000176781
7.02982e-05
3.13791e-05
-0.000101678
-7.06438e-06
7.04134e-06
6.11149e-06
-9.35213e-06
-0.000171708
0.000116011
5.56974e-05
0.000270724
-0.000150804
-0.00011992
-8.33076e-05
0.00016445
-3.33067e-06
4.524e-06
-1.28867e-06
-1.52053e-06
2.80909e-06
0.000439673
-0.000187194
-0.00025248
-0.000337308
0.000550197
-0.000212887
0.000188786
-0.00107936
0.000890573
-0.002591
0.000391532
1.19958e-06
2.6407e-08
-1.22599e-06
-0.006744
-0.00147416
0.00821817
-8.18531e-07
-1.08653e-05
1.16839e-05
0.000297838
-0.000110769
-8.76561e-07
-1.14024e-06
-0.00142672
-0.021885
0.0233117
-0.000135024
-1.73739e-05
3.90653e-06
5.67349e-06
-0.00295435
-0.00420227
-3.37821e-05
-6.06712e-05
9.44535e-05
6.40514e-06
-1.07235e-05
-8.62242e-06
5.74558e-06
2.87683e-06
0.000170066
-0.000116776
-5.32909e-05
1.96879e-05
8.16915e-05
-0.000101379
0.000266903
0.00017277
-0.00050465
0.00153647
-0.00103182
-0.000798565
0.00225839
-9.42433e-08
-8.42527e-06
8.51948e-06
-3.025e-05
-1.96398e-05
4.98896e-05
3.4032e-05
0.000180814
-0.000214845
4.04808e-05
1.427e-05
-5.47507e-05
8.28296e-05
6.04645e-05
-0.000143294
1.99044e-05
-5.01543e-05
7.65493e-06
-7.69384e-06
3.88593e-08
0.000799785
-0.00754377
8.0482e-06
-3.42376e-06
-4.62437e-06
0.000207948
-2.76404e-05
-4.17102e-05
-3.08466e-05
7.25559e-05
-0.00511294
0.000419661
2.21835e-06
5.39547e-07
-2.75787e-06
-0.000136186
0.000217859
-8.16723e-05
5.15429e-06
1.54509e-05
-2.06052e-05
0.00106242
0.00276549
8.58154e-07
-1.37678e-06
5.18632e-07
2.97698e-06
-7.58638e-07
-2.88194e-05
0.000111649
0.00108829
0.00060964
6.7269e-06
1.95709e-06
0.00194093
-9.64819e-05
-0.00628134
-0.00518908
4.30441e-05
9.50243e-05
-0.000138068
-1.05511e-05
-7.69201e-05
0.0017325
-0.000678061
-0.00105444
-0.000452392
-0.000275845
0.000728237
-0.000378578
-9.28699e-05
0.00806083
-0.000612733
-0.0074481
-8.26021e-07
4.18483e-07
9.03861e-06
9.42581e-06
-1.84644e-05
8.74244e-05
5.05166e-06
1.84609e-05
-3.62873e-05
-6.25533e-07
1.09086e-05
5.47792e-05
-0.00824282
7.6415e-05
-0.000110197
8.57453e-07
-6.08106e-06
5.2236e-06
1.56426e-06
-7.06097e-07
6.27027e-06
-8.9453e-06
2.67501e-06
9.08821e-06
-1.05183e-05
1.43007e-06
8.78247e-07
6.85967e-07
-6.8533e-06
-4.32944e-05
7.9554e-06
7.68747e-07
-8.72412e-06
-0.000144025
6.59949e-06
0.000137428
-0.00743546
-0.00132643
0.00876191
0.000372293
3.41319e-06
-0.000375706
1.34744e-05
-2.10633e-05
-0.00013253
3.34243e-05
9.9106e-05
1.02078e-06
1.788e-07
1.8295e-05
3.27724e-05
-3.38768e-06
3.17215e-06
2.15536e-07
-0.0121687
-0.00130694
0.0134756
7.25224e-06
-1.02837e-06
0.00110718
0.00631357
-0.00742074
0.00122785
2.84912e-05
0.000101352
-0.000129843
-1.50154e-06
9.26738e-06
-7.76579e-06
2.72786e-05
-1.43929e-05
-1.28854e-05
-2.20614e-06
1.31161e-06
8.94493e-07
-1.30401e-06
-0.000117664
0.000118968
-0.0139654
0.0110468
0.00291866
-0.00431997
0.000396989
0.00392299
0.000448277
6.33389e-06
-0.000454611
-4.70601e-07
0.000269266
-0.000352404
8.31384e-05
-1.49467e-05
6.08633e-07
1.43381e-05
1.02439e-06
-1.25923e-06
2.34843e-07
-0.00121193
0.000520198
0.000691738
0.00156534
-0.0090008
8.74632e-06
-2.01939e-06
-0.00027457
0.000247593
2.69619e-05
-5.01153e-05
-8.24145e-05
-0.00625445
0.00243112
0.00382333
4.46016e-06
6.86709e-06
3.92461e-06
4.12371e-06
9.94652e-05
-8.16747e-05
-1.77903e-05
1.41526e-07
-1.16546e-05
1.15128e-05
-7.91251e-06
6.41095e-06
-2.52564e-05
-0.000324854
0.000350111
0.000347641
2.46522e-05
-1.97938e-05
-3.12288e-05
5.1022e-05
0.000200673
-0.000118016
-8.26572e-05
-0.0047814
-0.000201821
0.00498323
5.65727e-05
-3.1084e-05
-2.54891e-05
-0.000292681
7.31459e-06
0.000285366
-0.000137988
7.56796e-05
6.23089e-05
-1.23786e-05
6.39271e-06
0.000290457
-0.000242409
0.00894992
-0.0211186
0.00144429
-0.000414279
-0.00103001
0.000200936
0.000227187
-0.000428122
-9.43358e-05
0.000374001
-0.000279664
1.00017e-05
-8.21867e-06
-1.78304e-06
0.00100571
-0.00275361
0.00174791
7.6011e-06
-1.1475e-05
-0.000261831
-3.08508e-05
-0.00166912
0.00610035
-0.00443124
0.000222926
-0.000124165
-9.87609e-05
-0.00026646
1.24424e-06
0.000265215
0.00149748
0.000839728
-0.00233721
0.000992599
-0.00531257
0.000667387
-0.000170286
-0.000497099
-6.61415e-05
-7.18461e-05
1.00293e-05
-0.000154054
-0.000133953
1.41251e-05
0.000119826
0.00380418
-0.0032935
-0.000510687
0.000377391
6.07923e-05
2.4061e-05
-0.00475543
-2.59689e-05
0.000369612
-0.000100347
0.000193384
-7.15895e-05
-0.000121795
-0.000177202
7.93341e-05
9.7868e-05
8.46494e-05
0.0010555
-0.00114015
0.000103154
9.75175e-05
0.000100229
-2.52097e-05
-7.50195e-05
0.000142186
-4.12197e-05
-0.000100967
1.05664e-05
-1.13849e-05
-0.000554682
0.000217379
2.00273e-05
-4.3286e-05
2.32589e-05
-8.07069e-06
9.61872e-06
-1.54805e-06
0.00139832
-0.00131367
-1.67024e-08
7.9721e-06
0.0198036
-0.00563203
-0.0141715
6.38857e-07
1.84311e-05
-1.90702e-05
-0.00359098
0.00458358
1.31353e-06
-1.84647e-07
-1.12887e-06
0.000103063
1.7002e-05
-0.000120065
-0.000248812
-2.5768e-05
-2.64822e-06
1.3595e-06
-0.00497771
0.00330859
0.00122015
-0.0031334
-2.84701e-05
-1.81798e-05
-9.29713e-06
9.902e-06
-6.04863e-07
-0.000104115
-2.75525e-05
0.000131668
0.00179078
-0.005345
0.00355422
-0.000254172
0.000278109
-2.39369e-05
-2.37744e-05
-8.6271e-06
3.24015e-05
0.000299456
-0.000751848
-0.00121153
0.0255082
-0.0242967
-7.29549e-05
4.25821e-06
-2.80326e-05
2.98944e-06
-5.38576e-06
2.39628e-06
6.84105e-05
0.000101122
-0.000169533
2.15095e-08
1.05449e-05
0.00286706
-0.00645804
6.05704e-06
0.000298799
5.61776e-06
-6.46224e-07
-4.97155e-06
0.00240967
-0.01051
0.00810034
5.11589e-06
-1.85394e-06
-3.26194e-06
-0.0024955
0.00690247
-0.00440696
2.69673e-05
-1.22118e-05
0.00124428
0.000437539
1.0738e-05
0.000245305
-2.42981e-05
-0.000221007
-0.000124474
0.000134503
0.00128458
0.000159708
0.00148118
-0.00165295
0.000171771
0.00482406
0.00127301
-0.00609707
-0.00102161
0.00251908
-0.000147553
1.36006e-05
3.53937e-06
-1.73297e-05
1.37903e-05
0.00427568
-0.0024849
4.58593e-05
-2.58319e-05
-0.000533749
0.000492164
4.15845e-05
3.42033e-06
3.89127e-07
-3.80945e-06
-5.73996e-06
1.01754e-05
-4.43555e-06
-2.88007e-05
0.000696189
0.000201686
-0.000161662
-0.00120522
-0.00621052
-0.000838026
0.00566209
0.000955483
-0.00130097
0.000345482
1.72935e-05
-1.66547e-05
9.06687e-05
0.000132258
0.000448748
-0.000159919
-0.00028883
3.20337e-05
-1.10975e-07
-0.00012166
-5.55424e-05
-0.0200772
0.00753489
0.0125423
-0.000148001
0.000109324
3.86768e-05
0.000981504
-0.000157335
-0.000824169
-0.000416117
0.000401177
1.49401e-05
-8.46262e-05
-0.000181833
0.00434234
-0.00586415
2.61703e-05
-6.7881e-05
5.28269e-05
-3.29226e-05
-1.50522e-05
-0.000208931
0.000223984
0.000151383
1.81556e-05
-0.000169539
-3.23446e-06
-2.26636e-06
-0.00023375
-2.80802e-05
-0.00117188
0.00155332
-0.000381435
-0.00403447
0.00530747
0.00124148
-0.000472082
-0.000769395
3.91127e-06
-3.01256e-06
1.07417e-05
2.15346e-06
-1.28951e-05
-4.11197e-05
1.27275e-05
1.46849e-05
-3.94319e-06
-0.000766382
0.000485992
0.00028039
3.91919e-05
-0.000272942
0.0010074
-5.64263e-06
1.98e-06
3.66256e-06
9.94387e-06
-1.51151e-05
5.17125e-06
5.51293e-06
-4.05064e-05
0.000265002
0.000976473
4.67298e-05
-3.36326e-05
5.69994e-05
8.51866e-05
-0.000717716
0.000965548
-0.000247833
0.000215464
0.00808158
-0.00829704
-6.11366e-05
0.000597935
-0.000536799
-7.77599e-06
1.04043e-05
-2.6285e-06
0.00741657
-0.0072011
8.66635e-05
-0.000209627
1.86636e-05
-0.000862547
0.000843884
-2.10314e-06
1.71877e-06
3.84404e-07
1.24857e-06
-6.63823e-09
-1.24196e-06
2.0535e-05
-0.000192234
0.00209299
-0.00108729
-0.000124467
2.0352e-05
0.00193147
-0.000747768
-0.0011837
0.000199805
-1.13104e-05
2.8293e-05
0.000147134
-0.000820306
0.000673177
-0.000528967
-0.000209227
0.000738193
0.00139075
-0.00261735
0.0012266
-1.58341e-05
-0.000175525
0.000191359
-1.45729e-06
-7.19938e-06
8.65667e-06
0.00105562
-0.000100136
2.22563e-06
0.00077862
0.000202884
0.0045169
0.00568542
-0.0102023
-5.50752e-05
-0.000140174
0.000134084
6.76013e-05
-0.00627327
0.00543525
1.19892e-06
-1.52086e-06
3.21914e-07
-8.0884e-06
5.49753e-06
2.59076e-06
-0.000386036
0.00186327
-0.00147723
-0.000188555
2.78645e-05
0.00016069
0.00184202
-0.00166065
-0.000181371
5.34252e-05
2.84452e-05
-8.18692e-05
-3.40204e-06
9.18978e-06
-5.78741e-06
-0.0112868
-0.00368965
0.0149764
-9.9374e-06
3.9211e-05
-2.92738e-05
4.51851e-05
-0.000169659
-0.000442703
0.00053095
-8.8246e-05
0.00128659
-0.00167262
0.00089382
-0.000415033
-0.000478788
-9.17756e-05
-2.46203e-05
0.000116396
0.000165738
-0.000133694
-3.20441e-05
0.00139917
0.000442846
-0.00116898
-0.000131991
-4.91309e-05
2.94909e-05
2.10168e-06
-1.01798e-06
-1.08372e-06
-0.0042475
0.00112943
0.000303477
0.000752141
0.000206823
-0.000735789
-0.000431158
-0.000780776
-3.52587e-05
3.56279e-05
-3.69242e-07
0.000207739
0.000327985
-0.000535724
6.93724e-06
-9.38227e-05
8.68854e-05
1.23607e-06
8.65565e-07
-7.84457e-06
7.7503e-06
-0.000448559
0.000656298
3.59414e-05
0.000121535
-0.000157477
-0.00485418
0.00503818
-0.000183997
3.31718e-05
6.62938e-05
-3.62814e-05
-0.000123416
7.55345e-07
6.18076e-06
-6.93611e-06
1.43242e-05
-8.21266e-06
9.17501e-05
-3.83249e-05
-0.000139597
-0.000223282
0.00036288
2.88267e-05
-0.000146643
0.000117817
0.000211507
0.000682312
-0.000516436
0.000798023
-0.000281587
-2.68642e-05
0.000178247
-4.7888e-06
0.000114584
1.06162e-05
1.6351e-05
5.19026e-05
5.32306e-05
-0.000105134
-0.00168287
0.00121449
9.72578e-06
-1.66202e-05
6.89476e-06
-0.00376544
-0.00248901
0.000737552
-0.000748044
1.04915e-05
-0.00188322
0.00252412
-0.0006409
-4.07804e-06
-0.00010187
0.000105948
-8.48384e-05
-0.00136286
-0.000265881
7.373e-05
0.000192151
-6.53869e-06
7.61428e-06
-1.0756e-06
-8.32789e-06
-0.000296883
0.000305211
3.34035e-05
1.33263e-05
-0.00029222
0.000141168
0.000151058
-0.00138572
-0.000884597
0.00227031
-0.000154909
3.44525e-05
0.000120456
0.000183507
-0.000208018
2.4511e-05
0.00103811
5.01799e-05
-0.00152145
-0.0010959
-0.000161133
-0.000188334
0.000349467
-0.000625095
0.000563959
-7.51575e-06
6.82884e-06
6.86952e-07
3.62509e-06
-2.04772e-07
0.00710776
-0.00505695
-0.00205081
6.42783e-05
-3.34986e-05
-3.07796e-05
-5.99773e-07
-6.91598e-06
-1.66274e-06
1.92894e-06
-2.66178e-07
9.90852e-07
2.57709e-07
0.000308025
-0.00196038
0.00165236
-1.60396e-06
2.01962e-06
-4.15669e-07
-0.000128721
-0.00472546
-0.00719675
0.00972239
-0.00252561
-1.08557e-05
9.67703e-06
1.17862e-06
7.83474e-09
-5.51104e-06
5.50322e-06
-6.05032e-06
1.05105e-05
4.03383e-06
-7.9946e-06
3.96072e-06
6.14729e-06
-2.14186e-06
-4.00551e-06
0.000146784
-4.07856e-06
1.40224e-05
-0.000558114
0.000115412
0.000104444
-9.93813e-05
-5.06287e-06
-8.35226e-05
0.000113602
-3.00802e-05
-9.60982e-05
0.000212174
-2.86668e-05
-0.000173357
6.67701e-05
0.000106587
-8.38216e-05
0.000137052
0.00577529
-0.00541695
0.000187387
0.000323852
0.00223236
-0.00397081
6.25169e-06
-6.44072e-06
7.66767e-06
-9.03136e-06
7.31741e-06
-7.38556e-06
6.81134e-08
-0.000536991
0.000421051
0.00011594
8.18398e-05
2.26043e-05
-9.22077e-06
1.00206e-06
-1.94859e-05
-7.43368e-05
0.00125341
-0.00150736
0.0015447
-3.73423e-05
0.000903802
0.00487149
-6.04477e-05
8.02765e-06
5.24202e-05
-3.46794e-07
-0.000188208
-0.000119776
-2.1151e-05
9.55022e-06
1.16007e-05
0.00168745
-0.00201641
0.000328963
6.32408e-06
8.00011e-06
-0.00172708
0.00163268
9.43979e-05
2.21244e-06
7.30646e-06
-9.51896e-06
-1.98366e-06
-7.89752e-06
9.88112e-06
-0.000177085
-0.000291853
-3.03615e-05
1.34785e-05
0.00010359
0.000188603
-0.000292193
-6.01241e-06
-1.29486e-05
1.8961e-05
-3.96255e-05
0.000236272
-0.0002446
-1.71483e-05
2.23024e-05
-0.00109295
0.00103755
5.53955e-05
-0.000286817
0.00037286
-8.60435e-05
4.89336e-06
7.24383e-07
0.00394033
0.00244782
-0.00638814
0.000724974
-0.000577833
-1.71642e-06
-5.71284e-05
5.88449e-05
3.67788e-05
0.00470992
-0.000759442
2.48991e-06
-4.95103e-06
2.4611e-06
-0.00658249
0.00107778
0.00550471
0.00148683
-0.0011788
9.94088e-05
-0.000104198
-0.000423161
0.000670887
-0.000247727
2.18974e-05
-0.000251426
0.000229528
0.00451634
-0.0158031
-0.000180591
0.00350464
-0.000361187
-0.000190038
0.000551224
-9.14763e-06
1.25633e-05
-3.41572e-06
0.000509686
0.00238973
-0.00289942
-4.43805e-06
3.86476e-06
5.73285e-07
4.12619e-05
-4.29783e-05
0.000121403
-0.000125482
9.07003e-06
-1.22646e-05
3.19449e-06
-0.000441
0.000154184
-1.1084e-06
8.76455e-06
-7.65622e-06
1.29074e-05
-4.39916e-05
-4.16038e-06
-2.77641e-07
-4.49477e-06
-5.39356e-06
9.88835e-06
1.14432e-06
-0.000125713
-0.000166505
0.000282449
-0.000251461
-3.09867e-05
4.61349e-06
-2.12357e-06
0.000256269
-0.000163645
7.02396e-05
-5.59697e-05
-0.000110437
0.000139264
0.0043449
-0.00447803
0.000133132
9.59658e-05
0.000661272
-0.000757238
-0.00232666
0.00283634
0.000980215
-0.000884249
-0.00127045
0.000319931
0.000950518
3.22897e-05
-5.75447e-05
1.09053e-05
2.56456e-05
-3.65508e-05
0.001116
-0.000124
-0.000992001
-0.00198465
-3.17586e-05
0.000743056
-0.0079398
-5.75559e-07
7.89295e-06
-0.00144604
-6.13211e-05
-0.00298494
-0.00359755
-0.0139373
0.00600317
0.00793417
-5.04896e-06
-1.7534e-05
2.25829e-05
-6.43993e-06
3.83501e-06
2.60488e-06
-0.000955825
0.000422963
0.000532867
7.6325e-05
0.000126326
-0.00020265
-0.00432449
-0.00964093
-4.54695e-06
-1.32576e-05
1.78044e-05
0.0143053
-0.00325847
-5.82808e-05
-4.11006e-05
-0.00484935
0.00579084
2.42963e-06
8.20897e-07
-3.25055e-06
-0.00785541
-0.00608191
-8.97878e-06
7.383e-06
1.59533e-06
0.000131065
-0.000124635
-6.4301e-06
0.00171856
-0.0065679
1.4204e-06
-1.31724e-06
-0.00292816
0.00104494
0.00852375
0.00300707
-0.00308621
7.91333e-05
-7.39837e-06
-1.58045e-06
-9.98239e-06
1.04672e-05
-4.8485e-07
9.19607e-05
-5.7432e-05
-3.4529e-05
0.00190237
-0.00237243
0.000470064
-3.96302e-06
-2.47692e-06
0.000354687
0.00158625
3.60401e-05
-4.53279e-06
-3.15074e-05
1.36468e-05
5.65928e-05
5.39106e-06
-2.62884e-06
-0.00305471
-0.00591368
3.36799e-05
9.26939e-05
-1.21816e-05
-8.05121e-05
5.08115e-06
8.8183e-06
-1.38995e-05
9.55018e-06
-1.85338e-06
-7.69693e-06
1.94823e-06
8.01292e-07
-2.74954e-06
-0.00847851
0.00300648
0.00547202
-2.35469e-06
7.88026e-06
-5.52561e-06
-0.000152347
-2.85161e-05
0.000180863
9.22023e-06
-8.40872e-06
-8.11574e-07
-0.00010718
0.000135671
-4.19671e-05
-8.47634e-05
0.00012673
0.0103279
-0.00712088
-0.00320698
2.86246e-06
-6.22199e-06
3.35938e-06
-0.000210915
0.00103375
-0.000822838
-1.76002e-05
0.0043625
0.00236334
0.00796455
2.0888e-06
1.09893e-05
-1.30783e-05
-2.20754e-05
-0.000394039
0.000104551
2.65136e-05
9.61029e-05
-0.000143838
2.86981e-05
-1.22303e-05
-1.64678e-05
-8.74332e-06
1.02849e-05
-1.54156e-06
-1.39445e-06
-1.27439e-05
8.81802e-07
-0.000689057
0.000265896
-3.31384e-06
6.17605e-06
-0.0015781
0.0013765
0.000201605
0.00719309
6.5888e-05
-0.00725897
0.000144397
9.84047e-06
1.77237e-06
-1.16129e-05
-0.00400943
-0.00446907
-0.00807192
0.0031229
0.00494902
2.66643e-05
-3.66017e-05
7.87981e-06
-3.84605e-06
1.64614e-05
-1.43727e-05
1.88388e-05
1.24822e-05
9.31367e-05
1.01291e-05
-0.000103266
-0.00352983
0.00342943
-0.00704406
0.0111871
-0.004143
-8.99767e-05
7.50875e-05
1.48889e-05
-0.00287952
0.000687956
0.00219156
0.000682846
-0.00047134
6.16451e-05
-3.04402e-05
-3.12048e-05
-0.000693157
-0.000191497
0.000884654
-0.000144598
0.000108317
-0.0018394
0.000753108
0.00108629
-0.000319074
0.000193366
0.00212539
-0.00174865
-0.000376739
1.16882e-05
2.87112e-05
-4.03992e-05
-0.00180833
0.0126527
-0.0108444
-1.31824e-07
6.40998e-06
-6.27816e-06
-0.00968499
-0.0103922
-0.00295426
0.00675503
-0.00380076
1.86867e-05
-2.37356e-05
-0.01154
0.00973165
7.9857e-05
-3.63938e-05
-4.34633e-05
8.91244e-05
-5.59525e-05
0.000435379
-0.00045745
7.52131e-06
2.85186e-05
-0.000307376
5.91389e-05
0.000248238
6.2262e-06
-1.1734e-05
5.50761e-06
-0.000396023
0.000220464
-0.00127173
0.000850684
0.000421042
0.000190645
7.55529e-06
-0.0001982
9.2967e-06
0.000184677
-0.000193973
0.000192955
3.57496e-05
-0.000228706
3.87551e-05
-0.000182322
-4.67552e-05
0.000229076
1.23169e-06
2.60476e-06
-3.8365e-06
-4.53725e-05
0.000236018
-0.000178001
8.39011e-05
9.41003e-05
0.00384097
-0.0057754
0.00193443
0.000636582
-0.000112921
8.82999e-05
1.00079e-05
-9.19671e-07
-0.014297
0.00997941
0.00431764
8.60823e-05
0.000103441
1.47488e-06
8.07509e-06
2.17661e-06
-1.41457e-06
-7.62061e-07
0.00291997
0.000884217
0.000184188
-0.000877345
-0.000648218
0.000568001
8.02161e-05
-8.62029e-05
0.00319095
-0.00310474
1.64149e-06
5.3513e-07
-8.41954e-06
-1.69579e-05
2.53774e-05
3.21739e-06
-1.98573e-06
-0.000437903
0.000196843
0.000241063
-0.000180969
2.86215e-05
-9.79581e-06
2.41581e-06
7.3801e-06
-9.98078e-06
-1.11701e-05
-0.000373929
-6.7071e-05
-4.24825e-05
-0.000149316
0.000191798
2.28703e-05
-1.9331e-05
3.31248e-05
1.55781e-05
-4.87039e-05
8.15987e-06
1.11418e-06
-9.27414e-06
0.00204724
0.00226097
-4.1648e-06
1.48671e-06
2.67805e-06
-2.20591e-05
3.29645e-05
0.000271663
4.31033e-06
1.83692e-06
6.99681e-05
0.0029371
-0.000185824
0.00019512
8.67552e-06
-6.66057e-07
-8.00945e-06
-3.53576e-06
-8.00113e-05
8.35469e-05
-1.35764e-06
3.78726e-06
-0.000113632
-0.000343683
0.000457314
-0.00601948
0.00596332
5.61328e-05
1.44906e-05
-1.65409e-05
2.05031e-06
-0.00188244
0.0018955
-1.30559e-05
-9.65921e-05
0.00121259
0.00203772
-0.000139277
-0.00189844
0.00590874
-0.00739298
0.00148421
-0.000105805
-6.76363e-05
0.000173442
6.82033e-06
-8.80404e-06
-0.00795305
0.00322844
0.0047246
2.39026e-08
8.88375e-07
-9.12281e-07
0.000380138
-0.00049377
-1.03366e-05
-0.000102584
1.66225e-06
7.01328e-06
1.12734e-05
3.20291e-05
-4.33023e-05
0.000129887
2.97388e-05
-0.000159622
-9.03353e-05
-8.76662e-05
-0.000809723
0.000993911
1.72752e-06
-1.71057e-06
-1.69384e-08
0.00801401
-0.000906235
0.000206268
-0.000261346
-7.59145e-05
-0.00128935
0.00136526
3.45235e-06
-4.16525e-06
7.1291e-07
1.94693e-05
-3.88462e-05
1.9377e-05
-0.00352971
-0.000610073
0.00413978
-0.00154936
-0.000333084
0.00021389
-0.000191993
0.00138906
0.000703932
2.46473e-05
-4.82228e-05
2.35753e-05
3.31357e-05
2.97352e-05
-0.000110738
-0.00302022
-0.000509489
-1.03521e-06
-1.53756e-06
2.57274e-06
-0.000137635
-0.000181433
0.00102974
0.000122311
-0.00115205
0.00237256
0.0119327
0.00137182
-4.65735e-05
-0.00132524
9.46704e-07
5.08729e-05
-5.18196e-05
-0.000305977
-0.000231015
1.14181e-05
-9.71292e-06
-1.70531e-06
1.12972e-05
1.91274e-05
-3.04249e-05
-0.000199215
0.00020677
-0.000143293
-0.000504924
0.000129201
-9.326e-05
1.10911e-05
-1.09495e-05
-4.85206e-05
4.94673e-05
-8.66872e-06
6.57887e-06
-0.00700646
0.00941614
-0.000223098
0.00159491
-8.10393e-05
-0.000142546
9.85136e-05
-6.20031e-05
1.98018e-05
-4.9166e-05
-9.33797e-05
2.71101e-05
-4.07903e-06
1.39195e-05
0.00104999
-2.02527e-05
-0.000494095
0.000120166
0.000233751
-0.000190084
-0.000602094
0.000792179
9.85809e-06
-1.39371e-05
-0.000571322
1.62185e-05
-6.18765e-07
-0.00620171
0.00370622
-0.00484714
-0.00322477
0.00094322
-0.00101913
0.000110003
4.94467e-05
-0.000159449
0.00173327
-0.00207565
0.000342376
1.17479e-05
-1.15567e-05
-3.15977e-05
0.000146142
4.78446e-05
-0.000193988
-4.63108e-05
1.48272e-05
3.61747e-05
-2.3462e-05
-1.27126e-05
0.00676039
0.000567586
-0.00732797
0.000763455
0.00187153
-0.002635
0.000931365
-0.00258427
0.0016529
-0.000228559
-0.000427229
0.000655788
-0.00300278
-0.00549062
0.00849342
0.00586699
-0.00496318
0.00197619
-0.00104482
-0.00191883
0.00867922
-3.23087e-06
-1.06181e-05
1.38488e-05
-1.58887e-05
2.65049e-05
0.000136487
5.63341e-06
1.59749e-06
-7.23091e-06
-0.000578011
-0.000693716
-0.000421447
0.000649007
-0.000227559
0.000190481
-0.000246235
5.57547e-05
1.10693e-05
-7.06645e-06
-1.77837e-06
5.44806e-07
1.23356e-06
-0.0132617
0.00887
0.00439168
-1.43666e-05
3.38359e-05
-0.00013953
0.00108275
7.07295e-05
-0.000492177
-0.00101467
-0.000305342
0.00132001
9.015e-06
-8.31995e-06
-6.95072e-07
0.000302578
0.00172967
-4.35483e-07
-1.34286e-06
1.02705e-05
-7.43175e-06
-2.83889e-06
-0.000104947
-0.00204916
0.000663441
0.00209525
-0.000905188
-0.00119006
-2.43621e-05
0.000100398
-7.60362e-05
-0.000142587
7.64461e-05
7.34521e-05
9.22856e-05
4.19027e-05
-8.77789e-06
-1.12707e-05
3.87209e-06
0.0111404
0.00200094
0.000161425
3.61795e-05
-0.000197605
-0.00366074
-0.00638827
0.010049
0.000461779
0.00540522
-0.000181059
-0.00015869
0.000262279
1.71215e-05
-1.24598e-05
-4.66169e-06
7.9731e-05
0.0062658
0.00192453
-0.00819033
-1.04904e-06
-9.80671e-06
0.000173865
-0.000107095
-0.000189935
-3.36061e-06
0.000193295
0.0322227
0.00613515
-0.0383579
7.1725e-05
-0.000450302
-0.000186319
-7.57473e-06
0.000193895
7.12165e-06
3.94761e-06
-9.70083e-07
0.000148201
4.5183e-05
2.44871e-06
-7.81198e-06
5.36333e-06
0.000128607
2.83666e-05
-0.000156974
4.85424e-05
-9.61135e-06
-3.33476e-06
-1.77275e-06
5.10749e-06
-1.41844e-06
-6.09204e-06
7.51049e-06
-0.0057889
-0.000923503
0.00671241
-7.33182e-05
-6.9269e-05
4.30348e-05
0.00014992
0.000174007
0.000312205
6.04478e-06
-7.15335e-06
-3.44715e-05
-7.87263e-07
3.49759e-06
8.96392e-05
-6.71577e-06
-2.49549e-06
9.21128e-06
-0.00514197
-0.00335188
0.00849385
3.44407e-05
-0.000207071
0.000172632
0.000139743
-6.44797e-05
0.000104815
-4.03355e-05
-0.0016322
0.00126478
-0.00045148
9.02937e-05
4.02932e-05
-6.08912e-06
-3.4204e-05
-0.000243621
0.000107435
0.00211506
-0.00725703
0.000218865
0.000746198
-0.000965054
-4.17974e-06
-5.99374e-06
1.01734e-05
-0.000145764
0.000171833
-2.60686e-05
0.000333204
-0.0001494
-0.000183805
8.4279e-06
1.6797e-06
-1.01076e-05
0.0102645
-0.0142138
2.95014e-05
5.96231e-05
-1.37428e-05
-1.20382e-06
-0.00614691
0.0106638
3.76048e-07
-6.91474e-06
-0.000933723
0.000234535
9.86686e-05
-0.000142755
-0.00048234
-8.22941e-05
-0.000396303
0.000478597
9.84662e-06
-1.41869e-06
-1.23949e-05
1.08218e-05
1.57309e-06
0.000380395
-0.00139506
-0.00271295
0.00655392
-0.00235446
-0.00588836
3.4487e-05
-2.45331e-06
-5.40532e-05
3.75318e-05
1.65214e-05
7.09826e-06
1.91667e-06
2.42913e-06
-4.8091e-07
7.1276e-05
-9.56382e-05
-0.000322139
0.000136169
0.000139664
-0.000275833
-0.00028793
-4.43629e-05
0.00103133
0.00106392
0.000200754
-3.93289e-05
0.000444731
-0.000634815
7.87135e-06
-2.06848e-06
-5.80285e-06
6.34026e-07
-8.60891e-06
7.97478e-06
-0.00205001
0.00130224
-2.31358e-06
1.68042e-05
7.26406e-06
2.97181e-06
-1.02359e-05
2.19442e-05
-0.000105467
0.00590056
-0.0126285
0.000663507
-0.000334576
-0.000328931
0.00240263
0.0169905
-0.0193931
2.8366e-05
-3.29875e-05
4.62128e-06
0.000103619
-0.000209005
0.000105386
0.000751227
-0.000890757
-0.000272797
0.00018193
9.08651e-05
0.000155766
-0.000128854
6.19331e-06
-7.61179e-06
-3.20236e-07
-4.01359e-07
7.21597e-07
4.36733e-06
9.58621e-05
1.34584e-05
-1.71804e-05
3.722e-06
-6.10559e-06
0.019768
-0.0265044
0.00673639
-1.72471e-06
9.60611e-06
-7.88144e-06
-3.24767e-06
-7.57678e-07
4.00533e-06
6.91755e-05
8.21485e-05
-0.000151322
-6.58243e-06
-0.00103712
-0.000802284
8.41848e-06
-5.96974e-06
-2.26776e-06
-1.08607e-06
3.35377e-06
0.000133178
5.07583e-05
-0.000183936
2.47278e-05
-3.30412e-05
8.31338e-06
8.52764e-05
-0.00015776
7.24833e-05
-0.000136403
-4.05265e-05
0.000176929
0.00837908
-0.00275251
-0.00562656
-9.72864e-05
3.28066e-05
1.13477e-06
-2.62357e-08
-1.10854e-06
-7.81718e-06
6.04442e-06
-0.000713943
-0.000946706
7.71165e-06
-6.35311e-07
3.06272e-06
7.20774e-06
0.0197992
-0.00718893
-0.0126102
-3.52881e-05
-2.6715e-05
6.22763e-05
-0.000182053
1.76551e-06
-1.14787e-05
9.71332e-06
0.000298862
0.00182653
-9.85975e-06
1.83984e-05
-8.53873e-06
-1.44687e-06
-0.00193844
0.00122449
-0.000639417
0.000496662
0.000931687
-0.00260051
0.00166882
0.000545031
-0.00116701
0.000621989
8.15566e-05
-1.326e-05
-6.82964e-05
0.000178491
-9.45904e-05
0.00130514
0.000181687
-8.1369e-06
5.34906e-06
-2.10149e-05
1.5666e-05
0.0007145
-0.00194046
-1.05451e-05
-0.00480107
0.0110669