/*--------------------------------*- C++ -*----------------------------------*\
| =========                 |                                                 |
| \\      /  F ield         | OpenFOAM: The Open Source CFD Toolbox           |
|  \\    /   O peration     | Version:  v2012                                 |
|   \\  /    A nd           | Website:  www.openfoam.com                      |
|    \\/     M anipulation  |                                                 |
\*---------------------------------------------------------------------------*/
FoamFile
{
    version     2.0;
    format      ascii;
    class       volScalarField;
    location    "400";
    object      nut;
}
// * * * * * * * * * * * * * * * * * * * * * * * * * * * * * * * * * * * * * //

dimensions      [0 2 -1 0 0 0 0];


internalField   nonuniform List<scalar> 
54593
(
0.0063986
0.00603836
0.00660175
0.00167323
0.00136382
0.0064855
0.00584653
0.00133828
0.00153058
0.00263183
0.00590737
0.000703102
0.00594759
0.00585389
0.00599148
0.00584989
0.0114491
0.00585757
0.0058528
0.000736233
0.00588563
0.00591059
0.00341877
0.00595697
0.00591479
0.0024705
0.00801975
0.00623798
0.00108991
0.00588971
0.00224373
0.00381117
0.0058011
0.00387077
0.00582813
0.00595558
0.00216704
0.00646729
0.00259079
0.00363505
0.00508875
0.00605134
0.00588536
0.00586059
0.00583279
0.00577422
0.00585479
0.0081589
0.00671555
0.00590624
0.00583146
0.0059393
0.00593687
0.00244358
0.00294487
0.00591774
0.00135641
0.00595588
0.00248306
0.00588409
0.00272915
0.0059556
0.0059216
0.00595536
0.0114867
0.00343535
0.0058357
0.0110843
0.00593755
0.00584857
0.0116344
0.00585798
0.00250513
0.00580159
0.00582346
0.00585631
0.00444465
0.00594113
0.00354057
0.00202145
0.00595619
0.0059304
0.0116299
0.0111153
0.0058461
0.00592647
0.000746043
0.0058783
0.00592993
0.00111932
0.00586646
0.00595595
0.0111941
0.00592999
0.00454465
0.00239627
0.00553916
0.00594143
0.00588268
0.00582417
0.010082
0.00601378
0.00595635
0.000789045
0.00561779
0.000857078
0.00585579
0.00238234
0.00580127
0.00587954
0.00588537
0.00594158
0.0109453
0.00501931
0.00807715
0.00582937
0.00585648
0.00578377
0.0055885
0.0100694
0.00595496
0.000836634
0.00223637
0.00310246
0.00584307
0.0115724
0.00589602
0.00385251
0.0109893
0.00587516
0.00593064
0.00579331
0.0058547
0.00457761
0.0058622
0.00582948
0.00226155
0.000795581
0.00585193
0.0194369
0.0058298
0.00589989
0.00587058
0.0115599
0.00584477
0.00464013
0.00358096
0.00361948
0.00587797
0.0115188
0.00589951
0.00217497
0.00595014
0.00592082
0.0028042
0.000773514
0.00113755
0.00801544
0.00586797
0.00594577
0.00591337
0.0017851
0.011101
0.00582002
0.00072004
0.0059452
0.00579436
0.00586122
0.00585173
0.00588997
0.00849711
0.00602364
0.00589858
0.00231602
0.00593399
0.00587004
0.00209648
0.00470808
0.01147
0.00582099
0.00582337
0.00583779
0.0107654
0.00473478
0.00586975
0.00593036
0.0162479
0.00592395
0.00551674
0.0059449
0.00807764
0.000789411
0.0060543
0.00878565
0.000936642
0.00595524
0.00602128
0.00565646
0.000953352
0.00583989
0.0106163
0.00615005
0.00606218
0.0021775
0.00544771
0.00583229
0.00592376
0.00216216
0.00600979
0.0151595
0.00582728
0.000660308
0.00240773
0.00214616
0.005998
0.00486446
0.0036488
0.00637418
0.00580188
0.00599324
0.00592261
0.00836076
0.00585658
0.00197472
0.0112286
0.000917989
0.00581004
0.0101429
0.0020937
0.0109389
0.00162958
0.00580121
0.00480535
0.00589398
0.00269706
0.00585018
0.00583762
0.010776
0.000956299
0.00604876
0.00580132
0.00601022
0.00584017
0.00580283
0.00252378
0.00586036
0.00683081
0.00753548
0.00587169
0.00591999
0.000890427
0.00593263
0.00228203
0.00595397
0.0205764
0.00585668
0.0061952
0.0104316
0.000912891
0.0058467
0.0059534
0.0057998
0.001639
0.00150256
0.00396432
0.0014285
0.00580109
0.00516592
0.00596214
0.00594593
0.000598657
0.00749069
0.00585446
0.000884888
0.000928918
0.0114903
0.00595118
0.00582696
0.00244533
0.00588018
0.00584859
0.005874
0.00587097
0.00213579
0.0109155
0.00421924
0.00207988
0.00543869
0.000948685
0.00595259
0.00588096
0.0204021
0.00311615
0.0111583
0.00149551
0.0058865
0.00519682
0.00589205
0.0054676
0.00700615
0.00197458
0.00174131
0.00590175
0.00381271
0.00119375
0.000964017
0.00712521
0.00919435
0.0107657
0.0111184
0.00593739
0.00417038
0.00520878
0.0117173
0.000690679
0.00462304
0.0107902
0.00359397
0.00152657
0.00591955
0.0105665
0.00193309
0.0058439
0.00455967
0.00585943
0.00892491
0.00529431
0.00381286
0.0058413
0.00128051
0.00090734
0.00582193
0.00676383
0.00629034
0.00209128
0.00588092
0.00590085
0.00622697
0.00472188
0.00595397
0.00223405
0.018995
0.0116497
0.00595423
0.00581456
0.0107926
0.00591627
0.00371451
0.00354328
0.00603451
0.00565571
0.00591655
0.00271327
0.00594768
0.00466812
0.00153932
0.00557337
0.00727158
0.00322585
0.00538885
0.00795446
0.00585194
0.00932386
0.0059038
0.00634124
0.00194984
0.00576399
0.00589617
0.00588328
0.0011319
0.00579793
0.0079545
0.00337122
0.00548352
0.00562413
0.00203286
0.00141795
0.00350569
0.00073921
0.0117567
0.00239403
0.00104236
0.00903049
0.00194204
0.00373836
0.00234428
0.00215781
0.00196788
0.00203726
0.00592384
0.00548518
0.00380173
0.00772096
0.0039148
0.00585715
0.00592901
0.00215057
0.00592928
0.00588585
0.00551765
0.00602111
0.00583251
0.00588619
0.00254663
0.00408823
0.00192468
0.00153918
0.00352412
0.00593118
0.00505259
0.00588495
0.00586249
0.010996
0.00582017
0.00579908
0.00594525
0.0111479
0.0043794
0.00526217
0.00590612
0.00922539
0.00588976
0.00595485
0.00573929
0.00556614
0.0051606
0.000538161
0.00580332
0.00555765
0.00588735
0.00102956
0.00369351
0.00388125
0.00580329
0.00213815
0.00582858
0.00602763
0.00583208
0.00275358
0.00552488
0.00121034
0.00539261
0.0124798
0.00273919
0.00670562
0.00438189
0.00584744
0.00452402
0.000821126
0.0106265
0.00555377
0.00547847
0.00216291
0.00579977
0.00246418
0.00556488
0.0055671
0.000749359
0.00591861
0.00586693
0.000794998
0.00579987
0.00599527
0.00586696
0.00359878
0.00570816
0.00227322
0.0115041
0.0058395
0.00586602
0.0011744
0.00254552
0.000704742
0.00454778
0.0022379
0.00202003
0.000746474
0.00594735
0.00216408
0.00586673
0.00593323
0.0112975
0.00113375
0.00456906
0.0102188
0.000601913
0.00516196
0.00531071
0.00579128
0.00588435
0.00194617
0.00863027
0.00127271
0.00557732
0.01271
0.00776419
0.00512345
0.00544086
0.00504068
0.00582409
0.00589009
0.00104524
0.00594869
0.00582428
0.00579853
0.00595708
0.00533076
0.00581876
0.00567773
0.00250858
0.00593084
0.00599021
0.00594891
0.00585666
0.00583558
0.0057855
0.0058909
0.00438407
0.00136345
0.00245702
0.00252144
0.0127365
0.0112039
0.00225914
0.00204815
0.00143345
0.00589464
0.00583503
0.00587546
0.0058236
0.00579194
0.00138325
0.00588846
0.000565913
0.00970541
0.00437636
0.00207886
0.00245219
0.00229037
0.0109862
0.00592395
0.00446082
0.00586627
0.0045711
0.00595322
0.0058586
0.00148048
0.00593912
0.00269119
0.00476494
0.0045849
0.00588324
0.00329333
0.00105447
0.00443054
0.00603567
0.000428115
0.00614306
0.00563194
0.00219737
0.0101997
0.00581566
0.000872373
0.00539913
0.000767728
0.00513453
0.00784896
0.0104379
0.00232448
0.00516006
0.00589628
0.00545856
0.00583839
0.00562959
0.00990556
0.00596149
0.00444596
0.00595601
0.00196604
0.00583817
0.00594245
0.00584497
0.00794483
0.000906287
0.00581642
0.0112858
0.00581802
0.000698656
0.00567018
0.00587607
0.00544495
0.00589788
0.00397703
0.00178439
0.00173451
0.000961839
0.00446427
0.0024959
0.005823
0.00447376
0.00100341
0.00690418
0.00593966
0.00581472
0.0107938
0.00588073
0.00155534
0.00563364
0.00169762
0.00137359
0.00108532
0.00591672
0.00683062
0.0050841
0.00519986
0.00137351
0.0058228
0.00456032
0.0061314
0.0100264
0.0046198
0.00598603
0.00137757
0.00577996
0.00581433
0.00174739
0.00563024
0.00582084
0.00587039
0.00344782
0.00138344
0.00585646
0.00596179
0.00586714
0.00599598
0.0131188
0.00478485
0.00447888
0.00585262
0.000899347
0.0102565
0.00923925
0.00527057
0.00146321
0.00571203
0.00910863
0.00390556
0.00928308
0.00523688
0.000936418
0.00998558
0.00595346
0.00583557
0.00595689
0.00588321
0.00512278
0.00558327
0.00361643
0.00812921
0.000903021
0.00487177
0.0122321
0.00500117
0.00284463
0.00585941
0.00426837
0.00304033
0.00548271
0.00225764
0.00181828
0.00137988
0.00626966
0.00465094
0.00196993
0.00104795
0.0116047
0.0106929
0.00861575
0.00421364
0.00193612
0.0119789
0.00582651
0.00975661
0.00869182
0.00594233
0.011376
0.00448555
0.00240145
0.00921388
0.00565111
0.00552348
0.00588996
0.00146281
0.0105057
0.00183891
0.0124807
0.000866864
0.00138908
0.00178522
0.00581443
0.00186606
0.00566965
0.0079243
0.00501099
0.000942128
0.00583896
0.00178176
0.00615055
0.0058654
0.00579909
0.0105456
0.00105644
0.00521437
0.00635408
0.00579918
0.00495603
0.0058139
0.00254499
0.00473061
0.00583763
0.00592054
0.00435211
0.0127808
0.00590691
0.00186903
0.00192683
0.00421784
0.00586883
0.0017636
0.0014506
0.00583755
0.0100508
0.0124156
0.00584716
0.00220622
0.00591686
0.0058126
0.00471407
0.00501356
0.00562737
0.00101315
0.00517257
0.00480875
0.0105935
0.00585687
0.00915078
0.00580135
0.00581437
0.000690516
0.00584772
0.00591582
0.0071435
0.00567094
0.00104228
0.0059357
0.00150844
0.0044812
0.00545441
0.00592903
0.00247861
0.00639765
0.00561633
0.00688265
0.00529664
0.00306293
0.00361905
0.00475953
0.00653912
0.00599705
0.00826999
0.00560846
0.00148774
0.00141617
0.00593974
0.00578992
0.00606411
0.00593707
0.00189925
0.00520252
0.00326504
0.00588077
0.00593922
0.00594388
0.00583997
0.00061812
0.00204135
0.00111385
0.00170419
0.00113143
0.00467077
0.00489192
0.00560223
0.00435803
0.00589557
0.00543165
0.00489933
0.00529864
0.00525781
0.00270322
0.00338344
0.00551153
0.00720884
0.00479532
0.005886
0.00200489
0.00213805
0.00244193
0.00588895
0.00553815
0.0101232
0.00593047
0.00118285
0.00257199
0.00196796
0.00614863
0.00575081
0.00596157
0.00594927
0.00768118
0.00584308
0.0105961
0.00580011
0.0122685
0.00585424
0.00580694
0.00167402
0.00252005
0.00553517
0.00581746
0.0058345
0.00586704
0.00311406
0.0058052
0.00584678
0.0110785
0.00126705
0.006605
0.00255319
0.000958747
0.0100595
0.00191728
0.00485027
0.00766168
0.00937748
0.0181091
0.001993
0.00170078
0.00278491
0.00590613
0.00565404
0.00935723
0.00593357
0.0114284
0.000526065
0.0153564
0.0107751
0.00199462
0.00585321
0.00579969
0.0117988
0.0058244
0.00204931
0.00293021
0.00587387
0.00582755
0.0019808
0.00097051
0.000842251
0.00240904
0.00539292
0.00595641
0.00591994
0.00550688
0.00584353
0.00366281
0.00882597
0.00775563
0.0026374
0.00450277
0.00516994
0.00590931
0.00481675
0.00324268
0.00625047
0.00583629
0.00216875
0.00589661
0.00588531
0.00473259
0.00233978
0.005962
0.00487146
0.0057932
0.00104696
0.00589595
0.00508354
0.00576658
0.00588287
0.005886
0.0058464
0.008382
0.0104839
0.00350795
0.00249379
0.00586694
0.00598469
0.00243906
0.00587351
0.00589229
0.00411021
0.00588743
0.00977888
0.00548562
0.00585887
0.00594699
0.00857054
0.00443235
0.00588986
0.00229306
0.00453975
0.00542678
0.00956518
0.00591769
0.0114928
0.00558204
0.00460511
0.0115952
0.00582624
0.00579994
0.00359236
0.00596079
0.00591549
0.013156
0.00488103
0.00587164
0.00742231
0.00587506
0.0106756
0.00582328
0.00592544
0.0059032
0.00344905
0.000882976
0.00197167
0.00933611
0.00278517
0.00580168
0.00587673
0.00551972
0.00602931
0.00584582
0.00676811
0.0017005
0.0107725
0.00471982
0.0044005
0.00384958
0.00592117
0.00552695
0.00507107
0.00116908
0.00758232
0.00578555
0.0056827
0.00542565
0.00136162
0.00370225
0.00594818
0.00594525
0.00885146
0.00596049
0.00578858
0.00252302
0.0048914
0.00421262
0.0065758
0.00233225
0.0107196
0.00273356
0.00465949
0.00587448
0.00336212
0.0179083
0.00582129
0.00592244
0.00271487
0.00579844
0.00595928
0.00579769
0.00258088
0.00576254
0.005873
0.0058578
0.00579688
0.00507247
0.00474228
0.00589157
0.00120187
0.00582573
0.00468972
0.00594618
0.00190708
0.00593228
0.00154133
0.00586619
0.00546098
0.00262792
0.00875685
0.00586736
0.00505063
0.00325805
0.0058155
0.0107333
0.00121086
0.00582454
0.00305742
0.00113245
0.00593009
0.00555194
0.00591434
0.00585069
0.00124698
0.00141869
0.012385
0.00593911
0.000829138
0.0112206
0.00593016
0.00592687
0.00183657
0.00583007
0.00597887
0.00471395
0.00480457
0.00589984
0.00592511
0.00592634
0.00419064
0.00596124
0.00594114
0.00284852
0.0013991
0.00229235
0.00511021
0.00585732
0.00588275
0.00195416
0.00652884
0.0024222
0.00193101
0.00582133
0.0018126
0.00438887
0.000938938
0.0012493
0.004321
0.0109372
0.00532503
0.0024321
0.000856895
0.00594981
0.00592714
0.00584861
0.00595782
0.00229521
0.00325957
0.00351704
0.00584086
0.00581772
0.0126926
0.00199696
0.00545163
0.0058728
0.000830614
0.00954944
0.00582489
0.00434037
0.00586039
0.00599918
0.00578678
0.00186947
0.00417303
0.000906309
0.00580044
0.00595104
0.00587011
0.00719552
0.00580055
0.00514533
0.00397915
0.00586943
0.0100939
0.00585631
0.00591483
0.00542828
0.00108812
0.00550738
0.0041909
0.00588653
0.00814912
0.00212555
0.00592279
0.00585173
0.000994046
0.00289277
0.0027414
0.00599981
0.00592764
0.00323611
0.00595817
0.00333707
0.00579898
0.00535382
0.00540768
0.00588005
0.00578537
0.00591676
0.0058637
0.00594337
0.00596197
0.00101741
0.00415063
0.00166862
0.00581484
0.00585201
0.000996115
0.00387063
0.0054817
0.00585823
0.00582987
0.00589028
0.00581938
0.005052
0.00173129
0.00581674
0.00582342
0.00612859
0.00591992
0.00611242
0.00459561
0.00251516
0.00486662
0.00596403
0.00545945
0.0038562
0.00539787
0.00483426
0.00583403
0.00594326
0.00459954
0.00594784
0.00560539
0.00590763
0.00274005
0.0071431
0.000886119
0.000882204
0.00595567
0.00582647
0.00117901
0.0059623
0.00189976
0.00580143
0.00424969
0.00101684
0.00409795
0.00264019
0.00589394
0.00671702
0.00596619
0.00109563
0.00143036
0.00649978
0.00529712
0.00601833
0.0059497
0.00582415
0.00583866
0.00593305
0.00583072
0.00604187
0.000892742
0.00509606
0.00557392
0.00188492
0.00252439
0.0054776
0.00560425
0.00337952
0.00233435
0.00596253
0.00752598
0.00147123
0.00531088
0.00592552
0.0059461
0.00209733
0.00148106
0.00580542
0.00439113
0.00254422
0.0059162
0.00591246
0.00501647
0.00554762
0.00583667
0.00211287
0.00594911
0.00589045
0.0201171
0.0059475
0.0050369
0.0035401
0.00238117
0.000498148
0.0058588
0.00268816
0.00588372
0.0182482
0.00440055
0.00580593
0.0106572
0.0058261
0.00528656
0.00583746
0.00607045
0.00475761
0.00108155
0.00893179
0.00232492
0.00573331
0.0058227
0.00543601
0.00351743
0.00519796
0.00528463
0.00313754
0.00261955
0.0115959
0.00581681
0.00192954
0.00595527
0.00798422
0.00460474
0.00596165
0.00123622
0.00592705
0.00580549
0.00775992
0.00607168
0.00594268
0.00185089
0.0125485
0.00470483
0.00219809
0.00569555
0.00588939
0.00599773
0.00254461
0.00557235
0.00582686
0.00497938
0.00584232
0.00869634
0.00517476
0.00584446
0.00579845
0.00593484
0.00597204
0.00884074
0.00595726
0.0017925
0.0057107
0.00580326
0.000151551
0.00587362
0.0039047
0.00228633
0.00487518
0.0022811
0.00583918
0.00585194
0.00855292
0.00640548
0.00584365
0.00579177
0.00579821
0.00585197
0.00576516
0.00365472
0.00257948
0.00582462
0.0114511
0.00588127
0.00593427
0.00783256
0.00394293
0.00595598
0.00595112
0.00617341
0.00240694
0.00464302
0.0058398
0.00555705
0.00584842
0.0125374
0.00387658
0.00582449
0.00725154
0.00594726
0.00594368
0.00268559
0.00246584
0.0058809
0.00844131
0.00542892
0.00585049
0.00594391
0.00594962
0.00212488
0.00594912
0.00593339
0.0111741
0.00175759
0.0057955
0.00543377
0.00398804
0.00112066
0.0113051
0.00581647
0.00362425
0.00468976
0.000560824
0.00714073
0.00608985
0.00509062
0.00593874
0.00984625
0.00880322
0.00594478
0.0059789
0.00582426
0.00594315
0.00586789
0.00579571
0.0058359
0.00565892
0.00583388
0.00849801
0.0192226
0.00585094
0.00594561
0.00594373
0.00593132
0.00593928
0.00511829
0.0035149
0.00557563
0.00595467
0.010029
0.00108221
0.00553959
0.00167317
0.0018858
0.00585091
0.00605538
0.00372664
0.00168893
0.00130608
0.00247014
0.000882805
0.00585318
0.00813909
0.00586587
0.00213808
0.00583531
0.00583652
0.00478629
0.0056195
0.00583798
0.00119498
0.00725245
0.0056925
0.00249157
0.00580237
0.003684
0.00191232
0.00595527
0.00587534
0.00595531
0.00595583
0.00583597
0.00603451
0.000707961
0.0026958
0.00593857
0.0059729
0.00584436
0.0059407
0.00567493
0.00586973
0.00597715
0.00606668
0.00587572
0.00593894
0.00435832
0.00592582
0.00593511
0.00185692
0.00584282
0.00305948
0.0116317
0.00588473
0.010217
0.00592681
0.00828398
0.00594835
0.00213316
0.00542394
0.00123047
0.0116686
0.00579133
0.00457341
0.00585713
0.00586309
0.00115121
0.00138
0.0115476
0.00595001
0.00278015
0.00518488
0.00454617
0.00552766
0.00583732
0.00452999
0.00595374
0.0106147
0.00315386
0.00301994
0.00593604
0.00601438
0.0112515
0.00167937
0.00211685
0.00224127
0.00466147
0.00584662
0.00593669
0.00588523
0.00657998
0.0036553
0.00167612
0.0059169
0.00590736
0.00283788
0.0059566
0.000352754
0.00560303
0.00585836
0.00592185
0.0021609
0.00592923
0.00629925
0.00598787
0.00515408
0.00589308
0.00599012
0.00582526
0.00760791
0.00583824
0.00595283
0.00582805
0.000847036
0.0058098
0.00660796
0.00582741
0.00150551
0.00189578
0.00159279
0.00584794
0.00567933
0.00376684
0.00213899
0.00582319
0.00593909
0.00588602
0.0058516
0.00595437
0.00592612
0.00584675
0.00603161
0.00641846
0.00592369
0.00219298
0.00582388
0.00375635
0.00530493
0.00599525
0.00525342
0.00590858
0.00235213
0.00260211
0.001779
0.00425882
0.00935065
0.00517383
0.00594883
0.00552956
0.00162004
0.0125084
0.0118991
0.00569363
0.00592706
0.0058623
0.0058325
0.00585761
0.000896397
0.00235141
0.0107779
0.00591795
0.00592934
0.00852014
0.0058392
0.00590178
0.00316392
0.00203391
0.00953448
0.00596197
0.00235531
0.00584563
0.00160334
0.00179106
0.00335568
0.00514851
0.00588496
0.00586489
0.00255864
0.0108127
0.00176483
0.0059107
0.00549193
0.00593174
0.00272235
0.00609405
0.00588048
0.00110862
0.00584488
0.00583848
0.00566513
0.0042615
0.00472241
0.00607446
0.00586708
0.00338428
0.00580716
0.00593643
0.0110069
0.000818265
0.00704054
0.0047712
0.00546611
0.0111872
0.00173447
0.00591472
0.00589957
0.00101271
0.00591219
0.00524852
0.00587757
0.0149625
0.000781939
0.00595167
0.00582141
0.00459607
0.00590901
0.00584817
0.00594926
0.00586986
0.00579551
0.00604336
0.0078747
0.00587994
0.00589995
0.00255069
0.00161074
0.0027498
0.00695304
0.00607899
0.0034674
0.00594596
0.00109967
0.00588576
0.00584137
0.00265814
0.0117326
0.00594853
0.00269186
0.00164267
0.00188642
0.00585076
0.0110856
0.00257197
0.00592537
0.00601702
0.00573586
0.00142525
0.00582401
0.00724221
0.000752673
0.00593822
0.0058033
0.004436
0.000785308
0.00238425
0.00247503
0.00574325
0.00579877
0.00164196
0.00238779
0.00538702
0.00513663
0.00606123
0.00593896
0.00596223
0.00592994
0.00139362
0.00247057
0.00522935
0.00593685
0.00556695
0.00556331
0.00202513
0.00579113
0.00561867
0.0117794
0.00595967
0.00581599
0.0058305
0.00593691
0.00593112
0.00599711
0.00581921
0.00288542
0.00593077
0.00601429
0.00141435
0.00594522
0.00262248
0.00596039
0.00588439
0.00586756
0.00594378
0.00561105
0.00162273
0.00188627
0.00594323
0.00582361
0.00146826
0.00594665
0.00588662
0.00516837
0.00606578
0.0116745
0.00463041
0.00477748
0.0016159
0.00454935
0.000639648
0.00319979
0.00165411
0.00582363
0.00128546
0.00595446
0.0066884
0.00581917
0.00619648
0.00581133
0.00596114
0.00132953
0.00594915
0.000545257
0.00971802
0.00108175
0.00585951
0.00398926
0.00582794
0.00112072
0.00579461
0.00563694
0.00594283
0.00177215
0.00584985
0.00178845
0.011363
0.0059534
0.00244636
0.00241528
0.00544523
0.00600834
0.00242438
0.00584468
0.00583735
0.00463436
0.0115608
0.00580815
0.00583647
0.00582458
0.000753699
0.00594558
0.000982682
0.00594537
0.00591222
0.00588755
0.00602809
0.0126518
0.00593693
0.00533259
0.00142301
0.00115521
0.00592765
0.0047968
0.00555933
0.00234162
0.00424685
0.00584511
0.00581639
0.00591904
0.00392976
0.0059004
0.00244762
0.00272111
0.00614001
0.00583982
0.0057959
0.00602627
0.00596268
0.00583326
0.00584575
0.00479999
0.00467694
0.00373297
0.00543757
0.000769035
0.00143474
0.00580072
0.0059109
0.00372109
0.00178588
0.00818553
0.00362746
0.0060482
0.00585967
0.0033809
0.00234728
0.000927393
0.0109379
0.0110881
0.00583584
0.00500231
0.0023967
0.00582836
0.0058463
0.00588184
0.00595148
0.00577328
0.00579136
0.00583576
0.000764852
0.0113853
0.00404535
0.00432962
0.00580092
0.00640503
0.00582758
0.00529673
0.00595433
0.00331484
0.00332877
0.00596206
0.00595571
0.00640544
0.0058041
0.00416075
0.0033042
0.00583915
0.000743157
0.0058228
0.00168599
0.00298073
0.00582082
0.0106255
0.00458949
0.00224032
0.0059609
0.00582711
0.00119393
0.00531402
0.00595144
0.00220649
0.00698608
0.00583696
0.0043372
0.0102705
0.00275224
0.00582758
0.00972318
0.00588765
0.00126914
0.00585496
0.00786209
0.00583482
0.00587139
0.00583529
0.00221496
0.00595244
0.0057984
0.00417564
0.00516597
0.00580352
0.00585622
0.00588637
0.00562825
0.00641373
0.00593825
0.00398565
0.00587445
0.00603535
0.00211593
0.00581729
0.00606337
0.00565347
0.00596201
0.00593016
0.00860762
0.00568009
0.00148221
0.0157241
0.0027135
0.00594626
0.00595322
0.0116675
0.00572276
0.011258
0.00262899
0.00589939
0.00586475
0.00210137
0.00446713
0.000548267
0.0114561
0.00582561
0.00434186
0.00589902
0.00117959
0.0098612
0.0102316
0.00585929
0.00596109
0.00777695
0.0100646
0.0058991
0.00586
0.00367844
0.00586903
0.00595054
0.00560609
0.00761887
0.0056244
0.00247379
0.0058642
0.00589566
0.00145888
0.00582384
0.000878646
0.00185994
0.00588889
0.00426163
0.0110292
0.000976411
0.00591084
0.00589898
0.0058296
0.00825411
0.00579934
0.00110772
0.00160652
0.00469246
0.00332009
0.00228274
0.00595294
0.00336783
0.00506805
0.000777784
0.00342417
0.00380339
0.00175812
0.0102202
0.0099519
0.00595787
0.00252512
0.00579863
0.00108926
0.000911539
0.00105697
0.00586535
0.010397
0.0123724
0.0013224
0.0013202
0.0059594
0.00582811
0.00586754
0.00903522
0.00583843
0.00591523
0.000962114
0.00584416
0.00383193
0.00582807
0.0047221
0.0123964
0.00390426
0.00388485
0.00591613
0.00597597
0.00271121
0.00576401
0.00183314
0.00592502
0.00245362
0.00342081
0.001124
0.00291295
0.00227292
0.0195071
0.0107843
0.00583432
0.010592
0.00592257
0.00546775
0.00582905
0.00591704
0.00510497
0.00437827
0.00591092
0.00582995
0.00150121
0.00583636
0.00584071
0.00652807
0.000543113
0.00114876
0.00225274
0.0058568
0.00549297
0.00595734
0.00587162
0.0114415
0.010542
0.00568063
0.0058503
0.00802732
0.00254476
0.00351043
0.00515098
0.00584986
0.00587429
0.00241619
0.0064863
0.00585165
0.00585397
0.00520498
0.00678731
0.00120202
0.00584006
0.00390799
0.0043391
0.00582629
0.00595254
0.00141397
0.00593229
0.00525106
0.012778
0.00293869
0.00400785
0.00168289
0.00700022
0.00294123
0.0057715
0.00562017
0.00668145
0.00594626
0.0058235
0.00593943
0.00606426
0.00581158
0.0039928
0.00562786
0.00292641
0.00566853
0.00592095
0.00584412
0.0110944
0.00156828
0.00582577
0.00567195
0.0056912
0.000578342
0.00595013
0.00910523
0.00548742
0.0103434
0.0112004
0.00404339
0.0059425
0.0101768
0.00517965
0.00585414
0.00445477
0.00933499
0.00212112
0.00104801
0.00579969
0.00591931
0.010904
0.0059873
0.00197501
0.00338554
0.00502229
0.00573687
0.00327218
0.00594716
0.00589556
0.000742576
0.00593316
0.00234304
0.00163391
0.00593329
0.0100694
0.00528952
0.00335057
0.00586673
0.00505099
0.00189525
0.00587468
0.0113509
0.00586699
0.000756654
0.0135341
0.00584794
0.00213212
0.0018422
0.0114455
0.00585047
0.00267322
0.00436203
0.00593366
0.00594675
0.00392084
0.00590669
0.00844952
0.00160717
0.00582574
0.00418528
0.00584778
0.000546913
0.00583813
0.0058547
0.00595385
0.00588947
0.0022666
0.0111804
0.0118477
0.00582558
0.00808821
0.00284284
0.00216143
0.00172871
0.00559978
0.00582416
0.00437307
0.00579817
0.00489536
0.00585454
0.00403973
0.00583008
0.00579822
0.00237834
0.00476533
0.00588167
0.00269446
0.00589336
0.00587448
0.00582885
0.00785059
0.00482912
0.00595773
0.00216669
0.00265498
0.0049807
0.000839285
0.00583798
0.00254128
0.00296839
0.00589543
0.000954728
0.00585785
0.0113395
0.000995387
0.000863665
0.0099974
0.0111915
0.00177436
0.0056016
0.00887048
0.0103918
0.00570757
0.0054608
0.00584069
0.00857083
0.0113819
0.00235713
0.00966943
0.00588021
0.00762757
0.00307242
0.000983075
0.00599884
0.00589973
0.00363767
0.00398476
0.00591687
0.00104458
0.00299007
0.00107168
0.00360016
0.00596136
0.00582339
0.00127154
0.00595998
0.014782
0.00536918
0.00593454
0.00663474
0.00593271
0.00570953
0.00597235
0.00568802
0.00220271
0.00572572
0.0161682
0.00592863
0.00628035
0.00153502
0.00585613
0.00586872
0.0014109
0.0022685
0.00593992
0.00235684
0.00483366
0.00590098
0.00592613
0.00592336
0.00230039
0.00592733
0.0026476
0.00217292
0.00594878
0.00590461
0.0113382
0.00587949
0.011794
0.00585024
0.0106622
0.00212315
0.00588745
0.00416735
0.00586964
0.0101913
0.00223172
0.00595429
0.015956
0.00595133
0.00579522
0.00181313
0.00586354
0.00572624
0.0058926
0.00596116
0.00117845
0.00935936
0.00582618
0.00588344
0.00116434
0.0117511
0.00586135
0.0123409
0.00582539
0.00586758
0.00213622
0.00586239
0.00217007
0.00582604
0.00439638
0.0055739
0.00595691
0.000912034
0.00594729
0.00579625
0.00586251
0.00588918
0.00515162
0.00596004
0.00293471
0.00839454
0.00523923
0.00595797
0.00273923
0.00751233
0.0110155
0.0111132
0.00564277
0.00157034
0.0058085
0.00169847
0.00277627
0.005901
0.00586285
0.0052586
0.00580706
0.00599604
0.00389266
0.000318182
0.00397639
0.00586059
0.00583432
0.0058555
0.00322849
0.00577063
0.00119163
0.00724431
0.00581588
0.0027156
0.00204727
0.00604424
0.00171797
0.00647227
0.00492583
0.00127598
0.00108158
0.00583821
0.00611621
0.00581058
0.00585966
0.00592566
0.00378354
0.00636324
0.0058817
0.00161333
0.00588101
0.00122543
0.00803604
0.00162321
0.00586731
0.00526466
0.00596131
0.00593783
0.00583081
0.0112396
0.00128714
0.00514872
0.00595174
0.00580991
0.0120108
0.0059616
0.00596076
0.00590375
0.0059805
0.00402385
0.00459188
0.0049941
0.000210387
0.00593978
0.00270229
0.005838
0.00816889
0.0058459
0.00583571
0.00594915
0.00586844
0.0111621
0.00297964
0.00583824
0.00233404
0.00415775
0.00161549
0.00585323
0.00232373
0.00452086
0.00575029
0.00593251
0.00235397
0.00596135
0.00486929
0.00584342
0.00548494
0.0034527
0.00592645
0.00588829
0.00559983
0.00207982
0.00476553
0.00595092
0.0015074
0.00203707
0.00217139
0.00395252
0.00193411
0.00597033
0.00497617
0.00107607
0.00187308
0.00222998
0.000908878
0.00292095
0.00163444
0.00329337
0.00584701
0.00564676
0.0020095
0.00587456
0.0040355
0.00272536
0.00256841
0.00840221
0.00582388
0.00584962
0.00503069
0.00214075
0.00583953
0.00237515
0.0059162
0.00207441
0.000831761
0.00514021
0.00589083
0.00230881
0.0100861
0.0051862
0.00583212
0.00589681
0.00583442
0.00441349
0.0133212
0.00556391
0.0052592
0.00583877
0.00594036
0.00928309
0.00590294
0.00118814
0.00565347
0.00474719
0.00267659
0.00173901
0.00115613
0.00393036
0.00532155
0.00135233
0.00591988
0.00576476
0.00592503
0.00325097
0.00812448
0.00581354
0.00494156
0.00240878
0.00477919
0.00262915
0.00584489
0.00173376
0.00583449
0.00596146
0.00645115
0.00366499
0.00595123
0.00749948
0.0028511
0.00233506
0.00592891
0.0021794
0.00583249
0.000709771
0.00582996
0.00587838
0.00592751
0.00348344
0.00580168
0.00593943
0.00451697
0.00227388
0.00166117
0.00594249
0.00596062
0.00220416
0.00159981
0.00291272
0.00572519
0.00713018
0.00404143
0.00604991
0.00159736
0.00584549
0.00591842
0.00585385
0.00583253
0.00302997
0.00582853
0.00264803
0.0162798
0.0111307
0.00572335
0.00222442
0.00641878
0.00591949
0.00309134
0.00593582
0.00220835
0.00573581
0.0014298
0.00537287
0.00588164
0.00582933
0.00328863
0.00582119
0.00594492
0.00584639
0.00294305
0.00351821
0.00584922
0.00593419
0.00565658
0.00337565
0.00630981
0.00846749
0.00605873
0.00596015
0.00383616
0.00482514
0.00583851
0.00216806
0.00579284
0.00586199
0.0059333
0.00457117
0.00591126
0.00623356
0.00580008
0.00228545
0.00180413
0.00589288
0.00857285
0.00593751
0.00594901
0.00591051
0.00595375
0.00714209
0.00748065
0.00518707
0.00097382
0.00239085
0.00593958
0.00586445
0.0058853
0.00573336
0.00591705
0.00410522
0.00337515
0.00130986
0.00579016
0.00582852
0.00593344
0.00594023
0.00102122
0.0011428
0.00307293
0.00586461
0.00813072
0.00590073
0.00585755
0.014465
0.00587108
0.00593854
0.00334898
0.00120586
0.00596069
0.00590906
0.00586307
0.00585039
0.00599436
0.00582951
0.00241428
0.00589941
0.00106348
0.00183543
0.00101502
0.00590311
0.00882891
0.00640794
0.00581929
0.00320621
0.00582547
0.00325283
0.00135163
0.00581918
0.00591728
0.00180267
0.00583535
0.00584238
0.00560351
0.00583712
0.0059163
0.00594754
0.00370867
0.00405658
0.0059341
0.00583572
0.00594491
0.00734427
0.00595839
0.00594055
0.00519977
0.00587856
0.00330585
0.00592942
0.005825
0.0033482
0.00837501
0.00584863
0.00597343
0.00589365
0.00232386
0.00581771
0.00170474
0.010504
0.00875846
0.000547156
0.00548818
0.00458674
0.00488239
0.0019522
0.0057963
0.00647958
0.00595711
0.00583577
0.00233531
0.00248554
0.0012069
0.00125913
0.011389
0.00586931
0.00236967
0.00242281
0.00989166
0.00593842
0.00594278
0.0017409
0.00067973
0.00138379
0.00530187
0.00146032
0.00561409
0.00579597
0.00511373
0.00591148
0.00593463
0.00361072
0.00172629
0.00579907
0.00441254
0.000958025
0.00111881
0.0204268
0.00586593
0.00597368
0.00585619
0.00232156
0.0118368
0.0121007
0.0114091
0.0114985
0.0026293
0.00595384
0.0058438
0.00215981
0.00225992
0.00112998
0.00592338
0.00588203
0.00568286
0.00390904
0.00591096
0.00174155
0.000558424
0.00562261
0.00589966
0.00902374
0.00594236
0.00583003
0.00589968
0.0058828
0.001797
0.00585101
0.0023215
0.00129944
0.00454522
0.0058814
0.00583184
0.00228889
0.00515337
0.00796042
0.00422767
0.00579895
0.00132867
0.00493531
0.00624089
0.00210718
0.00204324
0.00587994
0.00183852
0.00168252
0.00579559
0.00593092
0.0112468
0.00592861
0.00596023
0.000599694
0.00586127
0.00595743
0.00320777
0.00314574
0.0048956
0.00108605
0.00232661
0.00763171
0.0020961
0.00566098
0.00113828
0.00296784
0.00170605
0.0150412
0.00123406
0.00584707
0.00591105
0.0105066
0.00594304
0.00210038
0.00961851
0.00592867
0.00572956
0.00230663
0.00218754
0.00589322
0.002996
0.00369268
0.00346106
0.00487189
0.00376508
0.00593676
0.0055845
0.00582782
0.00595165
0.00581129
0.00582662
0.00588339
0.00607076
0.00579507
0.00213455
0.000701955
0.00948407
0.00470099
0.00593532
0.0013841