/*--------------------------------*- C++ -*----------------------------------*\
| =========                 |                                                 |
| \\      /  F ield         | OpenFOAM: The Open Source CFD Toolbox           |
|  \\    /   O peration     | Version:  v2012                                 |
|   \\  /    A nd           | Website:  www.openfoam.com                      |
|    \\/     M anipulation  |                                                 |
\*---------------------------------------------------------------------------*/
FoamFile
{
    version     2.0;
    format      ascii;
    class       volScalarField;
    location    "400";
    object      p;
}
// * * * * * * * * * * * * * * * * * * * * * * * * * * * * * * * * * * * * * //

dimensions      [0 2 -2 0 0 0 0];


internalField   nonuniform List<scalar> 
54593
(
0.00151104
0.00215324
0.00158534
-0.05406
-0.0401347
0.0013934
-0.000982472
-0.0567501
-0.0454097
-0.0432193
-0.0122771
-0.054002
0.000886182
-0.00165168
0.000718641
0.00106085
-0.0525812
-0.0104685
0.00106712
-0.0610777
-0.000169585
-0.0132626
0.000494903
-0.000236056
0.00115506
-0.050837
-0.00619727
0.000821251
-0.0126018
0.00131865
-0.000293847
0.00100428
0.000868754
0.0129069
0.00094936
-0.000184322
-0.0555677
0.0013727
-0.0238588
-0.011835
0.022763
-0.00264481
-0.00908557
-0.0125468
-0.00109329
0.00050221
-0.00089363
-0.00557655
0.0009498
-0.0133692
-0.00110136
0.000394921
-0.000290638
-0.0490312
-0.0359979
-0.0123779
-0.0569321
-0.0164503
-0.00033566
0.00126219
-0.0253097
-0.0127987
-0.00828035
-0.0124099
-0.0522607
-0.00892354
-0.0145073
-0.0550875
0.000386821
-0.000978161
-0.0535325
-0.00350433
-0.048702
0.00086393
0.000984585
-0.000904181
0.00499065
-0.0216743
0.0205255
-0.0547503
-0.000230779
-0.022056
-0.0532479
-0.0552778
-0.00872292
-0.000115977
-0.0585932
-4.74182e-05
-7.89256e-05
-0.0551325
0.000119618
-0.000138438
-0.0553443
-0.0222794
-0.00152513
-0.0449881
-0.000410426
-0.0072702
-0.00901656
0.000955665
-0.00474267
-0.0531571
-0.0125554
-0.0631436
0.000943562
-0.0508218
-0.00350105
-0.0532774
0.000857353
-0.00932879
0.000312856
-0.0218001
-0.0526701
0.00314923
-0.00603425
-0.0143338
-0.0103385
0.000516608
0.000883786
-0.00432614
9.61693e-05
-0.063056
-0.050543
0.000615977
-0.00902235
-0.052637
-0.00330737
-0.00846709
-0.0549795
-0.0203529
-0.0199895
-0.00407289
2.74817e-05
-0.00565481
-0.0126445
0.000958772
-0.0493434
-0.051584
-0.00915343
-0.00805902
-0.0144168
0.0012383
-0.00952936
-0.0522242
-0.00867959
-0.00589956
-0.0235544
-0.0270329
-0.00945079
-0.0531792
0.00130062
-0.00149534
-0.00731334
-5.35933e-05
-0.0414815
-0.0585478
-0.0550452
-0.00524931
0.00207296
-0.00743983
0.00123173
-0.0690057
-0.0570115
-0.00100544
-0.0606847
-0.0218633
0.000437122
0.000145327
-0.0176192
0.000355119
-0.0558782
-0.0107805
0.00129206
-0.0383037
-0.0199478
-0.00960828
-0.0462337
-0.00844937
-0.0520668
-0.000976925
0.000943047
0.00170463
-0.0548504
0.00504363
0.00206472
0.000867372
0.0310122
-0.00932249
-0.000350643
0.000864971
-0.00153034
-0.0635621
-0.00245171
-0.00609733
-0.0582148
-0.0164894
-0.00318213
-0.00401553
-0.0576677
0.0017123
-0.0613111
0.000892754
-0.00872139
-0.0545411
-0.0497524
-0.00860609
0.0011339
-0.0546771
-0.0126902
0.0308994
-0.0139533
-0.0540929
-0.0428895
-0.00151733
-0.0133918
-0.00781393
-0.0332944
0.00148173
0.000873228
-0.0135096
0.0011403
-0.0566435
-0.00339073
-0.0235669
-0.00343884
-0.0550411
-0.00428847
-0.0623859
-0.00484967
-0.0548331
-0.00405446
0.000855846
-0.018472
-0.000288984
-0.0433049
-0.0174324
-0.00868827
-0.00306717
-0.0581166
-0.00191261
0.000878561
-0.00527437
-0.00876474
0.00087856
-0.0362874
-0.00379034
-0.0505358
-0.00543149
0.00125354
0.00116142
-0.0567694
0.000854941
-0.0529124
0.000771999
-0.00754821
-0.00159468
0.00285835
-0.0619617
-0.0547729
-0.00514558
-0.000100821
0.000899487
-0.0505326
0.00682783
0.00116754
-0.0441776
0.0008772
-0.00211569
-0.00642596
0.000864187
-0.0530984
-0.00537931
-0.00336861
-0.0529328
-0.0569124
0.00343222
-0.00711432
-0.0138887
-0.046261
-0.0210647
-0.0051598
0.00121108
0.00126323
-0.0555458
-0.0553674
0.00485831
-0.0565153
-0.000961431
-0.0591674
-0.00737322
0.00129143
-0.00949126
0.00091289
-0.0555799
-0.028695
-0.0150342
0.00189495
-0.00338558
-0.00114392
0.00286342
-0.0461768
-0.0408087
0.00147039
0.00110478
-0.0279715
-0.0594137
-0.0527863
-0.0551993
-0.0296755
-0.0535101
-0.000193668
0.00454289
-0.00214818
-0.0547689
-0.0589344
0.00543132
-0.0560879
-0.0187802
-0.0516023
-0.00942961
-0.0548097
-0.0647566
-0.00846285
0.00570935
-0.00374142
-0.000396976
-0.0160432
0.000799339
0.000891303
-0.0637148
-0.0528454
0.000937828
0.00295579
0.00120478
-0.05535
-0.00878104
0.000969234
0.00152504
-0.00649502
6.42178e-05
-0.00437043
-0.0136497
-0.0520297
0.000124695
-0.00129982
-0.053971
-0.00932284
0.000647538
-0.00882647
-0.0013002
0.000441581
0.000416001
0.0156531
-0.00736478
0.00534349
-0.0435967
-0.000112619
-0.0528218
0.000586114
0.00214646
0.00254255
0.00191091
-0.0556322
0.00114175
0.00149777
-0.0648328
0.00195796
0.000563343
-0.00360129
-0.0269874
0.000510095
-0.00663932
0.00288259
0.00207756
-0.0160948
-0.0460172
-0.0466939
-0.0269845
-0.0592419
0.0236965
-0.0442067
-0.026166
-0.0583974
-0.0411421
0.000618651
-0.0429541
-0.0541922
-0.0414452
-0.0380742
-3.32218e-05
-0.00141239
0.00168131
0.00272725
0.000659964
6.76368e-05
-0.0231075
-0.0557229
-0.0228914
0.0003588
-0.00157961
0.00211284
0.000321687
0.00111755
-0.0495107
0.000808352
-0.0605507
-0.0517492
-0.000706923
0.00192804
0.00320942
-0.0146638
0.00223906
-0.0611516
0.00108798
0.000908142
0.000793238
-0.0530065
-0.0498629
0.00186692
0.000897961
-0.0630681
0.00131367
4.58854e-05
-0.0578477
0.00286351
0.00185081
-0.053868
3.91232e-05
0.00206106
-0.0148209
-0.0251759
0.00373079
-0.0602763
0.000430861
0.00294548
0.000984744
-0.00234477
0.00188493
-0.0567242
0.00178161
-0.0610102
-0.0230543
-0.00331825
-0.0383161
-0.0528467
-0.0029991
0.00201005
-0.000484495
-0.0592817
-0.0552184
0.0017373
0.00208679
-0.055026
0.000898173
-0.000121821
0.00204122
0.00292708
-0.0538274
-0.00862066
0.0012419
-0.0600373
0.000896977
-0.00868685
0.00128002
-0.0140731
0.0009316
-0.0458076
-0.0533366
-0.0125189
-0.00953847
-0.0609983
-0.0102643
-0.0543371
-0.000415007
-0.00330394
-0.037898
-0.0581319
-0.00712768
-0.0439926
0.00128598
-0.00185389
0.00189847
-0.0147902
0.00242268
-0.0523703
-0.0597272
0.00174821
-0.00288938
2.91885e-05
0.0012261
-0.0599668
-0.0564756
0.00329877
-0.00571605
-0.0592655
-0.0546281
0.00173867
4.21731e-05
0.00341707
-0.0109218
0.00054087
0.0277605
-0.000341655
-0.0110044
0.000912589
0.000788902
0.00202683
0.000965683
0.000750536
0.0185656
-0.0188322
-0.0131198
-0.00703885
-0.00217409
0.000293602
0.000417394
0.00112992
-0.00279873
-0.0683211
-0.0445278
-0.0443961
-0.0592409
-0.0539291
-0.0435913
-0.00187782
-0.0394485
0.00068905
-0.0144647
-0.0203687
-0.0101978
0.001877
-0.0679764
-0.0151891
-0.060379
-0.0623804
0.00605827
-0.00151109
-0.0396301
-0.0556225
-0.0603377
-0.0128153
0.00465596
-0.00942339
0.00458818
-0.016312
-0.00939813
-0.0457852
-0.00734603
-0.0113805
-0.0194806
0.0044736
0.00119627
-0.0332605
-0.0132345
-0.00442145
-0.00127667
0.0167479
-0.0571489
-0.00979019
-0.0560673
-0.00749398
-0.00120719
0.0289834
0.00198097
-0.0580472
0.00321745
-0.0535501
-0.00186638
0.000101605
0.0011958
0.00112262
0.00104967
-4.35492e-05
-0.0100409
-0.0524164
-0.00500975
-0.00427722
-0.0166821
-0.0570261
-7.65693e-05
-0.00709345
-0.00851546
-0.054937
-0.0527571
-0.00118167
-0.0524433
-0.00819919
-0.0544499
0.0012306
0.00131684
0.000789647
0.00138241
0.00110301
-0.0689589
-0.06096
-0.0357002
0.00455729
0.0183017
-0.0101064
0.00560468
0.0274358
0.0045725
-0.00967616
0.000191449
-0.0575561
0.0016264
0.00431852
-0.0291738
0.00592337
-0.06898
0.0200711
-0.000343684
0.00433206
-0.0232717
-0.00884645
0.0184433
0.000955973
0.00259011
0.00266431
-0.0356337
-0.0235378
-0.00775862
-0.0699256
-0.0121179
0.000172865
-0.0200902
-0.0126559
-0.00799306
0.000170443
0.0142503
-0.0692955
-0.00261907
-0.00584596
-0.0112543
0.000249811
0.0287941
-0.0209762
-0.010671
-0.0157253
-0.0546326
-0.0506602
-0.00212258
-0.0215347
-0.00266076
0.00126451
-0.00121928
-0.0222692
-0.0580896
-0.009098
-0.0577822
-0.053224
0.000302236
-0.00842673
-0.0129516
-0.00883261
0.00339477
-0.0215761
0.00163315
0.000349515
-0.0548728
-0.019891
0.0282226
0.0407504
-0.038402
-0.00210402
-0.0219078
-0.0410441
-0.00804781
-0.000625644
-0.000146589
-0.0671418
0.00108621
-0.000748469
-0.063828
-0.0366251
-0.0510721
-0.0622291
-0.0548675
-0.0173507
-0.065107
0.00279884
-0.00412705
0.0235743
0.00271554
-0.00978891
0.00284675
-0.0158151
-0.045319
-0.0554267
-0.0128052
0.000568572
-0.00323243
-0.0407399
-0.0597422
-0.037084
-0.0563942
-0.0534656
-0.0703266
-0.0316138
0.000258034
-0.0366595
-0.00355065
0.00246032
0.00338918
-0.060733
-0.00869004
0.00665978
-0.0546514
-0.0111068
0.000908702
-0.029267
-0.0370106
0.00299858
0.00195549
0.000907098
-0.0184874
0.0002655
-0.00858709
-0.0102851
-0.015683
-0.0129831
-0.00386362
-0.0611177
0.00114217
-0.0533305
-0.0579415
0.000565131
0.00108191
-0.0606081
-0.0463748
0.00032365
-0.0343018
-0.0564066
-0.00140816
-0.0378648
-0.000378251
0.00147396
0.00296631
-0.0294373
0.00226733
-0.0348268
-0.020626
0.00220571
-0.054657
-0.00947106
0.0400655
0.000851643
0.00149465
-0.0600282
-0.0013373
-0.00141808
-0.0546916
-0.00376169
-0.0360559
0.000877312
0.030154
-0.0597506
0.00210632
0.000516113
-0.0447445
0.00179123
0.00230888
-0.0537614
0.00196546
-0.0341846
-0.0234799
0.00274306
0.00193346
0.00015393
-0.0548743
0.00179842
0.00882092
-0.0467533
0.00126204
0.00186713
-0.00721904
-0.00767724
-0.0369906
0.00308633
-0.0145621
-0.0210664
0.00125216
-0.0219003
0.000620535
-0.0457813
-0.0463609
-0.054855
-0.053769
-0.0547361
-0.00626778
-0.0198029
0.00183156
-0.00370035
0.00126845
0.00239263
-0.0194467
0.00191774
-0.0297398
0.0150148
0.0403346
0.0020408
-0.0528356
0.00270949
-0.0217733
-0.065219
-0.0540091
-0.0453897
9.7587e-05
0.0014824
-0.0548203
0.00083268
-0.0379192
0.018604
-0.00214178
0.000720084
0.00168757
-0.00489839
-0.0070683
-0.0566149
4.73646e-05
-0.059358
0.00144304
-0.0549047
-0.0103953
0.000940151
0.0045034
-0.0446106
0.0020873
0.00139965
0.00115863
-0.00394772
0.000665816
0.000935663
-0.0106748
-0.053778
0.00172152
-0.0546327
-0.0303284
-0.0597071
-0.0545461
-0.0533547
-0.0235521
-0.00544665
-0.0629818
0.0347986
-0.00153757
-0.0375189
-0.0118457
0.00113641
-0.00378489
-0.00456668
-0.0190274
-0.0535981
-0.0539656
-0.0251071
-0.0548852
-0.0418292
-0.0102804
0.000899809
-0.0543165
-0.00739421
-0.0351527
-0.0356103
0.00109383
-0.00356889
-0.000188975
-0.05997
-0.0535028
-0.0526115
0.00210138
-0.0167344
-0.00884213
-0.00801974
-0.00117451
0.00332042
-0.0542087
-0.052669
-0.0275408
-0.0531854
0.000938757
-0.007754
-0.00766055
0.00319828
-0.0517729
-0.00987077
-0.0449701
0.00136017
-0.00834882
0.00545661
-0.0449468
-0.00658917
0.0037658
3.97298e-05
-0.0365736
0.001367
0.00326232
0.00191786
-0.00829051
0.0011001
0.00110836
0.00262164
-0.00349793
-0.0265044
-0.0419705
-0.0038794
0.000260901
-0.0302663
0.00122305
0.00120416
-0.0085446
-0.0549721
-0.0633209
0.00226618
-0.00247193
-0.0179434
-0.0628349
-0.0292636
-0.0155068
-0.0450432
-0.00315596
0.00206626
0.000608993
-0.009148
-0.0519519
0.00202789
-0.0556312
-0.0525866
-0.00363911
0.00090794
-0.0185889
-0.0112614
-0.00893842
-0.00299363
-0.0207753
0.00108577
-0.0531931
0.00109055
-0.0620282
-0.00735003
-0.000225669
0.00149203
-0.0283087
-0.0557026
-0.0383654
0.0196401
-0.0275215
0.000920325
0.00110065
0.00149034
-0.0108798
-0.0105675
0.0253018
-0.053451
-0.060243
-0.0257935
-0.0152974
-0.032625
-0.000273179
0.00142062
0.00345542
-0.00710732
-0.053823
-0.00734256
-0.00351667
0.00204837
-0.067462
-0.0351043
0.00125268
-0.00716581
-0.00359744
-0.00783283
0.00193738
-0.0334062
-0.00813938
0.00619938
-0.0520863
-0.0540161
-0.0601093
-0.0351603
0.00379186
0.000251688
0.0327121
0.0351777
-0.00232028
-0.00850379
-0.012796
0.000904197
-0.0129833
0.000899022
-0.0333994
0.00192888
-0.0106479
-0.00317697
0.000905179
-0.0544291
-0.0512215
0.00121304
-0.0487468
-0.012963
-0.000677211
0.000899232
-0.0540263
-0.00965777
-0.0287935
-3.36015e-05
0.00308317
0.01763
-0.0553452
0.00170244
-0.0257764
0.000350215
-0.00127286
-0.0567062
-0.0138916
0.000983402
0.0345187
-0.0515886
-0.00965557
-1.93828e-05
-0.0128259
-0.0176172
-0.000261935
-0.0578388
0.00365864
-0.0226579
-0.062632
-0.0555565
0.00102634
-0.00973691
-0.0574537
0.000866828
0.000476276
-0.00886308
0.00269871
0.0011291
-0.0095733
-0.00961273
0.00583761
-0.011227
-0.0224159
-0.0531525
-0.0576364
-0.0443882
0.00325597
0.0377199
0.0016537
-0.0419543
0.00197423
-0.0292761
0.00163154
0.000977402
-0.064411
-0.0238447
-0.0567669
-0.000632817
0.00405291
-0.0604406
-0.0218842
-0.0532384
-0.0551751
0.000920757
-6.5029e-05
-0.00523277
-0.0132687
-0.0443236
0.00145805
-0.0299719
-0.0125345
-0.00110985
0.00586925
-0.0384743
-0.0417937
0.00108747
-0.0633755
0.02096
0.000986101
0.00451673
-0.0113428
-0.0123003
-0.0071358
-0.0574391
0.00577076
-0.0663327
0.000890775
0.000868296
0.00141074
-0.0553808
0.000886156
0.000680908
0.000955267
0.00139277
-0.0560086
-0.00297003
-0.00141642
0.00204116
-0.0144447
0.0363073
-0.0513677
-0.00323143
-0.054654
-0.0424336
0.00132691
-0.0178022
-0.0478069
-0.0366351
0.0182161
0.000655964
0.0012858
-0.0303572
-0.00691385
-0.0337061
0.000909197
-0.021909
-0.0166078
0.00165571
0.000769808
-0.00671772
0.000150207
0.00116731
-0.00541451
-0.0113353
-0.0146109
-0.0502116
-0.00156954
-0.0150044
-0.0635173
-0.0327685
0.000353143
-0.00307983
0.000873407
0.00158156
0.00113448
0.00191133
-0.0532617
0.00176708
-0.0062384
0.00133302
0.000956407
0.00143463
-0.0554382
-0.0397433
-0.028798
0.000837835
0.00202046
-0.0104834
0.00219087
-0.0211188
-0.0079838
0.00116538
-0.00919963
-0.0210697
-0.00930307
-0.00753775
-0.0409689
0.00370338
-0.0528352
-0.0569223
-0.0173537
-0.00528184
-0.0013541
-0.00689636
-0.067928
0.000850262
0.00411813
0.0259478
-0.0222262
-0.00867695
0.000301015
-0.0558408
0.000510486
-0.0346176
-0.0583692
0.00226152
0.000744214
-0.00331564
-0.0152556
-0.0124737
-9.19786e-06
0.000802091
0.000296471
-0.00321151
-0.0543921
0.00344949
-0.00878174
-0.0634008
-0.0451141
0.00296836
-0.00955345
-0.026558
-0.0027037
-0.00674244
0.00286193
-0.0386145
-0.00310329
-0.0233763
-0.0131027
-0.0389323
0.00983081
-0.00761113
-0.0214989
-0.0401087
0.000944393
-0.00680514
0.000969366
0.000456496
-1.74151e-05
-0.0388644
-0.0163047
0.00155832
-0.00742051
-0.0153082
0.00101328
0.0025545
-0.0255566
0.0242779
-0.0111998
-0.033978
0.000417115
-0.0154606
-0.0142782
0.000945023
-0.0640144
0.000985575
-0.0165349
-0.00808768
-0.00329974
-0.0219222
-0.0336291
-0.00779539
-0.0433721
0.00195046
-0.00617739
0.00216077
-0.0229839
0.00308796
-0.029181
0.00163944
-0.0339671
-0.0519238
-0.00111717
-0.0415417
-0.0175339
-0.00783764
-0.0183134
-0.00586824
0.00200772
-0.00941695
5.04205e-05
-0.00185668
-0.00549528
-0.0151311
-0.0647384
-0.0171638
0.0051783
-0.0429487
0.00115494
0.00110201
-0.0126729
0.0200252
0.00156896
0.000980916
-0.0241436
0.000904648
-0.0544854
-0.0284906
-0.00480843
0.00091438
-0.0128651
-0.000921709
-0.00279236
-0.00056951
-0.0642803
0.00200832
-0.00781029
0.0183688
0.00166834
-0.025273
-0.0451903
-0.0240291
-0.0297564
-0.00853801
-0.01746
-0.000674743
0.00163084
-0.00463973
0.00154402
0.000925113
-0.0154838
-0.00668016
-0.0299619
-0.040808
-0.0126687
-0.0528498
0.00127928
0.00121053
-0.00579935
-0.0497827
-0.0168734
-0.0165955
0.00133407
-0.0455162
-0.00811167
-0.0011938
-0.00568838
0.00102659
-0.0593265
-0.0252788
-0.00760198
-0.0040558
-0.0162933
0.0011577
-0.0345522
-0.0449891
0.00160278
0.00519073
0.00125472
-0.0173186
0.00114017
0.000736172
-0.0555804
-0.0210448
0.00120037
-0.0582663
-0.0526885
0.000883243
0.00113233
0.0200065
-0.051699
0.00493191
0.000963919
-0.0296569
0.00533074
-0.0540479
0.00380091
0.00142656
-0.0294448
0.00115839
-0.00652145
-0.00549802
-0.000554896
-0.00298138
-0.00749502
-0.000535778
-0.000405643
0.000890746
-0.0141038
-0.00810243
-0.014457
-0.054899
-0.00788127
-0.017624
-0.00967789
-0.0159991
0.000913268
0.00117909
0.000660707
-0.028296
0.00162583
-5.28919e-05
0.000811784
-0.0131961
0.00066509
-0.0217657
-0.0482035
-0.0153432
-0.00428962
0.00159244
-0.0221101
-0.0401931
-0.0453491
-0.0521582
-0.0151497
-0.00491929
-0.000436673
-0.0378131
-0.0139908
-0.00851154
0.0203512
-0.00730002
-0.00125593
-0.053636
-0.0535189
-0.00322551
-0.0400268
4.77846e-05
0.00196129
-0.00148467
-0.00973791
0.00167339
-4.17044e-05
-0.0170634
-0.00124326
-0.00187259
-0.0582034
-0.0345468
-0.0255237
-0.000131317
-0.00618597
0.00124166
-0.00824811
1.904e-05
-0.0002138
-0.0376996
0.000331215
-0.0253121
-0.0160355
-0.0133145
-0.00980061
-0.04857
-0.00625041
0.0012175
-0.0520972
-0.018761
-0.0542691
-0.0179762
-0.0544295
-0.00981485
-0.0457905
-0.0170379
-0.0382309
-0.0514849
0.0015204
0.00639259
0.000119646
0.000110071
0.0160639
-0.0389654
-0.053342
0.000512432
-0.0379848
0.00307869
-0.0213264
-0.0171141
-0.00987717
-0.00765118
-3.95728e-05
-0.0625154
0.00183876
-0.030953
0.0012138
0.000145111
-0.0552516
-0.00370566
-0.00298756
-0.0383232
0.00591202
-0.00784208
0.00122234
-0.0186262
0.000111377
-0.0342467
-0.0574565
0.000791354
-0.00965933
-0.0380337
-0.00989689
0.00720888
0.0020516
0.000110157
-0.0133455
-0.0377652
-0.0183923
-0.0695315
0.000557147
-0.0119138
-0.00972597
0.000568128
-0.0127639
-0.0531551
-0.0158026
0.000248993
-0.0101214
-0.0448483
-0.00360264
-0.000210557
0.000985111
0.00682556
-0.0543211
-0.0273361
-0.00788754
0.000828725
0.00423535
-0.0415749
0.000997779
-0.000154946
-0.00362701
-0.0155809
4.54548e-05
0.000863506
-0.00767163
-0.00531134
-0.0574983
-0.000635063
-0.0431611
-0.0108005
-0.0105723
-0.0206068
-0.0126747
-0.035992
0.00114478
-0.045418
-0.0429244
-0.0320634
-0.00327764
-0.054979
0.00322708
-0.000251241
0.0018984
-0.0569443
-0.0592443
-0.00442196
-0.00303189
-0.00676465
-0.00270356
0.00117512
-0.00361449
-0.0519453
-0.0459467
-0.0545294
-0.00817435
-0.0212953
-0.000300208
0.00117457
0.0012044
-0.0536637
-0.0354608
-0.058977
-0.00504385
-0.00049658
-0.00762388
-0.0559709
-0.00332241
-0.0526481
-0.0116044
0.00108485
-0.00271346
-0.0494009
-0.0217746
-0.0594523
-0.0129544
-0.0221541
-0.0186235
-0.03509
0.00122136
-0.0204343
-0.0375701
-0.00468042
-0.0123627
0.00219008
-0.00316019
0.00582417
-0.00715517
-0.00229331
0.0204777
-0.00338711
0.00104083
-0.0526234
-0.0534106
0.0406408
0.00298838
-0.0222067
-0.0557478
0.0065803
0.000153834
-0.00328615
-0.058557
-0.00940312
0.00035007
-0.00320624
-0.010946
-0.0581693
-0.0178124
0.000992586
0.00615198
0.000496021
-0.00258996
0.00181912
-0.00553119
0.000876673
-0.00648427
-0.0528465
-0.0204938
-0.0033696
-0.00973155
-0.0566207
-0.0356317
-0.0548473
0.00132696
-0.0222715
0.000779142
-0.0583026
0.00130073
-0.00121755
-0.0427734
-0.00316452
-0.0179813
-0.0350999
-0.0690047
-0.0578796
-0.0172718
-0.0578697
-0.0454997
-0.0128597
-0.010971
0.00175563
-0.0006901
-0.00550716
-0.00182616
-0.0551628
0.00123815
0.000924294
-0.000430728
-0.0462309
-0.0515438
-0.0479257
0.00194823
0.000928678
-0.0402531
-0.0519437
0.00174872
-0.00138261
-0.00334239
0.00124598
-0.00641159
-0.0181866
-0.0267805
-0.0481772
-0.0207152
0.00115159
-0.0218521
-0.00107136
-0.0589356
-0.0166261
0.00208613
-0.0552314
-0.0120287
0.000280839
0.00145045
0.00115011
0.000647421
0.00059643
0.00178584
-0.0306259
-0.00176742
-0.00644925
0.0212732
-0.0151064
-0.0541417
-0.0121088
-0.00348107
-0.00547182
0.00116462
-0.0203829
0.000677811
-0.0533004
0.00118646
-0.00543906
-0.0167408
-0.0159894
7.02771e-05
-0.00234245
-0.00295033
-0.0555029
0.00260887
0.00507844
-0.0587975
-0.0237759
-0.0539062
-0.0284606
-0.0540608
-0.0107158
-0.0644615
-0.0136558
-0.00646975
0.000987371
-0.00584868
0.000296289
0.00081558
-0.0227063
-0.0123478
-0.0610353
-0.0603203
-0.0150495
-0.00897094
-0.0264382
0.000586658
-0.037897
0.00084377
0.0021052
0.00108417
0.00100134
-0.0171394
-0.0536068
-0.0523403
0.000232231
-0.0463291
-0.0437439
-0.000168338
-0.00544951
-0.0459054
-0.00124786
-0.0123852
-0.0408831
-0.0520658
0.000946621
-0.0122552
-0.0125707
-0.060906
0.00103725
-0.0559778
0.000648678
0.000919272
0.00109168
-0.0106776
-0.0604516
0.000849412
-0.0103336
0.000221889
-0.0444991
-0.0235461
0.00508606
0.000572498
-0.049772
-0.0169664
-0.00119962
0.000270961
0.000603598
-0.0260518
0.0012078
-0.0314651
-0.0356255
0.00119819
-9.46819e-05
0.000896061
-0.0024851
0.000715508
-0.0142694
-0.00132323
-0.0202501
0.00332096
-0.0149485
-0.0552798
-0.0658737
0.01245
0.00091656
-0.000569515
-0.0344658
-0.0412697
0.00250317
-0.0138034
-0.00192275
0.00175525
-0.012119
-0.0458205
-0.055678
-0.0533143
-0.0555315
-0.0020004
-0.0188291
-0.040022
-0.0141801
-0.00126475
0.0012783
0.000717139
-0.0576232
5.05235e-05
-0.010039
-0.0575809
-0.0530075
-0.0236292
-0.00219893
0.000913584
0.00187917
0.00144907
-0.0100948
-0.0162669
-0.0221376
-0.0377517
-0.00543819
-0.0121994
-0.0550437
0.000932084
-0.00442788
-0.0355039
-0.0157254
-0.0576442
-0.00715137
-0.0572252
-0.0260824
0.000972637
-0.0543901
-0.00805619
-0.0437442
-0.0105634
-0.005343
-0.038507
-0.0187998
0.000699406
-0.0519454
-0.0752449
0.000156106
-0.00243463
-0.0559862
-0.0456188
-0.0040935
-0.0588536
-0.0153719
0.00338285
-0.00326199
-0.0531053
-0.0100649
0.00136779
0.000153847
-0.0521354
0.000386614
-0.0172313
0.00598178
0.00316337
0.000587209
-0.00190293
0.000472986
-0.0537594
0.00267846
-0.00178741
0.00838614
0.00133344
-0.0022642
-0.000973546
0.000961806
-0.00553219
0.00173182
-0.00564905
-0.00187723
-0.00404191
0.00114487
-0.0392652
-0.0151267
-0.0361276
0.000651137
-0.0134725
0.0014896
-0.023101
-0.00354248
0.0194649
0.00113851
-0.00210839
-0.0416163
-0.0164968
-0.0538415
-0.0528758
0.000981107
-0.0531424
0.00112909
-0.0491049
-0.00416124
-0.0546804
2.97612e-05
-0.0103988
0.00304919
-0.00494046
-0.00380556
-0.00300524
0.00139317
0.00172242
-0.00223873
0.00206562
0.00292206
0.00222307
0.000397628
-0.00959539
0.00109726
0.00051596
-0.00398664
-0.0553778
-0.0614269
0.0010908
0.000479413
0.0211273
-0.0605739
0.00114585
0.00110299
0.000324783
-0.0323185
-0.0175451
-0.0545195
-0.0386738
-0.0208693
-0.0256631
-0.0431413
-0.0122963
-0.0354253
-0.0272353
-0.0657496
-0.000297761
0.00103122
-0.0545681
-0.0609407
-0.00489735
-0.0119038
-0.00914435
0.00178018
-0.0279962
-0.0554666
-0.0516589
0.00146988
-0.0557271
0.00204502
-0.0376503
0.00623146
-0.00572673
0.000325129
0.00145309
-0.0542366
-0.00894165
0.00141275
-0.0602835
-0.00103301
0.00250062
-0.00999593
-0.0269929
0.00254604
0.00243672
-0.0256649
0.00142919
0.000526183
-0.0361546
0.00197317
-0.0682573
0.00137547
-0.0339936
-0.000142606
-0.0544085
-0.0406361
-0.037159
-0.00840072
-0.0536381
5.18956e-05
-0.0563534
0.00141414
-3.28132e-05
-0.0119746
0.00128657
-0.0227109
0.0025564
0.00129668
-0.0119862
-0.0180484
0.00103394
-8.20577e-05
0.000137976
-0.0536852
-0.0102683
-0.0447461
-0.00182954
0.00129129
-0.000413325
-0.00214259
-0.0533006
-0.00326072
-0.0032816
-0.00553194
-0.0541397
-0.0536145
-0.0172488
0.00328934
-0.0174309
0.00170138
-0.0308488
0.0168466
0.00103398
2.81475e-05
-0.00191371
0.0152034
0.000339177
-0.00888879
0.00132286
0.004697
-0.0129986
0.000429799
-0.00362124
0.00102458
0.00165885
-0.0619191
-0.0341475
-0.0211126
-0.0397756
-0.053123
0.00154855
0.001597
0.00020555
-0.0532989
0.000693422
-0.0103308
-0.00024468
-0.00260886
0.000282085
-0.0256822
0.00207352
-0.0164328
-0.00235832
0.000414306
-0.0011101
-0.0551333
-0.0174218
-0.00406409
0.00168224
0.00177604
-0.0533575
-0.00210251
-0.0547829
0.00141657
-0.0332275
-0.0522823
0.00803495
0.000884523
0.0233421
-0.00846175
-0.00241825
-0.0167086
-0.0603892
-0.040998
-0.0345376
0.000931877
0.00115648
-0.0560829
-0.000206848
-0.01621
7.8031e-05
0.00310735
0.00171325
0.0015558
0.00100553
-0.00388696
-0.0539185
0.00103683
-0.0427775
-0.059104
-0.0193826
-0.0544658
0.000982054
-0.0228247
-0.00242508
0.00177836
-0.0610944
-0.0100101
-0.0530086
-0.00989302
0.0178562
-0.00114036
0.00105261
-0.0453991
0.0040556
-0.000893828
-0.00562945
0.0189959
0.00250127
-0.0191335
0.000829405
0.00607139
-0.000466049
-0.0589398
-0.0506076
-0.0135634
0.00330187
0.00105067
-0.0619788
-0.0097205
0.0010692
0.000288273
0.000293944
0.00831943
-0.0552331
-0.00112413
-0.0135108
-0.0591669
-0.034607
-0.0414171
-0.0487402
-0.0071726
-0.0104105
-0.000145013
0.000924006
0.00320707
0.00106284
-0.0260825
0.00162811
0.000922147
-0.0252998
-0.0191018
-0.00348266
-0.0540023
-0.00953946
-0.0106128
-0.0142654
-0.0648641
-0.0102216
-0.000461978
-0.0035676
-0.0412286
-0.0243452
-0.0544519
0.0016022
-0.0453524
-0.0355481
0.00129224
-0.0518342
0.0013427
-0.000930677
-0.0472347
-0.0557679
-0.0531936
-0.0556022
-0.0361172
0.000296969
-0.0530976
-0.0319346
-0.0090546
0.00122886
-0.0111901
-0.00216965
-0.0541438
-0.044831
-0.05903
-0.00321813
-0.0533283
-0.053624
-0.061233
0.00125923
0.00152651
0.00179642
-0.0327674
-0.0011231
-0.0229538
-0.0407141
-0.037086
0.0022288
-0.00507276
-0.00719999
-0.0516511
-0.00412117
-0.000472119
0.00102065
0.00103726
-0.053114
-0.00753332
0.00154277
0.000127395
-0.0143374
-0.0411013
-0.00924279
0.000439947
-0.00161622
0.00211377
-0.00193486
-0.00306697
-0.0109373
-0.058126
-0.0595512
0.00107877
-0.0427425
-0.0196029
0.0004307
-0.00160165
-8.98218e-05
-0.0587617
-0.00178043
-0.0366492
-0.0414481
-0.0702696
-0.0102091
-0.0523198
-0.00781328
-0.0178153
-0.0015531
-0.0304984
0.00979248
-0.00344983
0.00195069
-0.0112333
-0.0523551
-0.059883
-0.00717965
-0.0207338
-0.0133099
0.000854038
-0.0685011
-0.000733637
0.00150287
0.00114572
-0.00333882
-0.0113233
-0.00671875
-0.0137678
-0.00811185
-0.0382356
-0.055507
-0.0095097
-0.0552214
-0.00360592
-0.0105486
-0.0415551
0.00174161
0.00119204
-0.0137725
-0.0533641
-0.00904442
-0.00732652
-0.0557953
0.000993631
0.000902176
-0.00946435
-0.00336102
-0.0254466
-0.0040463
-0.0366833
-0.0543537
0.000616609
-0.0072528
-0.00807858
-0.0719048
0.0214594
-0.054119
-0.00675592
-0.0295089
0.000831595
-0.0355756
-0.0123807
0.00120902
-0.00260637
0.00143618
0.000948644
-0.0132711
-0.0534238
0.0103027
-0.0341578
-0.000782226
-0.0146856
-0.00947218
-0.0192188
-0.000246944
-0.00637942
-0.0591266
-0.00153735
-0.0411396
-0.0411097
-0.0105276
-0.0296474
0.00176582
-0.0501091
-0.0223604
-0.0374406
-0.00844986
-0.00497916
7.4129e-05
0.00107876
-0.0215389
0.00250769
0.00102962
-0.00732339
-0.039248
-0.00805681
0.00191689
0.0238374
-0.0513372
-0.0106636
-0.0534372
-0.00435083
-0.01366
0.000949396
-0.0534565
-0.0516326
-0.00827612
-0.0182719
8.2768e-05
-0.000280512
-0.000647571
-0.00345866
0.000872462
0.00076306
-0.0264664
-0.0180808
-0.0227575
0.0123934
-0.0075932
-0.0366208
-0.0156666
-0.0540222
-0.00484756
-0.00828775
-0.016576
-0.00532713
-0.0550634
-0.0534952
-0.00960005
-0.0450909
-0.044018
0.00251381
-0.0017241
-0.0452066
0.00566518
0.000136602
3.46998e-05
-0.0588717
-0.00488111
0.00138864
-0.00414713
-0.0083354
0.00472661
0.0013419
0.00160741
-0.000743072
-0.037075
0.00291866
-0.00972375
-0.00595359
-0.0287987
-0.0425791
0.00171865
-0.0422943
-5.0277e-05
0.00206288
-0.02721
-0.0345718
-0.0452803
-0.0545247
-0.0289636
-0.0704494
-2.19574e-05
-0.00501431
-0.0136821
-0.0534297
0.00110156
0.00228047
-0.045314
-0.0308724
-0.0610027
-0.00248627
-0.00479735
-0.0186111
-0.0166554
-0.0111721
-0.0452883
0.00115307
-0.0366031
-0.0573577
-0.00163093
0.00130769
-0.00138575
-0.0586368
-0.0295979
-0.0103874
0.00154806
0.00102712
-0.0218229
-0.00292659
0.0018301
-0.022089
-0.0158053
-0.0226267
0.00269307
-0.000490101
-0.0515634
0.00136348
0.00259872
-0.0359694
0.00314905
-0.0447646
0.00447516
-0.0175906
-0.0538981
-0.0207802
-0.00690046
0.00110492
-0.0156981
-0.00510637
0.000854914
-0.0243806
-0.0411275
-0.0271734
-0.0289784
-0.00604091
-0.036082
-0.0146435
-0.0042321
0.00199633
-0.0341602
0.000530182
-0.0562624
0.0187311
-0.0314291
0.000601951
-0.0405336
0.00102422
-0.0550535
0.00101774
0.000266803
-0.000673688
-0.0340537
-0.0038513
0.00126119
0.00254245
-0.0604612
-0.0610022
-0.0229787
-0.00359702
-0.0403306
-0.00522143
-0.0168172
0.00122814
-0.0630098
0.00193286
-0.00257541
-0.0168183
0.00134087
0.00136876
0.00151109
-0.00755448
-0.032042
0.00101234
-0.0454495
-0.0176796
-0.0555136
0.00113825
-0.0449003
0.0021614
0.0011607
-0.0339926
0.000916911
-0.0548932
0.00157951
-0.0279981
0.00970924
0.00131949
-0.0143536
-0.0205977
3.51964e-05
-0.00647246
-0.00597514
-0.0319495
-0.0259107
-0.0125663
0.00107258
0.00138425
-0.0153643
0.00315457
-0.00104978
-0.00581448
-0.00694043
-0.0348877
0.00545577
-0.00907022
-0.0398271
0.00121034
-0.000541833
7.91161e-05
0.00541041
-0.00959399
-0.0536543
4.35965e-05
-0.0548387
-0.0679778
0.00108337
-0.0538611
0.00129395
0.000554891
-0.000467961
0.000277656
-0.0532701
-0.00312721
-0.0248133
-0.0686166
-0.0337564
-0.00327281
-0.0028117
-0.00990673
0.000303624
0.00115266
-0.0452049
0.00444825
0.00489722
3.59188e-05
-0.00360381
-0.0133002
0.000597402
-0.0238453
-0.043518
-0.0169802
-0.000501632
-0.0717854
0.00111691
-0.00235568
-0.000636522
0.000211365
0.00126186
-0.0342068
-0.0513932
-0.00529404
0.000979136
-0.0111362
-0.00289791
0.00137063
-0.0123082
-0.0476014
-0.00651029
-0.0123541
-0.0536314
-0.0354097
0.00129658
-0.054985
-0.0160949
-0.00062485
0.00116753
0.00100369
-0.0239295
-0.0537015
-0.000581632
0.00117156
-0.0366096
1.67752e-05
-0.00399975
0.0018833
1.87961e-05
0.00118251
0.000595421
-0.034973
-0.032793
0.00110927
-0.00961618
-0.0228208
-4.03119e-05
-0.0131946
0.000813412
0.00113309
-0.010749
-0.000151365
-0.0132097
-0.00392511
-0.00886718
0.0156755
-0.00287047
0.000549249
-0.0153512
-0.021745
0.000967678
-0.0684559
-0.0610684
-0.0537105
-0.062635
0.000138869
-0.0226184
0.00529591
-0.0655271
0.000895515
-0.00464744
-0.0160213
5.46726e-05
-0.0498038
-0.0433089
-0.00736799
0.0035157
-0.0541035
-0.0108014
-0.0336392
-0.0344179
0.0168772
-0.0225976
-0.022072
0.0232956
-0.061701
0.0222662
-0.0549584
-0.0186941
0.0019322
0.000879821
-0.00764978
-0.00725591
0.000153746
-0.0344453
-0.0529342
-0.00362989
-0.0293392
-0.0689359
-0.0541103
-0.00331127
-0.00252182
0.000861976
-0.00225384
-0.044471
-0.0524277
-0.0542653
-0.0544925
-0.053956