/*--------------------------------*- C++ -*----------------------------------*\
| =========                 |                                                 |
| \\      /  F ield         | OpenFOAM: The Open Source CFD Toolbox           |
|  \\    /   O peration     | Version:  v2012                                 |
|   \\  /    A nd           | Website:  www.openfoam.com                      |
|    \\/     M anipulation  |                                                 |
\*---------------------------------------------------------------------------*/
FoamFile
{
    version     2.0;
    format      ascii;
    class       surfaceScalarField;
    location    "400";
    object      phi;
}
// * * * * * * * * * * * * * * * * * * * * * * * * * * * * * * * * * * * * * //

dimensions      [0 3 -1 0 0 0 0];
oriented        oriented;


internalField   nonuniform List<scalar> 
81438
(
-0.215914
0.316423
-0.10051
-0.294592
0.104941
0.189652
-0.311208
0.0952945
0.0465115
0.0139419
-0.0604534
0.0506163
-0.0837253
0.033109
0.249093
0.0673308
-0.206543
-0.0684501
0.274993
-0.0445504
-0.0119658
0.0565162
0.0107029
-0.0603137
0.0496109
0.0432376
-0.102255
0.0590178
-0.331953
0.220206
0.111748
-0.0491168
0.0435356
0.00558114
-0.362616
0.269709
0.0929073
0.07191
-0.282363
0.210453
-0.0648204
-0.249223
0.314044
-0.269826
0.346222
-0.0763956
0.0157319
-0.0133676
-0.00236432
0.238936
-0.228155
-0.0107813
-0.333912
0.0640859
0.0480658
-0.0112294
-0.0368363
0.183297
-0.0438111
-0.139485
-0.104966
0.167839
-0.062873
-0.0765352
0.297661
-0.221126
0.276164
-0.0373409
-0.238823
0.0389332
-0.256535
0.217602
-0.019334
0.081026
-0.061692
0.287815
-0.148764
-0.139051
0.237308
-0.302128
0.0921032
-0.0331107
-0.0589925
-0.316329
0.138473
0.177856
-0.0864015
0.17078
-0.0843788
0.0571283
-0.204625
0.147497
-0.231926
0.329009
-0.0970829
0.149449
-0.114175
-0.0352739
-0.221574
0.284646
-0.0630714
0.299286
-0.149429
-0.149858
0.0664598
0.0531119
0.150329
0.119666
-0.269995
-0.0989387
0.0560749
0.0428638
0.259216
-0.134481
-0.124735
0.0969121
-0.113768
0.0168561
0.377023
-0.16826
-0.208763
0.125717
-0.212889
0.087172
-0.142583
-0.096055
0.238638
0.165709
-0.275369
0.10966
0.16343
-0.218826
0.0553958
-0.251472
0.00777943
0.243693
0.116049
0.171766
-0.141662
0.29199
-0.15254
0.0475738
-0.130215
0.295924
0.257961
-0.237547
-0.0204144
0.285701
-0.235785
-0.0499154
0.147014
-0.0938231
-0.0531906
-0.140088
0.0867452
0.0533423
-0.172766
-0.159187
0.00857565
-0.053126
-0.119427
-0.0603738
0.1798
-0.172292
0.062562
0.10973
-0.290428
-0.0175523
0.307981
-0.054314
-0.0446247
0.193358
-0.146933
-0.0464247
-0.202924
0.0894529
0.113471
-0.149749
0.208721
-0.058972
-0.0103525
-0.00603982
0.0163923
0.145917
0.113299
-0.138128
-0.118105
0.256233
0.00266911
0.020355
-0.0230242
-0.0149671
0.272928
0.0362912
-0.242834
0.0200249
-0.0112431
-0.00878174
0.207197
-0.29154
0.0843426
0.0996708
0.047343
-0.258842
0.0269158
-0.056527
-0.219454
0.275981
-0.28248
0.031008
0.142874
-0.219827
0.0769527
-0.128094
-0.0203474
0.148442
-0.00683193
0.103744
-0.0504083
0.102721
-0.0523131
0.239711
0.0364531
-0.215788
0.100193
0.115595
0.0113175
0.00870736
-0.0195614
-0.00139907
0.0209605
0.131563
-0.224546
0.0929825
-0.221876
0.294595
-0.072719
0.0409606
-0.0455988
0.00463823
-0.0569905
0.240287
-0.300173
0.0782964
0.058701
-0.00425515
-0.0544458
0.0855901
0.187751
-0.273341
0.146145
0.153141
0.0185031
0.00314292
-0.021646
-0.0685725
-0.147215
-0.192571
0.277491
-0.0849198
-0.113385
0.082425
0.0309596
-0.141746
-0.0442683
0.186014
-0.0395429
-0.139208
0.178751
0.213382
-0.0876646
0.225936
-0.319789
0.0938537
0.335457
-0.18254
-0.152917
0.00333295
-0.0387286
0.0353957
0.0436091
-0.0532888
0.0133088
0.03998
0.180423
-0.281415
0.100991
-0.0145072
0.0592776
-0.0447704
0.282025
-0.0748276
0.0549801
-0.0835627
0.0285826
-0.233117
0.326829
-0.0937119
-0.152915
0.23309
-0.0801753
0.031824
-0.21953
0.187706
-0.00351913
-0.124575
0.0072521
0.00758679
-0.0148389
0.205843
-0.157089
-0.0487545
0.264885
-0.148835
0.0773741
-0.244285
0.166911
-0.00464956
0.243586
0.157883
-0.21304
0.0551571
-0.0973424
0.277766
0.1809
0.154557
-0.275123
0.193116
0.0820066
0.0504139
-0.0534517
0.00303785
0.0731566
-0.0924906
0.165464
-0.0651198
-0.100344
-0.020103
0.121776
-0.101673
0.0150526
-0.00283054
-0.0122221
-0.0513246
-0.141556
0.19288
-0.133234
0.0759026
0.0573316
0.0235343
-0.0208652
0.211365
-0.152026
-0.0593395
-0.0435898
0.148691
-0.105101
-0.079966
0.19916
-0.119194
0.0397494
0.200241
-0.23999
-0.000261217
0.0882326
-0.0879714
0.0735162
-0.2161
-0.302759
0.0811849
0.0201815
-0.0888614
0.0686799
0.0368237
-0.0513309
-0.138899
0.118796
-0.173735
0.201452
-0.0277164
0.23472
-0.157346
-0.265481
0.340583
-0.0751022
-0.169934
0.216865
-0.0469318
-0.0174743
0.0187832
-0.00130882
0.226688
-0.095125
-0.105212
0.104951
0.0367903
-0.113001
0.0762103
0.0304787
0.07378
-0.104259
0.039196
-0.192111
0.00450681
0.0112251
-0.345321
0.142184
0.203137
-0.174178
0.0820209
0.0921567
0.201286
-0.155088
-0.0461979
-0.194472
0.265015
-0.0705422
0.0719789
-0.126203
0.0542239
0.0438947
-0.00293412
0.0536495
0.00505146
0.111982
0.152903
-0.332646
0.146396
0.18625
0.139221
-0.178764
-0.0875234
-0.156341
0.243865
0.0222519
0.0439369
-0.0661888
-0.020655
0.0010936
0.0105074
0.194093
-0.204601
0.050511
-0.00244519
0.0547166
0.0979221
-0.152639
0.210723
-0.0528402
-0.21228
-0.0595552
0.271835
-0.090469
0.246502
-0.156033
-0.236058
0.267882
-0.0272491
0.00793713
0.019312
0.258559
-0.338911
0.0803514
-0.192125
-0.153196
0.0861882
-0.0307499
-0.0554383
-0.151544
0.107954
0.0506574
-0.220591
0.0225255
0.0457699
-0.0682954
-0.147621
0.0585879
0.0890329
-0.000252029
-0.0172223
-0.24668
0.257187
0.230388
-0.329077
0.0986883
0.353241
-0.1545
-0.198741
0.00440781
-0.0246943
0.0202865
0.0261846
0.142025
-0.16821
-0.170741
-0.161905
0.284483
0.00261813
-0.287101
-0.0067522
-0.0366704
0.0434226
-0.066829
-0.137948
0.204777
0.0486884
-0.190435
-0.150781
-0.211835
0.249115
-0.0566558
-0.19246
-0.0359764
-0.0173125
0.141329
0.235694
-0.0473444
0.254788
0.0449729
-0.0474595
0.00248659
0.0783692
-0.197796
-0.318175
0.219495
0.09868
0.187123
-0.14892
-0.0382027
-0.046087
0.045594
0.00049296
0.149555
0.203686
-0.00793519
-0.0207152
0.0286504
0.30645
-0.0691418
0.00453162
-0.254076
0.249545
0.0427047
-0.0974321
0.0547275
-0.000598904
-0.00918921
0.00978811
-0.00177299
0.127048
-0.125275
-0.329743
0.266961
0.0627822
0.107747
-0.0650419
0.32726
-0.321226
-0.00603332
0.0423191
-0.0490713
0.280282
-0.260159
-0.0201233
-0.00216261
-0.0469542
0.0232354
-0.0791571
0.0559217
-0.103789
-0.0703888
0.284869
0.0105461
-0.295415
0.00245905
-0.109342
0.106883
0.0739971
0.0407799
-0.114777
-0.0415134
-0.269695
0.308502
-0.20341
-0.105092
0.268852
0.0160169
-0.270228
-0.0595151
-0.0145539
-0.0126952
0.213483
0.0685418
0.0851041
-0.0290292
-0.301984
0.157265
0.0467793
-0.0502318
0.00345244
0.08338
-0.163346
-0.0239745
-0.00610951
0.030084
0.130808
-0.0782244
-0.0525834
0.00225837
0.0212759
0.15563
-0.0571067
-0.0985229
-0.305599
0.0724819
0.0449253
-0.129512
0.0845867
0.165961
-0.209772
0.103688
-0.0604508
-0.245031
0.154562
0.120003
-0.203308
0.0450219
-4.89286e-05
0.021585
-0.283867
0.262282
0.221933
0.0865689
0.237456
-0.332909
0.0954528
0.188152
-0.280039
0.091887
0.30719
-0.0852569
-0.0449241
-0.0951634
0.272996
-0.0215783
-0.251417
-0.0290941
0.0356732
-0.0065791
-0.17885
-0.0538047
0.232655
-0.333897
0.154087
0.17981
0.236096
-0.197163
0.00753074
-0.0449223
0.0373915
0.244197
0.0402861
0.08103
-0.0260499
-0.353677
0.283637
0.0700398
0.168091
-0.0597431
-0.108348
0.264791
-0.192881
-0.207652
0.287534
-0.079881
-0.0319097
0.0451408
-0.0499047
0.00476391
-0.163417
0.27525
-0.111833
-0.21656
0.286822
-0.0702627
-0.227165
0.299381
-0.0722155
0.0457728
0.01539
-0.0611628
-0.172113
0.0770459
0.0950668
0.016571
-0.154234
0.137663
0.0580325
-0.0640716
0.00603915
0.125599
0.104495
-0.167176
0.0626813
-0.232268
0.15804
0.0742284
0.237693
-0.321906
0.0842133
0.0255499
-0.0551734
0.0296235
0.0563512
-0.235202
0.290766
-0.0772828
0.0475899
-0.0517374
0.00414752
0.0535305
-0.0459998
-0.062613
0.0318212
0.0307918
0.156332
0.0449538
0.0209485
0.259333
0.0662199
0.0133459
-0.0795658
0.236341
-0.156341
-0.0799997
-0.270248
0.106831
-0.301532
0.121085
0.180447
-0.219378
-0.114518
-0.0932892
0.0368083
0.0564809
-0.0164131
0.000165526
0.0162476
-0.245545
0.104246
0.141299
0.0578651
-0.103804
0.0459387
-0.0155176
-0.117794
0.133312
-0.0359313
0.0458939
-0.00996259
-0.207427
0.0523391
-0.261232
-0.0291965
0.0261932
0.141898
-0.0292764
-0.102953
0.132229
0.0161895
-0.0224623
0.00627279
-0.036144
0.0903647
-0.0542207
0.221711
-0.160804
-0.0609069
-0.0575145
-0.20482
0.262334
0.228497
-0.279821
-0.129224
0.113706
-0.317192
0.168394
0.148799
-0.0182953
0.0605284
-0.0422331
0.0128735
-0.0727113
0.0598378
0.284586
-0.0970892
-0.187496
0.19966
-0.183089
0.0685275
0.00526697
-0.0737945
-0.0481816
0.0122503
-0.032297
0.00320281
0.0153417
-0.0117561
-0.00358558
0.0309799
-0.0551295
0.0241496
-0.00446552
0.207923
0.0777778
-0.157021
-0.0885243
0.172457
-0.0679615
-0.0166537
0.00137966
0.015274
-0.0360594
-0.0107736
0.046833
0.0162714
-0.156541
0.140269
-0.00147213
-0.014941
0.0406055
-0.119739
0.079134
-0.0611728
0.00205103
0.0591218
0.138758
-0.205587
0.0270279
-0.0226201
-0.0321594
-0.0281256
0.060285
-0.164401
0.243796
-0.0793959
-0.135471
0.151743
0.030939
0.242057
-0.232028
0.264517
-0.0324885
-0.00748372
-0.0832917
0.0907754
0.0507452
0.148915
0.260364
-0.292558
0.0321941
-0.042121
0.00317389
0.0389471
0.0503408
-0.00275093
-0.0809505
0.311339
-0.215146
-0.102046
-0.0446754
0.293768
0.0499659
-0.100374
-0.149162
0.216654
-0.0674928
0.160577
-0.258698
0.0981207
0.223481
-0.342876
0.119395
0.0335686
-0.122877
0.0893084
0.307554
-0.105452
-0.202102
0.0653366
0.0654711
0.155362
-0.184237
0.028875
0.00168502
0.0997879
0.207766
0.0742875
-0.278016
0.203729
-0.000149637
-0.0210518
0.0212014
-0.0621394
0.200897
0.202722
-0.151976
-0.0749513
-0.0582828
0.31507
-0.0311325
-0.283937
0.186945
-0.270034
0.0830894
0.316271
-0.117899
-0.198372
-0.168887
0.072371
0.0965164
0.181431
-0.0422095
-0.130356
-0.0129602
0.0709927
-0.142557
0.199045
-0.0564875
-0.031219
-0.00107792
-0.118142
0.0888658
0.270237
-0.0331268
-0.237111
0.137875
-0.321525
0.18365
0.0839639
0.200622
0.00420161
0.0111401
-0.234703
0.304409
-0.0697064
0.308052
-0.0845713
0.0384717
-0.0706311
-0.279017
0.0975457
0.181471
0.278172
0.0169389
-0.295111
-0.195555
0.260514
-0.064959
-0.0222102
0.0907377
0.120417
0.0903062
0.057022
-0.205786
0.298781
-0.160906
0.0155928
-0.274712
0.259119
-0.101831
0.0943472
-0.0683644
0.0500692
0.00193842
-0.0551798
0.0532414
0.0938966
-0.0634179
-0.0461058
0.0100464
-0.182714
0.145328
0.0373867
0.00475459
0.0670152
-0.0717698
0.0841153
-0.0316092
-0.0525061
0.01569
0.000587531
-0.0162776
0.05919
-0.0463165
0.203229
-0.1461
0.0775403
-0.054305
0.076524
0.0312226
-0.0739507
0.0269927
0.046958
-0.00900837
0.0662283
-0.0572199
-0.273209
0.0787366
-0.00483526
-0.124388
-0.11652
0.17156
-0.0550401
-0.186469
-0.135056
0.179927
-0.116115
-0.063812
0.254224
-0.214474
0.201372
-0.147463
-0.0539092
-0.0345302
0.10099
0.0646209
0.136751
0.0567538
0.23349
-0.290243
0.151202
-0.156038
-0.148197
-0.0752025
-0.178234
0.253437
-0.236104
0.338759
-0.102655
0.0792328
-0.0590513
0.0775868
0.10234
0.05354
0.0327001
-0.00728918
-0.0538837
0.0357927
-0.130509
0.0947165
0.207743
0.0682989
-0.276042
0.203839
-0.153695
-0.0501438
-0.153472
0.230601
-0.0771287
0.274699
-0.066956
-0.00483659
0.017967
-0.298549
0.121811
0.176738
-0.22834
0.300592
-0.0722518
0.280802
0.00829615
-0.289098
-0.00790852
0.0151606
0.19567
-0.253184
-0.0936617
0.254239
-0.0216724
-0.00834692
0.0300193
-0.174145
-0.159213
-0.11591
-0.0427471
0.0414167
0.0013304
0.271421
-0.0562208
-0.2152
0.26176
-0.190373
-0.0713871
-0.0412261
0.0438954
-0.0026693
-0.0921654
-0.166996
0.259162
0.261359
-0.245766
0.068239
0.0536626
0.0304527
-0.198253
0.264285
-0.0660322
0.0133195
-0.0138004
-0.0693196
0.189736
0.197647
0.101133
0.228176
-0.302973
0.0747964
-0.335588
0.255074
0.0805144
0.324455
-0.212643
-0.111812
0.0407713
-0.0446841
0.00391286
0.0352247
0.18352
-0.218745
-0.0102095
0.0490932
-0.0388837
-0.068359
0.156382
-0.0880233
-0.096947
-0.129055
0.226002
-0.0760558
0.111422
-0.0353661
-0.0317465
0.000527471
0.160228
-0.0364775
-0.123751
0.138455
0.186
0.156265
-0.0234866
-0.132778
-0.0387944
0.0469667
-0.00817237
-0.00610192
0.0261062
-0.0200043
-0.18636
0.221585
-0.0151422
-0.259569
-0.0564919
-0.0409402
0.229409
-0.307484
0.0780753
-0.130877
-0.0414156
0.252483
0.00887568
0.0459127
0.225508
0.0504752
-0.0249254
-0.193436
0.156092
0.0373444
0.235037
0.0637558
-0.298793
0.0419687
-0.0410238
-0.000944864
0.307958
-0.078549
-0.232904
0.237436
-0.0717991
0.306836
-0.115337
0.0306104
0.0847264
-0.280692
0.269098
0.0115942
0.0867401
-0.0205202
0.0143155
0.00446769
0.060695
0.166304
-0.226999
0.267577
-0.21692
0.0322467
-0.0424563
0.119923
-0.0598219
-0.0601006
-0.0537057
0.034291
0.0194148
-0.0126609
0.168926
0.123908
-0.0709446
-0.0529634
-0.0618316
0.0528232
0.0468845
-0.00298984
0.133988
0.0474429
-0.0566688
0.100783
-0.0441141
-0.295622
0.208098
0.1984
-0.266058
0.0676575
-0.027519
-0.035094
0.107761
-0.0629547
-0.0448059
-0.236663
0.174202
0.062461
-0.022017
0.0237718
-0.00175481
0.00317433
0.0569401
-0.163087
0.0705836
0.0925037
-0.222918
0.315308
-0.0923905
-0.334606
0.134096
0.20051
-0.0334398
0.0869798
0.0291558
-0.0330587
0.00390292
-0.102686
0.0629527
0.0397329
-0.0945563
-0.0611183
0.155675
-0.0127874
0.0137371
-0.000949707
-0.0176864
0.00313256
0.0823162
-0.272689
-0.193293
0.139772
0.0535214
0.156802
0.0470371
-0.29813
0.212624
0.0855058
0.275511
0.00266135
0.0114696
-0.0798157
0.0683461
0.257573
-0.181433
-0.0761402
-0.0791654
-0.218964
-0.212448
0.304989
-0.0925408
0.249872
0.0309302
-0.0616417
-0.202452
0.264093
0.0582979
0.226321
-0.284619
-0.0791615
-0.201531
0.131454
0.0305288
-0.161983
-0.124987
0.196177
-0.0711897
0.0323223
-0.274351
0.242028
-0.0477214
0.204054
0.0915206
-0.285645
0.194125
0.108723
0.16548
-0.274203
-0.0496095
0.0603266
-0.296431
0.0223165
0.137912
0.0556292
-0.0602685
0.00463931
-0.0807647
0.0190333
0.0617315
-0.0519142
-0.0136974
0.000910066
0.0186028
-0.000298873
-0.018304
0.0408078
0.0599751
0.185375
-0.103354
0.0808389
-0.0302225
-0.291873
0.0426497
0.133315
-0.271443
0.15929
0.0520751
0.171953
-0.253019
0.0810666
-0.315011
0.124027
0.190985
0.0515437
0.00408547
-0.206763
0.0459583
-0.0414891
0.000465276
-0.0277819
-0.0492812
-0.124764
0.174045
0.0825297
0.102846
-0.104355
0.0525005
0.051854
0.038718
0.00205327
0.0134011
-0.115867
-0.0423048
0.158172
-0.104519
0.229066
-0.124547
0.0556064
0.211971
0.232854
-0.14857
-0.0842842
0.0753422
0.0979915
-0.173334
-0.138124
-0.114798
0.252922
-0.0499367
0.0606396
-0.174724
0.0355167
-0.117857
0.057206
0.0606512
0.131358
-0.0481889
-0.0831692
0.128335
-0.194162
-0.140444
-0.0488999
0.122897
-0.0931975
0.0470362
0.0461614
0.15699
-0.0944857
-0.0625044
0.278216
0.0368536
-0.0912122
-0.0277549
0.118967
-0.0462009
0.00345388
-0.171005
0.0846887
0.0863163
-0.0354241
-0.250875
0.20453
0.0564402
-0.261754
0.205314
0.0898006
-0.0861179
-0.00368262
0.195502
-0.257144
0.0435594
0.00332511
0.210799
-0.163202
-0.0475968
-0.000328054
0.00910665
-0.0087786
0.137723
-0.23467
-0.151823
0.0654215
-0.180081
0.130163
0.0499181
-0.22849
-0.0475571
0.276047
0.301471
-0.0931614
-0.208309
-0.30296
0.274818
0.0281427
-0.0885926
-0.0824124
-0.0231995
0.00118245
-0.155
-0.0361424
0.191142
0.0845499
0.0724401
-0.0639158
0.167644
-0.103729
-0.0552315
-0.0485723
-0.276201
-0.0267595
-0.147989
-0.0450355
0.193025
0.062288
0.0319833
-0.00282752
-0.0500419
0.0478562
0.00218575
0.243816
-0.187375
-0.0136512
0.0108207
0.21666
-0.0896117
-0.0238925
-0.0298132
0.215849
-0.274052
0.0582029
0.20537
0.077149
-0.282519
0.114467
0.187004
0.307918
-0.102548
-0.165742
0.0690325
0.0967095
0.0630996
-0.0408477
0.0445178
0.0153445
-0.0598624
0.0965543
-0.0564632
-0.0400911
0.0888377
0.140228
0.171873
-0.0404184
-0.0878537
0.259806
0.122019
-0.171301
0.111507
-0.0217065
0.295123
-0.133317
-0.161806
-0.0940278
-0.0631421
0.15717
-0.210212
0.274253
-0.0640413
0.0342182
-0.0105535
-0.0236647
-0.194285
0.274024
-0.079739
-0.0979349
-0.0741778
0.185234
-0.128603
-0.0566309
0.176667
-0.0996207
-0.0483698
-0.0118987
0.118967
-0.125799
-0.30098
0.168497
0.132483
0.194842
0.100281
-0.148042
0.0922147
0.0558269
-0.0225406
0.11528
-0.0927398
-0.0140149
0.132982
0.298627
-0.0726914
-0.197286
-0.0393767
0.067047
0.0686408
-0.0289115
-0.0397293
-0.0866269
-0.0614148
-0.302239
0.309576
-0.00733689
0.0540812
-0.0511537
-0.00292752
0.043373
-0.0690044
0.0256314
-0.275993
0.0657808
0.036548
0.0485562
-0.0285671
-0.0905384
0.119105
0.105333
0.111327
0.310661
-0.225071
0.103572
0.0458769
0.00571146
-0.147245
0.202278
-0.0550333
-0.15131
0.209291
-0.0579809
0.164395
0.047163
-0.211558
0.224691
0.0766153
-0.301306
-0.0579313
0.00325592
0.0546753
-0.13959
0.0553125
0.0842771
0.1201
-0.00437718
-0.115723
0.175591
-0.251524
0.0759331
0.0477357
-0.0025949
-0.018695
0.0251961
-0.00650114
0.306969
-0.0619497
-0.245019
0.0214642
-0.122516
0.101052
-0.110159
0.046421
0.0637379
-0.0490569
0.264906
0.0542117
0.252757
0.140839
-0.0655318
-0.0753075
0.0160566
-0.000366563
-0.121404
0.0988633
-0.00106512
0.00507686
-0.273356
0.0866282
0.186728
-0.197609
0.274297
-0.0766884
0.0374504
-0.184384
0.0642202
0.148496
0.0623027
-0.104907
0.126371
-0.158066
0.111275
0.0467912
0.161544
-0.322419
0.160876
-0.00312533
0.0436868
-0.133468
0.0897809
-0.0132076
-0.0447237
-0.0667708
-0.0336039
0.100375
0.0376488
-0.113705
0.282024
-0.190504
0.0587194
0.08212
-0.0577652
0.129744
0.0958817
-0.150439
0.0545575
0.061094
0.109686
-0.0810534
0.169401
-0.088348
-0.0524928
0.0477659
0.00472694
0.311563
-0.207199
-0.104364
0.128931
-0.141591
0.0585128
-0.0841863
0.0256734
0.0175387
-0.0643804
0.0468417
0.0192306
-0.00491518
0.0307423
0.00450749
-0.0352498
0.0337108
-0.00172744
0.0750906
-0.0431709
-0.0319197
-0.0465439
0.0643663
-0.0178224
-0.261496
0.0929528
0.168543
0.0174044
0.217613
-0.235017
-0.136926
-0.0457889
-0.313816
0.10827
0.205546
0.0874248
-0.181453
-0.0946698
-0.166826
-0.088378
-0.0225339
0.110912
0.0558176
0.0309225
0.00902871
0.00702789
0.0898282
-0.118395
0.140258
-0.198953
0.0586951
0.182977
-0.29165
0.108673
-0.0403755
-0.0433498
0.0338595
-0.0341225
0.000263033
0.0980895
-0.0507284
-0.047361
0.000144863
-0.0121978
0.012053
-0.0217519
-0.0355844
0.0573363
0.00270292
-0.0491763
-0.036806
0.0859823
0.30983
-0.0274086
-0.282421
0.0386452
0.0594443
-0.194954
0.1462
0.0487531
0.302475
-0.105088
-0.197387
0.052148
0.0427975
0.00416925
0.266397
-0.0782453
-0.185775
0.0738823
0.111892
0.0302334
-0.0269004
-0.0606365
0.225032
0.22412
-0.301349
0.0772292
0.0521073
-0.0211274
0.0620135
-0.0444748
0.191285
-0.135963
-0.0553227
-0.245568
0.323586
-0.0780179
0.307592
-0.0834724
0.114966
-0.0314293
-0.0835368
0.24089
0.06894
0.0710053
-0.124866
0.0538606
0.112905
0.00719477
-0.156749
0.251221
-0.0944718
0.0471918
-0.163059
0.176023
-0.091473
0.00396549
0.00856605
-0.0125315
-0.330025
0.0953218
-0.0208784
-0.0410427
0.0619211
0.0196987
0.0431913
-0.06289
-0.305097
0.228561
-0.228043
0.312949
-0.0849057
-0.0237396
0.0682575
-0.0479983
0.284557
-0.175834
0.0369165
0.0317243
0.0113695
-0.0112246
0.293743
-0.199798
-0.0939442
0.0416898
-0.0904552
0.0487655
-0.17526
-0.12572
0.334166
-0.156266
-0.177899
0.0842549
-0.272255
0.188
-0.0279693
-0.0928054
0.120775
-0.231704
-0.0275167
0.259221
0.0420465
0.0545078
0.0782346
-0.0386472
-0.0395874
-0.250117
0.0769385
0.173178
0.0207414
0.000550719
-0.0212921
0.0895137
-0.227637
-0.0439315
-0.0371455
0.0810769
0.231919
0.0921411
-0.32406
0.142764
0.191402
0.0409649
0.00183258
0.220307
0.0734354
-0.21354
-0.0133287
0.226869
-0.0331151
0.0318273
0.00128779
-0.135291
-0.0596628
0.00867921
0.0533343
0.293562
-0.287077
-0.00648436
0.0755497
-0.0640802
0.013116
0.000203454
-0.0557975
-0.201043
0.256841
0.228786
-0.299998
0.0712121
-0.0412749
-0.0604416
0.101717
0.342874
-0.137033
-0.205841
0.0221039
-0.253808
-0.00719863
0.00687057
0.256082
-0.060412
0.0696223
-0.128818
0.059196
0.106095
-0.0693052
-0.165862
0.191638
0.151236
-0.071373
-0.204963
0.276336
0.0312357
0.00247504
-0.29988
0.129695
0.170185
0.107562
0.0691046
-0.0181329
0.0613974
-0.0432646
-0.268836
0.0666882
0.202148
-0.120526
-0.194485
0.341498
-0.304401
-0.0370967
0.0410867
0.129675
-0.170762
-0.104367
0.053639
0.0521973
0.139088
-0.105042
-0.0102951
0.162601
0.0737394
-0.0794403
-0.189396
-0.0817059
0.136422
-0.0935205
0.280465
-0.0626447
0.0445119
-0.0458389
0.0571505
-0.00350095
0.0680972
-0.0215857
0.0513371
0.00581337
-0.0716436
0.132089
-0.0884021
-0.194146
-0.105734
0.0845514
0.0914715
-0.283033
-0.0561684
-0.166037
0.222205
0.0475142
0.0845747
0.05363
-0.086706
0.184576
-0.0691407
-0.0997467
0.0082739
-0.0750447
0.190075
-0.245873
-0.0340973
0.0315113
0.00258599
0.230614
-0.176731
-0.0538835
0.168387
0.0556481
-0.0746695
0.0366925
-0.0408734
0.00418088
-0.0738356
-0.0395491
0.265411
0.0126493
-0.278061
0.169675
0.0934737
-0.263149
-0.0398956
0.0458697
-0.00597414
-0.237576
-0.0654866
0.303063
-0.0744328
0.0246138
0.049819
-0.173273
0.0989995
0.0742735
0.162793
-0.0802634
0.0639728
-0.301549
-0.122939
0.292615
-0.215925
0.156719
0.0592061
-0.0589326
0.19292
0.00255812
0.265133
0.0313219
-0.296455
0.00318014
0.0306793
0.0380173
0.197073
-0.23509
-0.0127842
0.0149151
-0.00213094
0.20134
-0.205989
-0.079311
-0.218169
0.29748
0.295127
-0.19771
-0.0974176
-0.100769
0.0594938
-0.0568019
0.246877
0.211082
-0.173064
-0.343632
0.192038
0.151594
0.275894
-0.200814
-0.07508
0.0885407
0.0769233
0.22458
-0.303891
0.195814
-0.223492
0.0276774
0.0184532
-0.0446114
-0.0580742
0.00467957
-0.0461551
0.0414755
-0.00221912
0.063563
-0.0613438
-0.0437637
-0.00441797
0.0123373
-0.0184392
-0.0662354
0.045357
-0.172474
0.0858472
0.265394
-0.153413
-0.0181676
-0.00475749
0.0229251
0.0576412
-0.0636851
0.00604391
0.0543792
0.108414
-0.0381392
-0.066637
-0.0512202
-0.0416853
-0.259232
0.300918
0.0518321
-0.259694
0.0563261
0.203368
0.063646
-0.188633
-0.0163612
0.0160624
0.0458056
-0.046159
0.000353395
-0.219047
0.180562
0.0384844
-0.0221161
0.0243745
0.0296609
-0.0793525
0.0496915
0.206647
-0.00530754
0.0807923
-0.0166779
2.42345e-05
0.115511
-0.230443
0.114932
0.0849019
-0.0311483
-0.0537536
0.131931
-0.0451862
0.304757
-0.25607
-0.0486867
-0.0851995
-0.19115
0.27635
-0.110805
-0.0435081
0.154313
-0.0484881
0.00472448
0.0155709
-0.0373228
-0.00799158
0.255095
0.0713088
-0.135225
-0.147241
-0.0461952
0.154176
-0.0582945
-0.0224243
-0.228651
0.251075
0.208119
-0.290881
0.0827618
0.0282521
0.00201331
-0.0302655
-0.00226996
0.00173085
0.0702509
-0.0719817
0.0154842
-0.0198679
-0.0394306
-0.140651
0.173035
-0.0352949
-0.13774
0.0947464
-0.0922873
0.312377
-0.104257
-0.023053
0.00438194
0.0186711
0.00294596
-0.208333
0.205387
-0.0467603
-0.0250437
0.071804
0.381062
-0.163502
-0.21756
0.15001
0.0684683
-0.218478
0.214542
-0.0716681
0.0811705
-0.0253529
-0.110181
-0.122087
-0.287778
0.0895252
0.0552615
-0.278179
-0.047784
0.209608
0.171453
0.216364
-0.0595614
0.049729
0.192633
-0.242362
0.215627
-0.0656172
-0.233013
0.302728
-0.0697156
-0.2097
-0.133932
0.215304
0.0871713
-0.174575
-0.0287332
0.00663246
0.0872641
-0.116118
0.0424033
0.0737143
0.175144
0.10075
0.263681
-0.0389897
0.0656592
-0.0678784
-0.167436
-0.35058
0.187913
0.162667
0.125373
-0.0494703
-0.0421329
0.0468124
-0.0224204
0.0042528
0.153766
-0.209935
0.277054
-0.0734504
-0.203603
0.0634013
-0.176108
0.112706
0.0173654
-0.0257123
-0.117286
0.0893166
0.137832
0.0852882
-0.22312
-0.069835
-0.0109297
0.0311416
-0.223712
0.147898
-0.209076
0.0611779
-0.266558
0.0745288
0.192029
0.172278
-0.149713
-0.022565
-0.0125012
0.0160225
-0.00352129
0.196599
-0.253401
0.0537352
-0.0330069
-0.0207284
-0.0149112
0.00455871
0.196682
-0.281881
-0.0619655
-0.22512
0.287085
0.110298
-0.0696925
0.0637108
-0.156318
0.0926073
0.0250373
0.226598
0.0298041
-0.256402
-0.125994
0.0468228
0.0791711
-0.23582
0.30963
-0.0738107
-0.0307676
0.0300802
0.000687388
0.0689377
0.0337365
-0.00299413
0.244689
-0.129178
0.0641473
0.161858
-0.226005
-0.219178
-0.0434475
0.262625
0.028473
-0.0970745
0.0686016
-0.0463613
0.0051162
0.0412451
0.0093394
-0.0683923
0.0590529
0.0841395
-0.0359113
-0.0482282
-0.0727423
0.0744731
0.0654825
0.234039
-0.299522
0.0385272
-0.294598
0.35005
-0.16653
0.283486
-0.0249262
-0.0167197
0.212534
0.157946
-0.0190158
-0.13893
0.044972
0.0231252
-0.00314736
0.0165485
-0.0502232
-0.0788376
0.129061
0.0254079
0.0496827
0.0393513
0.0838528
-0.123204
0.232644
0.126328
0.223723
0.167525
0.0488385
0.0638312
-0.0977544
0.0339232
0.00721667
0.00933578
-0.0165524
0.202039
-0.0956878
-0.106352
0.186304
-0.0401036
0.257631
-0.0621295
-0.000949098
0.142012
-0.105362
-0.0366492
0.100189
-0.25653
-0.19571
-0.0776431
-0.182051
-0.255896
-0.0463438
0.0529834
-0.244112
0.191128
0.0295686
-0.0953638
0.0657952
-0.103153
-0.00618833
-0.225312
0.0844294
0.140883
-0.0158363
-0.0391729
-0.00170057
-0.0309581
0.0102429
0.0874196
0.0445119
-0.150337
0.263059
-0.112723
-0.158071
-0.11346
0.271531
0.114836
-0.0392867
0.062452
-0.00481079
-0.186999
0.133392
0.053607
-0.0468324
0.126721
-0.0465559
-0.0801646
0.232407
-0.294373
-0.211775
0.156069
0.0557062
-0.0485895
0.280996
0.0940757
-0.0645071
-0.15499
0.153092
-0.267572
0.11448
0.272417
-0.0882236
-0.184193
-0.0842599
0.297048
-0.212788
0.0209836
-0.00549942
0.0196118
-0.0152298
-0.137206
-0.213374
-0.0575114
0.00131628
0.0561951
0.0292154
0.234668
-0.263883
0.153913
-0.0249826
0.286803
-0.34023
0.0534274
-0.0392034
3.0547e-05
-0.0650714
-0.104387
0.169458
-0.0860924
0.0499484
0.0675212
0.194754
-0.262275
0.189106
0.0593456
-0.248451
-0.115047
-0.0582259
-0.00579955
0.0148283
-0.0721085
-0.192783
0.264892
0.0889038
-0.139127
0.0252927
-0.143435
-0.187467
0.00474286
0.0294754
0.0603753
0.0473853
0.294946
-0.232216
-0.0627299
0.0601565
0.0546799
-0.0626591
0.0495287
0.0131304
0.118862
-0.20652
0.0876582
0.0506986
-0.193256
-0.116868
0.16406
-0.159802
0.252222
-0.0924196
-0.0569522
-0.0337567
0.0907089
0.0426334
-0.0552485
0.012615
0.056926
-0.0251048
0.114305
0.0507365
-0.165041
0.0395699
0.0108439
-0.0221655
0.0197024
0.00246316
-0.211829
-0.0586064
0.270435
0.0970641
-0.162135
-0.0108555
-0.0391197
0.0499752
0.312599
-0.0490859
-0.263513
0.207616
0.0841701
-0.291786
-0.121404
-0.0262164
0.0672419
0.163372
-0.270175
-0.0418214
0.138885
0.201432
-0.0825702
-0.245775
0.105346
0.140429
-0.0939863
0.157697
0.178187
-0.0638823
0.0401662
-0.00144819
0.0542626
-0.0116292
-0.0201386
-0.057552
0.0776906
0.216097
-0.0485722
-0.109403
0.0545392
0.0548642
0.202481
-0.27459
-0.0442898
-0.313689
0.232311
0.081378
-0.113283
0.0764523
0.0368312
-0.0784776
0.26254
-0.184062
-0.276499
0.219972
0.0354734
-0.06802
0.0325465
-0.0982906
-0.0741834
0.00248006
0.0510505
-0.0885374
0.0315851
0.0392011
-0.189538
0.0158754
-0.0190227
0.0355228
-0.130374
0.0948513
0.0380623
0.00210388
-0.0467208
0.0511008
-0.00438001
0.00349292
0.188711
-0.192204
0.199559
0.0950363
-0.0356907
-0.234557
0.0980109
-0.218294
0.120283
-0.0742949
0.0541562
0.186056
-0.138581
-0.0474749
-0.132144
0.0629164
0.0692278
0.213499
-0.152804
-0.0127514
0.204124
-0.191373
0.030135
0.026791
-0.0524922
0.0443614
-0.0692288
0.0248673
0.0815872
-0.0401429
0.0434887
0.0406507
0.075492
-0.211121
0.135681
0.07544
0.156618
0.0601618
-0.21678
-0.0448366
-0.259988
0.304825
0.0768945
0.125145
-0.059022
0.0481665
-0.150727
-0.0950487
0.0163287
0.0292911
-0.302356
0.0761261
0.22623
-0.22348
0.226973
-0.342364
0.185279
0.157085
0.0282707
-0.0287725
0.000501798
-0.0849893
-0.217367
-0.157872
0.182574
-0.0247027
-0.0881552
-0.197111
-0.145253
-0.0361268
-0.00376874
-0.289055
0.102306
0.18675
-0.200241
-0.0132997
0.056588
-0.0465778
-0.0466197
-0.0492469
0.0186554
-0.0748898
0.257867
-0.00929548
0.0186313
-0.071679
-0.0444385
0.0558707
0.175027
-0.230897
0.0888666
0.0674656
-0.049617
-0.0178486
-0.0566874
-0.0477083
0.104396
-0.134896
0.171178
-0.0362817
-0.30654
0.23545
0.0710905
-0.16905
0.22492
-0.0913209
-0.0408233
-0.134933
-0.0623031
0.197236
0.127652
-0.0622095
-0.0654424
0.0792524
-0.0869937
0.0130888
-0.105907
0.0928182
-0.209463
0.269359
-0.0598968
0.222811
0.0843571
-0.307168
-0.0456152
-0.14077
0.186386
-0.287003
0.0747235
0.312047
-0.111791
-0.200257
-0.149199
0.211085
-0.0618857
0.0784599
0.0136433
0.135635
-0.082076
-0.0535591
-0.023034
0.0688068
0.0678127
-0.271888
0.204075
-0.161224
0.220764
-0.0595407
-0.0113865
-0.0307345
-0.0732483
0.1126
-0.186338
0.134319
0.0520191
0.189015
0.0834021
0.0951259
0.217473
-0.273658
0.07844
0.195218
-0.104393
-0.194156
0.258277
-0.18705
-0.0712274
0.065338
-0.020366
0.312091
-0.162536
0.164383
-0.25008
0.0856965
0.309562
-0.245589
0.205321
0.0589223
-0.264243
0.0199067
0.289655
0.0295548
0.0241804
-0.0459228
-0.0558917
0.101814
-0.146554
0.0780905
0.0684632
-0.324777
0.235887
0.08889
0.216429
-0.0685306
-0.0800975
0.10847
-0.0283729
0.13953
0.069393
-0.208923
-0.0494482
-0.0765457
0.269537
-0.198984
-0.0705525
0.212251
0.0997962
-0.0560108
0.129105
-0.0730946
-0.0510046
-0.111194
0.162199
-0.179879
0.0699641
0.109914
0.142597
0.0304384
0.00574746
0.0677514
-0.0734989
-0.0475927
-0.216426
0.264019
0.000298878
-0.0036232
-0.0412991
-0.178485
0.13024
0.0482444
-0.210026
0.237096
-0.02707
0.105187
-0.0637039
-0.0414829
0.228948
-0.131646
-0.0973014
-0.0324796
0.0658023
-0.0333227
-0.0736804
0.190257
-0.23785
-0.0264098
-0.0534058
0.134067
-0.100155
-0.0339121
0.118948
-0.0479427
0.0649588
0.1449
-0.209859
0.00225366
0.026017
0.258109
-0.0504931
0.0776394
-0.0316506
-0.0459889
0.047825
-0.0537335
0.00590857
-0.298997
0.101661
0.197336
0.184062
-0.136656
-0.0474057
-0.16586
-0.152315
-0.0790781
0.172118
-0.0930394
-0.19789
0.290646
-0.0927558
0.185093
0.0897245
0.231764
0.0435509
-0.275315
0.188672
-0.263875
0.285567
-0.0660715
-0.0413537
-0.0101822
0.0515359
0.0528949
-0.157119
0.097663
0.0594556
0.0793219
-0.0208091
-0.0399996
-0.0607692
0.228047
-0.0389412
-0.0951898
0.0820586