/*--------------------------------*- C++ -*----------------------------------*\
| =========                 |                                                 |
| \\      /  F ield         | OpenFOAM: The Open Source CFD Toolbox           |
|  \\    /   O peration     | Version:  v2012                                 |
|   \\  /    A nd           | Website:  www.openfoam.com                      |
|    \\/     M anipulation  |                                                 |
\*---------------------------------------------------------------------------*/
FoamFile
{
    version     2.0;
    format      ascii;
    class       surfaceScalarField;
    location    "400";
    object      phi_0;
}
// * * * * * * * * * * * * * * * * * * * * * * * * * * * * * * * * * * * * * //

dimensions      [0 3 -1 0 0 0 0];
oriented        oriented;


internalField   nonuniform List<scalar> 
81438
(
-0.215931
0.316449
-0.100518
-0.294577
0.104916
0.189661
-0.311235
0.0953039
0.0465118
0.0139419
-0.0604537
0.0506128
-0.0837241
0.0331114
0.249106
0.0673427
-0.206543
-0.06845
0.274993
-0.04455
-0.0119663
0.0565163
0.0107061
-0.0603153
0.0496091
0.0432377
-0.102255
0.0590176
-0.331953
0.220206
0.111748
-0.049118
0.0435356
0.0055824
-0.362616
0.269709
0.0929073
0.0719099
-0.282362
0.210453
-0.064841
-0.249211
0.314052
-0.269826
0.346222
-0.0763956
0.0157338
-0.0133689
-0.00236487
0.238936
-0.228155
-0.0107813
-0.333912
0.0640859
0.0480645
-0.0112287
-0.0368358
0.183297
-0.0438118
-0.139485
-0.104966
0.167839
-0.062873
-0.0765651
0.297678
-0.221113
0.276164
-0.0373411
-0.238823
0.0389333
-0.256535
0.217602
-0.0193342
0.081026
-0.0616918
0.287746
-0.148713
-0.139032
0.237298
-0.302139
0.0920928
-0.0331038
-0.058989
-0.316331
0.138474
0.177857
-0.0864246
0.170781
-0.0843565
0.057139
-0.204599
0.14746
-0.231926
0.329009
-0.0970829
0.149511
-0.114206
-0.0353052
-0.221574
0.284646
-0.0630713
0.299286
-0.149428
-0.149858
0.06646
0.0531116
0.150248
0.119676
-0.269924
-0.0989255
0.0560621
0.0428634
0.259146
-0.134456
-0.124689
0.0969393
-0.113797
0.0168577
0.377023
-0.16826
-0.208763
0.125717
-0.212889
0.087172
-0.142583
-0.096055
0.238638
0.165709
-0.275369
0.10966
0.163429
-0.218827
0.0553972
-0.251472
0.00777947
0.243693
0.115966
0.17178
-0.141673
0.291921
-0.15254
0.0475739
-0.130215
0.295924
0.257961
-0.237547
-0.0204143
0.2857
-0.235785
-0.0499154
0.147014
-0.0938229
-0.0531908
-0.140087
0.0867449
0.0533422
-0.172766
-0.159187
0.00857604
-0.0531261
-0.119427
-0.0603738
0.1798
-0.172271
0.0625664
0.109704
-0.290429
-0.0175541
0.307983
-0.0543123
-0.0446132
0.193358
-0.146933
-0.0464247
-0.202924
0.0894528
0.113471
-0.149749
0.208721
-0.058972
-0.0103527
-0.00604079
0.0163935
0.145849
0.113297
-0.138128
-0.118105
0.256233
0.00267216
0.0203555
-0.0230276
-0.0149672
0.272928
0.0362912
-0.242834
0.0200264
-0.0112436
-0.00878281
0.207197
-0.29154
0.0843426
0.0996705
0.0473432
-0.258842
0.0269158
-0.0565271
-0.219454
0.275981
-0.28248
0.031008
0.142901
-0.219751
0.0768492
-0.128094
-0.0203474
0.148442
-0.00683829
0.103778
-0.050408
0.102721
-0.0523133
0.239711
0.0364533
-0.215788
0.100193
0.115595
0.0113179
0.00870854
-0.0195652
-0.00139603
0.0209613
0.131563
-0.224546
0.0929825
-0.221876
0.294595
-0.072719
0.0409606
-0.0455981
0.00463747
-0.0569899
0.240287
-0.300173
0.0782964
0.0587019
-0.00425585
-0.0544461
0.0855901
0.187751
-0.273341
0.146145
0.153142
0.0185026
0.00314519
-0.0216478
-0.0685724
-0.147215
-0.192525
0.277374
-0.0848499
-0.113384
0.0824247
0.0309597
-0.141747
-0.0442665
0.186014
-0.0395428
-0.139208
0.17875
0.213382
-0.0876646
0.225936
-0.319789
0.0938537
0.335417
-0.182553
-0.152864
0.00333162
-0.0387279
0.0353963
0.0436091
-0.0532878
0.0133089
0.0399789
0.180394
-0.281393
0.100999
-0.0144993
0.0592752
-0.0447759
0.282025
-0.0748276
0.0549797
-0.0835626
0.0285828
-0.233117
0.326829
-0.0937119
-0.152915
0.23309
-0.0801752
0.0318239
-0.21953
0.187706
-0.00351916
-0.124575
0.00725329
0.00758696
-0.0148403
0.205843
-0.157093
-0.0487502
0.264813
-0.148847
0.0773741
-0.244285
0.166911
-0.00464959
0.243586
0.157882
-0.21304
0.0551584
-0.0973508
0.277744
0.180871
0.154545
-0.275123
0.193117
0.0820064
0.0504127
-0.0534508
0.00303809
0.0731563
-0.0924906
0.16545
-0.0651228
-0.100327
-0.0201033
0.121776
-0.101672
0.0150545
-0.00283118
-0.0122233
-0.0513246
-0.141556
0.19288
-0.133236
0.0759049
0.0573314
0.0235376
-0.0208654
0.211365
-0.152026
-0.0593396
-0.0435898
0.148691
-0.105101
-0.0799653
0.199159
-0.119193
0.0397494
0.200241
-0.23999
-0.000263063
0.0882349
-0.0879718
0.0735162
-0.216099
-0.302759
0.0811849
0.0201818
-0.0888613
0.0686796
0.0368302
-0.0513295
-0.138899
0.118796
-0.173803
0.201633
-0.0278303
0.23472
-0.157346
-0.265481
0.340585
-0.0751037
-0.169934
0.216865
-0.0469317
-0.0174749
0.0187843
-0.00130937
0.226688
-0.095125
-0.105214
0.104951
0.0367898
-0.113
0.0762105
0.0304785
0.0737801
-0.104259
0.039196
-0.192111
0.00450757
0.0112262
-0.345323
0.142185
0.203138
-0.174145
0.0820185
0.0921266
0.201286
-0.155088
-0.0461979
-0.194472
0.265015
-0.0705422
0.0719787
-0.126203
0.054224
0.0438939
-0.0029333
0.0536498
0.00505211
0.111891
0.152922
-0.332631
0.146373
0.186258
0.139221
-0.178764
-0.0875202
-0.156333
0.243853
0.0222521
0.0439365
-0.0661886
-0.0206562
0.00109099
0.0105074
0.194093
-0.204601
0.0505101
-0.00244569
0.0547166
0.0979221
-0.152639
0.210723
-0.0528412
-0.21228
-0.0595552
0.271835
-0.0904691
0.246502
-0.156033
-0.236058
0.267882
-0.0272609
0.00794054
0.0193203
0.258559
-0.338911
0.0803514
-0.192126
-0.153197
0.0861877
-0.0307501
-0.0554376
-0.151544
0.107954
0.0506574
-0.220591
0.0225267
0.0457691
-0.0682958
-0.147623
0.058589
0.0890338
-0.000251453
-0.0172234
-0.24668
0.257187
0.230388
-0.329077
0.0986883
0.353238
-0.154499
-0.198739
0.00441016
-0.0246981
0.020288
0.0261832
0.142033
-0.168216
-0.170723
-0.161908
0.284483
0.00261813
-0.287101
-0.00670556
-0.0366601
0.0433656
-0.066829
-0.137948
0.204777
0.0486863
-0.190434
-0.150781
-0.211835
0.249125
-0.0565034
-0.192622
-0.0359754
-0.0173123
0.141329
0.235694
-0.0473235
0.254817
0.0449732
-0.0474591
0.00248593
0.0783691
-0.197796
-0.318175
0.219495
0.09868
0.187122
-0.148919
-0.0382023
-0.0460871
0.0455935
0.000493663
0.149553
0.203685
-0.00793173
-0.0207259
0.0286576
0.306455
-0.0691575
0.00453162
-0.254076
0.249545
0.0427049
-0.097432
0.0547271
-0.00059914
-0.00919047
0.00978961
-0.00177327
0.127048
-0.125275
-0.329744
0.266961
0.0627832
0.107746
-0.0650415
0.327259
-0.321226
-0.00603332
0.0423134
-0.049019
0.280282
-0.260159
-0.0201233
-0.00216405
-0.046954
0.0232357
-0.0791569
0.0559212
-0.103753
-0.0703918
0.284869
0.0105461
-0.295415
0.00245999
-0.109343
0.106883
0.073997
0.0407798
-0.114777
-0.0415208
-0.269714
0.308502
-0.20341
-0.105092
0.268852
0.0160169
-0.270228
-0.0595158
-0.0145614
-0.0126994
0.213483
0.0685418
0.0850907
-0.0290286
-0.301941
0.1573
0.046779
-0.0502324
0.0034534
0.0833801
-0.163345
-0.0239865
-0.00610486
0.0300914
0.130811
-0.0782225
-0.0525885
0.00226101
0.0212766
0.155574
-0.0571026
-0.0984711
-0.305599
0.0724819
0.0449252
-0.129512
0.0845869
0.16596
-0.209772
0.103688
-0.0604506
-0.245031
0.154562
0.120002
-0.203251
0.0450213
-4.81647e-05
0.021585
-0.283867
0.262282
0.221933
0.0865689
0.237456
-0.332909
0.0954528
0.188152
-0.280039
0.091887
0.30719
-0.0852569
-0.044924
-0.0951631
0.272996
-0.0215783
-0.251417
-0.0290931
0.0356732
-0.00658006
-0.1788
-0.0537946
0.232594
-0.333899
0.154087
0.179812
0.236096
-0.197163
0.00753166
-0.0449225
0.0373909
0.244197
0.0402861
0.0810299
-0.0260501
-0.353677
0.283637
0.0700398
0.168176
-0.0597347
-0.108441
0.264791
-0.192881
-0.20766
0.28749
-0.0798296
-0.0319183
0.0451406
-0.0499054
0.00476482
-0.163417
0.27525
-0.111833
-0.21656
0.286822
-0.0702626
-0.227165
0.299381
-0.0722155
0.0457728
0.0153908
-0.0611637
-0.172016
0.0769695
0.0950463
0.0166011
-0.154236
0.137635
0.0580294
-0.0640717
0.00604231
0.125599
0.104493
-0.167174
0.0626807
-0.232268
0.15804
0.0742283
0.237693
-0.321906
0.0842133
0.0255583
-0.055177
0.0296187
0.0563394
-0.235139
0.290766
-0.0772827
0.0475918
-0.0517391
0.00414733
0.0535309
-0.0459992
-0.0625697
0.0318044
0.0307652
0.156332
0.0449538
0.0209485
0.259333
0.0662192
0.0133465
-0.0795657
0.236341
-0.156341
-0.0799998
-0.270248
0.106831
-0.301532
0.121087
0.180444
-0.219381
-0.114518
-0.093289
0.0368085
0.0564805
-0.0164145
0.000166346
0.0162481
-0.245512
0.104247
0.141265
0.0578647
-0.103804
0.0459389
-0.0155156
-0.117794
0.13331
-0.0359303
0.0458934
-0.00996302
-0.207427
0.052339
-0.261234
-0.0291949
0.0261318
0.142044
-0.0292864
-0.10295
0.132236
0.0161881
-0.0224639
0.00627577
-0.0361433
0.0903621
-0.0542188
0.221711
-0.160804
-0.0609069
-0.0575215
-0.204801
0.262322
0.228497
-0.279821
-0.129222
0.113706
-0.31718
0.168351
0.148829
-0.0182968
0.0605292
-0.0422324
0.0128754
-0.0727113
0.0598359
0.284575
-0.097095
-0.18748
0.199653
-0.183052
0.0685229
0.00526817
-0.0737911
-0.0481812
0.0122508
-0.032297
0.00320388
0.0153426
-0.0117562
-0.00358641
0.0309535
-0.0551067
0.0241532
-0.00446815
0.207922
0.0777776
-0.156988
-0.088524
0.172454
-0.0679608
-0.016655
0.00138015
0.0152749
-0.0360582
-0.0107741
0.0468323
0.0162708
-0.156548
0.140277
-0.00147285
-0.0149416
0.0406048
-0.119739
0.0791345
-0.0611738
0.00205131
0.0591225
0.138758
-0.205587
0.0270318
-0.0226216
-0.0321595
-0.0281253
0.0602848
-0.1644
0.243796
-0.0793959
-0.135481
0.151752
0.030939
0.242057
-0.232166
0.264556
-0.0323897
-0.00748372
-0.0832918
0.0907755
0.0507702
0.148883
0.260364
-0.292558
0.0321941
-0.0421217
0.00317378
0.0389479
0.0503425
-0.00275074
-0.0809505
0.311339
-0.215111
-0.102069
-0.0446838
0.29379
0.0499661
-0.100374
-0.149162
0.216654
-0.0674928
0.160578
-0.258697
0.0981198
0.223469
-0.342839
0.11937
0.0335704
-0.122879
0.0893086
0.307554
-0.105452
-0.202102
0.0653345
0.0654764
0.155371
-0.184414
0.0290429
0.00168553
0.0997879
0.207767
0.0742875
-0.278016
0.203729
-0.00015011
-0.0210525
0.0212026
-0.0621394
0.200897
0.202702
-0.151932
-0.0749514
-0.0582849
0.31507
-0.0311325
-0.283937
0.186928
-0.269961
0.0830332
0.316271
-0.117899
-0.198372
-0.16887
0.072323
0.0965469
0.18143
-0.0422095
-0.130365
-0.0129633
0.0709926
-0.142559
0.199045
-0.056486
-0.0312182
-0.00107886
-0.118151
0.0888647
0.270227
-0.0331153
-0.237112
0.137841
-0.321533
0.183692
0.0839709
0.200604
0.00420264
0.01114
-0.234703
0.304409
-0.0697065
0.308023
-0.0845541
0.0384714
-0.0706309
-0.279013
0.0975423
0.181471
0.278172
0.0169389
-0.295111
-0.195555
0.260514
-0.064959
-0.02221
0.0907329
0.120415
0.0903073
0.0570296
-0.205743
0.298787
-0.160945
0.0155861
-0.274703
0.259117
-0.101831
0.0943473
-0.0683651
0.0500682
0.00193531
-0.0551787
0.0532434
0.0938964
-0.0634179
-0.0461049
0.0100468
-0.182575
0.145275
0.0372998
0.00475562
0.0670144
-0.07177
0.0841085
-0.0316081
-0.0525004
0.0156929
0.000584742
-0.0162777
0.0591906
-0.0463152
0.203199
-0.14606
0.0775402
-0.0543045
0.0765236
0.0312228
-0.0739506
0.0269942
0.0469564
-0.00900942
0.0662282
-0.0572188
-0.273209
0.0787367
-0.00483364
-0.124388
-0.116512
0.171549
-0.0550374
-0.186441
-0.135092
0.179919
-0.116112
-0.0638067
0.254224
-0.214474
0.201372
-0.147463
-0.0539091
-0.0345299
0.10099
0.0646208
0.136752
0.0567591
0.233486
-0.290245
0.151202
-0.156036
-0.148203
-0.0752025
-0.178234
0.253437
-0.236104
0.338759
-0.102655
0.0792328
-0.059051
0.077585
0.102334
0.0535396
0.0327003
-0.00728957
-0.0538842
0.0357977
-0.130516
0.0947182
0.207742
0.0682429
-0.275985
0.20384
-0.1537
-0.05014
-0.153472
0.230601
-0.0771287
0.274648
-0.0669061
-0.00483719
0.0179684
-0.298549
0.121817
0.176732
-0.22834
0.300592
-0.0722518
0.280802
0.00829615
-0.289098
-0.00790867
0.015162
0.195655
-0.253177
-0.0936608
0.254238
-0.0216858
-0.0083418
0.0300276
-0.174146
-0.159213
-0.11591
-0.0427481
0.0414224
0.00132575
0.271424
-0.0562193
-0.215205
0.261751
-0.190355
-0.0713956
-0.0412259
0.0438966
-0.00267063
-0.0921654
-0.166996
0.259162
0.261351
-0.245765
0.0682389
0.0536572
0.0304513
-0.198284
0.264246
-0.0659614
0.0133199
-0.0137994
-0.0693206
0.189736
0.197691
0.101096
0.228176
-0.302973
0.0747964
-0.335588
0.255074
0.0805144
0.324458
-0.212656
-0.111801
0.0407726
-0.0446843
0.00391175
0.0352119
0.183532
-0.218744
-0.0102099
0.049093
-0.0388831
-0.068359
0.156382
-0.0880232
-0.096869
-0.129029
0.225898
-0.0760557
0.111422
-0.0353659
-0.0317468
0.00052865
0.160232
-0.0364812
-0.12375
0.138446
0.186012
0.156259
-0.0234837
-0.132775
-0.0387937
0.0469669
-0.00817317
-0.00610307
0.0261071
-0.0200041
-0.18637
0.221582
-0.0151341
-0.259569
-0.0564916
-0.0409404
0.229409
-0.307484
0.0780753
-0.130847
-0.0414235
0.252481
0.00887045
0.0459112
0.225513
0.0504782
-0.02492
-0.193436
0.156091
0.0373444
0.235036
0.0637535
-0.298789
0.0419687
-0.0410232
-0.000945463
0.307958
-0.078549
-0.232904
0.237436
-0.071796
0.306832
-0.115337
0.0306096
0.0847275
-0.280658
0.269063
0.0115956
0.0867399
-0.0205207
0.0143157
0.00446855
0.060695
0.166304
-0.226999
0.267577
-0.21692
0.0322461
-0.042456
0.119924
-0.0598203
-0.0601032
-0.0537059
0.034292
0.0194139
-0.0126624
0.168921
0.123912
-0.0709501
-0.0529614
-0.0618314
0.052822
0.0468846
-0.00299063
0.133988
0.0474428
-0.0566692
0.100783
-0.0441134
-0.29561
0.20809
0.1984
-0.266058
0.0676575
-0.0274929
-0.0350768
0.107755
-0.0629495
-0.0448059
-0.23665
0.174184
0.0624655
-0.022017
0.0237725
-0.00175555
0.00317491
0.0569496
-0.163085
0.0705831
0.0925024
-0.222918
0.315308
-0.0923905
-0.334606
0.134098
0.200508
-0.0334401
0.0869797
0.0291578
-0.0330597
0.00390186
-0.102676
0.0629588
0.0397172
-0.0945552
-0.0611186
0.155674
-0.0127886
0.0137385
-0.000949879
-0.0176936
0.00313218
0.0823268
-0.272682
-0.193292
0.139773
0.053519
0.156806
0.0470332
-0.29813
0.212624
0.0855058
0.275511
0.00266135
0.0114203
-0.0797806
0.0683603
0.257573
-0.181433
-0.0761399
-0.0791654
-0.218964
-0.212448
0.304989
-0.0925408
0.249872
0.0309302
-0.0616438
-0.202438
0.264082
0.0582979
0.226321
-0.284619
-0.0791607
-0.201498
0.131504
0.0304613
-0.161965
-0.124987
0.196177
-0.0711897
0.0323223
-0.274351
0.242028
-0.0477213
0.204053
0.0915205
-0.285645
0.194125
0.108723
0.16548
-0.274203
-0.0496105
0.0603266
-0.296431
0.0223204
0.137911
0.0556285
-0.0602678
0.00463935
-0.0807642
0.0190325
0.0617317
-0.0519136
-0.0136989
0.000910267
0.0186041
-0.000299334
-0.0183047
0.0408084
0.0599741
0.185335
-0.103317
0.0808376
-0.0302248
-0.291888
0.0426773
0.133315
-0.271443
0.15929
0.0520752
0.171953
-0.253019
0.0810666
-0.315007
0.124024
0.190984
0.0515432
0.00408531
-0.206763
0.0459582
-0.041489
0.000465788
-0.0277907
-0.0492707
-0.124775
0.174045
0.0825235
0.102812
-0.104354
0.0525005
0.0518537
0.038718
0.00205458
0.0134019
-0.115867
-0.0423048
0.158172
-0.104531
0.22908
-0.124549
0.0556064
0.211971
0.232866
-0.148581
-0.0842849
0.0753422
0.0979915
-0.173334
-0.138124
-0.114798
0.252922
-0.0499355
0.0606416
-0.174724
0.0355166
-0.117858
0.0572047
0.0606533
0.131358
-0.0481888
-0.0831693
0.128335
-0.194164
-0.140442
-0.0488998
0.122897
-0.0931899
0.047029
0.046161
0.156992
-0.0944883
-0.0625038
0.278216
0.0368536
-0.0912396
-0.0277718
0.119011
-0.046206
0.00345787
-0.171005
0.0846891
0.0863159
-0.0354243
-0.250908
0.204535
0.0564402
-0.261754
0.205314
0.0898462
-0.0861253
-0.00372087
0.195492
-0.257135
0.0435587
0.00332583
0.210802
-0.163207
-0.0475951
-0.000328206
0.0091084
-0.00878019
0.137691
-0.23456
-0.151822
0.0653972
-0.180079
0.130164
0.0499143
-0.22849
-0.0475572
0.276047
0.301467
-0.093178
-0.208289
-0.30296
0.274818
0.0281427
-0.0885929
-0.0824121
-0.0232003
0.00118332
-0.155
-0.0361423
0.191142
0.084553
0.072439
-0.0639158
0.167644
-0.103729
-0.0552316
-0.048572
-0.276201
-0.0267595
-0.147989
-0.0450354
0.193024
0.062288
0.0319842
-0.00282635
-0.0500439
0.0478579
0.00218597
0.243816
-0.187375
-0.013653
0.0108218
0.21666
-0.0896113
-0.0238918
-0.0298142
0.215819
-0.274021
0.0582019
0.20537
0.0771444
-0.282514
0.114483
0.186984
0.307911
-0.102541
-0.165733
0.0690303
0.0967029
0.0630993
-0.0408473
0.0445178
0.0153444
-0.0598621
0.0965466
-0.0564624
-0.0400842
0.0888514
0.140229
0.171867
-0.0403633
-0.0878537
0.259806
0.12203
-0.1713
0.111528
-0.0216815
0.295219
-0.133358
-0.161861
-0.0940278
-0.063142
0.15717
-0.210212
0.274253
-0.0640413
0.0342249
-0.0105565
-0.0236684
-0.194286
0.274024
-0.0797376
-0.0979047
-0.0741112
0.185234
-0.128603
-0.056631
0.176567
-0.0995979
-0.0483694
-0.0118984
0.119001
-0.125839
-0.30098
0.168497
0.132483
0.194897
0.100322
-0.148042
0.0922147
0.0558269
-0.0225415
0.115281
-0.0927398
-0.0140267
0.133028
0.298627
-0.0726914
-0.197266
-0.039384
0.0669879
0.06862
-0.0288901
-0.0397299
-0.0866268
-0.0614148
-0.302239
0.309576
-0.00733689
0.0540806
-0.0511533
-0.00292728
0.0433598
-0.068988
0.0256282
-0.275993
0.0657808
0.0365456
0.0485451
-0.0285674
-0.0905383
0.119106
0.105333
0.111327
0.310661
-0.225071
0.103594
0.0459178
0.00571122
-0.147246
0.202278
-0.0550328
-0.15131
0.209291
-0.0579808
0.164395
0.0471631
-0.211558
0.224691
0.0766153
-0.301306
-0.0578725
0.00323519
0.0546373
-0.13959
0.0553124
0.0842771
0.120101
-0.00437697
-0.115724
0.175591
-0.251524
0.0759331
0.0477364
-0.00259584
-0.0186947
0.0251967
-0.00650202
0.306897
-0.0618997
-0.244997
0.0214642
-0.122516
0.101052
-0.110157
0.0464138
0.0637436
-0.0490567
0.264876
0.0541948
0.252702
0.140839
-0.0655319
-0.0753075
0.0160568
-0.000363823
-0.121405
0.0988631
-0.00106578
0.00507786
-0.273357
0.0866283
0.186728
-0.197609
0.274297
-0.0766884
0.0374504
-0.184383
0.0642202
0.148501
0.0623008
-0.104907
0.126371
-0.158055
0.111265
0.0467898
0.161494
-0.32242
0.160926
-0.00312634
0.0436868
-0.133468
0.089781
-0.0131799
-0.0446926
-0.0667146
-0.0336255
0.10034
0.0376486
-0.113704
0.282024
-0.190504
0.0587193
0.0821201
-0.0577653
0.129744
0.0958811
-0.150439
0.0545582
0.0611186
0.109663
-0.0810049
0.169324
-0.0883192
-0.0524922
0.0477654
0.00472684
0.311583
-0.207204
-0.104379
0.128926
-0.141588
0.0585124
-0.0841861
0.0256737
0.0175435
-0.0643791
0.0468356
0.0192316
-0.00491594
0.0307551
0.0045023
-0.0352574
0.033713
-0.00172879
0.0750759
-0.0431588
-0.0319171
-0.046544
0.0643661
-0.0178221
-0.261483
0.0928649
0.168618
0.0174044
0.217613
-0.235017
-0.136858
-0.0457169
-0.313796
0.108223
0.205573
0.0874246
-0.181452
-0.0945896
-0.166893
-0.0883786
-0.0225336
0.110912
0.055817
0.0309229
0.00902568
0.00703107
0.0898282
-0.118396
0.14026
-0.198954
0.0586934
0.182977
-0.29165
0.108673
-0.0403727
-0.0433514
0.0338683
-0.0341284
0.000260136
0.0980882
-0.0507285
-0.0473597
0.0001448
-0.0121991
0.0120543
-0.0217533
-0.0355846
0.0573379
0.00270265
-0.049175
-0.0368057
0.0859807
0.30983
-0.0274086
-0.282421
0.0386455
0.0594426
-0.194952
0.1462
0.0487524
0.302448
-0.105048
-0.197401
0.0521436
0.0427983
0.00416864
0.266397
-0.0782453
-0.185676
0.0738132
0.111862
0.0302328
-0.0269011
-0.0606365
0.225032
0.22412
-0.301349
0.0772292
0.0520871
-0.0211336
0.0620122
-0.0444687
0.19129
-0.135967
-0.0553233
-0.245567
0.323564
-0.0779964
0.307592
-0.0834724
0.114966
-0.0314292
-0.083537
0.24089
0.06894
0.0710084
-0.124867
0.0538589
0.112907
0.00719457
-0.156749
0.251221
-0.0944718
0.0471919
-0.163059
0.176026
-0.0914725
0.00396578
0.00856709
-0.0125329
-0.330025
0.0953219
-0.0208786
-0.0410428
0.0619214
0.0196986
0.0431913
-0.0628899
-0.305111
0.228546
-0.228043
0.312949
-0.0849057
-0.0237395
0.0682572
-0.0480002
0.284557
-0.175834
0.0369161
0.0317039
0.0113708
-0.011226
0.293743
-0.199798
-0.0939442
0.0416898
-0.0904547
0.0487649
-0.17526
-0.12572
0.334167
-0.156264
-0.177903
0.0842966
-0.272297
0.188
-0.0279694
-0.0928053
0.120775
-0.231691
-0.0275298
0.259221
0.0420472
0.0544993
0.0782205
-0.0386463
-0.0395742
-0.250158
0.0769898
0.173168
0.0207422
0.000551187
-0.0212933
0.0895137
-0.227637
-0.0438762
-0.0371678
0.0810439
0.231919
0.0921411
-0.32406
0.142762
0.191405
0.040965
0.00183329
0.220307
0.0734354
-0.21354
-0.0133289
0.226869
-0.033116
0.0318271
0.0012889
-0.13529
-0.0596622
0.00868485
0.0533274
0.293562
-0.287077
-0.00648435
0.0754941
-0.0640738
0.0131146
0.00020527
-0.055797
-0.201034
0.256831
0.228786
-0.299998
0.0712121
-0.0412751
-0.0604413
0.101716
0.342899
-0.137029
-0.20587
0.0221146
-0.253805
-0.00720011
0.0068719
0.256072
-0.0604169
0.0696222
-0.128818
0.0591958
0.106095
-0.0693054
-0.165861
0.191659
0.15124
-0.071373
-0.204963
0.276336
0.0312367
0.00247631
-0.299887
0.129694
0.170193
0.107545
0.0690222
-0.0181424
0.0613978
-0.0432554
-0.268836
0.0666878
0.202148
-0.120524
-0.194484
0.341498
-0.304401
-0.0370967
0.0410866
0.129675
-0.170762
-0.104366
0.0536376
0.0521983
0.139092
-0.105043
-0.0102944
0.162601
0.0737394
-0.07944
-0.189396
-0.0817059
0.136422
-0.093472
0.2804
-0.0626432
0.0445008
-0.0458383
0.0571515
-0.00350164
0.0680976
-0.0215858
0.0513375
0.00581402
-0.0716438
0.132089
-0.0884022
-0.194154
-0.105734
0.0845549
0.0914707
-0.283035
-0.0561671
-0.166033
0.2222
0.0475142
0.0845748
0.053634
-0.0867061
0.184576
-0.0690976
-0.0997723
0.0083076
-0.0750222
0.190069
-0.245866
-0.0340981
0.031511
0.0025871
0.230602
-0.176716
-0.0538859
0.168387
0.0556481
-0.0746693
0.0366915
-0.0408738
0.00418223
-0.0738353
-0.0395492
0.265411
0.0126495
-0.278061
0.169629
0.0934696
-0.263098
-0.0399009
0.0458568
-0.00595583
-0.237583
-0.0654687
0.303051
-0.0744313
0.0246168
0.0498145
-0.173252
0.0990375
0.0742145
0.162752
-0.0802289
0.0639591
-0.301542
-0.122926
0.292554
-0.215925
0.156719
0.059206
-0.0589325
0.19292
0.00255717
0.265133
0.0313219
-0.296455
0.00318412
0.0306842
0.0380202
0.197068
-0.235088
-0.0127855
0.0149168
-0.00213133
0.20134
-0.205989
-0.079311
-0.218169
0.29748
0.29522
-0.197771
-0.0974484
-0.100769
0.0594936
-0.056801
0.24687
0.211081
-0.173061
-0.343625
0.19204
0.151585
0.275894
-0.200814
-0.07508
0.0885386
0.0769113
0.22458
-0.303891
0.195814
-0.223492
0.0276775
0.0184539
-0.0445972
-0.0580788
0.00466502
-0.0461488
0.0414838
-0.00221895
0.0635623
-0.0613433
-0.0437627
-0.00441849
0.0123367
-0.0184398
-0.0662357
0.045357
-0.172474
0.0858471
0.265317
-0.153427
-0.0181687
-0.00475774
0.0229265
0.0576664
-0.0636407
0.00597421
0.0543761
0.108376
-0.0381379
-0.0666359
-0.051222
-0.0416855
-0.259232
0.300918
0.0518315
-0.259737
0.0563124
0.203425
0.0636461
-0.188633
-0.0163624
0.0160631
0.0458069
-0.046159
0.000352054
-0.21927
0.18052
0.0387501
-0.0221166
0.0243776
0.0296622
-0.0793524
0.0496902
0.206647
-0.00530757
0.0807923
-0.0166789
2.39225e-05
0.115511
-0.230443
0.114932
0.084901
-0.0311485
-0.0537525
0.131931
-0.0451862
0.304757
-0.25607
-0.0486868
-0.0851995
-0.19115
0.276349
-0.110764
-0.0435018
0.154266
-0.0484876
0.00472496
0.0155706
-0.0373238
-0.00799279
0.255093
0.0713087
-0.135225
-0.147241
-0.0461951
0.154176
-0.0582951
-0.0224242
-0.228651
0.251075
0.208155
-0.290858
0.0827028
0.0282519
0.00201476
-0.0302667
-0.00227093
0.00173129
0.0702502
-0.0719814
0.0154956
-0.0198767
-0.0394274
-0.140651
0.173035
-0.0352948
-0.13774
0.0947481
-0.0922881
0.312362
-0.104207
-0.0230545
0.00437674
0.0186778
0.00294598
-0.208333
0.205387
-0.0467593
-0.0250449
0.0718041
0.381059
-0.163501
-0.217559
0.15001
0.0684683
-0.218478
0.214471
-0.0715695
0.0811703
-0.0253533
-0.110181
-0.122087
-0.287735
0.0894512
0.0552615
-0.278179
-0.0477775
0.209606
0.171453
0.216365
-0.0595581
0.0497295
0.192636
-0.242365
0.215627
-0.0656172
-0.233013
0.302728
-0.0697156
-0.209703
-0.133922
0.215322
0.0871258
-0.174558
-0.0286928
0.00663222
0.0872642
-0.116117
0.042403
0.0737142
0.175144
0.10075
0.263681
-0.0389897
0.0656587
-0.0678777
-0.167434
-0.350581
0.187912
0.162668
0.125375
-0.04947
-0.0421401
0.0468051
-0.0224218
0.00425307
0.153763
-0.20993
0.277054
-0.0734504
-0.203603
0.0634013
-0.176108
0.112706
0.0173796
-0.0257214
-0.117286
0.0893165
0.137832
0.0852882
-0.22312
-0.0698352
-0.010929
0.0311003
-0.223625
0.147893
-0.209074
0.0611802
-0.266574
0.0744105
0.192164
0.172278
-0.149713
-0.022565
-0.0125019
0.0160239
-0.00352202
0.196594
-0.253395
0.0537371
-0.0330081
-0.020729
-0.0149123
0.00455961
0.196681
-0.281881
-0.0619655
-0.22512
0.287085
0.110298
-0.0696932
0.0637107
-0.156318
0.0926072
0.0250373
0.226461
0.0299881
-0.256449
-0.125994
0.0468228
0.0791712
-0.23582
0.30963
-0.0738107
-0.0307681
0.0300796
0.00068844
0.0689377
0.0337437
-0.00298858
0.244689
-0.129178
0.0641473
0.161858
-0.226005
-0.219179
-0.0434478
0.262626
0.0284728
-0.0970743
0.0686015
-0.0463619
0.00511729
0.0412446
0.00934035
-0.068392
0.0590517
0.0840813
-0.0358921
-0.0481893
-0.0727416
0.0744729
0.0654825
0.234039
-0.299522
0.0385273
-0.294598
0.350055
-0.166524
0.283485
-0.0249262
-0.0167197
0.212534
0.157809
-0.0189658
-0.138843
0.0449722
0.0231254
-0.0031478
0.0165497
-0.0502232
-0.0788375
0.129061
0.0254059
0.04967
0.0393514
0.0838527
-0.123204
0.232644
0.126341
0.223714
0.167529
0.0488351
0.0638247
-0.0977363
0.0339116
0.00721287
0.0093439
-0.0165568
0.202039
-0.0956877
-0.106351
0.186303
-0.040103
0.257622
-0.0621307
-0.000949039
0.142012
-0.105362
-0.0366493
0.100184
-0.256517
-0.19571
-0.0776094
-0.182128
-0.255895
-0.0463438
0.0529825
-0.244114
0.191131
0.0295685
-0.0953634
0.065795
-0.103154
-0.00618894
-0.225277
0.0843834
0.140894
-0.0158416
-0.0391721
-0.0017017
-0.0309674
0.0102415
0.0874193
0.0445118
-0.150372
0.263101
-0.112729
-0.158071
-0.11346
0.271531
0.114788
-0.0392934
0.0624162
-0.00474974
-0.186999
0.133393
0.0536063
-0.0468324
0.126721
-0.0465578
-0.0801637
0.232407
-0.294373
-0.211775
0.156069
0.0557062
-0.0485895
0.280996
0.0940753
-0.0645068
-0.15499
0.153092
-0.267572
0.11448
0.272417
-0.0882236
-0.184193
-0.0842599
0.297048
-0.212788
0.0209941
-0.00549856
0.0196113
-0.0152346
-0.137208
-0.213373
-0.0575114
0.00131365
0.0561978
0.0292154
0.234668
-0.263883
0.153909
-0.0249833
0.286803
-0.34023
0.0534274
-0.0392041
3.19987e-05
-0.0650712
-0.104387
0.169458
-0.0860902
0.0499469
0.0675212
0.194754
-0.262275
0.189111
0.0593475
-0.248459
-0.115082
-0.0581699
-0.00580262
0.0148283
-0.0721076
-0.192785
0.264893
0.0889038
-0.139127
0.0252878
-0.143439
-0.187467
0.0047438
0.0294811
0.0603693
0.0473861
0.294946
-0.232216
-0.06273
0.0601008
0.0546867
-0.0626608
0.0495306
0.0131303
0.118862
-0.20652
0.0876582
0.0506967
-0.193256
-0.116868
0.16406
-0.159802
0.252222
-0.0924197
-0.0569545
-0.0337446
0.0906991
0.0426331
-0.0552485
0.0126154
0.0568806
-0.0250761
0.114305
0.0507365
-0.165041
0.0395694
0.0108433
-0.0221672
0.0197021
0.00246505
-0.211829
-0.0586064
0.270435
0.097064
-0.162135
-0.0108554
-0.0391198
0.0499752
0.312599
-0.0490859
-0.263513
0.207615
0.0841701
-0.291786
-0.121406
-0.0262169
0.0672421
0.16336
-0.270175
-0.0418212
0.138885
0.201432
-0.0825702
-0.245743
0.105306
0.140437
-0.0939862
0.157697
0.178187
-0.0638823
0.0401674
-0.00144938
0.0542626
-0.0116295
-0.0201389
-0.0575515
0.0776904
0.216099
-0.0485695
-0.109346
0.0544765
0.0548698
0.202483
-0.27459
-0.0442884
-0.313655
0.232308
0.0813471
-0.113283
0.0764518
0.0368312
-0.0785438
0.262608
-0.184065
-0.276499
0.219972
0.0354733
-0.0680196
0.0325463
-0.0982905
-0.0741834
0.00248087
0.05105
-0.0885265
0.031572
0.0391953
-0.189567
0.0158764
-0.0190242
0.0355227
-0.130374
0.0948513
0.0380622
0.00210521
-0.0467204
0.0511014
-0.00438108
0.00349278
0.188711
-0.192203
0.199559
0.0950363
-0.0356907
-0.234557
0.0980109
-0.218294
0.120283
-0.0742947
0.0541558
0.18604
-0.138564
-0.047476
-0.132144
0.0629163
0.0692278
0.213499
-0.152804
-0.0127514
0.204124
-0.191373
0.0301157
0.0267648
-0.0524911
0.0443478
-0.0692233
0.0248756
0.0815872
-0.0401419
0.043448
0.0406333
0.075492
-0.211135
0.13568
0.0754559
0.156618
0.0601618
-0.21678
-0.0448365
-0.259988
0.304825
0.0768944
0.125144
-0.059022
0.0481665
-0.15069
-0.0950536
0.0163288
0.0292917
-0.302356
0.0761261
0.22623
-0.22348
0.226973
-0.342361
0.185276
0.157085
0.0282719
-0.0287731
0.000501188
-0.0849893
-0.217367
-0.157871
0.182571
-0.0246999
-0.0881482
-0.197109
-0.145252
-0.0361167
-0.00378425
-0.289055
0.102306
0.18675
-0.200241
-0.0132995
0.0565879
-0.0465717
-0.0466182
-0.0492455
0.0186616
-0.0748898
0.257867
-0.00929296
0.0186369
-0.071679
-0.0444382
0.0558709
0.175026
-0.230897
0.0888666
0.0674624
-0.0496202
-0.0178421
-0.0566874
-0.0477082
0.104396
-0.134959
0.171194
-0.0362354
-0.30654
0.23545
0.0710905
-0.169049
0.22492
-0.0913208
-0.0408232
-0.134933
-0.0623031
0.197236
0.127652
-0.0622094
-0.0654422
0.0792524
-0.0869937
0.0130888
-0.105907
0.0928183
-0.209464
0.26936
-0.0598954
0.222806
0.0843847
-0.30719
-0.0456151
-0.14077
0.186386
-0.287003
0.0747235
0.312047
-0.11179
-0.200257
-0.149199
0.211085
-0.0618856
0.0784542
0.0136385
0.135636
-0.0820762
-0.0535598
-0.0230348
0.0688076
0.0678127
-0.271888
0.204075
-0.161224
0.220764
-0.0595407
-0.0113865
-0.0307352
-0.0732482
0.1126
-0.186338
0.134321
0.0520169
0.189015
0.0834021
0.0951259
0.217473
-0.273657
0.0784386
0.195218
-0.104399
-0.19415
0.25828
-0.187036
-0.0712444
0.0653384
-0.0203662
0.312088
-0.162535
0.164383
-0.25008
0.0856965
0.309547
-0.245588
0.20532
0.0589223
-0.264243
0.0198983
0.289649
0.0295562
0.0241809
-0.0459225
-0.0558917
0.101814
-0.146554
0.0780904
0.0684633
-0.324777
0.235887
0.08889
0.216426
-0.0685322
-0.0800992
0.108471
-0.0283723
0.139526
0.069394
-0.20892
-0.0494482
-0.0765458
0.269537
-0.198984
-0.0705525
0.212251
0.0997959
-0.0560113
0.129107
-0.0730958
-0.0510046
-0.111194
0.162199
-0.179879
0.0699646
0.109914
0.142596
0.0304384
0.0057472
0.0677513
-0.0734985
-0.0475179
-0.216466
0.263983
0.000298638
-0.00362408
-0.0412984
-0.178485
0.13024
0.0482444
-0.210026
0.237096
-0.0270699
0.105177
-0.0637064
-0.0414707
0.228948
-0.131646
-0.0973013
-0.0324792
0.065802
-0.0333227
-0.0736804
0.190294
-0.237812
-0.0263653
-0.0534153
0.134067
-0.100155
-0.0339122
0.11895
-0.0479412
0.0649588
0.1449
-0.209859
0.00225451
0.0260174
0.258109
-0.0504931
0.0776324
-0.0316523
-0.04598
0.0478247
-0.0537335
0.00590887
-0.298974
0.101628
0.197347
0.18406
-0.136657
-0.0474029
-0.16586
-0.152315
-0.0790781
0.172117
-0.0930394
-0.19789
0.290646
-0.0927558
0.185093
0.0897245
0.231764
0.0435509
-0.275315
0.188672
-0.263874
0.285567
-0.0660715
-0.0413534
-0.0101833
0.0515367
0.052892
-0.157119
0.0976625
0.0594562
0.0793217
-0.0208093
-0.0399998
-0.0607689
0.228053
-0.0389423