/*--------------------------------*- C++ -*----------------------------------*\
| =========                 |                                                 |
| \\      /  F ield         | OpenFOAM: The Open Source CFD Toolbox           |
|  \\    /   O peration     | Version:  v2012                                 |
|   \\  /    A nd           | Website:  www.openfoam.com                      |
|    \\/     M anipulation  |                                                 |
\*---------------------------------------------------------------------------*/
FoamFile
{
    version     2.0;
    format      ascii;
    class       volVectorField;
    location    "400";
    object      U_0;
}
// * * * * * * * * * * * * * * * * * * * * * * * * * * * * * * * * * * * * * //

dimensions      [0 1 -1 0 0 0 0];


internalField   nonuniform List<vector> 
54593
(
(1.01931 -0.013447 2.57017e-22)
(1.00454 0.00562957 1.85903e-22)
(1.01821 -0.0150349 -4.21886e-22)
(1.07516 0.057307 1.00097e-20)
(1.06243 0.0692739 1.37888e-21)
(1.02149 -0.0136572 -2.73591e-23)
(1.01014 0.00244268 1.60194e-22)
(1.07735 0.0594321 -3.64643e-21)
(1.06858 0.066087 4.96497e-21)
(1.06248 0.0268551 -4.93813e-23)
(1.01803 0.000555229 1.92119e-21)
(1.07478 0.0604641 4.59482e-21)
(1.00101 -1.81854e-05 0)
(1.01115 0.00325442 0)
(1.03051 -0.00376593 -2.2475e-23)
(1.00895 6.97377e-05 2.67396e-22)
(0.46932 0.0299019 4.092e-23)
(1.02005 0.00632485 0)
(1.00907 7.31575e-05 -2.71289e-22)
(1.08138 0.0686922 0)
(1.01741 0.00939716 -1.63767e-23)
(1.02968 0.0176172 1.85276e-22)
(1.03262 -0.00496292 -1.04732e-22)
(1.01426 0.00561976 0)
(1.01128 0.000350696 -3.54312e-22)
(1.07025 0.0261184 4.96382e-21)
(0.944502 0.130417 -1.56468e-22)
(1.0284 -0.00373979 0)
(1.02384 0.0787612 1.25598e-21)
(1.01471 -0.00112989 2.20371e-22)
(1.04614 0.0326881 0)
(1.03188 0.0378289 1.91921e-22)
(1.00572 7.21501e-05 -3.66759e-24)
(1.00379 -0.0257654 -3.2216e-21)
(1.00777 0.000236034 8.13253e-23)
(1.01406 0.00530216 -2.56009e-23)
(1.07489 0.022974 -9.26298e-21)
(0.996372 0.0474581 1.90396e-22)
(0.985596 0.119198 3.67482e-21)
(0.966525 0.174493 -1.84288e-21)
(0.949338 -0.0282412 -1.22953e-21)
(1.00379 9.88117e-05 0)
(1.01998 0.00800675 3.78305e-24)
(1.02233 0.00623475 1.2653e-21)
(1.00939 0.00199151 2.01451e-22)
(1.01842 0.0100844 -1.27576e-22)
(1.0105 0.00264892 6.08955e-23)
(0.937873 0.126588 0)
(0.990564 0.0504637 -2.14398e-22)
(1.02991 0.0178541 4.56132e-22)
(1.00929 0.00193465 -1.66739e-22)
(1.01259 0.00309409 0)
(1.0159 0.00788835 0)
(1.06776 0.0174223 1.0959e-20)
(1.05541 0.0311364 -4.47316e-21)
(1.01797 0.000527194 2.44517e-21)
(1.07755 0.0593216 3.91742e-21)
(1.03034 0.0122889 7.68817e-22)
(1.03016 0.0547578 0)
(1.01607 -0.000850709 1.68641e-22)
(0.98894 0.11861 1.40073e-21)
(1.02635 0.012064 -2.34185e-21)
(1.02444 0.0160463 1.48712e-21)
(1.02591 0.0119647 0)
(0.5346 0.0322854 6.88304e-21)
(0.959728 0.172876 1.91304e-21)
(1.0226 0.00236158 0)
(0.655017 0.0387881 5.26089e-21)
(1.0125 0.00303504 0)
(1.01024 0.00250911 -2.57618e-22)
(0.531824 0.0336064 3.57989e-21)
(1.01313 0.00461452 1.9894e-23)
(1.06745 0.0178732 -5.62214e-21)
(1.00569 7.22806e-05 -1.75597e-23)
(1.00756 0.00011265 0)
(1.0106 0.00271998 0)
(0.915044 0.0814008 -6.78006e-22)
(1.03665 0.0131589 4.59702e-21)
(0.974111 -0.0284334 0)
(1.07423 0.0257531 0)
(1.01419 0.00552551 0)
(1.03504 0.00646064 0)
(0.5334 0.0327746 5.80604e-21)
(0.62934 0.0371715 -5.23033e-21)
(1.01759 0.00540042 0)
(1.01255 0.00355246 -2.51063e-23)
(1.07869 0.0664679 -1.53625e-21)
(1.01742 0.00941084 1.63059e-23)
(1.01267 0.00362266 1.40175e-23)
(1.07588 0.0600578 2.06012e-20)
(1.01012 0.00188679 2.00045e-23)
(1.01402 0.0052221 1.68051e-23)
(0.636811 0.038639 6.06664e-21)
(1.03525 0.00627043 0)
(0.898944 0.109331 -7.22005e-23)
(1.0647 0.0315473 3.78391e-21)
(1.01792 0.0167238 -8.76474e-23)
(1.02283 0.0145334 3.526e-22)
(1.01979 0.00785493 -1.32268e-21)
(1.00757 0.000177478 0)
(0.91844 0.117856 0)
(0.922516 0.0563962 0)
(1.02615 0.0121371 0)
(1.0836 0.0691167 0)
(1.03074 0.0155814 -9.79526e-23)
(1.0785 0.0776488 0)
(1.013 0.00449227 1.39468e-22)
(1.07394 0.0466647 -1.10984e-20)
(1.00576 8.31464e-05 2.69313e-22)
(1.01999 0.00771181 1.23209e-21)
(1.0107 0.00198758 -1.64723e-23)
(1.03671 0.0129922 -3.56294e-21)
(0.503322 0.0270015 0)
(1.01317 0.0150921 1.42116e-22)
(0.928355 0.129722 -1.1025e-21)
(1.02169 0.000646085 0)
(1.01986 0.00624079 0)
(1.01832 0.00999661 3.49595e-23)
(1.02861 0.0149648 1.56737e-22)
(0.915307 0.118622 0)
(1.01402 0.00494627 -3.56613e-23)
(1.08348 0.0681534 0)
(1.06996 0.0257333 1.21857e-20)
(1.02769 0.0410559 -2.36414e-23)
(1.02652 0.0189844 -2.42212e-21)
(0.470262 0.0309642 3.53318e-21)
(1.0146 0.0060459 7.11725e-24)
(1.02928 0.0341741 3.48573e-23)
(0.671963 0.0403512 5.25582e-21)
(1.03134 0.000973027 -1.5915e-21)
(1.03555 0.0153761 4.24351e-21)
(1.02146 0.0172622 4.2416e-22)
(1.00965 0.00174004 0)
(1.0288 0.0284845 0)
(1.02255 0.00635242 0)
(1.00786 0.000256007 3.65803e-23)
(1.06924 0.0328522 1.43597e-20)
(1.0798 0.0777069 0)
(1.02654 0.0187903 1.07316e-21)
(0.904853 -0.0849964 0)
(1.02184 0.000681964 -1.50634e-21)
(1.01547 -0.000601457 8.38635e-23)
(1.01978 0.00720305 0)
(0.613432 0.046289 5.12061e-21)
(1.01744 0.00528283 -9.87285e-22)
(1.0289 0.028442 5.73926e-22)
(1.04285 0.0319133 -2.90481e-21)
(1.04602 0.0293901 0)
(1.02003 0.0076206 0)
(0.474649 0.0303016 -5.2573e-23)
(1.01432 -0.000934376 2.02291e-22)
(1.0322 0.0647263 0)
(1.02044 0.0105138 6.00578e-22)
(1.0123 0.00331376 7.53732e-24)
(1.05916 0.0116255 0)
(1.07862 0.0661318 2.71489e-21)
(1.07581 0.0599207 -1.5908e-20)
(0.921643 0.124254 4.19824e-22)
(1.00713 0.00671846 -7.85627e-23)
(1.02287 0.0143543 -3.719e-22)
(1.01798 0.00822739 -8.02994e-23)
(1.08931 0.0510184 0)
(0.62068 0.036173 0)
(1.00838 0.00135641 0)
(1.08096 0.0686658 1.29116e-21)
(1.03654 0.0122556 3.61925e-21)
(1.01822 0.00995211 0)
(1.00988 0.00175841 9.9345e-24)
(1.02711 0.000697394 4.39047e-21)
(1.01083 0.00201181 7.2458e-23)
(0.578277 0.0115633 9.38941e-24)
(1.01445 0.000527761 4.43844e-23)
(1.0142 -0.000898963 0)
(1.05872 0.0478882 4.12088e-21)
(1.03541 0.0150567 -2.81072e-21)
(1.01981 0.00712773 -6.06536e-22)
(1.06798 0.0581118 -3.83104e-21)
(1.03014 0.0300119 0)
(0.622768 0.0472019 -6.17163e-21)
(1.00845 0.00139456 1.36652e-22)
(1.00751 0.000199819 -2.3507e-22)
(1.01528 0.00438877 3.31018e-22)
(0.700084 0.0409899 -2.84827e-21)
(1.01543 0.00547738 -2.1942e-22)
(1.00802 0.00807524 2.77852e-22)
(1.00065 -1.09939e-05 1.34264e-22)
(0.530333 0.0987495 4.79765e-21)
(1.0216 0.00983409 3.77282e-22)
(1.01786 0.0170989 7.40265e-23)
(1.00091 -1.5967e-05 1.15113e-22)
(0.892242 -0.0720365 3.84803e-22)
(1.08401 0.0694931 1.06589e-20)
(1.00386 0.000129107 3.23651e-22)
(0.901729 -0.132661 -4.84822e-22)
(1.07843 0.0635941 9.8871e-21)
(1.0303 0.0120676 1.52223e-21)
(1.00699 0.000372158 -7.79421e-24)
(1.02229 0.0198337 4.65462e-22)
(1.0779 0.0629844 -1.86117e-23)
(1.0151 0.00432491 -6.73181e-23)
(0.675916 0.0319581 1.08426e-21)
(1.02759 -0.00252622 6.92118e-23)
(1.01099 0.0004372 -1.23991e-21)
(1.07492 0.0406608 -3.01027e-21)
(0.383936 0.0111465 6.22062e-21)
(1.0262 0.0191488 9.59065e-22)
(1.0141 -0.000605693 -3.1796e-22)
(1.07506 0.0413053 3.90012e-23)
(1.01568 0.000244171 1.5863e-21)
(0.56682 0.0967546 0)
(1.02114 0.00087813 0)
(1.0747 0.0606035 -3.1064e-21)
(1.06336 0.0444765 0)
(1.03488 0.0628657 -4.56261e-22)
(1.01689 0.000104004 0)
(1.02973 0.0285109 0)
(1.05154 0.022247 4.48428e-21)
(1.01645 -0.0150975 6.31812e-23)
(1.00566 6.17013e-05 2.85607e-23)
(1.01765 7.98855e-05 0)
(1.01397 -0.000654489 2.41208e-22)
(0.573791 0.0118322 1.6246e-20)
(1.01293 0.00446376 -7.99625e-22)
(1.00522 0.118996 -1.35337e-21)
(0.901646 0.111435 -5.05884e-22)
(1.0756 0.0609482 1.25654e-20)
(1.02159 0.0170946 5.29211e-22)
(0.649958 0.0261228 8.54059e-21)
(1.0233 0.0396989 -6.32593e-22)
(0.679681 0.0407765 -5.36942e-21)
(1.03224 0.0911837 -7.29948e-22)
(1.0058 9.02539e-05 -2.20615e-22)
(1.03713 0.0252198 -1.89839e-21)
(1.01734 0.00935107 3.89564e-23)
(1.06264 0.0272862 6.84801e-21)
(1.0268 0.000617043 0)
(1.02621 0.0189776 1.05446e-21)
(0.904261 0.11636 -9.63146e-22)
(1.07832 0.0633039 -9.51105e-21)
(1.00285 9.99424e-05 0)
(1.00567 5.9867e-05 -3.34216e-23)
(1.00963 0.000541655 -7.80219e-22)
(1.01722 0.00486277 -4.51508e-22)
(1.00562 5.5342e-05 -6.30937e-23)
(1.05577 0.0308906 7.23759e-21)
(1.01354 0.00488736 0)
(0.855509 0.0571031 0)
(0.974167 0.115626 0)
(1.01609 -0.00133042 -6.81004e-24)
(1.01147 0.000359345 0)
(1.07702 0.0628505 1.235e-20)
(1.00087 -2.39801e-05 -1.243e-22)
(1.07355 0.0463438 7.73742e-21)
(1.00214 -3.63471e-05 -4.7646e-23)
(0.825961 -0.118346 -3.68131e-22)
(1.01123 0.0033189 0)
(0.982237 0.0272564 0)
(0.658882 0.0279763 -8.14618e-21)
(1.07541 0.0607097 2.26662e-21)
(1.01409 0.00468727 -9.65935e-22)
(1.01375 0.00473592 0)
(1.00571 4.81021e-05 -3.43752e-23)
(1.07241 0.0587404 -9.35196e-21)
(0.95558 0.126821 1.4739e-21)
(1.0372 0.0247473 -2.12519e-23)
(1.06745 0.0681721 -1.23313e-21)
(1.00572 6.90544e-05 3.57432e-24)
(1.02208 0.0244721 0)
(1.02073 0.0119526 -6.41506e-22)
(1.00111 -1.55209e-05 0)
(1.08142 0.0777838 6.60563e-21)
(0.983676 0.111652 4.99452e-22)
(1.0128 0.00435103 6.17918e-22)
(1.07533 0.05966 2.33943e-21)
(1.07718 0.062631 2.09038e-21)
(0.609653 0.130061 0)
(1.02028 0.0104893 1.63962e-21)
(1.02104 0.000901728 0)
(1.06716 0.0497812 -1.32282e-21)
(1.03234 0.000627354 -1.64585e-21)
(1.01422 0.00481384 1.54072e-21)
(1.01702 0.000466176 0)
(1.01597 -0.00143922 2.40492e-22)
(1.07581 0.0389206 3.15478e-21)
(0.538107 0.0284675 0)
(0.999343 0.0339235 5.37841e-22)
(1.07684 0.0389358 -9.15669e-23)
(1.01877 0.0195199 1.18627e-22)
(1.07936 0.0641055 0)
(1.0206 0.0106898 -1.81038e-21)
(1.01615 -0.00102363 0)
(0.845618 -0.110483 0)
(1.03132 0.0261465 7.58304e-23)
(0.630758 0.0370963 1.71988e-22)
(1.04798 0.0611469 -6.46024e-21)
(1.02613 0.00747838 -3.01041e-21)
(1.02439 0.011686 9.20467e-23)
(1.01455 0.00599722 0)
(1.01897 0.0193016 -3.08256e-23)
(0.992791 0.00378607 -4.09846e-22)
(1.0681 0.0592841 7.91975e-21)
(1.06251 0.0625902 0)
(1.01082 0.0114493 3.37598e-22)
(1.03999 0.0259999 -1.14735e-22)
(1.0465 0.0729953 -6.79486e-21)
(1.07965 0.0640386 0)
(0.869743 0.0568369 1.30822e-21)
(0.506809 0.0213943 4.5494e-21)
(0.637545 0.119839 0)
(0.621724 0.0365327 0)
(1.01583 0.00782503 -9.40416e-24)
(1.00141 0.0356454 1.78467e-22)
(1.02188 0.0240225 0)
(0.601334 0.0482848 0)
(1.07908 0.0673473 0)
(1.01614 0.00382157 1.16732e-22)
(0.532599 0.0274017 0)
(1.0384 0.0340405 2.22976e-21)
(1.07335 0.0587444 0)
(1.02157 0.00966898 1.12537e-21)
(0.718506 0.0425274 2.74832e-21)
(1.08514 0.0490328 0)
(1.01717 0.00518726 1.93441e-21)
(1.01586 0.00303124 8.9152e-22)
(1.01343 0.00480448 0)
(0.91786 -0.0856401 0)
(1.03486 0.02502 0)
(1.03856 0.0292546 0)
(1.00844 0.000456899 7.19977e-23)
(1.05916 0.0737285 -5.10287e-23)
(1.07532 0.0597516 0)
(1.00741 0.000189194 2.36669e-22)
(0.993013 0.00709039 -2.64665e-22)
(1.0224 -0.0122085 0)
(1.07487 0.0260345 -3.08179e-22)
(1.01948 0.00772591 -8.18375e-23)
(1.01486 0.00635052 1.19351e-22)
(1.01172 0.0192091 -3.29334e-22)
(1.02911 0.0285008 -6.40072e-22)
(1.01383 0.00466019 -1.73742e-23)
(1.02303 0.0388031 6.69356e-23)
(0.884627 -0.0860949 1.0668e-21)
(0.476929 0.0317963 -1.14417e-24)
(1.01382 0.00458034 -3.55022e-24)
(1.00824 0.00114833 1.96078e-22)
(0.678645 0.0537197 7.7004e-22)
(1.02136 0.00950923 -1.41175e-21)
(1.04099 0.0317788 -8.03602e-23)
(1.02951 0.0345936 0)
(1.00139 2.57093e-05 -4.59094e-23)
(1.00045 0.056714 1.00547e-22)
(1.00138 -9.58335e-06 0)
(0.961349 0.0196165 9.47992e-22)
(1.02269 0.0141416 3.62363e-22)
(1.01513 0.00477312 2.38047e-22)
(1.06672 0.0682439 1.66689e-21)
(1.01768 0.0153367 0)
(0.858815 0.0573035 -1.37287e-21)
(1.03088 0.0265377 -9.57996e-23)
(1.02341 0.00558092 9.88453e-23)
(0.992973 -0.0124221 -3.75771e-22)
(1.00977 0.0104131 -3.39678e-22)
(0.510709 0.0220113 -4.22271e-21)
(1.01106 -5.76652e-05 8.65372e-23)
(1.01103 0.0165871 3.52522e-22)
(1.08523 0.048531 5.69497e-21)
(1.01443 0.00460737 -5.8811e-22)
(1.00436 -7.55402e-05 -4.17717e-23)
(1.0144 0.00578839 1.1641e-21)
(1.04534 0.0723107 1.62913e-21)
(1.01817 0.00991163 0)
(0.95407 0.127013 -1.18962e-21)
(0.98957 -0.0148205 0)
(1.02139 0.00577077 0)
(1.03488 0.0248105 -3.11403e-21)
(1.06785 0.0589061 -6.67e-21)
(1.07027 0.0662185 1.08248e-21)
(1.04602 0.0297137 4.26316e-21)
(1.07941 0.0672867 0)
(0.845577 -0.0034621 0)
(1.06533 0.0536789 4.98082e-21)
(1.04342 0.0815116 -1.82307e-21)
(0.532259 0.0272514 0)
(1.06291 0.0630244 0)
(1.03333 0.0410353 1.05631e-22)
(1.06346 0.0449238 1.09504e-20)
(1.07461 0.0416222 0)
(1.06299 0.0603707 9.10511e-21)
(1.0588 0.0558833 4.16445e-21)
(1.01241 0.00337565 1.64384e-24)
(1.01936 0.0195634 -1.5588e-22)
(1.0183 0.0340023 9.93808e-23)
(0.991708 -0.00881455 0)
(1.02198 0.0326585 1.53114e-23)
(1.00976 0.00176532 0)
(1.03614 0.0053282 2.79134e-21)
(1.07506 0.0235786 1.09233e-20)
(1.03591 0.00549189 -4.73042e-21)
(1.01887 -0.00188138 0)
(1.01951 0.0193026 -1.74494e-22)
(1.00544 0.00722983 -1.99846e-22)
(1.00825 0.000990477 8.5547e-23)
(1.01038 -8.755e-06 -2.00894e-22)
(1.06946 0.0333144 0)
(1.02124 0.0327215 -1.20216e-23)
(1.08025 0.0287479 0)
(1.07343 0.0585723 6.33041e-22)
(1.02747 0.0273751 0)
(0.986766 0.0405912 8.63465e-23)
(1.01345 0.0139328 0)
(1.02569 0.0074915 1.32572e-22)
(0.986706 0.0352621 1.85546e-22)
(0.596944 0.0576146 -5.49803e-21)
(1.02091 0.00119941 0)
(1.00572 3.75893e-05 1.3844e-22)
(1.0004 -9.79814e-06 -6.22228e-23)
(0.51361 0.0288657 0)
(0.374716 0.00948579 1.45021e-21)
(1.02369 0.0104024 3.972e-22)
(1.01483 0.00619674 -4.87473e-23)
(0.62485 0.0202746 4.04929e-21)
(1.01456 -0.00110613 -1.2187e-22)
(1.01404 0.00503673 5.06135e-24)
(0.954907 0.0627831 7.53657e-21)
(1.01454 0.00200829 0)
(1.0265 0.0104092 -1.00999e-22)
(1.07156 0.060145 -6.57821e-21)
(1.00805 -0.000405424 -1.16761e-24)
(1.02058 0.00535427 0)
(1.02596 0.00761183 0)
(1.0419 0.0820195 1.69389e-21)
(0.962625 0.0105883 0)
(0.47321 0.0170752 1.15476e-20)
(1.01808 0.00985271 -3.60062e-23)
(0.990424 -0.0188237 2.3579e-22)
(1.00783 0.000153835 7.67731e-23)
(1.00568 0.000246069 1.67115e-22)
(1.00866 -0.00204136 -8.70099e-23)
(1.0129 0.0614456 0)
(1.02427 -0.00173564 3.15086e-22)
(1.08132 0.0621124 1.75168e-20)
(1.03966 0.0177337 0)
(0.869925 0.104411 8.58498e-23)
(1.05761 0.0295004 0)
(0.873422 0.0579087 0)
(1.02801 0.0280934 2.1309e-22)
(1.00882 -0.00308415 -9.45804e-23)
(1.02249 0.0292614 8.93689e-23)
(1.06654 0.0703235 4.20343e-21)
(0.700061 0.0465644 -5.89016e-21)
(1.0234 -0.00143835 0)
(1.02189 0.00550595 -5.08892e-23)
(1.0754 0.0403871 9.43424e-21)
(1.00579 5.6791e-05 0)
(1.03197 0.0528789 0)
(1.02015 0.00553678 0)
(1.01477 0.00162185 7.97747e-24)
(1.07888 0.0785019 0)
(1.02488 0.0163382 4.46353e-22)
(1.01711 0.00163644 8.76841e-23)
(1.06869 0.070759 1.27802e-20)
(1.00574 5.2841e-05 0)
(1.01267 0.000582089 0)
(1.01709 0.00190102 -9.18626e-23)
(1.03412 0.0345799 -8.65095e-22)
(1.02199 0.025641 9.47421e-23)
(1.06666 0.0495768 -2.55626e-21)
(0.620493 0.0459373 0)
(1.02092 0.00420242 -2.47505e-21)
(1.0196 0.0069617 2.91733e-21)
(1.0813 0.0624339 0)
(1.02949 0.0396305 0)
(1.0748 0.061219 5.38611e-21)
(1.02205 0.0289187 -6.82491e-23)
(1.02249 0.0370187 -4.5855e-22)
(1.05862 0.0555009 5.53867e-21)
(1.07822 0.066023 -2.77266e-21)
(1.02248 0.0140892 0)
(1.0653 0.0545007 0)
(1.01819 0.00733554 -9.82404e-23)
(1.01439 0.00606623 0)
(0.616542 0.130211 2.38722e-22)
(1.02966 0.0655272 -1.45048e-21)
(1.02446 0.0207649 1.73979e-22)
(0.720145 0.0515186 0)
(1.07371 0.0699944 0)
(1.02584 0.0117942 8.96872e-23)
(1.0226 0.0234921 0)
(1.00629 -0.000168345 0)
(1.0166 0.000131204 -4.66354e-23)
(1.07966 0.0285416 6.92511e-21)
(0.826645 0.0515647 6.80564e-22)
(0.99947 0.0714569 0)
(1.025 0.022109 -1.72545e-23)
(0.474091 0.0439689 1.21698e-20)
(0.56111 0.00906477 -1.39917e-20)
(1.02799 0.01033 1.88509e-22)
(1.01741 0.0175819 2.13421e-23)
(1.01333 0.0133547 3.52084e-22)
(1.01803 0.00244167 -1.14141e-21)
(1.00454 -8.72617e-05 -2.32549e-23)
(0.934938 0.0645625 0)
(1.01534 0.00719529 0)
(1.01811 0.00239419 2.03405e-21)
(1.00577 3.06163e-05 1.12727e-22)
(1.00067 -2.36347e-05 0)
(1.02058 0.0108257 9.91977e-23)
(1.00727 0.000114217 7.09016e-23)
(1.02451 0.0237431 -7.61997e-23)
(0.946159 0.00683487 9.69256e-22)
(1.03163 0.0087873 3.18278e-21)
(1.01709 0.000240965 -9.11313e-24)
(1.02011 0.0103238 -1.09654e-21)
(1.01178 0.00373558 -3.67722e-22)
(1.00846 0.0010777 -4.72756e-23)
(1.01832 0.01004 1.53291e-22)
(1.01052 -1.01128e-05 1.65772e-22)
(1.02795 0.0281842 -3.66751e-22)
(1.08867 0.0621552 -2.7556e-21)
(1.06558 0.0522704 -2.84093e-21)
(1.06552 0.0540179 6.57871e-21)
(0.464029 0.0431192 -1.34612e-20)
(0.646846 0.0518005 -6.33292e-21)
(1.06489 0.054745 -1.0682e-20)
(1.03258 0.0687755 -1.09959e-22)
(1.06148 0.069051 0)
(1.03133 -0.00541062 -7.97978e-23)
(1.02248 0.00224085 -1.39592e-21)
(1.03138 0.00115689 -1.12048e-21)
(1.01728 0.00252665 0)
(1.01475 0.00455788 0)
(1.08829 0.0618136 0)
(1.0264 0.00756786 4.45691e-21)
(1.0756 0.0708007 -1.19139e-20)
(0.633357 0.0219044 0)
(1.00659 0.0139447 5.67601e-22)
(1.02929 0.0707003 2.32723e-22)
(1.05966 0.0388651 -4.77087e-21)
(1.02527 0.0621483 0)
(0.618708 0.0586523 -1.86109e-21)
(1.02893 0.0169199 7.68218e-22)
(1.02391 0.0021483 -8.74147e-22)
(1.01943 0.00691161 -2.25006e-21)
(1.02212 0.00278536 9.15776e-22)
(1.0299 0.0116641 2.63311e-21)
(1.01903 0.00639918 1.1554e-21)
(1.06912 0.0663576 3.06518e-21)
(1.023 0.0147549 3.65074e-22)
(1.03094 0.0385298 1.55208e-21)
(1.03812 0.0254825 0)
(1.02299 0.00316491 7.68039e-22)
(1.01663 -5.59008e-05 5.7471e-23)
(1.05155 0.0226476 9.63805e-22)
(1.02574 0.07345 0)
(1.02845 0.0283632 -3.56705e-22)
(1.00196 2.51358e-05 0)
(1.02684 -0.0158004 9.19704e-22)
(0.941015 0.061176 0)
(1.02907 0.0230901 -1.48466e-21)
(1.07631 0.038598 2.83838e-21)
(0.910721 -0.132607 1.28121e-21)
(1.00824 0.00118827 0)
(0.968877 0.0239368 7.73205e-21)
(1.02026 0.00974602 -1.02919e-22)
(1.07811 0.0657256 2.81845e-21)
(1.01495 0.0110077 1.14231e-21)
(0.340349 0.0163968 4.66554e-21)
(0.879123 0.0972789 -5.72631e-22)
(1.04393 0.0318786 2.00146e-23)
(1.01579 0.0195251 0)
(1.01084 -5.23179e-05 -2.14854e-22)
(1.03233 0.00346332 0)
(1.00888 0.00144916 0)
(1.02933 0.023168 2.92768e-23)
(0.73212 0.0522477 0)
(1.01901 0.010559 0)
(1.02839 0.0282898 -8.41923e-22)
(1.031 0.0130837 2.04543e-21)
(1.07734 0.0386851 -7.50055e-21)
(1.00887 0.00146054 0)
(1.01994 0.010018 -1.71058e-21)
(1.01731 0.00530077 -2.47861e-21)
(0.840396 0.0528574 1.5185e-22)
(1.07546 0.0598794 0)
(1.00828 0.00122775 0)
(0.456939 0.0286487 -3.7361e-21)
(1.02598 0.0193326 -1.63497e-23)
(1.07488 0.0613591 0)
(1.0164 0.0209793 -7.29335e-24)
(1.01891 0.00286344 0)
(1.03227 0.00527987 1.78065e-22)
(1.019 0.00337898 0)
(1.02026 0.0337712 3.35673e-22)
(1.08927 0.0515844 0)
(1.08148 0.0570118 0)
(1.05727 0.0870352 3.38791e-22)
(1.02487 0.00253716 0)
(0.950626 0.00254555 -4.90232e-23)
(1.01714 0.00243922 0)
(1.00773 0.014425 2.36716e-22)
(0.971029 0.0218026 -7.3056e-21)
(1.00601 -0.0604619 -8.00414e-22)
(1.02536 0.0155411 0)
(1.00715 0.000672673 9.66643e-23)
(0.701507 0.0377403 -4.29311e-21)
(1.01397 0.00290735 -1.64037e-22)
(0.96371 0.129364 -1.15348e-21)
(1.0437 0.00390571 -3.37601e-21)
(0.940049 0.133893 -1.48805e-22)
(1.08926 0.0620721 2.12056e-21)
(1.00582 -0.0254524 0)
(1.01245 0.00369571 5.18819e-24)
(1.01064 -0.0615023 6.47872e-22)
(1.04054 0.020034 -7.04637e-24)
(1.0299 0.0268805 -4.39873e-22)
(1.01819 -0.0232813 -8.86389e-22)
(1.00747 0.000170954 0)
(1.02528 0.019556 3.466e-22)
(0.981428 0.0322449 0)
(0.713089 0.113606 -1.11186e-21)
(1.0408 0.0200124 2.48995e-21)
(1.0119 0.000613942 0)
(1.09022 0.0621607 -1.92076e-20)
(0.875728 0.122511 -8.45868e-22)
(1.00711 0.000673978 -5.2226e-23)
(0.999572 0.119381 0)
(1.03173 0.0239587 4.00292e-21)
(1.02573 0.0192327 -9.83896e-22)
(1.01025 0.00191093 -3.51427e-23)
(1.00018 -0.0261591 2.91483e-21)
(1.08965 0.0618371 0)
(1.01944 0.0138135 0)
(1.02012 0.0115564 4.77279e-22)
(1.02135 0.00693985 8.03111e-22)
(1.00089 -5.92796e-06 8.02214e-23)
(0.595036 0.111873 1.23734e-21)
(1.03881 0.0222782 3.96581e-21)
(1.03158 0.0313386 -3.1858e-21)
(1.02515 0.00388731 -4.7495e-22)
(1.0753 0.0606599 0)
(0.715027 0.0507202 5.88539e-21)
(0.974486 0.0885841 1.74255e-22)
(1.03838 0.0188952 0)
(1.01741 0.0475479 3.96514e-22)
(1.0147 0.0222774 0)
(0.972495 0.0884204 2.66761e-22)
(1.04079 0.0254436 -2.35183e-23)
(0.537328 0.0281132 2.33241e-21)
(1.03 0.0267134 4.0817e-22)
(1.07801 0.0632611 5.73795e-21)
(0.728143 0.05114 -2.70898e-21)
(1.01376 0.00419414 6.57165e-24)
(1.01656 0.00438861 -1.27102e-21)
(1.0266 0.0122231 2.65318e-21)
(1.01964 0.00786331 1.84552e-22)
(1.01507 0.0104581 -8.61681e-22)
(1.03853 0.0192051 0)
(1.01953 0.0370828 -2.40483e-22)
(1.04021 -0.00361558 4.05749e-23)
(1.07545 0.0608922 -1.32595e-20)
(1.03818 0.024121 0)
(0.617957 0.11187 3.19732e-22)
(0.855786 0.0244582 -2.14177e-23)
(1.05768 0.0290229 0)
(1.01185 0.00380668 0)
(1.04045 0.025479 2.39398e-21)
(1.05859 0.0115363 -3.09779e-21)
(1.02815 0.0241711 3.41961e-22)
(1.04626 0.0350955 8.62862e-23)
(0.969624 0.138397 -8.16796e-23)
(1.08744 0.0617362 9.43748e-21)
(1.02467 -0.010173 -1.76458e-22)
(1.02215 0.028241 0)
(1.0841 0.0423253 -8.57794e-21)
(1.05805 0.0819022 0)
(0.609109 0.0452499 0)
(0.713976 0.0393364 9.03084e-25)
(0.827698 0.0518333 1.28823e-21)
(0.931717 0.121685 1.12362e-21)
(1.08548 0.0498741 -2.09939e-20)
(0.947259 -0.0251579 2.47801e-22)
(1.01171 0.00279717 -4.36522e-22)
(0.86231 -0.00266346 0)
(0.991168 0.00269573 3.89156e-22)
(1.02539 0.0153649 1.06331e-21)
(0.947071 -0.0170991 -2.517e-22)
(1.03561 0.030349 -9.84393e-22)
(1.06619 0.049871 0)
(0.535801 0.0276803 1.864e-21)
(1.03177 0.02371 -1.35743e-21)
(1.0171 0.0145819 2.32617e-23)
(1.0143 0.00580669 -5.97141e-22)
(1.06309 0.0686207 -1.66983e-21)
(0.740273 0.041958 0)
(1.05789 0.0575246 5.0396e-21)
(0.470559 0.0399377 -3.89804e-21)
(1.07498 0.0596363 -1.20679e-20)
(1.09066 0.0619208 1.94295e-20)
(1.05152 0.0556221 3.97677e-21)
(1.00707 0.000631321 6.63858e-23)
(1.05738 0.0578047 -4.34583e-21)
(1.02162 0.0192974 0)
(0.992556 0.0123873 0)
(1.01296 0.0144567 -1.85759e-22)
(1.06328 0.0696543 -1.41928e-21)
(1.01706 0.00473358 0)
(0.970273 0.10445 0)
(0.898082 0.0557094 5.45772e-21)
(1.02112 0.00683359 1.45786e-21)
(1.0058 4.57285e-05 0)
(0.661571 0.119371 3.76584e-21)
(1.05863 0.0828859 -5.79535e-21)
(1.017 0.00923763 0)
(1.00601 0.0102987 -1.38306e-22)
(1.00575 4.23391e-05 -3.56818e-23)
(1.03734 0.026214 -9.42589e-22)
(1.00703 0.000613174 -2.47081e-23)
(1.02799 0.0386884 -1.11308e-21)
(1.03129 0.031255 2.62083e-21)
(1.02394 0.000341315 4.09547e-22)
(1.0292 0.0171316 0)
(1.02838 0.0282781 7.1963e-22)
(0.450297 0.0414486 0)
(1.0112 -6.74829e-05 4.25706e-23)
(1.07449 0.0562114 -8.15105e-21)
(1.07868 0.0552775 -2.20065e-20)
(1.0301 -0.00464829 -8.53659e-24)
(1.00985 -4.97233e-05 8.30128e-23)
(1.08118 0.0566901 6.04967e-21)
(1.06978 0.0659097 -5.92835e-21)
(1.00856 0.00108798 0)
(0.711595 0.114329 9.76994e-21)
(0.455771 0.0379731 0)
(1.01056 0.00280605 -2.30972e-22)
(1.05819 0.0463012 0)
(1.0125 0.00374344 -8.02073e-23)
(1.01342 -0.000431068 0)
(1.03695 -0.0152455 3.03382e-22)
(1.0456 0.0128815 2.46861e-21)
(1.00895 0.00197926 -4.30237e-22)
(1.05596 0.0878439 -4.78183e-21)
(0.909826 0.121412 0)
(1.04293 -0.0150557 2.96318e-22)
(0.692031 0.0555531 -6.35384e-21)
(1.01899 0.00626484 -1.26529e-21)
(0.777485 0.0330279 3.78974e-23)
(1.00584 0.00010071 5.7615e-23)
(1.01348 -0.000731129 0)
(1.07099 0.0698114 -1.52458e-21)
(1.01053 0.00278071 2.57498e-22)
(1.01786 0.0101288 8.56854e-23)
(0.864711 0.057094 -3.87523e-21)
(1.02188 0.0193756 4.33049e-22)
(1.05724 0.084438 0)
(1.0005 -6.34633e-06 0)
(0.907669 0.0667969 -8.90893e-21)
(0.478414 0.0187134 -1.10008e-20)
(1.01782 0.00942919 0)
(1.00148 -1.50393e-05 -3.77021e-23)
(1.06401 0.0263296 -7.32168e-21)
(1.00959 -0.0123121 0)
(1.00953 0.00246963 4.33832e-22)
(0.330598 0.0142746 5.57955e-21)
(1.02249 0.0102801 -4.95259e-22)
(1.05351 0.030809 4.69598e-21)
(1.0428 0.0323205 -1.48435e-21)
(1.0396 -0.0177024 -6.16982e-22)
(1.01075 -0.013551 2.04903e-22)
(1.00308 5.52782e-05 2.22364e-23)
(0.838602 0.0522247 0)
(1.02017 -0.00290074 0)
(0.930751 0.130644 0)
(1.05538 0.099712 0)
(1.01254 0.000572064 3.60982e-22)
(1.01495 0.00467629 0)
(1.00793 0.000255525 -9.08687e-22)
(1.02341 0.0150225 -1.06584e-23)
(1.05781 0.0566786 0)
(1.0173 0.00887807 0)
(1.03456 0.0347163 0)
(1.03237 0.000883947 -1.7492e-21)
(1.01248 0.000625559 -2.35639e-22)
(1.03665 0.0124828 -1.75643e-21)
(0.998793 0.0508885 -1.50554e-23)
(1.06762 0.0986034 -2.13628e-21)
(1.06818 0.0584343 8.09842e-21)
(1.07566 0.0599346 -7.54299e-21)
(1.07491 0.0571483 -1.03899e-20)
(1.07558 0.0598233 5.45808e-21)
(1.02903 0.0285801 3.16826e-23)
(1.03819 0.0244795 0)
(1.0198 -0.00326167 2.13332e-22)
(1.02834 0.0282371 0)
(1.01562 -0.000737976 0)
(1.01653 0.0123057 0)
(1.03786 0.0245186 2.00688e-21)
(1.02169 0.0111918 9.57559e-23)
(1.04429 0.00340904 3.64074e-21)
(0.962832 0.0240694 9.41484e-22)
(0.887457 0.0228458 -5.05966e-21)
(1.01777 0.00861012 0)
(0.859773 0.0562374 1.00456e-20)
(1.02129 0.0185331 1.86041e-22)
(1.03337 0.000553958 0)
(1.08563 0.0494358 1.06769e-20)
(1.0302 0.0619564 -1.02446e-20)
(1.06508 0.0311888 -1.20717e-20)
(1.01185 -0.000764618 1.72378e-24)
(1.01563 0.0333429 1.64464e-22)
(0.715014 0.0956745 -1.29083e-21)
(1.02586 0.00570664 0)
(1.05977 0.0752539 -8.55514e-21)
(0.943388 0.0177353 2.33674e-21)
(1.02931 0.0750747 -1.33125e-22)
(1.02563 0.00462484 7.28711e-23)
(1.0128 0.0366487 -2.56421e-22)
(1.01926 0.0110193 -3.82238e-22)
(1.02231 0.0138669 0)
(0.85161 0.0562672 0)
(1.00556 -0.000114295 4.68223e-24)
(0.731314 0.0407295 0)
(1.01429 0.00234564 -3.17588e-22)
(0.467677 0.0371525 0)
(1.01977 0.00603708 2.77748e-21)
(1.00679 -5.7584e-05 7.23886e-23)
(1.02407 -0.0483689 9.93818e-22)
(1.06382 0.025814 1.14467e-20)
(1.01713 0.00821008 -2.1457e-22)
(1.01425 0.00208315 3.52729e-22)
(1.02227 0.00370143 -1.1144e-23)
(1.01404 0.00530977 2.5297e-22)
(1.02668 0.0417732 3.0103e-23)
(1.00667 -5.2754e-05 -1.19541e-25)
(1.01957 0.00537084 0)
(0.656984 0.0523017 -8.24043e-22)
(1.00179 0.0732152 9.37659e-23)
(0.928588 0.0903327 -2.53764e-21)
(1.05008 0.0455669 3.74398e-21)
(1.07992 0.0643689 0)
(0.682669 0.0446107 4.57803e-21)
(1.0745 0.0558909 -1.00794e-20)
(1.04074 0.0195588 -4.21808e-21)
(0.914014 0.126928 -1.40776e-21)
(0.728023 0.0639704 0)
(0.54642 0.054371 2.03606e-21)
(1.02516 0.0771351 1.23121e-22)
(1.05842 0.0565092 -4.5245e-21)
(1.03133 0.0389851 0)
(1.01119 -5.76376e-05 2.7983e-22)
(1.02201 0.0197648 -4.99209e-22)
(0.91756 -0.12215 1.0988e-21)
(1.03195 0.00889577 -3.51766e-21)
(0.627576 0.0505281 -6.70848e-21)
(1.07278 0.0607719 0)
(0.94653 -0.0142225 0)
(0.697452 0.0422971 5.31958e-21)
(1.06333 0.0593285 -5.86561e-21)
(1.01959 0.00596734 -2.76705e-21)
(1.00575 5.12803e-05 -6.93853e-23)
(0.592594 0.0478639 -4.54393e-21)
(1.01462 0.00292438 8.08505e-22)
(1.05548 0.0531217 0)
(1.05494 0.0306816 2.41383e-21)
(1.01 -3.66142e-05 7.61859e-23)
(1.01126 0.00273885 -4.8604e-22)
(1.01684 0.0815039 7.69609e-24)
(1.08023 0.064299 0)
(1.07497 0.0596347 6.34064e-21)
(1.01732 0.0623048 9.82559e-21)
(1.02288 0.00601209 5.16555e-23)
(1.03092 0.0129002 -1.22192e-21)
(1.02507 0.0163227 1.00431e-21)
(1.02798 0.0238832 6.55459e-22)
(1.01014 0.00247917 0)
(0.977532 0.000681948 0)
(0.814372 0.0518806 0)
(0.847932 0.0559978 -8.06043e-21)
(1.04706 0.0419601 0)
(0.489944 0.0018568 1.09225e-20)
(1.01621 0.0199464 0)
(1.02416 0.0163945 1.13627e-21)
(1.02967 0.0286813 0)
(0.981253 -0.00290599 -1.18343e-23)
(0.505485 0.0175658 0)
(1.01804 0.0044161 -2.04833e-21)
(1.06663 0.0582338 6.81888e-21)
(1.01458 0.00129037 0)
(1.01924 0.00787934 -8.96497e-24)
(0.917164 0.0720016 8.88518e-22)
(1.06576 0.0495745 2.97941e-21)
(1.02088 0.0120036 2.05557e-21)
(0.959376 0.0165975 -1.59417e-22)
(1.00622 -0.000155938 0)
(1.05779 0.0854208 0)
(1.01447 0.00125535 1.98541e-22)
(1.01384 0.0128606 -3.00601e-22)
(1.01588 -0.000853625 9.43654e-23)
(1.01907 0.00775423 6.01467e-22)
(1.01047 -7.01493e-05 -8.38032e-23)
(1.02285 0.00312732 1.26388e-23)
(0.990552 0.00936286 -4.23934e-22)
(0.908677 0.115814 7.61973e-22)
(1.04555 0.029942 -3.43558e-21)
(1.06186 0.0339615 2.18688e-21)
(1.01394 0.0052513 0)
(1.00031 -1.04726e-05 -9.06595e-23)
(1.05 0.0452851 5.75091e-23)
(1.01705 0.000245995 0)
(1.01612 -0.00038653 -4.29047e-22)
(1.02947 0.0336995 -9.18487e-22)
(0.952319 0.0915194 2.44215e-21)
(0.713876 0.0618712 1.48728e-21)
(1.01666 0.0118766 -3.34976e-22)
(1.01217 0.00403488 4.38906e-22)
(1.03129 0.0105671 0)
(0.608861 0.0160428 -1.3926e-20)
(1.04534 0.0126221 -9.96311e-21)
(1.02681 0.00752351 -5.6076e-22)
(1.06612 0.0522298 2.93017e-21)
(0.899508 0.117409 5.77764e-24)
(1.01971 0.0117205 -2.51562e-22)
(0.911552 -0.0601261 0)
(1.02546 0.0165556 2.91153e-21)
(0.510168 0.0310421 5.38452e-21)
(1.0171 0.00757375 4.04947e-22)
(0.975254 0.0578635 7.50062e-21)
(0.543221 0.0334491 -7.84295e-21)
(1.01123 0.00265752 6.35326e-22)
(1.00636 -6.81315e-05 -6.72744e-23)
(1.0382 0.0344272 1.13138e-21)
(1.02562 0.0134076 2.26999e-21)
(1.02528 0.0165878 -1.83332e-21)
(0.960465 -0.000673933 1.12308e-22)
(1.03883 0.0233177 0)
(1.00994 -4.22768e-05 0)
(0.852697 0.0552719 0)
(1.01008 -4.09213e-05 -8.25038e-23)
(0.704199 0.0381071 0)
(1.01451 0.00282284 -1.54441e-21)
(1.01263 0.00368689 3.65754e-23)
(1.01464 0.000921639 0)
(1.04718 0.0289735 2.36125e-21)
(1.07605 0.0619168 -8.83542e-21)
(1.0591 0.0544803 0)
(0.701375 0.117041 2.79372e-21)
(1.04703 0.0416573 0)
(1.00645 -5.95645e-05 -6.61282e-23)
(1.01013 -3.6032e-05 1.14637e-22)
(1.02565 -0.00156896 -1.69153e-23)
(1.01283 0.000288914 0)
(1.0194 0.00530035 1.76958e-22)
(0.87243 0.00734534 -2.5586e-21)
(1.07466 0.0572673 0)
(0.633179 0.0595517 -4.9556e-22)
(1.04219 0.0161272 5.478e-22)
(0.922294 0.122079 -1.02715e-21)
(1.04964 0.0149293 3.77145e-21)
(1.01253 0.00365839 7.63669e-23)
(1.02605 -0.000559183 1.48677e-23)
(1.01381 0.0122949 4.98617e-22)
(1.01055 0.100198 6.87723e-22)
(0.522036 0.0205526 0)
(1.02535 0.0196837 0)
(1.02148 0.0188798 0)
(1.01938 0.00941017 1.04491e-22)
(1.08779 0.0620449 -1.2025e-20)
(1.05207 0.0122677 0)
(1.01895 0.00903083 1.07159e-22)