/*--------------------------------*- C++ -*----------------------------------*\
| =========                 |                                                 |
| \\      /  F ield         | OpenFOAM: The Open Source CFD Toolbox           |
|  \\    /   O peration     | Version:  v2012                                 |
|   \\  /    A nd           | Website:  www.openfoam.com                      |
|    \\/     M anipulation  |                                                 |
\*---------------------------------------------------------------------------*/
FoamFile
{
    version     2.0;
    format      ascii;
    class       volScalarField;
    location    "400";
    object      ddt0(omega);
}
// * * * * * * * * * * * * * * * * * * * * * * * * * * * * * * * * * * * * * //

dimensions      [0 0 -2 0 0 0 0];


internalField   nonuniform List<scalar> 
53008
(
-9.05668e-06
-0.106023
4.64804e-06
-0.0050343
-0.0244063
-0.00759142
-0.000247676
-9.11783e-06
-5.18097e-05
2.97846e-06
-0.000418422
0.000106795
-0.00323232
0.00896383
2.13709e-06
-2.44149e-07
-4.10143e-06
-2.48638e-07
0.0335366
-5.3958e-07
-2.70147e-06
-0.000202098
2.02677e-07
0.000341521
-2.09635e-06
0.0136867
0.0095853
-1.9753e-05
-0.00174679
-0.00529754
0.257688
0.0171214
-0.0103386
-1.00062e-06
2.20569e-08
5.83611e-05
-8.91231e-07
-2.59095e-10
-0.000222407
-2.23308e-06
-7.17587e-07
0.0155693
-0.000456903
0.0359135
-3.33937e-07
-4.86386e-07
-3.88799e-07
3.29983e-07
0.00037263
-1.49602e-07
-3.34705e-07
2.35842e-06
-7.24081e-06
2.83176e-07
-0.000138891
0.0357531
-8.23161e-07
3.80659e-08
0.0285837
-0.000123526
-2.05005e-06
-8.97458e-06
-0.0333044
0.0079714
0.00237611
-8.80797e-07
-0.00529595
-3.90293e-07
-4.39896e-08
-4.55596e-07
-0.0201652
1.18804e-07
-3.042e-07
-0.0100302
0.103688
-4.03645e-09
-9.71014e-09
-0.00624909
-1.84462e-07
-0.0146256
-0.00774583
-0.0136502
-0.000236545
0.00360795
-1.48458e-05
-4.8038e-07
0.0164193
-3.10518e-05
-8.77002e-07
-4.35328e-05
-0.0207119
0.0279419
-0.0145302
0.000220089
0.00435618
-0.000569382
-0.0315265
4.50369e-06
-0.0106712
-0.0338995
-7.3153e-07
-2.26011e-06
0.000550272
-2.08241e-05
-1.00416e-05
-0.0164752
-0.00355062
-0.000142326
-0.00028505
1.14827e-07
0.00104929
-0.211482
-9.15454e-09
0.00521656
-0.00703835
-1.62523e-07
-2.42642e-06
1.63703e-07
0.385888
-0.0217687
-0.0252345
-3.66038e-07
6.56973e-07
-0.0142349
-0.00678039
-7.58527e-07
-0.0147799
0.00160638
-6.06957e-05
5.60768e-07
0.0334208
1.04755e-06
-0.000391851
-5.73503e-06
7.37563e-08
0.0141288
1.72941e-08
-0.0025549
9.88656e-07
7.40858e-07
-1.00268e-07
6.87126e-07
1.2142e-05
0.0121338
-6.56906e-05
4.30279e-06
-2.03405e-06
8.05266e-08
5.72956e-09
-1.88249e-06
-5.63929e-08
-0.0330783
-0.022153
0.000439977
-1.36339e-07
-6.91586e-06
0.00529039
0.00229544
-3.65642e-06
0.612491
0.000109774
-1.40273e-07
-1.43686e-07
0.0292548
-3.75117e-06
-1.65452e-10
-3.70809e-07
-8.32677e-06
-1.02866e-07
2.16227e-06
-1.03907e-05
-0.0336966
0.00178243
-4.75691e-07
0.00498705
-2.65574e-07
-2.1243e-05
-0.00057089
-0.0392347
0.000285385
4.69967e-07
-3.47409e-06
0.0372882
3.09924e-06
0.000291563
0.00842038
-0.0299062
0.00157183
-0.00578678
8.27777e-08
0.0513341
1.9602e-07
0.054356
-0.0203341
-1.06542e-06
1.37556e-06
-8.50182e-06
1.16785e-07
-6.42611e-09
2.26413e-06
0.000207419
9.97398e-07
-1.09691e-05
1.08105e-06
-0.000160477
-0.00329385
-3.64763e-06
2.97273e-08
3.97092e-05
1.45427e-07
-0.00578506
-2.37417e-06
-0.0260442
4.18365e-06
-0.000270364
-1.61735e-07
6.7571e-08
2.0006e-07
8.56659e-05
-8.81864e-07
0.00184202
-2.70455e-07
-0.000451824
-2.73625e-07
-4.53279e-06
-0.000544734
1.88629e-06
-3.33821e-05
-1.10344e-05
-1.20829e-07
0.00151523
0.000249676
-1.15234e-07
-0.0174669
0.000161241
-0.0149497
2.83012e-07
6.12467e-08
0.00190817
-2.84078e-07
1.03674e-06
-1.07104e-06
-0.0110919
-2.05582e-06
-1.18299e-05
-8.00892e-09
-0.000498655
0.000290894
9.87107e-08
-0.000117685
-2.54179e-06
2.02289e-06
1.19755e-06
2.38678e-06
-1.64355e-06
-0.0315488
0.00835133
-7.33227e-07
9.7103e-05
-1.75973e-06
2.01745
0.0231639
-8.09363e-06
1.84837e-07
-7.12937e-07
0.00766942
0.0169311
1.4955e-07
-0.028899
-0.00040766
9.12512e-08
-5.54881e-06
3.07928e-07
0.00379311
-0.00760755
-1.82081e-07
-0.000412452
-0.0297165
-0.000116102
4.46615e-07
2.06081e-07
-1.58859e-10
-0.000115741
-8.26494e-05
4.32894e-06
-9.38396e-05
-2.4482e-05
0.00580304
-1.82879e-05
3.01286e-06
5.33993
-0.0382176
0.000172349
-0.00597413
0.0225688
1.64143e-08
-3.38651e-05
-0.000606297
-0.0301587
1.35295e-07
0.000167422
-0.00536862
-0.00286406
-0.00487927
-4.17558e-08
-0.047528
2.8178e-06
-6.50873e-07
-1.49645e-07
9.87401e-05
0.000709898
-0.00676367
0.00904579
-0.00820229
-0.000131654
3.5555e-05
-1.41272e-11
1.54003e-07
-1.90914e-07
-3.49196e-05
-0.000596599
0.0158905
-2.5097e-05
-0.00924591
1.50855
-3.93996e-07
0.00488957
-1.152e-05
-1.43534e-07
-7.76918e-06
0.0327837
-1.0592e-06
-6.74808e-10
1.97798e-06
1.98871e-07
-2.44667e-07
0.0219232
-1.23808e-07
-0.0292299
3.91151e-06
-4.61116e-10
-6.5687e-08
0.000109855
5.5743e-07
2.27143e-06
0.00746026
-0.000405427
-0.0042736
0.0089522
0.0221071
0.000674979
-0.00946412
2.54591e-07
2.55875e-07
-0.000971123
0.0172998
-5.12603e-07
-6.92438e-07
1.394
0.0175238
-5.13276e-07
-1.88751e-05
-1.17195e-06
-0.00277593
0.000118975
-0.0170358
-1.96603e-07
-5.23989e-05
-7.45611e-06
3.2729e-06
-0.0286662
6.37091e-06
0.023272
-0.000940642
0.000120415
-3.92664e-06
-9.69749e-05
0.0523872
0.00872857
0.0314679
-5.59094e-08
2.25296e-06
1.84592e-05
-1.79421e-06
0.0173374
1.23577e-08
-2.6372e-06
-0.0395835
-5.71281e-07
-0.0132076
-0.0278759
3.53637e-08
2.41156e-06
-5.8183e-06
9.39871e-07
-2.02433e-06
7.78915e-07
0.000162125
0.00080165
-0.00216764
-6.37807e-06
-1.07552e-05
-1.93396e-06
-0.00221696
-1.03535e-07
2.75982e-07
-6.91403e-05
-4.77414e-06
5.82075e-07
-1.17693e-05
-2.03823e-07
-0.000322138
-6.14509e-09
6.65361e-08
-2.25156e-06
-0.0202404
1.58151e-08
-0.00323835
-5.92243e-07
-1.9678e-07
4.58111e-09
5.06751e-07
0.000247295
-4.66162e-06
-1.05664e-05
-5.65275e-08
4.90607e-06
1.07937e-06
-0.000224183
-1.90604e-07
0.295853
0.0137491
0.357088
-8.31492e-08
0.000248612
-1.14478e-05
0.00571726
1.87442e-05
-0.0276314
9.52562e-06
1.62404e-07
-0.000249682
0.00793483
-0.000112999
7.18166e-07
0.000125523
-0.00735685
0.208776
3.99123e-06
0.0988438
-0.0321318
-1.41886e-06
-0.0110307
-5.81506e-05
-6.57101e-07
0.000509918
2.53561e-06
-4.24089e-07
4.82826e-07
6.06037e-08
-0.00168579
-0.0299749
-1.98896e-07
5.2156e-06
-0.00218093
9.39806e-06
8.60508e-07
0.00492995
-1.08559e-08
8.86474e-07
8.78848e-05
-7.35402e-06
-6.80267e-06
-0.0199074
0.00510405
-0.00031594
8.21573e-07
-2.11313e-06
-0.00030008
0.0274653
0.103093
0.000440546
-6.23286e-06
6.31061e-06
-0.000490764
9.54774e-09
-3.66557e-06
-5.80306e-06
-5.57987e-05
-6.82742e-06
3.27927e-06
-8.54295e-07
-0.00996249
-4.95267e-08
-7.28696e-07
-0.000493261
-3.81297e-09
0.0117154
-3.05441e-05
-1.82405e-09
-1.67973e-05
3.0038e-07
-0.0132305
-0.000392713
1.45103e-08
0.0186684
-0.000473155
-2.19847e-05
-4.12335e-06
-9.79995e-05
0.0275763
-2.69639e-05
3.18947e-08
1.18769e-07
-0.000513391
-0.037075
-6.48686e-06
3.03194e-06
-4.62341e-07
0.00619156
-1.87058e-08
-0.00591506
1.3426e-07
4.06159e-05
3.09837e-05
0.0010596
-0.000235683
-8.63603e-06
0.0108059
-1.34838e-09
-0.00359513
3.83694e-08
-8.63147e-08
-0.0313007
1.13927e-06
1.54852e-06
-8.80646e-05
-1.05427e-05
2.42725e-07
-3.56801e-07
-0.000242062
0.00927869
5.53312e-07
-2.67707e-05
-0.00666255
1.38519e-06
-0.000630346
-2.89754e-07
-4.00384e-07
0.000126973
-0.00599297
0.000937254
1.14209e-06
0.0147662
-6.22061e-06
-7.3216e-08
0.00277058
-1.94188e-06
1.6235e-06
-2.42413e-06
-4.69975e-06
0.0264779
-2.53068e-05
0.000221575
7.2699e-06
-2.51062e-05
-0.0004871
-6.26244e-08
2.21145e-06
-3.79596e-05
-7.4035e-06
0.0601719
-0.000527525
-2.30797e-05
-3.60054e-06
-1.99428e-07
-6.05672e-06
-9.32176e-05
-0.000629389
2.24623e-06
-1.72273e-06
1.39324e-07
7.39067e-06
-0.000118615
0.00354245
0.0636867
8.29533e-09
-3.97167e-06
0.00030242
1.92251e-06
2.66383e-07
9.73532e-08
0.00101283
-3.79929e-06
-0.00734098
5.11981e-07
-0.0082198
-0.00239368
-1.68012e-07
0.0175713
0.0111668
-0.000231544
2.64431e-07
-0.000121471
0.000153382
-0.0386248
-1.01649e-05
-7.14785e-05
0.0697085
3.99441e-06
1.24353e-06
9.63916e-07
0.0149182
-4.30788e-07
-0.0103525
-2.51073e-09
-2.68759e-07
-1.33884e-07
-7.89824e-06
-7.80102e-08
0.0197168
9.26628
4.60173e-08
0.00706501
-1.46737e-06
-2.87978e-07
-1.205e-07
-4.0341e-07
-0.000525869
2.08917e-06
-1.18967e-05
0.000681728
-0.0167728
0.00800501
1.63945e-11
-1.29425e-05
-3.1089e-07
-2.82896e-06
-3.9224e-05
-0.00717252
0.00703861
0.233842
0.0818841
2.28699e-07
1.17628e-07
5.32126e-07
-4.60971e-07
-0.000131907
-2.3192e-07
2.34529e-07
-4.69778e-07
-3.49707e-07
7.86793e-07
1.82716e-06
4.09773e-07
0.0163377
2.38595e-06
-7.35701e-08
-3.50478e-07
-7.35104e-07
0.000322353
0.0142719
3.32569e-05
-6.91926e-06
-0.0232064
-0.00561061
-0.00137155
0.0298849
-3.98365e-07
-1.36782e-07
0.0271611
-0.321875
-5.21919e-07
0.0538562
1.49353e-07
4.68679e-08
-2.01873e-08
-0.0155045
-0.00438606
1.60008e-06
-0.000608357
8.15773e-07
2.52243e-06
0.0168548
-4.29655e-06
-1.59796e-06
-0.0105369
1.91247e-08
2.46008e-06
-6.04264e-06
-5.68847e-06
-0.00166531
0.274795
-2.68048e-07
4.032e-07
-7.40661e-07
-0.0292597
-0.000432601
2.15336e-07
2.87164e-09
-0.719033
9.55396e-08
-1.92837e-05
-2.38008e-07
-3.84055e-07
-8.32565e-07
2.45413e-08
1.63125e-07
2.63746e-07
-4.11082e-07
-3.23399e-06
0.0109893
-1.94625e-07
-0.000369231
2.06768e-06
0.00135793
-5.35676e-07
0.376042
-4.06672e-08
0.0138129
-9.8836e-10
-1.03671e-06
0.517965
3.40441e-06
-0.031488
-0.000463678
3.13201e-05
-0.0154188
-0.000524523
-4.66244e-07
-0.0073891
-1.1674e-05
-2.3835e-06
0.0274568
1.56258e-06
-0.00135043
-7.97958e-07
2.26495e-06
-0.000262715
-0.00210329
-6.96752e-07
-0.0438886
1.15832e-07
-6.76597e-06
1.24915e-07
-5.04596e-06
0.000147551
-3.86616e-07
-1.82033e-06
-4.68095e-09
0.341828
0.000126543
-4.60386e-06
-3.93605e-06
-2.43047e-06
-5.62507e-08
0.0014885
0.00127184
0.00678199
-0.000342471
-0.0102458
-0.00176473
-1.5568e-06
0.00189801
-6.22786e-06
3.62807e-08
-0.00795312
-0.197372
-1.54749e-08
-0.249026
-0.00569677
-0.00105479
-1.31778e-06
0.000542145
-0.000420545
-0.00687227
-8.21873e-06
-6.05064e-07
-0.0390833
0.0765219
0.0690258
2.90898e-06
-1.14371e-08
4.80852e-07
0.0801257
-2.77039e-06
0.0844493
-9.61649e-06
-1.81772e-06
-5.6354e-05
-0.00193531
0.0164728
-1.63654e-05
-0.000170876
2.22349e-06
0.00116071
-0.00579059
-2.71074e-07
-2.28497
4.36959e-06
2.22642e-06
-0.00550334
2.86311e-06
-0.000106484
-0.000113992
-2.58089e-06
-3.16141e-07
0.00299025
0.074359
4.08675e-07
-4.75878e-08
-0.00799704
3.30823e-08
0.0142603
4.39566e-06
0.106254
-4.68918e-07
-1.44147e-06
-0.0147504
0.000186013
0.00813494
-0.00398071
-1.583e-05
0.00581691
2.99122e-06
1.99523e-06
-0.00876166
-2.78214e-06
1.70897e-07
0.0104783
0.00344909
3.36071e-06
-9.62634e-07
3.47297e-08
6.1499e-08
1.1256e-07
-0.000324702
-0.00414554
0.0135706
-8.47975e-08
6.69755e-07
4.00386e-06
0.000718282
6.93436e-08
-0.0191587
0.00616998
-0.00447681
0.0127298
-1.28432e-05
-2.39164e-07
-0.00288834
8.80287e-07
2.21309e-06
2.19005e-06
-1.82498e-06
-3.769e-06
-8.71192e-06
6.8916e-07
4.30585e-07
1.97863e-07
1.4337e-06
-2.28563e-08
-4.97944e-07
-0.0322986
0.000145739
-4.14076e-08
-9.63265e-07
0.00541137
-0.0386302
-6.36268e-06
-1.21799
-3.86386e-05
-0.000301128
-0.000865785
4.28509e-07
1.06973e-06
1.9594e-07
8.31797e-07
-2.04373e-06
-0.0391594
-1.60834e-07
1.33457e-07
-3.18625e-07
1.55026e-07
-0.00345609
7.34547e-05
-2.37658e-07
-3.11165e-06
4.98133e-08
2.48938e-05
-5.52158e-08
0.0226729
-0.00671526
-4.51245e-07
0.0162822
0.309233
-0.000273797
-1.29094e-05
-0.0102276
0.0194816
-6.49221e-07
-6.01547e-07
6.55591e-07
-0.00808334
-0.000520104
2.93061e-06
-0.00262406
-1.01725
8.4482e-08
4.78618e-07
1.56903e-06
-4.03849e-05
-7.34939e-06
1.33854e-07
4.46292e-08
-8.21506e-07
8.11422e-07
0.00155554
-0.00339285
2.19145e-06
0.139562
-0.0341249
-5.81821e-08
1.01212e-06
1.6002e-06
-5.01782e-06
0.00100607
-20.1862
-0.019986
-0.000326247
0.000945377
-2.16394
0.0944547
0.00979984
-3.09774e-06
-0.000122846
-5.49776e-06
1.57793e-06
-0.00765084
-3.79967e-07
-0.00261843
0.000887927
9.18894e-07
0.000147822
-4.09204e-07
-0.0012907
3.0735e-06
0.00200568
0.174509
-1.31861e-07
-0.0274629
4.53178e-07
-5.61054e-09
-0.0265193
-5.78289e-06
-5.72139e-08
0.00250211
0.0122084
-6.20567e-07
-0.000578082
-4.9881e-06
5.05746e-05
-9.82876e-07
5.26315e-08
0.00633182
-0.00535673
0.00388105
1.02168e-06
-2.50825e-06
-0.00328527
-4.96314e-08
-5.10064e-08
-2.1526e-08
1.51823e-06
-3.1779e-07
-0.000441249
3.56563e-06
-0.00664266
-9.04971e-05
-5.68922e-05
-0.0224231
-9.81429e-07
1.55045e-06
-6.49488e-06
-0.00712359
0.000190766
0.0132357
0.00212452
5.37346e-05
-0.00727526
-4.47862e-07
-4.41641e-08
-5.67694e-05
8.61635e-07
-2.81661e-08
-2.13477e-06
-5.92559e-06
-0.783434
-2.92626e-06
7.37539e-06
0.0152427
-8.93404e-06
-0.0163458
2.62406e-07
-5.50942e-07
-3.15836e-07
1.24925e-07
-0.000134538
6.06212e-07
-1.97087e-05
-0.000563755
0.000184106
-0.00668693
-1.16629e-08
-0.00446378
0.00218237
1.61411e-07
1.01401e-06
-0.0150659
4.88936e-07
1.52014e-06
-0.00677736
0.0976211
0.00106132
-3.51655e-05
-0.0109624
-9.24278e-05
0.00508088
-1.30771e-05
-5.13834e-07
0.000252293
2.4008e-07
-0.00508015
-0.000363302
9.43398e-08
0.003589
-2.45353e-06
0.000128121
0.00154761
1.3739e-07
-0.000460538
-1.65991
1.97452e-06
-0.237777
0.0019912
4.98725
3.30976e-05
-6.81974e-06
-0.00856162
0.00351461
8.42242e-09
-1.55509e-07
-0.00319715
0.0163742
1.49329e-07
1.89796e-06
0.0159586
-0.000556943
3.1912e-06
0.0282603
4.15729e-08
-1.14864e-05
-0.030737
-0.0110384
-0.00367615
2.72582e-09
-3.47173e-06
-2.96502e-07
-6.0742e-06
-4.67701e-06
-0.002451
-0.019028
-1.89495e-08
-0.000460421
1.29291e-06
-0.00518572
1.47124e-07
-1.04099e-07
2.98218e-07
2.6449e-08
-0.0101534
0.00138454
1.77337e-05
0.000191627
-1.10167e-06
0.00116391
2.82367e-08
-1.21069e-06
-3.93497e-06
1.25164e-07
-0.000437354
-6.93074e-06
0.017794
0.000632729
-1.52058e-07
0.00188959
-1.03033e-05
-3.45686e-08
-0.0043872
3.78357e-06
-0.000112319
-0.0018064
-0.0107492
-9.72001e-08
0.0161904
-5.96652e-06
-1.10901e-06
1.72619e-09
-3.13622
2.62026e-07
-0.0105024
-8.0163e-08
-2.95273e-07
-0.0308945
0.000167056
3.57783e-05
1.63075e-07
-4.09194e-06
0.00214539
-2.15144e-07
-4.22791e-07
-0.0173296
-0.00289662
-0.000112383
-0.030671
-2.72867e-07
0.000123963
9.33116e-06
2.25128e-06
4.70432e-05
-0.0194588
0.0303434
-0.00014653
2.49716e-07
0.0289318
1.30239e-07
0.00414349
0.0745626
-4.33467e-07
-0.011936
-0.0144681
-2.41923e-05
-0.0334643
1.45816e-06
-2.8661e-07
-1.47887e-07
-0.000101906
0.0342227
-0.0044899
-5.20523e-07
0.00560336
3.12951e-06
-6.54211e-07
-0.0146864
1.04502e-06
3.73468e-06
2.00528e-07
0.000230166
-7.84449e-07
-2.25609e-06
-0.0105628
0.068817
-0.00097353
-7.29877e-07
-4.144e-09
0.0363011
0.000524737
0.000279495
-2.18256e-07
-7.72367e-05
-3.49708e-05
-0.0169102
-1.49795e-08
0.000845311
0.153881
-1.8807e-06
-1.0893e-06
2.91557e-06
-9.49236e-05
0.0166327
-7.45933e-08
-5.59961e-06
-1.83358e-06
2.42815e-06
1.21569e-07
-0.0311734
-0.032344
-0.00685126
2.45447e-07
-2.27366e-05
0.000333199
0.0165517
6.6038e-05
0.000186679
2.54376e-06
-0.00184227
8.44226e-06
8.45842e-05
-0.00415891
1.28373e-06
1.2957e-08
5.2764e-07
1.28466e-07
0.0072515
-4.13077e-07
-0.000132182
0.0075207
1.27425e-07
-3.23306e-07
-0.0227038
-2.14236e-07
-1.1824e-07
-0.000157013
-3.38862e-07
-0.000647097
-5.23171e-05
5.72467e-08
-3.14439e-07
-0.00013956
-2.7121e-07
-2.28746e-07
0.0071716
-1.45581e-06
-2.74869e-07
-3.76258e-06
9.72321e-07
1.32809e-08
-1.36561e-07
-0.0314166
-3.43391e-07
-0.00016205
-0.000600974
-3.36947e-07
-7.10946e-11
1.05496e-05
3.32939e-06
-1.65021e-08
0.000117232
0.0041333
1.29212e-06
7.12506e-07
2.92899e-07
-5.72431e-06
-3.5528e-06
0.0170049
-0.0162562
2.14143e-08
2.14553e-06
0.00131191
3.70128e-06
0.0177874
3.21968e-06
0.0153987
4.06847e-07
-1.92337e-05
0.0338381
-0.00531426
-1.09249e-06
-9.74199e-07
1.37775e-07
3.72003e-07
-0.0338038
0.0371382
0.00109247
-6.88492e-06
-4.38305e-06
-4.69844e-06
1.13284e-06
-0.0186859
0.00266986
1.86144e-08
0.00183467
-2.94521e-06
1.17598e-08
1.13234e-08
-4.48076e-07
-1.69396e-06
-5.52675e-06
0.0175743
2.07918e-07
-0.00120192
-0.0290475
-3.12303e-06
-3.30831e-07
-0.00811109
-0.00608445
2.49525e-08
-0.00459677
-0.0353385
-1.29144e-08
0.0116624
-1.20735e-05
0.00298173
-0.000116674
0.145452
-1.73718e-06
-0.00839687
0.000126682
-3.36602e-07
-3.28761e-07
-1.37676e-07
3.7718e-06
0.00239451
-0.00700934
1.58506e-07
-6.78447e-09
-3.62546e-07
-0.00920937
-9.46934e-06
2.64893e-06
-5.75001e-08
-0.0132942
-0.00808175
0.000516329
-0.00498792
-0.041778
-5.20743e-07
0.0156412
1.14775e-07
-1.15781e-05
-3.13432e-07
-0.00126779
-1.83126e-09
0.0121288
-1.66622e-06
2.9589e-06
0.0174122
1.04913e-06
-0.000419788
0.032537
-0.000166919
-1.20838e-08
3.10774e-08
-9.79161e-07
0.0153082
-0.00090741
1.33087e-05
-1.19351e-06
-1.62093e-05
-0.00342476
-0.000329631
-1.26929e-09
-0.00814491
-6.52693e-06
-6.06511e-06
0.0151972
-2.30374e-08
-0.0110124
9.7203e-08
-0.00721408
3.46851e-07
-7.37562e-07
0.0235946
1.40221e-05
-1.7503e-06
9.0086e-08
-0.00633493
0.0274851
-3.14792e-05
3.34413e-05
0.000185221
-0.020336
-0.00998409
0.0301343
-0.00478691
3.48774e-06
-1.04086e-07
-2.41179e-05
-0.000295802
4.25929e-08
3.08563e-08
-4.67776e-06
1.31707e-07
2.91082e-07
-0.0354247
-3.88735e-06
-0.00157188
-8.36699e-06
-0.000157127
-4.80533e-07
0.00837435
-0.00787011
-7.95872e-07
-0.00182214
3.69944e-08
-0.0131969
-6.25721e-07
-0.0220566
9.02962e-06
-0.0980542
-5.07355e-08
-3.32123e-07
0.0753509
-0.00327148
4.58978e-08
-0.0362125
-2.39564e-06
1.0801e-08
1.37603e-07
-1.22493e-05
-2.78555
0.00035338
-7.10833e-07
1.95041e-06
0.00157042
2.25e-07
0.00120098
4.17281e-08
-0.00905222
2.2334e-07
-2.74496e-07
4.15348e-06
5.79393e-05
-4.19715e-07
8.1936e-05
1.15273e-06
-2.13797e-06
1.38768e-05
0.000107106
-6.4243e-07
-0.00743032
-8.36773e-08
0.0346653
-0.0106386
-0.0348746
-2.19019e-07
3.08711
-8.37055e-06
-1.63452e-07
9.1277e-08
-3.21393e-08
-0.0428646
1.30626e-07
-0.000589978
-1.32511e-05
-0.0896216
-9.49036e-08
-1.77001e-07
-1.03321e-07
-0.0365562
-3.48951e-06
0.0287524
0.410687
9.8553e-07
-0.0392528
-0.000527439
2.61228e-06
0.00110278
9.17076e-08
1.21751e-05
-5.70231e-06
-3.67008e-06
-4.58982e-07
0.000319195
2.92058e-05
-8.89459e-08
-0.0882604
2.03449e-07
-2.78356e-08
4.49828e-07
2.47267e-07
-1.80378e-06
-1.04777e-06
-4.54839e-07
-0.0339977
-0.000646749
-0.000767037
3.03006e-07
6.9177e-07
-0.000252527
7.84677e-06
-3.6246e-06
1.38282e-07
1.54918e-06
-0.00842945
4.43614
1.79841e-06
0.00292901
-2.31808e-08
-0.0378804
0.00809942
-3.63649e-07
2.11459e-07
-0.000406987
3.80532e-06
9.03416e-08
0.0135199
3.14507e-07
3.35339e-06
-0.136037
-2.44922e-05
-3.22365e-07
0.000441391
-9.15183e-09
-5.87462e-05
-1.42156e-07
-0.00036447
-3.84604e-07
2.71103e-06
-2.8759e-06
1.23259e-06
3.94138e-06
-0.0247633
-0.0070442
4.49471e-07
3.92252e-07
-0.0130331
-0.0172423
1.33764e-07
9.9022e-08
2.83541e-06
-0.000416088
-3.91429e-08
-2.88824e-06
-0.0519131
-4.7671e-08
2.47571e-06
-4.13292e-05
-2.12203e-10
1.84841e-06
-0.00850822
0.010282
1.23991e-07
-3.85152e-07
-6.44693e-06
-2.87177e-07
0.0103394
-0.0133596
-0.0228779
-8.37588e-06
-0.00309199
0.0203444
3.288e-06
0.0160953
-0.000380094
2.93568e-08
7.29903e-07
-7.59559e-06
4.86016e-08
1.37729e-07
0.00118249
-6.74149e-05
4.43137e-06
0.000170513
-0.000160007
-0.00210155
-0.00393008
-0.0143302
4.06242e-07
3.78824e-06
-0.0222031
-0.00229171
-2.07615e-05
-0.000600532
3.78534e-05
9.65697e-07
-0.000457334
3.80815e-06
3.77194e-06
-2.83594e-06
-4.8093e-07
0.00633093
-2.3815e-09
1.38933e-08
1.36392e-07
3.30383e-06
-0.0290489
-0.00459666
-0.00247021
0.00952181
5.92102e-05
-0.684
-1.04284e-05
-1.75969e-08
-9.08073e-06
-7.77985e-06
1.6564e-06
-0.00475542
-0.00161602
1.37673e-06
0.000398283
0.00890368
-0.000553615
1.4593e-06
1.51508e-06
-0.000564925
-5.10823e-08
2.20324e-07
-0.00151617
3.5102e-06
-5.71327e-08
3.65385e-05
7.3498e-07
3.67005e-06
3.1861e-06
0.000462013
8.5828e-08
-11.6309
-0.116885
-5.15684e-05
-8.65955e-07
-0.000545811
-0.000537011
6.5974e-08
-5.47628e-06
-2.27401e-08
-1.08096e-08
-9.23691e-07
-2.17911e-07
2.10843e-07
0.00898299
0.000886691
-8.91122e-07
2.35278e-06
2.34961e-06
0.0122863
-0.00987937
-8.27648e-08
-0.000631903
-3.14169e-05
-0.00731056
-2.61459e-08
-2.43236e-06
-4.03443e-07
4.25234e-07
1.53123e-06
-1.02984e-06
-1.85561e-05
0.0130506
0.00140063
-0.000166336
-6.59074e-07
-3.70081e-07
0.0088879
-0.000124712
-0.0282503
-0.264604
-0.0372736
-2.7862e-07
4.84364e-07
-2.66711e-05
6.90435e-06
-0.00539593
0.0659087
7.93152e-08
-1.05084e-07
-0.0042638
-2.10965e-05
5.58796e-08
4.63712e-06
0.0163439
-1.23992e-07
2.21181e-06
-0.0206958
4.31757e-06
-0.00104715
-0.0244213
-4.60191e-06
-0.11583
-4.72959e-06
-2.2917e-05
0.0067123
5.83243e-05
-1.0971e-07
-0.0559759
-0.000472361
-5.22549e-07
-2.17014e-05
-0.000303058
-1.23709e-06
-0.0106245
-0.0167783
0.386173
-0.00556661
1.0419e-07
2.99919e-07
0.00118229
-0.00103322
0.00987198
0.0311442
-0.0154345
-6.6017e-05
1.88132e-06
-1.29805e-07
7.26838e-08
-0.000123131
-4.07136e-07
0.0347018
-0.000174602
-0.00153411
1.98098e-07
-2.62855e-07
1.43469e-06
-0.681409
-1.07263e-05
-1.16582e-06
5.20778e-08
-0.0620997
2.31549e-06
0.0111302
-0.021544
-0.0205104
-0.0110382
0.000149028
2.15312e-06
0.00297324
-1.67634e-07
-0.00499147
-2.10813e-05
8.80377e-08
0.0164247
-0.00063417
-9.50629e-05
2.68478e-07
3.6247e-06
-1.52454e-07
0.00645331
-0.00845023
2.22285e-08
-1.32755e-07
-0.00881654
1.10195e-06
0.009236
-0.00044843
-7.65816e-05
-1.50929e-07
3.0545e-07
-0.00127167
-0.00042781
-0.000369184
2.30343e-07
-3.83598e-07
-6.1383e-05
6.21394e-09
-0.000107249
0.000151391
1.2463e-08
8.46485e-05
-1.04318e-05
1.6496e-07
-1.039e-06
0.012797
-6.61172e-05
-9.6609e-06
-0.000513514
-1.82351e-05
-0.0202783
1.83713e-07
0.000103227
-9.15885e-07
0.0160123
1.18819e-07
-7.8495e-06
1.01046e-06
-5.19096e-07
-1.04248e-05
6.62413e-07
3.84859e-06
-2.37288e-06
7.59947e-08
2.92323e-05
3.05854e-06
0.000226772
0.0333
6.35057e-06
-0.00208862
-0.00257449
-6.17386e-07
0.0007538
5.17886e-07
-7.06471e-08
1.6916e-05
-0.00883573
-0.000459242
1.95182e-05
-0.0211601
-0.00796798
-0.0246465
3.68236e-07
-1.24575e-07
-1.82046e-06
-0.0169692
-0.000132372
-0.00750913
-4.41957e-07
-1.89938e-06
-2.22694e-06
2.95678e-06
-0.000116597
-0.000554021
-0.00021836
-0.00156933
-3.44602e-07
-3.4197e-08
-8.08413e-08
-9.80408e-07
-0.00184945
0.037113
-3.23972e-07
-1.19881e-06
2.28069e-07
6.34096e-08
-0.0361173
-0.000446734
0.00390559
-0.00048056
0.0112344
1.6353e-07
3.46243e-06
0.00702633
-0.000433262
-0.0375848
0.00474062
-0.000229597
1.45065e-07
-3.99994e-06
0.00464909
4.42103e-07
-0.00290258
-2.51158e-06
-8.55726e-07
-3.94082e-05
4.68221e-09
-4.5304e-06
-0.0386992
-9.5305e-08
-0.00241458
0.00152835
0.000198847
2.69443e-05
0.00963682
3.06176e-05
-2.62117e-07
-0.000287133
0.0157206
-1.28183e-05
1.93184e-08
-1.02118e-06
3.14826e-06
-2.23399e-05
-0.0761881
-4.38415e-07
-0.0206964
-1.52067e-07
-7.77134e-08
1.21183
-2.18176e-05
1.00695e-06
-7.05953e-09
0.0170321
-9.95665e-05
-6.36346e-08
-9.10339e-07
2.01543e-06
-0.000196832
0.0142767
-2.62489e-07
-1.01512e-06
-2.05139e-07
2.2328e-08
4.25496e-06
0.000174532
5.90577e-07
-0.00592066
1.05647e-05
3.96344e-05
1.32301e-05
3.91595e-08
0.0156199
3.17605e-05
-0.0277202
-0.00245274
1.90814e-07
3.06273e-07
-1.16926e-06
-3.53829e-06
0.00696079
-6.72185e-06
-3.35844e-06
0.0263099
-2.5481e-06
0.000118142
2.48671e-07
2.53699e-08
-5.86905e-08
-2.35878e-08
-0.0165346
0.01153
-5.75172e-09
-5.5911e-07
1.75579e-07
0.00650869
-0.00138854
-1.13989e-07
-2.87516e-06
-3.42178e-07
4.39492e-06
-0.000230506
3.44374e-06
-2.69243e-07
4.99735e-08
-0.0117751
0.0135213
1.78799e-07
0.000638696
0.0147731
3.55219e-05
-1.31054e-07
-5.24442e-07
-4.23235e-05
-1.69016e-06
1.94447e-07
7.52871e-08
0.0209088
-0.00053575
0.0476897
0.00368363
0.0282481
1.13826e-06
2.42217e-06
-9.72367e-05
10.6219
-0.000129465
2.08384e-06
-1.26193e-08
-0.0120114
0.000123736
-0.00062738
-0.000414186
-9.13239e-08
-0.00355323
6.71329e-07
0.0363397
-8.57368e-07
4.14091e-11
3.47562
-5.40361e-05
9.15426e-06
-0.00253346
-0.0158322
0.0224912
1.63588e-07
-5.81414e-07
-0.114135
-1.01605e-06
-1.48989e-07
-1.57485e-06
-1.24735e-07
0.00743362
1.01107e-07
2.33848e-07
0.00633828
0.00672964
-5.30797e-07
1.11955e-06
4.52607e-07
-6.22964e-07
-0.0409539
0.035349
-0.159594
-0.000481085
0.00336077
0.0367364
-3.61722e-07
-0.00840955
-0.0402294
0.00769025
-0.0396446
3.49958e-06
-3.94255e-07
1.51243e-08
-7.10084e-08
-1.04909e-06
-5.13702e-07
-1.58819e-06
-0.0356844
-1.0945e-05
1.91756e-05
-7.75391e-06
-0.00230852
-1.16988e-05
0.0070734
-0.022848
0.000516944
-2.43453e-06
1.44842e-06
3.44274e-05
0.139116
-1.28862e-06
-4.49674e-08
-4.27373e-09
0.00687013
-0.0113217
1.41824e-05
-6.99599e-08
-0.0441363
4.88151e-08
-0.000387806
4.55127e-08
0.00569534
-9.40809e-08
-4.6323e-07
-0.00728137
-8.62207e-07
-0.0177885
1.67412e-06
-6.91875e-06
-9.64145e-07
-0.00264674
-1.49146e-07
0.000119843
0.0608951
-4.95495e-07
-2.3161e-08
-0.0229698
-0.190046
-8.56761e-05
0.00126136
4.37683e-08
0.0389792
-6.81617e-08
-1.07756e-07
2.34739e-06
-1.26044e-07
-7.06219e-06
6.7816e-06
-5.27467e-06
2.12038e-06
-3.6147e-07
-0.00289963
-3.43412e-08
-0.000140473
-8.46276e-08
-1.22969e-06
1.64604e-06
1.4854e-07
-0.0234099
4.64848e-07
-1.7475e-07
-0.00237771
-3.03087e-07
0.383549
-0.00162179
4.05214e-06
2.07369e-06
-0.00168946
7.7227e-05
-0.0182159
-8.47913e-06
-0.000246825
3.83157e-06
5.94781e-08
-0.0259487
-1.32921e-07
-0.0183682
0.000176791
-5.3733e-05
-5.9606e-06
-0.149899
-7.70241e-06
-7.44072e-08
-0.00121918
3.87564e-07
3.00412e-07
-8.11701e-06
-0.0086415
-0.033708
0.0153878
-0.0160651
-6.17698e-05
4.24674e-06
-9.473e-06
-4.08971e-07
4.56847e-07
-1.67e-07
-0.000464378
4.25945e-06
-7.6384e-06
-9.75996e-08
-0.0371937
-0.0079069
-5.08062e-06
-3.4141e-07
-0.00239638
0.0166285
-5.87945e-07
-1.01816e-06
-0.0053682
1.01198e-07
-7.43195e-06
0.131837
-5.02855e-08
-2.15657e-10
-0.00958476
0.00365809
-1.35943e-08
-3.18185e-05
-9.4437e-07
2.81989e-07
-2.17003e-07
-6.68587e-06
-0.00429269
-2.69232e-05
2.40489e-06
4.6588e-08
-0.000900907
0.0104418
5.71519e-07
-3.53236e-09
-0.00312316
-8.57698e-09
0.000756024
-2.33877e-06
-3.86394e-07
-3.12321e-06
-0.0823625
-2.2399e-07
9.30555e-07
3.11732e-07
1.15427e-06
-1.82483e-07
-0.00134092
-6.90364e-08
-0.00810082
-0.0472004
-9.11366e-07
0.0261291
-0.0221861
1.16269e-07
-8.3687e-06
1.12904e-07
-2.61594e-05
0.035591
9.13082e-05
4.39901e-08
3.51172e-06
-0.00486258
-5.21131e-07
-0.0403887
2.25391e-07
3.97189e-06
-8.86517e-05
2.55448e-08
-1.39553e-07
6.06164e-06
0.45798
0.000237752
-0.0167615
-1.68221e-07
0.0122239
0.00370007
-1.47811e-06
-0.00685159
-0.000116817
-0.000132815
3.87739e-06
-1.02123e-06
8.54213e-07
-4.1021e-06
0.0292516
-0.00372634
1.58528e-07
-9.86759e-07
1.28048e-06
0.00783444
-0.0251286
-0.0338647
-7.64771e-08
-8.26541e-07
0.064712
-2.61341e-07
0.00626298
-9.69912e-07
2.02496e-08
-0.00182073
-1.1559e-07
-9.61548e-06
-7.27527e-08
-2.44453e-07
-8.97561e-05
-1.05233e-07
-2.39521e-07
4.82164e-07
6.96345e-09
0.0354994
-0.0285684
-0.00855822
-0.0133757
1.37399e-06
6.2002e-06
-0.00017187
3.69038e-07
-0.656662
0.00684588
-3.93749e-05
1.83295e-07
-9.7491e-09
-1.61794e-05
-0.300556
2.92546e-05
-4.12176e-07
-6.36998e-08
0.0211587
0.0294349
-9.13338e-07
-0.000130417
-4.53956e-05
-9.403e-05
-0.000346856
-9.23522e-09
0.00487207
0.0103388
5.16378e-07
1.77619e-07
-0.225024
0.266046
-0.000674926
-0.0101683
-6.97959e-06
3.17764e-05
-1.01568e-08
-0.0835045
0.00105469
-8.07573e-06
-0.00117639
0.0156667
1.58981e-07
-2.19022e-07
-2.54488e-06
-0.00352684
-1.30262e-07
-0.0117605
-2.1293e-05
-0.0418574
-3.6564e-07
9.87176e-08
7.55638e-05
1.52565e-07
-0.000366642
-0.000131649
-0.0102248
-0.092321
0.0100987
-5.94774e-06
1.47948e-07
1.90989e-07
2.8039e-07
0.00855286
-0.000174452
-0.0388371
-0.122552
-6.49953e-07
9.07317e-07
0.00287997
-8.93074e-09
-0.0247403
-4.4588e-07
-1.05799e-05
-0.0405463
-4.92215e-08
-1.17629e-05
-1.68957e-06
-0.000280695
-7.94563e-06
-9.93216e-07
-0.00443703
-0.000367999
0.000141542
0.00684799
-0.116962
-0.0126139
-1.06098e-06
-0.000936477
-0.0405532
-0.0119606
-5.2489e-08
4.39024e-08
4.01556e-06
1.94361e-06
0.00163836
-0.00802678
-3.9563e-07
-9.32e-07
-0.00229496
-0.0122099
-8.14096e-09
2.76379e-07
2.75237e-06
-7.47112e-08
0.00017852
0.00623559
-7.93092e-08
-0.000858477
0.59966
-0.00197616
-0.0225311
-1.67622e-05
2.33634e-07
-1.57703e-07
-9.48704e-08
-2.4184e-06
0.00608297
-9.39607e-05
7.74617e-07
-9.33773e-05
0.00259829
1.06791e-06
-9.03065e-08
0.00026179
-0.0340892
-5.11738e-06
-0.017707
-0.000507919
2.7606e-07
1.51297e-07
3.93123e-05
0.0339018
3.91002e-05
2.50088e-06
-2.99135e-07
-0.00656901
0.00743259
1.50259e-07
2.50877e-07
0.00559041
0.00714106
1.11807e-06
-1.17055e-08
3.82431e-06
7.49071e-05
-1.70724e-07
-7.2024
0.00466947
-0.00229632
-5.61565e-06
6.45975e-08
4.07278e-07
-0.000276701
-2.26003e-06
-9.36217e-07
-0.000115511
-3.07467e-08
-0.00587494
-0.0881022
0.0080796
-0.0035559
-3.89578e-07
-4.18827e-07
-0.0147626
-1.64879e-06
-0.00363839
0.817105
2.06219e-07
-1.76906e-08
-1.16877e-05
-0.000228109
-0.0340387
0.000732739
0.00403769
-4.15474e-07
-2.52033e-07
0.000271673
-6.69284e-08
-4.5864e-05
-9.3279e-08
-1.11492e-05
1.00442e-05
-1.68867e-06
-1.19492e-05
-0.275139
-1.09772e-06
-6.64226e-06
-0.00392878
0.000209802
0.00747013
-4.18233e-07
-5.67232e-07
2.08738e-06
1.32661e-07
3.62401e-06
-3.52322e-07
4.07278e-06
-1.16028e-05
0.0171004
-2.41111e-07
-0.178613
-0.000375063
-4.4461e-07
-0.00378521
-0.143881
0.0695774
0.000915796
4.24715e-06
-0.0196505
-6.67843e-08
-0.000194351
-4.40794e-07
-2.75975e-07
-1.94521e-07
1.85353e-06
-0.00269994
0.00696718
-3.69085e-08
-9.28937e-12
0.00741565
2.56076e-05
0.0036646
-1.25227e-05
1.68244e-07
-4.03069e-07
-2.1683e-06
-0.0618424
-8.30111e-06
0.00387211
-2.41215e-06
-5.40981e-06
0.00363308
-5.22796e-05
-1.85441e-07
-0.00396836
-1.20841e-06
-0.000449457
0.00600656
0.000125421
-0.0112666
-0.00547584
-5.66557e-06
0.0191826
-5.74571e-06
7.89888e-06
-7.51013e-06
-1.18417e-06
-7.68455e-07
0.0369796
-5.49338e-05
-0.00736353
-6.44897e-07
-9.85276e-07
-6.58769e-08
8.9829e-05
6.07363e-08