/*--------------------------------*- C++ -*----------------------------------*\
| =========                 |                                                 |
| \\      /  F ield         | OpenFOAM: The Open Source CFD Toolbox           |
|  \\    /   O peration     | Version:  v2012                                 |
|   \\  /    A nd           | Website:  www.openfoam.com                      |
|    \\/     M anipulation  |                                                 |
\*---------------------------------------------------------------------------*/
FoamFile
{
    version     2.0;
    format      ascii;
    class       surfaceScalarField;
    location    "400";
    object      ddtCorrDdt0(phi);
}
// * * * * * * * * * * * * * * * * * * * * * * * * * * * * * * * * * * * * * //

dimensions      [0 3 -2 0 0 0 0];
oriented        oriented;


internalField   nonuniform List<scalar> 
79099
(
-4.77408e-06
-1.52839e-05
2.0058e-05
-3.59613e-05
8.28121e-05
-4.68506e-05
6.12718e-06
-1.62155e-05
1.00883e-05
3.50896e-05
-2.71823e-05
-7.90764e-06
-2.43502e-06
2.37123e-06
6.37198e-08
-3.18792e-06
-2.55334e-05
2.87203e-05
2.0886e-05
-2.45718e-05
3.68563e-06
1.47188e-05
-1.94929e-05
1.21531e-05
-1.96493e-05
7.4961e-06
5.28521e-06
-1.75848e-05
1.22995e-05
0.000114465
-3.493e-05
-7.95357e-05
-8.71881e-06
2.38454e-05
-1.51266e-05
-0.000252572
0.00018002
7.25515e-05
-1.25652e-05
0.000179614
-0.00016705
4.31068e-06
-1.72167e-05
1.2906e-05
-2.99023e-06
-5.57064e-06
8.56081e-06
2.64006e-05
-1.7901e-05
-8.50016e-06
4.63946e-06
-7.62973e-06
4.29995e-06
9.12385e-05
-9.5537e-05
-3.4787e-05
7.85297e-06
2.6934e-05
-1.84022e-05
1.96838e-05
-1.28163e-06
-2.52188e-05
4.54055e-06
2.06783e-05
-5.67744e-06
-3.64597e-07
6.04205e-06
2.14333e-05
-5.47366e-07
5.3538e-06
1.13125e-05
-1.66666e-05
4.06944e-05
-4.3332e-05
2.63722e-06
0.00017716
-0.000189726
-2.86496e-05
1.43976e-05
1.42521e-05
0.000102447
0.000130101
-0.000232548
0.000143685
-0.000194026
5.03406e-05
-0.000171257
0.000120304
5.09517e-05
3.18231e-05
0.000235414
-0.000267237
7.25428e-06
-0.000129196
0.00012194
-3.81141e-07
-1.44799e-05
1.4861e-05
-6.31862e-06
3.15592e-06
3.16274e-06
1.51156e-05
1.27219e-06
-1.63879e-05
3.27447e-06
-1.56229e-05
1.23485e-05
1.75926e-07
-1.83245e-07
7.30618e-09
2.12849e-05
1.32828e-06
-2.26133e-05
1.37834e-06
-1.32421e-05
1.18636e-05
1.69124e-05
-1.36379e-05
-6.59828e-05
0.000143954
-7.79704e-05
-1.91184e-05
0.00010776
-8.86422e-05
-1.96746e-05
-5.53445e-05
7.50209e-05
-1.23388e-05
-2.24483e-05
9.52616e-06
-9.16174e-06
-3.64377e-07
9.33266e-06
-6.40743e-06
-2.92524e-06
4.99922e-06
1.63297e-05
-2.13285e-05
3.55833e-06
0.000107187
-0.000110745
7.34206e-06
-6.12898e-06
-1.21314e-06
5.878e-07
-3.93876e-08
-5.48383e-07
1.67887e-05
-1.96392e-05
2.85054e-06
1.88606e-05
1.99859e-06
-2.08591e-05
5.14528e-06
-9.86921e-06
4.72397e-06
-2.54817e-06
5.98208e-05
-5.72725e-05
8.36454e-05
-7.93446e-05
-3.01187e-05
8.75951e-06
2.13592e-05
2.9045e-06
-7.12341e-06
4.21896e-06
0.000219809
1.3641e-06
-0.000221175
3.13482e-05
2.7556e-05
-5.8904e-05
-1.50965e-05
1.59324e-05
-8.35927e-07
-8.56285e-06
1.951e-05
-1.09471e-05
0.000134098
-0.000118147
-1.59512e-05
1.18273e-05
0.000167095
-0.000178922
-2.00005e-05
-1.23552e-05
3.23559e-05
-7.19202e-06
1.35026e-05
-6.31047e-06
0.000192653
-4.89683e-05
5.95316e-06
3.37948e-06
-3.33697e-06
6.56944e-06
-3.23243e-06
-1.51948e-06
1.0099e-05
-8.57952e-06
8.32616e-06
-1.85661e-05
1.024e-05
-6.24412e-07
-4.08361e-06
4.70806e-06
-3.6844e-06
-1.37862e-05
1.74706e-05
0.000111034
-0.000103781
3.98212e-05
8.6648e-07
-5.90971e-06
3.83424e-06
2.07548e-06
-1.54635e-06
8.30225e-07
7.16143e-07
3.37172e-05
-3.69056e-05
-7.45706e-06
6.8996e-06
5.57471e-07
9.53388e-06
-1.20756e-06
-4.69976e-05
2.14635e-05
0.000231415
-9.4045e-05
-0.00013737
8.72633e-05
5.69076e-05
-0.000144168
4.16854e-05
-1.20494e-05
-2.96364e-05
-2.05249e-05
7.37251e-06
1.31524e-05
8.50411e-06
-1.00236e-05
3.78062e-06
1.57305e-05
-1.95111e-05
2.01311e-05
-7.97796e-06
6.44328e-06
-1.36353e-05
5.79626e-05
-1.44511e-05
-4.35114e-05
-3.17113e-06
1.35882e-05
-1.04168e-05
-7.38676e-05
7.35465e-05
3.22494e-07
8.76092e-05
0.000143806
-6.06155e-06
-3.34791e-05
3.95403e-05
7.55571e-05
1.81577e-05
-9.37142e-05
0.000131337
-0.000116309
-1.50266e-05
-8.89078e-05
-0.000111888
0.000200793
-1.03968e-05
1.6524e-05
-0.0001114
0.000112636
-1.23659e-06
0.000122562
1.15363e-05
-2.22657e-05
-1.3276e-05
1.46543e-05
-5.62896e-05
8.05207e-05
-2.42315e-05
-1.90517e-05
-9.59775e-06
-2.11879e-05
1.46467e-05
6.54114e-06
-5.65641e-05
6.72956e-05
-1.0732e-05
4.4187e-05
-3.16914e-05
-1.24958e-05
-3.19286e-06
1.83084e-05
9.27182e-05
-1.26295e-05
-8.00897e-05
-4.50352e-06
3.87911e-06
-3.75947e-05
1.54904e-05
2.21041e-05
-3.47329e-05
6.95935e-05
-3.48606e-05
-1.22795e-06
-3.18386e-07
9.19382e-05
-1.63807e-05
8.7951e-05
0.000141087
-0.00022904
-1.28468e-06
1.52004e-07
1.13276e-06
1.61507e-05
8.78226e-06
-2.49329e-05
-1.04475e-05
3.49954e-06
6.94795e-06
8.55989e-05
7.15093e-06
5.42442e-07
1.13963e-05
-1.19387e-05
-1.36214e-06
-1.07295e-06
-2.0454e-05
1.67697e-05
-3.39498e-07
1.10035e-05
-1.0664e-05
-3.07663e-05
8.07748e-06
2.26886e-05
-1.61336e-05
-3.08647e-05
5.976e-06
4.23574e-06
-1.02117e-05
-1.00135e-07
-8.03791e-06
8.13775e-06
-0.000159904
4.39963e-05
0.000115908
-5.45933e-05
3.37321e-05
2.08615e-05
1.85578e-05
-7.48721e-06
-1.10705e-05
0.000270847
-0.000239024
1.0776e-05
-1.64535e-05
5.67751e-06
1.94737e-05
2.22116e-05
1.57353e-05
9.06308e-07
-1.66416e-05
-8.11199e-06
6.89466e-06
1.21739e-06
-9.08446e-06
0.000228893
-2.22572e-05
-1.05367e-07
2.23628e-05
-0.000162902
-8.96703e-05
4.04275e-07
-1.2524e-05
1.21198e-05
-6.35712e-06
1.21746e-05
-5.81755e-06
-9.91715e-06
-4.14343e-07
1.03314e-05
-4.58637e-06
1.16443e-05
-7.05799e-06
-6.69793e-10
-1.23101e-05
1.23108e-05
0.000218047
-0.000213155
-4.89446e-06
-4.29184e-05
-1.16748e-05
6.45676e-06
9.19669e-06
-1.56535e-05
1.74888e-05
-1.33803e-06
1.52367e-06
-5.16081e-06
3.63715e-06
-1.42755e-05
2.10447e-06
1.21712e-05
-1.57521e-05
1.68558e-05
-1.10366e-06
-1.65256e-07
-9.96242e-06
1.01277e-05
-9.22377e-05
-2.59097e-05
5.49674e-06
-3.12551e-06
-2.99484e-06
-2.2224e-05
9.99879e-06
-7.77293e-06
-2.22588e-06
2.05349e-05
-1.67433e-06
-4.38466e-05
0.00011074
-6.68941e-05
-5.15969e-05
-3.54703e-05
8.70678e-05
-1.37967e-05
1.82217e-05
-4.42488e-06
-3.68332e-05
-9.62004e-06
4.64535e-05
-6.29443e-06
2.1391e-06
4.15536e-06
4.76861e-06
2.57341e-06
-9.42874e-06
4.33156e-07
8.99559e-06
-7.54094e-06
-6.63261e-05
1.41974e-06
1.40367e-05
-1.54564e-05
-1.23466e-07
1.23449e-07
6.23712e-06
-1.58932e-05
9.65613e-06
1.87411e-05
-1.67964e-05
-1.94484e-06
1.34019e-06
4.72546e-06
-6.06561e-06
-1.60224e-05
-1.16471e-06
1.71873e-05
-1.97853e-05
8.21604e-06
1.15691e-05
0.000253275
-0.000165522
-8.77571e-05
-6.58001e-06
3.92514e-05
-3.26714e-05
6.65884e-07
7.502e-06
-8.16789e-06
1.79301e-06
-3.25587e-05
-2.15033e-06
-7.41822e-06
9.56868e-06
-8.66544e-06
-1.18594e-05
0.000111446
1.98918e-05
-2.45052e-05
2.82858e-05
-1.34587e-05
2.51974e-05
-1.17389e-05
-1.26287e-05
1.22892e-05
-1.58682e-05
1.7288e-05
6.08348e-05
-8.05091e-05
-2.18448e-06
1.50827e-05
-1.28982e-05
1.76413e-05
-2.63602e-05
-0.000192248
0.000204075
-0.000140221
0.000112717
2.75038e-05
2.62894e-05
-3.28699e-05
-6.64771e-06
2.32984e-05
-1.66508e-05
5.28968e-06
-3.76599e-06
-6.71218e-05
3.23893e-05
-1.42137e-05
7.36795e-07
1.34769e-05
-1.89831e-05
-1.046e-05
2.9443e-05
-5.29679e-06
5.8392e-06
1.07512e-05
-1.08468e-05
9.57566e-08
-2.32337e-05
2.12094e-05
2.0243e-06
-1.44742e-05
-5.24486e-06
1.9719e-05
6.70954e-06
-3.85394e-06
-2.85565e-06
-5.01988e-06
1.33196e-05
-8.29978e-06
2.5291e-08
-1.48339e-05
1.48085e-05
1.72231e-05
1.54142e-06
-1.87646e-05
-1.58677e-05
2.53662e-06
1.33311e-05
-1.38164e-05
2.37395e-05
-9.923e-06
1.50846e-06
1.08696e-05
-1.23779e-05
1.84238e-05
9.29908e-05
-0.000111414
-7.08007e-05
0.000111259
-4.0458e-05
-2.56862e-05
1.71915e-05
8.49487e-06
-5.62328e-06
-7.1735e-06
1.27967e-05
8.19415e-06
-1.0027e-05
1.83282e-06
9.78757e-06
-7.29874e-06
-2.48878e-06
3.40658e-05
1.01212e-05
1.12763e-06
-1.44358e-05
1.33081e-05
-0.000207446
0.000165271
4.21742e-05
1.98815e-05
-1.18074e-05
-8.07417e-06
-4.35155e-06
9.70697e-05
-7.09182e-06
5.93572e-06
1.1562e-06
1.76956e-05
3.47923e-06
-2.11747e-05
7.42975e-07
-6.4204e-06
1.65043e-06
-4.55401e-06
2.90341e-06
1.83161e-05
-9.11969e-06
-9.19636e-06
9.55848e-05
7.69499e-05
-0.000172535
-3.78844e-06
-5.86026e-07
4.37451e-06
-0.000139692
8.06966e-05
5.89982e-05
7.72948e-07
-4.56137e-06
-1.54577e-05
1.88066e-05
-3.34893e-06
3.90521e-05
6.90357e-05
-0.000108087
-1.73962e-05
9.10635e-06
8.28985e-06
3.693e-06
1.38166e-05
-1.75096e-05
-2.21148e-05
1.25894e-05
9.52526e-06
-7.37886e-06
-2.53839e-06
-2.90795e-05
6.009e-05
-3.10101e-05
0.000321774
-0.000198125
-0.000123651
-1.98813e-06
-8.9998e-06
1.09873e-05
-9.05425e-05
-0.000186813
0.000277354
-2.34087e-05
3.60428e-05
-1.26345e-05
9.28207e-06
-6.58465e-05
2.09144e-05
-1.81744e-05
-2.73992e-06
-6.26629e-06
-1.84567e-06
-3.91138e-06
-1.68455e-05
2.07569e-05
-1.76305e-06
7.05839e-06
-5.29535e-06
1.52487e-05
-4.47266e-06
-1.47395e-05
1.43583e-05
-3.30738e-05
9.65852e-05
-6.35125e-05
-1.62439e-05
4.91917e-07
-2.20266e-05
2.8467e-05
-6.44032e-06
-5.20952e-08
9.98106e-07
-9.46014e-07
-2.76551e-05
2.62016e-05
1.45339e-06
-8.9324e-05
0.000184902
2.18542e-06
-5.66195e-06
3.47647e-06
-3.12379e-05
6.25862e-05
-1.99148e-05
7.22705e-06
1.26877e-05
-1.30905e-05
2.1059e-05
-7.96851e-06
2.12206e-06
1.02282e-05
-1.23504e-05
1.67022e-05
-1.66769e-05
-1.33162e-05
1.61445e-05
-2.82831e-06
-0.000143947
0.000118111
2.58355e-05
2.39505e-05
0.000194095
4.2148e-06
6.50606e-06
-1.07209e-05
5.48116e-06
-3.83085e-06
-2.9379e-05
1.05626e-05
1.88164e-05
2.13908e-05
2.3875e-05
-4.52664e-05
0.000206296
-0.000215381
1.8249e-05
4.91983e-07
-1.87014e-06
1.13348e-06
7.36678e-07
-3.13727e-06
7.23986e-06
-4.10247e-06
0.000242928
-9.32139e-05
-0.000149717
-0.00010391
7.86398e-05
2.52709e-05
4.7338e-06
-6.21016e-06
1.47634e-06
-0.000103951
-3.627e-05
-8.23174e-05
-5.7372e-05
-1.17387e-05
1.15479e-05
1.8515e-05
-2.77962e-06
7.93966e-06
-1.87218e-05
1.07822e-05
-9.90588e-05
6.59844e-05
-0.00012462
9.157e-05
3.30495e-05
1.3282e-06
-3.84142e-06
2.51321e-06
-9.02185e-05
0.000108643
2.76301e-05
6.65181e-05
-9.41457e-05
-6.18382e-06
5.68765e-05
-5.06924e-05
-2.22256e-05
1.93071e-05
2.91861e-06
-6.17381e-06
5.80922e-06
1.45693e-07
3.02231e-08
4.17527e-05
-4.79364e-05
5.44208e-07
-2.23755e-05
2.18313e-05
-1.25278e-05
-4.29191e-06
1.68196e-05
3.12293e-06
1.81619e-05
5.39202e-06
1.1662e-05
-1.70542e-05
-1.45171e-05
1.17858e-05
2.73146e-06
-2.25569e-05
2.3101e-05
-1.49704e-05
1.27859e-05
1.2653e-05
2.30617e-05
-3.57149e-05
0.000140196
-5.53989e-05
-8.47972e-05
-5.99633e-06
4.9347e-06
1.06144e-06
0.000267823
3.79735e-05
-0.000305797
-2.00879e-05
2.85575e-05
-8.46955e-06
-2.19665e-06
-3.71306e-06
9.17996e-06
2.26331e-05
-3.18131e-05
0.000139207
-3.15667e-05
-0.000107637
-3.12303e-05
-1.68963e-05
-2.55587e-06
1.94533e-05
-6.44324e-06
4.46881e-07
1.92684e-05
-2.59164e-05
-6.6933e-06
-4.31862e-05
4.98774e-05
-0.000107268
3.64669e-05
6.58954e-06
-3.98983e-06
-2.59976e-06
-7.89847e-05
4.30235e-05
-1.66437e-05
6.64411e-06
9.99959e-06
-5.44724e-06
9.66203e-06
-6.64136e-07
-6.20559e-07
-1.33684e-05
3.92717e-06
9.44109e-06
-6.10571e-05
3.19778e-05
0.000194375
-0.000153638
-4.07371e-05
0.000271472
-0.000137828
-0.000133647
0.000125463
-0.000120342
-5.11889e-06
9.97982e-05
-7.84292e-05
-2.13686e-05
1.0786e-05
-2.59182e-06
2.9946e-09
-3.00336e-09
6.88253e-06
6.814e-06
-1.36965e-05
3.45751e-06
-2.12926e-06
1.89327e-05
1.19671e-05
-3.08999e-05
0.000115296
2.39106e-05
7.7264e-05
-0.000143246
2.07552e-05
-4.53069e-06
-1.62246e-05
0.000111004
1.44614e-05
3.82374e-05
-2.55846e-05
-1.28181e-06
-1.91723e-05
-0.000101525
5.76771e-05
2.5664e-05
3.33239e-06
-2.89965e-05
3.74452e-06
6.25426e-06
2.01842e-05
-1.17995e-05
-8.38482e-06
6.3095e-05
-5.28895e-05
-1.02049e-05
-3.07564e-06
1.38268e-05
2.96235e-07
-1.34642e-07
-1.61607e-07
-1.87195e-05
9.98933e-06
8.73008e-06
-9.10766e-06
8.65684e-06
4.50834e-07
5.03386e-06
-4.62825e-06
-4.05658e-07
-2.82865e-05
9.30341e-06
-1.23574e-06
2.0115e-06
-7.75654e-07
0.000119612
-0.000208521
-9.59512e-06
1.86085e-05
-9.0134e-06
2.08729e-07
8.74985e-08
-6.77227e-06
3.49474e-06
3.27755e-06
-9.16115e-07
-5.37836e-06
1.73374e-05
-1.05347e-05
-6.80282e-06
-1.25811e-05
1.68918e-05
5.01474e-05
0.000192779
-1.13144e-05
-1.32575e-05
-3.53037e-05
-1.8677e-05
5.39789e-05
0.0002096
-3.30443e-06
3.46058e-05
5.85465e-05
-9.31523e-05
-3.75406e-05
-2.3678e-05
6.12179e-05
1.98737e-05
9.98364e-05
-0.000119716
1.62273e-05
4.68719e-06
-5.98084e-06
-3.89427e-06
9.87513e-06
1.15823e-05
-1.59376e-05
4.35548e-06
0.000103032
-3.6251e-05
-6.67794e-05
-5.66658e-06
6.36008e-06
-6.93509e-07
-6.53977e-06
-1.03586e-05
1.68984e-05
3.99188e-05
-1.8528e-05
-7.83263e-05
-2.55839e-05
-1.31222e-05
-1.32586e-06
1.44481e-05
-7.58077e-06
1.29727e-05
-1.24707e-05
1.63549e-06
1.08353e-05
-1.16793e-05
1.04554e-05
1.22407e-06
-1.48853e-06
7.22903e-07
7.65414e-07
9.48599e-05
6.3162e-05
-0.000158023
1.83976e-06
-3.15592e-06
1.31618e-06
-3.38002e-06
-3.39389e-05
3.73191e-05
1.88268e-05
-3.79446e-06
-1.50324e-05
1.24227e-05
-1.649e-05
4.06729e-06
-0.000136189
3.22382e-05
-1.68427e-05
-1.85514e-05
3.53942e-05
2.21831e-05
-2.66286e-05
4.44543e-06
6.55514e-05
-0.000154877
5.08524e-07
-1.99707e-06
-1.63844e-05
-9.30152e-06
2.58146e-05
-4.78989e-05
2.20845e-05
-7.36845e-06
-2.08575e-05
2.8226e-05
0.000178257
6.03659e-05
2.72957e-06
5.71238e-06
-5.95598e-06
2.4357e-07
1.12676e-05
-1.72885e-05
6.02094e-06
9.94575e-06
-1.95952e-05
9.64945e-06
-8.60482e-06
-2.07742e-05
-0.000129863
5.15374e-05
-9.10857e-06
9.80312e-06
-6.94538e-07
8.28158e-07
-1.92305e-05
2.71218e-05
0.000113073
1.45953e-06
-7.12611e-06
-0.000209
0.000319639
-0.00011064
9.39673e-05
-6.63362e-05
-2.66879e-06
4.91847e-06
-2.24967e-06
-2.21843e-06
1.3486e-05
-1.40074e-06
-1.2752e-05
1.41528e-05
-2.0371e-05
1.01537e-05
1.02173e-05
9.73267e-06
-1.71396e-05
7.40695e-06
-1.25736e-05
6.21647e-06
1.16048e-05
-3.50137e-05
6.37046e-06
1.46629e-05
-2.10333e-05
5.15483e-05
-5.82429e-05
3.42127e-06
1.73339e-05
3.1614e-05
-5.94998e-06
1.71642e-05
-1.18105e-05
2.37994e-05
-5.91043e-05
4.0137e-06
-2.6735e-06
1.0962e-05
-5.81667e-06
-2.65e-05
1.57452e-05
1.07548e-05
-1.96846e-05
4.22685e-06
8.19137e-06
9.14602e-06
-2.44522e-05
1.06359e-05
-9.81644e-07
2.82145e-06
9.01428e-05
-0.000130913
4.07724e-05
-5.43925e-07
-3.38192e-06
3.9259e-06
2.30214e-05
-7.51964e-06
-1.55006e-05
1.3439e-05
1.10018e-06
-1.45389e-05
8.22517e-06
7.3371e-06
4.60816e-06
-1.19453e-05
-8.33467e-06
-3.3442e-06
6.15946e-06
1.25966e-05
-1.87564e-05
4.85958e-07
4.04783e-06
-4.53376e-06
-4.74324e-06
-2.40999e-06
7.15321e-06
-1.05476e-05
-7.95666e-06
1.85044e-05
8.55747e-06
-2.20162e-05
-1.02859e-05
-7.93628e-06
1.82221e-05
0.000197686
-8.44049e-05
-0.00011328
9.60429e-06
-9.76953e-06
1.68294e-05
1.09404e-05
-2.77697e-05
3.82914e-05
-1.10134e-05
-2.72781e-05
3.35604e-05
-7.11016e-05
1.89927e-06
1.55824e-06
-9.3733e-05
-7.75239e-05
-1.48713e-05
-7.0716e-05
8.55861e-05
3.9076e-05
-0.000162493
0.000123417
-2.75856e-06
-3.15578e-05
-6.45836e-05
9.6142e-05
-1.84564e-05
1.35199e-05
4.93639e-06
2.21224e-05
-9.3819e-06
-1.27403e-05
8.06982e-07
1.06972e-05
-1.15041e-05
-9.34564e-05
-4.27328e-05
-1.43527e-05
1.51597e-05
-1.73218e-06
6.46598e-06
3.10863e-05
-1.67328e-05
-1.43535e-05
1.39033e-05
-3.39038e-05
-2.70448e-06
5.25971e-05
-4.98925e-05
7.58827e-06
-4.16159e-06
7.17297e-06
-3.01144e-06
1.75993e-05
-1.31889e-05
-4.41041e-06
-0.000122742
0.000161818
-7.81519e-06
1.42718e-05
-2.005e-05
-5.7789e-06
2.5829e-05
-3.06364e-05
9.71548e-05
-1.63818e-05
2.04901e-06
1.43329e-05
-9.98943e-05
0.000119766
-1.58084e-05
1.58078e-05
-1.22372e-05
1.83966e-05
-3.0759e-05
9.91617e-05
-6.84036e-05
-1.52632e-06
1.64498e-05
-1.49234e-05
2.22382e-06
6.04708e-06
-8.27088e-06
-2.35937e-06
1.41662e-06
9.42793e-07
-8.63058e-06
-3.77324e-06
1.24038e-05
-0.000224494
0.000101677
0.000122817
1.35557e-05
-8.30534e-06
-5.25047e-06
-1.25666e-06
-1.01657e-05
2.69951e-05
-0.00011564
0.000181191
1.93083e-05
-1.16191e-05
-7.68943e-06
-2.50409e-06
-1.33636e-05
9.74264e-06
1.238e-05
-2.68692e-06
-3.01395e-06
5.70083e-06
8.68204e-06
9.67757e-06
-1.83594e-05
1.31852e-05
1.02589e-05
-2.34442e-05
1.25417e-05
6.28497e-06
-2.73034e-05
8.25176e-06
-9.86839e-05
0.000193542
5.27328e-05
-3.0762e-05
-2.19716e-05
-4.35311e-05
0.00010749
-6.39601e-05
-1.01661e-05
-1.02048e-05
-2.80487e-06
2.50241e-05
-2.68885e-06
-2.23353e-05
2.12478e-05
-9.58681e-05
7.46216e-05
-1.7582e-05
5.65629e-05
-3.89807e-05
0.000184734
-0.000133497
-5.12366e-05
1.3539e-05
2.81142e-06
-1.63504e-05
1.3134e-05
-2.99767e-05
-0.000106947
0.000100711
6.23618e-06
-7.33142e-06
2.58814e-06
-2.18015e-05
5.61412e-06
1.61873e-05
-1.53157e-05
1.39149e-05
9.2036e-05
-3.67672e-05
-5.52686e-05
-5.58978e-06
1.75894e-05
-1.19994e-05
1.35491e-06
-1.36158e-05
1.22609e-05
-5.80632e-07
-1.20904e-05
1.26709e-05
9.69652e-06
7.79954e-05
-8.76919e-05
-2.8579e-07
-6.6409e-06
6.92668e-06
8.202e-06
-1.47418e-05
-6.57923e-05
0.00014168
-7.58856e-05
-5.11197e-08
4.99104e-07
-4.47989e-07
-6.22171e-05
6.92461e-05
-7.03126e-06
-1.04151e-05
-1.16997e-05
-2.69541e-07
3.3391e-07
-6.44075e-08
-9.73653e-06
2.86693e-05
1.76553e-05
-1.26556e-05
-0.000259005
0.000168463
3.09779e-06
2.15638e-05
-2.46617e-05
-6.4581e-06
5.47427e-06
9.83884e-07
2.84342e-05
-1.73088e-05
-1.11254e-05
4.27171e-05
-0.000108508
-7.07419e-06
3.08789e-05
-2.38047e-05
1.47002e-05
4.6081e-06
4.62435e-05
-2.04288e-05
-6.36273e-05
6.90372e-05
-5.40872e-06
-1.67821e-05
-5.45219e-06
2.22341e-05
9.29805e-06
-1.63086e-05
7.01061e-06
7.05164e-06
-2.28705e-06
-4.76456e-06
2.60458e-05
-2.29481e-05
0.000156211
-7.98614e-05
-7.6349e-05
2.91133e-05
-1.73914e-05
-1.17219e-05
-2.2667e-06
-1.27036e-05
-3.10163e-06
1.71675e-05
-1.40659e-05
-1.85645e-05
-2.2456e-05
4.10207e-05
-5.07218e-06
2.09492e-05
-1.58768e-05
2.12038e-05
-2.20389e-05
8.35195e-07
-1.27425e-05
1.96251e-05
-9.90324e-06
-2.3982e-06
1.23013e-05
-6.298e-06
1.62438e-05
8.40005e-07
1.63955e-05
-1.72354e-05
5.00025e-05
2.35724e-05
-7.35743e-05
1.07763e-05
-1.93391e-05
0.000145179
-0.000155863
1.06841e-05
-2.84365e-07
1.48016e-08
6.57246e-05
0.000126929
-4.50287e-06
-9.77255e-06
1.67189e-07
-7.1967e-06
7.02953e-06
-3.31278e-05
-4.17918e-05
7.49191e-05
1.23363e-05
-1.02142e-05
-9.54252e-06
-1.36912e-05
-4.33351e-05
4.34791e-05
-1.44015e-07
1.18109e-05
-3.33936e-05
2.15828e-05
4.07188e-06
7.70997e-06
-1.17818e-05
-1.57776e-06
6.44812e-06
-4.87034e-06
-1.85724e-05
2.4382e-05
-5.80969e-06
1.12858e-05
-5.73743e-05
4.60874e-05
-1.40828e-05
1.88482e-05
-4.7655e-06
4.02199e-05
-3.43473e-05
-5.87262e-06
-6.5916e-05
0.000333739
9.36553e-06
2.89259e-05
-1.33869e-06
2.29024e-05
5.67427e-06
-7.43732e-06
-6.41794e-06
4.84018e-06
-1.02424e-05
2.40405e-06
7.83823e-06
-4.64919e-05
-3.55847e-05
8.20783e-05
9.8665e-05
-0.000207169
0.000108505
-8.75835e-06
1.92933e-05
-1.05349e-05
0.000135436
-5.01589e-05
-8.52754e-05
1.84346e-05
-1.51268e-05
-3.30779e-06
-5.22343e-06
1.88647e-06
3.9197e-05
-9.07936e-05
1.62689e-05
-6.53623e-06
1.48066e-05
-1.22012e-05
-2.60525e-06
1.43118e-06
1.25488e-05
-1.39799e-05
-1.19159e-05
2.98152e-05
-1.78994e-05
0.000102057
-8.08085e-05
-2.05612e-05
4.01205e-05
-1.95593e-05
-4.40346e-05
3.79729e-05
1.48152e-05
-3.33666e-05
2.80744e-05
1.21456e-05
-1.34326e-05
-9.35139e-05
1.45362e-06
-1.83164e-05
1.68628e-05
1.63232e-06
-1.76547e-05
-4.35249e-05
2.29637e-05
-1.3135e-05
-4.60606e-06
1.7741e-05
0.000151604
-4.35358e-06
-0.00014725
-6.78977e-05
-6.25046e-05
0.000130405
1.52677e-05
-1.15747e-05
-1.92564e-05
-2.54543e-06
-6.87343e-06
-5.83627e-07
9.96899e-06
1.91443e-05
2.90855e-06
1.48397e-05
1.62465e-05
-2.0038e-05
1.72282e-05
2.80989e-06
-1.12826e-07
-8.28359e-06
6.41719e-06
1.86643e-06
-1.40151e-05
2.88303e-05
-1.5749e-07
-2.22181e-05
-3.05923e-05
-6.84653e-05
3.61806e-05
-5.37625e-05
-2.10327e-07
4.71772e-06
-4.50736e-06
-1.89378e-05
5.14105e-06
6.45712e-05
0.00013312
-1.28503e-05
-5.86921e-06
1.50251e-05
-1.10946e-05
-3.93039e-06
-5.88318e-06
1.08062e-06
4.80253e-06
-2.70729e-06
2.223e-05
-1.95228e-05
-2.80964e-05
1.17122e-05
1.44312e-05
3.16809e-06
1.01484e-05
8.40954e-06
-0.000137198
0.000100321
3.68769e-05
2.04444e-05
3.22882e-05
4.89151e-06
-4.40556e-06
-4.58282e-05
-8.40347e-05
6.52741e-05
-5.39888e-05
-3.15951e-05
8.1598e-05
-3.59338e-06
-7.27375e-06
1.08672e-05
-5.00732e-05
7.53472e-05
-2.52738e-05
0.000129605
5.51292e-05
0.000100812
-1.00287e-05
-1.11592e-05
1.56299e-05
4.34571e-06
-1.99755e-05
1.15258e-06
1.93021e-05
-2.04546e-05
6.73173e-06
-1.63269e-05
2.25289e-05
-1.15771e-05
-1.09518e-05
1.02261e-05
-1.89845e-05
-6.09016e-05
-1.31582e-06
-9.44335e-06
9.56077e-06
-1.17366e-07
-7.85287e-05
8.82248e-05
-1.77022e-06
5.69495e-06
-3.92475e-06
-1.39855e-06
-3.02453e-06
4.42312e-06
-2.71936e-06
-6.70936e-06
5.10778e-05
-5.5646e-05
4.56679e-06
-1.3761e-07
-1.03722e-05
1.05095e-05
4.17745e-05
6.12582e-05
3.27724e-05
-3.42061e-06
-2.93512e-05
1.56177e-05
-6.31958e-06
2.20196e-05
-4.05838e-05
-1.52702e-05
1.5967e-05
-6.96825e-07
4.39277e-07
-4.21321e-06
3.77397e-06
5.67288e-06
-1.1005e-06
-4.57232e-06
-1.78304e-05
1.65486e-05
9.13388e-05
4.69592e-06
-9.60341e-05
-3.96262e-06
-1.60754e-05
-3.76018e-06
2.97439e-05
-2.59838e-05
3.43134e-06
2.26144e-05
-1.97241e-06
-5.44634e-06
7.41887e-06
8.96197e-08
-3.11575e-06
3.02588e-06
4.91182e-08
-3.15891e-08
-1.75401e-08
3.11599e-05
-3.49201e-05
-1.50993e-06
-7.49629e-06
9.0063e-06
-1.85666e-05
-3.76799e-07
1.89433e-05
-5.61293e-05
4.44141e-05
1.17152e-05
4.08448e-05
-6.64052e-06
-3.42056e-05
1.61179e-05
-1.12267e-05
-4.89107e-06
-6.86151e-05
0.00021077
-0.000142157
0.00012514
2.64636e-05
1.25962e-05
-8.52436e-06
-6.99659e-07
-8.39002e-06
1.81011e-05
-1.01614e-05
7.06352e-07
8.81984e-06
5.33252e-05
4.64731e-05
-3.71022e-06
6.93504e-06
-3.22479e-06
-1.61071e-06
-7.54533e-06
9.15607e-06
-1.96979e-05
1.65963e-05
3.51772e-06
-6.38408e-06
2.86631e-06
3.98746e-05
-1.49896e-05
-2.48851e-05
-2.76344e-05
4.78371e-06
2.28507e-05
1.21233e-05
-1.21323e-05
8.90428e-09
-0.000124424
9.59005e-05
2.85244e-05
1.86998e-05
-6.31404e-06
-1.23858e-05
1.89614e-06
1.38558e-05
-1.57519e-05
6.64651e-06
-3.12879e-06
1.12485e-05
-5.27248e-06
-0.000102845
0.000131295
-2.845e-05
-0.000214334
9.15195e-05
0.000122816
-1.33195e-05
3.41621e-06
2.18961e-05
-1.71308e-05
-4.76529e-06
0.000114738
-9.79165e-05
-1.68216e-05
-3.07679e-05
0.000121408
-9.06401e-05
-3.08912e-06
1.46715e-05
-2.36641e-06
5.03216e-05
-4.79546e-05
-1.26194e-05
1.57041e-05
-3.08473e-06
5.92825e-06
-7.49469e-09
-5.9207e-06
9.9196e-06
1.12323e-05
6.22753e-06
-1.74594e-05
-6.45167e-06
9.4576e-06
-3.00593e-06
0.000202232
3.99358e-06
2.71593e-06
-1.70662e-05
2.85247e-06
-2.95138e-06
6.77619e-06
-3.82478e-06
-5.24677e-06
-1.33195e-05
9.05361e-06
1.93805e-05
-1.45992e-05
-6.69613e-07
1.52687e-05
2.16095e-05
-2.29482e-05
3.28133e-06
-1.51439e-05
1.18626e-05
-1.59055e-05
1.43792e-05
-9.63605e-05
-2.80634e-05
-3.0113e-05
1.57113e-05
1.44019e-05
-1.63791e-05
1.10888e-06
6.76546e-05
-7.9233e-05
1.15773e-05
-1.18303e-05
2.61172e-07
1.15691e-05
3.33834e-05
-9.55788e-06
-2.38255e-05
1.66039e-06
1.38024e-05
-1.54626e-05
-2.94016e-06
1.64792e-05
2.07691e-05
-1.43986e-05
-1.86806e-05
2.94178e-05
-1.07372e-05
7.65549e-06
-9.8057e-06
3.89657e-07
1.17337e-05
-4.69276e-06
1.11988e-05
4.88362e-05
-5.05627e-05
1.72619e-06
-0.000101464
7.64196e-05
2.50453e-05
3.19401e-06
1.07551e-05
-1.39491e-05
-7.97951e-06
3.54007e-06
4.43945e-06
4.65413e-05
-3.64942e-05
-1.0046e-05
7.65554e-06
-8.35531e-06
4.01961e-05
-1.46309e-05
-2.55653e-05
-6.55291e-06
2.84269e-06
7.58292e-06
-1.01945e-05
2.61165e-06
6.28457e-06
-1.09773e-05
-3.78075e-06
-2.53785e-06
-1.32554e-05
2.20388e-05
-8.78333e-06
-9.57421e-06
-5.99529e-06
-1.36283e-06
7.35809e-06
9.17635e-07
-1.57264e-05
1.48088e-05
1.95135e-05
-2.21125e-05
2.59876e-06
-7.39368e-06
6.28275e-06
1.11102e-06
6.54234e-05
-0.000104428
3.90052e-05
8.16296e-06
7.5274e-06
-1.56904e-05
-8.85284e-05
9.88055e-05
-1.02779e-05
9.42987e-06
2.78661e-06
-1.22165e-05
8.53375e-05
-7.31349e-05
-1.22029e-05
1.39717e-06
5.19233e-06
-0.000102553
-0.00011178
-5.64484e-08
-6.70219e-08
-1.9143e-05
1.25035e-05
6.63963e-06
-2.09841e-05
-7.27492e-05
-6.87713e-06
-2.18163e-05
2.86935e-05
-7.98025e-05
4.66748e-05
6.00503e-06
-2.45775e-05
-1.10294e-05
1.95868e-05
-1.26996e-05
-9.87005e-05
7.91628e-05
2.40433e-05
-0.000103205
1.00857e-05
-2.27735e-06
-7.80834e-06
-0.000107525
-2.96721e-05
2.60641e-05
-3.73924e-06
-2.23251e-05
-1.21484e-05
-2.74891e-05
-2.22297e-06
2.97127e-05
-1.30831e-05
-1.51613e-06
2.46999e-05
-5.18666e-06
2.10859e-05
5.23591e-07
5.11538e-06
2.8268e-05
-5.61862e-05
0.000143451
-2.96497e-05
-0.000194845
4.89552e-06
-8.03271e-06
1.67783e-05
-2.41468e-05
-5.19284e-06
-2.77587e-06
7.96873e-06
1.52743e-05
5.26077e-06
6.264e-06
-4.0786e-06
-1.45766e-05
-1.55364e-05
1.7175e-05
-2.24999e-05
5.32493e-06
8.77138e-06
-1.18844e-06
-1.78379e-05
2.84006e-05
-1.16162e-06
5.44572e-07
6.17064e-07
-3.59009e-05
-9.32481e-07
-7.28486e-06
3.12326e-06
2.6942e-05
-1.12305e-05
-1.14832e-05
-8.3021e-06
1.1194e-05
-2.90319e-05
8.63471e-06
-8.92046e-06
0.000178011
0.000143762
1.99016e-06
2.01253e-05
-2.21155e-05
1.69471e-05
1.1496e-05
-2.84431e-05
0.00013545
-4.53067e-05
8.42664e-05
-1.66121e-05
0.000120751
-0.000136903
1.61518e-05
8.20591e-07
-1.3079e-05
1.22583e-05
-9.37618e-05
5.23278e-06
1.69901e-05
1.44452e-06
5.89847e-06
-3.30546e-06
-2.59304e-06
2.47109e-05
7.0516e-05
1.48214e-05
1.99431e-06
-1.57973e-06
-4.14565e-07
1.41187e-05
2.20255e-05
-3.61423e-05
-0.000316424
0.000245695
7.0716e-05
2.99633e-06
-2.97117e-05
2.67155e-05
-1.42356e-05
1.57584e-05
-1.52288e-06
1.45618e-05
-1.84732e-05
0.000108684
5.77966e-06
-0.000299836
-1.65983e-05
-1.31212e-05
2.23267e-05
-9.20541e-06
-4.81086e-06
1.48395e-05
-1.00287e-05
8.05189e-05
-4.76055e-05
-3.29137e-05
-2.8184e-05
2.51534e-05
3.03054e-06
-0.000234581
0.000118349
0.000116231
1.47846e-06
-1.11233e-05
9.6448e-06
-1.62554e-06
1.57344e-06
2.88612e-05
7.89132e-05
-8.94672e-05
1.05518e-05
-1.40741e-05
1.64506e-05
-2.37655e-06
3.44448e-05
4.44691e-05
0.00011378
-0.000110222
3.5396e-06
-6.98426e-06
-3.38756e-05
4.086e-05
0.000130389
-0.000108832
-2.15571e-05
0.00017387
-9.75386e-05
-7.63305e-05
-2.3248e-05
6.89541e-06
1.63525e-05
-1.59676e-05
1.68077e-05
1.52851e-05
-4.31579e-05
2.28967e-05
2.0261e-05
-8.17381e-05
3.52468e-05
4.47947e-06
2.18514e-06
-6.66465e-06
-2.08056e-05
3.20387e-05
8.74599e-07
-1.34025e-05
1.46697e-05
-1.31367e-05
-1.53297e-06
0.000235806
-0.000139828
-9.59787e-05
-4.08507e-07
1.54336e-05
-1.50251e-05
-0.000112914
-9.63025e-06
0.000122544
2.43026e-05
-1.67893e-05
-7.51346e-06
2.85928e-05
-1.73988e-05
2.41685e-06
4.03127e-06
3.99892e-05
-3.45717e-05
-5.41758e-06
-6.10572e-06
-2.20783e-05
-5.0081e-06
2.1338e-05
6.62862e-06
-2.16413e-06
-4.46452e-06
-9.85413e-05
-2.52203e-05
0.000123774
-3.68446e-06
3.08767e-06
5.96825e-07
-1.21168e-05
5.37589e-05
-4.16403e-05
1.1902e-05
-1.74918e-05
-0.000141167
-9.34141e-05
1.15758e-08
1.00741e-05
1.73141e-06
2.41917e-06
7.11487e-06
2.86159e-05
-6.4211e-05
3.55949e-05
-5.69569e-05
-4.97729e-06
6.19335e-05
-0.000111693
8.09251e-05
2.76664e-05
1.25296e-05
9.82819e-06
6.28986e-06
-1.55767e-05
1.33049e-05
2.27176e-06
-1.62068e-05
1.78392e-05
-0.000125826
2.72845e-05
7.5361e-07
-1.93202e-05
-8.76979e-06
1.55838e-05
-9.03608e-05
5.9769e-05
3.25915e-05
-1.17332e-05
-2.08582e-05
-3.15699e-05
2.51827e-05
-5.41268e-06
1.37355e-05
-8.32277e-06
-1.25416e-07
-1.17047e-05
6.5242e-06
-1.61579e-06
-4.9084e-06
2.42514e-06
-7.61799e-06
-8.38736e-05
4.03403e-05
-8.85085e-05
6.16783e-05
2.68271e-05
1.23029e-05
6.6521e-05
-7.88238e-05
-7.18843e-06
4.39787e-06
2.79056e-06
-3.28255e-05
4.02958e-05
-7.47028e-06
1.65181e-05
-1.49999e-05
-1.51822e-06
-0.00011349
0.000168281
-5.4792e-05
4.85157e-06
1.67263e-06
0.000104029
-1.38694e-05
-9.01618e-05
1.87818e-05
-9.03887e-06
6.66323e-05
-8.26133e-05
1.59784e-05
-2.28472e-05
-2.03108e-05
1.56183e-05
-1.77671e-05
2.14885e-06
-3.57785e-06
1.38247e-05
-1.02467e-05
-3.6961e-05
-1.07686e-05
1.40499e-05
1.71991e-05
-7.20984e-06
7.88006e-06
9.31907e-06
-1.55161e-05
1.71903e-07
1.53442e-05
-1.38709e-05
2.10139e-05
-7.1429e-06
1.86453e-06
-1.63388e-05
1.76804e-05
-1.81555e-05
4.75063e-07
-8.52542e-07
-1.76898e-05
1.85424e-05
6.28125e-06
-5.53826e-06
-4.19971e-06
-1.42218e-05
1.84215e-05
1.69972e-06
4.92886e-06
7.99971e-06
-7.33382e-06
-2.78575e-05
8.23998e-06
1.96174e-05
-4.49145e-06
-8.877e-06
-4.85106e-06
1.82305e-05
-1.11373e-05
-7.09321e-06
5.51892e-06
1.3263e-05
5.04307e-05
3.00881e-05
-2.91297e-06
1.81873e-05
-2.33372e-05
3.74362e-05
-1.40991e-05
1.28455e-05
4.51171e-05
-1.60423e-05
2.25499e-05
-6.50762e-06
-9.41517e-05
6.3393e-05
-1.30587e-05
1.35155e-06
1.17072e-05
1.27406e-05
2.88816e-07
6.15188e-06
-6.44069e-06
-1.27033e-06
-1.38736e-05
-1.19019e-06
-1.39063e-05
-2.21307e-05
2.32833e-05
3.93206e-06
-7.24359e-06
3.31154e-06
9.46698e-06
-3.39289e-06
-6.07404e-06
6.75037e-06
-8.30689e-06
1.55655e-06
-3.92015e-06
6.84809e-06
-2.92792e-06
8.79449e-05
-2.13142e-05
7.85612e-06
-1.88856e-05
4.08946e-06
9.44388e-07
-1.76201e-05
1.75559e-05
6.40987e-08
-1.4031e-05
5.40038e-06
1.07588e-05
-1.3952e-05
3.19302e-06
2.53355e-06
4.12273e-06
-6.65613e-06
0.000156565
-1.13862e-05
-0.000105217
0.000207664
-1.11164e-05
8.83904e-06
0.000174231
-0.000110468
-6.37625e-05
3.3963e-05
-0.000156703
7.32234e-05
3.54487e-05
-0.000108671
-2.9848e-05
2.27738e-05
6.96241e-05
-5.19118e-05
-1.77134e-05
-4.41057e-05
7.87118e-05
4.29377e-06
6.95485e-06
6.14263e-07
5.92139e-06
-6.53556e-06
1.83673e-05
-6.86923e-07
-0.000197683
-0.000102163
4.17576e-06
-0.000102835
9.86596e-05
-1.59377e-05
1.60898e-05
-1.52225e-07
1.18261e-05
-6.128e-06
-5.697e-06
6.99934e-06
3.18128e-05
-3.88129e-05
1.18392e-05
-1.19644e-05
-7.23478e-06
1.07675e-05
-3.53279e-06
-1.80113e-05
1.38115e-05
-2.05021e-05
1.77948e-05
4.53921e-06
1.0674e-05
-1.52131e-05
8.30729e-06
-3.72836e-06
-4.57891e-06
5.22902e-06
-2.32449e-06
-5.34043e-06
-7.9545e-06
1.32949e-05
6.31223e-06
-1.24091e-05
6.0969e-06
4.03858e-05
-7.12601e-05
3.08748e-05
-9.29511e-07
3.60189e-05