/*--------------------------------*- C++ -*----------------------------------*\
| =========                 |                                                 |
| \\      /  F ield         | OpenFOAM: The Open Source CFD Toolbox           |
|  \\    /   O peration     | Version:  v2012                                 |
|   \\  /    A nd           | Website:  www.openfoam.com                      |
|    \\/     M anipulation  |                                                 |
\*---------------------------------------------------------------------------*/
FoamFile
{
    version     2.0;
    format      ascii;
    class       volVectorField;
    location    "400";
    object      ddtCorrDdt0(U);
}
// * * * * * * * * * * * * * * * * * * * * * * * * * * * * * * * * * * * * * //

dimensions      [0 1 -2 0 0 0 0];


internalField   nonuniform List<vector> 
53008
(
(-0.000221359 -3.2681e-05 -1.18347e-22)
(0.00182569 0.00126703 2.51779e-22)
(-0.000112878 0.000119767 -7.76409e-23)
(-0.000882933 -2.05186e-06 -9.76769e-23)
(8.78881e-05 1.8725e-05 -1.74694e-22)
(-0.00110348 0.000938684 1.4562e-23)
(-0.00038717 -7.56598e-05 -1.54809e-23)
(-0.000220259 -3.53294e-05 1.3387e-22)
(-0.000299058 6.77683e-05 -2.02826e-23)
(-9.71755e-05 0.000101938 -7.13125e-24)
(-0.00112714 -0.0016741 7.85767e-24)
(-0.000509957 1.71451e-05 7.57993e-23)
(-0.00647089 -0.00167444 -2.68739e-22)
(-0.00306877 -0.00483633 -4.61469e-23)
(-8.79053e-05 0.000110324 0)
(-3.571e-05 -3.08494e-05 1.86409e-22)
(-0.000142191 -0.000164501 -1.59336e-22)
(-3.67177e-05 -3.16781e-05 -3.08306e-22)
(0.00220098 0.00277602 0)
(-3.84158e-05 -0.000297725 2.33549e-22)
(-0.000129753 -0.000113853 1.34932e-22)
(-0.000235126 0.000295972 -3.71097e-23)
(-2.64636e-05 1.52276e-05 1.67637e-24)
(-0.000380032 -7.05524e-05 0)
(-0.000119408 -9.3015e-05 -1.23e-22)
(-0.00111336 0.000193053 9.29311e-23)
(-0.00320551 -0.00496596 0)
(-0.000326473 7.45992e-05 -1.1188e-23)
(-0.00392176 -0.00305297 1.64199e-22)
(-0.00400887 -0.000699997 3.43157e-22)
(0.00424366 -0.000508857 -4.13695e-22)
(-0.0073597 -0.00272978 0)
(0.00461149 0.000212144 0)
(-0.000127806 -4.21276e-05 6.94747e-23)
(-1.79669e-05 1.00524e-06 5.17233e-23)
(-0.000235596 0.000144908 -5.13636e-23)
(-0.000173264 1.2743e-05 2.15701e-23)
(-9.31923e-08 5.14338e-07 4.34171e-24)
(-0.000362238 -0.00012489 1.63408e-23)
(-0.000139852 -4.18897e-05 0)
(-0.000171279 1.09885e-05 -1.52492e-23)
(0.00332091 0.00202316 2.08883e-22)
(-0.000966256 -0.0018271 -4.96222e-23)
(-0.000249289 0.00250598 0)
(-3.70695e-05 -0.000305766 -1.20267e-22)
(-4.80169e-05 -3.54364e-05 -1.27821e-22)
(-2.26217e-05 -4.2482e-05 -2.98909e-22)
(-2.19716e-05 -0.00018361 1.66183e-22)
(-0.002635 -0.000174369 -5.28629e-23)
(-2.61032e-05 6.89302e-06 1.56253e-23)
(5.86114e-07 -2.0075e-06 0)
(-8.03618e-05 0.000207229 -1.45206e-22)
(-0.000198887 -8.01779e-05 -2.16437e-22)
(-2.49227e-05 3.58218e-05 -2.27105e-23)
(6.81952e-05 -0.00095239 0)
(0.00195136 0.00273123 9.63976e-24)
(-4.64471e-05 -0.000285 0)
(-2.31951e-05 -4.59154e-06 -2.88495e-23)
(0.000880306 -0.00529337 -3.56162e-23)
(-0.000406231 -0.000684044 -2.13894e-22)
(-0.000110684 -5.27826e-05 -1.43739e-22)
(-0.000210659 -2.11493e-05 1.71618e-23)
(-0.00347544 -0.00107451 -2.21606e-23)
(-0.00775293 -0.000629804 -8.94132e-22)
(-0.000746124 0.000276513 -4.87001e-23)
(-5.11606e-05 7.79238e-05 2.03829e-23)
(-0.00390188 -0.000666677 -4.11325e-22)
(-2.24217e-05 -4.07577e-05 1.22875e-22)
(-2.10317e-05 -1.87406e-06 -1.24008e-22)
(-5.34267e-05 -4.17136e-05 -1.0412e-22)
(-0.000422394 0.000293238 -1.41293e-22)
(-1.53846e-05 -1.20927e-05 1.14734e-22)
(-2.5502e-05 0.000156116 0)
(0.00454319 0.000254495 0)
(-0.00110664 0.000322724 -1.74316e-23)
(-1.84058e-05 4.46334e-07 0)
(-1.38846e-08 4.95974e-06 0)
(-0.0012103 0.00100949 2.22288e-23)
(-2.88174e-05 -2.53734e-05 0)
(-0.000215368 0.000262399 0)
(-0.000978007 0.000946836 -1.12572e-23)
(-0.00632224 -0.00170502 0)
(0.000608433 -0.00291239 -6.13689e-23)
(-0.000915736 0.000134685 -9.2001e-23)
(-0.000247984 -3.2065e-05 2.85266e-24)
(-5.49127e-05 -4.26173e-05 -1.03133e-22)
(-0.000376068 0.000422841 -1.99885e-22)
(-0.000293579 6.6601e-05 0)
(-5.21996e-05 7.98627e-05 -4.42875e-23)
(9.01957e-05 -0.000722993 2.60565e-22)
(-0.000372289 0.000286017 3.67204e-23)
(-0.0023071 0.000119435 -3.61172e-22)
(-0.00634876 -0.00176567 0)
(-0.000536504 0.000596182 4.00109e-23)
(0.00158795 0.00190105 -2.40704e-22)
(-0.000426969 -0.00246332 -1.29681e-22)
(-0.00445822 -0.00401457 1.10536e-24)
(-0.000110983 0.000120349 7.09934e-23)
(-0.00310106 -0.000312543 -1.76427e-22)
(-0.00369501 -0.00101816 1.32443e-23)
(-4.57145e-05 -0.000293359 0)
(-0.000138276 -4.26903e-05 -3.7294e-23)
(-0.00119695 0.000875251 -4.59856e-24)
(-0.000332593 7.23308e-05 9.94099e-24)
(-0.00022957 -3.1921e-05 0)
(-0.00134525 -0.0015624 2.51091e-23)
(-0.000615745 -0.00116146 -4.64969e-24)
(-0.000230549 0.000144355 -9.21927e-23)
(-0.00153631 -0.00103144 -1.60434e-24)
(-1.46868e-05 -1.14382e-05 -1.27722e-22)
(-0.000740788 -0.000350729 1.49094e-23)
(-0.0021318 0.000796385 0)
(-7.08498e-08 4.41043e-06 0)
(0.0014387 0.00177419 -2.06257e-22)
(-0.00499154 -0.00439987 0)
(-3.88594e-06 -8.14322e-07 2.01017e-22)
(-0.000105614 -0.000180436 -1.87213e-22)
(-2.89929e-05 -3.2374e-05 -1.11195e-22)
(-0.00265763 -0.000361963 0)
(-0.000307246 0.000282337 2.85083e-22)
(3.68694e-05 5.09298e-05 -1.44661e-22)
(-2.50996e-05 0.000153668 -6.43581e-23)
(-0.000136712 -1.63561e-05 1.86765e-23)
(-0.000379125 0.00102002 3.25883e-22)
(-0.000934825 0.00101899 3.14145e-23)
(-2.54174e-05 6.06929e-05 -1.16383e-22)
(-0.000114496 0.000266249 -1.40166e-22)
(-0.00318702 -0.00108499 3.88492e-22)
(-0.000301787 -0.000520126 2.0699e-22)
(-7.14848e-05 0.000125071 7.27026e-23)
(-0.00727639 -0.00268653 0)
(-9.34276e-05 -2.72762e-05 -2.41722e-23)
(-0.000888109 0.00017156 1.25939e-22)
(-0.00016622 -4.05399e-05 3.14188e-23)
(-2.51004e-05 -2.94706e-05 -7.47947e-23)
(0.000781619 -0.00523044 1.92373e-23)
(-5.62824e-06 0.000104716 -1.37743e-22)
(-0.0065134 -0.00163527 0)
(-7.65544e-05 4.5162e-05 -2.20691e-23)
(-6.60335e-05 5.54525e-06 6.98871e-23)
(-3.76406e-05 -3.72668e-05 0)
(-6.44492e-05 1.05073e-05 0)
(-0.000262549 -3.81723e-05 -5.06058e-24)
(-0.000442726 -0.00539354 2.63651e-24)
(-0.000310744 -0.000535646 -1.47597e-22)
(-0.000125532 9.29688e-05 8.05341e-23)
(-0.000101267 -0.000178989 2.41102e-22)
(-2.31543e-05 -2.27084e-07 -2.09164e-23)
(6.74851e-06 -7.51741e-05 1.57346e-22)
(-0.00011663 -5.31264e-05 4.785e-23)
(-6.01644e-06 4.19502e-05 1.02184e-24)
(-0.00347121 -0.00104345 0)
(0.000229988 3.47111e-06 1.8921e-22)
(-0.000242073 0.000297611 -8.69106e-23)
(-2.92928e-05 2.12379e-05 0)
(-0.000195534 -7.97969e-05 7.30697e-23)
(-0.00118296 -0.00268385 6.36501e-23)
(0.00197824 0.00177766 1.6788e-22)
(-0.000140592 -4.83452e-05 1.3338e-22)
(-0.000403881 -0.00114331 0)
(-5.91942e-05 7.59619e-05 4.69173e-23)
(-2.56829e-05 4.94946e-06 4.45682e-23)
(-3.19576e-05 2.42819e-05 7.86827e-23)
(-0.0022137 0.000167132 3.44648e-22)
(-0.000147078 -5.98786e-05 -1.04938e-22)
(-6.38331e-09 2.75002e-07 -8.2047e-25)
(-5.19659e-05 5.8987e-05 0)
(-0.000199629 -2.56448e-05 -6.13087e-23)
(-2.68274e-05 -3.1086e-07 0)
(-5.19568e-05 0.000173556 9.30026e-23)
(-0.000209303 -1.91941e-05 5.50397e-23)
(-0.00545782 -0.00338936 8.81131e-23)
(0.00066989 0.00111884 7.44911e-23)
(-3.57878e-05 2.54948e-05 0)
(-0.000370942 0.000989888 -3.50013e-22)
(-4.43907e-05 -3.85171e-05 1.33121e-22)
(-0.0002464 -3.48182e-05 0)
(-0.00039388 -0.00238642 3.67462e-23)
(-0.000367296 0.000416314 1.30253e-22)
(-0.000346277 5.33311e-05 -3.0417e-23)
(-0.000135743 -1.71844e-05 -1.73978e-23)
(-0.000144033 -6.02913e-05 9.00414e-23)
(-0.000250548 0.00249099 3.6847e-23)
(-0.00010059 9.35916e-05 9.28233e-23)
(-0.000499603 1.14506e-05 0)
(-0.00761235 -0.00072441 0)
(-0.00318162 -0.00115452 -1.54312e-23)
(0.000566973 0.00101862 -2.96207e-22)
(-6.99988e-05 -0.000889593 0)
(-2.30162e-05 1.21002e-07 0)
(-0.00184962 0.00051754 2.98854e-23)
(-0.00012205 -3.30444e-05 0)
(-0.000513348 0.000414539 4.21794e-23)
(-0.00017096 0.000258361 -3.82231e-22)
(-4.4721e-05 6.97761e-05 0)
(3.27171e-05 -0.000182337 -2.00935e-22)
(-0.000208906 -1.80509e-05 8.67012e-23)
(-2.94418e-05 3.93427e-06 0)
(-1.31295e-05 4.62289e-05 0)
(-5.82982e-05 0.000194302 1.73216e-22)
(-4.76752e-05 0.0003005 0)
(-0.000103005 -2.70332e-05 7.92238e-23)
(-0.000241833 -6.8418e-05 -1.2948e-24)
(-7.69733e-05 3.55436e-05 -1.77218e-24)
(-0.00184695 -0.00194917 0)
(0.00357596 -0.000681246 -3.58827e-22)
(-0.000127766 -0.000176809 -1.87167e-22)
(-1.63055e-05 4.51721e-05 -5.85584e-24)
(-0.000162573 1.44465e-06 1.51922e-23)
(-2.87572e-05 -3.32519e-05 2.04387e-22)
(-0.00060539 -0.00120326 3.64228e-24)
(-0.000137846 -4.37105e-05 -4.57527e-23)
(-0.00465811 0.000534166 3.34239e-22)
(-0.000109845 0.000127664 1.86408e-23)
(-0.00149534 -0.00100024 0)
(-8.08776e-06 4.02183e-05 7.48955e-23)
(-7.13341e-06 0.000100221 1.28686e-22)
(-2.65975e-05 1.31873e-05 -1.57058e-24)
(-7.884e-05 -6.3223e-05 -3.35394e-23)
(-5.25613e-05 0.000104853 0)
(-0.00143482 -0.00385144 -2.56245e-24)
(-1.56612e-05 -1.40226e-05 1.72428e-22)
(0.000313482 -0.0028041 3.17338e-22)
(-1.52519e-05 -1.43236e-05 1.20359e-24)
(-0.000153381 -4.67803e-05 6.19973e-23)
(0.000555882 -0.00198434 1.86702e-22)
(-0.000138049 1.03556e-05 0)
(-0.000313526 -7.05549e-05 4.19797e-24)
(-0.000259947 -1.09985e-05 1.89195e-23)
(-3.7339e-05 -3.61765e-05 0)
(-0.00194945 -0.0012704 0)
(-0.0055365 -0.00477344 0)
(9.17312e-07 -5.68235e-05 -4.71033e-22)
(-0.00736882 -0.00378523 0)
(-0.000336333 0.000439334 0)
(-0.00135629 -0.00155594 -1.43125e-22)
(-1.12613e-05 -0.000157537 3.39782e-22)
(-2.53313e-05 -2.99519e-05 0)
(0.00079418 -2.47265e-05 0)
(-3.40037e-05 -2.76643e-05 -1.17209e-22)
(-9.18443e-05 -2.68232e-05 4.88832e-23)
(-0.000126386 -4.32296e-05 -1.24511e-22)
(-0.000177965 0.00257644 3.8777e-23)
(-0.000118197 -5.33751e-05 0)
(-0.000249721 -8.03861e-05 0)
(-2.07662e-07 4.40584e-06 3.28523e-24)
(-0.000198835 -0.000459954 -1.05055e-23)
(-0.00130736 -0.00383586 0)
(-1.11281e-05 2.50746e-05 -5.35865e-23)
(-0.000383325 -0.000676386 0)
(-0.000126954 -6.67473e-05 1.00259e-22)
(-7.35957e-05 0.000146697 6.07625e-23)
(-7.92998e-05 3.93123e-05 4.13657e-23)
(-5.75528e-05 0.000192819 0)
(-0.000114458 -5.35412e-05 0)
(-0.00336908 -0.00114059 -7.44828e-24)
(-0.000338022 -0.00530608 -3.65987e-24)
(-6.49103e-05 -5.08002e-05 1.85569e-22)
(-8.05312e-05 -7.46212e-05 0)
(-6.56813e-05 -0.000270813 0)
(-0.00110316 0.00047413 0)
(0.000614434 -0.00532491 -7.38142e-23)
(-0.000198238 -2.65876e-05 5.28435e-23)
(-5.70294e-06 -7.06493e-07 2.68542e-22)
(-3.6959e-05 3.1141e-05 6.92948e-25)
(-0.00226723 -0.00448768 -2.5641e-23)
(0.00217818 0.00158244 -1.6385e-22)
(-2.79153e-05 3.02389e-06 7.49509e-24)
(-0.00304627 -0.00123375 0)
(0.000336924 -0.00290778 -1.48334e-22)
(9.95124e-06 -7.06448e-05 -1.4592e-22)
(-0.000164077 -4.11339e-05 -8.07449e-23)
(-6.82786e-05 0.000129114 -1.38987e-22)
(-0.000281417 0.00258776 -1.15747e-22)
(0.00414127 -0.000634944 0)
(-5.85807e-06 -1.54113e-05 3.15206e-22)
(-0.0017715 -0.00195573 -4.3637e-24)
(0.00272946 -0.00148387 -2.91906e-22)
(-5.81957e-06 -0.000866883 2.37656e-22)
(1.53023e-05 -0.000142431 -4.28018e-22)
(-2.66644e-05 1.40337e-05 0)
(-1.35273e-07 6.57535e-07 0)
(-2.71434e-05 -0.000870164 1.35873e-22)
(-0.000475026 -1.80687e-05 4.01391e-25)
(-0.00012417 0.0001017 1.57858e-23)
(-0.000368108 -0.000120596 -3.79473e-23)
(-0.000245474 5.78761e-05 4.07663e-23)
(0.000335442 -0.000398697 0)
(-0.00048627 -1.50806e-05 6.83864e-23)
(-9.94195e-05 9.39133e-05 -3.10069e-23)
(-9.26475e-05 -0.000528593 -9.32928e-23)
(-0.00176722 -0.00324154 -1.71355e-23)
(3.27747e-05 -9.51266e-05 1.94654e-23)
(-0.00741444 -0.00415816 -2.06824e-22)
(-0.000385928 0.000399424 -1.54544e-22)
(-1.85712e-05 4.13741e-07 0)
(-0.000456321 6.97564e-05 9.14016e-23)
(-0.000175974 -0.00267635 -2.95044e-23)
(-0.0031592 -0.00118092 0)
(-3.08266e-05 -0.00017178 1.60841e-22)
(3.12385e-05 -0.000112531 0)
(-0.000101931 -0.000902699 0)
(0.00146643 0.00163736 0)
(0.00364393 -0.000731153 3.39547e-22)
(-1.38857e-06 2.13894e-05 0)
(0.00159769 0.00119388 -1.09984e-22)
(-8.97895e-05 0.000125966 -2.97443e-23)
(-6.30542e-05 -5.02176e-05 -1.97223e-22)
(-3.62636e-06 -1.09174e-06 -3.01949e-22)
(-0.000128036 -0.000178509 2.71317e-23)
(-0.00202163 -0.00137056 4.21519e-23)
(-0.00415874 0.000675258 0)
(-0.00261219 -0.00459658 -8.25942e-23)
(0.00445641 -0.000467798 5.21267e-23)
(-0.00150419 -0.000374656 -1.15639e-23)
(-0.000167292 -1.01682e-06 0)
(9.56976e-10 4.15726e-09 0)
(-1.72665e-05 7.73368e-05 -2.49052e-23)
(-6.36603e-06 -1.44347e-05 1.57553e-22)
(-0.000421792 4.75143e-05 6.62706e-23)
(-0.000219134 -0.00262634 0)
(0.00335828 0.00214546 -2.1085e-22)
(-0.000239289 2.47362e-05 -4.64812e-23)
(0.00440403 -0.00051749 -2.92139e-24)
(0.000165906 -0.000837861 3.43252e-23)
(-2.60587e-05 0.000152339 1.31385e-22)
(-0.00130054 -0.0028075 -7.19901e-23)
(-0.000174758 -0.000274269 0)
(-2.88491e-05 2.10664e-05 0)
(-0.000211237 -1.57445e-05 4.01069e-23)
(-0.00186518 0.000387895 0)
(-4.34923e-05 6.70334e-05 -3.68915e-23)
(-1.35245e-07 8.4515e-07 0)
(-0.000122819 2.74714e-06 0)
(-3.47261e-05 -1.95881e-05 8.82828e-23)
(-1.68929e-05 -1.37277e-05 -1.6746e-22)
(-0.000510331 0.000392914 -4.33834e-23)
(4.47664e-06 -3.99055e-06 -2.31025e-22)
(-0.00470179 -0.00407751 -5.67906e-24)
(-0.000103325 0.000124069 3.22843e-23)
(-1.28442e-07 8.0312e-07 0)
(-2.67548e-05 -2.32456e-06 1.15749e-23)
(-6.42975e-05 8.54676e-05 0)
(-9.76733e-05 -3.93161e-05 1.13022e-22)
(-8.89927e-05 0.000110519 -8.43765e-24)
(-0.00217485 -0.00455234 -4.62593e-23)
(-0.000381286 -8.19032e-05 -4.73398e-23)
(-0.00179483 0.00099803 0)
(0.000502793 -0.00524485 1.16493e-22)
(-0.00297526 0.000532965 1.52217e-22)
(0.000143219 0.00141252 8.93172e-23)
(0.00466387 -0.000246847 -4.38577e-23)
(-1.25353e-05 -0.000152464 0)
(-1.52696e-05 4.38474e-05 0)
(0.000583893 0.000139954 9.9347e-23)
(0.00204894 0.00210928 5.3434e-23)
(-3.34652e-05 2.09759e-05 -3.26997e-23)
(-5.39684e-05 7.57549e-05 -7.9646e-24)
(-0.00100542 0.000438962 0)
(0.00224441 0.0016518 -3.06061e-22)
(-1.6145e-05 0.000113133 1.45252e-23)
(-0.000243029 6.21505e-05 5.57258e-23)
(-8.30111e-05 -4.91176e-05 -1.57893e-22)
(0.000354773 0.000168571 3.38684e-22)
(-2.58232e-05 7.53747e-06 2.46971e-24)
(-0.00474458 -0.00257317 0)
(-7.05904e-06 -1.13469e-05 -1.35246e-22)
(-0.00037546 -0.000362952 -1.61222e-23)
(-0.000190567 -2.68886e-05 1.93863e-23)
(-0.000138515 5.7858e-05 0)
(-0.00303962 -0.00124058 -1.31188e-22)
(8.36685e-05 -0.000322927 -2.909e-22)
(-0.000352375 0.000406318 0)
(-0.00120697 -0.0039515 1.61072e-23)
(-1.9183e-05 1.96043e-05 -3.05919e-24)
(-0.000131809 -0.000182558 4.82218e-23)
(-0.000688479 -0.000280273 -1.74713e-23)
(-0.000428617 0.000533821 -1.10492e-22)
(-0.00247703 -0.00465394 0)
(-0.00202591 0.000331945 0)
(-2.01334e-05 -1.24361e-06 -1.18644e-22)
(-0.000136456 1.68123e-05 1.10187e-24)
(-0.000212417 -1.70063e-05 3.37413e-23)
(-6.56284e-05 -0.000279515 -3.17369e-23)
(0.00243718 0.00157592 5.61368e-22)
(-3.86476e-05 1.82435e-05 0)
(-0.000128237 -0.000117952 1.45383e-22)
(-0.0018251 -0.00330325 2.74801e-23)
(-3.40469e-05 2.3549e-05 1.02045e-24)
(-0.00710325 -0.00416351 -1.54054e-22)
(0.00282579 -0.00145994 4.48537e-22)
(-1.73725e-05 -2.0094e-06 0)
(-0.000136232 1.95676e-05 -6.63595e-24)
(-0.000171518 -3.45535e-05 0)
(-0.000140014 -3.15633e-06 -2.73849e-24)
(-0.000173786 -3.47057e-06 0)
(-6.71304e-05 4.45966e-06 -7.09671e-23)
(-0.000359662 0.000446796 0)
(-0.000317756 0.000217253 -1.6913e-22)
(0.00151379 0.00169759 0)
(-0.000235745 2.6234e-05 2.52121e-23)
(-0.000167774 -0.000272555 2.43854e-22)
(-0.000115834 -9.30679e-05 0)
(-0.00183008 0.00110144 1.68767e-23)
(-2.69745e-05 -5.4973e-07 1.97496e-23)
(-2.44616e-05 3.9689e-05 0)
(-0.000377045 0.000169341 0)
(-0.000156179 -4.61686e-05 -8.14619e-23)
(-9.66302e-05 -3.7768e-05 -9.83811e-23)
(-0.000246619 -6.70218e-05 -8.00675e-23)
(-7.21059e-06 -1.06281e-05 1.94572e-25)
(0.00205256 -0.00161813 -3.58381e-22)
(-1.45771e-05 -2.96262e-06 -3.5636e-23)
(-3.36227e-05 -0.000179929 -2.66033e-22)
(-0.000120077 -5.37028e-05 6.11386e-23)
(-0.00025321 0.00027814 0)
(-1.53774e-05 4.33231e-05 7.93169e-24)
(0.000326298 0.000179997 -2.37991e-22)
(-6.15044e-05 -0.000147626 1.51015e-22)
(-3.14712e-05 6.2161e-06 -2.88595e-23)
(-3.06125e-05 4.59797e-06 -1.4449e-22)
(-6.81553e-05 0.000133227 -7.93694e-23)
(-0.000341518 4.79533e-05 1.14203e-22)
(-0.0001559 -4.48986e-05 -7.51138e-23)
(-0.000647305 -0.00406223 1.05754e-23)
(-5.12477e-06 3.89329e-05 0)
(5.55208e-05 -0.000322651 -1.91262e-22)
(-1.21711e-05 -0.000309136 0)
(9.67197e-05 0.00142596 -3.83205e-23)
(-6.45975e-06 -1.31963e-05 0)
(0.00383673 -0.00069908 5.10567e-24)
(-0.00308666 -0.000410057 1.49835e-22)
(0.00230224 -0.00351754 -7.19921e-23)
(-2.69298e-05 -1.52259e-06 -6.36179e-25)
(-0.00172645 0.00109033 2.36868e-23)
(-0.000216959 -2.1339e-05 2.52827e-24)
(0.000486396 -0.00033036 1.13296e-22)
(-0.000251906 -7.49381e-05 5.15069e-26)
(-0.00290488 -0.0012832 1.72552e-22)
(-0.000248091 -6.92628e-05 1.23852e-24)
(-2.78005e-05 4.13783e-06 -6.1856e-24)
(-0.000408351 -0.000348043 0)
(-0.000734037 0.000255988 -4.7326e-23)
(-0.000682701 -0.000418666 0)
(-6.55699e-05 9.82693e-06 -4.2068e-23)
(-6.6649e-05 0.000110041 -5.13371e-23)
(0.00048886 0.000181102 1.51082e-22)
(0.00340243 -0.00353047 3.62713e-23)
(-0.00012375 9.69365e-05 -1.78998e-22)
(-0.000408873 0.000887181 1.45042e-22)
(0.00247401 -0.00157766 2.72751e-22)
(-0.000171424 2.40805e-07 -6.44117e-24)
(0.00459751 -0.000268684 4.38271e-23)
(-0.000266785 -3.86903e-05 0)
(-6.49426e-05 -0.000144211 3.06421e-22)
(-0.00142516 0.00133098 -6.14791e-25)
(-5.98812e-05 0.000173353 0)
(-2.85521e-05 -3.82427e-05 3.02949e-22)
(-7.25059e-06 -9.00244e-07 0)
(-1.81368e-05 4.43569e-05 -8.05065e-24)
(-0.00363352 -0.003066 1.43761e-22)
(-0.000387269 9.2668e-05 2.58254e-22)
(-6.86946e-06 -1.23606e-05 -2.95523e-25)
(6.08427e-05 -0.000320548 1.92241e-22)
(-0.00109582 -0.00392583 -1.43634e-23)
(-0.00021758 2.08855e-08 -4.9613e-23)
(-0.000103335 -2.93792e-05 -2.50176e-23)
(0.000466557 -0.000361164 -1.27857e-22)
(-2.69137e-05 1.20477e-05 1.49796e-23)
(-7.1962e-05 0.000129415 -4.01094e-23)
(-0.000426918 -0.000170391 4.52542e-23)
(-0.000190253 -2.66181e-05 -4.52762e-23)
(-0.000336859 6.3548e-05 1.0359e-23)
(-0.00476677 -0.0026797 0)
(-0.00108354 -6.88551e-05 3.08815e-22)
(-0.0014556 -0.00119473 1.3445e-23)
(-0.000141188 -5.03217e-06 2.84165e-24)
(-0.000118393 -5.22042e-05 -1.24976e-22)
(-0.000571259 -6.5169e-05 9.33317e-23)
(0.0023177 0.00256698 0)
(0.00040781 0.00148443 0)
(0.00290347 -0.00137348 5.63238e-22)
(-0.00017093 -3.65697e-05 0)
(7.70835e-05 -0.000324737 -3.61286e-22)
(0.00113698 -0.00154975 0)
(-3.02905e-05 3.72298e-06 -1.94625e-25)
(-0.000140007 -0.000144069 -1.85296e-22)
(-0.000169827 -3.55976e-05 -6.98683e-23)
(-0.00146586 -0.00021046 9.71194e-24)
(-0.000231465 -2.56565e-05 9.41594e-24)
(-0.000146762 6.93876e-05 -2.82608e-23)
(-8.31423e-05 -5.42476e-05 -5.22945e-23)
(0.00340261 0.000760939 0)
(-9.38669e-07 2.94503e-05 8.00327e-23)
(-5.3035e-05 7.35356e-05 0)
(0.000886918 -0.00262567 -2.24051e-22)
(-1.20635e-07 2.144e-06 -8.6797e-25)
(-0.00127515 0.00179058 1.27089e-23)
(-0.000260788 -1.25717e-05 1.22267e-23)
(-3.47151e-11 1.37522e-06 2.1942e-23)
(-0.000419255 6.09759e-05 -9.36541e-23)
(-2.52404e-05 -0.000180457 -3.91137e-22)
(-0.00748633 -0.00378862 0)
(-8.49969e-06 -0.000518217 -3.14971e-23)
(-2.33872e-05 -4.48693e-06 4.51755e-23)
(-0.00041596 0.000372727 -1.45392e-22)
(0.00097137 -0.00266151 2.62468e-22)
(-0.000482194 8.81203e-05 0)
(-0.000216291 -1.68596e-06 2.99236e-23)
(-0.000666994 -0.000280343 1.51012e-23)
(-0.002182 -1.57551e-06 -4.01914e-23)
(-0.000399718 -0.000146814 -1.96712e-23)
(-1.52155e-05 7.33444e-05 1.11538e-23)
(-2.57013e-05 1.24926e-06 1.68416e-23)
(-4.60125e-05 -0.000499726 -1.64523e-23)
(-0.00193612 -0.00321935 0)
(-0.000139862 -0.000247183 0)
(-0.000100145 9.11058e-05 -2.95303e-23)
(-2.196e-05 0.000138858 -4.1844e-24)
(-0.00119873 -0.000782089 -3.89643e-24)
(-4.2643e-05 0.000161552 -1.45092e-22)
(0.000665434 -3.71271e-05 0)
(-1.65522e-05 7.98667e-05 0)
(-0.00018027 7.01999e-05 -7.75429e-23)
(-0.000213004 -1.81932e-05 -4.04486e-23)
(0.000775742 2.85279e-05 0)
(-0.000529681 -0.0010341 0)
(-0.000213124 -2.07076e-05 -7.22447e-24)
(-0.00418049 -0.000681691 -8.9427e-23)
(5.2125e-09 9.32998e-07 -2.07747e-23)
(-0.00390865 -0.000552708 -8.8114e-23)
(7.20675e-06 -7.71643e-05 -1.92867e-22)
(-2.75073e-05 1.47834e-05 -1.54087e-22)
(0.00207066 -0.00107349 3.70326e-22)
(-7.81915e-05 4.06941e-05 -4.53156e-23)
(3.40564e-05 -0.00018524 0)
(-0.000654402 -0.000237019 6.67339e-23)
(-0.000135519 -0.000337448 2.41333e-22)
(-4.86223e-05 -4.38152e-05 -2.13508e-22)
(-3.35758e-05 1.11946e-05 6.10344e-25)
(-0.000454727 0.000122778 0)
(-0.0019071 0.00153486 0)
(-0.000274918 -0.000115944 8.95788e-24)
(-0.000251049 -0.000342331 0)
(-0.00735409 -0.00419066 9.38204e-23)
(-9.2889e-06 -0.000304563 -1.41717e-22)
(1.76536e-05 -0.0004998 3.31404e-23)
(-3.50136e-05 -2.84814e-05 4.5665e-26)
(-3.38876e-05 1.2649e-05 0)
(-7.92078e-05 0.00014437 5.30131e-23)
(0.00236667 0.00150137 0)
(-0.00350038 -0.00282132 0)
(-6.91523e-05 0.000141464 0)
(0.00241949 0.00240695 1.43919e-22)
(-0.000173269 -3.85576e-05 -8.11733e-23)
(-2.07771e-05 -1.73481e-06 0)
(0.00189624 0.00187961 -1.71075e-22)
(-0.000174408 -1.56506e-06 0)
(-8.70732e-05 4.36126e-05 -2.42896e-23)
(-0.00012121 -5.21597e-05 -6.12786e-23)
(-0.00038851 3.89697e-05 -4.421e-23)
(0.00242136 0.00252062 5.84651e-23)
(-0.000585216 1.76578e-05 0)
(-0.00056736 0.000616001 -5.4936e-23)
(8.92764e-05 -0.000330269 3.34056e-22)
(-0.000243364 -0.000333717 0)
(0.00112269 -0.00161378 -6.41041e-23)
(-3.72362e-05 0.000161198 7.45671e-23)
(-5.51533e-05 0.00017381 -1.51189e-22)
(-0.000577677 3.01587e-06 -1.00815e-22)
(-0.00020321 -1.87676e-05 6.15968e-24)
(-0.00400678 -0.000545257 -7.66249e-23)
(6.94456e-05 -0.0027803 0)
(-0.000308658 -6.88492e-05 1.35672e-23)
(-0.000139218 -0.000148741 1.78904e-22)
(-2.94448e-05 -2.52956e-05 -1.0959e-22)
(-0.000137478 -0.000240974 0)
(-0.000651703 -0.000253502 -6.16338e-23)
(-0.000408435 -0.000331914 0)
(-8.2849e-05 0.000122487 -5.02984e-23)
(-0.000173689 -2.60411e-07 8.00848e-24)
(-2.12194e-05 -2.36441e-05 0)
(9.50711e-05 -0.000327906 3.8035e-22)
(-0.000472219 -2.90835e-05 -1.40964e-23)
(-0.000360166 0.0024531 -8.36563e-23)
(0.000802039 0.00158349 0)
(-1.69754e-05 9.22188e-06 0)
(-0.000143069 -4.82291e-05 -1.48413e-22)
(-0.00063308 -0.00392831 -3.8624e-23)
(-0.000124352 6.22747e-07 0)
(-1.73476e-05 6.65045e-05 6.83841e-23)
(-2.61685e-05 1.25284e-05 -6.324e-23)
(-0.000166152 0.000344958 0)
(-0.000129015 -0.00018864 -4.52983e-23)
(0.000495072 0.000184014 1.58751e-22)
(-7.04764e-05 0.000126483 9.77338e-24)
(0.00423658 -0.000598465 0)
(-0.00107057 -5.15541e-05 -1.26829e-22)
(-3.14887e-05 5.73681e-06 0)
(0.00252165 0.00163689 -4.51696e-22)
(-0.00195578 0.00155979 0)
(-0.000497929 -0.00101878 -1.67493e-22)
(-1.5237e-05 4.97663e-05 0)
(-0.00121574 -0.00030217 2.81963e-23)
(0.00287218 -0.00130799 -3.98779e-22)
(-0.00199007 -0.00329029 3.38351e-23)
(-0.000232044 -3.31717e-05 0)
(-0.000259009 6.79144e-06 -4.40001e-23)
(-0.000217597 0.000473138 9.33446e-23)
(-0.000105484 0.000122674 3.24246e-23)
(-6.63061e-05 0.000149069 -1.06594e-22)
(-6.89871e-05 0.000140594 0)
(-0.00124775 0.00188089 -6.41532e-24)
(-4.74446e-05 -3.59436e-05 1.1675e-22)
(0.00350077 0.000674112 0)
(-2.74896e-05 1.10798e-05 8.69702e-23)
(-1.05845e-05 -1.68512e-05 1.71512e-22)
(-3.23751e-05 2.41323e-05 -3.87176e-23)
(0.000198347 -0.000655165 2.71473e-22)
(3.31198e-06 -6.11429e-05 0)
(0.00200309 0.00211144 0)
(-0.00110663 2.89665e-05 0)
(-1.56112e-05 7.31534e-05 -1.6771e-23)
(-0.00122625 -0.000719902 0)
(-0.000100879 -5.45421e-05 -2.60184e-23)
(-1.32851e-05 -1.56684e-05 0)
(-1.8315e-05 -1.70121e-05 -1.38345e-22)
(-2.5514e-05 0.000149109 -1.44342e-22)
(0.000959133 -0.00176247 -2.71108e-22)
(-8.34913e-05 0.000121927 1.12385e-23)
(-1.34624e-05 -0.000508846 -2.52293e-22)
(-6.47553e-05 -0.000488254 1.50389e-23)
(-5.21252e-05 0.000252823 -2.85134e-22)
(0.00014381 1.95703e-05 0)
(-3.32704e-08 1.58129e-07 0)
(-2.18141e-05 -0.000507526 -2.14163e-22)
(-4.26756e-05 -3.522e-05 0)
(-0.00013412 -0.000101503 0)
(5.60078e-05 -0.000696686 -2.65744e-22)
(-0.000727664 0.00102201 -1.15843e-22)
(-0.00016827 -0.000554953 -2.32655e-23)
(-0.00547363 -0.00273229 3.01134e-22)
(-0.00339737 -0.000681577 6.61985e-23)
(-4.76096e-05 -4.39505e-05 2.65652e-22)
(7.36684e-06 -4.59041e-05 -1.53126e-22)
(-6.90452e-05 0.000128875 8.69057e-23)
(-4.71163e-05 -3.50519e-05 -4.7829e-25)
(-0.00149391 -0.000319829 1.19675e-23)
(-1.11654e-05 4.15099e-05 5.76345e-23)
(-1.32277e-05 4.44831e-05 0)
(-2.27334e-05 0.000142311 3.89454e-24)
(-1.62771e-05 -2.72449e-05 5.16641e-22)
(-2.37141e-05 -0.000310388 -1.3624e-22)
(4.33077e-06 -0.000264207 0)
(-5.84857e-05 2.20066e-05 -9.99924e-23)
(0.00288221 0.00168793 -1.57348e-22)
(-9.13568e-05 0.000102919 0)
(-2.70756e-06 6.6004e-05 -1.20731e-23)
(-1.71473e-05 -2.57323e-05 -1.17903e-22)
(-2.48564e-05 5.67747e-05 -1.01704e-22)
(-0.00291322 -0.000155379 1.86625e-22)
(0.00326281 0.00304806 0)
(-0.000186869 7.00067e-05 0)
(-0.000327573 -5.19799e-05 -6.86122e-23)
(-0.00296494 -0.000709977 0)
(0.00399023 -0.000641077 4.11983e-24)
(0.000584463 0.000146331 0)
(0.000971973 0.00163257 1.57927e-22)
(-0.000124374 -3.82482e-05 5.6277e-23)
(-2.4689e-05 1.28306e-05 2.02156e-23)
(-0.00230442 4.01702e-05 4.13806e-23)
(-0.000592076 -0.000420677 0)
(-3.78649e-05 3.19696e-05 0)
(-0.00695185 -0.00280106 0)
(-2.90936e-05 5.14792e-06 0)
(-0.000123764 -3.32992e-05 7.12591e-24)
(-2.50762e-05 1.04378e-06 0)
(-0.000463496 0.000369529 -9.15437e-24)
(-0.000404509 0.000373934 7.79054e-23)
(-0.000106899 -9.96546e-06 4.41792e-24)
(5.11936e-05 -0.000492743 0)
(-7.38188e-05 5.60984e-05 -1.69966e-23)
(-5.85109e-05 0.000174012 9.87715e-23)
(0.00292829 0.00176369 2.96065e-22)
(-0.000134552 -0.000207425 -2.41627e-23)
(-0.000102603 -5.44557e-05 1.68892e-22)
(0.00311719 0.000757015 3.0555e-22)
(7.26295e-06 -7.04415e-05 -5.86556e-22)
(1.50117e-05 -0.000280103 3.00023e-22)
(-0.000184693 -7.50961e-05 0)
(-0.000168802 -3.72215e-05 -3.01515e-23)
(-0.000312266 0.000213162 1.44852e-22)
(-0.000379451 0.000982685 1.5574e-22)
(-4.55953e-05 -3.95224e-05 -1.07843e-22)
(-5.77843e-05 2.42159e-05 7.01061e-23)
(-6.60071e-05 -4.96211e-05 0)
(-0.00141826 0.000108386 -2.36863e-22)
(0.00132901 -0.00101815 -9.78065e-24)
(-0.000135478 -2.08395e-05 3.43648e-23)
(-2.56937e-05 -9.54382e-07 -2.24702e-22)
(-0.000735514 -0.00121999 1.55484e-22)
(6.91389e-06 -4.49238e-05 -5.24587e-23)
(-0.000541954 5.50062e-05 -5.75512e-23)
(-1.12863e-05 3.9266e-05 0)
(-1.6193e-05 -5.53771e-05 3.11906e-22)
(-6.8055e-05 -5.02123e-05 0)
(-1.79946e-05 4.76098e-07 -5.6052e-23)
(-6.17201e-05 0.000138376 -8.48722e-23)
(-1.56549e-05 4.56295e-05 -8.44894e-23)
(-2.98515e-05 -3.37944e-05 -1.49019e-22)
(-0.000140775 -6.27555e-05 -5.62912e-23)
(0.000520866 -4.59023e-05 -5.63063e-23)
(-9.53481e-06 4.02509e-05 0)
(-0.00169943 0.000882663 4.4797e-24)
(-0.000132022 1.1318e-05 2.74513e-25)
(-0.00373703 6.75769e-06 0)
(-5.5228e-05 -5.79893e-05 -1.77162e-22)
(0.00208943 0.000738733 -4.05356e-22)
(-1.16982e-06 2.0377e-05 0)
(0.00331644 0.00304766 0)
(-5.22836e-08 4.38911e-07 1.43329e-23)
(-4.52932e-05 0.000105808 4.25619e-24)
(0.00236567 -0.000847784 4.06984e-22)
(-0.000435799 0.000106704 8.77041e-23)
(0.00228943 -0.00104185 2.07344e-22)
(-0.000451582 0.000116477 7.04857e-23)
(-0.000333521 4.98867e-05 0)
(-0.00289755 -0.000382385 -1.00864e-22)
(0.000767184 -0.00188899 0)
(-4.50614e-05 -3.40137e-05 1.42007e-22)
(0.00429712 -0.000550693 5.73342e-23)
(-0.000222766 -0.000173464 0)
(-0.000139085 -4.29829e-05 5.0657e-23)
(0.000240052 0.000949499 3.6785e-23)
(-0.000108142 -1.13364e-05 1.04742e-23)
(0.000549481 -6.1138e-05 -3.46313e-23)
(6.64836e-05 -0.00047386 0)
(1.27616e-05 -0.000273961 3.04763e-25)
(0.000678502 -0.0028407 -8.89472e-23)
(-0.00360259 -0.00323052 -1.54436e-22)
(-3.66956e-05 2.96339e-05 0)
(-0.000442479 0.000555557 1.40396e-22)
(-2.2518e-05 2.04727e-05 0)
(-0.000194666 -7.50545e-05 7.22176e-23)
(-1.10581e-05 2.72809e-05 -9.92467e-23)
(-0.000136369 -0.000214417 -1.70934e-22)
(-0.000256158 0.000279073 0)
(-1.73289e-05 -5.32514e-05 0)
(-7.15743e-05 -0.000265736 0)
(-1.25718e-07 3.95114e-06 2.88655e-23)
(-0.000438713 -0.000888702 -8.35078e-24)
(-6.58498e-05 0.000121598 5.99021e-23)
(-0.000139197 -0.000201098 2.59592e-23)
(-0.000209782 -1.81565e-05 -5.02971e-23)
(-7.77939e-05 -0.000268619 0)
(-1.26357e-06 3.51922e-05 4.02249e-23)
(-0.00541207 -0.00481695 0)
(-0.000284012 -0.000436601 0)
(-0.000521176 0.000376024 -8.6118e-23)
(0.00210592 -0.00154076 -4.60593e-24)
(0.00315367 0.000780933 -5.18091e-22)
(-0.00315273 -0.000522567 0)
(-9.71662e-05 -5.20088e-05 -6.60886e-23)
(-0.003738 1.66141e-05 0)
(-0.000172879 -3.83256e-05 -7.79629e-23)
(-1.7542e-05 4.2175e-08 0)
(-0.000780238 0.000963018 1.16581e-22)
(0.00183085 0.000783264 3.41823e-22)
(-2.53762e-07 7.16384e-06 -7.19482e-24)
(-0.000954185 0.000334481 -1.77933e-22)
(-0.00781937 -0.0029244 -8.27966e-23)
(-0.000688117 -0.000151351 8.49433e-23)
(-9.89023e-05 -5.50563e-05 -1.12597e-22)
(0.000778786 -2.14416e-05 -1.27222e-22)
(-0.00115076 -0.00161142 0)
(-0.00780016 -0.00289562 0)
(-0.000262402 2.08221e-05 -3.09672e-23)
(-5.63259e-05 7.89825e-05 -1.15945e-23)
(-0.00214489 -0.000436858 -9.23893e-23)
(-0.000356268 0.000535223 -2.26645e-22)
(0.00400768 -0.00294113 0)
(-0.00013043 3.43239e-05 2.5299e-23)
(-3.28391e-07 6.45284e-06 -1.84381e-25)
(-2.09177e-05 -0.000305436 1.34139e-22)
(-7.85672e-05 0.000809406 -1.25797e-21)
(-0.000128637 -5.71075e-05 -1.02283e-22)
(-0.00124786 0.00187269 1.33192e-21)
(-0.00272238 -0.000133834 0)
(-0.000116231 -5.32586e-05 -6.18442e-23)
(-0.000360977 -0.00041045 -1.08683e-22)
(-0.00406206 -0.00174977 0)
(0.00353395 0.00268012 0)
(-0.000256968 7.80663e-05 3.31005e-24)
(0.000757127 3.14526e-05 1.49988e-22)
(-5.43451e-05 0.000174535 4.97183e-23)
(-0.000903137 3.76526e-05 0)
(0.00232671 0.00151333 -9.72438e-23)
(-1.26194e-05 3.89741e-05 0)
(0.000230942 0.00061554 2.02187e-22)
(-0.000125838 0.000100348 -1.74073e-23)