/*--------------------------------*- C++ -*----------------------------------*\
| =========                 |                                                 |
| \\      /  F ield         | OpenFOAM: The Open Source CFD Toolbox           |
|  \\    /   O peration     | Version:  v2012                                 |
|   \\  /    A nd           | Website:  www.openfoam.com                      |
|    \\/     M anipulation  |                                                 |
\*---------------------------------------------------------------------------*/
FoamFile
{
    version     2.0;
    format      ascii;
    class       volScalarField;
    location    "400";
    object      k;
}
// * * * * * * * * * * * * * * * * * * * * * * * * * * * * * * * * * * * * * //

dimensions      [0 2 -2 0 0 0 0];


internalField   nonuniform List<scalar> 
53008
(
0.000159942
0.00128718
0.000152343
0.000209928
0.0490953
0.0428364
0.000172741
0.000159729
0.000163294
0.000149908
0.000197685
0.000174444
0.0463083
0.0222762
0.000149434
0.000146693
0.00015674
0.000146757
0.0840903
0.000158598
0.000154651
0.000164647
0.000148022
0.000172047
0.000153403
0.000343521
0.020153
0.000172816
0.00026106
0.000247987
0.000414786
0.0162968
0.0367456
0.000150663
0.000147852
0.000160636
0.000154204
0.000149781
0.000174988
0.000151632
0.000154017
0.0587785
0.000198098
0.0787065
0.000158935
0.000147978
0.000147657
0.000153564
0.000212349
0.00014717
0.000151761
0.000157066
0.000157696
0.000148191
0.000181774
0.0845228
0.00015823
0.000147551
0.00028947
0.000177669
0.000150466
0.000158912
0.0809625
0.0277903
0.000194705
0.000147779
0.000245394
0.000147522
0.000146293
0.00014784
0.0607718
0.000145158
0.000149134
0.039693
0.000345425
0.00014801
0.000149806
0.0447504
0.00014615
0.0541739
0.0426315
0.0481202
0.00021092
0.000209841
0.000165479
0.000147884
0.000174167
0.000162997
0.000147791
0.00017543
0.0538383
0.0756544
0.0482922
0.000190371
0.0652236
0.000203742
0.0593605
0.000152163
0.0509615
0.0782604
0.000158582
0.000151543
0.000200262
0.000172967
0.000160717
0.0760317
0.0566076
0.000160484
0.00019641
0.000145125
0.000205498
0.0306858
0.000149847
0.0704333
0.0528119
0.000155206
0.000155838
0.000145719
0.00307267
0.051831
0.0496708
0.000149073
0.000151153
0.000806552
0.0442176
0.000148114
0.0477531
0.000222846
0.000171601
0.000148911
0.0126526
0.000148483
0.000209917
0.000154393
0.000145608
0.00026609
0.000148753
0.0461998
0.000147787
0.000147209
0.00014652
0.000147152
0.000166479
0.000274705
0.000172241
0.000151878
0.000155681
0.000147739
0.000146727
0.000150399
0.000149149
0.0805925
0.0468104
0.000164778
0.000146669
0.000157414
0.0529676
0.0733047
0.000152324
0.000286742
0.000181035
0.0001472
0.000146672
0.0769923
0.000153651
0.000149958
0.000147262
0.00015859
0.000147377
0.000151291
0.00016171
0.0535877
0.0753257
0.000147247
0.000558065
0.000147177
0.000165597
0.000202543
0.000173601
0.000165904
0.000151067
0.000153496
0.0792284
0.000149936
0.000174397
0.0298685
0.0827508
0.076707
0.0526203
0.000147773
0.0453901
0.000150168
0.000178621
0.04804
0.000147846
0.000152679
0.000160707
0.000147805
0.000148745
0.000155072
0.000186153
0.000148975
0.000160687
0.000147763
0.000206759
0.0368158
0.000156664
0.000148593
0.000174302
0.000145734
0.058837
0.000151519
0.000284501
0.000152452
0.000195974
0.000148138
0.000148648
0.000147997
0.000180405
0.00014821
0.000230441
0.000145273
0.000208574
0.000145265
0.000153426
0.0001995
0.000151368
0.000170386
0.00016346
0.00014652
0.0342544
0.0450315
0.000145663
0.0487502
0.000186118
0.0759836
0.000152176
0.000145624
0.0287503
0.00014673
0.000148408
0.000150611
0.000262745
0.00015051
0.000161125
0.000149771
0.000194685
0.00022882
0.000148068
0.000177109
0.000152816
0.000150094
0.000147891
0.000154828
0.000150192
0.0815103
0.000266488
0.000149565
0.000180445
0.000158065
0.000440993
0.000279285
0.000158335
0.000152799
0.00014758
0.019675
0.075468
0.000147831
0.0843984
0.000210017
0.000145959
0.000154177
0.000148886
0.000262583
0.0412684
0.000144294
0.000206488
0.0579887
0.000179423
0.000150891
0.000148004
0.000149752
0.000179355
0.000173958
0.000152329
0.00017491
0.000171105
0.0342239
0.0001742
0.000149838
0.000616105
0.057213
0.000185915
0.0450404
0.000173894
0.000147933
0.000175842
0.000206168
0.0834747
0.000153293
0.00018586
0.0526967
0.059165
0.0385985
0.00014952
0.00184428
0.000150227
0.000149496
0.000153374
0.000181867
0.0353357
0.000263635
0.0202805
0.0414492
0.00019395
0.000173787
0.000149965
0.000148547
0.000144324
0.00017414
0.000205699
0.0612115
0.00015998
0.0427537
0.000506417
0.000149045
0.0525868
0.00016126
0.000146699
0.000162471
0.079735
0.000147835
0.000149708
0.000150235
0.000145961
0.000145317
0.000178453
0.000146938
0.0587217
0.000151462
0.000149762
0.000147427
0.000181
0.000148764
0.000149509
0.0168853
0.00017287
0.0461248
0.000260401
0.0677577
0.000218272
0.0427012
0.000152009
0.000148177
0.0215007
0.0823217
0.000147685
0.00014766
0.00044325
0.0753715
0.000148557
0.000171699
0.000149413
0.018525
0.000182461
0.0495027
0.000144331
0.000170243
0.000156803
0.000152181
0.0836108
0.000158954
0.00017174
0.000230246
0.000182498
0.000156932
0.000179181
0.000182114
0.0179492
0.0783775
0.000149826
0.000151334
0.000164789
0.00015842
0.0736663
0.000146473
0.000154662
0.0578095
0.000147684
0.0493961
0.0566203
0.000147353
0.000151336
0.000154548
0.000151451
0.00015421
0.000147248
0.000186208
0.000165348
0.0606158
0.00015984
0.000160944
0.000153312
0.0487738
0.000147373
0.000148221
0.000167088
0.000153707
0.000148734
0.000161008
0.000144361
0.000211079
0.000146378
0.000153664
0.000150722
0.0500108
0.000148629
0.0196455
0.000153268
0.000147655
0.000146164
0.000149005
0.000165989
0.000153534
0.000229696
0.000149198
0.000158797
0.00015864
0.000216944
0.000144315
0.000488647
0.0619514
0.000613167
0.000147419
0.000209737
0.000159966
0.03296
0.000170996
0.0850712
0.000170706
0.000147862
0.000188886
0.000194033
0.000179743
0.000147194
0.000181372
0.0281624
0.000427244
0.000152027
0.000263078
0.0596618
0.000154015
0.0450323
0.000166613
0.000153253
0.000212013
0.000151493
0.000147815
0.000151897
0.000148509
0.000254185
0.0558897
0.000144341
0.00015877
0.000229073
0.000165312
0.000149011
0.0341852
0.00014786
0.000149104
0.000178999
0.000156721
0.000172437
0.0505059
0.000269722
0.000196515
0.000151504
0.000150602
0.000180503
0.0797995
0.00959971
0.000221876
0.0001547
0.000158975
0.000200314
0.000146143
0.000156028
0.000154471
0.000193551
0.000162928
0.00015311
0.000148825
0.0446427
0.000149558
0.000147631
0.000208973
0.000149853
0.0634063
0.000163509
0.000149855
0.000174582
0.000153544
0.0472308
0.000199548
0.000147482
0.00017334
0.000209802
0.000177034
0.000165328
0.000178747
0.0771916
0.000177095
0.000148724
0.000147818
0.000198936
0.0565022
0.00015929
0.000149819
0.000148827
0.0421443
0.000149382
0.0371216
0.000148572
0.000174888
0.000164906
0.0280006
0.000185252
0.000159241
0.0300965
0.000149885
0.000245177
0.000146881
0.000146442
0.066969
0.000147853
0.000152829
0.000178264
0.000162158
0.000146604
0.000147569
0.0001704
0.0600969
0.000173947
0.00016565
0.0457301
0.000158461
0.000199577
0.000146803
0.000147565
0.000181387
0.0632798
0.000247599
0.000149449
0.0779799
0.00015512
0.000147182
0.0730463
0.000154236
0.000148285
0.000150882
0.000172899
0.0793513
0.000178195
0.000190752
0.000159227
0.000165091
0.000200549
0.000149368
0.000151234
0.000177793
0.000157639
0.0209164
0.000207792
0.000170279
0.000156091
0.000146221
0.000159037
0.00017823
0.000188029
0.000149568
0.00015414
0.000145396
0.000159235
0.000174008
0.000256475
0.00827422
0.000148206
0.000152543
0.000227219
0.000150274
0.000148359
0.000147895
0.000164777
0.000156995
0.028596
0.000148924
0.0419021
0.000269098
0.00014767
0.0733231
0.0614499
0.000184829
0.000148218
0.000189485
0.000221382
0.0571771
0.00016076
0.000162291
0.000172915
0.000151609
0.000149672
0.000149368
0.0657658
0.000147761
0.041983
0.000147849
0.000144893
0.00014665
0.000174639
0.000145754
0.0836783
0.000483985
0.000148698
0.0398082
0.000149719
0.000145126
0.000145328
0.000148979
0.000200243
0.000149561
0.000166736
0.000198251
0.0435756
0.0070506
0.000149831
0.000166735
0.000147248
0.000154435
0.000174149
0.0439542
0.0364608
0.00584819
0.014532
0.000146571
0.000144333
0.000148941
0.000147899
0.00019394
0.000148129
0.000148186
0.000148873
0.000145972
0.000158941
0.000156566
0.000146953
0.0695738
0.000149466
0.000149271
0.000145978
0.000148097
0.000217679
0.0624112
0.000174563
0.000169483
0.0667504
0.038994
0.0225163
0.0874562
0.000150395
0.000146935
0.0757767
0.0606436
0.000147213
0.00926195
0.000147832
0.000150295
0.000146015
0.0624486
0.000173144
0.000149157
0.000200306
0.000147783
0.000151627
0.069559
0.000157808
0.000149824
0.0418964
0.000146167
0.000157137
0.000156581
0.000154457
0.000164941
0.000457585
0.00014726
0.000146947
0.000149542
0.0397591
0.000199836
0.00015107
0.000145942
0.000300393
0.000144354
0.000177701
0.00014812
0.000147838
0.000149636
0.000147812
0.000149002
0.000148194
0.000147649
0.000153408
0.00020545
0.000148131
0.0002062
0.000150948
0.0426199
0.000149627
0.000692445
0.000149565
0.0602663
0.00014993
0.000148286
0.000689092
0.000176509
0.0657749
0.000170531
0.00016541
0.056184
0.000199933
0.000147966
0.0408943
0.000160494
0.000151594
0.0882224
0.000149214
0.000206476
0.000200558
0.000156889
0.000210458
0.000253915
0.000147583
0.000183878
0.000148121
0.000157262
0.000148081
0.000158075
0.000164835
0.00014781
0.000158046
0.000149739
0.000290343
0.000181414
0.000157758
0.000161792
0.000158269
0.000149508
0.0431881
0.000192415
0.000178085
0.000211028
0.0430428
0.000221798
0.000149845
0.0441901
0.000155074
0.000147685
0.0426024
0.00145005
0.000149748
0.000275707
0.0401804
0.000190788
0.000149547
0.0304158
0.000197315
0.0414866
0.000167239
0.000147698
0.0772783
0.00018117
0.000293392
0.000151058
0.00014972
0.000158648
0.000612713
0.000152384
0.000584413
0.000214024
0.000150324
0.000170652
0.040039
0.0578163
0.000161003
0.0296489
0.000151429
0.000215982
0.0626335
0.000148109
0.0426351
0.000152466
0.000148902
0.046894
0.000151861
0.000217093
0.000167684
0.000158203
0.000147587
0.00020657
0.000182215
0.000153434
0.000147855
0.0400659
0.000146677
0.0256007
0.000162728
0.00032445
0.000147947
0.000149653
0.0509889
0.000192585
0.000242253
0.0363232
0.000177716
0.0384508
0.000177167
0.000151081
0.0415985
0.000154465
0.00014852
0.000256401
0.000200124
0.000154502
0.000148441
0.000146304
0.000147635
0.000148154
0.000196484
0.0585496
0.0484908
0.000147311
0.000163378
0.000151243
0.000231502
0.00014767
0.0561431
0.0329268
0.0401598
0.000215853
0.000160152
0.000147223
0.0603061
0.000147825
0.000150253
0.000150206
0.000150475
0.00016251
0.000161074
0.000150283
0.000150241
0.000148013
0.000149955
0.000147871
0.000147242
0.000175498
0.000182509
0.000147849
0.000148194
0.0341651
0.0774262
0.000156995
0.000380947
0.000174852
0.000166008
0.000212769
0.000146812
0.000147831
0.000148075
0.000147767
0.000150497
0.00017211
0.000147369
0.000145623
0.000147247
0.000147848
0.0417976
0.000165471
0.000145297
0.000154527
0.000148539
0.000174367
0.00014551
0.0344729
0.00026718
0.00014793
0.0587598
0.000537592
0.000211754
0.000177545
0.0420764
0.0655294
0.000148103
0.000147645
0.000150249
0.0419409
0.000198559
0.000152349
0.0195674
0.011911
0.000146305
0.000146905
0.000150042
0.000164328
0.000155963
0.00014795
0.00014757
0.00014762
0.00014731
0.0347146
0.000205452
0.000148867
0.0267442
0.0535846
0.000149207
0.000147722
0.000151443
0.000166661
0.034794
0.00293313
0.0568579
0.000189226
0.000189464
0.000426385
0.000312008
0.0293754
0.000154582
0.000178488
0.000158329
0.000158449
0.0435815
0.000147598
0.0185721
0.000233957
0.00015094
0.000167176
0.000147683
0.0686526
0.000150979
0.000200547
0.000398863
0.000146148
0.0843671
0.000146667
0.000149776
0.0856829
0.000154421
0.00014631
0.0340546
0.0596549
0.00014851
0.000207284
0.000153671
0.000177758
0.000148216
0.000144343
0.03268
0.0454228
0.000198653
0.000147764
0.000152862
0.0457399
0.000157247
0.000146918
0.000148831
0.000153458
0.000146841
0.000199492
0.000154776
0.0437217
0.000165909
0.000171564
0.067897
0.000148421
0.000148212
0.000166728
0.000248186
0.000188948
0.073934
0.0338228
0.000198346
0.0404257
0.000147941
0.000147328
0.000171026
0.000150898
0.000146172
0.000152952
0.000158588
0.000287465
0.00015426
0.000165949
0.000236221
0.00015971
0.0469503
0.000148375
0.000157662
0.00014677
0.000148066
0.000179035
0.000148102
0.000162171
0.000220527
0.000190436
0.0473029
0.000147293
0.000171898
0.000196985
0.000145494
0.000147742
0.000209399
0.000146879
0.00014816
0.0402424
0.000316474
0.000191179
0.000173771
0.0387023
0.000167642
0.0327868
0.000161457
0.000147254
0.000186994
0.000148205
0.000264122
0.0362412
0.000147999
0.000176721
0.0001546
0.000181449
0.0441436
0.00014798
0.000207977
0.000289645
0.000157353
0.000287897
0.000216041
0.00401563
0.000164845
0.000159817
0.000199905
0.000163155
0.000145554
0.000147382
0.000168273
0.061115
0.000146489
0.00015828
0.0751704
0.000162813
0.000154721
0.0872208
0.000148549
0.000166991
0.07454
0.0403677
0.0353172
0.000147445
0.000153525
0.000146973
0.000154841
0.000153447
0.000216875
0.0532785
0.000157303
0.000205451
0.000153233
0.0401148
0.000145718
0.000147947
0.00015738
0.000147515
0.043424
0.040752
0.000168862
0.00016495
0.000149152
0.000195938
0.000147774
0.000149506
0.000156539
0.00014811
0.000206416
0.000155796
0.000178404
0.000233156
0.000144045
0.000164547
0.000160672
0.000147286
0.0363359
0.000150741
0.00018022
0.0893691
0.000207708
0.000146511
0.0673301
0.000161091
0.000149171
0.000148702
0.00444114
0.000149082
0.0421615
0.000149285
0.000147296
0.0651509
0.000182442
0.000180471
0.000145735
0.000157246
0.0428152
0.000146825
0.000147757
0.0468738
0.0342831
0.000180172
0.0749
0.00014812
0.000222433
0.00017294
0.00015098
0.00017787
0.0565084
0.0805116
0.000181682
0.000148157
0.0801773
0.000146988
0.0339137
0.0303169
0.000147788
0.0543567
0.0347231
0.000173616
0.0533449
0.000148291
0.000145077
0.000144026
0.000180638
0.0839716
0.000206716
0.00015072
0.0258665
0.000149997
0.000148793
0.000173264
0.000147683
0.000150708
0.000145937
0.000186891
0.0001487
0.000153081
0.0426324
0.0247983
0.000172177
0.00014822
0.000149842
0.0843243
0.000198061
0.000189613
0.00014531
0.000169819
0.000168642
0.057577
0.000148791
0.0391603
0.000190699
0.000150501
0.000147994
0.00014973
0.00018934
0.0638736
0.00014929
0.00015935
0.000152838
0.000149222
0.000148091
0.0742191
0.0649905
0.0466358
0.00014841
0.000180375
0.000207066
0.0594554
0.000181791
0.000221453
0.000149661
0.0893193
0.000161436
0.000177662
0.0412964
0.000149269
0.000148775
0.000153487
0.000147853
0.026394
0.000147683
0.00019026
0.0238229
0.000144393
0.000148082
0.0538386
0.000145279
0.000146602
0.00016601
0.00015057
0.000161738
0.000172882
0.000148476
0.000147273
0.000189284
0.000144946
0.000147293
0.0306961
0.000155173
0.0001472
0.000152281
0.000149157
0.000147391
0.000146968
0.0742525
0.000147006
0.00018978
0.000187037
0.000147307
0.000149865
0.000166478
0.000153245
0.000146006
0.000188546
0.038045
0.000149694
0.000147833
0.000148073
0.000159333
0.000152107
0.0797243
0.00019702
0.000145572
0.000149413
0.0394703
0.000154527
0.0834569
0.00015462
0.0642074
0.000151041
0.000173421
0.0797043
0.0393199
0.000148008
0.000158208
0.000145403
0.000150935
0.00387879
0.000171714
0.0428187
0.000167095
0.000157475
0.000162416
0.000148708
0.0595485
0.000217827
0.000148786
0.0410284
0.000154228
0.000147374
0.000148183
0.000148647
0.000158449
0.000155085
0.0769854
0.000148466
0.0215333
0.0648754
0.00017261
0.000147012
0.0893207
0.0441865
0.000148709
0.000198392
0.0772158
0.000148835
0.000209248
0.000161606
0.000167954
0.000178027
0.000309883
0.000149998
0.0477586
0.000196957
0.000145765
0.000147278
0.000145684
0.00015728
0.000202579
0.045915
0.000145458
0.000149801
0.000148096
0.0416486
0.000160297
0.000150045
0.000149166
0.0568904
0.0890509
0.000254512
0.0435888
0.0598778
0.000150596
0.000208255
0.000148474
0.000166818
0.000147321
0.000223384
0.000149867
0.000164664
0.000155364
0.000149893
0.0747151
0.00014779
0.000161609
0.0785191
0.00017937
0.000148807
0.000147735
0.00014777
0.0613537
0.000190627
0.00017915
0.000155048
0.000168075
0.0412781
0.000210654
0.000149937
0.0405969
0.000157215
0.000154792
0.0637424
0.000148824
0.0569646
0.000148508
0.0441552
0.000151124
0.000148246
0.0837294
0.000162991
0.000150059
0.000147853
0.0399621
0.079668
0.00017532
0.00017405
0.000188912
0.0695555
0.0444643
0.0870307
0.0458043
0.00015191
0.000146995
0.000167096
0.000164954
0.000149455
0.000147732
0.000162424
0.000148011
0.000148092
0.0557729
0.000155243
0.000213196
0.000158194
0.000190304
0.000148658
0.000201636
0.0413271
0.000148673
0.000213586
0.000147355
0.000208186
0.000148785
0.0689459
0.000167978
0.000174329
0.000146297
0.000147226
0.000295938
0.0419141
0.00014762
0.0560154
0.0001508
0.000147952
0.000148104
0.000161316
0.0033928
0.000199477
0.000148762
0.000156801
0.0443278
0.000148433
0.000168397
0.000147515
0.0421385
0.000148164
0.000144968
0.000156319
0.000169524
0.000154421
0.000221354
0.000148675
0.000156199
0.000174959
0.000221965
0.000148084
0.0540684
0.00014711
0.0795206
0.058247
0.000293517
0.000148136
0.000433725
0.000159745
0.000148208
0.000147869
0.000147364
0.000184319
0.000147885
0.000227665
0.00017274
0.000193749
0.000146503
0.000144293
0.000145301
0.0632273
0.000160958
0.0802243
0.000251229
0.000147763
0.059418
0.000208419
0.000150161
0.0439716
0.000148036
0.0001678
0.000156365
0.000155193
0.000150493
0.000197759
0.000177129
0.000146456
0.00022075
0.000148058
0.000148741
0.000150969
0.000148119
0.000150186
0.000152233
0.000148898
0.0786316
0.000190271
0.00021086
0.000148758
0.000150269
0.00021896
0.000165954
0.000158939
0.000145609
0.000148182
0.000179712
0.00533547
0.000149456
0.000232384
0.000148859
0.0636199
0.000192649
0.000147433
0.000145943
0.000200424
0.000166577
0.000152283
0.0608003
0.000148178
0.000152276
0.000610891
0.000172417
0.000146703
0.000162254
0.00014853
0.000171385
0.000149306
0.000218162
0.000150121
0.000157137
0.000152569
0.000169084
0.00015066
0.0866976
0.0414715
0.000148172
0.000150679
0.000229513
0.0315512
0.000148045
0.000150885
0.000177059
0.0325034
0.000148307
0.000156475
0.000190952
0.000148956
0.000150931
0.000174799
0.000149738
0.000149488
0.0544734
0.00984255
0.000151265
0.000147304
0.000158846
0.000145685
0.0169926
0.0364484
0.0497301
0.000158139
0.000192201
0.0826818
0.000152229
0.0621565
0.000226831
0.000148774
0.000147721
0.000167188
0.000145796
0.000152419
0.000248851
0.000169251
0.000154382
0.000185792
0.000162923
0.000168637
0.000207404
0.0523788
0.000146599
0.000158549
0.049613
0.000222334
0.000162537
0.00020429
0.000179775
0.000148526
0.000220095
0.000164484
0.000150612
0.00015401
0.00014748
0.000264937
0.000149859
0.000147931
0.000147918
0.00016452
0.054172
0.000196528
0.000227471
0.0519878
0.000162809
0.000635458
0.000159732
0.000148874
0.000159376
0.000167416
0.000152936
0.0357546
0.000225943
0.000153138
0.000199159
0.021619
0.000199075
0.00014857
0.000157341
0.0322442
0.000147883
0.000147957
0.0371616
0.000151909
0.00014898
0.000171679
0.000150295
0.000161897
0.00015086
0.000187821
0.000145665
0.00089952
0.000783733
0.000177876
0.000148805
0.000198234
0.000209736
0.000148624
0.000160727
0.000147892
0.000148851
0.000152293
0.000147604
0.000145921
0.0063781
0.000233948
0.000148393
0.000149313
0.000149359
0.0596997
0.0425884
0.00014525
0.000222502
0.00016244
0.000203155
0.00014889
0.0001546
0.000147673
0.000147331
0.000151379
0.000148321
0.000166148
0.0525684
0.000191253
0.000190503
0.000147675
0.00014757
0.0307085
0.000177675
0.0537072
0.000191156
0.0565144
0.000147801
0.000163491
0.000162106
0.000168405
0.0589305
0.000190176
0.000145149
0.000145768
0.0376458
0.000206103
0.000145791
0.00017328
0.06251
0.000146926
0.000148935
0.0520401
0.000152424
0.000211724
0.0619106
0.000153501
0.000191129
0.000153747
0.000175107
0.0394429
0.000166412
0.000147934
0.000173417
0.000198062
0.000147478
0.000166088
0.000188521
0.000150919
0.0409424
0.0563894
0.00101965
0.0579527
0.000147741
0.000149102
0.000224145
0.000223303
0.0520098
0.0744222
0.0562828
0.000172125
0.000152945
0.000143962
0.000148576
0.000165974
0.000147742
0.0837499
0.000191135
0.0691447
0.000146967
0.00014783
0.000148541
0.000271284
0.0001621
0.000152841
0.000146403
0.000174951
0.000149475
0.0751536
0.0611527
0.0478298
0.0534932
0.000186531
0.000148908
0.0332297
0.000149266
0.000203129
0.000181105
0.000148543
0.0603811
0.000207396
0.000179046
0.000146938
0.000151841
0.000146849
0.0575151
0.0485867
0.000146453
0.000147926
0.0477718
0.000147889
0.0109264
0.000201596
0.000179305
0.000146916
0.000148099
0.000222601
0.000193716
0.000248854
0.000147988
0.000150036
0.000177348
0.000145835
0.000180286
0.000186904
0.000145845
0.00017747
0.000160706
0.000147851
0.000148301
0.0598447
0.000172415
0.000160183
0.000199691
0.000176285
0.0782976
0.000146444
0.000165968
0.00014822
0.0643454
0.000147774
0.000174166
0.000148816
0.000148179
0.00016164
0.000147701
0.000156666
0.000152842
0.000145131
0.000171262
0.000149963
0.000186552
0.0783664
0.000172611
0.0182273
0.0450496
0.000153852
0.00021853
0.000148084
0.000149307
0.000168291
0.0425004
0.000208107
0.000167927
0.0498015
0.0414767
0.0858048
0.000149229
0.000146945
0.000153065
0.000224546
0.000217745
0.0403642
0.000149015
0.00015358
0.000151134
0.000150242
0.000218383
0.000201876
0.000217759
0.000418001
0.000147177
0.000147845
0.000149208
0.000150087
0.000186053
0.0784453
0.000147247
0.000172363
0.000146973
0.000147879
0.0561448
0.000200273
0.000206269
0.000197733
0.0209492
0.000146996
0.000152171
0.0538328
0.000197792
0.000228122
0.0629551
0.00021821
0.000146188
0.000156802
0.0367794
0.000146711
0.0497428
0.000152378
0.000147566
0.000181448
0.000148791
0.000153374
0.0600823
0.000146495
0.0377697
0.000228911
0.000189527
0.000170632
0.019203
0.000174671
0.000144869
0.0358829
0.0617127
0.000161593
0.000148027
0.000147803
0.000150751
0.000163394
0.000232764
0.000147515
0.000278381
0.000146756
0.00014656
0.000230166
0.000164217
0.000149235
0.000149763
0.0660306
0.000178619
0.000146536
0.000148176
0.000149269
0.000188301
0.0611687
0.000147582
0.000148243
0.000147515
0.00014798
0.000154544
0.000162504
0.000149051
0.0429758
0.000161415
0.000179795
0.000167828
0.000144968
0.0640315
0.000159116
0.000313961
0.000223664
0.000152323
0.000148124
0.000152272
0.000167936
0.039772
0.000159848
0.000158791
0.0773475
0.000154371
0.000181121
0.000148403
0.000148598
0.000149369
0.000147882
0.0482181
0.000232681
0.000148449
0.000147645
0.000152228
0.0329593
0.000176237
0.000146671
0.000152208
0.000147367
0.000154439
0.000211177
0.000152217
0.000148028
0.000144993
0.0393785
0.0189819
0.000146486
0.000200325
0.000171897
0.000179033
0.000146866
0.000148435
0.00016443
0.000150082
0.000146444
0.000153497
0.000274628
0.000199133
0.000181413
0.0570157
0.079969
0.000147905
0.000149578
0.000169274
0.00215832
0.000179119
0.000150113
0.0001487
0.000274135
0.00019248
0.000219167
0.000206511
0.000146568
0.037333
0.000148084
0.000293119
0.000148505
0.000149929
0.000337767
0.000176913
0.000162639
0.000168354
0.0580197
0.0146703
0.000145499
0.00014881
0.000311602
0.000151531
0.000146209
0.0001504
0.000143945
0.0380547
0.00014823
0.000148423
0.055833
0.0314969
0.000147212
0.000148369
0.000146907
0.000147585
0.0587981
0.0792624
0.000188793
0.000200894
0.0374465
0.0841085
0.000147373
0.0422204
0.0582666
0.0769252
0.0581983
0.000152142
0.000150277
0.00014873
0.000149342
0.000152336
0.000148528
0.000149905
0.0644864
0.000160485
0.000165289
0.000168898
0.0440744
0.00016275
0.038229
0.0506331
0.0709377
0.000169239
0.000148255
0.000179109
0.000367495
0.000152298
0.000146961
0.000149406
0.0308037
0.0483868
0.000167944
0.000147117
0.00349788
0.000146019
0.000162034
0.000148683
0.0411971
0.000144556
0.000147271
0.040287
0.000155204
0.0499482
0.000148546
0.000159102
0.000151546
0.000189238
0.000147836
0.000179529
0.000173042
0.000148109
0.000148847
0.0544011
0.000300086
0.000160276
0.000164739
0.000147771
0.000277756
0.000147145
0.000145369
0.000150133
0.000148092
0.000156352
0.000164927
0.000168885
0.000149323
0.000148122
0.0188981
0.000149627
0.000161826
0.000145432
0.00015084
0.000148575
0.000148449
0.0862358
0.000146942
0.000147537
0.032371
0.000150598
0.00300408
0.0101214
0.000151439
0.000148888
0.000251343
0.000181075
0.057449
0.000158016
0.00016198
0.000156399
0.000145645
0.0813115
0.000147942
0.0481479
0.000186095
0.000170778
0.000154542
0.000223748
0.000158466
0.000149052
0.000224794
0.000147805
0.000146946
0.000158147
0.0492016
0.0640714
0.0592615
0.0497793
0.000171445
0.000154435
0.000160353
0.000147706
0.000146711
0.000144127
0.000217286
0.0001514
0.000158507
0.000147278
0.0602767
0.0441258
0.000156086
0.000148112
0.00019477
0.0569344
0.000148474
0.000148282
0.0255591
0.000148056
0.00015765
0.000229783
0.000147873
0.00014997
0.000203024
0.0337783
0.000149771
0.000161022
0.000147929
0.000148014
0.000154292
0.000170132
0.0634055
0.000168269
0.000149076
0.000147592
0.000211018
0.0450334
0.000147663
0.000149876
0.043636
0.000147987
0.000199831
0.000152256
0.000147475
0.000153587
0.000226853
0.000146842
0.000149666
0.000149052
0.000153554
0.000147339
0.0393999
0.000149302
0.000172014
0.000171904
0.00014959
0.0759911
0.0544702
0.000145424
0.000166459
0.000145359
0.000168211
0.0771354
0.000160275
0.000147741
0.000154756
0.0408336
0.000147361
0.0583544
0.000153293
0.000151452
0.000189061
0.000148702
0.000146734
0.000156797
0.00170225
0.000167856
0.0492415
0.000147735
0.0742648
0.000204134
0.000150382
0.0456192
0.000180995
0.000181312
0.000152351
0.000147798
0.000147656
0.000158973
0.0803279
0.000178074
0.000145454
0.000149604
0.000153846
0.0195576
0.0510862
0.0787073
0.000144542
0.000149947
0.000181863
0.000145692
0.0162752
0.000148123
0.000148626
0.0191802
0.000146588
0.000169331
0.000146377
0.00014801
0.000175439
0.000146596
0.000146864
0.00014679
0.000148674
0.076851
0.000174004
0.0429024
0.0325899
0.000152411
0.000169785
0.000211128
0.000150134
0.000281161
0.0399161
0.000165879
0.000148208
0.000148829
0.000168091
0.000277467
0.000179012
0.000150227
0.000146184
0.0877009
0.085072
0.000147935
0.000178695
0.000221368
0.000189822
0.000216693
0.000149209
0.0264589
0.0739446
0.000146823
0.000147906
0.00506745
0.000332624
0.0001853
0.0534054
0.00015619
0.000174851
0.000149802
0.0124802
0.000164229
0.000157884
0.000165094
0.0807439
0.00014733
0.000149483
0.000154561
0.000187247
0.000146895
0.056985
0.000181561
0.0584415
0.00014733
0.000148246
0.000180435
0.000147105
0.000210202
0.000188667
0.0699865
0.00902676
0.0609749
0.000163097
0.000147831
0.000146768
0.000149615
0.0306856
0.000187904
0.0576305
0.00930938
0.000148014
0.000149627
0.000198949
0.000148876
0.000265024
0.00014781
0.000159936
0.0611922
0.000148413
0.00016122
0.000150517
0.00018933
0.000164822
0.000149305
0.0594245
0.000207044
0.000185322
0.0575171
0.000227158
0.0488441
0.000148243
0.0715516
0.0574417
0.0583742
0.000146127
0.000146038
0.000151464
0.000177449
0.0716955
0.0416604
0.000147739
0.000147773
0.000230852
0.0577582
0.00014981
0.000148351
0.000150131
0.000146151
0.000186395
0.0385651
0.000149226
0.000195954
0.0424562
0.00022967
0.0650943
0.000180854
0.000148194
0.000144497
0.000147049
0.000153048
0.0245323
0.000169191
0.000157427
0.000179959
0.0403572
0.000147694
0.000145394
0.000186187
0.0786498
0.000162041
0.0479729
0.000208167
0.00014959
0.000145583
0.000179121
0.0781322
0.000178516
0.000149305
0.000146987
0.000263391
0.0507055
0.000153136
0.00014838
0.0218731
0.000205585
0.000162992
0.000149775
0.000158798
0.000199344
0.000144376
0.0148824
0.0421747
0.000202082
0.000154215
0.000149615
0.000146826
0.000187273
0.00015327
0.000147788
0.000177156
0.000149647
0.000163015
0.0123269
0.0594845
0.0718044
0.000147663
0.000147731
0.0497907
0.000149903
0.0330615
0.000312699
0.000148327
0.000149179
0.000160471
0.000193543
0.0791988
0.000184056
0.0237671
0.000147735
0.0001457
0.000204908
0.000146359
0.000173679
0.000147697
0.000162276
0.000181761
0.00015308
0.000160998
0.00104524
0.000147948
0.000157298
0.0379759
0.000200316
0.0332262
0.000147782
0.000148532
0.000150746
0.000148465
0.000152093
0.000148858
0.000151214
0.000161252
0.0753998
0.000146865
0.000581933
0.000162212
0.000147837
0.000206107
0.000263454
0.0474659
0.00020044
0.000153169
0.0491014
0.000149349
0.000168433
0.000147309
0.000147591
0.000145207
0.00015007
0.000188993
0.0558448
0.000148901
0.000149934
0.0383082
0.000173808
0.0704972
0.00016118
0.00014798
0.000150587
0.000164366
0.000170484
0.000157576
0.000190977
0.000157396
0.000156269
0.000379037
0.00017049
0.000148142
0.0381684
0.000150655
0.00018807
0.0384057
0.000183536
0.0319705
0.0412226
0.000154331
0.0826281
0.000154299
0.000159342
0.000157431
0.000152371
0.000152132
0.0787668
0.000171787
0.0575863
0.000152093
0.000148355
0.000149383
0.000222473
0.000148345
0.000293483
0.000150793
0.000188007
0.000147441
0.000145062
0.000146295
0.0506163
0.000170711
0.000148954
0.000148833
0.000163876
0.00014852
0.00017445
0.000146289
0.000147311
0.000145647
0.041846
0.000223135
0.000173322
0.000149112
0.000146887
0.000149389
0.00014985
0.000153257
0.000187973
0.000196462
0.000149172
0.000148464
0.000207229
0.000148261
0.0854404
0.00014875
0.000149794
0.05946
0.000158936
0.000154089
0.000258307
0.000146723
0.000174846
0.0276104
0.000148225
0.000149646
0.000148072
0.000151696
0.000147533
0.000162339
0.000276446
0.0536502
0.000149461
0.000171496
0.000188259
0.000281931
0.000149071
0.000147766
0.000146833
0.000162134
0.000223799
0.00015851
0.000149202
0.0488892
0.000163692
0.000145294
0.0830773
0.0636384
0.000158614
0.000147338
0.000251916
0.000148507
0.000145225
0.0151899
0.0344655
0.02665
0.000148263
0.000147756
0.00016018
0.0249174
0.000147273
0.00016197
0.000156592
0.000181716
0.000163937
0.000178029
0.000144307
0.00016233
0.0443819
0.000165965
0.000147413
0.000147658
0.000164788
0.0291806
0.00016546
0.000520936
0.000147875
0.000150051
0.00017443
0.000154843
0.000148293
0.0439879
0.000191603
0.0112261
0.00015519
0.00014622
0.0774561
0.000146611
0.0425303