/*--------------------------------*- C++ -*----------------------------------*\
| =========                 |                                                 |
| \\      /  F ield         | OpenFOAM: The Open Source CFD Toolbox           |
|  \\    /   O peration     | Version:  v2012                                 |
|   \\  /    A nd           | Website:  www.openfoam.com                      |
|    \\/     M anipulation  |                                                 |
\*---------------------------------------------------------------------------*/
FoamFile
{
    version     2.0;
    format      ascii;
    class       volScalarField;
    location    "400";
    object      k_0;
}
// * * * * * * * * * * * * * * * * * * * * * * * * * * * * * * * * * * * * * //

dimensions      [0 2 -2 0 0 0 0];


internalField   nonuniform List<scalar> 
53008
(
0.000159942
0.00128669
0.000152343
0.000209935
0.0490959
0.0428357
0.000172741
0.000159729
0.000163294
0.000149908
0.000197687
0.000174443
0.0463061
0.0222751
0.000149434
0.000146693
0.00015674
0.000146757
0.0840927
0.000158598
0.000154651
0.000164647
0.000148022
0.000172047
0.000153403
0.000343731
0.0201516
0.000172816
0.000261065
0.000247991
0.00041408
0.0162834
0.0367461
0.000150663
0.000147852
0.000160636
0.000154204
0.000149781
0.000174988
0.000151632
0.000154017
0.0587862
0.000198101
0.0787066
0.000158934
0.000147978
0.000147657
0.000153564
0.000212349
0.00014717
0.000151761
0.000157065
0.000157696
0.000148191
0.000181775
0.0845247
0.00015823
0.000147551
0.000289411
0.00017767
0.000150466
0.000158912
0.0809611
0.0277901
0.000194666
0.000147779
0.000245401
0.000147522
0.000146293
0.00014784
0.0607725
0.000145158
0.000149134
0.0396935
0.000345375
0.00014801
0.000149806
0.0447497
0.00014615
0.0541745
0.0426308
0.0481157
0.000210926
0.000209835
0.00016548
0.000147884
0.000174139
0.000162997
0.000147791
0.00017543
0.0538391
0.075653
0.0482876
0.00019037
0.0652245
0.000203746
0.0593558
0.000152163
0.0509564
0.0782586
0.000158582
0.000151543
0.00020026
0.000172967
0.000160717
0.0760314
0.0566074
0.000160484
0.000196411
0.000145125
0.000205498
0.0306829
0.000149847
0.0704341
0.0528057
0.000155206
0.000155838
0.000145719
0.00306397
0.0518318
0.0496714
0.000149073
0.000151153
0.000806547
0.044217
0.000148114
0.0477536
0.000222843
0.000171601
0.000148911
0.0126388
0.000148483
0.000209909
0.000154394
0.000145608
0.00026608
0.000148753
0.0461975
0.000147787
0.000147209
0.00014652
0.000147152
0.000166479
0.000274692
0.000172241
0.000151878
0.00015568
0.000147739
0.000146727
0.000150399
0.000149149
0.0805909
0.0468109
0.000164776
0.000146669
0.000157414
0.0529684
0.0733062
0.000152324
0.000286832
0.000181035
0.0001472
0.000146672
0.0769909
0.000153651
0.000149958
0.000147262
0.00015859
0.000147377
0.000151291
0.00016171
0.0535825
0.0753253
0.000147247
0.000558065
0.000147177
0.000165597
0.000202546
0.000173634
0.000165903
0.000151067
0.000153496
0.0792285
0.000149936
0.000174397
0.0298683
0.0827491
0.0767065
0.0526202
0.000147773
0.0453879
0.000150168
0.00017856
0.0480406
0.000147846
0.000152678
0.000160707
0.000147805
0.000148745
0.000155072
0.000186152
0.000148975
0.000160687
0.000147763
0.00020676
0.0368168
0.000156664
0.000148593
0.000174302
0.000145734
0.0588368
0.00015152
0.000284531
0.000152452
0.000195975
0.000148138
0.000148648
0.000147997
0.000180405
0.00014821
0.000230443
0.000145273
0.000208579
0.000145265
0.000153426
0.000199504
0.000151368
0.000170386
0.00016346
0.00014652
0.0342548
0.045024
0.000145663
0.0487411
0.000186117
0.0759832
0.000152176
0.000145624
0.0287503
0.00014673
0.000148408
0.000150611
0.000262728
0.000150511
0.000161125
0.000149771
0.000194686
0.000228825
0.000148068
0.00017711
0.000152816
0.000150094
0.000147891
0.000154828
0.000150192
0.0815086
0.000266478
0.000149565
0.000180445
0.000158065
0.000442566
0.000279248
0.000158335
0.000152799
0.00014758
0.0196759
0.0754719
0.000147831
0.084397
0.000210021
0.000145959
0.000154177
0.000148886
0.000262565
0.0412693
0.000144294
0.00020649
0.0579893
0.000179424
0.000150891
0.000148004
0.000149752
0.000179355
0.000173957
0.000152329
0.00017491
0.000171105
0.0342238
0.000174199
0.000149837
0.000621203
0.0572111
0.000185915
0.0450301
0.000173855
0.000147933
0.000175842
0.000206173
0.0834732
0.000153293
0.000185859
0.0526966
0.0591652
0.0385995
0.00014952
0.00184341
0.000150227
0.000149496
0.000153374
0.000181866
0.0353361
0.000263638
0.0202805
0.04145
0.000193951
0.000173787
0.000149965
0.000148547
0.000144324
0.00017414
0.000205703
0.061219
0.00015998
0.0427545
0.000508971
0.000149045
0.0525874
0.00016126
0.000146699
0.000162471
0.0797335
0.000147835
0.000149708
0.000150235
0.000145961
0.000145317
0.000178412
0.000146938
0.0587166
0.000151462
0.000149762
0.000147427
0.000181
0.000148764
0.000149509
0.0168865
0.000172871
0.046124
0.000260399
0.0677565
0.00021827
0.042702
0.000152009
0.000148177
0.0215008
0.0823234
0.000147685
0.00014766
0.000442895
0.0753755
0.000148557
0.000171699
0.000149413
0.018525
0.000182461
0.0495007
0.000144331
0.000170243
0.000156804
0.00015218
0.0836092
0.000158954
0.000171701
0.000230255
0.000182498
0.000156932
0.000179181
0.00018204
0.0179496
0.078376
0.000149826
0.000151334
0.000164789
0.00015842
0.0736709
0.000146473
0.000154662
0.0578076
0.000147684
0.0493871
0.0566209
0.000147353
0.000151336
0.000154549
0.000151451
0.00015421
0.000147248
0.000186207
0.000165354
0.0606161
0.00015984
0.000160944
0.000153312
0.0487731
0.000147373
0.000148221
0.000167088
0.000153707
0.000148734
0.000161009
0.000144361
0.000211085
0.000146378
0.000153664
0.000150722
0.0500115
0.000148629
0.0196456
0.000153268
0.000147655
0.000146164
0.000149005
0.000165989
0.000153534
0.000229708
0.000149198
0.000158797
0.00015864
0.000216943
0.000144315
0.000487618
0.0619504
0.000611727
0.000147419
0.000209735
0.000159967
0.0329599
0.000170996
0.0850698
0.000170706
0.000147862
0.000188886
0.000194001
0.000179744
0.000147194
0.000181372
0.0281626
0.000426568
0.000152027
0.000263105
0.0596623
0.000154015
0.0450331
0.000166613
0.000153253
0.000212004
0.000151493
0.000147815
0.000151897
0.000148509
0.000254189
0.0558906
0.000144341
0.00015877
0.000229085
0.000165312
0.000149011
0.0341851
0.00014786
0.000149104
0.000178999
0.000156721
0.000172437
0.0505035
0.000269743
0.000196516
0.000151504
0.000150602
0.000180504
0.0798029
0.00959742
0.000221886
0.0001547
0.000158975
0.000200317
0.000146143
0.000156028
0.000154471
0.000193551
0.000162928
0.00015311
0.000148826
0.0446429
0.000149558
0.000147631
0.000208979
0.000149853
0.0634058
0.00016351
0.000149855
0.000174582
0.000153544
0.0472212
0.000199546
0.000147482
0.000173315
0.000209808
0.000177034
0.000165328
0.000178747
0.0771901
0.000177095
0.000148724
0.000147818
0.000198929
0.0565005
0.00015929
0.000149819
0.000148827
0.0421439
0.000149382
0.0371217
0.000148572
0.000174888
0.000164906
0.0280006
0.000185253
0.000159242
0.0300895
0.000149885
0.00024518
0.000146881
0.000146442
0.0669698
0.000147853
0.000152828
0.000178265
0.000162158
0.000146604
0.000147569
0.0001704
0.0600962
0.000173947
0.00016565
0.04572
0.000158461
0.000199578
0.000146803
0.000147565
0.000181387
0.0632805
0.000247602
0.000149449
0.0779824
0.00015512
0.000147182
0.0730477
0.000154236
0.000148284
0.000150882
0.000172899
0.0793549
0.000178196
0.000190751
0.000159227
0.000165091
0.000200553
0.000149368
0.000151234
0.000177793
0.000157639
0.0209101
0.000207796
0.000170279
0.000156091
0.000146221
0.000159037
0.00017823
0.000188029
0.000149568
0.00015414
0.000145396
0.000159235
0.000174007
0.000256466
0.00827227
0.000148206
0.000152544
0.000227229
0.000150274
0.000148359
0.000147895
0.000164779
0.000156995
0.0285962
0.000148924
0.0419029
0.000269116
0.00014767
0.0733278
0.0614493
0.00018483
0.000148218
0.000189485
0.000221392
0.0571752
0.00016076
0.000162291
0.000172869
0.000151609
0.000149671
0.000149368
0.0657654
0.000147761
0.0419832
0.000147849
0.000144893
0.00014665
0.000174639
0.000145754
0.0836798
0.000491318
0.000148698
0.0398079
0.000149719
0.000145126
0.000145328
0.000148979
0.000200247
0.000149561
0.000166736
0.000198252
0.0435761
0.00705058
0.000149831
0.000166735
0.000147248
0.000154435
0.00017415
0.0439536
0.0364607
0.00583503
0.0145247
0.000146571
0.000144333
0.000148941
0.0001479
0.00019394
0.000148129
0.000148186
0.000148873
0.000145972
0.000158941
0.000156566
0.000146953
0.0695797
0.000149466
0.000149271
0.000145978
0.000148097
0.000217679
0.0624161
0.000174563
0.000169483
0.0667466
0.0389949
0.0225164
0.0874561
0.000150395
0.000146935
0.0757753
0.0606434
0.000147213
0.00924779
0.000147832
0.000150295
0.000146015
0.0624494
0.000173154
0.000149157
0.000200309
0.000147783
0.000151627
0.0695649
0.000157808
0.000149824
0.0418964
0.000146167
0.000157137
0.000156581
0.000154457
0.00016494
0.000457255
0.00014726
0.000146947
0.000149542
0.0397605
0.000199839
0.00015107
0.000145942
0.000299102
0.000144354
0.000177701
0.00014812
0.000147838
0.000149636
0.000147812
0.000149002
0.000148194
0.000147649
0.000153408
0.000205451
0.000148131
0.000206201
0.000150948
0.0426191
0.000149627
0.000692367
0.000149565
0.0602713
0.00014993
0.000148286
0.000687166
0.000176509
0.0657757
0.000170531
0.00016541
0.0561794
0.000199937
0.000147966
0.0408952
0.000160494
0.000151594
0.0882216
0.000149214
0.000206479
0.00020056
0.000156888
0.000210464
0.00025392
0.000147584
0.000183917
0.000148121
0.000157262
0.000148081
0.000158075
0.000164835
0.00014781
0.000158046
0.000149739
0.000290475
0.000181414
0.000157758
0.000161792
0.000158269
0.000149508
0.0431808
0.00019242
0.000178055
0.000211034
0.0430428
0.000221803
0.000149845
0.0441893
0.000155074
0.000147685
0.0426018
0.00144903
0.000149748
0.000275686
0.0401694
0.00019079
0.000149548
0.0304158
0.000197317
0.041476
0.000167239
0.000147698
0.0772793
0.000181141
0.000293236
0.000151058
0.00014972
0.000158648
0.000611489
0.000152384
0.000584117
0.000214024
0.000150324
0.000170653
0.0400387
0.0578241
0.000161003
0.029649
0.000151429
0.000215985
0.0626341
0.000148109
0.0426373
0.000152466
0.000148902
0.0468916
0.000151861
0.00021709
0.000167683
0.000158203
0.000147587
0.00020656
0.000182175
0.000153434
0.000147855
0.0400667
0.000146677
0.0255948
0.000162728
0.000324163
0.000147947
0.000149653
0.0509895
0.000192584
0.000242229
0.0363242
0.000177716
0.0384507
0.000177167
0.000151081
0.0415993
0.000154465
0.00014852
0.000256391
0.000200127
0.000154502
0.000148441
0.000146304
0.000147635
0.000148154
0.000196485
0.0585499
0.0484983
0.000147311
0.000163378
0.000151243
0.000231518
0.00014767
0.0561439
0.0329268
0.0401589
0.000215854
0.000160152
0.000147223
0.0603064
0.000147825
0.000150253
0.000150206
0.000150475
0.00016251
0.000161074
0.000150283
0.000150241
0.000148013
0.000149955
0.000147871
0.000147242
0.000175553
0.000182509
0.000147849
0.000148194
0.0341651
0.0774271
0.000156995
0.000380886
0.000174852
0.000166008
0.000212763
0.000146812
0.000147831
0.000148075
0.000147766
0.000150497
0.000172158
0.000147369
0.000145623
0.000147247
0.000147848
0.0417967
0.000165471
0.000145297
0.000154527
0.000148539
0.000174367
0.00014551
0.0344668
0.000267187
0.00014793
0.0587675
0.000536483
0.000211755
0.000177545
0.0420763
0.0655284
0.000148103
0.000147645
0.000150249
0.0419306
0.000198562
0.000152349
0.0195675
0.0119093
0.000146305
0.000146905
0.000150042
0.000164326
0.000155963
0.00014795
0.00014757
0.00014762
0.00014731
0.0347149
0.000205455
0.000148867
0.0267461
0.0535792
0.000149207
0.000147722
0.000151443
0.000166661
0.0347944
0.00293948
0.0568588
0.000189227
0.000189465
0.000426417
0.000311769
0.0293754
0.000154582
0.000178489
0.000158329
0.000158449
0.0435809
0.000147598
0.0185722
0.000233972
0.00015094
0.000167177
0.000147683
0.0686536
0.000150979
0.000200543
0.000398319
0.000146148
0.0843655
0.000146667
0.000149776
0.0856814
0.000154422
0.00014631
0.034055
0.059654
0.00014851
0.000207287
0.000153671
0.000177758
0.000148216
0.000144343
0.0326799
0.0454221
0.000198655
0.000147764
0.000152862
0.0457339
0.000157247
0.000146918
0.000148831
0.000153458
0.000146841
0.000199495
0.000154776
0.043721
0.000165909
0.000171564
0.0678983
0.000148421
0.000148212
0.000166728
0.000248192
0.000188948
0.073935
0.0338232
0.000198345
0.0404151
0.000147941
0.000147328
0.000171026
0.000150898
0.000146172
0.000152952
0.000158588
0.000287468
0.00015426
0.000165949
0.000236208
0.00015971
0.0469504
0.000148375
0.000157662
0.00014677
0.000148066
0.000179035
0.000148102
0.000162171
0.000220528
0.000190437
0.0473005
0.000147293
0.000171899
0.000196985
0.000145494
0.000147742
0.000209376
0.000146879
0.000148159
0.0402433
0.000316217
0.000191179
0.00017377
0.0387017
0.000167642
0.0327867
0.000161457
0.000147254
0.000186994
0.000148205
0.000264125
0.0362416
0.000147999
0.000176706
0.0001546
0.000181449
0.0441428
0.00014798
0.000207982
0.000289299
0.000157353
0.000287864
0.000216033
0.00411399
0.000164846
0.000159817
0.000199927
0.000163151
0.000145554
0.000147382
0.000168274
0.0611225
0.000146489
0.00015828
0.0751716
0.000162813
0.000154721
0.087221
0.000148549
0.000166991
0.0745409
0.0403675
0.0353182
0.000147445
0.000153525
0.000146974
0.000154842
0.000153447
0.000216879
0.0532791
0.000157303
0.000205456
0.000153233
0.0401037
0.000145718
0.000147947
0.00015738
0.000147515
0.0434241
0.0407513
0.000168863
0.000164948
0.000149152
0.000195939
0.000147774
0.000149506
0.000156539
0.00014811
0.000206418
0.000155796
0.000178361
0.000233173
0.000144045
0.000164543
0.000160672
0.000147286
0.036336
0.000150741
0.000180221
0.0893677
0.000207689
0.000146511
0.0673365
0.000161091
0.000149171
0.000148702
0.00442659
0.000149082
0.0421615
0.000149285
0.000147296
0.0651518
0.000182441
0.000180471
0.000145735
0.000157246
0.0428083
0.000146825
0.000147757
0.0468744
0.034276
0.000180172
0.0749009
0.00014812
0.000222443
0.00017294
0.00015098
0.00017787
0.0565091
0.080515
0.000181682
0.000148157
0.0801811
0.000146988
0.0339137
0.030311
0.000147788
0.05435
0.034723
0.000173616
0.0533397
0.000148291
0.000145077
0.000144026
0.000180638
0.0839741
0.000206719
0.00015072
0.0258551
0.000149997
0.000148793
0.000173283
0.000147683
0.000150708
0.000145937
0.000186891
0.0001487
0.000153082
0.0426324
0.024792
0.000172178
0.00014822
0.000149842
0.0843264
0.000198059
0.000189613
0.00014531
0.000169819
0.000168642
0.0575721
0.000148791
0.0391595
0.000190617
0.000150501
0.000147994
0.00014973
0.00018934
0.0638808
0.00014929
0.00015935
0.000152838
0.000149221
0.000148091
0.07422
0.0649888
0.0466361
0.00014841
0.000180375
0.000207066
0.0594629
0.000181791
0.000221462
0.000149661
0.0893179
0.000161436
0.000177662
0.0412955
0.000149269
0.000148775
0.000153487
0.000147853
0.0263945
0.000147683
0.000190261
0.0238115
0.000144393
0.000148082
0.0538393
0.000145279
0.000146602
0.000166009
0.00015057
0.000161738
0.000172882
0.000148476
0.000147273
0.000189285
0.000144946
0.000147293
0.0306961
0.000155173
0.0001472
0.000152281
0.000149157
0.000147391
0.000146968
0.0742534
0.000147006
0.000189781
0.000187043
0.000147307
0.000149865
0.000166478
0.000153245
0.000146006
0.000188567
0.0380449
0.000149694
0.000147833
0.000148073
0.000159333
0.000152108
0.0797268
0.000197048
0.000145572
0.000149413
0.0394696
0.000154527
0.0834583
0.000154619
0.0642142
0.000151041
0.000173421
0.0797029
0.039319
0.000148008
0.000158208
0.000145403
0.000150935
0.00387885
0.000171714
0.0428179
0.000167095
0.000157475
0.000162416
0.000148708
0.0595444
0.000217816
0.000148786
0.0410276
0.000154228
0.000147374
0.000148183
0.000148647
0.000158449
0.000155085
0.0769841
0.000148466
0.0215334
0.0648736
0.00017261
0.000147012
0.0893193
0.0441857
0.000148709
0.000198394
0.0772167
0.000148835
0.000209256
0.000161606
0.000167949
0.000178028
0.000309786
0.000149998
0.0477561
0.000196955
0.000145765
0.000147278
0.000145684
0.00015728
0.000202577
0.0459051
0.000145458
0.000149801
0.000148096
0.0416481
0.000160298
0.000150045
0.000149166
0.0568906
0.0890494
0.000254514
0.043589
0.059874
0.000150596
0.000208256
0.000148474
0.000166818
0.000147321
0.000223391
0.000149867
0.000164645
0.000155364
0.000149893
0.0747138
0.00014779
0.000161609
0.0785177
0.000179371
0.000148807
0.000147735
0.00014777
0.0613593
0.000190627
0.00017915
0.000155048
0.000168075
0.0412777
0.000210659
0.000149937
0.0405977
0.000157215
0.000154793
0.0637477
0.000148824
0.0569652
0.000148508
0.0441555
0.000151124
0.000148246
0.0837312
0.000162991
0.000150059
0.000147853
0.039963
0.0796718
0.00017532
0.00017405
0.000188911
0.0695521
0.0444643
0.0870311
0.0458035
0.000151909
0.000146995
0.000167096
0.000164957
0.000149455
0.000147732
0.000162425
0.000148011
0.000148092
0.0557711
0.000155243
0.000213199
0.000158194
0.000190304
0.000148658
0.000201638
0.041328
0.000148673
0.00021359
0.000147355
0.000208183
0.000148785
0.0689472
0.000167978
0.000174382
0.000146297
0.000147226
0.000295762
0.0419079
0.00014762
0.0560134
0.0001508
0.000147952
0.000148104
0.000161316
0.0033814
0.000199476
0.000148762
0.000156801
0.0443213
0.000148433
0.000168396
0.000147515
0.0421392
0.000148164
0.000144968
0.000156319
0.000169524
0.000154421
0.000221364
0.000148675
0.000156199
0.000174959
0.000221976
0.000148084
0.0540625
0.00014711
0.0795192
0.0582476
0.000293414
0.000148136
0.000437348
0.000159745
0.000148208
0.000147869
0.000147364
0.000184314
0.000147885
0.000227672
0.00017274
0.000193824
0.000146503
0.000144293
0.000145301
0.0632247
0.000160958
0.0802276
0.000251137
0.000147763
0.0594137
0.000208423
0.000150161
0.0439707
0.000148036
0.0001678
0.000156365
0.000155193
0.000150493
0.000197758
0.000177129
0.000146456
0.000220761
0.000148058
0.000148741
0.000150969
0.000148119
0.000150186
0.000152233
0.000148898
0.0786324
0.000190272
0.00021086
0.000148758
0.000150269
0.000218969
0.000165954
0.000158939
0.000145609
0.000148182
0.000179745
0.0053436
0.000149456
0.000232394
0.000148859
0.0636176
0.000192645
0.000147433
0.000145943
0.000200427
0.000166577
0.000152283
0.0607994
0.000148178
0.000152276
0.000610804
0.000172417
0.000146703
0.000162253
0.00014853
0.000171385
0.000149306
0.000218171
0.000150121
0.000157137
0.000152569
0.000169084
0.00015066
0.0866961
0.0414608
0.000148172
0.000150679
0.000229569
0.0315511
0.000148045
0.000150885
0.000177059
0.0325035
0.000148307
0.000156475
0.000190938
0.000148956
0.000150931
0.000174799
0.000149738
0.000149488
0.0544734
0.00984249
0.000151265
0.000147304
0.000158846
0.000145685
0.0169925
0.0364483
0.0497248
0.000158139
0.000192201
0.0826838
0.000152229
0.0621626
0.000226836
0.000148774
0.000147721
0.000167188
0.000145796
0.000152418
0.000248853
0.000169251
0.000154382
0.000185791
0.000162922
0.000168639
0.000207406
0.0523793
0.000146599
0.000158549
0.0496077
0.000222337
0.000162537
0.000204294
0.000179775
0.000148526
0.000220097
0.000164484
0.000150612
0.00015401
0.00014748
0.000264933
0.000149859
0.000147931
0.000147918
0.00016452
0.0541728
0.000196532
0.000227481
0.0519926
0.000162809
0.000635371
0.000159732
0.000148874
0.000159376
0.000167416
0.000152936
0.0357547
0.00022595
0.000153138
0.000199157
0.0216187
0.000199078
0.00014857
0.000157341
0.0322442
0.000147883
0.000147956
0.0371619
0.000151908
0.00014898
0.000171679
0.000150295
0.000161897
0.000150859
0.00018782
0.000145665
0.000883814
0.000532125
0.000177876
0.000148805
0.000198233
0.000209741
0.000148624
0.000160727
0.000147892
0.000148851
0.000152293
0.000147604
0.000145921
0.00637808
0.000233965
0.000148393
0.000149313
0.000149359
0.0596988
0.0425882
0.00014525
0.000222507
0.00016244
0.000203158
0.00014889
0.0001546
0.000147673
0.000147331
0.000151379
0.000148321
0.000166148
0.0525757
0.00019125
0.000190504
0.000147675
0.00014757
0.0307085
0.000177675
0.0537079
0.000191307
0.0565125
0.000147801
0.000163491
0.000162106
0.000168405
0.0589309
0.000190171
0.000145149
0.000145768
0.0376467
0.000206104
0.000145791
0.00017328
0.0625163
0.000146926
0.000148935
0.0520408
0.000152424
0.000211737
0.0619064
0.000153501
0.000191197
0.000153747
0.000175107
0.0394425
0.000166412
0.000147934
0.000173456
0.000198064
0.000147479
0.000166089
0.000188523
0.000150919
0.0409421
0.0563866
0.00101991
0.057953
0.000147741
0.000149101
0.000224129
0.000223302
0.0520146
0.0744211
0.056283
0.000172125
0.000152945
0.000143962
0.000148576
0.000165973
0.000147742
0.0837525
0.000191136
0.0691457
0.000146967
0.00014783
0.000148541
0.000271289
0.0001621
0.000152841
0.000146403
0.000174987
0.000149475
0.0751567
0.0611481
0.0478305
0.0534897
0.000186531
0.000148908
0.0332301
0.000149266
0.000203127
0.000181105
0.000148543
0.0603887
0.000207398
0.000179046
0.000146938
0.000151841
0.000146849
0.0575144
0.0485867
0.000146453
0.000147926
0.0477694
0.000147889
0.0109264
0.0002016
0.000179305
0.000146916
0.000148099
0.000222588
0.000193719
0.00024886
0.000147988
0.000150036
0.000177348
0.000145835
0.000180287
0.000186913
0.000145845
0.00017747
0.000160706
0.000147851
0.000148302
0.0598438
0.000172415
0.000160183
0.000199695
0.000176285
0.0782973
0.000146444
0.000165968
0.00014822
0.0643513
0.000147773
0.000174166
0.000148816
0.000148179
0.00016164
0.000147701
0.000156666
0.000152842
0.000145131
0.000171262
0.000149963
0.000186551
0.078365
0.000172611
0.0182274
0.0450479
0.000153852
0.000218529
0.000148084
0.000149307
0.000168291
0.0425012
0.000208113
0.000167926
0.0498011
0.0414667
0.0858032
0.000149229
0.000146945
0.000153065
0.000224467
0.000217752
0.040354
0.000149015
0.00015358
0.000151134
0.000150241
0.00021839
0.000201879
0.000217767
0.000417849
0.000147177
0.000147845
0.000149208
0.000150087
0.000186048
0.0784442
0.000147247
0.000172363
0.000146972
0.000147879
0.056143
0.000200276
0.000206262
0.000197736
0.0209426
0.000146996
0.000152171
0.0538351
0.000197794
0.00022812
0.0629562
0.000218217
0.000146188
0.000156802
0.0367793
0.000146711
0.0497363
0.000152378
0.000147566
0.000181448
0.000148791
0.000153374
0.0600819
0.000146495
0.03777
0.000228915
0.000189526
0.000170632
0.0192024
0.000174671
0.000144869
0.0358833
0.0617186
0.000161593
0.000148027
0.000147803
0.00015075
0.000163394
0.00023243
0.000147515
0.000278397
0.000146756
0.00014656
0.000229558
0.000164217
0.000149235
0.000149763
0.0660376
0.00017862
0.000146536
0.000148176
0.000149269
0.000188303
0.0611678
0.000147582
0.000148243
0.000147515
0.00014798
0.000154544
0.000162504
0.000149051
0.0429752
0.000161415
0.000179795
0.000167828
0.000144968
0.0640371
0.000159116
0.000313928
0.000223669
0.000152323
0.000148123
0.000152272
0.000167936
0.0397716
0.000159849
0.000158791
0.077346
0.000154371
0.000181122
0.000148403
0.000148598
0.000149369
0.000147882
0.0482147
0.000232675
0.000148449
0.000147645
0.000152228
0.0329593
0.000176237
0.000146671
0.000152208
0.000147367
0.000154439
0.000211176
0.000152216
0.000148028
0.000144993
0.0393784
0.018975
0.000146486
0.000200323
0.000171927
0.000179033
0.000146866
0.000148435
0.00016443
0.000150083
0.000146444
0.000153497
0.000274595
0.000199136
0.000181334
0.057017
0.0799727
0.000147905
0.000149578
0.000169274
0.0021724
0.00017912
0.000150113
0.0001487
0.00027415
0.00019248
0.00021917
0.000206516
0.000146568
0.037334
0.000148084
0.000293047
0.000148505
0.000149929
0.000338436
0.000176913
0.00016264
0.000168356
0.0580199
0.0146628
0.000145499
0.00014881
0.000311613
0.000151531
0.000146209
0.0001504
0.000143945
0.0380543
0.00014823
0.000148423
0.0558323
0.0314969
0.000147212
0.000148369
0.000146907
0.000147585
0.0587963
0.079261
0.000188854
0.000200897
0.0374394
0.0841106
0.000147374
0.0422197
0.0582646
0.0769261
0.0581968
0.000152142
0.000150277
0.00014873
0.000149342
0.000152336
0.000148528
0.000149905
0.0644845
0.000160485
0.000165289
0.000168898
0.044073
0.00016275
0.0382286
0.0506325
0.0709388
0.000169239
0.000148255
0.000179109
0.000367084
0.000152298
0.000146961
0.000149406
0.0308038
0.0483774
0.000167944
0.000147117
0.00349796
0.000146019
0.000162034
0.000148683
0.0411959
0.000144556
0.000147271
0.0402765
0.000155204
0.049949
0.000148546
0.000159102
0.000151546
0.000189237
0.000147836
0.000179529
0.000173008
0.000148109
0.000148847
0.0544018
0.000300135
0.000160276
0.000164741
0.000147771
0.000277729
0.000147145
0.000145369
0.000150133
0.000148092
0.000156352
0.000164927
0.000168885
0.000149323
0.000148122
0.0188982
0.000149627
0.000161826
0.000145432
0.00015084
0.000148575
0.000148449
0.0862342
0.000146942
0.000147537
0.0323711
0.000150598
0.00299546
0.0101215
0.000151439
0.000148888
0.00025135
0.000181075
0.0574492
0.000158016
0.000161981
0.000156399
0.000145645
0.0813114
0.000147942
0.048148
0.000186095
0.000170778
0.000154542
0.000223781
0.000158466
0.000149052
0.000224802
0.000147805
0.000146946
0.000158147
0.0491977
0.0640692
0.0592692
0.0497798
0.000171445
0.000154435
0.000160354
0.000147707
0.000146711
0.000144127
0.000217288
0.0001514
0.000158507
0.000147278
0.0602726
0.0441251
0.000156086
0.000148112
0.000194773
0.0569421
0.000148474
0.000148282
0.0255592
0.000148056
0.00015765
0.000229613
0.000147873
0.00014997
0.000203006
0.0337782
0.000149771
0.000161023
0.000147929
0.000148014
0.000154292
0.000170132
0.0634061
0.000168269
0.000149076
0.000147592
0.000211019
0.0450385
0.000147663
0.000149876
0.0436351
0.000147987
0.000199829
0.000152256
0.000147475
0.000153587
0.000226899
0.000146842
0.000149666
0.000149052
0.000153554
0.000147339
0.039399
0.000149302
0.000172028
0.000171952
0.00014959
0.0759897
0.0544707
0.000145424
0.000166459
0.000145359
0.000168212
0.0771343
0.000160274
0.000147741
0.000154756
0.0408327
0.000147361
0.0583498
0.000153293
0.000151452
0.000189061
0.000148702
0.000146734
0.000156797
0.00169702
0.000167858
0.0492422
0.000147735
0.0742683
0.000204128
0.000150382
0.0456186
0.000180996
0.000181312
0.000152351
0.000147798
0.000147656
0.000158973
0.0803313
0.000178063
0.000145454
0.000149604
0.000153846
0.0195591
0.0510784
0.0787057
0.000144542
0.000149947
0.000181813
0.000145692
0.0162772
0.000148123
0.000148626
0.0191802
0.000146588
0.000169331
0.000146377
0.00014801
0.000175439
0.000146596
0.000146864
0.00014679
0.000148674
0.07685
0.000174015
0.0429018
0.0325904
0.000152411
0.000169785
0.000211133
0.000150134
0.000281264
0.0399157
0.00016588
0.000148208
0.000148829
0.000168091
0.000277228
0.000179012
0.000150227
0.000146184
0.0877008
0.0850737
0.000147935
0.000178695
0.000221378
0.000189822
0.000216694
0.000149209
0.0264471
0.0739459
0.000146823
0.000147906
0.00507387
0.000332637
0.000185299
0.0534057
0.000156191
0.000174851
0.000149802
0.0124871
0.00016423
0.000157885
0.000165094
0.0807425
0.00014733
0.000149483
0.000154561
0.000187238
0.000146895
0.0569851
0.000181561
0.0584372
0.00014733
0.000148246
0.000180435
0.000147105
0.000210207
0.000188668
0.0699843
0.00903376
0.0609743
0.000163097
0.000147831
0.000146768
0.000149615
0.0306855
0.000187905
0.0576288
0.00931964
0.000148014
0.000149627
0.000198949
0.000148876
0.000264981
0.00014781
0.000159936
0.0611915
0.000148413
0.00016122
0.000150517
0.000189332
0.000164822
0.000149305
0.0594248
0.000207049
0.000185322
0.0575164
0.000227134
0.0488443
0.000148243
0.0715536
0.0574372
0.0583714
0.000146127
0.000146038
0.000151464
0.000177449
0.0716978
0.0416502
0.000147739
0.000147774
0.000230867
0.0577552
0.00014981
0.000148351
0.000150131
0.000146151
0.000186394
0.0385646
0.000149226
0.000195954
0.0424576
0.000229685
0.0650951
0.000180854
0.000148194
0.000144497
0.000147049
0.000153048
0.0245202
0.000169191
0.000157427
0.00017996
0.0403563
0.000147694
0.000145394
0.000186189
0.0786503
0.000162041
0.0479731
0.000208164
0.00014959
0.000145583
0.000179121
0.0781308
0.000178515
0.000149305
0.000146987
0.000263373
0.050708
0.000153136
0.00014838
0.0218603
0.000205584
0.000162992
0.000149775
0.000158798
0.000199358
0.000144376
0.0148326
0.0421733
0.000202065
0.000154215
0.000149615
0.000146826
0.000187274
0.00015327
0.000147789
0.000177156
0.000149647
0.000163021
0.0123384
0.0594839
0.0718063
0.000147663
0.000147732
0.049791
0.000149903
0.0330616
0.000312528
0.000148327
0.000149179
0.000160471
0.000193539
0.0791993
0.000184056
0.0237542
0.000147735
0.0001457
0.000204908
0.000146359
0.000173679
0.000147697
0.000162276
0.000181761
0.00015308
0.000160998
0.00104652
0.000147948
0.000157298
0.0379767
0.000200314
0.0332261
0.000147782
0.000148533
0.000150746
0.000148465
0.000152093
0.000148858
0.000151214
0.000161252
0.0754009
0.000146866
0.00058262
0.000162213
0.000147837
0.000206111
0.000263616
0.0474651
0.000200428
0.000153169
0.0491015
0.000149349
0.000168433
0.000147309
0.000147591
0.000145207
0.00015007
0.000188992
0.0558441
0.000148901
0.000149934
0.0383078
0.000173808
0.0704997
0.00016118
0.00014798
0.000150587
0.000164366
0.000170532
0.000157576
0.000190973
0.000157396
0.000156269
0.000379037
0.000170491
0.000148142
0.0381692
0.000150655
0.000188045
0.0384052
0.000183537
0.031971
0.0412228
0.000154331
0.0826299
0.000154299
0.000159341
0.000157431
0.000152371
0.000152132
0.0787656
0.000171788
0.0575867
0.000152093
0.000148355
0.000149383
0.000222483
0.000148345
0.000293472
0.000150793
0.000188008
0.000147441
0.000145062
0.000146295
0.0506081
0.000170711
0.000148954
0.000148833
0.000163875
0.00014852
0.000174474
0.000146289
0.000147311
0.000145647
0.0418455
0.00022314
0.000173375
0.000149112
0.000146887
0.000149389
0.00014985
0.000153257
0.000187975
0.000196465
0.000149172
0.000148464
0.000207238
0.000148261
0.0854418
0.00014875
0.000149794
0.0594594
0.000158936
0.000154089
0.000258283
0.000146723
0.000174846
0.0276106
0.000148225
0.000149646
0.000148072
0.000151696
0.000147533
0.000162339
0.000276401
0.0536509
0.000149461
0.000171496
0.00018826
0.00028195
0.000149071
0.000147766
0.000146833
0.000162134
0.000223808
0.00015851
0.000149202
0.0488816
0.000163692
0.000145294
0.08308
0.0636381
0.000158614
0.000147338
0.000251909
0.000148507
0.000145225
0.0151927
0.0344654
0.0266504
0.000148263
0.000147756
0.00016018
0.024905
0.000147273
0.00016197
0.000156592
0.000181716
0.000163937
0.000178029
0.000144307
0.00016233
0.0443742
0.000165965
0.000147413
0.000147658
0.000164784
0.0292236
0.000165461
0.000520733
0.000147875
0.000150051
0.00017443
0.000154844
0.000148293
0.0439777
0.000191602
0.0112516
0.00015519
0.00014622
0.077455
0.000146611