/*--------------------------------*- C++ -*----------------------------------*\
| =========                 |                                                 |
| \\      /  F ield         | OpenFOAM: The Open Source CFD Toolbox           |
|  \\    /   O peration     | Version:  v2012                                 |
|   \\  /    A nd           | Website:  www.openfoam.com                      |
|    \\/     M anipulation  |                                                 |
\*---------------------------------------------------------------------------*/
FoamFile
{
    version     2.0;
    format      ascii;
    class       volScalarField;
    location    "400";
    object      nut;
}
// * * * * * * * * * * * * * * * * * * * * * * * * * * * * * * * * * * * * * //

dimensions      [0 2 -1 0 0 0 0];


internalField   nonuniform List<scalar> 
53008
(
0.000920319
0.000502687
0.000885099
0.000146337
0.0077735
0.0100982
0.000223414
0.000944057
0.000277459
0.00143833
0.000908282
0.000175124
0.0129772
0.0046837
0.0017312
0.00587303
0.00165252
0.00587407
0.0108165
0.00184499
0.00178304
0.000138241
0.00583266
0.000233396
0.00178871
0.000222809
0.00426858
0.000699769
0.00056837
0.0006708
0.000498824
0.00411879
0.00827472
0.00160649
0.00583068
0.000288542
0.000762987
0.00583587
0.00023525
0.00141735
0.000781264
0.00976895
0.000911214
0.015252
0.00202799
0.00464275
0.00590692
0.00242338
0.000727266
0.00583198
0.00594736
0.000360642
0.00121397
0.00583327
0.00132237
0.011267
0.00190525
0.00583133
0.000550162
0.00107838
0.00200345
0.00063265
0.00805933
0.00694808
8.66827e-05
0.00500193
0.000695632
0.0059043
0.00584185
0.00451128
0.00343361
0.00583018
0.00207405
0.00947667
0.00022521
0.00583281
0.00583618
0.0107846
0.00586218
0.00352273
0.0100294
0.012137
0.00116296
0.000118005
0.000416451
0.00460899
7.16288e-05
0.000324237
0.00426136
0.00152223
0.00414158
0.0149239
0.0121381
0.000530572
0.00890918
0.0011274
0.0112221
0.000848569
0.00549816
0.00755006
0.00183365
0.00145104
0.000544267
0.000659668
0.000925562
0.012608
0.012638
0.000300444
0.000834382
0.00583015
0.00018147
0.00165441
0.0058362
0.00971495
0.00966329
0.00598003
0.0017362
0.00584071
0.00112602
0.00413855
0.00752102
0.00195613
0.00139174
5.02812e-05
0.0106104
0.0041995
0.00391198
0.000858884
0.00115477
0.00216068
0.00325687
0.00283504
0.000125139
0.00116548
0.00584295
0.00057818
0.00583357
0.0129635
0.0038401
0.00548135
0.00586526
0.00580665
0.000420537
0.000548494
0.00125484
0.000874733
0.00178169
0.0058314
0.00590041
0.00195004
0.00583441
0.00804282
0.00736042
0.000123289
0.00583226
0.00121471
0.0103524
0.0153855
0.00150497
0.000347633
0.000426009
0.0058319
0.00583335
0.0148661
0.00152514
0.00583648
0.00584482
0.000764642
0.00583222
0.000941282
0.000656196
0.0126382
0.0101481
0.00583576
3.83536e-05
0.00573525
0.000486915
0.00100498
7.60824e-05
0.000272951
0.00141208
0.00159698
0.0151986
0.00149859
0.00016359
0.00799669
0.00867366
0.0103092
0.0118746
0.00583141
0.00241652
0.00185546
6.82895e-05
0.00460457
0.00487251
0.00292336
0.000742731
0.00583365
0.00583339
0.00049792
0.000403019
0.00215088
0.000988073
0.00397553
0.000871468
0.00910306
0.00166306
0.00583308
0.000429922
0.00584251
0.0127121
0.00140816
0.000479179
0.000770465
0.000856283
0.00488476
0.00583352
0.00583259
0.00034283
0.00335088
0.000841448
0.00585097
0.00114998
0.00585113
0.00132798
0.00119936
0.00121306
0.000288004
0.00037806
0.00586562
0.00897266
0.00934379
0.00587487
0.00935983
0.000508887
0.0127
0.00285547
0.00584368
0.00712621
0.00587584
0.00295006
0.00172121
0.000558742
0.00174466
0.00100797
0.00583596
0.000220613
0.000863326
0.00583724
0.00117843
0.00181269
0.00154862
0.00347388
0.000471864
0.00199473
0.00838074
0.000574136
0.00300816
0.000357205
0.00181838
0.000164895
0.000550741
0.000719771
0.0059569
0.00583989
0.00409556
0.0131952
0.00583272
0.00889824
0.00112354
0.00588547
0.00119654
0.00214428
0.000563194
0.0107004
0.00583687
0.000868513
0.0146902
0.0014108
0.00359457
0.00583268
0.00583579
0.00121472
0.000182587
0.000847553
0.000247583
0.000607707
0.00842061
0.000177878
0.00151545
0.000281244
0.0141056
0.000323198
0.00924249
7.20558e-05
0.00583202
0.00066901
0.00111035
0.00879582
0.0025483
0.00031081
0.0119261
0.014695
0.00982077
0.00583544
0.000547397
0.00133914
0.00327387
0.00596297
0.000286824
0.0094644
0.000555417
0.00424235
0.0106131
0.000754814
0.000423127
0.00583647
0.00583356
0.00583699
0.00070988
0.00117233
0.010429
0.000451139
0.0111099
0.00027307
0.00207515
0.0103134
0.00132559
0.0058322
0.000686942
0.0137746
0.00509765
0.00583578
0.00165902
0.00583689
0.00585018
7.5381e-05
0.00588444
0.0110223
0.000986921
0.00583587
0.0058322
0.000407567
0.00260868
0.00173596
0.00353824
0.000248217
0.0112469
0.000591633
0.0151151
0.000524678
0.0109145
0.00288413
0.00583456
0.00525412
0.0101755
0.00583865
0.0049113
0.000201566
0.0125455
0.002773
0.000563815
0.00278156
0.00388737
0.000384794
0.0134417
0.00583571
0.00108161
0.0007538
0.000942407
0.00899649
0.00220015
7.73409e-05
0.000844279
0.000360583
0.00163647
0.000864861
4.92002e-05
0.00376976
0.0148365
0.00590748
0.00116083
0.000579661
0.00177677
0.012609
0.00583559
0.00175433
0.0140744
0.00583922
0.00986687
0.0145525
0.00583002
0.00120761
0.000975817
0.00119329
0.000840492
0.00498099
0.000509937
0.000155228
0.0149088
0.000443402
0.00142615
0.00195529
0.0120869
0.00583231
0.00583318
0.000163193
0.00129469
0.00254387
0.000968582
0.00583561
0.00122139
0.00585218
0.0024307
0.0017411
0.00463532
0.0058331
0.00368211
0.00225133
0.00583537
0.00583213
0.00212367
0.000230598
0.0013655
0.000854305
0.00583449
0.00195117
0.00203118
0.000502481
0.00583634
0.000495516
0.014406
0.000491145
0.00583228
0.000606606
0.000593678
0.0080973
0.000335574
0.00889939
0.000367775
0.00583267
0.000198314
8.63449e-05
0.000928242
0.00566661
0.000447668
0.00595963
0.000495181
0.000969025
3.069e-05
0.0148115
0.000883754
0.0117312
0.000374551
0.00241524
0.000599073
0.00088899
0.0056041
0.00594442
0.00583293
0.00061224
0.00637563
0.00583621
0.00230541
0.000860519
0.000634736
0.00240117
0.00845735
0.00583642
0.00193416
0.00020894
0.000752733
0.000678453
0.0134564
0.000306964
0.000818126
0.00127865
0.00191216
0.000157431
0.01292
0.0014186
0.000977437
0.00106504
0.00207967
0.00139855
0.00583202
0.00175488
0.000978922
0.000768542
0.000504589
0.000777112
0.00307944
0.0111138
0.00583539
0.00506605
0.00126681
0.00583618
0.0150809
0.000417427
0.00583616
0.000694303
0.00255874
0.00968395
0.000255657
0.00583137
7.60331e-05
0.00111539
0.000682628
0.000659715
0.000816712
0.0147776
0.000225686
0.00583376
0.00583202
0.000281138
0.0140547
0.00159126
0.00155805
0.00224022
0.0104046
0.00179252
0.00862309
0.00583352
0.000462378
0.000572185
0.00695033
0.000987442
0.000631594
0.00305553
0.00583624
0.00069443
0.00590426
0.00583124
0.0149643
0.00378089
0.00304003
0.000796248
0.0015897
0.00585734
0.00583582
0.000205654
0.0146321
0.000300872
0.00135676
0.0102844
0.00183468
0.000274885
0.00587715
0.00583616
0.000425043
0.0152472
0.000669363
0.00169759
0.0100552
0.00109548
0.00585779
0.0154199
0.00081626
0.00284058
0.00181933
0.000707659
0.0112044
0.000686931
0.000525891
0.00206357
0.00120903
0.00129972
0.00171798
0.000965043
0.000748652
0.000682221
0.00217314
0.00110977
0.000326307
0.00171696
0.00586406
0.00160128
0.000823004
0.00019984
0.00151303
0.000773546
0.00583498
0.00244655
0.000184441
0.000596927
0.00138511
0.00583153
0.00141665
0.000884806
0.00143122
0.00583365
0.00583567
0.000116222
0.00166674
0.0060662
0.0021637
0.0108919
0.00030738
0.00583526
0.0118799
0.0148154
0.0011194
0.00583429
0.000726303
0.000985504
0.0140295
0.000895533
0.000403901
5.82607e-05
0.000917527
0.00161183
0.00171717
0.0152998
0.00485465
0.0101394
0.00583619
0.0058473
0.00583334
0.0016712
0.00587775
0.010365
0.000167479
0.0058337
0.00968569
0.00233347
0.00585044
0.00584477
0.00210533
0.00124029
0.00162627
0.00170831
0.000249536
0.00469314
0.000843203
0.00583606
0.00158524
0.0058839
0.00170497
0.00153461
0.0105187
0.00892027
0.00171277
0.00158471
0.00585697
0.00584981
0.00203002
0.00475157
0.000697907
0.00476052
0.00583486
0.00228928
0.0058709
0.00181753
0.0022039
0.0058486
0.0120889
0.00173639
0.00583461
0.00587032
0.00456687
0.000815651
0.0094607
0.000501241
0.000285729
0.00726875
0.00988565
0.00547733
0.0123772
0.00173183
0.00583137
0.0148765
0.00267142
0.00583691
0.00242811
0.00583355
0.0016147
0.00582987
0.00352252
7.66459e-05
0.00222234
0.000257644
0.00395151
0.000877652
0.0120401
0.00160552
0.00224536
0.0100525
0.00588844
0.00237698
0.00123796
0.00104539
0.000168973
3.02885e-05
0.00565302
0.00584821
0.00319841
0.0020062
0.00145114
0.0013357
0.00583008
0.000311528
0.00584966
0.00072381
0.00474128
0.00591263
0.00281073
0.00583061
0.00216869
0.00583446
0.00575562
0.00160702
0.000346384
0.00509604
0.000581117
0.00127995
0.0101411
0.00316389
0.00039238
0.00583549
0.00908843
0.00583637
0.00316011
0.00049186
0.000657865
0.0141755
0.000148845
0.000272782
0.00612182
0.00118386
0.00486577
0.0104954
0.00130273
0.00142658
0.0118133
0.00204554
0.000350208
0.000290568
0.00207574
0.00115674
0.000612962
0.00583945
4.15805e-05
0.00583215
0.00113689
0.00583689
0.00158731
0.000143672
0.00591141
0.0018333
0.00583599
0.000340677
0.000411404
0.00162061
0.000646196
0.00177571
0.00583526
0.00859658
0.000223939
7.19656e-05
0.00122335
0.0104922
0.000804372
0.00236363
0.0106763
0.00112085
0.00583066
0.0100227
0.000568195
0.00583592
0.000225141
0.00816585
0.000147964
0.00238745
0.00755112
0.000952748
0.00866066
0.000647985
0.00467137
0.00811709
4.22584e-05
0.000555781
0.00121819
0.00583582
0.00179735
0.0001093
0.00175828
0.000100541
0.000716829
0.00190202
0.00112172
0.0115962
0.00920423
0.000310381
0.00734221
0.000913293
0.000147518
0.0151828
0.00500218
0.00189447
0.00085159
0.00230339
0.0130195
0.00089765
0.000786284
0.000168971
0.00178746
0.00583564
0.000124753
5.08999e-05
0.00250187
0.0058368
0.00999069
0.00586141
0.00127811
0.000521064
0.000532536
0.00472575
0.00232399
0.0034536
0.000540394
0.000610957
0.0087819
0.000682852
0.00952239
0.000303867
0.000984776
0.0105824
0.00169594
0.00583349
0.000600698
0.000207807
0.00280098
0.00297146
0.00589181
0.00583144
0.00583218
0.00082678
0.0146059
0.00867753
0.00583171
0.0017347
0.0011373
0.000836315
0.00583146
0.0144175
0.00805293
0.00914525
0.000151558
0.000581388
0.00584535
0.0148695
0.00402941
0.00147304
0.00151511
0.00224539
0.000317413
0.000750076
0.00123172
0.00126276
0.00583257
0.00142778
0.00583676
0.00583598
6.91208e-05
0.000310641
0.00583666
0.00350387
0.00842633
0.00802973
0.00112411
0.000208912
0.00153329
0.000218775
0.000593818
0.00585762
0.00375095
0.00583259
0.00387502
0.00218735
6.39525e-05
0.00583273
0.00584043
0.00583383
0.00583257
0.00976158
0.000279453
0.00584928
0.00164841
0.00583303
0.000498189
0.00584579
0.00348404
0.000543223
0.00475237
0.00929805
0.000482133
0.000622741
0.000685552
0.0100105
0.0149851
0.00439719
0.00583907
0.00127957
0.00918455
0.00106514
0.00092364
0.00333396
0.000847615
0.00589232
0.00584934
0.00144683
0.000123201
0.000930056
0.00583205
0.00583133
0.00534885
0.00513543
0.00923637
0.00013565
0.00219653
0.00137103
0.0119654
0.00583436
0.00402797
0.00133568
0.000750433
0.00918544
0.000490436
0.0145337
0.00133231
0.000156799
0.000191323
0.000540922
0.00661901
0.00167922
0.00123962
0.00155079
0.00206162
0.0103903
0.00513767
0.00359436
0.000806682
0.00389452
0.000161921
0.00494701
0.0155431
0.00130219
0.000188037
0.000503157
0.00586008
0.00925641
0.00585226
0.00583597
0.00882791
0.00103673
0.00583129
0.00898671
0.0141678
0.00286446
0.000984849
0.00125336
0.000347268
0.0033047
0.00584828
0.00894912
0.0110167
0.000208344
0.00363349
0.00180518
0.00470702
0.000461324
0.0058301
0.00583374
0.000602998
0.00587996
0.00138388
0.00053995
0.0104207
0.000175167
0.00104845
0.0145741
0.00262154
0.00299013
0.000705847
0.000670815
0.000513236
0.0155051
0.00882295
0.000398437
0.00847441
0.00507029
0.00583141
0.00110489
0.0039609
0.00588801
0.000923247
0.00155337
0.00021776
0.0016828
0.000617525
0.000562046
0.000561051
0.0130313
0.0058336
0.00600158
0.00587869
0.00583214
0.0011701
0.0033071
0.000420357
0.000750616
0.000285988
0.0130396
0.00552464
8.0895e-05
0.00025231
0.00583443
0.00389006
0.00037647
0.00584899
0.00306105
0.0102904
0.000539242
0.000309631
0.000189542
0.00853785
0.000167016
0.00807263
0.0010122
0.00583637
0.000413258
0.00583303
0.000553686
0.00979507
0.00583173
7.96097e-05
0.00191272
0.000423373
0.0106492
0.0058321
0.00114011
0.000349614
0.000327318
0.000338328
0.000491383
0.000313923
0.000128573
0.00054316
0.000102646
0.000135564
0.0058445
0.00583278
0.000116812
0.00963872
0.00583882
0.00195787
0.0154334
0.000202574
0.00259632
0.01107
0.005833
0.000718519
0.00580077
0.00935575
0.00833242
0.0058313
0.00157319
0.0058382
0.00110772
0.00137448
0.000690304
0.00434159
0.000467644
0.0011664
0.000636789
0.00803481
0.00584183
0.0058394
0.000450257
0.00583129
0.0106093
0.00951234
0.000257286
0.00012065
0.00285112
0.000234786
0.00583053
0.00275336
0.00148641
0.0058322
0.00102491
0.00103341
7.10235e-05
0.000815981
0.0058291
0.00011613
0.000921443
0.00584863
0.00863364
0.00122052
0.000828311
0.0108432
0.000374165
0.00583201
0.00849632
0.000336196
0.00278305
0.00583328
0.000412547
0.00526664
0.0101305
0.00583483
0.00583371
0.0150763
0.00028435
0.000573217
0.00584144
0.00165525
0.00845828
0.00583539
0.0049024
0.00388519
0.00349244
0.00144553
0.00567804
0.0048062
0.000966573
0.000699411
0.00130994
0.000342787
0.00416502
0.0122879
0.00135115
0.00583477
0.0110165
0.00584515
0.00841033
0.0030798
0.00485982
0.00986755
0.00709731
0.000707853
0.0125819
0.00301313
0.00584986
0.00582923
0.00144721
0.0106484
0.000335703
0.00289974
0.00602963
0.00163313
0.00226541
7.42157e-05
0.00415671
0.00125269
0.00583713
0.000412404
0.00305462
0.00185127
0.010291
0.00253272
0.00022531
0.00382678
0.00583609
0.0116948
0.000253907
0.000211047
0.0058488
0.000150848
0.000306483
0.00593875
0.00583382
0.00891294
4.60913e-05
0.00223558
0.00446034
0.00160756
0.000205178
0.00987836
0.00583487
0.00166642
0.00108025
0.00197546
0.00583665
0.00608613
0.0129001
0.00244861
0.00583357
0.000662555
0.000707243
0.00972029
0.000280785
0.000983897
0.00158091
0.00974696
0.000344548
0.00031819
0.00956823
0.00189518
0.00583358
0.00255915
0.00583204
0.00555777
0.00581718
0.000811442
0.00558684
0.0058515
0.00505565
0.0141542
0.00584787
0.005832
0.000166247
0.00325573
0.000186252
0.000191746
0.00583283
0.00583389
0.00167727
0.00584795
0.00583309
0.00801943
0.00190703
0.00584449
0.00147651
0.00186432
0.00583074
0.00583138
0.00619186
0.0058379
0.00167487
0.000120799
0.00558848
0.00583615
0.00035622
0.000763329
0.00582997
0.000111502
0.00949073
0.00156908
0.00377282
0.00583332
0.00158142
0.00151133
0.0101268
9.98134e-05
0.00584433
0.00171853
0.00905072
0.00056298
0.0103385
0.00278139
0.00935734
0.00337484
0.000707062
0.0141479
0.00881455
0.00389788
0.0018683
0.0058354
0.0034549
9.88834e-05
7.10282e-05
0.0102033
0.000701715
0.00162948
0.00063533
0.00248188
0.00659711
0.000443727
0.00583379
0.00963126
0.00167391
0.00583068
0.00583149
0.00257136
0.00184969
0.000858066
0.0143217
0.00583357
0.00524427
0.011527
0.00068117
0.00583835
0.0102097
0.0105838
0.00583352
0.000178196
0.0073051
0.00583393
0.000373653
0.00129422
9.92382e-05
0.00123019
0.000197033
0.00212053
0.0130898
0.00023967
0.00586542
0.00584566
0.00587466
0.00224763
0.000241049
0.0102758
0.00583417
0.00583604
0.00480489
0.00969234
0.000907932
0.00157416
0.00583427
0.0117445
0.00946072
0.000611121
0.00234292
0.0124272
0.00277312
0.000367149
0.00583315
0.000756215
0.00568638
0.000800668
0.00583621
0.000112339
0.00179969
0.00147267
0.0134855
0.00378049
0.000177465
0.0148775
0.000157381
0.00583378
0.0058306
0.00507084
0.00944355
0.000226878
0.00062277
0.00198812
0.000821521
0.0119654
0.00111759
0.00583641
0.0101727
0.000668718
0.00111956
0.00979554
0.00583345
0.0144342
0.00583317
0.00262235
0.00137909
0.00370854
0.0105001
0.00202745
0.00209672
0.00583151
0.0102868
0.0110119
0.000692054
0.000304461
0.000489984
0.00784212
0.0109529
0.0108487
0.0111406
0.000851319
0.00583124
0.000175276
0.000132843
0.00164015
0.00583045
0.000374108
0.00583209
0.00583334
0.0140069
0.000713552
0.000614077
0.000846752
0.000212584
0.00249354
0.000234925
0.0106133
0.00318792
0.000568658
0.00582992
0.000206691
0.00229491
0.0151746
0.00188063
5.40853e-05
0.00583145
0.00583401
0.000367227
0.00434822
0.00583059
0.0139653
0.00184851
0.00583086
0.00583627
0.00128431
0.000367731
0.000475881
0.00224298
0.00214693
0.00850503
0.0058336
0.000108634
0.0058305
0.0107481
0.00583493
0.00584767
0.000416753
0.000161208
0.0021121
0.000985529
0.0025859
0.000563797
0.00180054
0.000975216
0.00458148
0.0107942
0.00565915
0.0143065
0.0146429
0.000372225
0.00467095
0.000187252
0.000630392
0.00409561
0.00583155
0.00583138
3.57134e-05
0.00583204
0.000870759
0.000193332
4.44666e-05
0.00583085
0.00583008
0.00584382
0.0117555
0.000603064
0.0128074
3.33422e-05
0.00386366
0.0112296
0.00106883
0.00150179
0.0105823
0.00583174
0.00205176
0.00131708
0.000796827
0.00159427
0.000572556
0.000218798
0.00583109
0.000366097
0.00583259
0.00589017
0.00354512
0.00583503
0.0023816
0.00225009
0.00222005
0.00589625
0.0002354
0.000709464
0.00234831
0.00129577
0.00102187
0.000630474
0.000410673
0.00583978
0.0030902
7.96542e-05
0.000595998
0.00195754
0.000453123
0.00583398
0.0132137
0.000225516
0.00583489
0.00583762
0.00152812
0.000168587
0.00260529
0.0146182
0.00583401
0.000764851
0.000387028
0.000620875
0.00587819
0.000148718
0.0058323
0.00115799
0.00182275
0.00103853
0.00331544
0.000350943
0.00172541
0.00174196
0.00120255
0.00871768
0.00880692
0.00586067
0.00592888
0.000441736
0.00579413
0.00583215
0.00350815
0.000653066
0.00804486
0.00588436
0.000539566
5.19652e-05
0.00583403
0.00126841
0.00151152
0.00583577
0.00162207
0.0109754
0.000800374
0.00593912
0.0058347
0.0015574
0.00585875
0.000904873
0.00780148
0.012085
0.000873649
0.00024057
0.0103968
0.000907147
0.00961917
0.000878587
0.00583361
0.00405694
0.000729492
0.00583017
0.00248614
0.000659123
0.000283528
0.000548108
0.000504514
0.000196463
8.16053e-05
0.000368045
0.00357202
0.00585231
0.0020655
0.0121049
0.000817822
0.000377396
0.00104207
0.000605868
0.00268578
0.000970158
0.000593575
0.00121407
0.00089211
0.00583637
0.000549039
0.0058362
0.00583078
0.00583205
0.0006114
0.00681733
0.00017612
0.000866862
0.00974796
0.000286657
9.30328e-05
0.00115364
0.00583371
0.000958823
0.000763016
0.00292409
0.00843891
0.000885139
0.000633122
0.000537735
0.00452342
0.00115024
0.00300447
0.00037549
0.00797797
0.00583738
0.00583289
0.0100992
0.000978237
0.00583417
0.000579575
0.00124201
0.000413584
0.00121648
0.000306722
0.00583005
0.000176337
8.10337e-05
0.000801843
0.0029535
0.000390597
0.00114313
0.00583349
0.000772987
0.00583719
0.00583386
0.00226616
0.00583492
0.00583787
0.000776305
0.00080565
0.00295771
0.00193825
0.00193118
0.0144602
0.0101794
0.00584211
0.000934986
0.000563348
0.000131581
0.00583392
0.00173142
0.00505164
0.00486557
0.00120703
0.00333619
0.000557905
0.00924707
0.000242949
0.00169014
0.0049307
0.00502086
0.00712775
0.00105804
0.00714921
3.44985e-05
0.0139988
0.00420956
0.00174414
0.000347633
0.000247045
0.0146866
3.20815e-05
0.00583331
0.00587747
0.0094082
0.000691186
0.00583017
0.000177838
0.0095218
0.00584046
0.00209835
0.0138512
0.000763349
0.000561741
0.00661898
0.001339
3.31478e-05
0.00142019
0.000686014
0.00950745
0.000198296
0.00583904
6.79973e-05
0.000967743
0.00583661
0.000556445
0.00116007
0.00154927
0.00955756
0.00413868
0.000455762
0.0145239
0.00583243
0.00526889
0.000749883
0.000757494
0.00971985
0.015277
0.0114078
0.00113954
0.000645465
0.00582885
0.00583333
0.000175006
0.00454292
0.0107471
0.00170091
0.0155442
0.00584568
0.00407568
0.00285166
0.000400894
0.00149351
0.00106431
0.00583572
5.30964e-05
0.00170302
0.0119825
0.00630192
0.00529248
0.00624356
0.000502194
0.00235783
0.00859669
0.0018172
0.000184996
0.000637357
0.00583329
0.00981579
0.000604225
0.000961091
0.00584608
0.000886808
0.00583169
0.013518
0.0122817
0.00583557
0.00583928
0.0131092
0.0038471
0.000854036
0.0010132
0.00163771
0.00583983
0.00583339
0.000739384
0.00113084
0.000658395
0.00583287
0.00340562
0.000777975
0.00584977
0.00140534
0.000115434
0.00584965
0.000332915
0.000971839
0.00583359
0.0031535
0.0144524
0.00116565
0.000540946
0.00123968
0.000657395
0.00955
0.00583906
0.000167837
0.00330538
0.00995497
0.0058324
0.00166387
0.0022525
0.00426511
0.00154485
0.00412441
0.00234443
0.00180259
0.00583313
0.000614334
0.00156936
0.00042487
0.0149399
0.000208411
0.0032784
0.0129537
0.00225318
0.000773997
0.00334695
0.00583469
0.00187811
0.0110644
0.00130499
0.0019007
0.0136493
0.00949099
0.00934877
0.00509122
0.00583125
0.0009855
0.000382881
0.00104306
0.00833939
0.0020771
0.00186227
0.00198094
0.00131361
0.00103083
0.00100677
0.00104233
3.5821e-05
0.00583412
0.00583652
0.00583466
0.00183362
0.000106823
0.0150595
0.00584485
0.00067625
0.00584613
0.00583584
0.01405
0.00164565
0.000121333
0.00128252
0.00464869
0.00584567
0.000942827
0.0093675
0.000989831
0.000338565
0.0086213
0.00103271
0.0058361
0.00165931
0.00915876
0.00585424
0.0092684
0.00110387
0.00583335
0.000719092
0.00583388
0.00136931
0.0145782
0.00583102
0.0103122
0.000859318
0.000474003
0.000233217
0.00405113
0.000497366
0.00584751
0.00956433
0.00948389
0.00143895
0.00583112
0.00508662
0.0012563
0.000419574
3.48417e-05
0.00583606
0.000492257
0.00583585
0.00583435
3.09276e-05
0.00111246
0.00193193
0.00583585
0.00975187
0.000947636
0.00583443
0.00341522
0.00182107
0.0014734
0.014633
0.00583513
0.00336105
0.00583414
0.00583103
0.000538315
0.000215558
0.00198567
0.0124326
0.000371913
0.000589637
0.00179085
0.00583143
0.00985386
0.000293633
0.000354825
0.000836781
0.00278267
0.00583335
0.00222492
0.000655238
0.00963598
0.000533413
0.00173648
0.0146029
0.00177527
0.000276039
0.0058335
0.00583306
0.00174997
0.00583698
0.00351159
0.000437139
0.00583211
0.00583869
0.00279484
0.00802868
8.68292e-05
0.00589728
0.00177199
0.00553859
0.000579028
0.000718118
0.000790361
0.00357237
0.00583148
0.00899588
0.00424442
0.00583916
0.000483928
7.31242e-05
0.000584417
0.00583905
0.0030844
0.000195226
0.00222762
0.00583929
0.00241735
0.00056713
0.0012581
5.35364e-05
0.00774253
0.0110343
0.00341884
0.00163418
0.000192891
0.000274202
0.00134883
0.00131436
0.00583275
0.000502247
0.000585399
0.000949628
0.00114932
0.00583393
0.00934028
0.00326806
0.000534107
0.00272863
0.00583637
0.000252589
0.000786597
0.000616092
0.000106687
0.011625
0.00335618
0.00583484
0.00229601
0.000347018
0.00246129
0.00586162
0.00243462
0.00582891
0.00905242
0.00583229
0.00583353
0.0133175
0.0083498
0.0058371
0.00294777
0.00584859
0.00583855
0.014138
0.0144408
3.76358e-05
0.00135192
0.00812409
0.0118259
0.00568977
0.00988071
0.014104
0.00932447
0.0141804
0.000811695
0.00327189
0.00583366
0.00583479
0.00219779
0.00287351
0.00227657
0.0135053
0.00109185
0.000377487
0.00164902
0.0128215
0.000906641
0.00909495
0.0137674
0.0155307
0.000620701
0.00307144
0.000242168
0.000508911
0.00216378
0.0058301
0.00163356
0.00799321
0.00985571
0.000265274
0.00583093
7.7676e-05
0.00583207
0.000191923
0.00583351
0.0123469
0.00584913
0.00583544
0.00816525
0.00204011
0.013412
0.00259008
0.00154273
0.00245458
0.000234581
0.00402013
0.000239115
5.70294e-05
0.00490693
0.00583383
0.0142356
0.000363586
0.0002914
0.000113714
0.00583077
0.000131976
0.00583098
0.0058452
0.00133703
0.00545096
0.000745664
0.000382225
0.000605124
0.00188319
0.00471843
0.00399473
0.00583562
0.000473697
0.00584533
0.00159839
0.00251191
0.00583322
0.00925272
0.00584913
0.00583396
0.00786314
0.00339012
0.00096017
0.0020612
0.00104517
0.00221731
0.000628802
0.000273911
0.0112608
0.000907427
0.000185377
0.000446757
0.00583816
0.0103253
0.0058396
0.013296
0.000486123
0.00102897
0.00101589
0.000312082
0.00144463
0.00588976
0.000907601
0.00585454
0.0058466
0.000976454
0.00569403
0.0115922
0.0101582
0.00357289
0.0011456
0.000593055
0.000930239
0.00487344
0.00585357
0.00582938
0.000826391
0.00102216
0.00143622
0.00583178
0.0113416
0.0126992
0.00138896
0.00483811
0.000172321
0.00917409
0.00298563
0.00329508
0.00546621
0.00583738
0.000649283
3.82904e-05
0.00583722
0.0058365
0.000236404
0.00839118
0.0058359
0.000334531
0.00492023
0.0058338
0.002183
0.000614379
0.0152541
0.000887994
0.00207468
0.00583058
0.000613687
0.00835941
0.00423907
0.00583625
0.0104135
0.00583956
0.00042466
0.00118921
0.00590261
0.00165921
0.000252303
0.00583555
0.00149817
0.00198134
0.000598052
0.00583282
0.0089157
0.00583486
7.98093e-05
6.40234e-05
0.00293675
0.0148119
0.00199873
0.00583141
0.000782583
0.00583087
0.000915099
0.015239
0.000239239
0.00583069
0.000511949
0.00938545
0.00584545
0.0118775
0.00252816
0.00095338
0.000712913
0.0058336
0.00583573
0.000364013
0.000675012
0.000156697
0.0132334
0.00589501
0.0117179
0.000237797
0.00237106
0.0111415
0.000153715
0.001441
0.000806415
0.0055022
0.00416514
0.00160177
0.0118688
7.77818e-05
0.00583317
0.00290198
0.00261568
0.00404063
0.0115057
0.00755361
0.00584929
0.00196475
4.19984e-05
0.00585751
0.00339322
0.00354333
0.00583314
0.0030199
0.00583218
0.00164152
0.00583124
0.00354356
0.00121819
0.00583389
0.00583506
0.00584877
0.00583321
0.015273
5.56102e-05
0.0101715
0.00647986
0.000722454
0.000596871
0.00118078
0.00129366
0.000372692
0.00970724
0.000484898
0.00583273
0.00583321
0.000818564
0.000364713
0.000205543
0.00320691
0.00582951
0.011043
0.0105294
0.00500641
0.00123327
0.000985881
0.000715854
0.000915665
0.00583419
0.00622269
0.0153775
0.00584982
0.00583263
0.00101692
0.000339792
0.000254126
0.0021255
0.000805426
0.000517801
0.00583601
0.00211139
0.00018058
0.000801722
0.000144892
0.0136849
0.00552716
0.00591896
0.00181456
0.000103364
0.00583972
0.0119115
0.000726097
0.0124761
0.00583446
0.00583234
0.000271818
0.00583821
0.00115513
0.00168177
0.00861038
0.00156044
0.0147605
0.00180472
0.00583261
0.00586198
0.00150453
0.00716645
0.00152762
0.0141345
0.00173668
0.00384429
0.00150344
0.000398539
0.00583373
0.000541163
0.00420542
0.0012375
0.0145304
0.00583326
0.00162496
0.00222893
0.00136777
0.000667188
0.00297005
0.0147538
0.00115459
0.000254852
0.013552
0.000198864
0.0103768
0.00336417
0.0120561
0.0120564
0.00697505
0.00582962
0.00583215
0.000927434
0.000206594
0.0116048
0.00915578
0.0048949
0.00505352
0.000837787
0.00685279
0.00583601
0.00583355
0.00136399
0.00585809
0.000441963
0.00904688
0.00583471
0.000235561
0.0018933
0.000853796
0.00400961
0.000657632
0.00583462
0.00583132
0.0058737
0.00180165
0.00580548
0.000205192
0.000443388
0.00141968
0.0120203
0.00378269
0.00584493
0.000122459
0.00646713
0.000321153
0.0132319
0.000595383
0.00159667
0.00583852
0.000594505
0.0150049
0.000552447
0.00196382
0.00583845
0.000550023
0.00927582
0.00246095
0.00583366
0.00547432
0.000107405
0.00177862
0.00583591
0.00210094
0.000284187
0.00583036
0.000855181
0.012535
0.000324221
0.0011673
0.00155354
0.00585851
0.00117385
0.00186537
0.00456546
0.00112005
0.0058357
0.000143166
0.00223276
0.0145443
0.0124752
0.00590724
0.00499331
0.010261
0.00235369
0.00789199
0.000273702
0.00583311
0.00583416
0.00129527
0.000238925
0.00678872
0.00024197
0.00592757
0.00586246
0.00585701
0.000693418
0.00583144
0.00148539
0.00583475
0.000882985
0.000279074
0.00107555
0.00107663
0.000435409
0.00461071
0.000615632
0.00980498
0.000437814
0.0080156
0.00554455
0.0028906
0.00137192
0.00583325
0.000820289
0.00226766
0.0010055
0.00142499
0.0153458
0.0058347
0.00043573
0.000195607
0.00484911
0.000254319
9.54177e-05
0.00254425
0.000124967
0.000667156
0.0134652
0.00583498
0.000143246
0.00583522
0.00583538
0.00584574
0.00137964
0.000242957
0.0133708
0.00583406
0.00583636
0.00917363
0.000463887
0.0114026
0.00128973
0.00583227
0.00346124
0.000689959
6.58277e-05
0.000847798
0.000247709
0.000319934
0.00137405
0.00033295
0.00106461
0.00464456
0.00986287
0.00168725
9.94373e-05
0.00896153
0.000234997
0.00626126
0.00250059
0.00105212
0.0104086
0.00110579
0.0022048
0.000683542
0.00216489
0.00236759
0.014753
0.000953012
0.0144864
0.0025432
0.00307297
0.00583488
0.000966381
0.00291477
0.000213611
0.0012221
0.00148197
0.0055973
0.00583092
0.00583437
0.0102532
0.00112377
0.0020727
0.00583368
0.000184467
0.00583357
5.26234e-05
0.00587556
0.00583062
0.00583011
0.0121801
0.000930402
5.90275e-05
0.00583404
0.00583916
0.00161269
0.00583612
0.00065033
0.00152947
0.00123945
0.00583433
0.00283214
0.000258107
0.00268956
0.0112247
0.00583357
0.00583593
0.0145419
0.00186059
0.00260856
0.000175854
0.00586134
0.00125275
0.00535571
0.0058345
0.00583556
0.00478896
0.000820288
0.00590259
0.000746652
0.000563973
0.0141027
0.00583509
0.00103551
0.000702707
0.000477288
0.00309503
0.00583072
0.00587124
0.000202275
0.00019125
0.000469161
0.00188593
0.010482
0.00169539
0.00584256
0.00948633
0.0145796
0.000395333
0.00583425
0.000641144
0.00583224
0.00584125
0.00316046
0.00843868
0.00569581
0.00308556
0.00387206
0.000811688
0.00595388
0.00519485
0.000313189
0.00169453
0.000401214
0.00019904
0.000221007
0.00584822
0.000561873
0.00937836
0.000179168
0.0058406
0.00583923
0.0001662
0.000942684
0.000206955
0.000371105
0.0036948
0.00139273
0.00128282
0.00102047
0.003372
0.00914702
0.000143569
0.000626367
0.000868839
0.00587441
0.015197
0.00583077
0.0103225
0.00151462
0.000625168
0.000217481
0.0126755
0.0107866
0.00104982
0.00583395
0.00583762
0.00226318
0.000769848
0.00996395
0.00583257
0.00583298
0.00583612
0.0111595
0.0032524
0.00583229
0.00055383
0.00583432
0.00167663
0.000212103
0.00585982
0.000226736
0.00583626
0.000171099
0.00583781
0.000695015
0.0033667
0.00147396
0.00590426
0.000245757
0.00394536
0.00200451
0.005836
0.000642445
0.00154001
0.00497171
0.00583142
0.000656736
0.00583071
0.0133777
0.00284073
0.00064036
0.00321498
0.000556473
0.0145535
0.00584889
0.00252106
0.00305571
0.000108724
0.00109591
0.0154969
0.00017126
0.014009
0.00337111
0.000238195
0.00468626
0.00184937
0.00357617
0.00583383
0.000646886
0.00170287
0.00919222
0.000456907
0.00583233
0.0035745
0.00139692
0.000409424
0.000316828
0.000636431
0.0011579
0.00899622
0.000324716
0.000222581
0.000409992
0.00047412
0.0101133
0.000100048
0.00779808
0.000105792
0.00583158