/*--------------------------------*- C++ -*----------------------------------*\
| =========                 |                                                 |
| \\      /  F ield         | OpenFOAM: The Open Source CFD Toolbox           |
|  \\    /   O peration     | Version:  v2012                                 |
|   \\  /    A nd           | Website:  www.openfoam.com                      |
|    \\/     M anipulation  |                                                 |
\*---------------------------------------------------------------------------*/
FoamFile
{
    version     2.0;
    format      ascii;
    class       volScalarField;
    location    "400";
    object      omega_0;
}
// * * * * * * * * * * * * * * * * * * * * * * * * * * * * * * * * * * * * * //

dimensions      [0 0 -1 0 0 0 0];


internalField   nonuniform List<scalar> 
53008
(
0.0326034
2.56132
0.0273504
0.409421
6.31589
4.24204
0.0729577
0.0323669
0.0439431
0.0258431
0.11854
0.0931116
3.56846
4.75604
0.0256465
0.0249774
0.0288906
0.0249839
6.29514
0.0298215
0.0276232
0.0565809
0.0253782
0.0699333
0.0269598
1.54152
4.72119
0.0515014
0.459328
0.36972
0.829735
3.95658
4.44077
0.0260565
0.0253575
0.0394889
0.0286298
0.0256656
0.0798142
0.0265154
0.0284596
5.85032
0.11958
5.16015
0.030059
0.025107
0.0249972
0.0267674
0.197162
0.025235
0.0255174
0.0333148
0.0300492
0.0254045
0.061651
6.25082
0.0295701
0.0253032
0.525956
0.055033
0.0258554
0.0331224
10.046
3.99965
0.315898
0.0252576
0.352798
0.0249855
0.0250422
0.0251092
17.6992
0.0248977
0.0255388
4.18856
1.53318
0.0253754
0.0256685
4.1495
0.024931
15.2261
4.25072
3.96483
0.175257
0.439975
0.0439732
0.0251165
0.129058
0.0432683
0.0252579
0.0491603
11.2496
5.06914
3.97865
0.105933
7.32091
0.142865
4.70096
0.0272177
9.2689
10.3658
0.0298239
0.0264932
0.146475
0.0514885
0.0333794
6.03056
4.47361
0.0390772
0.116165
0.0248922
0.307281
18.5504
0.0256755
7.24996
4.77013
0.025954
0.0281827
0.0249489
2.72612
10.2785
6.60445
0.0255185
0.026356
16.041
4.16743
0.0253211
12.207
0.244272
0.0446165
0.0254722
3.88465
0.0253246
0.441802
0.0280926
0.0249203
0.460122
0.0254995
3.56386
0.0252172
0.025131
0.0249809
0.0251298
0.0465289
0.50075
0.0456646
0.0269766
0.0280635
0.0253351
0.0248674
0.0258794
0.0255637
10.0207
5.8067
0.0571385
0.0251479
0.0298277
5.11644
4.76451
0.0267296
0.821258
0.0821136
0.0252406
0.0251437
5.17885
0.0272735
0.0256932
0.0251953
0.0322219
0.0252695
0.0266275
0.0358075
4.24037
7.42262
0.0252318
14.5505
0.0250276
0.044054
0.137314
0.123558
0.0515247
0.0263351
0.0271883
5.2126
0.0258564
0.0913021
3.73505
9.48878
7.44064
4.43138
0.0253408
18.7832
0.0258708
0.168593
9.24453
0.0252764
0.026291
0.0341287
0.0253366
0.025499
0.0303256
0.0978153
0.0254571
0.0328297
0.0252101
0.162259
4.04436
0.0287715
0.0254742
0.0609284
0.0249437
4.62847
0.0264675
0.593903
0.0274494
0.114336
0.0253363
0.0254817
0.0253741
0.0848556
0.0253147
0.273849
0.0248288
0.164331
0.0248268
0.0273306
0.120808
0.0265348
0.0601094
0.0411899
0.0249795
3.81763
4.65796
0.0247943
4.42245
0.0913894
5.98306
0.0261665
0.0249199
4.03443
0.0249717
0.0253059
0.0260382
0.470346
0.0259237
0.0332247
0.0256636
0.179359
0.265042
0.0253661
0.0538992
0.026762
0.0259341
0.0252306
0.0299895
0.0258042
9.72613
0.464097
0.025442
0.0855947
0.029504
2.66004
0.506947
0.0319584
0.0256507
0.025271
4.80392
5.61974
0.0253451
9.29983
0.171505
0.0247999
0.0279283
0.0254645
0.466222
3.85676
0.0247212
0.160446
3.94765
0.0568914
0.0256705
0.0253749
0.0256609
0.0567885
0.0857514
0.0273223
0.0796568
0.0494937
4.06426
0.0884269
0.0258062
2.15827
4.05632
0.109481
4.43254
0.123914
0.0253657
0.0565503
0.15363
9.49048
0.0266616
0.10937
4.41864
4.02622
3.93033
0.0256227
3.36952
0.025998
0.0254187
0.0257212
0.0969857
3.73354
0.474702
4.78042
3.90553
0.108904
0.0596678
0.0256945
0.0254643
0.0247257
0.053022
0.15136
5.86922
0.0357944
3.84831
1.83558
0.02551
5.09884
0.0324191
0.0251533
0.0366928
5.40689
0.0252766
0.0256535
0.0259366
0.0250067
0.0248398
0.164631
0.0249705
4.70093
0.0267093
0.0256623
0.0252781
0.0817015
0.0253878
0.0256759
4.77219
0.0731053
4.10114
0.440078
4.48263
0.255115
3.91242
0.0261012
0.0253965
4.09216
6.80073
0.0252944
0.025239
2.19401
5.64176
0.0253835
0.0506408
0.0254619
4.76544
0.0901554
3.68289
0.0247325
0.043324
0.0305456
0.0271437
9.29392
0.0297892
0.107219
0.272718
0.0901078
0.0289692
0.060826
0.230072
4.76131
5.28251
0.0253621
0.0265335
0.0403592
0.0297662
5.68764
0.0251
0.0276194
4.10768
0.0252917
4.49225
3.89095
0.0252749
0.0265323
0.028424
0.0265781
0.0285504
0.0251335
0.0914442
0.0563096
4.0658
0.0355304
0.0321127
0.0269025
4.03527
0.0252683
0.0254099
0.0616371
0.0275026
0.0253799
0.0332809
0.024738
0.172821
0.0250125
0.0268407
0.0259984
10.1265
0.0254803
5.33542
0.0267169
0.0253034
0.0250618
0.0254999
0.0516413
0.0274458
0.26887
0.0255717
0.0297296
0.0297743
0.247669
0.024727
0.98408
4.30028
1.24596
0.0252764
0.192566
0.0344901
4.07045
0.0576372
9.12164
0.0564415
0.0253506
0.154632
0.299687
0.0612343
0.0251326
0.0822748
4.72558
0.861353
0.0270757
1.76133
4.0283
0.028383
3.83874
0.047202
0.0267211
0.20663
0.0267717
0.02503
0.0255528
0.0254605
0.415182
7.99575
0.024732
0.0296962
0.266217
0.0404629
0.0254625
4.04203
0.025334
0.0255318
0.102437
0.0304991
0.0505783
3.75342
0.878665
0.115805
0.0265957
0.0259563
0.125272
5.75889
6.76633
0.226994
0.0284704
0.0298103
0.122671
0.0250587
0.0284444
0.0283783
0.108283
0.0387001
0.027904
0.0253423
4.01695
0.0256294
0.0252372
0.164963
0.0256766
4.20431
0.0412504
0.025677
0.0538571
0.0267702
4.40453
0.2026
0.0252912
0.115407
0.168931
0.0591899
0.0404936
0.0596309
5.22335
0.0908048
0.0254937
0.025346
0.20074
4.02043
0.0306696
0.0258034
0.0254462
4.05049
0.025623
4.30494
0.0254686
0.059831
0.0406415
4.02866
0.0726973
0.0335952
9.84974
0.0256818
0.353083
0.0248771
0.0251134
4.47547
0.0252249
0.0263515
0.0588469
0.0330466
0.0250291
0.0252867
0.0756017
4.10714
0.0696277
0.0370428
4.4466
0.0296245
0.202789
0.0249786
0.0252846
0.0813493
4.15028
0.369894
0.0256557
6.78084
0.0285843
0.0251258
4.73712
0.0285655
0.0253034
0.0260394
0.0505186
5.78559
0.0608127
0.107171
0.0299626
0.0364034
0.123779
0.0256203
0.0265987
0.059646
0.0316979
9.62463
0.161021
0.0591038
0.0284618
0.0249351
0.030473
0.058775
0.149553
0.0257056
0.0285079
0.0249181
0.0299655
0.0856222
0.429638
5.97316
0.0254146
0.02685
0.256799
0.0259593
0.0254317
0.0253432
0.0594004
0.0289773
4.71404
0.0254759
3.84715
0.875323
0.0253065
5.71442
4.14764
0.0713657
0.0254046
0.0917987
0.224637
4.07574
0.0333767
0.0395579
0.125664
0.0268227
0.0257433
0.0256232
4.29838
0.0250817
4.14066
0.0253332
0.0247795
0.02514
0.0474573
0.0247975
6.73982
2.82458
0.0254896
4.10996
0.0256055
0.024806
0.0248646
0.0254886
0.122938
0.025699
0.037343
0.19543
9.28507
8.36164
0.0256733
0.0373795
0.0250257
0.0275408
0.0471237
4.17873
4.08737
3.41285
9.16964
0.0250251
0.0246731
0.0254819
0.025095
0.109026
0.0253343
0.0253967
0.0254599
0.0248636
0.0300313
0.0283367
0.0251262
5.75508
0.0256619
0.0255837
0.0248672
0.0253206
0.223337
6.59679
0.0589486
0.0583057
9.18336
3.94454
4.11083
6.54373
0.0259548
0.0251973
5.09353
22.7036
0.0252211
3.81409
0.0253417
0.0259258
0.0250459
17.7285
0.114818
0.0255195
0.204977
0.0252219
0.026869
5.77715
0.0295524
0.0256426
4.16782
0.0248228
0.0286725
0.0291923
0.0282815
0.0543916
5.37073
0.0250355
0.0251269
0.0254411
19.8179
0.119422
0.0263259
0.0250325
0.97236
0.0246773
0.0601336
0.0253345
0.0250038
0.0254677
0.0253511
0.0254984
0.0253998
0.0250165
0.027122
0.214359
0.0253353
0.173812
0.0263078
4.20266
0.0254322
1.7621
0.0256302
6.63101
0.025689
0.0253306
1.39739
0.0584575
4.37496
0.0761511
0.0497432
9.17777
0.122135
0.0250964
3.89644
0.0321128
0.026495
6.57587
0.0255406
0.218533
0.205743
0.0285192
0.17286
0.414255
0.0252735
0.265235
0.0253973
0.0297396
0.0253699
0.0297659
0.0570264
0.0250042
0.0295099
0.0256579
0.849432
0.0822406
0.0295536
0.0358168
0.0296913
0.0256214
4.652
0.169005
0.159041
0.172502
4.10241
0.241402
0.025618
4.13906
0.0285859
0.025329
4.25065
2.55261
0.0256597
1.16465
4.24378
0.200387
0.0255556
4.02798
0.117194
4.2481
0.0421438
0.0252396
9.52072
0.230691
0.527412
0.0263803
0.0256554
0.0297976
5.60501
0.0265982
5.81216
0.205591
0.0258579
0.0437348
3.45279
6.03689
0.0389019
4.03814
0.0267279
0.474561
4.12533
0.0253336
22.5125
0.0274231
0.025463
3.60188
0.0270457
0.221195
0.0630184
0.0296644
0.0252906
0.395629
0.241021
0.0267091
0.0253316
4.01038
0.0250242
20.0299
0.0384887
0.608515
0.0250959
0.0255915
14.7641
0.111723
0.37722
4.13618
0.0603284
4.0379
0.0775753
0.0264872
3.93096
0.0275413
0.02546
0.426773
0.232314
0.0270553
0.0253609
0.0248317
0.0253171
0.0254028
0.115484
4.00865
5.58799
0.0252604
0.0337191
0.0265613
0.276807
0.0253231
3.89422
4.08876
4.39136
0.471623
0.0345757
0.0251864
4.05572
0.0252266
0.0259559
0.0259326
0.0258154
0.0421344
0.0346015
0.0260252
0.0260089
0.025377
0.025866
0.0253344
0.0252301
0.140632
0.0994433
0.0253312
0.0253132
4.05453
9.64271
0.0295028
1.82718
0.0481766
0.0540552
0.210003
0.0250635
0.0252236
0.0253875
0.025219
0.025859
0.117497
0.025266
0.0249337
0.0252401
0.0253487
4.28187
0.0498143
0.0248401
0.0276205
0.0254652
0.0580799
0.0248913
9.89431
0.491889
0.0250875
5.99396
1.11288
0.201169
0.0603647
4.20329
4.37284
0.025322
0.0252857
0.0260113
4.24264
0.117811
0.0272377
5.86913
14.0596
0.0248298
0.0251149
0.0259102
0.0567187
0.0294177
0.0253685
0.0253064
0.0252417
0.0251361
3.75846
0.371263
0.0254564
19.5053
4.28256
0.0255739
0.0252049
0.0265674
0.0414966
3.78794
6.02716
3.91227
0.0830014
0.188081
2.23968
0.576152
4.43797
0.0276341
0.0556488
0.0299701
0.0296017
4.19449
0.0250684
5.16702
0.290017
0.0256519
0.0617421
0.0250796
4.41692
0.0263477
0.261198
0.791509
0.0249396
9.11465
0.0250616
0.0256643
8.94645
0.0283108
0.0250905
3.78943
4.2105
0.0253751
0.164055
0.0275323
0.0769595
0.0253174
0.0246812
3.65171
4.12313
0.223775
0.0251891
0.0267711
9.71741
0.0325598
0.0252
0.0255121
0.0284739
0.0249731
0.118333
0.0297332
4.1957
0.056773
0.0453102
4.45636
0.025358
0.0252786
0.041518
0.370023
0.100667
4.76827
3.83349
0.152973
4.22395
0.0250866
0.0252645
0.0442833
0.025644
0.0248254
0.0274569
0.0301758
1.32295
0.0274603
0.0412987
0.353002
0.034258
3.603
0.0254346
0.0262701
0.0249664
0.025388
0.0575838
0.0252801
0.0393945
0.240333
0.133577
3.62769
0.0251829
0.104562
0.191592
0.0249371
0.025186
0.228411
0.0251119
0.0252691
3.91071
0.586208
0.137043
0.0833536
4.5331
0.0630613
4.06144
0.0336345
0.0252304
0.100674
0.0254079
0.477053
3.69995
0.0253783
0.140956
0.0275645
0.0813727
4.14525
0.0253734
0.161193
0.838437
0.0339091
0.853476
0.244511
12.7304
0.0571125
0.0346717
0.343503
0.0516569
0.0249044
0.0252678
0.0742171
5.97892
0.0250889
0.0294654
4.87052
0.0466055
0.0271827
6.58998
0.0254669
0.0417513
12.8502
4.31482
4.23856
0.0252851
0.0271822
0.0251745
0.028397
0.0273834
0.226825
11.9978
0.0325773
0.14821
0.0282071
4.26023
0.0249438
0.025336
0.0328161
0.0252971
4.09308
4.28412
0.0570812
0.058904
0.0254222
0.18561
0.0253449
0.0254886
0.028734
0.0253952
0.16001
0.0292849
0.163543
0.285733
0.0247114
0.0582736
0.0332455
0.0251831
4.20868
0.0262452
0.0625148
7.32926
0.218587
0.025122
5.79516
0.0389837
0.0254255
0.0254919
10.7799
0.0251633
4.16192
0.0255852
0.0252491
4.32162
0.101621
0.0693992
0.0249485
0.0291678
4.67186
0.0251612
0.0250718
10.3977
9.81641
0.058189
13.1914
0.0253337
0.230125
0.0511915
0.0263261
0.0769729
13.1354
5.87342
0.061648
0.0253921
5.93141
0.0251471
4.03236
9.84328
0.0250821
4.72988
4.89253
0.0517518
4.24005
0.0252911
0.0248001
0.0247076
0.0589057
6.24677
0.218776
0.0257333
4.28986
0.0258762
0.0254379
0.118137
0.0251816
0.026232
0.0250015
0.100094
0.0253107
0.0268342
4.14276
9.79067
0.0720331
0.0253318
0.025675
6.20286
0.196073
0.157482
0.0248444
0.0722009
0.0563807
9.69525
0.0255049
4.39364
0.35101
0.0258223
0.0252909
0.0257598
0.155988
6.10196
0.0255858
0.0306433
0.027386
0.0255548
0.0253726
12.195
4.83451
19.0459
0.0254407
0.0665218
0.171472
6.10242
0.0987029
0.225076
0.0257359
7.38203
0.0390247
0.0777305
4.31602
0.0255877
0.0255032
0.0267192
0.0253519
4.74898
0.0250162
0.0946502
4.26406
0.0246763
0.0253299
3.80388
0.0248431
0.0251375
0.0575727
0.0256527
0.0445253
0.0795769
0.0254552
0.0252443
0.0799714
0.0247858
0.0252513
3.82767
0.0277479
0.0251862
0.0267418
0.0255487
0.0252782
0.025203
11.9922
0.0251813
0.0815154
0.19752
0.0250229
0.0256787
0.0466093
0.0280056
0.025044
0.214625
4.00862
0.0257563
0.0252318
0.025384
0.0306374
0.0266424
6.73434
0.313587
0.0249083
0.0256412
4.36101
0.0294179
6.80154
0.0271261
5.78213
0.0257252
0.0517457
5.3834
4.46084
0.0252934
0.0295727
0.0249175
0.0256921
39.2261
0.106769
4.19654
0.0417935
0.0293295
0.0366884
0.0253845
9.02658
0.254353
0.0255042
4.2599
0.0274595
0.0252755
0.0254108
0.0254027
0.0297689
0.0290924
5.37532
0.0254503
4.10608
4.88208
0.0505671
0.0251804
7.54989
4.17497
0.0254922
0.244691
10.5704
0.025512
0.230691
0.032794
0.0757894
0.0549792
1.57539
0.0256963
3.6486
0.190229
0.0248516
0.0251944
0.0247987
0.0286942
0.247038
4.46831
0.0249321
0.0256682
0.0253296
4.29713
0.0329824
0.0258708
0.0255672
4.84408
7.63085
0.416463
18.6045
4.54913
0.025693
0.224078
0.0254535
0.0413201
0.0250331
0.249088
0.0256788
0.0587624
0.0278708
0.0258355
5.17057
0.025215
0.0444628
5.27748
0.119564
0.0255078
0.0253379
0.0252622
6.49678
0.163396
0.0652505
0.0276582
0.0423291
3.44981
0.174729
0.0256899
3.99082
0.0314657
0.0283978
6.50718
0.0255122
3.94658
0.0254592
16.8381
0.0263445
0.0253342
6.63323
0.0329876
0.0257182
0.0253542
3.88483
5.82599
0.0552617
0.0698365
0.100365
8.86963
4.05964
6.53251
4.11149
0.0270521
0.0252082
0.0605953
0.0570836
0.0256543
0.025338
0.0401489
0.0253787
0.0253872
3.98207
0.0294476
0.208678
0.0313174
0.15931
0.0254044
0.239138
3.89397
0.0253044
0.217142
0.0252756
0.325216
0.0254372
4.54365
0.038376
0.141859
0.0250876
0.0252358
0.805214
9.63938
0.0253181
4.01129
0.0260199
0.025374
0.0253765
0.0325483
9.30561
0.154527
0.0254311
0.0284831
4.69835
0.0254445
0.0784188
0.0253006
3.92061
0.0253926
0.0247907
0.0317503
0.0705016
0.0272561
0.224603
0.0253756
0.0307479
0.0476201
0.227605
0.0253219
4.78915
0.0250396
5.34639
3.9779
0.788701
0.0253348
2.328
0.0339731
0.0253377
0.0253567
0.0252708
0.27907
0.0253574
0.261459
0.0779183
0.385983
0.0251256
0.0247498
0.0248641
4.74468
0.035135
5.78853
1.549
0.0252127
4.58069
0.16429
0.0259267
4.15521
0.0253846
0.0381062
0.0290294
0.0293998
0.0259934
0.133845
0.0906314
0.0251164
0.323252
0.0253846
0.0252524
0.0256955
0.0253844
0.0257276
0.026347
0.0254651
11.1333
0.153188
0.190942
0.0254293
0.0260239
0.214277
0.0413326
0.0349749
0.024934
0.025283
0.169483
8.9216
0.0256555
0.375464
0.0255158
4.72314
0.172706
0.0252675
0.0250004
0.12172
0.0591991
0.0262312
4.15912
0.025399
0.0273401
1.57918
0.050654
0.0249572
0.047791
0.0254668
0.0444647
0.0255965
0.21007
0.0255267
0.0334347
0.0266948
0.0398306
0.0262096
8.70228
4.26532
0.0252824
0.0254145
0.365495
5.4455
0.0253842
0.0256995
0.0598086
4.04027
0.0252035
0.0310788
0.351735
0.0255323
0.0263039
0.0481942
0.0256586
0.0256678
4.58419
12.2974
0.0254693
0.0252463
0.0303908
0.0248662
18.7789
4.67208
4.1152
0.0312479
0.16315
6.68509
0.0273128
6.38992
0.25818
0.0255029
0.0252128
0.0416837
0.0250072
0.0262831
0.377542
0.057712
0.029354
0.0910857
0.0469048
0.080123
0.222926
13.8326
0.0250497
0.0295942
4.09876
0.243144
0.0404049
0.145262
0.067827
0.0253328
0.226868
0.0396247
0.0261874
0.0283086
0.0252692
0.482499
0.0256775
0.0253707
0.0253629
0.03963
7.84504
0.22907
0.262423
5.33313
0.042906
6.83224
0.0318053
0.0255196
0.0320031
0.0419696
0.0263921
4.2369
0.255272
0.0281729
0.141066
4.77929
0.121725
0.0253524
0.0338076
4.04165
0.0253338
0.0253659
3.67969
0.0269562
0.0255358
0.0500206
0.0260354
0.0393032
0.0262873
0.117926
0.0249852
5.09081
9.67134
0.0586662
0.025337
0.156622
0.168378
0.0254776
0.0348175
0.0253362
0.025515
0.0263579
0.0252968
0.0249956
8.21592
0.290378
0.0253492
0.0255874
0.0255983
4.12847
4.18385
0.0248625
0.237979
0.0373766
0.343074
0.0255214
0.0275502
0.0250693
0.0251057
0.0265349
0.0253396
0.042248
5.59977
0.157215
0.0837435
0.0252387
0.0250682
4.30825
0.0551542
7.40745
0.404688
4.03735
0.0252447
0.0338277
0.0397023
0.0564469
4.01257
0.386661
0.0248828
0.0248012
4.00141
0.167026
0.0250063
0.0842407
6.33741
0.0251566
0.0254735
3.75724
0.0274311
0.206964
9.35367
0.0274005
0.404062
0.0275162
0.0551459
4.14858
0.0554546
0.0253353
0.120995
0.11922
0.0252678
0.0422893
0.0806712
0.0261826
4.28384
13.6251
2.23538
3.99018
0.0253309
0.0251636
0.257983
0.253451
5.35082
4.8713
4.93384
0.0457774
0.0279291
0.0246981
0.0254702
0.0567733
0.0250945
6.19911
0.0858665
4.44826
0.0251412
0.0252479
0.0253462
0.680713
0.033022
0.0274219
0.0250874
0.148299
0.0256621
5.47169
9.70396
9.03747
8.56782
0.091622
0.0254676
3.86539
0.0255842
0.285213
0.0684225
0.0254648
6.0167
0.17994
0.0596758
0.0251344
0.0269812
0.0251813
4.25465
3.95608
0.0250966
0.0253329
3.64421
0.0252329
12.6228
0.133679
0.0560129
0.0251576
0.0253881
0.250976
0.0992505
0.377972
0.0253714
0.0255008
0.0579456
0.0249301
0.0582619
0.193715
0.0249322
0.0767697
0.0332536
0.0253447
0.0253367
4.14072
0.0457843
0.0347687
0.120882
0.0575796
6.35769
0.0250801
0.0576448
0.0253166
6.4033
0.0253366
0.0466651
0.0254446
0.0251151
0.032596
0.0252123
0.0283185
0.0267432
0.0248804
0.0490719
0.0258682
0.0994149
5.2452
0.0755697
5.55985
3.47775
0.0270034
0.227281
0.0252272
0.0255896
0.0385527
3.84125
0.159283
0.0381564
3.6488
4.20333
8.75754
0.0251906
0.0251996
0.0275524
0.345324
0.208757
4.18832
0.0254993
0.0270192
0.0260703
0.0260021
0.211852
0.134557
0.208917
4.37883
0.0252269
0.025331
0.0255728
0.0257975
0.19618
5.17872
0.0251926
0.0498408
0.0251401
0.0253399
3.99632
0.121423
0.395735
0.112311
4.5064
0.0251462
0.0271409
5.20496
0.118468
0.4271
7.30224
0.2113
0.025049
0.0288938
4.01573
0.0250606
4.74214
0.0270297
0.0252419
0.0685945
0.0255046
0.0273107
4.12166
0.0251235
3.66263
0.266377
0.102404
0.0654821
4.74011
0.0588611
0.0247745
3.75175
6.44371
0.0328772
0.0253856
0.0252753
0.0262231
0.0411539
1.18845
0.0252764
0.565662
0.0251474
0.0251202
1.13396
0.0360064
0.0255754
0.0256625
6.08443
0.0587525
0.0251157
0.0253096
0.0255852
0.0777455
4.1801
0.0252919
0.0253225
0.0252847
0.0253781
0.0294938
0.0451054
0.025514
3.45675
0.0388973
0.0679954
0.0381062
0.0248598
6.45438
0.037336
0.883972
0.249551
0.0262346
0.0253925
0.026377
0.0435285
4.12739
0.0346817
0.0301178
5.25823
0.0274663
0.0965834
0.0254398
0.0254752
0.0256227
0.0253353
13.7313
0.375679
0.0254538
0.0252873
0.0261985
4.10515
0.132366
0.024871
0.0265391
0.0250298
0.0294041
0.191745
0.0272863
0.0252765
0.0248638
4.37748
4.4721
0.0250868
0.160154
0.107451
0.0660235
0.0251523
0.0253612
0.0508372
0.0256917
0.025079
0.0267602
0.484096
0.119299
0.213915
7.36394
5.88399
0.0252353
0.0257016
0.0653616
7.83896
0.0569091
0.0259427
0.025494
0.545893
0.108798
0.222704
0.153252
0.0251234
3.99702
0.0252768
0.548551
0.0253714
0.0256888
1.32895
0.0569589
0.0371582
0.0743574
4.99107
4.37098
0.0249363
0.0254416
0.898904
0.0260765
0.0249434
0.0257626
0.024695
4.20376
0.0254154
0.025443
4.1924
3.77213
0.02522
0.0253007
0.0251184
0.0252777
4.15914
5.30419
0.362176
0.124854
4.60929
6.15708
0.0250209
4.27307
4.13148
7.13683
4.10442
0.0272369
0.0255669
0.0254952
0.0255951
0.0263891
0.0253782
0.0256373
4.77513
0.0327577
0.0444257
0.0397709
3.43757
0.0354258
4.20327
3.67792
4.56757
0.0458586
0.0252841
0.0949055
0.721153
0.0264013
0.0252074
0.0256354
3.85369
4.47451
0.0551231
0.0252304
45.0319
0.0250373
0.0451203
0.0254877
3.33661
0.0247142
0.0252373
4.20571
0.0277121
3.72426
0.0253533
0.0305906
0.0260767
0.147088
0.0251503
0.0977473
0.126485
0.0251022
0.0255145
3.82165
0.826536
0.0385944
0.0592106
0.0253432
1.43971
0.025235
0.0248698
0.025951
0.0253388
0.0301587
0.0436103
0.0451932
0.0256073
0.0253309
4.73078
0.0256403
0.037714
0.02488
0.0261432
0.0253597
0.0254488
8.63662
0.025122
0.0252893
4.11682
0.0256554
3.12604
4.91047
0.0266689
0.0254627
0.39973
0.09735
5.10181
0.0310865
0.0449984
0.0318671
0.024947
6.87198
0.0253342
3.62137
0.0921875
0.0442276
0.0284021
0.39584
0.0303879
0.0253071
0.247686
0.0252462
0.0251335
0.030944
8.64097
4.80211
5.83376
12.383
0.0446956
0.0293732
0.0329822
0.0250795
0.0250634
0.0247242
0.217592
0.0266586
0.0303935
0.0252545
4.66063
3.47475
0.028745
0.0253309
0.21519
6.12881
0.0253673
0.025329
4.67587
0.0253634
0.0317136
1.09594
0.0253328
0.0256952
0.245937
4.02542
0.0256637
0.0390916
0.0252972
0.0253717
0.0271843
0.0476178
4.15664
0.0420954
0.0255105
0.0253135
0.198514
5.29933
0.0252078
0.0256802
4.19036
0.0253422
0.15747
0.0269416
0.0249847
0.0271858
0.483463
0.0251633
0.0257389
0.0255154
0.0285264
0.0252604
4.41917
0.0255879
0.104899
0.115116
0.0254706
5.13022
27.2526
0.024938
0.0405673
0.0249292
0.0420906
5.06147
0.0400381
0.0253385
0.0298362
4.35077
0.0252095
4.51351
0.0266528
0.0267126
0.0910723
0.0254906
0.025144
0.0327274
2.51863
0.065496
3.72112
0.025061
5.52077
0.255004
0.0257471
4.09457
0.131033
0.0606732
0.0273733
0.0252762
0.0251985
0.0302773
5.82261
0.154642
0.0249357
0.0254828
0.0268383
4.84017
4.40307
10.4201
0.024711
0.0257462
0.238521
0.0248726
4.79634
0.0253025
0.0254796
6.35126
0.0251344
0.0402921
0.0251022
0.0252743
0.0504466
0.0251283
0.0251693
0.0250976
0.0254876
5.03158
0.137715
4.21798
5.02951
0.027458
0.0469455
0.175894
0.025948
0.757918
4.11194
0.0430602
0.0254097
0.0255142
0.0423087
0.766394
0.103166
0.0255587
0.0250766
6.79291
6.47162
0.0252989
0.0563884
0.224539
0.0939009
0.210828
0.0255749
4.25197
4.77897
0.0250987
0.0253584
4.98467
0.976515
0.117847
25.1261
0.0299917
0.0586597
0.0256686
5.91145
0.0519443
0.0313
0.0578111
5.79152
0.0251796
0.0252549
0.0275487
0.209241
0.0251545
4.7841
0.0694856
4.46237
0.0252517
0.0254179
0.0944253
0.0251969
0.172022
0.0779659
8.12822
5.78541
4.13087
0.0336911
0.0253457
0.0250374
0.0257151
4.28178
0.0763913
4.07756
5.36131
0.0252805
0.0257243
0.159857
0.0255199
0.489898
0.0251094
0.0316772
4.21159
0.0254425
0.0324435
0.0258028
0.0817647
0.0392482
0.0254172
4.02777
0.156121
0.119435
4.24414
0.559505
4.70713
0.0253272
5.29471
4.4348
8.36909
0.0250663
0.0250402
0.0267283
0.094275
5.3373
4.22209
0.0250982
0.0252598
0.275565
8.4285
0.0256699
0.0254306
0.0259483
0.0249486
0.0928392
4.26276
0.0255756
0.187285
22.4272
0.269013
16.2347
0.0678877
0.0253991
0.0247795
0.0250352
0.026847
4.22566
0.0653801
0.0328365
0.057483
3.3574
0.0251829
0.0248753
0.183484
12.1617
0.0410462
3.62567
0.184467
0.0257076
0.0249349
0.0664498
5.20689
0.0652807
0.0255875
0.0251757
0.478933
5.18223
0.0265973
0.0254351
3.99554
0.405419
0.0333474
0.0256643
0.0297709
0.194392
0.0247628
17.4313
3.36451
0.197155
0.0280074
0.0257178
0.0250619
0.0769241
0.0269246
0.02526
0.0539003
0.0256434
0.0512268
5.52155
4.08984
5.24805
0.024997
0.025072
4.85255
0.0256447
4.18927
1.13363
0.0254284
0.02557
0.0321186
0.171652
11.6665
0.114208
4.00955
0.025018
0.0248761
0.160879
0.0250983
0.0465576
0.0253133
0.0348604
0.09948
0.0275816
0.0331983
2.40244
0.0252883
0.0315523
3.87314
0.15896
4.14514
0.0250296
0.025378
0.0262064
0.0254515
0.0271993
0.0254574
0.0265421
0.0324482
4.8833
0.0251711
1.33677
0.0453896
0.0250833
0.260784
1.44863
18.6558
0.318751
0.0281177
3.64669
0.0255955
0.0684938
0.0252448
0.0252925
0.0248399
0.0259284
0.142021
4.17659
0.0255227
0.0256897
4.17585
0.0581681
5.37467
0.0325253
0.0253726
0.0256665
0.0384302
0.102026
0.030963
0.151669
0.0339123
0.0288886
1.13841
0.0437227
0.0253356
3.86993
0.0260469
0.220823
4.28557
0.112195
5.10616
16.4852
0.0281896
6.73894
0.0281344
0.0300303
0.0313726
0.026418
0.0262706
5.21778
0.0463195
3.97524
0.0262433
0.0253424
0.0256017
0.230212
0.0253331
1.36841
0.0262922
0.0768934
0.0250287
0.024878
0.0250747
4.4223
0.0437082
0.025485
0.0255127
0.0503932
0.0254596
0.142635
0.0248978
0.0252651
0.0249819
3.43562
0.239829
0.12677
0.025559
0.0251556
0.0256245
0.0256763
0.0281769
0.0769591
0.10777
0.025568
0.0253627
0.270604
0.0253009
6.3968
0.0254989
0.0256675
4.08881
0.030052
0.0269428
0.997469
0.0250323
0.0491645
5.15537
0.0254049
0.0256439
0.0253234
0.0269241
0.0249946
0.0356158
0.490003
3.80439
0.0256141
0.0453447
0.0885916
0.590718
0.0253609
0.0253426
0.0250088
0.045147
0.524524
0.0341015
0.0255594
4.66415
0.0341103
0.0248681
6.47262
4.36516
0.0346867
0.025254
0.392938
0.0254631
0.024862
4.80621
4.08418
4.67883
0.0253003
0.025197
0.033341
4.18503
0.0251336
0.0407301
0.0287562
0.0822945
0.0492279
0.093907
0.0246753
0.0373588
4.63872
0.0562075
0.0252394
0.0252872
0.0539527
30.9478
0.0526675
1.40488
0.0252379
0.025912
0.0485181
0.028587
0.0253348
4.32215
0.206881
17.9331
0.0291262
0.0248911
5.09655
0.0251444
4.12022
0.045999
2.17931
0.411417
3.50504
6.74406
0.0269179
0.0255254
0.0252966
0.0254446
0.224327
7.18593
0.0251251
0.0252571
0.0256749
6.10044
0.0253319
0.0254267
0.138088
0.0255471
0.0835194
0.0983471
0.0248724
0.0700135
0.0256812
0.060654
0.0253333
0.0275365
0.0252191
0.0265536
0.0249951
0.0775095
9.90474
0.0277436
0.0256584
0.036032
0.0559462
0.0252005
0.0253265
0.0320402
0.0248775
3.63322
0.0262046
0.0329677
0.0253454
0.200307
3.99776
0.0247769
0.0268238
0.0256691
0.18084
0.0432925
4.81896
0.0859981
3.78666
0.0254312
6.46449
0.0251104
0.0256336
0.0252205
0.025521
0.087109
0.034558
7.85993
0.0572643
0.0253753
0.0256844
0.147507
0.0322359
0.0391007
0.0671712
8.55015
6.69459
0.0381555
1.48755
0.0401901
0.377644
4.21253
1.25574
4.5739
0.383962
0.0251991
0.02527
0.0270685
4.21031
0.0316545
0.0257007
0.0767051
0.0247196
0.0249442
0.0564124
0.0252554
0.0254867
0.0263136
0.0267999
0.0270291
0.025241
0.0314631
4.41704
0.0274639
0.0248865
0.0252898
5.28421
6.28213
0.0247884
5.49275
5.48817
0.0368625
0.0248181
0.210715
6.68258
9.27222
3.76122
1.07158
4.36856
0.0867485
0.0254081
0.0249519
5.0575
0.028499
0.137165
4.49281
0.0383706
0.0283024
0.0270029
0.0262775
0.0568012
0.119815
0.0253634
0.0529076
4.79885
0.0250278
0.0249326
5.03499
0.0253391
0.100436
0.0256948
0.0249895
0.0257234
0.0253676
0.0253968
3.94904
0.027062
0.124677
0.850904
0.0255703
0.0251462
0.0278388
4.33096
0.0249943
0.0250034
6.65375
4.71189
4.2112
0.0262819
0.114368
0.025429
0.121693
4.85421
0.0271417
0.07033
4.72724
0.025315
0.174377
8.59826
0.386725
0.075361
4.18836
0.106478
0.0741493
0.207816
0.0756248
0.0813952
0.0253643
0.656237
0.0350181
4.63594
0.0252682
0.0255453
0.0255695
0.0250882
0.0259212
4.91258
0.178415
0.0468614
0.0252284
0.507081
0.0255498
0.233979
0.0449478
5.03551
0.0251042
0.0254056
0.148986
2.05776
4.32282
0.0255685
0.146651
4.08009
0.119325
0.0271942
0.0254352
0.0798177
1.04551
0.0273786
0.0377532
0.223362
0.0253065
0.0256084
4.03438
0.076909
0.0251413
0.0259531
1.1047
0.0269814
0.0326217
0.0353036
0.0256726
5.28736
0.0252993
0.0328108
0.0514893
0.105434
0.0248782
0.0252115
7.1258
0.024881
0.0345192
0.037678
0.0250506
0.226604
0.0259655
0.031994
0.265869
4.03593
0.356111
0.0250702
0.240592
0.0353811
4.5821
6.78706
0.470458
4.04916
5.35987
7.22222
0.149329
5.48767
0.136804
0.0445231
3.51753
0.0251643
4.6847
0.0254501
0.0248894
0.0256969
0.0836917
7.9282
0.0449267
0.0250268
0.0253897
0.0256579
0.144387
0.0371997
0.0702656
0.0252614
0.0253586
0.0251467
0.0259422
0.0452123
6.83585
0.025187
0.0858385
0.287718
5.18307
0.0449186
5.70018
0.147305
0.0253343
4.61904
0.529903
0.0756975
0.193389
0.0255498
4.14388
0.0260357
0.0262952
0.245276
4.37681
3.73983
0.0282834
0.217281
4.39839
3.47521
0.222776
0.0252441
5.02595
0.0249125
0.0551926
0.249659
0.191827
0.0272558
0.713437
0.0258704
0.0249837
0.0649374
0.0254092
0.16248
0.0263068
0.0256903
7.72463
0.0252606
0.500247
4.17136
0.0277294
0.386059
0.025431
5.16986
0.0287904
4.12664
5.3621
0.272135
0.0298757
5.49875
8.44418
0.0421991
0.202068
0.0257488
0.065404
0.766788
0.0259124
0.0386549
3.61288
0.026586
4.35482
0.0255243
0.0254062
7.06128
0.0295462
4.17155
0.0857471
0.0281805
0.78903
0.02505
0.0775767
0.0664231
0.0265855
0.153901
4.03058
0.0254664
0.0253998
0.0256193
0.0261726
0.209585
3.50273
0.107827
0.0288423
0.024737
0.0251651
0.0372581
0.0254592
0.028264
0.0247632
0.0617481
0.391789
5.9745
0.168218
0.0398139
0.0248251
0.278946
4.68995
0.110407
0.29298
0.045503
6.14902
0.0295651
0.0290683
0.0254079
0.0257214
0.0251451
0.0424655
0.0528283
0.0254255
0.0253034
0.158549
0.024964
0.0253729
0.101934
0.0254497
0.0251004
0.101633
0.0477949
0.0837084
0.0443356
0.031268
0.280152
4.68501
0.0248239
5.72241
3.92535
1.74365
0.025108
0.0478533
0.0250108
0.0250479
0.0248216
8.58905
0.0268561
0.055084
0.0252274
0.0249354
0.0446394
0.0582022
0.0712122
0.0399992
0.112034
6.24942
0.0250851
0.0254625
0.729988
0.0264487
12.7354
0.252008
0.0251336
0.0419498
4.84174
0.803117
0.0443138
0.39128
0.0325279
0.0254418
0.0251264
0.0755782
0.025338
0.0252946
0.0931004
0.0250539
4.11591
0.0288895
0.115257
5.55037
0.0273476
5.67511
0.0260089
0.079508
0.0252038
0.0250621
0.0252383
0.0259511
8.2213
0.0256073
0.0250572
0.0777327
0.0602636
4.22966
0.0251311
0.0922941
0.0253543
0.0312574
0.691253
0.0368
0.0856228
6.62191
0.0254501
0.025513
4.12031
0.0252655
0.0271233
3.46903
0.0262322
0.0250279
0.0761337
0.0247321
0.144697
0.0254902
5.33459
0.0255016
0.0251672
0.235806
0.0802796
28.4867
0.687166
0.0254784
0.0253176
0.0808183
0.0254127
0.0256859
0.0551312
4.19038
0.0731258
0.0250259
0.02712
0.149854
0.0248102
4.35846
0.0251421
0.0695174
0.123039
0.139711
0.57822
0.0749182
0.37781
1.62309
0.25217
0.0249408
0.0264479
0.0248055
0.0575583
0.0258144
0.0272247
4.99488
0.0699471
0.0251445
0.211141
0.0575651
0.0252771
0.0580932
0.0613074
0.0828587
0.217004
3.98581
3.98543
4.87709
0.029101
0.0256255
0.0252332
1.41965
0.0250567
0.05229
0.0248556
0.0259628
0.0255926
0.0256236
7.60697
0.381169
0.0254374
0.0252046
0.0433962
28.278
0.03993
12.9191
0.0254147
0.386254
0.0266338
0.0250193
0.0354478
0.270469
4.60015
0.160591
3.72542
0.119035
0.402545
5.40319
0.0450448
0.0255569
3.97624
0.0250271
0.0252035
3.99468
0.0255899
0.0252832
0.0262255
0.0295444
0.0420201
16.003
6.11142
7.17731
0.0725383
3.97426
7.27151
3.84103
0.0249765
4.11712
1.68026
0.0256023
0.0255975
0.0252421
0.0250467
0.0565036
6.42031
0.0253435
0.0544837
0.025509
0.116416
0.041931
0.0250742
0.0253428
0.120077
0.0250427
4.1846
0.0390518
0.147066
0.0258735
0.0252359
0.0253376
0.564371
8.4486
3.44731