/*--------------------------------*- C++ -*----------------------------------*\
| =========                 |                                                 |
| \\      /  F ield         | OpenFOAM: The Open Source CFD Toolbox           |
|  \\    /   O peration     | Version:  v2012                                 |
|   \\  /    A nd           | Website:  www.openfoam.com                      |
|    \\/     M anipulation  |                                                 |
\*---------------------------------------------------------------------------*/
FoamFile
{
    version     2.0;
    format      ascii;
    class       volScalarField;
    location    "400";
    object      omega;
}
// * * * * * * * * * * * * * * * * * * * * * * * * * * * * * * * * * * * * * //

dimensions      [0 0 -1 0 0 0 0];


internalField   nonuniform List<scalar> 
53008
(
0.0326034
2.5606
0.0273504
0.409385
6.31573
4.24199
0.0729563
0.0323668
0.0439427
0.0258431
0.118537
0.0931121
3.56843
4.7561
0.0256465
0.0249774
0.0288906
0.0249839
6.29537
0.0298215
0.0276232
0.0565788
0.0253782
0.0699357
0.0269597
1.54177
4.72125
0.0515013
0.459314
0.369688
0.831528
3.9567
4.4407
0.0260565
0.0253575
0.0394892
0.0286298
0.0256656
0.0798126
0.0265154
0.0284596
5.85043
0.119577
5.1604
0.030059
0.025107
0.0249972
0.0267674
0.197165
0.025235
0.0255174
0.0333148
0.0300492
0.0254045
0.06165
6.25106
0.0295701
0.0253032
0.526154
0.0550321
0.0258554
0.0331223
10.0458
3.9997
0.315912
0.0252576
0.352765
0.0249855
0.0250422
0.0251092
17.6991
0.0248977
0.0255388
4.18849
1.53379
0.0253754
0.0256685
4.14945
0.024931
15.226
4.25067
3.96474
0.175255
0.439992
0.0439731
0.0251165
0.129131
0.0432681
0.0252579
0.04916
11.2495
5.06933
3.97855
0.105934
7.32094
0.142861
4.70074
0.0272177
9.26882
10.3655
0.0298239
0.0264932
0.146479
0.0514884
0.0333794
6.03044
4.47358
0.0390761
0.116163
0.0248922
0.307349
18.5479
0.0256755
7.24999
4.77008
0.025954
0.0281827
0.0249489
2.7288
10.2783
6.60427
0.0255185
0.026356
16.0408
4.16738
0.0253211
12.2069
0.244282
0.0446161
0.0254722
3.88488
0.0253246
0.441797
0.0280925
0.0249203
0.460221
0.0254995
3.56384
0.0252172
0.025131
0.0249809
0.0251298
0.0465289
0.500835
0.0456641
0.0269767
0.0280635
0.0253351
0.0248674
0.0258794
0.0255637
10.0204
5.80655
0.057141
0.0251479
0.0298277
5.11648
4.76453
0.0267296
0.824842
0.0821143
0.0252406
0.0251437
5.17905
0.0272734
0.0256932
0.0251953
0.0322218
0.0252695
0.0266276
0.0358074
4.24014
7.42263
0.0252318
14.5505
0.0250276
0.0440538
0.13731
0.123264
0.0515267
0.0263351
0.0271883
5.21286
0.0258564
0.0913039
3.73511
9.48857
7.44065
4.43134
0.0253408
18.7833
0.0258708
0.168971
9.24439
0.0252763
0.026291
0.0341287
0.0253366
0.025499
0.0303256
0.0978167
0.0254572
0.0328297
0.0252102
0.162258
4.04434
0.0287715
0.0254742
0.0609286
0.0249437
4.62843
0.0264675
0.593726
0.0274494
0.114334
0.0253363
0.0254817
0.0253741
0.0848562
0.0253147
0.273863
0.0248288
0.164328
0.0248268
0.0273306
0.120805
0.0265348
0.0601091
0.0411899
0.0249795
3.81764
4.65796
0.0247943
4.42233
0.0913905
5.98295
0.0261666
0.0249199
4.03445
0.0249717
0.0253059
0.0260382
0.470244
0.0259237
0.0332246
0.0256636
0.179358
0.265045
0.0253661
0.0538984
0.026762
0.0259341
0.0252306
0.0299895
0.0258042
9.72591
0.464155
0.025442
0.0855954
0.0295039
2.67439
0.507107
0.0319584
0.0256507
0.025271
4.80397
5.61986
0.0253451
9.29963
0.171502
0.0247999
0.0279282
0.0254645
0.466239
3.85671
0.0247212
0.160444
3.94744
0.0568906
0.0256705
0.0253749
0.0256609
0.0567877
0.0857509
0.0273224
0.0796563
0.0494935
4.0643
0.0884269
0.0258062
2.19064
4.05606
0.109483
4.4325
0.124026
0.0253657
0.0565501
0.153626
9.49027
0.0266616
0.109371
4.4186
4.0262
3.9303
0.0256227
3.36918
0.025998
0.0254187
0.0257212
0.0969863
3.73354
0.474661
4.78048
3.90547
0.108903
0.059668
0.0256945
0.0254643
0.0247257
0.0530217
0.151356
5.86933
0.0357942
3.84825
1.85453
0.02551
5.09887
0.032419
0.0251533
0.0366927
5.40712
0.0252765
0.0256535
0.0259366
0.0250067
0.0248398
0.16479
0.0249705
4.70073
0.0267094
0.0256623
0.0252781
0.0817022
0.0253878
0.0256759
4.77224
0.0731028
4.10111
0.44014
4.48279
0.25512
3.91236
0.0261012
0.0253965
4.09216
6.80085
0.0252944
0.025239
2.19903
5.64188
0.0253834
0.0506407
0.0254619
4.76542
0.0901562
3.68277
0.0247325
0.0433236
0.0305456
0.0271437
9.29372
0.0297893
0.107378
0.272713
0.0901086
0.0289691
0.0608253
0.230478
4.76137
5.28273
0.0253621
0.0265336
0.0403593
0.0297661
5.68776
0.0251
0.0276194
4.10741
0.0252917
4.49216
3.89076
0.0252749
0.0265323
0.028424
0.0265781
0.0285504
0.0251335
0.0914453
0.0563137
4.06578
0.0355304
0.0321126
0.0269025
4.03525
0.0252683
0.0254099
0.0616366
0.0275026
0.0253799
0.0332809
0.024738
0.172819
0.0250125
0.0268407
0.0259984
10.1264
0.0254803
5.33539
0.0267169
0.0253034
0.0250618
0.0254999
0.0516431
0.0274457
0.268869
0.0255717
0.0297296
0.0297743
0.247671
0.024727
0.986136
4.30038
1.24844
0.0252764
0.192569
0.03449
4.07049
0.0576373
9.12144
0.0564415
0.0253506
0.15463
0.299737
0.0612335
0.0251326
0.0822756
4.72553
0.862803
0.0270757
1.76193
4.02807
0.028383
3.83867
0.0472016
0.0267211
0.206635
0.0267717
0.02503
0.0255528
0.0254605
0.415171
7.99555
0.024732
0.0296963
0.266203
0.0404629
0.0254625
4.04207
0.025334
0.0255318
0.102437
0.030499
0.0505783
3.75328
0.878676
0.115803
0.0265957
0.0259562
0.12527
5.75908
6.76705
0.226997
0.0284704
0.0298104
0.122668
0.0250587
0.0284443
0.0283783
0.108283
0.0387001
0.027904
0.0253423
4.01688
0.0256294
0.0252372
0.16496
0.0256766
4.2044
0.0412502
0.025677
0.053857
0.0267702
4.40444
0.202598
0.0252912
0.115531
0.168928
0.0591898
0.0404936
0.0596302
5.22354
0.0908045
0.0254937
0.025346
0.200737
4.02017
0.0306695
0.0258034
0.0254462
4.05053
0.025623
4.3049
0.0254686
0.0598312
0.0406417
4.02867
0.0726957
0.0335952
9.84983
0.0256818
0.353062
0.0248771
0.0251134
4.47525
0.0252249
0.0263515
0.0588463
0.0330465
0.0250291
0.0252867
0.0756002
4.10721
0.0696277
0.0370426
4.44656
0.0296245
0.202785
0.0249786
0.0252846
0.0813501
4.15024
0.369902
0.0256557
6.78094
0.0285842
0.0251258
4.73714
0.0285655
0.0253034
0.0260394
0.0505185
5.78578
0.0608125
0.107173
0.0299627
0.0364032
0.123775
0.0256203
0.0265987
0.0596458
0.0316978
9.62498
0.161018
0.0591036
0.0284617
0.0249351
0.0304729
0.0587744
0.149549
0.0257056
0.0285079
0.0249181
0.0299655
0.0856214
0.429659
5.97367
0.0254146
0.0268499
0.256801
0.0259593
0.0254317
0.0253432
0.0594078
0.0289772
4.71399
0.0254759
3.8471
0.875456
0.0253065
5.71454
4.14772
0.0713641
0.0254046
0.0917978
0.224638
4.07547
0.0333766
0.0395574
0.126101
0.0268228
0.0257433
0.0256232
4.29849
0.0250817
4.14059
0.0253332
0.0247795
0.02514
0.0474573
0.0247975
6.73996
2.88983
0.0254896
4.11001
0.0256055
0.024806
0.0248646
0.0254886
0.122935
0.025699
0.0373429
0.195435
9.28495
8.3617
0.0256733
0.0373794
0.0250257
0.0275407
0.0471235
4.17868
4.08742
3.41447
9.17016
0.0250251
0.0246731
0.0254819
0.025095
0.109025
0.0253343
0.0253967
0.0254599
0.0248636
0.0300313
0.0283367
0.0251262
5.75519
0.0256619
0.0255837
0.0248672
0.0253206
0.223339
6.59689
0.0589489
0.0583056
9.1832
3.94451
4.11082
6.54393
0.0259547
0.0251973
5.09371
22.7009
0.0252211
3.81447
0.0253417
0.0259258
0.0250459
17.7284
0.114778
0.0255195
0.204972
0.0252219
0.026869
5.77727
0.0295523
0.0256426
4.16775
0.0248228
0.0286725
0.0291923
0.0282814
0.0543802
5.37269
0.0250355
0.0251269
0.0254411
19.8182
0.119419
0.0263259
0.0250325
0.964257
0.0246773
0.0601335
0.0253345
0.0250038
0.0254676
0.0253511
0.0254984
0.0253998
0.0250165
0.0271219
0.214442
0.0253353
0.17381
0.0263079
4.20267
0.0254322
1.76473
0.0256302
6.63111
0.025689
0.0253306
1.40099
0.0584575
4.37475
0.076148
0.0497433
9.17766
0.122131
0.0250964
3.89638
0.0321127
0.026495
6.57606
0.0255406
0.218535
0.205741
0.0285192
0.172858
0.414242
0.0252735
0.264963
0.0253973
0.0297395
0.0253699
0.0297659
0.057028
0.0250042
0.0295099
0.0256579
0.852252
0.0822415
0.0295536
0.0358167
0.0296913
0.0256214
4.65201
0.169024
0.159098
0.1725
4.10234
0.241391
0.025618
4.13907
0.0285859
0.025329
4.25059
2.55203
0.0256597
1.16226
4.24374
0.200376
0.0255556
4.02798
0.117191
4.24805
0.0421438
0.0252396
9.52044
0.231194
0.527892
0.0263803
0.0256554
0.0297976
5.60579
0.0265982
5.81268
0.205591
0.0258579
0.0437344
3.45277
6.03701
0.0389017
4.03814
0.0267279
0.474573
4.12529
0.0253336
22.5051
0.0274231
0.025463
3.60184
0.0270457
0.221193
0.0630175
0.0296644
0.0252906
0.395645
0.241559
0.0267091
0.0253316
4.01033
0.0250242
20.0302
0.0384887
0.609253
0.0250959
0.0255915
14.764
0.111724
0.37726
4.13615
0.0603283
4.03794
0.0775753
0.0264872
3.9309
0.0275413
0.02546
0.426839
0.23234
0.0270553
0.0253609
0.0248317
0.0253171
0.0254028
0.115482
4.00862
5.58808
0.0252604
0.0337191
0.0265614
0.276812
0.0253231
3.89408
4.0888
4.39133
0.471708
0.0345756
0.0251864
4.0557
0.0252266
0.0259559
0.0259326
0.0258154
0.0421343
0.0346015
0.0260252
0.0260089
0.025377
0.025866
0.0253344
0.0252301
0.140411
0.0994443
0.0253312
0.0253132
4.05457
9.64244
0.0295027
1.82349
0.0481764
0.0540528
0.209997
0.0250635
0.0252236
0.0253875
0.025219
0.025859
0.117167
0.025266
0.0249337
0.0252401
0.0253487
4.28184
0.0498147
0.0248401
0.0276205
0.0254652
0.0580801
0.0248913
9.8945
0.491841
0.0250875
5.99408
1.11503
0.201166
0.0603646
4.20322
4.37297
0.025322
0.0252857
0.0260113
4.24258
0.117808
0.0272378
5.86912
14.0523
0.0248298
0.0251149
0.0259103
0.0567181
0.0294177
0.0253685
0.0253064
0.0252417
0.0251362
3.75847
0.371263
0.0254564
19.5067
4.28232
0.0255739
0.0252049
0.0265674
0.0414966
3.78795
5.98067
3.91213
0.0829992
0.188085
2.22861
0.576808
4.43804
0.0276341
0.0556479
0.0299701
0.0296017
4.19443
0.0250684
5.16701
0.290024
0.025652
0.061743
0.0250796
4.41691
0.0263477
0.261206
0.792721
0.0249396
9.11446
0.0250616
0.0256643
8.94627
0.0283107
0.0250905
3.78944
4.21059
0.0253751
0.164051
0.0275323
0.0769598
0.0253174
0.0246812
3.65175
4.12309
0.223798
0.0251891
0.0267711
9.71738
0.0325598
0.0252
0.0255121
0.0284739
0.0249731
0.11833
0.0297333
4.19565
0.0567725
0.0453098
4.45621
0.025358
0.0252787
0.0415179
0.369977
0.100669
4.76836
3.8335
0.152974
4.2239
0.0250866
0.0252645
0.0442829
0.025644
0.0248254
0.0274569
0.0301758
1.3201
0.0274603
0.0412988
0.353094
0.0342579
3.60288
0.0254346
0.0262701
0.0249664
0.025388
0.0575829
0.0252801
0.0393944
0.240328
0.133574
3.62764
0.0251829
0.10454
0.191607
0.0249371
0.025186
0.228338
0.0251119
0.0252691
3.91066
0.586887
0.137053
0.0833533
4.53303
0.0630607
4.06148
0.0336344
0.0252304
0.100675
0.0254079
0.477024
3.69994
0.0253783
0.140985
0.0275645
0.0813736
4.14526
0.0253734
0.16119
0.828471
0.0339091
0.850941
0.244526
12.7917
0.0571125
0.0346716
0.343439
0.0516812
0.0249044
0.0252678
0.074195
5.97904
0.0250889
0.0294654
4.87063
0.0466021
0.0271827
6.59017
0.0254669
0.0417513
12.85
4.31475
4.23853
0.0252851
0.0271821
0.0251745
0.028397
0.0273834
0.226808
11.9977
0.0325773
0.148206
0.0282071
4.2602
0.0249438
0.025336
0.0328161
0.0252971
4.09301
4.28413
0.0570813
0.0589052
0.0254222
0.185616
0.0253449
0.0254886
0.028734
0.0253952
0.160007
0.0292848
0.16368
0.285738
0.0247114
0.0582864
0.0332455
0.0251831
4.20865
0.0262452
0.062514
7.32924
0.218529
0.025122
5.79527
0.0389836
0.0254255
0.0254919
10.7652
0.0251633
4.16185
0.0255852
0.0252491
4.32141
0.101623
0.0693995
0.0249485
0.0291678
4.67187
0.0251612
0.0250718
10.3976
9.81639
0.0581883
13.1912
0.0253337
0.230126
0.0511916
0.0263261
0.0769733
13.1352
5.87363
0.061647
0.0253921
5.93161
0.0251471
4.03239
9.84379
0.0250821
4.72979
4.89243
0.0517516
4.23982
0.0252911
0.0248001
0.0247076
0.058905
6.24701
0.218749
0.0257333
4.2899
0.0258762
0.0254379
0.118005
0.0251816
0.026232
0.0250015
0.100095
0.0253107
0.0268342
4.14269
9.79117
0.0720264
0.0253318
0.025675
6.20311
0.196076
0.157484
0.0248444
0.0722005
0.0563805
9.69513
0.0255049
4.39364
0.351944
0.0258223
0.0252909
0.0257598
0.155988
6.10207
0.0255858
0.0306433
0.027386
0.0255548
0.0253726
12.1948
4.83429
19.0459
0.0254407
0.0665217
0.171474
6.10253
0.0987033
0.225077
0.0257359
7.38202
0.0390247
0.0777311
4.31599
0.0255877
0.0255032
0.0267192
0.0253519
4.74903
0.0250162
0.0946493
4.26411
0.0246763
0.0253299
3.80372
0.0248431
0.0251375
0.0575719
0.0256527
0.0445207
0.0795766
0.0254552
0.0252443
0.0799705
0.0247858
0.0252513
3.82772
0.0277479
0.0251862
0.0267418
0.0255487
0.0252782
0.025203
11.9919
0.0251813
0.0815143
0.197515
0.0250229
0.0256787
0.0466094
0.0280056
0.025044
0.214623
4.00865
0.0257563
0.0252318
0.025384
0.0306373
0.0266424
6.73446
0.313507
0.0249083
0.0256413
4.36102
0.0294179
6.80166
0.0271262
5.78224
0.0257252
0.0517456
5.38363
4.4608
0.0252933
0.0295727
0.0249175
0.0256921
39.2259
0.107048
4.19654
0.0417935
0.0293294
0.0366884
0.0253845
9.02645
0.254376
0.0255042
4.25992
0.0274595
0.0252755
0.0254108
0.0254027
0.0297689
0.0290923
5.37544
0.0254503
4.10607
4.88188
0.050567
0.0251804
7.54983
4.17493
0.0254922
0.244662
10.5701
0.025512
0.230761
0.0327939
0.0758085
0.0549784
1.57275
0.0256963
3.64854
0.190231
0.0248516
0.0251944
0.0247987
0.0286943
0.247038
4.46827
0.0249321
0.0256682
0.0253296
4.29707
0.0329823
0.0258708
0.0255672
4.84399
7.63079
0.416467
18.6045
4.54884
0.025693
0.22418
0.0254535
0.04132
0.0250331
0.249081
0.0256788
0.0588511
0.0278708
0.0258355
5.17069
0.025215
0.04446
5.27771
0.119563
0.0255078
0.0253379
0.0252622
6.49689
0.16339
0.0652506
0.0276582
0.042329
3.44978
0.174727
0.0256899
3.99077
0.0314657
0.0283978
6.50729
0.0255122
3.94651
0.0254592
16.8381
0.0263445
0.0253342
6.6334
0.0329877
0.0257182
0.0253542
3.88479
5.82618
0.0552615
0.0698367
0.100366
8.86948
4.05957
6.53272
4.11145
0.0270521
0.0252082
0.0605952
0.0570821
0.0256543
0.025338
0.0401489
0.0253787
0.0253872
3.98182
0.0294476
0.208667
0.0313173
0.159308
0.0254044
0.239177
3.89391
0.0253044
0.21713
0.0252756
0.325142
0.0254372
4.5435
0.038376
0.141153
0.0250876
0.0252358
0.805871
9.63937
0.0253181
4.01104
0.0260199
0.025374
0.0253765
0.0325482
9.22631
0.154529
0.0254311
0.0284832
4.69836
0.0254445
0.0784296
0.0253006
3.92055
0.0253926
0.0247907
0.0317503
0.0705022
0.0272561
0.224604
0.0253756
0.0307478
0.0476202
0.227606
0.0253218
4.78909
0.0250396
5.34663
3.97783
0.788546
0.0253347
2.31627
0.033973
0.0253377
0.0253567
0.0252708
0.278932
0.0253574
0.261456
0.0779182
0.385378
0.0251256
0.0247498
0.0248641
4.74443
0.0351349
5.78873
1.55167
0.0252127
4.58042
0.164287
0.0259267
4.15522
0.0253846
0.0381063
0.0290294
0.0293998
0.0259934
0.133847
0.0906316
0.0251164
0.322775
0.0253846
0.0252524
0.0256955
0.0253844
0.0257276
0.026347
0.0254651
11.133
0.153183
0.190937
0.0254293
0.0260239
0.214275
0.0413327
0.0349749
0.024934
0.025283
0.169421
8.95215
0.0256555
0.375467
0.0255158
4.72288
0.172753
0.0252675
0.0250004
0.121717
0.0591991
0.0262312
4.15921
0.025399
0.0273401
1.57841
0.0506539
0.0249572
0.047794
0.0254668
0.0444643
0.0255965
0.210068
0.0255267
0.0334347
0.0266947
0.0398306
0.0262096
8.7021
4.26527
0.0252824
0.0254145
0.365376
5.44538
0.0253842
0.0256995
0.0598087
4.04027
0.0252035
0.0310787
0.351443
0.0255323
0.0263039
0.0481939
0.0256586
0.0256678
4.58413
12.2974
0.0254693
0.0252463
0.0303908
0.0248662
18.779
4.67199
4.11504
0.0312478
0.163131
6.68523
0.0273129
6.39003
0.258177
0.0255029
0.0252128
0.0416837
0.0250072
0.0262831
0.377549
0.0577115
0.0293541
0.0910869
0.0469031
0.0801086
0.222907
13.8325
0.0250497
0.0295942
4.0986
0.243128
0.0404047
0.145258
0.0678273
0.0253328
0.226865
0.0396248
0.0261874
0.0283086
0.0252692
0.482546
0.0256775
0.0253707
0.0253629
0.03963
7.84484
0.229039
0.262407
5.3332
0.0429064
6.83048
0.0318052
0.0255196
0.0320031
0.0419696
0.0263921
4.23687
0.255263
0.0281729
0.141069
4.77936
0.121721
0.0253524
0.0338077
4.04165
0.0253338
0.0253659
3.67967
0.0269562
0.0255358
0.0500208
0.0260354
0.0393032
0.0262873
0.117929
0.0249852
5.10116
9.6717
0.0586659
0.0253369
0.156615
0.168375
0.0254776
0.0348175
0.0253362
0.025515
0.0263579
0.0252968
0.0249956
8.21598
0.290384
0.0253492
0.0255874
0.0255983
4.12855
4.18378
0.0248625
0.237974
0.0373764
0.343031
0.0255214
0.0275501
0.0250693
0.0251057
0.026535
0.0253396
0.0422479
5.59986
0.157218
0.0837423
0.0252387
0.0250682
4.30831
0.0551534
7.40726
0.40298
4.03709
0.0252447
0.0338277
0.0397021
0.056447
4.01253
0.386764
0.0248828
0.0248012
4.00138
0.167026
0.0250063
0.0842407
6.33752
0.0251566
0.0254735
3.75709
0.0274312
0.206956
9.3535
0.0274004
0.403196
0.0275161
0.0551457
4.14863
0.0554548
0.0253353
0.120589
0.119216
0.0252678
0.0422892
0.0806691
0.0261826
4.28377
13.625
2.23725
3.99015
0.0253309
0.0251636
0.257996
0.253442
5.35089
4.87151
4.93373
0.045777
0.0279291
0.0246981
0.0254702
0.0567725
0.0250945
6.19935
0.0858653
4.44825
0.0251412
0.0252479
0.0253462
0.676697
0.033022
0.0274219
0.0250874
0.147825
0.0256621
5.47177
9.70381
9.03733
8.56774
0.091623
0.0254676
3.86541
0.0255842
0.285183
0.0684224
0.0254648
6.01681
0.179935
0.0596752
0.0251344
0.0269812
0.0251813
4.2547
3.95603
0.0250966
0.0253329
3.64415
0.0252329
12.6229
0.133675
0.0560124
0.0251576
0.0253881
0.25097
0.0992476
0.377971
0.0253714
0.0255008
0.0579452
0.0249301
0.0582612
0.193715
0.0249322
0.0767703
0.0332535
0.0253447
0.0253367
4.14081
0.0457838
0.0347687
0.120879
0.0575795
6.35755
0.0250801
0.0576457
0.0253166
6.40342
0.0253366
0.0466651
0.0254446
0.0251151
0.0325959
0.0252123
0.0283185
0.0267431
0.0248804
0.0490721
0.0258683
0.0994164
5.24543
0.0755698
5.55983
3.47773
0.0270034
0.227287
0.0252272
0.0255896
0.0385528
3.84119
0.15928
0.0381565
3.64865
4.20328
8.75737
0.0251906
0.0251996
0.0275524
0.345292
0.208756
4.18827
0.0254992
0.0270192
0.0260702
0.0260021
0.211851
0.134553
0.208915
4.37903
0.0252269
0.025331
0.0255728
0.0257975
0.196168
5.17898
0.0251926
0.0498408
0.0251401
0.0253399
3.99607
0.12142
0.395762
0.112308
4.50648
0.0251462
0.0271409
5.20501
0.118465
0.426877
7.30227
0.211298
0.025049
0.0288937
4.01576
0.0250606
4.74212
0.0270297
0.0252419
0.0685942
0.0255046
0.0273107
4.12139
0.0251235
3.66261
0.266387
0.102405
0.0654822
4.74018
0.0588613
0.0247745
3.75175
6.44382
0.0328771
0.0253856
0.0252753
0.0262231
0.0411537
1.18931
0.0252764
0.565519
0.0251474
0.0251202
1.14144
0.0360063
0.0255754
0.0256625
6.08455
0.0587518
0.0251157
0.0253096
0.0255852
0.0777441
4.1802
0.0252919
0.0253225
0.0252847
0.0253781
0.0294938
0.0451064
0.025514
3.4567
0.0388974
0.0679957
0.0381062
0.0248598
6.45449
0.0373361
0.884832
0.249535
0.0262346
0.0253925
0.026377
0.0435285
4.12744
0.0346816
0.0301178
5.25841
0.0274662
0.0965843
0.0254398
0.0254752
0.0256227
0.0253353
13.7311
0.375739
0.0254538
0.0252873
0.0261985
4.1052
0.132356
0.024871
0.026539
0.0250298
0.0294041
0.191743
0.0272864
0.0252765
0.0248638
4.37739
4.4722
0.0250868
0.160159
0.107575
0.0660237
0.0251523
0.0253612
0.050837
0.0256917
0.025079
0.0267602
0.484241
0.119296
0.214259
7.36397
5.88419
0.0252353
0.0257016
0.0653609
7.87127
0.0569082
0.0259427
0.025494
0.545816
0.108798
0.2227
0.153249
0.0251234
3.99699
0.0252768
0.548803
0.0253714
0.0256888
1.33722
0.0569586
0.0371582
0.074339
4.99096
4.37113
0.0249363
0.0254416
0.897942
0.0260765
0.0249434
0.0257625
0.024695
4.20381
0.0254154
0.025443
4.19244
3.77218
0.02522
0.0253008
0.0251184
0.0252777
4.15886
5.30444
0.361
0.12485
4.60931
6.15734
0.0250209
4.27301
4.1312
7.13688
4.10415
0.0272369
0.0255669
0.0254952
0.0255951
0.0263891
0.0253782
0.0256373
4.77488
0.0327576
0.0444258
0.0397708
3.43755
0.0354257
4.20332
3.67776
4.56758
0.0458586
0.0252841
0.0949057
0.722119
0.0264013
0.0252074
0.0256354
3.85374
4.47443
0.0551232
0.0252304
45.0316
0.0250373
0.045118
0.0254877
3.33665
0.0247142
0.0252373
4.20566
0.0277121
3.72414
0.0253533
0.0305906
0.0260767
0.147075
0.0251503
0.0977481
0.126895
0.0251022
0.0255145
3.82149
0.825353
0.0385939
0.0592215
0.0253432
1.43989
0.025235
0.0248698
0.025951
0.0253388
0.0301586
0.0436103
0.0451932
0.0256073
0.0253309
4.73076
0.0256403
0.0377132
0.02488
0.0261432
0.0253597
0.0254488
8.63646
0.025122
0.0252893
4.11681
0.0256554
3.1287
4.91046
0.0266689
0.0254628
0.399718
0.0973505
5.10168
0.0310865
0.0449969
0.0318671
0.024947
6.8718
0.0253342
3.62124
0.0921887
0.0442272
0.028402
0.395114
0.0303878
0.0253071
0.247679
0.0252462
0.0251335
0.0309439
8.64091
4.80188
5.83387
12.3829
0.0446952
0.0293732
0.0329821
0.0250795
0.0250634
0.0247242
0.217589
0.0266587
0.0303935
0.0252545
4.66038
3.47469
0.0287449
0.0253309
0.215179
6.12893
0.0253673
0.025329
4.67583
0.0253634
0.0317136
1.09727
0.0253328
0.0256952
0.245896
4.02545
0.0256637
0.0390914
0.0252972
0.0253717
0.0271843
0.0476177
4.15661
0.0420953
0.0255105
0.0253135
0.198509
5.2994
0.0252078
0.0256802
4.19034
0.0253422
0.157476
0.0269416
0.0249847
0.0271857
0.482949
0.0251633
0.0257389
0.0255154
0.0285264
0.0252604
4.41916
0.0255879
0.104849
0.114753
0.0254706
5.1304
27.2525
0.024938
0.0405672
0.0249292
0.0420905
5.06171
0.0400385
0.0253385
0.0298362
4.35074
0.0252094
4.51323
0.0266528
0.0267126
0.0910717
0.0254906
0.025144
0.0327274
2.52181
0.0654976
3.721
0.025061
5.52086
0.255054
0.0257471
4.09452
0.131032
0.0606723
0.0273733
0.0252762
0.0251985
0.0302773
5.82282
0.154621
0.0249357
0.0254827
0.0268383
4.84022
4.4029
10.4198
0.024711
0.0257462
0.239024
0.0248726
4.79638
0.0253025
0.0254796
6.35125
0.0251344
0.040292
0.0251022
0.0252743
0.050446
0.0251283
0.0251693
0.0250977
0.0254876
5.03183
0.13758
4.21792
5.02942
0.027458
0.0469456
0.175893
0.025948
0.754407
4.11199
0.0430599
0.0254097
0.0255142
0.0423086
0.760781
0.103166
0.0255587
0.0250766
6.79306
6.47183
0.0252989
0.0563875
0.224539
0.0939003
0.210825
0.0255749
4.25201
4.77904
0.0250987
0.0253584
4.98311
0.978906
0.117842
25.126
0.0299916
0.0586599
0.0256686
5.91087
0.0519506
0.0313
0.0578034
5.79162
0.0251796
0.0252549
0.0275487
0.209219
0.0251545
4.78402
0.0694855
4.46208
0.0252517
0.0254179
0.0944258
0.0251969
0.172019
0.077965
8.12815
5.78477
4.13094
0.033691
0.0253457
0.0250374
0.0257151
4.28184
0.0763901
4.07729
5.36046
0.0252805
0.0257243
0.159874
0.0255199
0.48973
0.0251094
0.0316771
4.21131
0.0254425
0.0324435
0.0258028
0.0817628
0.0392481
0.0254172
4.02774
0.156119
0.119437
4.24419
0.559394
4.70704
0.0253272
5.2947
4.43452
8.36901
0.0250663
0.0250402
0.0267283
0.0942751
5.33731
4.22203
0.0250982
0.0252598
0.275549
8.42841
0.0256699
0.0254306
0.0259483
0.0249486
0.0928404
4.26281
0.0255756
0.187278
22.4244
0.268999
16.2346
0.0678876
0.0253991
0.0247795
0.0250352
0.026847
4.22571
0.0653794
0.0328366
0.0574824
3.35742
0.0251829
0.0248753
0.183485
12.1615
0.0410462
3.62555
0.184465
0.0257076
0.0249349
0.06645
5.20713
0.065281
0.0255876
0.0251757
0.478873
5.18228
0.0265973
0.0254351
3.99558
0.405451
0.0333474
0.0256643
0.0297709
0.194394
0.0247628
17.4026
3.36454
0.197149
0.0280074
0.0257178
0.0250619
0.0769222
0.0269246
0.02526
0.0538995
0.0256434
0.0511839
5.52093
4.08989
5.24803
0.024997
0.025072
4.85245
0.0256446
4.18925
1.14248
0.0254284
0.02557
0.0321186
0.171645
11.6662
0.114215
4.00958
0.025018
0.0248761
0.160881
0.0250983
0.0465573
0.0253133
0.0348603
0.0994801
0.0275816
0.0331982
2.40059
0.0252882
0.0315522
3.87312
0.158961
4.14519
0.0250296
0.025378
0.0262064
0.0254515
0.0271994
0.0254574
0.0265422
0.0324482
4.88342
0.0251711
1.33553
0.0453875
0.0250833
0.260849
1.44758
18.6561
0.318772
0.0281177
3.64655
0.0255955
0.0684932
0.0252448
0.0252925
0.0248399
0.0259284
0.142001
4.17664
0.0255227
0.0256897
4.1759
0.0581682
5.3747
0.0325252
0.0253726
0.0256665
0.0384302
0.101635
0.030963
0.151689
0.0339122
0.0288886
1.13842
0.0437223
0.0253356
3.86991
0.0260469
0.220823
4.28562
0.112196
5.10608
16.4851
0.0281895
6.73907
0.0281344
0.0300303
0.0313726
0.026418
0.0262706
5.21804
0.0463191
3.97519
0.0262433
0.0253424
0.0256017
0.230212
0.0253331
1.37391
0.0262923
0.076892
0.0250287
0.024878
0.0250747
4.42215
0.0437078
0.025485
0.0255127
0.0503829
0.0254596
0.142179
0.0248978
0.0252651
0.0249819
3.4356
0.239827
0.126276
0.025559
0.0251556
0.0256245
0.0256763
0.028177
0.0769577
0.107767
0.025568
0.0253627
0.270791
0.0253009
6.39703
0.0254989
0.0256675
4.08887
0.030052
0.0269429
0.998077
0.0250323
0.0491639
5.15531
0.0254049
0.0256439
0.0253234
0.0269241
0.0249946
0.0356157
0.490176
3.80424
0.0256141
0.0453443
0.0885911
0.590693
0.0253609
0.0253426
0.0250088
0.0451421
0.523386
0.0341014
0.0255594
4.66412
0.0341103
0.0248681
6.4728
4.36488
0.0346867
0.025254
0.392917
0.0254631
0.024862
4.80624
4.08423
4.67887
0.0253003
0.025197
0.0333409
4.18506
0.0251336
0.0407301
0.0287562
0.0822954
0.0492277
0.0939079
0.0246753
0.0373587
4.63872
0.056207
0.0252394
0.0252872
0.0539486
30.9548
0.0526661
1.40374
0.0252379
0.0259121
0.0485176
0.0285869
0.0253347
4.32208
0.20689
17.9225
0.0291262
0.0248911
5.0968
0.0251444
4.12015
0.0459987
2.1829
0.411283
3.50497
6.7439
0.0269179
0.0255254
0.0252966
0.0254446
0.224332
7.18597
0.0251251
0.0252571
0.0256749
6.10068
0.0253319
0.0254267
0.138091
0.0255471
0.0835182
0.0983473
0.0248724
0.0700144
0.0256812
0.0606542
0.0253333
0.0275365
0.0252191
0.0265536
0.0249951
0.0775085
9.90468
0.0277435
0.0256584
0.036032
0.0559457
0.0252005
0.0253265
0.0320402
0.0248775
3.63309
0.0262046
0.0329677
0.0253454
0.200303
3.99773
0.0247769
0.0268238
0.0256691
0.180844
0.0432921
4.81908
0.0859974
3.78651
0.0254312
6.6087
0.0251104
0.0256336
0.0252205
0.025521
0.0871093
0.034558
7.85984
0.0572644
0.0253753
0.0256844
0.147504
0.0322359
0.0391005
0.0671712
8.55112
6.69468
0.0381558
1.48792
0.0401882
0.377704
4.21254
1.25505
4.57383
0.383949
0.0251991
0.0252699
0.0270686
4.21034
0.0316545
0.0257007
0.0766868
0.0247196
0.0249442
0.0564065
0.0252554
0.0254867
0.0263136
0.0267999
0.0270291
0.025241
0.0314631
4.41675
0.0274638
0.0248865
0.0252898
5.28446
6.28224
0.0247884
5.49193
5.48819
0.0368618
0.0248181
0.210712
6.68275
9.27236
3.76116
1.07384
4.3686
0.0867478
0.0254081
0.0249519
5.05738
0.0284989
0.137567
4.49273
0.0383707
0.0283024
0.0270029
0.0262774
0.0567957
0.119811
0.0253634
0.0529076
4.79896
0.0250278
0.0249326
5.03502
0.0253391
0.100433
0.0256948
0.0249895
0.0257234
0.0253676
0.0253968
3.94906
0.027062
0.124682
0.849977
0.0255703
0.0251462
0.0278388
4.33068
0.0249943
0.0250034
6.65385
4.71181
4.21126
0.026282
0.114364
0.025429
0.121689
4.85422
0.0271417
0.0703293
4.72731
0.025315
0.174363
8.5981
0.386826
0.0753598
4.18829
0.106436
0.074029
0.207813
0.0756253
0.0813931
0.0253643
0.65514
0.035018
4.63587
0.0252682
0.0255453
0.0255695
0.0250882
0.0259212
4.91272
0.178412
0.0468668
0.0252284
0.507317
0.0255498
0.233997
0.0449509
5.03538
0.0251042
0.0254056
0.148988
2.05757
4.32275
0.0255685
0.146648
4.08008
0.119343
0.0271942
0.0254352
0.079818
1.04744
0.0273786
0.0377531
0.223365
0.0253065
0.0256084
4.03437
0.07691
0.0251413
0.0259531
1.10442
0.0269814
0.0326217
0.0353035
0.0256726
5.28621
0.0252993
0.0328108
0.0514891
0.105431
0.0248782
0.0252116
7.1256
0.024881
0.0345191
0.0376785
0.0250506
0.226608
0.0259655
0.0319939
0.265865
4.03595
0.356137
0.0250702
0.240563
0.0353811
4.58203
6.78717
0.470258
4.0492
5.35886
7.22226
0.149327
5.4872
0.136811
0.0445239
3.51768
0.0251643
4.68466
0.0254501
0.0248894
0.0256969
0.0836894
7.9279
0.0449266
0.0250268
0.0253897
0.0256579
0.144073
0.0372002
0.0702649
0.0252614
0.0253586
0.0251467
0.0259422
0.0452146
6.83599
0.025187
0.0858361
0.287722
5.18331
0.0449183
5.70034
0.147303
0.0253343
4.619
0.529547
0.0756976
0.19336
0.0255498
4.14361
0.0260357
0.0262952
0.245316
4.37677
3.73988
0.0282834
0.217306
4.37479
3.47439
0.222778
0.0252441
5.02599
0.0249125
0.0552014
0.249712
0.191824
0.0272558
0.713492
0.0258704
0.0249837
0.0649374
0.0254092
0.162477
0.0263068
0.0256903
7.72455
0.0252606
0.500693
4.17142
0.0277293
0.386058
0.025431
5.17007
0.0287904
4.12671
5.36195
0.272137
0.0298757
5.49859
8.44416
0.042199
0.202077
0.0257488
0.0654037
0.768368
0.0259124
0.038655
3.61276
0.026586
4.3548
0.0255243
0.0254062
7.06101
0.0295463
4.1716
0.0857474
0.0281805
0.788875
0.02505
0.0775748
0.0664234
0.0265855
0.153901
4.03054
0.0254664
0.0253998
0.0256193
0.0261726
0.209597
3.50267
0.107827
0.0288423
0.024737
0.0251651
0.0372579
0.0254592
0.028264
0.0247632
0.0617474
0.390387
5.97455
0.168902
0.0398139
0.0248251
0.278952
4.68987
0.110408
0.292984
0.0455026
6.14926
0.0295652
0.0290683
0.0254079
0.0257214
0.0251451
0.0424719
0.0527167
0.0254255
0.0253034
0.158546
0.024964
0.0253729
0.101931
0.0254497
0.0251004
0.101634
0.0477952
0.0837094
0.0443355
0.031268
0.279408
4.68434
0.0248239
5.72222
3.92517
1.74517
0.025108
0.0478537
0.0250108
0.0250479
0.0248216
8.58909
0.0268561
0.055086
0.0252274
0.0249354
0.0446446
0.0582034
0.0712149
0.0399998
0.11207
6.24953
0.0250851
0.0254625
0.729581
0.0264487
12.7352
0.252024
0.0251336
0.0419497
4.84164
0.802833
0.0443134
0.391279
0.0325279
0.0254418
0.0251264
0.0755763
0.025338
0.0252946
0.0931006
0.0250539
4.11584
0.0288895
0.115254
5.5499
0.0273475
5.67528
0.0260089
0.0795417
0.0252038
0.0250621
0.0252383
0.0259511
8.22123
0.0256073
0.0250572
0.0777314
0.0602632
4.2297
0.0251311
0.0922945
0.0253543
0.0312574
0.691243
0.0368
0.0856231
6.6221
0.0254501
0.025513
4.12022
0.0252655
0.0271233
3.46901
0.0262322
0.0250279
0.076134
0.0247321
0.14471
0.0254902
5.33475
0.0255016
0.0251672
0.235779
0.0802777
28.4866
0.687976
0.0254784
0.0253176
0.0808191
0.0254127
0.0256859
0.0551315
4.19048
0.0731241
0.0250259
0.02712
0.149851
0.0248102
4.3584
0.0251421
0.0695176
0.123035
0.139657
0.578593
0.0749168
0.377846
1.62289
0.252182
0.0249408
0.0264479
0.0248055
0.0575573
0.0258144
0.0272247
4.99505
0.0699469
0.0251445
0.211138
0.057578
0.0252771
0.0580896
0.0613071
0.082857
0.216997
3.98575
3.98536
4.87698
0.029101
0.0256255
0.0252332
1.43662
0.0250567
0.0523249
0.0248556
0.0259628
0.0255926
0.0256236
7.60692
0.381169
0.0254374
0.0252046
0.043397
28.2779
0.0399302
12.9188
0.0254147
0.38619
0.0266337
0.0250193
0.0354477
0.27048
4.59926
0.160589
3.72542
0.119034
0.402545
5.40324
0.0450427
0.0255569
3.97619
0.0250271
0.0252035
3.99464
0.02559
0.0252832
0.0262255
0.0295445
0.0420196
16.0028
6.11167
7.17736
0.0725444
3.9742
7.27154
3.84087
0.0249765
4.11689
1.68736
0.0256023
0.0255975
0.0252421
0.0250467
0.0565027
6.42052
0.0253435
0.0544841
0.025509
0.116418
0.0419308
0.0250742
0.0253428
0.120074
0.0250427
4.18457
0.0390518
0.147065
0.0258736
0.0252359
0.0253376
0.564676
8.44831