/*--------------------------------*- C++ -*----------------------------------*\
| =========                 |                                                 |
| \\      /  F ield         | OpenFOAM: The Open Source CFD Toolbox           |
|  \\    /   O peration     | Version:  v2012                                 |
|   \\  /    A nd           | Website:  www.openfoam.com                      |
|    \\/     M anipulation  |                                                 |
\*---------------------------------------------------------------------------*/
FoamFile
{
    version     2.0;
    format      ascii;
    class       volScalarField;
    location    "400";
    object      p;
}
// * * * * * * * * * * * * * * * * * * * * * * * * * * * * * * * * * * * * * //

dimensions      [0 2 -2 0 0 0 0];


internalField   nonuniform List<scalar> 
53008
(
-0.0804247
-0.289178
0.0557357
-0.226268
-0.399431
-0.233465
-0.111909
-0.0795089
-0.00620133
0.0331133
-0.114295
-0.0987641
-0.0650348
-0.115783
0.032488
-0.0190189
-0.0639989
-0.0191597
-0.234589
-0.06034
-0.057489
0.142223
0.0124099
-0.107713
-0.0527859
-0.286514
-0.114031
-0.12452
-0.134626
-0.154677
-0.0677774
-0.0727754
-0.153935
-0.0195724
0.00385051
0.0591797
7.05884e-05
0.00659209
-0.133121
-0.024929
-0.000412213
-0.186359
-0.111008
-0.229761
-0.0608584
-0.0249286
-0.02572
-0.0477816
-0.153546
0.00448893
-0.0130387
0.129228
-0.0708905
0.0171114
-0.0826591
-0.239764
-0.0601772
0.00578273
-0.0969018
-0.096365
-0.0336276
-0.0487663
-0.369352
-0.0620927
-0.137393
0.0205864
-0.1548
-0.025267
-0.00583608
-0.022442
-0.39608
-0.00887566
0.05408
-0.1541
-0.289221
0.0036349
0.0180901
-0.236216
-0.0176131
-0.400835
-0.235706
-0.0640873
-0.0937447
-0.21261
-0.0772869
-0.0225737
0.114151
-0.00493714
0.0205646
-0.0752721
-0.402159
-0.310102
-0.0642209
-0.171986
-0.275943
-0.103225
-0.0954273
0.0552604
-0.329503
-0.367296
-0.0607143
-0.0250111
-0.174963
-0.124108
-0.0834987
-0.359916
-0.375018
0.0602515
-0.126911
-0.00899314
-0.245917
-0.369699
0.0178795
-0.277903
-0.100136
-0.0124794
-0.059343
-0.0105701
-0.0669304
-0.4034
-0.40141
0.0532583
-0.00727814
-0.263136
-0.233007
0.0355065
-0.401289
-0.145084
-0.0896651
0.03432
-0.073817
-0.00784214
-0.206238
-0.050034
-0.0123191
-0.0973614
0.0247351
-0.0642401
0.00503457
-0.00278014
-0.0165938
-0.00218355
-0.0798921
-0.104412
-0.0904076
0.0414133
-0.0584906
0.00684846
-0.0235359
-0.02802
0.0121867
-0.375176
-0.402042
0.139073
5.26887e-05
-0.0699763
-0.128856
-0.176875
-0.0415477
-0.317579
-0.169727
0.00471804
0.000241336
-0.307747
-0.0533645
0.00986304
0.00855925
-0.0614153
0.00680863
0.0748373
-0.0796432
-0.0731385
-0.291185
0.00909402
-0.288371
-0.0194034
-0.079391
-0.102607
0.115207
-0.0317563
-0.00774794
-0.0527201
-0.230281
0.030443
-0.0981194
-0.0618971
-0.365419
-0.299565
-0.383328
0.00674356
-0.378029
-0.0124949
0.0123298
-0.399913
0.0249134
-0.0410304
-0.079447
0.0159701
0.0105684
0.11337
-0.18113
-0.00826621
-0.0828632
0.00331418
-0.123437
-0.113827
-0.0627597
0.0106524
-0.139138
-0.0112905
-0.373689
-0.0262333
-0.169419
0.0600436
-0.126561
0.0371425
0.0250609
0.0121232
-0.17089
0.0297825
-0.112189
-0.0170177
-0.0959598
-0.0171215
-0.0487924
-0.0891905
0.00433208
-0.104026
-0.0517559
-0.0169418
-0.0839801
-0.0948353
-0.021073
-0.0770567
-0.167734
-0.360385
-0.0428518
-0.0125084
-0.403331
-0.019944
-0.0076669
-0.0197466
-0.231067
-0.0286454
-0.0839872
0.0112915
-0.230369
-0.111378
0.0306204
-0.0953951
-0.0500079
0.0511142
0.00449106
0.111141
-0.0265381
-0.362529
-0.103974
-0.0343504
-0.171467
-0.0611644
-0.299059
-0.0983442
-0.0598824
-0.0120026
0.0195138
-0.120135
-0.167034
0.0122008
-0.364742
-0.0960872
-0.0217925
-0.0489623
0.0358526
-0.229429
-0.121264
-0.0150724
-0.122428
-0.116758
-0.0826274
-0.0364291
0.0125756
0.00661713
-0.0834414
-0.103396
0.0466404
-0.131408
-0.122195
-0.39223
-0.105283
0.0299083
-0.341456
-0.0887496
-0.194334
-0.0819596
0.0972198
0.00352181
-0.127638
-0.1007
-0.367003
-0.047515
-0.196041
-0.383594
-0.199199
-0.114014
0.0148465
-0.291393
0.0442822
-0.0338898
-0.0126103
-0.179704
-0.0826129
-0.170468
-0.116423
-0.128416
-0.137444
-0.136797
0.00650391
0.0200996
-0.0150276
-0.12343
-0.100983
-0.187913
-0.0142586
-0.126636
-0.338709
0.0525595
-0.127697
-0.0737722
0.000312573
-0.0849524
-0.295834
0.0248892
0.0066744
0.0010978
-0.00702912
-0.0165914
0.0113736
-0.0132638
-0.094309
0.0525041
0.00671434
0.00735601
-0.168782
-0.011742
0.0331095
-0.120997
-0.114619
-0.244911
-0.0989173
-0.291525
-0.224947
-0.134953
-0.0424025
0.0268191
-0.405454
-0.262811
0.0219701
0.0165783
-0.288703
-0.169725
0.0459677
-0.123642
-0.0308917
-0.402501
-0.177288
-0.0723853
-0.0145556
-0.0946457
-0.0468284
0.02556
-0.365276
-0.0528192
0.118608
-0.110323
-0.178479
-0.0635503
-0.117297
0.0941063
-0.119446
-0.300782
-0.00652099
0.00673296
-0.0919407
-0.0617783
-0.16815
-0.00200975
-0.0576045
-0.088828
0.0220352
-0.081498
-0.115777
0.00240377
0.00807712
-0.0409957
-0.00215503
-0.0102141
-0.00288026
-0.167711
0.0631477
-0.197934
-0.0126134
-0.0729318
-0.0521852
-0.244936
0.00701105
0.0171047
0.0134472
-0.0500987
-0.0112651
-0.0840416
-0.0144727
-0.0775413
-0.00806441
-0.0488065
-0.0301807
-0.401696
0.0101785
-0.403313
-0.0494042
0.0178164
-0.00380622
0.0379748
-0.0330364
-0.0475747
-0.105938
0.0122004
-0.0544404
-0.0587407
-0.223171
-0.0148298
-0.0684666
-0.31934
-0.0791057
0.00721559
-0.178352
-0.0526348
-0.395475
-0.114913
-0.363777
-0.113385
0.0120971
-0.20708
-0.13539
-0.112816
-0.0022556
-0.169315
-0.405216
-0.0795415
0.0427075
0.0561581
-0.117622
-0.00681469
-0.135068
-0.0811459
-0.0496342
-0.187074
0.0759739
-0.0260788
-0.0109432
0.011019
-0.132718
-0.401182
-0.0147619
-0.0539227
-0.109626
-0.0992881
-0.00898478
-0.394276
0.0244013
0.0371575
-0.155064
-0.0453409
-0.122344
-0.0710918
-0.286753
-0.123596
-0.00321363
-0.0296407
-0.144421
-0.191472
-0.291162
-0.07405
-0.0460538
-0.0533372
-0.0807292
-0.00394853
-0.0620915
-0.04081
-0.14079
-0.0674963
0.0325575
-0.0243028
-0.174699
0.0204491
0.0162971
-0.0903468
0.0118031
-0.235869
-0.0542973
0.00923199
-0.125134
-0.0478529
-0.0799714
-0.242588
0.00560875
0.0676005
-0.0898685
-0.130568
-0.0987579
-0.116298
-0.303285
-0.143842
0.0166399
0.00887252
-0.243089
-0.0839576
-0.0684711
0.0287863
0.0498956
-0.369763
0.054054
-0.402681
0.020083
-0.139605
-0.0924355
-0.404383
-0.101859
-0.0495241
-0.338537
0.00914607
-0.155636
-0.0238283
-0.00168265
-0.126933
0.00447765
-0.0415157
-0.116801
-0.0721049
-0.011668
0.0162263
-0.0387993
-0.245162
-0.133313
-0.0835975
-0.0815031
-0.0581531
-0.240721
-0.0200872
0.016478
-0.168382
-0.177898
-0.133254
0.0443636
-0.256011
-0.0546376
-0.00592337
-0.175609
-0.00931445
0.00694082
-0.033039
-0.120791
-0.190859
-0.128103
-0.17209
-0.0531073
-0.0827286
-0.0813375
0.0550671
0.0734536
-0.126603
-0.0392072
-0.342253
-0.0982258
-0.102179
-0.062436
-0.0179224
-0.067828
-0.115823
-0.202845
0.0377377
-0.0078968
-0.00983751
-0.0525706
-0.10721
-0.22694
-0.291648
0.00522371
-0.0425943
-0.105868
0.000334035
0.023359
0.0238742
0.200491
-0.0633434
-0.405118
0.0350615
-0.123161
-0.281366
0.0175613
-0.168259
-0.246403
-0.101002
0.0263364
-0.133815
-0.0737609
-0.0872505
-0.0839715
-0.0352483
0.246678
0.0530592
0.0491815
0.0435902
-0.234613
-0.0232802
-0.174406
0.0237565
-0.0168277
-1.44638e-05
-0.0689206
-0.0213508
-0.262466
-0.32944
0.0167889
-0.369211
-0.0280092
-0.0171915
-0.0145367
0.0517427
-0.0837733
0.0369461
-0.0706837
-0.240149
-0.402706
-0.400649
0.00651411
-0.071117
-0.0204806
-0.0570511
-0.0754572
-0.230343
-0.384737
-0.0739005
-0.340953
-0.0117877
-0.0175767
0.0364777
-0.0244614
-0.138446
0.0369445
0.027679
0.0506098
-0.0207313
-0.0598275
-0.0534196
-0.00110321
-0.171474
0.0301227
0.0220382
-0.0206443
0.035153
-0.155433
-0.23139
-0.137951
-0.093514
-0.338091
-0.118396
-0.406156
-0.272203
-0.0157847
0.00203506
-0.297927
-0.398429
0.00915868
-0.0737822
0.0160572
-0.0131169
-0.00418574
-0.399318
0.0770108
-0.00326226
-0.245535
0.00730363
0.0770807
-0.175316
-0.0654555
-0.0286559
-0.180497
-0.0223106
-0.0539937
-0.066556
-0.0446456
0.0632218
-0.0797574
-0.0195163
-0.000814072
-0.0339417
-0.379483
-0.0746305
-0.00941761
-0.00461615
-0.322777
-0.0175757
-0.129222
0.0365866
-0.0265976
-0.0342921
0.00369834
0.0408786
0.0265104
-0.0252446
-0.0524225
-0.244377
0.0369553
-0.173199
0.00471996
-0.310061
-0.0350399
-0.295597
0.0150481
-0.236154
0.00972219
0.0341446
-0.0677589
-0.131503
-0.128384
-0.040358
-0.0296746
-0.327262
-0.0864447
-0.0253692
-0.123591
-0.0775329
-0.0261732
-0.284619
-0.00353912
-0.246178
-0.243789
-0.0535687
-0.0928979
-0.131729
0.0192273
0.0890357
0.00932011
-0.0695878
0.0302859
-0.0661208
0.12035
-0.0264686
-0.061445
0.0103033
-0.321249
-0.170063
-0.0656879
-0.0811502
-0.062377
0.0204672
-0.09597
-0.222872
0.00141097
-0.0767997
-0.178999
-0.152036
-0.0316553
-0.307614
-0.0539198
0.00305569
-0.231394
-0.297737
0.0138133
-0.241514
-0.0703201
-0.193956
-0.0266183
-0.403469
-0.115015
-0.0673021
-0.107802
0.0165643
-0.387837
0.148943
-0.077345
0.014078
0.0112956
-0.0592194
-0.239736
-0.0471776
-0.228946
-0.154708
-0.0270894
-0.0933191
-0.0741986
-0.196
0.0140354
-0.404419
0.0759873
-0.230057
-0.17854
0.0361893
-0.38021
0.0466489
0.0137156
-0.0614639
0.078162
-0.157825
-0.00770956
-0.0625427
0.0163463
-0.209261
0.135847
-0.0470601
0.0249589
-0.129978
-0.00905088
-0.378597
-0.0672846
-0.077546
-0.0250824
-0.0272108
-0.400727
-0.165713
-0.256145
-0.118152
-0.130144
-0.384422
-0.155473
0.0723418
-0.131474
-0.0572024
0.0202631
-0.225437
-0.244028
-0.0436817
0.0407201
-0.0226038
0.00640015
0.00917879
-0.122466
-0.185734
-0.164419
0.00535162
-0.0641771
0.0389902
-0.0773202
0.00657193
-0.140357
-0.393519
-0.275499
-0.235618
-0.0592261
0.00722809
-0.186949
0.00742722
0.00215839
0.00300988
-0.0362987
0.000315516
-0.0810106
0.0686161
0.0692764
0.0119557
0.0541117
0.0251009
0.00923238
0.063067
-0.182705
0.0247044
0.0303275
-0.393399
-0.388797
-0.0685759
-0.271185
-0.0750152
-0.0105692
-0.186889
-0.00934076
0.00504104
0.0119422
0.0066917
-0.0341267
0.242541
0.00766884
-0.0110374
0.00759882
0.0116467
-0.276739
-0.0309243
-0.0163688
-0.0576564
0.0108899
-0.13674
-0.014137
-0.340866
-0.135855
-0.0252079
-0.193656
-0.0802907
-0.175713
-0.131895
-0.194251
-0.290507
0.0353488
0.0209105
0.0683437
-0.0741525
-0.0947923
0.0200671
-0.40233
-0.373771
-0.0225773
-0.00218089
0.0546406
0.19636
-0.0531169
0.00900132
0.00604417
0.017254
-0.00356694
-0.0808531
-0.218397
0.0142099
-0.375354
-0.0757325
0.0230702
0.00337678
0.00177067
-0.106123
-0.0809753
-0.358672
-0.13987
-0.0924223
-0.190059
-0.28373
-0.0761249
-0.388434
-0.0579003
-0.0885831
-0.0671115
-0.0576208
-0.227607
-0.0217412
-0.40264
-0.0840188
-0.0348557
0.00799879
-0.0222031
-0.179039
0.0137103
-0.235941
-0.0806589
-0.0167564
-0.363734
-0.00780592
0.0101604
-0.361494
-0.04223
-0.00258345
-0.0799596
-0.320472
0.0448041
-0.121194
-0.0482241
-0.159364
0.0307695
-0.0174345
-0.0679402
-0.239436
-0.239714
-0.00523259
-0.050619
-0.336571
0.0391685
0.00101895
0.0124055
0.101277
-0.0209112
-0.0767203
0.0743153
-0.238091
0.0288594
-0.097845
-0.143774
0.0402036
-4.7705e-05
-0.105898
-0.153398
-0.170454
-0.186305
-0.0809593
-0.207803
-0.0713371
-0.0255442
0.0048051
-0.0945475
-0.0349136
-0.0223391
-0.0165409
-0.0677733
-0.249787
-0.0566375
-0.102336
-0.253413
-0.0490814
-0.093766
0.0226202
-0.0131877
-0.0207612
0.00906298
-0.0963823
0.0149611
-0.0335759
-0.167603
-0.211952
-0.0617504
0.00645228
0.0893778
-0.237334
-0.00904072
-0.00492343
-0.243702
-0.00244897
-3.48427e-05
-0.121731
-0.0765462
-0.214637
-0.105463
-0.222582
-0.00241088
-0.395066
-0.0850784
0.00978022
-0.182827
0.0151864
-0.172185
-0.0826243
0.00742032
-0.00312254
-0.0571453
-0.1671
-0.305134
0.00914354
-0.0951014
-0.318567
0.13186
-0.318625
-0.224468
-0.357155
0.12361
-0.0421449
-0.18063
0.202257
-0.0133267
0.00797328
0.0745908
-0.187926
-0.00276039
-0.0569928
-0.188107
0.0785819
-0.044829
-0.268865
0.0105362
-0.10636
-0.389456
-0.192937
-0.118779
0.00542503
-0.0531281
0.00433985
-0.0525885
-0.0475932
-0.178446
-0.401089
0.0370219
-0.0921079
0.100248
-0.0712232
-0.0111091
0.0298166
0.0428618
0.00561031
-0.182136
-0.313159
-0.0850812
0.165792
-0.0267657
-0.234621
0.00365138
-0.0315498
-0.0632491
0.0092206
-0.121424
-0.0525031
0.00203956
-0.0836683
-0.0129694
0.207472
-0.0832322
0.00674778
-0.401774
0.0293436
-0.11404
-0.325732
-0.240266
-0.00120423
-0.180174
0.0105705
-0.027174
0.0105012
-0.36104
-0.0293411
-0.1839
0.0157618
0.00818193
-0.131775
-0.182508
-0.144725
-0.0108019
-0.0640587
-0.0990974
0.00210473
-0.023822
-0.402376
-0.337963
-0.0809246
-0.392353
0.0365195
-0.0709874
-0.122573
0.00568825
-0.158534
-0.400323
-0.198095
-0.0834111
0.027027
-0.198293
0.00206748
-0.396325
-0.34128
-0.0236437
-0.0946368
-0.186341
-0.121998
-0.0769198
-0.00241881
-0.0171251
-0.0130665
-0.0790776
-0.231312
-0.244326
-0.0400371
-0.087875
0.033833
0.0474556
0.0914581
-0.00308735
0.0282128
-0.0073307
-0.181412
-0.023799
-0.0515138
-0.181134
-0.340628
-0.103817
0.0383635
0.0101542
-0.232016
-0.240068
-0.212201
-0.0161605
-0.0382688
-0.0823983
-0.340599
0.0125655
-0.311917
0.0189739
-0.0365884
0.0280942
0.0283069
-0.208274
-0.203037
0.0159459
-0.0668881
-0.0159558
0.00664027
0.0302554
-0.398275
-0.109333
-0.397253
0.0224919
-0.134185
-0.15241
-0.201983
-0.179356
-0.0706281
0.033352
-0.324059
-0.0070276
-0.158671
-0.274347
0.0370518
0.0245476
-0.0470085
0.00905078
-0.0750662
-0.025434
-0.134493
-0.0876492
-0.0177905
0.0353167
-0.120714
-0.0159375
-0.000489485
0.0315604
-0.0386811
0.140974
-0.100102
0.0101902
0.00794839
-0.0710455
-0.0169597
0.0073245
-0.0676315
-0.0563176
0.00718627
-0.039828
0.0379605
0.00399503
0.00228521
-0.396593
0.00498678
-0.071612
-0.152928
-0.021359
0.00653702
-0.0817312
0.033386
-0.00427009
-0.15699
-0.390574
0.0498322
0.00909975
0.0177176
-0.0673965
-0.0389268
-0.255168
-0.172394
-0.0131827
0.0314707
-0.314273
0.07387
-0.265484
-0.0444633
-0.180104
-0.0374456
-0.122303
-0.292622
-0.271941
0.0284589
-0.0605319
-0.010006
-0.0369851
-0.37916
0.12611
-0.306308
-0.107255
-0.0649937
-0.0835232
-0.00727694
-0.326935
-0.22668
0.0217306
-0.315383
-0.056473
0.00384241
0.00522366
0.0476522
-0.0614058
-0.0328132
-0.326076
0.0229646
-0.404729
-0.110061
-0.122489
0.00521756
-0.34057
-0.241031
0.0249016
-0.230691
-0.392211
0.0169329
-0.245742
-0.0762218
0.136546
-0.0907801
-0.252922
-0.0299478
-0.0674351
-0.237355
-0.0198746
0.00868904
-0.0211053
-0.0521798
-0.249288
-0.0819292
-0.00915442
0.0118355
0.0356977
-0.222793
-0.0817993
0.00690593
0.0231638
-0.38657
-0.339143
-0.13417
-0.397818
-0.0961473
-0.0395242
-0.244025
0.0133505
-0.105883
-0.0206007
-0.153596
0.00971494
0.21184
-0.056943
0.0319747
-0.324502
0.0038484
0.137347
-0.295389
-0.138338
0.0135433
0.00320468
0.0217504
-0.227988
-0.214094
-0.139443
-0.0554624
-0.10709
-0.0748687
-0.0969892
0.0130579
-0.132492
-0.0261558
-0.051776
-0.232778
0.00557951
-0.168057
0.0133695
-0.400981
-0.00899392
0.0388248
-0.254331
-0.0560671
-0.030004
0.00673183
-0.117851
-0.194225
-0.126236
-0.133986
-0.168952
-0.332092
-0.182648
-0.266933
-0.241984
0.0694968
0.00225949
0.000626215
0.111115
0.054792
0.00348424
-0.0311825
0.00906675
0.0175911
-0.0858661
-0.0169499
-0.177308
-0.0692567
-0.21368
0.047731
-0.248259
-0.12543
-0.0238995
-0.193369
0.0023909
-0.251712
0.0475097
-0.144854
-0.0642401
0.228507
-0.00278265
0.00739247
-0.310967
-0.335717
0.00403716
-0.0862701
-0.0328669
0.00398193
0.0299392
-0.0753684
-0.361438
-0.200873
0.0467041
-0.0538778
-0.100025
0.0230871
0.138647
0.00381315
-0.133263
0.0279097
-0.0167742
0.0849492
-0.0343506
-0.0523742
-0.0730226
-0.00682922
0.00519425
-0.0653881
-0.072597
0.0349719
-0.100107
-0.0169743
-0.289296
-0.169451
-0.308027
0.0370948
-0.322768
-0.0578249
0.0391523
0.0069165
0.00503224
0.106408
0.00896635
-0.120228
-0.0989364
-0.0222281
-0.00130317
-0.0125558
-0.014298
-0.10423
-0.0714347
-0.198712
0.0589573
0.00445318
-0.0951175
-0.0990674
0.00700134
-0.302299
0.0074061
-0.0631801
-0.0657708
-0.0158492
-0.0162602
-0.169825
-0.146018
-0.00162659
-0.272516
0.0120898
-0.00707775
-0.0368555
0.0270967
-0.0338109
-0.0472006
0.0507203
-0.394311
-0.214874
-0.156705
0.0332132
0.0678925
-0.0918154
-0.101625
0.0233171
-0.0108219
0.00572823
-0.0288484
-0.36121
0.0382577
-0.27988
0.0167137
-0.104387
-0.223114
0.0121227
-0.00751931
-0.072467
0.0163351
-0.0440198
-0.276325
0.0237831
0.0776372
-0.297346
-0.123312
-0.0208597
0.193259
0.00579656
-0.0902153
0.0543387
-0.0911499
-0.0370216
0.128999
-0.0481085
-0.0665574
0.0329378
-0.359953
-0.0706359
-0.00152958
-0.0110735
-0.277773
-0.18599
0.00920584
-0.0379272
-0.132929
-0.402886
-0.00724385
0.0054133
-0.0129417
0.0217146
0.00790393
-0.0756719
0.00655357
0.0384556
-0.385048
-0.398844
-0.0120611
0.00932077
-0.0686632
-0.0182517
-0.394988
-0.187941
-0.0655341
-0.0685184
-0.222367
-0.256285
0.0774844
-0.221933
-0.126272
0.0243286
0.0066492
-0.107003
-0.00541803
-0.0445082
-0.134608
-0.0901706
0.0852386
-0.169282
0.0747921
0.134485
-0.246768
-0.401651
-0.00865586
-0.055344
-0.0649341
-0.1497
-0.0334277
-0.102752
-0.143863
-0.00855687
-0.126547
-0.0926781
0.0318965
-0.0168421
0.0149483
-0.174661
0.0100195
0.00392614
0.00912424
-0.0939354
-0.404461
-0.225798
-0.131344
-0.144636
-0.000874056
-0.277679
-0.0783448
0.0240898
-0.0781058
-0.10789
-0.0414897
-0.404247
-0.13184
0.0997442
-0.173312
-0.12098
-0.101603
-0.00315569
0.136606
-0.402636
0.0261564
0.0137562
-0.0845183
0.0276031
0.0153128
-0.122863
0.0682518
-0.0244132
0.0147844
-0.202523
-0.00615064
-0.345503
-0.304053
-0.120219
-0.0244157
-0.213287
-0.0891316
0.0252302
-0.07091
0.0263406
0.021759
-0.0474533
0.0156597
-0.00781277
-0.400369
-0.0771591
0.0356086
0.00510337
0.0043244
-0.27739
-0.19611
-0.0138212
-0.126879
-0.0752148
-0.212566
0.0216605
-0.0567128
-0.0227994
-0.0108677
0.00159201
0.0378714
-0.100146
-0.164555
-0.218732
-0.0708464
0.0163221
-0.0213539
-0.389051
-0.0972653
-0.399599
0.218992
-0.0882123
0.0162084
-0.0648269
-0.0255507
-0.0770499
-0.186048
0.256439
-0.0103147
-0.0213739
-0.114862
-0.153076
-0.00550725
-0.0916843
-0.218476
0.0029655
0.0163749
-0.118556
0.0610978
-0.191386
-0.337761
-0.0484456
0.2078
-0.0509108
-0.126544
-0.361672
-0.0134163
0.0292665
0.107581
-0.109877
0.014891
-0.0990791
-0.0921922
-0.0200605
-0.1952
-0.371367
-0.299065
-0.187194
0.0103443
-0.0292581
-0.172999
-0.168657
-0.145645
-0.280468
-0.387537
-0.0937087
0.0978439
-0.0130766
0.0136225
0.0240055
-0.0219864
-0.227872
-0.0707899
-0.177494
0.00128307
0.016424
-0.00333686
-0.3086
-0.0725567
-0.0119842
-0.00273758
0.221782
0.0310724
-0.162606
-0.343817
-0.40417
-0.31084
-0.166162
0.0167074
-0.0800585
0.0534705
-0.240541
-0.134909
0.0136056
-0.194687
-0.174712
-0.11217
0.00057379
0.0584558
0.00149627
-0.354226
-0.188528
-0.00220359
0.0291828
-0.0660965
0.00584569
-0.399787
-0.104946
-0.0764988
0.00299295
0.0181565
-0.171194
-0.0984778
-0.132393
0.0138407
-0.0365756
-0.121803
-0.0141073
-0.0803441
-0.156483
-0.0139382
-0.15636
-0.083888
0.0163891
0.0373953
-0.285655
-0.0899469
-0.0546159
-0.0857437
-0.129436
-0.362772
-0.00335962
0.0365224
0.0302824
-0.223345
0.0104877
-0.0688755
0.0283129
-0.0269921
-0.0719994
0.00716743
-0.0506083
-0.0504212
-0.0103427
-0.121291
0.0314862
-0.183199
-0.290871
-0.104156
-0.402176
-0.064954
-0.0514564
-0.155358
-0.0115126
0.0219938
-0.0616934
-0.124448
-0.0841254
-0.0611345
-0.0906101
-0.0678596
-0.353928
-0.02955
0.00205285
-0.0147084
-0.276931
-0.0956608
-0.0687809
0.0498644
-0.0533436
-0.039832
0.0434797
-0.0943096
-0.103246
-0.0947491
-0.0421635
0.00683924
0.0240595
0.0155717
-0.0207664
-0.137395
-0.273584
0.0080592
-0.120829
0.000997562
0.0239593
-0.091087
-0.075064
-0.205491
-0.0841635
-0.101063
0.00168869
0.0270762
-0.133785
-0.111748
-0.28549
-0.27365
-0.0962531
-0.00485842
-0.0636753
-0.390806
-0.00852129
-0.0988157
-0.0224973
0.0168641
-0.133238
0.0169332
-0.047957
-0.1039
-0.00135834
-0.0854429
-0.11404
-0.169965
-0.0942523
-0.119713
-0.138573
-0.0169608
-0.0840539
-0.224441
-0.0771251
0.00469297
0.0243794
0.0144967
-0.0502472
0.00418135
0.0153756
-0.167687
0.00121224
-0.000942381
0.0411838
-0.0877549
0.0395086
0.0229104
-0.201468
-0.110847
-0.00119844
0.0293262
0.0294634
-0.0770228
-0.283406
0.0155133
0.032727
0.0124242
0.0045696
0.0817325
0.0674422
0.0378828
-0.0753195
-0.0075738
-0.144333
-0.0628662
-0.010425
-0.225747
0.128797
-0.307363
-0.151147
-0.0439178
0.0181249
-0.0475043
-0.110677
-0.363726
-0.0410476
-0.063986
-0.307645
-0.056555
-0.175839
0.0208273
0.0103034
0.0541134
0.0257276
-0.369044
-0.277941
0.00569209
0.0206092
-0.0434496
-0.392508
-0.0159658
-0.0235273
-0.0456817
-0.021541
0.0843089
-0.154202
0.0741278
0.0201869
-0.0102772
-0.187988
-0.0996997
-0.00307012
-0.206299
0.110385
-0.142544
0.00234699
0.0437068
0.037124
-0.033177
-0.00364725
-0.0483185
-0.095037
-0.0898671
0.0484958
-0.272224
-0.196578
0.00559032
0.0327509
-0.0576668
-0.354302
-0.0889537
0.051356
0.00610003
-0.170427
-0.157742
-0.127269
-0.0922708
-0.000866103
-0.113769
0.0143875
-0.0956706
0.0388678
0.00651132
-0.332189
-0.120219
-0.0832003
0.0685624
-0.386685
-0.0985704
-0.00919315
0.0481426
-0.310518
-0.0441906
-0.0170617
-0.037069
-0.0131775
-0.362923
0.00911844
0.020965
-0.355682
-0.0687716
0.00900441
-0.00697233
-0.00163176
0.0189385
-0.0920527
-0.286733
0.264898
-0.0787839
-0.0987107
-0.228662
-0.0223143
-0.2284
-0.0912439
-0.278965
-0.0913797
0.0725863
-0.0375504
0.0141248
0.0217895
-0.0477685
0.0453941
-0.0318028
-0.112215
-0.082095
-0.0705108
-0.0693091
-0.0667048
-0.0907185
-0.362372
-0.0898141
-0.177367
-0.115561
-0.00276871
-0.161549
-0.0820329
-0.047735
0.00122775
0.055074
-0.0688859
-0.0821406
-0.0729214
0.00294796
-0.368736
-0.00474589
0.122639
0.0248834
-0.0592472
-0.017584
0.00934517
-0.0680158
-0.0550518
-0.118626
-0.000609391
-0.0692623
-0.0444681
-0.211052
-0.0173402
-0.163963
0.253691
-0.0266539
0.0136151
-0.12229
-0.307887
0.0577505
0.206001
0.00442034
-0.186812
0.00312068
-0.0145795
0.048055
0.0355314
-0.0425569
-0.067189
-0.113971
0.030018
0.0365476
-0.404045
0.0150739
-0.0495011
-0.0143085
-0.0204004
-0.00128339
0.0146307
-0.355416
-0.00139972
0.0125685
-0.404216
-0.038824
-0.0744717
-0.403822
0.0351942
0.0180636
-0.113694
-0.17544
-0.38979
-0.0688698
0.119019
0.0830689
-0.00804977
-0.364496
0.029696
-0.0941323
-0.170819
-0.0972987
-0.0423636
-0.281322
-0.0716284
-0.00620612
-0.119829
-0.00172386
0.000275649
-0.0719744
-0.311964
-0.108512
-0.178488
-0.403992
-0.0930167
0.0810711
-0.0821778
-0.0225786
-0.00804749
-0.0128456
-0.142006
0.0440264
-0.0719422
0.0051346
-0.0953303
-0.0753856
-0.0644239
0.0361547
-0.220453
-0.202332
0.0442749
0.0337415
-0.405298
0.0306364
-0.040621
0.00422273
0.025571
0.0132368
-0.253155
-0.397552
0.0219117
0.0190397
0.0291793
0.019852
-0.0516904
-0.118826
-0.18146
-0.10495
0.00890085
0.00402718
-0.177974
-0.142157
0.00707277
0.0130731
-0.270413
0.00230696
-0.205118
-0.0215472
-0.0250747
-0.0535823
-0.274135
0.00231201
0.0515523
0.0410582
0.101887
0.00746449
-0.297777
0.0144901
0.0806822
0.233366
-0.0339583
-0.306417
-0.387297
-0.00764538
-0.103709
-0.00785221
-0.104531
-0.272018
0.115032
0.00424528
0.0933179
-0.270885
0.0108245
-0.0841655
-0.0471865
0.0551339
-0.136935
0.0141954
0.000948375
0.114716
-0.0674293
0.00708464
-0.118305
-0.013296
-0.161934
-0.253957
-0.0372574
-0.221937
-0.147559
-0.0819465
0.0585462
0.0244523
0.00396906
-0.0648333
-0.190665
-0.0111408
-0.00866907
-0.0337557
-0.0460919
-0.122309
-0.0749952
-0.38045
-0.0176312
-0.0202625
0.161054
-0.0178325
-0.123195
0.0288323
0.010536
-0.40184
-0.000560124
-0.0701123
-0.0021501
0.0197191
-0.0898453
-0.000613492
0.0028734
-0.00376626
0.0102781
-0.268392
0.243783
-0.221823
-0.154537
0.0927012
-0.117189
-0.0922104
0.0681457
-0.314309
-0.369138
-0.0906964
0.0122816
0.0056594
-0.107117
-0.312855
-0.1544
-0.0375033
-0.00316703
-0.278572
-0.248784
0.0294378
-0.0911695
-0.0716171
-0.137649
-0.126742
0.00677221
-0.084708
-0.188099
-0.00391184
0.0120643
-0.203031
-0.309858
-0.195585
-0.396885
-0.0410336
-0.137801
0.0218097
-0.224296
0.0738158
-0.0623665
0.115772
-0.325726
0.00556722
-0.0132947
-0.0568689
-0.140848
0.00266477
-0.386391
-0.136235
-0.0826086
0.00955684
0.00928142
-0.171993
-0.00108608
-0.0944718
-0.0711425
-0.31753
-0.222417
-0.243467
-0.0686077
0.0117891
-0.0126805
0.057712
-0.390424
-0.0757884
-0.0898947
-0.186784
0.0230313
0.0508344
-0.214491
0.0238421
-0.243934
-0.0215892
-0.0765388
-0.104154
0.00465956
-0.0746313
-0.0373537
-0.0828278
-0.0982668
-0.0313168
-0.188962
-0.0931901
-0.195828
-0.345565
-0.256096
-0.396382
0.0356167
-0.143772
-0.0860534
-0.309141
-0.00350737
-0.00464668
0.056147
-0.14724
-0.144927
-0.0680156
-0.0212982
0.0211748
-0.108514
-0.308543
0.0223102
0.0219965
0.0440136
-0.0158586
-0.169888
-0.349083
0.0157294
-0.23417
-0.379523
-0.10766
-0.399547
-0.135548
0.027323
-0.0123414
-0.0166701
-0.0513387
-0.0837059
-0.0545284
0.0406319
-0.0788363
-0.0661078
-0.00355591
-0.0142827
-0.152411
-0.392642
0.00603933
-0.0969658
-0.17668
0.0576732
-0.0103972
-0.143423
-0.287789
-0.143265
0.00671687
0.00462619
-0.241658
-0.133489
-0.0471807
0.0235054
-0.0671457
-0.195284
-0.0638019
0.0222347
-0.0557026
-0.241116
-0.0123913
-0.374774
-0.0595004
-0.239999
-0.0474934
0.0615458
-0.00977877
-0.0920117
-0.0523436
0.0211742
-0.0946652
0.0152792
0.206484
-0.187114
-0.24025
-0.140886
-0.025882
-0.0234887
-0.396735
-0.0310258
-0.404394
-0.326949
0.0149032
0.0076001
-0.0775678
-0.226259
-0.394056
-0.190834
-0.0668347
-0.0258135
-0.0176489
-0.151899
-0.00235919
-0.0772874
0.0173542
-0.0893698
-0.179073
-0.0139743
-0.0835991
-0.211463
0.027625
-0.0277939
-0.106521
-0.202755
-0.389294
-0.0258737
0.0453803
0.00395105
0.0144608
0.0701445
0.0421279
0.0402907
-0.0746762
-0.200538
0.00279198
-0.157634
0.108048
-0.024306
-0.259016
-0.165576
-0.385229
-0.204534
0.0807417
-0.0971464
0.0145167
0.0037087
0.00997247
0.0161113
-0.0154405
0.0518416
-0.210789
-0.344342
0.0167129
0.00649601
-0.370044
-0.136273
-0.145177
-0.0762826
0.0106126
-0.0390116
-0.0970885
0.229653
-0.0610526
-0.21771
0.136712
-0.0653302
-0.270766
-0.0958492
0.037287
-0.107371
-0.020819
-0.13774
-0.346903
-0.187404
-0.152096
-0.397249
-0.0445028
-0.260026
-0.0456957
-0.0527225
-0.0424824
-0.0480465
-0.0462794
-0.276201
-0.103307
-0.180422
-0.045849
0.0350009
0.0217517
-0.0719453
0.0249742
-0.244834
0.0398539
-0.0782779
-0.0224991
-0.00968145
-0.00337959
-0.0749185
-0.0928435
0.0372685
0.0239881
0.0741359
0.0225897
0.238872
-0.0213389
0.00348075
-0.00633906
-0.0742223
-0.120626
0.167155
0.00836307
0.00269107
0.0185038
0.0229296
0.0800994
-0.0787909
-0.0876961
0.0228788
0.0377973
-0.260159
0.00755322
-0.246969
0.0245098
0.0229538
-0.245375
-0.0605059
-0.0462739
-0.228226
-0.0128375
-0.0867079
-0.405291
0.0274357
0.00643714
0.0347771
0.0768027
-0.025126
-0.0895444
-0.0936455
-0.122859
0.0215293
-0.0982764
-0.137309
-0.17498
-0.0296442
0.00425357
-0.0172813
0.104094
-0.250361
0.0214421
0.0528112
-0.0946583
-0.0666146
-0.0138016
-0.240877
-0.109787
0.0334767
0.00943646
-0.164151
0.00580459
-0.0135862
-0.126127
-0.389928
-0.0733855
0.00641251
-0.0017164
-0.0787169
-0.0791914
-0.00351444
-0.000828031
-0.0627872
-0.168934
0.0432596
-0.152805
-0.0173749
-0.0735861
-0.0983883
0.0165715
0.0141242
0.0212273
0.0688681
-0.376921
0.00313967
-0.299092
0.0092581
0.0428254
-0.0857847
-0.0462107
0.0370328
-0.0740017
-0.200071
-0.370064
-0.0344256
-0.0211749
-0.275724
-0.000594239
-0.176604
-0.0764264
-0.0746695
-0.262472
-0.0800842
-0.363844
0.0301452
0.0217996
0.0209286
0.0337964
-0.157218
-0.274605
-0.000949644
0.00755098
0.00960033
-0.221169
0.0365546
0.00934924
-0.171381
0.0155357
-0.0714974
-0.152253
-0.0183968
-0.104764
0.0123137
0.0058129
0.0021896
0.0900372
-0.0172776
-0.0294877
-0.0253105
-0.131553
-0.340052
-0.0561564
0.0139942
-0.0804145
-0.0760415
-0.0302793
0.006504
-0.0398973
-0.00957909
-0.0962867
-0.0433501
-0.0335695
-0.0294994
-0.191559
-0.191935
-0.0172017
-0.0475202
-0.0391431
-0.129448
-0.0942758
-0.194466
-0.0921341
-0.121198
-0.034867
-0.351186
-0.0187284
0.0176995
-0.0176678
0.0228025
-0.149948
-0.0660167
-0.337346
-0.134007
0.0104542
-0.0374993
-0.0713399
0.0721954
0.0160919
-0.13838
-0.340919
-0.239771
0.0582031
-0.282666
-0.0460893
-0.277486
-0.303471
-0.152515
-0.155218
-0.187413
0.00226228
0.0124569
0.0597111
-0.0791719
-0.0761356
-0.0379705
0.0751489
-0.0129538
-0.0106596
0.151558
0.00196854
-0.0190977
-0.0468426
-0.0509556
-0.0466571
0.0169564
-0.0772451
-0.0858593
-0.0506787
-0.00941074
0.0279956
-0.283757
-0.211947
-0.0124808
-0.194794
-0.405935
-0.0416348
-0.0110989
-0.0973444
-0.283716
-0.345379
-0.117005
-0.0675996
-0.347985
-0.135558
0.0252396
-0.0215871
-0.127611
-0.0624555
0.11906
-0.0809282
-0.0638947
0.000733601
-0.0513293
-0.0463392
0.191005
-0.0884667
0.0374647
-0.0663689
-0.202481
-0.00486094
-0.00899039
-0.117536
0.0360398
-0.102433
0.00656274
-0.0083115
0.0618826
0.0442661
0.0183994
-0.0673414
-0.0532783
-0.156041
-0.313795
0.00693905
0.000992834
-0.0237986
-0.107712
-0.00801181
-0.0172882
-0.23931
-0.0927975
-0.344135
0.0242879
-0.0864475
0.00922813
-0.0831526
-0.399738
-0.0222533
-0.123758
-0.188877
0.0174866
-0.226724
-0.355326
-0.280808
0.128583
-0.177588
0.0947163
0.177451
-0.0979159
-0.149598
-0.0965068
0.0121811
-0.264364
-0.0882092
-0.152121
0.00364913
0.0195054
0.0370476
-0.0218884
0.0420275
-0.197394
-0.15359
0.082557
-0.0121503
-0.0920815
0.0193042
-0.244458
0.0966127
-0.127908
-0.0186778
0.0120158
-0.176789
-0.269684
-0.0727298
0.0186487
-0.072371
-0.19527
-0.198951
-0.0229988
0.0230691
-0.158302
-0.0815496
-0.0106012
-0.0692773
-0.0752319
-0.00647025
-0.0372254
-0.193064
-0.152076
-0.0025969
-0.00482697
-0.23865
-0.0527806
-0.0723017
-0.0768861
0.019638
-0.202267
-0.00583607
-0.0338139
-0.0636932
-0.0869217
-0.0130687
-0.0111554
-0.364635
-0.02381
-0.0513179
-0.0472859
-0.00776968
-0.0747305
-0.00419595
-0.0774822
-0.127447
-0.404013
-0.161463
-0.0086719
-0.210728
0.106849
-0.389608
-0.259667
-0.269381
-0.397201
-0.196254
-0.280807
-0.071903
-0.183933
0.127697
0.0544007
0.0280812
-5.25396e-07
-0.373219
0.00571057
-0.00924181
0.028335
-0.0957641
-0.388042
0.126356
-0.00512972
0.0465238
-0.0294379