/*--------------------------------*- C++ -*----------------------------------*\
| =========                 |                                                 |
| \\      /  F ield         | OpenFOAM: The Open Source CFD Toolbox           |
|  \\    /   O peration     | Version:  v2012                                 |
|   \\  /    A nd           | Website:  www.openfoam.com                      |
|    \\/     M anipulation  |                                                 |
\*---------------------------------------------------------------------------*/
FoamFile
{
    version     2.0;
    format      ascii;
    class       surfaceScalarField;
    location    "400";
    object      phi;
}
// * * * * * * * * * * * * * * * * * * * * * * * * * * * * * * * * * * * * * //

dimensions      [0 3 -1 0 0 0 0];
oriented        oriented;


internalField   nonuniform List<scalar> 
79099
(
0.0424813
0.0567095
-0.0991908
-0.0497166
0.0454137
0.0043029
-0.0964049
0.0907322
0.0056727
-0.0397809
0.0450762
-0.0052953
-0.000135052
-0.000799525
0.000934577
0.00216994
-0.00343402
0.00126408
-0.0434146
0.0723041
-0.0288895
-0.0539006
0.0963819
-0.0449065
0.0665207
-0.0216143
0.0588946
0.0543776
-0.113272
-0.0587477
0.0636847
-0.00493702
0.033697
-0.055554
0.021857
0.0172897
-0.0108826
-0.00640708
0.0346544
-0.0331363
-0.0015181
0.0723015
0.0500695
-0.122371
-0.10138
0.187888
-0.0865075
-0.0837941
0.137573
-0.053779
-0.189638
0.0882575
-0.0144204
0.0151807
-0.000760331
0.0673534
-0.122345
0.0549921
0.145865
-0.0684938
-0.0773716
0.06985
-0.0452782
-0.0245718
0.110439
0.125318
-0.235757
-0.0693068
0.0258922
0.0690233
-0.130909
0.0618861
-0.0477262
0.041219
0.00650726
0.00259651
0.0320579
0.0984902
-0.0619256
-0.0365646
-0.0465869
0.00415075
0.0424361
-0.0371745
0.0552823
-0.0181078
-0.0445875
0.0400758
0.00451161
0.00895835
-0.0354386
0.0264802
-0.000612557
0.00110462
-0.000492067
0.0566112
0.0801579
-0.136769
0.351717
-0.191527
-0.16019
-0.0717792
0.0209903
0.0507889
-0.0173003
0.0905398
-0.0732394
0.104377
0.191409
-0.295785
-0.0723482
0.0239435
0.0484047
0.0444862
0.064144
-0.10863
-0.100399
0.0830989
-0.0259329
0.0296289
-0.00369596
0.0660332
-0.0593189
-0.00671433
-0.00768851
0.00442247
0.00326604
0.127654
-0.0603006
-0.0864191
0.184692
-0.0982726
-0.0693066
0.182749
-0.113442
-0.164147
0.0947573
0.0693899
-0.00264009
-0.0475204
0.0501605
-0.291571
0.182713
0.108858
0.227871
-0.327368
0.099497
0.0144045
0.0516228
-0.0660272
-0.0452778
-0.0508643
0.0961421
-0.250873
0.165444
0.085429
-0.0876666
0.0561354
0.0315313
0.000939486
-0.0153599
0.0606599
-0.126072
0.0654125
-0.174239
0.313368
-0.139129
-0.040541
0.0493168
-0.00877585
0.0406727
-0.0859569
0.0452842
0.151475
-0.100177
-0.0512983
0.0201653
-0.0899536
0.0697883
-0.0191731
0.0253902
-0.00621704
-0.000196927
-0.00561638
0.00581331
0.0297142
0.0174863
-0.0472005
0.198678
-0.118366
-0.0803119
-0.0566915
0.019517
-0.209241
0.139934
0.18611
-0.315088
0.128977
-0.11676
-0.0529618
0.169721
-0.00307504
0.0138769
-0.0108018
0.246138
0.0289728
-0.27511
-0.134568
0.104229
0.0303389
-0.000484388
-0.000128169
-0.0438308
-0.00389538
0.320234
-0.214172
-0.106062
-0.0658709
-0.226716
0.292586
0.00338294
-0.001213
0.0784708
-0.208794
0.130323
-0.00869468
0.00561964
-0.00366321
0.00022919
-0.0210811
0.0110148
0.0100663
0.0528238
-0.0503056
-0.00251821
-0.0558601
0.0258356
0.0300245
0.0899724
-0.0486104
-0.041362
-0.197249
0.0804893
-0.0273093
-0.0105983
0.0379076
-0.0688019
0.0238954
0.0691699
0.129508
-0.0392825
0.0867689
-0.0474864
0.00307909
-0.00608468
0.00300558
0.001539
-0.0024247
0.000885701
-0.0104364
-0.0106447
0.0604552
-0.00513266
-0.0553225
-0.000955998
0.0273272
-0.0263712
0.0088647
0.0435664
-0.0524311
0.0171962
-0.00132369
-0.0158725
-0.0148808
-0.0815241
0.0336834
-0.0377633
0.00407983
-0.0261939
0.00702077
-0.0616856
0.116993
-0.072507
0.00599134
-0.0541783
0.0481869
0.0520298
0.0464604
0.0973273
-0.0533944
-0.0439328
0.00406526
-0.00248892
-0.00157634
0.000336034
-0.00195875
0.00162271
-0.0142505
-0.0575288
-0.0288552
-0.0223461
0.0512014
0.299009
-0.0528715
0.0351355
0.015843
-0.0509786
0.0181089
-0.0385725
0.0204637
0.208345
-0.274216
0.0274263
-0.0283823
-0.022922
0.00167868
0.0212434
0.291518
0.00147409
-0.292992
0.0416773
-0.117463
0.0757861
0.0973857
0.126001
-0.223386
-0.0432357
-0.00238417
0.00165983
-0.00497413
0.00331429
0.000798178
-0.000933231
-0.0385567
-0.0960111
0.0282372
-0.0945455
0.0663083
0.042366
-0.0195312
-0.0228348
-0.00317266
-0.000490546
-0.178313
0.110575
0.0677375
-0.00457469
0.00667252
-0.00209783
0.0476665
0.00111175
-0.0487782
0.0286995
-0.0921742
0.0634747
-0.0495741
-0.0753434
0.124917
-0.0290382
0.0379966
-0.0680225
0.166152
-0.0981294
-0.0300032
-0.0258569
-0.073087
-0.0362339
0.109321
0.0765461
-0.213632
0.137086
-0.0447935
0.00425248
-0.156377
0.26894
-0.112563
0.00939917
0.00789049
0.0814381
0.077404
-0.158842
0.108226
-0.191881
0.0836555
0.224385
-0.138904
-0.0854804
0.0945051
-0.186944
0.0924388
-0.0230566
0.0642469
-0.0411903
0.0191327
0.0180272
-0.0371599
0.0901137
-0.0614142
0.0266906
-0.0982266
0.071536
-0.061283
0.10296
-0.0637559
0.21649
-0.152735
0.0597933
-0.194481
0.134688
0.0604521
-0.134074
0.0736219
-0.294556
0.224699
0.069857
0.0150475
0.0103427
-0.000351846
-0.000447679
0.0345484
0.0353016
-0.280262
0.0943805
0.185881
-0.0960224
0.0507446
0.0323408
-0.021593
-0.0107479
-0.00779047
0.00120261
0.00658785
0.0558905
-0.134517
0.0786262
0.0499501
-0.0566033
0.00665326
0.0682306
-0.0661558
-0.00207485
-0.151814
-0.139757
0.262965
-0.152516
-0.110449
-0.000925366
0.00246436
0.0526837
-0.121677
0.0689936
0.170394
0.128114
0.0866079
0.0968067
-0.183415
-0.0838808
0.0928966
-0.00901585
-0.0559201
-0.17003
0.22595
-0.0376652
0.116266
-0.0786013
0.105338
-0.0572116
-0.0481265
-0.0179137
0.0177874
0.000126339
-0.0268551
0.0243362
0.00251885
0.128717
-0.220027
0.0913097
0.0115972
0.0307688
-0.0977224
0.191806
-0.0940838
0.0229951
0.0669774
-0.0544197
0.0632844
0.0220168
-0.049326
0.0439551
-0.0761366
0.0321815
0.103871
-0.0756342
0.132586
-0.0799021
-0.00357308
-0.00411543
-0.0700712
-0.0427727
0.112844
-0.0305398
0.0642368
0.00700769
-0.00720462
0.0203223
-0.0239447
0.00362238
-0.00841382
-0.0184413
-0.00306618
0.00159263
0.00147354
-0.235285
0.17153
0.0330509
-0.014942
0.0855372
0.0351909
-0.120728
0.0153289
0.0267643
-0.0420931
0.00311796
-0.00145813
-0.17934
0.0571316
0.122208
0.0245462
0.106363
-0.130909
0.0632328
0.0413278
-0.104561
-0.224024
0.146321
0.0777031
0.29971
-0.155364
-0.144345
-0.0823869
0.0727602
0.00962665
0.0328245
-0.0729013
0.0400768
0.170822
-0.0628945
-0.107928
0.0307852
-0.0931744
0.0623892
-0.085271
-0.0752599
0.160531
0.0416367
-0.0536525
0.0120158
-0.00227211
0.00229799
-2.58813e-05
0.0635101
-0.126148
0.0626381
0.286761
-0.180418
-0.106343
-0.0521181
0.0717133
-0.0195952
-0.097003
0.214775
-0.117772
0.00145463
-0.00111859
-0.054898
0.12024
-0.0653419
0.0501516
-0.0480994
-0.00205214
-0.0722097
-0.0169368
0.0891465
0.0343374
-0.0631927
0.105415
0.0726453
-0.17806
0.176259
-0.285813
0.109553
-0.137161
0.2476
-0.0684841
0.0501539
0.0183302
-0.0523213
-0.0815759
0.133897
0.0458626
-0.0521846
0.00632198
0.301064
-0.123617
-0.177447
0.000858003
0.0513116
-0.0521696
0.121032
0.180032
0.0661045
-0.133683
0.0675782
-0.0592572
0.0620263
-0.00276914
0.127233
-0.0683865
-0.0588464
0.0181048
-0.0648719
0.0467671
0.09024
-0.0624407
-0.0277993
0.0499065
0.174478
0.00504644
-0.00545849
0.000412043
-0.0293759
0.0313343
-0.00195847
-0.249703
0.120597
0.129106
0.0173278
0.00745242
-0.0247802
0.0766745
-0.0506399
-0.0260346
0.00268808
0.00137718
-0.0459406
-0.0849172
0.130858
0.198216
-0.12167
0.00157486
0.0036227
-0.00519756
-0.0947994
-0.0932508
0.18805
-0.167282
0.0992596
0.129708
-0.0730968
0.0602759
-0.0295649
-0.0307109
0.122792
-0.0623395
0.0585662
-0.117507
0.0589413
0.315868
-0.194471
-0.121397
0.0442826
0.0139622
-0.0582448
0.0469955
-0.00113286
-0.229502
0.151211
0.0782914
0.0877449
-0.0470722
0.149954
-0.108178
-0.0417762
0.119581
-0.0569751
-0.062606
-0.110329
-0.0493203
0.15965
-0.0609731
-0.0214138
0.05716
-0.13724
0.08008
0.0204549
-0.0252035
0.00474861
0.0433702
-0.0242374
0.0671546
-0.147754
0.0805997
-0.0611767
-0.00730744
0.0642692
-0.136666
0.0723968
-0.0236797
-0.020513
0.0441927
-0.0408758
-0.00391771
-0.10187
0.0179891
0.332903
-0.164934
-0.167969
-0.0675591
-0.0857938
0.153353
-0.0378413
0.0382316
-0.000390283
-0.0199389
0.00888219
0.0110567
-0.193138
0.219675
-0.0265369
0.0223283
-0.00200598
-0.0516435
0.0525015
-0.136057
-0.0879783
-0.11963
0.0465429
0.0774858
0.0465042
-0.12399
0.0269898
0.0332861
-0.00175058
0.0021125
-0.00036192
-0.289226
0.188935
0.100292
0.0520803
-0.0104436
0.0060791
-4.19563e-05
-0.00603715
-0.0929887
0.0373093
0.0556794
-0.0931999
-0.0564694
0.149669
0.23315
-0.107833
-0.151153
0.25553
-0.0632215
-0.0297672
-0.0174521
0.0601019
-0.0426498
0.108743
-0.0323452
-0.0763983
-0.0328831
-0.039465
-0.00767028
-0.0639145
0.0715848
0.00550984
-7.13367e-05
-0.00543851
0.0420975
-0.0595496
0.0475933
-0.117664
0.0516721
-0.0417316
-0.00994054
-0.0117594
0.0115387
0.000220762
-0.0756611
0.00912766
0.0665335
-0.0305161
0.00888568
0.0216304
0.0180628
-0.0485992
0.0305365
0.125451
0.194784
-0.0337291
-0.0456354
0.0793644
-0.0369181
0.0548928
-0.0179747
-0.00348983
-0.0549587
0.163676
-0.108718
-0.0109146
-0.0647465
-0.00151389
-0.00155228
1.92251e-05
-0.000996763
0.000977538
-0.00191153
-0.000360582
-0.105757
-0.155204
0.26096
-0.052962
0.00324547
0.0765754
-0.106989
0.0304137
0.144186
-0.0770315
0.238714
0.0528039
0.0523197
-0.0645202
0.0122005
0.00483944
0.000207002
-0.0491768
0.0475812
0.00159563
-0.0340818
0.0410381
-0.00695626
0.00130372
-0.00178449
0.000480766
-0.0751071
0.0455371
0.02957
-0.0747131
0.022595
0.147801
0.150707
-0.257955
0.195867
0.0620887
-0.176223
-0.113003
-0.0431384
-0.0397816
0.08292
0.01521
-0.0521281
0.00296458
-0.0288975
-0.0885036
0.0175833
0.0709203
0.00203472
-0.000730995
0.0162147
0.0354574
-0.127768
0.0892109
0.0184678
0.013873
0.0288961
-0.0852378
0.0563417
-0.213693
-0.0665688
-0.104117
0.0720289
0.0320878
-0.00233395
0.00372401
-0.00139006
-0.088109
-0.0912307
-0.0876235
-0.166286
0.253909
0.152165
-0.0845074
-0.0676577
0.266873
-0.143659
-0.123213
-0.108179
0.225445
-0.117265
0.040911
-0.0255821
-0.344234
0.24068
0.103554
0.00120179
0.0159944
0.113191
-0.0893553
-0.0238358
0.227976
-0.3156
0.249219
-0.15052
-0.0986992
0.0525401
0.0156905
-0.154643
0.136236
0.0184077
0.122836
-0.0505348
-0.0372638
-0.00057753
0.0498681
0.0224361
-0.000808136
-0.00257424
0.00338237
0.00212083
-0.0429966
0.00096185
-0.000503837
-0.000458014
0.0546295
-0.0501193
-0.00451011
-0.000594736
0.00149544
-0.000900701
0.0898188
-0.135759
-0.12238
0.226708
-0.104328
-0.00321239
0.00404983
-0.000837434
0.017589
-0.0181567
0.000567699
0.169171
-0.105206
-0.0639657
-0.0946021
0.184096
-0.0894936
-0.0428957
0.019216
-0.00798143
-0.0119575
-0.0940455
0.159188
-0.065142
0.044852
-0.0525222
0.0739916
0.0664781
-0.14047
0.0029151
-0.00302287
0.000107766
0.0819859
-0.0479958
-0.0339901
-0.00179974
-0.00884764
0.0106474
-0.32839
0.178301
0.150088
-0.0634285
0.0970929
-0.0336644
-0.1104
0.0415739
0.068826
-0.0526805
0.109711
-0.0570304
0.0191542
0.00317417
-0.135304
0.0891414
0.0461624
-0.0194566
0.0466077
-0.0271511
0.0486188
-0.00162334
0.0358175
0.0461684
0.121838
-0.0583282
-0.00404257
0.0599589
-0.0559163
0.0257838
0.0152162
-0.041
0.00414979
-0.00335157
0.00101762
-0.297148
0.296285
0.000863175
-0.0767841
0.127653
-0.0508684
-0.0637973
0.101511
-0.0377136
0.120203
-0.0559339
-0.0247532
0.0167718
0.139028
-0.247276
0.108248
0.0828328
0.0630325
-0.0108871
-0.000872295
0.0566234
0.112548
0.0249734
-0.0249583
-1.50215e-05
0.00678888
-0.000709774
0.116385
-0.27444
0.158055
0.0252464
-0.10203
0.0439414
0.0569493
-0.100891
0.146239
-0.0809882
-0.0652513
-0.0668527
0.100282
-0.0334291
0.190108
-0.081882
0.0404437
0.0362308
-0.0387282
-0.0191467
0.0578749
0.00133416
-0.00131493
-0.0125461
-0.0759575
-0.0623258
0.0912218
-0.061488
0.130511
0.00212044
-0.00292857
-0.154754
0.0988339
-0.132829
-0.118044
0.0633392
-0.0473437
-0.0159955
0.128577
-0.062472
-0.0261057
-0.128538
0.0991803
-0.0683951
-0.14189
-0.186499
0.0635845
-0.0392814
-0.0243031
-0.036071
0.276258
-0.240187
-0.0788474
0.145149
-0.0663014
-0.0488889
-0.067961
0.11685
-0.00189504
0.188123
-0.308493
0.12037
0.00246599
0.000449108
-0.157647
0.0745867
0.08306
-0.0563242
-0.10205
0.158375
0.125916
0.109726
-0.235642
0.144391
-0.0921001
-0.0522909
-0.0241658
0.0681209
0.0250691
0.0844138
-0.109483
0.00297822
-0.0450482
0.0420699
-0.160415
-0.134141
0.116392
-0.0965112
-0.0198806
0.0444952
-0.094812
0.0503168
0.0451811
0.00944834
-0.320891
0.144668
-0.0187952
-0.0257922
0.000569646
-0.00193234
0.0013627
-0.0396497
-0.00222775
0.0418774
0.0944654
0.0475381
0.00382006
-0.0513581
0.0802406
-0.0759649
-0.00427571
-0.00610203
0.000317776
0.00578425
0.0271921
-0.0642429
0.0370508
0.0207741
-0.00161992
0.0753967
-0.0482046
0.039949
-0.233087
-0.0418108
0.0547689
-0.0129581
-0.020081
0.0497952
-0.0408579
-0.0416786
0.0825364
-0.097376
0.0802469
-0.0544773
-0.0257697
-0.00351037
0.00231909
0.00119127
-0.0430915
0.00344178
0.0948422
-0.0681516
0.0100798
0.0178235
-0.0279033
-0.00761222
0.00757027
0.0929494
-0.00296327
-0.0899862
-0.00194668
0.00135194
0.0498494
-0.0729059
-0.0548798
-0.102767
0.0573775
-0.0596118
0.00223425
0.120801
-0.0843892
-0.0364119
0.114759
-0.190848
0.076089
0.327272
-0.159764
-0.167508
-0.172489
0.299922
-0.127433
0.0502874
-0.0510085
0.000721172
-0.00370418
0.00201283
0.00169136
-0.142589
0.0953003
0.0210915
0.0428012
0.00581762
-0.100838
0.0556552
0.0451827
0.0713232
0.0994989
-0.00577738
-0.000324649
0.171799
0.0339094
-0.205708
0.0720791
-0.132077
0.0599983
-0.0583005
0.0144541
0.0438464
-0.0584896
-0.0519104
0.0913834
-0.0393536
0.0114182
-0.013218
-0.0548735
0.0473019
0.00757154
0.0608059
-0.0615505
0.000744605
0.0623075
0.083932
0.0739027
-0.0397603
-0.0140267
0.053787
0.0128869
-0.013993
0.00110609
0.0435266
0.00540067
-0.0489273
0.0448787
-0.0518359
0.00695719
-0.0605161
-0.0470702
0.107586
-0.0814692
-0.0538345
-0.062139
0.0131737
0.0489653
0.2411
-0.115184
0.128746
-0.103917
-0.0248296
0.103896
-0.059955
-0.0718274
0.036674
0.0351534
0.0464197
-0.0875736
0.0411538
0.0260673
0.0615138
-0.0875811
0.11259
0.0384174
-0.151007
0.00069648
-0.00100572
0.000309239
0.292479
-0.165051
-0.127427
-0.169641
0.0750387
0.0430412
0.0109967
-0.0540379
0.310431
-0.191358
-0.119073
-0.00118061
0.000773769
0.000406837
0.0514941
0.0387459
-0.27463
0.00797673
0.266653
0.0365212
-0.0796596
-0.0793948
-0.0847524
0.0250021
-0.0076743
-0.0629341
0.0649635
-0.00202943
0.293634
-0.194373
-0.0992614
-0.0486163
0.015217
0.0333993
0.056819
-0.0137779
0.0296145
-0.0767868
0.0471723
-0.0719847
-0.0288532
-0.061801
0.0577584
0.00310688
-0.00234359
-0.000763294
0.0660132
-0.0214426
-0.0445706
0.225535
0.0341073
-0.259642
-0.272309
0.0849335
0.187375
-0.0442872
-0.0186469
-0.0113629
0.0128011
-0.00143816
-0.0455276
0.0984861
-0.0529585
-0.0672644
0.114858
0.148419
-0.0792254
-0.0691938
0.00155085
-0.00538927
0.00383841
0.13138
-0.087795
-0.043585
-0.0042622
0.00363531
0.000626897
-0.152081
-0.105874
0.033905
0.0369166
-0.0708215
0.0195919
-0.0833892
0.000116933
-0.00396671
0.00384978
0.0410497
-0.0752186
0.0341689
-0.0679353
0.0881006
-0.0464701
0.0377428
0.00872727
0.0390053
-0.313635
-0.0168324
-0.0398591
0.170314
-0.11052
-0.147545
0.294172
-0.146627
0.00227964
-0.0104721
0.0081925
-0.1706
0.0602702
0.106185
-0.0816391
0.0862419
-0.0638186
-0.0224233
-0.116537
0.0728774
0.0436592
0.101278
-0.180291
0.0790136
0.0993814
-0.192232
0.0928509
0.0413222
-0.0548388
0.0135167
6.24878e-05
-0.000980187
0.000917699
0.0787274
-0.0610939
-0.0176334
-0.0329058
0.0945514
-0.0616456
-0.00462099
-0.0258951
0.0980788
-0.0535835
0.0557331
0.00923037
-0.183768
0.088969
0.187177
-0.0877952
0.0721745
-0.0684036
-0.00377097
-0.00216895
-0.00067068
0.00283963
-0.0458444
0.0444504
0.00139404
-0.0861309
-0.0296903
0.115821
0.0224705
-0.0216343
-0.000836211
-0.120056
0.0695155
0.0505408
0.258673
-0.0725627
-8.74517e-06
-0.00778172
-0.0986667
0.031814
-0.151063
0.0702745
0.0807888
0.0589578
-0.12902
0.0700622
0.040865
-0.0892405
0.0483755
0.0135424
-0.000655473
0.0392682
-0.0784859
0.0392177
0.0674685
-0.00701328
0.123661
-0.0345196
-0.0981927
0.0652869
-0.0580449
-0.00409406
-0.129085
0.0911018
0.0379837
-0.106487
0.0688223
0.0849359
-0.0456677
0.0825683
0.00471966
-0.087288
-0.0383968
-0.00636643
0.0447632
-0.050062
0.0513579
-0.00129585
-0.0400808
0.0581857
0.0347293
0.0940171
0.18282
-0.104349
0.0579744
-0.103502
0.0244409
-0.0555893
0.0137785
0.0180112
-0.0974546
0.0794433
-0.0057173
0.102214
-0.245433
0.143219
0.0931614
0.0304996
0.0195866
0.0405154
0.0625045
-0.0355147
0.0477369
-0.00421026
0.157498
-0.296692
0.139194
0.128822
-0.072932
0.046269
-0.0432908
0.109844
0.0423214
-0.114534
-0.103282
0.217816
0.224431
-0.119838
-0.104593
-0.035907
-0.00653844
0.0424454
0.0671742
0.0546642
-0.00276017
-0.000750195
-0.121007
0.0714334
-0.00179155
0.00210732
-0.000315776
-0.0109121
-0.0439613
-0.169552
0.113227
-0.0147489
-0.0100043
0.00107848
-0.00101599
0.0770853
-0.0360356
0.235119
-0.138941
-0.0961775
0.0295939
-0.06917
0.0395762
0.0513303
-0.00645156
0.000175759
0.0599512
0.0373761
-0.0704845
-0.0093799
0.0798644
-0.0277976
-0.00433663
0.0321342
0.0461116
0.0670794
-0.0456071
-0.0708895
0.116497
-0.132192
0.0460611
0.00029783
-0.00147844
0.193317
-0.0860377
-0.107279
0.00140883
-0.00071235
0.136843
-0.216609
0.0797653
-0.155079
0.246753
-0.0916739
0.166534
0.0964306
-0.041764
-0.0417355
0.0834996
-0.220891
0.10704
0.113852
0.0188393
-0.00125035
-0.0395913
-0.012374
0.0519653
0.013311
0.212224
0.00566971
-0.00411885
0.0651697
-0.149021
0.0838514
0.194344
0.0326336
-0.226978
-0.092721
-0.137778
0.230499
-0.0398954
-0.0878723
0.061005
-0.0597596
-0.00124536
-0.0688196
0.0868308
-0.104428
0.0439988
0.0604289
-0.0556917
0.0114045
-0.00202926
0.00351736
-0.0014881
-0.000261264
0.00284563
-0.00258436
-0.181002
-0.111208
0.29221
-0.0560141
-0.0484137
-0.109313
0.203855
-0.094542
0.146721
-0.0762704
-0.0704507
0.0294284
0.0503779
-0.0798064
0.00385951
-0.00292761
-0.000931903
0.000345655
-0.00477646
0.00443081
-0.00673341
-0.0315048
0.0382382
-0.0439975
0.00560069
-0.0808421
0.18212
-0.269991
0.100649
-0.0358221
0.113308
0.0917664
-0.178186
-0.0303542
-0.0447528
-0.15385
0.0074816
0.146369
0.253977
-0.115851
-0.138126
0.107544
0.0408754
-0.201615
0.0972942
0.104321
0.0298108
-0.0970467
0.067236
0.0538815
-0.118065
0.0641835
-0.241618
0.18053
0.0610878
-0.0251908
0.0125342
0.0126566
-0.0542805
-0.0632769
0.117557
-0.326114
0.198169
0.127945
-0.116304
-0.0853103
-0.0912074
-0.0871053
0.0396465
-0.0524383
0.0127919
-0.0289049
-8.41518e-05
0.0289891
0.0741744
-0.0402694
-0.0743921
0.0379245
0.0364675
-0.0289726
0.0327402
-0.00376763
0.000275004
0.00192526
-0.00220026
0.000313407
-0.0035258
0.0131066
0.000792098
-0.0138987
0.0564252
-0.125372
0.0689473
-0.130044
-0.131495
0.261539
0.000682183
0.00503006
-0.0212455
0.0162154
0.215801
-0.128762
-0.0870387
-0.0357716
-0.100926
-0.123099
0.144848
-0.0593113
0.126899
-0.276523
0.149624
0.008255
0.00562185
-0.0306767
-0.0179396
0.121259
0.0267091
-0.147969
0.0579586
-0.00222544
0.0683271
0.0920814
-0.160408
0.0844777
0.0363234
-0.0117807
-0.0134101
0.0652956
-0.115411
0.0501151
0.144078
-0.0789084
-0.00158764
0.000943399
0.000644245
0.100441
-0.222677
0.122236
-0.0420014
0.10073
-0.0587288
0.0446492
-0.0989102
0.0542611
0.0498844
-0.110401
-0.0580378
0.0193096
0.00927691
-0.0297863
0.0205094
-0.186399
0.0886765
-0.0749972
-0.166621
-0.0709148
-0.0768395
-0.0276737
0.0365788
-0.00890515
-0.0378416
0.0628957
-0.0250541
-0.0486692
-0.0639741
0.112643
0.308096
-0.129846
-0.17825
-0.0354345
-0.0130873
0.0485219
-0.1365
-0.133491
-0.0829074
0.0260047
0.0569027
0.0266243
-0.180475
-0.213951
0.0572485
0.156703
-0.142805
0.0718904
0.214236
0.137481
0.146061
-0.07318
-0.0728808
0.112738
0.190964
-0.111989
-0.078975
-0.0633566
0.128671
-0.0653144
0.0465107
-0.0514662
0.00495546
0.144108
0.0446597
-0.188768
-0.00722616
0.0541189
-0.0468928
-0.0594749
-0.0605558
0.120031
-0.00486501
0.00521848
-0.000353468
-0.180012
0.089944
0.0900676
0.0382052
-0.0499852
0.01178
-0.275396
0.169639
-0.0280423
-0.000862628
0.304506
-0.134113
0.0811053
0.0566505
-0.137756
0.0163075
-0.0351027
0.0347972
0.043163
-0.0779602
-0.00545902
0.00773866
-0.0145605
0.0558826
0.037295
-0.0614607
-0.00188198
0.0355654
0.0595337
-0.0568179
-0.00271589
-0.202362
0.134145
0.068217
-0.0020753
0.000283754
-0.114068
0.0784253
0.0356425
0.0620952
-0.0129628
0.0121812
0.000781616
0.126719
-0.00545949
0.0546495
-0.00813882
0.0091481
0.0488105
-0.118249
0.0762472
0.0489777
0.00384608
0.0341317
0.0161557
-0.158999
0.0914397
-0.00758978
0.0333736
-0.0770824
0.234183
-0.1571
-0.0316696
-0.0643527
-0.118469
-0.111033
-0.0496526
0.114948
-0.00305665
0.0442962
-0.0412395
-0.0695846
-0.144366
-0.0730811
-0.0635849
-0.11704
0.276231
-0.15919
0.000826724
0.0491234
0.0451017
0.0351453
-0.0615027
-0.0539081
0.0460285
0.0593096
-0.120523
0.0474416
0.184563
0.107916
9.29107e-05
-0.0294688
-0.0559704
0.0132232
0.0427473
-0.0151404
-0.0283407
0.0434811
0.0422789
0.0213056
-0.000937982
-0.000649661
-0.0476795
0.0470092
0.000670358
-0.0804067
0.139068
-0.0586611
-0.0047751
-8.99132e-05
-0.0826138
-0.0374425
-0.335293
0.186475
0.148818
0.000686846
0.048103
-0.00989784
-0.0835838
-0.200653
0.284237
-0.0190817
-0.0260429
0.0451246
0.0235217
-0.0251198
0.00159809
0.0224629
0.0309122
-0.0533751
0.0635035
-0.150967
0.0874638
-0.00263506
0.00420992
-0.012275
-0.0464727
0.0284149
-0.0048932
0.0531655
-0.0955906
0.0424252
-0.114842
-0.0406368
0.155479
-0.0113135
0.0039201
0.00739336
0.040345
-0.0194894
-0.0208556
-0.0382052
0.0432341
-0.00502894
-0.0356661
0.0920818
-0.0564157
0.17125
0.144618
-0.0650013
-0.0451227
0.0284352
0.0166874
0.0601962
-0.132601
0.0724053
-0.027934
-0.0171887
-0.0483132
0.0456731
-0.0769139
-0.0554225
0.0939508
-0.0385283
-0.00666211
0.00742511
-0.000763002
0.0263619
-0.0278253
0.00146341
0.0844179
-0.0147006
-0.0697174
0.00351308
-0.00339615
0.0318773
0.0569792
-0.0206995
-0.0362797
-0.00299424
0.000825294
0.116486
-0.165289
0.0488023
0.0303884
-0.0253583
0.0537886
0.0549549
-0.144406
0.0678681
0.076538
-0.0154719
0.011042
0.00442994
-0.103921
0.0139596
0.0899611
0.0475195
0.00141411
-0.0489336
-0.0582677
0.0451517
0.013116
-0.0475157
-0.073007
-0.113756
-0.0784766
-0.0579354
0.0403172
0.0176182
0.0226487
0.0176963
0.141214
-0.0464571
-0.168783
-0.00149316
0.170276
-0.00169513
0.000383247
0.00131189
0.284335
-0.290065
0.00572981
-0.0114614
-0.0262064
0.0376678
-0.0392892
0.0857089
-0.0442112
0.00600608
-0.10208
-0.100283
-0.0855176
-0.00601398
-0.0026807
-0.0621975
0.0652955
-0.003098
-0.000620998
-0.0464818
0.0471027
-0.00126353
0.00153853
-0.0652752
-0.0176322
0.00437637
-0.00403071
0.0437368
-0.0762153
0.0324785
-0.0381306
-0.0683568
-0.00122849
-0.000466645
0.0785492
0.0681719
0.139362
0.0565049
0.0308637
0.0316408
-0.0381461
0.0509946
-0.0128485
-0.0596
-0.0647825
-0.138485
0.00953722
0.128947
0.228255
-0.127813
-0.291954
0.107224
0.18473
-0.233234
0.156152
0.0468235
0.0139824
-0.00193002
0.00118994
0.000740082
-0.00120389
0.0270786
-0.0258747
0.28956
-0.174159
-0.115401
-0.0750317
0.000857873
0.0741738
-0.0570977
0.107514
-0.0504164
-0.000894834
0.0405023
-0.0396074
-0.185893
-0.106061
0.00284942
0.00064632
-0.00349574
-0.00596083
0.000183452
0.00410741
-0.00471426
0.000606852
0.02182
0.0351592
-0.0594415
0.0889246
-0.0294831
-0.10396
-0.0737828
0.177743
-0.000595865
0.164749
-0.0964218
-0.142419
0.0579117
-0.0637162
-0.0787029
0.172732
-0.0633523
-0.10938
0.0531059
-0.073037
0.0199311
-0.0231243
0.086357
-0.0907429
-0.00222877
0.0929716
-0.113889
0.0863255
0.0275637
-0.246224
0.109063
0.128751
-0.051709
-0.0770415
0.0189282
-0.187711
-0.0894631
0.218181
0.0483926
-0.0304682
-0.0179244
0.0681535
-0.0158338
0.170305
-0.0389083
0.132016
-0.0931082
-0.0054887
-0.000472135
-0.00481547
-0.00649799
0.0567151
-0.0883848
0.0235108
-0.0434898
0.0199789
-0.0795677
0.0402851
0.0480078
-0.0622981
0.0142902
0.0502194
0.00715809
0.208362
-0.119791
-0.0885718
-0.0891614
0.149275
-0.248152
0.0988768
-0.0912102
0.183292
0.0806928
0.0707825
0.0107864
-0.0385839
-0.127149
0.25359
-0.126441
-0.100516
-0.123237
0.223754
-0.137496
0.260828
-0.123332
0.163806
-0.25277
0.0889639
0.00484819
-0.00074078
-0.0230002
0.0602951
-0.200115
0.091936
0.136576
-0.0623228
-0.0742531
0.0980036
-0.270493
-0.0380487
0.0752967
-0.037248
0.112113
-0.231441
0.119328
-0.0404718
-0.00599828
-0.000165487
-0.0464214
0.214225
-0.0800796
0.023917
-0.0284655
0.00454844
-0.041944
-0.00114747
-0.0085948
-0.0450051
0.0535999
0.0703538
-0.0407393
-0.00132869
0.00212208
-0.000793387
-7.34396e-05
0.00103529
-0.186974
0.0957666
-0.109633
-0.0513359
0.160969
0.017104
-0.107847
0.025369
0.00304596
0.0684367
-0.0403311
-0.0281056
0.0924063
-0.114499
0.0220925
-0.0029416
0.00187035
0.00107125
-0.0124484
-0.0340995
0.0465478
0.154329
0.0739254
0.087294
-0.177985
0.0906912
0.0999535
0.028797
0.00983103
-0.045738
0.00761949
-0.0798816
0.0722621
-0.313054
0.191107
0.121946
-0.225922
0.0516832
-0.0896835
0.165263
-0.0755794
-0.0885841
0.180691
-0.092107
-0.00496636
0.00470392
0.000262431
0.0156153
-0.0553962
-0.0853815
-0.0590246
-0.040122
-0.00040401
-0.0175097
0.30739
-0.150579
-0.156811
-0.163763
0.0784918
-0.0227306
-0.0779335
0.100664
0.110266
-0.0430459
-0.0672202
-0.00458976
-0.000868731
-0.0151115
0.044664
-0.0295525
0.00355547
-0.000706045
-0.021981
-0.0421253
0.0641062
-0.0383624
0.0608253
-0.0193848
-0.0450986
0.000149322
0.0449492
0.00574108
-0.00652667
0.000785588
0.0603054
0.0308583
-0.0796334
0.0487751
0.0625962
-0.112249
0.0450485
0.0530303
0.00342996
-0.00268394
-0.000746022
0.0857416
-0.204219
0.118477
-0.000475605
0.0381597
-0.0466718
0.00851213
-0.148706
0.00848684
0.0153157
0.0480234
0.194585
-0.108843
0.0040635
0.000584509
-0.00464801
-0.0975254
0.0618593
-0.04202
-0.00959906
0.0516191
-0.043291
0.00134696
0.0898143
-0.20709
0.117276
0.0161269
0.00464713
0.100524
0.0955183
-0.196042
-0.293265
0.176225
-0.00281957
0.0189465
-0.0477824
0.10575
-0.0579674
0.268669
-0.194019
-0.0746498
-0.00479278
0.000311829
0.00448095
0.00250443
-0.00193479
-0.153467
0.0995138
0.0539534
-0.0337132
0.0502343
-0.0165211
0.0910455
-0.0659764
0.0722584
-0.0661917
-0.00606674
0.0916776
-0.130586
0.25916
-0.173338
-0.0858222
-0.000709938
0.00642928
-0.00571934
-0.0025347
0.00343981
-0.000905115
-0.0517482
0.0136021
-0.175598
0.154433
0.021165
0.0938926
0.0560613
-0.00293379
0.0379653
-0.0350316
0.0706897
-0.00318663
-0.0675031
-0.281883
0.175842
0.106041
0.040762
-0.223765
0.183003
0.0615571
0.0177951
-0.0793522
0.102536
0.0792773
-0.181813
0.0661163
-0.0424659
-0.0236504
-0.0852756
0.0300384
0.0552371
0.000848241
-0.0152796
0.0657006
-0.050421
-0.097273
0.0629883
0.0342847
0.000999484
0.00561866
-0.00661814
-0.13134
-0.00714427
-0.0675941
-0.0677829
0.135377
0.0666265
0.0436396
0.0154124
0.0398698
0.0726215
-0.0113838
-0.0612378
-0.00595179
0.00614705
-0.000195264
-0.000126915
0.0236789
-0.057645
0.0339661
0.0255753
-0.000206378
0.0491465
0.165078
-0.256952
0.0902313
0.166721
-0.0957152
0.0402927
-0.108289
-0.0404169
-0.105149
-0.117528
-0.0725124
-0.0284384
0.100951
-0.0432034
0.1058
-0.0441406
0.0250589
-0.133767
0.0714442
-0.0972519
0.056321
0.0409309
-0.0479056
0.0472846
0.0868236
-0.0182113
-0.0686123
-0.00710689
0.0066948
0.000412084
-0.22907
0.133999
0.0950707
-0.0486164
0.276487
0.189011
-0.0864745
-0.313211
0.196317
0.116894
0.0913183
-0.0480349
-0.0432834
0.0730142
-0.15451
0.0814958
-0.0856053
0.0151207
-0.00312956
0.0478559
-0.0447263
0.0520898
0.0118505
-0.0639403
-0.0106162
-0.00485573
-0.221975
0.0792686
0.142707
0.048408
-0.0180448
-0.0303631
-0.0455738
0.0562356
-0.0106618
0.148746
0.0984874
-0.247233
-0.152818
-0.0227801
0.00826416
-0.0546319
0.0463678
0.183066
-0.0957721
0.0812284
-0.148823
0.000356741
-0.00186447
-0.0117096
0.0637994
-0.0406686
0.0602551
-0.000552175
0.00354254
-0.00299037
-0.0468457
-0.011422
0.00524719
0.000281651
-0.00552884
0.0954337
-0.0368675
0.220998
-0.125428
-0.0955708
0.0607627
-0.0579654
-0.00279736
-0.1228
0.230722
-0.107922
-0.0465033
-0.00267359
-0.00479417
0.000204419
-0.172038
-0.0754575
0.247496
0.0303082
0.015629
-0.0459373
0.110134
-0.125457
0.0153236
0.0576003
0.0145742
0.00538748
-0.00459028
-0.000797197
-0.200951
-0.112102
0.0485858
0.00272577
0.0131341
-0.0485686
-0.0492492
0.0636536
-0.0401598
-0.0164435
-0.0518766
0.00175728
0.027138
0.0165148
-0.0436528
0.0353687
-0.0384253
-0.067309
0.0849798
-0.0176707
-0.0351353
-0.0120788
0.0472141
-0.00420118
-0.0387098
0.042911
-0.238699
0.0769721
0.161727
-0.249479
0.12233
0.0268141
0.0124764
-0.0392905
0.0268902
-0.00297317
0.250813
-0.129674
-0.121139
-0.0629564
0.108005
-0.00644762
0.000495827
0.0601878
-0.0164176
-0.0437702
0.0595989
0.0521324
-0.111731
0.0134496
-0.000343073
0.109222
0.177539
0.0879156
-0.0347501
-0.0157503
0.00312345
0.0126269
-0.00204649
0.000717802
-0.00151829
0.000254759
0.0815479
0.212086
0.0692292
-0.0934135
0.20501
-0.111597
-0.124279
0.0416655
0.139372
-0.0549582
0.0137439
-0.0542287
0.0404847
-0.00188779
-0.00501336
0.00690115
0.0692097
0.00148
-0.00464512
0.0516841
-0.047039
-0.0608858
0.0870493
-0.0261635
0.0242528
0.000684184
-0.024937
-0.215959
0.118956
0.125532
-0.194736
0.0692036
0.0706505
0.00550187
-0.0761524
0.118995
0.00163169
-0.000688291
-0.0045
0.00548209
-0.000982095
-0.0400548
0.0617481
-0.0216933
-0.0508782
0.0184158
0.0324624
0.170063
-0.0539627
-0.116101
-0.0565583
0.0109845
0.34514
-0.130903
-0.0668547
0.140846
-0.109377
0.0255828
-0.0790282
0.0183671
0.0831669
-0.0755474
0.0257706
0.0457211
-0.00756138
0.308864
-0.220181
-0.0886828
0.000276515
0.0402979
-0.0405744
0.0981691
-0.0382179
-0.119455
-0.10252
-0.00124317
-0.00301903
0.0409729
-0.101305
0.0603321
-0.0753429
0.0344851
0.0119375
-0.0121546
0.000217122
0.0548458
-0.0465816
-0.137083
-0.112072
0.249155
0.00776442
-0.0195451
0.02805
0.0563679
0.120452