/*--------------------------------*- C++ -*----------------------------------*\
| =========                 |                                                 |
| \\      /  F ield         | OpenFOAM: The Open Source CFD Toolbox           |
|  \\    /   O peration     | Version:  v2012                                 |
|   \\  /    A nd           | Website:  www.openfoam.com                      |
|    \\/     M anipulation  |                                                 |
\*---------------------------------------------------------------------------*/
FoamFile
{
    version     2.0;
    format      ascii;
    class       surfaceScalarField;
    location    "400";
    object      phi_0;
}
// * * * * * * * * * * * * * * * * * * * * * * * * * * * * * * * * * * * * * //

dimensions      [0 3 -1 0 0 0 0];
oriented        oriented;


internalField   nonuniform List<scalar> 
79099
(
0.0424813
0.0567096
-0.0991909
-0.0497163
0.0454131
0.00430323
-0.0964049
0.0907323
0.00567263
-0.0397812
0.0450764
-0.00529525
-0.000135035
-0.000799542
0.000934577
0.00216996
-0.00343384
0.00126388
-0.0434147
0.0723043
-0.0288896
-0.0539007
0.0963821
-0.0449066
0.0665209
-0.0216143
0.0588946
0.0543778
-0.113272
-0.0587484
0.0636849
-0.00493647
0.0336971
-0.0555542
0.0218571
0.0172914
-0.0108838
-0.00640759
0.0346545
-0.0331376
-0.00151695
0.0723014
0.0500696
-0.122371
-0.10138
0.187888
-0.0865076
-0.0837942
0.137573
-0.0537789
-0.189638
0.0882576
-0.0144204
0.0151801
-0.000759669
0.0673537
-0.122346
0.0549919
0.145865
-0.0684939
-0.0773716
0.0698502
-0.0452783
-0.0245719
0.110439
0.125318
-0.235757
-0.0693069
0.0258922
0.0690233
-0.130909
0.0618862
-0.0477265
0.0412193
0.00650724
0.00259528
0.0320592
0.0984904
-0.0619257
-0.0365647
-0.0465876
0.00414985
0.0424378
-0.0371755
0.0552836
-0.0181081
-0.0445863
0.040075
0.00451126
0.00895813
-0.0354402
0.0264821
-0.000612607
0.00110552
-0.000492913
0.0566112
0.080158
-0.136769
0.351717
-0.191527
-0.16019
-0.0717793
0.0209903
0.050789
-0.0173004
0.0905399
-0.0732395
0.104377
0.191409
-0.295785
-0.0723483
0.0239435
0.0484049
0.0444862
0.0641441
-0.10863
-0.100399
0.083099
-0.0259324
0.0296279
-0.00369541
0.0660333
-0.0593196
-0.00671372
-0.00768838
0.00442286
0.00326552
0.127654
-0.0603004
-0.0864192
0.184692
-0.0982726
-0.0693067
0.182749
-0.113442
-0.164147
0.0947572
0.0693901
-0.00264012
-0.0475212
0.0501613
-0.291571
0.182713
0.108858
0.227871
-0.327368
0.099497
0.0144043
0.0516229
-0.0660272
-0.0452779
-0.0508643
0.0961422
-0.250873
0.165444
0.085429
-0.0876666
0.0561349
0.0315317
0.000938906
-0.0153593
0.0606601
-0.126072
0.0654123
-0.174239
0.313369
-0.139129
-0.0405425
0.0493168
-0.00877431
0.0406725
-0.085957
0.0452846
0.151475
-0.100177
-0.0512983
0.0201653
-0.0899537
0.0697884
-0.0191741
0.025391
-0.00621693
-0.00019701
-0.00561754
0.00581455
0.0297143
0.0174864
-0.0472007
0.198678
-0.118366
-0.0803119
-0.0566928
0.0195174
-0.209241
0.139934
0.18611
-0.315088
0.128977
-0.11676
-0.0529619
0.169721
-0.00307509
0.013877
-0.0108019
0.246138
0.0289728
-0.27511
-0.134568
0.104229
0.0303388
-0.000485158
-0.000127448
-0.0438311
-0.00389538
0.320234
-0.214172
-0.106062
-0.0658709
-0.226716
0.292586
0.0033827
-0.00121274
0.0784709
-0.208794
0.130323
-0.00869475
0.00561965
-0.00366288
0.000229041
-0.0210827
0.0110154
0.0100672
0.0528232
-0.050306
-0.00251721
-0.0558604
0.0258357
0.0300247
0.0899726
-0.0486105
-0.0413621
-0.197249
0.0804894
-0.0273093
-0.0105984
0.0379077
-0.068802
0.0238954
0.0691698
0.129508
-0.0392829
0.086769
-0.0474861
0.00307911
-0.00608477
0.00300566
0.00153951
-0.00242521
0.0008857
-0.010437
-0.0106457
0.0604552
-0.00513243
-0.0553228
-0.000956521
0.0273271
-0.0263706
0.00886379
0.0435672
-0.052431
0.0171969
-0.00132292
-0.0158739
-0.0148807
-0.0815242
0.0336842
-0.0377641
0.00407984
-0.0261948
0.00702069
-0.0616854
0.116993
-0.0725071
0.00599173
-0.0541788
0.0481871
0.0520299
0.0464605
0.0973274
-0.0533945
-0.0439329
0.00406566
-0.00248939
-0.00157627
0.000335728
-0.00195853
0.0016228
-0.0142504
-0.0575289
-0.0288559
-0.022346
0.0512019
0.299009
-0.0528715
0.0351358
0.0158429
-0.0509787
0.0181091
-0.0385731
0.020464
0.208345
-0.274216
0.0274256
-0.0283822
-0.0229226
0.0016777
0.0212449
0.291518
0.00147409
-0.292992
0.0416772
-0.117463
0.0757863
0.0973858
0.126001
-0.223386
-0.0432363
-0.00238422
0.00165983
-0.00497421
0.00331438
0.000798188
-0.000933223
-0.0385566
-0.0960112
0.0282372
-0.0945456
0.0663084
0.0423662
-0.0195313
-0.022835
-0.00317255
-0.000490332
-0.178313
0.110575
0.0677376
-0.00457469
0.00667258
-0.00209789
0.0476676
0.00111145
-0.048779
0.0286999
-0.0921744
0.0634746
-0.0495742
-0.0753433
0.124918
-0.0290401
0.0379982
-0.0680225
0.166152
-0.0981294
-0.0300034
-0.0258571
-0.0730872
-0.0362339
0.109321
0.0765461
-0.213632
0.137086
-0.0447934
0.00425089
-0.156377
0.268941
-0.112564
0.0094003
0.00789111
0.0814381
0.0774041
-0.158842
0.108226
-0.191881
0.0836555
0.224385
-0.138904
-0.0854805
0.0945051
-0.186944
0.0924388
-0.0230566
0.064247
-0.0411904
0.0191312
0.0180287
-0.0371599
0.090114
-0.0614141
0.0266905
-0.0982267
0.0715362
-0.0612831
0.10296
-0.0637559
0.21649
-0.152735
0.0597934
-0.194481
0.134688
0.0604522
-0.134074
0.0736219
-0.294556
0.224699
0.0698569
0.0150481
0.0103429
-0.000351884
-0.000447657
0.0345484
0.0353018
-0.280262
0.0943806
0.185881
-0.0960225
0.0507446
0.0323411
-0.0215937
-0.0107474
-0.00779011
0.00120286
0.00658725
0.0558906
-0.134517
0.0786262
0.0499503
-0.0566033
0.00665293
0.0682307
-0.0661558
-0.00207488
-0.151814
-0.139757
0.262965
-0.152516
-0.110449
-0.000925315
0.00246482
0.0526837
-0.121677
0.0689937
0.170394
0.128114
0.0866078
0.0968068
-0.183415
-0.0838809
0.0928967
-0.00901583
-0.0559201
-0.17003
0.22595
-0.037665
0.116267
-0.0786015
0.105338
-0.0572116
-0.0481266
-0.0179155
0.0177885
0.00012695
-0.026855
0.024336
0.00251908
0.128717
-0.220027
0.0913098
0.0115972
0.030769
-0.0977224
0.191806
-0.0940839
0.0229951
0.0669775
-0.0544205
0.0632842
0.0220169
-0.0493262
0.0439552
-0.0761367
0.0321816
0.103871
-0.0756343
0.132586
-0.0799022
-0.00357351
-0.00411487
-0.0700712
-0.0427728
0.112844
-0.0305399
0.064237
0.00700902
-0.00720603
0.0203233
-0.0239455
0.00362219
-0.008414
-0.018441
-0.00306613
0.00159247
0.00147366
-0.235285
0.17153
0.0330513
-0.0149422
0.0855373
0.0351909
-0.120728
0.015329
0.0267643
-0.0420933
0.003118
-0.00145817
-0.17934
0.0571317
0.122208
0.0245463
0.106363
-0.130909
0.0632329
0.0413278
-0.104561
-0.224024
0.146321
0.0777031
0.29971
-0.155364
-0.144345
-0.0823869
0.0727603
0.00962655
0.0328244
-0.0729013
0.0400769
0.170822
-0.0628945
-0.107928
0.0307853
-0.0931746
0.0623892
-0.085271
-0.07526
0.160531
0.0416366
-0.0536531
0.0120165
-0.00227161
0.00229722
-2.5601e-05
0.0635103
-0.126148
0.0626381
0.286761
-0.180418
-0.106343
-0.0521181
0.0717134
-0.0195953
-0.0970031
0.214775
-0.117772
0.00145439
-0.00111866
-0.0548981
0.12024
-0.065342
0.050153
-0.0481006
-0.00205244
-0.0722099
-0.0169367
0.0891466
0.0343374
-0.0631933
0.105415
0.0726453
-0.17806
0.176259
-0.285813
0.109553
-0.137161
0.2476
-0.0684841
0.050154
0.0183302
-0.0523214
-0.0815758
0.133897
0.045862
-0.0521851
0.00632318
0.301064
-0.123617
-0.177447
0.000858973
0.051311
-0.05217
0.121032
0.180032
0.0661046
-0.133683
0.0675782
-0.0592574
0.0620258
-0.00276839
0.127233
-0.0683865
-0.0588465
0.0181048
-0.064872
0.0467672
0.0902402
-0.0624407
-0.0277994
0.0499065
0.174478
0.00504664
-0.0054589
0.000412259
-0.0293781
0.0313357
-0.00195761
-0.249703
0.120597
0.129106
0.0173284
0.00745372
-0.0247822
0.0766747
-0.0506402
-0.0260345
0.00268802
0.00137764
-0.0459407
-0.084917
0.130858
0.198216
-0.12167
0.00157489
0.00362282
-0.0051977
-0.0947994
-0.0932508
0.18805
-0.167282
0.0992597
0.129708
-0.0730969
0.0602761
-0.0295656
-0.0307105
0.122792
-0.0623395
0.0585664
-0.117508
0.0589413
0.315868
-0.194471
-0.121397
0.0442828
0.013962
-0.0582448
0.0469961
-0.00113414
-0.229502
0.151211
0.0782914
0.0877451
-0.0470726
0.149954
-0.108178
-0.0417762
0.119581
-0.0569752
-0.062606
-0.110329
-0.0493204
0.15965
-0.0609732
-0.0214137
0.0571601
-0.13724
0.08008
0.0204559
-0.0252043
0.00474843
0.04337
-0.0242388
0.0671546
-0.147754
0.0805998
-0.0611767
-0.00730741
0.0642694
-0.136666
0.0723967
-0.0236798
-0.0205131
0.044193
-0.0408772
-0.00391622
-0.10187
0.0179891
0.332903
-0.164934
-0.167969
-0.0675591
-0.0857938
0.153353
-0.037843
0.0382323
-0.000389245
-0.0199382
0.00888165
0.0110565
-0.193138
0.219675
-0.0265369
0.022329
-0.00200573
-0.0516429
0.0525019
-0.136057
-0.0879784
-0.11963
0.0465429
0.0774857
0.0465044
-0.12399
0.0269905
0.0332856
-0.00174972
0.00211186
-0.000362149
-0.289226
0.188935
0.100292
0.0520809
-0.0104443
0.00607891
-4.24167e-05
-0.00603649
-0.0929886
0.0373089
0.0556798
-0.0931997
-0.0564695
0.149669
0.23315
-0.107833
-0.151153
0.25553
-0.0632218
-0.0297669
-0.0174521
0.0601021
-0.04265
0.108744
-0.0323451
-0.0763984
-0.0328832
-0.0394652
-0.00767032
-0.0639146
0.0715849
0.00550995
-7.14183e-05
-0.00543853
0.0420977
-0.0595498
0.0475934
-0.117665
0.051672
-0.0417318
-0.00994024
-0.0117604
0.011539
0.000221351
-0.0756611
0.00912762
0.0665335
-0.030518
0.00888541
0.0216326
0.0180629
-0.0485994
0.0305365
0.125451
0.194784
-0.0337291
-0.0456355
0.0793647
-0.0369191
0.0548931
-0.017974
-0.00348961
-0.0549586
0.163676
-0.108718
-0.0109145
-0.0647466
-0.00151403
-0.0015521
1.9274e-05
-0.000996466
0.000977192
-0.00191078
-0.000360834
-0.105757
-0.155204
0.26096
-0.0529615
0.00324518
0.0765755
-0.106989
0.0304137
0.144186
-0.0770315
0.238714
0.0528039
0.0523198
-0.0645202
0.0122004
0.00483986
0.00020678
-0.0491782
0.0475823
0.00159592
-0.0340837
0.041039
-0.00695533
0.00130285
-0.00178365
0.0004808
-0.0751078
0.0455376
0.0295701
-0.0747131
0.022595
0.147801
0.150707
-0.257955
0.195867
0.0620888
-0.176223
-0.113003
-0.0431385
-0.0397817
0.0829202
0.0152092
-0.0521283
0.00296405
-0.0288965
-0.0885037
0.0175833
0.0709204
0.00203395
-0.000731094
0.0162145
0.0354575
-0.127768
0.0892111
0.0184685
0.0138726
0.0288959
-0.0852378
0.0563419
-0.213693
-0.0665689
-0.104117
0.072029
0.0320878
-0.00233438
0.00372438
-0.00138999
-0.0881089
-0.0912308
-0.0876235
-0.166286
0.253909
0.152165
-0.0845075
-0.0676577
0.266873
-0.143659
-0.123213
-0.108179
0.225445
-0.117265
0.0409112
-0.0255822
-0.344234
0.24068
0.103554
0.00120096
0.0159959
0.113191
-0.0893554
-0.0238357
0.227976
-0.3156
0.249219
-0.15052
-0.0986993
0.0525401
0.0156905
-0.154644
0.136236
0.0184078
0.122836
-0.0505349
-0.0372642
-0.000578866
0.0498681
0.0224362
-0.000807891
-0.00257411
0.003382
0.00211938
-0.0429966
0.000961611
-0.000504244
-0.000457367
0.0546297
-0.0501192
-0.00451054
-0.000594873
0.00149474
-0.00089987
0.0898187
-0.135759
-0.12238
0.226708
-0.104328
-0.00321247
0.00404994
-0.000837464
0.0175883
-0.0181564
0.000568162
0.169171
-0.105206
-0.0639657
-0.0946021
0.184096
-0.0894937
-0.0428959
0.0192161
-0.00798088
-0.0119573
-0.0940454
0.159188
-0.0651421
0.044852
-0.0525223
0.0739917
0.0664781
-0.14047
0.00291518
-0.00302294
0.000107757
0.0819859
-0.0479958
-0.0339901
-0.0018004
-0.00884808
0.0106485
-0.32839
0.178301
0.150088
-0.0634285
0.0970931
-0.0336646
-0.1104
0.041574
0.0688261
-0.0526806
0.109711
-0.0570304
0.0191551
0.00317394
-0.135304
0.0891415
0.0461621
-0.0194568
0.0466079
-0.0271511
0.0486184
-0.00162226
0.0358175
0.0461684
0.121839
-0.0583282
-0.00404275
0.0599592
-0.0559165
0.0257838
0.0152164
-0.0410002
0.00414855
-0.00335199
0.0010176
-0.297148
0.296285
0.000863174
-0.0767842
0.127653
-0.0508684
-0.0637974
0.101511
-0.0377136
0.120203
-0.0559337
-0.0247523
0.0167714
0.139028
-0.247277
0.108248
0.0828328
0.0630327
-0.0108873
-0.00087308
0.0566234
0.112548
0.0249748
-0.0249606
-1.42521e-05
0.00678822
-0.000709314
0.116385
-0.27444
0.158055
0.0252464
-0.102031
0.0439414
0.0569494
-0.100891
0.14624
-0.0809883
-0.0652514
-0.0668528
0.100282
-0.0334291
0.190108
-0.081882
0.0404437
0.036231
-0.0387282
-0.0191468
0.057875
0.0013338
-0.00131453
-0.0125461
-0.0759576
-0.062326
0.0912219
-0.0614881
0.130511
0.00212027
-0.00292816
-0.154754
0.098834
-0.132829
-0.118044
0.0633393
-0.0473438
-0.0159955
0.128577
-0.0624721
-0.0261058
-0.128538
0.0991805
-0.0683951
-0.14189
-0.186499
0.0635839
-0.0392805
-0.0243034
-0.036071
0.276258
-0.240187
-0.0788476
0.145149
-0.0663013
-0.048889
-0.067961
0.11685
-0.00189509
0.188122
-0.308493
0.12037
0.00246605
0.000449131
-0.157647
0.0745867
0.0830601
-0.0563242
-0.10205
0.158375
0.125916
0.109726
-0.235642
0.144391
-0.0921
-0.052291
-0.0241658
0.068121
0.0250692
0.0844139
-0.109483
0.00297685
-0.0450476
0.0420707
-0.160415
-0.134141
0.116392
-0.0965113
-0.0198804
0.044495
-0.094812
0.050317
0.0451809
0.00944883
-0.320891
0.144668
-0.0187946
-0.0257917
0.000569751
-0.00193185
0.0013621
-0.03965
-0.00222662
0.0418766
0.0944654
0.0475383
0.00382051
-0.0513588
0.0802407
-0.075965
-0.00427575
-0.00610219
0.000317841
0.00578434
0.0271921
-0.064243
0.0370509
0.0207747
-0.00161963
0.0753968
-0.0482047
0.039949
-0.233087
-0.041811
0.054769
-0.012958
-0.0200811
0.0497954
-0.0408578
-0.041679
0.0825368
-0.0973761
0.080247
-0.0544773
-0.0257697
-0.00351049
0.00231919
0.0011913
-0.0430906
0.00344065
0.0948422
-0.0681517
0.0100799
0.0178235
-0.0279035
-0.00761201
0.00756959
0.0929495
-0.00296328
-0.0899863
-0.00194598
0.00135111
0.0498495
-0.072906
-0.0548797
-0.102767
0.0573777
-0.0596125
0.00223472
0.120801
-0.0843894
-0.0364118
0.114759
-0.190848
0.0760891
0.327272
-0.159764
-0.167508
-0.172489
0.299922
-0.127433
0.0502889
-0.0510093
0.000720323
-0.00370428
0.00201288
0.00169139
-0.142589
0.0953004
0.0210913
0.042802
0.00581636
-0.100838
0.0556552
0.0451827
0.0713232
0.099499
-0.00577745
-0.000324735
0.171799
0.0339094
-0.205708
0.072079
-0.132077
0.0599984
-0.0583005
0.014454
0.0438465
-0.0584896
-0.0519105
0.0913836
-0.0393536
0.0114189
-0.0132193
-0.0548738
0.0473022
0.00757169
0.0608062
-0.0615513
0.000745048
0.0623075
0.0839321
0.0739027
-0.0397605
-0.0140266
0.0537871
0.0128867
-0.0139923
0.00110557
0.0435267
0.00540028
-0.048927
0.0448775
-0.051835
0.00695755
-0.0605162
-0.0470702
0.107586
-0.0814693
-0.0538343
-0.0621382
0.013173
0.0489653
0.2411
-0.115184
0.128747
-0.103917
-0.0248298
0.103897
-0.0599551
-0.0718281
0.0366742
0.0351538
0.0464198
-0.0875737
0.0411539
0.0260673
0.0615139
-0.0875812
0.11259
0.0384175
-0.151007
0.000696412
-0.00100626
0.000309847
0.292479
-0.165051
-0.127427
-0.169641
0.0750388
0.0430416
0.0109957
-0.0540373
0.310431
-0.191358
-0.119073
-0.00118018
0.000773287
0.000406888
0.0514942
0.038746
-0.27463
0.00797672
0.266653
0.0365213
-0.0796598
-0.0793949
-0.0847523
0.0250039
-0.00767547
-0.0629341
0.0649634
-0.00202926
0.293634
-0.194373
-0.0992614
-0.0486165
0.0152171
0.0333994
0.0568187
-0.0137771
0.0296146
-0.0767871
0.0471725
-0.0719848
-0.0288532
-0.0618013
0.0577586
0.00310733
-0.00234407
-0.000763258
0.0660133
-0.0214426
-0.0445708
0.225535
0.0341074
-0.259643
-0.272309
0.0849335
0.187375
-0.0442874
-0.0186467
-0.011364
0.0128016
-0.00143762
-0.0455278
0.0984862
-0.0529584
-0.0672644
0.114858
0.148419
-0.0792255
-0.0691937
0.00155098
-0.00538912
0.00383813
0.13138
-0.0877951
-0.0435849
-0.00426235
0.00363546
0.000626891
-0.152081
-0.105875
0.033905
0.0369166
-0.0708216
0.0195919
-0.0833893
0.000116928
-0.00396683
0.0038499
0.0410494
-0.0752188
0.0341694
-0.0679354
0.0881007
-0.0464711
0.0377439
0.00872719
0.0390053
-0.313635
-0.0168329
-0.0398599
0.170314
-0.11052
-0.147545
0.294172
-0.146627
0.00227986
-0.0104718
0.00819198
-0.1706
0.0602702
0.106185
-0.081639
0.0862422
-0.0638189
-0.0224233
-0.116537
0.0728776
0.043659
0.101278
-0.180291
0.0790137
0.0993814
-0.192232
0.092851
0.0413223
-0.054839
0.0135167
6.24074e-05
-0.000979787
0.00091738
0.0787275
-0.061094
-0.0176334
-0.0329061
0.0945516
-0.0616455
-0.00462053
-0.0258974
0.0980787
-0.0535837
0.0557332
0.00923021
-0.183768
0.088969
0.187177
-0.0877953
0.0721746
-0.0684036
-0.00377102
-0.00216863
-0.000670431
0.00283906
-0.0458451
0.0444518
0.00139329
-0.0861309
-0.0296904
0.115821
0.0224696
-0.021634
-0.00083562
-0.120056
0.0695156
0.0505409
0.258673
-0.0725628
-9.01845e-06
-0.00778109
-0.0986668
0.031814
-0.151063
0.0702746
0.0807888
0.0589578
-0.12902
0.0700623
0.0408651
-0.0892408
0.0483757
0.0135416
-0.000654911
0.0392683
-0.0784862
0.0392179
0.0674688
-0.00701355
0.123661
-0.0345194
-0.0981929
0.0652868
-0.0580448
-0.00409341
-0.129085
0.0911019
0.0379836
-0.106487
0.0688224
0.0849362
-0.0456679
0.0825684
0.0047197
-0.0872881
-0.0383978
-0.00636639
0.0447642
-0.0500616
0.0513583
-0.00129676
-0.040081
0.0581858
0.0347294
0.0940171
0.18282
-0.104349
0.0579743
-0.103502
0.0244409
-0.0555894
0.0137784
0.0180114
-0.0974547
0.0794433
-0.0057173
0.102214
-0.245433
0.143219
0.0931615
0.0304994
0.0195866
0.0405155
0.0625047
-0.0355142
0.0477366
-0.00420989
0.157498
-0.296692
0.139194
0.128823
-0.072932
0.0462686
-0.0432917
0.109844
0.0423215
-0.114534
-0.103282
0.217816
0.224431
-0.119838
-0.104593
-0.035907
-0.00653859
0.0424456
0.0671744
0.0546641
-0.00276027
-0.000750217
-0.121008
0.0714333
-0.00179059
0.00210662
-0.000316032
-0.0109123
-0.0439616
-0.169552
0.113227
-0.0147486
-0.0100037
0.00107803
-0.00101562
0.0770855
-0.0360362
0.235119
-0.138941
-0.0961776
0.0295942
-0.0691705
0.0395763
0.0513294
-0.00645194
0.000175059
0.0599512
0.0373762
-0.0704846
-0.00937993
0.0798646
-0.0277976
-0.00433676
0.0321343
0.0461115
0.0670796
-0.0456073
-0.0708895
0.116497
-0.132192
0.0460613
0.000298254
-0.00147843
0.193317
-0.0860378
-0.107279
0.00140937
-0.000712962
0.136843
-0.216609
0.0797653
-0.155079
0.246753
-0.091674
0.166534
0.0964307
-0.0417644
-0.0417352
0.0834995
-0.220891
0.10704
0.113852
0.018839
-0.00125078
-0.0395915
-0.012374
0.0519655
0.0133109
0.212224
0.00566956
-0.00411857
0.0651698
-0.149021
0.0838514
0.194344
0.0326336
-0.226978
-0.092721
-0.137778
0.230499
-0.0398952
-0.0878724
0.0610043
-0.0597596
-0.00124469
-0.0688195
0.0868309
-0.104428
0.0439986
0.0604291
-0.0556917
0.0114043
-0.00202925
0.00351739
-0.00148815
-0.000261265
0.00284565
-0.00258438
-0.181002
-0.111208
0.29221
-0.0560143
-0.0484134
-0.109313
0.203855
-0.0945421
0.146721
-0.0762704
-0.0704509
0.0294288
0.0503776
-0.0798065
0.00385922
-0.00292756
-0.000931665
0.000345543
-0.00477639
0.00443084
-0.00673293
-0.0315063
0.0382392
-0.0439983
0.0056005
-0.0808422
0.18212
-0.269991
0.100649
-0.0358222
0.113308
0.0917664
-0.178186
-0.0303546
-0.0447531
-0.15385
0.00748156
0.146369
0.253977
-0.115851
-0.138126
0.107544
0.0408753
-0.201615
0.0972942
0.104321
0.0298105
-0.0970466
0.0672361
0.0538817
-0.118065
0.0641834
-0.241618
0.18053
0.0610878
-0.0251899
0.0125336
0.0126564
-0.0542806
-0.0632769
0.117557
-0.326114
0.198169
0.127945
-0.116304
-0.0853103
-0.0912075
-0.0871052
0.0396472
-0.0524392
0.0127921
-0.0289034
-8.47868e-05
0.0289882
0.0741745
-0.0402695
-0.0743922
0.0379247
0.0364676
-0.0289734
0.0327409
-0.00376751
0.000275217
0.00192441
-0.00219963
0.000313428
-0.0035259
0.0131066
0.000791751
-0.0138983
0.0564253
-0.125373
0.0689473
-0.130044
-0.131495
0.261539
0.000682115
0.00502992
-0.0212455
0.0162156
0.215801
-0.128762
-0.0870387
-0.035773
-0.100926
-0.123099
0.144849
-0.0593113
0.126899
-0.276523
0.149624
0.00825504
0.00562195
-0.0306768
-0.0179397
0.12126
0.0267091
-0.147969
0.0579584
-0.00222528
0.0683271
0.0920815
-0.160409
0.0844778
0.0363233
-0.01178
-0.0134099
0.0652958
-0.115411
0.050115
0.144078
-0.0789084
-0.00158811
0.000943947
0.000644164
0.100441
-0.222677
0.122236
-0.0420017
0.10073
-0.0587287
0.0446492
-0.0989103
0.0542612
0.0498844
-0.110401
-0.058038
0.0193097
0.00927704
-0.0297865
0.0205094
-0.186399
0.0886766
-0.0749973
-0.166621
-0.0709148
-0.0768396
-0.027674
0.0365792
-0.00890516
-0.0378409
0.0628952
-0.0250543
-0.0486692
-0.0639741
0.112643
0.308096
-0.129846
-0.17825
-0.0354348
-0.0130871
0.0485219
-0.1365
-0.133491
-0.0829077
0.0260048
0.0569029
0.0266243
-0.180475
-0.213951
0.0572486
0.156703
-0.142805
0.0718905
0.214237
0.137481
0.146061
-0.0731802
-0.0728808
0.112739
0.190964
-0.111989
-0.0789751
-0.0633566
0.128671
-0.0653145
0.0465106
-0.051466
0.00495544
0.144108
0.0446596
-0.188768
-0.00722661
0.0541197
-0.046893
-0.059475
-0.0605558
0.120031
-0.0048644
0.0052178
-0.000353396
-0.180012
0.089944
0.0900677
0.0382046
-0.0499846
0.01178
-0.275396
0.169639
-0.0280416
-0.000861852
0.304506
-0.134113
0.0811055
0.0566504
-0.137756
0.0163076
-0.0351022
0.0347972
0.0431632
-0.0779604
-0.00545847
0.00773833
-0.0145605
0.0558828
0.037295
-0.0614609
-0.00188189
0.0355661
0.0595332
-0.056818
-0.00271518
-0.202363
0.134145
0.0682171
-0.00207455
0.00028396
-0.114068
0.0784253
0.0356426
0.0620953
-0.0129626
0.0121812
0.000781412
0.126719
-0.00545948
0.0546494
-0.00813879
0.00914795
0.0488105
-0.118249
0.076247
0.0489781
0.00384508
0.0341319
0.0161571
-0.158999
0.0914397
-0.0075899
0.0333737
-0.0770824
0.234183
-0.1571
-0.0316697
-0.0643528
-0.118469
-0.111033
-0.0496525
0.114948
-0.00305677
0.0442963
-0.0412396
-0.0695847
-0.144366
-0.0730809
-0.0635851
-0.11704
0.276231
-0.15919
0.000826977
0.0491234
0.0451017
0.0351452
-0.0615029
-0.053908
0.0460285
0.0593097
-0.120523
0.0474418
0.184563
0.107916
9.16752e-05
-0.0294698
-0.0559705
0.013223
0.0427474
-0.0151405
-0.0283408
0.0434813
0.0422779
0.0213059
-0.000938566
-0.000649545
-0.0476804
0.0470101
0.000670249
-0.0804067
0.139068
-0.0586612
-0.00477445
-8.99502e-05
-0.0826139
-0.0374425
-0.335293
0.186475
0.148818
0.000686674
0.0481025
-0.00989794
-0.0835838
-0.200653
0.284237
-0.0190818
-0.0260431
0.0451249
0.0235239
-0.0251215
0.0015976
0.0224629
0.0309124
-0.0533753
0.0635036
-0.150967
0.0874638
-0.00263516
0.00421004
-0.0122757
-0.0464727
0.028417
-0.00489308
0.0531656
-0.0955908
0.0424252
-0.114842
-0.0406369
0.155479
-0.011314
0.00392043
0.00739359
0.0403452
-0.0194896
-0.0208556
-0.0382035
0.0432333
-0.00502975
-0.0356661
0.0920819
-0.0564157
0.17125
0.144618
-0.0650015
-0.0451231
0.0284356
0.0166875
0.0601963
-0.132602
0.0724053
-0.0279341
-0.0171889
-0.048314
0.0456738
-0.076914
-0.0554224
0.093951
-0.0385286
-0.00666301
0.00742586
-0.000762851
0.0263607
-0.0278247
0.00146394
0.0844181
-0.0147006
-0.0697175
0.00351319
-0.00339626
0.0318771
0.0569795
-0.0206996
-0.0362799
-0.00299367
0.000825048
0.116486
-0.165289
0.0488023
0.0303886
-0.0253587
0.0537886
0.054955
-0.144406
0.0678682
0.076538
-0.0154736
0.011043
0.00443061
-0.103921
0.0139595
0.0899612
0.0475203
0.00141418
-0.0489344
-0.0582679
0.0451518
0.0131161
-0.0475159
-0.0730068
-0.113756
-0.0784767
-0.0579356
0.0403174
0.0176182
0.0226488
0.0176965
0.141214
-0.0464573
-0.168783
-0.00149315
0.170276
-0.00169445
0.000383421
0.00131103
0.284335
-0.290065
0.0057298
-0.0114614
-0.0262067
0.0376681
-0.0392892
0.085709
-0.0442103
0.00600673
-0.10208
-0.100283
-0.0855176
-0.006014
-0.00268075
-0.0621977
0.0652959
-0.00309824
-0.000620602
-0.0464817
0.0471023
-0.00126275
0.00153797
-0.0652754
-0.0176323
0.0043763
-0.00403076
0.0437369
-0.0762154
0.0324785
-0.0381305
-0.0683569
-0.00122761
-0.000466834
0.0785492
0.0681721
0.139362
0.0565048
0.0308643
0.0316404
-0.0381463
0.0509947
-0.0128484
-0.0595998
-0.0647826
-0.138485
0.00953713
0.128947
0.228255
-0.127813
-0.291954
0.107224
0.18473
-0.233234
0.156152
0.0468241
0.0139821
-0.00192941
0.00118952
0.000739894
-0.00120397
0.0270781
-0.0258741
0.28956
-0.174159
-0.115401
-0.0750315
0.000857593
0.0741739
-0.0570978
0.107514
-0.0504164
-0.000894043
0.0405011
-0.0396071
-0.185893
-0.106061
0.0028487
0.000646415
-0.00349511
-0.00596096
0.000183515
0.00410695
-0.00471369
0.000606741
0.0218202
0.0351593
-0.0594416
0.0889247
-0.0294831
-0.10396
-0.0737829
0.177743
-0.000595607
0.164749
-0.0964219
-0.142419
0.0579117
-0.0637163
-0.0787029
0.172732
-0.0633523
-0.10938
0.053106
-0.0730371
0.0199311
-0.0231243
0.0863572
-0.090743
-0.00222865
0.0929716
-0.113889
0.0863256
0.0275636
-0.246224
0.109063
0.128751
-0.0517089
-0.0770417
0.0189282
-0.187711
-0.0894631
0.218181
0.0483928
-0.0304683
-0.0179245
0.0681536
-0.0158337
0.170305
-0.0389084
0.132017
-0.0931081
-0.00548874
-0.000472227
-0.00481581
-0.0064982
0.0567151
-0.0883849
0.023511
-0.04349
0.019979
-0.0795677
0.0402848
0.0480079
-0.0622982
0.0142903
0.0502201
0.00715765
0.208363
-0.119791
-0.0885719
-0.0891615
0.149275
-0.248152
0.0988768
-0.0912102
0.183292
0.0806928
0.0707825
0.0107865
-0.0385841
-0.127149
0.25359
-0.126441
-0.100516
-0.123237
0.223754
-0.137496
0.260828
-0.123332
0.163806
-0.25277
0.0889639
0.00484758
-0.000740632
-0.0230002
0.0602953
-0.200115
0.091936
0.136576
-0.0623229
-0.0742531
0.0980037
-0.270493
-0.0380488
0.0752968
-0.037248
0.112113
-0.231441
0.119328
-0.0404729
-0.0059982
-0.00016476
-0.0464228
0.214225
-0.0800797
0.0239158
-0.0284647
0.00454889
-0.0419442
-0.00114638
-0.00859531
-0.0450054
0.0536007
0.070354
-0.0407394
-0.00132917
0.00212244
-0.000793264
-7.31322e-05
0.00103474
-0.186974
0.0957666
-0.109633
-0.0513359
0.160969
0.0171039
-0.107847
0.0253703
0.00304667
0.0684367
-0.0403304
-0.0281063
0.0924065
-0.114499
0.0220925
-0.00294168
0.0018704
0.00107129
-0.0124484
-0.0340997
0.0465481
0.154329
0.0739255
0.087294
-0.177985
0.0906912
0.0999536
0.0287969
0.00983117
-0.0457381
0.00761945
-0.0798817
0.0722622
-0.313054
0.191107
0.121946
-0.225922
0.0516832
-0.0896834
0.165263
-0.0755795
-0.0885841
0.180691
-0.0921071
-0.00496663
0.00470442
0.000262216
0.0156153
-0.0553965
-0.0853817
-0.0590246
-0.0401224
-0.000404762
-0.0175107
0.30739
-0.150579
-0.156811
-0.163763
0.0784919
-0.0227306
-0.0779336
0.100664
0.110266
-0.043046
-0.0672203
-0.00459029
-0.000868611
-0.0151113
0.0446643
-0.029553
0.00355484
-0.000706142
-0.0219817
-0.0421249
0.0641066
-0.0383626
0.0608255
-0.0193849
-0.0450968
0.000148512
0.0449483
0.00574105
-0.0065267
0.000785648
0.0603056
0.0308588
-0.0796336
0.0487748
0.0625964
-0.112249
0.0450482
0.0530305
0.00342975
-0.00268394
-0.000745811
0.0857416
-0.204219
0.118477
-0.00047563
0.038158
-0.0466711
0.00851306
-0.148706
0.00848696
0.0153158
0.0480235
0.194585
-0.108843
0.00406325
0.000584214
-0.00464746
-0.0975255
0.0618593
-0.0420202
-0.00959894
0.0516192
-0.0432901
0.00134587
0.0898144
-0.207091
0.117276
0.0161277
0.00464701
0.100524
0.0955183
-0.196042
-0.293265
0.176225
-0.00281936
0.0189471
-0.0477824
0.10575
-0.0579675
0.268669
-0.194019
-0.0746498
-0.00479314
0.000311649
0.00448149
0.00250399
-0.00193424
-0.153467
0.0995137
0.0539535
-0.0337143
0.050235
-0.0165207
0.0910456
-0.0659765
0.0722585
-0.0661918
-0.0060667
0.0916776
-0.130586
0.25916
-0.173338
-0.0858221
-0.000709947
0.00643028
-0.00572034
-0.00253466
0.00343953
-0.000904868
-0.0517483
0.013602
-0.175598
0.154433
0.021165
0.0938927
0.0560614
-0.00293366
0.0379662
-0.0350325
0.0706899
-0.00318667
-0.0675032
-0.281883
0.175842
0.106041
0.0407619
-0.223765
0.183003
0.0615572
0.017795
-0.0793522
0.102536
0.0792773
-0.181813
0.0661158
-0.0424651
-0.0236507
-0.0852756
0.0300384
0.0552373
0.000848043
-0.0152797
0.0657008
-0.0504211
-0.0972733
0.0629883
0.034285
0.000999297
0.00561834
-0.00661764
-0.13134
-0.00714418
-0.0675941
-0.0677829
0.135377
0.0666266
0.0436397
0.0154129
0.0398707
0.0726218
-0.011384
-0.0612378
-0.00595105
0.0061467
-0.000195648
-0.000126771
0.0236792
-0.0576451
0.0339659
0.0255772
-0.000206897
0.0491466
0.165078
-0.256953
0.0902313
0.166721
-0.0957154
0.040293
-0.108289
-0.040417
-0.105149
-0.117528
-0.0725125
-0.0284384
0.100951
-0.0432033
0.1058
-0.0441409
0.0250591
-0.133767
0.0714442
-0.097252
0.0563211
0.040931
-0.0479052
0.0472846
0.0868237
-0.0182113
-0.0686124
-0.00710711
0.00669464
0.000412473
-0.22907
0.133999
0.0950706
-0.0486164
0.276487
0.189011
-0.0864745
-0.313211
0.196317
0.116894
0.0913186
-0.0480354
-0.0432832
0.0730143
-0.15451
0.0814958
-0.0856054
0.0151208
-0.00312986
0.0478568
-0.0447269
0.0520898
0.0118505
-0.0639402
-0.0106171
-0.00485644
-0.221975
0.0792686
0.142707
0.0484082
-0.018045
-0.0303632
-0.045574
0.0562357
-0.0106617
0.148746
0.0984875
-0.247233
-0.152818
-0.0227801
0.00826422
-0.0546318
0.0463675
0.183066
-0.0957721
0.0812285
-0.148823
0.000356909
-0.00186355
-0.0117096
0.0637993
-0.0406687
0.0602553
-0.000552004
0.00354245
-0.00299045
-0.0468458
-0.0114221
0.00524724
0.000281708
-0.00552895
0.0954338
-0.0368675
0.220998
-0.125428
-0.0955708
0.0607629
-0.0579654
-0.00279748
-0.1228
0.230722
-0.107922
-0.0465042
-0.00267395
-0.00479447
0.000204182
-0.172038
-0.0754575
0.247496
0.0303083
0.0156291
-0.0459375
0.110134
-0.125457
0.0153237
0.0576003
0.0145743
0.00538678
-0.00458965
-0.000797122
-0.200951
-0.112102
0.0485862
0.00272477
0.0131338
-0.0485686
-0.0492493
0.0636536
-0.0401601
-0.0164431
-0.051877
0.00175777
0.0271385
0.0165147
-0.0436532
0.0353687
-0.0384255
-0.0673091
0.0849799
-0.0176708
-0.0351355
-0.0120788
0.0472143
-0.00420132
-0.0387098
0.0429111
-0.238699
0.076972
0.161727
-0.249479
0.12233
0.0268142
0.0124764
-0.0392906
0.0268893
-0.00297352
0.250813
-0.129674
-0.121139
-0.0629566
0.108005
-0.00644732
0.000496272
0.0601879
-0.0164177
-0.0437703
0.0595987
0.0521325
-0.111731
0.0134492
-0.000342655
0.109222
0.177539
0.0879157
-0.0347502
-0.0157508
0.00312357
0.0126272
-0.00204687
0.000717698
-0.00151769
0.000254937
0.0815479
0.212086
0.0692293
-0.0934136
0.20501
-0.111597
-0.124279
0.0416655
0.139372
-0.0549582
0.0137446
-0.0542295
0.0404849
-0.00188785
-0.0050134
0.00690125
0.0692098
0.00148003
-0.00464416
0.0516835
-0.0470394
-0.0608859
0.0870493
-0.0261634
0.0242549
0.00068365
-0.0249386
-0.215959
0.118956
0.125532
-0.194736
0.0692035
0.0706507
0.00550183
-0.0761525
0.118996
0.00163206
-0.000688117
-0.00449942
0.00548144
-0.000982021
-0.0400549
0.0617482
-0.0216933
-0.0508784
0.018416
0.0324624
0.170063
-0.0539627
-0.116101
-0.0565584
0.0109844
0.34514
-0.130903
-0.0668547
0.140846
-0.109377
0.0255827
-0.0790282
0.0183667
0.083167
-0.0755475
0.0257707
0.0457204
-0.00756236
0.308864
-0.220181
-0.0886828
0.000276373
0.040298
-0.0405744
0.0981692
-0.038218
-0.119455
-0.10252
-0.00124318
-0.00301917
0.040973
-0.101305
0.0603322
-0.0753432
0.0344854
0.0119376
-0.0121549
0.000217289
0.0548457
-0.0465814
-0.137083
-0.112072
0.249155
0.00776457
-0.0195446
0.0280501
0.056368
0.120452
0.0496113