/*--------------------------------*- C++ -*----------------------------------*\
| =========                 |                                                 |
| \\      /  F ield         | OpenFOAM: The Open Source CFD Toolbox           |
|  \\    /   O peration     | Version:  v2012                                 |
|   \\  /    A nd           | Website:  www.openfoam.com                      |
|    \\/     M anipulation  |                                                 |
\*---------------------------------------------------------------------------*/
FoamFile
{
    version     2.0;
    format      ascii;
    class       volVectorField;
    location    "400";
    object      U;
}
// * * * * * * * * * * * * * * * * * * * * * * * * * * * * * * * * * * * * * //

dimensions      [0 1 -1 0 0 0 0];


internalField   nonuniform List<vector> 
53008
(
(1.09697 -0.047847 -1.37901e-20)
(1.27848 -0.0163226 3.3742e-20)
(0.964033 -0.0688853 -8.83759e-21)
(1.1762 -0.344497 2.20066e-20)
(0.012211 -0.0285858 3.73702e-20)
(-0.130208 0.0170534 -5.09832e-21)
(1.11051 -0.197281 4.95973e-21)
(1.09615 -0.046621 1.48495e-20)
(1.01447 -0.175499 2.46794e-22)
(0.987215 -0.052647 -7.86834e-22)
(1.13131 0.0472856 3.43446e-21)
(1.08621 -0.25712 -1.29164e-20)
(0.438185 0.044427 -3.93233e-21)
(1.00308 0.081499 3.34593e-21)
(0.988 -0.0468108 0)
(1.03137 -0.0137033 3.32191e-21)
(1.08173 -0.0113859 -7.69991e-21)
(1.03161 -0.0140445 -5.52122e-21)
(0.45055 0.059691 0)
(1.07877 0.00641029 7.66731e-21)
(1.07502 -0.0174399 6.40154e-21)
(0.850424 -0.198189 -6.48136e-21)
(1.0017 -0.00950167 -1.57861e-21)
(1.10696 -0.195321 0)
(1.07021 -0.0196777 -5.50816e-21)
(1.19873 -0.425022 -1.58e-20)
(1.01635 0.0820873 0)
(1.13796 -0.0400441 -2.2466e-21)
(1.14928 0.0739194 -1.11985e-20)
(1.16586 0.0634188 -3.16158e-20)
(1.08859 0.0747684 -6.82376e-21)
(0.989357 0.0768497 0)
(-0.0273863 0.0155891 0)
(1.03737 -0.0545722 3.83202e-21)
(1.00295 -0.00168547 -5.53079e-22)
(0.950766 -0.157502 -5.23576e-21)
(1.01771 -0.0934765 1.69513e-22)
(1.00003 -0.000122522 -1.12976e-22)
(1.13114 -0.187905 -8.01071e-21)
(1.0428 -0.0594675 0)
(1.01827 -0.0917447 2.19514e-22)
(0.782119 0.0761585 -1.81803e-20)
(1.12843 0.0490414 -1.27045e-20)
(0.188551 0.0489733 0)
(1.07933 0.00698263 -3.98485e-21)
(1.03891 -0.0162988 -2.84786e-21)
(1.0388 -0.00738588 -5.32102e-21)
(1.06515 9.57248e-05 4.2875e-21)
(1.16487 0.04609 1.14475e-20)
(1.00631 -0.0106128 -2.33285e-22)
(1.01825 -4.80427e-05 0)
(0.885664 -0.062055 -2.26308e-20)
(1.08833 -0.0300787 -1.6349e-20)
(0.999966 -0.00948119 -2.1898e-21)
(1.10205 0.0365719 0)
(0.426688 0.0578158 3.22464e-21)
(1.07852 0.00506675 0)
(1.00425 -0.00793974 6.23029e-22)
(1.11718 0.0793478 -4.37669e-21)
(1.11446 0.021332 -1.68706e-20)
(1.05042 -0.0365332 -6.37797e-21)
(1.064 -0.10296 8.51393e-21)
(0.677418 -0.0406977 5.99787e-20)
(0.259919 0.0150488 -1.24875e-20)
(1.07678 -0.404558 6.36039e-21)
(0.998459 -0.02581 2.52729e-21)
(1.16595 0.0623996 3.80224e-20)
(1.03822 -0.00739515 2.17162e-21)
(1.01238 -0.000780954 -8.97152e-22)
(1.03652 -0.0191409 -2.34922e-21)
(0.378394 -0.126659 3.35349e-20)
(1.01599 -0.00331775 1.06243e-21)
(0.968412 -0.014625 0)
(-0.0134801 0.018103 0)
(1.19679 -0.433003 4.71979e-21)
(1.00286 -0.000288573 0)
(0.999984 -0.000649009 0)
(-0.122419 0.0179193 -9.40788e-21)
(1.02911 -0.0113988 0)
(0.258449 -0.0941979 0)
(-0.129379 0.0169026 3.86753e-21)
(0.573456 0.0558552 0)
(1.11332 0.0645156 -5.35229e-21)
(1.15333 -0.377345 1.75845e-20)
(1.08836 -0.129333 -1.07979e-20)
(1.03674 -0.0196107 -2.40942e-21)
(0.835048 -0.351273 -2.27467e-20)
(1.01341 -0.173157 0)
(0.998514 -0.0262246 -5.46936e-21)
(1.09474 0.0313163 9.37355e-21)
(0.181942 -0.0676341 -8.85699e-21)
(0.0724817 0.0291938 -3.98527e-20)
(0.573498 0.0565626 0)
(1.18 -0.0131666 1.46136e-20)
(0.831722 0.0405669 -2.82907e-20)
(1.1216 0.0574163 -2.10208e-20)
(0.575089 0.0673143 3.02805e-21)
(0.964597 -0.0674543 8.08126e-21)
(1.01588 -0.0242703 -3.53661e-20)
(0.729589 -0.0508133 -4.17682e-20)
(1.07912 0.00566083 0)
(1.04285 -0.0584878 -2.51603e-21)
(1.18286 0.0140198 -1.47192e-22)
(1.13776 -0.0384948 1.99603e-21)
(1.09996 -0.0463298 0)
(0.108471 0.00414757 1.2841e-20)
(-0.0772015 -0.00192878 -2.82171e-20)
(0.949946 -0.155117 -9.75433e-21)
(1.14208 0.0399583 -9.54612e-21)
(1.01608 -0.00315103 -1.17774e-21)
(1.21392 -0.260229 -5.44742e-21)
(1.08431 -0.286169 0)
(0.999983 -0.000606803 0)
(0.77346 0.0420546 -2.47558e-20)
(0.706809 0.0744202 0)
(1.01661 -0.000100634 1.9159e-21)
(1.07714 -0.00714707 -7.57321e-21)
(1.02034 -0.0103354 -1.32e-21)
(1.06619 0.0752236 0)
(0.145596 -0.0609764 -6.78917e-20)
(0.0227228 -0.029854 3.20617e-20)
(0.969225 -0.0144278 -4.46772e-21)
(1.02579 -0.0652755 1.07258e-21)
(0.78876 -0.99411 -4.35095e-20)
(-0.120983 0.0183686 -9.31098e-21)
(0.986667 -0.0142305 -6.83287e-21)
(0.162329 -0.0706467 3.38851e-20)
(1.15797 0.0575099 -4.57335e-20)
(1.10786 0.0139581 1.38758e-20)
(0.986496 -0.0378256 6.90054e-21)
(1.01591 0.0775341 0)
(1.02476 -0.0388257 -4.71624e-22)
(1.14658 -0.382758 -2.42484e-20)
(1.06742 -0.056272 2.72039e-21)
(1.02214 -0.00973513 -9.3424e-22)
(1.11768 0.0789352 2.26575e-21)
(0.997898 -0.00253072 -4.89011e-21)
(0.439696 0.043312 0)
(1.01196 -0.0326949 5.69639e-22)
(1.01748 -0.0254615 4.67958e-22)
(1.02873 -0.0146591 0)
(1.01678 -0.0248859 0)
(1.08981 -0.139536 7.95652e-21)
(1.12397 0.0793373 -3.21849e-21)
(1.10856 0.0147281 -1.01853e-20)
(0.978317 -0.071336 8.78802e-21)
(1.07626 -0.00702211 9.45195e-21)
(1.00331 -0.00718098 6.56207e-22)
(1.03579 -0.00019324 2.12614e-21)
(1.04527 -0.0436384 2.2906e-21)
(1.00032 -0.0032248 1.09052e-21)
(0.68416 -0.0437268 0)
(-0.0145306 -0.0257655 -3.95385e-20)
(0.852549 -0.203284 -1.42791e-20)
(1.00955 -0.0100741 0)
(1.08731 -0.0301333 5.54898e-21)
(0.76268 0.0780828 -3.12133e-21)
(0.236267 0.0534326 -1.00406e-20)
(1.05897 -0.0464079 8.60802e-21)
(1.28446 -0.187141 0)
(1.1754 -0.0809998 1.7936e-20)
(1.00608 -0.0104411 -6.90611e-22)
(1.00994 -0.0113747 -3.69684e-23)
(0.0844021 0.031428 3.78448e-20)
(1.07083 -0.0335584 -6.08993e-21)
(1.00001 -0.000112501 -1.90928e-23)
(1.00737 -0.0233541 0)
(1.07737 -0.0838906 -1.22425e-20)
(1.00499 -0.0111028 0)
(0.946359 -0.0336828 9.30616e-21)
(1.09456 -0.0833768 1.22055e-20)
(0.547115 0.0608703 2.23322e-21)
(0.724432 0.0365575 8.42453e-21)
(1.00542 -0.0167416 0)
(0.839473 -0.981611 4.69072e-20)
(1.03249 -0.0165808 2.60019e-21)
(1.09028 -0.128479 0)
(1.12104 0.0565679 5.83403e-21)
(0.835596 -0.343492 1.47466e-20)
(1.03519 -0.197513 2.58109e-21)
(1.0262 -0.0644904 -8.82407e-22)
(1.07007 -0.0328754 5.22252e-21)
(0.193241 0.0494673 2.65242e-20)
(0.989772 -0.0539708 1.04048e-20)
(1.08666 -0.252884 0)
(0.270288 0.0171534 0)
(0.649647 -0.0308507 -9.95083e-21)
(0.713902 0.0359669 -3.43404e-20)
(-0.0870918 -0.00633419 0)
(1.00329 -0.00707166 0)
(0.964924 -0.241786 -7.21681e-21)
(1.03046 -0.0539348 0)
(0.930635 -0.395676 5.07442e-22)
(0.100174 -0.0508505 8.88245e-20)
(0.995025 -0.0230843 0)
(1.05805 0.0058421 -3.96109e-21)
(1.09495 -0.0709123 1.50431e-20)
(1.00071 -0.0127493 0)
(1.00084 -0.00448747 0)
(0.904549 -0.0421557 2.36835e-20)
(1.18632 -0.0546922 0)
(1.02563 -0.0440424 1.9715e-21)
(1.09965 -0.0325251 1.19395e-22)
(1.01344 -0.0325018 2.43263e-23)
(1.13954 0.0543368 0)
(0.0757375 0.0184511 1.96985e-20)
(1.08058 -0.00924781 -8.22974e-21)
(1.00105 -0.00523181 9.80918e-22)
(1.14775 -0.0934609 6.47912e-21)
(1.02128 -0.0106466 2.51949e-21)
(-0.0565947 -0.00233628 -2.55586e-20)
(1.04404 -0.0571757 -3.13894e-21)
(1.17757 0.0661987 -2.85129e-20)
(0.959622 -0.0679065 2.15625e-21)
(1.14183 0.0390969 0)
(0.985806 -0.00448853 3.49559e-21)
(0.997497 -0.00305652 4.70752e-21)
(1.00182 -0.0095496 1.47899e-21)
(1.17439 -0.10748 -1.95477e-20)
(0.990864 -0.0278466 0)
(1.13049 0.070308 1.17516e-21)
(1.02702 -0.00637833 2.29565e-21)
(1.11528 0.0626322 2.83181e-20)
(1.02711 -0.00621792 -7.08038e-24)
(1.06617 -0.0462968 4.49704e-21)
(1.10876 0.0563767 1.05523e-20)
(1.01448 -0.0703662 0)
(1.10823 -0.167522 -2.39201e-21)
(1.06312 -0.139814 -6.59826e-21)
(1.02909 -0.0145657 0)
(0.180871 0.0186383 0)
(0.788166 0.0775298 0)
(1.03226 -0.00152657 -6.05882e-21)
(0.688338 0.068345 0)
(1.17625 -0.0286604 0)
(0.106595 0.00421046 -5.46299e-20)
(1.05965 -0.000315699 8.09466e-21)
(1.02244 -0.00992148 0)
(-0.185419 -0.0133495 0)
(1.0323 -0.0128703 -2.09316e-21)
(1.02449 -0.0381451 9.93842e-22)
(1.03756 -0.0535743 -6.60908e-21)
(1.22893 0.0200751 1.14189e-20)
(1.04597 -0.0441919 0)
(1.10084 -0.0293042 0)
(1.00003 -0.00076003 -9.54239e-22)
(1.21763 -0.165699 2.98359e-20)
(1.12959 0.0699626 0)
(0.992098 -0.00559904 -2.3419e-21)
(1.11343 0.0210718 0)
(1.06721 -0.0272816 5.00374e-21)
(0.970116 -0.0422648 5.86565e-21)
(1.0127 -0.0342314 -1.01014e-21)
(0.906991 -0.0414323 0)
(1.04374 -0.0433116 0)
(0.671476 -0.036692 -9.29483e-21)
(1.12345 0.0787642 -1.10852e-20)
(1.04996 -0.0172253 5.35585e-21)
(1.17458 -0.109689 0)
(1.07943 0.00295769 0)
(1.19295 -0.488536 0)
(1.11854 0.079238 -1.26915e-20)
(1.07582 -0.0836027 1.0545e-20)
(1.01705 -7.23457e-05 2.58596e-21)
(0.998999 -0.0191375 1.85248e-23)
(1.02298 0.0821262 1.66939e-21)
(0.506415 0.0703195 1.03006e-20)
(1.00213 -0.0109259 -3.98528e-21)
(0.604034 -0.0269829 0)
(1.11544 0.0635637 -1.41636e-20)
(1.03335 0.00027982 -1.81024e-21)
(1.06632 -0.0558827 -7.27362e-21)
(0.985123 -0.0361457 -1.27067e-20)
(1.22756 0.0213766 -3.31212e-20)
(0.0770891 0.0221826 0)
(1.0233 -0.0026049 3.43204e-21)
(1.13858 0.0541256 2.26085e-21)
(0.225231 0.0428559 1.50056e-20)
(1.10195 0.0329069 1.07484e-20)
(1.0524 0.00243179 -7.97979e-21)
(1.00168 -0.00970754 0)
(1.00003 -0.000143203 0)
(1.10269 0.0325495 6.39866e-21)
(1.09468 -0.238213 5.62962e-22)
(0.972872 -0.0737205 1.74265e-21)
(1.12912 -0.19011 1.78483e-20)
(1.13494 -0.0582245 9.17598e-21)
(-0.211656 -0.0069966 0)
(1.09537 -0.24281 -1.3026e-20)
(0.990303 -0.0530286 -3.45563e-21)
(1.31116 -0.192783 -5.22491e-21)
(0.380888 0.0511393 -1.47903e-21)
(1.1944 -0.105086 1.02891e-20)
(0.74927 0.0730991 -8.19962e-21)
(0.856234 -0.345779 -1.48857e-20)
(1.00302 -0.000307156 0)
(1.14139 -0.0224673 1.8665e-20)
(1.11943 0.0600192 -3.81576e-21)
(0.621729 -0.0306503 0)
(1.06476 -0.00139544 4.29876e-21)
(1.19535 -0.10752 0)
(-0.0881927 -0.00736979 0)
(0.032228 0.0336744 0)
(0.0822491 0.0202988 -1.86905e-20)
(1.00005 -0.00186363 0)
(1.27423 -0.0172346 -1.65559e-20)
(0.97647 -0.0504994 -3.07388e-21)
(1.04944 -0.0169271 -5.51638e-21)
(1.01755 -0.000108673 -2.87749e-21)
(1.17915 -0.132746 4.12922e-20)
(0.187474 0.0201602 1.72764e-21)
(1.17846 0.0622409 0)
(1.01503 0.0821617 5.94636e-21)
(0.0628683 0.021768 -3.01757e-21)
(1.15112 0.0293727 -1.45114e-20)
(1.14562 -0.0940618 0)
(1 -5.68537e-06 0)
(0.99903 -0.00674068 -1.47261e-21)
(1.02326 -0.00274437 1.73137e-21)
(1.13756 -0.0252811 1.24226e-20)
(1.1197 0.0595165 0)
(0.7604 0.0729477 1.88073e-20)
(1.02788 -0.134422 2.74125e-21)
(0.0709342 0.0233539 1.59417e-22)
(1.30858 -0.188071 -1.8491e-20)
(0.9699 -0.0150369 9.0885e-21)
(0.764559 0.0789841 3.51634e-21)
(1.09203 -0.00146961 0)
(1.00931 -0.0100576 0)
(1.09959 -0.0814345 9.19227e-21)
(0.124867 0.0337146 0)
(0.995061 -0.0226691 -3.16727e-21)
(1.00004 -0.000181734 0)
(1.01753 -0.0591957 0)
(1.01664 -0.0107405 8.25108e-22)
(1.0266 -0.00689878 -2.22538e-21)
(0.934677 -0.388426 -1.32723e-21)
(1.01939 -4.294e-07 -2.10065e-21)
(0.586911 0.0681515 -2.94214e-21)
(0.967749 -0.0609857 3.52306e-21)
(1.00003 -0.000180355 0)
(1.00462 -0.0109587 -4.21658e-22)
(1.17475 -0.0793822 0)
(1.02866 -0.0401839 3.09707e-21)
(0.987373 -0.0474975 -8.96171e-22)
(1.04405 0.0817033 3.02923e-21)
(1.11307 -0.19639 1.72717e-20)
(-0.125171 0.0188966 0)
(1.11904 0.0788132 1.93604e-20)
(-0.00995681 0.0274908 1.96692e-20)
(1.22428 -0.00681365 2.01462e-20)
(0.0470203 0.0229224 2.78289e-21)
(1.05912 -0.00073591 0)
(0.995211 -0.00673428 0)
(-0.152339 -0.0204831 -2.60867e-20)
(0.575889 0.0523981 7.99031e-21)
(0.997313 -0.0171718 -2.75788e-21)
(1.00164 -0.0263613 -1.72225e-21)
(1.17426 -0.48246 0)
(0.512722 0.0699445 1.97126e-20)
(0.97679 -0.00926475 8.49137e-22)
(1.13647 -0.0584891 1.3164e-20)
(1.04684 -0.0262189 -5.2695e-21)
(-0.103696 -0.0280476 -8.9142e-20)
(1.181 -0.0922105 1.06155e-21)
(0.393547 0.044514 0)
(1.02262 -0.00282833 -1.47009e-21)
(1.11224 0.00437194 -1.3222e-21)
(1.06318 -0.0864554 4.17863e-21)
(0.993574 -0.0777288 0)
(0.632199 -0.0265382 -8.09611e-20)
(1.07161 0.0153466 -6.59501e-21)
(0.841273 -0.319922 0)
(1.12883 0.0707136 -2.11916e-20)
(1.18192 -0.0904876 -1.31211e-21)
(1.08142 -0.00877083 2.16003e-21)
(1.13293 0.00699946 -2.25171e-21)
(0.820337 -0.431351 -9.65647e-21)
(1.03631 0.0810402 0)
(0.107323 0.0317379 0)
(1.01165 -0.000338517 -8.95062e-22)
(1.01208 -0.0704391 3.66334e-23)
(1.10544 -0.0906054 1.039e-20)
(1.08009 0.00361383 -1.1197e-21)
(0.558347 0.0702097 -3.50317e-20)
(1.01258 -0.0129459 0)
(1.07517 -0.0166905 6.76753e-21)
(0.392233 0.0522398 2.63446e-21)
(0.997267 -0.017559 8.5793e-23)
(0.694586 0.0707562 -9.13041e-21)
(0.213709 0.0415224 -2.27263e-20)
(1.0046 -0.00268954 0)
(1.0108 -0.0708217 -9.55831e-22)
(1.05841 -0.0719249 0)
(1.02064 -0.0695896 -1.43708e-22)
(1.02796 -0.0900274 0)
(1.01771 -0.0259532 -4.7519e-22)
(1.17609 -0.0268156 0)
(0.933349 -0.225291 -1.49997e-20)
(0.0422491 0.035803 0)
(1.02614 -0.133331 -1.41131e-21)
(1.0911 -0.00142537 1.247e-20)
(1.0695 -0.0192357 0)
(-0.110214 0.0207176 -3.90203e-20)
(1.00492 -0.0112326 -6.689e-22)
(0.999955 -0.00920501 0)
(0.981096 -0.241181 0)
(1.06748 -0.0466566 -5.90009e-21)
(1.0281 -0.0399153 -2.65289e-21)
(1.10095 -0.0325882 -7.84826e-21)
(1.02254 -0.00295244 1.63954e-23)
(1.09797 0.0651321 -1.02883e-20)
(1.01452 -0.000710679 -3.05165e-22)
(1.06621 -0.00116048 -7.40024e-21)
(1.04758 -0.0443825 3.04957e-21)
(0.132307 -0.0581514 0)
(1.00105 -0.00486941 -8.42562e-22)
(-0.0885185 -0.0310988 6.23655e-20)
(1.06673 -0.00642171 4.76673e-21)
(0.999894 -0.0152106 -3.27309e-21)
(1.01229 -0.00799099 -8.48333e-22)
(0.98312 -0.0365242 -7.18019e-21)
(1.03723 -0.194533 -8.94002e-21)
(1.06491 -0.0503104 -5.78374e-21)
(1.12489 0.071255 4.54545e-21)
(1.00027 -0.00301917 0)
(1.07318 0.0135674 -4.67068e-21)
(1.07723 0.00864522 0)
(1.22273 -0.00565108 -8.92247e-21)
(1.02298 -0.00274458 0)
(1.08821 0.0750251 7.4709e-24)
(-0.0716834 0.0178142 2.15106e-20)
(1.0976 0.0791022 -1.99749e-21)
(1.00476 -0.0111027 -1.45478e-23)
(1.18563 0.0276284 -2.63589e-20)
(1.06752 -0.106892 2.7043e-21)
(-0.211348 -0.00829651 -5.85638e-20)
(1.12211 -0.13869 1.32624e-20)
(0.58976 -0.023266 9.19762e-20)
(1.12071 -0.136601 9.59389e-21)
(1.00212 -0.0106826 3.28479e-21)
(1.19327 -0.199199 0)
(1.07803 -0.396802 6.56923e-21)
(1.12912 0.0126676 0)
(1.01696 -0.0253356 -2.12197e-22)
(1.17524 -0.0753976 -1.82328e-20)
(-0.0964903 -0.0252541 -3.67527e-20)
(1.10038 0.0788593 1.02888e-21)
(0.976925 -0.0719759 -1.96393e-20)
(0.700332 -0.665846 6.21427e-21)
(0.246093 0.0453471 -1.41119e-20)
(1.02459 -0.0896643 1.18783e-21)
(0.0605903 0.0251048 -2.74232e-21)
(1.09059 -0.141386 0)
(1.0669 -0.00704915 9.80586e-21)
(1.1929 0.0232744 -3.18406e-21)
(0.945097 -0.0362413 0)
(1.0394 -0.00914597 5.71227e-21)
(1.01609 -0.000146531 0)
(1.00114 -0.00580779 1.38079e-21)
(1.14779 0.0725966 -1.10337e-20)
(0.0949777 -0.0369688 -5.61101e-20)
(1.02291 -0.0028667 -1.63915e-23)
(1.07266 0.0137621 4.69482e-21)
(1.12806 0.0704198 2.30362e-20)
(1.11345 -0.0746149 -1.1284e-20)
(1.02637 -0.044064 -6.50706e-22)
(-0.20522 -0.00829065 6.33434e-20)
(0.995901 -0.0131416 9.86106e-22)
(0.983813 -0.0388576 -3.79002e-21)
(1.14722 -0.207417 -1.9334e-20)
(1.0618 -0.0870582 -9.82197e-21)
(1.13617 -0.0375096 1.99129e-21)
(0.411917 0.0466083 0)
(1.22365 -0.354754 -8.55848e-20)
(1.13937 0.0417226 1.44381e-20)
(1.02172 -0.0699791 1.49118e-22)
(1.04694 -0.043821 -6.19923e-21)
(1.12651 -0.261268 -2.25936e-20)
(0.439687 0.0656473 0)
(1.22713 -0.00669813 0)
(1.09476 0.0694562 1.3659e-20)
(1.06333 -0.0666143 0)
(1.07211 0.015032 -8.45772e-21)
(1.10074 0.0580643 0)
(1.01234 -0.00779765 1.4171e-24)
(1.07976 -0.0139223 -8.97868e-21)
(1.05831 -0.0705771 -8.32218e-21)
(1.15399 0.0263468 7.47849e-21)
(1.08068 -0.116304 1.23279e-20)
(0.9863 -0.0852741 -2.8225e-21)
(1.04014 -0.0297066 -1.59703e-21)
(-0.0287637 0.0214771 0)
(0.999866 -0.0015182 3.51968e-21)
(1.00183 -0.0258957 0)
(1.11011 0.0635447 -1.28662e-20)
(1.00002 -0.000498917 1.85471e-21)
(0.00345641 0.0337592 -1.60961e-20)
(1.06541 -0.139796 -5.00772e-21)
(0.999994 -0.000369996 -1.48721e-21)
(1.13903 -0.026173 -1.84485e-20)
(1.06523 -0.000454637 -1.053e-20)
(0.708756 0.0698762 0)
(1.23094 -0.145011 -7.2316e-20)
(1.00455 -0.008344 -9.33107e-22)
(0.891902 -0.342188 -1.0021e-20)
(1.10966 0.064098 1.57121e-20)
(1.14406 -0.0206802 0)
(1.11279 -0.0761373 6.65493e-21)
(1.13195 0.00658375 2.30814e-21)
(0.0867972 0.0290507 -4.438e-21)
(1.13856 -0.199818 8.46126e-21)
(0.999998 -0.00595897 9.21653e-22)
(1.003 -0.00892432 -1.07777e-21)
(1.2302 -0.148676 -7.68173e-20)
(0.380258 0.0505369 0)
(1.08667 -0.00273527 0)
(0.991336 -0.0532261 -3.35493e-21)
(0.972726 -0.0126273 -2.71085e-22)
(-0.200547 -9.54286e-06 1.55457e-22)
(0.968044 -0.0242074 -1.13911e-20)
(-0.116745 -0.018701 0)
(0.999066 -0.0065357 0)
(1.14988 -0.0726193 -2.4487e-20)
(1.10579 -0.0924958 -1.24556e-20)
(-0.174704 -0.0157144 0)
(1.11984 0.0329203 0)
(1.06466 -0.104753 -4.46007e-21)
(1.15519 -0.0658378 -3.43168e-20)
(1 -0.000292441 1.40855e-21)
(1.16682 0.0618951 8.37162e-21)
(1.0362 -8.24815e-05 -2.60609e-21)
(1.01014 -0.00769105 -4.39105e-22)
(0.310827 0.0546448 -1.42128e-20)
(1.0126 -0.033638 1.11703e-21)
(1.05857 0.00607046 0)
(1.13262 0.004175 1.02185e-20)
(1.09056 0.00488859 1.09961e-20)
(1.0242 -0.018132 -3.25969e-21)
(1.00095 -0.0164103 1.00633e-22)
(1.02795 -0.261899 0)
(-0.0351881 0.0298798 0)
(1.13576 -0.156013 -1.2792e-20)
(1.10169 0.00283777 0)
(0.741677 0.0730487 4.31617e-21)
(1.07656 0.0085237 -4.16921e-21)
(1.22975 -0.142514 7.12448e-20)
(1.03255 -0.0131858 -2.87495e-23)
(1.00082 -0.0166559 0)
(1.17499 -0.0699516 1.79536e-20)
(0.0993991 0.0398461 0)
(1.14831 0.0704387 0)
(0.97692 -0.0385679 0)
(0.64405 0.0549127 2.76816e-20)
(1.0719 -0.0563521 -7.67135e-21)
(1.0122 -0.000671233 0)
(0.227753 0.052969 1.01999e-20)
(1.02693 -0.0909991 0)
(1.01102 -0.0392666 1.52233e-21)
(1.05033 -0.0426963 -3.17061e-21)
(1.13506 -0.0286397 -8.34194e-21)
(0.458547 0.0666664 -5.75899e-21)
(1.14234 -0.0103496 0)
(1.18026 -0.0115806 -1.92889e-20)
(1.07188 0.0161288 7.57343e-21)
(1.10083 0.00223879 0)
(1.10139 0.0582546 -2.39383e-21)
(0.967118 -0.0216028 5.76968e-21)
(0.947703 -0.0346128 -1.51007e-20)
(1.14088 -0.0101835 -1.92672e-20)
(1.05517 -0.100622 3.5193e-21)
(1.2025 -0.0861068 -7.82911e-20)
(1.11732 0.06167 0)
(1.1069 -0.165144 -7.80869e-21)
(1.08006 -0.0133022 8.66923e-21)
(1.02954 -0.0115402 -1.76494e-21)
(1.086 -0.00321048 0)
(1.13173 0.00474386 -9.01524e-21)
(1.18954 -0.199394 0)
(0.982952 -0.0453991 -5.03421e-21)
(1.02556 -0.0906477 -1.48189e-21)
(1.01827 -0.00699672 0)
(1.07138 0.0164189 8.40048e-21)
(1.09875 -0.235408 3.68157e-21)
(1.22564 0.0204226 -2.49067e-20)
(1.24312 -0.00663798 0)
(1.00205 -0.0024668 0)
(1.06003 -0.0469502 -9.86643e-21)
(1.12476 0.0702149 -1.31318e-20)
(1.01828 -0.0596557 0)
(0.997507 -0.00702236 3.33307e-21)
(0.996332 -0.0123858 -4.05537e-21)
(0.787754 -0.15972 0)
(1.08124 -0.00788534 -2.18066e-21)
(-0.0965907 -0.0272908 -3.79767e-20)
(0.985827 -0.0374623 9.10557e-22)
(0.0756217 0.0225625 0)
(1.21846 -0.357381 3.25148e-20)
(1.00007 -0.0151038 0)
(0.567371 0.0704474 2.89475e-20)
(-0.0262389 0.0306118 0)
(1.11896 0.0325025 -1.52206e-20)
(0.995621 -0.00659026 0)
(1.14792 0.0221319 1.27959e-20)
(1.09438 0.069104 -9.68569e-21)
(0.391834 0.051313 2.60069e-21)
(1.10048 -0.0452659 0)
(1.04728 -0.142734 7.16435e-21)
(0.695022 -0.267961 2.2489e-20)
(0.967238 -0.0624896 3.58859e-21)
(0.972267 -0.0375024 -9.75604e-21)
(0.977768 -0.0381278 0)
(0.0237155 0.0357759 -3.00557e-20)
(1.03704 -0.0166965 2.51952e-21)
(-0.0421977 0.0189889 0)
(0.99633 -0.0133332 5.83507e-21)
(1.02628 -0.00438257 2.12747e-21)
(1.01017 -0.0114212 7.23773e-24)
(1.08869 0.0336431 7.9603e-21)
(1.03264 -0.00109835 0)
(0.542114 0.0527306 0)
(1.25779 -0.406311 0)
(0.99995 -0.00610203 -1.37987e-21)
(-0.214629 -0.000223975 0)
(1.04467 -0.0356832 -1.01803e-21)
(1.02704 -0.00532062 0)
(1.02418 -0.00772905 -1.7596e-21)
(0.970742 -0.0146946 -9.92146e-21)
(1.10371 0.05772 -1.12378e-20)
(0.983808 -0.0455046 1.12307e-21)
(1.08984 0.0195032 -9.05726e-21)
(1.22771 -0.149235 6.976e-20)
(0.0804256 -0.0505294 6.73947e-20)
(-0.123732 0.00560747 0)
(1.00002 -5.03945e-05 0)
(1.09026 0.0191369 -7.98509e-21)
(1.03358 -0.0157872 0)
(1.07453 -0.0199699 0)
(1.09485 0.0294371 -9.93463e-21)
(-0.118961 0.0179898 3.24753e-20)
(-0.216128 -0.00365279 3.9541e-20)
(1.06111 0.0786957 7.45284e-21)
(1.24525 -0.095525 7.83083e-20)
(1.02423 -0.0177391 4.00913e-21)
(1.02697 -0.000271226 -1.65391e-21)
(0.984531 -0.0366431 7.94386e-21)
(1.03833 -0.016157 3.61053e-23)
(1.15207 0.0285609 1.39967e-20)
(0.985907 -0.00629477 2.76373e-21)
(0.994699 -0.00588847 0)
(0.971974 -0.0128286 2.52299e-22)
(1.03208 -0.00613213 7.61782e-21)
(1.07841 0.00809798 -4.26184e-21)
(1.07161 0.00708642 0)
(1.01503 -0.0222377 -2.4092e-22)
(0.636409 0.0718577 1.072e-20)
(0.990193 -0.0482992 0)
(0.999473 -0.00214072 -4.65327e-22)
(1.03199 -0.00642927 -1.76758e-21)
(0.987001 -0.0138478 -5.87778e-21)
(1.16658 0.049567 -2.98462e-20)
(0.80802 0.0634238 0)
(1.14833 -0.0715432 0)
(1.09733 -0.173656 2.77799e-20)
(0.881 -0.0177482 0)
(0.0721147 0.020164 -6.88551e-23)
(-0.147083 -0.0212625 0)
(0.399449 0.0485181 1.96036e-20)
(1.03373 -0.0541996 2.83107e-21)
(1.0075 -0.00910249 -9.13058e-23)
(0.0728233 0.0293844 4.60338e-21)
(0.721148 -0.229964 0)
(1.00564 -0.0177215 0)
(1.03743 0.0780907 0)
(1.00064 -0.0124805 0)
(1.03106 -0.054778 3.34999e-22)
(1.01136 -0.00402029 0)
(0.406222 -0.131032 2.21452e-22)
(0.882542 -0.338958 6.55036e-21)
(1.02123 -0.0475991 5.72494e-23)
(1.23328 -0.139419 0)
(1.00994 -0.0324032 8.45593e-22)
(0.943846 -0.0368953 1.03139e-20)
(0.639535 0.0714472 -2.03105e-20)
(1.08344 -0.00629218 -1.11682e-21)
(1.04538 -0.0361559 6.84853e-21)
(-0.0535535 0.018713 -2.0783e-20)
(1.03408 -0.000247869 -7.52717e-21)
(1.07229 0.00876221 7.93487e-21)
(1.08414 -0.0310273 0)
(1.06201 -0.0660627 -3.30371e-21)
(0.934071 -0.220407 1.28159e-20)
(0.67318 -0.862267 -4.79146e-21)
(1.03272 -0.0170024 -2.10877e-21)
(1.01471 -0.0220378 1.65604e-22)
(1.04961 -0.017887 0)
(0.982077 -0.272933 5.01075e-20)
(1.09486 0.0580931 -2.723e-22)
(1.02779 -0.0637687 1.88724e-21)
(1.01191 -0.00444749 -1.40906e-21)
(1.28514 -0.205105 -2.81214e-20)
(1.02696 -0.000459613 -5.65888e-22)
(1.14323 -0.0150263 -1.16419e-20)
(0.986286 -0.00637895 0)
(1.03976 -0.00551162 5.36424e-21)
(1.05009 -0.0181551 0)
(1.0031 -0.00169737 5.5564e-22)
(0.980483 -0.0336612 -7.24281e-21)
(0.995435 -0.00682756 -3.85828e-21)
(1.03843 -0.00984601 -2.79021e-21)
(1.06977 -0.0312056 -3.08709e-21)
(1.23755 -0.0807886 -1.90544e-20)
(0.985965 -0.0053782 0)
(1.18132 0.026446 -5.96677e-21)
(1.01415 -0.0666497 -5.81316e-22)
(-0.19845 0.0109627 0)
(1.05053 -0.0137112 -4.65355e-21)
(1.28433 -0.0311334 -6.26786e-20)
(1.00003 -0.00179627 0)
(0.832968 0.0601839 0)
(1.00002 -0.000189133 -1.33236e-21)
(0.987139 -0.0246602 3.16921e-22)
(1.0855 0.0753272 6.90549e-21)
(1.14472 -0.0257918 1.90692e-20)
(0.287742 0.0527882 -9.50094e-21)
(1.03081 -0.260017 -4.46757e-21)
(1.03476 -0.190106 0)
(0.969949 -0.019266 -1.87685e-20)
(1.10622 0.0570912 0)
(1.03926 -0.0151257 3.09096e-21)
(0.0681268 0.0215563 -2.66341e-21)
(1.09524 -0.0135521 0)
(1.04402 -0.0582025 3.47527e-21)
(0.353728 0.043348 4.20083e-21)
(1.02162 -0.0482266 1.86728e-22)
(1.23914 -0.079137 -1.07786e-20)
(1.23248 -0.137014 0)
(1.07183 0.00825983 -7.53389e-23)
(1.11251 0.06424 -6.76495e-21)
(1.14691 0.0732586 1.22422e-20)
(0.999211 -0.0189794 0)
(0.822551 -0.445863 9.39827e-21)
(1.00201 -0.0068411 0)
(1.08696 -0.0315128 5.4186e-21)
(0.99243 -0.00545614 -4.24777e-21)
(1.08414 -0.00567477 -8.02443e-21)
(0.8731 -0.211099 0)
(1.03961 -0.0057891 0)
(1.0797 0.00225117 0)
(1.00001 -0.000709085 -3.57641e-21)
(1.28707 -0.184425 -8.79529e-21)
(1.17588 -0.0739271 2.06418e-20)
(1.08367 -0.00719626 1.19983e-21)
(1.09605 -0.0819324 -1.06097e-20)
(1.08062 0.00212919 0)
(0.999831 -0.00171738 1.7795e-21)
(0.808156 0.0778162 0)
(1.20974 -0.177787 0)
(0.949306 -0.380797 3.70014e-22)
(1.09726 0.065213 7.39239e-23)
(-0.0459402 0.0198439 3.49276e-20)
(1.16375 0.0539714 0)
(1.04812 -0.0314328 -2.47936e-21)
(-0.190051 0.0120398 0)
(1.07114 -0.0573536 -7.52995e-21)
(1.00354 -0.000582698 0)
(-0.126947 0.0169537 -3.01678e-20)
(1.28236 -0.0286769 7.37465e-20)
(1.00001 -0.000988072 -1.06787e-21)
(1.14516 -0.471427 2.97349e-20)
(0.776417 0.0706415 -1.93495e-21)
(1.16669 -0.275685 -2.35467e-20)
(1.0432 -0.0355331 -4.24677e-21)
(-0.171238 -0.0146151 3.58525e-20)
(1.13187 0.0464406 0)
(0.759292 0.0705376 0)
(1.12246 -0.0511148 -5.55471e-21)
(1.00174 -0.0272936 -3.01248e-21)
(0.319794 -0.0438222 3.0231e-20)
(0.759018 -0.41696 -2.74931e-20)
(1.09856 0.0775579 0)
(1.00523 -0.0684593 3.20952e-21)
(1.00004 -0.00094137 5.97082e-23)
(1.07767 0.00787992 4.19541e-21)
(0.99189 -0.770064 3.80314e-20)
(1.06439 -0.0319096 -5.27126e-21)
(0.982425 -0.783981 -4.01247e-20)
(1.16585 0.0471286 0)
(1.04436 -0.0439945 -2.96036e-21)
(1.11108 0.00738169 -8.6971e-21)
(0.263799 0.0273518 0)
(0.810511 0.0719087 0)
(0.997056 -0.155829 1.15631e-22)
(-0.161016 -0.0170393 -4.11003e-20)
(0.945005 -0.0343281 5.03757e-21)
(1.17425 -0.360023 0)
(0.0903351 0.0390148 6.21266e-21)
(0.986617 -0.00715204 0)
(0.90005 -0.291017 -5.13836e-20)
(0.972911 -0.0751945 -1.92132e-21)
(1.00536 -0.0461952 -1.79048e-21)
(0.438948 0.0439406 6.25631e-21)
(0.942593 -0.0396577 -1.15269e-20)
(1.16851 0.0479042 0)
(1.00246 -0.2412 0)
(1.08079 0.00134555 -8.78684e-21)
(1.00084 -0.0160713 -3.16516e-21)
(1.15534 -0.363656 2.01531e-20)
(0.768913 -0.42746 3.05138e-20)
(1.06439 0.000327617 -1.19357e-20)
(0.995484 -0.0131341 -3.04668e-22)
(0.0440189 0.0210075 -2.70392e-21)
(1.01523 -0.000589776 0)
(1.07732 -0.347199 -5.04534e-20)
(1.08067 -0.11414 5.61782e-21)
(1.0986 0.0780951 0)
(1.03895 -0.015395 0)
(1.04387 -0.036084 5.53819e-21)
(0.227922 -0.0891425 0)
(1.17507 0.00240722 0)
(1.24946 -0.0280516 0)
(0.058936 0.0175934 0)
(1.14399 -0.0159355 0)
(-0.202388 -0.0038626 0)
(1.15757 -0.136206 0)
(0.948925 -0.0336781 -4.6849e-21)
(0.0499311 0.0221244 0)
(1.0747 -0.0191098 6.26089e-21)
(0.99894 -0.00689516 0)
(1.22449 0.0214709 5.48152e-21)
(1.22357 -0.201987 -1.76667e-20)
(1.06132 0.0103924 4.29097e-21)
(0.981442 -0.0193547 7.96601e-21)
(1.03448 -8.74032e-05 3.72033e-21)
(1.00389 -0.00791187 -7.38224e-22)
(1.00202 -0.00674121 8.18739e-22)
(1.13834 0.041816 0)
(0.0334398 0.0345412 -2.46865e-20)
(0.857617 0.0774378 9.81674e-21)
(1.00543 -0.00994278 0)
(1.08325 0.0170682 0)
(0.980976 -0.0649243 -8.29892e-21)
(1.09827 0.072727 0)
(1.00373 -0.00780895 0)
(0.126798 0.0367225 0)
(-0.215647 -0.00758816 -4.54378e-21)
(-0.187266 0.0125049 0)
(1.17938 -0.357708 0)
(1.0744 -0.101278 -3.04377e-21)
(1.00842 -0.0233638 1.77172e-22)
(0.0428731 0.0351157 1.17201e-20)
(1.0099 -0.0329431 0)
(1.01655 -0.0599051 -1.99466e-22)
(1.01572 -0.0593826 1.91891e-22)
(1.05291 -0.0310661 3.18573e-21)
(1.00868 -0.169506 -1.68895e-22)
(1.09657 -0.0708826 -1.76605e-20)
(0.953245 -0.0187436 -7.6196e-21)
(0.952711 -0.0136872 0)
(1.00183 -0.00935361 0)
(0.96743 -0.0373781 0)
(0.995437 -0.012917 0)
(1.00542 -0.0170516 0)
(0.885619 -0.369741 0)
(1.18189 -0.131849 -4.98077e-20)
(0.995682 -0.0132896 -5.97103e-22)
(0.990434 -0.0268748 0)
(-0.208712 -0.00767655 8.24043e-21)
(0.325558 -0.0459169 0)
(1.08584 -0.0313654 1.70953e-20)
(1.15663 -0.49099 6.53822e-20)
(1.09447 0.0306686 0)
(1.01167 -0.212583 2.26448e-21)
(1.19261 0.0249842 0)
(1.02249 -0.0205595 -1.59765e-21)
(1.01203 -0.0333144 -1.43365e-22)
(1.00172 -0.00888958 1.25798e-21)
(1.01044 -0.0321874 -3.69915e-23)
(1.05098 -0.0360127 0)
(0.703646 -0.259668 1.89628e-20)
(1.00492 -0.0122887 -9.9101e-22)
(1.02062 -0.00964665 -1.39487e-21)
(1.00563 -0.0142183 3.11889e-23)
(1.00227 -0.0104814 -3.36273e-21)
(-0.180584 0.0133762 0)
(1.03641 -0.188749 0)
(1.02627 -0.00680917 1.26389e-21)
(1.07515 -0.0214311 6.68727e-21)
(1.00111 -0.0056396 -2.7e-21)
(1.1474 -0.0682554 -6.07298e-21)
(1.02406 -0.00893409 0)
(1.12762 -0.0643946 9.65602e-21)
(1.15039 0.0741269 1.39459e-20)
(1.03899 -0.0145529 -5.20702e-21)
(0.797061 0.0716233 1.02268e-20)
(1.09948 0.0792043 -1.06372e-21)
(1.18338 0.0318669 0)
(1.14528 -0.0197636 0)
(-0.0762504 0.0183372 3.84899e-20)
(-0.0302686 0.0259249 2.22564e-20)
(0.98688 -0.0133253 0)
(0.998035 -0.0179983 -3.62908e-21)
(0.953604 -0.017828 8.88557e-21)
(0.755363 0.0695686 0)
(1.11389 0.0543035 -1.05523e-20)
(0.998723 -0.080208 0)
(-0.0786219 -0.0317983 0)
(1.21224 -0.348969 0)
(1.03449 0.000204273 0)
(1.01599 -0.021996 0)
(0.966835 -0.0382339 -9.39771e-21)
(0.793936 -0.155137 0)
(1.07036 -0.0684927 0)
(1.00261 -0.0080324 0)
(1.00413 -0.00800945 0)
(1.001 -0.02488 -2.73064e-22)
(1.01849 -0.0265709 3.34392e-22)
(0.188716 0.0193221 0)
(1.16871 -0.345733 -1.96783e-20)
(1.00485 -0.0455818 4.36388e-21)
(1.08935 -0.313227 -4.43452e-20)
(0.560498 0.0610205 0)
(0.999266 -0.00173034 -4.79666e-21)
(1.0133 -0.031926 0)
(1.01697 -0.0707831 -2.06081e-22)
(1.12052 -0.0549439 0)
(0.180187 0.0194304 0)
(1.3163 -0.25487 -3.67379e-20)
(0.135764 0.0375684 0)
(1.11135 0.0433962 0)
(1.16445 -0.270951 7.07355e-21)
(1.1683 -0.494483 -7.35245e-20)
(1.09726 0.0774308 -4.73912e-21)
(-0.250188 -0.00463575 9.82853e-21)
(1.07539 -0.0205761 6.99498e-21)
(1.10732 0.0284044 0)
(1.08514 -0.00603255 8.2431e-21)
(1.07609 0.00929382 1.24491e-20)
(-0.117242 0.0178426 0)
(1.03537 -0.0174168 0)
(-0.0935979 -0.0295394 0)
(1.10497 0.0740913 -1.50933e-20)
(1.05081 0.00534372 -6.16702e-21)
(0.986582 -0.241438 -6.21119e-22)
(1.03595 -0.0176456 -2.33775e-21)
(0.15455 0.0461306 2.39812e-20)
(1.00554 -0.0677253 0)
(1.20834 -0.247564 -6.29069e-20)
(1.1017 0.0789437 -3.2323e-21)
(1.02823 -0.0120825 -3.73346e-21)
(0.613441 -0.0223768 -1.24223e-20)
(1.02061 -0.0195778 4.02216e-23)
(1.00002 -0.000672835 2.30997e-21)
(0.570902 -0.0188199 1.18509e-20)
(1.05962 -0.0686837 -3.39124e-21)