/*--------------------------------*- C++ -*----------------------------------*\
| =========                 |                                                 |
| \\      /  F ield         | OpenFOAM: The Open Source CFD Toolbox           |
|  \\    /   O peration     | Version:  v2012                                 |
|   \\  /    A nd           | Website:  www.openfoam.com                      |
|    \\/     M anipulation  |                                                 |
\*---------------------------------------------------------------------------*/
FoamFile
{
    version     2.0;
    format      ascii;
    class       volVectorField;
    location    "400";
    object      U_0;
}
// * * * * * * * * * * * * * * * * * * * * * * * * * * * * * * * * * * * * * //

dimensions      [0 1 -1 0 0 0 0];


internalField   nonuniform List<vector> 
53008
(
(1.09697 -0.0478468 -1.37902e-20)
(1.27847 -0.0163314 3.37407e-20)
(0.964034 -0.0688861 -8.83765e-21)
(1.17621 -0.344497 2.20074e-20)
(0.0122104 -0.0285859 3.73715e-20)
(-0.130201 0.0170469 -5.09852e-21)
(1.11051 -0.197281 4.95985e-21)
(1.09615 -0.0466208 1.48496e-20)
(1.01447 -0.1755 2.46859e-22)
(0.987216 -0.0526477 -7.86849e-22)
(1.13132 0.0472972 3.43464e-21)
(1.08621 -0.25712 -1.29168e-20)
(0.43823 0.0444387 -3.93117e-21)
(1.0031 0.0815325 3.34641e-21)
(0.988 -0.0468116 0)
(1.03137 -0.0137031 3.32158e-21)
(1.08173 -0.0113848 -7.69984e-21)
(1.03162 -0.0140443 -5.52067e-21)
(0.450535 0.0596717 0)
(1.07877 0.00641236 7.66718e-21)
(1.07502 -0.0174391 6.40147e-21)
(0.850426 -0.198191 -6.48135e-21)
(1.0017 -0.00950178 -1.57878e-21)
(1.10696 -0.195321 0)
(1.07022 -0.0196771 -5.50807e-21)
(1.19874 -0.425024 -1.58006e-20)
(1.01637 0.0821217 0)
(1.13796 -0.0400447 -2.24661e-21)
(1.1493 0.0739405 -1.12001e-20)
(1.16589 0.0634236 -3.16193e-20)
(1.08856 0.0747721 -6.82217e-21)
(0.989408 0.0768687 0)
(-0.0274183 0.0155876 0)
(1.03737 -0.0545719 3.83194e-21)
(1.00295 -0.00168547 -5.53309e-22)
(0.950767 -0.157503 -5.2357e-21)
(1.01771 -0.0934766 1.69479e-22)
(1.00003 -0.000122525 -1.13002e-22)
(1.13115 -0.187904 -8.01087e-21)
(1.0428 -0.0594672 0)
(1.01828 -0.0917448 2.19542e-22)
(0.782096 0.0761444 -1.81822e-20)
(1.12844 0.0490541 -1.27052e-20)
(0.188553 0.0489559 0)
(1.07933 0.00698475 -3.98478e-21)
(1.03891 -0.0162986 -2.84766e-21)
(1.0388 -0.00738558 -5.32055e-21)
(1.06515 9.69993e-05 4.28734e-21)
(1.16489 0.0460912 1.14483e-20)
(1.00631 -0.0106129 -2.3336e-22)
(1.01825 -4.80287e-05 0)
(0.885664 -0.0620565 -2.26309e-20)
(1.08834 -0.0300781 -1.6349e-20)
(0.999966 -0.00948144 -2.18996e-21)
(1.10205 0.0365785 0)
(0.426674 0.0577969 3.22463e-21)
(1.07852 0.00506873 0)
(1.00425 -0.0079397 6.2319e-22)
(1.11717 0.0793846 -4.37676e-21)
(1.11446 0.0213368 -1.68709e-20)
(1.05043 -0.0365329 -6.37782e-21)
(1.064 -0.10296 8.51404e-21)
(0.677442 -0.0406902 5.99791e-20)
(0.259973 0.0150532 -1.24836e-20)
(1.07679 -0.40456 6.36069e-21)
(0.99846 -0.0258105 2.52741e-21)
(1.16598 0.0624042 3.80267e-20)
(1.03822 -0.00739487 2.17142e-21)
(1.01238 -0.000780941 -8.96823e-22)
(1.03652 -0.0191406 -2.34905e-21)
(0.378397 -0.126661 3.35359e-20)
(1.01599 -0.00331767 1.06215e-21)
(0.968412 -0.0146261 0)
(-0.0135117 0.0181012 0)
(1.1968 -0.433005 4.71995e-21)
(1.00286 -0.000288576 0)
(0.999984 -0.000649043 0)
(-0.12241 0.0179123 -9.40821e-21)
(1.02911 -0.0113986 0)
(0.25845 -0.0941997 0)
(-0.129372 0.016896 3.86768e-21)
(0.5735 0.0558671 0)
(1.11332 0.0645358 -5.3524e-21)
(1.15334 -0.377346 1.75852e-20)
(1.08836 -0.129333 -1.07981e-20)
(1.03674 -0.0196104 -2.40926e-21)
(0.835051 -0.351276 -2.27465e-20)
(1.01342 -0.173158 0)
(0.998514 -0.0262251 -5.46962e-21)
(1.09474 0.0313213 9.37349e-21)
(0.181945 -0.067636 -8.85726e-21)
(0.0724977 0.029193 -3.98505e-20)
(0.573542 0.056575 0)
(1.18001 -0.0131708 1.46138e-20)
(0.831711 0.0405537 -2.82894e-20)
(1.1216 0.0574334 -2.10217e-20)
(0.575119 0.0673421 3.02824e-21)
(0.964598 -0.0674552 8.08131e-21)
(1.01591 -0.0242681 -3.53652e-20)
(0.729615 -0.0508063 -4.17686e-20)
(1.07913 0.00566286 0)
(1.04286 -0.0584875 -2.516e-21)
(1.18286 0.0140137 -1.47157e-22)
(1.13776 -0.0384953 1.99605e-21)
(1.09996 -0.0463295 0)
(0.10848 0.00415842 1.28409e-20)
(-0.0771973 -0.00192072 -2.82172e-20)
(0.949948 -0.155118 -9.75424e-21)
(1.1421 0.0399654 -9.54666e-21)
(1.01608 -0.00315095 -1.17743e-21)
(1.21392 -0.260227 -5.44754e-21)
(1.08432 -0.286176 0)
(0.999983 -0.000606834 0)
(0.77345 0.0420424 -2.47547e-20)
(0.706844 0.0744507 0)
(1.01661 -0.000100628 1.91542e-21)
(1.07714 -0.00714582 -7.5731e-21)
(1.02034 -0.0103352 -1.31975e-21)
(1.06621 0.0752263 0)
(0.145598 -0.0609784 -6.78938e-20)
(0.0227226 -0.0298543 3.20627e-20)
(0.969225 -0.0144289 -4.4678e-21)
(1.02579 -0.0652754 1.07254e-21)
(0.788762 -0.994117 -4.35102e-20)
(-0.120976 0.0183615 -9.31138e-21)
(0.986667 -0.0142309 -6.83306e-21)
(0.16233 -0.0706486 3.38862e-20)
(1.15799 0.0575174 -4.57381e-20)
(1.10787 0.0139617 1.38759e-20)
(0.986497 -0.0378264 6.90069e-21)
(1.01596 0.0775528 0)
(1.02476 -0.0388255 -4.71566e-22)
(1.14658 -0.382759 -2.42493e-20)
(1.06742 -0.0562717 2.72039e-21)
(1.02214 -0.00973493 -9.34077e-22)
(1.11767 0.0789715 2.26579e-21)
(0.997898 -0.00253144 -4.89032e-21)
(0.439741 0.0433234 0)
(1.01196 -0.0326952 5.69755e-22)
(1.01748 -0.0254615 4.67755e-22)
(1.02873 -0.0146589 0)
(1.01678 -0.024886 0)
(1.08981 -0.139536 7.95666e-21)
(1.12397 0.0793748 -3.21872e-21)
(1.10856 0.0147318 -1.01854e-20)
(0.978318 -0.0713366 8.78808e-21)
(1.07627 -0.00702087 9.4518e-21)
(1.00331 -0.00718098 6.56345e-22)
(1.03579 -0.000192718 2.12587e-21)
(1.04527 -0.0436381 2.29054e-21)
(1.00032 -0.00322509 1.09064e-21)
(0.684184 -0.0437196 0)
(-0.0145322 -0.0257655 -3.95399e-20)
(0.852551 -0.203286 -1.42791e-20)
(1.00955 -0.0100742 0)
(1.08731 -0.0301328 5.54897e-21)
(0.762688 0.0781013 -3.12189e-21)
(0.236253 0.0534202 -1.00421e-20)
(1.05897 -0.0464076 8.60794e-21)
(1.28447 -0.187133 0)
(1.1754 -0.0810003 1.7936e-20)
(1.00608 -0.0104412 -6.90829e-22)
(1.00994 -0.0113749 -3.72375e-23)
(0.0844174 0.0314268 3.78427e-20)
(1.07083 -0.033558 -6.08987e-21)
(1.00001 -0.000112503 -1.90923e-23)
(1.00737 -0.0233545 0)
(1.07737 -0.0838904 -1.22426e-20)
(1.00499 -0.0111028 0)
(0.94636 -0.033684 9.30626e-21)
(1.09456 -0.0833767 1.22056e-20)
(0.547152 0.0608939 2.23286e-21)
(0.724427 0.0365498 8.42411e-21)
(1.00542 -0.0167418 0)
(0.839476 -0.981617 4.6908e-20)
(1.03249 -0.0165806 2.59995e-21)
(1.09028 -0.128479 0)
(1.12104 0.0565844 5.83428e-21)
(0.835599 -0.343495 1.47465e-20)
(1.0352 -0.197514 2.58123e-21)
(1.0262 -0.0644903 -8.82373e-22)
(1.07007 -0.0328749 5.22247e-21)
(0.193243 0.04945 2.65244e-20)
(0.989773 -0.0539714 1.0405e-20)
(1.08667 -0.252884 0)
(0.270341 0.0171584 0)
(0.649669 -0.0308427 -9.95078e-21)
(0.713898 0.0359599 -3.43387e-20)
(-0.0870914 -0.00632801 0)
(1.00329 -0.00707166 0)
(0.964936 -0.24179 -7.21704e-21)
(1.03046 -0.0539345 0)
(0.930638 -0.395679 5.07315e-22)
(0.100175 -0.0508523 8.88273e-20)
(0.995025 -0.0230848 0)
(1.05804 0.00584336 -3.96088e-21)
(1.09495 -0.0709122 1.50432e-20)
(1.00071 -0.0127493 0)
(1.00084 -0.00448779 0)
(0.904549 -0.042157 2.36836e-20)
(1.18632 -0.0546942 0)
(1.02564 -0.0440422 1.97132e-21)
(1.09965 -0.0325246 1.19399e-22)
(1.01344 -0.0325021 2.43342e-23)
(1.13956 0.0543503 0)
(0.0757126 0.0184558 1.97009e-20)
(1.08058 -0.00924658 -8.22964e-21)
(1.00105 -0.00523212 9.81042e-22)
(1.14775 -0.0934609 6.47916e-21)
(1.02128 -0.0106464 2.51904e-21)
(-0.0565905 -0.00232793 -2.55587e-20)
(1.04405 -0.0571754 -3.1389e-21)
(1.17761 0.0661949 -2.85161e-20)
(0.959623 -0.0679074 2.15627e-21)
(1.14184 0.0391038 0)
(0.985806 -0.00448881 3.49568e-21)
(0.997497 -0.00305722 4.70772e-21)
(1.00182 -0.0095497 1.47915e-21)
(1.1744 -0.107479 -1.95478e-20)
(0.990865 -0.0278473 0)
(1.1305 0.0703347 1.17526e-21)
(1.02702 -0.00637823 2.29531e-21)
(1.11528 0.0626517 2.83187e-20)
(1.02711 -0.00621782 -7.08378e-24)
(1.06617 -0.0462965 4.49701e-21)
(1.10876 0.0563905 1.05524e-20)
(1.01448 -0.0703663 0)
(1.10823 -0.167521 -2.39206e-21)
(1.06312 -0.139814 -6.59843e-21)
(1.02909 -0.0145655 0)
(0.180885 0.0186471 0)
(0.788204 0.0775629 0)
(1.03226 -0.00152618 -6.05797e-21)
(0.688389 0.0683714 0)
(1.17626 -0.0286634 0)
(0.106604 0.00422127 -5.46292e-20)
(1.05965 -0.000314606 8.09431e-21)
(1.02244 -0.00992127 0)
(-0.185424 -0.0133493 0)
(1.0323 -0.0128701 -2.09295e-21)
(1.02449 -0.0381449 9.9373e-22)
(1.03757 -0.053574 -6.60893e-21)
(1.22893 0.0200572 1.14188e-20)
(1.04597 -0.0441915 0)
(1.10085 -0.0293037 0)
(1.00003 -0.00076006 -9.54355e-22)
(1.21763 -0.165696 2.98362e-20)
(1.1296 0.0699893 0)
(0.992098 -0.00559922 -2.34198e-21)
(1.11343 0.0210765 0)
(1.06721 -0.0272811 5.00368e-21)
(0.970116 -0.0422658 5.86573e-21)
(1.0127 -0.0342316 -1.01036e-21)
(0.906991 -0.0414336 0)
(1.04374 -0.0433112 0)
(0.6715 -0.0366841 -9.29483e-21)
(1.12345 0.078801 -1.10859e-20)
(1.04996 -0.0172249 5.35562e-21)
(1.17458 -0.109688 0)
(1.07943 0.00295957 0)
(1.19296 -0.48854 0)
(1.11854 0.079275 -1.2692e-20)
(1.07582 -0.0836025 1.05451e-20)
(1.01705 -7.23408e-05 2.58532e-21)
(0.999 -0.0191377 1.85249e-23)
(1.02299 0.0821573 1.66965e-21)
(0.506399 0.0703085 1.0302e-20)
(1.00213 -0.0109259 -3.9857e-21)
(0.604055 -0.0269743 0)
(1.11543 0.0635839 -1.4164e-20)
(1.03335 0.000280311 -1.80998e-21)
(1.06632 -0.0558824 -7.2736e-21)
(0.985123 -0.0361466 -1.27069e-20)
(1.22756 0.0213587 -3.3121e-20)
(0.0770603 0.022187 0)
(1.0233 -0.00260479 3.43136e-21)
(1.13859 0.0541392 2.26102e-21)
(0.225212 0.0428661 1.5008e-20)
(1.10195 0.032913 1.07484e-20)
(1.0524 0.00243278 -7.97928e-21)
(1.00168 -0.00970764 0)
(1.00003 -0.000143207 0)
(1.1027 0.0325556 6.39868e-21)
(1.09469 -0.238213 5.62968e-22)
(0.972873 -0.0737213 1.74266e-21)
(1.12912 -0.190109 1.78487e-20)
(1.13495 -0.0582249 9.17604e-21)
(-0.211659 -0.00699384 0)
(1.09538 -0.24281 -1.30264e-20)
(0.990304 -0.0530293 -3.45569e-21)
(1.31116 -0.192778 -5.22423e-21)
(0.3809 0.0511618 -1.47903e-21)
(1.1944 -0.105086 1.02891e-20)
(0.749321 0.073128 -8.19879e-21)
(0.856237 -0.345782 -1.48854e-20)
(1.00302 -0.000307159 0)
(1.1414 -0.0224677 1.86652e-20)
(1.11943 0.0600378 -3.81591e-21)
(0.621751 -0.0306421 0)
(1.06476 -0.00139425 4.29861e-21)
(1.19535 -0.107519 0)
(-0.088192 -0.00736354 0)
(0.0322179 0.033663 0)
(0.0822237 0.0203039 -1.86928e-20)
(1.00005 -0.00186377 0)
(1.27422 -0.0172428 -1.65554e-20)
(0.976471 -0.0505003 -3.07392e-21)
(1.04944 -0.0169268 -5.51614e-21)
(1.01755 -0.000108665 -2.87678e-21)
(1.17915 -0.132745 4.12925e-20)
(0.187488 0.0201697 1.72749e-21)
(1.17848 0.0622362 0)
(1.01505 0.0821935 5.94722e-21)
(0.0628373 0.0217712 -3.01807e-21)
(1.15113 0.0293753 -1.4512e-20)
(1.14562 -0.0940618 0)
(1 -5.68539e-06 0)
(0.99903 -0.00674122 -1.4727e-21)
(1.02326 -0.00274427 1.73103e-21)
(1.13756 -0.0252814 1.24227e-20)
(1.1197 0.0595347 0)
(0.760377 0.0729328 1.88092e-20)
(1.02788 -0.134423 2.74142e-21)
(0.0709036 0.0233575 1.59442e-22)
(1.30858 -0.188066 -1.8491e-20)
(0.9699 -0.0150379 9.08866e-21)
(0.764568 0.0790035 3.51697e-21)
(1.09203 -0.00146771 0)
(1.00931 -0.0100577 0)
(1.09959 -0.0814344 9.19235e-21)
(0.12488 0.0337119 0)
(0.995061 -0.0226695 -3.1674e-21)
(1.00004 -0.000181739 0)
(1.01753 -0.0591957 0)
(1.01664 -0.0107403 8.24886e-22)
(1.0266 -0.00689869 -2.22504e-21)
(0.934681 -0.388429 -1.32712e-21)
(1.01939 -4.01662e-07 -2.10009e-21)
(0.586944 0.0681798 -2.9423e-21)
(0.96775 -0.0609866 3.52309e-21)
(1.00003 -0.000180361 0)
(1.00462 -0.0109587 -4.21739e-22)
(1.17475 -0.0793828 0)
(1.02866 -0.0401836 3.09684e-21)
(0.987374 -0.0474983 -8.96188e-22)
(1.04407 0.0817349 3.02969e-21)
(1.11307 -0.196389 1.72721e-20)
(-0.125159 0.0188897 0)
(1.11903 0.0788496 1.9361e-20)
(-0.00993614 0.0274872 1.96683e-20)
(1.22427 -0.00682345 2.0146e-20)
(0.0469879 0.0229241 2.78338e-21)
(1.05912 -0.000734852 0)
(0.995211 -0.00673459 0)
(-0.152343 -0.0204841 -2.60874e-20)
(0.575875 0.0523835 7.99005e-21)
(0.997314 -0.0171719 -2.75802e-21)
(1.00164 -0.0263618 -1.72235e-21)
(1.17427 -0.482462 0)
(0.512706 0.069933 1.97153e-20)
(0.97679 -0.00926553 8.49155e-22)
(1.13647 -0.0584895 1.31641e-20)
(1.04684 -0.0262185 -5.26931e-21)
(-0.103699 -0.0280487 -8.91444e-20)
(1.18101 -0.0922106 1.06155e-21)
(0.39358 0.0445319 0)
(1.02262 -0.00282825 -1.4698e-21)
(1.11225 0.00437445 -1.32221e-21)
(1.06318 -0.0864552 4.17867e-21)
(0.993575 -0.0777292 0)
(0.63222 -0.0265295 -8.09606e-20)
(1.07161 0.0153488 -6.59479e-21)
(0.841275 -0.319925 0)
(1.12884 0.070741 -2.11932e-20)
(1.18192 -0.0904877 -1.31212e-21)
(1.08142 -0.00876956 2.16e-21)
(1.13293 0.0070014 -2.25176e-21)
(0.82034 -0.431355 -9.65634e-21)
(1.03633 0.0810725 0)
(0.107337 0.0317357 0)
(1.01165 -0.000338508 -8.94751e-22)
(1.01208 -0.0704392 3.66302e-23)
(1.10544 -0.0906053 1.03901e-20)
(1.08009 0.00361577 -1.11969e-21)
(0.55833 0.0701987 -3.50366e-20)
(1.01258 -0.012946 0)
(1.07517 -0.0166897 6.76745e-21)
(0.392246 0.0522627 2.63448e-21)
(0.997268 -0.0175591 8.57972e-23)
(0.694635 0.0707851 -9.12968e-21)
(0.213689 0.0415324 -2.27298e-20)
(1.0046 -0.00268953 0)
(1.0108 -0.0708218 -9.55859e-22)
(1.05841 -0.0719247 0)
(1.02064 -0.0695896 -1.43698e-22)
(1.02796 -0.0900274 0)
(1.01771 -0.0259532 -4.74984e-22)
(1.17609 -0.0268187 0)
(0.933351 -0.225293 -1.49994e-20)
(0.0422387 0.0357912 0)
(1.02615 -0.133331 -1.4114e-21)
(1.09111 -0.00142348 1.247e-20)
(1.0695 -0.0192351 0)
(-0.110201 0.0207099 -3.9021e-20)
(1.00492 -0.0112326 -6.69032e-22)
(0.999955 -0.00920528 0)
(0.981098 -0.241182 0)
(1.06748 -0.0466563 -5.90006e-21)
(1.0281 -0.0399151 -2.6527e-21)
(1.10095 -0.0325877 -7.84828e-21)
(1.02254 -0.00295236 1.63971e-23)
(1.09795 0.0651434 -1.02875e-20)
(1.01452 -0.000710659 -3.05075e-22)
(1.06621 -0.00115924 -7.4e-21)
(1.04758 -0.0443821 3.04951e-21)
(0.132309 -0.0581533 0)
(1.00105 -0.00486971 -8.42678e-22)
(-0.0885207 -0.0311 6.23672e-20)
(1.06673 -0.00642068 4.7666e-21)
(0.999894 -0.0152106 -3.27329e-21)
(1.01229 -0.00799102 -8.47927e-22)
(0.98312 -0.0365251 -7.18033e-21)
(1.03723 -0.194534 -8.94052e-21)
(1.06491 -0.0503101 -5.78371e-21)
(1.12489 0.0712832 4.54572e-21)
(1.00027 -0.00301944 0)
(1.07318 0.0135697 -4.67054e-21)
(1.07723 0.00864736 0)
(1.22273 -0.00566095 -8.92237e-21)
(1.02298 -0.00274449 0)
(1.08818 0.0750301 7.45866e-24)
(-0.071662 0.017817 2.15097e-20)
(1.09758 0.0791267 -1.99723e-21)
(1.00476 -0.0111027 -1.45474e-23)
(1.18564 0.0276208 -2.63598e-20)
(1.06752 -0.106892 2.70434e-21)
(-0.211351 -0.00829423 -5.85648e-20)
(1.12211 -0.138689 1.32626e-20)
(0.58978 -0.0232571 9.19755e-20)
(1.12072 -0.136601 9.59403e-21)
(1.00212 -0.0106826 3.28514e-21)
(1.19328 -0.199197 0)
(1.07803 -0.396804 6.56953e-21)
(1.12913 0.0126705 0)
(1.01696 -0.0253357 -2.12069e-22)
(1.17524 -0.0753983 -1.82329e-20)
(-0.0964937 -0.0252553 -3.67538e-20)
(1.10036 0.0788839 1.02875e-21)
(0.976926 -0.0719766 -1.96395e-20)
(0.700335 -0.665852 6.21421e-21)
(0.246076 0.045358 -1.41142e-20)
(1.02459 -0.0896643 1.18786e-21)
(0.0605584 0.0251066 -2.7428e-21)
(1.09059 -0.141386 0)
(1.0669 -0.00704815 9.80559e-21)
(1.19291 0.0232651 -3.18415e-21)
(0.945097 -0.0362425 0)
(1.0394 -0.00914571 5.7118e-21)
(1.01609 -0.000146525 0)
(1.00114 -0.0058081 1.38097e-21)
(1.14782 0.0726178 -1.10352e-20)
(0.0949804 -0.0369695 -5.6112e-20)
(1.02291 -0.00286661 -1.63929e-23)
(1.07266 0.0137643 4.69468e-21)
(1.12807 0.0704471 2.30379e-20)
(1.11345 -0.0746149 -1.12841e-20)
(1.02637 -0.0440638 -6.50651e-22)
(-0.205224 -0.00828815 6.33445e-20)
(0.995901 -0.0131417 9.8615e-22)
(0.983814 -0.0388585 -3.79009e-21)
(1.14722 -0.207416 -1.93344e-20)
(1.0618 -0.087058 -9.82205e-21)
(1.13617 -0.03751 1.9913e-21)
(0.41195 0.0466269 0)
(1.22366 -0.354753 -8.55872e-20)
(1.13938 0.0417309 1.44389e-20)
(1.02172 -0.0699791 1.49107e-22)
(1.04694 -0.0438206 -6.1991e-21)
(1.12651 -0.261268 -2.25943e-20)
(0.43967 0.0656295 0)
(1.22713 -0.00670839 0)
(1.09474 0.0694658 1.36574e-20)
(1.06333 -0.066614 0)
(1.07211 0.0150342 -8.45745e-21)
(1.10073 0.0580751 0)
(1.01235 -0.00779767 1.41784e-24)
(1.07976 -0.0139213 -8.97859e-21)
(1.05831 -0.0705769 -8.32219e-21)
(1.154 0.0263482 7.47879e-21)
(1.08068 -0.116304 1.23281e-20)
(0.986301 -0.0852745 -2.82251e-21)
(1.04014 -0.0297063 -1.59696e-21)
(-0.0287873 0.0214718 0)
(0.999866 -0.0015184 3.51987e-21)
(1.00183 -0.0258962 0)
(1.11011 0.0635629 -1.28661e-20)
(1.00002 -0.000498932 1.85492e-21)
(0.00346533 0.0337468 -1.60965e-20)
(1.06541 -0.139796 -5.00783e-21)
(0.999994 -0.000370005 -1.48744e-21)
(1.13904 -0.0261735 -1.84487e-20)
(1.06523 -0.000453384 -1.05297e-20)
(0.708808 0.0699026 0)
(1.23094 -0.145008 -7.23164e-20)
(1.00455 -0.00834397 -9.33355e-22)
(0.891905 -0.342191 -1.00207e-20)
(1.10966 0.0641165 1.57121e-20)
(1.14406 -0.0206808 0)
(1.11279 -0.0761373 6.65498e-21)
(1.13196 0.00658568 2.30819e-21)
(0.0868124 0.0290507 -4.43776e-21)
(1.13856 -0.199817 8.46144e-21)
(0.999998 -0.00595948 9.2172e-22)
(1.003 -0.00892432 -1.07793e-21)
(1.2302 -0.148673 -7.68178e-20)
(0.380272 0.0505593 0)
(1.08667 -0.00273355 0)
(0.991337 -0.0532267 -3.35499e-21)
(0.972726 -0.0126282 -2.7109e-22)
(-0.200539 -4.113e-06 1.55484e-22)
(0.968044 -0.0242085 -1.13913e-20)
(-0.116749 -0.0187007 0)
(0.999066 -0.00653625 0)
(1.14988 -0.0726198 -2.44872e-20)
(1.10579 -0.0924957 -1.24557e-20)
(-0.174709 -0.0157146 0)
(1.11984 0.0329274 0)
(1.06466 -0.104753 -4.46013e-21)
(1.15522 -0.0658329 -3.43164e-20)
(1 -0.000292447 1.40877e-21)
(1.16684 0.0618988 8.37253e-21)
(1.0362 -8.19457e-05 -2.60577e-21)
(1.01014 -0.00769115 -4.38627e-22)
(0.310813 0.0546521 -1.42155e-20)
(1.01261 -0.0336383 1.11726e-21)
(1.05857 0.00607175 0)
(1.13263 0.00417664 1.02187e-20)
(1.09056 0.00489093 1.0996e-20)
(1.0242 -0.0181317 -3.25924e-21)
(1.00095 -0.0164103 1.0064e-22)
(1.02795 -0.2619 0)
(-0.0351748 0.0298691 0)
(1.13576 -0.156013 -1.27922e-20)
(1.10169 0.00284015 0)
(0.741728 0.0730778 4.31576e-21)
(1.07656 0.00852581 -4.16912e-21)
(1.22975 -0.142511 7.12452e-20)
(1.03255 -0.0131856 -2.8751e-23)
(1.00082 -0.016656 0)
(1.17499 -0.0699526 1.79536e-20)
(0.0993827 0.0398357 0)
(1.14834 0.0704582 0)
(0.97692 -0.0385689 0)
(0.644033 0.054896 2.7681e-20)
(1.0719 -0.0563518 -7.67134e-21)
(1.0122 -0.000671221 0)
(0.22774 0.0529559 1.02014e-20)
(1.02693 -0.0909991 0)
(1.01102 -0.0392669 1.52251e-21)
(1.05033 -0.0426959 -3.17055e-21)
(1.13507 -0.02864 -8.34202e-21)
(0.458531 0.0666488 -5.75954e-21)
(1.14235 -0.0103498 0)
(1.18027 -0.0115849 -1.92891e-20)
(1.07188 0.0161311 7.57317e-21)
(1.10083 0.00224111 0)
(1.10138 0.0582658 -2.39377e-21)
(0.967118 -0.0216039 5.76977e-21)
(0.947704 -0.034614 -1.51009e-20)
(1.14089 -0.0101835 -1.92674e-20)
(1.05517 -0.100622 3.51935e-21)
(1.20253 -0.086103 -7.82912e-20)
(1.11732 0.0616893 0)
(1.1069 -0.165143 -7.80885e-21)
(1.08006 -0.0133011 8.66915e-21)
(1.02954 -0.01154 -1.76473e-21)
(1.086 -0.00320881 0)
(1.13174 0.00474561 -9.01541e-21)
(1.18954 -0.199392 0)
(0.982953 -0.0454 -5.03429e-21)
(1.02556 -0.0906477 -1.48193e-21)
(1.01827 -0.00699655 0)
(1.07138 0.0164212 8.40019e-21)
(1.09876 -0.235408 3.68167e-21)
(1.22564 0.0204055 -2.49066e-20)
(1.24311 -0.00664891 0)
(1.00205 -0.00246686 0)
(1.06003 -0.0469499 -9.86634e-21)
(1.12476 0.0702422 -1.31325e-20)
(1.01828 -0.0596557 0)
(0.997508 -0.00702282 3.33322e-21)
(0.996332 -0.0123859 -4.05555e-21)
(0.787755 -0.159723 0)
(1.08124 -0.00788404 -2.18064e-21)
(-0.0965941 -0.0272921 -3.79778e-20)
(0.985827 -0.0374632 9.10577e-22)
(0.0755922 0.0225666 0)
(1.21846 -0.357381 3.25157e-20)
(1.00007 -0.0151039 0)
(0.567353 0.070436 2.89515e-20)
(-0.0262253 0.030601 0)
(1.11896 0.0325096 -1.5221e-20)
(0.995621 -0.0065906 0)
(1.14793 0.022134 1.27964e-20)
(1.09436 0.0691132 -9.68457e-21)
(0.391848 0.0513358 2.60067e-21)
(1.10049 -0.0452657 0)
(1.04728 -0.142734 7.16459e-21)
(0.695024 -0.267964 2.24891e-20)
(0.967239 -0.0624904 3.58862e-21)
(0.972267 -0.0375034 -9.75618e-21)
(0.977768 -0.0381288 0)
(0.0237242 0.0357629 -3.00562e-20)
(1.03704 -0.0166963 2.51933e-21)
(-0.0422219 0.0189842 0)
(0.99633 -0.0133332 5.83533e-21)
(1.02628 -0.00438246 2.12713e-21)
(1.01017 -0.0114213 7.36919e-24)
(1.08869 0.0336476 7.9602e-21)
(1.03264 -0.00109793 0)
(0.5421 0.0527159 0)
(1.2578 -0.406313 0)
(0.99995 -0.00610253 -1.37997e-21)
(-0.214621 -0.000218977 0)
(1.04467 -0.0356828 -1.01799e-21)
(1.02704 -0.00532051 0)
(1.02418 -0.00772893 -1.75932e-21)
(0.970742 -0.0146957 -9.92164e-21)
(1.10371 0.0577323 -1.12376e-20)
(0.983809 -0.0455054 1.12308e-21)
(1.08984 0.0195067 -9.05718e-21)
(1.22771 -0.149231 6.97604e-20)
(0.0804259 -0.0505312 6.73968e-20)
(-0.123733 0.00560732 0)
(1.00002 -5.03956e-05 0)
(1.09026 0.0191405 -7.98503e-21)
(1.03358 -0.015787 0)
(1.07453 -0.0199692 0)
(1.09485 0.029442 -9.93458e-21)
(-0.118956 0.0179827 3.24768e-20)
(-0.216127 -0.00364894 3.95413e-20)
(1.06115 0.0787147 7.45177e-21)
(1.24528 -0.0955202 7.83085e-20)
(1.02423 -0.0177388 4.00857e-21)
(1.02697 -0.000270907 -1.65359e-21)
(0.984531 -0.036644 7.94403e-21)
(1.03833 -0.0161567 3.61079e-23)
(1.15208 0.0285631 1.39973e-20)
(0.985907 -0.00629506 2.76381e-21)
(0.9947 -0.00588878 0)
(0.971975 -0.0128296 2.52304e-22)
(1.03208 -0.00613194 7.61689e-21)
(1.07841 0.00810013 -4.26176e-21)
(1.07161 0.00708826 0)
(1.01503 -0.0222379 -2.40597e-22)
(0.636389 0.071846 1.07214e-20)
(0.990194 -0.0482999 0)
(0.999473 -0.00214118 -4.65349e-22)
(1.03199 -0.00642909 -1.76737e-21)
(0.987001 -0.0138482 -5.87795e-21)
(1.1666 0.049568 -2.98486e-20)
(0.807997 0.0634026 0)
(1.14833 -0.0715437 0)
(1.09733 -0.173656 2.77806e-20)
(0.881021 -0.0177432 0)
(0.0720869 0.0201684 -6.8892e-23)
(-0.147087 -0.0212636 0)
(0.399442 0.0485068 1.96027e-20)
(1.03373 -0.0541994 2.831e-21)
(1.0075 -0.00910258 -9.13828e-23)
(0.0728393 0.0293841 4.60313e-21)
(0.721151 -0.22996 0)
(1.00564 -0.0177217 0)
(1.03748 0.0781103 0)
(1.00064 -0.0124806 0)
(1.03107 -0.0547778 3.34988e-22)
(1.01136 -0.00402029 0)
(0.406225 -0.131035 2.21529e-22)
(0.882544 -0.33896 6.55021e-21)
(1.02123 -0.047599 5.72362e-23)
(1.23328 -0.139416 0)
(1.00994 -0.0324036 8.4571e-22)
(0.943846 -0.0368965 1.0314e-20)
(0.639515 0.0714349 -2.03131e-20)
(1.08345 -0.00629074 -1.11681e-21)
(1.04538 -0.0361555 6.84833e-21)
(-0.0535751 0.0187077 -2.07857e-20)
(1.03408 -0.00024738 -7.52614e-21)
(1.07229 0.00876416 7.93465e-21)
(1.08414 -0.0310268 0)
(1.06201 -0.0660624 -3.30371e-21)
(0.934073 -0.220408 1.28156e-20)
(0.673183 -0.862274 -4.79158e-21)
(1.03272 -0.0170021 -2.10858e-21)
(1.01471 -0.022038 1.65377e-22)
(1.04961 -0.0178867 0)
(0.982087 -0.272934 5.01092e-20)
(1.09485 0.0581002 -2.72286e-22)
(1.0278 -0.0637686 1.88718e-21)
(1.01191 -0.00444748 -1.40844e-21)
(1.28514 -0.205097 -2.8123e-20)
(1.02696 -0.000459302 -5.6578e-22)
(1.14323 -0.0150267 -1.1642e-20)
(0.986286 -0.00637922 0)
(1.03976 -0.00551124 5.36376e-21)
(1.05009 -0.0181548 0)
(1.0031 -0.00169737 5.55885e-22)
(0.980483 -0.0336621 -7.24295e-21)
(0.995435 -0.00682788 -3.85844e-21)
(1.03843 -0.00984578 -2.78998e-21)
(1.06977 -0.0312052 -3.08706e-21)
(1.23754 -0.0807882 -1.90542e-20)
(0.985965 -0.00537848 0)
(1.18133 0.0264398 -5.96698e-21)
(1.01416 -0.0666497 -5.81351e-22)
(-0.198424 0.0109627 0)
(1.05053 -0.0137108 -4.65333e-21)
(1.28432 -0.0311385 -6.26762e-20)
(1.00003 -0.00179642 0)
(0.832945 0.0601628 0)
(1.00002 -0.000189136 -1.33255e-21)
(0.987139 -0.0246609 3.1693e-22)
(1.08548 0.0753332 6.90395e-21)
(1.14472 -0.0257926 1.90694e-20)
(0.287726 0.0527954 -9.50272e-21)
(1.03081 -0.260018 -4.46788e-21)
(1.03477 -0.190106 0)
(0.969969 -0.0192633 -1.8768e-20)
(1.10621 0.0571044 0)
(1.03926 -0.0151255 3.09074e-21)
(0.0680969 0.0215601 -2.66382e-21)
(1.09525 -0.0135509 0)
(1.04402 -0.0582022 3.47523e-21)
(0.353726 0.0433415 4.20062e-21)
(1.02162 -0.0482266 1.867e-22)
(1.23913 -0.0791366 -1.07785e-20)
(1.23248 -0.137011 0)
(1.07183 0.00826174 -7.53429e-23)
(1.1125 0.0642597 -6.76504e-21)
(1.14693 0.073281 1.22438e-20)
(0.999211 -0.0189796 0)
(0.822554 -0.445867 9.39806e-21)
(1.00201 -0.00684124 0)
(1.08696 -0.0315123 5.41859e-21)
(0.99243 -0.00545633 -4.24792e-21)
(1.08414 -0.00567328 -8.02436e-21)
(0.873102 -0.211101 0)
(1.03961 -0.00578873 0)
(1.0797 0.00225301 0)
(1.00001 -0.000709112 -3.5769e-21)
(1.28708 -0.184419 -8.79523e-21)
(1.17588 -0.0739279 2.06418e-20)
(1.08367 -0.00719486 1.19982e-21)
(1.09605 -0.0819322 -1.06098e-20)
(1.08062 0.00213106 0)
(0.999831 -0.00171762 1.7796e-21)
(0.808193 0.0778496 0)
(1.20975 -0.177784 0)
(0.94931 -0.3808 3.70311e-22)
(1.09725 0.0652238 7.39328e-23)
(-0.0459621 0.0198385 3.49322e-20)
(1.16377 0.053975 0)
(1.04812 -0.0314324 -2.47928e-21)
(-0.190025 0.0120398 0)
(1.07114 -0.0573533 -7.52995e-21)
(1.00354 -0.000582698 0)
(-0.126941 0.016947 -3.01692e-20)
(1.28235 -0.0286824 7.37448e-20)
(1.00001 -0.000988121 -1.06797e-21)
(1.14517 -0.47143 2.97362e-20)
(0.776471 0.0706619 -1.93456e-21)
(1.16669 -0.275684 -2.35474e-20)
(1.0432 -0.0355327 -4.24662e-21)
(-0.171244 -0.0146149 3.58534e-20)
(1.13188 0.0464518 0)
(0.759346 0.0705578 0)
(1.12246 -0.0511149 -5.55474e-21)
(1.00174 -0.0272942 -3.01267e-21)
(0.319809 -0.0438192 3.02317e-20)
(0.75902 -0.416964 -2.7493e-20)
(1.09853 0.0775784 0)
(1.00523 -0.0684595 3.20958e-21)
(1.00004 -0.000941415 5.97154e-23)
(1.07767 0.00788204 4.19533e-21)
(0.991895 -0.770071 3.80274e-20)
(1.06439 -0.0319092 -5.27119e-21)
(0.982432 -0.783991 -4.01208e-20)
(1.16587 0.0471294 0)
(1.04436 -0.0439941 -2.96029e-21)
(1.11109 0.00738453 -8.69719e-21)
(0.263827 0.0273639 0)
(0.810486 0.0718901 0)
(0.997058 -0.15583 1.15623e-22)
(-0.161021 -0.0170395 -4.11014e-20)
(0.945005 -0.0343293 5.03762e-21)
(1.17425 -0.360023 0)
(0.090319 0.0390042 6.21351e-21)
(0.986617 -0.00715231 0)
(0.900051 -0.291018 -5.13852e-20)
(0.972912 -0.0751952 -1.92133e-21)
(1.00536 -0.0461956 -1.79057e-21)
(0.438991 0.0439531 6.25444e-21)
(0.942593 -0.0396589 -1.1527e-20)
(1.16853 0.047904 0)
(1.00246 -0.241201 0)
(1.08079 0.00134737 -8.78672e-21)
(1.00084 -0.0160713 -3.16538e-21)
(1.15534 -0.363657 2.01538e-20)
(0.768915 -0.427463 3.05136e-20)
(1.06439 0.000328878 -1.19353e-20)
(0.995484 -0.0131342 -3.04681e-22)
(0.0439868 0.0210098 -2.70437e-21)
(1.01523 -0.00058976 0)
(1.07733 -0.347196 -5.04558e-20)
(1.08067 -0.11414 5.6179e-21)
(1.09858 0.0781166 0)
(1.03895 -0.0153948 0)
(1.04387 -0.0360837 5.53801e-21)
(0.227923 -0.089144 0)
(1.17507 0.00240315 0)
(1.24945 -0.0280589 0)
(0.0589082 0.0175973 0)
(1.14399 -0.015936 0)
(-0.202387 -0.00385838 0)
(1.15757 -0.136205 0)
(0.948926 -0.0336793 -4.68495e-21)
(0.049899 0.0221267 0)
(1.0747 -0.019109 6.26081e-21)
(0.99894 -0.00689569 0)
(1.22449 0.0214539 5.48149e-21)
(1.22358 -0.201983 -1.7667e-20)
(1.06132 0.0103939 4.29075e-21)
(0.981442 -0.0193555 7.9662e-21)
(1.03448 -8.69055e-05 3.71983e-21)
(1.00389 -0.00791184 -7.38393e-22)
(1.00202 -0.00674135 8.18865e-22)
(1.13835 0.0418244 0)
(0.0334275 0.0345302 -2.46894e-20)
(0.857601 0.0774338 9.81808e-21)
(1.00543 -0.00994278 0)
(1.08325 0.0170712 0)
(0.980977 -0.064925 -8.299e-21)
(1.09825 0.0727428 0)
(1.00373 -0.00780893 0)
(0.12677 0.0367231 0)
(-0.21565 -0.00758571 -4.54385e-21)
(-0.187244 0.0125017 0)
(1.17939 -0.357708 0)
(1.0744 -0.101278 -3.04381e-21)
(1.00842 -0.0233642 1.77201e-22)
(0.0428617 0.0351041 1.17214e-20)
(1.0099 -0.0329435 0)
(1.01655 -0.0599051 -1.995e-22)
(1.01572 -0.0593827 1.91925e-22)
(1.05291 -0.0310658 3.18565e-21)
(1.00869 -0.169506 -1.68805e-22)
(1.09658 -0.0708825 -1.76607e-20)
(0.953245 -0.0187448 -7.6197e-21)
(0.952711 -0.0136885 0)
(1.00183 -0.00935371 0)
(0.96743 -0.0373792 0)
(0.995437 -0.0129171 0)
(1.00542 -0.0170518 0)
(0.885622 -0.369744 0)
(1.18189 -0.131848 -4.98081e-20)
(0.995683 -0.0132896 -5.97128e-22)
(0.990435 -0.0268756 0)
(-0.208714 -0.00767393 8.24056e-21)
(0.325573 -0.045914 0)
(1.08585 -0.0313648 1.70952e-20)
(1.15664 -0.490993 6.53853e-20)
(1.09447 0.0306736 0)
(1.01167 -0.212583 2.26484e-21)
(1.19262 0.0249747 0)
(1.02249 -0.0205592 -1.59739e-21)
(1.01203 -0.0333147 -1.43393e-22)
(1.00172 -0.00888971 1.25811e-21)
(1.01044 -0.0321878 -3.69903e-23)
(1.05098 -0.0360124 0)
(0.703647 -0.259671 1.89628e-20)
(1.00492 -0.0122887 -9.91183e-22)
(1.02062 -0.00964643 -1.3946e-21)
(1.00563 -0.0142184 3.12005e-23)
(1.00227 -0.0104815 -3.3631e-21)
(-0.180561 0.0133729 0)
(1.03641 -0.18875 0)
(1.02627 -0.00680908 1.26371e-21)
(1.07515 -0.0214305 6.6872e-21)
(1.00111 -0.00563991 -2.70034e-21)
(1.1474 -0.0682559 -6.07301e-21)
(1.02406 -0.00893394 0)
(1.12765 -0.064389 9.65594e-21)
(1.15042 0.0741473 1.39479e-20)
(1.03899 -0.0145526 -5.20665e-21)
(0.797037 0.0716054 1.02277e-20)
(1.09946 0.0792304 -1.06359e-21)
(1.1834 0.0318601 0)
(1.14528 -0.0197643 0)
(-0.076265 0.0183311 3.84941e-20)
(-0.030247 0.0259214 2.22555e-20)
(0.98688 -0.0133257 0)
(0.998035 -0.0179985 -3.62927e-21)
(0.953605 -0.0178293 8.88569e-21)
(0.755416 0.0695881 0)
(1.11389 0.0543177 -1.05525e-20)
(0.998724 -0.0802083 0)
(-0.078624 -0.0317995 0)
(1.21225 -0.348972 0)
(1.03449 0.000204778 0)
(1.01599 -0.0219961 0)
(0.966836 -0.038235 -9.39783e-21)
(0.793937 -0.155139 0)
(1.07036 -0.0684924 0)
(1.00261 -0.00803245 0)
(1.00413 -0.00800942 0)
(1.001 -0.0248805 -2.7308e-22)
(1.01849 -0.0265709 3.34266e-22)
(0.188732 0.0193314 0)
(1.16872 -0.345733 -1.9679e-20)
(1.00485 -0.0455823 4.36408e-21)
(1.08936 -0.313228 -4.43465e-20)
(0.560537 0.0610446 0)
(0.999266 -0.00173086 -4.79687e-21)
(1.0133 -0.0319262 0)
(1.01698 -0.0707832 -2.06106e-22)
(1.12052 -0.0549441 0)
(0.180199 0.0194394 0)
(1.31632 -0.254869 -3.67436e-20)
(0.135737 0.0375694 0)
(1.11135 0.0434058 0)
(1.16445 -0.27095 7.07374e-21)
(1.16831 -0.494485 -7.35288e-20)
(1.09723 0.0774496 -4.73837e-21)
(-0.250188 -0.00463332 9.82863e-21)
(1.07539 -0.0205754 6.9949e-21)
(1.10732 0.0284102 0)
(1.08514 -0.00603106 8.24303e-21)
(1.07609 0.00929595 1.24488e-20)
(-0.117238 0.0178355 0)
(1.03537 -0.0174166 0)
(-0.0936002 -0.0295406 0)
(1.10495 0.0741147 -1.50923e-20)
(1.05081 0.00534473 -6.16655e-21)
(0.986585 -0.241439 -6.20915e-22)
(1.03595 -0.0176454 -2.33757e-21)
(0.154536 0.0461185 2.39844e-20)
(1.00554 -0.0677255 0)
(1.20835 -0.247561 -6.29082e-20)
(1.10168 0.0789697 -3.23193e-21)
(1.02823 -0.0120823 -3.73301e-21)
(0.613461 -0.022368 -1.24222e-20)
(1.02062 -0.0195776 4.02136e-23)
(1.00002 -0.00067286 2.31029e-21)
(0.570921 -0.0188107 1.18508e-20)
(1.05962 -0.0686834 -3.39124e-21)