/*--------------------------------*- C++ -*----------------------------------*\
| =========                 |                                                 |
| \\      /  F ield         | OpenFOAM: The Open Source CFD Toolbox           |
|  \\    /   O peration     | Version:  v2012                                 |
|   \\  /    A nd           | Website:  www.openfoam.com                      |
|    \\/     M anipulation  |                                                 |
\*---------------------------------------------------------------------------*/
FoamFile
{
    version     2.0;
    format      ascii;
    class       volScalarField;
    location    "100";
    object      ddt0(k);
}
// * * * * * * * * * * * * * * * * * * * * * * * * * * * * * * * * * * * * * //

dimensions      [0 2 -3 0 0 0 0];


internalField   nonuniform List<scalar> 
27915
(
-1.31504e-07
-1.95561e-06
-0.00148215
-1.80672e-08
5.37174e-08
3.69944e-07
-5.85161e-08
-0.00166143
1.84416e-08
-0.00163887
2.87713e-07
0.00158048
0.000999034
-6.20395e-08
-4.73823e-07
-1.20079e-08
-7.82982e-05
3.96825e-08
5.59906e-06
-0.0016584
0.00223431
-1.86328e-07
-0.0322022
2.0933e-08
-1.18674e-08
7.48992e-09
0.0110027
4.97864e-08
-0.00048427
9.35731e-08
5.13069e-08
2.10203e-06
1.39938e-08
-1.43756e-08
0.000428483
-1.32112e-08
1.14086e-08
5.08709e-09
4.36115e-06
1.7691e-08
1.07298e-06
1.10448e-08
-1.87023e-06
1.51493e-08
0.00749636
8.94296e-09
-2.90534e-08
-3.21678e-06
1.21145e-08
8.46088e-09
-0.00177679
-1.0583e-05
0.005978
1.20777e-07
4.66834e-08
-2.74983e-08
-5.86351e-09
-0.00207357
-0.00316899
4.85442e-08
0.000346633
-8.67376e-07
0.0100178
-0.000110984
1.97139e-08
8.94735e-06
0.00231335
-0.00175794
0.000254074
1.10023e-08
-6.02488e-05
1.76032e-08
4.32552e-08
0.000692445
-0.00107893
-0.000663666
9.28794e-08
-2.36024e-08
-0.00296293
0.000246957
3.70029e-07
-1.06526e-07
3.35248e-08
-0.00176071
-0.0107889
0.00357913
-7.92509e-09
-6.30376e-05
0.0064145
0.000120311
7.82746e-08
0.000705691
1.64025e-08
0.00969075
-0.000632264
-0.0016359
-1.07385e-05
-0.00216743
-1.07301e-06
2.91404e-09
2.59946e-08
6.6974e-09
-0.00204836
-6.80717e-07
9.97189e-07
-1.03451e-07
0.00418809
-2.02025e-06
4.54858e-09
-0.00205558
0.00648051
9.03744e-07
0.000608396
0.00178904
-1.46157e-06
-7.511e-06
-0.0480991
2.02183e-06
-6.22026e-07
1.35068e-08
5.78598e-08
0.000431361
1.11939e-08
-1.8562e-07
-1.49741e-08
0.0201585
0.0334413
0.000150651
1.53287e-08
-1.6635e-08
-1.69443e-06
0.0105883
0.00958189
-0.000283095
0.0167409
1.44985e-05
-0.000124276
6.08999e-10
5.09566e-09
2.87161e-08
1.83321e-08
3.8373e-08
-1.23548e-08
-0.00111429
0.00452438
-0.00186537
-9.48382e-06
-3.07299e-06
-0.000725682
5.08982e-09
-0.0475348
1.77699e-09
-2.84303e-05
0.00750874
-3.3244e-05
-0.00211734
0.000282108
-7.93735e-08
-1.3007e-07
3.84719e-08
-3.43538e-05
0.00010283
7.15667e-09
5.58985e-06
0.00529907
-1.57495e-08
-3.21763e-05
0.00921943
-0.00131559
8.81785e-10
3.89244e-06
3.68236e-08
-1.50876e-08
-3.34303e-06
-5.63761e-08
0.000699239
-0.00200146
-4.19761e-07
-5.72286e-08
-2.88671e-05
0.0023565
4.53253e-05
2.74981e-09
-0.00199599
1.45513e-05
0.00580176
-1.90324e-08
-1.20457e-07
-0.00104616
-6.88604e-09
-0.00715879
6.58381e-07
-1.62316e-06
-3.56842e-07
3.98161e-08
-5.01891e-09
0.00480601
2.65874e-05
-2.19762e-08
1.60921e-07
0.00903275
-0.0529932
-6.41071e-08
-1.84883e-08
0.000335115
-2.90335e-05
-3.51617e-06
-7.93996e-05
-0.00583351
3.73431e-08
1.00316e-07
0.0196354
-1.42979e-08
-1.52571e-08
-1.43635e-08
1.5951e-08
-5.63542e-05
-3.57154e-05
-8.15399e-09
-8.8517e-08
-7.1033e-09
-7.0879e-06
5.02288e-08
-1.48919e-07
0.000801583
0.00102343
1.59177e-08
0.0190581
1.2005e-08
3.77566e-08
0.000280261
-1.58216e-05
0.0193244
0.00557636
0.0023033
2.59398e-06
0.00819418
1.51862e-08
-3.00961e-10
2.40926e-08
0.0131712
4.19377e-07
-3.80175e-05
-0.0393712
1.28853e-08
-6.56749e-08
0.00657324
-2.58306e-05
1.37781e-06
-6.95413e-05
1.54042e-08
-0.00234885
2.00996e-08
5.25692e-08
-8.21137e-08
1.0937e-05
-7.34994e-08
-3.52717e-08
-4.8864e-07
0.00521047
-0.000724304
-9.41962e-07
0.000108246
0.00170845
-0.000100065
7.21141e-05
9.56307e-09
-0.00682721
-0.00241765
0.00710313
1.3892e-07
0.000942431
0.000281685
0.000315472
1.30072e-06
8.72297e-09
-1.01905e-06
3.65655e-07
2.63971e-08
-1.67336e-07
-8.43901e-09
1.98441e-08
-2.13347e-08
-1.60813e-05
-0.00332111
-0.00211746
-0.000354508
0.0149319
1.04527e-07
-0.00596901
0.000914207
3.80727e-08
-6.39672e-05
2.92993e-08
-8.86487e-07
-1.426e-06
-0.00238602
-0.0137714
-3.09364e-06
-1.87472e-08
-0.0200683
-1.3087e-05
5.67231e-09
-2.11962e-08
-0.0015149
-0.0122624
1.98856e-07
-1.59467e-08
-0.00203241
7.82343e-07
0.0163151
-3.57098e-08
5.06417e-05
-3.22086e-08
0.00948463
3.51952e-09
2.66963e-09
-0.00191443
0.000122295
0.000248377
-9.20336e-05
2.21494e-08
6.79797e-09
-1.91571e-08
-2.33341e-05
-1.37683e-05
-0.000392583
-0.00060263
-3.05248e-08
3.51439e-08
4.66545e-09
-0.000105806
-4.46225e-09
9.74816e-09
0.0124969
-4.4259e-08
-2.00889e-05
3.89513e-08
0.0096472
0.000335466
1.06702e-07
-0.000629675
3.87703e-05
-0.0010687
-4.23847e-08
-4.6218e-07
-4.15889e-08
0.0280623
-0.00220817
3.23676e-08
-2.68803e-08
3.29749e-08
0.0197364
-3.59169e-05
-6.29062e-07
-5.08679e-05
1.91178e-05
-7.84497e-09
-9.46525e-09
0.00532341
-1.07083e-06
3.61339e-07
1.96994e-07
-7.70752e-09
-6.2678e-07
-0.0013287
2.33988e-06
2.72549e-08
4.71837e-08
1.4898e-08
-0.000586044
-5.19351e-08
-2.64623e-06
3.25864e-08
-0.00251859
-5.81069e-08
3.29252e-08
2.25431e-06
3.72667e-06
3.6102e-08
5.84988e-07
3.07139e-06
-2.64826e-06
0.00205868
-0.000841545
-7.79075e-07
-0.000482539
2.79424e-06
4.77474e-08
-0.00234006
-3.11289e-08
0.00474752
-0.00251009
7.50716e-09
-0.00194526
-1.60008e-06
1.99982e-06
-2.50202e-08
-4.12035e-08
0.0123936
-2.81777e-09
-1.45677e-06
-0.000741647
-1.35664e-08
-0.0234425
-4.77664e-06
-1.019e-05
-5.89149e-09
0.0136636
-4.05195e-06
-0.00119699
3.01367e-06
6.682e-09
-1.07279e-07
0.00203161
-3.51417e-09
8.67075e-07
6.65212e-07
-1.80543e-06
-3.6563e-06
-1.99484e-05
-1.84826e-08
1.94985e-08
-0.00584042
0.00591237
1.30639e-06
1.93733e-08
-0.0105659
-0.00473161
-1.22125e-07
-0.000258635
9.82769e-07
0.000111805
9.62701e-08
-1.53824e-08
3.94841e-08
-1.59184e-08
-1.56507e-08
0.000307963
2.17711e-06
0.00793456
-1.78926e-05
-3.52217e-06
-3.75254e-06
-1.77297e-08
1.62068e-06
-0.000828818
-1.67425e-08
-0.000123496
3.12854e-08
0.0222381
0.000183338
6.15189e-09
-1.43274e-08
0.00637887
0.00190514
0.000996736
-9.22537e-07
-1.24531e-08
-0.000714208
8.12057e-09
-1.81498e-08
-2.40002e-05
1.62906e-06
-0.000370558
-0.0077684
-2.05318e-08
1.36375e-08
0.000599541
-0.000258107
1.69062e-08
1.54961e-08
0.000309344
-2.78358e-08
0.000108879
3.44971e-06
1.98224e-08
9.6004e-09
1.05484e-05
-3.99209e-07
0.000137633
2.37168e-06
-0.000942292
0.00712327
0.000181234
-1.63022e-07
-2.44661e-06
0.000174537
5.90507e-05
1.70928e-08
0.000158814
0.00082666
3.15114e-05
5.84501e-07
-0.000501952
2.39664e-07
-3.27609e-06
0.00659378
-0.00241299
-0.000813319
6.88094e-09
5.10518e-07
-0.000246713
-0.0124641
0.00521792
-0.000610449
-2.43957e-08
1.13063e-06
-4.18354e-06
-0.0156428
-3.32887e-08
-3.31414e-06
1.72033e-06
0.000941431
8.01158e-05
-0.00614985
-0.00185452
9.6413e-09
-2.66183e-06
5.86172e-07
-1.52115e-08
5.26998e-09
9.1922e-10
0.00500445
2.34278e-08
0.000493254
1.16647e-07
-0.0026253
0.00138323
-0.000921333
1.95755e-08
0.00609596
0.000225071
-4.53882e-06
-2.81038e-06
-1.11214e-05
-0.00184186
3.20124e-08
-1.54609e-06
-2.00577e-08
4.54248e-08
8.84767e-05
1.11935e-08
0.00113013
-1.60005e-07
0.00814836
-2.2617e-08
-0.00266317
2.75343e-08
-0.000894555
4.75216e-08
-2.84339e-08
4.22479e-06
0.00748981
2.16793e-05
1.61079e-05
-0.00533718
-0.00673596
0.00222143
-8.60505e-09
5.13197e-06
-0.00135599
-1.07174e-06
1.18685e-08
9.43598e-09
-3.03331e-08
-0.000388651
1.53976e-08
9.52597e-05
-1.37495e-08
-2.01461e-06
-0.00178001
-1.63991e-06
-0.00691463
1.53257e-08
0.00229814
0.000337034
0.00288407
0.000617589
2.36207e-08
-2.94328e-08
-2.0718e-06
2.17676e-06
-0.00258783
0.00847152
-2.03725e-08
-0.000947694
-1.37437e-08
-1.22414e-07
-4.07015e-05
-3.23486e-08
-2.43346e-08
0.0018363
2.18893e-06
-0.0119621
4.14326e-08
-0.000875933
-1.04955e-05
4.60143e-08
-3.90236e-09
0.00112038
-9.89236e-09
1.16153e-08
-4.60791e-10
-0.000842844
1.10133e-08
-0.00535999
1.07737e-08
2.1699e-08
0.000132739
0.000886701
1.22103e-08
-0.000820974
-0.00388289
-0.000411468
3.01086e-08
2.89725e-09
0.000151105
2.21085e-08
0.00384841
-6.55237e-09
-4.88574e-08
-4.17603e-09
-2.49712e-07
8.08321e-09
-3.02864e-07
3.58082e-07
-3.1107e-07
1.9464e-08
-8.41656e-09
0.00114657
-0.000829962
-0.000858352
-3.45816e-06
-0.00156713
0.00449134
-1.76443e-05
-2.91034e-10
0.000478509
0.000395332
0.000140868
-3.1013e-08
-0.0161708
-1.52257e-08
-9.89841e-09
1.89339e-08
-0.00743889
1.86531e-08
-5.14922e-08
3.45266e-08
0.00190816
4.68567e-05
-0.000477922
-0.00258919
-0.00272653
2.2461e-07
0.00817979
0.0131015
-0.00307145
2.1664e-09
-1.29472e-08
-0.018494
1.24246e-08
0.00238747
5.45951e-06
-3.39846e-10
-0.00325778
-6.01341e-07
5.47962e-08
4.01983e-07
3.09652e-09
3.42516e-08
9.79806e-08
1.08485e-08
8.46347e-09
-3.05267e-08
-3.12454e-08
0.0236569
-3.7718e-08
-0.000103117
-4.55514e-08
4.21489e-07
0.000399182
-2.52127e-08
-2.01279e-07
-0.00475853
-0.00259405
1.55034e-08
-4.20678e-08
1.31778e-10
-1.36659e-06
0.000704411
-3.61638e-08
-1.35397e-08
1.33939e-05
2.59111e-09
0.012315
0.00456206
0.00078657
-7.36788e-09
0.00155634
0.0113005
2.65466e-06
-1.5825e-08
0.00197697
3.339e-09
-0.00243229
1.03715e-06
2.23777e-07
3.60669e-08
-3.69304e-08
-1.68686e-08
-5.9543e-09
3.57303e-06
-0.00709511
0.0241678
2.37288e-07
2.04473e-08
-1.90717e-08
-0.00313988
0.000450533
-5.03399e-08
0.00383297
3.30454e-08
0.00657924
5.66678e-06
-0.00233598
2.43656e-08
-9.19031e-07
0.0050876
-1.07242e-08
1.56115e-06
-0.00750988
1.30527e-10
3.68445e-06
-6.83725e-05
2.48184e-09
1.05365e-07
-0.00209578
2.70827e-05
-1.07728e-07
-6.98893e-09
-0.00293031
0.00664156
7.8993e-05
6.43218e-07
1.93555e-08
-8.3126e-09
-0.00842477
-1.76812e-08
-5.48803e-09
-1.06013e-09
1.22e-08
2.95125e-08
1.93507e-07
-0.00196715
-1.04889e-06
-0.000340629
3.6664e-08
0.000973386
-1.90887e-08
0.000305216
-1.29228e-08
0.00684997
3.12389e-09
-0.00167141
9.1891e-09
-0.00213782
-0.000177095
-0.000216704
4.22166e-06
3.50986e-06
0.00204854
-0.000406335
-2.52889e-08
-0.00459617
9.80433e-10
2.3122e-08
-0.0216565
-6.31087e-08
-3.44494e-08
9.36674e-08
1.00186e-08
-0.0172883
5.66389e-09
-1.50292e-07
-2.82269e-09
-2.01753e-06
-2.04156e-08
3.7003e-06
1.08241e-07
-0.00450555
-0.001584
-9.97224e-10
1.60332e-08
-0.0181482
3.16733e-06
1.96066e-08
1.47001e-08
4.09314e-08
-0.00020793
-0.00024201
3.46627e-07
3.37565e-08
-4.45473e-09
1.32045e-07
-0.00823711
-1.92051e-08
-6.8534e-06
-2.23859e-06
-1.02563e-08
-1.50824e-07
-0.00104237
-0.00979119
1.67127e-08
-5.25511e-08
0.00173095
0.000774462
0.000609992
1.59395e-06
-3.76486e-08
0.00324018
-1.48447e-06
0.00204309
-3.25455e-08
5.90626e-07
8.03492e-07
1.17968e-06
2.73927e-08
0.00384896
0.000914667
-7.93967e-06
-2.18223e-07
0.00863144
6.04333e-07
-1.00142e-07
-2.22845e-08
-0.00571124
-1.68158e-07
5.02879e-06
-0.000973364
-1.07781e-07
0.00218984
0.00333322
0.00570086
0.00908737
0.00866787
5.17625e-08
-6.16855e-08
7.76345e-07
0.000312935
-0.00250187
4.77019e-09
-0.00748234
-8.81856e-08
-1.2229e-08
4.7012e-05
-1.48898e-08
1.90658e-06
8.43543e-09
0.0042314
-5.4664e-06
2.53508e-08
-1.47904e-08
-0.000256347
0.00119104
5.53783e-06
-0.00287758
-0.00972636
-0.000801157
1.31862e-07
1.15765e-07
-1.0794e-08
-1.60708e-08
-7.96842e-08
-0.000259992
-0.00348366
1.59088e-08
-2.35406e-07
1.26867e-08
-0.0187772
0.0128759
-0.000909943
4.43435e-08
-1.09382e-06
1.43214e-07
-1.31205e-07
-2.11048e-09
-0.00644805
-0.000961349
-0.00277005
4.22712e-07
3.51339e-06
-0.00230431
-2.38784e-06
-0.00381415
-1.03559e-08
-2.2768e-08
-1.39617e-06
1.41192e-08
6.30281e-07
0.00152221
-7.92821e-07
1.50477e-08
-9.981e-07
7.89808e-05
3.56059e-09
-1.32813e-08
-7.96989e-09
6.51234e-05
-8.25471e-09
-0.011835
4.56365e-09
0.0047763
1.11807e-06
1.36364e-08
-5.14828e-09
0.00132037
-8.25744e-08
-0.00142947
-8.15571e-09
-2.42016e-07
-0.00012763
-1.87723e-05
0.00854625
9.64163e-09
-1.47146e-08
-1.8323e-08
-0.000220094
-8.65844e-08
0.000389558
-8.60392e-09
1.37572e-08
3.51456e-08
0.000853259
0.00606645
0.000935487
7.77155e-08
0.0136907
2.80091e-08
-1.35671e-08
4.00427e-09
3.74058e-08
1.22568e-08
-0.000207374
4.64328e-07
0.00219241
-1.30527e-08
3.04531e-08
-2.12888e-08
-5.72794e-08
-3.24293e-08
-0.00771365
1.18954e-08
2.76956e-09
-0.00257041
-0.0144201
-2.07369e-08
1.4778e-07
-2.00848e-08
0.000113802
4.9821e-07
0.0014293
-1.26627e-06
-0.00375368
2.2186e-06
-8.43571e-09
1.32324e-08
5.35985e-07
-0.000341129
6.3489e-05
-5.74613e-09
-0.00172094
-0.00184972
-0.00373844
-2.32062e-08
-4.94755e-07
2.83396e-08
-5.95587e-06
8.72194e-07
-7.92219e-08
-0.00118093
-8.83796e-09
2.11314e-07
0.000657934
8.12913e-08
-4.83013e-09
-0.00292014
-0.00155636
0.00907678
0.000570673
0.00981405
-4.17957e-08
0.00778557
8.91268e-06
-0.00255075
1.86607e-05
-0.00140957
-0.00167269
-0.00130064
0.00198787
1.0848e-07
-0.00216841
-0.000426539
5.29311e-08
7.32966e-08
2.23024e-07
-1.57126e-06
2.88039e-05
-3.25883e-07
2.51676e-08
-1.81223e-07
0.00654253
1.0443e-08
-1.84208e-08
-0.00094562
-0.000290671
-1.44547e-07
0.00334003
-5.79975e-08
5.19857e-06
-2.11769e-08
-0.00340712
-2.74279e-06
-0.000257198
-4.21129e-08
-3.14809e-06
3.79111e-08
0.000161297
-7.84231e-08
-1.37227e-08
1.31882e-08
4.04686e-08
-2.73245e-07
-5.04665e-06
1.7338e-05
7.99271e-06
-0.000837045
-2.93922e-08
-0.0190715
-0.00188284
2.29983e-08
1.31456e-08
-0.00117659
2.10905e-08
-0.000840304
1.64912e-08
1.02241e-07
3.70213e-08
-3.12477e-06
8.65098e-05
3.02044e-08
1.44211e-08
0.00611467
-4.69032e-08
-2.76385e-08
1.40488e-08
3.2095e-06
-0.00135776
4.07046e-07
-0.00115545
-8.11672e-09
-2.92201e-10
-4.08617e-08
-1.11383e-08
1.09203e-07
-2.58694e-08
-1.46942e-09
-6.03659e-07
-1.21185e-10
-3.61768e-09
2.67078e-08
-6.5926e-07
6.65177e-08
-2.13415e-06
4.23013e-07
-0.00225002
-0.00236029
-3.51183e-07
-3.47748e-06
2.14802e-08
-0.00106686
0.00423183
1.93841e-08
-1.16705e-07
2.66825e-07
3.66513e-05
-0.00676066
-5.66391e-07
0.000355269
-7.18893e-05
-7.25551e-08
-0.00334445
-2.93274e-07
0.00685141
-2.31438e-08
5.93756e-07
3.49816e-08
-0.00622599
-1.32744e-08
4.14044e-06
0.0111479
2.19778e-08
-3.51243e-05
-2.43397e-06
1.96469e-05
3.76379e-08
-2.39976e-08
3.72118e-06
0.000223554
3.83455e-06
4.75221e-10
0.00679232
-1.35177e-07
-1.31287e-07
6.3007e-08
-1.58577e-05
-6.76007e-07
-2.55921e-07
1.72692e-08
-0.000302975
1.43514e-06
1.2083e-06
6.269e-05
0.01433
2.15184e-08
0.00193605
-7.92749e-10
-8.31056e-08
4.46014e-08
-0.00270193
-1.73287e-08
-1.38745e-07
-2.53081e-06
-7.66143e-08
0.00514426
-0.00012424
1.92098e-08
2.58932e-09
-1.25678e-07
-1.95674e-06
-5.89008e-09
0.00474498
1.40364e-08
-2.40323e-06
-1.53044e-08
-2.46248e-06
-8.70033e-09
-0.0024019
0.0118029
0.00188138
-0.00185828
0.00681911
1.98376e-07
-0.000744638
0.0094276
0.000173326
1.74266e-08
-0.00010577
3.43887e-08
0.0132592
5.21513e-09
-3.10616e-09
-1.23814e-05
4.67452e-07
-1.85398e-07
-0.000697315
-1.44574e-07
0.0117571
-5.07346e-07
-0.0023668
-0.00665187
-1.66562e-08
-0.000491692
0.00133123
1.6842e-08
9.89276e-09
-2.25353e-06
8.79451e-09
3.21002e-09
-0.0021333
7.70648e-05
0.00483458
1.48395e-08
-0.000161487
-2.36853e-08
0.000564999
0.00858489
-0.00235801
-0.00837605
-1.10048e-05
-1.27206e-05
-0.00238009
0.000285108
-3.05737e-05
0.000145453
-0.0116476
-2.26401e-08
2.62756e-08
0.0213112
-9.65942e-06
-3.13301e-08
2.73308e-08
-1.21458e-07
-7.96362e-09
0.00211622
-2.63342e-07
-0.0014861
-0.00394779
1.42597e-08
1.60023e-07
-8.61678e-09
-2.21886e-09
3.64531e-06
5.77156e-08
-0.000122673
3.39714e-09
3.54002e-08
-2.49451e-06
0.000900864
-0.0188749
8.04631e-07
-1.38501e-05
-1.8216e-08
-1.29475e-06
-0.000269014
-7.95892e-08
1.57536e-05
5.76057e-05
-2.74121e-06
0.00131272
0.00208672
-1.52482e-08
5.45973e-09
4.17298e-06
1.57902e-09
1.25029e-09
0.000291683
-3.27287e-05
-1.75853e-08
-2.72198e-08
-3.82612e-08
2.8878e-08
0.000731582
-6.90217e-07
0.000124338
0.00157611
4.41004e-07
2.51578e-06
0.000229554
-0.000466468
-1.79887e-08
5.66161e-07
1.6113e-06
8.02346e-10
-4.03417e-09
-0.00622337
3.23226e-07
-2.34659e-08
0.00865923
-3.00789e-08
0.00942549
-2.93418e-08
9.81356e-09
-3.08609e-08
-3.78015e-06
0.0140168
-2.356e-08
-6.70151e-05
-0.00197651
4.50403e-09
6.90134e-07
-0.00189731
-0.00231727
-7.02463e-08
1.68613e-07
2.42908e-05
-0.00616147
0.0340044
3.33356e-06
2.44848e-08
1.69909e-08
0.000952395
-0.000161623
-0.000107267
7.96426e-07
0.00781655
1.27206e-08
0.0051147
9.95908e-07
8.45723e-08
-2.72423e-06
0.00509659
-3.56066e-08
0.0138524
6.62095e-07
1.56398e-07
2.45534e-06
-0.00691239
-2.02672e-08
-0.0240291
-8.11526e-08
0.000118417
8.09355e-07
0.00372548
-1.72801e-08
-2.52411e-06
0.006578
-2.38023e-08
-1.82007e-07
-3.15653e-05
-0.0020831
-0.000265043
-1.65659e-05
2.16437e-05
9.79804e-08
-1.50356e-06
-0.00357466
-5.38109e-07
2.68455e-08
6.45884e-08
-0.000236993
-0.000803727
-0.00509789
-4.77672e-05
8.67709e-09
-1.54415e-08
3.32082e-08
7.06229e-08
8.83059e-06
-0.000386312
-0.000106585
-6.31191e-07
-1.27588e-08
0.00433537
-1.87627e-08
-7.72382e-05
0.00103696
-3.34084e-07
-5.16867e-07
3.86448e-08
0.0089754
-1.64133e-07
-5.3737e-07
8.54541e-07
8.55109e-07
-1.31041e-08
-0.00100211
7.70565e-06
-1.62888e-08
-2.62576e-06
0.00166545
3.96693e-07
-0.00728109
3.04504e-07
-0.00204924
-0.00151814
-4.29073e-09
-4.13438e-08
2.41823e-08
0.0109171
-0.00270413
3.89018e-06
0.00264541
0.00540273
-1.30138e-08
1.9756e-08
5.04942e-09
-2.19461e-08
-0.000649876
0.000109775
-6.81845e-07
8.11226e-06
-3.62281e-06
-2.2963e-06
-3.08792e-08
7.18667e-07
0.00106743
-1.31678e-08
2.11724e-08
3.60811e-07
-2.99832e-08
4.03842e-08
3.54261e-08
9.0726e-06
-2.49991e-08
-0.00602482
2.9949e-06
-1.87211e-07
-4.55123e-08
-2.41354e-06
-0.00473671
-2.27846e-08
6.40449e-05
8.2478e-08
-0.000119219
-8.23053e-06
0.00578256
-0.0127965
-2.07869e-08
0.00203352
-0.00679721
-9.58548e-08
4.31231e-08
0.000170373
1.27018e-06
2.77604e-05
4.09686e-08
-1.03646e-08
-0.00143075
2.20738e-07
4.51772e-06
4.09862e-05
-3.12321e-06
0.00764886
1.17643e-08
0.00771262
-0.00175562
-9.67878e-07
0.00691035
0.000133563
-0.0123254
8.48239e-06
-0.00459862
1.29544e-06
-0.00541963
-0.000256951
0.000138666
0.00220784
0.000570823
0.00102694
3.59817e-08
-2.21033e-05
1.00911e-07
-0.00820769
2.36781e-06
0.00106687
-1.34358e-08
-0.0010696
1.60029e-08
3.65457e-08
-2.70501e-08
5.2083e-07
-1.34692e-07
-5.78486e-09
-1.6777e-08
-5.7505e-08
0.000242747
-1.65523e-07
-0.00219207
3.59432e-08
0.00113182
5.39916e-08
-5.61442e-09
0.00592739
-5.55937e-08
0.00119634
-7.47958e-06
4.98455e-09
-0.0151716
-1.52437e-06
-0.000546009
2.60877e-07
0.0110733
-2.47427e-07
-1.87054e-08
-1.01488e-08
3.28016e-07
-0.00452984
0.000902269
0.000957147
-2.60805e-08
-2.43612e-08
0.0213167
-2.52311e-07
-0.00604652
-7.34617e-09
-1.41395e-07
-2.67117e-09
4.53299e-06
-0.000396411
-0.00698676
-5.33262e-09
2.21618e-07
-0.00196446
3.22788e-08
-0.00164336
0.0043096
-2.009e-06
-6.83448e-05
1.1659e-07
1.82579e-07
0.00209903
-1.87991e-06
0.011986
6.89962e-06
5.49953e-08
0.0021515
0.000426818
-5.44721e-09
-4.33057e-08
-3.67544e-08
-9.91558e-09
0.000157989
0.00404938
-0.00344147
3.98235e-08
-1.43596e-08
-4.3887e-08
-1.41959e-07
1.2621e-08
1.41541e-07
0.000113721
7.57451e-08
-4.13855e-08
-0.00025443
0.00771259
1.22559e-05
0.00114544
-0.000620842
2.09484e-08
1.39991e-05
-0.000786956
-0.00199903
0.000961743
-1.54814e-08
-0.00115448
7.64489e-05
-1.12044e-07
0.000589006
-0.00120158
1.09801e-08
-0.00261374
-2.1231e-08
-1.89883e-08
-6.87791e-05
1.89291e-06
-0.00132595
0.00194128
-3.78041e-08
-0.00165628
-7.48315e-06
-1.38048e-06
-0.00427481
-0.0129044
3.22449e-08
1.80279e-08
3.2634e-08
5.18623e-10
1.75439e-08
0.00689197
-3.7419e-08
1.17613e-08
-0.000823632
0.0220976
0.000658937
-2.78237e-06
2.00085e-07
0.000506881
7.02656e-05
-0.00315016
-6.23712e-08
3.15095e-08
-1.14438e-08
-5.07952e-09
0.000154445
1.83987e-06
1.28038e-08
-1.46862e-06
-4.48173e-05
1.33534e-07
1.62101e-08
-1.27908e-08
-1.33853e-08
0.00798487
-0.00824973
9.60993e-08
-1.20656e-08
1.31454e-08
4.73816e-08
-1.22718e-07
2.39383e-08
1.57696e-09
-1.86669e-08
-0.00503171
-6.65679e-09
-0.00739629
3.12423e-08
-0.00624477
3.08095e-08
-0.0124867
-0.00147421
0.000194818
-0.000318724
0.0184347
-2.53877e-06
-0.000738875
-0.00428037
1.84325e-06
0.00384196
5.57021e-07
0.000501155
0.00081804
-0.0211962
-6.61475e-10
-0.000512075
3.02353e-08
0.000105436
0.00157861
-3.10458e-05
-2.56112e-07
1.49361e-08
-3.69019e-08
-1.38961e-08
-0.0104581
0.0042153
5.58113e-08
0.0147985
-1.21785e-05
-0.00222429
-9.16777e-09
-8.60808e-06
7.55288e-09
1.24511e-05
-0.00791871
-0.00299494
-5.6832e-05
1.62575e-08
-6.4209e-06
3.53384e-05
-0.000559133
-3.93742e-09
1.64027e-10
-8.9896e-09
-0.0130359
0.0017277
-6.09959e-08
3.10454e-08
-1.86558e-06
2.31288e-08
-0.00400594
0.00105385
4.06035e-06
-0.023104
-8.04176e-09
-0.000247718
-0.0217716
-0.0199283
1.73423e-08
-1.43557e-06
0.000312605
0.00208293
-2.3845e-08
0.0184837
0.00867594
6.42862e-08
-3.04598e-07
0.000596815
3.09366e-06
-0.00257891
0.00200691
3.9249e-08
1.44391e-08
1.03167e-07
-7.65065e-09
-1.91968e-08
7.86733e-08
-3.62999e-06
4.84066e-08
1.10104e-08
6.31641e-09
-2.17836e-07
-4.00593e-08
0.000140532
1.13585e-08
-0.00277051
-3.38232e-07
-3.22529e-06
-1.61494e-08
9.8958e-08
0.00870967
-1.95732e-06
1.00336e-08
2.83806e-07
3.19087e-07
-4.43894e-07
-0.0164866
-0.00441671
0.00528401
-0.0104936
0.00187915
-0.00298547
-0.00477092
3.07846e-06
1.48827e-06
6.09095e-09
-2.59637e-08
0.00131752
-1.66292e-09
-1.28914e-08
6.07208e-08
-6.94782e-08
1.53411e-08
4.47315e-08
2.65674e-09
-2.6e-07
-0.00502087
-1.07268e-06
-3.37628e-08
-3.01969e-08
9.83213e-08
0.00503218
3.04412e-06
-6.8068e-07
-4.05624e-05
1.05653e-06
-0.00667706
-2.20612e-09
3.90038e-06
-3.36953e-08
2.05452e-08
-4.28862e-08
2.48028e-05
0.00900017
-2.46055e-06
1.07468e-08
2.04923e-07
0.00271723
4.07101e-08
-5.23345e-06
3.89583e-08
1.01198e-05
-0.000808436
3.72484e-06
2.13874e-06
2.214e-07
4.46237e-08
2.11132e-05
-5.97345e-07
-0.00893561
-0.00325084
0.00622123
-0.00430929
0.00673716
1.34106e-08
3.2571e-09
8.28834e-09
0.00100202
-1.10347e-07
-0.000761473
3.26002e-07
-1.17724e-08
0.00624382
0.00559226
3.02027e-09
5.80464e-08
4.37569e-05
-0.0012122
0.00477123
3.47415e-07
-0.00230056
-3.93586e-09
-0.000278731
1.18499e-05
1.68115e-06
1.14421e-07
0.017518
6.5842e-08
-0.00270148
-2.43221e-08
0.00565602
-0.00734451
0.000100159
6.17045e-08
1.66714e-06
2.23277e-08
-1.51652e-08
-9.69607e-08
-2.32208e-06
6.63505e-08
-0.00132162
1.50495e-06
8.63797e-08
5.76712e-08
-0.00260958
3.59416e-08
0.00612242
0.004346
-8.97791e-06
-0.00716591
1.61813e-05
-4.86086e-05
6.00322e-07
-1.94618e-06
2.47709e-08
-0.00547291
-0.0145971
0.00640467
-0.000201226
-0.00362818
-4.02389e-06
-0.0124588
2.23029e-08
-0.00761789
0.0105692
-0.000970001
-1.36441e-08
0.00252983
-0.00127198
2.66858e-05
-1.90702e-07
3.25667e-07
0.00531942
-2.31026e-08
-0.0018293
3.09292e-07
-3.67302e-06
2.9686e-09
-4.73095e-07
2.56272e-08
-6.25756e-09
2.49625e-08
2.10143e-07
5.85311e-09
0.00173762
-5.19471e-08
7.05825e-09
-4.26394e-05
3.7348e-08
4.43619e-07
4.10309e-07
-5.34726e-08
0.0054061
-1.78688e-06
6.81117e-07
-3.99637e-08
-1.4569e-08
0.00160272
2.66945e-08
3.74819e-08
6.3044e-07
0.00205197
1.74644e-08
5.6022e-07
-1.6192e-08
1.62378e-07
3.32713e-07
-6.00506e-09
-0.00234
5.0317e-06
-0.00158861
-5.01764e-08
4.06083e-06
-2.48451e-08
-0.000632602
-2.88876e-05
1.0022e-09
-0.00171539
2.06016e-05
3.93614e-09
0.00325723
1.47258e-08
9.6896e-09
9.54916e-07
-2.60246e-07
-2.68939e-08
9.09369e-08
4.4952e-07
4.36298e-08
-1.85032e-06
-4.67885e-07
1.0957e-06
1.21085e-08
-3.44861e-06
7.71549e-09
-0.00702854
1.56195e-05
2.42718e-08
-0.00239881
-2.69876e-08
-6.37972e-10
0.000672505
0.00026535
0.00120071
4.14693e-06
0.00109193
-0.00203375
1.28696e-07
-1.45195e-08
4.24388e-06
-0.0020738
-2.31298e-08
3.20639e-05
8.03075e-07
2.08149e-08
0.00429131
-1.6139e-05
-2.1968e-05
4.00288e-07
-0.00232038
-2.09118e-09
-3.45971e-05
8.5387e-07
8.29981e-06
0.00873828
-0.00684361
-8.05021e-08
-1.07775e-07
-0.00229961
1.05813e-07
-0.000437931
-0.00550696
-1.48081e-08
1.26672e-05
5.60139e-06
1.06252e-07
-0.0168926
8.01153e-08
0.0243405
0.00592932
5.16238e-08
-2.99366e-05
-1.26627e-09
-6.03553e-09
4.51436e-07
-0.000217818
5.23826e-10
-2.8136e-08
-0.00762661
-5.36655e-08
-0.000105271
-0.00283513
-5.10183e-08
0.00102811
-1.0819e-08
-6.82868e-07
-6.89346e-09
-1.31181e-08
1.80569e-05
2.52296e-07
1.84465e-06
-1.37241e-08
-1.43662e-07
-4.1808e-08
-0.00281153
-2.98071e-06
0.000673588
-0.00260729
0.00119521
8.36993e-08
2.24326e-08
-0.000440146
3.50363e-08
-3.00978e-08
0.00576331
-3.85833e-06
1.5988e-09
-2.50037e-07
-1.68549e-08
6.01123e-05
-3.02269e-06
-1.8819e-08
-0.00273592
9.73658e-06
-2.30044e-09
-1.31539e-08
-0.00574959
-0.0101835
3.55415e-08
-1.27231e-08
-0.000222415
3.93351e-06
-0.00760098
-2.34258e-09
-0.0123521
1.66049e-07
-7.71521e-06
-0.00191579
0.00278989
-2.23192e-06
0.00519351
4.45702e-08
0.00454911
3.16148e-08
0.000899167
0.00101083
-1.24495e-07
-0.00209417
6.94069e-07
-3.04088e-08
-1.43027e-05
0.00101853
-0.000234004
-0.00366293
4.13638e-09
-0.000251901
-3.95744e-05
-1.00721e-05
2.83232e-07
-3.16127e-07
-5.99063e-07
-0.0018875
-0.00192816
-0.0102676
-0.00141956
1.04517e-07
1.69556e-05
0.00408118
3.79214e-08
-1.30829e-08
6.68248e-08
-0.00284153
-1.8908e-06
0.0193942
-0.015684
2.15893e-06
-1.16097e-07
-0.00329198
-6.52805e-07
2.54781e-06
0.00650636
0.000651636
-0.00450315
1.39666e-06
-4.12469e-08
-0.000891443
-6.07218e-09
0.0089332
-1.57202e-08
3.22002e-09
-1.04928e-06
0.000916435
-0.0124999
0.000114152
1.91305e-07
0.00306973
-5.13068e-11
-4.19488e-07
-2.28338e-08
3.79595e-06
0.00131156
-0.00459466
-0.000827197
-0.00819985
-0.000192158
-0.00584251
-2.61357e-08
-0.00116731
2.80218e-08
-0.00106373
-0.00191483
-1.51072e-07
9.86176e-08
-0.000177675
-4.32659e-06
1.70428e-09
-6.64568e-09
0.000234118
-2.94545e-09
-1.26824e-07
7.13023e-08
-0.0019849
-5.3705e-09
-1.0779e-07
-3.68124e-06
0.0037333
0.00498241
-7.2626e-09
-3.82634e-08
-0.00142055
-3.90932e-08
-0.00528222
-4.73109e-07
0.00465277
-1.64167e-06
3.82926e-08
-3.06312e-08
-1.1886e-09
-0.0130441
-2.49683e-07
-3.6402e-07
-1.2196e-06
0.000332751
1.46723e-05
0.001553
0.00194575
-3.47723e-08
0.00198732
-2.47416e-08
2.43026e-08
-6.38646e-07
0.00914796
-2.14413e-08
1.96309e-08
-0.00615055
3.91613e-06
-0.0018385
-2.00373e-08
0.000761713
-0.0166658
-8.00462e-09
0.000847721
-2.26595e-06
9.61799e-05
0.0025859
-0.0019954
-4.24884e-08
0.0054466
-0.00891397
0.0143114
0.00308999
-0.0131584
-1.77482e-07
0.0186426
0.000102624
0.00334498
1.17702e-06
4.21215e-07
2.93318e-08
6.92676e-06
1.54817e-09
0.00818257
1.87676e-07
-2.41688e-08
-4.80794e-09
3.74595e-05
-0.000816573
-8.65466e-08
0.000712086
2.95421e-06
-0.00231
-0.00619817
-0.00277422
-6.25712e-07
0.00397785
1.35903e-08
-0.00049748
-0.000410116
0.00658729
-2.76032e-08
3.57282e-06
-2.17538e-08
0.00689564
-2.32893e-05
0.000743936
2.02212e-05
-0.00632905
-3.31119e-06
-0.00152568
2.25611e-08
-0.0023391
0.00120127
2.50875e-08
-1.35769e-08
0.000643765
-2.07909e-07
1.79881e-08
-8.81551e-08
-0.000276997
-2.17601e-08
-4.16958e-08
1.5471e-08
0.000760602
2.0251e-07
1.7112e-06
0.00176748
2.30506e-06
-4.60922e-06
2.36121e-08
-5.63926e-08
3.86381e-08
-6.50224e-05
0.0023679
-2.22883e-08
6.50614e-08
-1.3403e-08
5.57672e-08
-4.82159e-08
-0.00850158
5.3744e-07
0.00795513
-0.00094011
2.33985e-08
-8.89093e-06
-8.41493e-05
-6.79796e-08
4.22902e-08
5.49733e-06
-0.0120194
-4.43882e-08
0.000612346
0.00237294
-6.49838e-05
0.0144871
-0.000817516
7.90852e-07
-5.07736e-09
0.00860685
-3.8179e-08
5.25766e-06
-4.74818e-08
0.000274799
3.52653e-08
0.000389138
-2.17595e-08
-0.0144468
-4.44992e-08
-0.00545047
-2.69995e-09
1.85447e-08
4.2632e-05
4.21999e-08
5.49522e-08
-3.43026e-08
-0.000610448
-4.71991e-08
0.00282454
1.50661e-08
-6.17598e-05
0.00952089
-0.000210092
0.00569829
-2.84595e-08
-1.82874e-09
-0.00461549
-0.00669203
-3.75819e-08
1.64136e-06
7.88604e-06
-1.49306e-05
-1.33231e-08
0.00976451
6.97666e-06
5.92316e-08
0.000693435
0.00329598
-8.29864e-07
0.000964304
-8.0155e-07
0.00354883
-0.0150127
2.73958e-08
1.07495e-07
0.000956971
1.78214e-08
0.0201699
-4.52331e-06
0.00375622
0.0229655
1.23172e-07
3.96006e-05
2.13805e-09
4.07418e-06
6.65754e-08
1.46328e-07
-0.000279446
-2.6846e-08
0.0261325
-7.37915e-10
7.0069e-08
-0.000314911
-4.9521e-08
-0.00429932
0.00126743
0.0067988
-0.00157268
-0.000945568
-1.34771e-09
-5.43107e-07
-0.00182662
-0.00189717
-7.15406e-09
0.000657949
-3.45185e-08
1.51131e-08
0.0220085
-0.00446005
1.5113e-08
5.3979e-07
-1.79666e-07
1.08142e-08
0.000864036
7.62008e-08
0.00112275
1.47617e-06
-0.00839012
3.86166e-07
0.000282544
-2.19779e-08
0.0031368
0.00155404
2.99433e-05
-7.61419e-07
0.00533833
-1.28098e-08
-0.00176797
0.0144993
-1.46864e-08
8.83423e-06
1.25765e-05
1.06156e-07
-5.09361e-08
1.29037e-07
-0.000649437
0.000890984
-0.001934
-1.36297e-08
-0.000135878
5.30138e-08
-7.15114e-05
1.62775e-06
1.13139e-06
-0.007786
-8.55052e-09
-0.00190625
5.60814e-07
8.70048e-08
0.00331264
0.0140906
-0.000338181
3.4387e-05
-1.26664e-08
4.60179e-06
0.00470199
-2.48951e-06
-0.00124238
0.0102559
-0.00131611
-0.00192379
1.53284e-07
-3.36196e-09
4.29086e-08
-3.16528e-07
-5.75489e-07
1.47412e-08
-7.52125e-09
7.20589e-08
6.4592e-06
0.00484417
-0.0118281
3.90153e-08
0.00530799
1.74817e-05
-0.00352132
-1.72425e-07
-0.0112813
-3.7422e-06
0.00150428
0.0143813
1.54689e-08
0.00866246
-0.00251943
8.59564e-09
-3.87481e-09
-0.00309043
-0.001925
0.00246758
3.75088e-05
-1.34702e-08
-1.03257e-06
-0.00138578
1.047e-06
1.54858e-07
0.00875245
-1.02707e-08
-1.60044e-05
-0.0144468
-0.0115681
1.40353e-08
0.0014627
-1.96376e-06
3.75923e-09
0.000886049
-1.06862e-08
-2.59053e-09
-5.40306e-08
-4.98187e-06
-0.00156904
2.50029e-05
-3.33836e-09
0.000925433
-1.36809e-08
4.29544e-05
0.000114048
-3.7746e-08
1.50997e-07
1.42942e-07
-0.00121555
0.000812503
-0.00321261
-1.90416e-08
0.014193
-0.00850766
0.000654144
-1.20067e-08
0.000465921
7.05119e-08
8.75419e-09
-5.91045e-09
0.00481716
-2.70402e-06
-0.00312937
1.23571e-05
0.016002
6.56379e-05
2.47317e-08
0.00251067
2.45369e-06
-1.44496e-08
0.00203591