/*--------------------------------*- C++ -*----------------------------------*\
| =========                 |                                                 |
| \\      /  F ield         | OpenFOAM: The Open Source CFD Toolbox           |
|  \\    /   O peration     | Version:  v2012                                 |
|   \\  /    A nd           | Website:  www.openfoam.com                      |
|    \\/     M anipulation  |                                                 |
\*---------------------------------------------------------------------------*/
FoamFile
{
    version     2.0;
    format      ascii;
    class       volScalarField;
    location    "100";
    object      ddt0(omega);
}
// * * * * * * * * * * * * * * * * * * * * * * * * * * * * * * * * * * * * * //

dimensions      [0 0 -2 0 0 0 0];


internalField   nonuniform List<scalar> 
27915
(
-5.03535e-06
0.000340069
-0.0488469
-1.46646e-06
-8.08195e-07
0.000103195
-4.24556e-06
-0.0456047
-4.82254e-08
0.203246
-5.15634e-05
-0.772718
0.10725
-4.57263e-06
-0.000106041
-8.76859e-07
-0.107488
5.12045e-06
0.0016895
-0.0449313
0.176214
-5.83808e-06
-2.67386
2.23487e-06
-7.9934e-07
5.89873e-07
0.350076
-2.53405e-07
-0.0230904
-6.36285e-06
3.95339e-06
0.000931334
1.24734e-06
-1.0795e-06
0.056991
-1.06818e-06
1.7833e-06
3.99936e-07
0.00845364
3.99217e-06
8.72825e-05
1.72083e-06
-0.305021
1.22473e-06
-0.0284544
3.75324e-06
-2.11019e-06
-0.00104932
1.8451e-06
4.10116e-06
-0.0531429
-0.0140099
1.07251
-1.39756e-06
2.87628e-06
-2.09348e-06
-3.89829e-07
-0.228291
-0.30195
3.57763e-06
-0.757547
-3.47125e-05
0.0154767
-0.267595
9.88931e-07
0.0113654
-0.986104
-0.0504252
0.0598195
6.16238e-07
-0.0330977
1.70195e-06
5.37459e-06
0.0327173
0.17713
-0.0576563
-5.67877e-06
-1.59926e-06
1.54961
0.0790303
9.48367e-05
-1.27225e-06
-7.98292e-05
-0.0655505
1.39443
-0.0188398
-6.6994e-07
-0.331916
0.531994
0.0427668
1.31902e-06
0.0161156
4.11709e-06
0.0257273
-0.0229994
-0.0423816
-0.00195916
0.170234
-5.92194e-05
3.7432e-08
6.07005e-05
4.86206e-07
0.161286
-6.58306e-05
0.000194105
-1.75011e-06
0.0652175
-0.0058453
4.03586e-07
0.0308339
0.061364
7.82358e-05
0.0419633
0.372726
-0.00463189
-0.00760945
-0.405119
0.000875663
-5.63558e-05
1.91142e-06
4.00398e-07
0.0366224
5.92051e-07
-6.1535e-06
-5.93912e-07
0.432588
0.0499323
0.115895
1.06345e-06
-2.83205e-06
-0.000145708
0.546469
0.00868914
-0.530043
0.587023
0.0099508
0.104
-1.49935e-10
-3.06953e-06
-1.35951e-07
8.83081e-07
1.11817e-07
-7.62295e-07
-0.00553251
0.0550579
-0.0565524
-0.0787285
-0.000965959
-0.093837
-0.000103716
-0.737463
1.22624e-07
-0.00498312
0.487608
-0.0395245
-0.0826239
0.0550238
-5.01313e-06
-7.98964e-06
1.52111e-06
-0.0152594
1.781
1.02721e-06
0.0106839
0.122958
-1.20392e-06
-0.00876448
1.29488
0.196649
5.0957e-07
0.000836729
6.16344e-06
-7.75037e-07
-0.000928478
-4.19331e-06
-2.28028
0.0220884
-4.37191e-05
-4.93904e-06
1.07406
0.326559
0.0180851
1.16673e-06
-0.057004
0.0100107
0.856284
-1.08599e-06
-8.85872e-06
-0.0430441
-5.40071e-07
0.0159341
0.000199361
0.224965
-3.51584e-05
2.71796e-06
-4.83624e-07
0.798493
0.0135387
-2.25803e-06
-1.12278e-05
0.886938
-0.949491
-3.86231e-06
-1.12566e-06
-2.77619
-0.0871016
-0.00287973
-0.0313457
0.67521
1.90199e-07
-5.16147e-05
0.432084
-9.58905e-07
-7.07188e-07
-7.79894e-07
1.36774e-06
-0.0207797
-0.0348348
-2.96878e-06
-1.59873e-06
-2.94182e-07
-0.00110234
-9.75256e-07
-1.17271e-05
0.128334
0.238393
1.1786e-06
0.0792311
-3.10416e-06
2.6089e-06
-0.129941
-0.0153365
0.392686
1.38073
0.227591
-1.22045e-05
-0.0127156
8.98998e-07
4.18988e-07
2.31725e-06
-0.0417086
2.56301e-05
-0.0288678
-1.55313
6.96088e-07
-4.79743e-06
0.380211
-0.0612013
0.000257669
0.179487
1.13518e-05
-0.0758127
8.03549e-07
3.9158e-06
-1.58829e-06
0.00216815
3.2623e-06
-2.49662e-06
-0.000700774
0.0464527
-0.00375821
0.00145844
0.0672379
0.307128
0.0269077
-0.111729
7.60439e-07
0.0232444
-0.0722497
0.0574816
1.36991e-05
0.0771487
0.689813
0.887085
0.000242632
7.12849e-07
-8.86237e-05
2.04665e-05
1.76541e-06
-4.19354e-06
-3.01957e-06
1.40018e-06
-1.57145e-06
-0.0132232
-0.101022
0.0188514
-0.548824
-0.064943
-3.11202e-06
0.069835
0.348417
4.13602e-06
1.75059
1.84026e-06
-8.20572e-05
0.0014116
-0.0558706
-0.111018
-0.00107719
-6.8132e-07
-0.755116
-0.00831574
-2.34373e-07
-1.94778e-06
-0.0535297
0.703044
5.49258e-06
-7.54734e-07
0.608695
3.70106e-05
-0.0395752
-2.92298e-06
0.365069
-2.81139e-06
-0.0332924
6.30256e-07
1.66292e-07
-0.0690734
0.0894219
-0.130383
-0.0218233
1.77443e-06
5.86909e-07
-1.9554e-06
0.00696024
-0.0076365
-0.582666
-0.0310307
-2.32771e-06
2.34353e-06
3.82579e-07
-0.0271972
-9.47927e-07
3.85443e-07
0.436886
-2.64208e-06
-0.0267225
2.73204e-06
0.0283635
0.632291
-2.24466e-06
-1.2107
0.102361
1.13532
-3.1216e-06
5.82434e-05
-3.15051e-06
-0.147364
0.0289069
3.61163e-06
-2.50973e-06
2.9156e-06
0.48463
-0.0108993
-0.000653777
0.0537766
0.00632112
-6.21556e-07
-3.51855e-07
0.120976
-0.000461231
4.0149e-05
5.32662e-06
-4.41314e-07
-1.69103e-05
-5.12093
0.00063522
1.88523e-06
3.51479e-06
1.20933e-06
-0.0750203
-3.53841e-06
-0.000872028
2.1802e-06
-0.0410944
-4.24433e-06
2.48695e-06
0.00218634
0.000987023
1.52557e-06
0.000175832
0.00319597
-0.000179035
-0.57748
0.0369147
-0.000732529
0.00573153
0.002632
5.99389e-07
-0.069302
-2.37195e-06
0.481235
0.0276358
6.363e-07
0.22484
0.000380465
0.000573094
-1.4665e-06
-3.17603e-06
0.954978
1.54365e-07
-9.18365e-05
0.00171481
-3.92961e-06
-0.299894
0.000175619
-0.00913455
-3.92888e-07
0.531727
-0.00241982
-0.0541754
0.000644716
4.38773e-07
-7.2269e-06
-0.55632
-3.5389e-07
-0.00193854
4.88103e-05
0.000354002
0.000475245
-0.0192297
-1.26169e-06
3.79279e-05
0.0307997
-4.72061
0.000174836
1.38853e-06
0.899449
0.0543919
-8.01136e-06
0.00501271
2.27074e-05
0.0279712
-3.61556e-05
-1.04268e-06
3.31218e-06
-1.29292e-06
-7.6193e-08
0.0862607
0.00289112
0.0770081
-0.00899812
-0.0045135
-0.00247237
-9.34756e-07
0.000238131
-0.0103747
-4.02254e-06
-0.298383
1.57452e-06
0.250462
0.0514836
5.14894e-07
3.83161e-07
0.0702561
0.0528276
0.272224
6.84319e-06
-4.86675e-05
-0.00412592
6.15499e-07
-9.82571e-07
-0.0697701
0.00015089
-0.0307301
-0.258559
-1.21188e-06
1.08734e-06
-0.635565
0.00273247
1.27374e-06
4.71655e-05
0.080658
-2.1512e-06
0.0374645
0.000671803
1.47201e-06
7.66622e-07
0.00147759
0.000406326
-0.0248013
0.000483759
-0.855566
0.546023
-2.56596
-4.29231e-06
-0.000213462
0.0570917
0.0241781
1.234e-06
-0.0119702
0.00124418
-0.0120709
0.00012817
-0.0830233
-2.41851e-05
-0.000469457
0.0868175
0.0178016
-0.0458882
5.71794e-07
4.62177e-05
-1.79557
-1.35643
-7.10118
-0.0432948
-1.82607e-06
0.000120631
0.0868392
-0.436461
-2.39615e-06
-0.00252137
0.00251122
0.073831
0.0886805
-0.61026
-0.0789037
7.03221e-07
-0.000785893
0.000207205
-1.31742e-06
4.41422e-07
6.56643e-07
0.573352
1.60549e-06
0.0112864
-1.62139e-06
-0.02078
0.0498588
-0.0424045
1.33756e-06
0.609259
-0.0581686
-0.00548324
-0.000975311
0.10384
-0.0267964
-2.46327e-06
0.000318697
-1.65219e-06
3.42098e-06
0.0325693
4.80681e-07
-0.0473614
-7.52668e-06
0.0146843
-1.57649e-06
-0.00842946
1.8688e-06
0.00105667
3.61075e-06
5.0723e-06
0.00239034
-0.0633222
0.00213729
0.00379543
-0.121548
0.0467889
0.627334
-7.31423e-07
0.0984621
0.187559
0.00176
-8.88573e-05
3.82107e-07
5.41235e-06
-1.82564
1.14311e-06
0.0159988
-8.82836e-07
0.000845101
1.53749
0.000305528
0.0298437
9.58771e-07
0.0391035
-0.878872
0.734353
0.022097
1.61326e-06
-2.08074e-06
0.000418265
0.000824155
-0.0156464
0.517345
-1.65638e-06
-0.0414957
-9.90195e-07
-7.23722e-06
-0.103049
-2.40225e-06
-1.76602e-06
0.129258
0.000907315
1.44535
3.07014e-06
-0.345965
0.00134928
3.75501e-06
-3.28131e-07
0.0582502
-8.56875e-07
8.573e-07
6.99267e-08
-0.513009
8.869e-07
-0.755075
-9.06767e-07
1.34259e-06
-0.09971
0.0660002
9.21474e-07
-0.809646
1.07347
-0.0201813
2.87681e-06
1.97745e-07
-4.96626
6.15304e-05
0.0835525
-6.59568e-07
6.73106e-07
-3.49502e-07
-8.87707e-05
9.79205e-07
-1.14909e-05
0.0001005
-4.38928e-06
1.59442e-06
-5.04845e-07
0.406764
0.0406873
0.00535181
-0.00227877
1.57199
0.387184
0.104513
-7.39823e-08
0.021371
0.0840056
-0.113134
-2.41777e-06
-0.46879
-1.4244e-06
-7.6678e-07
1.37288e-06
-0.325836
8.97145e-07
-3.81496e-06
3.29713e-05
0.635017
-0.00102892
-0.565183
-0.149732
-0.0137095
7.32781e-06
0.886621
0.954699
0.29482
1.26477e-07
-2.50776e-06
-0.238405
9.76803e-07
0.216279
0.00198112
4.71154e-07
-0.0499448
-0.00290736
-1.85424e-06
0.000109339
2.57831e-07
-2.5716e-06
1.50477e-06
5.67313e-07
6.6315e-07
-2.57907e-06
-2.22784e-06
-0.134463
-2.87767e-06
0.114619
9.94309e-08
0.000118325
0.064643
-1.24211e-07
3.66043e-05
-2.27549
-0.040047
7.34468e-07
-3.11254e-06
-2.38839e-07
7.87298e-06
0.233454
-2.73311e-06
-9.58499e-07
0.00477472
2.13483e-07
-0.768587
0.0623528
0.109265
-1.96714e-06
-2.25519
0.321046
0.000596443
-1.27563e-06
0.129957
-1.65808e-06
-0.0661275
0.000216939
1.48971e-05
4.54394e-05
-2.80574e-06
-6.10635e-06
-5.41842e-07
0.00218129
-0.00941273
0.344094
0.000290468
1.32986e-06
-2.52575e-06
0.169235
0.00606304
-3.83791e-06
-0.566032
2.47607e-06
0.47106
0.00112172
-0.166861
-3.087e-06
-0.00511817
0.714352
-4.06825e-07
0.0015497
1.35931
-1.35619e-07
0.00219551
0.102544
3.25782e-06
-2.25766e-06
-0.0710509
0.011859
-8.8316e-07
-5.05063e-07
-0.131167
-0.174697
0.0479456
0.00205707
7.01049e-06
-5.63285e-07
-0.0336759
-1.09065e-06
-4.13525e-07
2.68287e-06
1.10065e-06
2.40025e-06
1.53457e-05
0.0653032
-4.74738e-07
-0.00613667
2.78953e-06
0.032538
-7.61677e-07
-0.096468
-5.34796e-07
0.53521
3.90382e-07
-0.0367656
4.67567e-05
-0.083623
-0.605195
0.16869
-0.0110601
0.0011097
0.658385
-0.366413
-1.92462e-06
-0.172026
2.50188e-07
-1.59878e-06
-1.03493
-4.91463e-06
-2.60352e-06
-4.67414e-05
5.2631e-07
-0.137298
3.61768e-07
-9.33595e-06
3.92086e-05
-0.00174124
-2.67853e-06
0.000956869
-2.21239e-06
0.0500553
-0.0386868
-9.51004e-08
1.22367e-06
-0.978052
0.00474796
1.93296e-06
4.13292e-05
3.13385e-06
0.248206
0.136423
9.08815e-05
5.82419e-06
-2.91781e-07
1.10408e-05
1.0707
-1.4393e-06
-0.00129763
-0.000963914
-1.21118e-06
-6.30448e-06
-0.00241403
0.87656
1.23574e-06
-4.05869e-06
0.0528036
0.107433
0.00238946
0.00267628
-2.93346e-06
0.533188
0.0024773
-0.693456
-2.31659e-06
0.000695667
0.000166147
0.000164703
1.97722e-06
-1.27251
0.0654134
-0.00413921
-1.03074e-05
0.162506
0.000706305
-6.47614e-05
-1.65691e-06
-0.213116
-3.81916e-05
0.00118815
-0.700692
-1.29098e-06
0.0691877
0.350496
-0.0600329
1.89671
1.89017
-1.42411e-06
-4.7695e-06
0.000150371
-0.0302348
0.0108158
3.12465e-07
-1.7127
-6.09231e-06
-3.33163e-07
0.0350596
-1.20544e-06
0.00415512
6.11208e-07
-0.658627
-0.000251881
2.04202e-06
-7.66104e-07
-0.0715642
0.034327
0.00200972
-0.482818
1.21966
-1.3339
0.00171258
-1.05621e-06
-8.22479e-07
-1.19509e-06
5.32631e-05
-0.090683
4.61675
1.28946e-06
2.48646e-05
-7.29838e-06
-0.151123
0.52667
0.0111868
3.23507e-06
-0.00038481
3.07447e-05
-8.93281e-06
-3.44624e-07
-1.60687
-0.0358146
0.0480523
0.000110132
0.00227176
0.0651286
0.00190154
0.508465
-7.8941e-07
-2.84464e-06
-0.000545777
-5.29924e-07
0.000726569
-10.8896
-8.33389e-05
-8.50674e-06
-0.000502437
-0.0895121
8.47145e-07
-1.01157e-06
-5.63965e-07
-0.00305964
-6.01779e-07
-2.32441
2.82833e-06
0.2357
0.0023802
-7.13077e-07
-4.42615e-07
-0.00428019
-3.36817e-06
-0.723496
-5.72245e-07
3.64614e-06
-0.0433258
-0.00412844
-0.0327419
2.32158e-06
-1.21587e-06
-6.34938e-06
-0.0579969
-5.10781e-06
0.174275
-1.70922e-07
-4.72813e-06
3.97432e-06
0.0588207
0.0958847
-0.700383
-7.77836e-06
0.181007
6.6283e-07
-2.69744e-06
9.05354e-07
-0.000286827
-7.24346e-06
-0.0808787
1.81295e-05
-0.287034
-1.57941e-06
3.88854e-06
-2.23917e-06
-4.21418e-06
-2.3262e-06
-0.562755
8.47204e-07
2.22105e-07
0.0882313
-0.393918
-1.64181e-06
3.11284e-05
9.15728e-07
0.0592022
2.78644e-05
0.0193269
-0.000480106
2.26716
0.000328163
-2.73863e-07
-7.75858e-06
0.000413572
-0.0993603
-0.151109
-4.37978e-07
-0.0855346
-0.296475
-0.0784356
-5.3564e-05
6.67707e-06
5.30077e-06
-0.00075492
0.000310016
7.72246e-08
-0.817384
-6.04458e-07
-8.88857e-05
0.19617
-8.28714e-06
3.03692e-05
0.16497
-0.0569397
0.788091
0.0356087
0.22032
-3.10902e-06
0.0332133
-0.00926484
-0.0886081
-0.00334118
-0.51074
-0.0944268
-0.546807
0.845598
2.22478e-05
0.0143451
-0.107216
6.03563e-06
-6.11854e-05
1.77716e-05
0.000357054
-0.0915297
5.3017e-05
3.33964e-06
-1.09547e-05
0.364863
7.99267e-07
-1.95396e-06
-0.420631
-0.0825071
-9.7739e-06
-2.6574
-4.35107e-06
0.00128507
-1.54343e-06
-0.0651711
-0.0031129
-0.560454
9.62096e-06
-0.0043142
6.92644e-07
0.0867085
3.32247e-06
-1.23138e-06
9.13968e-07
2.93524e-06
-0.00021297
-0.00618034
0.00400865
0.00461773
0.0149312
-2.14946e-06
-0.068192
-0.0362768
1.6075e-06
-2.56094e-07
-0.042903
1.48795e-06
-0.237398
1.26919e-05
-3.53334e-05
2.73165e-06
0.00185543
0.0316773
5.94437e-06
-4.23387e-05
0.0559586
5.10308e-06
-2.27097e-06
1.01585e-06
0.00216478
-0.358344
2.65983e-05
0.570114
-6.43428e-07
-9.4888e-08
-3.2038e-06
-8.02212e-07
2.24607e-06
-2.09547e-06
-2.01349e-08
-7.05961e-05
-4.39895e-08
4.85372e-07
1.6853e-06
-0.000657983
-5.61731e-05
-0.120294
0.000120603
0.231808
-0.0795826
-0.000309402
-0.00361171
2.91427e-06
-1.94476
-1.45498
6.3602e-05
3.51905e-06
0.000402998
0.0155046
-0.0792504
-0.000229836
0.0197802
0.305698
3.2123e-06
-0.115641
-0.000222771
-0.122443
1.30007e-05
0.00031543
4.36455e-06
-0.192228
-7.66031e-07
0.00359039
-0.281905
1.60715e-06
-0.0301947
-0.00013954
0.0129002
2.71879e-06
-6.43189e-05
0.00239865
0.039743
0.000726295
-9.72603e-08
-0.0217393
-3.51845e-05
-2.25148e-06
4.78478e-06
-0.000909955
-7.48408e-05
-0.000229239
1.01514e-06
-0.111854
0.00145309
0.00126247
0.0430371
0.330817
1.50359e-06
0.0226595
2.78007e-07
-5.5288e-07
3.25225e-06
-0.0300144
-1.49196e-06
-2.14569e-06
-0.000904314
-3.11005e-07
0.0432147
-0.00478406
1.42166e-06
3.42248e-07
-8.1223e-06
-0.00183982
-4.54287e-07
0.53364
9.84757e-07
-0.000408676
-1.27481e-06
-0.000540974
-7.31333e-07
-0.0429059
0.283939
0.0202837
0.0311577
0.0242046
1.07126e-05
-0.0718948
0.784852
0.00729196
1.0643e-05
-0.0326154
2.46722e-06
-1.03958
-2.51016e-07
-1.94148e-07
-0.00244171
0.000122989
-0.000150258
0.00331408
-1.00934e-05
0.623129
-0.000212063
0.0297827
-0.0174315
-1.62086e-06
-0.647356
0.0149324
1.98672e-06
5.26083e-05
-0.00038912
6.31043e-07
1.68843e-08
-0.0782915
-0.0170278
-0.116723
2.54273e-06
-0.696723
-1.82429e-06
-0.00165568
-0.634614
-0.875681
0.33837
-0.00204866
-0.00338513
-0.0705527
0.171458
-0.00679897
0.0472858
-0.4892
-1.62891e-06
2.02797e-06
0.553099
0.00607699
-2.13731e-06
2.0962e-06
-7.65733e-06
-7.40459e-06
0.362029
-9.07478e-05
2.668
-0.131313
3.94673e-06
5.27511e-06
-7.44707e-06
-3.43886e-07
0.000872121
6.21301e-05
-0.0559264
3.87649e-07
2.6114e-06
-0.00102674
0.0109969
-0.804487
0.000284047
-0.00730602
-1.38805e-06
1.73504e-05
-0.0100335
0.000140729
0.0277499
0.0198319
0.000978511
0.216679
1.40319
-9.6486e-08
1.43062e-06
0.00218566
5.6348e-07
9.85431e-08
-0.107657
0.11351
-1.80704e-06
-2.04445e-06
-3.02519e-06
2.14359e-06
0.10956
-3.53932e-05
0.043509
0.0667536
6.8492e-07
0.00231165
-0.00743074
0.038135
1.15259e-07
4.17826e-05
0.000303063
5.31107e-08
-4.61276e-08
0.0553868
2.05334e-05
-1.74673e-06
-0.481299
-2.52728e-06
0.163385
-2.13502e-06
4.16501e-06
-2.60801e-06
-0.0025604
0.397124
-2.09449e-06
-0.00123267
-0.809715
6.43144e-07
0.00174433
-0.0302055
-0.0784131
-5.8468e-08
5.89584e-06
0.00147139
0.0644981
0.0859619
0.00075871
6.57331e-06
1.71628e-06
0.12777
-0.475277
0.109746
0.000151683
0.832573
9.92849e-07
0.126348
-0.000340486
0.00378292
-0.0010249
0.113067
-2.64356e-06
0.220064
4.87179e-05
-8.43728e-09
0.000162926
0.0376412
-1.97368e-06
-1.35811
-5.74403e-06
0.0407738
6.50065e-05
0.0829694
-1.42076e-06
0.00115747
0.278828
-1.89054e-06
-9.68309e-06
-0.028378
0.0516028
-0.0110799
-0.216907
0.00733085
3.37323e-06
-0.000452395
-0.999333
-3.7233e-05
1.35562e-06
-2.3195e-06
0.0967484
-0.0504676
0.523793
-0.013877
1.88511e-07
-1.39217e-06
-4.48977e-06
5.07856e-06
0.00595442
0.0182139
-0.0370321
-0.000612253
-1.02249e-06
0.157856
-1.06708e-06
-0.0192475
1.42933
0.00222236
-3.45805e-05
2.97954e-06
0.402301
-7.23591e-06
-0.000486964
0.000344285
0.00109258
-1.00318e-06
-0.575453
0.00168017
-1.00397e-06
-0.000468162
-0.978829
0.00159464
1.52214
2.1037e-05
-0.0836088
-0.0535114
-4.73814e-07
-3.13195e-06
1.95535e-06
0.360864
-0.103087
0.00214181
-3.87053
0.684664
-7.98698e-07
1.4481e-06
-7.62583e-06
5.83816e-07
-0.0495737
-0.166418
-6.56342e-05
0.00944574
-0.00105336
-0.000872619
-2.10504e-06
5.3982e-05
0.0219738
-1.25682e-06
-9.11401e-06
-1.73056e-07
-2.13354e-06
-1.06348e-06
2.66913e-06
0.00562857
-1.87408e-06
-0.187491
0.0021353
-3.56663e-06
-5.68324e-06
-0.000254882
0.903666
-1.60043e-06
0.105387
0.000477261
-0.00272231
-0.00376914
0.30432
-0.915747
-1.67707e-06
0.0162741
-0.107968
-6.40022e-06
5.39605e-05
0.0839035
0.00179401
-0.0881065
3.06374e-06
-1.4242e-06
-0.781233
7.31996e-06
0.00231838
-0.400264
-0.00283725
0.335302
5.63737e-07
-0.0344328
-0.0787193
1.99915e-07
-0.0113357
0.0451142
-0.0804212
0.00467901
0.0463957
5.05502e-05
-0.0850359
-0.0817714
-0.224906
0.351129
0.06128
0.0240826
2.71999e-06
-0.00551595
-3.2458e-06
-3.31507
0.00214188
0.0303565
-9.83792e-07
0.021743
1.24614e-06
3.59715e-06
6.94512e-05
0.000632793
-8.3932e-06
-5.77955e-07
-2.6012e-06
-4.03764e-06
0.0688649
-9.66693e-06
-0.219418
1.21416e-06
0.0427901
6.38314e-06
-6.23275e-07
-0.326204
4.75019e-06
0.821835
-0.00421464
-4.01421e-06
-1.15405
-0.00170688
-0.226651
3.16331e-05
0.545239
5.53524e-05
1.57004e-06
-8.04698e-07
8.36335e-05
0.26894
0.749339
0.00866017
-4.82748e-07
-1.52126e-06
-0.992025
-3.74202e-05
0.0100273
-6.66829e-07
-2.24278e-05
-2.26704e-07
0.000992906
-0.0534532
-1.96595
-5.88295e-07
7.49924e-06
-0.0959228
2.11212e-06
-0.539128
0.0841367
-0.000347521
0.0163499
-3.61736e-05
0.000310692
-0.000403394
0.000292863
0.24411
0.00889777
-3.69699e-05
0.239155
0.0626431
-3.08339e-07
-3.21758e-06
-2.81953e-06
-9.97279e-07
0.0880431
0.0969632
-1.0055
3.06223e-06
-1.35498e-05
-2.83934e-06
-0.000115179
1.39103e-06
2.96596e-05
-0.149345
6.59803e-05
-3.20475e-06
-0.0257677
0.259294
-0.00247287
0.0513057
-0.7683
1.53212e-06
0.002113
-0.0625122
-0.0807212
0.0124034
1.23342e-07
-0.409009
0.00918209
-6.56267e-06
-0.00173355
-1.86757
6.47981e-07
0.240158
-2.25878e-06
-1.54198e-06
0.00760965
0.000189834
-1.18786
0.0188917
-4.061e-06
-0.0430062
-0.00128932
-0.000124917
0.0237286
-0.392829
2.34842e-06
1.40372e-06
2.44991e-06
1.96614e-07
3.44148e-06
-2.24808
-6.25431e-05
8.18919e-07
-0.379742
0.500498
0.163906
0.000765205
-0.000146485
0.0125917
0.00626562
0.0812486
-5.20809e-06
2.34134e-06
-4.27568e-07
-4.0245e-07
-0.123962
0.000461164
1.12064e-06
0.000931996
0.0102367
-1.80577e-05
1.25208e-06
-5.35144e-05
-1.44561e-06
0.493148
-5.75633
-3.75575e-06
-1.09507e-06
8.97568e-07
-1.85123e-06
-2.23774e-05
1.81903e-06
1.05105e-06
-1.5811e-06
-0.074273
-5.97178e-07
-0.663037
2.31281e-06
-0.163986
-7.94988e-06
-2.50549
-0.258908
0.985135
-0.0495821
0.534682
-0.00271526
-1.45849
-0.0546624
0.00208601
0.0226509
0.00011065
0.73436
0.318659
-1.07889
-3.01975e-08
-0.000255548
2.30046e-06
-0.253179
0.224246
-0.0295892
-1.04876e-05
-4.98024e-06
1.84152e-06
-4.80242e-06
-2.49414
-1.67188
-8.76429e-06
0.2554
0.0793922
0.196939
-7.69388e-07
-0.00588221
0.00168942
0.00267104
-1.57805
-0.00529556
-0.0215668
1.21246e-06
-0.00848105
0.0127495
0.0276417
-3.19023e-07
2.55433e-07
-4.23762e-07
-0.383082
0.0499084
-5.06936e-06
6.30234e-06
-0.000435865
1.76447e-06
-0.0871256
0.00806594
0.00206611
-1.31434
-5.84157e-07
-0.00143902
-0.902298
-1.5574
1.13267e-06
-0.00161299
0.0780151
0.0869909
-1.41683e-06
0.453852
0.00844708
-2.71708e-06
-0.00014574
-0.619545
-0.000465818
-0.00540594
-0.245573
-3.21869e-06
9.99545e-07
2.48487e-06
1.08376e-07
-1.42523e-06
-6.58632e-06
-0.00321988
4.2005e-06
8.72261e-07
1.09586e-06
-3.08332e-05
-2.74378e-06
-0.103607
8.64875e-07
-0.0208823
-3.91721e-05
-2.77981e-05
-1.2333e-06
1.18497e-06
0.10222
-0.000361682
-3.95743e-05
2.21928e-05
2.58993e-05
-0.000469244
0.370021
-0.253953
0.742152
-0.66735
0.111358
-0.828204
-0.0607724
-0.00473716
0.000543541
4.58747e-07
-2.00908e-06
0.0178879
-8.61857e-09
-1.23056e-06
5.62611e-06
-5.22461e-06
1.14412e-06
3.94768e-06
1.25846e-06
1.38093e-05
0.010783
2.38253e-05
4.12981e-06
-3.90048e-06
-3.7095e-06
0.117801
0.000318473
-0.000583427
-0.0158542
9.59453e-05
-0.113067
-1.17386e-07
0.000841425
6.36775e-06
3.29442e-05
-2.72488e-06
0.0145495
-1.17289
-0.0039014
1.50663e-06
5.19807e-05
0.0464418
4.72665e-06
-0.00560521
-3.85982e-05
0.020394
0.130626
0.00253091
0.00029302
0.00145301
6.09246e-06
0.00510721
-0.000514258
-0.637367
-0.3958
0.229871
0.039013
-0.260831
9.62524e-07
2.49172e-06
3.35191e-06
-0.488797
-6.21975e-06
-0.0448506
-0.000217897
-1.48261e-06
0.0469748
0.626604
3.01014e-07
5.6512e-06
-0.0121278
-0.877322
0.109225
4.10782e-06
1.11484
-2.18728e-07
-0.392679
0.00484456
0.000611435
5.10242e-06
0.347903
9.86952e-06
0.0223482
-2.83778e-06
0.211035
0.0230251
-0.152735
-8.35645e-07
0.000382147
-2.19265e-06
-1.42883e-06
-6.71249e-06
-0.000310123
-2.18491e-06
-0.052895
8.17079e-05
-1.56287e-06
5.69508e-06
-0.0534416
2.61524e-06
0.134611
-0.109987
-0.00720639
-0.529207
0.0108399
-0.0326429
3.99843e-05
-0.000508066
1.7883e-06
-0.692709
-0.462932
-0.0429188
-0.434609
-0.129836
-0.00496508
1.41349
1.80032e-06
-0.116893
0.687001
-0.0841221
-2.60464e-06
0.123067
3.84263
0.00267778
-2.7347e-05
0.00047955
0.569419
-1.57589e-06
-0.0505684
1.53447e-05
-0.000776445
6.86777e-07
-3.34711e-05
1.95447e-06
-5.33463e-07
2.02677e-06
1.07368e-05
4.8565e-08
0.0361034
-5.98049e-06
2.59899e-07
0.0301195
2.78298e-06
0.000130065
0.000106761
5.26587e-07
-2.90436
-0.000693935
5.37618e-05
-3.07221e-06
-1.06517e-08
-0.78667
2.04587e-06
2.74826e-06
0.000732339
-5.59362
4.03224e-07
0.00434504
-1.14842e-06
0.00487983
2.40112e-05
-2.06369e-07
-1.02324
0.00220923
-0.0399644
-5.78818e-06
0.00252038
1.04863e-05
-0.069005
0.100469
1.02999e-06
-0.0598982
-0.000914776
2.21451e-08
-2.43799
-3.128e-05
5.47905e-07
0.00116994
-8.38108e-05
-1.97733e-06
-4.31379e-06
0.00215528
-5.63198e-06
-0.00140286
-0.000503114
0.00246925
1.04862e-06
-0.00324083
0.000108706
-0.0183072
0.00378396
1.80468e-06
-0.162065
-1.91229e-06
3.35168e-08
0.273431
-0.0555048
0.0234901
0.00043711
0.0271289
-0.127277
1.78349e-05
1.12385e-05
0.00253182
-1.31619
-1.30677e-05
0.0186398
6.5372e-05
3.53198e-06
-1.26682
-0.00452311
-0.0278543
-0.000121434
0.0176614
-2.03035e-07
-0.00869597
6.72695e-05
-0.0035456
0.0640685
-0.270461
4.25326e-06
-1.79681e-05
0.0528772
-8.051e-07
-0.0164802
-0.334254
-1.02802e-06
0.00381544
-0.00473147
2.11313e-05
0.476454
-6.11522e-06
0.618858
-0.0305587
5.74286e-06
-0.00756793
5.23723e-07
-4.30942e-07
0.000132466
0.0107051
1.63183e-08
-1.04138e-06
0.00873358
-4.23589e-06
0.133012
0.060162
-3.89936e-06
0.123255
-2.96947e-07
-5.64264e-05
-4.86795e-07
-9.99035e-07
-0.00834057
1.80655e-05
0.000335376
-1.13181e-06
-7.44791e-06
0.00131135
0.0103299
-0.000588907
0.197094
-0.0273754
0.0203106
-0.000134805
-9.15576e-06
-0.0744474
-3.62468e-05
-4.5392e-06
0.344325
-0.000378916
2.50787e-05
2.89465e-06
-7.23856e-09
0.0157569
-0.000177841
-1.70082e-06
-0.0442387
-0.0043503
-2.05447e-07
-1.08057e-06
-0.153459
1.79985
-3.35342e-06
2.858e-07
-0.0601128
0.00252238
-0.0543793
-2.57543e-07
0.481978
1.30388e-05
-0.000333564
-0.0631467
0.0972911
-0.00333665
0.456426
3.29168e-06
-1.50347
-3.38226e-06
0.00496432
0.0253341
-7.0853e-06
-0.0584771
4.75372e-05
-2.18651e-06
-0.00722516
1.00569
-0.125496
-0.710587
-9.11991e-06
-0.0695864
-0.0102619
-0.00128444
1.28031e-05
-0.000258646
-3.23374e-05
-0.0815438
0.174328
1.67922
-0.0507171
-2.83135e-06
0.00158445
0.411809
2.66513e-07
-1.00575e-06
2.32481e-07
0.0990224
0.000376005
0.419688
-0.579506
0.0469141
-6.46251e-06
-0.230898
-0.00055494
0.0022357
0.921625
1.47112
-0.336749
-0.00073198
-3.08452e-06
-0.0643908
-5.26504e-07
0.0993648
-9.02755e-07
2.79691e-07
-0.000119148
0.0269984
-1.77767
-0.0999684
0.000233968
-0.0327564
-1.52737e-08
-0.000499747
-1.79931e-06
0.0023185
0.725103
-0.599882
-0.573466
-0.120933
0.150121
-0.113797
4.78107e-06
-0.00673353
1.24111e-06
-0.0522225
-0.146729
-1.1518e-05
-5.29815e-06
-0.349495
-0.000570058
8.2596e-08
-5.6489e-07
-0.119663
-2.79892e-07
-2.08156e-06
-0.0023486
-0.0931783
-3.31807e-07
0.00190864
-0.00109949
0.511788
0.177428
-1.15918e-06
-3.9396e-06
-0.163172
-2.99712e-06
-2.93967
-0.00042853
0.74314
-0.000618954
-0.000115869
-4.04731e-06
-2.68884e-07
-0.373222
-0.000160332
8.46151e-05
-0.000103615
0.495274
0.0200959
0.104142
0.0503102
1.43677e-06
0.0240256
-1.68038e-06
2.35532e-05
-0.000149121
-0.113248
-1.56418e-06
1.27711e-06
0.0247596
0.0017585
-0.0406703
7.57882e-06
0.481805
-0.665483
7.63736e-06
0.234597
-0.000478732
0.0346124
0.0438765
-0.0964287
-3.3304e-06
0.148239
-0.376383
1.04119
0.704712
-0.507183
-1.34614e-05
-0.576619
-0.0437016
0.0581651
0.00045339
0.000126229
1.39446e-06
0.00393607
1.45884e-07
0.870141
4.4524e-05
-6.73204e-07
-1.16225e-05
0.0182382
-0.0183095
-1.18275e-05
0.016244
0.00215908
-0.0487653
1.57108
-0.460724
-3.39627e-05
0.836456
1.1078e-06
0.00301819
0.0113675
-0.889021
-2.1437e-06
0.00178766
-1.65364e-06
0.203154
-0.00729123
-0.0192249
0.00537035
-0.855402
-0.00263515
-0.0666717
1.65774e-06
-0.151205
0.0189747
1.73971e-06
0.000650167
-0.104722
1.14939e-05
3.218e-06
-0.000325687
-0.0381696
-1.67894e-06
-3.05289e-06
1.17479e-06
0.0199588
-5.35455e-06
0.00197607
0.575375
0.000520647
-0.00211908
1.79271e-06
-1.6991e-05
6.03094e-06
-0.0124194
-1.02786
-1.62727e-06
2.86025e-08
-9.64122e-07
0.00120853
3.71866e-06
-0.617778
3.2117e-05
0.0569657
-1.08082
3.79418e-07
-0.0022853
-0.0523282
-4.13009e-06
2.6439e-06
0.00147002
-0.361113
-3.30203e-06
0.120148
-1.19491
-0.0373084
0.00916952
-0.0704109
0.000131985
1.57332e-06
-0.137911
-1.30322e-06
0.00219165
-3.62649e-06
-0.141228
4.88767e-06
0.43488
8.93081e-06
-2.16413
-3.60192e-06
-0.0586927
-4.47755e-07
-3.73326e-06
0.0116954
-6.72311e-06
4.05361e-06
-9.68687e-05
-0.0835843
-1.82731e-06
0.994674
-6.6831e-07
0.107753
0.076632
1.92027
-0.960929
-2.1374e-06
3.06852e-05
0.0221712
0.00133756
-2.8439e-06
0.00051409
0.00324064
0.0373033
-3.09554e-07
0.517996
0.00446887
6.65391e-06
-0.686645
0.125126
-6.43516e-05
0.165906
-0.00118188
0.630616
-2.4831
3.29096e-06
-6.57708e-05
0.0250094
1.32686e-06
-0.583676
-0.00187434
0.113657
0.663868
2.58358e-05
0.021581
3.48509e-08
-0.00102341
4.99511e-06
-3.00358e-05
-0.0482645
-1.8576e-06
0.780359
2.34356e-07
-6.70705e-07
-0.176562
-5.31449e-06
0.0421728
0.0685848
-0.656647
-0.561529
-0.551574
-5.72953e-07
5.65619e-06
-0.0750569
-0.0820952
-6.01521e-07
0.0718951
-3.40362e-06
-2.36174e-06
-1.39188
-0.0614061
2.1586e-06
8.61115e-05
-1.49675e-05
7.97114e-07
0.178841
-1.58366e-05
0.0301837
0.000473762
-2.26271
0.00213969
0.138333
-1.57516e-06
0.0504546
3.61401
-0.00125773
-0.00024384
0.568863
-9.97735e-07
0.0213988
1.06825
-9.32444e-07
0.0054706
0.00356027
0.000160698
-8.40497e-07
-2.13713e-05
3.30079
0.102989
-0.0531905
-1.03895e-06
-0.0736867
-2.872e-06
-0.094294
0.0019774
0.00451874
-0.143656
3.59557e-06
-0.046714
0.00178092
8.36608e-06
-7.49732
0.55373
0.0382482
0.0110305
2.30664e-06
0.000502441
0.0900659
-0.000754713
-0.0825783
0.71088
-0.0423924
-0.0759979
2.46447e-05
-3.10575e-07
-5.78911e-06
-4.00179e-05
-1.91468e-06
1.71657e-06
2.72271e-05
-9.94745e-07
0.0025851
-0.0520799
-0.455003
2.15661e-06
0.623707
0.00525352
-1.01351
-1.14039e-05
-0.970016
-0.00194379
0.908739
0.100968
1.19651e-06
-0.0164101
-0.047844
7.93357e-08
3.1738e-07
0.0174064
-0.0606776
0.0289563
0.0251748
-1.09663e-06
-8.84103e-05
-0.0739151
-5.75155e-06
-1.18799e-05
0.0468119
-3.52258e-07
-0.00800935
-0.415492
-0.0394639
-2.35361e-06
0.0809535
-0.000504555
-0.000140278
1.18033
-9.02382e-07
-1.62421e-07
-2.31032e-05
-0.0167981
-0.0488317
0.0105722
1.59947e-06
0.0174458
-9.06993e-07
0.0031329
0.178603
1.35725e-06
4.27584e-05
2.66958e-05
0.0753301
0.0155889
0.120454
-7.60866e-06
1.04963
0.348506
0.139832
-9.1159e-07
0.0852588
-8.14429e-07
1.84243e-06
-4.14916e-07
-2.641
-0.000958813
-1.32732
0.00313156
0.416714
0.451072
-3.33639e-06
-0.000676255
0.000472388
-1.08824e-06
-1.22119
9.02069e-05
0.000460193
0.0112423
2.56626e-05
-1.78276e-06
-2.62004e-06
-0.0546441
-0.0614104
-0.21365
-0.000660892
0.000817772
0.594342
0.120423
-0.0282246
-0.217421
-0.0611057
-2.96355e-05
-0.539309
5.68642e-06
9.36903e-07
0.0803895
-0.307269
-1.39851e-05
1.42843e-08
0.0190545
-0.0304556
3.11642e-06
0.00863108
-2.46448e-06
-0.0103322
-8.21196e-06
0.190198
0.259474
0.13276
-1.92765e-07
-5.03433e-05
0.052437
0.0734094
-0.0608472
-0.0619236
-0.562315
0.112942
-0.127623
0.0158335
1.2544
-7.54597e-05
-0.276604
0.0628109
-0.0127059
1.87661e-06
-6.42913e-06
-0.0405904
-5.50302e-06
2.71753e-06
-0.0526856
-1.20616e-06
0.053976
-1.77228e-06
-0.822283
-1.05369
0.224941
6.44889e-06
3.10681e-06
0.299985
7.17566e-07
0.026073
-7.66024e-06
-0.0346615
-0.391479
-0.012149
1.93889e-05
-0.00703334
3.30841
0.00240989
-4.06071e-06
-2.14185e-06
0.235186
0.155858
-0.0763638
-1.01636
0.000742411
0.000137592
6.19748e-07
0.00200496
3.51618e-06
0.062265
0.00169709
0.00191542
1.42187e-05
-3.6491e-05
0.00252805
0.00111279
0.088697
-0.934567
2.15581e-06
-6.63787e-07
2.70338e-06
-0.00166146
-1.19624e-06
-0.395636
-0.000585137
-0.265219
3.44407e-07
0.0110533
0.0431911
-6.85772e-07
-1.12137e-05
0.00626286
-2.61913e-06
0.000502106
0.0613888
1.12634e-07
0.737035
0.276635
1.10309e-06
0.103962
0.910038
-0.000324382
-0.000395848
-0.0102192
-0.135647
0.569966
0.0391929
0.159015
-1.88531e-06
-0.210159
2.13751e-06
1.61066e-06
-0.0882818
0.116215
0.0529202
0.266665
-0.155535
-4.06038
-0.000124855
-4.80647e-06
1.07841e-06
-0.044483
-2.44066e-07
0.000329097
0.348606
0.0407464
2.22412e-06
8.47474e-07
0.20063
7.13666e-06
0.0167019
-2.79802e-06
2.29064e-05
-1.23109e-05
5.75125e-06
-0.00159947
-0.0168255
0.486528
-0.113138
-0.00438402
-0.118624
-0.121402
0.0265713
0.660986
-2.34753e-07
0.00958454
-1.13638e-05
9.56463e-07
0.244628
-3.39534
0.242253
-0.697698
8.46827e-06
-0.32178
-6.85643e-07
0.22764
0.0648231
1.31926e-07
0.331113
0.00301779
-7.53133e-05
6.05562e-07
-1.77208
0.000496703
-2.39846e-06
0.017105
0.525711
0.176064
1.58045e-07
-2.46842