/*--------------------------------*- C++ -*----------------------------------*\
| =========                 |                                                 |
| \\      /  F ield         | OpenFOAM: The Open Source CFD Toolbox           |
|  \\    /   O peration     | Version:  v2012                                 |
|   \\  /    A nd           | Website:  www.openfoam.com                      |
|    \\/     M anipulation  |                                                 |
\*---------------------------------------------------------------------------*/
FoamFile
{
    version     2.0;
    format      ascii;
    class       surfaceScalarField;
    location    "100";
    object      ddtCorrDdt0(phi);
}
// * * * * * * * * * * * * * * * * * * * * * * * * * * * * * * * * * * * * * //

dimensions      [0 3 -2 0 0 0 0];
oriented        oriented;


internalField   nonuniform List<scalar> 
41499
(
0.000412921
-0.000262477
-0.000150439
-0.00304638
0.002594
0.000452425
-0.000180565
-0.00029308
0.000473634
3.84093e-05
2.66844e-05
-6.50939e-05
-1.48796e-05
-5.25944e-05
6.74705e-05
-0.000508888
0.000313879
0.000195014
-6.08072e-05
6.29824e-05
-2.17474e-06
-0.000712416
0.000451221
0.000261203
2.38e-05
-2.65753e-05
2.77025e-06
-0.000585983
0.000804483
-0.000218501
-0.00172075
0.000649927
0.00107082
-0.0211623
0.00524479
0.0094154
0.0137258
-0.0231414
-1.18088e-05
-4.89978e-05
0.000172263
-0.000166989
-5.27325e-06
-5.3874e-05
4.08743e-05
1.29971e-05
0.0160351
-0.0226255
0.00659085
-0.000121265
6.89826e-05
5.22894e-05
-0.000919717
-0.000302654
0.00122239
-0.000399109
-0.000313304
-0.032421
0.0251932
0.00722752
0.000176445
-0.000175494
-9.5241e-07
0.0309069
-0.0142854
0.000102008
-0.000112439
1.04267e-05
-4.8125e-05
-5.75428e-06
-7.29347e-06
2.16546e-05
-1.43598e-05
0.00790223
-0.000755573
-0.00714657
3.22127e-05
-4.70944e-05
0.000631225
-0.000622638
-8.59073e-06
0.000219471
-0.000213098
-6.36664e-06
1.69068e-05
-8.89529e-05
7.20472e-05
-0.00193679
-0.000150545
0.00208734
-1.57601e-05
1.72997e-05
-1.53691e-06
-1.67017e-05
-8.86478e-06
2.55699e-05
0.00280268
0.00348135
-0.00628387
7.50718e-06
-2.42049e-05
-2.65546e-05
1.72289e-05
9.32595e-06
1.19849e-05
-1.92792e-05
-0.0144981
0.00777971
0.00671839
-4.87148e-05
-6.8603e-06
5.55754e-05
-0.000141268
0.000591134
-0.000449878
-1.53156e-05
-1.12382e-05
0.00323685
-0.00269218
-0.000544648
3.13187e-05
-6.46442e-05
3.33253e-05
0.079034
-0.00110731
-0.0779268
-4.6114e-05
-2.59949e-06
-3.58926e-05
-2.19392e-05
5.78322e-05
0.00312229
-0.00468264
0.0015603
-5.27876e-05
2.86814e-05
2.41064e-05
2.65343e-05
3.95334e-06
-3.04906e-05
-0.000716298
0.000317195
0.0034808
0.00527694
-0.00875767
0.00320765
-0.00374876
0.000540609
1.59069e-05
-0.000206624
0.000190718
-0.00025194
9.87437e-05
0.000153196
2.54775e-05
-6.13709e-05
2.12872e-05
-1.80836e-06
-1.94817e-05
0.00306396
-0.025306
0.0222419
-0.0191384
0.0222024
8.16774e-05
-6.47691e-05
-0.0191164
-0.00476442
0.0238808
7.53317e-05
-0.0010184
0.000943058
0.0895682
-0.0105343
0.000375487
-0.000375492
5.17936e-05
-8.32958e-06
-4.34628e-05
-0.0107005
-0.00379765
-0.0275844
-0.000356647
-0.000359655
-0.00260812
0.00541076
3.46285e-05
-4.24275e-05
7.80071e-06
-0.00387735
0.00239437
0.00148298
0.000101224
7.80758e-07
-6.75442e-05
-5.37153e-05
0.0635984
0.0244901
-0.0880885
-0.000849694
0.000631389
0.00021831
0.0090804
-0.00328467
-0.00579574
0.000200016
1.94564e-05
-3.25456e-05
2.53934e-05
7.15211e-06
0.00489357
0.00207753
-0.00697074
0.00544055
-0.00793519
0.00249459
-0.000259097
-0.000249782
9.12727e-05
-7.22974e-05
-1.89688e-05
-0.000552833
1.13411e-05
0.000541502
-0.000625401
0.000891021
-0.000265609
-0.013162
0.00853995
0.00462201
-0.0293304
-0.0415746
0.0709049
4.44931e-06
-8.8887e-06
4.44012e-06
0.002918
0.000318844
-0.00221692
0.0200549
-0.0178382
0.00615276
-0.000712207
-4.63862e-05
1.97517e-05
2.66262e-05
-0.0230378
0.0866363
-6.10997e-07
2.71456e-05
0.00855226
-0.0105957
0.00204366
-0.000652194
0.000745252
-9.30546e-05
-0.00044093
0.000260367
0.0128328
0.00110152
-0.0139344
0.000219874
-0.000631834
0.000411961
-0.00102755
0.00110287
-1.73098e-05
3.41993e-05
-1.68894e-05
0.000252245
-0.000202141
-5.01062e-05
-8.59085e-06
2.05769e-05
-0.000200505
0.000420381
0.000728791
-0.000142223
-0.000586566
0.000651365
-0.00129015
0.000638787
6.01902e-05
3.10837e-05
0.0117342
-0.000246275
-0.0114881
-0.0138688
0.0041707
0.00969837
-2.18891e-05
1.33002e-05
0.000392914
-0.000441322
4.8357e-05
0.00554581
-0.0113083
0.00576245
-0.0005061
0.000364837
0.0157036
-0.0100724
-0.00563124
0.0368504
-0.0219698
-0.0148805
-0.00712685
-0.00674182
-0.00832629
0.0118071
-0.0234252
0.0269816
-0.00355646
-0.00206329
0.000126504
2.25695e-06
0.000726537
-2.98577e-05
-2.29292e-05
3.31158e-06
-4.96979e-05
0.00973913
0.0059645
1.19392e-06
-1.69561e-05
0.000174142
2.29837e-06
1.26075e-05
-5.85907e-06
-6.74813e-06
-0.0633105
0.105018
-0.0417071
0.0419151
-0.109236
0.0673205
-6.96148e-05
0.000282032
-6.91731e-06
7.80151e-05
-7.10972e-05
0.000130972
-5.45807e-05
-7.63901e-05
-0.000230176
0.00122496
-0.00099481
-0.00153973
0.00944204
0.0123745
-0.0038222
-0.00112091
-0.00157126
0.0125465
0.02051
-0.0330567
-0.00811214
-0.000127328
0.00823998
-0.0402921
0.00516652
0.0351257
1.16139e-06
-2.40508e-06
1.24384e-06
8.49767e-05
-0.000104214
1.92341e-05
1.61789e-05
1.41714e-05
-3.03535e-05
4.68815e-05
-4.68768e-05
-0.000162203
-8.97355e-05
-2.19579e-05
3.86221e-05
-1.66655e-05
-0.00500737
0.00345963
0.00154772
-0.00504542
0.0114614
-0.00641654
2.64391e-05
-0.000383092
-0.000176446
2.71608e-05
0.000149278
0.0038557
-0.000733451
0.0027671
0.00631328
-0.000539618
-1.32123e-05
0.00598849
-0.0294136
5.1264e-06
-3.96441e-06
0.0160061
-0.00705188
-0.00895422
0.0035691
0.00645861
-0.0100278
-0.00900063
0.0149586
-0.00595764
0.00104728
-0.000527696
-0.000519553
0.00472446
-0.00266231
-0.00206209
2.33224e-05
-2.5059e-05
1.73655e-06
2.72127e-05
-5.49898e-06
-2.17141e-05
4.21174e-05
1.07278e-05
-5.28335e-05
0.00282297
0.00689455
-0.0097174
-0.000704588
-0.00125887
0.00196292
2.51202e-05
-6.81373e-05
4.30157e-05
0.0060302
-0.0037818
-0.0022484
-0.0215318
-0.0632078
0.0847396
-2.6679e-06
-2.92818e-05
3.19474e-05
0.0081404
0.00786579
0.0174841
-0.0107634
-0.00672052
-0.000398779
-0.000450913
2.26171e-05
-2.39349e-05
1.3191e-06
0.00175277
0.0019266
-0.00367943
0.000117401
-9.05931e-05
-2.68015e-05
5.38729e-06
7.22058e-06
-0.00213473
-0.00254792
-5.73354e-05
4.65001e-05
1.08354e-05
-0.00186936
0.00322473
-0.00135544
0.000112091
0.000280825
0.000508212
-0.000505959
3.827e-05
-1.87829e-05
-1.94876e-05
0.001594
-0.00229857
0.0136142
-0.0158317
-0.00302418
-0.00139605
0.00442023
3.34037e-05
-3.70396e-05
3.63215e-06
0.000419187
-0.000392755
-0.0105919
0.00248034
0.00861632
0.0172795
-0.0258959
1.81437e-05
-1.65977e-05
-1.54625e-06
1.34468e-05
6.17043e-06
-1.96173e-05
-0.000164134
-0.000524296
0.000688447
6.03124e-06
-1.58222e-06
0.000557148
-0.000625288
6.81895e-05
0.00318154
-0.00224895
-0.000932622
0.00942829
0.00131026
-0.0107385
0.00057332
-6.51083e-05
-2.57788e-05
5.43987e-05
-2.862e-05
-5.6813e-05
3.10665e-05
2.5745e-05
0.0272976
-0.0186812
0.00404575
0.00198445
2.327e-06
-5.41613e-06
3.08988e-06
0.000570616
-0.000411212
-0.000159395
0.0036418
-0.000434198
-0.0305323
0.036521
2.43767e-05
-1.0544e-06
-1.46892e-06
-8.5663e-07
2.32625e-06
-0.00191719
4.78929e-05
-9.61696e-05
-8.02817e-05
-0.00383924
0.00546251
-0.00162327
-0.00183084
0.00465146
-0.00282063
-0.00289797
-0.00685341
0.00975152
1.37409e-05
1.00564e-05
-0.000511361
0.000511662
-2.91613e-07
-0.031445
0.0587446
-0.0272996
-3.40411e-06
2.30878e-06
1.09465e-06
1.56172e-05
-1.89923e-05
3.37801e-06
-5.55287e-06
1.06802e-05
-5.12692e-06
-4.75406e-05
-5.08591e-06
5.26401e-05
0.00220983
-0.00404068
-0.0156318
0.00663126
3.73206e-05
9.36527e-05
0.000112325
-5.21301e-05
0.000116388
-9.45959e-05
-2.17915e-05
-0.00041336
0.000504935
-9.15767e-05
0.000269544
-0.000170799
1.44377e-05
-9.90848e-07
0.000862273
-4.69181e-06
-0.000857601
0.0106976
0.0261528
-1.63089e-05
6.5921e-05
-4.96124e-05
0.0793692
0.044161
-0.12353
0.000123693
-3.87169e-05
2.88019e-05
-3.41756e-06
-2.53831e-05
-0.000256435
0.000286595
-3.01631e-05
0.000683177
-0.00273553
0.00205235
0.0193889
-0.0508338
-0.00287337
0.0203577
-0.0221139
-0.0103073
-0.0012999
0.000886236
0.000413663
-0.0599458
0.0445765
0.0153693
-5.00604e-05
2.52789e-06
4.30133e-05
-9.60973e-06
-1.85219e-05
6.24925e-05
-4.39715e-05
0.121221
-0.0418513
-0.000348203
0.000142103
0.000206098
-0.00319417
-0.00173355
-0.0287988
-6.36677e-05
5.67521e-05
2.47217e-05
1.35481e-05
-0.00539067
0.00895973
-0.000253116
0.000253103
-0.000759287
0.00152797
-0.00076876
-0.00290717
0.0123355
0.000234998
-0.000225953
-9.0457e-06
0.000219153
-0.000133198
-8.59763e-05
-7.04282e-05
5.2135e-05
1.82932e-05
-8.58339e-05
-3.11773e-06
6.63925e-05
4.59345e-05
-0.00400937
0.0168421
0.000215254
0.000197667
9.04089e-05
2.65597e-06
-9.30666e-05
-0.00216479
0.00061776
0.00154705
0.011173
0.000561174
-0.00034166
8.42401e-05
0.000257416
0.00265888
-0.00243005
-0.000228853
0.0102944
0.00653193
-0.0168264
0.0237232
0.00504385
-0.0287671
-0.00674879
0.0170432
-0.000805351
-0.00124726
0.00205263
-4.57105e-05
6.31633e-06
3.93961e-05
0.000581033
-2.38416e-05
-1.01296e-05
0.000229261
0.0068615
-0.0104859
0.0036244
-0.00065995
0.000574247
8.56925e-05
0.000896565
-0.00177038
0.00201729
-0.000178839
-0.00183846
0.000862817
-0.00162213
-3.47674e-05
-1.09435e-05
0.000916193
-0.000495757
-0.000420428
-9.55475e-05
-0.000252653
-2.60535e-05
1.65977e-05
9.4549e-06
0.000205773
-3.16349e-05
-6.68944e-05
4.24725e-05
-2.46292e-05
-1.78435e-05
-1.63052e-05
-1.62395e-05
-0.00285479
0.000119251
0.0510004
-0.0819955
0.0309948
-0.000448514
0.000198353
0.000250178
-0.00505031
0.00742481
-0.0023742
-0.116015
0.0239505
0.0920648
0.000235028
-3.50119e-05
0.000407653
-0.000578273
0.000170762
-0.0226434
-0.00541267
0.028055
0.000112036
-6.06828e-05
-5.13583e-05
-0.00302931
5.87453e-05
-1.82842e-05
-4.04658e-05
0.00077397
0.00265839
4.90128e-07
0.0702034
0.0201709
-0.0903749
-0.00118348
0.020599
-0.0194153
0.0027708
0.00108487
-6.10453e-06
2.17248e-05
0.0254615
-0.0195135
-0.00594808
-0.00115951
0.00336933
-1.60966e-05
1.01257e-05
5.97228e-06
6.19533e-06
-3.86719e-06
-0.0780576
0.0487267
-0.00621197
0.0121382
-0.00592634
0.000436412
0.000134212
-2.83738e-05
2.23415e-05
6.03181e-06
0.00534
-0.00044663
0.000787613
-0.000706416
-8.12028e-05
-0.113661
0.0953671
0.0182937
4.94298e-05
-5.35487e-05
4.12254e-06
0.00626787
-0.00971169
0.00344405
-3.09407e-05
0.000121351
0.00755973
6.20019e-06
-3.36842e-06
-2.83121e-06
1.86966e-05
-3.63496e-05
1.7653e-05
-0.000543305
-8.20632e-05
7.30006e-05
-0.000182752
-0.000267665
1.12312e-05
0.00208954
0.00133949
-0.00342903
3.22243e-05
-5.65649e-05
2.43406e-05
4.81553e-05
-6.51634e-06
-4.16386e-05
8.51504e-05
1.84214e-05
-0.000103568
0.0159408
-0.00940893
0.00122827
-0.00238778
0.00269268
-0.000233804
-0.00245884
0.000144149
0.00048708
6.3123e-05
-8.11367e-05
1.8007e-05
-2.5457e-05
2.89346e-05
-3.47741e-06
6.25478e-05
-5.4049e-05
-8.50008e-06
-0.000765241
-0.000113843
9.32266e-05
2.06181e-05
-9.92438e-06
-6.17133e-06
0.0735293
-0.0115933
1.40249e-05
3.21269e-05
-4.61518e-05
0.0164904
-0.0115831
-0.00490714
-2.33546e-05
8.72553e-06
1.46303e-05
-0.0484158
-0.0115299
-0.000837276
0.0028545
0.000204797
3.02349e-05
0.00589009
0.0011708
-0.00706083
0.000122211
-4.9209e-05
-0.00662048
0.00620374
0.000416684
-2.67479e-05
4.07728e-05
0.000109167
0.000280789
-0.00038996
5.22431e-05
-2.80956e-06
-0.0615756
0.10349
-0.000336425
3.25116e-05
7.95203e-05
0.000101479
-1.63264e-05
-4.61321e-05
2.7607e-05
-0.0798223
0.0165119
0.0120643
0.00387655
-0.00153518
0.00106
0.000475189
0.00108362
-0.00553364
0.00445013
0.00353981
-0.00184748
-0.00169232
-3.30739e-05
6.43915e-05
-3.13165e-05
-2.61002e-05
-4.16629e-05
6.77632e-05
-0.105787
0.0842553
-0.00178548
0.00115211
0.000633386
0.000127663
0.000150139
-3.94029e-05
-0.000110736
-3.08408e-05
3.07579e-05
8.35701e-08
-0.000322273
0.000208085
0.000114192
-0.00399601
0.00128575
0.0027104
-0.000575149
-0.0019232
0.00249836
-1.1055e-06
1.94659e-05
-1.83599e-05
6.58231e-05
-6.658e-05
7.57692e-07
-6.84078e-05
2.75289e-05
4.08777e-05
0.000158788
0.000353823
-0.000512602
3.11888e-05
-5.87768e-05
2.75878e-05
-0.00127884
0.0029577
-0.00167885
5.89069e-05
-1.70045e-07
-5.22251e-06
-0.000243501
0.000248723
-2.61468e-05
-5.57482e-06
3.4376e-05
-0.00105077
0.000106954
0.000943799
-0.000926583
-0.00196928
0.002896
-4.77213e-05
-2.27068e-05
0.000323696
0.000367622
-0.000691306
-0.00292909
0.000261009
0.00266805
0.00182625
-0.000763866
-0.00106241
-0.0153413
0.0186557
-0.00331406
-0.0040711
0.00466659
-0.000595491
-0.00163046
-0.00053432
-0.0833629
-0.0319741
-0.000210201
-0.0027189
1.94882e-05
-0.00290879
0.00380246
-0.000893716
-4.21457e-05
3.72734e-05
4.87121e-06
0.00851179
-0.0114144
0.0029027
-0.000347935
3.99715e-05
0.000307953
-3.31507e-05
-1.05243e-05
4.36771e-05
-0.000685704
9.97222e-05
0.00249882
-0.000228639
-0.00227015
0.00126207
-0.00183724
1.11424e-07
1.80429e-05
-1.81482e-05
2.39322e-05
-2.19801e-05
-1.9526e-06
-0.00463617
0.024691
5.07462e-05
-7.6849e-05
-0.00125774
-0.000689833
0.000686921
2.90155e-06
6.55391e-05
-5.26529e-05
-1.2883e-05
-0.00832675
-0.0151872
0.023514
0.00101677
-0.00113583
0.000119066
-0.00310959
-0.00724265
0.0103522
-2.69368e-06
2.39791e-05
-0.0216506
0.0341973
0.0004938
-0.00433304
0.000478693
-0.000642816
0.00301757
-0.00394409
7.42364e-06
-4.05741e-05
2.56065e-05
-3.35432e-05
7.93669e-06
-0.00129384
-2.08575e-05
-9.2985e-05
0.0108238
-0.00580904
-0.00501464
-0.000752424
0.000577589
0.000174838
0.000225851
0.00227298
-0.000422562
0.00143933
0.00203581
0.0144547
-1.22619e-05
5.45989e-06
6.80446e-06
5.90046e-05
0.000208426
-0.000267431
0.000465904
-3.25392e-05
-0.000433502
0.00925397
-0.00325553
-0.00599878
0.00104723
-3.80947e-05
-0.00100914
1.56921e-05
-1.67979e-05
-0.011532
0.00532006
-8.34869e-05
0.000249756
-0.000166305
-0.00019318
0.000268752
-7.55791e-05
-0.0010732
0.00327422
-0.00220093
0.000294803
0.0232735
-0.0183163
-0.00495714
0.000437089
-7.29653e-05
-0.000364121
1.87074e-05
-1.21966e-05
-6.51019e-06
-1.76384e-05
-2.84918e-05
-1.96893e-05
6.87314e-05
-4.90463e-05
-5.36184e-05
4.62478e-05
7.37152e-06
0.00139159
-0.00932679
0.00115047
-0.00206493
0.000914485
0.0111918
-0.00433033
0.00960346
0.00309981
-0.0127033
-0.0037267
0.00782384
-0.0040971
-0.00260105
0.00487277
-0.00227173
1.18184e-05
6.32554e-06
0.00123426
-0.000194875
-0.00103938
-0.000595848
-5.63429e-05
6.44487e-05
1.09174e-06
0.00293333
4.6129e-08
-0.0029334
-5.94738e-05
3.36951e-05
-0.0827793
-0.0223335
0.105113
0.000230698
0.00449382
4.91496e-05
-3.02614e-05
-1.8886e-05
6.50614e-06
-6.01236e-05
0.0101157
-0.00456984
-0.00309353
0.0282867
-0.00375494
0.0100227
-0.000115453
-0.00020682
-0.000484968
0.000366334
0.00011864
0.000314565
0.000430687
1.33889e-05
-2.26219e-05
2.27355e-05
0.0218005
-0.00576516
7.3665e-05
0.00106983
-0.0011435
-0.000164182
-0.00031944
0.000483618
-0.00167056
0.0012813
0.000389262
-6.22451e-06
6.71826e-07
-6.27666e-05
4.64577e-05
-0.0240124
0.004896
-0.00982227
-0.0127478
0.02257
-3.40273e-05
6.53461e-05
8.5961e-05
0.000166283
0.00602682
-0.00838564
0.00235883
-7.63801e-05
-1.44785e-05
9.08575e-05
-0.00714782
0.00199129
0.00515653
-0.00103334
0.00278613
6.5996e-05
-2.97692e-05
-3.62268e-05
-5.75068e-05
6.8124e-05
-1.06179e-05
-0.00591287
0.00587972
3.314e-05
0.00290841
-0.000236883
-0.00267152
0.0140465
-0.0303992
0.0163527
-0.000581424
-0.00132827
0.00190974
0.00326584
-0.00831624
-0.0368728
0.0281468
0.00872608
0.00691308
-0.00551452
-0.00139851
0.000141198
6.45726e-05
0.000940744
0.000885494
0.00614223
-0.000115397
0.0022077
-0.00523188
3.16611e-06
-2.19965e-05
1.88319e-05
0.036218
-0.0221715
-0.0127579
0.0225656
-0.00980765
0.000267893
0.00266544
-0.000398869
-0.000279313
0.000678189
0.000256017
-0.000420187
-0.00050186
-0.00121889
0.00190969
-0.00104198
-0.000867713
0.00531434
0.00480136
-0.000635719
0.002496
-0.00186027
0.00045769
-0.000599135
0.000141447
5.04098e-06
0.000505601
7.19708e-05
0.000682758
-0.00151996
0.0109022
-0.00291509
-0.00798717
0.0062013
0.00305248
-0.000537224
-8.54097e-05
6.92031e-05
-3.0789e-05
-0.00110528
7.94423e-05
-5.01519e-05
-2.92936e-05
-0.00337676
5.29602e-06
-4.13863e-05
3.60952e-05
0.00572725
-0.00317158
-0.00255572
-0.00102849
0.00217897
-0.000912834
0.000888195
4.72255e-06
-0.00124633
0.000500015
0.000746318
0.0013271
0.000833019
-0.00216016
8.06768e-06
9.75425e-06
-1.78222e-05
-0.00282056
0.00154173
-0.000378127
0.000701826
-1.20417e-05
-2.1854e-07
1.96563e-05
2.94934e-05
7.58671e-05
0.00263839
0.00764005
-0.0102783
4.68987e-05
-1.46745e-05
0.0374807
0.0467125
-0.000146558
0.000162463
-0.000251093
0.000238715
1.23651e-05
0.0291799
-0.0197647
-0.000632424
0.00010812
1.82607e-05
2.42117e-05
-0.00526333
0.0188774
-2.7961e-05
-0.000511575
0.00525928
0.00227758
-0.00753686
0.0034038
-0.000633015
-0.0047914
0.00612685
-0.00133539
0.000223699
0.000162607
-0.000386295
2.07155e-05
0.000102975
-0.00187701
0.00189945
-2.24353e-05
4.46502e-05
-6.43442e-05
5.33221e-06
6.04907e-05
0.00241566
0.00373709
-4.18294e-05
1.59485e-05
2.58815e-05
-0.0115802
-6.20655e-05
0.000175911
-0.000113847
-0.00897167
0.0535481
-4.78796e-06
-7.15933e-05
0.000345953
-0.000135027
-0.00021092
-1.9338e-05
2.44967e-05
-5.16024e-06
-0.12257
0.0392074
1.50973e-05
4.92726e-05
-0.000117003
6.77307e-05
-0.0028625
0.00487115
-0.00200868
-0.0206482
-0.00179493
-0.00411796
-0.00318572
-0.000768477
0.00395421
-0.0155039
0.0665041
0.000344894
-0.00077897
0.00043426
0.00496162
-0.0276056
-6.68314e-05
8.081e-05
-1.39743e-05
-3.31257e-05
0.000405704
-0.00289304
0.000462993
-0.000135413
-0.000404201
-2.30461e-05
-1.87836e-05
-4.6553e-05
9.58256e-05
0.00190387
-0.00122108
1.98487e-05
-1.17825e-05
0.00277272
-0.00384595
4.11441e-05
-5.10342e-05
9.89206e-06
-0.000618585
-0.0024278
-0.00746243
-0.00328861
0.010751
0.000444461
0.00246395
-3.81347e-05
-0.000587066
-1.443e-05
7.62862e-06
6.80155e-06
-0.0186077
-0.0281819
0.0467896
-0.00106372
0.00695393
0.00597936
-0.00863057
0.00265112
-0.0197905
-0.0056682
0.0254587
-1.69606e-05
2.01256e-05
2.72564e-05
-2.75127e-05
2.5642e-07
0.00236538
0.00143278
0.000399402
-0.00183217
0.000217539
0.000128412
-0.0523319
0.0154592
-1.09271e-05
1.32947e-05
-2.36684e-06
-0.000174729
-2.22174e-05
2.97257e-05
-1.94985e-05
1.88314e-05
6.67037e-07
-0.000388674
0.000388654
2.07348e-05
-2.55134e-05
4.77832e-06
3.7031e-05
1.01162e-06
-3.80418e-05
-0.0358287
-0.00446338
-0.000630509
-0.0052014
-0.00796096
1.83799e-06
-2.7295e-05
-0.00212941
0.00293965
-0.000810446
-0.0155007
0.0166022
1.46406e-05
-3.22835e-05
-4.29537e-06
1.76407e-06
2.52928e-06
0.00245322
-0.0051156
9.55323e-05
-4.87796e-05
2.6463e-05
2.23168e-05
1.13631e-05
-8.30273e-06
-3.05972e-06
-0.00877574
0.00623919
5.21208e-05
1.60031e-05
-0.00072743
-0.000518916
7.94304e-06
3.89451e-05
4.6709e-05
4.53981e-05
-8.31248e-05
3.77259e-05
0.0164301
-0.0131653
-0.00326481
-3.67879e-05
-1.19923e-05
0.000628323
-0.00180573
0.00117741
-0.00476335
-0.00185695
0.000515517
-0.000356729
-7.99289e-05
-6.13295e-05
4.4295e-06
5.68985e-05
-0.000964166
-0.00303179
7.36524e-05
-0.000275794
-0.0668381
0.0482303
3.97744e-05
-2.39857e-05
-1.57885e-05
0.000188003
-7.67352e-05
-0.000111269
-3.03945e-06
-1.25536e-06
8.74914e-05
8.47719e-05
-1.00561e-05
0.00011128
-0.000333699
9.59489e-05
0.00023776
-0.000454537
0.000195447
-0.00141724
0.000117324
-1.45752e-05
-1.14778e-05
-2.12764e-05
-9.56395e-06
-0.0310538
0.0215676
0.00948439
-0.00142658
-0.00358078
-1.98252e-05
-0.000321834
-0.00353021
0.000929146
-0.0102571
0.0027947
0.00984794
-0.00133619
-4.54238e-05
-2.12794e-05
-4.00514e-05
0.00510989
-0.0249005
-0.00406654
-0.0043191
0.0149218
-0.0310101
0.0160886
-3.76136e-05
-4.53367e-06
0.00397629
-0.00735355
5.00697e-05
-8.9245e-06
1.72382e-05
1.46836e-06
-2.63104e-05
-1.45294e-05
4.08398e-05
-0.00117055
-2.66501e-05
-0.000344243
0.000404749
-6.04975e-05
-0.0260924
0.00154586
0.0217276
0.00262122
7.14625e-05
-0.0065094
-0.00203403
0.00854352
-3.35525e-05
0.000142784
7.35071e-06
-0.00971312
0.00175101
0.00796188
0.0173387
-0.0219749
-0.00144569
0.00730215
-0.00585639
2.4184e-05
-2.6875e-05
2.69114e-06
1.32392e-05
-7.25593e-05
5.93226e-05
0.0177762
-0.026103
-1.1126e-05
-3.303e-06
-0.000364094
0.0167942
0.000498861
-0.00141859
1.78438e-05
4.77325e-06
-0.034652
0.0310085
0.00364356
0.00369702
0.000176019
9.35211e-05
0.000382873
-0.000147293
-0.000235568
5.30627e-05
-3.3406e-05
0.000102703
-8.19876e-05
4.88905e-05
-2.91442e-05
-3.95893e-05
3.12557e-05
-1.45196e-05
-1.50496e-06
1.60244e-05
-4.59703e-06
2.53317e-05
-3.73401e-05
4.26392e-05
-0.131522
4.58112e-05
-8.53947e-06
-5.32511e-05
9.99054e-05
-4.66603e-05
3.63779e-05
0.000151625
0.00036608
1.68021e-05
-0.00857947
0.00451294
-6.0336e-05
-3.06672e-05
9.10048e-05
-0.000186093
-0.000177922
0.000364013
-0.0326728
0.0299489
0.00272403
-0.0238131
-0.0108389
3.80091e-05
-3.37906e-06
-1.28138e-05
-9.59453e-06
2.24096e-05
4.92819e-05
-5.1275e-05
1.99366e-06
-0.000205482
3.84936e-05
0.00279895
0.00339535
-0.00619417
4.57157e-05
2.13012e-05
-6.70177e-05
2.00121e-05
-2.26809e-05
0.00295877
0.000581044
2.94383e-05
2.36252e-05
0.0319659
-0.0190177
-0.0129479
0.0054856
-0.0105311
-1.62616e-05
1.86693e-05
-3.81176e-05
1.9441e-05
0.000241449
0.0066717
-0.00139234
0.00949029
-0.00809781
-0.00221266
0.00163125
2.8594e-07
-3.6884e-06
-0.000761639
0.0244849
4.02402e-05
-2.15742e-05
-4.11427e-05
0.000182951
-0.000141837
0.00151416
-0.000594892
0.000488964
0.000105929
5.5845e-07
-0.000344795
3.92293e-05
6.58071e-06
7.94575e-05
-5.02734e-05
-2.91835e-05
-5.35229e-05
2.0449e-05
-0.000602638
0.000126042
0.000476589
0.000173738
0.000407263
0.0105129
-0.0932919
-0.000738907
0.00166936
-0.000930457
7.32694e-06
-3.36373e-05
7.58644e-05
-0.000106805
0.000259265
0.000337367
-0.000596612
0.000486128
-0.000582757
3.37567e-05
1.84902e-05
-0.00790498
-0.0219453
0.0298504
-2.35593e-05
1.603e-06
2.19585e-05
-0.0908981
-0.00996848
0.100867
0.000957425
-0.00126009
0.0173066
-0.0711349
0.0538282
-0.000147653
8.57007e-05
6.19515e-05
-0.00493136
0.0145348
-0.008474
0.0111125
1.43608e-05
-2.85882e-06
-1.15019e-05
2.42038e-05
0.000425668
-0.000449871
0.00563841
-0.00853617
1.99091e-05
-3.72189e-05
-0.000489772
-0.00011287
-0.000156627
3.11859e-05
-2.08115e-05
-1.0376e-05
-3.17665e-05
-0.000122442
0.00015421
0.00139178
-0.00134497
-4.66598e-05
0.000984926
-0.00179027
0.000217484
-0.000126986
-9.05013e-05
1.06918e-06
-1.58453e-05
1.47764e-05
0.000492823
0.0166407
-0.0171339
-0.00813045
0.0134567
-0.00532618
0.0251444
-0.0109436
-0.0142003
0.000941232
0.000471402
-0.00141264
0.000165422
6.95789e-05
-2.44688e-05
3.55762e-05
-1.11058e-05
0.03567
-0.0319193
-0.00375077
-3.45319e-05
6.12158e-05
-2.59672e-05
-3.08461e-05
-1.16434e-05
4.2828e-05
3.86982e-06
-1.48991e-05
1.10297e-05
-1.53483e-05
-1.29564e-05
2.83091e-05
-2.69512e-05
0.000155539
-0.000128592
0.0089381
0.026732
-0.000314979
0.000424144
-0.0156482
0.00582594
-1.96789e-05
7.838e-05
-5.86997e-05
0.00747701
-0.00399517
-9.05438e-05
-1.09985e-05
0.000101542
-0.00043103
-1.76786e-05
-1.06956e-05
-0.00578999
-0.0851081
-0.000104652
-0.000217232
-0.00016145
0.000247411
0.000418772
0.000628493
0.000643663
0.00110013
-0.00174379
0.000262836
0.000112647
-0.00407617
0.00689911
0.000212515
-0.00171232
0.0014998
-0.00120489
0.00718421
0.00154934
-0.00367915
2.80895e-05
6.77505e-06
-3.48636e-05
-0.0185662
0.0190589
5.73991e-06
-1.82785e-05
1.25389e-05
-9.0949e-05
-5.67041e-05
0.025807
-0.000345516
6.15916e-05
-4.23484e-05
-1.92394e-05
6.81034e-05
-4.98245e-06
-0.000489586
-2.17702e-05
-2.64795e-05
0.0147734
-0.0159567
2.78631e-05
6.33624e-06
2.80834e-07
2.69316e-05
0.000232731
-6.74193e-05
0.0013678
0.0013665
-0.00273426
-4.37819e-05
0.000119648
0.000591988
0.00221264
-0.00280461
-0.000178323
0.000121936
-0.000205424
0.000443418
7.80145e-06
2.65466e-05
-2.31408e-05
-3.40608e-06
-4.23714e-05
-2.2273e-05
-9.97483e-05
0.0110016
0.00232252
-0.00253273
9.60159e-06
-2.49479e-05
0.000225288
-1.99166e-05
-5.48324e-05
7.47498e-05
0.0143753
-0.00700403
-0.0073711
-0.000140345
-0.000235144
-0.000225028
-0.000229494
4.98585e-05
-1.0744e-05
1.18137e-05
8.56632e-05
-0.000112615
-0.00962136
-0.00191067
7.21829e-05
-5.54375e-05
-1.67452e-05
-0.000692197
0.00027883
-0.00310509
0.00268576
0.000419304
3.92885e-05
-1.19432e-05
-2.73457e-05
0.000131786
-0.000288618
0.000156837
0.000101661
0.000548647
-0.000650318
-0.0131988
0.00680148
0.00639733
-3.45894e-05
6.68518e-05
-3.22616e-05
5.3172e-05
-1.94125e-05
0.00152625
0.00387204
-0.00539838
0.000881288
6.90837e-06
0.00903765
-0.0372196
0.00114321
-0.00217169
5.54491e-05
-9.73571e-06
-0.0127779
0.0153146
-0.00253664
0.00817064
-0.00154639
-0.0066241
0.0209807
-0.0288859
7.29761e-06
-4.86774e-05
0.000245946
-0.000278221
0.00160558
0.00157594
-0.000876247
-0.000413917
1.81453e-05
-6.23673e-05
4.42228e-05
-0.0116071
0.0112686
0.000338763
0.000790412
-0.000726582
-0.000657516
0.0013841
-0.000201909
-0.0329976
-0.0193342
-0.000332671
7.96586e-05
0.00025302
-0.000102477
8.12965e-06
9.43466e-05
2.42747e-05
4.79101e-05
0.0582351
-0.0409285
0.000690061
-0.000118186
-0.000571869
0.000554314
0.000994631
-0.00154896
-0.00170745
-0.000338998
0.00204649
0.000106247
0.000111237
-0.00423989
0.00576623
0.00643759
-0.0217787
-0.0312101
0.0223889
0.00882143
0.0100878
0.0188871
-0.0289738
-0.0283731
0.0384614
9.8259e-05
4.44292e-06
1.75919e-05
4.40002e-05
-0.000714
0.000434689
-0.000478502
0.000285818
-0.00178173
0.00114598
3.24934e-06
2.09352e-05
0.0126146
-0.0104357
-0.00217887
-2.76721e-05
8.8889e-06
7.75583e-05
-9.62475e-05
1.86906e-05
0.00694469
0.0181997
3.66174e-05
1.58746e-05
-5.24924e-05
-0.000886531
0.00320903
-1.52443e-05
7.24977e-07
-0.00412058
-0.00748642
0.00044166
0.00146803
6.48734e-06
-2.58252e-05
-1.05484e-05
-7.99937e-05
0.000405889
-0.000257624
-0.000148254
-0.00524814
0.00420039
0.00104735
0.00257309
-0.00236057
0.00032876
0.00680129
-0.00713038
-0.00756029
-0.00182482
-9.2353e-05
-0.000579145
0.00152037
-1.82452e-06
-1.31794e-05
4.97964e-05
5.06498e-05
-3.50618e-05
-1.559e-05
4.05117e-05
0.000357799
-0.000398309
-0.00686391
0.0213544
-0.0144905
0.00418749
-0.00210908
2.35495e-05
0.000226969
-0.000580644
0.000353673
4.07977e-05
2.94551e-05
-7.02522e-05
0.012262
-0.00274971
-0.00951133
-0.000160456
0.0736897
-7.44191e-05
-0.000615425
6.19406e-05
-8.18581e-05
-0.000813383
-0.00097209
0.000174991
4.8363e-05
-0.000223356
2.77854e-05
-2.17883e-06
4.28792e-05
6.40289e-06
0.0157405
7.44076e-05
-0.000295138
0.00022075
-0.000328807
-1.91361e-05
0.00041466
-0.000100782
0.000338747
0.000351805
-0.000690537
-0.00044754
0.000153851
0.000293668
0.00518483
0.00298584
0.00542655
0.000835849
-0.0062627
-1.55024e-05
4.52236e-05
-2.97209e-05
6.50372e-05
-6.50374e-05
-0.000126293
-0.00187278
0.00199907
-1.40078e-05
-3.28638e-05
-0.000182169
-0.000150502
-0.000710962
-0.00445831
0.00516963
0.0009693
0.000240021
-0.00120931
-9.17964e-06
7.74995e-05
-6.83165e-05
0.00124681
-9.46997e-05
0.000657365
-0.00190461
4.29273e-06
1.90703e-06
2.7404e-05
-4.29062e-05
8.01651e-06
-3.24869e-05
-0.0687822
0.00517882
0.0636034
4.83424e-06
-3.54015e-07
-4.47989e-06
0.00944692
0.00316766
7.93821e-05
-5.14478e-05
-2.79342e-05
-0.0163995
0.00362145
-0.000906041
0.00204925
-1.80812e-05
-8.49828e-06
-6.6551e-05
-2.78945e-07
0.00222059
0.00525666
-0.000283358
0.000119479
0.000163887
-0.000494936
0.00113859
-3.93262e-06
2.15136e-05
-1.75796e-05
-0.000126617
-4.83802e-05
0.000175
-0.00505385
-0.000713888
0.00576772
-0.00062172
-7.04763e-05
0.00834863
0.0219951
-0.0303443
-4.87538e-05
-3.80654e-05
8.68207e-05
3.44214e-05
1.62292e-05
3.03862e-05
4.90726e-05
-0.00571201
0.000658152
1.51649e-05
-2.09535e-05
5.78839e-06
0.0183907
-0.0165162
-0.00187475
8.50195e-06
5.23579e-05
-0.000101112
-4.2314e-05
5.36359e-05
-1.13214e-05
-0.000827833
0.000778447
-0.00384499
0.00915932
-0.0177509
0.00022831
-0.000107831
-0.000120479
0.0630965
-0.0437075
0.000256488
-7.63732e-05
-0.000180112
6.36906e-05
-5.04501e-05
-1.81294e-05
-5.80466e-06
0.00188697
-0.00123705
-5.29631e-05
9.37617e-05
-0.0178988
0.0110348
3.45345e-05
0.000593911
-0.00062848
-0.00745941
0.000262388
0.0071972
-6.12066e-05
4.96154e-05
1.15926e-05
-4.91746e-05
-2.347e-06
8.78694e-07
5.56391e-05
-2.46537e-06
-3.17053e-05
3.90068e-05
0.00320115
7.01056e-05
-2.84695e-05
-4.16321e-05
3.86057e-05
-0.000169049
-0.000278483
0.0160856
-0.0121094
-9.36493e-05
8.3102e-05
3.5733e-05
0.000139254
-0.000125181
2.96083e-05
9.55708e-05
-0.0128624
-0.0181475
0.000401263
-0.000366711
-0.0270053
0.00395129
0.023054
0.00144247
-0.00156877
-0.00154403
-0.00163865
-3.42811e-05
1.23238e-05
-6.21428e-05
-0.00148137
0.000742465
-0.00742468
0.00742543
-7.59886e-07
0.00238051
0.000240728
-3.60115e-05
4.40252e-05
-0.0369509
0.0302425
0.00670848
0.00302938
-0.00671282
0.00368355
-0.0117922
-0.000305632
-0.000179333
-0.000220408
9.37936e-05
-0.000214108
7.53435e-05
0.000138767
0.000276814
0.00423562
-0.00451245
0.000579116
-0.000893933
0.000314833
0.00021036
-0.000104115
-0.000981641
-0.000843115
-1.94975e-05
1.55686e-05
-0.000251476
2.12531e-05
0.000230228
0.0123638
0.00602681
9.68157e-05
0.000131496
0.00018162
5.11125e-05
-0.000160187
0.000419454
0.0134105
-0.00437289
-0.00295093
-0.00676247
0.00553844
-0.00276571
-0.0107281
0.00718785
0.00354028
4.89102e-05
-9.68171e-06
-0.0100027
0.0105733
-0.000570473
-0.00212732
0.00193123
0.000196103
-0.0232769
-0.0136739
-0.00642076
-0.00199599
0.00841675
-0.0160237
0.00310501
0.0129187
0.000369776
0.000521287
0.000374847
-0.00135642
-0.00950062
0.00829567
7.61566e-05
-0.000133935
5.77822e-05
-8.68966e-05
0.000285242
0.00516621
-0.00213703
-7.08514e-05
0.00011044
-3.95848e-05
-0.000478244
-0.000158477
-0.00165116
-0.000322737
0.000307643
-2.68541e-05
-0.000123517
9.74036e-05
2.61148e-05
-0.000196962
3.78148e-06
0.0076027
0.00141157
-0.00901436
3.91932e-05
3.09158e-05
-7.5038e-05
-1.86105e-05
0.0159291
-0.0177173
0.00178815
0.0035394
-0.0110629
0.00752344
2.6521e-05
-1.20704e-05
-1.44504e-05
0.00819891
-0.00939934
0.00120066
4.64387e-05
9.20027e-06
-0.000867318
0.00142162
-1.35642e-05
3.47333e-05
-2.11762e-05