/*--------------------------------*- C++ -*----------------------------------*\
| =========                 |                                                 |
| \\      /  F ield         | OpenFOAM: The Open Source CFD Toolbox           |
|  \\    /   O peration     | Version:  v2012                                 |
|   \\  /    A nd           | Website:  www.openfoam.com                      |
|    \\/     M anipulation  |                                                 |
\*---------------------------------------------------------------------------*/
FoamFile
{
    version     2.0;
    format      ascii;
    class       volVectorField;
    location    "100";
    object      ddtCorrDdt0(U);
}
// * * * * * * * * * * * * * * * * * * * * * * * * * * * * * * * * * * * * * //

dimensions      [0 1 -2 0 0 0 0];


internalField   nonuniform List<vector> 
27915
(
(-0.00111054 0.00108066 3.40637e-20)
(0.00947418 0.0230396 -2.93672e-20)
(0.0118469 -0.00234648 0)
(8.11754e-05 -0.000158318 6.90965e-21)
(0.000102292 -0.000220079 8.70218e-22)
(6.10883e-05 -0.00226705 1.91889e-20)
(-0.000119014 -8.68526e-05 -3.58943e-22)
(0.0146941 -0.000887085 -9.52137e-21)
(2.07382e-05 -4.76976e-05 0)
(-0.00585971 -0.0139319 -1.55749e-20)
(0.00570891 -0.0083923 1.17407e-20)
(-0.172343 -0.0366276 0)
(0.0495013 -0.0430063 -2.96313e-22)
(-0.000124131 -6.80352e-05 2.8537e-22)
(-4.4824e-05 0.000421332 5.25471e-23)
(0.000111194 -5.53819e-05 -1.02202e-20)
(0.0845721 -0.133424 -3.78195e-21)
(0.000340482 2.68883e-05 -3.38579e-21)
(-0.0159276 0.00124647 0)
(0.0149732 -0.000522741 -3.02989e-21)
(0.071146 -0.027947 -8.09936e-22)
(0.000470625 0.000472603 0)
(0.164604 0.0427877 -6.07567e-21)
(0.00032386 -8.57159e-05 2.53647e-20)
(0.00011622 -5.63328e-05 9.26834e-21)
(5.50561e-05 2.20409e-05 -9.94767e-21)
(0.067566 0.0650902 1.87229e-21)
(7.99144e-05 -0.0001804 3.89399e-21)
(0.0172109 -0.000414571 0)
(0.00105544 4.14144e-05 -8.04787e-24)
(0.000225621 0.000125015 0)
(-0.00926034 -0.00837599 0)
(1.05134e-06 4.26755e-05 -1.32511e-21)
(1.17283e-05 -6.04251e-05 -1.58532e-21)
(-0.0531345 0.0937032 -5.51129e-23)
(1.34937e-05 -6.80119e-05 0)
(5.41875e-05 -3.12381e-07 4.37991e-21)
(5.47106e-05 1.99026e-05 1.06681e-20)
(0.0196501 0.0536548 1.83127e-20)
(0.000148259 4.87926e-05 -7.30435e-21)
(-0.000965526 -0.0018762 1.30257e-20)
(5.57093e-05 -3.59475e-08 -4.86156e-21)
(-0.0378014 0.0203776 0)
(0.000161878 2.64212e-06 -1.03056e-20)
(-0.113462 0.485522 1.30175e-20)
(0.000139286 6.19257e-05 -3.9682e-21)
(0.000163768 -3.53e-05 -6.9416e-21)
(0.0143422 0.0116674 1.36352e-20)
(0.000107078 -5.99327e-06 -4.32283e-21)
(4.91891e-05 6.32507e-05 -6.09427e-21)
(0.0133304 -0.000275941 0)
(0.0323892 -0.0698748 9.53667e-21)
(0.0126597 0.0521959 2.50256e-20)
(0.00099736 -0.000208802 0)
(0.00106206 0.000515229 7.05612e-21)
(0.000162393 -3.64401e-05 0)
(5.96714e-05 1.98465e-05 0)
(0.0403392 -0.0579035 4.73136e-23)
(0.0312083 -0.0585934 -3.33188e-22)
(0.000219004 0.000134036 8.75659e-21)
(0.00689353 -0.174471 0)
(-0.00256373 0.00523903 2.67531e-20)
(-0.134527 0.495262 -6.0316e-21)
(0.00897958 -0.000432416 0)
(0.000127218 1.92083e-05 -1.60647e-20)
(0.017751 0.0605684 -1.02235e-20)
(-0.203897 -0.096142 -1.25983e-20)
(0.0135004 -7.56137e-05 -2.29494e-20)
(-0.0546751 0.0848057 -1.18054e-20)
(9.3449e-05 2.68469e-05 0)
(-0.00927812 -0.00161346 2.93609e-22)
(0.000333112 -0.000105352 -1.63194e-20)
(0.000334626 5.73079e-05 8.37588e-21)
(-0.00100284 0.277923 0)
(-0.010107 -0.0132032 0)
(-0.0195186 -0.00268372 -6.93425e-22)
(0.00100744 1.75333e-05 7.30307e-21)
(-3.34657e-05 -6.68686e-05 -2.13751e-21)
(0.0573114 -0.165384 -2.67276e-21)
(0.0153059 0.0131725 -9.08539e-22)
(7.99312e-05 -0.00204632 1.60881e-20)
(0.000228967 7.95984e-05 9.19245e-21)
(0.00320786 -0.000371766 0)
(0.012012 -0.0138611 -2.76796e-20)
(0.0533953 0.119373 0)
(0.0410038 0.216922 0)
(6.9549e-06 -2.70353e-05 0)
(-0.0368585 0.0187615 -1.66499e-20)
(0.0833084 0.268157 -4.71568e-22)
(0.0124943 0.00964758 -1.4649e-21)
(5.68715e-05 -0.000148365 -1.20993e-20)
(0.00846955 0.256305 -2.27186e-21)
(5.61405e-05 3.94384e-05 1.03086e-21)
(0.0816902 0.0769259 2.05798e-21)
(0.0186701 -1.49009e-06 -9.28671e-21)
(0.0107138 -0.00263896 0)
(0.0712955 -0.0333722 1.02731e-20)
(-0.00117702 -0.0123697 6.87792e-21)
(-0.00186626 0.00534746 -1.18215e-20)
(-7.66643e-05 -2.40388e-05 1.92219e-22)
(0.000674135 0.00132812 0)
(5.5537e-05 2.06312e-05 -6.40684e-22)
(-0.0011504 -0.0118845 4.13032e-21)
(0.00165823 -0.000971485 -8.65163e-21)
(-0.00146296 -0.00469101 0)
(0.000261822 5.26907e-05 7.63066e-21)
(0.0608005 0.124169 1.15515e-21)
(-0.0164755 -0.0664997 2.30308e-20)
(5.77258e-05 1.73892e-05 -2.32234e-21)
(0.00412055 -0.00681942 8.10505e-21)
(-0.0161001 0.122049 -8.74888e-21)
(-0.000641172 -0.00182606 1.40564e-22)
(-0.00698073 0.033445 3.01841e-25)
(0.110312 0.00482669 -6.7609e-21)
(-0.0201318 -0.0613726 6.96856e-21)
(0.0267633 -0.0722381 -7.28646e-21)
(0.221437 -0.0988354 0)
(-0.00863943 -0.00732586 0)
(0.0014971 -0.00119772 4.32107e-21)
(0.000108366 -3.85467e-06 -8.2911e-21)
(7.33694e-05 -0.000122104 -9.53299e-21)
(-0.005675 0.027777 9.11414e-22)
(-8.29522e-07 4.34919e-05 0)
(0.000530283 0.000435315 1.43269e-20)
(-2.54431e-05 -1.25808e-06 0)
(-0.161804 0.455926 1.01465e-20)
(-0.225294 0.484784 1.36016e-20)
(-0.00861067 -0.00195991 0)
(0.000265319 -8.63869e-05 0)
(0.000138369 -0.000247597 -3.03206e-21)
(-0.000851425 0.00622818 0)
(0.0754657 0.0545339 -2.11342e-22)
(0.08899 0.0664628 0)
(-0.03422 0.0221267 0)
(0.0479665 -0.280584 2.7707e-20)
(-0.0360785 0.0431733 -4.3101e-20)
(-0.0679178 -0.246224 -1.49799e-21)
(4.43497e-06 6.20623e-06 2.8853e-21)
(0.000104188 -0.000254786 -3.55762e-21)
(7.07681e-05 -5.21788e-05 5.24279e-21)
(9.19022e-05 4.35162e-06 0)
(0.00103762 0.000587729 -8.20901e-21)
(8.5104e-05 -1.05438e-05 -5.74219e-21)
(-0.0252041 0.0557691 0)
(-0.00758893 0.13474 0)
(0.0123008 -5.05859e-05 1.30642e-20)
(0.00464695 -0.00124173 -2.76744e-20)
(0.0128638 0.0103179 1.21413e-20)
(-0.0196739 -0.00728957 0)
(0.00331323 -0.00012192 1.1569e-20)
(0.241111 -0.0887414 0)
(7.33723e-06 7.3529e-06 -2.93286e-21)
(0.105108 -0.0120904 -6.14921e-21)
(-0.133935 -0.175807 0)
(0.0893103 -0.0991471 0)
(-0.0204585 0.00347293 0)
(-0.0331823 0.0593955 1.14389e-21)
(-5.94462e-05 3.76706e-07 2.6654e-23)
(-6.85242e-05 5.44613e-07 0)
(0.000115294 1.35578e-05 1.10174e-21)
(0.0764121 0.0444717 -1.23382e-20)
(-0.0548549 -0.034611 5.53864e-21)
(8.47851e-05 -0.000154445 3.76025e-21)
(0.00599735 -0.0107386 2.61177e-22)
(-0.00907553 0.238917 2.09134e-22)
(8.50725e-05 5.51095e-05 0)
(0.106295 -0.0194102 2.27073e-22)
(0.0780119 -0.0591729 6.69975e-22)
(-0.0083288 -0.0137912 7.94474e-21)
(5.75238e-05 -2.31947e-06 -3.93732e-21)
(-0.00927937 0.00881078 1.4862e-20)
(0.000331787 0.00011615 2.38614e-20)
(-2.41611e-05 -6.42525e-07 0)
(0.0136703 0.0137454 0)
(-0.00011677 -5.32232e-05 1.89314e-22)
(0.0222399 -0.0546765 -2.91631e-20)
(0.00458695 -0.006396 5.08041e-21)
(0.00114198 -0.00108905 2.57385e-22)
(-8.30724e-05 -5.78544e-06 -8.82568e-22)
(-0.0838353 -0.0312185 0)
(0.0968175 0.256117 8.83516e-21)
(0.00381347 0.0111315 9.34968e-22)
(9.70927e-05 -3.35816e-06 0)
(0.0106569 0.000146325 0)
(-0.0321309 0.0481026 0)
(0.0584185 0.103376 -5.6004e-21)
(-4.17134e-05 -9.75657e-06 0)
(-4.49471e-05 3.95422e-06 0)
(0.0178327 -0.000325451 -6.85876e-21)
(3.25824e-06 -1.58669e-05 -4.47736e-21)
(0.0104961 0.0026383 0)
(0.00227077 -0.016453 6.22912e-21)
(0.106196 0.0404464 -4.16844e-21)
(0.001014 -0.00121262 -4.5475e-21)
(-7.93645e-05 0.000111107 1.62964e-23)
(0.000112196 -1.50029e-05 -7.44651e-21)
(0.0781712 0.0864863 5.16591e-21)
(0.00577696 -0.013297 4.68438e-23)
(1.00503e-05 -4.21328e-06 -3.17427e-21)
(0.00233784 -0.00137147 0)
(0.00221082 0.0664689 -2.01209e-20)
(0.260227 -0.0939698 -1.26712e-20)
(-6.46343e-05 7.9038e-07 0)
(-9.09175e-07 -5.99312e-06 -2.25109e-21)
(0.0232523 -0.0502222 5.37417e-22)
(0.0037903 -0.00172319 2.01255e-20)
(0.0386383 0.000260763 1.6162e-20)
(-0.0133246 0.00297267 5.28411e-22)
(0.183357 0.024216 0)
(1.70972e-05 -6.70251e-05 0)
(0.00300409 -0.000903192 -5.08701e-21)
(-0.000190095 -0.354175 1.93059e-20)
(5.73537e-06 -2.49862e-06 0)
(5.26787e-05 7.2155e-06 1.53142e-20)
(-2.52887e-05 8.4675e-07 -3.58063e-22)
(0.00013086 4.87934e-06 8.44076e-23)
(-0.0114425 0.00389245 -5.50892e-22)
(0.0806826 -0.0977582 -4.88219e-21)
(0.000137264 -0.000261145 1.56178e-21)
(0.000264755 5.13469e-07 0)
(0.000302078 -0.000136846 -4.88389e-21)
(-0.000399616 0.00125086 6.39594e-23)
(0.00115387 0.00050845 -3.91665e-21)
(-3.39144e-05 3.14366e-06 0)
(-0.0275228 -0.00136771 0)
(0.1016 -0.00570856 0)
(0.000160887 3.17027e-05 0)
(0.000217287 0.422314 -9.03724e-21)
(0.000127377 -0.00028454 -3.50951e-21)
(1.46989e-05 -6.71761e-05 -1.49496e-21)
(-0.00720116 -0.0016042 8.33012e-21)
(-0.00679857 0.000893662 -6.77446e-22)
(0.00441033 -0.354579 -1.86869e-20)
(0.123577 0.018668 0)
(0.0721285 -0.00871691 9.70065e-22)
(0.00021001 0.00267933 -4.28157e-22)
(-0.0439436 -0.361958 1.18812e-20)
(0.000126343 1.0015e-05 0)
(0.000104604 -1.75108e-06 0)
(6.75683e-05 -0.000126684 0)
(-0.00491691 0.450672 1.16816e-20)
(0.000359703 -0.00109367 0)
(-0.00884992 0.000397059 2.61993e-22)
(0.268687 -0.0933549 3.03859e-20)
(0.00025306 -8.82341e-05 1.66613e-20)
(-8.12597e-05 -6.96017e-06 0)
(-0.127567 -0.186026 0)
(-0.00563003 -0.000535447 -2.48795e-22)
(-0.00363204 -0.00480444 7.03945e-21)
(0.113576 0.0354593 0)
(0.000825744 0.000711922 2.9167e-20)
(-0.0023439 0.00291686 0)
(-8.0538e-05 0.000120659 0)
(0.000229211 0.000140017 0)
(0.000283191 -2.62495e-05 0)
(0.068088 -0.0395058 0)
(-0.00104652 0.000899649 -3.46337e-20)
(0.000222562 -0.00021479 -4.99833e-22)
(0.0115998 -0.00675168 -2.73477e-20)
(0.0569055 0.121886 -1.13902e-21)
(-0.00361991 -0.00709871 0)
(0.00455966 0.0263398 -1.45441e-20)
(-0.0593176 0.0213883 2.70868e-21)
(-0.0832537 0.0474748 1.76895e-20)
(-0.0652392 0.0161033 3.99897e-24)
(-0.0240035 -0.0172178 0)
(0.000112056 1.01611e-05 2.40946e-21)
(0.00864903 0.00313606 -1.88909e-20)
(-0.00225671 0.00342558 0)
(0.00341047 0.130803 0)
(0.00137062 0.00119559 3.40623e-21)
(-0.0266869 -0.00154635 0)
(-0.0300946 -0.0462249 3.50102e-21)
(0.0469086 -0.0138604 2.68256e-20)
(-0.00292045 -0.00450327 -9.65487e-21)
(0.000110342 1.46692e-05 0)
(0.00217838 -0.000610615 -3.79622e-21)
(0.000349493 -0.000994295 -1.15658e-20)
(5.24215e-05 2.92867e-05 0)
(0.000535167 0.00035507 -2.19615e-20)
(0.000111627 -0.000245243 0)
(-7.5724e-05 1.61001e-05 0)
(-3.67357e-05 -5.5887e-05 1.66168e-21)
(-0.00599549 0.00220648 -4.21432e-22)
(-0.0145802 0.231659 0)
(0.00522754 -0.00596103 2.29305e-20)
(-0.10758 -0.143527 2.72195e-20)
(-0.00834842 0.385644 -3.95588e-21)
(0.0010589 -5.26821e-05 -7.28192e-21)
(0.00802761 -0.000872113 0)
(0.0216673 0.13484 0)
(0.000332538 -2.77567e-05 3.58336e-21)
(-0.048264 -0.0486201 -5.64982e-21)
(0.000146243 5.85563e-06 0)
(0.00209212 -0.000955864 -1.14305e-21)
(0.00445713 0.0243942 0)
(0.00139703 0.274756 1.98956e-20)
(-0.100019 -0.110819 7.75934e-21)
(0.0136746 0.00821465 -1.14866e-20)
(5.43638e-05 6.16114e-06 -8.90769e-21)
(-0.122628 -0.0845524 1.84104e-20)
(-0.00915075 0.00162832 1.62575e-23)
(-1.76341e-05 2.69132e-05 5.6136e-21)
(2.03284e-05 -2.67984e-06 2.1127e-21)
(0.0223849 0.238985 -2.42105e-20)
(0.0443211 -0.261873 -1.97292e-21)
(0.00246764 -0.00160473 0)
(-6.24357e-05 2.53189e-06 0)
(0.0817504 -0.152235 -3.49202e-21)
(0.00128365 0.00206992 -6.4818e-23)
(0.00061637 0.41601 -2.90486e-21)
(0.000149545 0.00010526 -6.48108e-21)
(-0.0444731 0.134406 -1.44248e-20)
(0.000220323 -0.000242941 -7.29783e-21)
(-0.0141419 0.441427 2.68703e-21)
(1.28993e-05 -1.7892e-07 -3.83913e-21)
(-7.68502e-05 -1.7662e-05 9.98578e-23)
(0.00807509 -0.0117466 0)
(-0.0040189 -0.00222021 0)
(-0.00751838 -0.0024902 0)
(-0.00544056 0.0052855 -2.02834e-22)
(-8.30466e-05 8.57829e-05 0)
(0.000107915 2.14677e-05 -1.54306e-20)
(0.000305649 -0.000165857 0)
(-0.0477352 0.0158794 -1.34224e-20)
(-0.00797356 0.00250187 0)
(-0.0322171 0.0300158 0)
(0.0176975 -0.000546608 -8.78067e-21)
(0.00020733 -9.33977e-05 1.82332e-20)
(-1.27287e-05 7.0567e-05 -3.16491e-22)
(0.000151921 4.84082e-05 5.77689e-21)
(-0.00688764 0.00424398 4.47225e-22)
(0.00033239 -0.000167445 0)
(-2.96843e-05 3.85349e-05 -7.0941e-21)
(-0.0936871 0.375834 -1.29752e-20)
(-0.000117872 1.53783e-05 0)
(0.0635441 -0.0859363 0)
(5.45096e-05 1.95691e-06 0)
(-0.0314788 -0.365923 -6.58875e-21)
(0.0614197 -0.0308877 -2.78824e-20)
(0.00101305 -8.36279e-05 1.38451e-20)
(-0.0743775 -0.156854 0)
(-0.00345487 -0.00179175 -2.24019e-23)
(0.0932224 0.0690552 1.52084e-21)
(-0.000115937 1.45842e-05 0)
(-0.000415665 0.000894296 0)
(0.000146726 0.000105788 -6.06849e-21)
(-0.252857 0.492195 -8.24427e-20)
(0.00464094 -0.00636014 -1.78353e-20)
(0.000338416 -5.31318e-05 -2.717e-21)
(0.000295687 -0.000165722 -6.07558e-21)
(6.98242e-05 -0.000103466 0)
(-0.148599 0.407712 -6.16565e-21)
(-0.0455903 0.00861191 2.42539e-21)
(0.00946454 0.000366856 0)
(-0.0134505 0.0654719 -2.33664e-20)
(0.00873341 0.000891051 4.12156e-22)
(0.000155478 -3.31245e-05 1.19847e-20)
(6.70564e-05 -0.0001913 -2.6081e-21)
(-0.0116074 0.251413 -6.48925e-22)
(0.00831735 0.00908861 1.97918e-20)
(0.00113334 0.00156104 -6.04786e-21)
(0.000249422 -0.000487038 -6.35139e-21)
(-6.65538e-05 -2.84154e-05 -1.03234e-21)
(-0.000534068 0.00039702 3.32978e-22)
(-0.0518849 -0.0903476 -1.88716e-20)
(-0.00940211 -0.0062412 0)
(4.23843e-05 4.41571e-05 -8.5668e-23)
(0.000220583 9.0261e-05 1.27896e-21)
(0.000105236 -0.000142228 -2.86081e-23)
(0.0149562 -0.00111569 8.73638e-21)
(-0.000117933 -2.32872e-05 3.37503e-22)
(0.0181806 0.0163153 0)
(0.000147686 5.92925e-06 6.42448e-22)
(0.00550707 0.000847457 -8.37457e-21)
(-0.000119241 -3.38444e-05 2.01471e-22)
(1.31945e-05 -8.34008e-05 0)
(-0.00817899 0.00767231 2.16147e-23)
(-0.0136253 -0.00446636 1.31816e-20)
(-7.76933e-05 0.000131747 1.59318e-23)
(-0.000248979 -0.00371584 0)
(-0.012374 0.0280778 -2.9561e-20)
(0.000896468 0.00866592 -1.42509e-20)
(0.0717304 -0.0443099 2.19096e-21)
(-0.0285727 0.0494324 1.67457e-20)
(0.0117292 -0.00547993 7.05138e-21)
(0.00213519 -0.307711 0)
(-0.0120117 0.0295593 3.28136e-20)
(5.32563e-05 -7.93605e-05 -5.57528e-21)
(-0.021958 0.0458892 -1.83786e-20)
(0.00010867 7.15669e-05 -2.18434e-20)
(-0.0354787 -0.300315 0)
(0.00565557 -0.00510909 0)
(0.000110044 2.04969e-05 -8.93251e-21)
(-0.00423853 -0.0147607 -1.18185e-20)
(0.00695251 0.0202366 2.47908e-20)
(-0.00821627 -0.00555905 7.82054e-21)
(6.41887e-05 2.27262e-06 -8.62587e-22)
(-5.29037e-05 -8.38441e-06 1.00504e-21)
(0.0607899 0.28816 0)
(7.15886e-05 -0.000180559 4.26433e-22)
(-0.00163511 0.00629057 -7.49738e-21)
(0.0189563 -0.000176838 1.73596e-20)
(0.000204832 0.00013145 -1.46107e-20)
(-0.0701196 -0.142022 -2.22255e-20)
(-0.00233663 -0.00159465 0)
(0.06657 -0.0402805 -1.40884e-20)
(6.15123e-05 2.18362e-05 6.80993e-21)
(0.0499229 -0.272912 -1.38653e-20)
(0.0399419 0.00241749 -2.51177e-20)
(0.0166764 -0.000546647 6.57554e-21)
(-0.0159587 -0.00435154 -1.22082e-20)
(0.00010723 2.18849e-05 6.97605e-21)
(-7.70079e-05 1.60821e-06 -3.33948e-24)
(-0.14968 0.0282082 -6.81767e-20)
(0.000324288 -0.000154245 -3.46788e-23)
(-0.0165754 -0.049635 -2.73317e-20)
(-0.000632155 0.00209667 4.99563e-21)
(0.00669073 0.0189302 1.1709e-20)
(-0.00279104 -0.00217414 -2.35305e-22)
(0.0688737 -0.0913244 9.46322e-21)
(1.76446e-05 -1.8074e-05 2.77496e-21)
(0.000812295 0.00123652 -2.35078e-20)
(0.00200857 0.00766471 0)
(0.0579659 -0.19243 -4.04199e-20)
(-0.000668545 0.00309299 -6.04044e-22)
(4.17477e-05 4.46634e-05 7.73973e-22)
(0.0495105 -0.278146 0)
(0.000977561 0.00415256 0)
(0.000503103 -0.000343803 1.5795e-21)
(-0.0349379 0.0474364 0)
(-0.000911677 0.00255783 0)
(0.0789966 -0.0126702 4.60679e-21)
(0.0024691 -0.00035826 9.29341e-21)
(3.43702e-05 2.1689e-05 -6.04961e-21)
(6.44108e-05 -8.76406e-05 0)
(0.000219047 -9.38343e-05 9.23081e-21)
(0.000140853 9.39005e-07 1.35115e-20)
(0.013337 0.0172291 0)
(-0.0129893 0.0184227 1.00734e-20)
(0.00398677 0.127705 0)
(0.0530081 -0.031161 -9.51489e-21)
(0.0360082 -0.0346287 0)
(0.034905 0.00855205 4.58228e-21)
(-3.78794e-05 -7.92709e-06 -1.21557e-21)
(-0.00282823 0.000211425 4.35384e-22)
(0.0191905 -0.000122645 0)
(0.000201296 0.00012922 -7.55405e-21)
(-0.0327006 0.0351546 0)
(-8.10034e-05 0.000110562 0)
(-0.196872 0.514057 0)
(-0.0314287 0.05771 9.7661e-21)
(0.000111317 -3.60407e-05 -7.71494e-21)
(0.000144551 4.12611e-06 5.26243e-23)
(-0.0211833 0.118588 1.05245e-20)
(0.0715092 -0.0365243 3.82389e-22)
(-0.0359923 0.133961 2.95533e-20)
(-0.000519541 0.000558093 -6.34815e-22)
(0.00216792 0.00157831 0)
(0.0191304 -6.61884e-05 -1.04894e-23)
(0.000109862 1.99727e-05 1.09083e-20)
(7.99593e-05 1.16058e-06 2.44842e-20)
(0.0977501 -0.139968 4.02664e-21)
(0.00337375 -0.00150261 -8.19221e-22)
(0.0130829 -0.000920264 1.70118e-20)
(0.0200006 -0.0135089 -2.20226e-20)
(-1.63219e-05 -4.98314e-07 -1.00402e-21)
(0.000158659 3.2421e-05 1.1836e-20)
(-0.0149145 -0.174205 -1.0349e-20)
(-0.0459576 -0.00960555 -9.44631e-22)
(0.000163234 -2.12245e-06 1.10113e-20)
(0.000681774 0.0012386 0)
(0.0136951 0.014078 0)
(5.67787e-05 -0.000212076 5.86546e-21)
(0.0164777 0.000476731 -6.6448e-22)
(-0.00745537 0.00778578 -2.5323e-23)
(0.000164247 3.09768e-06 1.16541e-20)
(0.000154769 4.58897e-05 0)
(-0.0140937 -0.0139107 0)
(-0.00597483 0.0154492 0)
(-0.0948459 -0.00218733 0)
(-0.00937986 0.00578852 1.00111e-20)
(-0.109896 -0.133984 2.58018e-20)
(0.0867415 0.0633434 8.95144e-21)
(-0.0323431 -0.181282 4.64305e-21)
(0.000579023 0.000307168 2.32868e-20)
(0.00117885 0.00755863 0)
(0.0114195 0.0120637 -2.75237e-22)
(0.00184801 0.0127312 0)
(-1.3104e-05 6.33485e-05 2.47362e-21)
(-0.0985233 -0.0130473 1.55775e-20)
(0.0160909 0.0489537 -1.55313e-22)
(-0.0316027 0.0333183 0)
(0.000400564 0.00212118 7.08539e-23)
(0.0118537 -0.00162161 0)
(0.00530008 -0.00761782 -3.11053e-20)
(-0.00105402 -0.00335752 -7.70132e-22)
(-0.0238312 0.113853 0)
(-0.0214653 0.0299172 0)
(0.018193 -0.000329539 -7.38676e-21)
(0.00015454 4.85699e-05 0)
(-0.000819505 0.0017853 1.75178e-21)
(0.0342644 -0.037147 -5.304e-21)
(0.0516443 -0.0196984 -1.4153e-21)
(0.0117236 -0.21576 -6.78908e-21)
(0.0171082 -0.000622458 -3.82633e-21)
(7.69044e-05 -0.00015197 -6.714e-21)
(0.000894234 0.00246445 1.98189e-21)
(-0.000979987 -0.00151251 5.75567e-23)
(0.00630094 -0.0215284 0)
(0.000113321 -6.43231e-05 0)
(0.0362307 -0.0113797 -1.64616e-20)
(-0.0114003 0.0184684 1.64597e-20)
(-0.0259511 -0.00117588 0)
(-0.00200267 -0.00217761 0)
(0.0108262 -0.0139936 -6.275e-21)
(-0.0327472 0.0150444 7.0638e-21)
(3.47534e-05 4.59614e-05 -2.99392e-21)
(0.0162297 0.0164323 -5.70002e-24)
(0.000198206 -0.00387778 -9.68339e-21)
(2.26312e-05 -1.46305e-05 -2.95918e-21)
(0.000104493 -4.196e-05 -4.21477e-21)
(8.12517e-05 -0.000174415 0)
(-0.0441119 -0.282714 -9.03147e-21)
(-8.21937e-05 8.38843e-05 0)
(-0.00464703 0.240645 -2.2612e-21)
(0.000895269 -0.000194713 0)
(0.0057677 -0.000317238 6.14149e-22)
(0.0564327 -0.0437519 1.53731e-22)
(0.0183185 -0.000259154 0)
(-7.70197e-05 2.45344e-05 -1.5033e-24)
(0.0950288 0.260905 4.79486e-21)
(-0.014535 -0.00447573 1.89358e-20)
(0.0457639 -0.0362538 -7.92109e-21)
(0.0125323 0.00678526 0)
(0.00137782 0.0664914 -4.86789e-21)
(0.00886614 -0.00343781 1.09331e-20)
(0.000117252 -0.000302412 7.11377e-21)
(0.00487939 0.0170086 1.27691e-20)
(0.000211253 -9.03246e-05 -9.51142e-21)
(0.000220541 7.9149e-05 0)
(0.0131095 0.00635811 2.82699e-23)
(8.52334e-05 1.88428e-05 0)
(0.0436623 -0.0460399 -4.83657e-23)
(0.000469538 -5.59541e-05 0)
(-0.0530875 -0.368685 -9.62566e-21)
(6.1449e-05 -0.000208042 -3.41754e-21)
(0.00598586 -0.00138546 0)
(4.98028e-05 3.47111e-05 0)
(-0.00746147 -0.316798 -2.47377e-20)
(0.000216923 0.000115848 -1.23638e-21)
(0.000321355 0.000289779 6.52059e-21)
(-0.0243593 -0.0118985 6.68751e-21)
(-0.0151974 0.405997 8.68993e-22)
(-0.0153319 -0.0105675 0)
(0.00823304 -0.00470162 7.2175e-22)
(-0.0336129 0.205514 7.39174e-21)
(0.0113238 -0.000578323 0)
(0.0348954 0.14742 -6.97487e-21)
(0.000148023 -0.000137894 -1.67052e-20)
(0.000232094 -0.00225934 -1.67867e-23)
(-0.00774377 -0.013497 1.70341e-20)
(0.00264997 0.0272326 1.53916e-20)
(0.00312971 3.41678e-05 -1.38416e-20)
(7.94708e-05 1.62369e-05 0)
(0.000336277 0.000271995 -8.72601e-21)
(0.0241718 -0.044329 -2.59765e-21)
(3.90737e-05 4.89842e-05 5.99292e-21)
(-0.0363862 0.0514832 0)
(0.000145957 0.000118114 0)
(0.00776827 0.0239308 2.66185e-20)
(-0.0320212 -0.237082 -2.98851e-20)
(-0.00470256 0.0141236 3.78371e-20)
(0.0105147 0.00130278 0)
(5.61387e-06 3.20145e-05 -1.42152e-21)
(0.00838353 0.132658 -6.65898e-23)
(-0.0750414 -0.169932 0)
(0.00347571 0.0912938 1.49122e-20)
(-0.0866005 -0.0385906 2.73578e-21)
(-9.7205e-06 6.50889e-05 1.28141e-21)
(-6.70758e-05 2.40586e-06 -8.51771e-22)
(0.00929079 0.0206799 -1.92563e-20)
(-0.00871531 -0.00489953 2.06448e-20)
(0.00627793 -0.00109724 0)
(0.0686129 0.118393 1.37125e-20)
(3.38781e-05 -4.15406e-06 -4.81747e-22)
(0.0178438 -0.00040304 0)
(1.5328e-05 -7.66385e-05 -2.14641e-21)
(-4.39832e-05 2.52163e-06 -5.21489e-22)
(0.00904182 -0.000182855 0)
(-7.02847e-05 -1.26819e-05 0)
(0.000110169 7.61149e-05 -2.48091e-20)
(-0.0700182 -0.236192 4.35037e-20)
(-0.00939539 -0.00583062 0)
(0.0243133 0.132445 7.67766e-21)
(-1.10698e-05 7.25704e-05 0)
(-0.0691003 -0.0108547 2.06884e-20)
(0.0771255 -0.0333172 -9.9336e-21)
(6.26539e-05 -6.14727e-05 2.38698e-21)
(5.02088e-06 -6.58658e-06 -1.11823e-22)
(-0.0342406 0.0636552 -9.89188e-22)
(0.00030519 -0.000151769 -5.20132e-21)
(0.000113725 -2.99665e-05 -8.02389e-21)
(2.16928e-06 2.37888e-05 -2.7223e-21)
(-0.0401079 0.00658995 1.65372e-20)
(0.000157075 4.26517e-05 1.08279e-20)
(0.00525348 -0.0150422 -5.55965e-21)
(0.000133712 4.54284e-06 0)
(0.000133305 1.97018e-05 5.93237e-21)
(-0.00183013 -0.0016636 -1.53632e-20)
(-0.0455155 0.00604217 -3.82811e-21)
(0.000109464 -2.17324e-05 7.13525e-21)
(-0.00954726 -0.0233672 -1.98615e-20)
(0.0928923 0.0515997 -1.8911e-21)
(0.0157802 -0.000645439 1.08172e-23)
(0.000327763 -6.58553e-05 -5.24001e-21)
(0.000155296 5.31878e-05 -1.57948e-20)
(-0.080676 -0.0732403 2.46583e-20)
(0.000611815 0.0013542 0)
(0.000657781 0.177895 -5.11822e-22)
(-8.25677e-05 -3.05199e-05 1.67573e-22)
(0.000573796 -4.66282e-05 1.48527e-20)
(5.07386e-06 -1.00873e-05 -8.96386e-22)
(-7.33049e-05 0.000364565 -5.39455e-23)
(0.000326586 -0.000124507 -1.05172e-20)
(0.000804468 3.7636e-05 0)
(-0.000243376 -0.00191038 -1.61427e-20)
(-0.000168617 0.00321845 4.75405e-23)
(5.04702e-05 3.48818e-05 -3.13166e-21)
(-6.96989e-05 -2.58662e-05 -1.03152e-21)
(0.0709371 0.119548 0)
(-0.027207 0.0553929 0)
(-0.00316101 -0.00754032 -2.46688e-21)
(0.032193 0.00911808 4.43253e-23)
(-0.0360692 -0.213417 1.3526e-20)
(-0.0264714 -0.309987 -5.31835e-22)
(-0.0021256 -0.00141338 1.67912e-23)
(0.000153298 5.03261e-05 9.82243e-21)
(-0.0837215 -0.0351904 0)
(0.0136857 0.0202635 1.14595e-22)
(0.0933316 -0.0719158 0)
(0.000108765 7.35036e-05 1.15818e-20)
(0.0283813 -0.0190004 -8.30947e-21)
(0.000151307 0.000111573 0)
(3.53582e-05 3.35617e-05 -6.26844e-21)
(-8.3604e-05 5.95101e-05 0)
(0.0173464 -0.0144907 2.85489e-20)
(0.000122951 1.38121e-05 0)
(-0.000119076 -4.49605e-06 0)
(0.00137465 0.00210664 -1.3349e-20)
(0.0595143 0.139169 5.10393e-21)
(0.0735634 -0.0182732 5.08734e-21)
(-0.0330319 0.0276482 9.88029e-21)
(0.141962 0.0477774 1.0413e-20)
(0.00531418 -0.000515577 0)
(0.000202069 -0.000513795 0)
(-0.120185 -0.198343 -2.85698e-20)
(0.0510748 0.293262 1.95154e-20)
(0.153714 -0.001486 -9.21938e-21)
(-4.18232e-05 -4.78511e-05 1.09476e-21)
(0.000220376 0.000146798 2.39695e-20)
(-0.0878555 -0.142647 4.89432e-20)
(4.50498e-06 3.40098e-05 2.11612e-21)
(-0.0589222 -0.0122635 -1.08545e-21)
(-0.0154985 0.00220982 0)
(5.38718e-05 -6.84019e-06 0)
(-0.020792 -0.083562 1.313e-21)
(-0.0142064 -0.0541162 2.28143e-20)
(0.00118847 0.000445168 -4.83231e-21)
(-0.00149926 -0.00117689 -8.05593e-21)
(0.000100308 -4.79193e-05 6.60351e-23)
(7.95505e-05 -0.000271062 0)
(7.66866e-05 -0.000199929 1.30171e-20)
(0.000130053 2.26205e-05 6.86475e-21)
(-3.40034e-05 -2.68353e-05 0)
(-6.67394e-05 -1.17738e-05 -1.55473e-22)
(0.000108066 -5.50741e-05 0)
(-0.0823401 -0.548173 -9.21441e-22)
(0.000112429 7.84216e-05 1.09224e-20)
(0.0025619 -0.00178519 0)
(0.000579164 -9.04753e-05 1.32287e-20)
(-0.00133728 -0.00146312 9.10132e-21)
(0.00998254 0.0224638 2.08581e-22)
(0.00014896 -0.000179652 4.10509e-21)
(-0.000749899 0.00069677 0)
(0.123238 -0.0479906 5.39423e-21)
(-0.0279502 -0.0760243 -1.29121e-21)
(9.39581e-05 2.33465e-05 6.6441e-21)
(4.48968e-05 -5.14836e-05 0)
(0.000130645 -1.80714e-06 0)
(-8.87909e-05 0.00046847 4.72115e-25)
(-0.0173024 0.0734167 6.07756e-21)
(0.000183448 -5.98231e-05 -3.81073e-21)
(8.28613e-05 5.72177e-05 -1.66763e-21)
(0.00823199 -0.000951529 -1.61308e-21)
(9.94933e-05 -5.59428e-05 1.31269e-20)
(-0.0917373 0.434306 -9.37822e-21)
(0.000526101 0.137987 -4.8844e-21)
(-0.0266912 -0.00105693 0)
(7.1293e-05 -6.64579e-05 -5.4671e-21)
(-0.0376134 -0.198004 -6.06059e-21)
(0.0323134 0.100513 0)
(-0.0108056 0.00558151 -3.26301e-20)
(7.64045e-06 -3.6025e-06 0)
(-0.0921592 0.0315683 -9.58105e-21)
(7.92845e-05 -9.124e-05 9.81236e-24)
(0.000764462 0.00274223 0)
(-0.00215697 -0.00508702 0)
(0.00233985 -0.00209559 -5.83305e-21)
(0.00122983 0.00214723 2.82753e-20)
(0.000112087 7.89652e-05 -1.05199e-20)
(0.000217073 0.000143312 8.33997e-21)
(0.000158003 -3.2891e-05 -1.46228e-20)
(-0.00645076 -0.00187019 -9.89782e-21)
(0.00863835 0.00491315 1.8227e-20)
(-0.188081 0.486181 0)
(0.00233334 -0.00335503 0)
(-8.06016e-05 6.0021e-05 -4.8056e-23)
(0.000190937 -0.000244916 7.38332e-21)
(0.00419725 -0.0110183 0)
(-0.0188082 -0.00111251 6.52683e-22)
(0.000147114 0.000104875 7.46858e-24)
(-0.189732 0.460739 2.72484e-20)
(5.79735e-05 -2.39883e-05 0)
(-0.0265555 -0.333385 0)
(-0.0171057 0.00110708 -1.30311e-20)
(-0.113285 0.220843 1.10936e-20)
(0.000507209 0.000216214 1.17741e-20)
(0.0490629 -0.0359544 0)
(-0.0520661 -0.284881 0)
(-3.26649e-05 -4.2466e-06 -8.91674e-22)
(-0.00377283 0.00283419 4.26536e-22)
(0.189422 0.00910672 0)
(-7.70792e-05 -2.40236e-05 0)
(-0.00693209 -0.00153768 -2.31364e-20)
(0.0039693 -0.00228051 0)
(9.14515e-05 -1.04912e-05 2.65471e-21)
(0.000793491 -0.000104431 1.31474e-20)
(-0.0273535 -0.00207494 -7.59022e-21)
(-0.0216481 -0.0160518 -8.57977e-21)
(0.000602579 0.000138775 1.3671e-20)
(-4.17203e-05 8.00648e-06 -3.2827e-21)
(-0.00515918 0.273218 -1.17027e-20)
(0.113455 0.0824985 -2.89384e-21)
(0.116796 -0.00377002 0)
(-0.00619598 0.0126482 2.04062e-20)
(0.000867708 0.000653619 -2.28409e-20)
(0.000101601 -9.80934e-06 1.11357e-20)
(-0.0529577 -0.197523 -1.05573e-20)
(8.53212e-05 -0.000164455 -9.09309e-21)
(0.000112725 -1.68317e-05 8.86781e-21)
(0.000102661 -4.81537e-05 -7.02068e-23)
(-3.29839e-05 1.54898e-05 -1.69954e-22)
(-6.46972e-06 8.05178e-05 -1.4751e-21)
(-0.000588313 -2.18315e-05 6.20273e-21)
(-0.0456053 -0.220945 1.08131e-20)
(-0.000619019 0.000860747 0)
(-0.0407723 -0.00540584 1.54834e-21)
(0.000191247 0.000133174 -1.68294e-20)
(-0.0496537 0.0974449 0)
(0.000120353 -0.000211697 6.23149e-21)
(-0.0133846 -0.00339573 -6.92322e-21)
(-6.1618e-05 1.43236e-06 6.65833e-22)
(-0.0504329 -0.288803 0)
(0.000310845 -0.000128151 5.09373e-21)
(0.00997603 -0.00308705 -1.19625e-20)
(0.000626784 0.0012005 9.00311e-21)
(-0.0166911 0.0021903 1.87879e-20)
(-0.0239026 -0.0159132 1.04436e-20)
(0.0115037 -0.000908246 0)
(0.0679361 0.0391504 1.46557e-20)
(0.00477857 -0.00266699 -2.55409e-23)
(0.0181696 0.0866538 -1.46063e-20)
(-0.0773116 -0.0125713 -3.01264e-20)
(9.12288e-05 7.10198e-05 1.02225e-20)
(-0.000695202 0.264121 -1.88595e-20)
(-3.96141e-05 1.91765e-05 -3.90731e-22)
(0.000508828 0.000231255 -2.3456e-20)
(-0.104466 -0.101404 -1.98544e-20)
(0.000151077 0.000151081 0)
(0.000202428 -8.43566e-05 -8.8959e-21)
(0.00280481 -0.000693548 1.0064e-20)
(8.75952e-05 2.62347e-05 0)
(-0.0769028 -0.0781405 0)
(-7.6168e-05 -1.74566e-05 -3.85258e-22)
(-5.79073e-05 -4.87183e-08 -1.11127e-23)
(0.000599937 0.00111299 0)
(0.021091 -0.00267079 0)
(0.000179117 -0.000257986 3.60413e-21)
(-0.0131953 0.00722115 4.06123e-20)
(0.000864572 -0.000120814 -6.75494e-21)
(-3.13333e-05 0.00463894 0)
(0.015809 -0.00127929 0)
(-5.07062e-05 -3.92749e-05 0)
(0.000161861 1.50589e-05 0)
(0.0428989 -0.000895036 1.04819e-22)
(-0.00994558 0.0313059 -1.37311e-20)
(-1.28567e-05 7.86452e-05 0)
(0.000754109 0.00118088 2.02114e-20)
(0.000203338 0.000107089 -1.60613e-20)
(0.0863542 0.108758 -3.44105e-22)
(0.0126121 -0.000682681 0)
(-0.000274347 -0.00165356 1.50672e-20)
(0.000344575 8.00436e-05 -2.29439e-20)
(-4.19527e-05 9.48152e-06 -9.66992e-22)
(-0.000487583 1.97268e-05 1.83804e-20)
(0.0303715 -0.286679 -4.86551e-22)
(0.000181294 -6.70772e-05 1.26194e-20)
(-0.000647082 0.00137473 -2.46405e-23)
(0.0128997 -0.000199555 0)
(-8.73983e-05 9.42104e-06 0)
(0.00059806 0.0002892 -1.74237e-21)
(0.0189213 -6.81356e-05 1.65053e-20)
(0.196198 0.0720402 -9.63876e-21)
(0.000162672 -1.94833e-05 -5.92951e-21)
(0.000151977 0.000104705 1.26505e-20)
(-0.0378601 0.068549 8.92978e-21)
(-0.0260337 -0.000730008 4.40867e-22)
(0.00170936 0.0948637 -9.43163e-22)
(-0.0106292 0.0202621 -9.23278e-21)
(0.0001819 -6.05214e-05 1.06461e-20)
(-0.159364 0.203776 -1.02324e-21)
(0.00699909 0.0372727 1.04604e-20)
(-0.155971 0.429773 0)
(0.000117718 -8.16022e-05 -4.79788e-21)
(-0.000737361 0.0019186 0)
(0.00244971 -0.0179654 0)
(-0.00149378 -0.00413831 8.10915e-21)
(0.000172185 4.28722e-05 -3.16786e-21)
(-0.00735096 -0.326436 1.06799e-20)
(-0.0254203 -0.000854283 -3.90067e-22)
(-0.00291166 0.00258768 2.02849e-22)
(0.000783763 0.000231455 0)
(0.0634915 0.153135 -7.90584e-21)
(-0.000870812 0.0022158 7.69209e-21)
(-7.04761e-05 0.000246647 0)
(0.000178994 -6.43054e-05 -4.43117e-21)
(-0.124973 0.192482 5.86422e-21)
(0.00241943 -0.00103361 0)
(-0.0183144 0.00728103 0)
(-0.0323451 -0.0365703 1.70851e-20)
(0.000622279 9.18517e-05 1.41969e-20)
(-0.0372144 0.0722094 -8.42874e-21)
(0.0621509 -0.0707789 -1.19076e-21)
(-0.105956 0.395639 0)
(0.143965 0.11225 7.87474e-21)
(0.147659 0.0996825 -3.454e-21)
(5.91109e-05 -0.000285425 0)
(0.000150539 0.000156621 0)
(5.01312e-05 0.00233354 -5.74533e-21)
(-0.0148136 -0.00146189 -2.39445e-22)
(-0.0206482 0.026425 6.08534e-21)