/*--------------------------------*- C++ -*----------------------------------*\
| =========                 |                                                 |
| \\      /  F ield         | OpenFOAM: The Open Source CFD Toolbox           |
|  \\    /   O peration     | Version:  v2012                                 |
|   \\  /    A nd           | Website:  www.openfoam.com                      |
|    \\/     M anipulation  |                                                 |
\*---------------------------------------------------------------------------*/
FoamFile
{
    version     2.0;
    format      ascii;
    class       volScalarField;
    location    "100";
    object      k;
}
// * * * * * * * * * * * * * * * * * * * * * * * * * * * * * * * * * * * * * //

dimensions      [0 2 -2 0 0 0 0];


internalField   nonuniform List<scalar> 
27915
(
0.000157879
0.000192461
0.0267914
0.000139038
0.000145446
0.000162732
0.000132556
0.0241571
0.000144498
0.0384887
0.000176468
0.032287
0.00152
0.000132474
0.000137511
0.000138954
0.000314504
0.000147199
0.000205903
0.0241896
0.00318524
0.000152482
0.00248452
0.000146268
0.000138964
0.000136426
0.00871722
0.000145286
0.0125766
0.000157221
0.000143845
0.000174579
0.000135672
0.000135284
0.031763
0.00013532
0.000150243
0.000136426
0.000201091
0.000145602
0.000155382
0.000149862
0.000137387
0.000139992
0.0156463
0.000145854
0.000141645
0.000173936
0.00014725
0.000141709
0.0260161
0.000229044
0.0308318
0.000157383
0.000158281
0.000141603
0.00014261
0.00173674
0.00189194
0.000143684
0.000304914
0.000162738
0.0157333
0.00602539
0.000145259
0.000204654
0.0322656
0.0259334
0.0318908
0.000143496
0.000233693
0.000146497
0.000147259
0.0100248
0.0376703
0.000806809
0.000156981
0.000133746
0.0204409
0.000521279
0.000162219
0.000147414
0.000165816
0.0213292
0.0187282
0.010376
0.000134883
0.00017622
0.0434603
0.000351898
0.000148484
0.00977206
0.000141415
0.0140655
0.0121268
0.0283207
0.000265989
0.037563
0.000162487
0.000128708
0.000162138
0.000136287
0.0372518
0.000150403
0.000161271
0.000147387
0.0231684
0.000221742
0.000136288
0.0336679
0.0247649
0.000155159
0.00190069
0.000638352
0.000220141
0.000228958
0.0220998
0.000173584
0.000150358
0.000147237
0.000148238
0.00145558
0.000135829
0.000152453
0.000145159
0.0133535
0.0238564
0.0150518
0.000144321
0.000142692
0.000162978
0.00645219
0.0133277
0.000413208
0.030742
0.000199586
0.0234541
0.000134935
0.000142966
0.000147766
0.000166972
0.000158409
0.000152575
0.0075154
0.0282452
0.0273978
0.0127925
0.000172701
0.00088571
0.000166042
0.0168552
0.00013476
0.000228183
0.0264261
0.000274102
0.0310849
0.0203189
0.000141136
0.000144256
0.000150564
0.000198326
0.0113542
0.00013983
0.000267301
0.00806399
0.000144274
0.000234016
0.00322293
0.0383259
0.000150364
0.000167712
0.000147691
0.000145182
0.00017454
0.000131831
0.010285
0.0331901
0.000149437
0.000140038
0.00621723
0.0433997
0.000275377
0.000153521
0.0287721
0.000199194
0.00217275
0.000141605
0.000145019
0.0187415
0.000134829
0.0244015
0.000182162
0.000196108
0.000149431
0.000129446
0.000146258
0.00174323
0.000331745
0.000148845
0.000164016
0.0300514
0.0144554
0.000140074
0.000146834
0.0110674
0.0143682
0.000199483
0.000278467
0.0204693
0.000144825
0.000165285
0.0189299
0.000148315
0.000144337
0.000145972
0.000156637
0.000264283
0.000275559
0.000142872
0.000147044
0.000145839
0.000149877
0.000158695
0.000147686
0.0120911
0.000469494
0.000140225
0.0138247
0.0001434
0.000135342
0.0127225
0.000192424
0.0181957
0.00207168
0.00348985
0.000154507
0.0109934
0.000157086
0.000153709
0.000139036
0.0159302
0.000152754
0.00021044
0.00937551
0.000144113
0.000139848
0.0257508
0.00587542
0.000162279
0.00017799
0.000157865
0.0324156
0.000130767
0.000144018
0.000147021
0.000265582
0.000157699
0.000143773
0.000181029
0.0225285
0.0290441
0.000194581
0.0005989
0.00289711
0.000667455
0.000249741
0.000138032
0.0257074
0.0328735
0.0240613
0.000148549
0.014165
0.0162533
0.00452745
0.000161762
0.000138058
0.000151363
0.000152374
0.00013734
0.000152031
0.000142729
0.000129033
0.000133627
0.00018031
0.0100209
0.0334053
0.0175536
0.015715
0.000157351
0.0308062
0.000469864
0.000146781
0.0129179
0.000146468
0.000151374
0.000193197
0.0110947
0.0196572
0.000172607
0.000146482
0.0124879
0.000198816
0.000141453
0.000149146
0.0107723
0.0204459
0.000164492
0.000140449
0.020228
0.000150488
0.0152662
0.000147046
0.0292037
0.000143718
0.0161546
0.000147467
0.000128748
0.0234984
0.0164773
0.0155903
0.00023395
0.000128561
0.000138245
0.000146157
0.00025805
0.000198283
0.000260966
0.0137855
0.000142872
0.000137629
0.000140543
0.000250841
0.00014664
0.000141601
0.00697518
0.000131177
0.000256093
0.00013749
0.0118925
0.0039126
0.000157199
0.0137298
0.0141183
0.0340317
0.00013107
0.000142538
0.000146868
0.0276093
0.0339479
0.00014673
0.000146033
0.000139208
0.0119491
0.000232551
0.000177479
0.000192412
0.000201489
0.000141241
0.00013922
0.0092819
0.000183536
0.000149076
0.000150138
0.000133383
0.000140299
0.00336054
0.000169598
0.000138337
0.000143469
0.000139436
0.0162515
0.000131465
0.00019146
0.000149002
0.0331434
0.000131738
0.000135393
0.000190986
0.000173292
0.000130832
0.000165828
0.000203406
0.000165399
0.00052195
0.0192751
0.000180895
0.0109452
0.000203361
0.000148052
0.00850699
0.000144913
0.0267588
0.0344072
0.000138426
0.0390385
0.00019085
0.000167945
0.000158319
0.000142571
0.0409565
0.000139323
0.000163182
0.0119044
0.000148823
0.0301924
0.000154126
0.000224519
0.000142617
0.030994
0.000199807
0.0211664
0.000176702
0.000138443
0.000140157
0.0336893
0.000146439
0.000208733
0.000150066
0.000190148
0.000159157
0.000262315
0.000143539
0.000161547
0.0272673
0.0122807
0.000153564
0.000138274
0.0220251
0.0327253
0.000144287
0.0300917
0.000151823
0.00029114
0.000163468
0.000138975
0.000138979
0.000143076
0.000155132
0.000627402
0.000199058
0.0222832
0.000241949
0.000207434
0.000197394
0.000141825
0.000155224
0.0143009
0.000148617
0.000183086
0.000129648
0.0183869
0.0178891
0.000137595
0.00015712
0.0247465
0.00312364
0.0297501
0.000141023
0.000166196
0.0124012
0.0001382
0.000166554
0.000316872
0.000154183
0.0140717
0.0140186
0.000146568
0.000140176
0.000212661
0.00599123
0.000140023
0.000161265
0.000718654
0.000139444
0.000321785
0.000165552
0.000140186
0.000140394
0.000215532
0.000170343
0.00343967
0.000168136
0.0156835
0.00427738
0.0104093
0.000152
0.000164487
0.000513118
0.000316027
0.000137264
0.00356488
0.00529118
0.000178901
0.000149799
0.0175973
0.000175045
0.000154888
0.022519
0.0279074
0.0158917
0.000140488
0.000149297
0.0103507
0.00122135
0.013031
0.0144557
0.000138976
0.000151438
0.0139095
0.00817045
0.000139932
0.000199222
0.000197466
0.0146281
0.0163595
0.00695678
0.0324682
0.000138798
0.000190918
0.000166151
0.000145352
0.000137542
0.00013974
0.0261455
0.00012839
0.0102939
0.000156966
0.0338003
0.00171473
0.016838
0.000129066
0.0426514
0.0221673
0.000212147
0.000171451
0.000149955
0.0303921
0.000143641
0.000188842
0.000142989
0.000143382
0.000306728
0.000145063
0.00114516
0.00014428
0.0121377
0.000139363
0.0340886
0.000137682
0.0108986
0.00014354
0.000149547
0.000185544
0.0163924
0.000212601
0.000198611
0.0091254
0.0276245
0.000813171
0.000140493
0.0156202
0.0380439
0.000195197
0.000165727
0.000145423
0.000149572
0.0110093
0.000138791
0.0294443
0.000147347
0.000192873
0.0292892
0.000169331
0.0264422
0.00013498
0.00521054
0.0157646
0.00225454
0.00182293
0.000137227
0.000142089
0.000191433
0.000171555
0.0337497
0.0057266
0.000149657
0.0177907
0.000135413
0.000145669
0.00589898
0.000138819
0.000145238
0.0288956
0.000172596
0.0180015
0.000137795
0.020761
0.000273117
0.000139179
0.000134747
0.0205313
0.000146002
0.000137816
0.000135028
0.000647498
0.000140336
0.00458014
0.000168236
0.000147475
0.0135165
0.0017006
0.000137862
0.000954778
0.0334281
0.0125333
0.000146363
0.000140711
0.00392607
0.000162138
0.00589837
0.000128571
0.000150204
0.000134761
0.000136737
0.000146372
0.000145546
0.00016176
0.000158076
0.000137397
0.000133117
0.000479056
0.0111845
0.0300242
0.00019639
0.029486
0.0259041
0.0132081
0.000140778
0.00183848
0.000993357
0.00036099
0.000145046
0.0082635
0.000147364
0.000138908
0.000127903
0.0114676
0.000155885
0.000131423
0.000167616
0.000652173
0.000275864
0.000387455
0.0236786
0.0342329
0.000150272
0.028665
0.0408904
0.0212823
0.000131951
0.000149153
0.0334151
0.000135129
0.00194014
0.000204277
0.000150107
0.00746695
0.000211275
0.000158656
0.000161171
0.000137454
0.000143469
0.000148733
0.000143197
0.000132117
0.000139398
0.000139811
0.0169695
0.000144887
0.0131585
0.00015014
0.000161557
0.00105713
0.000141441
0.000143734
0.000538042
0.00738565
0.000144918
0.000139136
0.000148261
0.000138139
0.00183902
0.000142289
0.00014422
0.000190903
0.000137433
0.0235418
0.0279077
0.0123744
0.00014383
0.0121306
0.0108374
0.000169181
0.000148194
0.00392644
0.000144187
0.0327159
0.000161775
0.000164954
0.000167914
0.000144752
0.000148846
0.000141303
0.000196412
0.0231859
0.0169492
0.000154325
0.000127852
0.000143295
0.0373711
0.0139105
0.000146701
0.0113085
0.000137
0.00644608
0.000208118
0.0169785
0.000152914
0.000242736
0.0275565
0.000142823
0.000185755
0.0186437
0.000128713
0.00019627
0.0156434
0.000141484
0.000156123
0.0290936
0.000248846
0.000151092
0.000133161
0.02527
0.0161588
0.000303143
0.00019026
0.000157797
0.000138711
0.0411556
0.000139177
0.000147434
0.000141328
0.00013251
0.000140936
0.000150659
0.04054
0.000142929
0.00477408
0.000143079
0.0320771
0.000140901
0.0190323
0.000140796
0.00552518
0.000145969
0.0289628
0.000160891
0.0310698
0.000279554
0.00672597
0.000222638
0.000164935
0.00146201
0.0193288
0.000143498
0.0252254
0.000132824
0.000153057
0.0119097
0.000146122
0.000142788
0.000164659
0.000143908
0.0178018
0.000128793
0.000145447
0.000159882
0.000188691
0.000143213
0.000171274
0.000156523
0.0331362
0.0228166
0.000132175
0.000140057
0.0035314
0.000203125
0.000141184
0.000161229
0.000143139
0.0215019
0.0075667
0.000161279
0.000147608
0.000133088
0.000150274
0.0243162
0.000141952
0.000150784
0.000171074
0.000136888
0.000145284
0.0162388
0.0200807
0.000140016
0.000146686
0.0244476
0.0126223
0.00493933
0.000197347
0.000142347
0.0185596
0.000184359
0.0111978
0.000139985
0.000177778
0.000183399
0.000160098
0.000141095
0.0238525
0.0148637
0.000163352
0.000145746
0.00754933
0.00017806
0.000135013
0.000141913
0.0167151
0.000157157
0.000205632
0.01948
0.000151079
0.0213468
0.00103324
0.0252737
0.00218717
0.00206306
0.000143713
0.000145907
0.000150546
0.0137597
0.0299414
0.000132036
0.0301684
0.000141592
0.000149981
0.000293736
0.000130628
0.000201779
0.000132137
0.0247
0.000159655
0.000137854
0.000140608
0.0146911
0.0173311
0.000171557
0.0223317
0.0184271
0.0152832
0.000189459
0.00015757
0.000130539
0.000143064
0.000143849
0.00032452
0.0169287
0.000140165
0.000146562
0.000150976
0.0286784
0.00661215
0.0134364
0.000143241
0.000184035
0.000158211
0.00014143
0.000147672
0.000731785
0.0270043
0.0352783
0.000163401
0.000193491
0.0350142
0.000183812
0.0233542
0.000136535
0.000166521
0.000167074
0.00016727
0.000178437
0.00519517
0.000183346
0.000150749
0.000182656
0.000236951
0.000147584
0.000136478
0.000138693
0.0101448
0.000147812
0.0322375
0.000132627
0.018353
0.000196217
0.000144352
0.000140542
0.0323962
0.000156787
0.00103709
0.000142804
0.000139151
0.000275454
0.000166446
0.0126234
0.000139101
0.000143013
0.000148799
0.000454602
0.00014466
0.0217821
0.000142695
0.000138937
0.000145025
0.0145242
0.0222804
0.000275395
0.000157651
0.0146901
0.000159135
0.000148932
0.000150225
0.000177255
0.000150883
0.00032449
0.000150326
0.0191103
0.000148519
0.000145255
0.000147593
0.000146657
0.000140091
0.0014717
0.000139844
0.000128745
0.0358902
0.0100318
0.000140351
0.00015855
0.000150327
0.000372685
0.000149519
0.00610725
0.000166163
0.0210313
0.00015755
0.000153979
0.000150871
0.000156204
0.000424185
0.000154227
0.000138591
0.00421095
0.00273193
0.0103575
0.000166412
0.000139605
0.000157093
0.000199003
0.000167853
0.000150638
0.0173429
0.000142944
0.000140022
0.0216833
0.000157616
0.000159272
0.0374307
0.00494559
0.0283057
0.0262763
0.0133985
0.000144722
0.0206729
0.00042262
0.00490234
0.000217486
0.000454077
0.0202285
0.0189009
0.00122038
0.000157299
0.0334113
0.00278186
0.000147137
0.00016492
0.00016455
0.000189584
0.0075145
0.00014165
0.000147534
0.000144479
0.00753647
0.000139804
0.000140097
0.000409761
0.000319781
0.00014402
0.0144803
0.000146394
0.00020742
0.000140016
0.00956947
0.000199356
0.000341717
0.000145313
0.000204808
0.000158973
0.0162121
0.000150733
0.000148483
0.000146495
0.000141757
0.000173623
0.000258623
0.000216782
0.00020388
0.0132503
0.000140292
0.02944
0.0100063
0.000129673
0.000132338
0.0112234
0.000139393
0.000413798
0.000158357
0.000163252
0.000137329
0.000198588
0.000312343
0.000158652
0.000163861
0.0258942
0.000149774
0.000147142
0.000135979
0.000192412
0.000511827
0.000153307
0.0186288
0.000143356
0.000128687
0.000144589
0.000142943
0.000155868
0.000142824
0.000149255
0.000146421
0.000132897
0.000157105
0.000129598
0.000177491
0.000164322
0.00703844
0.000161358
0.0389921
0.0331417
0.000170635
0.000199909
0.000154631
0.0106131
0.0116349
0.000161617
0.000145494
0.000177397
0.000239876
0.0190856
0.000164122
0.0142547
0.00635921
0.000150771
0.026825
0.000174013
0.0168804
0.000154226
0.000157448
0.000147034
0.00536358
0.00015273
0.000204603
0.0131839
0.00012775
0.000290244
0.000165446
0.000229877
0.000137604
0.000135194
0.00020378
0.0244913
0.000166972
0.000128818
0.0103058
0.000157768
0.00015152
0.0001454
0.000198437
0.000146709
0.000168868
0.000129908
0.000372058
0.000185211
0.000184463
0.000357087
0.0273012
0.000129852
0.00451819
0.000147562
0.000151889
0.000141891
0.0340542
0.000150053
0.000151544
0.000170109
0.000150612
0.0278179
0.00346682
0.000140123
0.000150954
0.000143698
0.00018984
0.000138595
0.0254815
0.00013595
0.000190931
0.000143644
0.000147683
0.000142885
0.0324939
0.0107244
0.00513275
0.0331749
0.0219114
0.000152897
0.0204561
0.0284377
0.0113074
0.000157528
0.000239639
0.000137043
0.0208571
0.000149246
0.000134923
0.000162244
0.000161609
0.000173121
0.0108862
0.000144183
0.0284914
0.000164116
0.0341696
0.0187478
0.000152789
0.000510172
0.00516585
0.000139637
0.000160982
0.000165453
0.000140631
0.000151399
0.029533
0.000234766
0.00973332
0.000147766
0.017101
0.000144966
0.00520264
0.0187078
0.0212461
0.036342
0.00024111
0.000164134
0.0323025
0.000728278
0.000173799
0.000368649
0.00953733
0.000139709
0.000136931
0.0293447
0.000228833
0.000130885
0.000143972
0.000143875
0.000149305
0.00116905
0.000140513
0.0163809
0.0270901
0.000142268
0.000152123
0.000149251
0.000128737
0.00017274
0.000167387
0.00026804
0.000134917
0.000142766
0.000171376
0.00349064
0.00385185
0.000181058
0.000248786
0.000144015
0.000149151
0.0101286
0.000148663
0.000297279
0.000261888
0.000179426
0.00167263
0.0299518
0.000141134
0.000151481
0.000183354
0.000149589
0.000142372
0.000143259
0.000121124
0.000149647
0.000144923
0.000146637
0.000144101
0.00203544
0.000182741
0.000403701
0.00235468
0.000152122
0.000191941
0.00517779
0.0200503
0.000150596
0.00015235
0.000155236
0.000142366
0.000150438
0.0294603
0.000147246
0.000139701
0.0180463
0.000147139
0.0169022
0.000130851
0.000142222
0.000156886
0.00019792
0.00941281
0.000141382
0.000207993
0.0012984
0.000147743
0.000189329
0.00966152
0.032451
0.000151728
0.000151904
0.000214935
0.0301604
0.0223225
0.000170021
0.000157156
0.000139235
0.00245563
0.000310861
0.0155689
0.000151749
0.0282198
0.000140235
0.00709967
0.000201756
0.000199253
0.000171352
0.0243921
0.000145387
0.0228791
0.000152864
0.000152925
0.000202224
0.0276068
0.000149987
0.0037058
0.000140909
0.000379615
0.00015389
0.00978545
0.000139582
0.000178982
0.00658498
0.000145085
0.000144653
0.000439557
0.0343785
0.010252
0.000188425
0.000209921
0.000155586
0.000150104
0.00239754
0.000150796
0.000147129
0.000157297
0.000740572
0.0254617
0.0371373
0.00020282
0.000145482
0.000152819
0.000153049
0.000131334
0.000197776
0.0297665
0.000253035
0.000177128
0.000138979
0.00472196
0.000142039
0.000262001
0.0298531
0.000197088
0.000150706
0.000137332
0.0102803
0.000144078
0.000175787
0.000168331
0.000183005
0.000138996
0.00113961
0.000184348
0.000146709
0.000191344
0.0118292
0.000188601
0.0272854
0.000147074
0.0321588
0.00665059
0.000128636
0.000146657
0.000137894
0.00914355
0.0230739
0.000186822
0.0111833
0.00462643
0.000149373
0.000143958
0.000139942
0.000149736
0.0338273
0.000249017
0.000147267
0.000197537
0.000157323
0.000169846
0.000142944
0.000153235
0.00681727
0.000148357
0.000150955
0.000152211
0.000140137
0.000145511
0.000139349
0.000197036
0.000143453
0.00532386
0.00019136
0.000143327
0.000167377
0.000164479
0.019385
0.000139874
0.0137423
0.000165588
0.000309753
0.000160568
0.00557346
0.00191751
0.000144117
0.00397391
0.0059034
0.000142266
0.000166836
0.000320595
0.000188404
0.014115
0.000143169
0.000146481
0.000261693
0.000150929
0.000182099
0.000211824
0.00019707
0.0163617
0.000142968
0.00933305
0.03344
0.000144135
0.026495
0.000289672
0.0182812
0.000208493
0.0322741
0.000143947
0.00592103
0.0144567
0.00140352
0.00116028
0.00204792
0.00732162
0.000142884
0.000174182
0.000155427
0.00109559
0.000190173
0.0073095
0.000134085
0.0154299
0.000143986
0.000135968
0.000146099
0.000176601
0.000157043
0.000150499
0.000142801
0.000132747
0.000314389
0.000152572
0.00408176
0.000147814
0.0107171
0.000137879
0.000128596
0.0227457
0.000149996
0.000724765
0.000219296
0.000153481
0.0346268
0.000190567
0.0122597
0.000165221
0.0337514
0.000144604
0.00015023
0.000137044
0.000160417
0.0222083
0.000599268
0.00447137
0.000153174
0.000133801
0.0152451
0.000146184
0.0248676
0.000144105
0.000145883
0.000142317
0.000169372
0.000551903
0.0297241
0.000147605
0.000150779
0.00484449
0.000128573
0.020627
0.00723706
0.000164586
0.000204283
0.000165113
0.000176438
0.0318914
0.00015306
0.008688
0.000197079
0.000145376
0.00110099
0.000756109
0.000142517
0.000144556
0.000142123
0.000147846
0.000273323
0.00611689
0.00251337
0.000135433
0.000141153
0.000144059
0.00015004
0.000147653
0.000157733
0.000212307
0.00014556
0.000144419
0.00512461
0.0160821
0.000188487
0.00353632
0.000642474
0.000140644
0.000248829
0.0339888
0.0317337
0.00633897
0.000149663
0.000139491
0.000250879
0.000144756
0.0026855
0.0101951
0.000130126
0.038927
0.000149773
0.000143145
0.0070971
0.00014564
0.000883793
0.00343337
0.000139558
0.0235015
0.000191895
0.000154877
0.0276311
0.010778
0.000141183
0.00014014
0.000142696
0.000147797
0.000154469
0.00828981
0.000148823
0.000139361
0.000347093
0.0140059
0.000403156
0.000193285
0.000145014
0.00651406
0.000242291
0.0361025
0.000141224
0.000139512
0.000149082
0.000150524
0.000203356
0.000165292
0.000130048
0.000192556
0.00713619
0.000146027
0.000137434
0.000165661
0.000148703
0.00521642
0.000687735
0.000155728
0.000152113
0.000135519
0.000148971
0.000152458
0.000142213
0.000147331
0.000146561
0.00701173
0.000144069
0.0018807
0.000142078
0.00652889
0.000152375
0.0311817
0.0223518
0.0370047
0.00515095
0.0275205
0.000198149
0.000483336
0.00989443
0.000190135
0.023478
0.000152275
0.000359841
0.0290224
0.00559902
0.000134886
0.00704492
0.000142586
0.00011751
0.0293001
0.000258965
0.000145105
0.000140736
0.000144229
0.000153158
0.0308018
0.0175929
0.000150116
0.0167074
0.000190413
0.0381941
0.000136969
0.000224965
0.000189429
0.000192377
0.00175663
0.0349687
0.000201145
0.000146764
0.000220006
0.000229103
0.0307245
0.000142275
0.000135894
0.000147256
0.011871
0.00993631
0.00014472
0.000147888
0.000146876
0.000142176
0.0232078
0.00438088
0.000180169
0.00428184
0.000142268
0.0281465
0.00750492
0.00233564
0.0001538
0.00019062
0.000336483
0.018642
0.000136826
0.0241431
0.0116591
0.000157591
0.000148903
0.0291194
0.000173416
0.0338753
0.0196578
0.000148056
0.000140666
0.000155982
0.000148644
0.000143182
0.000154442
0.000199909
0.000139715
0.000142395
0.000150507
0.00015315
0.000138912
0.0154456
0.000155889
0.0343095
0.000146884
0.000191309
0.00014058
0.000155411
0.0197743
0.000167741
0.000145909
0.000154718
0.000168157
0.000176534
0.0118244
0.00446001
0.0276212
0.0120009
0.0213863
0.0215943
0.00944034
0.000257961
0.000167803
0.000136769
0.000143646
0.00645763
0.000142535
0.000151871
0.000136867
0.000145944
0.000139962
0.000139512
0.000146697
0.000144294
0.0238542
0.000150734
0.000149446
0.0001399
0.000155522
0.00783279
0.000167559
0.000177617
0.000223093
0.000155851
0.00540409
0.000141447
0.000168928
0.000142266
0.000161564
0.000146546
0.000278948
0.00991363
0.000206101
0.000149639
0.000143098
0.0104289
0.000147318
0.000212399
0.000143059
0.000232409
0.0187827
0.000195314
0.000157769
0.000187634
0.000147445
0.00631712
0.000176607
0.00242821
0.00147431
0.00580393
0.0213405
0.0246589
0.00014232
0.000139483
0.00014552
0.0181752
0.000144466
0.00508487
0.000187691
0.000149953
0.0253204
0.02664
0.000140511
0.000136393
0.000234755
0.0118685
0.00678293
0.000144
0.0101016
0.000130962
0.000243718
0.000217609
0.00016908
0.000157078
0.0124251
0.000141729
0.0251317
0.00016676
0.0247783
0.0246554
0.00015706
0.000156967
0.000164464
0.000138544
0.00016279
0.000142147
0.000165476
0.000148888
0.0226355
0.000144407
0.000148947
0.000136758
0.0346029
0.00013919
0.0142441
0.0121958
0.000235441
0.00707178
0.000203595
0.000263362
0.000150196
0.000170261
0.000141163
0.00636471
0.0136228
0.0097435
0.000169123
0.00214483
0.000209032
0.018277
0.000129226
0.0161138
0.0278892
0.00492247
0.000148561
0.00283693
0.0125759
0.0046812
0.000145851
0.000177321
0.00281927
0.000133995
0.0270608
0.000150865
0.000183066
0.000150857
0.000181009
0.000127762
0.000132143
0.000129184
0.000167536
0.000146374
0.00280437
0.000147709
0.000138382
0.00996104
0.000142945
0.00016468
0.000161482
0.000144412
0.01034
0.000168337
0.000150457
0.000142363
0.000150072
0.0167817
0.000142512
0.0001393
0.000178114
0.00589686
0.000153567
0.000199844
0.000134122
0.000199986
0.000151304
0.000150057
0.00143697
0.000182801
0.0225094
0.000147767
0.00019506
0.000153492
0.0194863
0.0158051
0.000148169
0.0296515
0.000260518
0.000138574
0.0148465
0.000163606
0.000156381
0.000183752
0.000150829
0.000141487
0.000155319
0.000195132
0.000153227
0.000187298
0.000175185
0.000196066
0.000132568
0.000199722
0.00014734
0.0216733
0.00022572
0.000142407
0.0237134
0.000141429
0.000138886
0.000456685
0.0117924
0.00601802
0.000211077
0.00634598
0.00436079
0.000143208
0.000145735
0.000196233
0.00126874
0.000151202
0.000248139
0.000150929
0.000145159
0.0299784
0.000203658
0.000210063
0.000187174
0.0337785
0.00012918
0.000215191
0.000154286
0.000176869
0.00869151
0.00317627
0.000145052
0.000151803
0.0347784
0.000155645
0.012087
0.00221094
0.0001444
0.000226483
0.00024899
0.000137828
0.0110458
0.000154586
0.0244324
0.0173718
0.000147019
0.000209319
0.000146832
0.000142605
0.000164347
0.0288667
0.000132239
0.000155539
0.02496
0.000145658
0.000121954
0.0355453
0.000145459
0.0146757
0.000143781
0.000151959
0.000134839
0.000141066
0.000141359
0.000150871
0.000213013
0.000155009
0.000146739
0.000188791
0.0347296
0.000154145
0.00125833
0.0223532
0.00681077
0.000148203
0.000151137
0.000507888
0.000142506
0.000148159
0.0179932
0.000203894
0.000158647
0.000147436
0.000153287
0.000217536
0.000143963
0.000141231
0.0345013
0.000261011
0.000130362
0.000141261
0.00627448
0.0174232
0.000147915
0.000151664
0.000363797
0.000196545
0.0191192
0.000137247
0.019814
0.000154883
0.000153645
0.0277462
0.00106693
0.0002043
0.00538049
0.000141737
0.0108325
0.000153161
0.00512417
0.00469633
0.000145913
0.0296405
0.000150692
0.000135894
0.000168791
0.000557584
0.00828171
0.0232053
0.000144926
0.000283463
0.000216443
0.000176841
0.000150627
0.00014956
0.000149785
0.0264032
0.0376288
0.0155594
0.0233913
0.000155709
0.00020229
0.00066838
0.000157397
0.000140928
0.00015655
0.0362533
0.000175235
0.0108781
0.0104339
0.0137661
0.000158383
0.0243353
0.000174816
0.00019113
0.00388772
0.0298473
0.0124577
0.000207784
0.000144385
0.0228408
0.000136712
0.019635
0.000136054
0.00014063
0.000148566
0.00432115
0.000984809
0.0145891
0.000170591
0.0205246
0.000143878
0.000175993
0.000136415
0.000194723
0.00112229
0.00288982
0.0204163
0.0172514
0.00510222
0.00581968
0.000149246
0.0181604
0.000147425
0.0255982
0.00171542
0.000156042
0.000144587
0.000349366
0.00020361
0.000130337
0.000144056
0.0158605
0.000137192
0.000147689
0.000213777
0.00480574
0.000132773
0.000194302
0.000182841
0.00194042
0.0244067
0.00014561
0.000139128
0.00111866
0.000144252
0.000552198
0.000174896
0.0285085
0.000167332
0.000168795
0.000139473
0.000128666
0.0104498
0.000173574
0.000181052
0.000154134
0.00815185
0.000231299
0.00526471
0.00741999
0.000150742
0.00400425
0.000142611
0.000167013
0.000159708
0.0259358
0.000136818
0.00013827
0.0263314
0.00020305
0.0283398
0.000157956
0.000743447
0.0094965
0.000153636
0.0129887
0.000150865
0.000342436
0.0056629
0.0232326
0.000142206
0.00923511
0.0120948
0.0334934
0.0299451
0.0352382
0.000155647
0.0165785
0.000154578
0.00667709
0.000187692
0.000161758
0.000130476
0.00019553
0.000140634
0.00432145
0.000160722
0.000149513
0.000150664
0.000213954
0.00246132
0.000142388
0.00667298
0.000191076
0.00550896
0.0282038
0.000645699
0.000150089
0.0295475
0.000132445
0.00697244
0.0293443
0.0126948
0.000143822
0.000202089
0.000143407
0.0140166
0.000178366
0.0016044
0.000204236
0.0293439
0.000198332
0.0213291
0.000137361
0.0171581
0.00325097
0.000146807
0.000182877
0.0205018
0.000148315
0.000145012
0.000174067
0.00515603
0.000143316
0.000142285
0.000140587
0.00690378
0.000166145
0.000189189
0.00071043
0.000165656
0.000156267
0.000127708
0.000137015
0.000135745
0.000295096
0.0120993
0.000141323
0.000156499
0.000144771
0.000186966
0.00014973
0.00189895
0.000150171
0.0222559
0.000577409
0.000147622
0.000221072
0.000283736
0.000140973
0.000131392
0.000206761
0.012128
0.000139254
0.0017549
0.0299381
0.00142637
0.028227
0.0191856
0.000188304
0.000146847
0.0250377
0.000143818
0.000202175
0.000135073
0.0127871
0.000137979
0.00103249
0.00015355
0.0316449
0.000135988
0.024404
0.000130178
0.000147588
0.000209513
0.000152488
0.000136749
0.000166021
0.0187167
0.000143996
0.0301666
0.00015266
0.0133177
0.0106832
0.0145093
0.0153368
0.000145408
0.000159225
0.0268577
0.0229779
0.00014493
0.000165315
0.00018501
0.000332126
0.000147296
0.0335828
0.000194343
0.000137492
0.0293949
0.0257587
0.000152272
0.0144331
0.000188969
0.00106464
0.0338792
0.00014464
0.0001416
0.0070395
0.000142693
0.0168417
0.000154235
0.0222185
0.0265262
0.000137704
0.000216976
0.000129585
0.000207516
0.000145333
0.000165586
0.0335838
0.0001436
0.0112227
0.000151261
0.000145962
0.000256754
0.00014744
0.0328025
0.00284096
0.0162202
0.00041098
0.00110355
0.000151808
0.000141655
0.0342324
0.033696
0.000136769
0.00192572
0.000146791
0.000131724
0.0169788
0.00823917
0.000155843
0.000140403
0.000144626
0.000134423
0.0127911
0.000144804
0.00294132
0.000167372
0.029879
0.000195052
0.000304817
0.000141293
0.00607488
0.0111181
0.000252183
0.000148526
0.00311553
0.000128268
0.026796
0.0340224
0.000137074
0.000192726
0.000199799
0.000166747
0.000156984
0.00016134
0.0114877
0.0212999
0.00506505
0.000142939
0.0124274
0.000148383
0.0174059
0.000189165
0.000200727
0.0184196
0.000144562
0.00527005
0.000188359
0.000155969
0.00772344
0.00596787
0.0308536
0.000199926
0.000146883
0.000207152
0.00822802
0.000168798
0.00139561
0.0316043
0.0206648
0.010125
0.000138669
0.000134898
0.000152901
0.000155658
0.000144787
0.000144044
0.000158335
0.000149539
0.000203951
0.0164871
0.0115425
0.000155809
0.0265518
0.000193908
0.00255622
0.000152901
0.00625766
0.00019694
0.00106696
0.0281422
0.000139965
0.0112133
0.034628
0.0001465
0.000148213
0.0241841
0.0244722
0.00579486
0.000225811
0.000141007
0.000153368
0.00206924
0.000142756
0.000164153
0.0132374
0.000136427
0.000219223
0.0120939
0.0294159
0.000147865
0.00232562
0.000165501
0.000169619
0.0172134
0.000128308
0.000140642
0.00013739
0.00517451
0.0270115
0.000189202
0.000146167
0.00665058
0.000149212
0.00062112
0.000308821
0.000150852
0.000137972
0.000143811
0.0338782
0.00658923
0.0366832
0.000146378
0.0375655
0.0223014
0.000532722
0.000141316
0.000392913
0.000145889
0.000136344
0.000140657
0.00636586
0.000191258
0.000630495
0.000187915
0.0345882
0.000144682
0.00014702
0.0313909
0.000164262
0.000142943
0.000103126
0.000160915
0.0351206
0.00624067
0.00014671
0.000136657
0.000145218
0.033839
0.000453921
0.0170417
0.000204103
0.000194771
0.00617598
0.000792307
0.00632466
0.0046268
0.000236085
0.000145193
0.00208253
0.000137808
0.00013239
0.00026787
0.000958262
0.000140314
0.000146668
0.00254216
0.000249351
0.000156543
0.02052
0.000148809
0.000227128
0.00014955
0.00061005
0.0163754
0.000349543
0.000138928
0.000146768
0.0311937
0.0234624
0.0322895
0.000258942
0.0307795
0.0262889
0.0290873
0.0101299
0.0194989
0.000146827
0.00481096
0.0216023
0.000215143
0.000140784
0.000152208
0.0322656
0.000147603
0.000137716
0.0219654
0.000142536
0.0260272
0.000128592
0.0182538
0.0177158
0.0145433
0.000138053
0.000144754
0.000155752
0.000129493
0.00718121
0.000152305
0.00645935
0.0102542
0.000294475
0.000188183
0.000208562
0.0122367
0.000197195
0.000144816
0.000148506
0.000455321
0.000457503
0.00495264
0.000482758
0.000170857
0.000166048
0.000128804
0.000197124
0.000147986
0.00630527
0.000210308
0.000204004
0.00014558
0.000160925
0.000201982
0.00017568
0.0361736
0.0183131
0.000136935
0.000149782
0.000142236
0.0214365
0.000144426
0.0143633
0.000159305
0.0226039
0.000135059
0.0255677
0.0143451
0.00013177
0.000147072
0.000202254
0.000204401
0.000177006
0.000283618
0.000136703
0.0276036
0.0167114
0.000140012
0.0166948
0.000750692
0.000201368
0.00016455
0.0350216
0.0191291
0.0273108
0.00988825
0.0155011
0.000135884
0.00392632
0.000142856
0.000134415
0.0189638
0.000446503
0.025428
0.000841758
0.0017043
1.79498e-05
0.000155085
0.000146146
0.000139048
0.0335263
0.000134762
0.000195644
0.00341125
0.0295049
0.000127948
0.00013594
0.0379436
0.000158858
0.0301754
0.000148751
0.000152079
0.000149501
0.000137237
0.000188486
0.00727625
0.00198388
0.0288898
0.00024177
0.00143297
0.00348324
0.000292513
0.0305618
0.000139357
0.000222271
0.000146295