/*--------------------------------*- C++ -*----------------------------------*\
| =========                 |                                                 |
| \\      /  F ield         | OpenFOAM: The Open Source CFD Toolbox           |
|  \\    /   O peration     | Version:  v2012                                 |
|   \\  /    A nd           | Website:  www.openfoam.com                      |
|    \\/     M anipulation  |                                                 |
\*---------------------------------------------------------------------------*/
FoamFile
{
    version     2.0;
    format      ascii;
    class       volScalarField;
    location    "100";
    object      k_0;
}
// * * * * * * * * * * * * * * * * * * * * * * * * * * * * * * * * * * * * * //

dimensions      [0 2 -2 0 0 0 0];


internalField   nonuniform List<scalar> 
27915
(
0.00015788
0.000192476
0.0268033
0.000139038
0.000145445
0.000162729
0.000132557
0.0241704
0.000144498
0.0385018
0.000176466
0.0322745
0.00151198
0.000132475
0.000137515
0.000138954
0.000315131
0.000147198
0.000205859
0.0242029
0.0031673
0.000152484
0.00273763
0.000146268
0.000138965
0.000136426
0.00862879
0.000145285
0.0125805
0.00015722
0.000143845
0.000174562
0.000135672
0.000135284
0.0317597
0.00013532
0.000150242
0.000136426
0.000201056
0.000145601
0.000155374
0.000149862
0.000137392
0.000139992
0.0155872
0.000145854
0.000141645
0.000173962
0.00014725
0.000141709
0.0260304
0.000229131
0.030785
0.000157382
0.000158281
0.000141604
0.00014261
0.00175306
0.00191702
0.000143683
0.000301958
0.000162744
0.0156539
0.00602628
0.000145258
0.000204581
0.0322474
0.0259475
0.0318889
0.000143496
0.000234173
0.000146497
0.000147259
0.0100193
0.0376789
0.000812122
0.00015698
0.000133746
0.0204646
0.000519298
0.000162216
0.000147415
0.000165816
0.0213433
0.0188152
0.0103481
0.000134883
0.000176715
0.043411
0.000350932
0.000148483
0.00976653
0.000141415
0.0139877
0.0121319
0.0283338
0.000266077
0.0375804
0.000162496
0.000128708
0.000162138
0.000136287
0.0372682
0.000150408
0.000161263
0.000147388
0.0231351
0.000221758
0.000136288
0.0336844
0.0247131
0.000155152
0.00189582
0.000623738
0.000220153
0.00022902
0.0224861
0.000173568
0.000150363
0.000147237
0.000148238
0.00145212
0.000135829
0.000152454
0.000145159
0.0131919
0.0235895
0.0150506
0.000144321
0.000142692
0.000162991
0.00636699
0.0132507
0.000415502
0.0306093
0.00019947
0.0234539
0.000134935
0.000142966
0.000147766
0.000166972
0.000158409
0.000152575
0.00752455
0.028209
0.0274127
0.0127926
0.000172726
0.000891533
0.000166042
0.0172344
0.00013476
0.000228413
0.0263659
0.00027437
0.0311019
0.0203168
0.000141137
0.000144257
0.000150563
0.000198602
0.0113535
0.00013983
0.000267255
0.00802148
0.000144275
0.000234276
0.00314811
0.0383364
0.000150364
0.00016768
0.000147691
0.000145182
0.000174567
0.000131831
0.0102793
0.0332061
0.000149441
0.000140038
0.0062175
0.0433811
0.000275014
0.000153521
0.0287881
0.000199077
0.00212576
0.000141605
0.00014502
0.0187499
0.000134829
0.0244589
0.000182157
0.000196114
0.000149433
0.000129446
0.000146258
0.00170432
0.000331534
0.000148845
0.000164015
0.0299799
0.0148782
0.000140075
0.000146834
0.0110646
0.0143684
0.000199511
0.000279103
0.0205161
0.000144825
0.000165284
0.0187715
0.000148315
0.000144337
0.000145973
0.000156637
0.000264735
0.000275846
0.000142872
0.000147045
0.000145839
0.000149934
0.000158694
0.000147687
0.0120847
0.00046111
0.000140225
0.0136729
0.0001434
0.000135342
0.0127202
0.000192549
0.0180397
0.00202628
0.00347136
0.000154487
0.0109276
0.000157086
0.000153709
0.000139036
0.0158272
0.00015275
0.000210741
0.00968588
0.000144112
0.000139848
0.025698
0.00587562
0.000162268
0.000178542
0.000157865
0.0324345
0.000130766
0.000144018
0.000147022
0.000265496
0.000157699
0.000143774
0.000181033
0.022487
0.0290499
0.000194588
0.000598064
0.00288349
0.000668341
0.000249149
0.000138032
0.0257622
0.0328929
0.0240045
0.000148548
0.0141575
0.0162511
0.00452489
0.000161751
0.000138058
0.000151371
0.000152371
0.00013734
0.000152032
0.000142729
0.000129033
0.000133627
0.000180435
0.0100479
0.0334222
0.0175564
0.0155976
0.00015735
0.0308541
0.000462422
0.000146781
0.0129185
0.000146468
0.000151381
0.000193208
0.0111141
0.0197671
0.000172632
0.000146482
0.0126502
0.00019892
0.000141453
0.000149147
0.0107848
0.0205437
0.00016449
0.00014045
0.0202441
0.000150481
0.0151376
0.000147047
0.0292034
0.000143718
0.0160806
0.000147467
0.000128748
0.0235138
0.0164763
0.0155882
0.00023469
0.000128561
0.000138245
0.000146157
0.000258239
0.000198393
0.000264093
0.0137903
0.000142872
0.000137628
0.000140543
0.000251685
0.00014664
0.000141601
0.00687472
0.000131177
0.000256257
0.00013749
0.0118145
0.00390988
0.000157199
0.0137348
0.014118
0.0340414
0.00013107
0.000142542
0.000146869
0.0273875
0.0339656
0.000146729
0.000146033
0.000139208
0.0117906
0.000232822
0.000177484
0.000192834
0.000201336
0.000141241
0.00013922
0.00923952
0.000183545
0.000149073
0.000150136
0.000133383
0.000140304
0.00337114
0.000169579
0.000138336
0.000143469
0.000139436
0.0162561
0.000131465
0.000191481
0.000149002
0.0331637
0.000131739
0.000135393
0.000190968
0.000173263
0.000130831
0.000165823
0.000203381
0.00016542
0.000505266
0.0192821
0.000180902
0.0109491
0.000203338
0.000148052
0.00852592
0.000144913
0.026721
0.0344274
0.000138426
0.0390541
0.000190863
0.000167929
0.000158319
0.000142572
0.0408576
0.000139323
0.000163193
0.0119103
0.000148823
0.030382
0.000154164
0.0002246
0.000142617
0.0308856
0.00019984
0.0211759
0.000176678
0.000138443
0.000140157
0.0336732
0.000146439
0.000208726
0.000150061
0.000190162
0.000159186
0.000262474
0.000143539
0.000161547
0.0273142
0.0122336
0.000153554
0.000138274
0.0221095
0.0327633
0.000144288
0.030094
0.000151815
0.000290226
0.000163467
0.000138975
0.000138978
0.000143076
0.000155132
0.00062493
0.00019904
0.0222197
0.000242096
0.000207462
0.000197424
0.000141826
0.000155211
0.0143075
0.000148617
0.000184066
0.000129648
0.0182094
0.0178879
0.000137595
0.00015712
0.0246955
0.00310816
0.0297422
0.000141031
0.000166196
0.0124069
0.0001382
0.000166554
0.000317077
0.00015417
0.0140746
0.0140808
0.000146568
0.000140176
0.000207903
0.00599337
0.000140023
0.000161265
0.000716174
0.000139444
0.000320909
0.000165524
0.000140186
0.000140394
0.000215448
0.000170345
0.0034385
0.000168117
0.015691
0.00422006
0.0104079
0.000152001
0.000164507
0.000511718
0.000315555
0.000137264
0.00356345
0.00528454
0.000178643
0.000149795
0.0176013
0.000175043
0.000154914
0.0224664
0.0279269
0.0158982
0.000140488
0.000149293
0.0103526
0.00131795
0.0129895
0.0144605
0.000138977
0.000151429
0.0139096
0.00829613
0.000139933
0.000199248
0.000197452
0.0146205
0.0163589
0.00700595
0.0324832
0.000138798
0.000190939
0.000166146
0.000145352
0.000137542
0.00013974
0.0261056
0.00012839
0.0102902
0.000156965
0.0338213
0.00170359
0.0168453
0.000129066
0.0426038
0.0221655
0.000212183
0.000171474
0.000150046
0.0304069
0.000143641
0.000188855
0.000142989
0.000143382
0.000306017
0.000145063
0.00113601
0.000144282
0.0120723
0.000139363
0.0341099
0.000137682
0.010906
0.000143539
0.000149548
0.00018551
0.016334
0.000212427
0.000198481
0.00916853
0.0276785
0.00079511
0.000140493
0.0156202
0.0380547
0.000195205
0.000165727
0.000145423
0.000149572
0.0110124
0.000138791
0.0294438
0.000147347
0.000192889
0.0293039
0.000169344
0.0264977
0.00013498
0.00519184
0.0157619
0.00223138
0.00181783
0.000137227
0.000142089
0.00019145
0.000171538
0.0337705
0.00565861
0.000149657
0.0177983
0.000135413
0.00014567
0.00589931
0.000138819
0.000145238
0.0288799
0.000172578
0.0180978
0.000137794
0.0207679
0.000273205
0.000139179
0.000134747
0.0205228
0.000146003
0.000137816
0.000135028
0.000653217
0.000140336
0.00462293
0.000168236
0.000147475
0.0135154
0.00169333
0.000137862
0.00096138
0.0334605
0.0125366
0.000146363
0.000140711
0.00392473
0.000162138
0.0058673
0.000128572
0.000150205
0.000134761
0.000136739
0.000146371
0.000145548
0.000161757
0.000158079
0.000137397
0.000133117
0.000469669
0.0111914
0.030031
0.000196418
0.0294991
0.0258684
0.0132082
0.000140778
0.00183462
0.000990186
0.000359802
0.000145046
0.00839355
0.000147364
0.000138908
0.000127903
0.0115272
0.000155885
0.000131423
0.000167616
0.000636611
0.000275468
0.000391268
0.0236994
0.0342548
0.00015027
0.0285997
0.0407858
0.0213071
0.000131951
0.000149153
0.0335649
0.000135129
0.0019206
0.000204233
0.000150107
0.00749328
0.00021128
0.000158656
0.000161168
0.000137454
0.000143469
0.000148732
0.000143197
0.000132117
0.000139398
0.000139811
0.0167809
0.000144887
0.0131594
0.000150141
0.000161554
0.00105393
0.000141441
0.000143735
0.000574516
0.00740666
0.000144918
0.000139137
0.000148261
0.00013815
0.00183345
0.000142289
0.00014422
0.000190795
0.000137433
0.0234423
0.0278713
0.0123681
0.000143831
0.0121182
0.0107467
0.000169159
0.000148195
0.00391071
0.000144187
0.0327354
0.000161766
0.000164952
0.000167914
0.000144753
0.000148846
0.000141303
0.000196383
0.0232428
0.0167557
0.000154323
0.000127852
0.000143296
0.0373962
0.0139069
0.000146701
0.011277
0.000137
0.00639346
0.000208073
0.016998
0.000152914
0.000242746
0.0275159
0.000142823
0.000185742
0.0187045
0.000128713
0.00019624
0.015644
0.000141484
0.000156123
0.0291105
0.000248629
0.000151093
0.000133161
0.0252936
0.0161054
0.000302498
0.000190255
0.000157797
0.000138711
0.0412242
0.000139177
0.000147434
0.000141328
0.000132509
0.000140936
0.000150657
0.0405567
0.000142938
0.00477688
0.000143079
0.0320694
0.000140901
0.0190298
0.000140796
0.00547026
0.000145969
0.0289762
0.000160891
0.031087
0.000280945
0.00672772
0.000222606
0.000164907
0.00144553
0.019332
0.000143498
0.0252612
0.000132824
0.000153057
0.0120837
0.000146123
0.000142788
0.000164658
0.000143908
0.0179402
0.000128793
0.000145448
0.000159882
0.000188707
0.000143213
0.000171244
0.000156522
0.0331724
0.0228293
0.000132175
0.000140057
0.00367605
0.000203099
0.000141184
0.000161229
0.000143139
0.0215039
0.00756865
0.000161276
0.000147607
0.000133088
0.000150273
0.0243819
0.000141952
0.000150838
0.000171092
0.000136888
0.000145285
0.0162472
0.0201598
0.000140016
0.000146687
0.024434
0.0126161
0.0049343
0.000197334
0.000142347
0.0185331
0.00018437
0.0111808
0.000139985
0.000177774
0.000183393
0.000160088
0.000141094
0.023822
0.0148564
0.000163415
0.000145748
0.00748039
0.000178055
0.000135014
0.000141914
0.0167617
0.000157159
0.000205592
0.0194877
0.00015108
0.0213294
0.00100623
0.0252273
0.00211293
0.00199221
0.000143713
0.000145908
0.00015054
0.0137572
0.0299617
0.000132035
0.030228
0.000141593
0.000149981
0.00029335
0.000130628
0.000201764
0.000132137
0.0246664
0.000159698
0.000137854
0.000140608
0.0146931
0.0173213
0.000171513
0.0223547
0.0185056
0.0152896
0.000189458
0.000157569
0.000130539
0.000143064
0.00014385
0.000326592
0.0169567
0.000140165
0.000146564
0.000150975
0.0288301
0.00650847
0.0134437
0.000143241
0.000184043
0.00015821
0.000141431
0.000147672
0.000779743
0.027012
0.0353005
0.000163398
0.000193463
0.0350326
0.000183831
0.0233849
0.000136535
0.000166521
0.000167085
0.00016727
0.000178432
0.00518279
0.000183353
0.000150749
0.000182664
0.000236296
0.000147584
0.000136478
0.000138693
0.0101444
0.000147812
0.0323317
0.000132627
0.0183153
0.000196208
0.000144352
0.000140542
0.0323857
0.000156788
0.00104846
0.000142804
0.000139153
0.000276473
0.000166597
0.0125538
0.000139101
0.000143013
0.0001488
0.000456381
0.000144661
0.0217789
0.000142695
0.000138937
0.000145025
0.0145174
0.0222319
0.000268118
0.000157651
0.0145794
0.000159135
0.000148933
0.000150225
0.000177254
0.000150883
0.00032615
0.000150323
0.0190927
0.000148519
0.000145255
0.000147593
0.000146657
0.000140092
0.00153283
0.000139844
0.000128745
0.0359108
0.0101476
0.000140352
0.000158549
0.000150327
0.000371789
0.000149515
0.00609581
0.000166173
0.0210614
0.000157532
0.000153979
0.000150871
0.0001562
0.000426907
0.000153711
0.000138591
0.00422468
0.0027456
0.0103877
0.000166412
0.000139609
0.000157092
0.000199051
0.000167846
0.000150639
0.0173523
0.000142944
0.000140021
0.021678
0.000157615
0.000159272
0.0374541
0.00495739
0.0282332
0.026272
0.01332
0.000144722
0.0206107
0.000422555
0.0049228
0.000217335
0.000465218
0.0202419
0.0189113
0.00120437
0.000157298
0.0334287
0.00278483
0.000147137
0.000164919
0.000164548
0.000189596
0.00751428
0.000141653
0.000147534
0.000144481
0.00748412
0.000139804
0.000140097
0.000417185
0.000322101
0.000144021
0.0144536
0.000146395
0.000207378
0.000140016
0.00959707
0.000199378
0.000343737
0.000145314
0.000204833
0.000158973
0.0162108
0.000150734
0.000148483
0.000146495
0.000141756
0.000173625
0.000258664
0.000216644
0.000203816
0.013257
0.000140293
0.0295944
0.0100217
0.000129672
0.000132338
0.0112331
0.000139393
0.00042044
0.000158357
0.000163251
0.000137329
0.000198614
0.000311648
0.000158652
0.000163861
0.0258453
0.000149774
0.000147142
0.000135979
0.000192387
0.00052259
0.000153304
0.0186379
0.000143356
0.000128687
0.00014459
0.000142943
0.000155867
0.000142825
0.000149255
0.000146425
0.000132897
0.000157105
0.000129598
0.000177496
0.000164321
0.00703847
0.000161354
0.0390101
0.0331607
0.000170638
0.000199937
0.000154631
0.0106216
0.0116013
0.000161617
0.000145495
0.000177395
0.000239582
0.0191407
0.000164127
0.0142519
0.00635978
0.000150772
0.0268514
0.000174015
0.0168254
0.000154226
0.000157443
0.000147033
0.0054133
0.00015273
0.00020457
0.0130935
0.00012775
0.000290524
0.000165465
0.000229722
0.000137604
0.000135194
0.00020375
0.0244898
0.000166941
0.000128818
0.0102524
0.000157769
0.000151522
0.000145399
0.000198563
0.000146714
0.00016887
0.000129907
0.000374473
0.0001852
0.000184453
0.000356591
0.027187
0.000129852
0.00450267
0.000147562
0.00015189
0.000141891
0.0340759
0.000150054
0.000151545
0.00017013
0.000150613
0.0277768
0.00346787
0.000140123
0.000150954
0.000143699
0.000189856
0.000138595
0.0254437
0.00013595
0.00019095
0.000143644
0.000147702
0.000142885
0.0325132
0.0106297
0.00511769
0.0331897
0.021857
0.000152896
0.0204621
0.0283624
0.011306
0.000157528
0.000240482
0.000137043
0.0207494
0.000149246
0.000134923
0.000162344
0.000161605
0.000173122
0.0108919
0.000144184
0.028398
0.00016412
0.0341886
0.0188025
0.000152789
0.000514006
0.00515505
0.000139637
0.000160981
0.000165471
0.000140631
0.000151399
0.0295501
0.000234164
0.00969374
0.000147766
0.0171023
0.000144966
0.0051981
0.0186389
0.0212649
0.0364102
0.000241197
0.000164236
0.0323217
0.000725958
0.000174043
0.000367479
0.00962999
0.00013971
0.000136931
0.0291742
0.000228918
0.000130885
0.000143972
0.000143876
0.000149305
0.00115197
0.000140515
0.016393
0.0271215
0.000142268
0.000152122
0.000149251
0.000128737
0.000172711
0.000167387
0.000269017
0.000134917
0.000142766
0.000171396
0.00348344
0.00400352
0.000181051
0.000248901
0.000144015
0.000149161
0.0101309
0.000148664
0.000297158
0.000261425
0.000179448
0.00166214
0.0299356
0.000141134
0.000151481
0.00018332
0.000149589
0.000142372
0.000140893
0.000121389
0.000149647
0.000144923
0.000146638
0.000144101
0.00202954
0.000182746
0.000402706
0.00234202
0.000152119
0.00019192
0.0051758
0.0200543
0.000150596
0.000152346
0.000155223
0.000142366
0.000150438
0.0295102
0.000147243
0.000139701
0.0179764
0.00014714
0.0168267
0.000130851
0.000142222
0.000156887
0.00019795
0.00930035
0.000141382
0.000208538
0.00131417
0.000147743
0.000189324
0.00967694
0.0324696
0.000151729
0.000151903
0.000214741
0.0302098
0.0220513
0.000169994
0.000157156
0.000139235
0.00244796
0.000312118
0.0155697
0.000151743
0.0281573
0.000140235
0.00705852
0.000201747
0.000199252
0.000171374
0.0243511
0.000145388
0.0227675
0.000152859
0.000152924
0.000202203
0.0276622
0.000149987
0.00389801
0.00014091
0.000378663
0.000153884
0.00975605
0.000139582
0.000179002
0.00653221
0.000145085
0.000144654
0.000439827
0.0343952
0.0102543
0.000188572
0.000209747
0.000155585
0.000150116
0.00242612
0.000150801
0.000147129
0.000157296
0.000742501
0.0254682
0.0371792
0.000203204
0.000145482
0.000152819
0.000153048
0.000131333
0.000197706
0.0297696
0.000253885
0.000177133
0.000138979
0.00468673
0.000142039
0.000262599
0.0298453
0.000197091
0.00015071
0.000137332
0.0102082
0.000144079
0.000175791
0.000168324
0.000182998
0.000138996
0.00114774
0.000184286
0.00014671
0.000191365
0.0118157
0.000188597
0.027344
0.000147072
0.0321753
0.00666294
0.000128637
0.000146658
0.000137894
0.00905581
0.0230957
0.000186791
0.0111621
0.0045831
0.000149373
0.000143958
0.000139942
0.000149736
0.0338326
0.000248128
0.000147272
0.000197472
0.000157352
0.000169865
0.000142944
0.000153229
0.0068087
0.000148357
0.000150954
0.000152208
0.000140137
0.000145511
0.000139348
0.000196963
0.000143453
0.00537191
0.000191336
0.000143328
0.000167378
0.000164498
0.0194238
0.000139874
0.0137418
0.000165588
0.000310733
0.000160633
0.0055269
0.00201633
0.000144117
0.0039576
0.00595803
0.000142267
0.000166836
0.000319372
0.000188394
0.0141148
0.000143169
0.000146482
0.000272689
0.000150927
0.000182063
0.000211471
0.000197095
0.0163004
0.000142968
0.00927194
0.0334542
0.000144143
0.0264389
0.00028858
0.0183794
0.000208425
0.0323111
0.000143936
0.00596441
0.0144588
0.00140203
0.00114245
0.00204342
0.00731341
0.000142884
0.000174359
0.000155426
0.00115789
0.000190154
0.0073009
0.000134086
0.0154387
0.000143986
0.000135968
0.000146099
0.000176596
0.000157044
0.000150499
0.000142801
0.000132747
0.000312391
0.000152573
0.00409946
0.000147813
0.0107083
0.000137878
0.000128596
0.0226973
0.000149997
0.000715112
0.000219356
0.000153481
0.0347483
0.000190579
0.0122645
0.000165219
0.0336649
0.000144606
0.00015023
0.000137044
0.000160414
0.0222449
0.000591965
0.00446371
0.000153174
0.000133802
0.0150734
0.000146187
0.0249162
0.000144105
0.000145884
0.000142317
0.000169336
0.000555072
0.0297796
0.000147605
0.000150777
0.00485932
0.000128573
0.02064
0.00720241
0.000164602
0.000204838
0.000165112
0.000176436
0.0318748
0.000153075
0.008592
0.000197023
0.000145376
0.00108338
0.000752647
0.000142517
0.000144556
0.000142124
0.000147846
0.000272034
0.0060842
0.00254078
0.000135432
0.000141153
0.00014406
0.000150042
0.000147653
0.000157732
0.000211412
0.00014556
0.00014442
0.00512664
0.0160204
0.000188374
0.00352707
0.000647314
0.000140644
0.00024872
0.0339952
0.0317498
0.0063313
0.000149663
0.000148624
0.000250275
0.000144757
0.00268054
0.0102046
0.000130126
0.0389479
0.000149773
0.000143145
0.0070976
0.000145625
0.000894318
0.00341779
0.000139559
0.0235148
0.000191955
0.000154888
0.0276655
0.0108824
0.000141183
0.00014014
0.000142696
0.000147797
0.000154469
0.00823441
0.000148823
0.000139361
0.000353589
0.0138287
0.000397746
0.000193307
0.000145012
0.00651004
0.000241725
0.0361278
0.000141225
0.000139511
0.000149082
0.000150524
0.000202053
0.000165277
0.000130048
0.000192568
0.00713652
0.000146026
0.000137434
0.000165661
0.000148703
0.00515214
0.000749207
0.000155727
0.000152113
0.000135519
0.000148971
0.000152459
0.000142213
0.000147331
0.000146562
0.00705212
0.000144069
0.00193988
0.000142078
0.00657899
0.000152375
0.0312807
0.0223636
0.0370044
0.00515341
0.0273727
0.000198169
0.000488004
0.00992905
0.00019012
0.0234471
0.000152271
0.000355783
0.029016
0.00576897
0.000134886
0.00704896
0.000142586
0.000116663
0.0292875
0.000259222
0.000145107
0.000140736
0.00014423
0.000153158
0.0308847
0.0175592
0.000150116
0.0165877
0.000190516
0.0382118
0.00013697
0.000225034
0.000189428
0.000192278
0.00181936
0.0349928
0.000201582
0.000146764
0.000220058
0.000228819
0.0307289
0.000142275
0.000135894
0.000147256
0.0119757
0.0099229
0.00014472
0.000147888
0.000146892
0.000142176
0.0232402
0.00437245
0.000180137
0.00446661
0.000142268
0.0281484
0.0076802
0.00249326
0.0001538
0.000190631
0.000333908
0.0186273
0.000136826
0.0239944
0.0115887
0.00015759
0.000148905
0.029115
0.000173391
0.033896
0.0196417
0.000148056
0.000140666
0.000155981
0.000148644
0.000143182
0.000154442
0.000199938
0.000139715
0.000142395
0.000150507
0.000153152
0.000138912
0.0154444
0.000155889
0.0343318
0.000146887
0.000191335
0.00014058
0.00015541
0.0197046
0.000167757
0.000145909
0.000154715
0.000168155
0.000176537
0.0119558
0.00449487
0.027579
0.0120838
0.0213715
0.0216181
0.00947889
0.00025794
0.000167791
0.000136769
0.000143646
0.00644708
0.000142535
0.000151871
0.000136867
0.000145944
0.000139962
0.000139511
0.000146697
0.000144296
0.0238947
0.000150742
0.000149446
0.000139901
0.000155521
0.00779235
0.000167535
0.000177623
0.000223416
0.000155843
0.00545747
0.000141447
0.000168897
0.000142266
0.000161564
0.000146546
0.000278745
0.0098414
0.00020612
0.000149639
0.000143097
0.0104079
0.000147318
0.000212441
0.000143059
0.000232328
0.018791
0.000195284
0.000157752
0.000187632
0.000147444
0.00631681
0.000176612
0.00250034
0.00150039
0.00575381
0.0213739
0.0246041
0.00014232
0.000139483
0.00014552
0.0181671
0.000144466
0.00509094
0.000187688
0.000149953
0.0252704
0.0265954
0.000140511
0.000136392
0.000234402
0.0118782
0.00674457
0.000143997
0.01012
0.000130962
0.000245936
0.000217518
0.000169066
0.000157077
0.0122848
0.000141728
0.0251536
0.00016676
0.0247328
0.0247143
0.000156258
0.000156966
0.000164451
0.000138544
0.00016279
0.000142148
0.000165494
0.000148888
0.0226461
0.000144394
0.000148947
0.000136758
0.0346239
0.00013919
0.0141944
0.0121626
0.000235514
0.00712904
0.000203466
0.000263747
0.000150191
0.000170277
0.000141163
0.00640849
0.0137398
0.00969168
0.000170722
0.00217359
0.000209065
0.0183772
0.000129226
0.0161749
0.0278048
0.00493033
0.000148561
0.00281621
0.0125861
0.00468105
0.000145852
0.000177318
0.00277635
0.000133995
0.0270755
0.000150863
0.000183095
0.000150857
0.000181012
0.000127762
0.000132143
0.000129184
0.000167535
0.000146374
0.00279042
0.000147709
0.000138382
0.00996152
0.000142945
0.000164677
0.000161479
0.000144413
0.0102975
0.000168352
0.000150452
0.000142363
0.000150072
0.0167688
0.000142511
0.0001393
0.000178109
0.00588011
0.000153567
0.00019984
0.000134122
0.000199985
0.000151302
0.000150057
0.00145563
0.00018276
0.0225221
0.000147767
0.000195027
0.000153493
0.0194914
0.0158054
0.000148169
0.0296651
0.000260347
0.000138574
0.0148204
0.000163606
0.000156381
0.000183744
0.000150831
0.000141487
0.000155319
0.000195129
0.000153227
0.000187313
0.000175189
0.000196057
0.000132568
0.000199749
0.00014734
0.0217297
0.000225595
0.000142407
0.0237327
0.000141429
0.000138886
0.000451251
0.0117903
0.00600821
0.000211044
0.00633701
0.00437716
0.000143207
0.000145735
0.000196199
0.0012853
0.000151202
0.000247885
0.000150923
0.000145159
0.0299448
0.000203786
0.000210232
0.000187171
0.0337971
0.00012918
0.000215469
0.000154279
0.000176802
0.00862192
0.00323161
0.000145052
0.000151804
0.0347969
0.000155644
0.0120905
0.00225398
0.0001444
0.000226382
0.000248942
0.000137828
0.0111803
0.000154586
0.0242368
0.0173247
0.000147019
0.00020956
0.000146832
0.000142605
0.000164344
0.0288684
0.000132239
0.00015554
0.0250212
0.000145658
0.000122795
0.035568
0.000145459
0.0146675
0.000143781
0.000151964
0.000134839
0.000141066
0.000141209
0.000150869
0.000212999
0.000155009
0.000146741
0.000188791
0.0347522
0.000154168
0.00125298
0.0223743
0.00680119
0.000148202
0.000151137
0.000511401
0.000142506
0.000148159
0.0179463
0.000203925
0.000158647
0.000147438
0.000153288
0.000217055
0.000143987
0.000141232
0.0345233
0.00026093
0.000130362
0.000141261
0.00632059
0.017505
0.000147915
0.000151664
0.000365575
0.000196514
0.0191802
0.000137247
0.0199136
0.000154881
0.000153706
0.0277616
0.00104419
0.000204318
0.00533903
0.000141736
0.0107958
0.000153161
0.00511696
0.00468821
0.000145914
0.0296573
0.000150686
0.000135894
0.000168906
0.000549348
0.00828416
0.0232345
0.000144926
0.000285468
0.000216758
0.000176922
0.000150624
0.000149562
0.00014979
0.0264184
0.0376442
0.0156407
0.0234027
0.000155708
0.000202155
0.000635823
0.000157397
0.000140929
0.000156549
0.0362761
0.000175253
0.0107223
0.0105611
0.0137663
0.000158384
0.0243619
0.000174821
0.000191109
0.00383536
0.0298428
0.0124945
0.000207773
0.000144385
0.0228479
0.000136712
0.0195636
0.000136054
0.00014063
0.000148574
0.00431376
0.001081
0.0145882
0.00017059
0.0204999
0.000143878
0.000175996
0.000136415
0.000194692
0.00111219
0.0029272
0.0204229
0.0173171
0.00510376
0.00586641
0.000149246
0.0181697
0.000147425
0.0256067
0.00173081
0.000156043
0.000144587
0.000350929
0.000203645
0.000130336
0.000144056
0.0158586
0.000137192
0.00014769
0.000213777
0.00482166
0.000132773
0.000194302
0.000182871
0.00191033
0.0243667
0.00014561
0.000139128
0.00112999
0.000144252
0.000592368
0.0001749
0.0284715
0.000167345
0.000168795
0.000139473
0.000128666
0.010555
0.000173576
0.000181054
0.000154144
0.00814911
0.00023118
0.00525232
0.00740422
0.000150742
0.00398831
0.000142611
0.000167013
0.000159713
0.0258625
0.000136818
0.00013827
0.0263808
0.000203018
0.0283546
0.000157956
0.000737249
0.00963112
0.000153636
0.0129819
0.000150883
0.000341665
0.00564199
0.0232486
0.000142206
0.00919164
0.0121678
0.0333782
0.0299207
0.0353442
0.000155649
0.0164285
0.000153759
0.0066502
0.000187683
0.000161754
0.000130476
0.000195475
0.000140634
0.0042558
0.00016072
0.000149513
0.000150664
0.000213656
0.00246794
0.000142389
0.00666727
0.000191053
0.00552741
0.0282539
0.000666827
0.000150094
0.029516
0.000132445
0.00697632
0.0293476
0.0126409
0.000143822
0.00020206
0.000143408
0.0139606
0.000178553
0.00159839
0.000204074
0.0293948
0.000198359
0.0213409
0.000137361
0.0171769
0.00324133
0.000146807
0.000182877
0.0204963
0.000148317
0.000145011
0.000174068
0.0051582
0.000143316
0.000142286
0.000140587
0.00689767
0.000166144
0.000189175
0.000696077
0.000165638
0.000156304
0.000127707
0.000137016
0.000135745
0.000295576
0.0120798
0.000141323
0.000156498
0.000144771
0.000186966
0.00014973
0.00196697
0.000150167
0.0221922
0.000584887
0.000147622
0.000221143
0.000284404
0.000140974
0.000131392
0.000206717
0.0122246
0.000139255
0.00174998
0.0299196
0.0014266
0.0281114
0.0191922
0.000188298
0.000146847
0.0249688
0.000143818
0.000202133
0.000135073
0.0127849
0.000137979
0.00102927
0.000153551
0.0317597
0.000135989
0.0244482
0.000130178
0.000147588
0.000209175
0.000152488
0.000136748
0.000166021
0.0187216
0.000143996
0.0301444
0.00015266
0.0133182
0.0106077
0.0145111
0.0152907
0.000145408
0.000159225
0.0268949
0.0230317
0.00014493
0.000165302
0.000184947
0.000332286
0.000147296
0.0335076
0.000194287
0.000137491
0.0293896
0.0257325
0.000152279
0.0144254
0.000188976
0.00103575
0.033999
0.00014464
0.000141599
0.0070318
0.000142693
0.0166795
0.000154271
0.0221884
0.0263422
0.000137703
0.00021666
0.000129585
0.000207483
0.000145332
0.000165585
0.0335862
0.0001436
0.0110123
0.000151261
0.000145961
0.000259242
0.00014744
0.0328371
0.00283072
0.0161653
0.00042342
0.00110948
0.000151808
0.000141659
0.0342472
0.0337113
0.000136769
0.00192045
0.000146791
0.000131723
0.0168021
0.00827507
0.000155842
0.000140398
0.000144627
0.000134423
0.0127842
0.000144803
0.00293231
0.000167361
0.0299454
0.000195049
0.000302511
0.000141293
0.00604967
0.0111048
0.000251949
0.000148532
0.00307254
0.000128268
0.0268104
0.0339057
0.000137074
0.000192656
0.0001997
0.000166746
0.000156985
0.000161339
0.0114929
0.0212926
0.00508045
0.000142939
0.0124285
0.000148382
0.0174065
0.000189152
0.000200718
0.0184819
0.000144562
0.00528486
0.000188354
0.000155969
0.00769675
0.00585442
0.0308563
0.000199659
0.000146883
0.000207115
0.00819025
0.000168818
0.0014056
0.0315213
0.0206753
0.0101406
0.000138668
0.000134898
0.0001529
0.000155661
0.000144791
0.000144044
0.000158335
0.000149538
0.000203899
0.0164486
0.0116386
0.000155809
0.0265094
0.000193767
0.00258439
0.000152903
0.0063486
0.00019697
0.00105459
0.0280274
0.000139965
0.0111435
0.0346483
0.0001465
0.000148213
0.0242091
0.0244876
0.00577502
0.000225512
0.000141007
0.000153376
0.00208007
0.000142747
0.000164151
0.0131667
0.000136427
0.000219352
0.0122098
0.02951
0.000147865
0.00231384
0.000165516
0.000169619
0.0172051
0.000128308
0.000140642
0.00013739
0.00517454
0.027024
0.000189006
0.000146167
0.00664316
0.000149212
0.000620772
0.000307889
0.000150853
0.000137971
0.00014381
0.0338879
0.00658274
0.0367089
0.000146378
0.0374515
0.0223703
0.0005274
0.000141317
0.000389121
0.000145889
0.000136344
0.000140657
0.00632689
0.00019128
0.000653055
0.000187816
0.0344611
0.000144144
0.000147019
0.0313709
0.000164242
0.000142943
8.65487e-05
0.000160912
0.0351462
0.00623236
0.000146709
0.000136657
0.000145219
0.0338599
0.000454575
0.0170714
0.000204096
0.000194754
0.00610667
0.000787457
0.00633519
0.00467712
0.00023629
0.000145192
0.00215336
0.000137807
0.00013239
0.0002668
0.000952925
0.000140314
0.000146668
0.00253474
0.000248782
0.000156542
0.0205476
0.000148809
0.000227099
0.00014955
0.000579579
0.0163097
0.000345598
0.000138928
0.000146767
0.0312352
0.0234327
0.0323088
0.000258909
0.0307749
0.0262608
0.0291134
0.0101242
0.0195815
0.00014683
0.00485802
0.0216051
0.000215231
0.000140784
0.000152209
0.0322845
0.000147603
0.000137715
0.0219758
0.000142536
0.0260023
0.000128592
0.0182568
0.0177446
0.0145359
0.000138053
0.000144755
0.00015548
0.000129493
0.00717458
0.000152305
0.00647665
0.0103701
0.000295191
0.000188196
0.000208734
0.0122527
0.000197172
0.000144816
0.000148506
0.000447806
0.000455025
0.00497027
0.000487677
0.000170843
0.000166047
0.000128804
0.000197128
0.000147987
0.00627907
0.000210228
0.000203968
0.000145579
0.000160929
0.000201945
0.000175661
0.036201
0.0183167
0.000136934
0.000149782
0.000142236
0.0214767
0.000144426
0.0144319
0.000159314
0.0226593
0.000135058
0.0254714
0.0143401
0.00013177
0.000147073
0.000202173
0.000204386
0.000177003
0.000280118
0.000136703
0.0275565
0.0166991
0.000140012
0.0166928
0.000727939
0.000201359
0.000164565
0.0350461
0.019194
0.0272274
0.00987626
0.0154701
0.000135884
0.00398555
0.000142856
0.000134415
0.0189619
0.000442851
0.025382
0.000829546
0.00173027
6.15458e-05
0.000155098
0.000146147
0.000139048
0.0335275
0.000134762
0.000195632
0.00338388
0.0295484
0.000127948
0.00013594
0.0379667
0.000158858
0.0301504
0.000148751
0.000152076
0.000149502
0.000137236
0.000188503
0.00729087
0.00195581
0.0290192
0.000241832
0.00144279
0.00351826
0.000291297
0.0303935
0.000139357
0.000222155