/*--------------------------------*- C++ -*----------------------------------*\
| =========                 |                                                 |
| \\      /  F ield         | OpenFOAM: The Open Source CFD Toolbox           |
|  \\    /   O peration     | Version:  v2012                                 |
|   \\  /    A nd           | Website:  www.openfoam.com                      |
|    \\/     M anipulation  |                                                 |
\*---------------------------------------------------------------------------*/
FoamFile
{
    version     2.0;
    format      ascii;
    class       volScalarField;
    location    "100";
    object      nut;
}
// * * * * * * * * * * * * * * * * * * * * * * * * * * * * * * * * * * * * * //

dimensions      [0 2 -1 0 0 0 0];


internalField   nonuniform List<scalar> 
27915
(
0.00554831
0.000710413
0.00866178
0.00585754
0.00595331
0.00271304
0.00585695
0.0075234
0.00594433
0.0114274
0.00118402
0.0134954
0.00760259
0.00585589
0.00590766
0.0058207
0.000900783
0.00594768
0.00133776
0.0074703
0.00896504
0.00588641
0.00240417
0.005935
0.00582021
0.00581401
0.00417879
0.00595168
0.00142115
0.00259694
0.00587236
0.00143393
0.00583458
0.00581196
0.0112868
0.00581177
0.00601229
0.0058133
0.00117105
0.00594567
0.00575492
0.00600378
0.000357182
0.00582546
0.0110705
0.00595011
0.00584363
0.00182163
0.00599989
0.00593503
0.00860313
0.00051588
0.00865045
0.00294377
0.00251428
0.00584182
0.0058236
0.00641716
0.00629014
0.00586828
0.00103078
0.00504635
0.0109404
0.000159341
0.00588507
0.00119766
0.0130951
0.00848165
0.0112806
0.00584785
0.00426066
0.00593913
0.00594792
0.0162837
0.0114536
0.00385924
0.00280571
0.00581308
0.00235906
0.00446065
0.00313278
0.00595715
0.00193516
0.00580633
0.00636399
0.0141649
0.00580587
0.000400265
0.0105019
0.00476438
0.00595407
0.0161555
0.00593007
0.00644421
0.00126792
0.00944007
0.00216305
0.0114822
0.00508878
0.0057864
0.00221985
0.00581074
0.0115004
0.00585965
0.00496919
0.00595851
0.00964621
0.000613018
0.00581018
0.0112864
0.00938409
0.00577082
0.00614925
0.00393853
0.000653276
0.000522969
0.0090131
0.00167972
0.0058633
0.00598322
0.00595455
0.0051666
0.00583756
0.0058907
0.00597511
0.00884303
0.0123038
0.00205883
0.00589291
0.00593768
0.00506207
0.00318961
0.00613441
0.00056565
0.0149117
0.000934155
0.0134066
0.00581066
0.00594044
0.00595636
0.00487265
0.00249048
0.00601862
0.00303231
0.0106763
0.00928941
0.00139266
0.00209623
0.00455138
0.00182015
0.006955
0.00580792
0.000345565
0.00545405
0.000647908
0.0102678
0.00721908
0.0059728
0.00598028
0.00597166
0.000259646
0.000784257
0.00590824
0.0059545
0.0158071
0.0058534
0.00038289
0.00242773
0.0114554
0.00598686
0.00383411
0.00595244
0.00596266
0.00174516
0.00584062
0.000747527
0.0111773
0.00588289
0.00595752
0.000171655
0.0106158
0.00473286
0.00603696
0.00996521
0.000910966
0.00492296
0.00596028
0.00602313
0.00416625
0.00580605
0.00747205
0.000981609
0.00041267
0.00588569
0.0058256
0.00595056
0.00461321
0.00631534
0.00598268
0.00220169
0.00877658
0.00599757
0.00596894
0.00598724
0.000939248
0.00185936
0.000429983
0.00420911
0.00257272
0.00594936
0.00194748
0.0111642
0.00599157
0.00585108
0.00597678
0.00603878
0.00436487
0.000681728
0.00593834
0.00595855
0.00592937
0.00579259
0.00250977
0.00605525
0.00136521
0.00376656
0.00582745
0.0124665
0.00594739
0.00583769
0.00129648
0.00497042
0.0108174
0.00187131
0.00906676
0.00589209
0.00714157
0.00604359
0.00602308
0.00588965
0.0144297
0.00587459
0.00430108
0.00409175
0.00588865
0.00594761
0.00566513
0.00012271
0.00458035
0.000338412
0.00232838
0.0115259
0.0058569
0.00587577
0.00595955
0.00217426
0.0055667
0.0059476
0.000953667
0.00944742
0.00909624
0.000684176
0.00311764
0.00470989
0.00301483
0.000634853
0.00581624
0.0078832
0.011663
0.00940609
0.00582815
0.0020657
0.00288582
0.000113104
0.00509002
0.00581615
0.00583478
0.00588926
0.00583857
0.00590284
0.00593933
0.0057891
0.00581142
0.00511568
0.0140068
0.0112912
0.00378483
0.0145271
0.00302869
0.00930119
0.00207802
0.00594185
0.00140075
0.00593229
0.00583776
0.000716771
0.0150208
0.0122119
0.0021013
0.0058892
0.00639691
0.00558256
0.00592469
0.00596071
0.0146917
0.00305316
0.00209965
0.00594753
0.00291007
0.00579503
0.0140256
0.00591816
0.0101086
0.00594888
0.014819
0.00598012
0.00578612
0.00707922
0.0024482
0.00201838
0.0042787
0.00580178
0.00581815
0.00593695
0.00318782
0.00546702
0.000324506
0.00185294
0.00586676
0.00588251
0.00582897
0.00410339
0.00594435
0.00592671
0.0056161
0.00582798
0.000645201
0.00584477
0.00761286
0.000147719
0.00286565
0.00229561
0.00168031
0.00845119
0.00582513
0.00589701
0.00591385
0.0141868
0.0114203
0.0059424
0.00593614
0.00589197
0.00810134
0.00331865
0.00113745
0.00026595
0.00574557
0.00582588
0.0058977
0.0171957
0.00107954
0.00582028
0.00593795
0.00583293
0.00589324
0.000270693
0.00361377
0.00586036
0.00586525
0.00586095
0.00298778
0.00583331
0.000644459
0.00597147
0.0116183
0.00583937
0.0058401
0.00196588
0.00298566
0.00585979
0.002423
0.000674613
0.00483676
0.00128986
0.00679004
0.000941486
0.0157572
0.000678824
0.00595648
0.00337445
0.00587051
0.00531853
0.0116154
0.00582186
0.0112858
0.000802332
0.00340365
0.00605876
0.00596813
0.011442
0.00589911
0.00501591
0.00131622
0.00593808
0.0132888
0.00589771
0.000408205
0.00582379
0.0148979
0.000429554
0.00562274
0.00298179
0.00582125
0.00597666
0.0139002
0.0059413
0.000637015
0.0058146
0.000806798
0.00595831
0.000557304
0.00596214
0.00194199
0.00853311
0.00151243
0.00577634
0.00585787
0.00269322
0.010281
0.00593015
0.0102297
0.00579334
0.0037704
0.00212771
0.00587022
0.00588615
0.00586898
0.00602418
0.00451521
0.0010278
0.00880467
0.00199943
0.000468343
0.00045116
0.00595626
0.00598647
0.00217528
0.00593797
0.000334726
0.0058296
0.0108918
0.00623022
0.00581367
0.00605918
0.00930425
0.00880231
0.0105986
0.00588964
0.00199002
0.00138269
0.00581787
0.00607631
0.00086473
0.00580298
0.00184866
0.00425092
0.00595658
0.00582577
0.000779059
0.0150368
0.00582683
0.00207561
0.00429522
0.00590482
0.00533178
0.00452768
0.00583019
0.0058276
0.00527702
0.00238775
0.00712019
0.00352424
0.00258448
0.00778614
0.00116055
0.00590639
0.00496883
0.00414613
0.00448786
0.00587259
0.00740024
0.0183661
0.000301202
0.00581158
0.00350803
0.00118529
0.00582295
0.00848777
0.00921531
0.00275768
0.00582872
0.00582855
0.00077283
0.00182739
0.00120094
0.00212939
0.0058571
0.00579613
0.00146737
0.00835059
0.00584542
0.000454446
0.00109489
0.00221876
0.00239435
0.00247642
0.0105599
0.00586905
0.00070327
0.00214971
0.00599105
0.005813
0.00590732
0.00620326
0.00579798
0.0179112
0.00293529
0.0117197
0.00713496
0.00322301
0.00578881
0.0110113
0.00500911
0.000435886
0.00223834
0.000354271
0.0103577
0.005946
0.000936907
0.00586751
0.00586382
0.00497825
0.00587454
0.00673974
0.00592902
0.00782612
0.00590294
0.0117328
0.0058457
0.0154449
0.00586565
0.00595146
0.000940971
0.0151641
0.00542535
0.00599826
0.0130618
0.00821648
0.00247174
0.00584988
0.00212919
0.0114793
0.0006916
0.00188702
0.00587908
0.00595101
0.000974354
0.00586966
0.0100581
0.00592
0.000685776
0.00511848
0.00269088
0.00802417
0.00581889
0.0118753
0.00312092
0.0013111
0.00425995
0.00587219
0.00596674
0.000741435
0.0019863
0.0116724
0.00860707
0.00597854
0.00362005
0.00581321
0.00599988
9.48785e-05
0.00592572
0.00587611
0.0155133
0.00180298
0.00587586
0.00588727
0.00412932
0.00230931
0.0058892
0.0058048
0.00729238
0.00593258
0.00581693
0.00581626
0.00190659
0.00582728
0.00176121
0.00610534
0.00592122
0.00146927
0.0047865
0.00581707
0.000634559
0.0080601
0.00130006
0.00593519
0.00583236
0.000337401
0.00199955
0.0130091
0.00578539
0.00594885
0.00580486
0.00590666
0.00593853
0.00590284
0.00286836
0.0058726
0.00583845
0.00582845
0.00212404
0.00426533
0.00955315
0.000524916
0.00522885
0.00467954
0.00144709
0.00583293
0.00417555
0.00454425
0.00258142
0.00587337
0.00841578
0.00592093
0.0058692
0.00578463
0.00357755
0.00602749
0.00583308
0.00199725
0.00221132
0.00376015
0.000478977
0.00413955
0.011801
0.00593266
0.00571979
0.0106394
0.00320392
0.00579606
0.00560594
0.014696
0.00582167
0.00516507
0.00137004
0.00599367
0.01723
0.000577257
0.00240873
0.00394423
0.00581281
0.00594798
0.00595104
0.00585015
0.00579686
0.00593752
0.00584356
0.0120864
0.00587151
0.00137669
0.0059513
0.00363099
0.00464578
0.00593632
0.00589025
0.00137269
0.0171737
0.00587343
0.00586874
0.0059487
0.00590515
0.00105902
0.00585609
0.00585145
0.00579871
0.00581248
0.00728454
0.0106496
0.00145189
0.00593448
0.00147405
0.00486714
0.00299326
0.00598767
0.00562701
0.00594113
0.0115929
0.00476686
0.00197299
0.00200645
0.0058687
0.00594045
0.00582659
0.00181906
0.00705351
0.0101517
0.00582388
0.00578434
0.00594294
0.0112718
0.00176053
0.00591179
0.00294273
0.00583537
0.00804747
0.00125997
0.015574
0.00346831
0.00207458
0.00672927
0.00596631
0.00255291
0.00227302
0.00578627
0.00182228
0.00205373
0.00593265
0.00325314
0.0093516
0.000837784
0.00593081
0.00580709
0.0117117
0.00738243
0.00209012
0.0016061
0.00256535
0.0058209
0.0182475
0.00585995
0.00596759
0.00593243
0.00579909
0.00591856
0.00589294
0.0186755
0.00588571
0.0127715
0.00585357
0.011497
0.00592997
0.00334421
0.00596441
0.00749179
0.00593037
0.00970668
0.00212781
0.0109741
0.000389951
0.000289451
0.000305436
0.00584811
0.00111451
0.00318831
0.00584373
0.0117586
0.00580056
0.00306786
0.00668786
0.00590364
0.00586567
0.00206647
0.00585413
0.0113079
0.00578707
0.00598306
0.00214056
0.000677483
0.00594387
0.00237244
0.00318232
0.010481
0.00672032
0.00580252
0.00582563
0.00432493
0.000625438
0.0059218
0.00209288
0.00585673
0.00912579
0.000358039
0.00307504
0.00595288
0.00580488
0.00590253
0.00393926
0.00584504
0.00575718
0.00232037
0.00592742
0.00590838
0.00290793
0.00252219
0.00582846
0.0059116
0.00860413
0.00150676
0.0114017
0.0010032
0.00585844
0.00364694
0.00118889
0.00290991
0.00584541
0.00226692
0.000829177
0.00556235
0.00584742
0.00283313
0.00235952
0.00573862
0.0058959
0.0106488
0.00241282
0.00591452
0.00584501
0.0155848
0.00571604
0.00128548
0.00389344
0.00593325
0.00765838
0.002406
0.00673173
0.00302832
0.00292687
0.00594559
0.00589891
0.0058048
0.00155578
0.00981702
0.00579659
0.00590191
0.00596172
0.00440227
0.00212269
0.00581784
0.000643877
0.00579687
0.00339724
0.00583877
0.00584955
0.00592475
0.002044
0.00278175
0.00585672
0.00344077
0.00217284
0.00167685
0.00166455
0.00310271
0.00581496
0.00583791
0.00589713
0.00242363
0.00121293
0.00582711
0.00587889
0.0057272
0.0126531
0.00528812
0.00183702
0.00585973
0.00107325
0.00472461
0.00598845
0.00593624
0.00125583
0.00830457
0.0117359
0.0024036
0.00193635
0.0115599
0.00137008
0.00273217
0.00583606
0.006118
0.00294209
0.00609107
0.00235108
0.000217528
0.00138859
0.00591848
0.00108284
0.000645269
0.00598318
0.00583581
0.00581986
0.017973
0.0059728
0.0064241
0.00589589
0.00366005
0.00101224
0.0059444
0.00585019
0.0116131
0.00563741
0.000730632
0.00582584
0.00591698
0.0040559
0.0055376
0.00332242
0.00592753
0.00583708
0.00594252
0.00360188
0.00596812
0.00955316
0.00596391
0.00592846
0.00593617
0.00217099
0.00836694
0.00199926
0.00287496
0.00915349
0.00239292
0.00576663
0.0059893
0.00110383
0.00591661
0.0025212
0.00583426
0.00464438
0.00593472
0.00594039
0.00595877
0.00591306
0.00584715
0.00334263
0.00582691
0.00578589
0.011656
0.00978994
0.00592199
0.00508342
0.00593523
0.00263509
0.00584392
0.0159356
0.00311297
0.0020135
0.00579857
0.00599087
0.00578821
0.00581696
0.00373469
0.000485929
0.00581804
0.00825181
0.00610952
0.0142783
0.00197333
0.00591206
0.00257165
0.00537541
0.00219071
0.00594111
0.00303655
0.00582808
0.00590134
0.00948445
0.00265791
0.00223293
0.0113944
0.011331
0.00530599
0.00908249
0.00553995
0.00586956
0.00868835
0.00429236
0.00918944
0.00494132
0.00228944
0.00509863
0.00382693
0.000875605
0.00494372
0.0113244
0.0063634
0.00594419
0.00207008
0.0022992
0.000886237
0.000345709
0.00590301
0.00594453
0.00592664
0.00327605
0.00582633
0.00591742
0.00291742
0.00327352
0.00602
0.0015088
0.00590674
0.00124794
0.00585323
0.0170706
0.000476608
0.00045623
0.00590729
0.00047649
0.00243321
0.00233497
0.00593368
0.0059677
0.0059239
0.00587042
0.00173171
0.0021822
0.00651488
0.000811959
0.00174205
0.00585008
0.0129237
0.0176908
0.00579951
0.00589158
0.015168
0.00585901
0.00311179
0.0025494
0.00216604
0.00587634
0.00625603
0.00467201
0.00242508
0.0020772
0.00982796
0.00595106
0.00591792
0.00581251
0.00201673
0.00328253
0.0058625
0.00278474
0.00582998
0.00578579
0.00586687
0.00583699
0.00407133
0.0058648
0.00595948
0.00588972
0.00580153
0.00604976
0.00579867
0.00118225
0.00205757
0.000301457
0.00434671
0.0110824
0.0115707
0.00273342
0.000441566
0.00319985
0.00134197
0.000903689
0.00198632
0.0059019
0.00214045
0.00497823
0.0130267
0.00351124
0.00190061
0.000263963
0.00593152
0.0123857
0.00162401
0.0076928
0.00273908
0.00599871
0.00594621
0.0104516
0.0060379
0.000767264
0.00269619
0.00578326
0.000746284
0.00482019
0.00346032
0.0058466
0.0059105
0.00078129
0.00848272
0.00382116
0.0057902
0.0139655
0.00568398
0.00592117
0.00590549
0.00518808
0.00588067
0.00286455
0.00580365
0.0030332
0.00259791
0.00260033
0.00315049
0.00845659
0.00580337
0.0125192
0.00592215
0.00589721
0.00587262
0.0118259
0.0059122
0.00591841
0.00247502
0.00594346
0.0104736
0.0102448
0.00582959
0.00592224
0.00600082
0.000642034
0.00581763
0.00543444
0.00581266
0.000719413
0.00597078
0.00588511
0.00583609
0.01141
0.00480153
0.0140197
0.0110874
0.00914128
0.0058278
0.00494679
0.00535114
0.00104534
0.00558113
0.00407588
0.00583544
0.00619201
0.00596019
0.00581222
0.0056613
0.00401544
0.00177457
0.0151957
0.00601601
0.00859353
0.00347808
0.0115269
0.0127615
0.00601109
0.000512188
0.0143481
0.00590347
0.0022019
0.00406696
0.0058495
0.00402821
0.0101503
0.000783437
0.00628354
0.0059471
0.00363408
0.0059117
0.0180891
0.00386844
0.00333505
0.0083324
0.000878386
0.00559358
0.0114744
0.00150338
0.00541145
0.00514331
0.00136904
0.00584484
0.00583832
0.0148383
0.00506518
0.00582213
0.00586941
0.00599819
0.00593921
0.00535173
0.00588652
0.00197287
0.012565
0.00593799
0.0059055
0.00594163
0.0057895
0.00621792
0.00200009
0.00358926
0.00581436
0.00584908
0.00232672
0.0127142
0.00458407
0.00101555
0.00204007
0.00584894
0.00584249
0.0178811
0.00589033
0.00319927
0.0056687
0.0012724
0.00410793
0.00554258
0.00593174
0.00598027
0.0010678
0.00598367
0.00582322
0.00161217
0.000258961
0.00598921
0.0059118
0.0059599
0.0058727
0.00712267
0.0013021
0.00433221
0.00744872
0.00581645
0.0018945
0.0142895
0.00706636
0.00592983
0.00584786
0.00578699
0.0058234
0.00598516
0.0087897
0.00588226
0.00584408
0.00380796
0.00591798
0.00686443
0.00582161
0.0059383
0.00605133
0.000493892
0.010901
0.00596071
0.000285395
0.000945082
0.00592336
0.00206643
0.00369061
0.0115382
0.00590262
0.00591171
0.00516945
0.00905988
0.0117689
0.00263644
0.0025622
0.00589471
0.00805563
0.00048839
0.00197914
0.00593637
0.00583822
0.00582596
0.0145955
0.00606743
0.000557165
0.00227348
0.00442081
0.00588096
0.0126263
0.00583623
0.00582849
0.00606442
0.0082551
0.00594593
0.0047886
0.00595904
0.00439371
0.0058078
0.0175058
0.00592935
0.00140866
0.0111181
0.00587272
0.00592298
0.000538662
0.0114152
0.0179058
0.000503125
0.00596678
0.00420535
0.00582563
0.00109473
0.005894
0.00591514
0.00253763
0.00172599
0.00747584
0.00873701
0.00475333
0.00590819
0.00598558
0.00361195
0.00587208
0.000839727
0.00913351
0.00394923
0.00117707
0.00582645
0.00986556
0.00597458
0.00390978
0.00570902
0.000646692
0.00589536
0.00584208
0.00451824
0.00593317
0.00126132
0.00199248
0.00284378
0.00582614
0.000782991
0.00600809
0.00597315
0.00067739
0.003047
0.00202016
0.00534683
0.00588361
0.0101667
0.0028262
0.0057857
0.0059598
0.0059166
0.00440293
0.0036714
0.00091558
0.00100952
0.00246928
0.00523446
0.00586816
0.00592584
0.00595498
0.0103546
0.00056023
0.0058767
0.00108023
0.00579975
0.0024495
0.00596786
0.00582644
0.0178297
0.00600177
0.00521254
0.00581961
0.00584674
0.00590512
0.00585407
0.000874285
0.00584367
0.0104208
0.0020836
0.0058955
0.00612857
0.00501658
0.00258475
0.00584949
0.00157675
0.00608666
0.00389017
0.0057758
0.0101602
0.00263407
0.00585173
0.0112504
0.0136577
0.00597543
0.00201339
0.00112741
0.00218351
0.00170616
0.005856
0.00592085
0.00134313
0.0059277
0.00108811
0.000422436
0.000509296
0.00885366
0.00587491
0.0127233
0.0117086
0.00588626
0.00830893
0.00382453
0.0112983
0.000798767
0.0101683
0.00589418
0.0153968
0.00216952
0.00257472
0.00227944
0.00135691
0.0177994
0.00585107
0.00536073
0.00358949
0.00115048
0.0020532
0.0185325
0.00581658
0.00556013
0.00586785
0.00591426
0.00588216
0.00208195
0.00561539
0.00595856
0.00593665
0.0058614
0.00372179
0.0058956
0.00182309
0.00584377
0.0151867
0.00592083
0.00578596
0.00652937
0.0059484
0.000724543
0.000351775
0.00586941
0.00747822
0.000601317
0.0108599
0.00200824
0.0155055
0.00588233
0.00425179
0.00581398
0.00362313
0.00303219
0.000889735
0.0155407
0.00599391
0.00581568
0.0035584
0.00589647
0.00787856
0.0058483
0.00588389
0.00584942
0.00375427
0.00385768
0.00552756
0.00592402
0.0059287
0.0110529
0.00580282
0.00324805
0.0179215
0.00448543
0.00029664
0.00198928
0.0022222
0.0114475
0.00591839
0.00671876
0.00104241
0.00588814
0.00210807
0.00263354
0.00587368
0.00586752
0.00596036
0.00601012
0.00165157
0.0132554
0.00127515
0.00583873
0.00591599
0.00595025
0.00585859
0.00595683
0.00474748
0.000603009
0.00587401
0.00586489
0.00018231
0.00885597
0.000365271
0.0071812
0.000515505
0.00584701
0.000818983
0.0106427
0.0104835
0.0173766
0.0059571
0.000415902
0.00267712
0.00599503
0.00629235
0.0012157
0.00580869
0.0107747
0.00598866
0.00583831
0.0182512
0.00587205
0.000605291
0.00994919
0.00591105
0.00714956
0.00539257
0.00577266
0.00892884
0.0101996
0.00585008
0.00582828
0.0058487
0.00592558
0.00311914
0.00133137
0.00586883
0.00586014
0.00239874
0.00889953
0.00374655
0.00118932
0.0058974
0.0161936
0.00462844
0.0116785
0.00596551
0.00585117
0.00595633
0.00598033
0.00197518
0.0037921
0.00580649
0.000732015
0.0180943
0.00588942
0.005853
0.00191756
0.00592719
0.00842926
0.00060976
0.0032583
0.00601471
0.00583086
0.00595983
0.00586555
0.00583657
0.00595641
0.00592194
0.0176424
0.00584716
0.00424788
0.00588013
0.0120395
0.00504166
0.00555326
0.0051847
0.00926847
0.0174851
0.0141517
0.000511858
0.00156516
0.0204235
0.00203216
0.00438852
0.00579779
0.000532292
0.0103856
0.00638929
0.00581243
0.0178766
0.00584689
0.000373357
0.0107034
0.000827507
0.00591293
0.00591957
0.00594855
0.00588091
0.00566701
0.00243095
0.00591582
0.0102365
0.000389903
0.0113764
0.00581279
0.000388481
0.00149437
0.00549035
0.00205015
0.0118873
0.000269572
0.00592907
0.000400486
0.00553091
0.00962971
0.00588956
0.00583777
0.00596958
0.0110552
0.0179114
0.0059669
0.00595481
0.00589284
0.00583615
0.00326722
0.0153389
0.00122569
0.00528565
0.0058493
0.00835523
0.00780559
0.00340228
0.00317013
0.00060479
0.00375255
0.012909
0.0059228
0.0131522
0.00745385
0.00261085
0.00584417
0.0135416
0.00578167
0.0116528
0.00503176
0.00595993
0.00584925
0.00390416
0.00595828
0.00583911
0.00367586
0.000423971
0.00589969
0.00583192
0.00598324
0.00584934
0.00586453
0.00209273
0.00603486
0.011837
0.00588365
0.00129255
0.00585299
0.00378186
0.00783885
0.00556814
0.00588373
0.00582043
0.00178364
0.0011266
0.00171414
0.00894096
0.00693007
0.00170964
0.00924424
0.00334475
0.0197277
0.00282009
0.00287649
0.00583878
0.00596622
0.0169458
0.00589518
0.00601105
0.00590319
0.00597547
0.00582793
0.00589695
0.00595582
0.00589175
0.00775281
0.00583488
0.00595632
0.00591824
0.00349654
0.0156426
0.0058001
0.00128877
0.00460384
0.00573619
0.0127074
0.00582813
0.00357661
0.00590579
0.00219505
0.00587503
0.00575664
0.00161219
0.000479014
0.0060175
0.00590155
0.0146032
0.00594321
0.000413406
0.00590854
0.000945915
0.0127898
0.00170831
0.00578329
0.00212965
0.00594929
0.016079
0.00130884
0.00493032
0.00377177
0.0111129
0.0125516
0.00730088
0.00583086
0.0059299
0.00594813
0.00426404
0.00599123
0.00739961
0.000793622
0.00531489
0.0099083
0.00742743
0.00586874
0.00589716
0.000813216
0.00131299
0.014267
0.0058681
0.000973293
0.00584488
0.000371215
0.00524676
0.00256243
0.00572509
0.00869669
0.00591034
0.00839857
0.00611862
0.00483386
0.00676637
0.000394279
0.00275644
0.00413151
0.00592413
0.00610149
0.00597083
0.00442599
0.0059601
0.0064579
0.00587321
0.00595804
0.00590478
0.0119448
0.00584765
0.0037012
0.0106183
0.00204742
0.00249066
0.000942663
0.000952821
0.00587422
0.00553742
0.00584783
0.00238411
0.0122144
0.00632294
0.000253476
0.00744091
0.000410757
0.00583693
0.00579212
0.00524733
0.00507707
0.00726989
0.00593685
0.00659604
0.00110405
0.0125186
0.00590053
0.00235957
0.00659568
0.00581798
0.0077941
0.0059135
0.00138677
0.00595737
0.00152825
0.00578401
0.0058095
0.00579108
0.00180399
0.00592029
0.00837248
0.00593388
0.0058848
0.0161183
0.0058512
0.00250292
0.00494768
0.00594864
0.000952474
0.0026674
0.00584555
0.00585964
0.0043442
0.00339074
0.00584644
0.00584891
0.002274
0.000860105
0.00340869
0.000582093
0.00581841
0.000553616
0.0058759
0.00600156
0.000897964
0.00320843
0.0065557
0.00593411
0.00177421
0.0028796
0.00437638
0.0021417
0.00596938
0.0134039
0.00656651
0.00588739
0.00174716
0.002191
0.00606547
0.00275868
0.0058527
0.00584214
0.00345425
0.00094299
0.00360318
0.000750473
0.00123306
0.000945887
0.0058
0.000447771
0.00587957
0.00684781
0.00303019
0.0058447
0.00464675
0.00584091
0.00582977
0.00204605
0.000992101
0.0153859
0.00129077
0.0160289
0.00695038
0.0059065
0.00589773
0.00170717
0.0007701
0.00589375
0.00358969
0.00582608
0.00594125
0.0117872
0.00505548
0.00425372
0.000843275
0.0114591
0.00580227
0.00488206
0.00579784
0.000201714
0.012045
0.00746124
0.00591398
0.00588114
0.0115549
0.00371813
0.00133655
0.00593109
0.00585592
0.00276876
0.00643118
0.00591942
0.00156373
0.00356006
0.0132272
0.00380047
0.00594369
0.00498371
0.00595487
0.00582359
0.00248352
0.00864963
0.00580282
0.00601938
0.00692796
0.00589631
0.000226031
0.0117207
0.00589215
0.00232502
0.00590136
0.00586395
0.00580775
0.00582586
0.000198829
0.00588709
0.000657014
0.00601949
0.00597066
0.00146632
0.0118004
0.00582376
0.00101007
0.00355793
0.0176253
0.00587043
0.00520159
0.00340503
0.00591448
0.00594661
0.00388323
0.000357373
0.00226503
0.00587866
0.00600925
0.00088883
0.00582953
0.00594387
0.0119419
0.00359947
0.00581237
0.00582914
0.011755
0.00530972
0.00596136
0.00599021
0.00352105
0.00164642
0.00604879
0.005813
0.00253303
0.00581806
0.00579908
0.00823097
0.0047307
0.000462565
0.00249591
0.00586491
0.000868735
0.00375629
0.0177041
0.0101297
0.0059718
0.0103686
0.00585688
0.00583033
0.00557937
0.000559401
0.00916881
0.00360396
0.0059138
0.00330435
0.00472898
0.00557223
0.00592009
0.00584472
0.00583733
0.00759709
0.0114849
0.00432908
0.00693321
0.0035263
0.00553421
0.00214306
0.00254716
0.00582466
0.00574913
0.0116425
0.00570035
0.00756883
0.00978727
0.00507375
0.00551583
0.00367642
0.00243753
0.00197144
0.00223204
0.00620852
0.0113844
0.000623274
0.0058654
0.00627062
0.00581087
0.00795879
0.0058974
0.00587146
0.00585785
0.00949411
0.00179345
0.00180256
0.00192519
0.00529849
0.00586309
0.00121373
0.00583619
0.00186549
0.00273509
0.00301334
0.00388349
0.00534498
0.000179765
0.0125887
0.00595811
0.00382965
0.0059435
0.0077524
0.00558483
0.00569016
0.00589412
0.000462468
0.00038236
0.00581195
0.00586635
0.00223259
0.00581216
0.00595562
0.00064665
0.00739822
0.00581951
0.000889556
0.00143739
0.00598094
0.00512057
0.00594021
0.00590547
0.00430496
0.00586291
0.00100806
0.0013251
0.00547514
0.00285865
0.00164889
0.00591292
0.00578642
0.00999305
0.00170998
0.00155457
0.00579258
0.000492653
0.000941206
0.00904379
0.0180064
0.00592809
0.0113399
0.00587329
0.00198841
0.00521486
0.013255
0.00585729
0.00592303
0.00822618
0.00116233
0.00849412
0.00554284
0.00150945
0.00915486
0.00304634
0.00172459
0.00583578
0.00458447
0.0153731
0.00493772
0.00596075
0.0135358
0.0107752
0.00906145
0.00422257
0.007662
0.00571424
0.0025018
0.000308475
0.0166082
0.000790905
0.00451068
0.00584998
0.000834115
0.00583009
0.00789496
0.00528487
0.0059405
0.00590572
0.000316348
0.00783165
0.005896
0.0178273
0.00208509
0.00813044
0.00555191
0.00155775
0.00582592
0.00473809
0.00579902
0.017568
0.00900269
0.00331091
0.00584876
0.00131183
0.0058397
0.00363327
0.00525835
0.00697934
0.00558075
0.00646641
0.000447675
0.00972201
0.00585022
0.0156912
0.00857068
0.00593864
0.00186976
0.00933554
0.00587231
0.00594096
0.00246653
0.0176075
0.00583818
0.00585857
0.00584685
0.0181547
0.00191269
0.0021257
0.00226064
0.0042032
0.00584076
0.00578313
0.00591726
0.00591249
0.00373935
0.0031311
0.00583987
0.00286906
0.00588196
0.00201907
0.00595375
0.00414107
0.00588534
0.00887258
0.000486728
0.00595776
0.000377419
0.00425311
0.00597343
0.00587278
0.00135997
0.0111964
0.00587051
0.00698448
0.0124502
0.00278866
0.00880835
0.00440372
0.000768494
0.00595513
0.012733
0.00594794
0.00145438
0.00587952
0.0011004
0.00591857
0.00227713
0.00311343
0.00571229
0.00589985
0.00298654
0.0058313
0.0059585
0.000657222
0.00405247
0.00586929
0.00194008
0.00409886
0.0059489
0.00506444
0.00372453
0.0013949
0.00933322
0.00176694
0.00384118
0.0058801
0.00223297
0.00866237
0.00723449
0.005913
0.0044917
0.00321256
0.00412285
0.00592708
0.0153902
0.000848801
0.00591398
0.0134365
0.010212
0.00585245
0.00223239
0.000671626
0.00434136
0.00655539
0.00593326
0.00588386
0.0181947
0.00585424
0.00273163
0.00585221
0.00620122
0.0138767
0.00591786
0.000453415
0.00581266
0.000864163
0.0059046
0.00194461
0.0118434
0.00597611
0.00704774
0.00401583
0.0059547
0.0024688
0.00593446
0.0104391
0.00842974
0.00398971
0.00102331
0.00372498
0.00599739
0.00587526
0.0119841
0.0116125
0.00581168
0.00783203
0.00592405
0.00587822
0.0050448
0.0198891
0.00606459
0.00588496
0.00592449
0.00581899
0.00164746
0.00589531
0.00791675
0.00323755
0.00528013
0.000888449
0.0018789
0.0058398
0.0148109
0.00107377
0.00468915
0.00585169
0.00686829
0.00578521
0.00900505
0.00980797
0.00591619
0.00090957
0.00542828
0.00186392
0.00561857
0.00449859
0.000884937
0.00947296
0.00757146
0.00582796
0.00142476
0.00596158
0.00292346
0.00212031
0.000616086
0.00529034
0.00594877
0.0143876
0.00218517
0.00439286
0.00102124
0.00392022
0.00956107
0.000398973
0.00595554
0.0010256
0.0187374
0.00272331
0.00521074
0.0113924
0.0054116
0.0139907
0.00590675
0.00580648
0.00371962
0.00577501
0.00587994
0.00594091
0.00230474
0.00595499
0.00578624
0.011675
0.010425
0.0060673
0.00715955
0.00566164
0.0013407
0.00588478
0.00471595
0.000457549
0.00157743
0.00876469
0.0058265
0.00530181
0.0118633
0.00592291
0.0059757
0.00808035
0.00767891
0.0143256
0.000740886
0.00582571
0.00581898
0.00761364
0.0058785
0.00212619
0.00844096
0.00590509
0.00188017
0.0112837
0.0134431
0.00595972
0.00730942
0.00356369
0.00157877
0.00407826
0.00578564
0.00582852
0.0059225
0.0179983
0.00884085
0.000291178
0.00589592
0.0177339
0.00523847
0.00496191
0.000776858
0.00592553
0.00591271
0.00590187
0.0109594
0.0178259
0.0115343
0.00587971
0.0116149
0.00267259
0.00507767
0.00582944
0.00508765
0.00595593
0.00590183
0.00582714
0.00100653
0.000586888
0.00173649
0.00569102
0.0164203
0.000268705
0.00586316
0.0111883
0.00470247
0.00582846
0.000379598
0.00334094
0.0118221
0.0171228
0.00587676
0.00585321
0.0058774
0.0118594
0.00215832
0.0159776
0.000602809
0.000684226
0.00290736
0.00278586
0.0130594
0.00939484
0.00364237
0.00589367
0.00510656
0.00591889
0.00579778
0.00152498
0.00175978
0.00592443
0.0059551
0.00603718
0.00403846
0.00608801
0.00695407
0.00596189
0.00571423
0.00590777
0.00234484
0.00919471
0.0037008
0.00583011
0.00588031
0.00972465
0.00848661
0.011435
0.00380034
0.0137093
0.0103105
0.0134341
0.0201485
0.0065641
0.00587576
0.00919539
0.00967634
0.00479413
0.00584943
0.00590245
0.011298
0.00593724
0.00591613
0.00612011
0.00594743
0.00927075
0.00578824
0.00267763
0.00267991
0.00251515
0.00592076
0.00594788
0.000395916
0.00582379
0.0183187
0.00507102
0.0114087
0.00992015
0.00400955
0.00094321
0.00236819
0.000770236
0.00136711
0.00591251
0.00598157
0.00368019
0.00209188
0.0136017
0.000429312
0.00209936
0.00203605
0.00578681
0.000593342
0.00589081
0.01636
0.00579792
0.00132402
0.00589259
0.00525657
0.00139727
0.00152228
0.011572
0.00273254
0.00583789
0.00594348
0.00588274
0.00707797
0.00594317
0.0122868
0.00583856
0.0105559
0.00581825
0.0113216
0.00198253
0.00579688
0.00603352
0.000812009
0.000639289
0.00233124
0.0048506
0.00581779
0.00743882
0.00268011
0.00582424
0.00273955
0.00221499
0.000642191
0.00419345
0.0118826
0.00549041
0.00493268
0.0200978
0.00254536
0.00589586
0.00967848
0.00593149
0.00581179
0.00346752
0.00539313
0.0100098
0.00527846
0.00658114
2.40076e-05
0.00569664
0.00590275
0.00585176
0.0117055
0.00580487
0.000682754
0.0072919
0.00914871
0.00578809
0.00580871
0.0111086
0.00218343
0.0107976
0.00593615
0.00588965
0.00593164
0.00591062
0.000704932
0.0125895
0.00593714
0.0129606
0.00645874
0.00591707
0.0111606
0.00545819
0.0149475
0.00582185
0.000368401
0.00601746
0.005854
0.00609257
0.000363293
0.0107445
0.00178254
0.00300423
0.00218266
0.00581154
0.00204066
0.0173501
0.00582477
0.004302
0.00520094
0.00583126
0.00590146
0.00551614
0.00229103
0.00584882
0.0118259
0.00659903
0.0114288
0.00579844
0.000945223
0.00644403
0.0183528
0.0129135
0.00578541
0.00970179
0.00062127
0.00674603
0.00911835
0.00575195
0.00361335
0.00642355
0.0142764
0.000557384
0.00595696
0.00150825
0.000656519
0.00946881
0.00130157
0.00592073
0.00605445
0.00591536
0.00594414
0.00594165
0.00582556
0.00592518
0.0101701
0.0058836
0.00156358
0.00591826
0.00581261
0.00591905
0.00142856
0.00581631
0.00464167
0.00754786
0.00901933
0.00590156
0.00657032
0.000930201
0.00919122
0.00931984
0.00258655
0.00251932
0.00587873
0.00716365
0.00837288
0.0122523
0.00579671
0.00130991
0.00432394
0.00590616
0.00585645
0.00213776
0.00598302
0.00581793
0.00772691
0.00305625
0.00403618
0.00234238
0.0136879
0.00590485
0.00751034
0.000876311
0.000898988
0.00588658
0.00594629
0.00930342
0.00277317
0.00580813
0.00389437
0.00213997
0.0136103
0.00088775
0.00594577
0.0167368
0.0011271
0.00373819
0.00299674
0.0112155
0.00219695
0.00594151
0.00421044
0.00589548
0.00594035
0.0148499
0.00118939
0.00153647
0.0158567
0.0157515
0.00593987