/*--------------------------------*- C++ -*----------------------------------*\
| =========                 |                                                 |
| \\      /  F ield         | OpenFOAM: The Open Source CFD Toolbox           |
|  \\    /   O peration     | Version:  v2012                                 |
|   \\  /    A nd           | Website:  www.openfoam.com                      |
|    \\/     M anipulation  |                                                 |
\*---------------------------------------------------------------------------*/
FoamFile
{
    version     2.0;
    format      ascii;
    class       volScalarField;
    location    "100";
    object      omega_0;
}
// * * * * * * * * * * * * * * * * * * * * * * * * * * * * * * * * * * * * * //

dimensions      [0 0 -1 0 0 0 0];


internalField   nonuniform List<scalar> 
27915
(
0.0284554
0.0969805
3.09346
0.0237366
0.0244311
0.0316416
0.0226324
3.2113
0.0243085
3.36647
0.0456225
2.39857
0.199052
0.0226224
0.0232775
0.0238724
0.291311
0.0247489
0.153904
3.23847
0.353874
0.0259042
1.05522
0.024645
0.0238762
0.0234651
2.08328
0.0244108
8.84979
0.0282169
0.0244952
0.042971
0.0232531
0.0232768
2.81371
0.0232837
0.0249892
0.0234679
0.072069
0.0244886
0.0269992
0.0249613
0.387075
0.0240311
1.41358
0.0245127
0.0242392
0.0395142
0.0245421
0.0238767
3.02446
0.141729
3.55557
0.0282484
0.028944
0.0242396
0.0244883
0.272476
0.303194
0.0244848
0.30145
0.0322489
1.43798
30.1917
0.0246826
0.0778077
2.47177
3.05799
2.82657
0.0245382
0.055114
0.0246665
0.024758
0.615373
3.28751
0.209527
0.0280522
0.0230077
8.65253
0.116228
0.0313043
0.0247458
0.0345567
3.67398
2.93159
0.732675
0.0232321
0.442913
3.70837
0.0735167
0.0249382
0.604743
0.023847
2.18245
9.5645
3.00039
0.100805
3.27003
0.0319309
0.0222432
0.0320788
0.0234543
3.23787
0.0256681
0.029263
0.0247356
2.40129
0.118173
0.0234567
2.9828
2.63854
0.0268863
0.308757
0.159045
0.11237
0.140065
2.45529
0.0418835
0.0256443
0.0246083
0.0248949
0.281436
0.0232682
0.0258803
0.024294
1.50664
1.93865
7.30992
0.0244906
0.0240316
0.0321971
2.01853
2.17254
0.734746
2.05691
0.0756485
1.74859
0.023222
0.0240666
0.0248081
0.0274365
0.0290556
0.0253505
2.47849
2.64516
2.94981
9.18634
0.0384854
0.195359
0.0348271
2.4295
0.0232028
0.217461
3.46504
0.248067
2.83399
2.81417
0.0236299
0.0241219
0.025213
0.201163
14.4634
0.0236669
0.0448044
0.509164
0.024648
0.215953
1.31728
3.34407
0.0251156
0.0326583
0.0248118
0.0243486
0.0405414
0.0225714
12.6823
2.96923
0.0254023
0.0235061
36.2108
3.80313
0.0580392
0.0254301
2.88771
0.0751535
0.434456
0.0237581
0.0240771
4.49876
0.0232221
3.26074
0.0527106
0.305495
0.025389
0.0222202
0.0245788
0.371445
0.0524215
0.0248794
0.032829
3.41688
2.41799
0.0234672
0.0245245
11.805
7.72816
0.0973023
0.0664094
4.45535
0.0243429
0.034011
1.69209
0.0247539
0.0246684
0.0244233
0.0259385
0.0607147
0.24056
0.0240593
0.0246778
0.024596
0.0258827
0.0292029
0.0243898
8.85557
0.122703
0.0240629
1.10837
0.0241115
0.0231842
9.81415
0.0388365
1.67888
1.09599
0.383075
0.0262227
1.53945
0.0259922
0.02552
0.0236069
1.10433
0.0260022
0.0491582
2.30393
0.0244729
0.0235133
3.42829
29.5291
0.0297728
0.27878
0.0287837
2.81302
0.0223269
0.0245105
0.0246699
0.0983613
0.0283289
0.0241733
0.0524626
2.38424
3.19301
0.109834
0.191568
0.612649
0.221191
0.394267
0.0237322
3.26024
2.8192
2.55759
0.0254881
6.85663
5.62656
28.5903
0.0295025
0.0237371
0.0259422
0.025873
0.0235228
0.0257555
0.0240313
0.0222889
0.0229939
0.0353519
0.716247
2.95836
4.64227
1.08231
0.0282741
3.31151
0.223285
0.0247029
9.20803
0.02469
0.0259309
0.103385
0.739073
1.61055
0.038082
0.024873
1.95828
0.0356801
0.0238751
0.0250216
0.733658
6.05024
0.0331922
0.0236148
6.94617
0.0259681
1.08879
0.0248467
2.88608
0.0241588
1.09041
0.0246596
0.0222512
3.31991
6.72967
7.72521
0.0548537
0.0221588
0.023761
0.0246183
0.0808949
0.0363301
0.808876
7.44003
0.0243528
0.0233963
0.0241111
0.0613486
0.0246688
0.0238921
1.23854
0.0225081
0.198219
0.0235236
1.56191
26.4816
0.028159
5.99059
8.40136
4.01787
0.0225008
0.0241709
0.0248346
1.9473
2.97237
0.0246919
0.0246007
0.0236267
1.4711
0.0701639
0.0484646
0.723092
0.0350178
0.0242438
0.0236059
0.538813
0.0627111
0.0256129
0.0252844
0.0228672
0.0238069
12.4557
0.0333365
0.0236055
0.0244609
0.0237908
5.43992
0.0225369
0.0845878
0.0249523
2.85303
0.0225604
0.0231834
0.0971329
0.0351039
0.022327
0.0341333
0.156886
0.0339182
0.408943
2.83844
0.0525516
0.694573
0.156871
0.0248556
2.52156
0.0246849
4.78664
2.96199
0.0237769
3.45727
0.0911061
0.03244
0.0261307
0.0238888
3.40677
0.0236176
0.0325336
9.04435
0.0250625
2.27445
0.0261318
0.154413
0.0244887
2.07617
0.0995988
3.76486
0.0369283
0.0237823
0.0234507
2.42806
0.0246477
0.0947637
0.0258081
0.0869247
0.0267079
0.206704
0.0240751
0.0314953
3.19522
8.15783
0.0265836
0.0236048
6.03859
3.18265
0.0243311
2.94157
0.0262063
0.0753286
0.0324967
0.0236746
0.0236111
0.0243783
0.0257516
0.138261
0.134873
2.53022
0.0827424
0.104412
0.0954798
0.0238112
0.0259271
6.57437
0.0250282
0.549365
0.0222397
1.68621
2.7962
0.0236675
0.0259309
2.65914
0.354416
2.8048
0.0239442
0.0353645
8.96892
0.0237544
0.0274104
0.302837
0.0265684
7.61208
3.29986
0.0246061
0.0240613
0.229095
0.398416
0.0240307
0.0313377
0.166669
0.0236153
0.0600504
0.0317595
0.0240448
0.0240913
0.0408315
0.0400279
0.483278
0.0375831
5.73506
0.544987
8.98986
0.0257349
0.0331055
0.1233
0.0702247
0.0233737
0.481812
0.288084
0.217213
0.025775
5.01697
0.0439163
0.0266034
2.65242
3.00789
5.7631
0.0241027
0.0256144
12.5046
0.679226
10.0645
6.78898
0.0237279
0.0261265
9.47853
0.981949
0.0239388
0.0917564
0.12824
6.5923
6.83183
2.81413
2.83472
0.0236492
0.0842907
0.0345042
0.0242615
0.0236611
0.0236554
4.21022
0.022144
0.574637
0.0280272
2.88423
0.239908
5.22465
0.0222958
3.7361
4.42586
0.117832
0.0370764
0.372447
2.93446
0.0241576
0.082642
0.0243697
0.024452
0.0613518
0.0246935
0.170247
0.0243347
1.5508
0.023609
2.90548
0.0235527
0.70564
0.0244712
0.0251278
0.0568391
1.08153
0.0391691
0.0330804
0.699612
3.33446
0.323911
0.0240163
7.33543
3.3126
0.113665
0.0345428
0.0247356
0.0251338
11.3137
0.0236454
2.92729
0.0248897
0.099089
4.42878
0.038895
3.29508
0.0231969
0.438452
5.05829
1.71375
0.427734
0.023369
0.0238134
0.0914182
0.0398523
2.89154
0.66123
0.0250324
4.91483
0.023294
0.0242786
30.4941
0.0234266
0.0247167
1.86158
0.0408927
3.05202
0.0234055
5.03055
0.107389
0.0236329
0.0232131
2.81498
0.0246103
0.0236923
0.0232155
0.343679
0.0240825
2.60665
0.0275555
0.0249062
9.20026
0.354746
0.0236995
1.51109
4.1389
9.64075
0.0246602
0.0241259
11.6761
0.0321054
0.452726
0.0222235
0.0252493
0.0232153
0.0231503
0.0246477
0.024657
0.030963
0.0269176
0.0235332
0.0228391
0.222233
2.62188
3.14281
0.0929777
4.30397
5.46538
9.12648
0.024135
0.440122
0.217924
0.140666
0.0246956
0.985695
0.0248886
0.0236672
0.0221108
3.20807
0.0258624
0.0225306
0.0371183
0.289763
0.0721079
0.81346
3.17647
2.90095
0.0253296
3.57707
3.33571
3.60773
0.0227656
0.0251401
2.27567
0.0232114
0.373846
0.149087
0.0250442
0.433775
0.0996658
0.0291544
0.0305393
0.0236468
0.0241207
0.0249928
0.0244776
0.0227912
0.0234775
0.0239257
1.40512
0.0246762
9.55718
0.0252282
0.0308312
0.227032
0.0238264
0.0244017
0.410265
0.43038
0.0246735
0.0237081
0.0249232
0.0233929
1.73472
0.0242976
0.0246469
0.0328832
0.0236444
3.23791
2.62003
8.52209
0.0242364
8.24749
2.22409
0.0384994
0.0247499
0.696775
0.0242693
2.82259
0.029523
0.0335711
0.0375027
0.0246652
0.0250563
0.0242514
0.107957
3.21595
1.66693
0.0264963
0.0221032
0.0241119
3.3141
7.90124
0.024815
3.84729
0.0234775
0.797249
0.165168
1.09153
0.0262375
0.0823953
3.97496
0.0239382
0.0727494
5.28465
0.0222445
0.107688
7.61625
0.0238483
0.0275991
2.92392
0.296934
0.0254758
0.0229308
2.1587
2.1902
0.144643
0.0949791
0.0287156
0.0238299
2.25567
0.0237506
0.0247058
0.0238229
0.02285
0.0238126
0.0255659
2.17024
0.0242841
0.373857
0.024443
2.78977
0.0237608
5.69189
0.023606
0.733221
0.0246139
2.98409
0.0310998
2.83186
0.72171
23.2356
0.192323
0.0281943
1.30652
5.77376
0.0245559
2.14664
0.0228985
0.0263113
1.78917
0.0247513
0.024343
0.0334404
0.0245823
1.57538
0.0222554
0.0243098
0.0303357
0.0679977
0.0240943
0.0407566
0.0277942
3.16114
3.39549
0.0227789
0.0240415
0.824451
0.154554
0.0238414
0.0312986
0.0244401
2.35414
21.1326
0.0306325
0.024796
0.0229269
0.0254591
5.66356
0.0242859
0.0262009
0.0358126
0.023094
0.0245895
5.58435
5.26085
0.0240229
0.0248134
2.84096
8.37622
0.433187
0.127717
0.0242978
5.08496
0.0545885
3.85362
0.0239478
0.052619
0.0544462
0.0287811
0.0241293
8.42967
6.29893
0.0284983
0.02472
0.707687
0.0530923
0.0228279
0.0242794
1.07425
0.0274944
0.159956
5.00896
0.0254632
2.78682
0.426436
2.94788
0.706906
0.689583
0.0241714
0.0247347
0.0259336
8.84448
3.02705
0.0227781
3.42324
0.0237502
0.0253476
0.138095
0.022453
0.147002
0.0227946
7.27608
0.027346
0.0235666
0.0237324
7.18799
6.22992
0.0292762
6.49422
5.52558
7.22006
0.091108
0.0283793
0.0224488
0.024506
0.0243926
0.134625
13.9199
0.024054
0.02493
0.0255273
2.26775
1.24619
7.31414
0.024445
0.0639758
0.0286363
0.0236172
0.0248764
0.595565
3.25203
3.00563
0.0322103
0.0999076
3.0284
0.0528613
8.54391
0.0233951
0.0272183
0.0329407
0.0274615
0.0538232
23.9705
0.0635793
0.025471
0.0606201
0.36792
0.0246665
0.0233862
0.0238309
0.564479
0.0247474
3.68118
0.0224948
5.01265
0.122612
0.0242837
0.0240235
2.78964
0.027812
1.42521
0.0245121
0.0235172
0.0682616
0.0300906
3.7998
0.0234669
0.0245008
0.0250398
0.12668
0.0242388
2.27866
0.0239265
0.0234356
0.0244307
6.68964
2.66215
0.142734
0.0284904
1.60338
0.0295605
0.0250934
0.0250822
0.046793
0.0255017
0.129363
0.025766
4.117
0.0250255
0.024452
0.0247691
0.0248022
0.0239589
0.444796
0.0239997
0.0222515
3.07842
1.02787
0.0237001
0.0288294
0.025328
0.140943
0.0255852
0.383091
0.0323784
10.4272
0.0271679
0.0257023
0.0255
0.0268499
0.114376
0.299931
0.0238209
0.510993
0.449487
0.726031
0.035664
0.0236136
0.0282734
0.0370273
0.0359746
0.0253552
5.718
0.0245268
0.0237279
2.28459
0.028447
0.0298645
3.28368
0.436908
3.54844
2.89279
2.41677
0.0246564
2.37912
0.098534
0.53419
0.04404
0.202405
3.96822
4.94335
1.387
0.0281217
2.95025
0.437977
0.0247531
0.0337427
0.0332229
0.0865845
21.7372
0.0239958
0.0248184
0.024378
2.29756
0.0239952
0.0236754
0.143794
0.0983486
0.0239236
9.61868
0.0247843
0.166199
0.0239211
0.561111
0.0883887
0.75345
0.0245989
0.0978893
0.0294067
6.94248
0.0254029
0.0248811
0.0247294
0.0241476
0.0442542
0.0937178
0.0332424
0.0825178
7.60609
0.0239813
2.27859
0.565918
0.0223592
0.0224622
0.740291
0.0237912
0.134857
0.0290927
0.0322815
0.0233698
0.0317286
0.0665996
0.0292252
0.0331083
2.6343
0.0251675
0.0248638
0.0233942
0.0953906
0.158781
0.0261502
6.68499
0.0245895
0.0222419
0.0246451
0.0244891
0.0274295
0.0243528
0.025045
0.0248609
0.0229072
0.0259687
0.0223495
0.0485949
0.0331909
23.349
0.0306805
3.51653
2.82338
0.0343602
0.0924436
0.0269945
7.92424
12.8868
0.0317149
0.0246519
0.0513279
0.0480606
1.46574
0.030957
7.49992
24.0889
0.0254186
2.16673
0.0448281
2.19527
0.026914
0.0262444
0.0247273
0.514727
0.0252952
0.164643
3.81819
0.0220896
0.271467
0.0343246
0.0613467
0.0235357
0.0228741
0.1592
2.88689
0.0322611
0.0222477
0.738118
0.0277568
0.0255896
0.0246211
0.0382568
0.0249482
0.0333342
0.0223838
0.12356
0.0712809
0.0675591
0.112999
3.22564
0.0223753
0.360718
0.0249169
0.0257561
0.0241614
2.87986
0.0253803
0.0256056
0.0357266
0.0253408
2.65565
0.338439
0.0240365
0.0254894
0.0239465
0.0708361
0.0238233
4.68464
0.0233886
0.0865263
0.0240579
0.0250987
0.0244829
2.84819
2.23128
0.365947
2.99188
2.39678
0.0262357
4.13581
3.54973
10.8169
0.0282251
0.0590567
0.0234847
3.37672
0.0250404
0.0232137
0.0286783
0.0308834
0.0437486
0.716379
0.0239666
3.31039
0.0309279
2.9641
1.46923
0.0254178
1.00122
0.359912
0.0236534
0.0311834
0.0332267
0.0240416
0.0257423
2.89468
0.29979
1.54992
0.0248468
4.71131
0.0245218
0.287626
4.84112
6.37762
4.35904
0.27451
0.0293706
2.81574
0.483006
0.0321712
0.0712951
6.97074
0.0239031
0.0234539
1.9732
0.0451294
0.0224806
0.0245293
0.0239864
0.0251389
0.215526
0.0238711
8.2816
2.15704
0.023959
0.0257596
0.0251196
0.0222362
0.0277739
0.0369389
0.0751273
0.023204
0.0244083
0.0363066
0.274459
0.846765
0.0511721
0.0882855
0.0246224
0.0255285
0.566524
0.0252374
0.0926996
0.0460392
0.0485081
0.405446
3.96269
0.0237929
0.0253302
0.0539874
0.0249996
0.0244491
0.0896949
0.466834
0.0249862
0.0245143
0.024604
0.0245375
0.284893
0.0622099
0.0928368
0.315587
0.0261538
0.101296
0.362408
2.83713
0.0253963
0.026052
0.0268225
0.0244472
0.0251352
3.30379
0.025032
0.0239047
4.74303
0.0248631
2.46098
0.0224768
0.0239499
0.025926
0.0958066
0.860375
0.0237191
0.225275
1.3803
0.0249424
0.0907329
2.61812
2.81312
0.0257052
0.0256954
0.0415657
3.32849
1.89612
0.0395375
0.0283205
0.0236204
0.303809
0.640293
7.86559
0.0255614
3.53976
0.0240707
0.485412
0.0332547
0.1304
0.0366656
3.61876
0.0247217
1.81023
0.0261919
0.0262375
0.0333444
3.34391
0.0252252
0.784855
0.0236463
0.0860725
0.0264967
0.558328
0.0235409
0.048342
0.590048
0.0247049
0.0244224
0.816265
3.01122
0.572646
0.376247
0.0351224
0.0272894
0.0257698
2.19811
0.025585
0.0248733
0.0283002
0.427616
3.40627
4.24656
0.0427806
0.0246238
0.0255312
0.026278
0.0223658
0.0737803
3.2589
0.0643687
0.0479534
0.0238532
0.477345
0.023774
0.0666811
4.08319
0.121711
0.0255637
0.0235074
2.27209
0.0242835
0.0467256
0.0364755
0.0643438
0.0238573
1.46006
0.0306695
0.0245615
0.0864789
3.89011
0.0875007
4.9109
0.0249971
2.82946
2.35364
0.0222335
0.0246078
0.0233063
2.07383
3.31075
0.0586211
11.1089
1.86814
0.0252032
0.0245321
0.0236156
0.0251447
2.88203
0.445802
0.02506
0.0712029
0.0271343
0.0352364
0.0239523
0.0262996
0.382177
0.0247189
0.0255394
0.0261548
0.0239684
0.0246415
0.0238037
0.0727547
0.0245484
0.512396
0.0918237
0.0243113
0.0273111
0.0327891
4.49145
0.0239122
8.71477
0.0272012
0.0796514
0.0278301
0.546114
0.735262
0.0246281
0.353094
0.433107
0.0238086
0.0363667
0.278616
0.0862708
8.2737
0.0244482
0.02474
0.201048
0.0254615
0.0525064
0.504637
0.0884067
1.84529
0.0243353
0.733824
2.83091
0.0244867
2.84155
0.0753751
1.61869
0.0895068
3.16431
0.0244215
0.385243
6.6642
0.546797
0.506107
1.50877
0.411148
0.0244201
0.0325368
0.0272387
0.978714
0.0926054
0.394171
0.0230523
2.77493
0.0245381
0.0229899
0.0248371
0.0504831
0.0279666
0.0252576
0.0240542
0.0226476
0.0839096
0.025879
2.2407
0.0252942
0.705348
0.023287
0.0222255
3.21949
0.0252162
0.993726
0.150739
0.0261493
4.6397
0.0695341
1.13074
0.0337899
2.17241
0.0245824
0.0254259
0.0235715
0.0300586
3.94123
0.667448
0.28765
0.025555
0.023007
3.42475
0.0247922
3.15629
0.0246404
0.0247937
0.0243301
0.0333491
0.143497
3.68296
0.0249163
0.025432
0.439055
0.022157
6.3549
0.403145
0.0325376
0.229989
0.0337972
0.049835
2.7859
0.0258594
1.29117
0.070336
0.02469
0.520306
0.286597
0.0242637
0.0246366
0.0238448
0.0245995
0.134777
0.46068
1.9791
0.0231955
0.0238597
0.0242106
0.0256112
0.0247871
0.0283585
0.353278
0.0247799
0.0246244
28.1095
1.81386
0.219658
0.492027
1.25243
0.024054
0.303809
2.8598
2.83856
0.3647
0.0251235
0.338696
0.0818161
0.0241461
0.42677
8.40118
0.022402
3.61087
0.0250095
0.0245181
0.388795
0.0248007
1.46958
0.344939
0.0236097
3.28748
0.0355956
0.0268304
3.0944
1.05989
0.0241335
0.0240448
0.0243979
0.0249422
0.0269232
6.24423
0.0253587
0.0237812
0.14773
1.56981
0.106265
0.0583778
0.0245906
0.40216
0.050648
3.0907
0.0236735
0.0238434
0.0250291
0.0251698
0.103925
0.0312034
0.022397
0.0994763
0.394307
0.024795
0.023481
0.0348369
0.0250557
0.614934
1.17313
0.0273993
0.0252901
0.0232416
0.0249959
0.0259923
0.0243659
0.0247348
0.0247489
0.398033
0.0246391
0.448081
0.0241624
0.543607
0.0259766
4.2375
3.94476
3.98477
0.294986
1.94037
0.0848632
0.32031
0.484905
0.093546
3.67339
0.0262635
0.670125
2.79193
0.885048
0.0232065
0.394087
0.0243867
0.316734
2.73565
0.163922
0.0245403
0.0237748
0.0242461
0.0260433
3.94368
7.25041
0.0253755
1.63006
0.487737
3.35573
0.0235635
0.158262
0.090717
0.0350178
0.869425
2.94173
0.199589
0.0247532
0.141752
0.0413198
3.19037
0.0241571
0.0232785
0.0246678
1.07685
0.554356
0.0242537
0.024835
0.024928
0.0243613
3.89346
0.285542
0.0500514
0.820747
0.0243222
3.36873
0.968794
0.699066
0.0266191
0.0691798
0.0890245
1.44341
0.0231015
1.832
1.56408
0.0284657
0.02548
2.15526
0.0299978
2.90709
3.90868
0.0248419
0.0240485
0.0274599
0.0249475
0.0245212
0.0267985
0.0968106
0.0236817
0.0244165
0.0251548
0.0261827
0.0236868
7.38142
0.0258313
2.89867
0.0249651
0.0563423
0.0240185
0.0272177
2.52178
0.0301281
0.024799
0.0265816
0.0364748
0.0466795
6.89529
0.500848
3.78722
6.82474
2.31256
6.46287
0.479022
0.0804848
0.0361996
0.0234242
0.0240766
0.380932
0.0241782
0.0252653
0.0231853
0.0244238
0.0240157
0.0236583
0.0246308
0.0244908
3.07676
0.025833
0.0250902
0.0236388
0.0272919
0.49979
0.0288865
0.0495757
0.0485856
0.0271691
0.426177
0.0242696
0.0330706
0.0240891
0.0314812
0.0249438
0.0483393
6.15843
0.0971071
0.0248673
0.0242471
0.713788
0.0247876
0.11835
0.0242125
0.245536
1.46753
0.114312
0.0272778
0.082875
0.0247835
0.392834
0.0480962
0.497646
0.394066
0.520428
1.69989
3.06188
0.0244081
0.023522
0.0244648
4.26633
0.0241129
0.687547
0.0612287
0.0253358
2.55509
3.58167
0.0239423
0.0231285
0.288765
8.46302
0.474549
0.0245395
10.2484
0.0224062
0.659691
0.0414362
0.0373614
0.0274367
1.42597
0.0239798
2.9922
0.0272545
3.51344
3.29677
0.284602
0.0281176
0.0308258
0.0233863
0.0266804
0.023807
0.0335297
0.0249809
3.50551
0.0245867
0.0249994
0.0231606
2.89731
0.0238027
3.84737
1.14946
0.0772569
2.84359
0.0804152
0.165599
0.0255683
0.0307514
0.0241393
2.67522
1.11901
1.54131
0.670696
0.289286
0.108551
3.11991
0.0223106
3.0718
3.52254
0.677789
0.0250236
0.429062
11.36
0.373922
0.0247184
0.0514198
0.422862
0.0230311
3.19013
0.0255119
0.0481247
0.0253228
0.0582066
0.0220888
0.022746
0.0223074
0.0358642
0.0247241
0.334665
0.0248925
0.0235151
0.617753
0.0244301
0.0332135
0.0307812
0.0242765
10.8798
0.0339518
0.0257383
0.0242955
0.0253757
4.95554
0.0243758
0.0238164
0.0532162
6.90046
0.0265227
0.134966
0.0230513
0.134563
0.0257498
0.025003
1.60842
0.0383947
3.43389
0.0249013
0.109922
0.0265896
4.45317
7.37889
0.0248216
2.21262
0.0396785
0.0235374
8.51713
0.0329121
0.0257822
0.0665992
0.0257716
0.0242183
0.0272097
0.117197
0.0263366
0.0674315
0.0453773
0.12205
0.0228565
0.0938648
0.0250588
3.16509
0.0590642
0.0243652
2.93259
0.0242135
0.0238236
0.220996
11.8867
0.390945
0.163524
0.395686
0.628445
0.0242457
0.0247103
0.114926
1.65804
0.0256547
0.0689766
0.0259053
0.0244324
2.55345
0.0403216
0.0496052
0.060367
2.94761
0.0222637
0.0441481
0.0266104
0.190432
0.721089
0.427882
0.0245269
0.025812
3.00942
0.0273334
9.04358
0.375455
0.0246589
0.0597264
0.0387528
0.0232839
7.06008
0.0268775
1.84215
4.57123
0.0247353
0.0420617
0.0246574
0.0244875
0.0329576
3.33725
0.0227888
0.0258398
3.45606
0.0247033
0.251809
3.0322
0.0246869
6.31108
0.024364
0.0259145
0.023217
0.0242138
0.232451
0.0256273
0.0985797
0.0257512
0.0245768
0.0876454
2.94299
0.026473
1.24423
3.3359
0.386256
0.0252468
0.0255924
0.149757
0.0240947
0.0249149
4.63104
0.129241
0.0293867
0.0250798
0.0255086
0.244615
0.0246969
0.0237609
2.88944
0.0659223
0.0224283
0.0242336
0.535005
3.26694
0.0248124
0.0253186
0.103804
0.119357
3.16128
0.0236103
5.94874
0.0266209
0.0264974
3.08619
0.224623
0.0938675
2.15208
0.0241669
12.4817
0.0263382
0.289393
0.463414
0.0244338
2.85914
0.0257287
0.0233081
0.0303104
0.988695
0.904274
6.44461
0.0245064
0.0863423
0.0458532
0.0317469
0.0254432
0.0255909
0.0256602
3.2027
3.27496
3.58084
3.37422
0.0273689
0.0365399
0.308536
0.0284262
0.0241951
0.0272302
3.11309
0.0307382
1.43389
1.07077
2.71282
0.0287143
3.54545
0.036873
0.0969315
1.73438
4.0038
1.09699
0.0924792
0.0246164
3.64303
0.0235269
2.46628
0.0230701
0.0239514
0.0253627
0.454923
0.563407
8.09435
0.0411843
3.8739
0.0245397
0.0458879
0.023374
0.104363
0.404533
0.963866
5.26189
3.22856
28.3815
0.463206
0.0250492
4.74211
0.0248044
3.30239
0.30834
0.0274232
0.0245308
0.758215
0.126057
0.0224256
0.0245563
7.10505
0.0236043
0.0247982
0.101559
0.650332
0.0228152
0.112324
0.0474413
0.320317
3.47944
0.0245126
0.0235592
0.261168
0.0246041
0.570844
0.0454739
4.36585
0.0332851
0.037286
0.0235878
0.0222359
1.04872
0.0442802
0.0585345
0.0266097
14.8114
0.245589
0.581307
0.411668
0.0254283
0.352918
0.0242813
0.0364744
0.0287991
1.95759
0.0233586
0.0233445
3.20073
0.151794
3.07255
0.0284972
0.4886
1.04271
0.026608
7.52961
0.0258556
0.0744171
0.368008
2.91458
0.0238571
0.681098
1.12552
2.89288
4.99959
4.6034
0.0272386
3.59398
0.231191
0.401567
0.0605299
0.0310077
0.0223037
0.0707707
0.0241221
0.540423
0.0304113
0.0251685
0.0255117
0.196297
0.314422
0.0241501
0.374181
0.0916223
0.677963
4.67378
0.418148
0.0257626
4.47728
0.0228393
0.396856
3.25941
3.84146
0.0245902
0.146822
0.0245573
3.85618
0.0339792
0.230022
0.0365534
3.13189
0.0917198
2.1944
0.0234797
1.09472
0.379161
0.0247207
0.0639487
2.19691
0.0252567
0.0244088
0.0362582
0.293133
0.0245481
0.0242868
0.0240449
0.380114
0.0346884
0.0889849
0.309602
0.0313873
0.0267715
0.0220828
0.0231553
0.022959
0.0790147
3.87243
0.0241997
0.0278596
0.0246127
0.0799699
0.0251488
0.463533
0.0255159
2.50793
1.19496
0.0247781
0.160691
0.0671294
0.0236001
0.022373
0.152022
1.0861
0.023721
0.250291
2.41414
0.511739
3.20439
4.35726
0.0618023
0.0246589
1.96749
0.0241794
0.138994
0.0229735
11.6216
0.0233129
0.44994
0.026591
4.51052
0.0230495
4.53683
0.0223241
0.0247693
0.229243
0.0260602
0.023299
0.0350001
4.56699
0.0242055
4.36992
0.0261632
9.54658
1.14413
8.19607
4.00023
0.0247289
0.0298156
3.10033
3.1728
0.0245104
0.0316331
0.0397451
0.0802596
0.0248514
2.17796
0.0690896
0.0232485
2.19311
2.52137
0.0260191
6.46397
0.0650112
0.240123
3.94143
0.0243779
0.0240663
0.386696
0.0243743
3.43288
0.02637
3.58198
1.90624
0.0232691
0.221368
0.0222935
0.177515
0.0246135
0.034177
2.83604
0.024029
1.58618
0.0257036
0.0245121
0.105406
0.0248447
3.14194
0.336478
4.07061
0.40614
0.300648
0.0253124
0.0241104
2.8571
2.83228
0.0235334
0.245291
0.0247788
0.0224088
3.37669
0.414749
0.0256971
0.0238572
0.0244117
0.0231007
7.76266
0.0245627
0.371289
0.0358026
3.98475
0.116981
0.153998
0.0241948
0.409756
10.3256
0.0537899
0.0253837
0.449048
0.0221717
2.97549
2.96986
0.0231693
0.0667626
0.0367785
0.0366552
0.0279403
0.0293403
12.9547
2.24763
0.669393
0.0245264
8.72308
0.0248899
5.95463
0.0891999
0.140552
3.4829
0.0243011
0.366659
0.0861844
0.0274536
7.62272
1.51797
3.2267
0.208275
0.0246632
0.173772
0.438401
0.0351333
0.268501
2.56929
3.81895
0.724307
0.0234762
0.0232324
0.0262175
0.0269541
0.0246239
0.0242462
0.0292175
0.0251115
0.0352267
1.41259
1.11089
0.0256801
3.70358
0.0342071
1.91475
0.0259826
1.33474
0.0972245
0.669047
3.20995
0.0240222
2.11512
2.9193
0.0247345
0.0248025
2.99281
3.18742
0.404278
0.230868
0.0242042
0.0263572
0.272366
0.0242844
0.0329574
1.56784
0.0231033
0.066913
1.07513
2.18852
0.0248108
0.317522
0.0327243
0.0381369
4.21159
0.022177
0.02413
0.0231981
0.287633
3.05569
0.202352
0.0247913
0.37488
0.0251635
0.125154
0.356272
0.025458
0.0233345
0.0243668
3.09065
0.369518
3.17939
0.0248955
3.02244
5.18711
0.103783
0.0242419
0.0765357
0.0244947
0.0231019
0.0241383
6.34535
0.0837407
0.373605
0.0329945
2.1031
0.534822
0.0250752
2.80569
0.0312317
0.0245251
0.280832
0.0303725
2.97076
0.364375
0.0249642
0.0233473
0.0247079
2.85377
0.21079
1.06833
0.0871894
0.0709452
2.11953
0.283402
0.484524
0.494236
0.0652979
0.0246356
0.412148
0.0232826
0.0228345
0.131705
0.546722
0.023684
0.024629
0.420923
0.0619759
0.0257132
2.95072
0.0249601
0.0398295
0.0253141
0.258592
1.77885
0.0933692
0.0238294
0.0249597
3.20727
2.76405
2.82423
0.0686231
2.24961
2.5488
2.16619
0.50264
2.96044
0.0249892
0.525422
2.23195
0.0449773
0.024068
0.0257873
2.85619
0.0248605
0.023278
3.58948
0.023966
2.80702
0.0222161
6.06386
6.61917
5.78046
0.0233168
0.0243371
0.390984
0.0222352
0.391804
0.0259432
0.566457
1.03683
0.0735421
0.0800795
0.0551537
15.8605
0.126867
0.0244932
0.0248272
0.121809
0.217432
0.364728
1.13257
0.0390528
0.0359046
0.0222581
0.121505
0.0251214
0.384905
0.0362591
0.154064
0.0247055
0.0306143
0.144534
0.0442486
3.12523
6.00217
0.0234561
0.0252011
0.0241785
3.02864
0.0243012
1.17217
0.0272896
2.14347
0.0232129
2.25828
7.2354
0.0227311
0.024376
0.080237
0.08657
0.050964
0.0505362
0.0234974
3.57613
6.23309
0.0240395
6.09316
0.33149
0.0823622
0.032288
2.94738
3.48519
3.53273
0.491698
6.08866
0.0230474
0.407364
0.0240843
0.0231279
5.4697
0.0818531
2.53988
0.157319
0.260213
0.780398
0.027225
0.024759
0.0237617
2.86451
0.0232153
0.0727745
0.465021
3.19862
0.0221053
0.0234029
3.41407
0.0294093
2.7945
0.0250584
0.0258212
0.0252041
0.0232186
0.070841
0.578101
0.330232
2.22999
0.037467
0.243133
0.31308
0.0533682
2.03933
0.0239369
0.199061
0.0243118
0.0243659
0.219932
16.4374
2.25306
0.239369
0.0267214
0.883551
0.0235446
0.244397
0.495711
0.0241079
5.58293
0.0427958
0.0262232
0.0225377
4.64564
0.0520513
0.0236357
2.96809
0.281539
3.29032
0.0222772
9.23211
3.34522
0.387743
1.85365
0.0222012
4.00485
0.311018
0.497332
0.481891
3.76024
0.0269638
0.0360235
0.283942
0.0886519
0.0250231
0.0409835
0.0842747
2.21093
0.0444193
0.0241536
0.0257715
0.0235993
0.024929
0.0270937
0.024926
0.0239823
2.88638
0.0239561
0.129214
0.0245128
0.0235526
0.0235581
0.0441418
0.0252392
3.547
0.519998
2.39272
0.0231607
3.57932
0.520353
2.21885
3.10431
0.028823
0.693747
0.0252702
2.34248
2.51384
1.12291
0.0267729
0.042132
1.53008
0.024642
0.0259602
0.0490508
0.0237201
0.0225421
2.96956
5.49604
0.0254384
0.0505803
1.92078
0.0242894
3.45398
0.476238
0.26505
0.0239725
0.0244672
0.611078
0.0268884
0.023398
0.0261633
6.6971
0.633539
8.45104
0.0250746
2.106
0.165256
0.0348951
3.90995
3.40458
6.44017
0.0233124
0.242282
0.0244946
0.0241399
0.398648
1.02711
1.72072
0.39779
1.06249
0.0252573
0.0588582
5.84577
2.83884
0.0221689
0.0236601
0.0235144
5.65836
0.402228
2.3613
0.0596253
0.0883334
0.0229102
0.0519469
3.00131
6.46969
0.0243362
0.129721
0.461151
0.186198
0.0259685
0.395842
0.0252798
0.026232
0.0234831
3.14377
0.0241406
0.0237509
0.451831
7.63495
1.5681
0.481003
0.0233016
2.33802
0.0735442
0.0252249
0.0662831
0.0505791
8.49152
0.547192
3.85247
0.708963
0.0252028
1.09379
3.72374
0.0304187
0.0222208
0.235967
2.91468
0.046892
0.0236519
0.0228212
0.0295015
0.0242271
3.25906
0.0246168
0.0244276
0.0379904
0.0247887
3.65782
0.0429442
3.41443
0.0240499
0.935653
0.0387914
1.45994
0.0619554
0.0242068
2.3065
0.023811
0.0251945
0.0278843
0.0355109
0.342785
0.0242089
0.174825
0.112997
0.0292379
0.0241839
2.88595
0.0288369
0.064585
27.2182
0.108556
0.465347
0.0244701
0.555905
0.0260435
0.352738
3.29519
0.376235
2.53804
0.0289329
0.0287133
0.0950191
0.125155
0.0244893
0.0242289
2.37825
0.0377621
2.91229
3.08679
1.80883
1.1998
0.024131
0.0252001
0.068417
2.28822
0.0260557
0.0236381
0.0230719
0.24292
0.0243007
0.0221761
0.0844163
0.0288807
0.0798074
0.0231862
3.25185
0.334119
0.265256
0.70802
2.25081
0.039535
0.0231312
3.54376
0.286333
1.4326
0.0245139
0.0243547
0.0241075
0.152366
0.342088
0.0287911
0.0243004
0.0371378
3.1206
0.0231022
0.0234173
0.352093
0.024997
0.025172
0.107999
0.0245203
0.0303866
2.61995
0.0249928
6.31294
0.200779
0.682646
0.0255267
0.0283933
0.0694348
0.0762915
2.9747
0.0230362
0.0229864
0.0345845
2.53364
0.0244212
2.32353
0.0231266
0.0231037
0.0316541
0.0252645
0.0442897
3.1837
2.86774
0.223486
3.12017
0.0271376
0.0246179
1.16412
3.92035
0.415859
4.32251
0.0238396
0.0222937
4.45631
0.0412961
0.023956
0.451101
2.45562
2.14561
0.239072
3.31588
0.557156
0.0273082
2.71554
0.0235872
3.64962
0.657841
2.46339
0.52679
0.208217
0.0235296
0.0300745
3.49259
0.0243424
0.0246947
0.028928
0.0246414
0.285028
0.0235067
0.0248912
0.0223505
0.0233094
0.0249353
0.0236949
2.78706
0.0255464
0.0280926
0.472664
0.0584108
0.39824
0.0222475
0.0319694
0.0243076
2.16597
0.0537743
7.63274
8.27003
0.0237367
0.0242129
0.0240758
0.0354812
0.0239189
0.0235366
0.679106
0.0232982
5.43981
0.023227
0.405705
0.0252205
6.87062
0.0253151
3.82531
0.023211
0.0249588
9.23671
0.0322281
0.344866
0.209172
0.499193
0.0906543
0.460913
2.34151
0.0362173
1.55517
0.024793
2.85712
0.0254403
0.0245657
3.44046
3.345
0.0239062
0.0307927
0.0246442
0.443483
3.81481
2.85679
1.53096
1.07737
0.024225
4.75875
0.0234906
2.23661
0.025897
0.0350433
0.225139
0.0242013
0.0268242
0.0244249
0.0225866
0.0320356
3.36244
0.0235158
0.215476
0.0223341
0.0392208
0.0237498
2.09978
6.29665
0.104457
0.618137
0.0243557
1.61187
0.0249295
0.0232077
0.166558
0.0242698
0.0234776
3.10636
9.08977
0.0601562
0.0294993
3.01916
0.0623394
0.0265146
0.0358164
0.052875
0.0239092
10.0373
0.0245231
0.0301571
0.0243438
0.0298812
2.48789
0.0254746
0.0286141
0.0230823
0.0240642
0.0290995
0.201835
0.0313398
0.0242652
0.116018
0.0241218
0.0245435
0.0240837
0.0235371
0.0961428
13.8994
0.0245851
0.0232966
0.261265
1.06559
0.0247128
3.13944
0.106231
2.96064
0.0598584
0.0346204
0.113786
4.14444
0.0242035
0.0222774
0.0240981
0.0429864
4.34968
0.0634488
0.0242224
0.2308
0.025106
0.0240894
0.0231243
0.0233833
0.0263066
0.0586999
1.817
0.0637304
0.0319539
0.0533063
0.0265112
0.0369667
2.13547
0.489899
0.0347218
0.0853184
0.505055
4.88818
0.0315022
0.0240749
0.0237879
0.0243056
1.49757
0.376368
0.0254481
0.0250795
0.449266
0.50862
0.275923
0.445532
0.522577
0.856865
0.0369899
3.2029
0.0238191
8.39509
3.63932
2.84925
0.024258
0.0467834
0.0237257
0.0247332
0.0239352
0.105385
0.0252784
0.0390851
0.0362979
0.349681
3.73584
0.0253485
0.0252768
0.0488482
0.0232671
0.219772
0.543959
2.30844
2.08909
0.443436
0.024028
0.0235847
0.0243
0.0566475
0.0274337
0.0223942
5.6167
3.19292
0.062071
0.0261959
0.0240243
0.291546
0.670909
2.9267
0.0278065
0.0258242
0.0230275
0.371604
0.0240098
0.111083
0.0239606
4.9486
2.70484
0.0245402
0.0241403
1.09617
0.0771625
1.5976
0.0469632
3.5434
0.422949
0.47141
0.0352143
0.0788666
0.0487047
0.0474166
4.18045
0.0362769
0.0717254
3.53188
0.0274571
0.0263192
0.0248515
0.0271623
3.15454
0.0256628
0.504888
0.479885
0.121759
0.023852
6.50664
0.0233216
5.58895
3.50383
0.0231171
5.31846
0.178046
0.0246008
0.0241999
0.0739348
3.25863
0.0633202
0.0620682
3.44232
0.0897999
0.0230991
0.0259924
1.99954
0.0228192
0.0360811
10.8826
0.930892
0.0301368
0.490752
2.6116
0.0270412
0.0271417
0.0866776