/*--------------------------------*- C++ -*----------------------------------*\
| =========                 |                                                 |
| \\      /  F ield         | OpenFOAM: The Open Source CFD Toolbox           |
|  \\    /   O peration     | Version:  v2012                                 |
|   \\  /    A nd           | Website:  www.openfoam.com                      |
|    \\/     M anipulation  |                                                 |
\*---------------------------------------------------------------------------*/
FoamFile
{
    version     2.0;
    format      ascii;
    class       volScalarField;
    location    "100";
    object      omega;
}
// * * * * * * * * * * * * * * * * * * * * * * * * * * * * * * * * * * * * * //

dimensions      [0 0 -1 0 0 0 0];


internalField   nonuniform List<scalar> 
27915
(
0.0284554
0.0969833
3.09306
0.0237366
0.0244311
0.0316424
0.0226323
3.21093
0.0243085
3.36811
0.0456221
2.39244
0.199932
0.0226224
0.0232767
0.0238724
0.290455
0.0247489
0.153917
3.23811
0.355296
0.0259041
1.03342
0.024645
0.0238762
0.0234651
2.08606
0.0244108
8.84959
0.0282169
0.0244953
0.0429784
0.0232531
0.0232768
2.81418
0.0232837
0.0249892
0.0234679
0.0721373
0.0244887
0.0269999
0.0249613
0.384642
0.0240311
1.41334
0.0245127
0.0242392
0.0395058
0.0245421
0.0238768
3.02403
0.141615
3.56419
0.0282484
0.028944
0.0242396
0.0244883
0.27064
0.300778
0.0244848
0.295808
0.0322486
1.43809
30.1896
0.0246826
0.0778993
2.46394
3.05758
2.82705
0.0245382
0.0548491
0.0246665
0.0247581
0.615638
3.28894
0.209059
0.0280522
0.0230077
8.66484
0.116862
0.0313051
0.0247458
0.034556
3.67344
2.94284
0.732509
0.0232321
0.440259
3.71254
0.0738602
0.0249382
0.604876
0.023847
2.18265
9.56431
3.00005
0.100787
3.2714
0.0319304
0.0222432
0.0320792
0.0234543
3.23916
0.0256676
0.0292646
0.0247355
2.40182
0.118126
0.0234567
2.98305
2.63903
0.0268869
0.309093
0.162079
0.112332
0.140004
2.45197
0.0418906
0.0256438
0.0246083
0.0248949
0.281728
0.0232682
0.0258802
0.024294
1.51006
1.93894
7.31085
0.0244906
0.0240316
0.0321959
2.02288
2.17261
0.730501
2.0616
0.0757283
1.74944
0.023222
0.0240665
0.0248081
0.0274366
0.0290556
0.0253505
2.47844
2.64561
2.94935
9.1857
0.0384777
0.194602
0.0348262
2.42347
0.0232028
0.217422
3.46899
0.247756
2.83332
2.81461
0.0236298
0.0241219
0.025213
0.201039
14.4777
0.023667
0.0448906
0.51015
0.024648
0.215884
1.32755
3.34566
0.0251156
0.0326651
0.0248119
0.0243486
0.040534
0.0225713
12.6632
2.96941
0.025402
0.0235061
36.2193
3.80564
0.0581841
0.0254301
2.88726
0.0752339
0.44135
0.0237581
0.024077
4.49841
0.0232221
3.26086
0.0527122
0.30732
0.0253888
0.0222202
0.0245788
0.377878
0.0525301
0.0248794
0.0328289
3.42405
2.41022
0.0234672
0.0245245
11.7833
7.72746
0.0972792
0.0661582
4.46088
0.0243429
0.0340106
1.69559
0.0247539
0.0246683
0.0244233
0.0259385
0.0605478
0.240283
0.0240593
0.0246778
0.024596
0.0258739
0.0292029
0.0243897
8.85661
0.124648
0.0240629
1.10895
0.0241115
0.0231842
9.8131
0.0387138
1.68207
1.10708
0.384906
0.0262227
1.53936
0.0259922
0.02552
0.0236069
1.10398
0.0260024
0.0489271
2.29132
0.0244729
0.0235133
3.43137
29.5286
0.0297749
0.280242
0.0287838
2.81241
0.0223269
0.0245106
0.0246699
0.0983816
0.0283289
0.0241733
0.052457
2.38462
3.19298
0.109846
0.192101
0.615113
0.221391
0.393383
0.0237322
3.26043
2.81862
2.55806
0.0254882
6.85726
5.63214
28.5975
0.0295044
0.0237371
0.0259415
0.0258732
0.0235229
0.0257555
0.0240312
0.0222889
0.0229939
0.0352464
0.715433
2.95852
4.63789
1.08178
0.0282741
3.31207
0.226111
0.0247029
9.22217
0.02469
0.0259302
0.103396
0.738622
1.60968
0.0380734
0.024873
1.95217
0.0356137
0.0238751
0.0250216
0.733227
6.05574
0.0331922
0.0236148
6.95104
0.0259684
1.08845
0.0248466
2.889
0.0241588
1.09013
0.0246596
0.0222512
3.31935
6.73039
7.72416
0.0546778
0.0221589
0.023761
0.0246182
0.0809486
0.036269
0.804196
7.43977
0.0243528
0.0233963
0.0241111
0.0611303
0.0246688
0.0238921
1.242
0.0225081
0.198001
0.0235236
1.56216
26.4868
0.028159
5.98087
8.40219
4.02685
0.0225008
0.0241713
0.0248346
1.94612
2.97261
0.024692
0.0246007
0.0236267
1.47495
0.0700739
0.0484593
0.723492
0.0350687
0.0242438
0.0236059
0.539779
0.0627075
0.0256132
0.0252844
0.0228672
0.0238068
12.4146
0.0333416
0.0236055
0.0244609
0.0237908
5.43931
0.0225369
0.0845808
0.0249524
2.8527
0.0225604
0.0231834
0.0971505
0.0351118
0.022327
0.0341347
0.156912
0.0339168
0.404657
2.83873
0.0525457
0.694617
0.156892
0.0248556
2.521
0.0246849
4.79043
2.96222
0.0237769
3.45908
0.0911093
0.0324445
0.0261306
0.0238888
3.41437
0.0236176
0.0325329
9.04436
0.0250625
2.27202
0.0261332
0.15434
0.0244887
2.08043
0.0995795
3.76442
0.0369334
0.0237823
0.0234506
2.42366
0.0246477
0.0947479
0.0258085
0.0869276
0.0267117
0.206545
0.0240751
0.0314957
3.19547
8.11983
0.026585
0.0236048
6.04565
3.18309
0.0243311
2.94161
0.0262065
0.0755621
0.0324964
0.0236746
0.0236111
0.0243783
0.0257516
0.138953
0.134896
2.53083
0.08267
0.104376
0.09546
0.0238112
0.0259291
6.57428
0.0250282
0.546972
0.0222397
1.68814
2.79661
0.0236675
0.0259309
2.6597
0.354866
2.80699
0.0239443
0.0353642
8.96888
0.0237544
0.0274104
0.302293
0.0265696
7.61182
3.29777
0.0246061
0.0240613
0.224574
0.398437
0.0240307
0.0313381
0.167315
0.0236152
0.0603523
0.0317649
0.0240449
0.0240913
0.0408436
0.0400312
0.483087
0.0375869
5.72821
0.549359
8.96933
0.0257349
0.0331038
0.123758
0.0704183
0.0233737
0.481726
0.288094
0.217119
0.025776
5.0163
0.043916
0.0265996
2.65312
3.00803
5.76273
0.0241027
0.0256147
12.4902
0.66836
10.0074
6.78863
0.0237279
0.0261275
9.47924
0.978428
0.0239388
0.0917362
0.12826
6.5929
6.83254
2.80921
2.83409
0.0236492
0.0842844
0.0345059
0.0242615
0.0236611
0.0236554
4.2148
0.022144
0.574718
0.0280272
2.88406
0.240328
5.2243
0.0222958
3.74087
4.42539
0.117788
0.0370686
0.373272
2.93425
0.0241576
0.0826447
0.0243697
0.024452
0.0616136
0.0246935
0.169911
0.0243346
1.55092
0.023609
2.90542
0.0235528
0.705646
0.0244713
0.0251278
0.0568582
1.081
0.0391866
0.0331114
0.698634
3.33483
0.328987
0.0240163
7.33622
3.31411
0.113679
0.0345421
0.0247356
0.0251338
11.2991
0.0236454
2.92742
0.0248897
0.0990959
4.44104
0.0388974
3.29532
0.0231969
0.438773
5.05127
1.71959
0.427923
0.023369
0.0238134
0.0914216
0.039859
2.89142
0.665337
0.0250324
4.91449
0.023294
0.0242786
30.4933
0.0234265
0.0247167
1.86263
0.0408999
3.06364
0.0234056
5.0277
0.107396
0.0236329
0.0232131
2.81544
0.0246103
0.0236923
0.0232155
0.33961
0.0240826
2.60056
0.0275555
0.0249062
9.19945
0.355292
0.0236995
1.50463
4.14736
9.64059
0.0246602
0.0241259
11.6362
0.0321059
0.453403
0.0222235
0.0252493
0.0232152
0.0231496
0.0246477
0.0246569
0.0309638
0.0269175
0.0235332
0.0228391
0.22554
2.62219
3.14286
0.0929595
4.3165
5.46841
9.12733
0.024135
0.440298
0.218596
0.139842
0.0246956
0.981905
0.0248886
0.0236672
0.0221108
3.20544
0.0258624
0.0225306
0.0371186
0.294925
0.0721046
0.80892
3.17523
2.90085
0.0253297
3.58419
3.34333
3.61014
0.0227656
0.0251401
2.27376
0.0232114
0.375626
0.149103
0.0250442
0.43337
0.0996422
0.0291544
0.0305402
0.0236468
0.0241206
0.0249928
0.0244776
0.0227912
0.0234775
0.0239257
1.40402
0.0246762
9.55811
0.0252282
0.0308322
0.227547
0.0238264
0.024402
0.391962
0.430055
0.0246736
0.023708
0.0249232
0.023393
1.73654
0.0242976
0.0246469
0.0329216
0.0236444
3.23175
2.62053
8.52297
0.0242364
8.22946
2.22664
0.0385042
0.0247499
0.697784
0.0242692
2.82206
0.0295247
0.0335713
0.0375031
0.0246652
0.0250563
0.0242514
0.107975
3.21588
1.6696
0.0264987
0.0221032
0.0241119
3.31547
7.9013
0.024815
3.84286
0.0234775
0.801008
0.165177
1.09019
0.0262374
0.0823538
3.98067
0.0239382
0.0727618
5.29571
0.0222445
0.107706
7.61708
0.0238483
0.0275991
2.92335
0.297029
0.0254757
0.0229308
2.15767
2.18882
0.145036
0.0949957
0.0287157
0.0238299
2.2554
0.0237506
0.0247058
0.0238229
0.0228501
0.0238126
0.025566
2.17076
0.0242841
0.373808
0.0244431
2.79003
0.0237608
5.69112
0.023606
0.737498
0.0246139
2.9838
0.0311001
2.83119
0.716896
23.237
0.192231
0.0282032
1.31179
5.77071
0.0245559
2.14527
0.0228985
0.0263113
1.78079
0.0247512
0.024343
0.03344
0.0245824
1.57429
0.0222554
0.0243097
0.030336
0.0679837
0.0240942
0.0407643
0.0277941
3.16154
3.39517
0.0227789
0.0240415
0.816523
0.154592
0.0238414
0.0312989
0.0244401
2.35617
21.1337
0.0306332
0.024796
0.0229269
0.0254592
5.67201
0.0242859
0.0261906
0.0358049
0.023094
0.0245894
5.58432
5.26805
0.0240229
0.0248133
2.84139
8.37709
0.433209
0.127738
0.0242978
5.0891
0.0546086
3.84815
0.0239478
0.0526246
0.0544475
0.0287824
0.0241294
8.41911
6.29946
0.0284653
0.0247199
0.708937
0.053098
0.0228274
0.0242794
1.07253
0.0274941
0.159966
5.00328
0.0254631
2.78738
0.429444
2.94736
0.722238
0.704869
0.0241714
0.0247347
0.0259348
8.84425
3.02714
0.0227781
3.40974
0.0237502
0.0253476
0.138379
0.022453
0.147036
0.0227946
7.27062
0.0273439
0.0235666
0.0237324
7.18741
6.23027
0.0292924
6.49032
5.53557
7.20929
0.0911218
0.0283793
0.0224488
0.024506
0.0243931
0.133898
13.9569
0.024054
0.0249302
0.0255272
2.26652
1.25038
7.31422
0.024445
0.0639728
0.0286366
0.0236171
0.0248764
0.582711
3.25174
3.00602
0.0322111
0.0999258
3.02893
0.0528768
8.54785
0.0233951
0.0272183
0.0329363
0.0274615
0.053829
23.8828
0.0635787
0.0254709
0.0606161
0.367213
0.0246665
0.0233862
0.0238309
0.564448
0.0247474
3.66271
0.0224948
5.01442
0.122631
0.0242837
0.0240235
2.78962
0.0278119
1.41944
0.0245121
0.0235172
0.0679142
0.0300575
3.79944
0.0234669
0.0245008
0.0250398
0.126212
0.0242388
2.2801
0.0239265
0.0234356
0.0244307
6.69012
2.66291
0.137749
0.0284903
1.60487
0.0295605
0.0250934
0.0250822
0.0467906
0.0255016
0.128705
0.0257661
4.11472
0.0250255
0.0244521
0.0247691
0.0248022
0.0239589
0.440283
0.0239997
0.0222515
3.07913
1.0247
0.0237
0.0288297
0.025328
0.141431
0.0255854
0.383246
0.0323746
10.4451
0.0271705
0.0257023
0.0255
0.0268533
0.11358
0.298725
0.0238209
0.510306
0.447159
0.725399
0.0356635
0.0236136
0.0282734
0.037021
0.035977
0.0253552
5.71139
0.0245268
0.0237272
2.2862
0.028447
0.0298648
3.28501
0.436465
3.55478
2.89308
2.41853
0.0246563
2.37939
0.0984586
0.533476
0.0440138
0.198335
3.96745
4.93892
1.39375
0.0281218
2.95037
0.437165
0.0247531
0.0337423
0.0332231
0.0865874
21.7365
0.0239962
0.0248184
0.0243779
2.30047
0.0239952
0.0236753
0.140453
0.0976872
0.0239235
9.59727
0.0247843
0.16621
0.0239211
0.560582
0.0883638
0.749001
0.024599
0.0978546
0.0294068
6.94318
0.025403
0.0248811
0.0247294
0.0241476
0.0442525
0.0936711
0.0332749
0.0825545
7.6062
0.0239813
2.278
0.565621
0.0223593
0.0224622
0.739945
0.0237912
0.132978
0.0290929
0.0322812
0.0233698
0.0317435
0.066854
0.0292253
0.0331079
2.63475
0.0251675
0.0248638
0.0233942
0.0954079
0.155924
0.0261504
6.68959
0.0245895
0.0222419
0.024645
0.0244891
0.0274295
0.0243528
0.025045
0.0248604
0.0229072
0.0259687
0.0223495
0.0485897
0.0331905
23.3481
0.0306814
3.51839
2.82275
0.0343577
0.0924147
0.0269945
7.90859
12.8749
0.0317154
0.024652
0.0513312
0.048185
1.46511
0.0309552
7.50009
24.0913
0.0254186
2.16581
0.0448264
2.19431
0.0269141
0.0262469
0.0247273
0.513183
0.0252952
0.164672
3.8158
0.0220896
0.271228
0.0343235
0.0614498
0.0235357
0.0228736
0.15922
2.8872
0.0322669
0.0222477
0.737945
0.0277565
0.0255896
0.0246212
0.0382486
0.0249476
0.0333323
0.0223838
0.122662
0.0712926
0.0675692
0.113343
3.22839
0.0223753
0.3609
0.0249169
0.0257561
0.0241614
2.87962
0.0253803
0.0256056
0.0357194
0.0253408
2.656
0.338399
0.0240365
0.0254894
0.0239465
0.0708213
0.0238233
4.68888
0.0233886
0.0865231
0.0240579
0.0250943
0.0244829
2.84785
2.23354
0.366109
2.99214
2.39698
0.0262358
4.13523
3.55605
10.817
0.0282252
0.0587944
0.0234847
3.36838
0.0250404
0.0232137
0.0286585
0.0308844
0.0437474
0.716403
0.0239665
3.31545
0.0309262
2.96434
1.46909
0.0254178
0.996063
0.360037
0.0236535
0.0311838
0.0332236
0.0240416
0.0257423
2.89404
0.299662
1.54902
0.0248468
4.70574
0.0245218
0.287612
4.83602
6.37056
4.36154
0.274492
0.0293433
2.81517
0.484426
0.0321168
0.0716755
6.96645
0.0239031
0.0234539
1.97763
0.0451778
0.0224806
0.0245293
0.0239863
0.0251388
0.218444
0.0238703
8.30307
2.15599
0.023959
0.0257596
0.0251196
0.0222362
0.027781
0.0369394
0.0746782
0.023204
0.0244083
0.0362984
0.274547
0.840269
0.0511744
0.088226
0.0246224
0.0255286
0.56644
0.0252385
0.0929209
0.0461989
0.0485161
0.407172
3.97391
0.0237929
0.0253302
0.0540048
0.0249996
0.0244491
0.088861
0.467731
0.0249862
0.0245142
0.024604
0.0245375
0.28577
0.0622096
0.0931859
0.316118
0.0261538
0.101315
0.36235
2.83743
0.0253963
0.0260523
0.026825
0.0244472
0.0251352
3.30423
0.0250321
0.0239047
4.73911
0.0248631
2.46228
0.0224767
0.0239499
0.0259259
0.0957861
0.86348
0.023719
0.225266
1.37384
0.0249424
0.090747
2.61787
2.81249
0.0257052
0.0256955
0.041578
3.329
1.89673
0.0395436
0.0283206
0.0236204
0.304834
0.636503
7.86648
0.0255626
3.54645
0.0240707
0.486428
0.0332522
0.13043
0.0366574
3.61971
0.0247217
1.81202
0.0261923
0.0262375
0.033346
3.34421
0.0252252
0.773879
0.0236463
0.0863996
0.0264972
0.558982
0.0235408
0.0483514
0.592277
0.0247049
0.0244223
0.816015
3.01164
0.572552
0.37451
0.0351816
0.0272894
0.0257661
2.19007
0.0255847
0.0248733
0.0283002
0.429071
3.40587
4.25057
0.0426691
0.0246238
0.0255312
0.026278
0.0223659
0.0738279
3.25905
0.0640721
0.0479485
0.0238532
0.47863
0.0237739
0.0665298
4.0946
0.121729
0.0255634
0.0235074
2.27529
0.0242834
0.0467217
0.0364782
0.0643526
0.0238573
1.45546
0.0306834
0.0245615
0.0864753
3.88224
0.0875135
4.92297
0.0249973
2.82879
2.3532
0.0222335
0.0246078
0.0233063
2.0767
3.30997
0.0586382
11.0778
1.8736
0.0252032
0.0245321
0.0236156
0.0251447
2.88163
0.44449
0.0250595
0.0712789
0.0271259
0.0352294
0.0239523
0.0263
0.382354
0.0247189
0.0255393
0.0261548
0.0239684
0.0246415
0.0238037
0.0727999
0.0245484
0.510887
0.0918408
0.0243112
0.027311
0.0327871
4.49882
0.0239122
8.71562
0.0272051
0.0796245
0.0278
0.548557
0.727965
0.0246281
0.353225
0.432241
0.0238085
0.0363672
0.279269
0.0862853
8.27299
0.0244482
0.02474
0.194839
0.0254616
0.0525249
0.501435
0.088384
1.84801
0.0243353
0.733541
2.83028
0.0244867
2.84144
0.0757407
1.61806
0.0895438
3.16468
0.0244218
0.384561
6.66354
0.545117
0.509021
1.50926
0.411341
0.0244201
0.0324922
0.0272387
0.952288
0.0926226
0.394415
0.0230523
2.77509
0.0245381
0.0229899
0.0248376
0.0504882
0.0279665
0.0252576
0.0240542
0.0226476
0.0844725
0.0258789
2.23892
0.0252942
0.705688
0.0232871
0.0222255
3.21681
0.0252162
1.00031
0.150706
0.0261492
4.63036
0.0695204
1.1289
0.0337902
2.17675
0.0245829
0.0254259
0.0235715
0.0300593
3.94348
0.673535
0.28772
0.025555
0.023007
3.41683
0.0247919
3.15637
0.0246404
0.0247936
0.0243301
0.0333571
0.143066
3.66742
0.0249163
0.025432
0.438298
0.022157
6.35058
0.403821
0.0325348
0.230123
0.0337969
0.0498375
2.78589
0.0258617
1.2931
0.0704076
0.0246897
0.522273
0.287107
0.0242637
0.0246366
0.0238448
0.0245995
0.135492
0.461464
1.97105
0.0231956
0.0238596
0.0242106
0.0256103
0.0247871
0.0283588
0.352079
0.0247804
0.0246244
28.1093
1.81596
0.219637
0.492442
1.2463
0.024054
0.303826
2.8593
2.83791
0.3648
0.0251235
0.335393
0.0818889
0.0241461
0.426788
8.38615
0.022402
3.6128
0.0250095
0.0245181
0.388857
0.0248022
1.46011
0.345091
0.0236097
3.28713
0.0355851
0.0268294
3.09459
1.05671
0.0241335
0.0240449
0.0243979
0.0249422
0.0269233
6.22654
0.0253582
0.0237812
0.144698
1.57378
0.107607
0.0583841
0.0245894
0.40226
0.0506985
3.09136
0.0236735
0.0238434
0.0250291
0.0251698
0.102956
0.0312071
0.022397
0.0994838
0.39439
0.0247948
0.023481
0.0348364
0.0250557
0.618847
1.12788
0.0273993
0.0252901
0.0232416
0.0249959
0.0259921
0.0243659
0.0247348
0.0247489
0.397436
0.0246391
0.442739
0.0241624
0.542288
0.0259765
4.21752
3.94265
3.99253
0.294592
1.94467
0.0848414
0.308808
0.484463
0.0935627
3.67361
0.0262644
0.676022
2.7945
0.876313
0.0232065
0.394086
0.0243867
0.314739
2.73746
0.163684
0.0245402
0.0237748
0.0242461
0.0260433
3.92385
7.23704
0.0253754
1.63214
0.488361
3.35732
0.0235635
0.158215
0.0907306
0.0350392
0.856827
2.94169
0.199412
0.0247532
0.141684
0.0414223
3.19059
0.0241571
0.0232785
0.0246678
1.07379
0.554746
0.0242537
0.0248351
0.0249245
0.0243613
3.89287
0.285606
0.0500679
0.810088
0.0243222
3.36872
0.96148
0.686493
0.0266191
0.0691669
0.0896678
1.44411
0.0231015
1.83567
1.56418
0.0284657
0.0254788
2.15037
0.0299942
2.90705
3.90674
0.0248419
0.0240485
0.0274599
0.0249475
0.0245212
0.0267984
0.0967848
0.0236818
0.0244165
0.0251548
0.0261825
0.0236868
7.38059
0.0258314
2.8985
0.0249648
0.0563423
0.0240185
0.0272177
2.5226
0.0301252
0.0247987
0.0265818
0.036475
0.0466757
6.89814
0.498829
3.79316
6.81919
2.31348
6.45616
0.478531
0.0804439
0.0362039
0.0234242
0.0240765
0.381076
0.0241782
0.0252653
0.0231853
0.0244238
0.0240157
0.0236583
0.0246308
0.0244909
3.07685
0.0258332
0.0250903
0.0236388
0.0272919
0.500734
0.028889
0.0495711
0.048458
0.0271698
0.425271
0.0242696
0.0330774
0.0240892
0.0314815
0.0249438
0.0484566
6.14918
0.0970757
0.0248673
0.0242475
0.714151
0.0247877
0.118305
0.0242122
0.245698
1.46856
0.114332
0.0272802
0.0828867
0.0247835
0.39288
0.0480921
0.492506
0.390881
0.522272
1.70022
3.05975
0.0244081
0.023522
0.0244649
4.26243
0.0241128
0.687181
0.0612269
0.0253358
2.55547
3.58671
0.0239423
0.0231285
0.288675
8.45606
0.475427
0.0245395
10.2576
0.0224062
0.656542
0.0414749
0.0373663
0.0274367
1.42871
0.0239798
2.99238
0.0272545
3.51518
3.29695
0.283404
0.0281176
0.0308289
0.0233863
0.0266804
0.023807
0.0335272
0.0249809
3.50508
0.0245873
0.0249994
0.0231606
2.89689
0.0238027
3.8485
1.14857
0.0771989
2.83932
0.0805021
0.165336
0.0255687
0.0307473
0.0241393
2.66964
1.11531
1.54097
0.667214
0.288248
0.108511
3.13127
0.0223106
3.07085
3.52808
0.677104
0.0250236
0.430096
11.3907
0.373941
0.0247182
0.0514237
0.427441
0.0230311
3.18971
0.025512
0.0481186
0.0253228
0.0582064
0.0220888
0.022746
0.0223074
0.0358643
0.0247241
0.33495
0.0248925
0.0235151
0.617994
0.0244301
0.0332146
0.0307821
0.0242765
10.856
0.0339462
0.0257387
0.0242955
0.0253757
4.94927
0.0243758
0.0238164
0.0532221
6.85598
0.0265227
0.135001
0.0230513
0.134602
0.02575
0.025003
1.60025
0.0384125
3.43356
0.0249013
0.109942
0.0265897
4.45261
7.3797
0.0248216
2.21216
0.0396737
0.0235374
8.4975
0.0329118
0.0257822
0.0666086
0.0257709
0.0242183
0.0272097
0.117214
0.0263366
0.0674203
0.0453733
0.12207
0.0228565
0.0938388
0.0250597
3.16494
0.0590945
0.0243652
2.93132
0.0242134
0.0238236
0.223203
11.8863
0.391138
0.163528
0.395908
0.627417
0.0242458
0.0247104
0.114946
1.6475
0.0256546
0.0691255
0.0259058
0.0244325
2.5433
0.0402846
0.0493833
0.060366
2.94775
0.0222637
0.0440778
0.026611
0.190403
0.721587
0.425703
0.0245269
0.0258118
3.00985
0.0273334
9.04344
0.372771
0.0246588
0.0597567
0.0387161
0.0232841
7.06374
0.0268774
1.84713
4.57097
0.0247353
0.0420005
0.0246574
0.0244875
0.0329587
3.33734
0.0227888
0.0258398
3.45613
0.0247032
0.252888
3.03269
0.0246868
6.31208
0.024364
0.0259141
0.023217
0.0242138
0.232383
0.0256274
0.0985819
0.0257512
0.0245768
0.087656
2.94308
0.0264683
1.24579
3.33572
0.38642
0.0252457
0.0255923
0.149158
0.0240945
0.0249148
4.63356
0.129238
0.0293869
0.0250798
0.0255086
0.244745
0.0246955
0.0237609
2.88909
0.0658896
0.0224283
0.0242336
0.53377
3.28138
0.0248124
0.0253186
0.103321
0.119377
3.16083
0.0236103
5.95272
0.026621
0.0264947
3.08567
0.225532
0.0938407
2.15572
0.0241669
12.4692
0.0263382
0.289434
0.463619
0.0244337
2.85867
0.025729
0.0233081
0.0302527
0.996751
0.903248
6.43882
0.0245063
0.0857849
0.0457694
0.0317361
0.0254433
0.0255889
0.0256599
3.20203
3.27636
3.59415
3.37381
0.0273689
0.0365527
0.311881
0.0284262
0.0241951
0.0272302
3.11389
0.0307411
1.43722
1.06607
2.71319
0.0287143
3.54354
0.0368685
0.0969495
1.74178
4.01556
1.09427
0.0924731
0.0246164
3.64251
0.0235269
2.46708
0.0230701
0.0239514
0.0253618
0.45514
0.549114
8.09354
0.0411862
3.87366
0.0245397
0.0458839
0.023374
0.104382
0.410329
0.959007
5.25721
3.22758
28.3827
0.462294
0.0250492
4.74204
0.0248044
3.30197
0.307158
0.0274231
0.0245308
0.755438
0.126052
0.0224256
0.0245563
7.10408
0.0236043
0.0247982
0.101539
0.64958
0.0228152
0.112339
0.0474325
0.324434
3.48091
0.0245126
0.0235592
0.259853
0.0246041
0.547785
0.0454705
4.37176
0.0332802
0.0372851
0.0235878
0.0222359
1.0457
0.044279
0.0585352
0.0266089
14.8154
0.245747
0.582135
0.412075
0.0254284
0.353111
0.0242812
0.0364746
0.0287979
1.95669
0.0233586
0.0233445
3.20093
0.151808
3.07221
0.0284973
0.492529
1.03732
0.026608
7.5315
0.0258518
0.0746949
0.368364
2.91382
0.0238571
0.682271
1.12246
2.90128
5.00518
4.59909
0.0272385
3.58938
0.230844
0.402035
0.0605335
0.0310088
0.0223037
0.0708022
0.0241221
0.547368
0.0304117
0.0251685
0.0255116
0.196445
0.314278
0.02415
0.374311
0.0916396
0.677573
4.68626
0.414507
0.0257623
4.48394
0.0228393
0.396882
3.25951
3.83423
0.0245901
0.146837
0.0245573
3.85784
0.0339206
0.229879
0.0365965
3.12514
0.0916986
2.1939
0.0234797
1.09349
0.379313
0.0247207
0.063954
2.19611
0.0252568
0.0244088
0.0362556
0.292832
0.024548
0.0242867
0.0240449
0.380274
0.0346884
0.0890008
0.31426
0.0313915
0.0267546
0.0220828
0.0231552
0.0229591
0.0789164
3.86423
0.0241997
0.0278596
0.0246127
0.0799797
0.0251488
0.458565
0.0255162
2.50839
1.18631
0.0247781
0.160674
0.0667125
0.0236001
0.022373
0.152033
1.08321
0.023721
0.251257
2.40462
0.511489
3.20458
4.35669
0.0618033
0.0246589
1.96637
0.0241794
0.139011
0.0229734
11.6204
0.0233129
0.453418
0.0265911
4.49322
0.0230494
4.53644
0.0223241
0.0247693
0.229344
0.0260602
0.0232991
0.0349993
4.56632
0.0242055
4.37784
0.0261632
9.54745
1.14464
8.21156
3.99272
0.0247288
0.0298159
3.1005
3.1728
0.0245104
0.0316372
0.0397712
0.0805573
0.0248514
2.18209
0.0691252
0.0232486
2.18769
2.52239
0.0260186
6.46531
0.0650017
0.245232
3.92155
0.0243779
0.0240658
0.386898
0.0243743
3.42826
0.026355
3.58293
1.91157
0.0232693
0.22154
0.0222935
0.177507
0.0246135
0.0341768
2.83565
0.024029
1.59239
0.0257036
0.0245121
0.104
0.0248446
3.14228
0.337016
4.06552
0.401619
0.296257
0.0253124
0.0241104
2.8565
2.83162
0.0235334
0.245877
0.0247788
0.0224087
3.36561
0.414255
0.0256971
0.0238579
0.0244115
0.0231007
7.76411
0.0245626
0.371531
0.0358064
3.96688
0.116998
0.155121
0.0241948
0.410162
10.3543
0.0537801
0.0253818
0.453612
0.0221717
2.97566
2.97847
0.0231693
0.0668064
0.0368071
0.0366565
0.0279403
0.0293401
12.9813
2.24849
0.668966
0.0245264
8.72249
0.0248899
5.95387
0.0892158
0.140588
3.48174
0.0243011
0.366292
0.0861987
0.0274537
7.56284
1.52233
3.22701
0.208364
0.0246632
0.173776
0.439124
0.0351272
0.267834
2.57505
3.81861
0.723694
0.0234764
0.0232324
0.0262174
0.0269538
0.0246239
0.0242462
0.0292177
0.0251115
0.0352475
1.41217
1.1072
0.0256801
3.70859
0.0342494
1.90663
0.0259825
1.32691
0.0972091
0.676392
3.21086
0.0240222
2.11499
2.91892
0.0247345
0.0248025
2.99295
3.18693
0.404511
0.231068
0.0242042
0.0263565
0.271781
0.0242844
0.0329573
1.56823
0.0231033
0.0668488
1.07181
2.18817
0.0248108
0.318168
0.0327202
0.0381357
4.22078
0.022177
0.02413
0.0231979
0.287501
3.0553
0.202437
0.0247913
0.375021
0.0251635
0.125178
0.357726
0.025458
0.0233348
0.024367
3.09126
0.369644
3.18036
0.0248954
3.03087
5.19003
0.104915
0.0242418
0.0772287
0.0244947
0.023102
0.0241383
6.32457
0.0837331
0.363087
0.0330197
2.10643
0.53844
0.0250751
2.80569
0.0312355
0.024525
0.271671
0.0303732
2.97077
0.364466
0.0249644
0.0233473
0.0247079
2.85334
0.210313
1.0666
0.087184
0.0709516
2.12426
0.284403
0.484299
0.492484
0.0648163
0.0246353
0.407814
0.0232827
0.0228346
0.132359
0.544535
0.0236839
0.024629
0.421085
0.0617442
0.0257132
2.95079
0.0249601
0.0397477
0.025314
0.260167
1.78096
0.0944506
0.0238294
0.0249593
3.2077
2.76463
2.82375
0.0681367
2.24515
2.54972
2.16518
0.50276
2.97053
0.0249886
0.523193
2.23249
0.0448763
0.0240681
0.0257873
2.85587
0.0248605
0.023278
3.58906
0.023966
2.80745
0.0222161
6.05716
6.61061
5.78228
0.0233168
0.0243371
0.393397
0.0222352
0.392014
0.0259431
0.566177
1.03367
0.0734435
0.0800797
0.0550973
15.8869
0.126887
0.0244932
0.0248272
0.123722
0.218705
0.36412
1.12449
0.0390588
0.0359057
0.0222582
0.121521
0.0251214
0.385408
0.0362731
0.154079
0.0247057
0.0306141
0.144554
0.0442575
3.12594
5.99458
0.0234562
0.0252011
0.0241785
3.02862
0.0243012
1.169
0.027285
2.14136
0.0232129
2.25832
7.23575
0.0227311
0.0243759
0.0802871
0.0865698
0.050968
0.0510322
0.0234974
3.58205
6.23536
0.0240395
6.094
0.338914
0.0823595
0.0322849
2.9473
3.4841
3.53733
0.492007
6.08996
0.0230474
0.405676
0.0240843
0.023128
5.46899
0.0827911
2.54031
0.15947
0.258967
0.747671
0.027224
0.024759
0.0237618
2.86416
0.0232153
0.072777
0.467814
3.19895
0.0221053
0.0234029
3.41568
0.0294093
2.79464
0.0250584
0.0258214
0.025204
0.0232187
0.0708282
0.577963
0.334148
2.22904
0.0374329
0.242176
0.312102
0.0535916
2.04461
0.0239369
0.199138
0.0243117
0.0243659
0.221902
16.41
2.25491
0.2338
0.0267214
0.880882
0.0235446
0.246261
0.496229
0.0241079
5.58553
0.0428201
0.0262226
0.0225377
4.63154
0.0520553
0.0236357
2.96823
0.285833
3.29174
0.0222772
9.21224
3.34544
0.387889
1.85488
0.0222012
4.00163
0.311448
0.49739
0.480367
3.75971
0.0269638
0.0360032
0.284006
0.0886329
0.0250231
0.0409846
0.0842804
2.21071
0.0444157
0.0241536
0.0257715
0.023599
0.024929
0.0270957
0.0249258
0.0239823
2.88597
0.0239559
0.129228
0.0245127
0.0235526
0.023558
0.0441386
0.0252395
3.55075
0.516468
2.39539
0.0231607
3.57883
0.522612
2.21486
3.10417
0.0288231
0.680068
0.0252704
2.34337
2.51898
1.11938
0.0267726
0.0421351
1.53406
0.0246418
0.0259605
0.0490536
0.02372
0.0225421
2.96999
5.49565
0.0254384
0.0505845
1.92243
0.0242896
3.45413
0.479468
0.265028
0.0239724
0.0244673
0.609496
0.0268885
0.023398
0.0261632
6.70163
0.632705
8.39978
0.0250746
2.1091
0.165274
0.0348981
3.90495
3.40623
6.44308
0.0233123
0.246972
0.0244946
0.02414
0.398596
1.02475
1.71828
0.398203
1.06072
0.0252573
0.0588619
5.83739
2.83839
0.0221689
0.02366
0.0235144
5.65831
0.402486
2.3535
0.0596285
0.0883502
0.0229102
0.0519416
3.00142
6.46864
0.0243362
0.129736
0.461621
0.186159
0.0259684
0.395899
0.0252802
0.026232
0.023483
3.14429
0.0241406
0.0237509
0.452186
7.63384
1.56837
0.480804
0.0233015
2.34038
0.0734774
0.0252243
0.0662798
0.0505737
8.48742
0.546807
3.86369
0.700464
0.0252031
1.09122
3.73347
0.0304219
0.0222208
0.235174
2.91455
0.0468875
0.0236518
0.0228212
0.0295039
0.0242271
3.26035
0.0246168
0.0244276
0.0379965
0.0247887
3.65738
0.0429409
3.41442
0.024049
0.943447
0.0388047
1.46006
0.0619616
0.0242068
2.30704
0.023811
0.0251945
0.0278903
0.0355114
0.343807
0.0242089
0.173579
0.113013
0.0292372
0.0241839
2.88536
0.0288369
0.0645852
27.2179
0.108532
0.464961
0.0244701
0.554894
0.0260435
0.360603
3.29483
0.376401
2.53185
0.0289331
0.0287136
0.0950034
0.125093
0.0244894
0.0242289
2.38153
0.0377731
2.91197
3.08636
1.81304
1.19513
0.024131
0.0252001
0.0692056
2.28831
0.026057
0.0236381
0.0230719
0.246046
0.0243007
0.0221761
0.0844022
0.0288809
0.0798173
0.0231862
3.24124
0.333386
0.264727
0.709839
2.25401
0.0395233
0.0231312
3.54084
0.290529
1.4304
0.0245139
0.0243547
0.0241075
0.152377
0.341631
0.028791
0.0243004
0.0371408
3.12048
0.0231023
0.0234172
0.351189
0.024997
0.0251719
0.108016
0.0245202
0.0303866
2.62694
0.0249928
6.31484
0.200892
0.681469
0.0255186
0.0283934
0.0694103
0.076292
2.97466
0.0230363
0.0229864
0.0345838
2.53891
0.0244204
2.32586
0.0231266
0.0231037
0.0316738
0.0252644
0.0443595
3.18336
2.86748
0.223333
3.11849
0.0271374
0.024617
1.162
3.92823
0.416403
4.30481
0.0238397
0.0222937
4.45075
0.0413206
0.023956
0.451215
2.45674
2.14023
0.23842
3.31544
0.556918
0.0273081
2.71611
0.0235872
3.65155
0.657214
2.4594
0.526234
0.2081
0.0235296
0.0300773
3.49769
0.0243424
0.0246947
0.0289297
0.0246414
0.285764
0.0235067
0.0248912
0.0223506
0.0233094
0.0249353
0.0236947
2.78762
0.0255476
0.0280925
0.479237
0.058439
0.396573
0.0222475
0.0319691
0.0243076
2.16795
0.0537991
7.63272
8.27075
0.0237367
0.0242123
0.0240758
0.0354838
0.0239188
0.0235366
0.687246
0.0232982
5.45031
0.023227
0.40626
0.0252204
6.87017
0.0253153
3.8229
0.023211
0.024959
9.26315
0.0322285
0.344502
0.20866
0.506312
0.0906271
0.461415
2.34
0.0362199
1.56598
0.0247929
2.85682
0.0254404
0.0245657
3.43946
3.34144
0.0239064
0.0307927
0.0246442
0.443621
3.8137
2.85641
1.52463
1.07592
0.024225
4.76669
0.0234906
2.22944
0.0258965
0.0350458
0.225288
0.0242013
0.0268253
0.0244249
0.0225865
0.0320455
3.36401
0.0235158
0.216116
0.0223341
0.0391964
0.0237498
2.10417
6.29558
0.104475
0.617067
0.0243557
1.61186
0.0249294
0.0232077
0.166029
0.0242698
0.0234775
3.10717
9.0899
0.0601606
0.0294988
3.01944
0.0623465
0.0265146
0.0358073
0.0528697
0.023909
10.0369
0.0245231
0.030175
0.0243438
0.0298768
2.48878
0.0254746
0.0286219
0.0230822
0.0240642
0.0291
0.201857
0.0313436
0.0242652
0.116034
0.0241218
0.0245435
0.0240837
0.0235371
0.0973615
13.9018
0.0245851
0.0232966
0.261348
1.06305
0.0247128
3.13902
0.106246
2.9603
0.0598083
0.0346227
0.112335
4.13499
0.0242024
0.0222774
0.0240981
0.0430131
4.35048
0.0643247
0.0242224
0.230744
0.0251061
0.0240894
0.0231243
0.0233833
0.0263065
0.058732
1.81964
0.0632955
0.0319538
0.0530465
0.0265121
0.036968
2.13425
0.488989
0.0347224
0.0853339
0.505231
4.89443
0.031502
0.0240749
0.0237879
0.0243056
1.51484
0.383181
0.0254491
0.0250795
0.449335
0.508725
0.275899
0.445799
0.52032
0.850665
0.0369808
3.19801
0.0238191
8.39464
3.6413
2.84864
0.024258
0.0467645
0.0237257
0.0247332
0.0239352
0.105378
0.0252784
0.039074
0.0363109
0.3494
3.75038
0.0253482
0.0252771
0.0488465
0.0232671
0.219894
0.544887
2.31108
2.09336
0.442901
0.024028
0.0235833
0.0242999
0.0566508
0.0274337
0.0223942
5.61606
3.20209
0.0620785
0.0261958
0.0240245
0.291008
0.670262
2.92621
0.0278065
0.0258242
0.0230275
0.371744
0.0240098
0.111099
0.0239606
4.94792
2.71066
0.0245403
0.0241403
1.10518
0.0771703
1.59456
0.0469653
3.54225
0.423374
0.47084
0.0352153
0.078876
0.0487084
0.0474121
4.18858
0.0362801
0.0716525
3.52026
0.0274571
0.0263193
0.0248515
0.0271623
3.1547
0.0256623
0.505103
0.484058
0.121777
0.0238521
6.497
0.0233217
5.60537
3.50553
0.0231171
5.32682
0.177935
0.0246008
0.0241998
0.0739333
3.25794
0.0633232
0.0619029
3.44195
0.0898151
0.0230988
0.0259923
1.9933
0.0228192
0.0360744
10.8825
0.930228
0.0301364
0.489818
2.60684
0.0270412
0.0271416
0.0866633