/*--------------------------------*- C++ -*----------------------------------*\
| =========                 |                                                 |
| \\      /  F ield         | OpenFOAM: The Open Source CFD Toolbox           |
|  \\    /   O peration     | Version:  v2012                                 |
|   \\  /    A nd           | Website:  www.openfoam.com                      |
|    \\/     M anipulation  |                                                 |
\*---------------------------------------------------------------------------*/
FoamFile
{
    version     2.0;
    format      ascii;
    class       volScalarField;
    location    "100";
    object      p;
}
// * * * * * * * * * * * * * * * * * * * * * * * * * * * * * * * * * * * * * //

dimensions      [0 2 -2 0 0 0 0];


internalField   nonuniform List<scalar> 
27915
(
0.000773542
-0.0427896
-0.0332213
0.00478302
0.00602496
-0.00665001
0.00167223
-0.0368021
0.00580401
-0.0276278
-0.00586774
-0.0293331
0.00333359
0.00162969
0.000138908
0.00300635
0.0338966
-0.00203902
-0.0437899
-0.0363258
-0.00254169
-2.34458e-05
-0.00319088
-0.00102695
0.00293748
0.00427204
-0.0751025
0.00595741
-0.0327316
-0.020526
-0.00399622
0.00898078
0.00400031
0.00409824
-0.106516
0.00410817
0.0041333
0.00425454
0.0111356
0.00463505
0.0088308
0.00405078
-0.0470874
0.0016225
-0.0447824
0.00474279
-0.000345275
0.0113387
0.00368385
0.00490574
-0.0369218
0.0233181
-0.1452
-0.0171531
-0.0273685
-0.000430945
-0.00511625
0.00552172
0.00740002
-0.00410832
0.0561291
0.00746466
-0.0570874
-0.109862
-0.003382
0.0104753
-0.0356505
-0.0372386
-0.101019
-0.00418878
0.00257582
-0.000784347
-0.00231534
-0.0446556
-0.0290306
0.00231425
-0.0197947
0.00345485
-0.26687
0.00304811
-0.00691813
0.0060716
-0.0200355
-0.0332691
-0.157821
-0.032173
0.00402017
-0.0467779
0.0117825
0.00317612
0.00479104
-0.0465804
0.00486798
-0.0740426
-0.035708
-0.0341462
0.0110397
-0.0282335
0.00735425
0.000837377
-0.039648
0.00423539
-0.0284977
0.00632031
0.0108668
0.00613142
-0.14069
0.0338881
0.00422273
-0.0305064
-0.123145
0.00851991
0.00111881
0.00161788
0.0321845
0.0268928
-0.00767114
0.00825044
0.00629926
0.00351473
0.00461649
0.00122706
0.00402483
0.00036021
0.0029241
-0.0768637
-0.0794439
-0.112746
-0.00147104
0.00538881
0.00795836
-0.0687436
-0.0709673
-0.0471306
-0.0235636
0.0189691
0.0265831
0.00390964
0.00539836
0.00449211
-0.00379176
-0.028436
0.00377588
-0.0667057
-0.133255
-0.036638
-0.0264277
0.0110485
0.0026427
-0.0209217
-0.00205469
0.00389529
-0.0278046
-0.0757709
0.0190348
-0.0468159
-0.0746535
0.000911154
0.00139945
-0.00356922
-0.0603592
-0.199265
0.00464948
0.00405778
-0.0305391
-0.00933916
-0.0235
-0.0318295
-0.0270114
0.00406781
0.0117934
-0.00270247
0.0028791
0.0115505
0.00162343
-0.0164557
-0.0318068
0.00618
0.00166885
-0.20918
0.0043265
0.00345244
0.00389218
-0.038452
0.0178999
-0.00279301
0.0028085
-3.5038e-07
-0.0340999
0.00400654
-0.0389552
0.00382345
-0.063635
0.00616219
0.000166408
0.00250879
-0.00436901
0.00376976
0.00397041
-0.015152
-0.147366
0.00973523
0.000959493
0.00359838
-0.0182421
-0.0258034
-0.02205
0.00449854
-0.178724
0.00590014
-0.0179012
-0.00699895
0.00391909
-0.00511182
0.00305077
-0.00347124
0.00424908
0.0211009
0.00541415
0.00595541
-0.000311282
0.000291615
-0.0269757
4.61218e-05
-0.141561
0.00265945
0.00132768
-0.0670476
0.00546672
0.00379456
-0.0239043
0.00241438
-0.00408769
-0.0286844
-0.00217598
0.00311103
-0.022772
-0.00358568
0.00382728
0.00461292
-0.0719881
0.00654222
0.00231133
0.0118808
-0.00143066
0.00166323
-0.0714923
-0.11101
0.0115612
-0.0627823
-0.0308607
-0.0401231
0.000213984
-0.00411236
0.00598302
0.0126936
0.00013787
0.00562034
-0.0110314
-0.135522
-0.0280388
-0.0462064
0.0142121
0.0118792
0.0153325
-0.0366925
0.00373181
-0.0371905
-0.0423556
-0.131317
0.00502839
-0.140858
-0.194295
-0.0379381
0.011132
0.00367885
0.00647044
0.00630166
0.00450934
0.000185998
0.00537912
0.000989788
0.00343196
0.00219612
-0.0287538
-0.0304903
-0.040458
-0.0555958
-0.0192649
-0.038311
0.00282415
-0.00153011
-0.193527
0.000936461
0.00643029
-0.045041
-0.0461831
0.00817865
0.0110275
-0.00507291
0.0535749
0.00440463
0.00506687
0.00396996
-0.0352399
-0.214064
-0.014475
0.00206656
-0.272498
0.00502175
-0.0641498
-0.0130843
-0.126716
0.00559898
-0.0644251
0.00370364
0.000839885
-0.0357429
-0.111762
-0.0258407
0.00192193
0.000195129
0.00363657
0.00039029
0.0145681
0.00443485
-0.0507874
-0.0330405
-0.00053905
0.00406979
0.000734449
0.00221981
0.000250708
0.00507998
-0.0340986
0.00151089
0.0212831
0.00453218
-0.0115506
-0.0283381
-0.0185533
-0.0418581
-0.111258
-0.147534
0.00150949
0.00231339
-0.0127662
-0.077097
-0.0318606
-0.00122954
0.000591428
0.00464749
-0.0727746
0.0144188
-0.0209722
-0.0690161
0.00389272
-0.00179246
0.00455981
-0.0316952
-0.0332832
0.00504306
0.00495324
0.0026334
0.00241062
-0.0348395
0.0135996
0.00466691
-0.00367758
0.00481447
-0.0302602
0.00155736
-0.0360934
0.000980184
-0.0380964
0.00157735
0.00378414
-0.0446763
0.0142995
0.000179057
-0.00418151
-0.0502111
0.00944896
-0.0276193
-0.0669125
-0.0125287
-0.0596175
-0.0509788
0.00467848
-0.0615535
-0.0102237
-0.103769
-0.0333486
0.00373201
-0.0279617
-0.0420511
0.0133293
-0.00484744
0.00263848
0.00682026
0.00458759
0.00803428
-0.0356036
-0.0155803
0.0559682
0.0027223
-0.0018138
-0.00501956
-0.0256338
-0.0247565
-0.0344589
0.0144018
0.00367222
0.000395771
-0.00870666
-1.07863e-05
0.0276376
0.00518439
-0.0411519
0.00277788
0.0227176
0.00398877
-0.0373492
-0.041491
-0.313887
0.00516671
0.00466025
-0.20725
-0.039329
0.00483675
-0.0738462
0.0051346
0.00340276
-0.0198203
0.00479147
0.00464219
-0.000963678
-0.00227853
0.00287118
-0.0462765
-0.128793
0.0138838
0.00326529
-0.0284994
0.00274723
0.00249075
-0.0345507
-0.0149288
-0.0534657
0.000194814
-0.0851626
-0.0728387
0.00387993
-0.0022062
-0.120393
-0.00451929
-0.126898
0.00239372
-0.0308244
-0.0349274
0.00368655
-0.00489048
0.0310913
0.00398909
-0.0292931
-0.0305095
0.00303195
0.00122579
0.0565459
0.000189358
0.00172256
-0.0388537
0.00151259
0.00450553
0.00394438
0.011608
0.00179343
0.000923625
0.00980662
0.012398
-0.00393837
0.010656
-0.0351946
-0.00972888
-0.0500281
0.000514085
0.00898853
0.00146477
0.00323752
0.00409536
-0.00620113
-0.00385491
-0.0525131
0.00508539
-0.0292647
-0.00660401
0.00289116
-0.115374
-0.0572011
-0.0338722
0.000885693
0.00519768
-0.0262246
-0.0303698
-0.302793
-0.0321585
0.00478465
0.00506684
-0.110146
-0.0361329
0.00386438
-0.0120342
-0.0461864
-0.137396
-0.11135
-0.0306685
-0.054595
0.00474335
-0.0366319
-0.00477688
0.00400677
0.00391092
0.00462703
-0.0953128
0.000188333
-0.0213694
-0.0169122
-0.035966
0.00265288
-0.0338276
0.00102857
-0.0048528
-0.0251927
0.001841
0.0108705
-0.0700546
-0.0336307
0.00548421
-0.0405811
-0.000985372
-0.0035381
0.0035037
-0.00433938
0.0063934
0.00489455
-0.0296558
0.00451897
-0.0363249
0.0045661
-0.0600629
-0.003952
-0.00368716
0.0194747
-0.0602403
0.00947411
0.00432231
-0.027041
-0.036974
-0.000632445
0.00354107
-0.110665
-0.0279074
-0.0471351
-0.0217697
-0.00449938
-0.00334191
-0.0238084
0.00473815
-0.0763313
-0.0144275
-0.0438267
-0.139282
0.0118722
-0.0400523
0.00393852
-0.0282377
-0.0474121
-0.0882665
-0.00642017
0.00407662
0.00228184
-0.0419323
0.00800725
-0.0361265
-0.0132632
0.00401861
-0.0338489
0.00413753
0.00102524
-0.0315693
0.00252856
-0.0110311
0.0335286
0.00886439
-0.159131
0.00405744
-0.0437051
0.0102328
0.00467217
0.00397614
-0.07931
-4.25598e-05
0.00394377
0.00398044
-0.0329846
0.00106065
-0.0311027
-0.00383995
-0.00332297
-0.025845
-0.037955
0.00390337
-0.0343315
-0.149002
-0.0300045
-0.00125612
0.000809538
-0.0327793
-0.0406443
-0.0291072
0.000721837
0.000867092
0.00398142
0.000137896
-0.000511603
0.00494618
-0.00616264
0.00303077
0.0045248
0.00260193
0.000598926
-0.0676841
-0.0283963
-0.0293994
-0.135027
-0.105278
-0.111254
0.000720178
-0.00441904
0.000724725
0.00934467
-0.0105553
-0.0373258
-0.014244
0.00477148
0.00020088
-0.0299565
-0.00359297
0.00153072
-0.0364079
0.000399957
0.00587202
-0.0500589
-0.128736
-0.0376435
0.00522442
-0.0918931
0.011875
-0.176172
0.00282684
-0.0166873
0.0528093
0.00395612
-0.0366703
-0.0440879
0.00400052
0.00170153
0.0292438
-0.0260825
-0.00233438
0.0039121
0.0054428
0.00483237
-0.00338697
0.00292269
0.00253897
0.00383291
-0.0812149
-0.0100177
-0.110596
0.00111847
-0.00292306
0.00131606
0.00472741
0.0033242
0.00420389
0.00217834
-0.00414585
0.00483441
-0.000723425
0.000173793
-0.0759265
-0.000304954
-0.00924341
0.00409986
0.00393939
-0.153215
-0.13833
-0.138136
0.00554319
-0.0552108
-0.0994061
0.0112977
0.00386222
0.0120923
0.00563356
-0.0400192
0.0112069
-0.0129407
-0.0372284
-0.00969671
-0.0140605
-0.00191625
-0.0491364
-0.0394195
-0.0803514
0.00409144
0.000168872
0.0055243
-0.0319494
-0.115822
-0.012299
-0.212247
0.00444324
-0.0394691
-0.0434002
-0.0199715
-0.0214872
0.0152122
-0.09947
0.00289979
-0.0471835
-0.195467
0.000823755
-0.0485862
-0.110709
0.00483373
-0.0169494
-0.0457001
-0.0376707
0.000608535
0.00328514
-0.0223024
-0.0722676
-0.00671237
-0.0439262
-0.0299068
0.00332578
0.0473607
0.00481506
0.00233303
0.00479988
0.00307926
0.00495625
0.00713385
0.0466796
0.00236637
0.00145446
-0.00426198
-0.103839
0.00466368
-0.0246782
0.00207113
-0.0315048
-0.000554298
-0.0336387
-0.0390268
-0.0452322
-0.0350611
-0.110514
-0.0581583
0.00405317
-0.0866317
-0.0447454
-0.00727952
-0.0211335
0.00321875
-0.0222368
0.0523576
-0.01033
-0.000409192
-0.0185817
-0.00431618
0.00396369
0.00086484
0.0014526
-0.0383099
-0.0176076
0.00549715
0.0128798
-0.017434
-0.0409955
-0.0359877
0.00274828
0.00149016
-0.030534
-0.0504601
0.0049943
-0.0375993
-0.00392467
-0.127012
-0.107876
-0.00632267
-0.00234863
0.00327928
0.00692576
-0.192081
-0.00114244
0.000306246
0.0113501
0.00127892
0.00498126
-0.0353102
-0.170653
0.00193267
-0.0121478
-0.0842241
-0.135473
-0.0256359
-0.046578
-0.000205813
-0.152754
0.0135814
-0.208585
0.0037808
-0.0500537
0.00512521
0.0104506
0.00199183
-0.116261
-0.133805
0.00229519
0.004966
-0.0203455
-0.0486296
0.000150095
-0.000953503
-0.0173194
0.00713972
-0.0440217
-0.0302721
0.000878048
-0.0844439
-0.0284548
-0.11739
-0.0274271
-0.0299717
0.00546243
-0.00999422
0.00517886
-0.114367
-0.0576054
0.00285227
-0.0450149
0.00164252
-0.0193172
-0.00391301
0.00139682
-0.0502171
0.00291897
-0.112428
0.00299012
0.00460634
0.00463767
-0.0287584
-0.282882
0.00415794
-0.265731
-0.188145
-0.0221507
-0.0436631
-0.0179257
0.00139461
-0.00632722
0.00320438
0.00957654
-0.266083
0.00146029
0.0025511
-0.0103238
-0.0408335
-0.041233
-0.0354984
-0.00387143
-0.0341067
-0.00366763
0.000412538
-0.00069657
-0.0287553
-0.0287685
-0.0337044
-0.0070692
-0.0475236
-0.0310942
0.0130849
-0.252014
0.00432576
-0.00182568
0.0106431
-0.00362774
-0.0484476
-0.0654579
-0.0367923
-0.0112486
-0.0328978
-0.0362876
0.00374003
0.00430488
0.00327542
-0.0379908
0.00362011
-0.0403562
0.000192847
-0.160728
-0.0463311
0.00573177
0.00345532
-0.101862
-0.00082834
-0.0347082
-0.00508591
0.00235474
0.00557907
0.000285127
-0.21228
0.0033108
-0.00619407
-0.0135682
0.00556626
0.00190884
-0.0866103
0.00289665
0.00326918
0.00430871
-0.130969
-0.112069
0.00579981
-0.0226065
-0.00984844
-0.0299966
-0.0165301
0.00411113
-0.00642271
-0.0104427
0.0109969
0.00574332
-0.0590943
-0.0160534
0.00440612
0.00355088
-0.0116678
0.00380188
-0.0356868
0.00208502
0.000848595
-0.0310954
-0.0424333
0.00460167
-0.00382119
-0.00593681
0.0101561
0.00574404
-0.00624806
0.010318
-0.257476
0.00403912
0.00377296
-0.0110504
0.00404048
0.00302449
-0.0488001
0.00327362
-0.0137096
-0.0378322
-0.0403365
-0.0316776
0.00235569
-0.0283343
0.00945794
-0.000744596
0.000719764
-0.0280713
-0.00507601
0.00247298
-0.0935246
-0.0219802
-0.0374543
-0.0326902
-0.0252521
-0.0896423
-0.0724279
-0.110785
-0.00948794
-0.125274
9.22584e-05
-0.0191279
0.0104158
0.0128647
-0.0319098
-0.0261726
-0.0882096
-0.0044094
-0.034943
-0.0386159
-0.00300818
-0.019675
-0.0133899
-0.0414073
-0.112025
0.00232183
-0.00584696
0.00485699
-0.098459
0.00219814
0.00458081
0.011883
0.00956595
0.000326052
-0.0741397
-0.0113566
-0.0436968
0.00425784
-0.0261001
-0.00334511
-0.0356206
0.00506028
0.00385843
-0.0290579
-0.111877
-0.00222137
0.00391289
-0.00652808
0.0034172
-0.031776
0.0136335
0.00342564
0.029011
-0.0351925
0.00379938
-0.0398327
-0.0296927
0.00118446
0.000190835
-0.0444687
0.00477714
0.0120615
-0.0316938
-0.0187342
0.00406271
0.00351301
0.00249737
-0.0301624
-0.0293557
-0.126449
-0.00188903
-0.0137095
0.00423917
-0.0478914
0.0123272
0.00659362
-0.277367
-0.00659478
0.000797642
-0.0091779
-0.00598834
-0.0122792
-0.000761222
0.00116807
0.0048784
0.0032485
-0.00294532
0.00115276
-0.0221335
-0.0202033
-0.110749
-0.000874627
-0.0277838
-0.0439196
0.0127398
-0.0102057
-0.025484
-0.0399908
-0.290594
-0.0408006
0.00500975
-0.0413064
0.00237402
-0.0434333
0.01025
-0.113802
-0.0305235
-0.00259744
-0.00897303
-0.031686
-0.0796887
-0.0305431
0.00260635
-0.00169094
-0.0244176
0.00391032
-0.049229
-0.206688
0.000116446
0.032375
0.00958482
0.0115411
0.00455108
0.000113533
-0.0491587
-0.0714516
0.0120931
0.000728175
-0.0348507
0.00750116
0.000669097
-0.00459416
0.00745543
0.00488869
0.012466
0.00123951
0.00279005
-0.0468668
-0.0519658
0.0131902
-0.149542
0.00119415
-0.00533774
-0.0152106
-0.00343069
0.00338208
-0.0392419
0.00398788
0.000356955
0.0107812
0.00100128
-0.128512
0.0012539
0.00191558
0.00409375
0.000779334
-0.0176023
0.0032053
-0.0978766
0.00424096
-0.0386711
0.00398508
0.00225985
-0.00584183
-0.0377632
-0.0963175
-0.00733279
-0.0303945
-0.132484
0.00618691
-0.0306121
-0.0948855
-0.112926
-0.00111473
0.00819431
0.004453
-0.166482
0.00139327
0.00398684
0.00213319
-0.0014314
-0.0330119
-0.0586178
0.00031074
-0.146208
0.0104395
-0.0333505
-0.0389342
0.00403315
-0.0352295
-0.0156783
0.0046441
-0.0400619
0.00934916
0.00325763
-0.021304
-0.0441727
-0.0371717
-0.00210203
-0.00608939
-0.0426473
-0.000238417
-0.00311128
-0.169694
-0.268376
-0.132821
-0.0390505
0.00219328
-0.0409051
-0.0112938
0.000286802
0.00348809
-0.280258
0.00405071
0.00442186
0.0117991
0.0074775
0.00143988
-0.00548207
0.000758004
-0.0137482
0.00173659
0.00245587
-0.273686
-0.00806278
0.00503722
0.00510432
-0.0132534
0.000684584
0.00278082
-0.0379436
0.00253573
0.00396343
-0.00371983
0.0112331
-0.000554048
-0.0304404
0.00427332
0.0135379
-0.00871259
0.00391298
-0.0346392
0.0025481
0.0114403
0.00389148
0.0120304
0.0134209
-0.120813
0.00469895
0.00406567
0.0178709
0.00185179
-0.00484713
0.0219106
-0.0709286
0.00405769
-7.98634e-05
0.00610015
-0.00550539
0.0018537
-0.0366341
0.00293915
0.000171065
0.00577575
-0.044685
-0.0130906
-0.0698719
-0.00606801
0.00763644
0.00537603
-0.00493175
0.00412235
-0.0402
0.00549624
0.00398485
-0.177511
-0.0135463
-0.117001
0.00139855
0.00500659
-0.00101326
-0.0263987
-0.05885
0.00230953
-0.0434096
-0.0371681
-0.0159676
-0.0439098
-0.0632202
-0.0448622
-0.00380442
0.00487626
0.0102071
-0.036019
-0.0756079
0.0121219
-0.0293242
0.00461044
0.00193831
-0.036255
-0.110446
0.00252568
-0.0882594
0.00109466
-0.0263713
0.00573155
-0.0503101
0.0110415
-0.0601073
-0.0110298
-0.0415448
0.00789705
0.00618831
0.0058437
-0.0357679
0.00398667
0.00965951
0.00150967
0.00299402
0.00817178
-0.0230768
0.00336623
0.0123278
-0.0390641
-0.0107585
0.00491981
-0.0678401
-0.0307532
-0.0283807
-0.048351
0.00405289
-0.0104773
0.00386894
-0.0349389
0.00770505
-0.00354494
-0.0238684
-0.00881212
-0.0297015
-0.125073
0.00217744
-0.000193806
0.00402309
-0.0207009
0.000115503
0.0260725
-0.026171
0.00880185
-0.0201003
0.00351746
-0.0265768
0.00209769
0.00827121
-0.123855
-0.0483332
0.00767641
0.00450406
-0.105893
0.00485933
-0.0261115
-0.0015941
-0.0460017
0.00344518
-0.0349945
0.00411173
0.00357665
-0.038256
-0.205046
-0.0435588
-0.161852
0.00545225
-0.0485372
-0.0650956
0.000767557
0.00604857
0.00326361
-0.0731163
-0.145507
0.0194783
-0.0663055
-0.0952356
-0.0183151
-0.00555815
0.00324641
0.000993402
-0.0716195
-0.0359469
0.00486364
0.0129097
0.0041353
0.0109036
0.0027764
0.00789879
-0.0106125
0.00400224
-0.0130577
0.0057786
0.00373606
0.00468404
0.00468875
0.0250497
-0.00715701
-0.0288825
-0.0477458
0.00325236
-0.00191292
0.00892728
-0.188605
0.00418355
-0.111494
0.00275004
0.00680861
0.00216271
-0.0336347
-0.0256976
-0.00886322
-0.00484776
-0.00816027
0.0014179
-0.0377759
0.0540001
-0.0442109
-0.0260866
-0.00419774
-0.0073328
0.011829
0.00504778
0.0178715
-0.0360696
-0.0178007
-0.0851415
0.00093057
-0.0248381
-0.0557554
0.00234788
-0.103858
0.00514286
0.0105453
0.0312778
-0.0423773
0.00220972
-0.0118742
-0.0285251
-0.0106337
-0.0292534
-0.0742822
-0.0019443
-0.00383563
0.00205442
-0.0148924
0.0436918
-0.0449379
-0.00796962
0.00355163
-0.065751
-0.00577033
0.00200642
0.00330328
-0.0494553
-0.000172318
0.00409987
0.00542849
0.00170859
0.00291004
0.00259247
-0.0598244
0.00502474
-0.0568061
0.00312415
0.000712628
-0.142243
-0.00178433
-0.0844434
-0.0156771
0.0050934
-0.127482
-0.00850652
-0.0526731
-0.0118905
-0.00794572
0.00332127
-0.0208521
0.00418886
-0.0055633
-0.152734
-0.0189253
-0.00150294
-0.00517931
0.00344924
-0.178711
0.00479694
-0.0425108
-0.00900993
0.0037522
-0.00173018
0.0121792
0.00245593
-0.0735521
-0.0150323
0.00507419
-0.0251646
0.000157662
-0.275576
-0.0133061
0.00901877
-0.0469879
-0.016739
-0.0409677
-0.105883
0.00263365
-0.0336522
0.0117446
0.00372117
-0.0275884
-0.0348775
0.00193892
-0.00896269
0.00270011
0.00399912
0.00220935
-0.0270228
-0.0335199
0.00382457
0.00324421
0.00566862
0.00483631
0.00488011
-0.00443754
-0.0362393
0.00247187
-0.00867243
-0.0344002
-0.0816009
-0.0530077
0.00348956
-0.0341087
0.00294313
-0.038025
-0.0700864
-0.0511352
-0.0191668
0.00123392
0.0461356
0.0200334
0.000956167
-0.036033
-0.0306712
0.00127972
-0.027997
0.00394053
-0.00651044
-0.0144834
0.00220031
-0.0334946
-0.00285668
0.00444763
-0.0358536
0.00960911
0.00858569
-0.0476417
-0.0378229
0.00211327
0.00169001
-0.00347213
-0.0157923
-0.0256743
-0.329234
0.00476865
0.00480561
0.0121826
-0.079546
-0.00142959
0.00962148
0.00223762
-0.000120393
0.0119147
-0.0334272
0.00170269
0.00449747
-0.00124037
-0.00102948
0.0210592
0.0123916
0.00128118
-0.0439488
-0.0109028
0.00457329
0.00446494
-0.0304875
-0.0166248
-0.0164312
0.0490192
-0.0174401
0.0040408
0.00399199
0.002551
0.00790675
-0.00353204
0.00470167
-0.00763629
-0.0115477
-0.00886206
0.0111106
0.00383742
-0.0311731
-0.0109379
-0.0987765
-0.0360478
-0.124462
-0.00409067
-0.0282593
-0.00289
-0.0267149
-0.00185564
-0.0445125
-0.0555838
0.00406778
-0.0810448
-0.134538
0.0135533
0.0039627
-0.0124446
-0.00332765
-0.0436613
-0.135238
0.0435198
0.00491484
0.0032387
0.00576956
0.0047358
-0.0799214
-0.0780204
0.00739487
-0.0190711
-0.0691598
-0.028542
0.00417507
-0.00421715
-0.0435715
0.00681931
0.056041
-0.0383695
-0.0585877
-0.00643584
-0.00245758
0.00391033
-0.0268578
0.0043293
0.00404604
0.00358577
-0.04787
-0.0387765
0.00245773
-0.00286998
0.00220971
-0.00337367
-0.14499
-0.00146265
0.0165349
-0.00492579
-0.00152819
-0.0273269
-0.0050649
0.0129657
-0.0241108
-0.00672213
0.00193193
-0.0367912
0.00128626
-0.0294997
-0.00541304
-0.0244131
0.00464916
-0.0467287
0.00542384
-0.0354476
-0.056204
0.00292114
0.00316293
-0.0105248
0.00372567
-0.00664802
-0.0162606
-0.0198282
0.00473852
-0.00468846
0.00410604
0.00808335
0.00479499
-0.0251966
0.00334253
-0.0388102
0.00485484
0.0096516
0.00363858
-0.0119289
-0.122158
0.00942346
0.00444645
0.00675734
-0.0102414
-0.0163331
-0.26475
-0.0365345
-0.0963625
-0.269345
-0.124204
-0.252362
-0.00186497
0.0197276
0.00593842
0.00437719
0.00343103
-0.0090568
0.00443128
0.00390452
0.00311422
0.0019528
0.00205003
0.00470463
0.00437225
0.00323765
-0.0473617
0.00402163
-0.000922044
0.00447175
-0.0157209
-0.0331498
0.0054622
-0.0270464
0.00835626
0.00909167
-0.00637292
-0.00208586
0.0124904
0.00322769
-0.0361333
0.00502517
0.00388751
-0.32041
0.0137815
0.00364935
0.00321287
-0.0527652
-0.00478916
0.00547108
0.00355974
-0.0407482
-0.0313664
-0.0448751
0.00538374
-0.043349
-0.00305604
-0.0111112
-0.0272257
0.0107814
0.0117202
-0.0290502
0.0208942
-0.128067
-0.00454742
0.00332287
0.00494372
-0.0509174
0.00107427
0.00913792
0.0053436
-0.0189633
-0.135686
-0.088183
0.00467254
0.00301446
-0.0378511
-0.0236026
-0.032668
0.00248875
-0.019121
0.000684827
-0.0515053
0.0069507
0.00661768
0.00773357
-0.0571
0.00322658
-0.056529
-0.00193902
-0.0663781
-0.0363672
-0.0443297
-0.0242532
0.0121607
0.00325533
-0.00277086
0.00155554
0.00938972
0.00308687
-0.0347934
0.00218727
0.00355279
0.003028
-0.045899
0.00452413
-0.210556
-0.0564779
0.0154404
-0.0346318
0.0216144
0.0441371
0.00736588
0.00946046
0.00185709
-0.0348902
-0.0531728
-0.0101423
-0.0525007
0.00582098
0.00548992
-0.146425
0.00105968
-0.0400285
-0.0942441
0.00979708
-0.0157279
-0.037342
-0.262433
-5.00782e-05
0.00477766
-0.0429482
-0.00628774
0.00350603
-0.0497683
0.00614152
0.0115368
0.00408876
-0.0364969
9.28612e-05
0.00252913
0.00102843
-0.0110514
-0.000416431
-0.00157582
-0.0119806
0.0037995
-0.0492704
-0.0040788
-0.0067101
0.000480425
0.0058022
-0.304813
0.0107082
0.00729697
2.69073e-05
-0.0199834
-0.0558882
-0.00309466
0.00452906
-0.0496467
-0.337401
-0.0236599
-0.0505717
0.0035526
-0.0511792
0.00736425
0.00249538
-0.035032
0.0104879
-0.0352163
-0.0123533
-0.0456088
-0.0290954
-0.0298708
-0.110598
0.00179804
0.00539965
0.00650252
0.00382035
-0.0711709
-0.0297674
0.00133584
-0.0462779
0.00486937
-9.93893e-06
-0.0170227
-0.0463312
-0.0196182
-0.0252563
-0.0220685
-0.0467384
0.00310275
-0.0151559
0.00329007
-0.0408373
0.0166569
-0.00297756
-0.122255
-2.92175e-05
0.00383337
0.00868401
-0.114188
-0.0133508
-0.0469439
-0.0104458
0.00923554
0.00365667
0.0050653
-0.0453733
-0.0366028
0.00764777
0.0126449
0.00734461
0.00480308
-0.0666696
0.00792794
0.00963309
0.00575835
-0.0332207
0.000668775
0.00291332
0.00819461
-0.0672485
-0.0294702
0.00239772
0.00501171
0.00782344
-0.0308214
-0.0135909
-0.0320329
0.000597826
-0.00964901
0.0169032
0.00600083
0.00215339
-0.268214
-0.017075
0.000560738
-0.184728
-0.00266365
0.00263815
0.00430699
-0.00513839
-0.00643708
-0.0257177
0.00277366
-0.00517368
-0.0319268
-0.00904508
-0.0756397
-0.0334357
-0.00873826
-0.154572
0.00228529
0.00799398
0.00399903
-0.00126768
-0.0633797
0.00714523
0.0325515
-0.00477877
0.00182965
-0.0431003
-0.0361769
0.00398887
-0.0762009
-0.153898
-0.00789174
0.00472909
-0.0128253
0.00354534
0.00353966
-0.00902665
-0.177848
-0.0433303
-0.0356974
0.00483134
-0.00192962
-0.0401589
0.000272394
0.00331572
-0.0420278
0.00676711
0.00133334
-0.00131441
-0.0334923
-0.180114
0.0030842
-0.00165055
0.00385562
-0.0448178
-0.0390766
0.00407472
-0.190959
0.00679472
0.00289194
-0.0476787
-0.00772091
0.0111069
-0.0924653
0.00284545
-0.29348
-0.0213045
-0.00247436
-0.00849558
0.00173644
-0.0381435
0.00741612
0.00415663
0.00216564
-0.0850664
-0.0190124
-0.254059
0.00469476
0.00906174
0.00778847
0.00299925
0.00591391
0.00471148
0.00644156
-0.0428505
-0.0274451
-0.187104
-0.0352743
-0.0144188
0.00891653
-0.0256995
-0.0280807
-0.00102671
0.00741894
-0.0313625
0.00284092
-0.0635347
-0.00988785
-0.0741887
0.00107507
-0.125888
0.0136146
-0.0448977
-0.0940322
-0.126547
-0.0543347
0.0298183
-0.00845533
-0.0308037
0.00417842
-0.122575
0.00281398
0.00473162
0.00391596
-0.00489678
0.00846489
-0.025983
-0.0442248
-0.0642376
-0.00629432
-0.0156228
0.00427688
-0.0475895
-0.0267198
0.0443352
-0.0420016
-0.0359534
-0.0331092
-0.0237969
-0.00129656
-0.0353381
0.000328279
-0.0305337
0.00530602
-0.000706848
0.00367813
-0.0354311
-0.0411812
0.00129362
-0.00654808
-0.0251808
0.00406253
0.00615913
0.0324816
0.00834538
0.00266617
-0.046095
0.0114683
-0.00149472
-0.0666126
0.00339141
0.00434996
0.00542274
-0.0081726
0.0596946
-0.0266709
-0.108953
0.010461
-0.0153647
0.00437326
0.000743785
-0.0404774
-0.0327655
-0.037128
0.00851842
-0.0179291
-0.0405231
0.00468697
-0.00487878
-0.00514237
-0.0041646
0.00160243
-0.0358852
0.00756902
-0.0563075
0.0041529
0.00327355
-0.041504
-0.0451806
-0.055784
-0.000374421
-0.0127818
0.00951833
-0.027287
-0.158291
0.00388374
0.00337793
-0.0161477
-0.129477
0.00259723
-0.050004
-0.00989487
-0.0486316
-0.125556
-0.132703
-0.000890959
-0.160839
-0.0457404
-0.0225082
0.0109215
2.84667e-05
0.000214985
0.0255409
0.00067932
-0.0173893
0.00331704
-0.00502659
0.00756261
-0.0583674
0.00146896
0.00341801
-0.0154135
-0.0472027
0.00580208
-0.154691
0.05196
0.00649318
-0.11485
0.00304227
-0.00942387
-0.0266226
-0.191085
-0.00804619
-0.0451748
-0.00721531
-0.206685
0.00216941
0.00486072
0.00457994
-0.0254405
-0.0180042
-0.0729025
0.00446241
-0.0245361
-0.00200018
0.00107282
-0.0402425
-0.0819138
0.00481641
0.00484467
0.0137627
-0.00372865
-0.00699376
0.000142005
0.00304521
-0.0134831
-0.0143299
-0.0447417
0.00502321
0.0121302
0.00228319
9.61635e-05
0.0026479
0.00202624
0.00493635
-0.209906
0.000135491
-0.0236226
-0.00699929
-0.0429517
-0.000845103
-0.0369365
0.00739218
-0.128661
-0.0355756
0.00456741
-0.0188349
0.00570523
0.000870841
0.000166317
-0.0446378
-0.0470679
0.00485129
0.00360052
-0.0575092
-0.0143269
-0.154266
-0.0317181
0.00996988
0.00458853
-0.0602238
0.00564226
-0.0443861
0.00271584
-0.0244134
0.00321035
-0.0264887
-0.0286168
-0.116513
0.00272699
-0.147913
0.00057937
0.00294414
-0.0465676
-0.0179429
0.00390555
-0.0263894
-0.0303568
0.00567385
-0.120159
-0.0228402
-0.110641
-0.0527279
-0.220644
-0.210908
-0.0112119
-0.0364484
-0.0473621
-0.0414198
0.00017338
0.0109551
0.0109979
0.00585828
-0.00132811
-0.0113028
0.0248963
0.00311154
-0.0399511
-0.149663
0.00809695
-0.162549
-0.00254369
-0.00392371
-0.0474408
0.00471734
0.00291484
-0.0103692
-0.00237278
-0.160015
0.00220599
-0.0676254
-0.0139893
0.00202628
-0.0491748
0.000704283
-0.0473184
-0.00429332
-0.0149409
-0.0796105
0.00346318
-0.0727359
-0.021364
0.00614847
0.0115968
-0.00954088
-0.0404954
-0.000395182
-0.204217
0.0480736
-0.00899083
0.00408647
0.00286171
-0.0550319
-0.0539713
0.00419143
0.00362082
-0.00857834
0.000256839
-0.18749
-0.0107324
0.00329282
0.0021293
0.00481858
0.00368648
-0.150771
0.00436462
-0.00150607
0.00639445
-0.0917605
-0.0466166
0.00532909
0.000314104
-0.0279321
-0.273828
0.0113804
0.00379531
-0.005322
0.000485224
-0.0620889
-0.0552036
0.0028267
0.0233788
0.00725636
-0.0449097
-0.001312
0.00993371
-0.245157
-0.0913118
0.00713825
-0.00596566
-0.0273771
0.00306802
-0.026135
-0.0444502
-0.0506076
-0.029137
0.00587812
-0.0128143
-0.0439712
-0.00775925
-0.335291
-0.0482936
-0.0269443
-0.0548457
0.00484867
-0.0455752
-0.0137381
0.0104225
0.00249994
-0.0117165
-0.0356268
-0.0284445
0.00210615
0.00397028
-0.019173
0.00530864
0.0024039
0.005725
-0.0358776
0.00302575
0.00661904
-0.0468776
0.0108175
0.000233846
-0.0912943
0.00382048
-0.0356162
0.00296739
0.0499429
-0.0336018
-0.0162362
-0.154307
0.00185135
-0.0556035
-0.047002
-0.00683462
0.00381853
-0.0562986
-0.0358212
-0.0259437
-0.0426911
-0.00109469
0.00833526
0.00490024
0.0021807
-0.0162666
-0.024132
0.00282898
0.0152571
-0.0472534
-0.0391962
0.00147616
-3.82601e-05
0.00947082
-0.0157703
-0.186856
0.000470243
0.000418699
0.00266468
-0.00541402
-0.0344276
-0.0544486
0.00473521
-0.0131864
-0.0177156
7.68264e-05
-0.0131149
-0.00485346
0.00200707
0.00370141
-0.0277492
-0.018163
-0.0316762
0.00450573
0.00690592
-0.16527
0.0032166
-0.0014637
0.00518976
0.00612791
0.00288102
0.000152289
-0.33382
-0.034625
-0.0322279
0.00476633
0.0262433
-0.0796611
0.00502617
-0.102862
0.0111773
-0.00602077
-0.0219024
-0.00537745
-0.0393506
-0.0163199
0.005183
0.00414426
-0.0106789
-0.0416139
-0.0125177
-0.0363876
0.0249545
0.0209544
-0.0992651
-0.0349415
-0.0222239
-0.0163702
0.0117418
0.00442677
-0.006535
0.00317335
0.00303575
-0.000723643
-0.0274099
0.00325536
0.00407982
-0.0329305
0.0121774
0.00160515
-0.0557087
0.00260967
0.00714211
0.00151283
-0.0229552
-0.0785088
0.00458584
0.00381975
0.00462108
-0.039906
-0.0965299
-0.0396689
0.011764
-0.0235571
-0.147232
-0.000737319
-0.0228012
-0.139239
0.00382406
-0.0368066
-0.0773159
0.00943925
0.00296003
0.00121174
-0.0375393
-0.00966274
0.0032268
-0.0349718
0.00395194
-0.095046
0.000648874
-0.0365437
-0.266557
-0.167111
0.00315357
0.0059234
-0.0771255
0.000219238
-0.00967633
-0.010368
-0.0320829
-0.0428567
0.00763708
-0.0395226
0.0179616
-0.270329
-0.0454718
0.000702558
0.00397846
0.00236979
-0.0154074
-0.0134272
-0.0349097
0.00674538
-0.0441235
0.00088836
-0.0487574
0.00658427
-0.0135701
0.00663313
-0.044499
0.00451822
0.00521515
-0.0444793
0.0103885
-0.033741
-0.0298986
0.00442319
-0.00704178
0.00379635
-0.0485844
0.00572632
-0.0516141
0.00405992
-0.0468518
0.00397466
-0.0826465
-0.120054
0.00270788
0.000322234
0.0281963
0.0275275
-0.0441525
0.00668608
0.00431391
-0.0912922
-0.2826
0.00139468
-0.113795
-0.0173722
0.0235006
0.00903175
-0.0398496
-0.028628
-0.0891143
-0.0251927
-0.287512
0.00278165
0.00245586
0.00549454
0.00379209
-0.0252593
0.00547804
-0.137568
0.00341369
0.0052085
0.0621293
0.00900784
-0.0106762
0.00469899
-0.0763941
0.00397629
0.0197509
-0.00323759
-0.0408857
0.000108187
0.0042071
-0.0283597
-0.0309634
-0.105681
-0.0159488
0.00626843
0.00724628
0.00312968
-0.0255141
-0.0362259
-0.0013443
-0.0402873
0.00623112
0.00273429
0.00462285
0.00669459
-0.00896553
0.00247275
-0.0627933
0.000723545
-0.00215467
0.00229149
-0.0211413
-0.086217
0.0132115
-0.0281504
0.0423576
0.00417653
-0.0200485
0.0010243
0.000414765
-0.111186
0.0105352
0.00827121
0.000223481
-0.12788
-0.042832
0.00466103
-0.036618
-0.0125508
-0.027068
0.000814691
-0.0359217
-0.0345894
-0.0129248
-0.0448905
0.000632713
-0.00372573
-0.00728567
0.00582279
-0.0232389
-0.0319604
-0.0158421
0.00586822
-0.00064813
0.0140864
0.00340822
-0.00382447
0.028039
-0.0826636
-0.0228324
0.00429476
4.07635e-06
0.00275577
-0.0100597
0.00286546
0.00296856
0.00532261
-0.0370227
0.00214625
-0.048154
0.000779989
0.00418983
0.00272406
-0.025892
0.00304043
-0.0895595
-0.00941535
-0.132004
0.00308007
-0.0304491
0.00434506
-0.0580419
-0.0288525
-0.0287528
0.00419911
0.0068482
-0.112443
-0.143933
-0.0543518
0.00491767
0.000536485
-0.053371
0.00485261
0.00762381
-0.0413336
0.000947595
0.00175837
-0.120476
-0.0327905
-0.0213508
-0.0455522
-0.0471586
0.00359872
-0.0327223
-0.0150087
-0.039512
0.00282066
0.00474191
-0.00168619
-0.0296642
0.00419439
-0.0183992
-0.248852