/*--------------------------------*- C++ -*----------------------------------*\
| =========                 |                                                 |
| \\      /  F ield         | OpenFOAM: The Open Source CFD Toolbox           |
|  \\    /   O peration     | Version:  v2012                                 |
|   \\  /    A nd           | Website:  www.openfoam.com                      |
|    \\/     M anipulation  |                                                 |
\*---------------------------------------------------------------------------*/
FoamFile
{
    version     2.0;
    format      ascii;
    class       surfaceScalarField;
    location    "100";
    object      phi_0;
}
// * * * * * * * * * * * * * * * * * * * * * * * * * * * * * * * * * * * * * //

dimensions      [0 3 -1 0 0 0 0];
oriented        oriented;


internalField   nonuniform List<scalar> 
41499
(
-0.24373
0.0108965
0.232833
-0.0794071
-0.0349666
0.114374
-0.00254399
-0.015403
0.017947
0.427282
-0.281531
-0.14575
0.315473
-0.334137
0.0186647
-0.0072404
-0.140637
0.147877
0.499018
-0.303787
-0.195231
-0.0260621
0.0146638
0.0113984
-0.0811477
-0.257432
0.33858
-0.0114845
-0.0152647
0.0267492
-0.0700756
-0.0956803
0.165756
0.0625371
-0.0464634
-0.146308
0.428873
-0.282565
0.264246
0.234772
-0.193032
-0.225696
0.418728
-0.30465
0.367628
-0.0629785
-0.0207493
-0.0956777
0.116427
-0.361969
0.193726
0.168244
0.068082
0.0172863
-0.0853684
-0.0149452
-0.0111169
-0.419557
0.237301
0.182257
0.332983
-0.137312
-0.195671
0.144481
-0.0646039
0.249053
-0.369331
0.120278
-0.40055
0.0959004
-0.301907
0.407794
-0.105887
-0.0287174
0.0851665
-0.0564491
0.328591
-0.0131189
0.0166485
-0.0162552
-0.000393328
0.214343
-0.219283
0.00494002
-0.138489
-0.188062
0.326551
0.00367857
0.130876
-0.134555
-0.282166
-0.110839
0.393005
-0.47813
0.370017
0.108113
-0.0589939
0.0316496
0.0273443
-0.396273
-0.0818571
-0.483745
0.31325
0.170494
0.075504
-0.377411
-0.0981619
-0.118177
0.216339
-0.194018
-0.145719
0.339738
-0.249574
0.0063541
0.24322
-0.282867
-0.200878
-0.0901365
0.0480229
0.0421136
0.196534
-0.407362
0.210829
0.0843135
-0.132117
0.0478033
-0.309062
0.115044
-0.126509
-0.200746
0.327255
0.0182131
-0.196302
0.178089
-0.493578
0.293962
0.199616
0.0670291
0.259143
-0.326172
-0.0296321
0.0146869
0.162662
-0.0559865
-0.106675
0.00675604
-0.0205406
0.0137846
0.0625231
-0.22537
0.162847
-0.211195
0.171821
0.0393737
0.21904
-0.345548
0.230937
0.117318
-0.348256
0.406817
-0.344817
-0.0619998
0.012409
0.394408
0.198566
-0.337055
0.098519
-0.128181
0.0296623
0.26675
-0.038071
-0.228679
-0.0542874
0.138601
0.00722889
-0.00722889
0.364362
0.0124871
-0.376849
0.09275
-0.190912
0.0187601
-0.0157692
-0.0138629
-0.0255904
-0.0334035
0.282967
-0.469919
0.186952
0.421227
-0.155189
-0.266038
0.334095
-0.0850418
-0.142464
-0.219506
0.340373
-0.331099
-0.00927424
0.0113563
-0.0212772
0.0099209
-0.438926
0.164159
0.274768
0.202573
0.0117695
0.291424
0.107331
-0.398756
0.00267973
0.00720838
-0.00988811
0.092508
-0.420565
0.328057
0.168417
-0.175657
0.380681
-0.21888
-0.161801
-0.180045
0.0220695
0.157976
0.000275277
0.0178272
-0.0181025
0.00533061
0.0411468
-0.0464774
-0.391001
0.283749
0.107252
0.495091
-0.167751
-0.32734
-0.0519076
-0.0382289
-0.0100517
0.0147018
-0.00465014
0.414365
-0.321857
0.0281717
-0.229224
0.201053
0.349015
-0.00864198
-0.303387
0.370416
0.103619
-0.0284108
-0.0752083
-0.0159584
0.0181652
-0.00220675
-0.0204106
0.0178666
0.196171
-0.0582824
-0.137889
0.0346907
-0.0106123
-0.0240784
0.198932
0.0678181
0.0829998
-0.403701
0.320701
0.0283078
-0.194849
0.166541
-0.312164
0.387668
0.0275025
0.00718817
0.461549
-0.211779
-0.24977
0.241506
0.0157446
-0.257251
0.206735
0.173946
0.0706009
-0.0723572
0.0017563
0.0834274
-0.138027
0.0545998
-0.448733
0.136569
0.0294115
-0.0111523
-0.0182592
-0.0824791
0.0329927
0.0494864
0.050385
-0.299959
0.00389321
0.309372
-0.313265
0.358223
-0.139897
-0.218326
-0.0748316
0.158259
0.0440299
0.118632
-0.0720763
0.0644418
0.00763452
0.155398
-0.151719
0.223027
0.238522
-0.275357
-0.218221
0.281406
-0.253234
-0.299713
0.303607
-0.447806
0.16564
0.142323
0.19066
-0.528509
0.22771
0.300799
0.228251
-0.100166
-0.128085
-0.220385
0.170347
0.0500378
0.000993305
-0.0124867
0.0930802
0.1925
-0.285581
0.319249
-0.422601
0.103352
-0.235753
0.0441536
0.1916
-0.0976113
0.068894
0.0448498
0.0587693
-0.00784494
0.0558678
-0.0430383
0.0736526
-0.0306143
0.232185
-0.150104
-0.0820818
0.00877156
0.0749121
-0.0836837
0.479671
-0.36347
-0.116201
-0.0994587
-0.276672
0.376131
-0.0665569
0.294447
-0.22789
0.430792
-0.430792
-0.0380334
-0.173161
-0.209612
0.4566
-0.246988
0.0241811
-0.0831039
0.0589228
0.0717473
-0.0327793
-0.038968
0.00101352
-0.0167827
-0.0140003
0.000159309
0.013841
0.21341
-0.195197
-0.295989
-0.142938
-0.179929
-0.000116241
-0.00223343
-0.0698429
0.320206
0.159465
0.153269
-0.0808095
-0.0724592
0.00213645
-0.0089167
0.00678025
0.0245585
0.061104
-0.0856624
-0.0378903
0.013196
0.0246943
-0.0551484
0.0840439
-0.0288956
-0.37835
0.411731
-0.0333809
-0.430465
0.0711834
0.359282
0.314557
0.16218
-0.476737
-0.0547023
0.126286
-0.0715841
-0.00521582
0.0222204
-0.0170046
0.443883
-0.317623
-0.12626
0.244598
-0.390661
0.146063
-0.36428
0.297748
0.0665325
-0.225681
-0.142266
0.367947
0.0811261
0.0721426
0.0700472
0.0710286
-0.141076
0.0251254
-0.0137691
0.398777
-0.432376
0.0335987
0.0904795
-0.293986
0.203507
0.345703
-0.168621
-0.177082
-0.270417
-0.258092
-0.202634
0.00633207
0.460308
-0.205814
-0.254494
-0.020202
0.00395329
0.0162487
0.0231972
0.00621431
0.474218
-0.251191
-0.462626
0.213909
0.248717
-0.0150463
0.00983044
0.00358897
-0.0136406
-0.441022
0.318685
0.122337
0.35726
-0.368909
0.0116488
0.0236164
-0.0226029
0.0892234
0.142962
0.339864
-0.112065
-0.2278
-0.469297
0.327903
0.141394
-0.307057
-0.155419
0.462477
-0.00441228
-0.0142594
0.0186716
0.135213
0.359878
0.0556452
-0.0439827
-0.0116625
0.0558749
0.104926
-0.160801
0.134931
-0.0438976
-0.0910335
0.228914
0.245304
-0.272988
-0.149775
0.422764
-0.510689
0.331605
0.179084
0.239412
0.100452
-0.171515
0.416113
0.245204
-0.454107
0.208903
0.152876
-0.193611
0.0407351
0.0170118
-0.0102557
-0.0829959
0.0807625
-0.388118
0.00976728
0.302489
-0.456363
0.153874
-0.00741108
-0.0127909
-0.00328697
-0.0107133
-0.0827058
0.143028
-0.060322
0.265913
-0.360648
0.0947347
0.0158172
-0.0311569
0.0153397
0.255324
-0.336472
-0.151484
0.193272
-0.0417882
0.0702229
-0.00864588
-0.0615771
-0.464059
0.339383
0.124676
0.255857
-0.374464
0.118607
0.263571
-0.431915
0.168343
-0.406374
0.00186049
0.404513
-0.121747
0.38766
-0.0699168
0.0944753
0.396802
-0.0775532
0.412939
-0.206204
0.277639
-0.342057
0.0644183
-0.260634
-0.155608
0.416242
0.230346
-0.0585254
-0.406556
0.0994985
-0.0160889
-0.000201485
0.0162904
0.0975787
0.260645
-0.174822
0.423437
-0.248615
-0.27173
0.240325
0.0314056
0.279406
-0.378865
0.34008
-0.464645
0.124565
0.0095513
-0.0133474
0.00379609
-0.133365
0.466933
-0.333569
0.0725018
-0.00227882
-0.0564116
0.126459
-0.275316
-0.144241
-0.198899
-0.23871
0.437609
0.0109077
-0.0788209
0.0679133
-0.404901
-0.00147329
0.430514
-0.0732536
-0.417908
0.319425
0.0984829
-0.0960571
-0.175673
-0.00303959
-0.204689
0.207729
0.287862
-0.0127431
-0.0702529
-0.175651
0.268731
-0.342494
-0.120132
0.0074895
-0.00535305
0.00926477
-0.00926477
-0.181306
-0.0749752
0.256281
0.0366816
0.0982496
0.225905
-0.0802372
-0.145667
-0.0279696
0.0273949
0.000574711
0.352541
0.0178755
-0.370417
-0.344108
0.156046
0.208875
0.204065
0.0542466
0.141924
-0.0103157
-0.233414
0.422557
-0.253641
-0.168916
-0.180721
0.123947
0.0567742
-0.00241232
0.0730132
0.0190699
-0.0202647
0.00119485
-0.0445117
-0.0678125
0.112324
-0.256504
-0.0266562
0.283161
-0.338221
0.1465
0.191722
0.0127853
-0.26929
-0.0233937
0.0705516
-0.0471579
-0.430725
0.0866316
0.344093
0.040619
0.0150262
-0.0275568
-0.000412825
0.0717648
0.00235967
-0.0741245
-0.403346
0.14958
0.253765
-0.017153
-0.00746967
0.0120768
-0.00190616
-0.0101706
-0.312407
0.131101
-0.276931
-0.153794
0.418313
-0.267262
-0.15105
0.249856
-0.252896
-0.409419
0.113878
0.295541
0.338246
-0.195923
0.12013
-0.500847
0.369393
0.131454
0.454455
-0.163031
0.312878
0.154055
-0.359067
-0.0107772
0.369844
-0.0282523
0.0262789
0.0019734
0.00485734
-0.00809369
0.00323635
-0.0813581
0.271633
-0.190275
0.242904
-0.0403305
0.041152
-0.054922
0.01377
0.139184
-0.199685
0.0605007
0.346847
-0.196654
-0.150194
0.0147507
0.397093
-0.106302
-0.290791
0.206534
0.0680306
-0.112542
-0.314816
0.409198
-0.0943825
0.0492854
-0.119541
0.0702552
0.0445245
0.168886
-0.152689
0.408546
-0.175796
0.0713952
0.104401
0.246531
-0.368278
0.250706
0.11823
-0.368937
0.342546
-0.0973418
-0.12034
-0.27066
0.0114903
-0.00642105
-0.0050692
0.19693
-0.0440549
0.464185
-0.350962
-0.113223
0.00969714
-0.00701742
0.127302
-0.421077
0.293775
-0.145318
-0.154952
0.30027
0.0760975
-0.256489
0.180392
0.0420091
0.0102838
-0.0522929
0.212492
0.210065
-0.241375
0.461721
-0.219867
-0.241854
-0.148705
0.437986
-0.289281
-0.0222412
0.0225165
-0.0107939
0.0110023
0.015367
-0.00581569
-0.447287
0.145035
0.302252
0.0857736
0.31982
-0.405593
0.471005
-0.131776
-0.339229
0.316853
-0.0878937
-0.22896
-0.303095
0.276439
-0.0672408
0.313772
-0.086883
0.0638492
0.0230337
0.00444475
0.0122038
0.362109
-0.31868
-0.0434299
0.311331
0.0273421
-0.338673
0.432842
-0.263911
-0.168931
-0.134409
-0.244145
0.321949
-0.0778041
0.350056
-0.0993495
-0.00194258
-0.148269
-0.0556064
-0.288512
0.344119
0.0554151
-0.118136
0.0627211
-0.428616
0.181382
0.247235
0.0840399
-0.0731322
0.00409798
0.00797881
0.196349
0.0465548
-0.00569544
-0.00162208
0.00731752
-0.0111968
0.000402918
0.00616375
0.0161704
-0.0223342
0.295139
-0.350745
-0.411982
0.123877
0.288105
0.266046
-0.189948
-0.103164
-0.11722
-0.00505505
0.155666
0.191181
0.228574
0.0882792
-0.293516
-0.124392
0.0994837
0.128767
-0.272965
-0.0301305
-0.175418
0.111645
0.0637727
-0.102128
0.0404956
0.0616319
0.419935
-0.138669
-0.281267
-0.289552
0.415178
-0.125626
-0.456673
0.236847
0.219825
-0.124896
-0.239384
-0.0778388
-0.0346358
0.112475
-0.276044
0.237714
-0.287034
0.0493193
0.470344
-0.321086
-0.149258
0.295488
-0.394131
0.098643
0.00212954
-7.83085e-05
-0.00205123
-0.116606
0.245221
-0.128615
-0.348379
0.352684
-0.00430523
0.188949
-0.317522
0.128573
-0.317017
0.406013
-0.0889968
0.00383878
0.012113
-0.0159518
-0.18158
0.502683
-0.321102
-0.134869
0.111729
0.0231397
0.408515
-0.0114221
-0.00805389
-0.0217413
0.0297952
0.278728
0.382428
-0.0423474
0.0428494
0.0611874
-0.104037
0.156675
0.0947282
-0.251403
-0.0879164
0.440458
-0.208641
0.162262
0.0463791
0.0964704
-0.0817972
-0.0146733
0.0451582
-0.227777
0.182618
-0.199262
0.213861
-0.0145993
0.0769815
-0.027789
-0.0491925
-0.0952156
-0.0855057
-0.217544
0.322307
0.0798232
0.0166472
0.214849
0.0778647
-0.0240996
-0.0537651
-0.182207
0.325058
-0.14285
-0.000262373
0.00449092
-0.00422855
-0.00887404
-0.0191287
0.0280028
-0.375391
-0.0194624
0.394854
0.0173833
-0.0288678
-0.0423015
0.109586
-0.067284
-0.25133
0.134724
-0.0146987
0.294243
-0.279544
-0.418768
0.427689
-0.00892179
0.00872419
0.00597761
-0.17531
-0.281363
-0.0368212
-0.0167463
0.0167653
-1.89867e-05
0.172013
-0.293277
0.121264
0.140323
-0.0401081
-0.100215
-0.10505
0.407043
-0.301993
-0.0813823
-0.0476843
0.129067
-0.144427
0.375365
-0.0600836
0.0170453
0.0326036
-0.115309
0.0153839
-0.0197962
-0.0953088
0.251984
-0.00382928
-0.371562
-0.34731
0.452482
-0.105172
-0.0151412
0.0686149
-0.31276
-0.0655974
0.160492
-0.0948948
-0.0170143
-0.381635
0.398649
-0.113526
0.0712241
0.305525
-0.410575
-0.0568813
0.112296
-0.327416
0.417762
-0.0903464
-0.153295
0.188143
-0.0348485
0.0375532
-0.0539517
0.0163985
-0.00718319
0.0139375
-0.00675432
-0.327599
0.418496
-0.0908974
0.0371672
-0.385546
0.00620599
0.00528427
0.0461378
-0.0175144
-0.0286235
-0.424109
0.312978
0.111131
0.0667484
-0.0543942
-0.0123542
-0.344613
0.315713
-0.237277
-0.0784357
0.196217
-0.0468004
-0.149417
0.451378
-0.168769
-0.28261
-0.386522
0.093006
0.0788546
0.206315
-0.28517
-0.390464
0.335558
0.0549058
-0.29894
-0.121625
0.0523689
0.0430211
-0.09539
-0.0186803
0.0904451
0.218212
-0.0573623
-0.160849
0.0242797
0.104803
-0.129083
-0.116693
0.139181
-0.0224877
-0.232303
-0.236994
-0.421007
0.127724
0.293283
-0.0145667
-0.00139174
0.317339
-0.145325
-0.0192253
-0.0630419
0.0822672
0.195136
-0.468124
0.199961
-0.133376
-0.066585
-0.0569832
0.0018348
0.438065
-0.157368
-0.280697
0.0356106
-0.426074
-0.0318093
-0.0506698
-0.117973
0.355273
0.0570079
-0.0149989
0.392217
-0.0967296
-0.172264
0.0455556
0.126709
0.00777652
0.0103886
0.194074
-0.339214
0.324515
0.0706905
-0.0914399
-0.150809
0.427367
-0.276558
-0.00409371
-0.0113783
0.015472
-0.0417013
0.0558637
-0.0141623
0.370732
-0.107161
-0.413113
0.238291
-0.00237105
0.10089
0.176637
0.263744
-0.44038
-0.203062
0.399596
-0.156856
0.185163
-0.0551817
-0.278864
0.334045
-0.398773
0.4087
-0.00992763
-0.412598
0.136005
0.276593
0.293435
-0.202955
0.405107
-0.196947
-0.208161
-0.288827
0.462355
-0.173527
0.323795
-0.0666998
-0.257095
0.0542904
-0.183156
0.128866
-0.176086
0.342112
-0.166026
-0.0596822
0.184025
-0.124343
-0.00509177
0.00994911
-0.373601
0.10019
0.273412
-0.00587595
0.00521662
0.000659337
0.133814
0.204432
0.238017
-0.192859
0.285929
-0.341111
-0.360705
-0.0803168
0.463023
-0.135103
-0.32792
-0.346403
0.170317
0.351056
0.0618052
-0.412861
0.0601794
-0.0794047
0.28537
-0.418982
0.133611
0.0123167
-0.0164104
0.0725626
-0.142638
-0.196875
0.447697
-0.250822
-0.085758
0.0539487
-0.0379312
-0.0201776
0.0581088
0.0123359
-0.0157677
0.00343181
0.144014
-0.0753584
-0.306277
0.0188382
-0.0147403
0.228767
-0.0590633
-0.169703
0.0055947
-0.0127779
-0.014641
-0.00161416
0.21663
0.210652
-0.135707
-0.0100628
0.0108364
-0.000773659
-0.0037945
0.239445
-0.380023
0.140578
0.150817
-0.101201
-0.0496156
0.10753
-0.055161
0.0173011
-0.0170192
-0.00908929
-0.0384501
-0.0156697
0.0541198
-0.00524558
-0.0301349
0.0353805
0.447462
-0.154989
-0.292473
-0.0886367
-0.0462323
-0.187806
-0.0208354
-0.53718
0.209764
0.288489
0.149576
0.268574
-0.00477877
-0.000788767
0.00556753
-0.302391
0.388165
0.38621
-0.283458
-0.147576
0.210099
-0.0278412
0.0278114
2.97894e-05
0.216024
-0.362331
-0.0168923
0.00263293
-0.12724
-0.373607
-0.0071001
0.0106891
0.00560145
0.0100751
0.140287
-0.035792
-0.104495
0.219575
-0.175051
-0.0729907
-0.0253805
0.0983711
0.00503447
0.017068
-0.0221025
0.372626
-0.0932203
0.0471943
0.0708218
-0.118016
0.275794
-0.196939
-0.0817513
0.2707
0.274424
0.139941
-0.513717
0.264294
0.249423
0.0840559
-0.142224
0.403915
-0.261691
-0.0732577
-0.00556321
-0.358953
-0.0398201
0.033019
-0.00910257
-0.0239165
-0.0826951
0.404078
-0.321383
0.0746776
-0.292222
-0.118956
0.287588
-0.270811
-0.0167774
0.0381367
-0.169987
0.13185
-0.23631
0.23742
0.0863752
-0.413762
0.142083
0.271679
-0.33756
-0.0215072
0.0275003
-0.0568067
0.0293064
0.214757
-0.0755729
-0.397536
0.215895
0.181641
-0.00984372
0.00986078
0.0415884
-0.109401
-0.0546514
-0.125278
-0.212106
-0.301611
0.0840122
0.203576
0.0108089
0.0080293
0.286798
0.160665
0.017179
0.0495694
0.33675
-0.197071
-0.139679
-0.115241
0.035834
-0.00475648
0.0094161
-0.00465962
0.195069
-0.140779
0.00232348
-0.0463062
-0.118645
-0.282794
0.401439
-0.34543
0.322881
0.0225487
0.000812407
-0.00650785
0.088605
0.00477169
-0.0933767
0.146175
0.104138
-0.250313
0.291657
0.171366
-0.405551
0.401841
0.00371014
0.074619
-0.0185146
-0.141608
0.160123
0.0250221
0.00799696
-0.0883379
-0.285263
-0.39127
0.420717
-0.029447
-0.00455641
-0.233205
-0.163068
0.403355
-0.399332
-0.00402211
-0.0113896
0.0113896
-0.363915
0.348123
0.0157924
0.133704
0.173742
-0.307446
0.0786025
-0.0698309
0.136883
-0.0295362
0.0348669
0.416161
-0.10483
0.0169741
-0.0251057
0.00813153
-0.206356
0.148073
-0.094193
-0.292329
-0.387225
0.396001
-0.008776
0.0502571
0.0337869
0.346254
-0.415829
0.120738
0.295091
0.163966
0.260456
-0.424422
0.23546
-0.222603
0.259259
0.203096
0.0253235
-0.0637736
0.0903431
0.340449
0.366223
-0.0141019
0.0142999
-0.00019803
-0.227948
0.305509
-0.0775612
-0.361936
-0.053893
-0.0729891
0.0497017
0.0232874
-0.0109767
0.0171404
0.0141049
-0.0102661
-0.213665
-0.31261
-0.0861323
0.398743
0.00136697
0.000762569
-0.122883
-0.0719657
-0.0299505
-0.315479
-0.44061
0.136424
0.304186
0.336817
-0.141859
-0.194958
0.0273277
-0.414552
-0.382467
0.189435
0.0852355
0.24886
-0.404176
0.140382
0.263794
0.0159496
0.152467
0.203335
-0.402234
-0.0619168
-0.347502
0.198004
0.272341
-0.193606
-0.024299
0.217905
-0.0457846
0.0699657
0.0216972
-0.00262731
-0.104481
-0.0122121
0.00820592
-0.0129624
-0.00270028
0.00243791
0.00174713
-0.0213743
-0.291236
-0.124827
0.271002
-0.471074
0.19221
0.0319805
-0.229622
0.197642
-0.321366
0.139159
0.183893
-0.187687
0.206546
0.130204
0.172407
0.278971
0.408438
-0.0917534
-0.316685
-0.057371
0.21417
-0.164154
0.0473134
0.11684
0.0211509
0.068693
0.24702
-0.0378563
-0.0490267
-0.0121697
-0.017067
0.0292367
-0.00281909
-0.0154605
0.253175
0.00395743
0.00612448
-0.0100819
0.0119904
-0.00326623
0.0191055
0.0126442
-0.0317497
-0.458293
0.168339
0.289954
-0.113142
-0.182761
0.295904
0.0111807
0.129142
0.267135
-0.38578
0.00602978
-0.233978
-0.0273037
0.0953857
0.360427
0.0383499
0.246483
0.057874
-0.304357
-0.140429
0.100849
0.129497
-0.196046
0.18928
0.00676634
0.446685
-0.158196
0.266283
0.106343
0.075332
-0.304556
-0.259438
0.271925
0.0864405
0.269661
-0.356101
0.0170271
-0.380942
-0.169306
0.40875
0.101694
0.19199
0.133068
-0.00902543
0.00896454
6.08849e-05
0.110415
0.226402
-0.0329215
-0.163124
-0.295054
-0.17602
0.0927131
-0.350061
0.257348
0.424683
-0.146869
-0.277814
-0.203902
0.209821
-0.00591908
-0.0680243
0.314508
0.387966
-0.104999
0.156387
-0.405294
0.248907
0.384871
-0.403446
0.0185747
0.239847
-0.465543
-0.103672
0.0744456
0.0292265
0.13649
0.21098
-0.34747
0.0414035
-0.267084
0.280953
0.138983
0.12195
0.324735
0.00906257
-0.00413387
-0.00492869
0.0512284
0.0205189
0.000148134
-0.128648
-0.214459
0.343108
-0.000491784
-0.00538417
0.107736
-0.0423419
-0.0653938
0.110997
-0.170679
-0.245568
-0.218491
-0.0958922
-0.242329
0.194165
-0.322813
0.0322358
-0.00951872
-0.0227171
-0.0709005
-0.123089
0.18747
-0.064381
-0.148006
-0.0161472
0.334631
-0.142641
0.297342
-0.0631693
-0.234172
-0.341712
0.0521593
0.105803
-0.0534038
-0.052399
-0.0157744
0.0563934
0.136504
0.0634568
-0.417696
0.279272
0.138425
0.146771
0.261668
0.46146
-0.248969
-0.0249151
0.0331456
-0.00823046
-0.0103848
0.0117361
0.350208
-0.0841621
0.0260081
-0.00610701
-0.0199011
-0.423362
0.211661
0.211701
0.259757
-0.221962
-0.0377944
-0.058585
0.0758713
-0.288013
0.225685
0.0623283
-0.232805
0.207283
0.0255227
0.0555427
0.162669
0.000736066
-0.00551483
-0.470054
0.151702
0.318352
0.0722541
-0.124498
0.0522436
0.0284983
-0.0126811
-0.34924
0.43224
0.0657564
0.0400465
-0.0087112
0.359829
-0.247845
-0.111984
-0.0667583
-0.150476
0.217234
-0.0358916
0.0301723
0.00571925
-0.0706696
0.047276
0.357192
-0.149309
-0.207883
0.0702769
0.298661
-0.368938
0.0194383
-0.0212711
0.00183279
-0.0758246
0.0251623
0.0506623
0.219923
-0.0677783
-0.152145
0.0529509
-0.109862
0.0569111
0.0497115
0.176193
-0.207686
0.341398
-0.133711
-0.00289648
0.107597
-0.104701
-0.306621
0.0250894
-0.273452
-0.237238
0.0962734
0.263556
-0.295369
0.452369
-0.157
-0.365728
0.304706
0.0610217
0.0498013
-0.251099
0.201298
0.0897205
-0.092617
-0.107825
-0.304156
0.41626
-0.239623
0.146227
0.193305
-0.339532
-0.014067
0.0457166
0.0681591
-0.337073
0.268914
0.0143224
0.277094
0.187091
0.212745
0.0470121
-0.256822
-0.0153762
-0.188548
0.0316924
-0.0175146
-0.0203757
0.0246002
-0.0677823
0.0431821
0.00612938
0.00109951
-0.109082
0.0543796
-0.167044
-0.239725
0.406769
0.117649
-0.0290436
-0.00707967
0.0240538
0.360896
-0.159425
-0.201471
0.022426
-0.00298763
-0.28804
0.445688
-0.157649
-0.22391
-0.00889523
-0.0971565
-0.0786397
0.136922
-0.281918
0.144996
0.25691
0.105199
-0.185934
0.0344493
-0.205625
-0.0642031
0.113489
-0.392628
-0.0110734
-0.0065897
-0.423876
0.03654
0.146351
0.0577132
0.077766
-0.135479
0.201651
0.259809
0.0775926
-0.184222
0.106629
-0.214334
0.0359986
0.0101393
0.0159806
-0.00131688
-0.443668
0.150706
0.292961
-0.228617
-0.178746
0.0597536
0.169013
0.0452004
0.0346228
-0.349668
-0.0160596
0.0318687
0.118042
-0.334738
0.216697
0.0360122
-0.0709559
0.0349437
-0.00337908
-0.00384981
0.176285
-0.160336
0.203239
0.309612
-0.239335
-0.204195
0.253996
-0.00224888
0.00845487
0.38058
-0.194969
-0.185611
0.201586
-0.46222
-0.232941
0.19656
0.0363807
-0.455163
0.181023
0.27414
0.295663
-0.433921
0.138258
0.00254498
0.0144444
-0.0169894
-0.0280365
0.00182678
0.0262097
-0.238078
0.401204
-0.163126
0.269035
0.0811727
0.0516532
-0.0730417
0.0213886
-0.0168619
-0.000157355
0.336328
-0.0134467
0.0632087
0.0443213
0.275408
-0.138918
0.0515788
-0.0268268
-0.0247521
0.150617
-0.203884
0.0532678
0.00154477
0.0244633
-0.231137
-0.148885
0.0178518
0.109947
0.148842
-0.0929672
0.202151
-0.186407
0.194177
-0.3878
0.193624
0.00106887
-0.00204816
0.000979282
-0.0150948
0.427632
-0.142995
-0.284637
-0.108514
-0.376649
0.288311
0.0932152
-0.127799
0.0345834
0.337286
-0.365723
0.0284373
0.218546
0.162034
-0.186529
-0.101484
0.192641
0.0560281
-0.248669
-0.0523416
-0.0304381
0.0827798
0.00126518
0.020416
-0.0216812
0.152091
0.205101
0.0766805
-0.0250273
-0.023117
-0.176145
-0.00416968
-0.000552088
0.00472177
0.223208
-0.00519051
-0.218017
-0.0190138
0.242222
-0.112517
0.3788
-0.146615
0.283537
-0.130753
-0.288228
0.011797
-0.00796827
0.0158665
-0.0537977
-0.369789
-0.0885043
0.0219194
-0.019075
-0.00284444
0.364473
-0.150564
0.293499
-0.18367
-0.109829
0.0487373
0.171186
-0.0797263
-0.279632
0.359358
0.100777
-0.055577
0.326611
-0.24017
-0.00136233
0.0024312
-0.398048
0.201173
0.323669
-0.406364
0.315462
-0.247303
0.0171097
-0.0128135
-0.00429626
-0.00529939
0.0085878
-0.0032884
0.240865
-0.40791
-0.00632457
0.0101675
-0.0038429
0.000461816
0.00793436
-0.0153454
0.117347
-0.0643965
-0.0290213
0.277556
-0.357282
0.139173
-0.275162
0.135988
-0.428595
0.151632
0.276964
0.0332399
0.140321
-0.173561
0.00893105
-0.00172267
0.19482
-0.113875
0.389645
-0.27577
-0.123917
0.219075
-0.095158
0.032236
0.0211954
-0.0534314
0.135882
-0.137825
-0.00178362
-0.0149627
0.336842
-0.2188
0.0560322
-0.133871
-0.114599
-0.124197
0.238796
-0.384373
0.0370628
0.336076
0.0487954
0.154798
-0.0117968
-0.0092044
0.0210012
-0.0299892
0.0211151
0.0682318
-0.208869
-0.0476355
-0.052039
0.0996745
-0.0100961
-0.0175008
0.0275969
-0.0676369
0.218253
0.0100101
-0.00383258
-0.00617747
0.384365
-0.046898
-0.337467
0.457489
-0.457489
0.0242629
-0.208384
0.184121
-0.106844
-0.323947
0.129508
-0.036293
0.000148033
0.00330429
-0.00345232
-0.071435
0.13076
-0.0593255
0.17747
0.0598151
-0.237285
0.0864711
-0.121107
0.0237951
0.0467565
0.309463
0.152257
0.281263
0.103101
0.0956011
-0.303288
-0.250699
0.37119
-0.120491
0.383182
0.0074369
-0.390619
0.0180135
0.00390588
-0.198064
-0.215072
0.413136
0.0124746
0.0391042
0.109617
-0.0464087
-0.368979
0.111547
-0.150382
-0.247154
0.0453289
-0.0593959
0.211949
-0.234584
0.0226354
0.0641363
-0.0395361
-0.145287
0.367735
-0.222448
-0.110527
0.385204
-0.274677
0.243663
0.0693093
-0.312972
-0.199911
0.401497
-0.0233503
0.00929245
0.0140578
0.396638
-0.137348
-0.25929
0.301383
-0.162209
0.236304
0.0610381
0.316694
-0.0730316
-0.325497
0.420566
-0.0950698
-0.0126221
0.0329023
-0.0202802
-0.242344
0.134615
0.262023
-0.166288
0.321753
-0.155464
0.015765
-0.0147641
-0.0533456
-0.0324124
-0.171921
0.210196
-0.131959
-0.0782369
0.000492731
0.072009
0.204802
-0.162945
-0.0418574
0.166079
-0.279222
-0.303452
-0.128924
0.086075
-0.181755
-0.223313
0.0993956
-0.131971
0.165211
-0.0586309
-0.242227
0.300858
0.00592408
0.000627977
-0.00655205
-0.1605
0.288083
-0.127583
-0.312008
-0.0767048
0.379194
0.11096
0.158075
-0.296603
0.0654658
0.00789934
0.404452
-0.239186
-0.165265
-0.497945
0.0193415
-0.0294376
0.182168
0.00172495
0.0581178
0.257344
0.062249
-0.176848
-0.076594
-0.193486
0.27008
-0.15946
-0.0701626
-0.297022
0.238391
-0.138934
0.431562
-0.292628
0.210533
-0.18627
0.000121948
-0.390534
-0.345036
0.135424
-0.0458434
-0.296351
-0.121346
0.45746
-0.159407
-0.298053
-0.0823655
0.0445092
-0.320236
0.415837
0.171607
-0.340203
0.168596
-0.139566
-0.156344
0.29591
-0.325593
-0.00496321
-0.167301
0.266842
-0.37737
-0.220241
0.176635
0.0436058
-0.296417
-0.0517636
0.34818
-0.184129
0.0277054
0.156423
0.356156
-0.204065
0.0201478
-0.0122134
-0.359035
0.213749
0.303088
0.0907403
-0.393829
0.0181842
-0.0308063
0.0744793
0.135717
0.185809
-0.149269
-0.0251022
0.000187072
0.0217649
0.314563
-0.00643566
0.0103931
-0.0414434
0.0586224
0.0261046
0.0715527
-0.0976573
0.189551
0.145079
-0.0732347
-0.0136836
0.0869183
0.31567
0.0687667
-0.384437
0.350935
-0.179328
0.32015
-0.230207
-0.0899431
0.0911067
-0.303353
0.212246
0.0203322
-0.00250498
0.0224002
-0.00225243
0.0379995
0.079649
-0.066653
0.213424
-0.146771
0.0168421
0.00943675
-0.280311
0.140745
-0.106717
0.323325
-0.216608
-0.163864
0.073842
-0.0663312
0.0102581
-0.286906
0.410783
-0.187091
0.326453
-0.139362
-0.295103
-0.129006
0.0637232
-0.101011
0.0372875
0.312306
0.0921453
-0.242759
0.300877
-0.111381
-0.177651
0.289032
-0.25423
0.354331
-0.100101
-0.46135
0.253608
0.207742
-0.00563131
0.0059314
-0.000300087
0.2784
-0.167439
0.0260562
-0.0783979
-0.146718
0.355007
-0.208289
0.293832
-0.24561
-0.0482213
0.0198101
-0.1326
0.11279
-0.0439873
-0.135478
0.397021
-0.261542
-0.10768
0.131959
0.166769
-0.0109438
0.0119335
-0.311304
0.172264
0.13904
-0.0640853
0.403468
0.143517
-0.31409
0.170572
-0.336815
0.273165
0.0636499
0.100174
-0.140333
0.0401587
-0.164838
0.219085
-0.136778
-0.205125
0.341903
-0.0565402
0.1741
-0.11756
0.0150087
-0.0124637
0.115425
-0.33021
0.214785
-0.0233621
0.0555981
0.229936
0.0638959
0.413535
-0.14393
-0.269606
0.246401
-0.444465
0.288858
-0.017355
-0.299662
0.328652
-0.237545
-0.188466
0.108229
0.157009
0.0392076
0.318999
-0.342578
0.205799
-0.0419429
-0.277167
0.31911
-0.19626
0.033315
-0.163144
0.155146
0.00799751
-0.0343367
0.0673294
-0.0644183
0.273914
-0.209495
0.334202
-0.127656
0.345151
-0.353573
0.00842177
0.0577898
-0.105425
-0.0945075
-0.208846
0.0731145
-0.277804
0.00439775
0.346086
0.309119
0.128867
0.335032
-0.14548
0.162969
0.138413
0.0797782
-0.219574
0.139795
-0.0428855
0.313183
-0.116265
-0.196919
-0.390715
0.294081
0.0966346
0.0388375
-0.326877
-0.203258
-0.218357
0.421615
0.146169
0.267366
-0.100751
-0.0746667
-0.210664
-0.0014968
-0.00776797
-0.235166
0.192043
0.043123
-0.0130165
0.0303998
-0.0198514
-0.0109235
0.0307748
-0.219684
-0.0489756
0.26866
0.0785216
0.0722949
-0.198224
0.191
0.00722462
0.00401452
-0.0056366
0.0247852
-0.0191905
0.0437015
-0.297996
-0.135925
-0.000527317
-0.119231
0.119758
0.288016
-0.329958
-0.0484775
0.130564
-0.0820863
0.281943
-0.165023
-0.11692
0.00827742
-0.00147848
-0.00991108
-0.183589
-0.127714
0.0257855
-0.00335951
0.147081
-0.0469065
-0.0498164
-0.0260082
0.229099
-0.0383361
-0.299124
-0.121883
-0.222292
0.0256382
0.0283434
-0.32761
0.299267
0.346006
0.110595
0.025092
-0.0762129
0.0511208
-0.0166354
-0.00671487
0.060416
0.354893
-0.415309
0.0163465
-0.112024
-0.0484877
-0.179289
-0.305149
0.197303
0.107846
-0.323941
-0.104675
0.43923
-0.101944
-0.0567051
-0.070339
0.223663
-0.259324
0.0356608
0.412818
-0.13431
-0.278508
0.383497
-0.0997482
-0.0568968
0.249538
-0.327134
0.177825
0.366872
-0.219407
-0.147464
0.249855
-0.354731
0.104875
-0.289189
-0.101526
0.0199191
-0.239603
0.48477
-0.264214
-0.220556
0.161471
-0.025273
0.0975271
0.109614
0.324395
-0.178095
-0.1463
-0.00519516
-0.0123076
0.0175028
0.34084
-0.122027
0.431795
-0.309768
0.343241
-0.20473
-0.138511
-0.234612
0.235925
-0.00131357
-0.265202
-0.071613
-0.031086
0.0230321
0.0131617
-0.333367
0.320205
-0.19332
-0.0454383
0.225603
-0.180164
0.214297
-0.067116
-0.130016
-0.270238
0.400254
0.167029
0.00737261
-0.349086
0.341714
-0.468508
0.25684
0.211668
0.130375
-0.0726614
0.00098739
-0.321223
0.00370216
0.0136759
0.331475
0.129316
-0.0796935
-0.0496226
0.292444
0.125318
0.412506
-0.128202
-0.284304
0.322016
-0.159047
-0.0271708
0.00542948
0.0714942
0.0362416
-0.440935
0.318907
-0.00814529
0.0253449
-0.0171996
-0.075647
-0.410941
0.146283
0.264658
-0.00489998
-0.0126798
0.0175798
0.00501187
-0.0114475
0.00263443
-0.0106027
0.184407
0.0418951
-0.226302
-0.386249
0.145114
0.241135
-0.1817
-0.241662
0.005647
0.00341557
0.154602
0.158581
0.437164
-0.295313
-0.141851
-0.444139
0.139369
0.30477
-0.0458864
0.116914
0.0270113
-0.143926
0.294367
-0.219689
-0.157748
-0.303602
0.0118166
0.12582
0.156123
0.0251222
-0.00828011
0.0794925
-0.12797
0.20844
-0.384884
0.176444
-0.0209478
-0.0479833
0.0689311
0.303161
-0.347954
0.0447928
0.0762049
-0.393828
0.0582378
-0.234054
0.175816
-0.356211
0.207158
0.149053
-0.211153
0.218138
-0.00698455
-0.0226956
0.0106055
0.0611174
-0.0717229
-0.089347
0.019732
0.0696149
0.05306
-0.240151
-0.00225841
-0.00583528
0.301157
-0.0737504
-0.227407
0.439299
-0.0882429
0.0435899
-0.0311153
-0.0077558
0.00143123
-0.0100725
-0.0128241
0.0228966
0.0236661
0.0488656
-0.0725317
-0.129388
-0.314751
0.00467903
0.0768125
-0.121126
0.0443133
-0.407867
0.207956
-0.138175
-0.00405841
0.00897308
-0.00491467
-0.340755
0.00953044
0.331225
-0.306396
0.404009
-0.0976126
0.0118253
0.0543189
-0.0661442
0.357094
-0.107239
0.519507
-0.224368
0.03156
-0.254945
0.223385
-0.193253
-0.275256
0.276958
-0.232261
-0.0446972
0.37125
-0.109044
-0.262206
-0.0910425
0.00483622
-0.0108458
0.00600958
0.0235697
0.00221579
0.359094
-0.065236
-0.293858
-0.107096
0.248841
-0.141745
0.206171
0.0707868
0.129374
0.283443
0.121085
-0.412131
0.291046
-0.0433758
-0.104631
0.273043
-0.428232
-0.198873
0.362839
-0.200598
0.353997
-0.153399
-0.196426
-0.0365145
-0.336511
0.483305
-0.146794
-0.146891
0.177645
-0.0727188
-0.2222
0.146119
-0.349
0.202882
-0.138175
0.406061
-0.267886
-0.0207632
0.273049
-0.386924
0.120976
0.203419
-0.270704
0.40671
-0.264416
0.196779
-0.136861
0.28336
0.00142983
-0.0111274
0.00969753
-0.24436
0.0997475
-0.382614
0.182331
-0.144195
-0.377601
0.395171
-0.0175705
-0.205558
-0.190094
0.395652
-0.226586