/*--------------------------------*- C++ -*----------------------------------*\
| =========                 |                                                 |
| \\      /  F ield         | OpenFOAM: The Open Source CFD Toolbox           |
|  \\    /   O peration     | Version:  v2012                                 |
|   \\  /    A nd           | Website:  www.openfoam.com                      |
|    \\/     M anipulation  |                                                 |
\*---------------------------------------------------------------------------*/
FoamFile
{
    version     2.0;
    format      ascii;
    class       volVectorField;
    location    "100";
    object      U;
}
// * * * * * * * * * * * * * * * * * * * * * * * * * * * * * * * * * * * * * //

dimensions      [0 1 -1 0 0 0 0];


internalField   nonuniform List<vector> 
27915
(
(1.02519 -0.0257657 2.38331e-22)
(1.0822 -0.0819911 1.45227e-20)
(0.535468 -0.0101877 0)
(1.00899 -0.00107024 9.7961e-22)
(1.01142 -0.00355084 1.19847e-22)
(1.03052 -0.035613 -1.46184e-21)
(1.01338 0.00207949 -2.9906e-22)
(0.543808 -0.00283244 3.15711e-21)
(1.01121 -0.0029951 0)
(0.584227 -0.0382151 4.47694e-21)
(1.0241 -0.0551032 -8.02512e-22)
(0.405436 -0.295821 0)
(0.974863 -0.0690565 5.02353e-22)
(1.01345 0.00209903 2.36108e-22)
(1.02016 0.00313716 4.95447e-23)
(1.00886 -0.00189502 -6.41461e-22)
(0.830796 -0.164278 -5.36231e-21)
(1.02084 -0.0123438 8.03083e-23)
(1.081 -0.0507631 0)
(0.54227 -0.00388996 9.97212e-22)
(0.963912 -0.137257 -1.22653e-22)
(1.02272 -0.0194153 0)
(0.751948 0.26076 -4.78595e-22)
(1.01916 -0.0111181 -3.68278e-22)
(1.00889 -0.00187707 5.81717e-22)
(1.00697 -0.000298351 -1.51288e-21)
(0.938791 -0.302195 -8.50333e-21)
(1.01136 -0.00344433 5.30746e-22)
(0.448837 -0.00258511 0)
(1.04579 -0.0286588 1.97044e-24)
(1.02026 -0.00791256 0)
(1.01299 -0.0319436 0)
(1.00869 0.000522225 -3.62686e-22)
(1.00714 0.000211291 -3.38683e-22)
(0.784883 0.00344609 2.91413e-22)
(1.00708 0.000183239 0)
(1.0028 5.56865e-06 6.83291e-22)
(1.00691 -0.00030153 1.62245e-21)
(1.06414 -0.0423784 1.80998e-21)
(1.01294 -0.00701609 -5.88885e-22)
(1.01147 -0.0107975 1.76468e-21)
(1.00273 1.00367e-05 -7.30946e-22)
(1.10785 -0.0392379 0)
(1.01082 -0.00299742 -3.17827e-22)
(0.706702 0.0138554 1.13994e-20)
(1.01299 -0.00716568 -3.5873e-22)
(1.01442 -0.00525458 2.49447e-23)
(1.02457 -0.0388887 1.7783e-21)
(1.00563 -0.000275019 -4.14978e-22)
(1.01163 -4.34885e-05 -1.34772e-21)
(0.556592 -0.00499635 0)
(0.934121 -0.0983562 2.42368e-21)
(-0.145134 0.354927 -5.24829e-20)
(1.04194 -0.0296201 0)
(1.05349 -0.0285683 -2.33429e-21)
(1.01439 -0.00508385 0)
(1.01782 -0.00088918 0)
(0.94885 -0.054069 1.04721e-21)
(0.945525 -0.0387328 -1.40935e-21)
(1.02022 -0.00763079 -5.12827e-22)
(0.80441 -0.0361026 0)
(1.02388 -0.0260797 2.15437e-21)
(0.738282 -0.0235883 -4.26068e-21)
(0.167288 0.0021885 0)
(1.01551 -0.000863315 8.34436e-22)
(1.06994 -0.0400378 -1.1378e-21)
(0.434056 -0.288152 2.25084e-21)
(0.555522 -0.00613245 7.63501e-21)
(0.776443 0.00820931 1.03671e-20)
(1.01675 -0.000834762 0)
(1.01809 0.0128842 2.43176e-22)
(1.01903 -0.0113358 2.01837e-22)
(1.02117 -0.0124156 -2.78556e-22)
(0.932275 -0.0550965 0)
(0.547306 -0.0354583 0)
(1.01974 0.0224638 -3.93224e-22)
(1.04482 -0.0283183 -1.68292e-21)
(1.00825 0.000753841 -7.48029e-22)
(-0.0111149 -0.286497 1.922e-20)
(1.03227 -0.0136625 -6.27125e-22)
(1.03102 -0.0350439 -1.32954e-21)
(1.01283 -0.00688393 1.02569e-21)
(1.0456 -0.0436925 0)
(0.525753 0.00846768 7.2249e-21)
(0.561768 -0.230567 0)
(1.06364 -0.10566 0)
(1.0068 0.000213545 0)
(1.10567 -0.038626 7.25361e-21)
(0.157348 0.112734 6.50997e-22)
(1.02838 -0.0109589 -1.00692e-21)
(1.01433 -0.00988519 -9.31738e-22)
(0.947147 -0.0953404 1.37943e-21)
(1.01143 -5.82364e-05 2.28672e-22)
(0.791265 -0.315124 -1.39861e-20)
(0.455807 -0.00275856 2.95563e-21)
(0.5486 -0.0113716 0)
(0.960752 -0.112127 1.68546e-21)
(0.605821 -0.0347448 -1.94439e-21)
(1.02384 -0.0261669 -9.86261e-22)
(1.01115 0.000889358 1.45798e-22)
(1.06771 -0.0300453 0)
(1.00679 -0.000278332 -9.82757e-23)
(0.600979 -0.0325848 -1.12898e-21)
(1.01307 -0.00241813 -1.53874e-21)
(1.00767 -0.0109543 0)
(1.01276 -0.00676351 9.02519e-22)
(0.828314 -0.207374 -2.29042e-20)
(0.941847 -0.0323464 7.40309e-21)
(1.00674 -0.000276829 -3.48608e-22)
(0.582715 -0.0210548 -2.32398e-21)
(0.966046 -0.111461 1.52397e-20)
(1.0117 -0.0113802 -3.27173e-23)
(1.05135 0.0115 -1.73906e-24)
(1.06126 -0.117447 -1.13086e-22)
(0.948485 -0.0288943 2.11399e-21)
(0.930312 -0.0899213 -1.8517e-21)
(0.487399 -0.361072 0)
(1.01462 -0.0319215 0)
(1.01288 -0.00217938 7.70702e-22)
(1.00562 -0.000265268 -7.46176e-22)
(1.01436 -0.00976398 -6.85552e-22)
(1.04597 0.00992242 -2.47987e-22)
(1.00881 0.000533861 0)
(1.02226 -0.0192167 1.05365e-22)
(1.00368 8.26609e-05 0)
(0.856768 -0.165639 1.12638e-20)
(1.02759 -0.0475599 -3.73765e-21)
(0.348116 0.00569783 0)
(1.01826 -0.00908901 0)
(1.01094 -0.00101973 -4.97898e-22)
(1.02391 -0.0265076 0)
(0.967547 -0.301423 4.02913e-22)
(0.784763 -0.324622 0)
(1.10797 -0.0385203 0)
(0.401118 -0.261948 -4.48739e-21)
(1.04881 0.00287359 -6.83138e-21)
(0.567654 0.21901 -9.24289e-22)
(1.00643 0.000138068 6.38168e-22)
(1.01113 -0.000767576 -6.08342e-22)
(1.01424 -0.00933121 3.91575e-22)
(1.00646 -7.30384e-05 0)
(1.0547 -0.0284051 2.71567e-21)
(1.00283 -6.25799e-05 -6.1167e-22)
(1.09317 -0.0534385 0)
(0.896632 -0.091817 0)
(0.566891 -0.00645332 -4.3381e-21)
(0.407343 -0.00470853 7.04158e-21)
(1.02334 -0.0372592 1.55649e-21)
(1.01521 0.0225449 0)
(1.04688 -0.0441886 -2.81834e-21)
(0.527144 -0.353824 0)
(1.00646 0.000147048 -6.48689e-22)
(1.00546 -0.20667 3.36169e-21)
(0.0165522 0.199531 0)
(0.881247 -0.173966 0)
(0.639284 0.0151895 0)
(1.00143 -0.0458818 -7.96508e-22)
(1.00699 0.000142179 1.95022e-23)
(1.00525 7.97987e-05 0)
(1.01475 -0.000692546 -6.18368e-23)
(1.08757 -0.172862 1.33618e-20)
(0.635903 0.0598724 -2.51583e-20)
(1.01077 0.000122873 8.78381e-22)
(1.00831 -0.00389423 8.41471e-22)
(0.862731 -0.0905339 7.9658e-23)
(1.02535 -0.00249608 0)
(0.993822 -0.207758 -6.15996e-23)
(0.831691 0.405001 2.91956e-22)
(0.564727 -0.037838 -2.25475e-21)
(1.00167 -1.31686e-05 -6.49618e-22)
(1.0209 0.00127566 3.32648e-21)
(1.02187 -0.012987 -9.38508e-22)
(1.0036 8.18825e-05 0)
(1.02666 -0.0388615 0)
(1.01283 0.00192505 1.48944e-22)
(0.375883 0.030031 5.75691e-21)
(0.579106 -0.0200673 -1.49547e-21)
(1.01273 -0.00179287 4.59875e-23)
(1.00668 0.000132108 -5.59908e-22)
(0.622553 0.0419813 0)
(0.153387 0.136829 6.65167e-22)
(1.0291 -0.00206947 6.2162e-22)
(1.00338 -0.000199489 0)
(0.581159 -0.00758094 0)
(1.0531 -0.000141801 0)
(1.11501 -0.057518 3.16744e-22)
(1.00526 0.00013443 0)
(1.00659 8.05992e-05 0)
(0.493902 -0.00407444 2.12037e-21)
(1.00684 0.000227997 -9.91289e-22)
(0.906352 -0.0325261 0)
(1.0091 -0.0521798 1.83899e-22)
(1.08724 -0.203343 5.37183e-21)
(1.01262 -0.00156069 -8.16272e-22)
(1.01453 0.00178117 1.45157e-23)
(1.0076 -0.00050509 -3.93803e-22)
(1.10976 -0.0736312 -7.63355e-22)
(1.00512 -0.0039423 1.44353e-23)
(1.00231 2.21856e-05 -6.48223e-22)
(1.03971 -0.0404729 0)
(-0.135122 0.350955 4.08583e-20)
(0.559723 -0.333571 -1.91928e-21)
(1.00749 0.000113944 0)
(1.00295 5.24733e-05 -6.24559e-22)
(0.399818 0.0241118 2.94048e-22)
(0.417042 -0.0052714 -5.07855e-21)
(1.03544 -0.114653 -5.01452e-21)
(1.02009 0.0157866 1.00396e-21)
(0.417038 0.402754 0)
(1.0113 -0.00303267 0)
(1.04287 -0.0428644 9.98891e-22)
(0.468466 -0.0247182 8.73983e-23)
(1.00262 5.32042e-05 0)
(1.01771 -0.000332311 -1.13089e-21)
(1.00339 4.54721e-05 -1.32166e-22)
(1.01325 -0.000361588 -4.40026e-24)
(1.02135 0.0137461 -9.82358e-22)
(0.883481 -0.165321 -2.49166e-21)
(1.01105 -0.000949048 2.61572e-22)
(1.01264 -0.00657518 0)
(1.01811 -0.0104543 3.12795e-23)
(1.02248 0.00404405 5.01085e-23)
(1.05319 -0.0296037 1.30245e-21)
(1.00544 -4.47805e-06 0)
(0.511635 0.0142952 0)
(1.04417 -0.11543 0)
(1.0113 -0.003262 0)
(0.940254 -0.185226 -7.28851e-21)
(1.01128 -0.000810999 -6.09949e-22)
(1.00916 0.000635128 -4.81659e-22)
(0.379125 -0.00158864 -1.96981e-21)
(1.02003 0.0104229 -6.20284e-22)
(0.472251 0.00487306 1.06632e-21)
(0.836169 0.402915 0)
(0.977436 -0.138124 1.04914e-22)
(1.01973 0.00206223 -7.57218e-22)
(0.534706 0.156789 5.19677e-21)
(1.01259 -0.000415651 0)
(1.00231 -6.52631e-05 0)
(1.01021 4.11941e-05 0)
(0.954388 -0.124489 -8.00552e-21)
(1.01374 -0.0131562 0)
(1.02002 0.0123951 2.23782e-22)
(0.603323 -0.324261 4.74331e-21)
(1.01803 -0.00884062 -3.65038e-22)
(1.00672 0.000150488 0)
(0.0199422 0.188507 0)
(0.209165 0.000989025 3.84934e-20)
(1.00726 -0.00782901 1.23653e-21)
(1.08143 -0.211826 0)
(1.05729 -0.0259215 -1.06806e-20)
(0.646009 -0.00308477 0)
(1.01562 0.00211165 0)
(1.02058 -0.00814836 0)
(1.01257 -0.00646372 0)
(0.950855 -0.105419 0)
(1.02557 -0.0257913 -1.04235e-22)
(1.01137 -0.00144568 -8.21206e-23)
(1.02925 -0.0667753 3.33931e-21)
(0.838017 -0.215374 3.04141e-20)
(0.491967 -0.017169 0)
(1.0895 -0.078441 7.63374e-21)
(1.03413 0.0493816 7.33823e-22)
(1.0545 0.06567 3.9617e-21)
(1.0282 0.0563563 -3.14971e-23)
(1.06962 -0.0501633 0)
(1.00773 -0.00123491 2.21684e-22)
(0.894673 -0.0312975 6.73946e-21)
(0.653319 -0.00496965 0)
(0.948584 -0.143514 0)
(1.01626 -0.000968124 1.05508e-21)
(0.516031 0.0177718 0)
(0.649001 0.0911828 -2.22117e-20)
(0.263918 0.000453999 -1.21089e-20)
(1.00768 -0.00880566 -1.74783e-21)
(1.00777 -0.00124615 0)
(1.0136 -0.00305706 -6.74655e-22)
(1.01402 -0.013045 -1.08953e-21)
(1.00823 -0.000320662 0)
(1.02208 -0.0185958 -1.70068e-23)
(1.01101 -0.000838325 0)
(1.01112 0.000967261 0)
(1.00816 0.000741793 5.78495e-22)
(1.02122 0.00958286 -3.79003e-22)
(1.07296 0.0209588 0)
(0.587348 -0.01913 -6.68391e-21)
(0.13395 0.146705 -1.07375e-20)
(1.03938 -0.129626 -2.16049e-20)
(1.04433 -0.0292252 1.67807e-21)
(0.831433 -0.0300662 0)
(1.13299 -0.0246579 0)
(1.02005 -0.0117986 -7.11684e-23)
(0.658786 0.0923634 2.6193e-20)
(1.00976 -0.000684487 0)
(1.0133 -0.00292355 -2.05634e-22)
(1.08723 -0.0772796 0)
(1.04972 -0.00225101 -2.9449e-21)
(0.615868 0.312642 6.00789e-22)
(1.02109 -0.0375137 -1.47256e-21)
(1.01736 -0.00033544 6.61216e-22)
(0.897884 0.121797 6.04161e-21)
(1.01885 0.0117471 3.05701e-23)
(1.01083 -0.000258 1.04513e-21)
(1.00152 6.84307e-05 4.34511e-22)
(1.06731 -0.0647371 1.06025e-21)
(-0.231085 0.100126 -4.46882e-20)
(1.03883 -0.0412428 0)
(1.00616 0.000152116 0)
(-0.0102887 -0.264777 6.219e-20)
(1.01743 -0.000893455 -1.24801e-24)
(0.998126 -0.151838 -9.12523e-21)
(1.03224 -0.00678261 1.11504e-21)
(0.795506 -0.00895587 1.67566e-20)
(1.01136 -0.00135114 -1.19966e-21)
(0.976484 -0.117185 1.37606e-20)
(1.00254 4.32248e-05 -9.12502e-22)
(1.01086 0.000709339 7.40035e-23)
(0.544199 0.00852422 0)
(0.336609 0.00751151 0)
(0.39923 -0.00479201 0)
(1.0245 0.00889166 -1.65086e-22)
(1.01329 0.00140751 0)
(1.00795 -0.00136381 -1.3273e-21)
(1.01754 -0.0105381 0)
(1.02839 0.0382168 -3.55849e-21)
(1.01982 0.0103667 0)
(1.11657 -0.0409942 0)
(0.460455 -0.00329822 2.62033e-21)
(1.01605 -0.00716761 -1.60474e-22)
(1.01053 0.000753736 -1.03578e-22)
(1.01208 -0.00351991 6.80958e-23)
(1.02359 0.0103759 4.02113e-22)
(1.018 -0.0111354 0)
(1.01098 -0.000219251 -1.31815e-21)
(0.751126 -0.234453 -5.4779e-21)
(1.01258 0.00181374 0)
(0.910258 -0.138375 0)
(1.00861 -0.00025798 0)
(0.510549 0.131333 -1.23352e-21)
(0.289111 -0.00172601 1.03496e-20)
(1.04344 -0.0289965 -2.96661e-21)
(0.0815759 0.152717 0)
(0.322654 0.00555731 1.19637e-21)
(-0.146072 0.377239 -8.66267e-21)
(1.01238 0.00177188 0)
(1.01795 0.00317799 0)
(1.03165 -0.00663488 9.85227e-22)
(0.99288 0.0146571 1.79858e-20)
(0.592928 -0.0203763 5.14802e-21)
(1.0197 -0.0117061 7.48198e-23)
(1.01726 -0.0103117 -5.02454e-23)
(1.01026 -4.08879e-06 0)
(0.863264 -0.212709 -6.77346e-21)
(1.02074 0.0358364 5.57119e-22)
(1.04564 -0.0635319 0)
(1.14552 -0.0767017 1.63666e-20)
(1.01885 -0.00774717 3.93366e-22)
(1.01469 -0.00342946 -3.53884e-22)
(1.01051 0.000248114 -6.4359e-22)
(0.859508 -0.0315611 2.64116e-21)
(1.06485 -0.0695059 -7.62282e-21)
(1.01662 -0.00075695 -1.68277e-21)
(1.01485 -0.0118611 -4.71845e-22)
(1.00765 0.000347713 -4.61383e-22)
(1.01674 0.00317572 3.33582e-22)
(0.0195089 0.0612999 6.30941e-21)
(1.00496 -0.000863269 0)
(1.00912 -0.000323069 -1.52815e-23)
(1.01958 -0.00748681 -7.12162e-23)
(1.00918 -0.00147875 -3.81038e-24)
(0.461642 -0.00377112 -2.40767e-21)
(1.01265 0.00185606 2.64745e-22)
(1.06835 -0.0897707 0)
(1.0091 -0.000572841 1.14566e-23)
(0.637065 -0.0129214 2.89647e-21)
(1.01287 0.00193582 1.61455e-22)
(1.00931 0.000674876 0)
(1.08246 -0.0554541 1.00171e-23)
(1.00643 0.00426372 3.17858e-21)
(1.01581 0.002136 1.62496e-23)
(1.02733 -0.0381074 0)
(1.10066 -0.0623957 1.55483e-20)
(1.02488 -0.0277591 -1.47093e-21)
(0.839061 -0.326956 7.26906e-21)
(1.00396 -0.0429051 -1.02378e-20)
(1.03169 -0.0669745 -9.27368e-22)
(0.933183 0.0340175 0)
(1.10209 -0.0634384 -1.73987e-20)
(1.01423 -0.00949573 -4.16408e-22)
(1.07883 -0.0457608 1.02741e-20)
(1.02727 -0.00427078 3.07855e-21)
(-0.0657055 0.110357 0)
(0.616924 -0.0201742 0)
(1.00812 -0.00152447 -7.80215e-22)
(0.605393 -0.0410345 3.40134e-21)
(1.08107 -0.077489 -1.19388e-20)
(1.00581 -0.00193295 1.64656e-21)
(1.01461 -0.000125235 6.11724e-23)
(1.00477 0.000113582 4.37856e-22)
(0.132525 0.0935912 0)
(1.01051 0.000193427 1.0317e-22)
(1.02412 -0.0263239 -6.73289e-22)
(0.460942 -0.00138948 -5.58344e-21)
(1.03611 -0.0093175 2.97687e-21)
(0.792614 0.114102 -7.24613e-21)
(1.0165 0.00542877 0)
(0.971525 -0.149087 8.95715e-22)
(1.01771 -0.000872334 -4.99893e-22)
(0.392622 -0.280465 3.25324e-21)
(1.03938 -0.117822 7.91688e-21)
(0.507716 -0.0052032 -2.03367e-21)
(1.00682 0.00650601 -2.94384e-21)
(1.00813 -0.00152275 6.13775e-22)
(1.00806 0.000157784 -8.97379e-25)
(0.387567 -0.28886 3.80941e-21)
(1.01815 -0.0110036 8.13344e-24)
(0.962054 -0.0336255 -6.96051e-21)
(1.0169 0.00097248 1.17896e-21)
(1.07928 -0.076292 -5.4116e-21)
(1.01619 0.00590824 -2.65093e-22)
(0.900585 -0.143149 2.39112e-21)
(1.00477 4.67736e-05 5.21994e-22)
(1.06513 -0.0306504 1.0408e-20)
(0.887197 -0.0287782 0)
(0.249694 0.0934595 9.23021e-20)
(1.01843 0.00114377 -1.43932e-22)
(1.00902 -0.000343829 1.34799e-22)
(-0.219418 0.0611133 0)
(0.807557 -0.0264787 0)
(1.01325 7.72624e-05 4.94893e-22)
(0.891428 -0.0265599 0)
(1.01771 0.00132982 0)
(1.01125 -0.106461 7.04708e-22)
(1.04531 -0.0399567 -2.12367e-21)
(1.00935 -0.000417272 -1.0218e-21)
(1.01009 -4.22949e-05 0)
(1.01666 -0.00749483 -1.3856e-22)
(1.01221 -0.000610215 -4.82667e-22)
(1.03634 -0.011831 0)
(1.09196 -0.0574008 -4.92549e-21)
(0.967277 -0.155292 0)
(0.966127 -0.0827773 -1.89605e-21)
(0.983468 -0.105142 0)
(1.04959 -0.110578 -1.81604e-21)
(1.00512 0.000119266 -4.85772e-22)
(1.01844 0.0060485 4.46273e-22)
(0.471773 -0.00236525 0)
(1.03529 -0.00916791 1.4661e-21)
(1.12086 -0.0469278 0)
(1.01468 0.00183854 0)
(0.887284 -0.0898586 0)
(1.02218 -0.048491 -6.2526e-21)
(1.00728 -0.000941013 -7.88086e-22)
(1.01131 -0.000497778 -1.03847e-24)
(0.967574 -0.101999 -1.56747e-20)
(0.944396 -0.150309 1.53575e-22)
(0.813858 -0.0229857 -3.44077e-20)
(1.01713 0.00320059 -6.27142e-22)
(1.05887 -0.0421026 0)
(0.46378 -0.00282709 -1.43784e-22)
(1.00789 -0.00134368 9.66295e-22)
(1.01171 -0.000173602 -1.76364e-21)
(0.822576 -0.176434 3.3191e-21)
(1.01547 -0.0019725 -7.37052e-22)
(0.444465 -0.00110532 -4.49714e-21)
(0.963646 -0.0450469 6.71282e-21)
(1.00268 8.98658e-05 -3.72344e-22)
(1.01129 -0.00310813 2.65326e-22)
(0.813447 -0.0225643 -5.78976e-21)
(1.01608 0.0588028 -1.37828e-22)
(1.01082 -0.00311583 3.39592e-22)
(1.06662 -0.0290824 0)
(1.03488 -0.0109286 0)
(1.01075 0.000403024 1.52949e-21)
(1.01958 -0.0155886 -7.74797e-22)
(1.02018 -0.000414487 -2.89322e-23)
(1.01099 -0.00342235 3.71963e-22)
(1.01176 -0.00333011 0)
(0.99977 0.0138232 0)
(1.02975 -0.0241613 0)
(0.989395 0.153564 0)
(1.02322 -0.0236223 1.08574e-21)
(0.150565 0.130161 -7.65148e-21)
(1.05164 -0.14868 -1.28565e-21)
(0.0381493 0.155704 -4.12929e-21)
(1.02166 -0.0183886 1.81951e-22)
(1.0241 -0.0276164 0)
(1.03184 -0.0090577 3.45002e-22)
(1.03088 0.000100532 0)
(1.01016 0.000715876 7.56118e-22)
(0.972218 0.170839 -2.00294e-21)
(1.00545 -0.00390517 3.4631e-22)
(1.11449 -0.0487232 0)
(1.0172 -4.39906e-05 3.76133e-24)
(0.458721 -0.00397779 0)
(1.0257 -0.0539762 2.2868e-21)
(1.01488 0.00393473 -9.40717e-22)
(0.997816 -0.107023 0)
(0.904531 -0.0280513 0)
(0.475373 -0.00291065 2.22326e-21)
(1.01192 -0.00351326 0)
(1.01642 0.00118055 3.9727e-22)
(0.409627 0.000175297 1.55627e-21)
(0.825939 -0.335092 -1.74478e-21)
(0.286909 0.125769 1.91526e-20)
(0.461666 -0.00281058 1.12331e-21)
(1.00899 -0.00099308 -9.64322e-22)
(1.01781 -0.000525608 5.42089e-22)
(0.308297 0.00532764 -1.8584e-21)
(0.824708 -0.333752 0)
(1.00961 -0.00278011 0)
(1.01817 -0.108446 2.41657e-21)
(1.09125 -0.0586009 -8.04086e-21)
(0.50584 0.0172507 0)
(0.329472 0.00707739 0)
(1.01677 -0.0428635 1.9288e-21)
(0.678368 0.0157259 -3.25124e-21)
(1.00935 -0.000357982 -5.21832e-22)
(1.06968 -0.0871118 -1.6586e-22)
(1.02783 -0.0391294 5.69101e-22)
(1.00408 2.27673e-05 -5.59115e-22)
(1.00725 -0.000919575 -4.45209e-22)
(1.01074 0.000178589 0)
(-0.0609259 0.135796 1.1308e-20)
(1.01313 0.00134748 0)
(0.843434 0.0425429 -5.61695e-22)
(1.0415 -0.0285964 0)
(0.641401 -0.0154805 -2.05393e-22)
(0.969915 -0.0834295 -4.96134e-22)
(0.482267 -0.00330598 0)
(1.01102 0.000947457 -1.70391e-24)
(0.129319 0.145384 -3.55909e-22)
(0.408783 -0.0112628 -5.02987e-21)
(0.980212 -0.120657 -4.69942e-23)
(1.01997 -0.0360665 0)
(1.14045 -0.089844 3.62298e-21)
(0.566092 -0.013917 -3.36333e-21)
(1.0114 -0.000733862 1.2264e-21)
(1.07827 -0.0727654 -5.79472e-21)
(1.01651 -0.00729861 1.42772e-22)
(1.01929 -0.00735179 0)
(1.02498 -0.011862 -2.54213e-23)
(1.01666 -0.000668583 0)
(0.966745 -0.056631 -1.1352e-21)
(1.01338 -6.2527e-05 0)
(0.54003 0.131161 -6.38827e-22)
(1.01064 0.000344293 -8.82875e-22)
(0.63913 -0.0172944 0)
(1.00857 -0.000322706 0)
(0.914079 -0.0215218 1.48113e-20)
(1.01987 -0.00742166 7.0212e-23)
(1.02429 -0.015588 -2.62293e-22)
(1.0034 -0.0178314 1.06735e-21)
(1.01941 -0.103655 6.05808e-21)
(1.00339 0.0152007 0)
(1.01333 -0.00730596 8.36621e-22)
(1.0742 0.057564 3.60606e-21)
(0.868618 -0.0321373 0)
(1.1445 -0.0339119 6.95348e-24)
(1.01033 -0.00360438 -1.19735e-21)
(0.3174 0.00685297 5.21017e-22)
(0.565888 -0.0366848 -4.89619e-21)
(1.0917 -0.0768661 -8.07895e-21)
(1.04784 -0.0434286 3.37187e-21)
(1.01674 -0.000660306 0)
(1.02396 -0.0156688 4.37145e-22)
(0.426989 0.00673297 1.52927e-22)
(1.00938 -0.000341575 1.0717e-21)
(0.90448 -0.0305004 0)
(1.03382 -0.00579322 0)
(1.08455 -0.080977 -1.32112e-20)
(-0.192532 0.157266 5.69652e-20)
(1.02886 -0.0248948 4.43824e-21)
(0.886065 -0.0320851 0)
(1.00783 0.000405178 -3.7131e-22)
(0.873292 -0.21887 2.88285e-21)
(0.0710706 0.162553 0)
(1.14495 -0.123732 -1.69762e-20)
(0.920938 0.190426 -2.58998e-22)
(1.01015 0.000709423 4.19459e-22)
(1.00528 0.000115255 -4.27385e-22)
(1.08038 -0.08036 9.1445e-21)
(1.0168 -0.0300633 1.51952e-21)
(0.634419 -0.0162158 0)
(1.06674 -0.135032 -3.86913e-21)
(1.00162 2.60767e-05 -8.92371e-23)
(0.486514 -0.00387178 0)
(1.00713 0.000172126 -4.49238e-22)
(1.00498 4.49586e-05 -3.53912e-22)
(0.271057 -0.000683703 0)
(1.00634 0.000215393 0)
(1.02852 -0.00410246 3.72368e-21)
(0.588468 0.205989 9.76844e-21)
(1.0154 -0.0301646 0)
(0.517298 -0.226857 2.32325e-20)
(1.0107 0.000771014 0)
(0.560657 0.0746433 -7.27318e-21)
(0.960069 -0.122963 -1.62981e-21)
(1.01015 -8.17006e-05 5.06831e-22)
(1.00667 0.000208972 -2.4679e-23)
(1.00536 -0.0493851 6.87236e-22)
(1.01795 -0.0105907 1.96574e-24)
(1.00754 -0.00112629 -8.01912e-22)
(1.00759 0.00036738 -6.68745e-22)
(0.885511 -0.29175 3.29329e-21)
(1.0116 -0.00330724 2.13129e-22)
(1.03515 -0.0432341 1.82368e-21)
(1.0096 -0.000114554 0)
(1.01487 -0.000661803 -3.17685e-22)
(0.396913 -0.00477896 3.95493e-21)
(0.874764 0.302777 5.6238e-21)
(1.00756 -0.00114454 7.17061e-22)
(1.05894 -0.0528032 7.34581e-21)
(-0.151467 0.378271 1.20839e-20)
(0.445489 -0.00183615 6.10037e-24)
(1.01948 -0.0112858 1.1567e-22)
(1.01228 -0.0038729 -2.13723e-22)
(0.00126894 0.0618587 -8.01025e-21)
(1.06877 -0.0296191 0)
(0.872956 -0.18593 2.83533e-21)
(1.01106 0.000752633 1.25637e-22)
(1.01981 -0.0155102 1.88988e-22)
(1.00661 0.000191211 -1.91814e-22)
(1.01982 0.00309834 -4.96431e-23)
(1.01866 -0.0111095 5.64238e-23)
(1.01418 -0.00035103 0)
(1.03031 -0.034146 9.88114e-22)
(1.02047 0.0024292 1.4267e-23)
(1.00827 -0.00033993 -5.28584e-22)
(1.00772 0.000350945 -4.68327e-22)
(1.13271 -0.0624527 0)
(1.06639 -0.0510242 0)
(0.501987 -0.0184513 6.89322e-22)
(1.05138 -0.107007 -1.62052e-23)
(-0.191039 0.184947 -2.48571e-20)
(-0.0573118 0.0973017 1.12884e-21)
(0.312227 0.00410155 -5.95962e-22)
(1.01246 -0.0040011 1.38911e-22)
(0.934516 0.179496 0)
(1.04096 -0.0100359 -3.7446e-23)
(0.871392 -0.138968 0)
(1.02778 -0.00431394 -1.64905e-21)
(0.819797 -0.332939 -5.11175e-21)
(1.03364 -0.00616034 0)
(1.00934 -0.000398343 -1.07685e-21)
(1.01214 0.000953431 0)
(0.986018 -0.043994 -8.71583e-21)
(1.01335 -0.00035504 0)
(1.01269 0.00186423 0)
(1.06558 -0.0418074 5.6495e-21)
(1.14399 -0.0547354 7.43313e-23)
(0.998767 -0.100607 8.96781e-22)
(1.11439 -0.0403204 -4.66238e-21)
(0.426599 0.335724 1.65831e-20)
(0.648358 -0.0161231 0)
(1.01463 -0.0117287 0)
(-0.0695991 0.208855 2.45904e-20)
(0.148499 0.0675574 1.95366e-21)
(0.491536 0.352098 -2.52765e-20)
(1.00796 0.000550036 4.74821e-22)
(1.03768 -0.00953658 -5.22083e-21)
(0.784084 0.130244 1.5546e-20)
(1.00798 0.000418585 5.51654e-22)
(0.867031 0.297992 3.39108e-21)
(1.08164 -0.0510586 0)
(1.00217 1.12055e-05 0)
(0.945631 0.0260311 4.66771e-22)
(0.956144 -0.0362977 6.05318e-21)
(1.05223 -0.0297649 1.50888e-21)
(1.02727 -0.0309925 2.35297e-22)
(1.00715 -0.000842924 -3.00812e-24)
(1.01137 -0.00062127 0)
(1.01441 -0.0101911 1.0037e-21)
(1.01574 -0.000981589 -3.60363e-22)
(1.00794 0.00055673 0)
(1.00599 0.00017964 -6.93093e-23)
(1.0095 -0.00267056 0)
(0.927833 0.117006 -5.40562e-21)
(1.02706 -0.00459201 -1.48077e-21)
(0.297961 0.00563809 0)
(1.01946 -0.0152539 2.34547e-22)
(1.02764 -0.0317492 -2.6583e-22)
(1.04262 -0.0055197 -6.04248e-23)
(1.01171 0.000182027 1.06032e-21)
(1.01625 0.00286013 0)
(0.844928 -0.162547 9.6674e-23)
(0.952513 0.0324928 -4.58982e-22)
(1.01641 -0.000731163 -4.11669e-22)
(1.00931 -0.000575512 0)
(1.01142 -0.000719594 0)
(1.02043 0.00325721 3.74835e-25)
(1.13989 -0.0806592 -4.60517e-21)
(1.01517 -0.00625986 2.56006e-23)
(1.02511 -0.00228142 2.06185e-22)
(1.01698 -0.00723914 -1.59459e-21)
(1.00712 -0.000822909 1.39488e-21)
(-0.0147388 0.14112 -7.07009e-20)
(0.895737 -0.102104 1.03115e-20)
(0.501303 0.0135271 0)
(1.01103 -0.00320576 -7.01839e-22)
(0.0298288 0.164558 4.68166e-21)
(1.01482 -0.245133 0)
(1.02274 -0.0229792 -3.6603e-21)
(1.00243 5.33857e-05 0)
(1.03976 0.0756088 -2.20699e-21)
(1.01112 -0.00327319 -1.19791e-23)
(0.645613 -0.0077683 0)
(1.00705 -0.0101025 0)
(1.03684 -0.0415335 9.09305e-22)
(1.06663 -0.041581 -1.20963e-20)
(1.02656 -0.00453595 1.4262e-21)
(1.03454 -0.0106321 -1.5336e-21)
(1.0149 -0.00357084 4.29656e-22)
(1.08155 -0.0555487 5.42165e-21)
(0.920686 -0.0311038 -6.34151e-21)
(0.89289 -0.133566 0)
(1.01369 -0.000652192 0)
(1.01216 0.000931912 -3.90472e-23)
(1.01117 -0.00128274 1.21367e-21)
(0.659857 -0.0333729 0)
(0.395384 0.00839043 3.14004e-20)
(1.03107 -0.00673455 -5.02903e-23)
(0.284548 -0.0475846 -3.767e-20)
(1.00817 -0.000220659 0)
(0.807759 0.109581 0)
(1.08091 -0.0500803 5.92499e-21)
(1.07944 0.0801051 -5.67803e-21)
(1.04544 -0.0184939 -3.23405e-21)
(0.959499 -0.0761726 0)
(-0.0758805 0.135392 0)
(1.0048 0.00011519 -3.62638e-22)
(1.08057 -0.0529081 -2.25964e-22)
(0.390596 0.429525 0)
(1.01105 0.000828987 0)
(1.08133 -0.0552746 1.24465e-20)
(0.306863 0.00680037 0)
(1.01156 -1.14879e-05 6.15622e-22)
(1.04148 -0.0270552 -2.68618e-21)
(0.615986 0.0265019 2.85904e-21)
(1.06751 -0.0512634 3.43416e-21)
(1.02087 -0.0170541 6.40428e-23)
(1.0081 0.000723369 -1.20993e-21)
(0.18326 -0.183501 3.28691e-21)
(0.643578 -0.331355 1.32902e-20)
(1.03526 -0.176502 0)
(1.08377 -0.0593049 -9.78478e-21)
(1.0562 -0.0261843 8.21317e-21)
(1.00849 -0.00169155 8.12282e-22)
(0.687201 0.131476 -3.03022e-21)
(1.0091 -0.00112964 -1.28917e-21)
(1.00754 -0.00050545 4.28621e-22)
(1.01152 1.7336e-05 -2.31527e-24)
(1.00794 0.000600178 -6.71275e-23)
(1.01083 -0.000186303 -2.85549e-22)
(1.01348 -0.00903938 7.42783e-22)
(0.63855 0.137664 3.10705e-21)
(1.01793 0.00341299 0)
(1.02008 0.0499867 3.3704e-22)
(1.01954 -0.0062886 1.03034e-21)
(0.807088 -0.00935274 0)
(1.01145 0.00026987 1.64944e-21)
(0.396895 -0.00862119 1.77443e-21)
(1.00606 0.000129938 3.72938e-22)
(0.805439 0.143038 0)
(1.01846 -0.0107119 -3.26235e-23)
(0.552312 -0.0122537 3.63296e-21)
(1.06675 -0.0279073 -4.22208e-21)
(0.637458 0.0113778 -7.22065e-21)
(1.07276 -0.0456922 -3.8044e-21)
(0.249358 0.00313937 0)
(1.08379 -0.164291 -1.43096e-20)
(1.01475 -0.00342083 1.13423e-23)
(1.14814 -0.130105 1.66463e-20)
(0.548716 0.078873 1.06266e-20)
(1.02228 -0.00313916 -1.04891e-21)
(0.191812 -0.203942 5.51032e-21)
(1.0078 0.000619693 -1.44408e-22)
(1.04637 -0.0184545 6.28246e-21)
(0.881984 0.110203 -7.04469e-21)
(1.02861 -0.00750476 0)
(1.01581 -0.00701901 6.59702e-23)
(1.04372 -0.0418989 -2.18695e-21)
(1.01682 -0.000794999 0)
(0.622771 0.336004 0)
(1.01115 0.000907109 -2.91001e-22)
(1.00457 5.72813e-05 -7.13893e-24)
(1.06574 -0.0260192 0)
(1.0355 -0.0851407 0)
(1.01115 -0.00119004 5.92187e-22)
(1.02296 -0.0210666 5.00506e-21)
(1.04208 -0.0277781 1.43175e-21)
(0.801368 -0.0257964 0)
(0.534068 -0.00212343 0)
(1.00779 0.000403123 0)
(1.01098 -0.00304983 0)
(0.822328 -0.3346 1.21936e-21)
(1.10238 -0.0661529 7.35448e-21)
(1.01089 -0.000191775 0)
(1.06533 -0.0293668 -8.93268e-21)
(1.01934 -0.00664413 9.00749e-22)
(0.642509 -0.254111 -3.07877e-20)
(0.231132 0.000811249 0)
(1.03056 -0.033228 -1.14221e-21)
(1.02144 -0.012896 7.27928e-22)
(1.00799 0.000699372 -3.55028e-22)
(1.01355 -0.0089871 2.12689e-21)
(-0.213158 0.0592127 2.9822e-21)
(1.01545 -0.00560782 -2.27236e-22)
(1.02276 0.00434786 -2.08384e-23)
(1.01214 -0.0340419 0)
(1.00811 0.000221596 0)
(1.0142 -0.000236171 -4.85915e-22)
(0.487747 -0.00191713 -5.26464e-21)
(0.295836 0.439791 -1.27169e-20)
(1.01069 -0.00319833 -2.0867e-22)
(1.03093 -0.00701476 -2.06425e-21)
(0.971525 -0.0479697 -6.81979e-21)
(0.490597 0.0129798 -2.41975e-20)
(0.868835 -0.239361 2.56136e-21)
(1.09227 -0.0601494 4.58792e-21)
(1.01515 -0.00638291 -3.91687e-23)
(0.69088 0.0369713 5.36239e-22)
(1.04779 -0.0339838 1.26548e-21)
(0.311776 -0.0940831 0)
(1.00969 -0.00286606 -3.78736e-22)
(1.08118 -0.0459824 0)
(1.00636 -0.0529108 0)
(1.0086 -0.0107704 1.30692e-21)
(1.01197 -0.00470973 -1.07724e-22)
(-0.0431314 0.0402685 -2.02417e-20)
(0.494917 0.0154965 1.95868e-20)
(1.02113 0.00624824 2.08349e-22)
(1.01439 -0.000381655 0)
(1.06224 -0.139377 2.19066e-21)
(1.08 -0.0469312 -4.20452e-21)
(1.01883 0.00285489 0)
(1.01524 -0.00557722 7.3228e-23)
(1.05565 0.119421 -1.17575e-21)
(1.01473 -0.0193228 0)
(1.08539 -0.0497514 0)
(0.516001 0.0529723 -5.49986e-21)
(1.02051 -0.0168537 1.98967e-22)
(1.00121 -0.0559058 6.51788e-21)
(0.846091 -0.33838 5.62638e-22)
(0.0467414 0.0372338 0)
(1.15678 -0.158456 -8.14297e-21)
(1.14922 -0.181579 5.64467e-21)
(1.01149 -0.000540538 0)
(1.02809 -0.00737103 0)
(1.01738 0.000322264 -1.4248e-21)
(0.373729 0.00760476 -1.908e-20)
(0.878019 -0.0247106 -3.01451e-21)
(1.00795 0.000547439 2.32832e-22)
(0.242405 0.281187 -5.75342e-21)
(1.00593 0.0001702 3.39215e-22)
(1.04129 -0.0105288 -1.5523e-21)
(1.02199 -0.173581 -1.09609e-21)
(1.01223 0.00164035 0)
(1.10079 -0.0677175 -1.24107e-21)
(1.00787 0.00053312 3.21478e-22)
(-0.0506145 0.0616894 -4.06077e-22)
(1.01431 0.00384166 1.01016e-21)
(1.00875 -0.000326542 0)
(1.01127 0.000272462 -2.5535e-22)
(0.436578 -0.00354825 -4.0782e-21)
(0.031841 -0.232832 -4.01031e-20)
(1.01504 -0.00474969 -7.89811e-22)
(-0.043793 -0.242053 3.55417e-20)
(0.324791 0.44668 0)
(0.462247 0.027162 0)
(1.08293 -0.0598659 -6.98967e-21)
(1.04287 -0.0298008 3.42162e-21)
(1.01204 0.00159817 0)
(1.02076 -0.00322584 -5.27653e-22)
(1.01683 0.00235534 0)
(0.921086 -0.133972 0)
(-0.00416684 -0.304769 0)
(1.01114 -0.00322249 3.10117e-22)
(1.01748 0.00460162 0)
(1.03233 -0.0177922 -1.43471e-23)
(0.318784 -0.386551 3.43969e-21)
(0.779146 -0.264905 8.59166e-21)
(0.474359 -0.0015479 4.96595e-21)
(1.01943 -0.00693777 -2.16233e-22)
(1.06654 -0.0695503 7.79775e-21)
(1.02853 -0.0281539 6.23112e-22)
(1.00734 0.000119325 0)
(1.01175 -0.000792822 0)
(0.830476 -0.327308 -7.6131e-21)
(0.50272 -0.013423 7.3033e-22)
(0.635671 -0.0220673 0)
(1.03088 -0.0367128 1.58853e-21)
(1.08139 -0.0543122 3.8834e-21)
(0.601913 -0.023211 5.15622e-21)
(1.04529 -0.035126 -2.79284e-22)
(-0.0340483 -0.267853 0)
(1.00844 0.000164813 0)
(1.00458 -0.000153224 1.93386e-24)
(1.01177 -0.0289301 -7.10894e-22)
(1.00995 -0.000193206 0)
(1.07987 -0.0474767 -5.05069e-23)
(0.00622307 0.149706 1.2246e-20)
(1.07022 -0.0648914 -4.46689e-21)
(1.03316 -0.0169484 2.91166e-21)
(1.06395 -0.067971 7.6515e-21)
(1.07091 -0.0485117 0)
(1.00267 5.29382e-05 -3.23111e-22)
(1.0084 0.000200164 0)
(1.00849 -0.00165683 -7.28932e-22)
(0.867774 0.0672029 -1.77234e-20)
(1.00211 2.52599e-05 0)
(0.211249 0.275209 -6.26013e-22)
(1.01715 0.00250028 0)
(0.701695 0.0234839 0)
(1.09137 -0.0614175 4.27734e-21)
(1.01115 -0.00308891 0)
(1.01044 -0.00371707 -4.14931e-22)
(0.825303 -0.0160575 0)
(1.02603 -0.0252545 3.22668e-23)
(1.06552 -0.0448115 0)
(1.01779 -0.000689553 -5.99819e-22)
(1.01621 0.00276619 0)
(1.01729 0.0198225 -4.13935e-22)
(1.02344 0.0043138 6.24181e-23)
(0.315215 0.139951 2.29304e-20)
(1.01358 0.00187826 -6.644e-22)
(1.02049 -0.00314945 2.06491e-22)
(1.03397 -0.0107319 -7.51305e-22)
(1.02059 0.0223997 8.32569e-22)
(1.00463 5.20717e-05 -1.77356e-22)
(0.303842 -0.231092 9.11678e-21)
(1.00467 0.000135639 3.77198e-22)
(1.0136 0.00183184 -9.60378e-22)
(1.0129 -0.0068812 5.9393e-22)
(0.48247 0.013609 -2.16249e-20)
(1.0001 -0.0985797 0)
(0.863226 -0.15636 0)
(1.04812 -0.0288995 1.38914e-21)
(0.48912 0.053637 -8.27905e-22)
(1.05662 -0.0292694 0)
(1.03725 -0.00886164 1.35303e-21)
(1.0021 1.45739e-05 -1.57018e-24)
(1.02447 -0.0573796 1.18976e-22)
(1.03241 -0.0174584 -1.51808e-21)
(0.923067 -0.122624 0)