/*--------------------------------*- C++ -*----------------------------------*\
| =========                 |                                                 |
| \\      /  F ield         | OpenFOAM: The Open Source CFD Toolbox           |
|  \\    /   O peration     | Version:  v2012                                 |
|   \\  /    A nd           | Website:  www.openfoam.com                      |
|    \\/     M anipulation  |                                                 |
\*---------------------------------------------------------------------------*/
FoamFile
{
    version     2.0;
    format      ascii;
    class       volVectorField;
    location    "100";
    object      U_0;
}
// * * * * * * * * * * * * * * * * * * * * * * * * * * * * * * * * * * * * * //

dimensions      [0 1 -1 0 0 0 0];


internalField   nonuniform List<vector> 
27915
(
(1.0252 -0.0257744 2.23208e-22)
(1.08212 -0.0821759 1.45253e-20)
(0.535373 -0.0101685 0)
(1.00899 -0.00106898 9.66977e-22)
(1.01142 -0.00354909 1.18298e-22)
(1.03052 -0.0355948 -1.46442e-21)
(1.01338 0.00208019 -2.97445e-22)
(0.54369 -0.0028247 3.16853e-21)
(1.01121 -0.00299473 0)
(0.584275 -0.0381031 4.49417e-21)
(1.02406 -0.055036 -8.00289e-22)
(0.406809 -0.295547 0)
(0.974465 -0.0687128 5.04634e-22)
(1.01345 0.00209958 2.34817e-22)
(1.02016 0.00313379 4.9215e-23)
(1.00886 -0.00189458 -6.28809e-22)
(0.830123 -0.16321 -5.39772e-21)
(1.02084 -0.012344 8.23936e-23)
(1.08113 -0.0507727 0)
(0.54215 -0.00388528 1.00088e-21)
(0.963341 -0.137036 -1.15818e-22)
(1.02272 -0.0194191 0)
(0.750631 0.260413 -4.49734e-22)
(1.01916 -0.0111174 -3.85267e-22)
(1.00889 -0.00187662 5.70243e-22)
(1.00697 -0.00029853 -1.49369e-21)
(0.938253 -0.302722 -8.42321e-21)
(1.01136 -0.0034429 5.23859e-22)
(0.4487 -0.0025817 0)
(1.04578 -0.0286592 1.97142e-24)
(1.02026 -0.00791357 0)
(1.01306 -0.0318761 0)
(1.00869 0.000521881 -3.58854e-22)
(1.00714 0.000211776 -3.34848e-22)
(0.785311 0.00269704 2.93591e-22)
(1.00708 0.000183785 0)
(1.0028 5.57052e-06 6.74789e-22)
(1.00691 -0.000301692 1.60187e-21)
(1.06398 -0.0428098 1.78612e-21)
(1.01293 -0.0070165 -5.79619e-22)
(1.01148 -0.0107825 1.74812e-21)
(1.00273 1.00368e-05 -7.21652e-22)
(1.10816 -0.0394003 0)
(1.01082 -0.00299745 -3.07455e-22)
(0.707606 0.00996333 1.13274e-20)
(1.01299 -0.0071662 -3.5344e-22)
(1.01442 -0.0052543 3.03518e-23)
(1.02445 -0.0389828 1.76614e-21)
(1.00563 -0.000274972 -4.08535e-22)
(1.01163 -4.40076e-05 -1.33189e-21)
(0.556485 -0.00499366 0)
(0.933859 -0.0977976 2.43248e-21)
(-0.145243 0.354519 -5.25348e-20)
(1.04194 -0.0296184 0)
(1.05348 -0.0285724 -2.33497e-21)
(1.01439 -0.00508356 0)
(1.01782 -0.00088934 0)
(0.948525 -0.0536057 1.04719e-21)
(0.945273 -0.038264 -1.40756e-21)
(1.02022 -0.00763187 -5.1727e-22)
(0.804351 -0.0347023 0)
(1.0239 -0.0261216 2.13928e-21)
(0.739358 -0.0275625 -4.22858e-21)
(0.167215 0.00219196 0)
(1.01551 -0.000863468 8.41883e-22)
(1.0698 -0.0405247 -1.1249e-21)
(0.435681 -0.287402 2.30374e-21)
(0.555413 -0.00613112 7.66533e-21)
(0.776883 0.00753212 1.0414e-20)
(1.01674 -0.000834977 0)
(1.01816 0.0128974 2.41955e-22)
(1.01902 -0.0113349 2.12825e-22)
(1.02116 -0.0124161 -2.8338e-22)
(0.932285 -0.0573268 0)
(0.547388 -0.0353523 0)
(1.0199 0.022486 -3.90047e-22)
(1.04482 -0.0283184 -1.68389e-21)
(1.00825 0.00075438 -7.412e-22)
(-0.0115723 -0.285176 1.91913e-20)
(1.03214 -0.0137686 -6.22466e-22)
(1.03102 -0.0350275 -1.33201e-21)
(1.01283 -0.0068846 1.01189e-21)
(1.04557 -0.0436896 0)
(0.525652 0.0085819 7.23237e-21)
(0.561345 -0.231528 0)
(1.06331 -0.107403 0)
(1.0068 0.000213763 0)
(1.10596 -0.0387753 7.27981e-21)
(0.156671 0.110578 6.46993e-22)
(1.02828 -0.0110367 -9.98403e-22)
(1.01433 -0.00988401 -9.18232e-22)
(0.947081 -0.0974003 1.38163e-21)
(1.01143 -5.85637e-05 2.25987e-22)
(0.790613 -0.315746 -1.38676e-20)
(0.455657 -0.00275842 2.96871e-21)
(0.548514 -0.01135 0)
(0.96018 -0.111861 1.68233e-21)
(0.605831 -0.0346454 -1.95329e-21)
(1.02386 -0.0262097 -9.79753e-22)
(1.01115 0.00088955 1.44912e-22)
(1.0677 -0.030056 0)
(1.00679 -0.000278501 -9.70344e-23)
(0.600989 -0.0324892 -1.13437e-21)
(1.01306 -0.00241038 -1.52253e-21)
(1.00768 -0.0109167 0)
(1.01275 -0.00676397 8.90586e-22)
(0.827827 -0.208371 -2.28463e-20)
(0.941976 -0.0318132 7.40932e-21)
(1.00674 -0.000276971 -3.44173e-22)
(0.582683 -0.0209998 -2.33598e-21)
(0.966177 -0.112439 1.5251e-20)
(1.01171 -0.0113655 -3.24347e-23)
(1.05141 0.0112321 -1.71566e-24)
(1.06037 -0.11749 -4.67612e-23)
(0.948644 -0.0284021 2.11456e-21)
(0.930096 -0.0893436 -1.85842e-21)
(0.485623 -0.36029 0)
(1.01469 -0.0318624 0)
(1.01286 -0.00216982 7.62678e-22)
(1.00562 -0.000265238 -7.34074e-22)
(1.01436 -0.00976302 -6.75082e-22)
(1.04602 0.00969985 -2.45741e-22)
(1.00881 0.00053351 0)
(1.02225 -0.0192202 9.68786e-23)
(1.00368 8.26703e-05 0)
(0.858069 -0.169317 1.11188e-20)
(1.02941 -0.0514499 -3.74288e-21)
(0.348184 0.00571354 0)
(1.01826 -0.00908833 0)
(1.01094 -0.00101774 -4.91918e-22)
(1.02392 -0.0265575 0)
(0.966945 -0.301866 3.8483e-22)
(0.784052 -0.32516 0)
(1.10824 -0.0386965 0)
(0.400723 -0.259707 -4.46075e-21)
(1.0491 0.00252773 -6.80044e-21)
(0.568193 0.220994 -9.23369e-22)
(1.00643 0.000138019 6.31192e-22)
(1.01112 -0.000765535 -6.01171e-22)
(1.01424 -0.0093308 3.85641e-22)
(1.00646 -7.30726e-05 0)
(1.0547 -0.0284099 2.71646e-21)
(1.00283 -6.24958e-05 -6.02552e-22)
(1.09337 -0.0538842 0)
(0.896696 -0.0928976 0)
(0.566792 -0.00645201 -4.3555e-21)
(0.407307 -0.00469853 7.0809e-21)
(1.02324 -0.0373424 1.54598e-21)
(1.01537 0.022604 0)
(1.04685 -0.0441877 -2.8185e-21)
(0.525208 -0.353117 0)
(1.00646 0.000146989 -6.41598e-22)
(1.00461 -0.206576 3.31314e-21)
(0.0176262 0.200948 0)
(0.880529 -0.173175 0)
(0.639448 0.0151642 0)
(1.0017 -0.0463564 -7.99231e-22)
(1.00699 0.000142175 1.93818e-23)
(1.00525 7.97948e-05 0)
(1.01475 -0.000692655 -6.23084e-23)
(1.08696 -0.173221 1.33196e-20)
(0.636346 0.0601506 -2.51465e-20)
(1.01077 0.000124103 8.68175e-22)
(1.00826 -0.00380827 8.41165e-22)
(0.862804 -0.0924522 7.78712e-23)
(1.02535 -0.00249652 0)
(0.99297 -0.207604 -6.47114e-23)
(0.831074 0.405499 2.86155e-22)
(0.564795 -0.0377272 -2.26309e-21)
(1.00167 -1.315e-05 -6.41705e-22)
(1.02098 0.00120523 3.2904e-21)
(1.02187 -0.0129879 -9.51768e-22)
(1.0036 8.18879e-05 0)
(1.02655 -0.0389722 0)
(1.01283 0.00192548 1.48102e-22)
(0.3757 0.0304738 5.78217e-21)
(0.57907 -0.0200157 -1.50303e-21)
(1.01272 -0.00178417 4.54987e-23)
(1.00668 0.000132155 -5.56176e-22)
(0.623229 0.0422324 0)
(0.152603 0.134777 7.13794e-22)
(1.02907 -0.00215885 6.15325e-22)
(1.00338 -0.000199463 0)
(0.581074 -0.0075812 0)
(1.05336 -0.000527321 0)
(1.11455 -0.058353 3.59257e-22)
(1.00526 0.000134508 0)
(1.00659 8.05673e-05 0)
(0.493759 -0.00407161 2.13036e-21)
(1.00684 0.000228125 -9.80283e-22)
(0.906268 -0.0325465 0)
(1.00908 -0.052048 1.85202e-22)
(1.08639 -0.20367 5.34785e-21)
(1.01262 -0.00155099 -8.07631e-22)
(1.01453 0.00178028 1.44329e-23)
(1.00759 -0.000504971 -3.84992e-22)
(1.10914 -0.0743316 -8.07064e-22)
(1.00507 -0.0038358 1.41819e-23)
(1.00231 2.22188e-05 -6.40971e-22)
(1.03969 -0.0404619 0)
(-0.135147 0.350437 4.09039e-20)
(0.557634 -0.332823 -2.02645e-21)
(1.00749 0.000113936 0)
(1.00295 5.25205e-05 -6.18404e-22)
(0.399627 0.0245158 2.90195e-22)
(0.417012 -0.00525753 -5.10708e-21)
(1.03513 -0.114656 -4.9901e-21)
(1.0202 0.0157632 9.9185e-22)
(0.415567 0.402569 0)
(1.0113 -0.00303214 0)
(1.04285 -0.0428572 9.99004e-22)
(0.46847 -0.0218736 9.31687e-23)
(1.00262 5.32238e-05 0)
(1.01771 -0.000332369 -1.13416e-21)
(1.00339 4.54648e-05 -1.3103e-22)
(1.01325 -0.000361632 -4.44031e-24)
(1.02145 0.0137152 -9.70344e-22)
(0.882826 -0.164537 -2.52889e-21)
(1.01105 -0.000946958 2.58471e-22)
(1.01264 -0.00657521 0)
(1.01811 -0.0104532 3.47439e-23)
(1.02249 0.00403403 4.96466e-23)
(1.05318 -0.0296078 1.3028e-21)
(1.00544 -4.50283e-06 0)
(0.511857 0.0143064 0)
(1.04335 -0.115386 0)
(1.0113 -0.00326226 0)
(0.940228 -0.188589 -7.32151e-21)
(1.01128 -0.00080872 -6.0284e-22)
(1.00916 0.000635664 -4.76902e-22)
(0.379184 -0.00157576 -1.97993e-21)
(1.02008 0.010416 -6.1736e-22)
(0.472223 0.00771312 1.10176e-21)
(0.835183 0.402785 0)
(0.976857 -0.138058 9.67012e-23)
(1.01973 0.00204074 -7.53436e-22)
(0.535066 0.159705 5.12757e-21)
(1.01259 -0.000415735 0)
(1.00231 -6.52497e-05 0)
(1.01021 4.2202e-05 0)
(0.95437 -0.128117 -8.44526e-21)
(1.01374 -0.0131475 0)
(1.02009 0.0123923 2.22656e-22)
(0.60117 -0.323514 5.00217e-21)
(1.01802 -0.00883992 -3.76122e-22)
(1.00673 0.000150544 0)
(0.0209651 0.190005 0)
(0.209209 0.000993331 3.8366e-20)
(1.00729 -0.00779039 1.22662e-21)
(1.08053 -0.212113 0)
(1.05728 -0.0259273 -1.06832e-20)
(0.646027 -0.00310597 0)
(1.01562 0.00211069 0)
(1.02058 -0.00814949 0)
(1.01257 -0.00646353 0)
(0.950308 -0.105104 0)
(1.02558 -0.0257985 -8.92939e-23)
(1.01137 -0.00144397 -8.11478e-23)
(1.02915 -0.0667214 3.32886e-21)
(0.837561 -0.216353 3.03385e-20)
(0.491997 -0.017112 0)
(1.08946 -0.0786521 7.63903e-21)
(1.0346 0.0492124 7.25241e-22)
(1.05517 0.0652926 3.8889e-21)
(1.02873 0.0562297 -3.19968e-23)
(1.06982 -0.0500246 0)
(1.00773 -0.001235 2.18175e-22)
(0.894603 -0.031322 6.771e-21)
(0.653337 -0.00499541 0)
(0.948558 -0.144563 0)
(1.01625 -0.000977772 1.04213e-21)
(0.516245 0.0177844 0)
(0.649245 0.0915551 -2.2194e-20)
(0.26354 0.000567451 -1.20833e-20)
(1.00771 -0.00876947 -1.73421e-21)
(1.00777 -0.00124628 0)
(1.01359 -0.00305222 -6.67713e-22)
(1.01402 -0.013037 -1.0772e-21)
(1.00823 -0.000320902 0)
(1.02207 -0.0185987 -4.02949e-24)
(1.01101 -0.000836361 0)
(1.01112 0.000967131 0)
(1.00816 0.000742244 5.73204e-22)
(1.02127 0.00956538 -3.77248e-22)
(1.07308 0.0191035 0)
(0.587307 -0.0190819 -6.71832e-21)
(0.134814 0.147861 -1.07638e-20)
(1.03945 -0.132728 -2.18546e-20)
(1.04432 -0.0292248 1.67903e-21)
(0.831368 -0.0300585 0)
(1.13282 -0.0257415 0)
(1.02005 -0.0117983 -7.34202e-23)
(0.659176 0.0927544 2.61798e-20)
(1.00976 -0.000684535 0)
(1.01328 -0.00291594 -2.03547e-22)
(1.08719 -0.0774751 0)
(1.04972 -0.00445364 -2.94697e-21)
(0.616667 0.313545 5.90366e-22)
(1.02098 -0.0375801 -1.46262e-21)
(1.01736 -0.000335489 6.63124e-22)
(0.89886 0.12248 6.01813e-21)
(1.01892 0.0117344 3.01986e-23)
(1.01083 -0.000258218 1.03274e-21)
(1.00152 6.84512e-05 4.29684e-22)
(1.06714 -0.0666547 1.05563e-21)
(-0.231444 0.102233 -4.44941e-20)
(1.03881 -0.04123 0)
(1.00616 0.000152096 0)
(-0.0109409 -0.263559 6.21123e-20)
(1.01742 -0.000910113 -1.18111e-24)
(0.998117 -0.15519 -9.29154e-21)
(1.03224 -0.00678344 1.11631e-21)
(0.795863 -0.0100353 1.68108e-20)
(1.01136 -0.0013492 -1.18542e-21)
(0.976597 -0.120747 1.40079e-20)
(1.00254 4.32267e-05 -9.02825e-22)
(1.01086 0.00070948 7.35467e-23)
(0.544132 0.00862131 0)
(0.33664 0.00752924 0)
(0.399291 -0.004772 0)
(1.02455 0.00884948 -1.64254e-22)
(1.01329 0.00140683 0)
(1.00795 -0.00136399 -1.30554e-21)
(1.01754 -0.0105368 0)
(1.02877 0.0380912 -3.51638e-21)
(1.01989 0.0103469 0)
(1.11683 -0.0412336 0)
(0.460313 -0.00329373 2.63361e-21)
(1.01605 -0.00716687 -1.73898e-22)
(1.01053 0.000753169 -1.02503e-22)
(1.01208 -0.0035203 6.30086e-23)
(1.02365 0.0103421 4.00251e-22)
(1.01799 -0.011134 0)
(1.01098 -0.000219561 -1.30252e-21)
(0.751881 -0.23748 -5.41023e-21)
(1.01259 0.00181362 0)
(0.909749 -0.137691 0)
(1.00861 -0.000258002 0)
(0.510796 0.134277 -1.21759e-21)
(0.288614 -0.00147273 1.03217e-20)
(1.04343 -0.0289958 -2.96852e-21)
(0.0821733 0.153979 0)
(0.322681 0.00557168 1.19253e-21)
(-0.146824 0.376698 -8.65084e-21)
(1.01238 0.00177177 0)
(1.01795 0.00317084 0)
(1.03165 -0.00663572 9.86508e-22)
(0.994911 0.010716 1.80367e-20)
(0.592891 -0.0203249 5.17474e-21)
(1.0197 -0.0117057 7.65434e-23)
(1.01725 -0.0103104 -4.55174e-23)
(1.01026 -3.26751e-06 0)
(0.86446 -0.215999 -6.69017e-21)
(1.0211 0.0357689 5.47494e-22)
(1.04556 -0.063535 0)
(1.14563 -0.0772261 1.64002e-20)
(1.01878 -0.00775461 3.90713e-22)
(1.01469 -0.00342919 -3.6146e-22)
(1.01051 0.000249642 -6.36201e-22)
(0.859601 -0.0335775 2.64067e-21)
(1.06478 -0.0695788 -7.62155e-21)
(1.01661 -0.000769523 -1.66207e-21)
(1.01484 -0.0118572 -4.65381e-22)
(1.00765 0.000347941 -4.57765e-22)
(1.01674 0.00317256 3.32128e-22)
(0.0199242 0.0620253 6.2906e-21)
(1.00504 -0.000812935 0)
(1.00911 -0.000323428 -1.50964e-23)
(1.01958 -0.00748754 -7.18822e-23)
(1.00918 -0.00147762 -3.76546e-24)
(0.461522 -0.00376208 -2.42099e-21)
(1.01265 0.00185625 2.63233e-22)
(1.06821 -0.0899019 0)
(1.0091 -0.000572888 1.08521e-23)
(0.63702 -0.0129273 2.90952e-21)
(1.01287 0.0019361 1.6055e-22)
(1.00931 0.000675543 0)
(1.08252 -0.0555153 9.80437e-24)
(1.00654 0.00429996 3.15395e-21)
(1.01581 0.00213494 1.61648e-23)
(1.02733 -0.0380776 0)
(1.10076 -0.0626203 1.55785e-20)
(1.02488 -0.0278287 -1.46122e-21)
(0.838488 -0.326594 7.24647e-21)
(1.00419 -0.0432997 -1.02768e-20)
(1.03159 -0.0669308 -9.24653e-22)
(0.933168 0.0364867 0)
(1.10219 -0.0636748 -1.74318e-20)
(1.01423 -0.00949511 -4.10097e-22)
(1.07901 -0.0461272 1.03124e-20)
(1.02726 -0.00427135 3.08309e-21)
(-0.0654228 0.112766 0)
(0.616879 -0.0201328 0)
(1.00811 -0.00152464 -7.67556e-22)
(0.605427 -0.0409159 3.41456e-21)
(1.08101 -0.0776514 -1.19418e-20)
(1.00588 -0.00188812 1.63354e-21)
(1.01461 -0.000125253 6.13824e-23)
(1.00477 0.00011365 4.3436e-22)
(0.132024 0.0912767 0)
(1.0105 0.000194868 1.01982e-22)
(1.02413 -0.0263743 -6.68754e-22)
(0.460789 -0.00138788 -5.60511e-21)
(1.03611 -0.00931856 2.97948e-21)
(0.793167 0.115243 -7.22618e-21)
(1.01652 0.00544164 0)
(0.970991 -0.148766 8.48122e-22)
(1.01771 -0.000872506 -5.01716e-22)
(0.392211 -0.278287 3.23538e-21)
(1.03906 -0.117842 7.87803e-21)
(0.507582 -0.00519853 -2.04323e-21)
(1.00695 0.0065414 -2.92102e-21)
(1.00813 -0.00152293 6.03858e-22)
(1.00806 0.000157771 -8.81663e-25)
(0.38876 -0.289104 4.05857e-21)
(1.01815 -0.0110024 8.10005e-24)
(0.962185 -0.0332273 -6.96536e-21)
(1.0169 0.000955673 1.16449e-21)
(1.07923 -0.0764437 -5.41225e-21)
(1.01622 0.00592578 -2.64092e-22)
(0.90004 -0.142421 2.41171e-21)
(1.00477 4.69185e-05 5.15921e-22)
(1.06512 -0.0306603 1.041e-20)
(0.88718 -0.0288387 0)
(0.24923 0.0949994 9.22868e-20)
(1.01844 0.00111898 -1.42133e-22)
(1.00902 -0.00034419 1.33158e-22)
(-0.21982 0.0633473 0)
(0.807549 -0.026511 0)
(1.01325 7.99949e-05 4.89112e-22)
(0.891709 -0.0269382 0)
(1.01771 0.00130933 0)
(1.01062 -0.106361 6.76424e-22)
(1.04529 -0.0399539 -2.12406e-21)
(1.00935 -0.000417448 -1.0093e-21)
(1.01009 -4.16008e-05 0)
(1.01666 -0.00749409 -1.45078e-22)
(1.01221 -0.000610225 -4.90558e-22)
(1.03624 -0.0119696 0)
(1.09207 -0.057548 -4.93495e-21)
(0.967246 -0.156316 0)
(0.965701 -0.0825287 -1.89195e-21)
(0.983178 -0.104865 0)
(1.04931 -0.110647 -1.8098e-21)
(1.00512 0.00011933 -4.81712e-22)
(1.01846 0.0060469 4.44442e-22)
(0.471619 -0.0023641 0)
(1.03529 -0.00916894 1.46749e-21)
(1.12113 -0.0472084 0)
(1.01468 0.00183765 0)
(0.888861 -0.093986 0)
(1.02243 -0.0489521 -6.27545e-21)
(1.00728 -0.00094073 -7.76201e-22)
(1.0113 -0.000497812 -9.15149e-25)
(0.967746 -0.102949 -1.56933e-20)
(0.943823 -0.150019 1.50086e-22)
(0.814146 -0.0240627 -3.45174e-20)
(1.01713 0.00319613 -6.24399e-22)
(1.05885 -0.0421152 0)
(0.463626 -0.00282643 -1.43854e-22)
(1.00789 -0.00134385 9.50703e-22)
(1.01171 -0.000173612 -1.76959e-21)
(0.821797 -0.175313 3.34312e-21)
(1.01544 -0.00196056 -7.31706e-22)
(0.444361 -0.00109784 -4.52293e-21)
(0.963486 -0.0449377 6.73832e-21)
(1.00268 8.98689e-05 -3.69139e-22)
(1.01129 -0.0031084 2.54059e-22)
(0.813564 -0.0211669 -5.80107e-21)
(1.01644 0.0588818 -1.321e-22)
(1.01082 -0.00311582 3.28509e-22)
(1.06661 -0.0290923 0)
(1.03477 -0.011042 0)
(1.01075 0.00040472 1.51205e-21)
(1.01945 -0.0155929 -7.70929e-22)
(1.02024 -0.000476743 -2.88325e-23)
(1.01099 -0.00342238 3.60194e-22)
(1.01176 -0.00333048 0)
(0.999883 0.0139352 0)
(1.0298 -0.0242849 0)
(0.990156 0.153586 0)
(1.0233 -0.0236684 1.08074e-21)
(0.151448 0.13124 -7.67761e-21)
(1.05095 -0.149198 -1.27365e-21)
(0.0384088 0.157161 -4.12461e-21)
(1.02165 -0.018391 1.67728e-22)
(1.02409 -0.0276771 0)
(1.03175 -0.00915484 3.44285e-22)
(1.03087 -1.61372e-06 0)
(1.01016 0.000715367 7.4814e-22)
(0.973008 0.170948 -2.04327e-21)
(1.00532 -0.00429801 3.47406e-22)
(1.11474 -0.0489891 0)
(1.0172 -6.10317e-05 3.70083e-24)
(0.458627 -0.00396467 0)
(1.02566 -0.0539153 2.28115e-21)
(1.01489 0.0039617 -9.37505e-22)
(0.998008 -0.107935 0)
(0.904703 -0.0282894 0)
(0.475227 -0.00290788 2.23421e-21)
(1.01192 -0.00351365 0)
(1.01643 0.00116625 3.92472e-22)
(0.409338 0.000483718 1.56088e-21)
(0.825527 -0.334928 -1.74021e-21)
(0.286816 0.127495 1.91479e-20)
(0.461529 -0.00280548 1.12912e-21)
(1.00898 -0.000991865 -9.5193e-22)
(1.01781 -0.000545419 5.35328e-22)
(0.308303 0.00534002 -1.8526e-21)
(0.824655 -0.333587 0)
(1.00961 -0.0027796 0)
(1.01788 -0.108356 2.39312e-21)
(1.09134 -0.0587485 -8.05444e-21)
(0.506048 0.0172603 0)
(0.329486 0.00709486 0)
(1.01668 -0.0427504 1.9358e-21)
(0.678631 0.0156083 -3.26988e-21)
(1.00935 -0.000358353 -5.15485e-22)
(1.06955 -0.0872439 -1.66072e-22)
(1.02783 -0.0390983 5.69972e-22)
(1.00408 2.28841e-05 -5.52621e-22)
(1.00724 -0.000919243 -4.38598e-22)
(1.01074 0.00017998 0)
(-0.0605719 0.138065 1.12924e-20)
(1.01313 0.00134681 0)
(0.843471 0.0406154 -5.64952e-22)
(1.0415 -0.0285949 0)
(0.641355 -0.0154772 -2.06338e-22)
(0.969462 -0.0830801 -4.97267e-22)
(0.48212 -0.00330375 0)
(1.01102 0.00094726 -1.69705e-24)
(0.12855 0.143293 -3.25546e-22)
(0.408901 -0.0112269 -5.04994e-21)
(0.979845 -0.120368 -6.00083e-23)
(1.01987 -0.0361214 0)
(1.14044 -0.0903767 3.6282e-21)
(0.566022 -0.013889 -3.37996e-21)
(1.0114 -0.000731439 1.21202e-21)
(1.07823 -0.0729018 -5.7965e-21)
(1.0165 -0.00729789 1.49488e-22)
(1.01929 -0.00735243 0)
(1.02488 -0.0119134 -2.54039e-23)
(1.01666 -0.000668731 0)
(0.966394 -0.0562625 -1.1352e-21)
(1.01337 -6.21041e-05 0)
(0.540472 0.13412 -6.49833e-22)
(1.01064 0.000345959 -8.72775e-22)
(0.639082 -0.0172826 0)
(1.00857 -0.000322989 0)
(0.91414 -0.0189819 1.4817e-20)
(1.01987 -0.0074226 7.08469e-23)
(1.02428 -0.0155903 -2.65693e-22)
(1.00359 -0.0177353 1.06563e-21)
(1.01954 -0.106919 6.1235e-21)
(1.00351 0.0152859 0)
(1.01326 -0.00726851 8.32024e-22)
(1.07448 0.0559194 3.62284e-21)
(0.868527 -0.032132 0)
(1.14423 -0.0350975 1.81119e-23)
(1.01033 -0.00360329 -1.17608e-21)
(0.317397 0.00687125 5.19413e-22)
(0.565951 -0.0365764 -4.91503e-21)
(1.09168 -0.0770843 -8.08454e-21)
(1.04781 -0.0434289 3.37205e-21)
(1.01674 -0.000660436 0)
(1.02396 -0.015671 4.41435e-22)
(0.426784 0.00708478 1.51988e-22)
(1.00938 -0.000341971 1.05874e-21)
(0.904772 -0.0309113 0)
(1.03382 -0.00579417 0)
(1.08449 -0.0811689 -1.3214e-20)
(-0.192282 0.159172 5.68362e-20)
(1.0289 -0.0250078 4.41325e-21)
(0.88598 -0.0320948 0)
(1.00783 0.000404919 -3.67376e-22)
(0.873225 -0.219941 2.87695e-21)
(0.0716729 0.16392 0)
(1.14493 -0.124464 -1.698e-20)
(0.921632 0.190738 -2.6527e-22)
(1.01015 0.000708899 4.1513e-22)
(1.00528 0.000115236 -4.24205e-22)
(1.0803 -0.0805259 9.14497e-21)
(1.01687 -0.0300237 1.51445e-21)
(0.634369 -0.0162064 0)
(1.06619 -0.13599 -3.84716e-21)
(1.00162 2.61095e-05 -8.81945e-23)
(0.486371 -0.00386836 0)
(1.00713 0.00017274 -4.44107e-22)
(1.00498 4.49383e-05 -3.5159e-22)
(0.270985 -0.000682207 0)
(1.00634 0.000215496 0)
(1.02852 -0.00410306 3.7284e-21)
(0.589023 0.207892 9.74351e-21)
(1.01548 -0.0301175 0)
(0.51711 -0.227925 2.31389e-20)
(1.0107 0.00077043 0)
(0.56121 0.0747344 -7.34341e-21)
(0.959449 -0.122697 -1.62679e-21)
(1.01015 -8.12167e-05 5.00877e-22)
(1.00667 0.000209026 -2.44056e-23)
(1.00564 -0.0498939 6.89602e-22)
(1.01795 -0.0105895 5.74823e-24)
(1.00754 -0.00112605 -7.89796e-22)
(1.00759 0.000367188 -6.61533e-22)
(0.885836 -0.291799 3.27059e-21)
(1.0116 -0.00330759 2.03043e-22)
(1.03511 -0.0431125 1.8297e-21)
(1.00959 -0.000114594 0)
(1.01487 -0.000661958 -3.20375e-22)
(0.396929 -0.00476558 3.97531e-21)
(0.875131 0.30273 5.62614e-21)
(1.00756 -0.00114437 7.06271e-22)
(1.05902 -0.0526152 7.36305e-21)
(-0.152215 0.377868 1.20656e-20)
(0.445363 -0.0018309 6.06902e-24)
(1.01948 -0.0112853 1.19165e-22)
(1.01228 -0.00387333 -1.99724e-22)
(0.00191657 0.062448 -7.98686e-21)
(1.06877 -0.02963 0)
(0.872951 -0.187363 2.83201e-21)
(1.01106 0.000752878 1.24867e-22)
(1.01981 -0.0155098 1.78791e-22)
(1.00661 0.000191293 -1.89673e-22)
(1.01982 0.00309542 -4.9307e-23)
(1.01866 -0.0111086 6.38126e-23)
(1.01418 -0.000351371 0)
(1.03031 -0.0341306 9.9102e-22)
(1.02047 0.0024034 1.42022e-23)
(1.00827 -0.000340214 -5.22077e-22)
(1.00772 0.000351154 -4.64677e-22)
(1.13214 -0.0634156 0)
(1.0666 -0.0514668 0)
(0.502013 -0.0183907 6.92617e-22)
(1.05112 -0.107081 -1.61582e-23)
(-0.190757 0.186663 -2.48021e-20)
(-0.0571016 0.0997881 1.12581e-21)
(0.312243 0.00411288 -5.94101e-22)
(1.01245 -0.0040015 1.30175e-22)
(0.935187 0.17978 0)
(1.04085 -0.0101989 -3.75262e-23)
(0.870645 -0.138391 0)
(1.02778 -0.00431452 -1.65146e-21)
(0.819568 -0.332795 -5.12098e-21)
(1.03364 -0.00616124 0)
(1.00934 -0.000398615 -1.06371e-21)
(1.01214 0.000952954 0)
(0.985879 -0.043877 -8.74866e-21)
(1.01335 -0.000355148 0)
(1.01269 0.00186427 0)
(1.06557 -0.0418243 5.65071e-21)
(1.14352 -0.0558561 6.5726e-23)
(0.998176 -0.100462 8.70578e-22)
(1.11465 -0.0405408 -4.67825e-21)
(0.425458 0.335346 1.64621e-20)
(0.648315 -0.0161181 0)
(1.01463 -0.0117246 0)
(-0.0686389 0.210455 2.46309e-20)
(0.148068 0.0651803 2.08572e-21)
(0.490302 0.352117 -2.516e-20)
(1.00796 0.00055042 4.71034e-22)
(1.03767 -0.00953776 -5.22468e-21)
(0.78478 0.131391 1.55e-20)
(1.00798 0.000418311 5.45801e-22)
(0.867505 0.298096 3.38513e-21)
(1.08176 -0.0510759 0)
(1.00217 1.12605e-05 0)
(0.945796 0.0267014 4.62266e-22)
(0.956256 -0.0358637 6.05825e-21)
(1.05222 -0.0297685 1.50935e-21)
(1.02728 -0.030983 2.3731e-22)
(1.00715 -0.000842545 -3.03406e-24)
(1.01137 -0.000619097 0)
(1.01441 -0.0101895 9.89153e-22)
(1.01574 -0.000981772 -3.63497e-22)
(1.00794 0.000556945 0)
(1.00599 0.000179735 -6.87638e-23)
(1.0095 -0.00267012 0)
(0.928494 0.121404 -5.39433e-21)
(1.02706 -0.00459264 -1.48325e-21)
(0.297939 0.00565236 0)
(1.01945 -0.0152532 2.25128e-22)
(1.02765 -0.0317374 -2.68103e-22)
(1.04254 -0.00570022 -6.09078e-23)
(1.01171 0.000183455 1.04803e-21)
(1.01626 0.00285457 0)
(0.843942 -0.16216 9.83457e-23)
(0.952736 0.0331028 -4.54551e-22)
(1.01641 -0.000731348 -4.14144e-22)
(1.00931 -0.000575101 0)
(1.01142 -0.000719582 0)
(1.02043 0.00325346 3.69269e-25)
(1.14003 -0.081247 -4.61517e-21)
(1.01517 -0.00625939 2.848e-23)
(1.02511 -0.00228188 2.06494e-22)
(1.01692 -0.00723178 -1.58424e-21)
(1.00712 -0.000822464 1.37423e-21)
(-0.0140081 0.137642 -7.07808e-20)
(0.895735 -0.103211 1.0319e-20)
(0.501518 0.0135358 0)
(1.01103 -0.00320524 -6.92495e-22)
(0.0301306 0.166149 4.67942e-21)
(1.01457 -0.245941 0)
(1.02283 -0.0230235 -3.64394e-21)
(1.00243 5.3415e-05 0)
(1.0405 0.0753594 -2.16948e-21)
(1.01112 -0.00327247 -1.18926e-23)
(0.645606 -0.00778883 0)
(1.00706 -0.0100617 0)
(1.03682 -0.0415167 9.09383e-22)
(1.06662 -0.0415982 -1.20989e-20)
(1.02656 -0.00453658 1.42858e-21)
(1.03454 -0.0106332 -1.53536e-21)
(1.0149 -0.00357058 4.38911e-22)
(1.0816 -0.0555335 5.42602e-21)
(0.920616 -0.0311424 -6.37184e-21)
(0.894398 -0.137474 0)
(1.01367 -0.000625353 0)
(1.01216 0.000931431 -3.88192e-23)
(1.01117 -0.00128078 1.19927e-21)
(0.659823 -0.0332842 0)
(0.395534 0.00839942 3.12941e-20)
(1.03106 -0.00673538 -5.01688e-23)
(0.28608 -0.0512856 -3.76687e-20)
(1.00817 -0.000220473 0)
(0.807969 0.112263 0)
(1.08104 -0.0500886 5.93667e-21)
(1.08035 0.0783406 -5.79143e-21)
(1.04544 -0.0184956 -3.23562e-21)
(0.959105 -0.0758854 0)
(-0.0754639 0.137677 0)
(1.0048 0.000115224 -3.5969e-22)
(1.0806 -0.0529307 -2.2611e-22)
(0.389079 0.429464 0)
(1.01105 0.000829179 0)
(1.08139 -0.0552621 1.24575e-20)
(0.30683 0.00681867 0)
(1.01156 -1.14158e-05 6.08419e-22)
(1.04148 -0.0270543 -2.6883e-21)
(0.616205 0.0265213 2.87613e-21)
(1.06768 -0.0511341 3.44131e-21)
(1.02086 -0.0170552 5.52671e-23)
(1.0081 0.000723307 -1.19928e-21)
(0.183304 -0.185697 3.24964e-21)
(0.642672 -0.332022 1.31636e-20)
(1.03432 -0.176474 0)
(1.08382 -0.059406 -9.79696e-21)
(1.05619 -0.0261896 8.21521e-21)
(1.00849 -0.00169148 7.97656e-22)
(0.687617 0.133063 -3.0252e-21)
(1.0091 -0.00112833 -1.27254e-21)
(1.00754 -0.000505317 4.18359e-22)
(1.01151 1.771e-05 -2.27776e-24)
(1.00794 0.000600054 -6.65624e-23)
(1.01083 -0.000186954 -2.82161e-22)
(1.01349 -0.00903921 7.34189e-22)
(0.638907 0.139439 3.10203e-21)
(1.01793 0.00340611 0)
(1.0204 0.0500318 3.2867e-22)
(1.01954 -0.00628967 1.03858e-21)
(0.807488 -0.0101321 0)
(1.01145 0.000271557 1.63043e-21)
(0.397003 -0.00859392 1.78203e-21)
(1.00606 0.000129926 3.70317e-22)
(0.805839 0.145364 0)
(1.01846 -0.0107109 -3.62367e-23)
(0.552232 -0.0122286 3.65107e-21)
(1.06674 -0.0279169 -4.22278e-21)
(0.637591 0.0113629 -7.25744e-21)
(1.07295 -0.0455638 -3.81526e-21)
(0.249264 0.00314664 0)
(1.08324 -0.164607 -1.42583e-20)
(1.01471 -0.00339959 1.15283e-23)
(1.148 -0.1308 1.66507e-20)
(0.549334 0.0789807 1.07281e-20)
(1.02228 -0.00313973 -1.05159e-21)
(0.191821 -0.206066 5.45153e-21)
(1.0078 0.00061954 -1.43147e-22)
(1.04636 -0.0184564 6.2857e-21)
(0.882815 0.11102 -7.02647e-21)
(1.02861 -0.00750597 0)
(1.01581 -0.00701833 7.2581e-23)
(1.0437 -0.0418934 -2.18722e-21)
(1.01682 -0.000795207 0)
(0.623386 0.336644 0)
(1.01115 0.000907247 -2.89227e-22)
(1.00457 5.72819e-05 -7.09102e-24)
(1.06574 -0.0260282 0)
(1.03533 -0.0851198 0)
(1.01115 -0.00118798 5.8512e-22)
(1.02307 -0.021124 4.98478e-21)
(1.04207 -0.0277771 1.43275e-21)
(0.801368 -0.0258326 0)
(0.533941 -0.00211261 0)
(1.00779 0.000403438 0)
(1.01098 -0.00304996 0)
(0.821985 -0.33459 1.22081e-21)
(1.10246 -0.0664034 7.36793e-21)
(1.01089 -0.000192409 0)
(1.06532 -0.0293763 -8.93435e-21)
(1.01934 -0.00664499 9.08994e-22)
(0.641818 -0.254983 -3.06658e-20)
(0.231029 0.000816721 0)
(1.03056 -0.0332147 -1.14502e-21)
(1.02144 -0.0128967 7.41258e-22)
(1.00799 0.000699298 -3.51905e-22)
(1.01355 -0.00898727 2.1015e-21)
(-0.2134 0.0615173 2.96956e-21)
(1.01545 -0.00560729 -2.36055e-22)
(1.02277 0.00433686 -2.06539e-23)
(1.01204 -0.0340407 0)
(1.00811 0.000221521 0)
(1.0142 -0.000238522 -4.80166e-22)
(0.487595 -0.00191634 -5.2865e-21)
(0.29426 0.439221 -1.26399e-20)
(1.01069 -0.00319819 -2.02541e-22)
(1.03093 -0.0070156 -2.06695e-21)
(0.971829 -0.0485178 -6.84327e-21)
(0.490806 0.0129858 -2.41325e-20)
(0.868821 -0.24013 2.56021e-21)
(1.09235 -0.0603114 4.59602e-21)
(1.01515 -0.00638244 -4.73737e-23)
(0.692163 0.0353435 5.41888e-22)
(1.04774 -0.0342832 1.25435e-21)
(0.313038 -0.0975366 0)
(1.00969 -0.00286541 -3.72324e-22)
(1.08118 -0.0459977 0)
(1.00634 -0.0527669 0)
(1.00861 -0.0107372 1.29626e-21)
(1.01197 -0.00471009 -1.04545e-22)
(-0.0430734 0.0428833 -2.01837e-20)
(0.495121 0.0155035 1.95345e-20)
(1.02115 0.0062276 2.07502e-22)
(1.01439 -0.000383551 0)
(1.06173 -0.140612 2.17809e-21)
(1.08 -0.046949 -4.20595e-21)
(1.01883 0.00285291 0)
(1.01524 -0.00557671 7.63592e-23)
(1.05665 0.117886 -1.21947e-21)
(1.01471 -0.0193146 0)
(1.08554 -0.0498092 0)
(0.516258 0.0532681 -5.54311e-21)
(1.02051 -0.0168544 1.89463e-22)
(1.00151 -0.0564832 6.53798e-21)
(0.845595 -0.337808 5.61591e-22)
(0.0475894 0.034056 0)
(1.15564 -0.159372 -8.13393e-21)
(1.14805 -0.182397 5.63823e-21)
(1.01149 -0.000538249 0)
(1.02809 -0.00737228 0)
(1.01738 0.000303534 -1.40732e-21)
(0.373846 0.00761658 -1.90155e-20)
(0.878185 -0.0249208 -3.02805e-21)
(1.00795 0.000547777 2.30952e-22)
(0.241368 0.279999 -5.66475e-21)
(1.00593 0.000170235 3.36955e-22)
(1.04129 -0.0105304 -1.55314e-21)
(1.0211 -0.173508 -1.1069e-21)
(1.01223 0.00163991 0)
(1.10085 -0.0679637 -1.24301e-21)
(1.00787 0.000533339 3.18855e-22)
(-0.0504915 0.0642775 -4.04741e-22)
(1.01432 0.00387452 1.00685e-21)
(1.00875 -0.000326851 0)
(1.01127 0.000274182 -2.5241e-22)
(0.436502 -0.00353725 -4.10135e-21)
(0.0311701 -0.231892 -4.00785e-20)
(1.01499 -0.00472878 -7.84578e-22)
(-0.0445956 -0.24053 3.54786e-20)
(0.323225 0.446441 0)
(0.462186 0.0275323 0)
(1.08297 -0.059966 -6.99734e-21)
(1.04286 -0.0297995 3.42383e-21)
(1.01205 0.00159774 0)
(1.02076 -0.00322665 -5.29349e-22)
(1.01683 0.00234701 0)
(0.920409 -0.13356 0)
(-0.00455534 -0.303509 0)
(1.01114 -0.00322268 2.99008e-22)
(1.01749 0.00460179 0)
(1.03233 -0.0177943 -1.43115e-23)
(0.317984 -0.386478 3.42239e-21)
(0.779883 -0.267701 8.49457e-21)
(0.474203 -0.00154629 4.98518e-21)
(1.01943 -0.00693863 -2.18306e-22)
(1.06648 -0.0696294 7.79646e-21)
(1.02854 -0.0281519 6.27099e-22)
(1.00734 0.000119323 0)
(1.01175 -0.000792802 0)
(0.829915 -0.327175 -7.59064e-21)
(0.502687 -0.0133821 7.3422e-22)
(0.635629 -0.0220231 0)
(1.03088 -0.036693 1.59133e-21)
(1.08145 -0.0543181 3.88711e-21)
(0.601887 -0.0231483 5.18228e-21)
(1.04521 -0.035401 -2.76992e-22)
(-0.0345146 -0.266214 0)
(1.00844 0.000165896 0)
(1.00458 -0.000153229 1.82738e-24)
(1.0117 -0.0289198 -7.06281e-22)
(1.00995 -0.000193237 0)
(1.07988 -0.0474949 -5.05298e-23)
(0.00634201 0.151368 1.22404e-20)
(1.07019 -0.064969 -4.46767e-21)
(1.03316 -0.0169504 2.9176e-21)
(1.06389 -0.0680374 7.6504e-21)
(1.07112 -0.0483815 0)
(1.00267 5.29452e-05 -3.19808e-22)
(1.0084 0.000201203 0)
(1.00849 -0.00165671 -7.15823e-22)
(0.867862 0.0652501 -1.77433e-20)
(1.00211 2.5274e-05 0)
(0.210103 0.273991 -6.15819e-22)
(1.01715 0.00249899 0)
(0.702948 0.0216376 0)
(1.09144 -0.0615788 4.28392e-21)
(1.01115 -0.00308845 0)
(1.01043 -0.00371598 -4.07426e-22)
(0.825671 -0.0167909 0)
(1.02604 -0.0252605 3.34647e-23)
(1.06564 -0.044684 0)
(1.01779 -0.000689675 -6.01784e-22)
(1.01621 0.00276326 0)
(1.01743 0.019821 -4.07871e-22)
(1.02344 0.00429867 6.17412e-23)
(0.317431 0.136796 2.30373e-20)
(1.01359 0.00187698 -6.59675e-22)
(1.02049 -0.00315028 2.07239e-22)
(1.03397 -0.0107331 -7.52268e-22)
(1.02076 0.0223759 8.21016e-22)
(1.00463 5.2077e-05 -1.76111e-22)
(0.303643 -0.23268 9.08318e-21)
(1.00467 0.000135659 3.74024e-22)
(1.0136 0.00183039 -9.53742e-22)
(1.0129 -0.00688155 5.84366e-22)
(0.48267 0.0136146 -2.15643e-20)
(1.00033 -0.0994585 0)
(0.862397 -0.155853 0)
(1.04811 -0.028901 1.38969e-21)
(0.489324 0.056614 -9.05793e-22)
(1.05661 -0.0292752 0)
(1.03725 -0.00886277 1.35407e-21)
(1.0021 1.45906e-05 -1.50543e-24)
(1.02442 -0.0573117 1.18614e-22)
(1.03241 -0.0174605 -1.52156e-21)
(0.922435 -0.12221 0)
(1.01415 0.00234053 6.95195e-22)