/*--------------------------------*- C++ -*----------------------------------*\
| =========                 |                                                 |
| \\      /  F ield         | OpenFOAM: The Open Source CFD Toolbox           |
|  \\    /   O peration     | Version:  v2012                                 |
|   \\  /    A nd           | Website:  www.openfoam.com                      |
|    \\/     M anipulation  |                                                 |
\*---------------------------------------------------------------------------*/
FoamFile
{
    version     2.0;
    format      ascii;
    class       volVectorField;
    location    "300";
    object      ddt0(U);
}
// * * * * * * * * * * * * * * * * * * * * * * * * * * * * * * * * * * * * * //

dimensions      [0 1 -2 0 0 0 0];


internalField   nonuniform List<vector> 
54593
(
(-0.00401047 -0.0118246 -2.78374e-22)
(-0.0076681 0.0108764 -2.60247e-22)
(-0.00578292 -0.0132042 4.53918e-22)
(-0.00133808 -0.0015737 -2.67952e-22)
(0.00722976 1.04688e-06 1.74355e-22)
(-0.00192311 -0.0127044 3.16613e-23)
(1.69375e-05 -6.8718e-06 1.08242e-21)
(-0.00259057 -0.000358219 1.56477e-22)
(0.00563533 -0.00362332 2.55701e-22)
(9.74767e-05 6.40328e-05 2.4183e-24)
(8.67961e-06 -3.39637e-07 4.64541e-22)
(-0.0064875 -0.00200887 -4.96381e-22)
(6.87305e-06 3.82464e-07 0)
(1.51458e-05 1.74366e-05 0)
(0.00816865 -0.00696013 7.74299e-23)
(8.71232e-06 9.13609e-06 -1.38086e-21)
(-0.000841848 0.00175425 -5.55721e-24)
(2.16525e-05 -1.73106e-05 0)
(6.93609e-06 8.21902e-06 1.40096e-21)
(-0.00223649 0.00398904 0)
(0.000542063 -7.88619e-05 -4.12093e-22)
(0.000125958 -8.45162e-05 4.25468e-23)
(0.0102873 -0.00679173 -2.78128e-23)
(-0.000111233 6.14276e-05 0)
(9.26466e-05 1.7604e-05 2.42601e-21)
(0.000128814 -1.72121e-05 1.61792e-22)
(0.0368325 0.0553049 1.11737e-22)
(0.00663828 -0.00641454 0)
(-0.00217366 0.0170075 1.02095e-21)
(-0.000444387 -0.000872328 -6.56794e-22)
(0.0237304 -0.0071951 0)
(0.0197513 0.0152385 -4.58572e-22)
(1.96273e-05 -6.59243e-06 2.63045e-23)
(-0.0105915 -0.0553617 1.77705e-21)
(1.83865e-05 -9.9191e-06 -6.38361e-22)
(-0.000107105 2.66274e-05 -4.97455e-22)
(0.000129079 -6.92037e-05 -2.53797e-22)
(0.0127129 0.0331261 -3.51629e-22)
(0.0321798 0.0334471 3.7266e-21)
(0.0776121 0.0211704 -4.14878e-22)
(-0.0513353 -0.061706 2.10059e-22)
(1.30207e-05 1.14562e-06 0)
(2.20933e-05 -1.19216e-07 1.36753e-24)
(1.7484e-05 -2.35263e-05 3.02744e-22)
(1.52736e-05 -9.79017e-06 1.24932e-21)
(0.000800933 -0.000643217 5.26123e-22)
(1.83306e-05 -5.99705e-06 4.76938e-22)
(0.0325201 0.06771 0)
(0.0145597 0.0339205 3.41627e-22)
(0.00012807 -9.06951e-05 1.01709e-22)
(1.51788e-05 -1.00432e-05 -1.03404e-21)
(8.51354e-05 1.00767e-05 0)
(0.000163832 0.000223516 0)
(8.11097e-05 -5.65444e-05 4.05487e-22)
(3.97281e-05 0.000215826 -3.11014e-22)
(8.26142e-06 5.41681e-08 5.81801e-22)
(-0.00247532 -0.000301111 -1.52356e-22)
(3.29581e-05 -2.8072e-05 1.34144e-22)
(0.0222526 0.016353 0)
(0.000565828 -0.00104445 -4.26899e-22)
(0.0316293 0.0312265 1.27187e-21)
(4.35029e-05 -3.32486e-05 -5.30639e-22)
(9.31235e-05 0.000107032 5.09404e-22)
(4.31452e-05 -3.09459e-05 0)
(0.000732955 0.000858017 -8.82244e-22)
(0.0869214 0.0124535 2.51643e-22)
(1.11594e-05 5.52472e-06 0)
(-0.00421658 -0.0093715 -1.27362e-21)
(7.78719e-05 1.35296e-05 0)
(1.715e-05 -6.26339e-06 -1.75265e-21)
(0.000518329 0.00122354 -4.23087e-22)
(2.15182e-05 -1.32732e-05 2.47909e-23)
(8.19143e-05 -5.0737e-05 -2.08082e-22)
(1.92892e-05 -6.64348e-06 1.29535e-22)
(1.9182e-05 -4.6336e-06 0)
(1.85358e-05 -4.52889e-06 0)
(0.06013 0.0735823 -1.72838e-22)
(1.18755e-05 -3.107e-06 5.71076e-22)
(-0.0377835 -0.0601435 0)
(0.000139678 -5.16757e-05 0)
(-0.00011079 4.92769e-05 0)
(1.58543e-05 -2.10732e-06 0)
(0.00055854 0.00116084 -7.04816e-22)
(-0.00437155 -0.00826439 1.22643e-21)
(2.15716e-05 5.3917e-06 0)
(4.64681e-05 -2.98461e-05 -1.44222e-21)
(-0.00358645 0.00319967 6.8952e-23)
(0.000581704 -4.92834e-05 4.1033e-22)
(4.66348e-05 -3.35927e-05 9.94505e-22)
(-0.00367369 -0.00123267 -1.27525e-21)
(9.41861e-06 7.3701e-06 -1.27926e-21)
(-0.0001064 1.41834e-05 4.97638e-22)
(-0.00260247 -0.00504904 -1.20034e-21)
(1.53394e-05 -4.08218e-06 0)
(0.0223122 0.134651 -9.31121e-23)
(0.00015516 8.18355e-05 1.62336e-22)
(-0.00140261 0.00074785 -3.57092e-22)
(7.34316e-06 0.000109274 1.36188e-22)
(2.1893e-05 9.35438e-07 -4.6707e-22)
(1.8811e-05 -1.61373e-05 0)
(0.0191914 0.0650893 0)
(0.00193277 -0.00514056 0)
(4.44465e-05 -3.18329e-05 0)
(-0.00141047 0.00392668 0)
(0.0133685 0.00630692 2.35744e-21)
(0.0157948 -0.00854367 0)
(2.10393e-05 -1.24562e-05 1.83102e-22)
(0.00013243 -0.000247406 -1.70576e-22)
(1.79775e-05 -8.15251e-06 -2.0495e-21)
(2.2917e-05 -2.86129e-06 4.18653e-22)
(-2.90369e-07 1.39966e-05 4.16916e-22)
(1.13964e-05 -2.6349e-06 -4.41435e-22)
(0.000839662 0.000765958 0)
(-0.00449611 0.000507596 3.9218e-25)
(0.030235 0.0764158 4.79821e-22)
(1.10532e-05 -3.20971e-06 0)
(2.20061e-05 -1.58108e-05 0)
(0.000881165 -0.000481534 -1.02668e-22)
(0.0118102 0.00651707 -4.30629e-21)
(0.0160278 0.0757869 0)
(-0.000114438 -3.46811e-05 1.65302e-21)
(-0.00150116 0.00361494 0)
(0.000127387 -1.82899e-05 4.12294e-22)
(0.0138192 0.00808178 2.23285e-22)
(0.000282572 6.46447e-05 -8.15737e-22)
(-0.00100504 0.00183956 -3.13728e-22)
(3.028e-05 -1.48984e-05 -4.01166e-24)
(-0.00219725 -0.00221996 -2.60595e-24)
(-0.00400865 -0.00961142 -1.26375e-21)
(1.00063e-05 -3.00063e-05 -1.86321e-22)
(1.57079e-05 -2.92172e-05 5.94588e-22)
(-0.000173713 0.00051131 2.51723e-22)
(1.27606e-05 7.24085e-06 0)
(0.0011359 -0.00264551 0)
(1.78155e-05 -2.36743e-05 0)
(1.89562e-05 -9.16305e-06 -2.89212e-22)
(0.0001767 2.32216e-05 4.88823e-22)
(0.0160768 -0.00927474 0)
(0.00026363 5.97201e-05 3.47304e-22)
(-0.0337858 -0.125624 0)
(1.08145e-05 -3.17443e-06 -2.72331e-22)
(0.000501758 -0.000758525 -2.23358e-22)
(2.25315e-05 -4.60067e-06 0)
(0.000784012 0.00232098 -4.78314e-22)
(2.12505e-05 6.05175e-06 -3.90687e-22)
(0.00112236 -0.00251652 4.18192e-22)
(-0.000415474 0.000125854 -4.18401e-22)
(-0.000201233 0.000145078 0)
(2.32293e-05 -4.85298e-06 0)
(-0.000751776 0.00176305 -5.63655e-24)
(-0.000480871 -0.000661458 -6.21778e-22)
(0.0281292 0.0219744 0)
(2.99766e-06 2.45968e-05 2.43484e-22)
(5.40733e-05 -2.27296e-05 5.68191e-22)
(3.81708e-05 -5.07707e-05 0)
(-0.00360722 0.00303784 -1.29283e-22)
(-0.00355432 -0.00136558 9.80741e-22)
(0.023347 0.0935688 -2.5114e-22)
(-0.00523891 0.0100251 1.30696e-22)
(1.08314e-05 9.78267e-05 -1.37305e-22)
(0.00364026 0.00585639 9.86149e-23)
(0.000120913 0.000488258 0)
(-0.00416749 -0.00754282 0)
(1.66698e-05 -1.04803e-05 0)
(-0.00244948 0.00403993 -4.06794e-23)
(1.34665e-05 -9.2746e-07 4.40539e-22)
(0.000851245 -0.000418603 0)
(9.29775e-06 1.06597e-05 -6.25373e-22)
(1.12511e-05 -1.94183e-05 6.11558e-22)
(-2.9493e-06 1.55548e-05 -1.67608e-21)
(0.00123744 -0.0447053 4.20537e-24)
(1.34279e-05 -1.19511e-06 1.32129e-23)
(-0.000564203 -0.000589166 0)
(0.000847348 0.000523559 2.99922e-22)
(1.6883e-05 -2.66686e-05 -3.98169e-22)
(2.28693e-05 -6.04865e-06 -2.04172e-22)
(0.00175344 -0.00186663 -9.00928e-23)
(-0.00021851 -0.00212762 0)
(0.00090341 0.00238533 5.76998e-22)
(1.67667e-05 -1.06995e-05 9.8363e-22)
(1.81611e-05 -1.42487e-05 1.76831e-21)
(0.000435777 0.00119828 -1.61364e-21)
(-0.00382298 -0.0148291 7.41669e-22)
(-0.00373613 -0.00652999 -6.02909e-23)
(-0.00388833 0.0104227 -5.13754e-22)
(5.09383e-06 -1.23332e-07 -6.28011e-22)
(-0.016012 0.0720547 -1.38e-21)
(2.24881e-05 -1.04962e-06 1.20581e-22)
(-0.00142644 0.000889959 2.87352e-22)
(6.57814e-06 4.33905e-07 -6.11084e-22)
(-0.0296578 -0.00797477 -1.8903e-21)
(-0.00124532 0.00401853 -1.83604e-22)
(1.27994e-05 9.21314e-07 7.98385e-22)
(-0.0130445 -0.0998358 5.79819e-22)
(-0.00350941 0.00175974 -4.71929e-22)
(3.22737e-05 -2.60836e-05 2.58774e-22)
(1.8164e-05 1.5864e-06 -1.33465e-23)
(0.000158065 0.000837328 3.07758e-22)
(-0.00370963 0.00136817 -6.92242e-24)
(0.000280793 0.00125875 3.24398e-22)
(0.0180443 -0.0380745 -2.27654e-22)
(0.00650147 -0.00526244 -1.63134e-22)
(1.78654e-05 2.44794e-07 -5.34615e-22)
(0.000172515 -6.73496e-05 -6.45464e-23)
(0.000395373 0.00059343 -7.00568e-22)
(0.000301444 9.81954e-05 3.45383e-22)
(0.000366719 -0.000273798 3.44472e-22)
(0.000167869 -7.16486e-05 -4.81881e-24)
(8.84021e-06 2.61017e-08 3.59488e-22)
(-0.0199284 0.069073 0)
(1.10241e-05 5.50542e-07 0)
(-0.00640169 -0.00170822 3.32661e-22)
(0.000538167 0.000138812 0)
(0.0289412 0.019385 -2.55698e-21)
(8.51209e-06 -1.17629e-06 0)
(0.000514948 -0.00190938 0)
(-1.06251e-05 7.00847e-05 3.36631e-22)
(-0.00773399 -0.0125305 -7.43565e-23)
(2.04412e-05 -4.96034e-06 -1.99954e-22)
(8.84529e-06 -1.14777e-06 0)
(0.000305683 -0.000298513 -2.66475e-22)
(-0.00123621 -0.0424983 -6.59987e-21)
(2.08837e-05 -1.09554e-05 -1.07311e-21)
(0.0276614 0.0344271 -1.34124e-21)
(0.00147155 0.107776 1.02738e-22)
(-0.00484398 -0.00083152 -9.73084e-22)
(-0.000155306 0.000473258 2.99049e-22)
(0.0217374 -0.042787 -2.17845e-21)
(-0.00629663 -0.00172846 -6.21113e-22)
(-0.00401789 -0.0105828 1.29243e-21)
(0.0390704 0.0387228 -1.73194e-21)
(1.75787e-05 -8.61178e-06 1.67832e-21)
(-0.000134341 -0.000234943 -3.38775e-22)
(0.000493584 -7.03914e-05 3.4364e-22)
(0.000102626 6.80523e-05 3.25465e-22)
(1.14097e-05 -1.93182e-05 0)
(0.000283663 9.49553e-05 3.58486e-22)
(0.00530567 0.100075 -1.05627e-22)
(-0.00351898 0.00160022 4.50641e-22)
(1.14852e-05 8.664e-08 0)
(2.0823e-05 -4.08025e-06 2.33988e-22)
(1.61982e-05 -1.40183e-06 -6.83264e-22)
(2.17239e-05 5.02029e-06 -1.77058e-22)
(2.10517e-05 -3.23038e-06 4.32208e-22)
(4.4585e-05 0.00020125 5.00976e-22)
(2.14689e-05 -1.57459e-05 0)
(0.00456352 0.000313981 0)
(0.0369545 0.0439854 0)
(0.000206118 -0.00133882 1.79765e-23)
(0.000104874 2.15636e-05 0)
(-0.00427885 0.00113129 -7.51712e-22)
(6.45125e-06 -2.26392e-07 5.81401e-22)
(0.000156537 -0.000234284 1.21878e-22)
(1.30952e-05 1.47069e-06 1.7185e-22)
(-0.104192 -0.187248 3.00095e-22)
(1.47593e-05 1.71632e-05 0)
(-0.000304035 0.0319843 0)
(0.0182302 -0.040363 2.08877e-21)
(-0.00496053 -0.00123015 -1.91597e-22)
(1.72064e-05 -7.81503e-06 -7.64189e-22)
(-6.81345e-05 -3.13984e-05 0)
(2.13722e-05 3.14502e-06 2.15952e-22)
(6.17516e-06 -0.00320175 1.6839e-22)
(0.13124 0.0365787 2.04924e-21)
(0.0193615 0.00534415 8.03939e-23)
(0.00681098 -0.00293472 -9.34301e-23)
(2.0142e-05 -5.77879e-06 -2.56355e-23)
(0.00128138 0.00201787 0)
(-2.81784e-05 4.46665e-05 -2.83639e-22)
(8.71853e-06 -3.8283e-07 0)
(0.016854 -0.0109861 7.35507e-22)
(0.0377993 0.0407732 9.73944e-23)
(2.09273e-05 -1.0121e-05 8.33838e-22)
(-0.00405522 -0.00659297 -2.41239e-22)
(-0.00410139 0.0010268 -1.22138e-22)
(0.0313639 0.0749433 0)
(7.07473e-07 2.5142e-05 6.92803e-22)
(1.11881e-05 9.64677e-07 0)
(0.000698735 -0.000355755 -4.38225e-23)
(9.0441e-06 -3.4705e-05 -1.80481e-22)
(1.76889e-05 -7.36808e-06 1.21545e-21)
(0.0015325 -0.000218961 0)
(5.95928e-05 -0.0013666 -6.35575e-22)
(0.000168099 -4.25568e-05 6.262e-23)
(0.000887456 -0.00035126 0)
(-0.00111414 0.027007 -3.74313e-22)
(0.000164307 -4.03061e-05 -1.69217e-24)
(-0.000849693 0.00160392 2.59263e-22)
(-0.00310517 0.00210376 0)
(2.60379e-06 2.52451e-05 -7.34644e-22)
(0.000477242 -0.00117179 0)
(-0.0884439 -0.177543 0)
(0.0073631 -0.00837553 -6.17881e-22)
(-0.00364447 -0.00677081 -3.70229e-23)
(0.0022062 0.00386877 -1.30573e-21)
(1.73852e-05 -1.23584e-05 -5.64409e-22)
(0.00806576 0.00413583 -3.41117e-22)
(2.93197e-05 -1.57247e-05 0)
(-0.000842037 0.00152593 -5.58484e-23)
(-0.0156666 0.0164139 6.74879e-23)
(0.00211203 -0.00217194 2.05987e-22)
(0.00406129 -0.000441761 0)
(-0.000532972 0.0113919 -8.33201e-22)
(0.0214884 0.00565408 3.2596e-22)
(0.00526577 0.00738109 -2.11707e-21)
(-0.00295677 0.0020873 0)
(0.00474614 0.000321442 -1.50687e-22)
(0.00116236 -0.000568319 -6.61479e-22)
(0.0566555 0.0250845 0)
(-0.00400696 -0.00686209 0)
(0.000140944 0.000253182 -7.17893e-24)
(0.000952458 0.0267626 -9.70141e-23)
(0.00108298 0.0019779 0)
(0.00019625 0.00285318 0)
(-0.00341377 0.00360531 0)
(-0.00333981 -0.00797335 3.49587e-23)
(0.000960019 -0.000271855 0)
(-0.000859585 -9.00664e-05 4.5155e-22)
(-0.000776883 -0.00326051 0)
(2.31519e-05 -3.0341e-06 3.65012e-22)
(-0.00348899 -0.0147814 -7.27598e-22)
(-4.62628e-05 0.000243367 0)
(2.09468e-05 8.25332e-06 7.90962e-22)
(-0.00373854 -0.00864302 2.91365e-22)
(2.14106e-05 -1.60006e-05 0)
(-0.0346303 -0.0372602 0)
(-4.71877e-05 -0.000364485 0)
(0.0214732 0.00811403 0)
(1.47322e-05 1.37613e-05 -7.11903e-22)
(0.00137099 0.00535256 4.96064e-25)
(-0.00371139 -0.00668965 0)
(1.79063e-05 -1.46773e-05 -1.78065e-21)
(-0.013541 0.018179 1.20685e-22)
(-0.000587578 -0.0115436 0)
(0.000142527 -5.3676e-05 -8.24231e-24)
(2.14679e-05 4.08438e-06 -3.0399e-23)
(-0.000500859 0.000311105 -4.19405e-22)
(0.00440794 0.0156223 2.74461e-22)
(0.00088372 -0.00230142 -4.44106e-22)
(-7.21627e-05 -5.69421e-05 8.90619e-22)
(-0.00625487 -0.00223211 6.72753e-23)
(-0.0142992 -0.104374 1.49128e-21)
(-0.000887732 0.00185918 -5.84626e-24)
(-6.28272e-05 -7.10588e-05 4.88542e-22)
(1.53031e-05 -7.72465e-06 1.05718e-21)
(0.00166126 0.00300094 -5.53468e-23)
(2.26001e-05 -1.80153e-06 -4.59857e-22)
(0.0234022 0.00910068 4.7066e-22)
(-0.00229068 -0.00202166 0)
(1.38202e-05 4.64919e-07 -2.45714e-22)
(0.0152534 0.0373516 -7.44348e-21)
(3.8305e-06 -1.11209e-07 0)
(-0.0447651 0.0264252 5.33998e-22)
(4.52273e-06 9.3544e-05 1.35815e-22)
(-0.00413046 -0.00708457 6.54103e-23)
(0.006929 -0.00257388 1.41762e-22)
(-0.00149608 0.000248347 0)
(0.00474509 0.000583439 1.56338e-22)
(0.00688407 -0.00778438 1.43334e-21)
(0.00574749 -0.000486992 -2.76531e-22)
(-0.0237515 0.00439937 3.17356e-23)
(-0.0016113 0.0111102 8.3832e-22)
(0.00105084 -0.000639257 6.13812e-22)
(4.31666e-05 -4.67522e-05 -3.27409e-22)
(0.00284994 0.0144733 -2.93991e-22)
(-2.29024e-05 0.000227102 2.8147e-23)
(-0.000503853 0.0020983 2.74603e-21)
(1.12302e-05 -1.99077e-06 1.20599e-22)
(2.67279e-05 -1.63864e-05 1.31884e-21)
(0.00472598 0.0075072 4.6721e-22)
(0.000915468 -0.000322088 0)
(0.038194 0.0507513 2.22084e-22)
(-0.0257907 0.0048215 0)
(0.00445305 0.000277478 0)
(-3.8534e-05 -0.000351969 -6.55943e-22)
(0.00202842 -0.00200177 -1.94932e-22)
(0.00565593 -0.00471676 4.36655e-23)
(-0.000211591 0.000154569 4.89912e-22)
(-0.00320843 0.00354074 0)
(-0.0485456 0.0338024 0)
(0.00133039 -0.000546593 2.06637e-22)
(0.00743261 0.0115055 -7.90057e-22)
(-0.00294805 -0.0020445 0)
(0.00428634 -0.000548021 0)
(0.0214894 0.016728 -5.47394e-22)
(0.000566952 0.000124989 5.34897e-22)
(0.000173046 -7.86507e-05 0)
(0.00325524 -0.000588143 6.71484e-22)
(0.00214814 0.000676949 3.68383e-22)
(5.57447e-05 -2.54021e-05 -5.70508e-22)
(-0.000613928 0.0014736 -2.25435e-22)
(0.00408087 0.00871972 -2.11123e-22)
(-0.0223928 0.00813503 0)
(0.00545118 0.0057547 -8.24247e-23)
(1.17242e-05 7.95801e-06 0)
(1.44214e-05 -1.33762e-05 2.95719e-22)
(0.000131544 -6.74468e-05 2.9956e-22)
(1.51864e-05 -1.11874e-05 -5.04712e-22)
(0.00155501 -0.00131441 0)
(-0.000625072 0.00138756 -2.00785e-22)
(-0.00622571 0.0113851 2.7982e-22)
(1.46165e-05 3.86834e-06 -2.37533e-21)
(1.514e-06 -1.51503e-05 8.66383e-22)
(0.000181202 2.203e-05 0)
(0.00504557 0.00623151 6.46601e-23)
(0.000170606 -6.82993e-05 0)
(-0.000841961 -0.00306996 -1.92574e-23)
(0.00162808 -0.00713922 0)
(0.00818642 0.0353998 -1.81305e-21)
(-0.00443028 -0.000230232 0)
(1.79218e-05 -1.51322e-05 2.61188e-23)
(0.00482484 0.0336984 -3.25566e-21)
(-0.00162726 0.00280294 1.31107e-23)
(0.00368232 -0.000592209 0)
(1.9917e-05 7.55071e-06 -8.20204e-22)
(7.56305e-06 -1.88598e-07 5.2201e-22)
(0.000811635 0.000778407 0)
(0.000521502 0.000494002 -1.67617e-22)
(0.00724193 0.00338965 -1.41524e-21)
(-0.000476069 0.000251124 1.96773e-22)
(0.0263925 -0.0485566 -1.3354e-21)
(-0.000544567 -0.000796772 3.85477e-22)
(-0.000119721 -1.77858e-05 -3.08718e-22)
(0.00606466 -0.0193366 -3.47995e-22)
(-0.00264234 -0.00208226 0)
(0.00913537 0.00252945 3.6539e-22)
(-0.00400196 -0.0023945 7.6431e-22)
(8.38118e-06 1.44537e-05 2.03795e-24)
(0.00380404 0.000125888 0)
(1.80385e-05 -1.47055e-05 0)
(0.00705915 0.0123142 7.86336e-22)
(-0.0161559 0.0398883 0)
(0.000817 0.00116793 -1.30196e-21)
(0.000886989 -0.000263109 1.72875e-22)
(-0.0272864 0.000322043 7.53573e-23)
(1.90949e-05 -1.42836e-05 -5.11287e-22)
(1.28868e-05 8.08269e-07 4.23086e-22)
(-0.00845092 0.00250831 1.1859e-22)
(0.0049523 0.000777831 0)
(0.00455444 -0.00458201 -3.25155e-21)
(-0.00200979 0.00154246 -4.71186e-22)
(-1.63531e-05 -1.73392e-05 0)
(-0.0346013 0.18507 2.52301e-22)
(6.52129e-05 0.000155897 0)
(0.00493546 0.000638717 0)
(0.00364448 -0.00206443 4.1057e-22)
(-0.00888155 0.00155362 1.31478e-22)
(0.00367727 0.00360268 8.41215e-22)
(0.000424656 0.00477174 -1.36097e-22)
(0.000936834 -0.000590714 8.26723e-22)
(0.00412055 -0.00423383 0)
(0.00470411 -0.000109682 1.4772e-22)
(0.000166923 -6.08881e-05 1.78918e-22)
(2.1514e-05 5.50833e-07 0)
(0.0225313 0.0141605 0)
(0.00360191 0.000433813 0)
(-0.00253822 -0.00242115 9.41908e-24)
(0.0166917 -0.0113658 0)
(0.000114126 9.30671e-05 1.49665e-22)
(0.00186923 0.00128759 -4.63946e-23)
(0.000253743 0.0048852 -3.41348e-22)
(2.15511e-05 1.27528e-06 0)
(1.82545e-05 1.58334e-07 0)
(0.00189824 0.00152428 4.0869e-23)
(-0.00138602 -0.000703964 -2.50458e-22)
(0.0112492 0.0151736 -3.16938e-21)
(0.000726425 -0.000309893 -9.1228e-23)
(0.000910302 0.00224065 0)
(1.30706e-05 -1.51522e-05 -6.01358e-22)
(2.2618e-05 -6.56086e-06 9.93136e-22)
(-0.00207098 0.00163513 0)
(-0.00358418 -0.000632014 0)
(-0.00629646 -0.000803547 -5.42129e-22)
(0.00334649 0.00373206 -4.27266e-22)
(-0.00620635 -0.00326873 -5.69314e-22)
(0.00202562 0.000692386 5.19651e-22)
(-0.00384864 0.003005 1.30562e-22)
(-6.06425e-06 9.86366e-05 0)
(0.00149076 -0.000655289 0)
(0.00352356 0.00507897 1.33962e-22)
(2.3146e-05 2.15117e-05 0)
(0.0344701 0.0714281 -1.61045e-21)
(-0.00270011 0.00930482 -7.38777e-22)
(0.00971386 0.0066419 -1.75564e-22)
(0.00209844 0.00145341 0)
(-0.000571932 0.00486436 0)
(0.00906239 0.00376827 -3.24449e-22)
(0.00103312 0.00152491 0)
(4.0299e-06 5.73157e-06 0)
(0.00126944 -0.000407755 1.09798e-22)
(0.000167297 -6.87061e-05 1.48998e-22)
(-0.00150614 -0.00837342 -1.30838e-22)
(-0.018637 0.0189489 0)
(0.000777944 0.000454815 3.46969e-24)
(-0.00366951 0.00235102 -1.71191e-22)
(-0.00433313 -0.043407 5.56961e-21)
(0.0101335 0.00203428 -6.89391e-22)
(-0.00163169 0.00114391 -1.30517e-22)
(-0.00459189 -0.000580515 3.10756e-23)
(1.56392e-05 -1.04014e-05 -3.31519e-22)
(1.14437e-05 -2.1021e-06 6.64171e-23)
(-0.0199094 0.024902 0)
(2.9133e-05 0.000205205 0)
(1.51193e-05 -1.05815e-05 6.01744e-22)
(1.84734e-05 9.22717e-06 -6.36913e-22)
(8.75487e-06 -3.25989e-07 0)
(0.0052509 0.00476431 -3.58264e-22)
(1.97963e-05 -7.89725e-06 -4.53637e-22)
(0.0121446 0.0131933 2.5488e-21)
(-0.043839 0.0174277 7.23143e-22)
(1.84879e-05 3.72248e-06 4.51759e-22)
(9.25344e-06 2.92259e-07 2.50877e-24)
(1.38496e-06 2.43088e-05 -4.63591e-22)
(1.6477e-05 1.58991e-05 -8.92463e-22)
(1.47094e-05 8.32174e-06 1.42092e-21)
(0.00078695 -0.000562934 -6.32474e-22)
(-4.78242e-06 -1.83189e-05 -7.1588e-22)
(0.00385916 -0.00195276 -6.11693e-22)
(-0.000178009 0.00186737 1.30242e-23)
(0.00110454 -0.000445468 -1.17002e-22)
(0.00137053 -0.000599201 2.57207e-22)
(-0.00390621 0.00226366 1.79758e-22)
(0.00106971 0.00297302 4.34045e-22)
(0.00158419 -0.00060351 -5.00478e-22)
(0.0303856 0.0241826 -6.11919e-22)
(0.00697445 0.000388649 0)
(0.00842498 -0.00833413 2.2301e-22)
(1.13773e-05 5.40686e-06 -2.64911e-22)
(1.01676e-05 -2.80122e-05 -1.32696e-22)
(1.85843e-05 -7.78123e-06 0)
(-0.000156894 0.00182464 0)
(-0.000250534 0.0018016 0)
(1.76395e-05 -1.19866e-05 8.37495e-22)
(-0.000770202 0.00491005 3.30923e-22)
(0.0221408 -0.045793 0)
(-0.00963201 0.00116095 1.63721e-22)
(0.0293003 0.0269788 1.72448e-21)
(0.000274063 0.00029262 -2.91962e-22)
(0.00474104 0.000565431 0)
(-0.00107985 0.00287102 -4.92279e-25)
(0.000119924 -6.40823e-05 1.81018e-22)
(0.00347514 -0.0101302 -1.76743e-22)
(2.31409e-05 -5.69108e-06 -7.68136e-22)
(0.00199529 -0.009341 1.71073e-22)
(3.07687e-05 -2.46334e-05 4.61219e-22)
(2.2677e-05 -3.69232e-06 4.021e-22)
(0.00581435 -0.00394023 1.37488e-22)
(1.50238e-05 0.000113899 1.39218e-22)
(-0.0029072 -0.000684439 6.30242e-22)
(-0.000161198 -0.000187481 0)
(0.00284604 -0.00907854 1.55301e-22)
(0.00122044 -0.000559736 -1.35312e-22)
(-1.32059e-05 7.47874e-05 7.32025e-23)
(-0.00281399 0.0136982 0)
(0.0017645 -0.00308656 -3.9379e-22)
(1.41705e-05 7.5359e-08 0)
(0.00366171 -0.0455668 -2.21196e-22)
(0.00565814 -0.0197101 0)
(0.000528237 -0.000299663 -5.25451e-22)
(0.000166621 -4.04938e-05 5.6501e-23)
(-0.0085806 -0.131437 -6.70548e-22)
(1.58048e-05 -8.64718e-06 0)
(-0.0478682 -0.0160992 1.31287e-21)
(0.00474255 0.00401706 3.71691e-22)
(-0.00389518 0.00285533 -1.48193e-22)
(-0.00350254 -0.0021951 9.6967e-23)
(-0.00377852 0.00108316 -2.24399e-22)
(-0.0235147 0.168151 -1.5805e-21)
(0.0216822 -0.00717087 -1.3983e-21)
(-0.00226429 0.00234494 0)
(7.46663e-05 -2.39828e-05 7.54262e-22)
(0.011469 -0.00234678 0)
(1.59925e-05 1.16163e-05 0)
(0.000500791 -0.00032658 1.00545e-23)
(0.00225684 0.00151177 0)
(-2.51526e-05 -1.68053e-06 0)
(0.00196991 -0.00299051 -9.99439e-22)
(3.48136e-05 -3.21686e-05 3.47582e-22)
(0.000161736 -4.01177e-05 -1.3784e-22)
(1.61439e-05 1.02934e-05 0)
(4.5117e-06 2.24621e-05 -7.26723e-22)
(2.09903e-05 7.59019e-06 -1.01466e-21)
(-0.00136827 -0.00877083 -2.83189e-23)
(-0.00337889 -0.00720223 0)
(1.58868e-05 -8.94739e-06 0)
(-0.00105939 0.00172591 3.32754e-22)
(0.000319413 0.000122983 1.76687e-24)
(-0.00622577 -0.000620171 0)
(0.00635764 0.0147131 -2.33801e-23)
(0.00314828 0.00171442 0)
(0.0118091 -0.00101606 -4.42468e-21)
(0.00335508 0.00208196 0)
(0.00502625 0.0075002 -1.05092e-21)
(0.000105699 0.000528246 0)
(-0.00109383 0.000443602 0)
(0.0150803 0.00717073 1.19441e-22)
(0.00439155 -0.00988907 0)
(-0.0527928 0.0125749 -6.95332e-23)
(1.87307e-05 -7.13561e-06 0)
(-0.00858863 0.00123349 5.19532e-23)
(-0.0470426 -0.0184933 -1.2516e-21)
(-0.0375125 -0.077955 -2.71607e-22)
(9.71359e-05 3.55533e-05 0)
(1.29196e-05 -7.68464e-07 -4.23687e-21)
(-0.000747152 -0.0234323 1.10526e-21)
(-0.000624954 0.000705071 9.81539e-22)
(0.13507 0.0296818 -1.69999e-21)
(1.16981e-05 -4.78762e-05 -2.59136e-22)
(0.121718 0.0493481 1.27923e-22)
(-6.85286e-05 0.00184439 -9.62987e-24)
(-0.0194309 -0.0559296 0)
(2.71442e-05 -1.93358e-05 -6.55851e-24)
(-0.0269498 -0.0804731 1.95941e-22)
(-4.23259e-05 -2.38937e-05 5.1637e-26)
(0.000650022 -0.00113872 -1.92549e-22)
(-0.00818873 -0.0527016 2.25555e-22)
(1.87717e-05 -1.61477e-05 0)
(0.00985941 0.00540122 -2.90198e-22)
(0.00358676 0.0341025 0)
(0.0513395 0.0146197 -9.02192e-22)
(-4.20103e-05 -2.01948e-05 2.96408e-22)
(1.65574e-05 7.77711e-07 0)
(0.000111208 0.00183069 3.4522e-23)
(0.0428653 0.0451156 -1.46457e-21)
(1.27234e-05 -2.4809e-07 2.37795e-21)
(0.0286155 0.0367793 0)
(0.000224192 -0.000432704 1.0866e-21)
(0.000314115 0.000144265 -3.6514e-22)
(7.54041e-06 8.96247e-06 1.73211e-21)
(-0.00995411 -0.0558767 -1.95555e-21)
(7.0856e-07 0.00178847 0)
(-0.000425827 1.63526e-05 0)
(-3.78791e-05 3.22964e-05 2.27538e-22)
(2.1461e-05 -2.37116e-05 2.18853e-22)
(1.07847e-05 -4.34328e-07 -2.50293e-21)
(-0.00803968 0.0786723 -1.8167e-21)
(-6.87499e-05 -8.98941e-05 5.73546e-22)
(-0.000791667 -0.00156353 -1.25782e-21)
(1.30861e-05 6.80049e-06 -8.1376e-23)
(-0.00512001 -0.00137383 0)
(0.00196784 0.00124753 -6.87062e-22)
(0.0282253 0.0442099 1.0188e-22)
(-1.85118e-05 -4.5283e-05 0)
(-0.0101091 0.00190122 7.08213e-22)
(0.00588146 0.0161688 0)
(0.0260815 0.0466115 1.37681e-22)
(-0.000167884 -6.30225e-05 -3.31683e-24)
(-0.0033501 -0.00254413 -4.22208e-22)
(0.000615566 -0.00106443 1.78682e-22)
(-0.00370264 0.00153182 -2.89969e-22)
(0.00213341 0.00127799 3.28504e-22)
(6.77946e-06 -0.000114856 -3.30622e-24)
(2.06699e-05 8.05084e-06 -5.28841e-22)
(4.46785e-05 -3.4055e-05 6.01187e-22)
(2.16865e-05 3.20069e-06 6.63388e-23)
(-0.00343194 -0.00258626 -7.48036e-23)
(-2.2691e-05 -4.78188e-05 0)
(0.00633812 0.0100052 5.22629e-22)
(0.019361 -0.0100192 1.07277e-23)
(-0.00502706 -0.000981441 1.05428e-21)
(-0.000109721 -0.000151064 0)
(-0.0067321 0.0777093 -3.54229e-22)
(-0.0644258 -0.00990772 -2.13661e-23)
(6.42116e-05 0.000146168 0)
(1.56851e-05 1.63279e-05 0)
(-0.000169268 -7.69084e-05 3.43843e-22)
(3.63135e-05 -4.96221e-05 -1.53866e-22)
(0.00086818 -0.000340081 1.49261e-22)
(0.0246177 -0.00548804 1.35027e-21)
(0.144845 0.0264671 7.4043e-22)
(-0.000417948 0.00178623 -6.60697e-23)
(0.00197891 -0.0103853 2.93852e-22)
(0.00303216 0.00336809 0)
(0.000117918 4.64565e-05 -9.5595e-23)
(0.0124146 0.00521511 0)
(0.000773638 0.00218686 0)
(0.0173416 -0.0336669 -9.93172e-23)
(-0.00168828 -0.00933869 -2.58399e-22)
(0.0390365 0.0402626 1.64572e-21)
(-7.39056e-05 0.000295381 -8.19585e-23)
(-0.0388895 0.0079614 3.17326e-22)
(1.96944e-05 -8.36e-06 -4.98732e-22)
(-0.0420967 0.0369538 0)
(-0.0142971 0.016684 9.82474e-23)
(9.34972e-05 2.9741e-05 3.11637e-22)
(-0.0380455 0.0169397 -3.22222e-22)
(-0.000541837 -0.000562778 -2.36153e-22)
(0.000792502 -0.000293516 0)
(-0.00401489 -0.00292917 -3.72676e-22)
(0.000215977 -0.000405578 -3.62681e-22)
(-0.00180445 -6.96262e-05 -5.12012e-23)
(2.78966e-05 -1.41831e-05 -7.61065e-22)
(0.00699268 -0.000388823 -2.10612e-22)
(0.00843626 -0.0290266 0)
(0.0024857 0.000888011 5.14702e-22)
(-0.00305892 0.00241856 1.41684e-22)
(-0.00513769 -0.0043468 1.22325e-21)
(0.000179499 0.00177351 -3.27187e-23)
(0.00158291 0.00215002 5.74188e-22)
(1.33927e-05 -5.10893e-06 -2.17813e-21)
(0.00254346 0.00104736 -4.7735e-22)
(-2.81726e-05 0.000872921 0)
(-0.00807767 0.0209068 0)
(-0.00472824 0.000149694 -1.81289e-23)
(0.000893671 0.00468505 4.69213e-23)
(2.13803e-05 5.91496e-06 0)
(0.0150638 0.0722874 0)
(0.00156238 -0.00493722 -8.56959e-22)
(2.14892e-05 -2.27668e-05 4.11582e-22)
(2.07967e-05 6.10055e-06 0)
(0.0551738 0.0270043 3.6357e-21)
(0.0132877 0.00518018 -1.64676e-21)
(-0.00176351 -0.0033645 0)
(-0.00353608 0.0134444 6.54893e-23)
(2.05643e-05 6.40642e-06 2.1407e-22)
(-0.000187014 -0.000255721 -1.76128e-22)
(1.33248e-05 -6.11213e-06 7.83462e-22)
(-0.00394248 -0.00125266 -5.91799e-22)
(-0.000769407 -0.00166589 1.04281e-21)
(1.01161e-05 -1.34413e-05 6.5266e-23)
(0.00012156 -7.00915e-05 0)
(0.00218777 -0.00325369 8.62069e-22)
(-0.00429106 0.00212542 0)
(3.85294e-05 -5.53634e-05 -1.62071e-22)
(-0.000777672 -0.00145403 1.47579e-22)
(-0.000963303 -0.000234392 2.83803e-22)
(0.0083424 -0.00610175 -1.75745e-24)
(4.65791e-05 -7.25763e-06 -3.05632e-22)
(-0.00106789 0.000366139 -8.32454e-23)
(0.00548187 -0.00433308 -2.66329e-22)
(1.4863e-05 7.47504e-06 0)
(0.051657 0.0171717 8.07237e-21)
(-0.00329244 0.00230556 0)
(1.53257e-05 8.95183e-06 -1.0333e-21)
(0.00069083 0.000539995 0)
(2.40025e-05 -1.75198e-05 -1.33713e-21)
(-0.00219564 0.000659527 0)
(0.0114611 -0.0200869 -3.0506e-22)
(7.0902e-06 -1.74036e-07 2.04109e-22)
(-0.00641398 0.00463835 3.97283e-21)
(0.0149576 0.00806866 -1.72871e-21)
(0.0410721 0.0367223 0)
(0.0160012 -0.0206217 -3.75312e-22)
(0.00182266 0.00316869 4.20621e-22)
(2.2437e-05 -4.52934e-06 -4.40345e-22)
(-0.0679432 -0.00286355 -1.69189e-23)
(1.67093e-05 -8.72654e-06 -4.47742e-22)
(-0.00227779 0.000397255 0)
(-0.000239598 0.00461162 5.53979e-23)
(1.54338e-05 7.19057e-06 1.14691e-21)
(0.000161557 -0.000277738 1.5566e-22)
(0.00439418 -2.87401e-05 4.71172e-22)
(3.70792e-05 0.000837534 2.81354e-22)
(0.0135483 0.00641981 0)
(8.63478e-06 4.40474e-07 0)
(-0.0227615 0.0285772 1.08762e-22)
(0.000321297 0.00110505 1.24087e-21)
(0.00295225 0.00469664 0)
(4.00464e-06 -2.80847e-07 1.05826e-22)
(0.000104705 4.29374e-05 -3.17707e-22)
(-0.0135201 -0.00648095 0)
(-0.00561584 0.00465999 -4.0063e-21)
(-0.00373485 0.000962558 -2.87328e-22)
(0.00640187 0.00367533 1.76886e-21)
(-2.81826e-06 0.000224349 3.68019e-22)
(-0.000439287 0.00014044 -2.18086e-22)
(0.0131522 -0.0224808 6.84438e-22)
(-0.0129533 -0.00830727 -1.08765e-22)
(1.25107e-05 -9.44261e-07 -1.21286e-21)
(-0.00158126 -0.00978617 0)
(0.00123112 -0.00461822 0)
(0.110813 0.0586436 0)
(0.0249791 0.0034455 0)
(-0.00023361 8.91556e-06 -3.47619e-21)
(4.77296e-05 0.0017916 0)
(1.46343e-05 6.54494e-07 -5.10378e-22)
(3.52207e-05 0.00010959 -7.11727e-25)
(0.00231347 0.000867454 0)
(-0.00151232 -0.00363446 0)
(-0.00134964 -0.000602093 0)
(9.53662e-06 -3.31866e-05 -1.953e-22)
(-0.000222855 3.69281e-05 2.29546e-21)
(1.23541e-05 -1.08782e-06 -2.12062e-22)
(0.0111773 0.0372571 3.42041e-21)
(0.0256853 0.00348941 -7.41325e-22)
(0.00181906 -0.00200131 1.79157e-22)
(-0.00368395 -0.00157359 4.81543e-22)
(-0.0011928 -0.0016073 2.78415e-22)
(-0.0035796 -0.0017 -3.51703e-22)
(0.000897485 -0.00244292 -3.70331e-24)
(-0.000122122 -0.000159159 0)
(0.000818999 -0.00479644 -1.7973e-21)
(0.00242272 -0.00315179 0)
(0.000453433 -0.000881153 0)
(0.00131072 0.00344598 0)
(-0.000118961 -0.000175715 3.31238e-22)
(0.0061104 0.00466849 -3.45204e-22)
(1.06144e-05 -5.1863e-05 2.67843e-22)
(-0.0405357 0.0290028 5.22202e-22)
(-0.0600262 -0.00990875 -1.15879e-21)
(0.00271101 0.00404338 0)
(0.004036 -0.000362383 -1.27889e-21)
(0.00673805 0.00615953 -1.5323e-22)
(8.56233e-06 -3.8004e-05 0)
(-3.91243e-05 0.000282334 4.1903e-23)
(0.00459365 0.00103255 9.29381e-22)
(0.000152817 7.34275e-05 -5.09211e-22)
(8.67167e-05 5.54318e-06 -1.13442e-24)
(0.0107275 0.0210289 -6.62961e-23)
(0.0472765 -0.00605452 -4.9725e-22)
(0.00817299 0.00121779 0)
(0.0096935 0.00231844 -1.74981e-21)
(-0.0328154 0.0254489 1.59109e-21)
(0.031437 0.0296769 -6.96079e-22)
(0.00768525 0.000614316 -6.38687e-23)
(0.0106671 0.0230831 1.24773e-22)
(-4.18207e-05 -6.27518e-07 -2.20873e-22)
(-1.09053e-05 9.27392e-05 0)
(0.00433323 0.000168854 0)
(3.37475e-06 4.06385e-06 -1.22419e-23)
(0.0100315 -0.0302862 0)
(-0.000522297 0.00243059 1.23157e-21)
(-0.00258778 0.00232986 0)
(2.12567e-05 -1.57545e-05 8.62461e-22)
(1.65637e-05 -9.62066e-06 -3.03368e-22)
(-0.00221848 -0.0542228 -6.83955e-23)
(0.000100695 4.05445e-05 5.13331e-22)
(0.00216003 0.00397381 8.19348e-22)
(-0.00054197 0.00218701 -1.40271e-21)
(0.00520503 0.000942624 2.06033e-23)
(2.27947e-05 -1.61095e-05 2.64601e-22)
(0.0135038 0.00913302 -2.84563e-22)
(1.621e-05 -8.78758e-06 -3.69769e-24)
(2.00447e-05 -1.75169e-05 0)
(0.00128682 0.00294843 5.89781e-23)
(-0.0166577 0.0196363 -7.03112e-22)