/*--------------------------------*- C++ -*----------------------------------*\
| =========                 |                                                 |
| \\      /  F ield         | OpenFOAM: The Open Source CFD Toolbox           |
|  \\    /   O peration     | Version:  v2012                                 |
|   \\  /    A nd           | Website:  www.openfoam.com                      |
|    \\/     M anipulation  |                                                 |
\*---------------------------------------------------------------------------*/
FoamFile
{
    version     2.0;
    format      ascii;
    class       volScalarField;
    location    "300";
    object      ddt0(omega);
}
// * * * * * * * * * * * * * * * * * * * * * * * * * * * * * * * * * * * * * //

dimensions      [0 0 -2 0 0 0 0];


internalField   nonuniform List<scalar> 
54593
(
0.00390876
-0.000560389
0.00450534
0.000394516
0.000105718
0.00389115
-4.45935e-07
5.83651e-05
0.000470263
9.8338e-06
-8.83391e-08
-0.0515123
1.55465e-06
-3.60985e-07
0.00317671
4.90211e-07
0.0163287
5.41912e-07
5.43646e-07
-0.00363139
-9.91772e-06
-1.21326e-06
0.0294702
2.63468e-06
4.40384e-07
2.43061e-05
-0.0976358
0.00144475
-0.000770942
-5.18947e-06
0.000222627
-0.00189139
1.5235e-07
0.72872
-4.16455e-07
1.19829e-06
2.78597e-05
-0.362295
-0.128707
-1.1523
0.460518
1.0807e-06
7.63567e-07
-4.10589e-08
-1.76951e-07
-2.99224e-05
-5.87758e-07
-0.0639241
-0.279311
-1.37072e-06
-1.4887e-07
6.74285e-08
5.22778e-06
1.19692e-05
-3.95577e-08
-9.2317e-08
8.42233e-05
-1.49773e-06
-0.00293988
1.50221e-05
-0.120527
2.0033e-07
5.93508e-06
4.24133e-07
0.0103138
-0.742215
-2.38096e-07
-0.000947248
5.49649e-07
-4.95459e-07
0.014669
4.31103e-07
1.18364e-05
1.33267e-07
6.96412e-07
-6.48989e-07
-0.0348668
-1.78484e-06
0.655965
3.19002e-05
2.25585e-06
1.82718e-07
0.0140115
-0.00303965
2.51894e-07
-1.98988e-06
-0.00738343
-1.00746e-05
-2.14111e-06
-0.000540316
8.74387e-07
1.13256e-06
-0.00231055
2.30674e-07
-0.0213355
1.60633e-05
5.24053e-05
5.0565e-06
7.29709e-07
9.60025e-08
-0.038718
0.0118714
3.87995e-07
-0.00213812
0.00104699
0.00784742
4.73743e-07
0.000155899
1.01305e-07
7.54205e-07
1.11826e-06
-1.7007e-06
0.00446823
0.000147338
-0.0382594
2.79198e-08
5.36941e-07
-2.8307e-05
0.000707556
-0.0284312
-4.15459e-07
-0.00172533
2.26348e-05
-0.00116001
4.60648e-06
0.0183188
2.26677e-07
1.57776e-05
0.000981729
5.54548e-07
-2.91895e-06
1.92808e-05
6.50474e-07
-7.81072e-05
-8.25809e-08
-4.81855e-07
3.26692e-05
0.0140721
4.77259e-06
0.765701
2.15381e-08
9.01022e-06
6.96439e-07
0.0390672
2.28471e-07
-8.20039e-05
-1.30636e-05
-9.28128e-06
7.47428e-07
0.016518
-8.41821e-06
-0.00536841
7.43165e-07
-1.47488e-06
4.39634e-06
-0.00510715
-0.000461151
-0.0164325
-0.00651432
4.58035e-06
5.52303e-05
0.000246259
-0.00370222
1.30072e-07
-0.0060181
-1.41862e-06
-2.55534e-05
6.6063e-07
3.60664e-07
1.23618e-06
0.169494
6.15953e-07
-9.16563e-06
-3.13572e-05
-2.75246e-06
6.94377e-07
0.000179279
-5.02844e-05
0.0401792
1.46241e-07
-1.50292e-07
-5.01946e-06
0.00447916
0.00034729
-0.00613235
1.59849e-06
0.0361762
1.18673e-06
5.46355e-05
1.37614e-06
-0.0464679
-0.00215634
1.07368e-06
-0.0234191
-0.00182191
-1.49085e-06
1.24019e-06
2.37202e-05
-0.00143961
-3.66247e-06
0.00412071
0.00124289
1.17324e-06
9.64301e-05
-0.00771717
5.88357e-06
2.94851e-06
0.000104042
-2.54581e-07
0.0244277
-8.3681e-08
-0.0853882
1.06494e-05
-0.00538669
6.23673e-07
-5.67905e-05
-5.83819e-07
0.00536624
1.68901e-07
6.85165e-07
2.07242e-06
0.182735
5.20025e-07
-0.188978
0.0146108
-0.00184529
1.75508e-05
0.0373652
0.000192424
0.00165486
-0.011197
8.55268e-08
-1.44831e-05
-8.79573e-06
1.02675e-05
3.60706e-07
5.75677e-06
-0.00466198
-0.00160357
1.21552e-06
1.75295e-07
6.96366e-07
2.11256e-07
1.76186e-07
-1.75451e-07
2.22585e-07
0.0133358
-0.19579
1.06328e-05
8.32118e-07
-0.0019579
1.58843e-06
0.00014182
2.55027e-06
0.0894742
-4.04389e-07
-0.337729
0.0214732
-0.00191389
-3.36366e-07
-1.21398e-06
1.78022e-07
0.000386213
-0.372968
-0.00065862
0.000438377
1.63576e-07
1.27004e-06
1.30125e-06
2.15291e-06
0.0943229
-0.267468
5.41548e-07
-0.00220043
-0.00154989
-0.103187
6.7481e-07
-9.52435e-08
7.92092e-05
5.97066e-07
-3.55799e-07
4.43051e-05
1.08071e-05
9.15365e-05
-0.00155117
-0.0106978
9.9383e-05
5.17838e-05
-0.00154503
9.02827e-07
1.3234e-05
0.229097
-1.83584e-05
-0.00344849
-0.000151488
-7.4247e-07
-0.000221843
1.4354e-07
5.09244e-05
-0.24
0.000169995
1.24197e-06
-0.00388051
-1.58653e-05
-0.000328002
-0.00143862
0.0113867
-0.0055692
-0.141737
-0.00387932
5.53238e-06
-0.0074607
7.31815e-06
0.044982
-0.0160255
0.000437742
-0.00184841
-1.68073e-05
0.000398436
1.15174e-06
0.00663704
0.000262729
1.53915e-07
0.000520832
2.78938e-07
-0.0312123
-1.48666e-05
0.000125833
-1.98521e-07
-0.0591024
-0.00148951
-7.78259e-08
-0.233802
0.00361664
3.41814e-05
6.43237e-07
1.41091e-05
-0.000720855
-6.16718e-05
-1.86563e-06
0.00020362
0.964409
0.0189571
-1.97026e-06
4.08997e-08
0.040794
1.13028e-06
-0.000607952
1.84309e-05
2.07993e-06
-0.0467313
2.217e-06
0.100227
4.40292e-06
0.000405252
0.000331727
4.565e-05
0.0132339
-3.62082e-05
-4.86912e-05
-0.0658239
-0.0044113
-0.00577693
-1.91851e-06
-0.00115141
0.000258016
-1.64645e-05
8.55948e-07
3.2725e-08
-0.000321476
-2.43789e-05
-0.128403
-0.0369373
-6.85884e-05
-1.60682e-05
0.000194486
0.000548228
-9.19436e-06
-0.00685589
0.00362271
7.57061e-05
-0.000554289
-0.00374106
8.28384e-06
0.000499635
1.17712e-05
0.000103612
-2.05903e-06
-5.41692e-05
-1.66146e-06
4.6052e-05
-0.000528236
-0.0832674
-0.00036723
7.14422e-07
4.98659e-07
2.93695e-05
4.65873e-07
8.81016e-05
4.5068e-05
-0.00257723
-5.38074e-07
-8.51956e-07
3.32216e-05
-0.000372649
5.592e-05
0.00039072
4.88257e-05
-0.439955
0.000155104
-6.78756e-07
-0.452354
0.0394756
0.000205885
9.49855e-08
1.61745e-06
0.00585584
-0.00847831
-0.000129921
1.20541e-05
0.0956444
-7.74766e-06
-1.57979e-07
0.0233188
9.97868e-05
8.49002e-05
-0.42711
-7.75015e-07
-6.34386e-05
-7.02747e-07
-0.000608082
-0.0378038
0.00302438
-2.33409e-05
-0.0270939
4.97651e-07
6.45436e-07
-0.00114751
-0.0440618
0.000284066
-0.000354099
-3.92153e-06
0.269428
2.8239e-06
0.00951467
-9.87247e-05
-0.000735782
-0.000146009
-0.257409
0.0235471
0.000256046
-6.43399e-05
9.77956e-05
1.96142e-07
-0.00260179
-6.87272e-05
0.000101405
0.153221
5.64066e-06
6.93833e-05
-0.230014
1.97004e-07
9.86924e-07
8.06484e-05
-1.3259e-05
-0.000709379
6.6069e-05
0.0387978
-8.12214e-08
6.45331e-07
-0.000451606
4.7523e-05
-0.0382329
-0.000140252
0.00025393
-5.26656e-05
-0.00824799
4.30751e-06
7.53422e-05
-0.000203833
1.76494e-06
-0.11124
-0.000218843
-0.000524557
0.0334151
-0.268462
-7.15236e-05
1.06996e-05
-1.14104e-07
2.73351e-05
5.4023e-05
0.0189899
-0.000535646
6.05301e-06
0.0425773
0.233529
-8.53347e-06
6.49892e-05
0.00016606
1.93055e-07
7.8791e-07
-0.0754748
6.13992e-06
1.87693e-07
1.41893e-08
1.61879e-06
-0.000121501
5.79e-07
-0.0011755
-0.765068
-8.64052e-07
3.85447e-07
4.0919e-07
2.76213e-07
-5.2361e-07
-2.78883e-05
-9.04174e-07
-9.57467e-05
-7.89069e-06
5.98571e-05
8.85251e-05
0.0415378
0.0438995
8.02645e-05
-0.00481449
2.85902e-05
0.00436401
-2.28854e-07
5.60267e-07
1.91766e-07
-1.17795e-05
3.56717e-05
-7.65516e-07
-0.239595
0.0696076
0.000195043
-0.00621855
-3.07272e-07
-0.0526591
0.0361989
-2.24703e-07
0.000459797
6.33228e-07
0.000397739
-1.34637e-06
5.54378e-07
0.00046735
5.24633e-06
2.64022e-05
-1.38962e-05
0.000361905
2.6985e-05
-7.85173e-07
-0.000542698
-8.6831e-05
2.29211e-06
0.0747926
0.0232437
-1.00703e-05
9.1891e-05
-0.00697505
7.39098e-08
-0.328558
-0.000256065
-0.0049172
0.000142277
0.000903084
0.198778
0.000369528
8.03122e-05
-1.4637e-06
0.00114356
3.17982e-07
-1.09953e-05
0.0331929
-1.55505e-06
-9.11307e-05
-1.67755e-06
9.94637e-05
3.56376e-07
4.86271e-07
1.79972e-07
0.0193927
-0.001032
6.73378e-08
0.0144243
6.04012e-06
-0.0448084
0.000590794
0.000285802
0.00117254
0.000154712
-0.000459866
0.000252146
0.000339964
0.000231707
0.000455822
-0.884737
1.81291e-07
0.000198793
-0.195796
0.299422
3.88e-06
-2.2609e-07
0.00631494
9.3595e-06
-0.687419
1.07797e-06
-0.0817837
-1.26787e-05
0.611221
-1.76393e-06
0.50022
-5.39876e-06
-4.13785e-05
0.558618
1.66058e-07
-0.000570665
-0.343111
-0.114146
-5.3443e-06
4.19491e-07
-5.19986e-05
-0.126233
-2.26462e-07
-0.199305
-1.49071e-05
6.88093e-06
9.3644e-07
0.895522
-7.37559e-06
5.17411e-06
1.01755e-07
4.48466e-07
1.79394e-06
0.00529943
-8.55444e-06
-3.06476e-05
-3.44714e-07
-0.00207877
0.0331117
-0.118903
-5.13165e-06
0.000156676
-9.97564e-05
-0.112054
-1.13472e-05
-0.00341853
-3.91324e-05
-0.00176392
0.0327717
-3.80478e-06
6.90933e-08
1.64684e-07
6.78703e-07
0.000142707
-5.4934e-06
-0.000786468
0.0907652
-0.00206761
-1.14923e-05
-0.00468992
0.107161
3.06266e-06
2.75834e-07
-1.14776e-05
3.99164e-06
-1.57014e-05
-1.26735e-05
-0.870098
2.83037e-05
0.00247626
-0.000108845
0.00017051
7.20902e-05
0.0376648
-0.00684164
0.0191962
-0.161758
0.000275261
0.0120044
2.39504e-07
0.00476385
-0.100368
3.46464e-06
0.0171943
-2.4715e-05
5.90298e-05
-0.00219638
-1.37658e-05
5.06274e-05
3.6095e-07
9.81802e-05
0.00237797
-6.92309e-05
0.0384465
-0.0025891
-5.93825e-05
-0.000104847
-1.72157e-07
-6.88299e-05
2.70489e-05
-0.17608
0.000160837
-0.203923
1.73597e-07
-1.1115
0.0155524
4.75849e-07
1.32113e-07
-0.135656
0.000165127
8.27721e-05
0.00279817
1.30161e-07
-1.62091e-05
-1.5763e-07
7.57086e-05
-3.25133e-05
2.3098e-07
-4.94578e-07
-9.97205e-05
0.0401591
-1.97622e-06
0.000380453
0.000380322
0.0142306
-1.2184e-06
0.000347073
0.000469695
-5.79265e-07
-0.11509
0.0354813
-5.73222e-07
-2.85407e-05
-1.79225e-06
-6.5089e-05
0.00559141
1.5409e-07
-0.000342009
0.000117606
-0.128058
0.00519849
0.0390232
5.42056e-07
0.0887119
5.3869e-08
-5.51533e-05
-0.33905
-5.99587e-07
-1.0739e-05
0.0150045
2.56082e-05
9.8182e-05
1.9347e-06
-0.00104066
0.00295094
-0.000120431
2.19748e-06
1.22105e-05
-0.00784018
-0.000354426
-0.00211866
-3.76538e-06
-2.62735e-06
-1.32156e-05
0.00564879
-0.00845129
1.20557e-06
0.0196928
0.000174189
-0.0384717
0.185065
5.99008e-07
-1.26151e-05
-3.01287e-07
5.38981e-06
-6.60013e-05
7.4653e-05
-1.38925e-05
5.98242e-07
7.68794e-07
-1.50476e-06
-0.0410581
0.203763
0.00015865
-0.000470845
0.000392715
-0.000358597
-7.43943e-05
-1.23204e-05
0.000193566
-0.000105287
6.91801e-06
-8.31368e-05
-1.23734e-05
-6.14979e-05
1.09735e-06
0.0583949
0.0985299
-0.000223382
0.0161447
-0.000546346
6.34281e-07
0.000266483
-0.0632767
1.65346e-05
-1.5214e-06
0.0256276
-0.0957668
0.00180163
8.36078e-05
-0.996082
-0.00780905
0.00109063
0.0150969
-1.40745e-06
4.08816e-06
0.0156232
3.09258e-07
0.000273877
-0.000118568
0.0331303
5.13123e-07
-2.33398e-07
0.206488
1.15146e-05
-0.000221575
-7.70813e-05
0.000404545
7.5142e-09
-0.00121136
-2.23287e-07
4.12581e-07
0.0430352
-0.00120291
-0.0184498
-4.31834e-05
-0.0013964
0.0224414
0.000378278
-4.858e-06
-0.0121707
0.0184246
0.0118834
-0.0102525
-5.34465e-05
2.5604e-05
-1.27507e-06
2.56317e-05
-0.020411
-8.69386e-07
0.0447577
-0.375737
0.487978
0.00391658
1.29578e-05
5.18488e-07
1.77201e-07
0.0450384
-1.74821e-07
-7.55165e-05
-1.09397e-06
-1.46447e-06
2.67724e-07
-0.00716036
-0.00140193
-0.00389014
-0.0560679
-5.39537e-05
-1.64285e-06
5.27314e-06
-1.35825e-05
-5.18035e-07
-0.024564
0.018799
0.01642
-2.36528e-05
0.650991
7.06508e-05
7.08775e-06
-5.74716e-05
-0.0259704
0.101781
3.33778e-07
9.27691e-05
1.754e-06
5.34482e-07
-0.0368749
4.80156e-05
1.34002e-06
-0.0409923
-1.0198e-07
4.03551e-05
1.5078e-06
0.000156051
3.85039e-05
4.87532e-07
-2.03612e-07
0.000405206
-0.130267
-0.00565972
-9.96735e-06
1.05512e-05
3.42397e-08
1.43251e-06
-3.87458e-05
3.9767e-05
1.71143e-05
9.4121e-06
-0.0148765
0.0226341
-6.18702e-05
5.77137e-07
-1.31955e-06
0.146067
2.32476e-07
-8.19806e-07
8.12333e-05
-0.0177684
-9.39502e-05
-0.0296406
4.8351e-06
0.0128033
-0.000101159
0.0180451
0.0126072
2.48945e-07
6.45811e-08
-1.64171e-05
1.46497e-06
5.26531e-06
0.0315266
-9.95632e-06
-1.37136e-06
0.016617
-1.41843e-06
-0.00831183
-1.76502e-07
-2.0498e-06
-2.53294e-06
-7.95168e-06
-0.00264277
-4.70129e-05
-0.0409171
-2.16817e-05
-7.67046e-08
-1.50633e-06
0.000393259
2.09966e-07
4.23407e-07
0.0154193
0.000399385
0.0345348
-2.12366e-06
-0.151231
7.29378e-07
-1.94735e-06
0.000365399
0.000163977
0.00619948
0.0495626
8.97162e-06
2.71668e-05
-0.000139934
-5.07266e-07
1.91078e-06
-5.15994e-06
5.47401e-07
-0.0244783
4.72639e-07
2.79291e-05
-8.60271e-06
-5.06202e-05
-0.0359081
0.0716312
-0.0714266
0.00168629
-1.52242e-06
0.00595494
8.83122e-07
0.0241099
0.0145569
9.86704e-06
5.63009e-06
1.25916e-05
5.01667e-08
1.37111e-07
8.12358e-08
-8.55553e-06
-1.86292e-05
6.34418e-07
6.25437e-07
-4.85193e-08
0.567219
0.157916
1.69608e-05
0.000871171
-1.5274e-07
-9.46506e-05
2.39404e-06
-0.0801787
4.16587e-06
-0.00015785
9.08292e-07
0.000148524
-1.33176
-0.000511919
1.13412e-05
-1.93611e-06
9.99132e-06
3.98282e-08
0.00621604
-0.000176149
6.85753e-07
0.0376875
0.000341706
1.23604e-06
4.90961e-05
-5.2873e-07
3.92544e-07
-0.00170691
0.000155981
-0.0883496
-1.37563e-06
-0.00143485
-0.00013345
-2.24561e-07
3.99667e-06
0.000389845
-3.35266e-07
2.44579e-06
-4.29716e-05
-0.000487614
-1.49822e-06
4.13203e-06
1.22378e-06
-0.0057662
1.53613e-06
-1.44728e-06
-0.0361807
0.000139903
2.39633e-05
0.000151687
0.0604664
8.05835e-06
1.89308e-05
0.017903
-1.84222e-05
0.0268363
6.40986e-07
0.000303516
-4.74468e-06
-0.00170798
-0.00174766
0.00761713
0.0297832
-4.68923e-06
-0.0450946
-0.00358925
1.56902e-06
-1.93427e-06
-4.12316e-07
-7.36614e-08
2.16305e-05
-0.00123782
-3.84345e-06
-7.24262e-08
1.03865e-07
-0.0722289
-4.28391e-05
-0.0445934
-1.26627e-06
-0.00180155
-0.0305947
6.90635e-07
0.00055262
3.74206e-07
-3.01929e-07
9.34619e-06
0.000382351
-0.00533125
-0.0567249
1.89697e-07
1.65992e-06
-1.81509e-05
-0.000715851
1.96359e-07
5.95793e-05
-0.000450347
-1.11838e-05
-0.0908923
6.4032e-07
-1.07281e-05
-6.78206e-05
-0.000539868
0.0514005
0.225273
4.0475e-07
0.0435691
1.05677e-05
6.0133e-06
4.04258e-07
0.00233221
1.08082e-06
-0.344258
2.16786e-06
6.10677e-06
-3.41856e-06
7.10673e-07
-6.00433e-07
9.75505e-08
-4.88974e-06
-1.47337e-05
1.07066e-05
0.00614815
-1.93559e-07
7.29983e-07
-3.1244e-07
-8.0311e-07
-0.000923892
-2.57956e-05
0.000413388
-4.0976e-08
-4.60307e-07
-0.102278
7.7841e-07
6.14302e-05
6.43071e-07
-3.61247e-07
8.61456e-06
0.000210179
0.00039135
0.000392835
-7.48943e-06
-1.46036e-07
0.000636511
-1.15193e-06
0.000515326
0.0194432
4.52262e-06
1.0708e-06
2.24744e-06
-8.63122e-05
-5.44238e-06
-0.000102819
-9.76445e-06
-6.3401e-08
-3.58225e-08
-3.16754e-05
-1.53152e-06
-1.08542e-05
7.41349e-06
2.92506e-06
-0.00466905
-0.00180086
-0.00202942
-1.72876e-06
-2.28428e-08
-0.000998464
1.56927e-06
0.000265201
6.42065e-08
-0.0130991
-0.22177
-7.61284e-06
7.04074e-05
4.21569e-06
-0.00207955
2.13905e-06
0.000193452
0.000162955
-0.0192277
7.78111e-05
1.29008e-06
-9.41052e-07
-5.7257e-08
2.32652e-07
2.50946e-06
-4.91027e-07
1.36786e-06
-0.00189747
0.000156765
-1.16251e-05
0.000166295
1.22578e-05
0.000141259
-1.12251e-05
-1.06157e-05
0.000259442
1.46199e-06
-0.00680324
-1.85223e-05
7.76742e-06
5.87231e-07
2.31148e-07
-3.50637e-05
-0.0468139
7.83614e-06
-1.24268e-05
6.22746e-06
-1.00199e-06
-1.8858e-07
4.73642e-05
4.58247e-05
1.99737e-07
-4.18993e-05
-1.94568e-06
7.69295e-06
0.409116
-9.74624e-07
5.02065e-05
-0.000705379
-2.75155e-05
-0.518833
4.01706e-07
-6.89082e-06
4.23518e-06
0.95857
-2.46288e-05
-3.54201e-07
-0.0119058
6.58363e-07
-1.49201e-05
-6.62936e-09
2.14513e-06
-7.73013e-06
0.000220599
0.126209
7.19927e-05
5.69793e-05
-1.27062e-07
-9.06027e-05
-1.39094e-05
-0.0118696
1.07194e-06
-0.00151502
-7.77302e-06
0.0130661
1.00927e-07
7.93457e-06
-1.71256e-06
0.105563
-1.50432e-05
5.65732e-07
-0.000421287
1.21812e-06
-8.06715e-07
-0.0433806
1.00026e-06
-9.09636e-07
0.00010761
0.296266
0.000340916
5.65241e-05
0.000856067
-2.49458e-07
-6.98799e-08
-0.258842
0.000224461
5.43522e-07
-4.50761e-06
-2.60839e-07
0.0191491
1.00141e-06
-1.50883e-07
2.29829e-08
8.832e-08
1.37621e-06
-0.0239761
4.81789e-06
0.000301087
7.54738e-05
7.15569e-06
0.134274
9.03606e-06
-8.4922e-06
0.000102799
-4.40795e-06
-2.05347e-05
1.38444e-07
3.27165e-07
-0.0338144
0.00130058
-5.10241e-08
-0.000130978
-1.87126e-07
-3.88045e-07
1.12761e-05
-3.89287e-06
5.22692e-06
-9.78007e-08
0.0168272
2.74666e-05
-2.82745e-06
-0.127204
-0.00663662
-1.63353e-06
-1.95467e-06
-0.00460876
7.42667e-05
-4.59668e-05
-4.45417e-07
4.76363e-06
4.86364e-07
0.034597
-8.7786e-06
-1.55802e-07
-0.296493
-2.04994e-06
-3.33086e-06
-5.4424e-06
1.19017e-05
1.76254e-06
-0.0109536
0.000694175
3.13958e-07
-3.45499e-06
2.50453e-06
9.43939e-05
-1.41551e-06
-2.71622e-06
0.0030526
0.00039005
1.08483e-07
0.000630515
-0.0566439
0.000330363
-0.00559615
5.78709e-07
-4.32151e-06
0.000368088
-0.250934
-0.00548734
-0.00166505
1.05564e-06
3.66642e-06
-0.0108206
-0.0243953
3.79992e-06
1.24572e-06
-1.63437e-07
3.39651e-06
-8.99984e-08
4.69146e-08
-2.8931e-07
-1.70161e-06
-1.95649e-07
0.0198626
0.965485
3.88184e-07
3.6426e-06
-2.00655e-06
1.33553e-06
4.16026e-06
5.6978e-05
-7.87036e-06
0.000231594
-4.88798e-07
-0.0285299
-0.0008307
4.34399e-05
-7.32501e-05
0.000248152
-4.02818e-07
0.08241
-0.000578335
-8.0432e-05
0.000149309
1.19452e-05
0.00158355
-4.57426e-07
0.123697
-6.86196e-08
-3.44144e-05
-2.85667e-07
1.02681e-07
-0.0401347
2.28104e-07
-4.15952e-07
-0.00566771
0.0172323
2.86076e-05
1.16295e-06
-7.70351e-07
-0.000539655
-0.0112916
3.04293e-06
1.14881e-05
3.07266e-07
-1.63342e-06
-3.89087e-07
9.01698e-07
-0.349023
-5.79665e-06
2.07491e-07
5.25296e-07
-4.68603e-07
1.87215e-06
-7.75235e-07
9.98323e-07
6.08787e-07
-0.068588
0.00016287
1.79924e-07
-2.33316e-05
3.7448e-07
3.60005e-06
0.000285928
-4.42305e-07
0.000102247
0.015343
-1.0655e-07
0.0319396
-9.89766e-07
0.019501
3.2711e-06
0.000125032
-1.41919e-05
3.57701e-05
0.0152977
-0.000130352
-0.000529776
-1.6926e-06
8.13655e-07
-0.235453
2.1257e-05
0.017843
-4.75751e-06
2.26792e-06
0.000107099
-8.41778e-06
-1.36244e-05
3.44452e-07
-3.62867e-05
-1.27921e-06
-0.0122727
-0.00156718
-7.03711e-06
-2.34747e-06
1.68159e-06
-0.00051613
-0.0210738
0.000258651
-2.85098e-05
-0.00218402
-4.32324e-08
-2.59284e-06
-1.73299e-07
0.0465556
1.55597e-06
0.000364221
2.13785e-06
1.05177e-06
2.61705e-06
2.77348e-06
0.395783
-8.59088e-05
6.32618e-07
3.33315e-07
-2.93802e-05
-9.37324e-07
0.361639
2.15108e-06
-3.71791e-05
9.15623e-07
2.16713e-06
-1.19981e-07
0.0192523
2.52762e-07
-3.55637e-06
2.45341e-07
0.00787048
1.75947e-05
0.0273516
5.94176e-07
0.220394
0.000380348
-0.000157686
-3.75989e-09
-0.00372898
-0.0159398
2.55422e-05
-6.84637e-07
6.53117e-06
-3.06606e-08
-3.67654e-07
-9.01353e-07
1.84582e-06
-9.93444e-08
1.06416e-06
-0.00730205
-4.05612e-06
4.43741e-05
1.99948e-07
-9.44676e-07
-6.04407e-06
6.30637e-08
-0.0633303
-1.70278e-06
7.37536e-05
1.19625e-05
-0.000108124
-8.3653e-05
0.0220292
0.000101204
6.5029e-06
0.019234
0.000346551
0.033538
0.246947
2.88109e-05
6.4022e-06
7.21273e-07
0.000120741
3.88287e-07
0.00153581
1.9119e-05
0.0407798
6.22064e-06
-7.66624e-08
-0.0409906
8.42595e-05
2.93916e-05
0.0661675
-6.11605e-05
0.00959309
-1.36056e-06
-0.00295293
-1.32617e-07
0.000355356
-0.0122999
0.0621206
-3.81146e-05
1.23385e-06
7.45441e-07
0.000208472
0.18867
0.00010249
-7.21403e-07
-4.27627e-06
-9.38873e-07
-3.81779e-06
-0.000318134
5.31458e-07
7.67171e-05
-8.79148e-08
-4.79345e-08
-0.000411702
-0.000119658
-0.00220768
1.00159e-07
2.57478e-08
-0.112487
1.76564e-05
-2.09887e-06
0.0206774
-0.0406132
0.0954631
-0.000722138
-4.47798e-06
-0.00460997
0.0128085
1.12659e-07
4.41059e-08
-0.221489
1.08689e-06
6.42785e-05
5.30626e-07
0.171336
-0.344995
-1.46076e-06
-6.94489e-07
-0.00250208
1.69383e-06
6.59411e-06
0.00564845
-7.67616e-07
2.32429e-07
5.4746e-07
0.017216
5.48743e-07
2.03314e-08
5.30469e-05
0.00035492
-2.83933e-06
-0.000517846
-0.00361377
-1.42106e-05
2.39015e-06
-0.23382
9.5894e-06
-4.78222e-07
9.66918e-06
-0.127849
-1.37367e-06
-4.27026e-06
0.000198932
0.000379396
2.86671e-07
0.00430002
1.25022e-05
7.01422e-08
1.90446e-07
-0.000170839
0.000356624
-3.78515e-08
0.0494196
-0.013983
-6.29305e-07
-7.08957e-08
-0.000181512
0.0119987
0.00013541
0.000162044
4.88049e-05
-1.92376e-07
-1.60128e-05
0.00014767
0.0165593
1.06075e-05
1.83675e-06
-9.80322e-07
8.94119e-07
-9.93386e-07
-0.000164404
0.000159781
0.113669
2.71137e-06
-3.58506e-06
4.70029e-05
0.000102395
-8.76484e-06
0.000150659
0.0467697
9.72031e-07
-1.99362e-07
-4.82376e-05
2.70101e-06
1.53365e-06
2.05867e-06
-6.65454e-06
-6.89978e-06
1.7929e-06
2.22107e-07
0.0126196
-8.60168e-07
0.0137741
8.43188e-07
1.70542e-07
-7.6053e-07
-4.4031e-06
-5.97024e-06
0.00561942
-0.00671977
-4.56352e-06
-1.84598e-08
-8.65346e-05
-1.95175e-06
-1.27804e-06
-2.56987e-06
1.70369e-06
0.0466326
-0.000487622
-0.00100145
0.000312012
-1.01772e-05
-0.110526
-7.16748e-06
0.000412967
2.00045e-07
-0.000146836
-2.54741e-07
0.0299571
-6.33081e-07
0.0195657
-6.81195e-08
1.86587e-06
-0.000216035
-8.57492e-08
-0.214199
0.00708834
-0.000468681
4.77779e-07
-6.47443e-06
3.09855e-07
0.000213709
3.17212e-07
0.000135293
3.42968e-06
0.00669965
2.67781e-07
0.000391509
0.0159789
-3.21593e-06
1.94926e-05
1.21912e-05
6.21405e-05
7.1981e-07
8.5775e-05
-5.59458e-07
-4.72466e-08
-0.0287533
0.0187433
-2.83065e-07
-1.13816e-08
-8.0336e-08
-0.200714
3.21389e-06
-0.00154053
-5.13171e-06
7.78215e-06
9.80557e-07
6.52106e-07
0.0447189
1.82505e-06
-3.27109e-05
0.000361211
0.00117436
6.11042e-07
-0.000842699
3.94887e-05
0.000187985
0.20922
-5.61644e-07
-2.15773e-07
9.75156e-07
-7.16185e-06
9.30619e-06
-2.69124e-05
-3.01994e-06
0.00099859
3.96671e-07
2.09305e-08
6.55328e-07
1.51195e-06
-2.241e-07
-5.76915e-07
-1.1434e-05
0.00534781
-1.26694e-05
-0.00843962
-0.00219016
0.0144863
-3.31305e-08
-6.90584e-06
1.7458e-06
3.20502e-06
-0.132867
-1.14289e-05
1.12912e-06
1.24066e-05
-1.67233
7.81308e-05
-0.00207665
0.0395605
-0.00189385
3.70636e-06
-1.41514e-05
1.04843e-06
1.41568e-07
-5.89946e-07
3.60158e-05
3.61178e-07
-0.00954295
-4.6772e-07
3.34106e-07
-0.0060616
0.0182782
-1.02037e-05
-0.000120283
2.44907e-08
0.00222124
-5.75135e-05
-3.42886e-05
-1.35745e-06
-1.48334e-05
2.78347e-06
-4.42683e-07
5.89615e-07
-0.00401174
-1.79273e-07
-4.3806e-05
1.48284e-07
1.23994e-07
-0.0083661
-1.7987e-07
0.000366094
-1.05696e-05
6.30236e-07
0.0392924
-3.91811e-05
6.74153e-05
1.75598e-06
-4.78678e-08
0.000146057
-0.124564
1.01129e-07
2.38638e-05
0.0291877
-2.14881e-07
-0.000124013
-0.00626223
7.99809e-06
2.48989e-07
-0.0679934
-7.89412e-07
-0.000590427
5.66026e-07
0.0185149
3.21707e-07
2.87144e-05
-2.54165e-07
2.48449e-05
-4.32396e-06
-8.61162e-06
-0.0289392
0.000124147
0.00331909
-2.61085e-08
0.00284178
0.00966975
-0.0966559
-7.50431e-06
0.000694965
3.54154e-05
7.09227e-07
0.000167601
5.81643e-07
1.18149e-06
-2.35099e-05
-6.25474e-08
1.69369e-06
0.0721971
0.00418773
-1.29868e-05
0.675966
-1.64707e-06
-5.69154e-06
-1.89632e-07
-0.00647487
-3.7195e-06
0.113857
-0.268598
-1.78567e-06
-1.39072e-06
2.11881e-05
-2.34552e-05
-0.287441
0.0179295
6.29089e-07
0.00131347
-1.64967e-06
0.00101389
0.0979069
0.00832059
8.22552e-07
1.7864e-06
-0.0034419
-0.0929618
-5.16102e-07
6.83517e-06
-0.000741301
1.15423e-05
-5.70954e-06
-0.000120675
-0.123593
-0.000258283
0.0118819
3.95249e-06
1.90776e-06
-2.21518
2.19614e-07
-0.00192985
0.000350472
1.26767e-06
0.0169334
-0.028104
-0.00153102
-1.96778e-06
1.98013e-06
-4.76279e-07
-0.0958017
-8.79859e-06
-0.000363607
-5.56647e-05
-1.12227e-05
-1.08336e-05
1.76781e-05
-2.03524e-07
-3.39692e-07
-3.62557e-07
-0.00202466
0.00011169
-0.00586549
-0.0995332
0.0228249
-0.0774882
7.92082e-07
7.30847e-05
-0.00343477
-0.000422785
-0.0019831
0.000491891
0.000187849
0.0326339
0.00184661
-5.22888e-05
0.000565185
7.78415e-07
-4.56322e-07
0.000205919
0.0290386
2.39429e-07
6.20708e-06
-0.00157781
-4.42252e-07
0.00123281
2.38015e-07
-3.42997e-07
0.0117586
0.0010863
-7.83692e-06
6.76136e-06
1.98737e-06
-1.95929e-06
3.89911e-05
0.000240981
-3.61788e-06
-1.73049e-05
-5.92464e-05
-0.000288004
4.06958e-06
-2.08102e-05
0.789386
0.0393925
-3.57225e-08
-0.006048
-2.93807e-06
6.21956e-05
4.70269e-08
5.40896e-06
-4.07115e-06
-0.000425933
5.75302e-06
4.63453e-08
-8.21754e-05
8.05209e-08
4.4915e-07
0.0818752
-0.337339
-0.000237473
2.48776e-05
-1.00798e-07
0.000546754
4.25175e-06
-2.39747e-06
0.0202143
0.112112
2.8398e-05
-5.15845e-07
0.0198419
-0.0400469
-1.73256e-05
0.000122565
3.72759e-07
1.10756e-05
-3.00627e-05
-0.0316172
3.80347e-07
4.22446e-07
1.15745e-05
-0.0380679
-0.00172884
2.39937e-07
-0.0031725
0.000608291
-1.54526e-07
-4.2457e-06
0.000310918
-8.51922e-07
0.000100532
0.0419819
-3.34144e-06
-0.128101
-2.43333e-05
0.00970696
0.000224258
4.17852e-05
2.66033e-05
0.00599097
-6.1374e-06
1.99316e-07
5.97512e-06
1.38024e-06
-7.92243e-08
-8.03142e-06
-0.000105181
-5.68243e-06
3.33873e-05
2.42891e-06
-4.83524e-07
-0.00118666
-6.07373e-05
2.39733e-07
-1.82471e-05
-2.48827e-06
-0.202856
-5.57713e-06
0.0178639
0.000593631
-0.123074
0.0138818
0.00072709
2.00431e-06
0.015341
-3.99663e-05
3.70744e-06
-2.22855e-05
-0.100905
3.10436e-06
0.00023884
-1.75354e-07
-5.54676e-07
0.00630399
7.84725e-07
1.51012e-06
-0.000105141
-0.0377686
-0.000190174
-0.00134593
2.54829e-06
-5.33259e-07
-0.0274568
-8.04655e-07
1.16202e-05
0.000316497
-2.91103e-06
0.0348424
8.403e-05
-1.38987e-05
7.08912e-07
0.000186059
0.000353211
3.27665e-06
0.00837454
3.19275e-06
-0.652893
0.0640182
7.16867e-07
0.000139942
0.199551
0.0982166
-5.1952e-07
-0.329739
-0.00045339
-2.91856e-06
2.28259e-06
0.000153235
-1.55955e-06
0.0137118
0.000404833
-1.70088e-07
-0.0177388
8.12816e-07
-0.137781
3.48636e-07
1.34404e-07
-3.36822e-06
8.27994e-05
0.00187958
-0.00303007
0.0778913
-1.72907e-07
0.014082
-2.39003e-06
9.53786e-06
0.000312568
-1.57323e-06
2.0572e-07
-0.000205247
-8.92209e-08
-3.91404e-05
2.40504e-07
-7.26465e-06
-1.95782e-05
-6.10933e-08
-1.88507e-05
-1.43175e-05
5.78805e-06
-0.0317564
9.1688e-07
6.74308e-07
1.20729e-07
0.214707
-0.156529
4.03434e-06
0.000255732
6.76228e-06
-3.963e-06
-0.0045837
-1.64878e-05
7.59726e-06
6.48777e-07
5.3929e-06
0.000749065
-1.54187e-05
0.224435
0.00231937
-0.00312281
0.0335224
-0.00355212
-8.01503e-05
3.107e-05
0.0236518
-0.12475
-2.27616e-06
0.00454151
2.5624e-07
-0.0305666
0.00888501
2.60317e-05
0.0169504
5.09838e-07
0.0185229
-0.0285407
-0.0015504
0.00049041
-1.61932e-06
-0.000729701
1.51633e-06
4.41044e-07
-0.000588417
5.26906e-06
8.10293e-05
-0.000702956
-1.22883e-06
-1.81423e-07
0.000347964
-2.67762e-06
-0.0421634
0.00537338
-1.46324e-06
0.00767221
5.80742e-06
-1.10643e-05
4.49168e-07
-1.2708e-05
3.11571e-06
-1.61068e-06
-0.0321601
-8.93565e-06
0.00648698
0.000281279
6.42151e-07
5.50595e-07
0.000144634
0.000327559
-1.74152e-06
1.17576e-05
-1.33266e-05
1.81895e-06
-9.26848e-06
-1.75006e-06
0.00032132
1.70835e-06
-1.15351e-06
1.24277e-05
0.411512
9.82809e-07
0.0136775
2.13833e-07
0.406029
-4.89226e-07
-0.139322
0.00235494
4.81913e-06
0.00816919
4.723e-07
0.033636
0.00033617
3.47876e-06
0.612031
5.02155e-07
3.19395e-07
0.000245821
-6.56297e-07
-6.6801e-06
1.2531e-05
-3.38875e-06
-0.00024189
-0.0161189
-1.25924e-07
4.02037e-07
0.000186112
0.0201137
5.95799e-07
0.0358345
2.36651e-07
6.20197e-07
4.33853e-06
1.13427e-05
-0.0149569
-1.35644e-07
2.47825e-05
-1.24075e-05
3.17868e-06
-0.00226347
2.30485e-06
-4.16275e-08
6.04288e-07
2.24454e-07
-1.99303e-06
-2.71287e-06
1.13111e-06
0.0225173
7.11634e-05
2.98638e-06
7.37769e-05
-0.0143501
0.0653613
-0.00183524
4.0779e-06
-0.000139425
7.69234e-08
-9.20658e-05
1.39295e-05
2.873e-05
6.98063e-07
9.42795e-05
-3.85689e-07
8.15952e-07
-0.00426407
0.107631
1.62927e-06
-6.17924e-07
-1.37034e-07
3.84905e-06
-1.55806e-05
-1.24924e-05
0.00027374
0.00914211
-5.55499e-08
5.86768e-06
6.88654e-06
5.18838e-07
-0.000111395
0.00863005
-0.00701187
-0.000227068
0.000201356
1.0215e-07
0.100416
-1.61985e-07
-1.24838e-07
-2.64577e-06
-0.000446065
0.00232192
-2.34295e-08
-6.73505e-05
3.51925e-07
-0.0014616
0.0582681
0.000400398
6.04459e-07
0.00587435
-2.44552e-06
-7.0252e-07
-3.10777e-07
0.0422713
0.000341249
-3.13312e-05
-1.50367e-06
-1.48308e-07
0.0592497
1.18027e-06
-3.32894e-06
-1.13808e-06
1.18291e-06
-6.6118e-06
-1.63474e-05
-6.15769e-06
0.201863
5.20557e-06
-8.50454e-07
1.70148e-07
0.0199583
-1.83771e-07
3.4681e-08
-2.0492e-06
-7.40127e-07
-0.00381043
-0.0291874
3.40219e-07
1.7988e-05
-0.00313388
-0.466723
-2.92273e-07
2.77509e-05
0.000240973
-1.96737e-05
1.49972e-06
0.000309363
-1.49934e-06
-0.0181281
2.06314e-07
-1.69044e-05
-0.11713
-5.62228e-06
7.25719e-06
4.33022e-05
-4.03795e-05
-0.000671199
3.22845e-06
-0.000656783
-6.67532e-05
4.02747e-05
-0.000196081
3.94244e-05
4.08834e-07
-0.00585708
-0.000438093
-8.28265e-05
0.000102363
-0.00179768
-2.97616e-05
0.000137418
-0.000177567
-2.73365e-07
-1.46034e-05
0.000354675
-4.26607e-07
6.43922e-05
2.06851e-05
-3.23519e-05
0.0160146
1.09625e-05
-2.4946e-07
-1.54067e-05
1.89309e-05
2.62637e-07
2.89876e-05
-1.6006e-06
-4.12422e-05
-0.326843
6.78683e-06
2.87696e-08
0.000322746
-0.0820801
1.10078e-06
2.88777e-07
2.31191e-06
4.36353e-07
-1.20868e-05
0.0420506
-0.00152119
-3.62958e-06
1.96574e-07
9.07789e-09
-0.0620089
-1.49897e-06
0.000377422
-4.68134e-05
-0.000542992
6.54596e-07
0.000646857
0.00117132
-0.0552535
-1.26236e-05
0.000202658
-8.02147e-08
1.06358e-05
2.15919e-06
-1.67729e-05
0.0179736
1.94294e-07
-4.03304e-06
6.12445e-06
-1.53162e-06
-1.85175e-05
-4.69359e-07
-9.3689e-05
-1.58996e-07
-2.66554e-06
0.0160244
3.35838e-07
-5.12925e-06
0.00636317
-0.205427
-2.8286e-05
1.07547e-06
3.06757e-06
3.55766e-07
-0.0316708
-5.25585e-07
9.1859e-07
-2.94969e-06
6.01076e-07
1.86217e-05
1.50674e-06
-0.000569599
0.000323327
0.000304116
-9.32098e-07
-3.07691e-06
-1.77769e-05
0.000416217
-1.11735e-05
-6.3646e-05
0.306874
5.00255e-05
1.23895e-06
1.06633e-05
-5.99784e-06
-5.85339e-06
1.96628e-05
-1.73835e-07
-9.90295e-06
-8.27379e-07
7.26516e-06
0.644994
-0.000310432
-0.000155068
0.000105713
0.00895059
-8.60202e-07
-1.62375e-06
2.12866e-06
0.000144388
-0.00106628
-0.000164755
-0.0547629
4.42939e-06
1.17969e-07
-1.53617e-05
1.25246e-07
4.1528e-06
-4.90738e-07
-9.61803e-06
-9.79624e-06
-8.65458e-08
-3.40416e-06
-4.54905e-05
-1.9372e-05
-0.00734251
-0.0951363
3.61128e-07
9.50311e-07
1.78613e-06
-0.000586521
2.6427e-07
-2.04634e-05
0.014355
-1.94577e-07
-1.98331e-06
0.000259931
1.10075e-06
0.00973038
-2.18393e-08
0.000139589