/*--------------------------------*- C++ -*----------------------------------*\
| =========                 |                                                 |
| \\      /  F ield         | OpenFOAM: The Open Source CFD Toolbox           |
|  \\    /   O peration     | Version:  v2012                                 |
|   \\  /    A nd           | Website:  www.openfoam.com                      |
|    \\/     M anipulation  |                                                 |
\*---------------------------------------------------------------------------*/
FoamFile
{
    version     2.0;
    format      ascii;
    class       volScalarField;
    location    "300";
    object      k_0;
}
// * * * * * * * * * * * * * * * * * * * * * * * * * * * * * * * * * * * * * //

dimensions      [0 2 -2 0 0 0 0];


internalField   nonuniform List<scalar> 
54593
(
0.000236511
0.000250256
0.000248913
0.000197509
0.000197434
0.000235485
0.000138849
0.000204911
0.000199223
0.000161241
0.000147515
0.000259124
0.00014649
0.00013969
0.000210939
0.000134309
0.0352949
0.000142618
0.000134443
0.000240593
0.000150749
0.000151752
0.00028044
0.000145826
0.000138018
0.000163041
0.00403829
0.000193829
0.000203803
0.000142094
0.000199441
0.000222761
0.000132807
0.00134906
0.000134342
0.000145504
0.000162967
0.000481563
0.00424105
0.00114323
0.0049419
0.000158246
0.000143591
0.000143191
0.000138134
0.000153192
0.000139247
0.00428354
0.000960396
0.000151916
0.000138065
0.000142906
0.00014852
0.000158475
0.000162325
0.000148455
0.000204595
0.000148535
0.000214441
0.000142556
0.00442667
0.000147812
0.000151229
0.0001477
0.0348031
0.00340967
0.000142877
0.0325768
0.000142772
0.000138953
0.035758
0.000140787
0.00015848
0.000132847
0.000133501
0.000139343
0.0145831
0.000150017
0.00334905
0.000164154
0.00014576
0.000147509
0.0356731
0.0320304
0.000141693
0.000142565
0.00023936
0.000150915
0.000142772
0.000210895
0.000138849
0.000145495
0.0332834
0.000147502
0.00716718
0.000164662
0.000158086
0.000150218
0.000143453
0.000133939
0.0035563
0.0212636
0.000147838
0.000235888
0.000206014
0.00022311
0.000140666
0.000181508
0.000132927
0.000143371
0.000139644
0.000149969
0.0325253
0.000164782
0.00440495
0.000143043
0.000142554
0.000153027
0.00019931
0.00366199
0.00014565
0.00023157
0.000162742
0.000191596
0.000153603
0.0358705
0.00014265
0.000171942
0.0328118
0.000145359
0.00015076
0.000154333
0.000138292
0.000168228
0.000143279
0.000134431
0.000166864
0.000231383
0.000153391
0.0044642
0.000143045
0.000141547
0.000143002
0.040329
0.000141625
0.000167701
0.000162129
0.000160018
0.000143323
0.0355231
0.000141536
0.0002333
0.000146508
0.000142151
0.000154266
0.000236036
0.000210152
0.00439069
0.000205308
0.000150017
0.00016956
0.000190715
0.031822
0.000137304
0.000242924
0.000149672
0.000152833
0.000138527
0.000144237
0.00013984
0.0238286
0.000159357
0.000141578
0.00017774
0.000150606
0.00014299
0.000191948
0.000166936
0.040415
0.000137354
0.000134019
0.000149354
0.0319813
0.000166345
0.000204691
0.000146572
0.0404704
0.000145433
0.000158476
0.000146473
0.00298276
0.000235919
0.000158677
0.00398268
0.00022214
0.000148437
0.000154176
0.000156974
0.000220765
0.000149304
0.0272536
0.000186568
0.00016349
0.000175468
0.021772
0.000153865
0.000137505
0.000176213
0.000160072
0.0406765
0.000142793
0.000282491
0.000175314
0.000231753
0.000157255
0.000165589
0.000156403
0.000256651
0.000132778
0.000156934
0.000137509
0.0237201
0.000140651
0.00273208
0.00373278
0.000221007
0.000154019
0.0260698
0.000181485
0.0327253
0.000281679
0.000132926
0.000157177
0.000150504
0.000161527
0.000144182
0.000153717
0.00376653
0.000220818
0.0001579
0.000132708
0.000153474
0.000141448
0.000132761
0.00016223
0.000141011
0.02793
0.002714
0.000143253
0.000138291
0.000224498
0.000146277
0.00018106
0.000142886
0.0104661
0.000139805
0.000868848
0.0267567
0.000221051
0.000140768
0.000144913
0.000132383
0.000197286
0.0111043
0.000201426
0.000199502
0.000132747
0.000163713
0.0001482
0.000145707
0.000327492
0.00191133
0.00014054
0.000219994
0.000221882
0.0372623
0.000146535
0.00014276
0.000182353
0.000145651
0.000140862
0.000143125
0.000143313
0.000174053
0.0317838
0.000247722
0.000174455
0.000160012
0.0002218
0.000146675
0.000142771
0.00867163
0.000181659
0.0325015
0.000188436
0.000144701
0.000171139
0.000142501
0.00015959
0.000359925
0.000193253
0.000192708
0.000201991
0.000206966
0.000196545
0.000220888
0.0267824
0.0270697
0.0282224
0.0320825
0.000148526
0.000247506
0.000163165
0.0420459
0.000248796
0.000167876
0.031397
0.000164945
0.000199124
0.000145244
0.0318343
0.000187613
0.000141533
0.000169079
0.000140956
0.00348342
0.000157388
0.000211543
0.000135504
0.00263897
0.000218227
0.000133934
0.000349498
0.000227482
0.000164497
0.000143323
0.000149213
0.000303008
0.000166953
0.000145176
0.000181287
0.00345724
0.0361638
0.000145179
0.000137208
0.0403374
0.000145072
0.000217715
0.00017197
0.00015672
0.000441199
0.0001439
0.000351633
0.000149861
0.000167492
0.000199312
0.000157264
0.0278348
0.000180916
0.000159671
0.00173638
0.000200523
0.0272878
0.000136225
0.0002873
0.000187136
0.000151514
0.000135365
0.000142131
0.000196244
0.000152781
0.00363079
0.00257779
0.00015725
0.000157232
0.000192643
0.000200992
0.000160274
0.00024002
0.0246305
0.000185901
0.00020215
0.0260194
0.00019325
0.000231629
0.000175808
0.000176266
0.00019118
0.000185545
0.000142337
0.000159387
0.000179998
0.0015504
0.00017687
0.000138406
0.000147594
0.000163291
0.000147578
0.000143112
0.000158889
0.000238295
0.000136595
0.000135619
0.000167368
0.000177033
0.000167936
0.000198989
0.00017687
0.000520993
0.000163997
0.000144584
0.000411128
0.046739
0.000151353
0.000132168
0.000148904
0.033252
0.0197775
0.000166943
0.000148889
0.0244945
0.000142068
0.000145638
0.0161003
0.000155576
0.000171509
0.00086166
0.000128447
0.000155516
0.000144697
0.00020241
0.00537122
0.0173381
0.000152674
0.00291861
0.000133947
0.000154828
0.000191415
0.0101608
0.000160636
0.000210206
0.000152337
0.00360777
0.000161671
0.0265042
0.000170557
0.000190943
0.000171095
0.00152164
0.0362247
0.000158777
0.000157349
0.00017544
0.000132437
0.000212095
0.000155372
0.000155503
0.000645685
0.000151378
0.000143682
0.00137857
0.00013244
0.000154766
0.000144395
0.000167677
0.000243825
0.000182022
0.0401595
0.00014237
0.00014281
0.000211463
0.000175948
0.000249456
0.000170867
0.000181106
0.000185285
0.00023942
0.000149884
0.000186836
0.00016359
0.000144027
0.0362178
0.000193946
0.000179759
0.037006
0.0009851
0.000172276
0.000161892
0.000128056
0.000142513
0.000167616
0.0287937
0.000212323
0.000158239
0.0447077
0.0228836
0.000173153
0.000159607
0.000164079
0.000141365
0.000134987
0.0109564
0.000147616
0.00014139
0.000132022
0.000148766
0.000165668
0.000133372
0.000234705
0.00132206
0.000147101
0.000156732
0.000146369
0.000140112
0.000136818
0.000152973
0.000135828
0.000170636
0.000206924
0.000184544
0.000186227
0.0444993
0.0413466
0.000186831
0.000243142
0.000196956
0.000220916
0.000142867
0.000145355
0.000141112
0.000150688
0.000206368
0.000144806
0.000841756
0.025286
0.000175859
0.000246583
0.000169016
0.00854221
0.0462161
0.000151276
0.000169979
0.000142785
0.000167972
0.000148127
0.000142428
0.00019997
0.000150373
0.000173818
0.000157258
0.000167757
0.000142597
0.00015657
0.000199784
0.000169579
0.000156746
0.000163033
0.017458
0.000157349
0.000174008
0.00440087
0.000137205
0.000340556
0.000162318
0.00023653
0.000161891
0.0277167
0.00446634
0.000197199
0.000163714
0.000135685
0.000184399
0.000137465
0.000157356
0.0365738
0.000147488
0.000169528
0.000149064
0.000174481
0.000137484
0.000145989
0.000141593
0.0277731
0.000218074
0.000137238
0.0347357
0.000154156
0.000256917
0.000227878
0.000150501
0.000183785
0.000152252
0.00017885
0.000191343
0.000197968
0.000208267
0.000169982
0.00111948
0.000141059
0.000173935
0.000305595
0.0026402
0.000150513
0.000135721
0.0305396
0.000147552
0.00725985
0.000149301
0.0164363
0.000206701
0.000774718
0.000142223
0.00200113
0.000153597
0.000162385
0.000558858
0.000133853
0.000178366
0.00101696
0.0248068
0.000153592
0.000153229
0.000206711
0.0147469
0.000135735
0.002536
0.000157258
0.000154114
0.000139012
0.00101939
0.00020644
0.000152366
0.000148087
0.000143203
0.000152494
0.040794
0.000154848
0.000166593
0.000143597
0.000221817
0.03707
0.00216358
0.000152796
0.000189513
0.000234653
0.00233276
0.0001571
0.0265225
0.000162002
0.000221921
0.0366161
0.00014506
0.00014114
0.000147948
0.000143438
0.000161927
0.000152994
0.000184096
0.000956429
0.000221861
0.000156171
0.0401331
0.0204093
0.000161404
0.000140223
0.000157113
0.000154104
0.000159373
0.000200834
0.00476932
0.000206358
0.000214098
0.000169706
0.0001804
0.000204443
0.04006
0.0277564
0.0285327
0.00925819
0.000188603
0.00428494
0.000139328
0.0245879
0.00113626
0.000150396
0.00424185
0.000162469
0.000182119
0.0263058
0.000156967
0.000157773
0.000142338
0.000197351
0.0286495
0.000186866
0.0420827
0.000222627
0.000206349
0.000183992
0.000135602
0.00018688
0.000156733
0.000576219
0.000164824
0.00201901
0.000141365
0.000256041
0.0237648
0.000143103
0.000132226
0.0274167
0.000205318
0.000160097
0.000288252
0.000132228
0.00015797
0.000135565
0.000176569
0.000166712
0.000143597
0.000151416
0.000170389
0.0444245
0.000136419
0.000194637
0.000194584
0.000232862
0.000134444
0.000197415
0.000200401
0.000136891
0.0249126
0.0412434
0.000139175
0.000175883
0.000142251
0.000146583
0.000226654
0.000151499
0.000173216
0.000208147
0.0115346
0.000239679
0.040126
0.000142368
0.0280729
0.000133
0.00014642
0.00127279
0.000139168
0.00015001
0.027337
0.000156696
0.000206079
0.000147573
0.0151949
0.0183507
0.000161568
0.000143576
0.000161379
0.000248199
0.000170112
0.0259037
0.000165883
0.000161836
0.000162445
0.000239903
0.000242626
0.000149284
0.0277576
0.000155893
0.0193126
0.00141455
0.000141328
0.000150719
0.000164509
0.000150508
0.000186099
0.000160172
0.000167545
0.000145652
0.000141301
0.000149764
0.000428754
0.000413835
0.000192463
0.000210859
0.000196976
0.000210134
0.000167377
0.000156457
0.000156261
0.000170393
0.000141839
0.000160368
0.000156508
0.00016659
0.000149345
0.000347653
0.0172712
0.00015893
0.0276937
0.000173771
0.00014595
0.000188227
0.00784476
0.000164626
0.000132003
0.000524744
0.0249926
0.000193286
0.00020034
0.00118194
0.000254578
0.000187379
0.000556198
0.000147985
0.000149717
0.0285881
0.00013066
0.0285692
0.000147114
0.0402062
0.000142454
0.000131684
0.000436653
0.000161077
0.000158337
0.000146254
0.000159437
0.000141419
0.000191987
0.000131625
0.000142194
0.0409906
0.000212116
0.0151465
0.000174122
0.000221407
0.0365769
0.000194057
0.000153392
0.00437555
0.0400174
0.0373846
0.000261418
0.000186139
0.000173864
0.000136168
0.000157037
0.00409273
0.000147256
0.041686
0.000588456
0.000921467
0.0327364
0.000190475
0.00014239
0.000132379
0.0421855
0.000140302
0.00018223
0.000161983
0.00013477
0.00013916
0.000276494
0.000220692
0.000224819
0.00883498
0.00015965
0.000148944
0.000151329
0.000159047
0.000138829
0.00292522
0.0297326
0.0286976
0.000170699
0.0184436
0.000163616
0.000151649
0.000166023
0.0027327
0.0205992
0.00014155
0.000191224
0.000142681
0.000143439
0.0147019
0.000181675
0.000148209
0.00541056
0.000128167
0.000206593
0.000142681
0.000163228
0.000149907
0.000143317
0.000134951
0.000160123
0.000949211
0.00375315
0.000160437
0.000165724
0.000141402
0.000152295
0.000173754
0.000143178
0.00014204
0.000171366
0.0132117
0.0410698
0.000159257
0.000140379
0.000147859
0.0235734
0.00015138
0.000144929
0.000184708
0.00730684
0.000159205
0.00315185
0.000151436
0.0350055
0.000156634
0.0150002
0.0354791
0.000139119
0.000131218
0.000165375
0.000148788
0.00015152
0.00275787
0.000155567
0.000134614
0.0281822
0.000134785
0.0274714
0.000140244
0.000142594
0.000145559
0.000159781
0.00022416
0.000184407
0.0341001
0.000170324
0.000131396
0.000134926
0.000163928
0.000164135
0.000142132
0.0250137
0.000196975
0.0456087
0.000151992
0.0102228
0.000152985
0.0001424
0.000163459
0.000163304
0.00022827
0.0228268
0.000154806
0.000156446
0.000161655
0.00020687
0.000152729
0.000173753
0.000146159
0.00389572
0.00015153
0.000149484
0.00016567
0.000165317
0.000301447
0.0211802
0.0084916
0.0277312
0.000162078
0.000245288
0.000139128
0.019871
0.037287
0.000153229
0.000151212
0.000173325
0.000131163
0.000148296
0.000131103
0.000166082
0.00015152
0.00014334
0.000140633
0.000131194
0.0193131
0.018306
0.000142091
0.000205464
0.000142159
0.000169273
0.0001477
0.00693022
0.000150859
0.000187709
0.000139037
0.000157312
0.00110698
0.0253808
0.000147242
0.000151833
0.000180138
0.000137247
0.0303265
0.000193918
0.00013362
0.0202646
0.00020764
0.000145796
0.000157677
0.000151624
0.000144294
0.000213187
0.000203398
0.0395618
0.000150012
0.000232093
0.0339159
0.000140747
0.000151094
0.000195758
0.000134942
0.000151282
0.000166849
0.000174632
0.000135876
0.000151165
0.0001456
0.000275094
0.000148692
0.000149913
0.010563
0.00020372
0.000175382
0.000162536
0.026575
0.000146803
0.000191007
0.000345295
0.000168893
0.000278974
0.000133422
0.000197072
0.000153398
0.000221135
0.000214377
0.000237497
0.0447848
0.000152558
0.00910235
0.000225778
0.000144908
0.00014256
0.000140902
0.000148108
0.000174878
0.00019077
0.000156721
0.000142411
0.000137247
0.0403918
0.000184904
0.011198
0.00013462
0.000232176
0.0350499
0.000133586
0.000172618
0.000142929
0.00015819
0.000154796
0.000195313
0.000275406
0.00156699
0.000132536
0.000144725
0.000143616
0.0269892
0.000132596
0.000164044
0.000178513
0.000143698
0.0247842
0.000140464
0.000150106
0.000162013
0.000199706
0.0258902
0.0175052
0.000142155
0.0238452
0.000165726
0.000146348
0.000144365
0.000213608
0.000160247
0.00143445
0.000148533
0.000146128
0.000156723
0.000147128
0.000157044
0.000132166
0.00015271
0.000156856
0.000147076
0.00023292
0.000144604
0.000138658
0.000142014
0.000147784
0.000204091
0.000163962
0.000196815
0.000137409
0.000143402
0.00186798
0.000153141
0.000158699
0.000140611
0.00013492
0.000147419
0.000151403
0.000174951
0.000196461
0.000149943
0.000139911
0.000174329
0.000140199
0.000173201
0.0149005
0.000164858
0.000149319
0.000148342
0.000158711
0.000169794
0.000160181
0.000155522
0.000140949
0.000142
0.000167874
0.000149501
0.000157738
0.000151702
0.00016807
0.00611945
0.000219673
0.000225197
0.000148861
0.000139751
0.000208712
0.000148056
0.000194033
0.000133004
0.00588974
0.00729773
0.000154665
0.000175863
0.000150264
0.0259271
0.000151079
0.000213121
0.000203281
0.000299469
0.00016163
0.000154131
0.000147692
0.000141922
0.000137424
0.000145205
0.000136532
0.000156433
0.000221931
0.000162617
0.000158174
0.000180062
0.000160988
0.000156724
0.000157726
0.000160643
0.00018102
0.000148036
0.00430322
0.000195692
0.000161836
0.000147483
0.000151221
0.000184092
0.0186696
0.000154425
0.000157437
0.000165198
0.000139985
0.000144418
0.000165894
0.000157354
0.000137326
0.000183604
0.00014997
0.000147412
0.00650203
0.000147549
0.000165571
0.000183123
0.000171715
0.00330145
0.00014283
0.000165197
0.000150552
0.00221796
0.000163943
0.000131759
0.0272918
0.000133707
0.000157073
0.000141143
0.000160938
0.000154662
0.000213113
0.000579598
0.000187593
0.000150904
0.000139852
0.000159568
0.000162559
0.00399645
0.000149307
0.000195036
0.000165529
0.035517
0.000137212
0.000191711
0.000148843
0.000529489
0.000157473
0.000148244
0.000206471
0.000145598
0.000128548
0.00316404
0.000163543
0.000147237
0.000174552
0.00578173
0.000167959
0.00018828
0.000242105
0.000135135
0.000156868
0.00909109
0.000157683
0.000133856
0.00015321
0.000135521
0.0285376
0.000149225
0.000140543
0.00013202
0.000149998
0.00014803
0.00385869
0.000146562
0.000197403
0.00015166
0.000154457
0.000153358
0.000147904
0.000157106
0.000190039
0.000153111
0.00016889
0.000141341
0.000144187
0.00330358
0.000301766
0.000140441
0.000148191
0.000131667
0.000143514
0.000155197
0.000156982
0.000167737
0.00014201
0.0354286
0.000140364
0.000139894
0.00359054
0.0187335
0.000148752
0.000149792
0.000238448
0.000184363
0.000167483
0.00013862
0.000158555
0.0001332
0.0419316
0.000157339
0.000140373
0.00159276
0.000150092
0.000142551
0.000164732
0.000160715
0.000146422
0.00899704
0.00017472
0.000144111
0.000142558
0.000142933
0.000174737
0.000149366
0.00013976
0.0344686
0.00019599
0.000130994
0.000174263
0.0176995
0.000208048
0.00954363
0.000133181
0.00015701
0.000168034
0.000436893
0.00609408
0.000290295
0.00014923
0.000145655
0.00430125
0.00394574
0.000148143
0.000157566
0.000140349
0.000148314
0.000139558
0.000131068
0.000142726
0.000157014
0.000142864
0.0278326
0.00333589
0.000144275
0.000150192
0.000150324
0.000146787
0.000145632
0.000164481
0.000160081
0.000157645
0.000145121
0.00302151
0.000202093
0.000157375
0.000183532
0.000194121
0.000143449
0.000447839
0.000180933
0.000182907
0.000199331
0.000160346
0.000218987
0.000143473
0.000553619
0.000139464
0.000177781
0.000142682
0.000141205
0.0208407
0.000157611
0.000138554
0.00356742
0.0279845
0.000156215
0.000169005
0.000128437
0.000180423
0.000279271
0.000149516
0.000147375
0.000145506
0.000148752
0.000138445
0.000155056
0.00142639
0.000165087
0.000149403
0.000146957
0.000140964
0.000141272
0.000156743
0.000139185
0.000147413
0.0129738
0.00014523
0.000149407
0.000162723
0.000149579
0.000150744
0.00019444
0.000140901
0.000182008
0.0357418
0.000145251
0.0366623
0.00014682
0.029576
0.000150048
0.000191534
0.000156708
0.000199164
0.0361066
0.000148293
0.000241766
0.000130682
0.000138684
0.000118165
0.000197108
0.0369048
0.000145709
0.000161072
0.000160675
0.00015483
0.000156507
0.000141582
0.000168471
0.000144912
0.0270387
0.000195954
0.00016244
0.000140344
0.000151928
0.0338509
0.000290885
0.000182018
0.000177027
0.000219881
0.00014151
0.000140372
0.000145246
0.000719387
0.000152701
0.000198316
0.000145872
0.000144719
0.000160806
0.000149403
0.000544585
0.000156133
0.000138406
0.00014927
0.000176511
0.000146972
0.0206274
0.000147058
0.000162702
0.000144082
0.000147078
0.000142068
0.0289455
0.000143654
0.000145035
0.000141273
0.000221051
0.000153857
0.000747192
0.00013383
0.000357565
0.000194443
0.000188213
0.000141583
0.000215942
0.00576931
0.000186985
0.000132683
0.000148349
0.000142278
0.000143534
0.000145392
0.000146216
0.00014147
0.00015675
0.0237792
0.000149474
0.00019059
0.000141302
0.000170197
0.0001532
0.000156286
0.0107228
0.000136335
0.000183954
0.00016533
0.000184526
0.000171258
0.0261368
0.000160717
0.000147618
0.000463264
0.000199102
0.0417342
0.00394744
0.000156196
0.000150848
0.000140665
0.000147962
0.000140808
0.000217895
0.000164913
0.0405062
0.000151367
0.000147347
0.00297469
0.00014651
0.00013867
0.00629525
0.000179647
0.0266887
0.000147629
0.000220692
0.000141406
0.00019913
0.000274245
0.00674147
0.000162787
0.00013465
0.000140807
0.000187033
0.000479561
0.000174275
0.000151768
0.000152326
0.000147115
0.000164276
0.000212413
0.000145473
0.000201604
0.000140518
0.000142293
0.00020437
0.000171294
0.000207767
0.000164698
0.000151948
0.00958418
0.000153897
0.00014135
0.0366324
0.00194599
0.0250895
0.000178782
0.000152499
0.0325882
0.000309449
0.000133702
0.000142868
0.00230859
0.000144897
0.000162573
0.000141687
0.00243119
0.00174161
0.000148222
0.000132582
0.000227488
0.000144591
0.000152628
0.000385938
0.000142047
0.000130829
0.000156858
0.0289383
0.000145477
0.000142887
0.000175893
0.000199159
0.000163838
0.0263138
0.000237254
0.000162996
0.000143266
0.00263633
0.000143784
0.000138723
0.0001651
0.0367691
0.000147994
0.00016464
0.000199318
0.000195138
0.000144084
0.0345079
0.00016062
0.000149615
0.000160915
0.000162297
0.000192927
0.000139703
0.00594347
0.000238724
0.0001409
0.000131448
0.000172151
0.00022191
0.000181439
0.000187953
0.000150642
0.000131715
0.000193663
0.000181906
0.000430731
0.000164173
0.000158311
0.000140937
0.000148058
0.000146978
0.00018825
0.000187962
0.000624761
0.000140779
0.000151716
0.00015796
0.000174255
0.000154556
0.000155564
0.0431656
0.000148985
0.000135676
0.000145237
0.000140799
0.000144087
0.000148501
0.000149888
0.000162233
0.000143832
0.000155346
0.000220607
0.00014738
0.00832105
0.00014884
0.000142138
0.00014193
0.000143059
0.000153076
0.000206529
0.00597174
0.000143084
0.000139657
0.000186293
0.000150165
0.000131852
0.000163597
0.000160771
0.0432097
0.000178292
0.000197371
0.000199593
0.000157225
0.000304703
0.000159649
0.000197777
0.000141278
0.00020857
0.000147828
0.000494369
0.000132499
0.000484683
0.000135362
0.00014831
0.000191889
0.00015078
0.000707105
0.026929
0.000198445
0.000142372
0.000156141
0.000135759
0.000202432
0.000130547
0.000154501
0.00014545
0.000205635
0.000144028
0.000195731
0.0351435
0.000145237
0.000164831
0.000163272
0.000159608
0.00015407
0.000183649
0.000138944
0.000142256
0.00896116
0.0359505
0.000131761
0.000142186
0.000141969
0.00124764
0.000145219
0.000217839
0.00014617
0.000148412
0.000134827
0.000161837
0.0462315
0.000145759
0.000160939
0.000192857
0.000208071
0.0001476
0.000195476
0.000157016
0.000187065
0.000606864
0.000138934
0.000135717
0.000137367
0.000156464
0.000141524
0.000171548
0.000164207
0.000197716
0.000137578
0.000131091
0.000154683
0.000149685
0.000142775
0.000139049
0.000156121
0.000227517
0.000167758
0.0199251
0.000238459
0.0211998
0.000131323
0.000149945
0.000150915
0.000192414
0.000804651
0.000168273
0.000157931
0.000147588
0.000351924
0.000183205
0.000221013
0.0395903
0.0316868
0.000152743
0.000157115
0.000168473
0.000143223
0.000139045
0.00014066
0.000144281
0.0210776
0.000127986
0.00014157
0.000236867
0.0368706
0.000157081
0.00017151
0.000131291
0.000301186
0.000145445
0.000161316
0.000148256
0.000163286
0.000153665
0.000147941
0.000147699
0.023758
0.000131551
0.000171561
0.000158804
0.000143476
0.000239856
0.000140157
0.000198058
0.000160969
0.000133447
0.0399976
0.000167986
0.000187554
0.000148138
0.000139806
0.00020007
0.0122963
0.000144287
0.00016257
0.0230742
0.000137111
0.000171279
0.0293664
0.000156763
0.000139351
0.0235231
0.000144805
0.000210885
0.000140518
0.0291638
0.000141535
0.000141875
0.000137019
0.000162869
0.000145277
0.00015441
0.00029405
0.000161166
0.000214935
0.000139953
0.00021346
0.0200011
0.000294184
0.000149107
0.000185631
0.000142129
0.000155523
0.00020425
0.000133285
0.000158627
0.000155824
0.000148093
0.000143829
0.00387439
0.000415343
0.000196161
0.00104435
0.000163392
0.000146004
0.000147725
0.00296881
0.000152179
0.00288361
0.00696703
0.000136095
0.000151984
0.000187519
0.000161319
0.000505779
0.035582
0.000133737
0.01863
0.000136108
0.000205987
0.00350435
0.0282153
0.000138573
0.000148138
0.00332853
0.00276484
0.000143003
0.00015241
0.000183336
0.000147693
0.000148445
0.000156227
0.000910139
0.000183794
0.000265168
0.000153096
0.000134948
0.000551109
0.000139129
0.000224024
0.000196012
0.000134846
0.000265565
0.0383418
0.000220546
0.000136518
0.000135142
0.000136415
0.0193225
0.000154362
0.000210849
0.000192863
0.000156274
0.000160966
0.000179281
0.000152018
0.000158627
0.000150934
0.000237562
0.000177645
0.000235008
0.00631226
0.0429745
0.00305057
0.000147894
0.000176601
0.000191072
0.000199583
0.000221871
0.000210037
0.000147045
0.0371625
0.00341981
0.000196892
0.000209784
0.000148615
0.000136324
0.000147167
0.0369048
0.000141418
0.00014665
0.000221423
0.000138763
0.000193169
0.000141239
0.00015084
0.00371289
0.000189781
0.000156793
0.000146606
0.000146095
0.000163762
0.000150265
0.000194703
0.000144694
0.00016973
0.000178701
0.000210165
0.000154362
0.000173769
0.00453155
0.039406
0.000137097
0.0302808
0.000144916
0.000159149
0.000141866
0.000142033
0.00015237
0.000183724
0.000142336
0.000141895
0.00018546
0.000133612
0.00013764
0.000701035
0.000600501
0.000196073
0.000174179
0.000139946
0.000168089
0.000146292
0.000151758
0.0371831
0.00323805
0.000156495
0.00014109
0.0293571
0.00954602
0.000166
0.000161243
0.0001442
0.00014737
0.000172115
0.0259791
0.000133346
0.000131318
0.000163286
0.0265552
0.000208904
0.00014147
0.000231746
0.000172452
0.000142171
0.000145513
0.000189493
0.000140948
0.000161877
0.0450806
0.000162101
0.00826851
0.000193051
0.0272069
0.000183052
0.000149736
0.000156147
0.0258046
0.000146035
0.000141151
0.00014832
0.000160044
0.000135389
0.000157003
0.000155679
0.00017008
0.000156497
0.000143572
0.000138801
0.0321661
0.000186306
0.000139265
0.000155424
0.000155111
0.000648013
0.000148481
0.0304435
0.00016866
0.0261436
0.0344907
0.000183617
0.000147295
0.0251429
0.000162617
0.000152395
0.000161549
0.0259302
0.000185944
0.000210351
0.000131813
0.000136939
0.0304692
0.000148468
0.000178342
0.000179133
0.00264244
0.000162542
0.000191494
0.000145081
0.000142855
0.000244822
0.000140958
0.000171196
0.000199362
0.000150683
0.039037
0.000161678
0.000162876
0.000140771
0.000175718
0.000195422
0.000152828
0.0341138
0.000153022
0.000531035
0.00235222
0.000134304
0.000191641
0.000411144
0.00264548
0.000141107
0.00166746
0.00018396
0.000150683
0.000141385
0.000178584
0.000141755
0.0375445
0.000197749
0.000142516
0.00295347
0.000134333
0.000614671
0.000141596
0.000134418
0.000145248
0.000142101
0.000189746
0.032923
0.00237365
0.000142495
0.0374602
0.000161789
0.000185166
0.000196007
0.000157902
0.000141208
0.000172922
0.000131847
0.000164158
0.000134449
0.000156671
0.000147043
0.000131893
0.000171284
0.000157325
0.000151891
0.0101322
0.000144062
0.00014339
0.000143193
0.0226407
0.012178
0.000146111
0.000182141
0.000160253
0.000152892
0.000226581
0.000146647
0.000156562
0.000158477
0.000143406
0.000214023
0.000144094
0.00424516
0.000213721
0.000225699
0.0366549
0.0328721
0.000187743
0.000156494
0.0317956
0.0263973
0.000156204
0.000214488
0.000142084
0.00367015
0.035528
0.000174647
0.0384581
0.000141816
0.028672
0.0114251
0.000220373
0.000162153
0.000145776
0.000182953
0.000151106
0.000142726
0.000203458
0.00015844
0.000202959
0.000182653
0.00014798
0.000140204
0.000204034
0.000146959
0.00899973
0.000216839
0.000141146
0.0261399
0.000150687
0.000154707
0.000146409
0.000156379
0.000172891
0.000155913
0.00930119
0.000149534
0.000292811
0.000190703
0.000140496
0.000143211
0.000203641
0.000190341
0.00014163
0.000170666
0.000156993
0.000145127
0.000149685
0.000142346
0.000189929
0.000143632
0.000163338
0.000185797
0.0200901
0.000144692
0.0347381
0.000143056
0.00411888
0.000139436
0.0276778
0.000192482
0.000151688
0.00025413
0.000143309
0.0371132
0.000190837
0.000149357
0.00110359
0.000151671
0.000130633
0.00018955
0.00013961
0.000154315
0.000149206
0.000147215
0.00019609
0.00412178
0.000142668
0.000143302
0.000201222
0.0366025
0.00014258
0.0409241
0.000139056
0.000143084
0.000172921
0.000148049
0.000259709
0.000142636
0.0159635
0.000158141
0.000149175
0.000222147
0.000145084
0.000131175
0.000142612
0.000142342
0.000151713
0.00014694
0.000159982
0.031141
0.000162676
0.000149016
0.000175858
0.0236788
0.0253691
0.0325483
0.000157263
0.000187566
0.000130731
0.000188514
0.000173211
0.000138956
0.000140649
0.000161866
0.000131833
0.000157111
0.0142629
0.000168386
0.000150754
0.000139483
0.00014298
0.000153307
0.000164819
0.000153462
0.000226895
0.0190612
0.00013745
0.000160009
0.000188204
0.000166483
0.00018432
0.00034364
0.0206169
0.000192303
0.000203852
0.000141271
0.000462805
0.000135644
0.000134582
0.000150853
0.000179293
0.000213535
0.000143062
0.000193289
0.000143178
0.000207699
0.0258432
0.000197632
0.000143092
0.0189586
0.00014738
0.000150698
0.000134399
0.0406879
0.000203677
0.000162954
0.000148319
0.000135587
0.00230296
0.000146796
0.000147212
0.000139464
0.000145317
0.000156352
0.000158087
0.000153859
0.000153792
0.000150341
0.000162961
0.000143503
0.0294284
0.000140626
0.000141109
0.000149936
0.000141924
0.0325304
0.0110845
0.000141578
0.00016835
0.00767839
0.00897777
0.000139694
0.000173513
0.000172791
0.000153683
0.000138417
0.000189342
0.000147835
0.000420445
0.000140253
0.000159299
0.0117268
0.000144333
0.000146513
0.000157149
0.000178148
0.000177674
0.000149857
0.000231039
0.000177547
0.000189048
0.00019684
0.000192738
0.000146705
0.000418466
0.000199737
0.000182449
0.000190557
0.000221045
0.000169197
0.000200715
0.000182307
0.000140736
0.000156992
0.000192931
0.000135166
0.00018969
0.00016826
0.00017256
0.0236703
0.000153205
0.000140809
0.000157702
0.00017633
0.000142017
0.000173948
0.000136823
0.000178226
0.00201515
0.000164048
0.000142867
0.000181729
0.0246495
0.000149358
0.00014151
0.000145982
0.000133652
0.0001574
0.00261431
0.000178879
0.000151851
0.000143563
0.000148091
0.00182875
0.000141556
0.000206045
0.000155319
0.000174711
0.000158472
0.000189315
0.000208078
0.0136577
0.000156164
0.000203293
0.000146882
0.000155188
0.000136777
0.000167303
0.00410074
0.000130973
0.000153015
0.00016583
0.000152123
0.0001696
0.000140947
0.00018843
0.000142953
0.000147365
0.000331346
0.000155193
0.000145364
0.0230145
0.00157146
0.000171906
0.00013818
0.00016849
0.000133549
0.000250823
0.000133141
0.00013932
0.000149268
0.000154958
0.000154101
0.000141528
0.000179338
0.000190189
0.00019927
0.000149684
0.000147012
0.000181364
0.000230896
0.000169512
0.000159717
0.0216906
0.000189784
0.000159528
0.00018439
0.000144642
0.000144634
0.00015024
0.000140759
0.000165215
0.000132844
0.000156254
0.00113498
0.0335922
0.000161058
0.000190703
0.000312985
0.00013845
0.00015926
0.000147742
0.000179617
0.000250958
0.000188524
0.0114824
0.000143246
0.000143198
0.000164047
0.000129547
0.000149941
0.000141006
0.000164957
0.000159665
0.000143599
0.000146249
0.000155338
0.000167252
0.00324677
0.0259106
0.000163876
0.000147328
0.000151095
0.000198539
0.00014145
0.000180892
0.000414162
0.000139352
0.000142851
0.00017164
0.00014489
0.0224704
0.000128491
0.000179229
0.000189068
0.000149217
0.0303435
0.000144126
0.000145963
0.000149964
0.000145455
0.0275991
0.00428812
0.000151635
0.000222613
0.000170674
0.000144962
0.000140827
0.000143743
0.000153919
0.000138288
0.00767902
0.0102806
0.000209409
0.000127925
0.000139229
0.000150897
0.0001427
0.000204075
0.000207486
0.000168546
0.000139449
0.0240272
0.000135479
0.000140258
0.00651535
0.000138993
0.000143917
0.00015923
0.000205504
0.000148299
0.000148648
0.000143003
0.000140116
0.000161919
0.000141986
0.000188594
0.000151873
0.000201264
0.000195139
0.0002104
0.000142625
0.0250907
0.00067843
0.000136944
0.000191437
0.000132768
0.000162007