/*--------------------------------*- C++ -*----------------------------------*\
| =========                 |                                                 |
| \\      /  F ield         | OpenFOAM: The Open Source CFD Toolbox           |
|  \\    /   O peration     | Version:  v2012                                 |
|   \\  /    A nd           | Website:  www.openfoam.com                      |
|    \\/     M anipulation  |                                                 |
\*---------------------------------------------------------------------------*/
FoamFile
{
    version     2.0;
    format      ascii;
    class       volScalarField;
    location    "300";
    object      nut;
}
// * * * * * * * * * * * * * * * * * * * * * * * * * * * * * * * * * * * * * //

dimensions      [0 2 -1 0 0 0 0];


internalField   nonuniform List<scalar> 
54593
(
0.00569581
0.00637049
0.00526285
0.00166987
0.000984325
0.00576951
0.00584686
0.00132904
0.00106621
0.00263747
0.00590742
0.000664558
0.00594056
0.00585391
0.00611959
0.00584967
0.0115992
0.00585745
0.00585261
0.000740315
0.00589051
0.00591053
0.00440622
0.00595647
0.00591581
0.00246365
0.0108855
0.00611259
0.00107433
0.0058979
0.00238712
0.00408373
0.00580114
0.00146347
0.00582855
0.00595521
0.00215555
0.00346591
0.00200475
0.00194967
0.00313959
0.00604855
0.0058851
0.00586073
0.00583299
0.00578157
0.00585521
0.0112237
0.00408824
0.00590616
0.00583166
0.00594032
0.005938
0.00243349
0.00299589
0.00591782
0.00134758
0.00595617
0.00264922
0.00589242
0.00220125
0.00595586
0.00592182
0.00595559
0.0117196
0.00506556
0.00583563
0.0113653
0.00593856
0.00584894
0.0118722
0.00585805
0.00249765
0.00580163
0.00582343
0.00585673
0.0178622
0.00594131
0.00257532
0.00200701
0.00595566
0.00593018
0.0118711
0.0113707
0.00584589
0.00592761
0.000744163
0.00588375
0.00593101
0.00110673
0.00586627
0.00595564
0.0115098
0.00592977
0.0121526
0.00237899
0.00552901
0.00594128
0.00588242
0.00582449
0.0119871
0.00660657
0.00595661
0.000792866
0.00567705
0.000753982
0.00585585
0.00228364
0.00580133
0.0058793
0.00588513
0.00594175
0.011109
0.00498819
0.0113072
0.00582919
0.00585632
0.00579197
0.00567405
0.0121847
0.00595492
0.000838323
0.00222455
0.00284531
0.00584434
0.0117261
0.00589646
0.00413441
0.0112902
0.00587486
0.0059305
0.00579214
0.00585452
0.00458767
0.00586234
0.0058299
0.00223578
0.000825196
0.00585307
0.00519391
0.00582963
0.00590557
0.00587036
0.0118516
0.00584456
0.00464917
0.00392366
0.0038069
0.00587773
0.0116757
0.00590623
0.00238944
0.00594993
0.00592185
0.00280258
0.000770382
0.00112518
0.0112032
0.00574701
0.00594561
0.0059191
0.00191732
0.0113508
0.00582006
0.000724529
0.00594541
0.00580293
0.00586103
0.00585146
0.00588976
0.00878743
0.00602413
0.0059052
0.00214023
0.00593391
0.00586982
0.00174103
0.00470627
0.0117596
0.00582104
0.00582372
0.00584383
0.011012
0.0046841
0.0059373
0.00592416
0.0187342
0.0059237
0.00550643
0.00593654
0.00965324
0.000793165
0.00605124
0.0115205
0.0009286
0.00595554
0.00602081
0.00565862
0.000944365
0.00584547
0.0105522
0.00605732
0.00606488
0.00213846
0.00542668
0.00583378
0.00592705
0.00211433
0.00601064
0.0183709
0.00582715
0.000618475
0.002259
0.00237469
0.00599837
0.00486715
0.00370746
0.00497659
0.00580188
0.00599348
0.00592662
0.00861824
0.00585659
0.00164065
0.0123733
0.000904466
0.0058091
0.0102894
0.00315705
0.0112346
0.00204083
0.00580127
0.00484358
0.00589854
0.00269996
0.00584992
0.005839
0.012405
0.000948009
0.00604498
0.00580134
0.00601059
0.00583997
0.00580283
0.00254878
0.00586054
0.0073477
0.00848014
0.0058825
0.005921
0.000880616
0.00592573
0.00216566
0.00594337
0.0100846
0.00585671
0.00310543
0.0104646
0.000898846
0.00584694
0.00595362
0.00579976
0.00163939
0.00820268
0.00418823
0.000978403
0.00580111
0.00517441
0.00596212
0.00593804
0.000609202
0.00686318
0.00585447
0.00086834
0.000918795
0.0152643
0.00595105
0.00582683
0.00214786
0.00587991
0.00584883
0.00587758
0.0058825
0.00210612
0.0111092
0.00417706
0.00205789
0.00543577
0.000942171
0.00595243
0.00588961
0.00865763
0.00317596
0.0114386
0.00139233
0.00588682
0.00529997
0.00589248
0.0054644
0.0024662
0.00190942
0.00130705
0.00598755
0.00406634
0.00111263
0.000957523
0.00757556
0.00929351
0.0117021
0.0113815
0.00593824
0.00420764
0.00521659
0.0119322
0.000692169
0.00457223
0.0109711
0.00431595
0.0015232
0.00591932
0.0108273
0.00205988
0.0058437
0.00450371
0.0058596
0.0108751
0.00521457
0.00407949
0.00584123
0.000989405
0.000892389
0.00582226
0.00323258
0.00594193
0.00208056
0.00588064
0.00589754
0.00713433
0.00472845
0.00595426
0.00316368
0.00440178
0.0118142
0.0059547
0.00581459
0.0110031
0.00591602
0.0039944
0.00413193
0.00603014
0.00707446
0.00590621
0.00296539
0.00594753
0.00461327
0.000939341
0.00555964
0.00778478
0.00328711
0.00543819
0.00607287
0.00597546
0.0094288
0.00590486
0.00697679
0.00206709
0.00577026
0.00589113
0.00588363
0.00102811
0.00580667
0.0102129
0.00818054
0.00552642
0.0056217
0.00149811
0.001043
0.00370427
0.00073973
0.0207027
0.00194534
0.000910577
0.00912086
0.00141149
0.00400542
0.00218722
0.00210799
0.00145435
0.00168455
0.00592493
0.00548326
0.00312995
0.00579152
0.00310444
0.00585694
0.00592875
0.00213862
0.00592901
0.00590215
0.00551529
0.00613497
0.00583275
0.00588658
0.00251958
0.00314244
0.00191561
0.00153574
0.00353803
0.00269975
0.0050181
0.00588526
0.00211976
0.0109814
0.00583283
0.00579904
0.00594091
0.0113362
0.00435503
0.00534321
0.00590275
0.00970546
0.00589782
0.00595471
0.00570402
0.00554131
0.00526083
0.000595366
0.00580341
0.00559142
0.00588767
0.000916342
0.0123618
0.00385254
0.0058119
0.00897522
0.00582879
0.00602592
0.00583031
0.00311527
0.00555668
0.00120375
0.00539394
0.00695666
0.00276676
0.00711638
0.00441231
0.00573499
0.004009
0.000750328
0.0110637
0.00557665
0.00551974
0.00212643
0.00579973
0.00262878
0.00559999
0.00554249
0.000710929
0.00591894
0.00586246
0.0007228
0.00579984
0.00599618
0.00586249
0.00462866
0.00586633
0.00198257
0.0118056
0.00583955
0.0058658
0.00116803
0.00374201
0.000672468
0.00357635
0.00314597
0.00176963
0.000742541
0.00594714
0.00168159
0.00587304
0.00593324
0.0148035
0.00133908
0.00470757
0.0105933
0.000548042
0.00527457
0.00531833
0.00579109
0.00588757
0.00193732
0.00909538
0.00142641
0.00558232
0.0127602
0.00803623
0.00522511
0.0054299
0.00500434
0.00582396
0.00588529
0.00494288
0.00594864
0.00582415
0.00579849
0.00594951
0.005412
0.00581877
0.00580804
0.00162074
0.00593098
0.00599068
0.00594872
0.00585649
0.00583575
0.00579301
0.00589116
0.00406132
0.00136088
0.00204257
0.00198784
0.0127848
0.0114153
0.00177657
0.00231836
0.00107275
0.00608126
0.00583495
0.00587517
0.00582344
0.00579821
0.00138061
0.00588875
0.0005278
0.00999639
0.00433054
0.0023366
0.00242448
0.00265779
0.0109634
0.00592399
0.00446655
0.00586603
0.00455826
0.00595358
0.00585837
0.00108523
0.00593897
0.00396661
0.00485057
0.00457944
0.00588778
0.00333531
0.0011248
0.00444614
0.00603114
0.000856935
0.00613681
0.00563313
0.00216957
0.0126894
0.00581569
0.000462948
0.00545125
0.000763956
0.00509679
0.00783945
0.00826998
0.00248425
0.00514972
0.00589743
0.00553983
0.00583823
0.00555544
0.0103988
0.0059618
0.00446345
0.00595618
0.00194996
0.00583802
0.00594226
0.00584478
0.00876616
0.000891522
0.00581646
0.0114141
0.00581968
0.00066823
0.00590294
0.00589523
0.00553871
0.00590359
0.00306299
0.00192991
0.00173151
0.000715519
0.00447495
0.00186003
0.00582284
0.00443372
0.00048789
0.00497562
0.00593981
0.00581485
0.0108767
0.00587924
0.00551359
0.00563605
0.0118787
0.00137133
0.000964816
0.00591748
0.0038623
0.00510316
0.00520141
0.000876826
0.0058231
0.00470364
0.00354854
0.0101512
0.00462996
0.00598698
0.00137564
0.00603944
0.00581445
0.00137063
0.00562896
0.00582251
0.00587021
0.00110743
0.00138117
0.00585299
0.00596175
0.00586713
0.00598995
0.0176541
0.00479696
0.00473919
0.00585256
0.000884968
0.0106952
0.00917135
0.00524927
0.00237924
0.00594253
0.0094295
0.0040097
0.009384
0.00523816
0.000927639
0.0104926
0.00595455
0.00583541
0.00595716
0.00588293
0.00508427
0.00557114
0.0029029
0.00561332
0.000889173
0.00490836
0.0171233
0.00949749
0.00287114
0.00585921
0.00438186
0.00304009
0.005486
0.00240773
0.00366224
0.0013769
0.00611773
0.00376581
0.00202288
0.000848327
0.0119062
0.010503
0.00906718
0.0039773
0.00207979
0.0124046
0.00582646
0.020391
0.00503788
0.00594246
0.0121662
0.00498474
0.00208532
0.00930734
0.00564982
0.00550702
0.00589027
0.000992901
0.0103817
0.00157401
0.012594
0.000848493
0.00138718
0.00169124
0.00581456
0.00157563
0.00567055
0.00318795
0.00497741
0.000859966
0.00583878
0.00133396
0.00680812
0.00586538
0.00579905
0.0113157
0.000789564
0.00518617
0.0073384
0.00579913
0.00507497
0.00581403
0.00366433
0.00472594
0.0058374
0.00592056
0.00437293
0.0128197
0.00590791
0.00186959
0.00192664
0.00503542
0.00586967
0.00176076
0.00101613
0.00583775
0.0102088
0.0125259
0.00584734
0.00208483
0.0059176
0.00582455
0.00478535
0.005036
0.00566938
0.000813589
0.00480424
0.0047325
0.0107759
0.00585665
0.0128396
0.00580143
0.00582615
0.000643338
0.00584795
0.0059177
0.00764187
0.00567218
0.000859591
0.00592986
0.00666012
0.00445865
0.00550844
0.00591775
0.00247578
0.00493732
0.00563467
0.00686276
0.0053772
0.00314049
0.00399082
0.00471509
0.00505947
0.00599376
0.0088416
0.00561152
0.0140437
0.00101626
0.00594001
0.00579659
0.00606596
0.00593701
0.00160325
0.00517583
0.00446075
0.0058805
0.00593931
0.00594409
0.0076369
0.00049503
0.00173871
0.00110094
0.00170149
0.00111878
0.00467748
0.00493673
0.00560694
0.0043799
0.00590249
0.00545976
0.00493226
0.00538758
0.00524895
0.00274919
0.00806193
0.00555081
0.00774248
0.00489859
0.00588574
0.00215054
0.00244848
0.00242682
0.00588985
0.0092049
0.0101946
0.00615599
0.000898167
0.0014307
0.00226512
0.00616663
0.00934779
0.00596181
0.00594908
0.00824219
0.00584056
0.0104586
0.00580493
0.0124012
0.0058541
0.00580722
0.00239135
0.00251694
0.00556956
0.00582011
0.00585843
0.00586734
0.0026861
0.00580545
0.00584667
0.011297
0.00141024
0.00582812
0.00260942
0.000952891
0.0105085
0.00191881
0.00487317
0.011095
0.00933221
0.0183937
0.00228445
0.00140793
0.00396313
0.00590741
0.00565588
0.012137
0.00593371
0.0116461
0.000533926
0.00283114
0.0110899
0.00148014
0.00585307
0.00579965
0.0120076
0.00582438
0.00184513
0.0029869
0.00587461
0.00582744
0.00226483
0.000964765
0.000823183
0.00273454
0.00544543
0.00595661
0.00592026
0.00551017
0.00584384
0.00997587
0.00930866
0.00831587
0.00283738
0.00448409
0.00516195
0.00590958
0.00481934
0.00951927
0.0059926
0.00583611
0.00160995
0.00589563
0.00588504
0.0180093
0.00203392
0.00596197
0.0123901
0.00579285
0.000757787
0.00589496
0.00504671
0.00576247
0.0058826
0.0058869
0.00586439
0.00442105
0.0123687
0.00370783
0.00248241
0.00586724
0.00597627
0.0026032
0.00587812
0.00589792
0.00419152
0.0050956
0.00977613
0.00551109
0.00585868
0.00594729
0.00923001
0.00444476
0.00589014
0.00189927
0.0124405
0.00546466
0.0100951
0.00591807
0.0116938
0.00561515
0.00504696
0.0118468
0.00582614
0.0058001
0.00436884
0.00596085
0.00591588
0.0112654
0.00491328
0.00587244
0.0080456
0.00587585
0.0105075
0.00582326
0.00592638
0.0059036
0.00360044
0.000871163
0.0017204
0.0140378
0.00314565
0.00580188
0.00587746
0.00553434
0.00603054
0.0058457
0.0204692
0.00169805
0.0107324
0.0047342
0.00431342
0.00386816
0.00592208
0.00553701
0.00503275
0.0011846
0.00747807
0.00578765
0.0056829
0.0054773
0.0013587
0.00371048
0.00595522
0.00594507
0.0116372
0.0059613
0.00578331
0.00258972
0.0048929
0.00383454
0.00634692
0.00263158
0.0106132
0.00279511
0.00476196
0.00587426
0.00866681
0.0181886
0.00581677
0.00592269
0.0040257
0.00579858
0.0059595
0.00579781
0.00264967
0.00576978
0.00587291
0.00585778
0.00579701
0.00513273
0.00432877
0.00589757
0.000957523
0.00582571
0.00393531
0.00594033
0.00217926
0.00593245
0.00146869
0.0058662
0.00543633
0.0018579
0.0088217
0.00586381
0.00506632
0.00330981
0.00581554
0.0107951
0.00139276
0.00582459
0.00884979
0.00112342
0.00592993
0.00553923
0.00591437
0.00585044
0.00134413
0.00141098
0.0163422
0.00593936
0.000830415
0.0115595
0.0059316
0.00592719
0.0018352
0.00583009
0.00597198
0.00471136
0.00489999
0.00590098
0.00592544
0.0059261
0.00424482
0.00596129
0.00594137
0.00324048
0.00139095
0.00214663
0.00507236
0.0116357
0.00588006
0.0014319
0.00854381
0.00260107
0.0040908
0.00582129
0.00181093
0.0044093
0.000928486
0.00133607
0.00472529
0.0108689
0.00530654
0.00283058
0.000842498
0.00595092
0.00592823
0.00584886
0.00595809
0.00216186
0.00279441
0.00357538
0.00584091
0.00581776
0.0167834
0.001701
0.00452108
0.00587361
0.000832629
0.0144984
0.00582489
0.00436808
0.00586038
0.00599987
0.00578884
0.00186849
0.00422336
0.000701984
0.00580043
0.00595209
0.00586933
0.00729777
0.00580054
0.00514044
0.00317158
0.005869
0.0100415
0.00585621
0.00591668
0.00548588
0.00113051
0.011258
0.00378223
0.00588677
0.00808798
0.00209732
0.00592332
0.00585149
0.000723243
0.00293201
0.00242326
0.00599515
0.00592801
0.00327997
0.00595808
0.00338836
0.00579894
0.00534113
0.00525519
0.00587688
0.00592437
0.00591668
0.00586348
0.00594483
0.0059621
0.00109089
0.00467149
0.00167027
0.00581489
0.00585204
0.000781705
0.00389188
0.00546705
0.00585816
0.0058299
0.00588969
0.00583377
0.00513006
0.00172946
0.00582283
0.00582346
0.00608426
0.00592112
0.00606925
0.00502456
0.00252867
0.00485923
0.00595786
0.00549511
0.00438091
0.00543761
0.00486947
0.00583392
0.00594469
0.00459435
0.00594806
0.00560703
0.00590788
0.00271219
0.0138998
0.000869695
0.000872652
0.00595589
0.00582652
0.00132908
0.00596225
0.00201611
0.00580151
0.0134641
0.00345351
0.00411586
0.00372596
0.00589706
0.00683371
0.00595886
0.000850165
0.001423
0.00865878
0.00528534
0.00601797
0.00595014
0.00582412
0.00583852
0.00592463
0.00583093
0.00604051
0.000877881
0.00505688
0.00557612
0.00192887
0.0025186
0.0054565
0.00560563
0.00357635
0.00314571
0.00596249
0.0122801
0.00109925
0.00531882
0.00592521
0.00594625
0.00180793
0.0136462
0.00580728
0.00452781
0.00255314
0.00591736
0.00591234
0.00501303
0.00553174
0.00583653
0.00183893
0.00594907
0.00589035
0.00662776
0.00594795
0.00503255
0.00300836
0.00267901
0.00176762
0.00585878
0.00276669
0.00588738
0.00355608
0.00502159
0.00580616
0.0104582
0.00582616
0.00519882
0.00583733
0.00606799
0.00478709
0.000845344
0.00535295
0.00178593
0.00572947
0.00582273
0.00547234
0.003891
0.0115484
0.00527863
0.00284874
0.00267326
0.0118447
0.00581684
0.00141405
0.0059555
0.00542237
0.00464239
0.0059617
0.00148948
0.00592682
0.00580551
0.0100007
0.00607187
0.00594316
0.00185521
0.00426526
0.00464682
0.00168135
0.00594615
0.00589039
0.00599822
0.00769655
0.00559114
0.00582706
0.00500767
0.00584228
0.00912665
0.00516586
0.00584465
0.00579841
0.00593495
0.00597096
0.0116565
0.00595685
0.00179058
0.00570568
0.00580513
0.000674274
0.00587251
0.00402202
0.00175873
0.0048881
0.00243912
0.005839
0.00585167
0.0104128
0.00729211
0.00584383
0.00581348
0.00579827
0.00585194
0.00576752
0.00374219
0.00257938
0.00582459
0.0115866
0.00587647
0.00593581
0.0101402
0.00392132
0.00595622
0.00595112
0.00632959
0.00199949
0.00464134
0.00584007
0.00556228
0.00584898
0.0126013
0.00399905
0.00582444
0.00609781
0.00594718
0.00594559
0.00275122
0.00246521
0.00588012
0.0159725
0.00551742
0.00585022
0.00594585
0.00593912
0.00209849
0.00594933
0.00593491
0.0115371
0.00175678
0.00579558
0.00551783
0.00739098
0.00111116
0.0169496
0.00581642
0.00371565
0.00463254
0.000544581
0.0137947
0.00690588
0.00508208
0.00593964
0.0124137
0.0115604
0.00594581
0.0059762
0.00582422
0.00594434
0.00586837
0.0057958
0.00583588
0.00566181
0.00583378
0.00892312
0.00421084
0.00585069
0.0059457
0.00594361
0.00592529
0.00594
0.00511429
0.00367867
0.00559134
0.00595467
0.00979261
0.00109455
0.00552283
0.001897
0.00179998
0.00585088
0.00528599
0.00300589
0.00189975
0.000944974
0.00247126
0.000877325
0.00585321
0.00519673
0.00586632
0.00198488
0.00583529
0.00583635
0.00866879
0.00562323
0.00583823
0.00143302
0.00781942
0.00569147
0.00246482
0.00580239
0.00307363
0.00221566
0.00595529
0.00587193
0.00595512
0.00595607
0.00583621
0.00603176
0.000667679
0.00275141
0.00593885
0.00597081
0.00584449
0.00594063
0.00567761
0.00586975
0.00597551
0.00523082
0.00590469
0.00593923
0.00489733
0.00592583
0.00593532
0.00181791
0.00584294
0.00311278
0.0118501
0.00588452
0.0106172
0.00592705
0.00903982
0.00594844
0.00162055
0.00535635
0.000922188
0.0119334
0.00581209
0.00451501
0.00585748
0.00586292
0.000411285
0.00102734
0.0118919
0.00595098
0.00281027
0.0051519
0.00456988
0.00539146
0.00583714
0.00452702
0.00595407
0.0104578
0.00286904
0.00315042
0.00593716
0.00600977
0.0115813
0.00204625
0.00307479
0.0021108
0.0045318
0.00584648
0.00593792
0.00588503
0.0085192
0.00366578
0.00167189
0.00590961
0.00590715
0.0028684
0.00595662
0.00182419
0.00563255
0.00585816
0.00592187
0.00203437
0.00592943
0.00782552
0.005984
0.00515085
0.00589289
0.00598665
0.00582524
0.00837425
0.00583801
0.00595365
0.00582788
0.000811213
0.00580746
0.00892236
0.00582754
0.00196481
0.00189615
0.00147088
0.0058478
0.00570049
0.0132815
0.00169638
0.0058234
0.00593949
0.00588643
0.00585155
0.00595436
0.0059196
0.00584664
0.00603184
0.00635125
0.00592672
0.00157601
0.00582374
0.00434007
0.00527456
0.00599566
0.00441799
0.00590984
0.00198799
0.00258838
0.00166262
0.00428572
0.00939507
0.00514159
0.00594859
0.00891133
0.00161493
0.0125674
0.00729797
0.00569253
0.00592684
0.00586215
0.0058386
0.00585773
0.000891969
0.00233303
0.0109669
0.00591821
0.00592918
0.00964564
0.00584639
0.00589779
0.00255862
0.00190034
0.00941859
0.00596228
0.00253311
0.00584552
0.00159797
0.0021287
0.00273008
0.00514565
0.00588539
0.00586476
0.00219405
0.00274088
0.00175568
0.00591071
0.00547799
0.00593192
0.00278964
0.0063415
0.00588016
0.000863752
0.00584507
0.00583851
0.00586832
0.00428842
0.00465708
0.00607613
0.00586409
0.00817999
0.0058044
0.00593799
0.011423
0.000960449
0.0114473
0.00485436
0.00545641
0.0114666
0.00191523
0.00591645
0.00590006
0.000945937
0.00591195
0.00524297
0.00587776
0.00866671
0.00074899
0.00595196
0.00582164
0.00447012
0.00589982
0.00584452
0.00684457
0.00587017
0.00579554
0.00604494
0.00842452
0.00587962
0.00590045
0.00374402
0.00160549
0.00279975
0.00710031
0.00639583
0.00386907
0.00593626
0.00105215
0.00588869
0.00584165
0.00266065
0.0150466
0.00594883
0.00274243
0.00170098
0.00188561
0.00585049
0.0114625
0.00256956
0.00592549
0.00601747
0.00582368
0.00213552
0.00582404
0.0102146
0.000736368
0.00593873
0.00580352
0.00362679
0.000828958
0.00222393
0.00215802
0.00573928
0.00579882
0.00123849
0.00221877
0.00829111
0.0051434
0.00605946
0.00593964
0.00596225
0.00593017
0.00137483
0.00211999
0.00338094
0.00593698
0.00554198
0.00555686
0.00201612
0.00578957
0.00561788
0.011931
0.00595978
0.00581615
0.00583704
0.00593708
0.00592102
0.00599132
0.00582502
0.00300161
0.00593069
0.00601538
0.00142126
0.0059457
0.00298006
0.00596048
0.00588474
0.00586786
0.00594544
0.00556804
0.00177745
0.00222938
0.00594496
0.00582364
0.00178484
0.00594656
0.00588749
0.00517714
0.00606267
0.0118145
0.00475917
0.00472272
0.00161091
0.00469454
0.000597978
0.00332712
0.00165076
0.00582348
0.0012812
0.00595481
0.0059218
0.00581938
0.00600692
0.00581144
0.00595349
0.00129646
0.00594929
0.00052161
0.00957207
0.00113284
0.00585926
0.0040733
0.0058281
0.000841084
0.00579454
0.0056351
0.00594404
0.00185625
0.00584959
0.0017874
0.0114884
0.00595396
0.00242992
0.00240191
0.00543631
0.00600807
0.00204519
0.00584494
0.00583737
0.00373453
0.0117001
0.00580843
0.00583648
0.00582455
0.00067307
0.00594657
0.000970656
0.00594606
0.00590901
0.00588815
0.00602917
0.0126615
0.00592931
0.00533229
0.00218922
0.000794603
0.00592738
0.00474229
0.00554292
0.00196238
0.00354985
0.00584539
0.00581656
0.00591181
0.0040226
0.00590584
0.00254304
0.00275876
0.0061752
0.00583966
0.00579599
0.00602454
0.00595773
0.00583318
0.00584598
0.00484218
0.00478713
0.00461952
0.00557027
0.000776639
0.015633
0.00580091
0.00591462
0.00371415
0.00131034
0.00402531
0.00456086
0.00604448
0.00585581
0.00122486
0.00200356
0.000914969
0.0112388
0.0113224
0.00583163
0.00505987
0.00236712
0.00582817
0.00584656
0.00587729
0.0059527
0.00568307
0.00579135
0.00583559
0.000759206
0.0117571
0.00415529
0.00375524
0.0058011
0.00751891
0.00583469
0.00529645
0.00595468
0.00373335
0.0033329
0.00596223
0.00595593
0.00653982
0.00580434
0.00416438
0.00335259
0.00583894
0.000738354
0.00582279
0.00168192
0.00315413
0.00582082
0.0108216
0.00458677
0.00173952
0.00596097
0.00582717
0.000903062
0.00507216
0.00595271
0.002195
0.00967611
0.00583695
0.00393304
0.0104338
0.00275141
0.00582753
0.0092909
0.00588795
0.00146895
0.00585492
0.00852939
0.00583465
0.00586492
0.00583528
0.00220073
0.00595338
0.00570481
0.003979
0.00513025
0.00615192
0.0058561
0.00616783
0.0062204
0.00554801
0.00594003
0.00391587
0.00586888
0.00603326
0.00229861
0.00581728
0.0060642
0.00567069
0.0059621
0.00593008
0.0100263
0.00688091
0.00108437
0.00279612
0.00277501
0.00594741
0.00595358
0.0094959
0.00572795
0.00862973
0.0061136
0.00590016
0.00586186
0.00165625
0.00481395
0.000548049
0.0115866
0.00582573
0.0043467
0.00589983
0.00096147
0.00952559
0.0103508
0.00585914
0.00596115
0.0110983
0.0104862
0.0058997
0.00585685
0.00288553
0.00586589
0.00595198
0.00563303
0.00394488
0.00572077
0.00452666
0.00586514
0.00589581
0.000527333
0.00582376
0.000866999
0.00185866
0.00588951
0.00545927
0.016012
0.000971408
0.00591208
0.00589928
0.00582984
0.00776048
0.00569078
0.00109456
0.00121534
0.00475277
0.00353728
0.00205911
0.00595322
0.00343297
0.0050867
0.000784939
0.00343751
0.00406702
0.00199374
0.0100988
0.0109944
0.00595805
0.00366362
0.0059033
0.000936069
0.000898887
0.00104819
0.00587444
0.0107905
0.010541
0.00100037
0.00158409
0.00595937
0.00582836
0.00587553
0.00946772
0.00583823
0.00591591
0.000956911
0.00584448
0.00400781
0.0058279
0.00472043
0.0111208
0.00406402
0.00398289
0.00591649
0.00597262
0.00274561
0.0057577
0.00197285
0.00592565
0.00249103
0.00347203
0.00111111
0.00291372
0.00220136
0.00520937
0.0110762
0.00583424
0.0107787
0.00592294
0.0054569
0.00582901
0.00591724
0.00509847
0.00455033
0.00591115
0.00582992
0.00177888
0.00583614
0.00584057
0.00516663
0.000563071
0.00132876
0.0021367
0.00585672
0.0055209
0.00595675
0.00586898
0.0118069
0.009123
0.00568055
0.00585053
0.00867298
0.00297101
0.00440108
0.00511515
0.0058496
0.00587103
0.00257012
0.0107233
0.00585216
0.00585027
0.00521234
0.0109174
0.00136427
0.00583985
0.00411195
0.00435965
0.00582626
0.0059535
0.00248069
0.00593383
0.00523081
0.0128109
0.00302095
0.003545
0.00127947
0.00741255
0.00299777
0.00578273
0.00560641
0.00703499
0.0059476
0.00582335
0.00594006
0.00606094
0.00581169
0.0041148
0.00564992
0.00409456
0.00566557
0.00590987
0.00584443
0.0113481
0.00188788
0.00582571
0.00568731
0.00570169
0.000596466
0.00595166
0.0095753
0.00551946
0.0107867
0.01132
0.0039776
0.00593631
0.0210149
0.00518202
0.00585063
0.00484636
0.0110231
0.0017328
0.000818656
0.00579971
0.00592086
0.0109782
0.00598478
0.0028061
0.00343927
0.00923776
0.00581966
0.00280576
0.00594817
0.00589613
0.000711086
0.0059346
0.00227081
0.00162922
0.00593314
0.0104142
0.00527595
0.00372147
0.00586654
0.00513868
0.00189435
0.00587544
0.0115603
0.00586784
0.000745506
0.00965328
0.00584771
0.0016366
0.00246133
0.00816333
0.0058507
0.00202099
0.00453007
0.00593349
0.00593801
0.00414585
0.00590739
0.0084314
0.00160706
0.00582566
0.01012
0.0058476
0.000527373
0.00583794
0.00585456
0.00595466
0.00590106
0.00222061
0.0114796
0.00771807
0.00582551
0.00804728
0.00290014
0.00177864
0.00169616
0.00560373
0.00582401
0.00342955
0.00579815
0.00493581
0.0058544
0.00414679
0.00583224
0.0057982
0.00268436
0.00483655
0.0058793
0.00315127
0.00589315
0.00587438
0.00582866
0.00878714
0.00508063
0.00595717
0.00307459
0.00267004
0.00499887
0.000821791
0.00583987
0.00253556
0.00300958
0.00589814
0.000947478
0.00585817
0.00802189
0.000733507
0.000851845
0.0103526
0.0114889
0.00149226
0.00558739
0.00936331
0.0108949
0.0057095
0.00613003
0.00584063
0.011198
0.0117384
0.00222228
0.00966873
0.00588041
0.00835887
0.0035182
0.000978831
0.00598596
0.00589979
0.00297049
0.00398724
0.00591663
0.000946336
0.00300211
0.000836419
0.00305963
0.00596148
0.00582337
0.0012641
0.00596072
0.017278
0.00609337
0.00593605
0.00700926
0.00593267
0.00572248
0.00597045
0.00568624
0.002113
0.00572751
0.0175675
0.0059305
0.00758088
0.00239579
0.00585606
0.00586865
0.00140314
0.00227236
0.00594157
0.00228356
0.00490427
0.00589189
0.00592794
0.00592447
0.0023048
0.00592711
0.00269348
0.001777
0.00754633
0.00590448
0.0114841
0.00587926
0.00314719
0.00585033
0.0114787
0.00206629
0.00588521
0.00460583
0.00586963
0.010551
0.00223517
0.00595414
0.00289384
0.00595141
0.00579517
0.00194343
0.00586402
0.00573759
0.00588824
0.00596217
0.00133625
0.0118495
0.00582607
0.00588318
0.000881982
0.0119379
0.00586113
0.0124804
0.00582529
0.00586747
0.00204151
0.00585964
0.00237616
0.00582593
0.00498768
0.00557581
0.00595678
0.000900009
0.00594841
0.00579635
0.00586226
0.00588949
0.00516575
0.0059608
0.0029718
0.00915272
0.00523163
0.00595784
0.00372518
0.0100028
0.0218589
0.0113922
0.00564664
0.00147386
0.00580825
0.00142658
0.00403688
0.00589699
0.00586268
0.00524055
0.0058073
0.00599638
0.00447863
0.000892818
0.00397393
0.00586106
0.00583419
0.00585655
0.00380473
0.00576709
0.00119042
0.00691074
0.00581594
0.00273484
0.00159409
0.0060456
0.00167278
0.00803956
0.0049069
0.0012692
0.000826266
0.00583804
0.00505421
0.00581066
0.00585962
0.00592564
0.00328833
0.00616775
0.00588159
0.00120771
0.00588076
0.00142205
0.0216149
0.00162193
0.00586723
0.00585207
0.00596188
0.00593779
0.00583126
0.0115024
0.00127991
0.00515178
0.00595201
0.00580998
0.00758687
0.00596083
0.00596174
0.00590479
0.00597673
0.00411871
0.00465706
0.00501364
0.000669309
0.0059397
0.0027228
0.00583777
0.00886574
0.00584611
0.00583557
0.00594911
0.00586879
0.0114439
0.00340132
0.00583805
0.00229264
0.00319845
0.00664177
0.0058532
0.00222162
0.00447519
0.00574868
0.00591914
0.00235905
0.00596162
0.0056606
0.00584352
0.00548782
0.0144606
0.00592927
0.00588569
0.00559026
0.00192436
0.00485765
0.00595093
0.00190857
0.00212341
0.00163114
0.00418149
0.00137089
0.00596864
0.00667985
0.000955975
0.00172157
0.00175552
0.000894381
0.00321766
0.00163211
0.00290866
0.00584724
0.00564494
0.00201225
0.00587462
0.00423439
0.00268272
0.00259754
0.00830314
0.00581969
0.00584987
0.00509689
0.00296789
0.00583945
0.00225488
0.00591765
0.0019485
0.000811954
0.00514754
0.00588953
0.00305372
0.00993372
0.00517544
0.00583197
0.00589556
0.00583418
0.00453984
0.010883
0.00561665
0.0052397
0.00583855
0.00594032
0.00707063
0.00590364
0.00117987
0.00567187
0.00485808
0.00270752
0.00245358
0.000761896
0.0167099
0.00522487
0.00134303
0.00591966
0.00576715
0.00592751
0.00426701
0.0104569
0.00581325
0.00496494
0.00239021
0.00480096
0.00278302
0.00584505
0.00145874
0.00583437
0.00596208
0.00837676
0.00369788
0.0059528
0.00746958
0.00202662
0.002428
0.00592036
0.00213202
0.00583226
0.000688952
0.00582993
0.00587819
0.00593039
0.00351592
0.00579996
0.00593935
0.00466513
0.00229076
0.00165715
0.00594278
0.00596156
0.00194729
0.0019734
0.00397737
0.00573652
0.00816451
0.00424888
0.00604648
0.00203281
0.00584565
0.00592148
0.00584717
0.00583247
0.00316228
0.00582883
0.00264502
0.00287902
0.0114675
0.00573744
0.00164356
0.00859231
0.00592084
0.00315447
0.0059299
0.00216817
0.00596442
0.00136029
0.0143683
0.00588068
0.00582914
0.00380232
0.00581977
0.00594459
0.00584655
0.00309021
0.00369774
0.00584917
0.00593712
0.00567534
0.00455595
0.0108662
0.0105218
0.00605922
0.0059601
0.00383198
0.00475453
0.00583831
0.00193675
0.00696358
0.00586246
0.00593452
0.00452521
0.00591104
0.00680271
0.00579955
0.00221145
0.00192887
0.0058886
0.00916149
0.00593811
0.00594986
0.00591419
0.00595431
0.00760332
0.00945103
0.00519482
0.00097663
0.00242007
0.0059405
0.00586435
0.00588512
0.00573125
0.00591832
0.00323867
0.0128424
0.00154858
0.00579017
0.00582842
0.00593343
0.0059293
0.000916104
0.000775837
0.00411482
0.00586506
0.0101671
0.00590147
0.00585736
0.0157723
0.00587086
0.00593934
0.00340311
0.00119855
0.00596081
0.0059056
0.00586303
0.00585024
0.00598159
0.00582949
0.00200905
0.00589932
0.00115593
0.00183538
0.000832725
0.00590297
0.00883765
0.00512644
0.00581924
0.00279759
0.0058257
0.00352793
0.00134233
0.00581911
0.00592257
0.00149783
0.00583523
0.00584243
0.00564907
0.005837
0.00592216
0.00594596
0.00372022
0.00405595
0.00593699
0.00583554
0.00594518
0.00807542
0.00595866
0.00593766
0.00518837
0.0058785
0.00322567
0.00592941
0.00582492
0.00861271
0.00411667
0.00584848
0.00596686
0.00589398
0.00282232
0.00581766
0.00170242
0.0104145
0.00926765
0.000523716
0.00547538
0.00459405
0.00483449
0.00195203
0.0057964
0.00496349
0.00595729
0.00583568
0.00214199
0.0024831
0.00182554
0.0015166
0.0117495
0.00586923
0.00240272
0.00244597
0.00496433
0.00593833
0.0059428
0.017386
0.000601692
0.00143288
0.00455173
0.0018142
0.00566118
0.00579602
0.00511816
0.00591157
0.00592171
0.00362075
0.00172476
0.00579687
0.00442471
0.00096127
0.00110577
0.0112571
0.00586576
0.00596456
0.005856
0.00207693
0.0120684
0.012285
0.0117479
0.0117028
0.00282259
0.00595367
0.00584387
0.00210887
0.00229422
0.0011496
0.00592319
0.005883
0.00568332
0.00451549
0.00591263
0.00191123
0.000570417
0.0057098
0.00590392
0.0110795
0.00593768
0.00583025
0.00589954
0.00588281
0.00425342
0.00585141
0.00249056
0.00129449
0.0045601
0.00588237
0.00582757
0.0025554
0.00512478
0.00739323
0.00422924
0.00579899
0.00103148
0.00514491
0.00801461
0.00183966
0.00190068
0.00587976
0.00197532
0.00168012
0.00579567
0.0059306
0.0163223
0.00592849
0.0059611
0.000592873
0.00586102
0.00595699
0.00325837
0.00358477
0.00492996
0.00113744
0.00242865
0.00724121
0.00156386
0.00538754
0.00113794
0.00342735
0.00186658
0.00823249
0.00177276
0.00584749
0.00591181
0.0105723
0.00593708
0.00206177
0.0102156
0.0059287
0.0057281
0.00229828
0.00160612
0.00589376
0.00238734
0.00320353
0.0045048
0.00491524
0.00375596
0.00592364
0.00557514
0.00582776
0.00595144
0.0058113
0.00582537
0.00588321
0.00606866
0.005795
0.00224374
0.000661929
0.00946413
0.0048191
0.00592507