/*--------------------------------*- C++ -*----------------------------------*\
| =========                 |                                                 |
| \\      /  F ield         | OpenFOAM: The Open Source CFD Toolbox           |
|  \\    /   O peration     | Version:  v2012                                 |
|   \\  /    A nd           | Website:  www.openfoam.com                      |
|    \\/     M anipulation  |                                                 |
\*---------------------------------------------------------------------------*/
FoamFile
{
    version     2.0;
    format      ascii;
    class       volScalarField;
    location    "300";
    object      omega_0;
}
// * * * * * * * * * * * * * * * * * * * * * * * * * * * * * * * * * * * * * //

dimensions      [0 0 -1 0 0 0 0];


internalField   nonuniform List<scalar> 
54593
(
0.0415063
0.0392319
0.0472692
0.118279
0.114133
0.0407984
0.0237477
0.154186
0.129053
0.031104
0.0249712
0.390118
0.0246593
0.0238627
0.0344658
0.02296
3.04264
0.0243482
0.0229715
0.325016
0.0255917
0.0256748
0.063528
0.024482
0.0233304
0.0328198
0.370204
0.0317148
0.123037
0.0240922
0.0835214
0.0545425
0.0228932
0.927523
0.023049
0.0244331
0.0329421
0.140463
2.11361
0.546008
1.58544
0.0261626
0.0243991
0.0244322
0.0236814
0.0264963
0.0237817
0.381353
0.23115
0.0257216
0.0236751
0.024057
0.0250118
0.0293487
0.0317394
0.0250861
0.15183
0.024938
0.0809411
0.0241931
2.00969
0.0248178
0.0255376
0.0248002
2.96936
0.653722
0.0244836
2.86625
0.0240415
0.0237569
3.01159
0.0240332
0.0293418
0.0228982
0.0229249
0.0237919
0.814443
0.0252499
1.30782
0.0339677
0.0244742
0.0248743
3.00472
2.81683
0.024238
0.024051
0.3217
0.0256494
0.0240721
0.190571
0.0236691
0.0244298
2.89158
0.0248748
0.593625
0.0340454
0.0285924
0.0252838
0.0243867
0.0229958
0.296428
3.21713
0.0248192
0.297532
0.0362836
0.253613
0.0240215
0.0588338
0.0229133
0.0243857
0.0237283
0.0252398
2.92764
0.033036
0.389588
0.0245391
0.024342
0.0264203
0.0351226
0.300359
0.0244589
0.276247
0.0325533
0.0602699
0.0262824
3.05877
0.0241925
0.0415882
2.90612
0.0247425
0.0254211
0.0266454
0.0236215
0.036669
0.0244406
0.0230588
0.0363936
0.280336
0.026207
0.870599
0.0245375
0.0239684
0.02436
3.40221
0.024232
0.0360708
0.0312999
0.0298224
0.0243841
3.04224
0.0239638
0.0976348
0.0246234
0.0240045
0.0269231
0.306429
0.186784
0.392107
0.0357272
0.0252315
0.028643
0.0846011
2.8034
0.0235916
0.335327
0.0251743
0.0263369
0.0236352
0.0246497
0.0237429
2.71047
0.0264531
0.0239751
0.0504537
0.0253805
0.0243603
0.0910415
0.0354707
3.4361
0.0235961
0.0230127
0.0255576
2.90426
0.0355135
0.0344957
0.0247414
2.16099
0.0245511
0.0287805
0.0246731
0.308474
0.29746
0.0262223
0.345202
0.239243
0.0249243
0.0256071
0.0277407
0.233791
0.0255418
2.58294
0.0308043
0.0269569
0.0477809
4.01204
0.0263748
0.0231995
0.049075
0.0266314
2.21473
0.0245048
0.457016
0.0468146
0.0975846
0.0262162
0.0340215
0.0277744
0.0515344
0.0228853
0.0261841
0.023202
2.75101
0.0240158
1.66337
0.301792
0.244376
0.0265134
2.53345
0.0574882
2.91283
0.137976
0.0229133
0.0279684
0.0255153
0.0313375
0.0246467
0.0263259
0.303651
0.232949
0.0261209
0.0228755
0.025534
0.0242206
0.0228787
0.0316787
0.0240611
3.47229
0.317905
0.0243524
0.023356
0.25496
0.0246851
0.0579729
0.0240412
1.04774
0.0238709
0.274256
2.5569
0.245954
0.0240755
0.0243403
0.0228255
0.12034
1.33348
0.0480864
0.129352
0.0228831
0.0316389
0.0248569
0.0245379
0.537423
0.276401
0.0240057
0.253378
0.241516
2.43809
0.0246234
0.0245005
0.0602152
0.024771
0.0240839
0.0243511
0.0243625
0.0456962
2.86082
0.0593325
0.0463366
0.0294372
0.235434
0.0246412
0.0242411
1.0123
0.0571893
2.84127
0.0731601
0.0245805
0.0322892
0.0241835
0.0292058
0.145898
0.097315
0.0919622
0.0337492
0.0508848
0.101562
0.230707
3.4691
2.91259
2.40991
2.81872
0.0250118
0.0588435
0.031278
3.52308
0.359526
0.036717
2.8616
0.0335875
0.130727
0.0245372
2.94022
0.0747999
0.0242198
0.0375428
0.0240556
0.319734
0.0280442
0.051842
0.0231978
2.66555
0.244566
0.0230037
0.108705
0.0382726
0.0343363
0.024372
0.025301
0.042413
0.0353077
0.0243818
0.0573051
0.793351
3.06078
0.0243805
0.0235971
3.66518
0.024522
0.0544948
0.04162
0.0259894
0.062741
0.0243641
0.118095
0.0251972
0.0363076
0.127978
0.028287
3.48959
0.0550303
0.0293596
0.284869
0.0335754
2.89392
0.0230699
0.041126
0.0733805
0.0262579
0.0229777
0.024157
0.100136
0.0263111
0.354263
0.31437
0.0284533
0.0279689
0.0942181
0.140723
0.0299996
0.324521
1.18977
0.0688946
0.125941
2.85254
0.094853
0.0578118
0.0476334
0.0490447
0.0859049
0.0668075
0.0240235
0.0290683
0.0456617
0.266567
0.0432086
0.0236311
0.0248947
0.0332399
0.0248909
0.0242476
0.028809
0.0388021
0.0234187
0.0230387
0.0369433
0.0431616
0.0380852
0.129572
0.0499874
0.192307
0.0326826
0.0245671
0.194749
3.97477
0.0259487
0.0227914
0.0250643
2.93302
4.54131
0.0312412
0.0252238
2.52293
0.0240881
0.0244576
2.82344
0.0280761
0.0325973
1.44572
0.0221329
0.0278127
0.0245762
0.126007
0.433509
4.49997
0.0262691
0.324612
0.0229803
0.0256937
0.0328179
3.25761
0.0289089
0.174635
0.0259229
0.521654
0.0312849
3.48525
0.038654
0.033276
0.0376947
2.02614
3.27353
0.0284716
0.0285055
0.0478205
0.022835
0.0806754
0.0277443
0.028057
0.908662
0.0255751
0.0245093
1.90566
0.0228352
0.0258107
0.0246307
0.036226
0.0415395
0.059564
3.40109
0.0243803
0.0243462
0.181054
0.0470206
0.371141
0.0374819
0.0575697
0.0662439
0.322489
0.0252027
0.0716288
0.0278558
0.0242747
2.44332
0.0874403
0.0381824
3.49247
1.79579
0.0326591
0.0304404
0.0221125
0.0242059
0.0377542
3.16524
0.141121
0.0283463
3.50331
2.84586
0.033135
0.0293947
0.0327888
0.024273
0.0229362
2.20829
0.0248152
0.0242765
0.0227682
0.0250047
0.0306098
0.0229211
0.0403975
0.801352
0.0248022
0.0261626
0.0246052
0.0239243
0.0234448
0.0264062
0.0230563
0.0386388
0.152055
0.0654673
0.0698636
3.4803
3.62129
0.0714651
0.104841
0.111437
0.0363186
0.0244848
0.0247406
0.0242316
0.0259888
0.149479
0.0245903
1.59408
2.52899
0.0406119
0.105528
0.0383113
3.20932
4.0193
0.0255362
0.0380535
0.0243411
0.0368482
0.0248803
0.024312
0.134002
0.0253196
0.0438209
0.028028
0.0366302
0.0242192
0.027862
0.107512
0.0381396
0.0259895
0.189406
2.8455
0.0279327
0.0457008
0.34643
0.0235923
0.73117
0.0297751
0.309651
0.0317643
3.53557
0.543884
0.0793532
0.0317917
0.0230074
0.0332848
0.0235457
0.0279467
3.51619
0.0247388
0.0379804
0.0250268
0.0464266
0.0235497
0.0245679
0.0242256
3.15765
0.244629
0.0235947
3.04301
0.0264887
0.38465
0.0385908
0.0255298
0.0331802
0.0257919
0.0447983
0.0867479
0.114334
0.165315
0.0379818
0.592729
0.0242251
0.0392326
0.623822
0.534038
0.0253397
0.0233405
2.80804
0.0250973
1.2875
0.0251966
1.37102
0.150734
0.806599
0.0240344
0.521006
0.0263734
0.0312193
0.639564
0.0229866
0.0379184
0.281342
2.44294
0.026372
0.0255936
0.150268
2.43794
0.0233443
1.84705
0.0279373
0.0264686
0.023681
0.926782
0.14947
0.0260321
0.0248396
0.0244077
0.0254584
2.31032
0.0268631
0.0351522
0.0245357
0.250678
3.46518
0.235446
0.02606
0.0743416
0.0394781
0.246801
0.0279771
2.82615
0.0309273
0.239255
3.48879
0.0243613
0.0241868
0.0248353
0.0243822
0.0318495
0.0261351
0.0498968
0.170598
0.249541
0.0274619
2.34288
2.15013
0.0310942
0.0239321
0.0279748
0.0268448
0.0290507
0.0833847
1.25598
0.149875
0.0349947
0.0363996
0.0571094
0.146831
3.36403
2.64313
3.14636
2.32474
0.0778424
0.345159
0.0239131
1.20568
0.224022
0.0253088
0.348388
0.0314591
0.0596127
2.82615
0.0277827
0.0286499
0.0241649
0.114341
2.7601
0.0703223
3.34113
0.26241
0.148758
0.0622716
0.023321
0.0701688
0.02764
0.178747
0.0331161
2.34431
0.0242114
0.199449
3.24047
0.0243979
0.0228013
2.42109
0.151766
0.0308702
0.0392422
0.0228014
0.0284138
0.0233169
0.0481869
0.035276
0.0245995
0.0255745
0.0389633
3.46503
0.0230909
0.104106
0.100996
0.0461762
0.0229048
0.11212
0.137152
0.0234492
2.4394
3.29233
0.0238013
0.0473773
0.0240387
0.0251663
0.0473749
0.0257298
0.0305511
0.163961
2.39879
0.0506495
3.72286
0.0243088
2.18846
0.0229253
0.0251312
1.97678
0.0237977
0.0253494
3.45131
0.0276255
0.154561
0.0248865
2.27522
4.11534
0.0293297
0.024262
0.0312663
0.0503029
0.0301878
3.77459
0.0308462
0.0313115
0.0315463
0.0508808
0.0479896
0.0249066
3.13899
0.0277807
1.36626
1.39386
0.0237925
0.0260014
0.0271199
0.0253508
0.0681656
0.0309463
0.0361083
0.0247687
0.0237908
0.0251955
0.0565378
0.836201
0.0937738
0.19154
0.115767
0.187837
0.0357831
0.0276098
0.027869
0.0389023
0.0240304
0.0293726
0.0276266
0.030919
0.0252137
0.126088
2.14279
0.0286319
3.43578
0.0354731
0.0247972
0.0766294
3.19917
0.0340496
0.022412
0.0568665
2.45143
0.0313933
0.127051
0.800435
0.112361
0.0303867
0.0595167
0.0248221
0.0251665
3.4671
0.0223712
2.73211
0.0253432
3.24179
0.024334
0.0226759
0.182247
0.0310232
0.028429
0.0251293
0.0272153
0.0241028
0.0602591
0.0226727
0.0243204
3.62769
0.141668
2.60037
0.0443025
0.232372
3.2423
0.101133
0.0262986
0.394812
3.9995
2.03421
0.114421
0.0685
0.043871
0.0230503
0.0277653
0.336589
0.0248169
3.5787
1.10169
0.326092
2.95181
0.0833464
0.0243274
0.0228253
3.51262
0.0240887
0.0587836
0.0314622
0.0229412
0.0238801
0.122012
0.228771
0.273148
3.22651
0.0293167
0.0250049
0.0255612
0.0288641
0.0237564
0.29275
3.1935
3.44958
0.0397966
4.10898
0.0316971
0.0256615
0.034449
0.286513
3.43645
0.0242541
0.0877453
0.0242012
0.0243734
0.814413
0.0586853
0.024859
0.435695
0.022125
0.157244
0.024204
0.0323447
0.0260144
0.0243629
0.022924
0.027305
0.212838
0.303435
0.030102
0.0349619
0.0241002
0.0254833
0.0438045
0.0243579
0.0240831
0.0408841
2.59454
4.00577
0.0288975
0.0239609
0.0248616
2.55267
0.0256937
0.0246054
0.0658295
0.590634
0.0291328
0.311681
0.0255888
2.99324
0.0278945
2.97154
2.99451
0.0238784
0.0226235
0.0339896
0.0249608
0.0256124
0.245211
0.0271817
0.0229231
3.4031
0.0229388
2.61482
0.0240834
0.024061
0.024656
0.0296801
0.257344
0.0640993
2.42579
0.0393423
0.0226471
0.0229565
0.0296197
0.0272174
0.024314
1.22139
0.116001
4.02726
0.0258393
2.3662
0.0262603
0.0240455
0.0295208
0.0324496
0.192654
3.05196
0.0267476
0.0275294
0.029512
0.152259
0.02621
0.0291742
0.0245848
0.33411
0.025419
0.0258476
0.0345792
0.0337868
0.0786854
3.33633
3.22225
2.61317
0.0315213
0.0515061
0.0236843
2.28867
2.05186
0.0263426
0.0255309
0.0430553
0.0226198
0.0248839
0.0226125
0.0349919
0.026261
0.0244069
0.024008
0.0226313
3.75889
4.22743
0.0240932
0.170096
0.024402
0.0360252
0.0248639
3.175
0.0254295
0.0710059
0.0237014
0.0289375
0.582183
2.87687
0.0251105
0.0257878
0.0544179
0.0236001
2.80956
0.0870986
0.0229407
2.28641
0.184832
0.0245864
0.0284659
0.0256366
0.0246637
0.147008
0.144158
2.41842
0.0252572
0.279506
2.93379
0.0237284
0.0254916
0.106669
0.0231458
0.025332
0.0354139
0.0356383
0.0230259
0.0255112
0.0245693
0.0648363
0.024943
0.025232
3.25576
0.146466
0.0470738
0.0320445
2.28287
0.0249663
0.0857434
0.0403185
0.0377669
0.0680587
0.0229197
0.108824
0.0263049
0.238193
0.151388
0.0502627
4.05218
0.0259829
3.21129
0.268025
0.0243506
0.0240477
0.0240905
0.0248583
0.0462289
0.05773
0.0278787
0.0243817
0.0235911
2.40463
0.0654282
2.47798
0.0229195
0.278863
2.41449
0.0229336
0.0395139
0.024389
0.0263656
0.0267405
0.10453
0.0652272
2.232
0.0228494
0.0243149
0.024469
3.69686
0.0228593
0.0319131
0.0447169
0.0244844
2.46816
0.0239855
0.0253699
0.0295308
0.10769
2.29801
4.62638
0.0241481
2.94776
0.0349559
0.0247071
0.0246715
0.210846
0.0301944
0.588028
0.0247755
0.0246504
0.0278944
0.0246939
0.0281291
0.0227914
0.0260359
0.0277732
0.0250264
0.0392947
0.02444
0.0236477
0.0238887
0.0247872
0.123406
0.0326737
0.117832
0.0236305
0.0245046
2.38898
0.0263174
0.0290288
0.0240025
0.0231428
0.0250302
0.0259531
0.0341004
0.113596
0.0257509
0.0240255
0.0286556
0.0236778
0.0285397
2.96501
0.0340415
0.0251954
0.0248985
0.0288816
0.0387577
0.0294574
0.0271689
0.0241602
0.0238868
0.0365391
0.0251343
0.028132
0.0256779
0.037287
0.439924
0.252612
0.258088
0.0249939
0.0239853
0.133089
0.0248322
0.0962407
0.0229257
0.436886
2.10077
0.0267977
0.0472002
0.0254813
3.67597
0.0253537
0.185846
0.142858
0.0348219
0.0305815
0.0256118
0.0248216
0.024368
0.0235374
0.0245087
0.0234152
0.0258974
0.25283
0.0321587
0.0283664
0.0564914
0.0309797
0.0287226
0.0281369
0.0302401
0.0575472
0.0248278
0.350148
0.104694
0.0304269
0.0248907
0.0254313
0.0635283
1.35835
0.0265915
0.0281484
0.0343962
0.0236567
0.0244265
0.0330931
0.0284461
0.0235288
0.0622423
0.025209
0.0250262
0.994509
0.0248067
0.0329005
0.0480655
0.0409702
1.85123
0.0243788
0.0341542
0.025572
0.628619
0.0326478
0.022693
2.60996
0.0229495
0.0278882
0.0241793
0.0265224
0.0267944
0.186918
0.108173
0.0737381
0.0263383
0.0240182
0.0291584
0.0316252
0.345652
0.0251949
0.06132
0.0344766
2.99825
0.0235887
0.0884471
0.0249926
0.0975413
0.0281285
0.0248661
0.123912
0.024566
0.0221423
0.315878
0.0269346
0.0247742
0.0470625
1.36377
0.0361469
0.0758577
0.0407031
0.0229415
0.0261525
1.17288
0.0282019
0.0229715
0.0262325
0.0231967
3.12647
0.0251719
0.0240464
0.0227683
0.0252737
0.0247916
0.33038
0.0246039
0.110246
0.0265805
0.026607
0.226076
0.0251859
0.0280164
0.0827118
0.0261984
0.0377621
0.0242064
0.0246403
0.316719
0.0413317
0.0240324
0.0254909
0.022708
0.0245242
0.0269088
0.0280279
0.0369185
0.0243812
3.0575
0.0238862
0.0235677
0.352852
4.77731
0.0249742
0.0251704
0.0376655
0.0651074
0.0360847
0.0237359
0.0285052
0.0227732
3.3273
0.0281493
0.0241006
0.258881
0.0252375
0.0239759
0.0337431
0.0307635
0.0249011
0.56304
0.0316666
0.0246335
0.023976
0.0240664
0.0467274
0.0251063
0.0235488
2.98735
0.111562
0.0226023
0.0315814
2.3873
0.187239
0.562876
0.0228974
0.028031
0.0362745
0.802269
0.441467
0.0419813
0.0251885
0.0245225
0.345991
0.340758
0.0249156
0.0263656
0.0240974
0.0249504
0.0237814
0.0226143
0.0244566
0.0277321
0.0244891
3.11879
0.801468
0.0246596
0.0252605
0.0252917
0.024773
0.0245173
0.0321616
0.0298923
0.0281941
0.024371
0.308022
0.11663
0.0284959
0.0602336
0.102504
0.0245175
0.0845964
0.0466519
0.0588642
0.124395
0.0305037
0.249602
0.0245118
0.106413
0.0237736
0.0505139
0.0244515
0.0241941
2.39751
0.0280284
0.0237321
2.48886
3.41988
0.0274474
0.03833
0.0221352
0.0457897
0.125994
0.0251064
0.0250983
0.0244338
0.0249749
0.0237217
0.0257066
2.13415
0.0340795
0.0251568
0.0246125
0.0241191
0.0237806
0.0276072
0.0237123
0.0246696
2.48062
0.0245957
0.025156
0.0316561
0.0252418
0.0253978
0.104316
0.0241148
0.0584616
3.01586
0.0246835
3.45226
0.0247711
3.27092
0.0252248
0.0893547
0.0277044
0.121172
3.02533
0.0255146
0.0535398
0.0223102
0.0236544
0.290343
0.111326
3.10293
0.0244848
0.030829
0.031188
0.0268609
0.0275988
0.0242554
0.0372141
0.0243383
2.58578
0.0615159
0.0316913
0.0236382
0.0252801
2.92267
0.142154
0.0591996
0.0492483
0.0485231
0.0242043
0.0236399
0.0246806
0.084216
0.0261822
0.118619
0.0246839
0.024499
0.0306274
0.0250819
0.297759
0.0277194
0.0236262
0.0252066
0.0483964
0.0247869
2.63179
0.0245752
0.0315875
0.0244502
0.0245676
0.0243884
3.35272
0.0246067
0.0243607
0.024241
0.24128
0.0264932
0.0837597
0.0229651
0.181082
0.102545
0.0722183
0.0242113
0.0378897
0.433812
0.0715731
0.0227844
0.0249768
0.0241705
0.0245292
0.0244178
0.0247003
0.0241969
0.0259871
3.74274
0.0252204
0.0845576
0.024263
0.0392153
0.0261982
0.0260665
2.42751
0.0230692
0.0639775
0.0345963
0.0634784
0.0399586
2.78172
0.0312586
0.0248157
0.0518614
0.12329
3.32057
0.54372
0.0274389
0.0254517
0.0239954
0.0253423
0.0240379
0.24428
0.0343173
3.69267
0.0255764
0.0248511
0.307874
0.0250603
0.0235124
2.46352
0.0535844
2.83418
0.0247605
0.0871127
0.0241905
0.124615
0.128795
2.4723
0.0316359
0.0228787
0.024009
0.0728258
0.174852
0.0462655
0.0256768
0.0259082
0.0248005
0.0333511
0.0335046
0.0247396
0.133195
0.0240404
0.0243714
0.0348208
0.0399421
0.0446255
0.0271058
0.0259116
1.16794
0.0265141
0.0238044
3.20633
2.02582
2.19329
0.0368297
0.025967
2.84183
0.163098
0.0225984
0.0242146
2.43677
0.0245091
0.0310082
0.0241057
0.281015
2.32245
0.0249031
0.022774
0.0508935
0.0245077
0.0261148
0.0563267
0.024198
0.0225741
0.0259486
3.43369
0.0247426
0.0242164
0.0469808
0.12405
0.03298
3.66175
0.0371031
0.0319641
0.0241341
2.50177
0.024417
0.0237472
0.034359
2.44059
0.0248779
0.0336917
0.117179
0.103488
0.0246277
3.01021
0.0307172
0.0252493
0.0267414
0.0278679
0.0835006
0.0239873
0.586041
0.324272
0.0237257
0.0226497
0.0386809
0.252456
0.0586947
0.0756523
0.0262477
0.022714
0.0961742
0.0596473
0.0518221
0.0319191
0.0261262
0.0237283
0.0248326
0.0247847
0.0721761
0.0757997
0.183797
0.0237123
0.0257137
0.0284265
0.0462324
0.0266957
0.0276909
3.61733
0.0249983
0.0233274
0.0248817
0.0237153
0.0243348
0.0247861
0.0257319
0.0315307
0.0242522
0.0258247
0.155268
0.0247877
2.79182
0.0249711
0.0241536
0.0241877
0.0240619
0.0261519
0.116122
2.67802
0.0240681
0.023981
0.0660308
0.0252525
0.0223952
0.0315998
0.0265181
3.65672
0.0374605
0.0417929
0.123903
0.0280612
0.509811
0.029608
0.11981
0.02426
0.162799
0.024825
0.0834373
0.0227685
0.0806156
0.0232924
0.0249115
0.0824295
0.0253442
1.35535
2.81387
0.103246
0.0242987
0.0275292
0.0232939
0.138363
0.0225293
0.0274177
0.0244699
0.110711
0.0246219
0.109506
3.05884
0.0243933
0.0342791
0.0327595
0.0293601
0.0256439
0.0633039
0.0237716
0.0243699
2.40086
3.07243
0.0226844
0.0243617
0.0243742
1.85203
0.0244206
0.224447
0.0245827
0.0251163
0.022898
0.0268424
3.65095
0.0245827
0.030182
0.0833648
0.177129
0.0249014
0.0412212
0.0283276
0.0730405
0.169424
0.0237681
0.0233329
0.0232361
0.0276871
0.0239635
0.041002
0.033317
0.0320228
0.0235593
0.0226176
0.0256754
0.0251246
0.0244763
0.0237854
0.0274467
0.0475408
0.0363152
3.57509
0.307057
1.34909
0.0226383
0.0253516
0.0256436
0.0912679
0.198078
0.0368952
0.026128
0.0252038
0.300154
0.0621845
0.24158
3.52185
2.79853
0.0261923
0.0279432
0.0377153
0.0245743
0.0237823
0.0239332
0.0242378
3.70741
0.0220995
0.0242598
0.312039
3.13555
0.0279821
0.0392768
0.0226322
0.0400215
0.0249276
0.0304573
0.0248975
0.0321972
0.0265985
0.024813
0.0247986
3.63117
0.0226643
0.0411961
0.0292019
0.0245724
0.324906
0.0240704
0.117758
0.0304718
0.0229258
3.69526
0.0366237
0.0738203
0.0248513
0.023992
0.126743
2.42153
0.0242388
0.0324717
2.38196
0.0234902
0.0391715
2.81438
0.0282285
0.0239125
2.53227
0.0245935
0.136584
0.024
3.41796
0.0242577
0.0241909
0.0234812
0.0327302
0.0244024
0.026637
0.0740106
0.0314156
0.0349342
0.0238987
0.0346079
3.21384
0.0537964
0.025102
0.0474092
0.0242179
0.0257775
0.088827
0.0229118
0.0261579
0.0274787
0.0248391
0.0242542
0.387332
0.0602863
0.107
0.374885
0.032613
0.0245491
0.0248128
0.312092
0.0258699
0.335012
1.13034
0.0230663
0.0259276
0.0733511
0.0305863
0.922593
3.07074
0.0229562
4.28575
0.0230697
0.173743
0.368723
2.72577
0.0236508
0.0248505
0.299713
0.263161
0.0242391
0.0260226
0.0495468
0.0251784
0.0249403
0.0277342
0.229106
0.0321249
0.0585358
0.0261027
0.0228888
0.912429
0.0238899
0.258418
0.105459
0.0228959
0.0485746
2.39254
0.227056
0.0230913
0.0229082
0.0233994
2.48938
0.0266242
0.192646
0.091955
0.0275297
0.0304596
0.0536806
0.0255354
0.0290807
0.0255406
0.302669
0.0516742
0.0578024
3.16065
4.06666
0.27697
0.0248226
0.0482049
0.0323781
0.115287
0.246855
0.200382
0.0250316
3.44316
0.324105
0.109267
0.130857
0.0249381
0.0233898
0.0250476
3.75942
0.0242227
0.0247891
0.231413
0.0237425
0.0481853
0.024235
0.0255142
0.333532
0.0466863
0.0278532
0.0247793
0.0244608
0.0329418
0.0260982
0.0986912
0.0244183
0.0389185
0.0514629
0.189161
0.0269412
0.0442195
0.880202
3.55689
0.0234987
2.80913
0.0244669
0.0291653
0.0243379
0.0240033
0.025929
0.0403715
0.0240793
0.0243391
0.0641927
0.022894
0.0235662
0.135685
1.06593
0.0934901
0.045223
0.0238949
0.0304452
0.0245591
0.0258576
3.14877
0.355817
0.0275493
0.0241158
3.38373
3.20888
0.0345612
0.0315233
0.0246512
0.0251013
0.0416859
2.4175
0.0227858
0.0224465
0.0313269
2.42723
0.133201
0.0242249
0.0563615
0.0395528
0.0244017
0.0244416
0.0743418
0.0237532
0.0309479
3.51858
0.0315021
2.32998
0.0933313
3.51842
0.0610515
0.0258936
0.0278518
3.51173
0.0245536
0.0242387
0.0249694
0.0264057
0.023296
0.0279696
0.0275543
0.0389097
0.0276227
0.0242936
0.0237493
2.83443
0.0661364
0.0239053
0.0273281
0.0272044
1.08614
0.0249478
3.17887
0.0305564
2.42252
3.04669
0.0461673
0.0248126
1.1962
0.0313809
0.0260476
0.030754
2.35128
0.0685492
0.174566
0.0227275
0.0231283
2.77565
0.0248077
0.0503652
0.0520788
0.285372
0.0279289
0.0579095
0.0243909
0.0242286
0.344414
0.0237519
0.0411337
0.122368
0.0253969
3.74758
0.0306451
0.0318789
0.0239956
0.0341926
0.10316
0.0260112
2.95068
0.026078
0.708093
0.244179
0.0229669
0.0893697
0.166521
0.324903
0.024118
0.815764
0.0406039
0.0253953
0.0238101
0.0423899
0.0239962
3.94486
0.123048
0.0244635
0.291421
0.0229723
1.16526
0.0242544
0.0229596
0.0243922
0.0240807
0.0854488
2.86781
0.308203
0.0244606
3.9633
0.0312795
0.0665122
0.113044
0.028178
0.0242458
0.0394077
0.0227395
0.0332563
0.0229654
0.0277983
0.0252122
0.0227472
0.0404729
0.0280565
0.025835
3.2113
0.0244458
0.0244094
0.0245671
2.57453
2.39248
0.0245269
0.0592435
0.0303198
0.0261232
0.27576
0.0251114
0.0281178
0.0289978
0.0243138
0.225888
0.0245972
0.532936
0.210855
0.264989
3.5397
2.86103
0.0725582
0.0280088
3.39474
2.42157
0.0273585
0.0349715
0.0243268
0.327135
3.02628
0.0459801
3.9564
0.0241167
3.37061
3.24386
0.225158
0.027091
0.0247087
0.0486887
0.0256677
0.0241229
0.129367
0.0290915
0.139736
0.0479633
0.0248227
0.0240761
0.161408
0.0246546
0.520557
0.0355644
0.0237777
3.49906
0.0253996
0.0270348
0.0245223
0.0275013
0.0432595
0.0272217
0.529357
0.0252144
0.0385804
0.0776648
0.0239916
0.0244026
0.145137
0.0837627
0.0238371
0.0404452
0.0278822
0.0246316
0.0252506
0.0240269
0.082405
0.0242331
0.0325919
0.068297
2.65734
0.0245055
3.02466
0.0243324
1.31879
0.0238338
2.40963
0.0931583
0.0257746
0.0551662
0.0244154
3.51661
0.0853782
0.0250846
0.382451
0.0254849
0.0225418
0.0808213
0.0238079
0.0268954
0.0253398
0.0246914
0.0936417
0.347342
0.0244878
0.0243579
0.132472
3.06578
0.0243264
3.27872
0.0238711
0.024386
0.0432926
0.0252659
0.109332
0.024483
3.1984
0.0283619
0.0250429
0.246856
0.0243904
0.0226306
0.0243272
0.0241688
0.0257491
0.0246511
0.0300086
3.38746
0.0310954
0.0250117
0.0472089
2.36506
1.16029
2.85696
0.0278506
0.0708835
0.0225078
0.0747762
0.0429077
0.0235641
0.0239906
0.0308881
0.0227012
0.026201
3.18217
0.18771
0.0255934
0.0237983
0.0245073
0.026177
0.0334911
0.0266099
0.190598
2.75928
0.0236334
0.030119
0.0754175
0.0275379
0.0627648
0.0426912
4.20158
0.0837277
0.145152
0.0241984
0.0913977
0.023344
0.0229677
0.0254577
0.0443785
0.0346215
0.0243238
0.0936467
0.0243469
0.128203
1.1949
0.121849
0.0243883
3.23781
0.0247204
0.0253795
0.0230481
3.53659
0.159135
0.0316304
0.0249192
0.023337
0.304034
0.0246268
0.0246927
0.0236188
0.0243138
0.0276388
0.0284747
0.026469
0.227919
0.0253113
0.0322632
0.0245819
3.31836
0.0240546
0.0241809
0.0252031
0.0241829
2.84246
3.25516
0.024251
0.0377951
2.40261
1.32628
0.0238663
0.0443173
0.0386139
0.0267335
0.0233847
0.0802607
0.0247978
0.0743934
0.0240015
0.0290277
0.805907
0.0243424
0.0248931
0.0281116
0.0511231
0.0365763
0.0251821
0.120965
0.0494177
0.0783947
0.0470656
0.0931973
0.0245793
0.0626812
0.11526
0.059099
0.0850527
0.247175
0.0380469
0.12298
0.0538848
0.0240688
0.0278112
0.0958771
0.0230084
0.0447884
0.0377422
0.042261
2.85141
0.0263254
0.0240704
0.0282606
0.0472287
0.0243202
0.0449878
0.0231212
0.0511378
2.47838
0.0318692
0.024258
0.0595127
2.48154
0.0252143
0.0242646
0.0247614
0.0229085
0.0281367
0.24051
0.0318487
0.0257585
0.0245888
0.0249298
0.257648
0.0239777
0.174635
0.0273837
0.0359621
0.0289971
0.0771669
0.177289
0.814155
0.0274327
0.151373
0.0248125
0.0269089
0.0230749
0.0358457
0.393221
0.0225302
0.0261683
0.0349846
0.0258971
0.0385571
0.0241138
0.0748324
0.0245019
0.0247171
0.0394644
0.0271903
0.0244195
3.08079
0.772148
0.0414574
0.0233398
0.0377715
0.0228984
0.364203
0.0228375
0.0237012
0.02517
0.0270847
0.0265694
0.023829
0.0384394
0.0830233
0.12025
0.0251875
0.0246601
0.057448
0.116912
0.0382268
0.0278414
2.6539
0.0446572
0.0263836
0.0618836
0.0247435
0.0244253
0.0256947
0.0241337
0.0341176
0.0227909
0.0279549
0.395678
2.92915
0.0280721
0.0852613
0.0363915
0.0233835
0.0294617
0.0249148
0.0551203
0.0420609
0.073162
0.796575
0.0243588
0.0245659
0.0328179
0.0222599
0.0252231
0.0241178
0.0338653
0.0295737
0.0245503
0.0246329
0.0273703
0.0357794
0.298528
2.45802
0.0270457
0.024719
0.0256931
0.0417637
0.0242278
0.0565121
0.0593441
0.0237702
0.0240712
0.0379325
0.0245117
3.30153
0.0221553
0.0543369
0.0793639
0.02534
3.31117
0.0242714
0.0245322
0.0253566
0.0244285
3.50539
0.455696
0.0257184
0.227951
0.0400158
0.0244024
0.0240141
0.0244249
0.0268559
0.0233661
2.37288
0.794143
0.131158
0.0220934
0.0238879
0.0254317
0.024067
0.132625
0.17188
0.0371515
0.0237763
2.36153
0.0229568
0.0239456
0.412929
0.0236751
0.0242312
0.0294521
0.171462
0.024879
0.0251707
0.0243907
0.0239504
0.0270722
0.0243565
0.0777909
0.0257443
0.112781
0.10632
0.174924
0.0241617
2.83875
0.132187
0.023533
0.0587335
0.02279
0.0312157
0.151438
0.0235284
0.0233281
0.0726568
0.0235128
0.0239868
0.0296414
0.0235212
0.0233605
0.0241043
0.0262194
0.0255961
0.0246316
0.0242413
0.0251389
0.31502
0.0248842
0.0250754
0.0314288
0.0244305
0.0536198
0.0254759
0.023891
0.745453
1.54104
0.0239396
0.0252595
0.0246112
0.0423605
0.0229057
0.117063
4.05248
3.27765
1.04803
0.0289843
0.0264048
0.039565
0.0998548
0.0226106
0.09917
0.0250063
0.0235065
0.0571375
0.0327349
0.141699
0.123999
3.04886
0.0244
0.0406617
0.0393515
1.70992
0.02492
0.0249394
1.24222
1.75552
0.153388
2.58936
0.0646331
0.0293405
0.0225801
0.031915
0.0256334
0.0234491
0.0262512
0.113921
0.0265898
0.0256381
0.232655
0.190033
1.05015
0.024
0.024637
0.0239297
0.0551259
3.08501
3.1832
2.99324
2.98886
0.0363166
0.0246602
0.0239958
0.0471581
0.0828725
0.0954256
0.0254998
0.0229253
0.0251414
0.0598583
0.022558
0.09706
1.07557
0.0352632
0.0254538
2.4579
0.0257199
0.0228071
0.025741
0.0246347
0.0645608
0.0227598
0.074838
0.160645
0.0256773
0.022929
0.0262448
3.23982
4.26789
2.49599
0.0255629
0.022721
0.106871
0.0464278
2.57607
0.0605804
0.0574911
0.0259696
0.0829548
0.118891
0.0226048
0.0242242
2.37858
0.0248352
0.0246639
0.807907
0.0243074
0.0246016
0.028134
0.0328385
0.0332299
0.103363
0.0793078
0.140596
0.080536
2.74573
0.18841
0.0519209
0.0997008
0.255173
0.145458
0.0227488
0.0240092
2.84935
0.0252053
0.0486836
3.56512
0.0254864
0.0271854
0.0294804
0.0822985
0.0230486
2.29923
0.0451697
0.0630944
0.0273027
0.0256701
0.0235042
0.0251484
0.0243184
0.0246418
0.0233898
0.0264041
0.024418
0.0265828
0.022535
0.0719202
0.425816
3.97633
0.0512323
0.0234697
0.104945
0.0389866
0.0262102
0.0230547
0.0239406
0.024348
0.0504041
0.0486055
0.0414237
0.0323733
3.63402
0.0343974
0.0244186
0.0298594
0.0248659
0.0233857
0.0560778
0.190413
0.0272794
1.58814
0.0250477
0.0243949
0.0278801
0.0255062
0.0259924
0.0276789
0.115442
0.0288824
0.041465
0.0275416
0.0720229
0.14915
0.0244108
0.0989243
0.0229373
0.0259843
0.0243692
0.0360262
3.31826
0.0250054
0.0367206
0.0446141
0.0258505
0.0242763
0.0419821
0.027454
0.412308
0.0246677
0.0365193
0.0468902
3.07165
0.408829
0.0258825
0.0274025
3.22994
0.0386404
0.0241216
0.0243651
0.0442024
4.09104
0.025625
0.0259489
0.0251639
0.0239567
0.0340668
3.1501
0.126009
0.022548
0.024648
0.0254099
0.0252711
0.0366463
0.0239152
0.11768
0.0235806
0.0236747
0.02372
0.025832
0.0236358
0.0623044
0.022868
0.0432374
3.43018
0.0226241
0.024835
3.22011
0.080276
0.0439582
0.0277653
0.0705141
0.056689
0.137644
0.0254967
3.13901
3.00054
0.0297996
0.0628
0.024026
3.5894
0.188759
0.0245744
0.232609
0.0239336
0.0253568
0.0241847
0.0449711
0.0242202
0.12104
0.028806
0.0267699
0.0263484
0.0228783
0.033899
0.0778414
0.0315475
3.77919
0.115172
0.0235637
0.04269
0.0263933
0.0332466
0.551843
0.0279996
0.165096
0.559263
0.0228625
0.026667
0.026893
0.229029
0.0230948
0.0253636
0.055047
0.0287601
0.126978
0.114286
3.88739
0.0259196
0.108727
0.0273807
0.0677103
0.0244592
0.0228524
0.393827
0.0367749
2.24824
3.79384
0.0230457
0.0230762
0.0277984
2.67976
0.0590155
0.034695
3.10188
0.311635
0.0703887
0.0632037
0.028626
2.90965
0.193038
0.035105
0.0738647
0.0251667
0.206259
2.84585
0.0701193
0.0689502
0.0241279
0.0254386
0.230447
0.0239934
0.0543233
0.230007
0.0230683
0.0239587
0.115396
0.0229163
0.220376
0.0319513
0.0350117
0.0480276
0.0242545
0.026091
0.0957671
0.0254379
0.0362146
0.0242175
0.024393
0.0231198
0.0589906
1.12108
0.0248341
0.0417994
2.636
0.0239809
0.0222949
0.0411829
0.0266013
0.0238823
3.24565
0.0261762
0.0285905
3.01994
0.0250657
0.0258254
0.125766
0.0247446
0.0261095
0.0245774
0.0243019
0.0239111
0.901329
0.273809
0.191273
0.0243129
0.0242983
0.0670085
0.363315
0.0251414
0.235574
0.0232097
0.0249439
2.25566
0.0257031
0.0221412
0.0542596
0.0466831
0.097929
0.0248968
0.127402
0.0354148
0.0258759
0.907628
0.0245571
0.051882
0.0323744
4.0018
0.0246079
0.0246466
2.88975
0.0426308
0.024395
0.0580158
0.0225126
3.29343
4.55228
3.23346
2.505
0.123515
0.0550235
0.37028
0.0258386
0.248413
0.0251502
2.96316
0.0241713
0.0226582
0.0481375
0.0970532
0.0364252
2.30323
0.0225359
0.135981
0.143166
0.0241543
0.0535897
2.92574
0.0274742
3.65877
0.0372836
3.07812
3.03204
0.0238995
0.0470456
0.0248954
0.0321431
4.11992
0.0266736
0.0332529
0.0505598
0.0244926
3.82525
0.0265121
0.023702
0.315053
1.11766
0.0243595
0.722601
0.0719968
0.0242582
0.0303362
0.0723484
3.60912
0.0240753
0.0838818
0.032304
3.32944
0.0615934
0.123705
0.0922573
0.0349447
0.0241523
0.0329438
0.0256393
0.0268504
0.026053
0.0325866
3.62362
0.326026
2.09527
0.0225449
0.0391354
0.108088
3.20826
0.0587889
0.0263877
0.0249763
2.39421
0.0408887
0.0248277
0.0239279
0.0256071
3.5697
0.0248925
0.0241159
0.0254912
0.0239587
0.0243389
0.0241675
0.0302546
3.01575
0.0255683
0.0384481
3.06939
0.0590394
0.0278238
0.0242333
0.0237016
0.0249225
0.060246
0.323739
0.0244948
0.026507
0.0253824
0.319533
1.18029
0.396203
0.027874
3.19514
0.0323869
0.0267781
0.0235639
0.523139
0.11983
0.306693
0.0248946
0.0640055
0.0235569
3.83363
0.319
0.0246058
0.024135
0.334866
0.0242873
3.00068
0.0368294
0.328415
0.0250845
0.032533
0.0579271
0.205349
0.0258332
0.0237433
0.0225612
3.74611
0.0242112
0.0955141
0.024293
0.0248626
0.0244762
0.0243423
0.0423022
3.2364
0.0467402
3.58968
0.0259636
0.0494283
0.0275965
0.0274694
3.96896
0.0488259
0.0238361
3.18791
2.84855
0.0244276
0.0250041
0.0232904