/*--------------------------------*- C++ -*----------------------------------*\
| =========                 |                                                 |
| \\      /  F ield         | OpenFOAM: The Open Source CFD Toolbox           |
|  \\    /   O peration     | Version:  v2012                                 |
|   \\  /    A nd           | Website:  www.openfoam.com                      |
|    \\/     M anipulation  |                                                 |
\*---------------------------------------------------------------------------*/
FoamFile
{
    version     2.0;
    format      ascii;
    class       volScalarField;
    location    "300";
    object      omega;
}
// * * * * * * * * * * * * * * * * * * * * * * * * * * * * * * * * * * * * * //

dimensions      [0 0 -1 0 0 0 0];


internalField   nonuniform List<scalar> 
54593
(
0.0415332
0.0392277
0.0473001
0.118281
0.114134
0.0408252
0.0237477
0.154186
0.129056
0.031104
0.0249712
0.389761
0.0246593
0.0238627
0.0344879
0.02296
3.04275
0.0243482
0.0229715
0.324991
0.0255916
0.0256748
0.0637326
0.024482
0.0233304
0.03282
0.369522
0.0317248
0.123031
0.0240921
0.083523
0.0545292
0.0228932
0.93257
0.023049
0.0244332
0.0329423
0.137957
2.11273
0.537939
1.58862
0.0261626
0.0243991
0.0244322
0.0236814
0.0264961
0.0237817
0.380905
0.229203
0.0257216
0.0236751
0.024057
0.0250119
0.0293488
0.0317394
0.0250861
0.15183
0.024938
0.0809208
0.0241932
2.00887
0.0248178
0.0255377
0.0248002
2.96943
0.648508
0.0244836
2.86625
0.0240415
0.0237569
3.01169
0.0240332
0.0293419
0.0228982
0.0229249
0.0237919
0.814198
0.0252499
1.31235
0.0339679
0.0244742
0.0248743
3.00482
2.81681
0.024238
0.024051
0.321649
0.0256493
0.0240721
0.190567
0.0236691
0.0244298
2.89156
0.0248748
0.593474
0.0340455
0.0285928
0.0252839
0.0243867
0.0229958
0.296157
3.21721
0.0248192
0.297517
0.0362908
0.253667
0.0240215
0.0588349
0.0229133
0.0243858
0.0237283
0.0252398
2.92767
0.033037
0.389319
0.0245391
0.024342
0.0264201
0.0351275
0.300159
0.0244589
0.276234
0.0325534
0.0602619
0.0262824
3.05889
0.0241925
0.0415883
2.90613
0.0247425
0.0254211
0.0266455
0.0236215
0.0366685
0.0244406
0.0230588
0.0363938
0.280433
0.026207
0.875869
0.0245375
0.0239685
0.02436
3.40248
0.024232
0.0360702
0.0312998
0.0298223
0.0243841
3.04235
0.0239638
0.0975975
0.0246234
0.0240045
0.0269231
0.306393
0.186781
0.391991
0.0356819
0.0252316
0.0286434
0.0846028
2.80338
0.0235916
0.335286
0.0251743
0.0263368
0.0236352
0.0246497
0.0237429
2.71164
0.0264531
0.023975
0.0504535
0.0253805
0.0243603
0.0910427
0.0354704
3.43638
0.0235961
0.0230127
0.0255576
2.90429
0.0355159
0.0344533
0.0247414
2.16124
0.0245511
0.0287809
0.0246731
0.308152
0.297445
0.0262223
0.345039
0.23923
0.0249243
0.0256071
0.0277409
0.233781
0.0255418
2.58297
0.0308129
0.0269569
0.0477816
4.01198
0.0263749
0.0231995
0.0490757
0.0266314
2.2149
0.0245048
0.456426
0.0468146
0.0975475
0.0262162
0.0340211
0.0277744
0.0515712
0.0228853
0.0261842
0.023202
2.75228
0.0240158
1.66207
0.301889
0.244364
0.0265136
2.53371
0.0574895
2.91284
0.1379
0.0229133
0.0279683
0.0255153
0.0313375
0.0246467
0.0263259
0.303619
0.232938
0.0261209
0.0228755
0.025534
0.0242206
0.0228787
0.0316787
0.0240611
3.47239
0.31654
0.0243525
0.023356
0.254947
0.0246851
0.0579739
0.0240412
1.04835
0.0238709
0.271904
2.55705
0.245941
0.0240755
0.0243402
0.0228255
0.120343
1.33084
0.0480819
0.129355
0.0228831
0.0316389
0.0248569
0.024538
0.538075
0.274538
0.0240057
0.253362
0.241505
2.43737
0.0246235
0.0245005
0.0602157
0.024771
0.0240839
0.0243514
0.0243626
0.0456968
2.86081
0.0592583
0.0463372
0.0294376
0.235424
0.0246412
0.0242412
1.01387
0.0571892
2.84125
0.0731591
0.0245805
0.0322877
0.0241835
0.0292062
0.144222
0.0973162
0.0919622
0.0337226
0.0508846
0.101559
0.230697
3.46918
2.91255
2.40893
2.81869
0.0250118
0.058792
0.0312781
3.5234
0.359415
0.0367201
2.86158
0.0335874
0.13073
0.0245372
2.94027
0.0748017
0.0242198
0.0375464
0.0240556
0.319518
0.0280441
0.0518429
0.0231978
2.66515
0.244555
0.0230037
0.107099
0.0382976
0.0343366
0.024372
0.0253011
0.0424078
0.0353073
0.0243818
0.0573065
0.800012
3.06091
0.0243805
0.0235971
3.66546
0.024522
0.054491
0.0416201
0.0259894
0.0624385
0.0243642
0.118794
0.0251972
0.0363104
0.12798
0.0282874
3.48968
0.05503
0.0293593
0.284411
0.0335453
2.89388
0.0230699
0.0411177
0.0733823
0.0262578
0.0229777
0.024157
0.100133
0.0263109
0.353367
0.314112
0.0284528
0.0279687
0.0942194
0.140726
0.0299995
0.324474
1.18979
0.0688952
0.125937
2.85251
0.094853
0.0578154
0.0476335
0.0490454
0.0859049
0.0668071
0.0240234
0.0290686
0.045658
0.265987
0.043206
0.0236312
0.0248947
0.0332401
0.0248909
0.0242482
0.0288093
0.0387839
0.0234187
0.0230387
0.0369435
0.043159
0.0380856
0.129575
0.0499877
0.189256
0.0326837
0.0245671
0.191608
3.97504
0.0259502
0.0227914
0.0250643
2.93306
4.54125
0.0312403
0.0252239
2.52359
0.024088
0.0244576
2.8236
0.0280768
0.0325978
1.44277
0.0221329
0.0278122
0.0245762
0.126002
0.433244
4.49999
0.0262689
0.324423
0.0229803
0.0256937
0.0328096
3.2573
0.0289108
0.174633
0.0259228
0.523515
0.0312849
3.48532
0.0386533
0.0332708
0.0376937
2.02436
3.27369
0.0284733
0.0285051
0.0478212
0.022835
0.0806575
0.0277438
0.0280577
0.909728
0.0255752
0.0245098
1.90408
0.0228352
0.0258107
0.0246313
0.0362259
0.0415345
0.0595645
3.40136
0.0243803
0.0243462
0.18105
0.0470209
0.370877
0.037481
0.0575714
0.0662436
0.322432
0.0252027
0.0716293
0.0278544
0.0242747
2.44255
0.0874388
0.0381787
3.4927
1.79394
0.0326586
0.0304405
0.0221125
0.0242061
0.0377546
3.16537
0.141118
0.0283464
3.5036
2.84747
0.0331349
0.0293951
0.03279
0.024273
0.0229362
2.20776
0.0248152
0.0242765
0.0227682
0.0250048
0.030609
0.0229211
0.0403891
0.796026
0.0248022
0.0261626
0.0246052
0.0239243
0.0234448
0.026406
0.0230563
0.0386382
0.152054
0.0654677
0.0698642
3.48059
3.62159
0.0714656
0.104808
0.111437
0.0363489
0.0244848
0.0247406
0.0242316
0.0259887
0.14948
0.0245903
1.59244
2.52948
0.0406133
0.105485
0.0383113
3.20895
4.01955
0.0255362
0.0380567
0.0243411
0.0368509
0.0248803
0.024312
0.134005
0.0253197
0.0438211
0.0280279
0.0366327
0.0242194
0.027862
0.107509
0.038139
0.0259895
0.189926
2.84566
0.0279327
0.0457014
0.346381
0.0235923
0.728868
0.0297733
0.309616
0.0317652
3.53557
0.545266
0.0793558
0.0317923
0.0230074
0.0332927
0.0235457
0.0279466
3.51642
0.0247388
0.0379798
0.0250268
0.0464272
0.0235497
0.0245679
0.0242256
3.15779
0.244622
0.0235947
3.04311
0.0264887
0.384341
0.0385949
0.0255318
0.0331883
0.025793
0.0447951
0.0867496
0.114336
0.165317
0.037985
0.586555
0.0242251
0.039234
0.622444
0.536109
0.0253397
0.0233405
2.80809
0.0250974
1.28265
0.0251966
1.37044
0.150734
0.810827
0.0240344
0.524443
0.0263734
0.031219
0.643434
0.0229866
0.0379144
0.278952
2.44215
0.026372
0.0255936
0.150268
2.43706
0.0233443
1.84568
0.0279372
0.0264687
0.023681
0.932976
0.14947
0.0260322
0.0248396
0.0244077
0.0254584
2.31035
0.026863
0.035152
0.0245357
0.250663
3.46541
0.234621
0.02606
0.0743428
0.0394777
0.246022
0.027977
2.82613
0.030927
0.239243
3.48901
0.0243613
0.0241868
0.0248353
0.0243822
0.0318505
0.026135
0.0498913
0.171226
0.249527
0.0274618
2.34284
2.15086
0.0310942
0.0239321
0.0279748
0.0268449
0.0290506
0.0833847
1.24986
0.149875
0.0350118
0.0363988
0.0571106
0.146832
3.36429
2.64308
3.14649
2.32362
0.0778443
0.345243
0.0239131
1.20572
0.223323
0.0253088
0.348509
0.031459
0.0596131
2.82613
0.0277826
0.0286503
0.0241649
0.114342
2.76011
0.0703218
3.34139
0.262392
0.148758
0.0622709
0.023321
0.0701683
0.0276402
0.17752
0.0331172
2.3429
0.0242114
0.192064
3.24058
0.0243979
0.0228013
2.42015
0.151767
0.0308708
0.0392606
0.0228014
0.0284137
0.0233169
0.0481874
0.0352758
0.0245995
0.0255745
0.0389626
3.46531
0.0230909
0.104109
0.100999
0.0462751
0.0229048
0.112122
0.137155
0.0234492
2.4386
3.29257
0.0238013
0.0473771
0.0240387
0.0251658
0.0474137
0.0257298
0.0305487
0.163962
2.3979
0.0506856
3.72313
0.0243088
2.18907
0.0229253
0.0251308
1.97444
0.0237977
0.0253493
3.45141
0.0276257
0.154562
0.0248865
2.27521
4.11536
0.0293288
0.024262
0.0312664
0.0502478
0.0301853
3.77458
0.0308462
0.0313115
0.0315462
0.0509199
0.0479304
0.0249066
3.13912
0.0277819
1.36598
1.39514
0.0237925
0.0260013
0.0271199
0.0253508
0.0681651
0.0309468
0.0361082
0.0247687
0.0237908
0.0251955
0.0562849
0.837614
0.0937749
0.191537
0.11577
0.187834
0.0357826
0.0276097
0.0278704
0.0389015
0.0240305
0.0293721
0.0276265
0.0309186
0.0252137
0.126479
2.14346
0.0286303
3.43589
0.0354693
0.0247972
0.0766313
3.19873
0.0340497
0.0224119
0.0570449
2.45077
0.0314058
0.127052
0.793487
0.112308
0.0303943
0.0596213
0.0248221
0.0251665
3.46721
0.0223712
2.73211
0.0253424
3.24202
0.024334
0.0226759
0.183682
0.0310233
0.0284275
0.0251287
0.0272181
0.0241028
0.0602508
0.0226727
0.0243204
3.62799
0.14166
2.60024
0.0443022
0.232363
3.24245
0.101136
0.0262986
0.394727
3.99963
2.03429
0.11435
0.0684996
0.0438712
0.0230503
0.0277655
0.336448
0.0248169
3.57901
1.09909
0.329502
2.95183
0.0833465
0.0243274
0.0228253
3.51293
0.0240887
0.0587831
0.0314622
0.0229412
0.0238801
0.121962
0.228761
0.273121
3.22613
0.0293164
0.0250049
0.0255612
0.028864
0.0237564
0.292578
3.19363
3.44969
0.0397964
4.11348
0.0316976
0.0256616
0.0344486
0.286332
3.43715
0.0242541
0.087746
0.0242012
0.0243734
0.814157
0.0586856
0.024859
0.435408
0.022125
0.157244
0.024204
0.0323458
0.0260147
0.0243629
0.022924
0.0273078
0.21193
0.303395
0.0301019
0.0349619
0.0241002
0.0254834
0.0438042
0.0243581
0.0240833
0.0408842
2.59444
4.00593
0.0288971
0.0239609
0.0248616
2.55369
0.0256937
0.0246054
0.06583
0.590508
0.0291322
0.311475
0.0255888
2.99333
0.0278938
2.97167
2.9946
0.0238785
0.0226235
0.0339895
0.0249608
0.0256124
0.245426
0.0271816
0.0229231
3.40321
0.0229388
2.61476
0.0240834
0.0240609
0.024656
0.02968
0.257325
0.064099
2.4255
0.0393421
0.0226471
0.0229565
0.0296224
0.0272174
0.024314
1.2215
0.116004
4.0275
0.0258393
2.36516
0.0262603
0.0240455
0.0295233
0.0324507
0.192696
3.0523
0.0267477
0.0275295
0.029511
0.152259
0.02621
0.0291742
0.0245849
0.33394
0.025419
0.0258478
0.0345792
0.0337864
0.0784359
3.33682
3.22175
2.61318
0.0315212
0.0515473
0.0236843
2.28883
2.05196
0.0263427
0.025531
0.0430554
0.0226198
0.0248839
0.0226125
0.0349919
0.0262609
0.0244069
0.024008
0.0226313
3.76281
4.22852
0.0240933
0.170102
0.024402
0.0360245
0.0248639
3.17444
0.0254295
0.0710048
0.0237014
0.0289385
0.572901
2.87687
0.0251105
0.0257878
0.054418
0.0236001
2.8096
0.0870974
0.0229407
2.28667
0.184834
0.0245864
0.0284663
0.0256366
0.0246637
0.146997
0.144159
2.4178
0.0252572
0.279496
2.93379
0.0237284
0.0254916
0.106672
0.0231458
0.025332
0.0354136
0.0356349
0.0230259
0.0255112
0.0245693
0.0647973
0.024943
0.025232
3.25551
0.146467
0.047074
0.0320456
2.28329
0.0249663
0.0857435
0.0404419
0.0377668
0.0682459
0.0229197
0.108826
0.0263049
0.238181
0.151376
0.0503156
4.05239
0.0259829
3.21098
0.268
0.0243506
0.0240477
0.0240905
0.0248583
0.0462291
0.0577215
0.0278786
0.0243817
0.0235911
2.40413
0.0654279
2.47768
0.0229195
0.278851
2.41428
0.0229336
0.0395178
0.024389
0.0263656
0.0267405
0.104532
0.065191
2.23162
0.0228494
0.0243149
0.0244689
3.69686
0.0228593
0.0319135
0.0447138
0.0244843
2.46754
0.0239856
0.0253698
0.0295304
0.107686
2.29836
4.62793
0.0241481
2.94806
0.034956
0.0247071
0.0246715
0.210862
0.0301944
0.585626
0.0247755
0.0246505
0.0278943
0.0246939
0.0281291
0.0227914
0.0260358
0.0277731
0.0250264
0.0393374
0.02444
0.0236477
0.0238887
0.0247872
0.1234
0.0326735
0.117835
0.0236305
0.0245046
2.38828
0.0263174
0.0290292
0.0240026
0.0231428
0.0250302
0.0259545
0.0341032
0.113599
0.0257508
0.0240255
0.02866
0.0236778
0.0285433
2.96514
0.0340415
0.0251954
0.0248985
0.028881
0.0387577
0.0294567
0.0271688
0.0241602
0.0238868
0.0365388
0.0251343
0.028132
0.0256779
0.037287
0.439891
0.252599
0.258074
0.0249938
0.0239853
0.133082
0.0248322
0.0962425
0.0229257
0.436795
2.09922
0.0267977
0.0472007
0.0254813
3.67595
0.0253537
0.185847
0.142859
0.034696
0.030582
0.0256118
0.0248216
0.024368
0.0235374
0.0245087
0.0234152
0.0258974
0.252817
0.0321598
0.0283663
0.0564925
0.0309798
0.0287236
0.0281368
0.03024
0.057549
0.0248278
0.3501
0.104694
0.030427
0.0248907
0.0254313
0.0635281
1.35802
0.0265916
0.0281483
0.0343962
0.0236567
0.0244265
0.0330934
0.0284464
0.0235288
0.0622421
0.025209
0.0250262
0.997243
0.0248067
0.0329009
0.0480606
0.04097
1.84761
0.0243788
0.0341541
0.025572
0.635279
0.0326476
0.022693
2.60987
0.0229495
0.0278881
0.0241793
0.0265224
0.0267944
0.18692
0.109053
0.0737386
0.0263387
0.0240182
0.0291578
0.0316251
0.345569
0.0251949
0.0613095
0.0344765
2.99834
0.0235887
0.0884472
0.0249926
0.0982785
0.0281283
0.0248661
0.123909
0.024566
0.0221423
0.315578
0.0269346
0.0247742
0.0470632
1.36581
0.0361492
0.0758581
0.0407089
0.0229415
0.0261525
1.17107
0.0282035
0.0229715
0.0262325
0.0231967
3.1266
0.0251719
0.0240464
0.0227683
0.0252737
0.0247916
0.330212
0.024604
0.110248
0.026581
0.026607
0.22701
0.025186
0.0280163
0.0827125
0.0261984
0.0377619
0.0242064
0.0246403
0.316485
0.0413404
0.0240324
0.02549
0.022708
0.0245242
0.0269089
0.0280279
0.0369185
0.0243812
3.05762
0.0238863
0.0235677
0.351965
4.77726
0.0249742
0.0251704
0.0376335
0.0651079
0.0360844
0.0237359
0.0285053
0.0227732
3.32754
0.0281493
0.0241006
0.256816
0.0252375
0.0239759
0.033743
0.0307636
0.0249011
0.562964
0.0316715
0.0246335
0.023976
0.0240664
0.046728
0.0251063
0.0235488
2.98737
0.111564
0.0226023
0.0315858
2.38691
0.187241
0.562838
0.0228974
0.0280309
0.0362771
0.800535
0.441427
0.0419696
0.0251885
0.0245225
0.345915
0.340589
0.0249156
0.0263656
0.0240974
0.0249505
0.0237814
0.0226143
0.0244566
0.0277321
0.0244891
3.11893
0.808137
0.0246596
0.0252605
0.0252917
0.024773
0.0245173
0.032162
0.0298923
0.0281957
0.024371
0.307825
0.116624
0.0284962
0.0602331
0.102506
0.0245175
0.0851726
0.0466479
0.0588636
0.124396
0.0305038
0.249613
0.0245118
0.107276
0.0237736
0.0505137
0.0244515
0.0241941
2.39723
0.0280284
0.0237321
2.48882
3.42
0.0274476
0.03833
0.0221351
0.0457859
0.125916
0.0251065
0.0250983
0.0244338
0.0249748
0.0237217
0.0257066
2.13175
0.0340794
0.0251568
0.0246125
0.0241191
0.0237806
0.0276072
0.0237123
0.0246696
2.48014
0.0245968
0.025156
0.0316559
0.0252418
0.0253979
0.104318
0.0241148
0.0584624
3.01597
0.0246835
3.45248
0.0247711
3.27106
0.0252248
0.0893556
0.0277043
0.121172
3.02544
0.0255137
0.0535363
0.0223102
0.0236544
0.28872
0.111326
3.10305
0.0244848
0.030829
0.0311888
0.0268608
0.0275987
0.0242554
0.0372139
0.0243382
2.5857
0.0615051
0.0316912
0.0236382
0.0252802
2.92266
0.142009
0.0592014
0.0492481
0.0485077
0.0242043
0.0236399
0.0246806
0.0845392
0.0261822
0.118622
0.0246839
0.024499
0.0306274
0.0250819
0.300498
0.0277188
0.0236262
0.0252066
0.0483962
0.0247869
2.63431
0.0245752
0.0315872
0.0244502
0.0245676
0.0243884
3.35285
0.0246067
0.0243607
0.024241
0.241335
0.0264933
0.0839521
0.0229651
0.182617
0.102548
0.0722172
0.0242113
0.037864
0.4337
0.0715733
0.0227844
0.0249768
0.0241705
0.0245292
0.0244178
0.0247003
0.0241969
0.0259871
3.74269
0.0252204
0.0845579
0.024263
0.0392153
0.0261981
0.0260665
2.42707
0.0230691
0.0639781
0.0345964
0.0634776
0.039958
2.78187
0.0312593
0.0248157
0.0519949
0.123292
3.32081
0.545422
0.0274391
0.0254517
0.0239954
0.0253431
0.0240379
0.244291
0.0343174
3.69295
0.0255765
0.0248511
0.30759
0.0250608
0.0235126
2.46398
0.0535839
2.83425
0.0247605
0.0870923
0.0241905
0.124618
0.12871
2.47273
0.0316356
0.0228787
0.024009
0.0728273
0.176173
0.0462662
0.0256768
0.0259082
0.0248005
0.0333511
0.0335026
0.0247396
0.133196
0.0240404
0.0243714
0.0348181
0.0399412
0.0446103
0.0271058
0.0259116
1.16715
0.0265142
0.0238044
3.20647
2.02553
2.19394
0.0368247
0.025967
2.8418
0.163157
0.0225984
0.0242146
2.43525
0.0245091
0.0310087
0.0241057
0.282199
2.32007
0.0249031
0.022774
0.0508759
0.0245078
0.0261148
0.056364
0.024198
0.0225741
0.0259486
3.43381
0.0247426
0.0242164
0.0469812
0.124052
0.03298
3.66175
0.0370783
0.031964
0.0241342
2.50016
0.024417
0.0237472
0.0343591
2.43971
0.0248779
0.0336916
0.117181
0.103491
0.0246277
3.01024
0.0307173
0.0252493
0.0267414
0.0278668
0.0835031
0.0239873
0.586367
0.324176
0.0237257
0.0226497
0.0386796
0.252539
0.0586957
0.0756535
0.026248
0.022714
0.0961741
0.0596483
0.0519367
0.0319192
0.0261262
0.0237282
0.0248326
0.0247847
0.072175
0.0758008
0.184566
0.0237123
0.0257137
0.0284268
0.0462331
0.0266956
0.027692
3.61766
0.0249983
0.0233274
0.0248814
0.0237153
0.0243348
0.0247861
0.0257318
0.0315307
0.0242522
0.0258247
0.155356
0.0247877
2.79191
0.0249711
0.0241536
0.0241877
0.0240619
0.0261519
0.116161
2.67797
0.0240681
0.023981
0.0660302
0.0252525
0.0223952
0.0315998
0.0265182
3.65704
0.0374571
0.0417859
0.123905
0.0280611
0.509047
0.0296079
0.119813
0.02426
0.162798
0.024825
0.0836487
0.0227685
0.0807535
0.0232924
0.0249115
0.082428
0.0253442
1.35388
2.81392
0.103243
0.0242987
0.0275292
0.0232939
0.138364
0.0225293
0.0274186
0.0244699
0.110758
0.0246219
0.109508
3.05895
0.0243932
0.0342792
0.0327596
0.0293605
0.0256439
0.0633045
0.0237716
0.0243699
2.40067
3.07256
0.0226844
0.0243617
0.0243742
1.85065
0.0244207
0.224436
0.0245827
0.0251164
0.022898
0.0268424
3.65126
0.0245827
0.0301818
0.0833673
0.177137
0.0249014
0.0412152
0.0283279
0.0730418
0.170791
0.0237681
0.0233329
0.0232361
0.027687
0.0239635
0.0410018
0.033317
0.0320297
0.0235593
0.0226176
0.0256754
0.0251246
0.0244763
0.0237854
0.0274467
0.0475779
0.0363151
3.57504
0.307042
1.34917
0.0226383
0.0253515
0.0256437
0.0912679
0.197153
0.0368952
0.026128
0.0252039
0.288649
0.062185
0.241565
3.52213
2.79852
0.0261923
0.0279431
0.0377153
0.0245743
0.0237823
0.0239335
0.0242378
3.70735
0.0220995
0.0242598
0.311997
3.13568
0.027982
0.0392759
0.0226322
0.0400376
0.0249272
0.030457
0.0248975
0.0321971
0.0265985
0.024813
0.0247986
3.63114
0.0226643
0.0411958
0.0292019
0.0245724
0.324848
0.0240704
0.11776
0.0304718
0.0229258
3.69553
0.0366234
0.0738207
0.0248513
0.023992
0.126744
2.42067
0.0242388
0.0324718
2.38216
0.0234902
0.0391707
2.81434
0.0282285
0.0239125
2.5318
0.0245935
0.13658
0.024
3.41809
0.0242577
0.0241911
0.0234812
0.0327303
0.0244024
0.0266369
0.0738117
0.0314165
0.0349573
0.0238987
0.0346277
3.21391
0.0531511
0.0251019
0.0474139
0.0242181
0.0257775
0.0888283
0.0229118
0.0261579
0.0274785
0.0248391
0.0242542
0.387824
0.0603153
0.107
0.379603
0.032613
0.0245491
0.0248128
0.312048
0.0258698
0.3358
1.12846
0.0230663
0.0259276
0.0733512
0.0305861
0.920601
3.07087
0.0229562
4.28576
0.0230697
0.17375
0.369397
2.72583
0.0236508
0.0248505
0.299689
0.262515
0.0242391
0.0260227
0.0495416
0.0251785
0.0249403
0.0277334
0.228245
0.0321232
0.0586185
0.0261027
0.0228888
0.896976
0.0238899
0.258404
0.105461
0.0228959
0.0486922
2.39234
0.227045
0.0230913
0.0229082
0.0233994
2.48871
0.0266241
0.192644
0.0919546
0.0275296
0.0304596
0.0536807
0.0255354
0.0290807
0.0255406
0.302654
0.051675
0.0577624
3.15996
4.06682
0.276431
0.0248226
0.0482054
0.0323545
0.115284
0.246841
0.200386
0.025033
3.44339
0.324119
0.109267
0.130861
0.0249381
0.0233898
0.0250491
3.75963
0.0242227
0.0247891
0.231401
0.0237425
0.0481939
0.0242351
0.0255142
0.333615
0.0466939
0.0278531
0.0247793
0.0244608
0.0329418
0.0260985
0.0986928
0.0244183
0.0389184
0.0514625
0.189159
0.0269412
0.0442193
0.885606
3.55716
0.0234987
2.80909
0.0244669
0.0291657
0.0243379
0.0240034
0.0259289
0.0403686
0.0240794
0.0243391
0.0641922
0.022894
0.0235662
0.136253
1.0636
0.0934884
0.0452231
0.0238949
0.030449
0.0245591
0.0258576
3.14891
0.356592
0.0275495
0.0241158
3.38387
3.2086
0.0345611
0.0315242
0.0246512
0.0251014
0.0416857
2.41727
0.0227858
0.0224465
0.031327
2.42696
0.133189
0.0242249
0.0563399
0.039557
0.0244017
0.0244416
0.0743439
0.0237532
0.0309486
3.51887
0.0315021
2.3291
0.0933311
3.51848
0.0610531
0.0258939
0.027852
3.51177
0.0245536
0.0242387
0.0249694
0.0264057
0.023296
0.0279696
0.0275536
0.0389096
0.0276229
0.0242936
0.0237493
2.83442
0.066136
0.0239053
0.0273279
0.0272044
1.08473
0.0249478
3.17899
0.0305605
2.42166
3.04678
0.0461723
0.0248126
1.1963
0.0313806
0.0260476
0.0307539
2.35059
0.0685492
0.174567
0.0227275
0.0231283
2.7757
0.0248077
0.0503653
0.0520781
0.285109
0.0279276
0.0579002
0.0243909
0.0242286
0.344224
0.0237519
0.0411338
0.12237
0.0253969
3.74782
0.0306457
0.0318788
0.0239956
0.034194
0.103163
0.0260113
2.95074
0.0260781
0.703603
0.244616
0.022967
0.0893706
0.167908
0.325586
0.024118
0.813444
0.0406008
0.0253953
0.0238101
0.042391
0.0239962
3.94495
0.123051
0.0244635
0.291297
0.0229723
1.16431
0.0242544
0.0229596
0.0243922
0.0240813
0.0854619
2.86779
0.308746
0.0244606
3.96339
0.0312795
0.0665123
0.113047
0.028178
0.0242458
0.0394063
0.0227395
0.033256
0.0229655
0.0277983
0.025212
0.0227472
0.0404728
0.0280564
0.025835
3.21108
0.0244458
0.0244094
0.0245671
2.57603
2.3914
0.024527
0.0592453
0.0303199
0.0261231
0.275728
0.0251113
0.0281179
0.0289978
0.0243139
0.225894
0.0245971
0.534486
0.210871
0.264968
3.53994
2.86101
0.0725577
0.028009
3.3949
2.4207
0.0273585
0.035003
0.0243268
0.326922
3.02634
0.0459803
3.95652
0.0241167
3.37073
3.24366
0.225147
0.0270944
0.0247087
0.0486837
0.0256677
0.0241229
0.129363
0.0290915
0.139736
0.0479584
0.0248227
0.0240761
0.16141
0.0246546
0.520264
0.0356018
0.0237777
3.49911
0.0253996
0.0270348
0.0245223
0.0275013
0.0432595
0.0272217
0.529134
0.0252144
0.0386243
0.0776667
0.0239916
0.0244026
0.145138
0.0837649
0.0238371
0.0404453
0.0278821
0.0246316
0.0252506
0.0240268
0.0824073
0.0242331
0.0325918
0.0682971
2.66021
0.0245055
3.02475
0.0243324
1.32159
0.0238338
2.40867
0.0931746
0.0257746
0.0552228
0.0244154
3.51684
0.0853805
0.0250846
0.386721
0.0254849
0.0225418
0.080823
0.0238079
0.0268953
0.0253399
0.0246914
0.09364
0.347229
0.0244878
0.0243579
0.132473
3.06592
0.0243264
3.27897
0.0238711
0.024386
0.0432927
0.025266
0.109229
0.024483
3.1984
0.0283618
0.0250429
0.246841
0.0243904
0.0226306
0.0243272
0.0241688
0.0257491
0.024651
0.0300086
3.38761
0.0310959
0.0250118
0.0472094
2.36497
1.16075
2.85695
0.0278507
0.0708826
0.0225078
0.0747756
0.0429078
0.0235643
0.0239906
0.0308888
0.0227012
0.026201
3.18214
0.188461
0.0255934
0.0237983
0.0245073
0.026177
0.033491
0.0266098
0.190601
2.75935
0.0236334
0.0301191
0.0754175
0.0275379
0.062764
0.0427492
4.20153
0.0837261
0.145153
0.0241984
0.0920987
0.023344
0.0229677
0.0254577
0.0443754
0.0346375
0.0243238
0.0936463
0.0243469
0.128193
1.1953
0.121852
0.0243883
3.23785
0.0247204
0.0253795
0.0230481
3.53689
0.159138
0.0316302
0.0249192
0.023337
0.304448
0.0246268
0.0246927
0.0236188
0.0243139
0.0276388
0.0284746
0.026469
0.229328
0.0253113
0.0322632
0.0245819
3.3185
0.0240546
0.0241809
0.025203
0.0241829
2.84243
3.25495
0.024251
0.0377953
2.40259
1.32299
0.0238663
0.0443175
0.0386155
0.0267334
0.0233847
0.0802629
0.0247977
0.0742851
0.0240015
0.0290276
0.805086
0.0243423
0.0248931
0.0281119
0.0511228
0.0365717
0.0251821
0.12096
0.0494173
0.078395
0.0470644
0.0931976
0.0245793
0.0626784
0.115257
0.0590984
0.0850534
0.247162
0.0380467
0.122981
0.0538836
0.0240688
0.0278111
0.0958796
0.0230084
0.0447889
0.0377423
0.0422608
2.85152
0.0263255
0.0240704
0.0282605
0.0472288
0.0243202
0.044988
0.0231212
0.0511375
2.47612
0.0318693
0.024258
0.0595149
2.48097
0.0252143
0.0242646
0.0247614
0.0229085
0.0281366
0.2408
0.0318381
0.0257584
0.0245888
0.0249298
0.257216
0.0239777
0.174637
0.0273833
0.0359584
0.0289971
0.0771713
0.177298
0.813766
0.0274326
0.151374
0.0248125
0.026909
0.023075
0.0358455
0.393337
0.0225302
0.0261682
0.0349847
0.0258971
0.0385569
0.0241138
0.0748317
0.0245019
0.0247171
0.0395755
0.0271903
0.0244194
3.08084
0.770695
0.0414573
0.0233398
0.0377715
0.0228984
0.363984
0.0228374
0.0237012
0.02517
0.0270847
0.0265695
0.023829
0.0384355
0.0830255
0.120253
0.0251875
0.02466
0.0574479
0.116915
0.0382267
0.0278409
2.65603
0.0446576
0.0263837
0.0618837
0.0247434
0.0244253
0.0256948
0.0241337
0.0341175
0.0227909
0.027955
0.400177
2.92915
0.028071
0.085262
0.0364563
0.0233835
0.0294616
0.0249148
0.0551213
0.0420531
0.0731608
0.796192
0.0243588
0.0245659
0.0328177
0.0222599
0.0252231
0.0241178
0.0338652
0.0295736
0.0245503
0.0246329
0.02737
0.0357792
0.298477
2.45736
0.0270457
0.024719
0.0256931
0.0417596
0.0242278
0.056512
0.0594374
0.0237702
0.0240712
0.0379343
0.0245118
3.3016
0.0221553
0.0543379
0.0793657
0.0253401
3.31131
0.0242713
0.0245321
0.0253566
0.0244284
3.50547
0.456587
0.0257184
0.227943
0.0400157
0.0244024
0.0240141
0.0244249
0.0268558
0.0233661
2.37297
0.792945
0.131158
0.0220934
0.0238879
0.0254317
0.024067
0.132619
0.171886
0.0371515
0.0237763
2.36129
0.0229568
0.0239456
0.412801
0.0236751
0.0242311
0.0294521
0.171465
0.024879
0.0251708
0.0243907
0.0239504
0.0270751
0.0243565
0.077792
0.0257443
0.112776
0.106323
0.174926
0.0241617
2.83894
0.132409
0.023533
0.0587249
0.02279
0.0312156
0.151439
0.0235284
0.0233281
0.0726563
0.0235128
0.0239868
0.0296378
0.0235212
0.0233605
0.0241043
0.0262194
0.0255961
0.0246316
0.0242413
0.0251389
0.313893
0.0248842
0.0250754
0.0314294
0.0244305
0.0536184
0.0254759
0.023891
0.742804
1.54431
0.0239396
0.0252596
0.0246112
0.0423604
0.0229057
0.117065
4.05267
3.27779
1.04731
0.0289847
0.0264048
0.0395643
0.0998569
0.0226106
0.0999787
0.0250063
0.0235065
0.0571383
0.032735
0.141688
0.123992
3.04894
0.0244
0.0406616
0.0393513
1.71206
0.02492
0.0249394
1.24214
1.75436
0.153516
2.58936
0.0646327
0.0293375
0.0225801
0.0319147
0.0256335
0.0234491
0.0262512
0.113924
0.0265899
0.0256381
0.232647
0.190031
1.0505
0.0240001
0.024637
0.0239297
0.0551261
3.08516
3.18341
2.99329
2.98894
0.0363165
0.0246602
0.0239958
0.0471587
0.0828747
0.0954229
0.0254998
0.0229253
0.0251414
0.0599313
0.022558
0.0970615
1.07346
0.0352293
0.0254538
2.45722
0.0257199
0.0228071
0.0257411
0.0246347
0.0647016
0.0227598
0.0748456
0.160644
0.0256773
0.022929
0.0262448
3.2393
4.26783
2.49536
0.025563
0.022721
0.10687
0.0463818
2.57822
0.0605802
0.0574906
0.0259695
0.0829565
0.118892
0.0226048
0.0242242
2.37843
0.0248352
0.0246639
0.806936
0.0243074
0.0246016
0.028134
0.0328384
0.0332298
0.10336
0.0793152
0.139537
0.0805362
2.74587
0.188406
0.0519221
0.0997024
0.256473
0.145494
0.0227488
0.0240092
2.84941
0.0252053
0.0486844
3.56535
0.0254864
0.0271853
0.0294805
0.0822988
0.0230486
2.29995
0.0451663
0.063301
0.0273027
0.0256701
0.0235042
0.0251484
0.0243184
0.0246418
0.0233898
0.0264041
0.024418
0.0265828
0.022535
0.071922
0.425569
3.97644
0.0512773
0.0234697
0.104945
0.0389868
0.0262102
0.0230546
0.0239406
0.024348
0.050404
0.0486062
0.0414246
0.032373
3.63433
0.034397
0.0244187
0.0298541
0.0248659
0.0233857
0.0560795
0.190416
0.0272793
1.58693
0.0250477
0.0243949
0.0278801
0.0255063
0.0259923
0.0276789
0.115444
0.0288823
0.0414664
0.0275416
0.0720246
0.149151
0.0244108
0.0989269
0.0229373
0.0259843
0.0243692
0.0360259
3.31833
0.0250054
0.0367205
0.0446227
0.0258506
0.0242763
0.0419801
0.0274543
0.412165
0.0246677
0.0365503
0.0468908
3.07179
0.408673
0.0258825
0.0274025
3.23007
0.0386405
0.0241216
0.0243651
0.0442022
4.09112
0.0256243
0.0259489
0.0251639
0.0239567
0.0340667
3.15029
0.126011
0.022548
0.024648
0.0254099
0.0252711
0.0366859
0.0239152
0.117682
0.0235806
0.0236747
0.02372
0.025832
0.0236358
0.0623039
0.022868
0.0432439
3.43039
0.0226241
0.024835
3.22024
0.080285
0.0439494
0.0277652
0.0705989
0.0566834
0.13763
0.0254967
3.13913
3.00053
0.0297988
0.0627992
0.024026
3.58966
0.188756
0.0245744
0.230558
0.0239336
0.0253568
0.0241847
0.0449713
0.0242202
0.120956
0.0288063
0.0267699
0.0263484
0.0228783
0.0338991
0.0778425
0.0315385
3.77914
0.115175
0.0235637
0.0426662
0.0263933
0.0332472
0.551791
0.0279996
0.165554
0.559222
0.0228625
0.0266671
0.0268929
0.229017
0.0230948
0.025363
0.0550481
0.0287601
0.12698
0.114288
3.88735
0.0259196
0.108729
0.0273806
0.0680358
0.0244592
0.0228524
0.393658
0.0367626
2.24873
3.79398
0.0230457
0.0230762
0.0277985
2.67998
0.0590155
0.0347053
3.10199
0.311558
0.070389
0.0632028
0.0286263
2.90967
0.193019
0.0350903
0.0738666
0.0251667
0.208178
2.84596
0.0701194
0.0689492
0.0241279
0.0254386
0.230435
0.0239934
0.0543235
0.229996
0.0230683
0.0239587
0.115397
0.0229163
0.220382
0.031951
0.0350112
0.0480275
0.0242545
0.026091
0.0957671
0.0254379
0.0361994
0.0242175
0.024393
0.0231198
0.0589905
1.12164
0.0248341
0.0417993
2.63681
0.0239809
0.0222948
0.0411826
0.0266013
0.0238823
3.24571
0.0261762
0.0285908
3.02
0.0250657
0.0258255
0.125768
0.0247446
0.0261096
0.0245774
0.024302
0.0239111
0.894285
0.273785
0.191277
0.0243129
0.0242983
0.0670076
0.366521
0.0251413
0.23471
0.0232097
0.0249439
2.25412
0.0257031
0.0221412
0.0542607
0.0466837
0.0979316
0.0248969
0.127405
0.0354147
0.0258759
0.891393
0.0245571
0.0518832
0.0323741
4.00175
0.0246079
0.0246466
2.88971
0.0426285
0.024395
0.0580152
0.0225126
3.29369
4.55222
3.2336
2.50495
0.123517
0.0550231
0.370001
0.0258386
0.248399
0.0251502
2.96315
0.0241713
0.0226582
0.0481375
0.0970552
0.0364251
2.30214
0.0225359
0.136059
0.143111
0.0241543
0.0535893
2.92576
0.027474
3.65873
0.0372789
3.07826
3.0321
0.0238995
0.0470452
0.0248954
0.0321466
4.11991
0.0266736
0.033253
0.0506626
0.0244926
3.8252
0.0265121
0.023702
0.312936
1.11641
0.0243595
0.721265
0.0719986
0.0242582
0.0303367
0.0723502
3.60909
0.0240753
0.0838841
0.0323165
3.3295
0.0615926
0.124007
0.0922551
0.0349446
0.0241523
0.0329434
0.0256393
0.0268504
0.0260529
0.0326003
3.62395
0.329753
2.09364
0.0225449
0.0391381
0.10809
3.20838
0.05879
0.0263877
0.0249762
2.39343
0.0408888
0.0248277
0.0239279
0.0256073
3.57001
0.0248925
0.024116
0.0254912
0.0239587
0.0243389
0.0241675
0.0302547
3.01581
0.0255683
0.038451
3.0695
0.0590388
0.0278238
0.0242333
0.0237016
0.0249225
0.0602458
0.32354
0.0244948
0.026507
0.0253824
0.319472
1.18034
0.396037
0.027874
3.19511
0.0323867
0.0267781
0.0235639
0.522904
0.119826
0.306676
0.0248947
0.0640047
0.0235569
3.83358
0.319778
0.0246058
0.024135
0.334777
0.0242873
3.00071
0.0368293
0.328892
0.0250845
0.032537
0.057928
0.205352
0.0258333
0.0237433
0.0225612
3.74635
0.0242113
0.0955115
0.024293
0.0248626
0.0244762
0.0243423
0.0422999
3.23653
0.0467959
3.58991
0.0259636
0.0494278
0.0275966
0.0274691
3.96893
0.0488239
0.0238361
3.18803
2.84853
0.0244276
0.0250041
0.0232904
0.0245957
0.073884