/*--------------------------------*- C++ -*----------------------------------*\
| =========                 |                                                 |
| \\      /  F ield         | OpenFOAM: The Open Source CFD Toolbox           |
|  \\    /   O peration     | Version:  v2012                                 |
|   \\  /    A nd           | Website:  www.openfoam.com                      |
|    \\/     M anipulation  |                                                 |
\*---------------------------------------------------------------------------*/
FoamFile
{
    version     2.0;
    format      ascii;
    class       volScalarField;
    location    "300";
    object      p;
}
// * * * * * * * * * * * * * * * * * * * * * * * * * * * * * * * * * * * * * //

dimensions      [0 2 -2 0 0 0 0];


internalField   nonuniform List<scalar> 
54593
(
0.000735754
0.00199332
0.000874497
-0.0581921
-0.0378298
0.000439733
-0.0012798
-0.0611826
-0.0465954
-0.0443557
-0.0129559
-0.0613885
0.000704972
-0.00197169
0.000677021
0.000865056
-0.0577019
-0.0110444
0.000870937
-0.0636246
-0.000472819
-0.0138896
4.56593e-05
-0.000516056
0.000957276
-0.0522135
-0.00178068
0.000629186
-0.00217834
0.0010526
-0.00049096
0.00487236
0.000667676
-0.0111559
0.000742904
-0.000469633
-0.0570588
0.0034205
0.00557201
0.00656476
-0.00734383
-0.00298065
-0.00961415
-0.0131818
-0.00139203
0.000103316
-0.00118923
-0.00250292
0.00303485
-0.0140012
-0.00140016
0.000135836
-0.000541361
-0.0503525
-0.0368342
-0.0130609
-0.0612792
-0.017149
0.00764883
0.00108188
0.0035107
-0.0134084
-0.00873051
-0.0130095
-0.0595589
0.00599081
-0.0152417
-0.0720406
0.000128905
-0.00127568
-0.0603506
-0.0038795
-0.0500157
0.000662281
0.000786472
-0.00120053
0.00604114
-0.0224763
-0.00841589
-0.0562371
-0.000511846
-0.0229073
-0.0601687
-0.0714273
-0.00925219
-0.000396088
-0.062151
-0.000336115
-0.000358678
-0.0606322
-0.000141495
-0.000424243
-0.0683394
-0.0231358
-0.00436604
-0.04616
-0.000496959
-0.00769974
-0.00954392
0.000752815
-0.00248373
-0.0645273
-0.0131581
-0.0652975
0.00185626
-0.0504136
-0.00387604
-0.0552554
0.000654188
-0.00986444
5.71615e-05
-0.022605
-0.0599229
0.00294915
-0.00383232
-0.015102
-0.0109113
0.000154731
0.0017098
-0.0025072
-0.000188007
-0.0653653
-0.0519101
0.00439359
-0.00950824
-0.0575721
-0.00367647
-0.0101799
-0.071938
-0.0212239
-0.020753
-0.00430326
-0.000235352
-0.00729355
-0.0132825
0.000752618
-0.0506959
-0.0518325
-0.00964468
-0.0199609
-0.0151857
0.00104696
-0.0100729
-0.0577185
-0.00920778
-0.00745485
-0.0241537
-0.0277205
-0.00998952
-0.0583794
0.00106268
0.0091428
-0.00778176
-0.000329809
-0.0426576
-0.0621749
-0.0605407
-0.00428409
0.00186366
-0.00787692
0.0013852
-0.0712441
-0.0725506
-0.00129933
-0.0633417
-0.0226737
8.66329e-05
-0.000114434
-0.0184471
0.000100199
-0.0910381
-0.0113979
0.0010525
-0.0385974
-0.0207113
-0.0101546
-0.0482443
-0.00998592
-0.0574691
-0.00126997
0.000738698
0.00158813
-0.0753088
0.00333548
0.00192828
0.000693412
0.0320262
-0.00984818
-0.000385341
0.000689808
-0.00721989
-0.0656016
-0.00278946
-0.0135459
-0.0623107
-0.0171899
-0.00354472
-0.00413827
-0.0620136
0.00160169
-0.0849886
0.000797388
-0.00926485
-0.0562682
-0.0555906
-0.00907408
0.00091406
-0.05644
-0.0133876
0.030838
-0.014705
-0.0614607
-0.0438333
0.00823854
-0.014165
-0.00918706
-0.0342208
0.000482929
0.000673282
-0.0142806
0.000923792
-0.0906685
-0.00376253
0.00472511
-0.00504679
-0.0610267
-0.00453116
-0.0873198
-0.00673842
-0.0725106
0.0133986
0.000652194
-0.0192408
-0.000593882
-0.0444396
-0.018258
-0.00915808
-0.00412
-0.0622705
-0.00222951
0.000679353
-0.0057044
-0.00929721
0.000679621
-0.0371441
-0.0041743
-0.057975
0.000223291
0.00103169
0.000965112
-0.0615335
0.000685045
-0.0548468
0.000622266
-0.0279445
-0.00191321
0.00398624
-0.0868747
-0.0609989
-0.00556943
-0.000386861
0.000704588
-0.0547234
0.0265062
0.00302145
-0.0442557
0.000676989
-0.0017681
-0.00686215
0.000692051
-0.0538608
0.00100871
-0.00373972
-0.0617095
-0.0616231
0.0322945
-0.00757765
-0.0146373
-0.0476995
-0.021951
-0.00558389
0.00107531
0.00105074
-0.0572579
-0.0637328
0.00790517
-0.0582674
-0.000781176
-0.0628679
-0.00784225
0.0010778
-0.0283145
-0.00259171
-0.0702777
-0.0255193
-0.0157263
0.00241359
-0.00375745
-0.00100242
0.00208151
-0.0482483
-0.0403682
0.0016854
0.00321866
-0.0212694
-0.0630501
-0.0602674
-0.063328
0.00283008
-0.0683264
-0.00043454
0.00754003
-0.00182143
-0.0588199
-0.062197
0.00338033
-0.064403
-0.0194068
-0.056389
-0.00995903
-0.0749374
-0.0670498
-0.00898515
0.00348969
-0.00412377
-0.00821587
-0.0168274
0.00362173
0.000676281
-0.0648396
-0.0615476
0.000733579
0.00229608
0.000559641
-0.0568546
-0.00930207
0.000745322
0.0021701
-0.00798655
-0.000221278
-0.00648689
-0.020283
-0.0570621
-0.000161845
-0.00160252
-0.0582741
-0.00985009
0.0035761
-0.0104794
-0.0015982
0.00273465
0.000334969
0.0174473
-0.00780236
0.00348165
-0.0433053
-0.000330014
-0.0600752
-0.00282152
0.00206281
0.0010023
0.0018798
-0.0637975
0.000946393
0.00197162
-0.0671029
0.00190849
0.000452054
-0.00397941
-0.0203212
0.000182658
-0.0017374
0.000709185
0.00201996
-0.0168745
-0.0480013
-0.0487219
-0.0276599
-0.0624345
0.01185
-0.0453678
-0.0159394
-0.0688122
-0.0407261
0.00512274
-0.0438966
-0.0559415
-0.0415285
-0.0376811
-0.000309488
-0.00127591
0.00443076
0.00107461
0.00266494
-0.000194359
-0.0239874
-0.0572214
-0.023766
0.00017427
-0.00147671
0.00196495
7.52129e-05
0.000921693
-0.0508722
0.00285977
-0.0622155
-0.0564583
-0.00446672
0.00377675
0.00282587
-0.0153456
0.00395108
-0.0616721
0.00101396
0.000716357
0.000587295
-0.0603147
-0.0557279
0.00232238
0.000670837
-0.0900224
0.00105866
-0.000239371
-0.0701162
0.00228069
0.00224623
-0.0619048
3.00471e-05
0.0019481
-0.0155057
-0.0145701
0.00225134
-0.0655301
0.00010626
0.000476143
0.000783959
-0.0026802
0.00130845
-0.0632661
0.00126212
-0.0643219
-0.0238599
-0.00682965
-0.0392578
-0.0599909
-0.00418566
0.00131291
0.00052597
-0.0618143
-0.0640958
0.00124826
0.00200137
-0.0567602
0.00070176
0.00702287
0.00196543
0.0023054
-0.0544852
-0.00908422
0.00119282
-0.0623345
0.000701079
-0.00922988
0.00119223
-0.0150024
0.00241567
-0.0471704
-0.0589889
-0.0131703
-0.0100855
-0.0643032
-0.0112446
-0.0611175
0.000635619
-0.00592473
-0.0375218
-0.0619004
-0.00755743
-0.0451163
0.00156907
-0.00217809
0.0322871
-0.00922699
0.00395119
-0.0591838
-0.0621503
0.00232374
-0.00274267
2.23044e-05
0.0010905
-0.0616145
-0.0711938
0.0104479
-0.00600179
-0.060377
-0.0900278
0.00220379
7.69134e-05
0.0029573
-0.0115358
0.000431715
0.0261873
-0.00059801
-0.0116218
0.000722734
0.000585605
0.00247016
0.00076675
0.00229605
0.0167251
-0.0196021
-0.0138442
-0.00750159
-0.00250981
4.52679e-05
3.67102e-05
0.000932757
-0.0039164
-0.0705383
-0.0457336
-0.0456162
-0.0603057
-0.058087
-0.044618
0.00984081
-0.0369419
0.000409753
-0.0151998
-0.0212367
-0.0107863
0.00181759
-0.070237
-0.0158852
-0.0625847
-0.0895484
0.0058273
0.0108788
-0.0404182
-0.0621794
-0.060839
-0.0134257
0.00259893
-0.00996743
0.00273763
-0.0170099
-0.00994261
-0.0471297
-0.00777538
-0.0123269
-0.0202428
0.00265375
0.00107028
-0.0341815
-0.00484075
-0.00611253
-0.00157372
-0.00522038
-0.0704269
-0.0104377
-0.0577895
-0.015696
-0.00150699
0.0144217
0.00237464
-0.0619002
0.00239565
-0.0562063
-0.0036827
-0.000754081
0.00157255
0.000931353
0.00124217
-0.000306055
-0.0107008
-0.0591395
-0.00542478
-0.00592785
-0.017384
-0.0587883
-0.000340224
-0.00755916
-0.00903894
-0.0697164
-0.0616788
-0.00148081
-0.0573713
-0.00864648
-0.0610925
0.00259321
0.00128616
0.00120834
0.00131841
0.00361212
-0.0712108
-0.06403
-0.0249566
0.00247713
0.0161907
-0.0106923
0.00548635
0.0118778
-0.00491884
-0.0101818
-5.65672e-05
-0.0813297
0.0014377
0.0263693
-0.0301668
0.0250337
-0.0711102
-0.00636367
-0.000629919
-0.00416179
-0.0240699
-0.00985474
-0.00666207
0.000753131
0.00376351
0.00406543
-0.00466829
-0.0243398
-0.00827072
-0.0719777
0.0213816
-7.61984e-05
0.00872044
-0.0134142
-0.0084274
-8.94458e-05
-0.0097264
-0.0714159
-0.00295262
-0.00627188
-0.0118485
3.92552e-06
0.0367908
-0.0217435
-0.0120124
-0.0164694
-0.0610225
-0.0576891
0.0015262
-0.0223148
-0.00311055
0.00279679
0.00217402
-0.023023
-0.0691634
-0.0100757
-0.0620594
-0.0601662
1.73125e-05
-0.00895078
-0.0135648
-0.00935462
0.00249316
-0.0223561
0.00507643
0.000198194
-0.0610248
-0.0206521
0.0389234
0.0172709
-0.0393548
-0.00243784
-0.0226611
-0.042211
-0.00868711
1.62954e-05
0.0262735
-0.0694775
0.00050595
0.000142114
-0.0658531
-0.0284983
-0.0567968
-0.0813881
-0.0702713
0.0147406
-0.0674291
-0.00088571
-0.00452053
0.0131775
0.0021685
-0.0102989
-0.000370572
-0.0166751
-0.0466078
-0.0664219
-0.0135562
0.0002801
-0.00359972
-0.0387912
-0.0809625
-0.0362226
-0.0586062
-0.0615099
-0.0723433
-0.0300634
1.32396e-05
-0.0356831
-0.00365554
0.00248973
0.00312151
-0.06324
-0.00922071
0.0257058
-0.0661976
-0.0116974
0.000715363
0.00390665
-0.0284539
0.0020163
0.00189653
0.000714221
-0.019259
2.09766e-05
-0.009932
-0.0116684
-0.0164852
-0.0135997
-0.00558691
-0.0619493
0.000945886
-0.0569544
-0.061123
2.91003e-05
0.000892398
-0.0636956
-0.0482461
7.60314e-05
-0.00286513
-0.0586276
-0.00171967
-0.0382018
-0.000665649
0.00119383
0.000530114
-0.030379
0.00208901
-0.0235507
0.011967
5.18121e-05
-0.0585545
-0.0100181
0.016783
0.000647308
0.00121045
-0.0626413
-0.00164682
-0.00178671
-0.0625585
-0.00387075
-0.0266734
0.000689777
0.0291029
-0.0652593
0.00242878
0.000412824
-0.0459325
0.000612878
0.00208748
-0.0564324
0.00238224
-0.0349657
-0.0240629
0.000285972
0.000515536
-9.20527e-05
-0.0704497
0.00139706
0.0244313
-0.0318672
0.00104554
0.00178489
-0.00770815
-0.00811506
-0.0362664
0.00205416
-0.0154457
-0.0219498
0.00103675
-0.0227095
0.00309193
-0.0317667
-0.0484555
-0.0605182
-0.0577982
-0.0604221
-0.00781811
-0.0205641
0.00142168
-0.00539751
0.0010612
0.00273756
-0.020209
0.00244793
-0.0307452
0.0175858
0.0192943
0.00233743
-0.0610363
0.00380878
-0.0226714
-0.0675193
-0.0602904
-0.0465788
7.17994e-05
0.00270497
-0.0328874
0.00116861
-0.0328079
0.0203796
0.0113431
0.00117639
0.00265732
-0.00530922
-0.00749966
-0.0644016
3.82762e-05
-0.0806969
0.00135788
-0.0578727
-0.0109704
0.000760046
-0.00184506
-0.0457961
0.00231941
0.00133635
0.0013441
-0.00433636
0.00490116
0.000755667
-0.0112619
-0.0580912
0.00961209
-0.0419444
-0.0300329
-0.0632225
-0.0633118
-0.0568698
-0.0243565
-0.00503907
-0.0641631
0.0197623
0.0123287
-0.0369317
-0.0126979
0.000944775
-0.00387866
-0.0134038
-0.0198007
-0.0577737
-0.0614031
-0.00776105
-0.0725087
-0.0421381
-0.0108522
0.000704469
-0.0582479
-0.00788986
-0.0345178
-0.0364386
0.000902576
-0.00394523
0.0148515
-0.063424
-0.0616278
-0.0588293
0.00212083
-0.0174379
-0.00931392
-0.00863057
-0.00147811
0.00180055
-0.0679626
-0.0607189
-0.0274688
-0.0901145
0.00132555
-0.00818106
-0.00910383
0.00136274
-0.0734123
-0.0104391
-0.0464802
0.00119751
-0.00885726
0.0065381
-0.0461678
-0.00702803
0.00267163
3.05756e-05
-0.0268593
0.00120513
0.00269355
0.00149977
-0.00879801
0.000911853
0.0013107
0.00239436
-0.00370754
-0.0271722
-0.0429913
-0.00426604
1.86714e-05
-0.0300144
0.00108772
0.00103501
-0.0102569
-0.0425649
-0.0644749
0.00258234
-0.00281651
-0.018683
-0.0921745
-0.0302039
-0.0162097
-0.0463523
-0.00630498
0.0020991
-0.00559512
-0.00963039
-0.0584824
0.00222153
-0.070892
-0.0598587
-0.00401755
0.000732557
-0.0192023
-0.0118242
-0.00941243
-0.00312303
-0.021539
0.000895409
-0.0620178
0.00089952
-0.0811762
-0.00784437
-0.000511079
0.00121689
-0.0290171
-0.0611649
-0.0381903
0.038669
-0.0275023
0.000742655
0.000908419
0.00137088
-0.0114939
-0.0111515
0.0152531
-0.0575337
-0.0608421
-0.0266515
0.0170199
-0.0336098
-0.000559568
0.0013626
0.00280428
0.0122538
-0.0732302
-0.00773712
-0.00363415
0.00237627
-0.0697499
-0.0361533
0.00135615
-0.00763252
-0.0118943
-0.0083486
0.00155734
-0.0339728
-0.00948923
0.00921012
-0.0729353
-0.0599879
-0.0838684
-0.0359669
0.000563021
-5.63405e-06
0.0275694
0.0177105
-0.00262544
-0.00896491
-0.0135189
0.000728969
-0.0135962
0.000724696
-0.0339453
0.00188367
-0.0112224
-0.00354235
0.000728639
-0.0912898
-0.0722426
0.00102962
-0.0523388
-0.0136576
0.000239104
0.000701389
-0.0598686
-0.0101614
-0.0258513
-0.000300163
0.00228221
0.0201928
-0.0662199
0.00141444
-0.0266353
-0.00288412
-0.00157482
-0.080734
-0.0085809
0.00078447
0.0267257
-0.0585717
-0.010189
-0.000198532
-0.0134396
-0.0184543
0.00945171
-0.0618126
0.0312009
-0.0234817
-0.0649799
-0.0673348
0.000803833
-0.0102423
-0.0608359
0.000652057
0.000242504
-0.0103438
0.00398443
0.000936917
-0.0100719
-0.0101452
0.00830551
-0.0117893
-0.0232356
-0.0598976
-0.0617044
-0.0454828
0.00253695
0.0270192
0.00137422
-0.0422579
0.00227085
-0.0294681
-0.00118538
0.000779185
-0.0670529
-0.0246536
-0.0615724
0.0101685
0.000556395
-0.0609907
-0.0226704
-0.0600731
-0.061069
0.000689741
-0.000343977
-0.00565921
-0.0138898
-0.045411
0.0056379
-0.0308126
-0.0131849
-0.00140674
0.031991
-0.038262
-0.017512
0.000897411
-0.0655739
0.0377583
0.000787765
0.00237726
-0.0119426
-0.0129865
-0.00751575
-0.0607538
0.00849964
-0.0669166
0.000693401
0.000632628
0.00124627
-0.0591993
0.000688191
0.00115054
0.00329112
0.00123415
-0.0351752
-0.00332925
-0.00179489
0.00245293
-0.00594219
0.0281903
-0.0735109
-0.00359853
-0.0747963
-0.0434777
0.00114088
-0.0186441
-0.045033
-0.037555
0.0115134
0.000432923
0.00109771
-0.0312069
-0.00736934
-0.0346262
0.000716993
-0.0226947
-0.0173797
0.00140677
0.000236746
-0.00717913
-0.000109508
0.000955185
-0.00583505
-0.000896985
-0.0155395
-0.0542198
-0.00188114
-0.0157243
-0.0647121
-0.0337536
0.00022191
-0.00344239
0.000659044
0.00141156
0.00103178
0.00186724
-0.0572483
0.00166898
-0.00669772
0.00131641
0.000729627
0.00143326
-0.0708915
-0.0406642
-0.029783
0.000631679
0.00205703
-0.0118583
0.00243163
-0.021884
-0.00849485
0.000955098
-0.0107514
-0.0218655
-0.00994092
-0.00795462
-0.0418733
0.000782242
-0.0618378
-0.0615844
-0.0180721
-0.00571096
0.00681459
-0.00734397
-0.0702673
0.000645982
0.00165807
0.0285831
-0.023005
-0.0100781
9.79559e-05
-0.0597865
0.000278573
-0.0209824
-0.0622046
0.00209534
0.000894067
-0.0036807
-0.0159296
-0.0131493
-0.000271446
0.000643759
4.9272e-05
-0.0035711
-0.0610533
0.00265564
-0.00940886
-0.0654268
-0.0463168
0.00223072
-0.0102079
-0.0272119
-0.00562385
-0.00718725
-0.000165164
-0.0361491
-0.00300096
-0.0242669
-0.0138272
-0.0388976
0.0243373
-0.00802145
-0.0222486
-0.0410412
0.000718464
-0.00726919
0.00168108
0.000142029
-0.000279439
-0.0388668
-0.016996
0.00138492
-0.0234298
-0.0159844
0.00162891
0.0059656
-0.0253582
0.0275247
-0.0117962
-0.0345953
0.000224438
-0.0172026
-0.0152331
0.000762998
-0.0811647
0.000786453
-0.0173111
-0.0086007
-0.00366876
-0.0226984
-0.0192905
2.8011e-05
-0.0443338
0.00150594
-0.00663486
0.00237374
-0.0235686
0.000275161
-0.0301727
0.00662989
-0.0345635
-0.0590862
-0.00141428
-0.0415815
-0.018256
0.000851818
-0.0190834
-0.00629258
0.00684195
-0.00994415
3.94146e-05
-0.00846542
-0.005933
-0.0158047
-0.066602
-0.0092944
0.00387437
-0.0437804
0.00222724
0.000914249
-0.0133669
0.0181436
0.00140554
0.000780375
-0.0249566
0.000689806
-0.0705007
-0.0294696
-0.00522257
0.00072409
-0.0135749
-0.00120654
-0.0113037
-0.000843983
-0.0669467
0.00151865
-0.00823522
-0.0050081
0.00149793
-0.0260379
-0.046739
-0.0248426
-0.0299567
-0.00906403
-0.0182836
-0.00788255
0.002103
-0.00504883
0.00119672
0.000740413
-0.01622
-0.00702734
-0.0307984
-0.0417114
-0.0133523
-0.0575766
0.00107367
0.000997053
-0.00112473
-0.0563371
-0.0175812
-0.0172935
0.00198601
-0.0469015
-0.00970644
-0.00149744
-0.00598157
0.000842004
-0.0605227
-0.0260359
-0.00810443
0.00117104
-0.0169843
0.000931211
-0.0352178
-0.0461899
0.0012973
-0.000233066
0.00120927
-0.0181386
0.000914415
0.00059191
-0.0573146
-0.0218409
0.000986953
-0.0695984
-0.0566214
0.000710963
0.00121016
0.0384716
-0.0586923
-0.0011908
0.000766363
-0.0304858
0.00387993
-0.0615498
0.00117316
0.00204904
-0.0304471
0.000945164
-0.0149181
-0.0138792
-0.000823407
-0.00333682
-0.00799385
-0.000805072
-0.000686395
0.000716739
-0.0148197
-0.00860932
-0.0151964
-0.0711706
-0.0174142
-0.0184594
-0.0101856
-0.0166838
0.000731774
0.000967834
0.00121881
-0.0289988
0.00138738
-0.000341224
-0.00439032
-0.00352135
0.000311981
-0.0195382
-0.0511237
-0.0160764
-0.00190806
0.00454931
-0.0200358
-0.0370396
-0.0465641
-0.060284
-0.0158728
-0.00227239
-0.00071812
-0.0380343
-0.0147038
-0.00903775
0.0381455
-0.00775413
-0.00156125
-0.0665203
-0.0620132
-0.00334336
-0.0408477
3.65097e-05
0.00490094
0.0145532
-0.0102509
0.00143979
-0.000325122
-0.0177759
-0.00154779
-0.00219037
-0.061152
-0.0351973
-0.0264219
-0.000387215
-0.00664096
0.00102965
-0.00875576
-0.000246101
-0.000475014
-0.0100435
0.0001619
-0.0262052
-0.0168832
-0.0140595
-0.0103092
-0.0516829
-0.00670749
-0.00265048
-0.0585681
-0.0195599
-0.0616187
-0.0187263
-0.0658908
-0.0103276
-0.0476112
-0.0178079
-0.0339047
-0.0585968
0.00118599
0.00665209
8.90529e-05
-0.000150994
0.0239011
-0.0360845
-0.0612829
0.000227201
-0.0389295
0.00212667
-0.022097
-0.01788
-0.0104452
-0.00938442
-0.000326617
-0.0792241
0.00724213
-0.0316022
0.000995803
-0.000101992
-0.06669
0.0145408
-0.00558206
-0.0386578
0.00591495
-0.00834528
0.00100396
-0.0194208
0.00246663
-0.0352749
-0.0611108
0.00063768
-0.0101975
-0.0389872
-0.010415
0.000985168
0.00218462
-0.000150424
-0.0140887
-0.0380568
-0.0191524
-0.0918736
0.000333598
-0.0129757
-0.0102693
0.000344763
-0.0134502
-0.0629075
-0.0166076
-3.5021e-05
-0.0107036
-0.0343876
-0.0038496
0.00189082
0.000785113
0.000743882
-0.0578454
-0.0240687
-0.00839176
0.00213485
0.000977426
-0.0420357
0.000810148
-0.000394958
-0.00400601
-0.0163223
-0.000239111
0.00069685
-0.00816976
-0.00573884
-0.0600222
-0.000933374
-0.043977
-0.0114102
-0.0119202
-0.0213742
-0.0133766
-0.00831365
0.00095168
-0.046769
-0.0439915
-0.0304825
-0.00505539
-0.0747633
0.00219161
-0.000504175
0.00265556
-0.0607692
-0.0603697
-0.00745362
-0.00314277
-0.00716916
-0.00305501
0.00108533
-0.0039929
-0.0596005
-0.0471573
-0.0585395
-0.0086193
-0.0221269
-0.00649029
0.00105869
0.000989244
-0.0476644
-0.035178
-0.0768664
-0.00545892
0.00796069
-0.0081209
-0.0599762
0.0127595
-0.0457218
-0.0126863
0.000897309
-0.00306522
-0.0515575
-0.00318072
-0.0612527
-0.0135734
-0.0229456
-0.0193874
-0.0358034
0.00180202
-0.0212947
-0.0315554
-0.00509073
-0.0130103
0.00243863
-0.0048532
0.00586358
-0.00764262
-0.00265554
0.0135446
-0.00363049
0.000812132
-0.0614024
-0.065698
0.0187915
0.00454912
-0.022998
-0.0674495
0.0246869
0.00010527
-0.0036549
-0.0614668
-0.00993338
0.00068429
-0.00357256
-0.00573759
-0.0613068
-0.018546
0.000805508
0.00655794
0.000399439
-0.00291368
0.00342632
-0.00596534
0.000707052
-0.00694891
-0.0611553
-0.0213571
-0.00374104
-0.0108457
-0.0605344
-0.0363851
-0.059083
0.00186269
-0.0228504
0.000630683
-0.061415
0.00113921
-0.00152196
-0.0438359
0.0282191
-0.0187205
-0.0357938
-0.0712911
-0.061136
-0.0180869
-0.0694839
-0.0467169
-0.013567
-0.0115945
0.00135776
-0.000875237
-0.0059436
-0.00412501
-0.0609701
0.00101933
0.000746474
0.000810578
-0.0362608
-0.053421
-0.0499727
0.00151341
0.00074335
-0.0393656
-0.0538777
0.00274547
-0.000871879
-0.00371129
0.00102621
-0.0068484
-0.0189406
-0.0233433
-0.050247
0.00350617
0.000938721
-0.0226428
-0.00112715
-0.0607243
-0.0173607
0.0015276
-0.0583442
-0.0126127
3.63683e-05
0.00118541
0.000937592
0.000518958
0.000374904
0.00169749
-0.0312799
-0.00208891
-0.00691104
0.0105614
-0.0157783
-0.068213
-0.0126953
-0.00385556
-0.00590435
0.000919966
-0.0211474
-0.00460807
-0.0667708
0.000941106
-0.00587337
-0.014052
-0.016674
5.31912e-05
-0.00206114
-0.00330584
-0.0585095
0.00399213
0.00582113
-0.0623235
-0.0245262
-0.0615274
-0.0291831
-0.0582847
-0.0113223
-0.0671103
-0.0142884
0.00179197
0.000800364
0.00193495
5.40338e-05
0.000612436
-0.0176132
-0.0130343
-0.0630348
-0.0779425
-0.00705222
-0.00950296
-0.0272359
0.000354756
-0.0315298
0.000680515
0.00148148
0.000865699
-0.00441009
-0.0179515
-0.0574316
-0.0569822
-5.28388e-05
-0.0475556
-0.0448768
-0.0001207
-0.00588304
-0.0473304
-0.00155426
-0.0130347
-0.0166346
-0.0566112
0.000765652
-0.0129011
-0.0132492
-0.0629522
0.000816987
-0.0612357
0.000360356
0.000663065
0.000904189
-0.0112895
-0.0612776
0.000680332
-0.0112662
-0.00051216
-0.040184
-0.0244383
0.00551905
0.000190764
-0.0519812
0.00422886
-0.00150428
2.58094e-05
0.000483439
-0.0268376
0.0010105
-0.0315071
-0.0363715
0.000662041
-0.000359841
0.000721248
-0.00282141
0.000497527
-0.0150012
-0.00163218
-0.0210115
0.00086066
-0.0157637
-0.0595998
-0.0673966
0.024195
0.000739577
-0.000879275
-0.0355399
-0.0410717
0.00211712
-0.0147328
-0.00224262
0.00146738
0.00567128
-0.0472123
-0.061161
-0.0589006
-0.0731214
-0.00234698
-0.0195949
-0.0408593
-0.0149647
-0.00157185
0.00108685
0.000474707
-0.0601674
4.02372e-05
-0.0106127
-0.061653
-0.0613361
-0.0243835
-0.00288559
0.000737302
0.00209975
0.00118415
-0.0110494
-0.0169629
-0.0227027
-0.0388453
-0.00585784
-0.0127928
-0.0592562
0.000752706
-0.00677631
-0.0364237
-0.0165116
-0.061637
-0.00763992
-0.0608704
-0.0267291
0.000773917
-0.058543
-0.00968723
-0.0448077
-0.0111093
-0.00577396
-0.0338935
0.0141293
0.000452523
-0.0533487
-0.0641165
-9.86367e-05
-0.00313962
-0.0647381
-0.0468657
-0.00448591
-0.042706
-0.016073
0.00939851
-0.00362988
-0.0617648
-0.0106402
0.00114419
-0.000100544
-0.0535459
0.000103008
-0.0179691
0.00895617
0.00226241
0.000782243
-0.00223073
0.000823522
-0.0649046
0.00251893
-0.00215154
0.0066787
0.00112282
-0.00259784
-0.000173286
0.000763322
-0.00597006
0.0017886
-0.00607107
-0.00220248
-0.004629
0.00376347
-0.0369064
-0.0113902
-0.0369301
0.00036732
-0.0141011
-0.00260834
-0.0239085
-0.00458397
0.0163961
0.000942725
-0.00247718
-0.0420609
-0.0173239
-0.0615803
-0.0573361
0.000781428
-0.0609065
0.000933139
-0.0531547
-0.0052484
-0.0738865
-0.000233806
-0.0109397
0.000671239
0.000162614
-0.00419033
-0.00332387
0.00458111
0.00149743
-0.00260566
0.00224723
0.00184836
0.00204988
-0.00107048
-0.010105
0.000907654
0.0253147
-0.00437566
-0.0611017
-0.0643345
0.000903632
0.000127297
0.0366781
-0.0638362
0.000951527
0.000913858
7.91017e-05
-0.00115175
-0.0182859
-0.0603994
-0.0372323
-0.0216303
-0.0263072
-0.0440879
-0.012973
-0.0363477
-0.0281405
-0.0673436
-0.00421731
0.00520452
-0.060121
-0.0615196
-0.00117295
-0.0124885
-0.0103314
0.00192049
-0.0195275
-0.0611096
-0.0592362
0.00127146
-0.0629616
-0.00214989
-0.0341261
0.00952971
-0.00614443
8.07526e-05
0.00124755
-0.0583202
-0.00948068
0.00121799
-0.0636089
-0.00133213
0.00181808
-0.0105737
-0.0278948
-0.00128669
0.00203592
-0.0264392
0.00123215
0.000300381
-0.0369264
0.00158305
-0.0705843
0.00111543
-0.0343448
-0.00318303
-0.0602978
-0.041789
-0.0375335
-0.0197707
-0.0590936
-0.000206595
-0.0654612
0.00114412
-5.2644e-05
-0.0126204
0.00112696
-0.023511
0.00401641
0.00114437
-0.0126307
-0.0155078
0.000840024
-0.000347233
-9.71758e-05
-0.0617335
-0.00465759
-0.045872
-0.00215515
0.00116363
-0.000685364
-0.00251621
-0.0613169
-0.00428745
-0.00338373
-0.00596774
-0.0634156
-0.0607477
-0.0179259
0.00232403
-0.0182614
0.00145443
-0.0308069
0.0341554
0.000848965
2.2168e-05
-0.00153438
0.0341184
0.00793207
-0.00942529
0.00539674
0.00248389
-0.0136925
0.000143304
-0.00376129
0.000799611
0.00163233
-0.0627494
-0.0349119
0.0102004
-0.0387751
-0.0598005
-0.00257193
0.00119979
-0.000179471
-0.0598462
0.000406709
-0.010924
-0.000492304
-0.00295695
3.90787e-05
-0.0264521
0.00218504
-0.0169147
-0.00245541
0.000332049
-0.00141168
-0.0727714
-0.014644
-0.0044556
0.00171365
0.00183822
-0.064802
-0.00246666
-0.0688675
0.00122613
-0.00171324
-0.057115
0.00631576
0.000697176
0.0147579
-0.00946419
-0.00275794
-0.0175272
-0.0383206
-0.041365
-0.0218343
0.000745424
0.000964954
-0.080595
-0.000466391
-0.0156531
-0.00293717
0.00189144
0.00136312
0.00626995
0.000779325
-0.00427399
-0.0614959
0.000814531
-0.0437583
-0.0625535
-0.0201351
-0.058443
0.00111158
-0.0233966
-0.00276846
0.00187623
-0.0640063
-0.0105356
-0.0602425
-0.0104154
0.0254978
-0.00170711
0.000856496
-0.0470875
-0.00171861
-0.0016216
-0.0060682
0.0128714
0.00378318
-0.0198813
0.000666404
0.00643167
-0.000755958
-0.0607312
-0.054971
-0.0142944
0.00132838
0.000854392
-0.0637286
-0.0102837
0.000873926
2.23693e-06
0.000172387
-0.00116448
-0.0690181
-0.00195253
-0.014239
-0.0607482
-0.0354083
-0.0419228
-0.052194
-0.00762957
-0.0110061
0.00118463
0.000736206
0.00229566
0.000867433
-0.0268636
0.00141299
0.000733761
-0.0251534
-0.0198662
-0.00381109
-0.061489
-0.010078
-0.011185
-0.0150486
-0.0933034
0.0224492
-0.000736927
-0.0058653
-0.0423084
-0.0251658
-0.0610947
0.00136675
-0.0465944
-0.0364896
0.00112349
-0.0600687
0.00123891
-0.00275305
-0.0436769
-0.0611806
-0.0596936
-0.0688077
-0.0348277
-6.92748e-05
-0.0621227
0.00016928
-0.00960243
0.00136343
-0.0117971
-0.0103301
-0.0633439
-0.0459644
-0.0606909
-0.00358471
-0.0628089
-0.060959
-0.0643083
0.00131087
0.00123977
0.00508094
-0.0337961
-0.0014304
-0.0117083
-0.0418086
-0.030058
0.00546728
-0.00548634
-0.00768995
-0.0578002
-0.00452035
-0.0120302
0.00125256
0.000811978
-0.0599614
-0.00796354
0.00154867
-0.000121557
-0.0150913
-0.0419121
-0.00979394
-0.0112942
-0.00198386
0.00206277
-0.00239407
-0.00342913
-0.0115221
-0.062051
-0.06222
0.000853299
-0.0437261
-0.0203641
0.000345198
-0.00197507
-0.000368333
-0.0614336
-0.00210296
-0.0374686
-0.0419375
-0.0913778
-0.0107626
-0.0577012
-0.00830859
-0.00951479
-0.0018698
0.00164728
-0.000720675
-0.0037896
-0.000163742
-0.0118259
-0.0589375
-0.0625745
-0.00761879
-0.00979474
-0.014062
0.000688889
-0.070738
-0.00102491
0.00148655
0.000905305
-0.00372244
-0.00550969
-0.0141404
-0.0145111
-0.00861437
-0.032788
-0.0607899
-0.0100562
-0.0581014
-0.00398326
-0.011122
-0.0424074
0.00154113
0.0141526
-0.0145148
-0.0635138
-0.00968868
-0.00777161
-0.0611919
0.000764882
0.000725756
-0.0100087
-0.00373222
-0.0263014
-0.00444369
-0.0376122
-0.0636031
0.000951955
-0.00769829
-0.00965149
-0.0577179
0.0181715
-0.0703273
-0.00713542
-0.026734
0.000671215
-0.0339718
-0.0131866
0.00100031
-0.002955
0.00145695
0.000766097
-0.0140228
-0.0633335
-0.00784979
-0.0352257
-0.00107519
-0.0154358
-0.00997791
-0.0198356
-0.000708533
0.011684
-0.0654998
-0.00184816
-0.0422188
-0.0413438
-0.0111366
-0.0277273
0.00209756
-0.0566687
-0.0169658
-0.0300591
-0.00897368
0.000724873
-0.000178002
0.000883545
-0.0223304
0.00520797
0.000433209
-0.00780522
-0.0379769
-0.0085583
0.00777398
0.0195489
-0.0557005
-0.0112409
-0.0636659
-0.00475483
-0.0142902
0.000743866
-0.0583731
-0.0576371
-0.00932778
-0.0190157
-0.000168805
-0.00165846
-0.000926968
-0.00384445
0.000642682
0.000552228
-0.0272594
-0.0188558
-0.0235458
-0.00828003
-0.00803094
-0.0374514
-0.0164602
-0.0644275
-0.00526282
-0.00880738
-0.0172732
-0.00575546
-0.0690727
-0.0605457
-0.0101595
-0.0462443
-0.0221808
0.0257568
-0.00204625
-0.0463684
0.00513967
-0.000350541
2.92936e-05
-0.0614927
-0.00529252
0.00501966
-0.00454143
-0.00899569
0.0083478
0.00110862
0.00133279
-0.000885654
-0.0371688
0.00435694
-0.0102348
0.00174566
-0.0279844
-0.0432578
0.00355304
-0.0425479
-0.000305719
0.00530847
-0.0184815
-0.033814
-0.0468737
-0.0609984
-0.0290976
-0.0726141
-0.00102543
-0.00543445
-0.0144482
-0.056736
0.000905385
0.0029925
-0.0464798
-0.0307775
-0.0759979
-0.00278817
-0.00521099
-0.0193795
-0.0163223
-0.0117796
-0.0464579
0.000959578
-0.0366242
-0.0607556
-0.0011814
0.00118502
-0.00483572
-0.039885
-0.0305991
-0.010975
0.00126349
0.000831956
-0.0225727
-0.00210799
0.00224994
-0.0228831
-0.0166025
-0.0234801
0.00184019
-0.000779788
-0.058108
0.00112756
0.00379783
-0.0369219
-0.00106716
-0.0412521
0.00723954
-0.0183519
-0.0591121
-0.0216058
-0.00726492
0.00089275
-0.0164485
-0.00570332
0.000690703
-0.0252
-0.0420929
-0.0280561
-0.029052
-0.00649154
-0.0346804
-0.0153905
-0.00463418
0.00207585
-0.0351363
0.000250813
-0.0678896
0.0106008
-0.0314282
0.000480988
-0.0414052
0.000829365
-0.0609144
0.000826926
9.49948e-06
-0.000969598
-0.0350317
-0.00408483
0.00104797
0.00364952
-0.0630729
-0.0641334
-0.0238148
-0.00398472
-0.0407726
0.00275209
-0.0172986
0.00140688
-0.0953235
0.00306593
-0.00292048
-0.0147272
0.00124932
0.00114075
0.00127434
-0.00805282
-0.0325763
0.000824714
-0.046696
-0.0112409
-0.0688443
0.00136608
-0.046373
0.00201078
0.000958269
-0.0348533
0.00071958
-0.0568133
0.00277295
-0.0246582
0.0077285
0.00119312
-0.0151374
-0.021177
2.71013e-05
-0.00688467
-0.00642371
-0.0324976
-0.0266032
-0.0132573
0.000851204
0.00116731
-0.016159
0.000967925
0.031235
-0.00626187
-0.00739625
-0.0359648
0.0048829
-0.00961307
-0.040196
0.00333941
-0.000826894
-0.000195703
0.00482626
-0.0101295
-0.063388
3.50045e-05
-0.0567281
-0.0702186
0.000854128
-0.0644344
0.00103606
0.000266979
-0.000767618
-8.64949e-06
-0.0602388
-0.00367235
-0.0256574
-0.0702516
-0.0340254
-0.00364473
-0.00316633
-0.010457
-0.000200065
0.00095018
-0.0246112
0.00968878
0.00906534
2.84542e-05
-0.00398129
-0.0139218
0.000481005
-0.0121604
-0.0388903
-0.0175236
-0.000785439
-0.059339
0.000929673
-0.00269689
-0.00831541
-4.70408e-05
0.00100942
-0.0350799
-0.0578244
-0.0057083
0.00073108
-0.0117287
-0.00325492
0.00132006
-0.012966
-0.0496598
-0.00688982
-0.0035135
-0.057335
-0.0232881
0.00115718
-0.0743354
-0.000642219
-0.000905359
0.00528244
0.000815763
-0.0245362
-0.0589723
-0.000860722
0.000949569
-0.0355188
-0.000243316
-0.00438963
0.00209449
-0.000241542
0.000952217
0.000372411
-0.0360159
-0.0338264
0.000887528
-0.0101766
-0.0236546
0.00266004
-0.0138129
0.000607754
0.00140631
-0.0113249
-0.00123581
-0.0138297
-0.00431229
0.0037146
-0.0122223
-0.00322661
0.000322041
-0.0160466
-0.02149
0.000769683
-0.070768
-0.0616892
-0.0649595
-0.0641978
3.62345e-05
-0.023407
0.00479358
-0.0680297
0.000721375
0.000400872
-0.0167083
-0.000204059
-0.0515264
-0.0444257
0.00629822
0.0076345
-0.0631051
-0.0113818
-0.0338651
-0.034772
-0.0120562
-0.0234518
-0.0229109
0.0130362
-0.0635097
0.0120483
-0.0447825
-0.0160552
0.0019919
0.000709508
-0.00866751
-0.00766616
0.000121731
-0.0354748
-0.0569727
-0.00385648
-0.0302854
-0.0704968
-0.0601896
-0.0276321
-0.002868
0.0006633
-0.00259198
-0.0456026
-0.0583364