/*--------------------------------*- C++ -*----------------------------------*\
| =========                 |                                                 |
| \\      /  F ield         | OpenFOAM: The Open Source CFD Toolbox           |
|  \\    /   O peration     | Version:  v2012                                 |
|   \\  /    A nd           | Website:  www.openfoam.com                      |
|    \\/     M anipulation  |                                                 |
\*---------------------------------------------------------------------------*/
FoamFile
{
    version     2.0;
    format      ascii;
    class       surfaceScalarField;
    location    "300";
    object      phi_0;
}
// * * * * * * * * * * * * * * * * * * * * * * * * * * * * * * * * * * * * * //

dimensions      [0 3 -1 0 0 0 0];
oriented        oriented;


internalField   nonuniform List<scalar> 
81438
(
-0.216367
0.320199
-0.103832
-0.293372
0.100591
0.192781
-0.315282
0.0989155
0.0465197
0.0140605
-0.0605801
0.0498438
-0.08314
0.0332962
0.248585
0.0716137
-0.206464
-0.0684377
0.274902
-0.0446003
-0.0120394
0.0566397
0.011368
-0.0604063
0.0490383
0.0432651
-0.102227
0.0589615
-0.331902
0.22017
0.111732
-0.0494979
0.0437837
0.00571426
-0.362492
0.269622
0.0928696
0.0718942
-0.282275
0.210381
-0.0681586
-0.244858
0.313017
-0.269632
0.346021
-0.0763892
0.0160744
-0.0135858
-0.00248867
0.238864
-0.228109
-0.0107551
-0.333722
0.0640898
0.0478685
-0.0109857
-0.0368828
0.18322
-0.0439071
-0.139313
-0.104881
0.167783
-0.0629027
-0.0806081
0.297509
-0.216901
0.276109
-0.0373496
-0.23876
0.0389616
-0.256394
0.217432
-0.0193904
0.0810302
-0.0616398
0.270116
-0.129361
-0.140755
0.233904
-0.302062
0.0903393
-0.0310188
-0.0593205
-0.316536
0.138783
0.177753
-0.0886204
0.167821
-0.0792004
0.0545249
-0.19761
0.143085
-0.231815
0.328834
-0.0970182
0.161471
-0.116309
-0.0451622
-0.221437
0.284495
-0.0630573
0.299226
-0.149391
-0.149835
0.0664998
0.0530463
0.134079
0.125421
-0.2595
-0.0944982
0.0544103
0.0400879
0.232363
-0.109206
-0.123157
0.100057
-0.124969
0.0249118
0.376921
-0.168217
-0.208704
0.12566
-0.212833
0.0871732
-0.142532
-0.096059
0.238591
0.165642
-0.275274
0.109632
0.163052
-0.218715
0.055663
-0.25138
0.00776483
0.243615
0.095228
0.174888
-0.147556
0.281635
-0.152486
0.0476054
-0.130182
0.295824
0.257828
-0.23745
-0.0203777
0.285499
-0.23562
-0.0498785
0.146998
-0.0937659
-0.053232
-0.140028
0.0866971
0.053331
-0.172741
-0.159161
0.00862705
-0.0532273
-0.119431
-0.060332
0.179763
-0.166136
0.060235
0.105901
-0.289993
-0.0180137
0.308006
-0.0514704
-0.0430279
0.19331
-0.146866
-0.0464439
-0.202837
0.0894312
0.113405
-0.149682
0.208668
-0.0589859
-0.0103786
-0.00620398
0.0165826
0.119063
0.1133
-0.138122
-0.118074
0.256196
0.00275609
0.0207583
-0.0235144
-0.0149874
0.272815
0.0362884
-0.242753
0.0202808
-0.0113107
-0.00897014
0.207118
-0.291453
0.0843354
0.0996145
0.0473835
-0.258705
0.0268896
-0.0565296
-0.219303
0.275833
-0.282389
0.0310092
0.137294
-0.195657
0.0583629
-0.128089
-0.0203226
0.148412
-0.0145429
0.1146
-0.0503374
0.102679
-0.0523419
0.239654
0.0364554
-0.215751
0.100152
0.1156
0.0113659
0.00891491
-0.0200545
-0.00130903
0.0213635
0.131514
-0.224486
0.0929722
-0.221774
0.294492
-0.0727186
0.0411591
-0.045611
0.00445185
-0.0568401
0.24006
-0.300071
0.0782967
0.0589504
-0.00431528
-0.0546351
0.0855821
0.187665
-0.273247
0.146114
0.153113
0.0186609
0.00330993
-0.0219708
-0.0685319
-0.147219
-0.19024
0.252985
-0.0627447
-0.11334
0.0823554
0.0309844
-0.142097
-0.0439965
0.186093
-0.0395358
-0.13915
0.178686
0.213326
-0.0876657
0.225794
-0.319623
0.0938286
0.327035
-0.171649
-0.155385
0.0033528
-0.0387414
0.0353887
0.0436281
-0.0532254
0.0134578
0.0397677
0.176351
-0.275884
0.0995329
-0.0126997
0.0580958
-0.0453961
0.281944
-0.0748262
0.0549019
-0.0835367
0.0286349
-0.232983
0.326658
-0.0936752
-0.152901
0.23303
-0.0801292
0.0318338
-0.219462
0.187629
-0.00354343
-0.124546
0.00745117
0.00760791
-0.0150591
0.206452
-0.158168
-0.0482843
0.247404
-0.152176
0.077382
-0.244261
0.166879
-0.00467226
0.243536
0.157473
-0.212852
0.0553795
-0.0962737
0.272625
0.167074
0.15996
-0.275081
0.193081
0.0819997
0.0502311
-0.0534256
0.00319454
0.0730902
-0.0924806
0.161864
-0.0641709
-0.0976929
-0.0201528
0.121724
-0.101571
0.0153948
-0.00297881
-0.0124159
-0.0513324
-0.141496
0.192828
-0.133733
0.076115
0.0576183
0.0239912
-0.0212351
0.211354
-0.151987
-0.0593678
-0.043611
0.148672
-0.105061
-0.0798428
0.199036
-0.119193
0.039759
0.200154
-0.239913
-0.000867185
0.0886553
-0.0877881
0.0735221
-0.216054
-0.302601
0.0811639
0.0202294
-0.0888402
0.0686109
0.0376941
-0.0503939
-0.138836
0.118683
-0.173925
0.242749
-0.0688247
0.2347
-0.157318
-0.265025
0.34042
-0.0753947
-0.169918
0.216816
-0.0468978
-0.0175264
0.0189675
-0.0014411
0.226631
-0.0951179
-0.105515
0.104648
0.0367534
-0.11299
0.0762362
0.0304615
0.0737774
-0.104239
0.0391631
-0.192064
0.00466771
0.0114067
-0.345458
0.142399
0.203059
-0.165983
0.0777768
0.0882058
0.201236
-0.155033
-0.0462025
-0.194376
0.264914
-0.0705388
0.0719189
-0.126176
0.0542569
0.0438841
-0.00272493
0.0538523
0.00509808
0.0874138
0.15999
-0.331428
0.142472
0.188956
0.139164
-0.1787
-0.0859025
-0.155873
0.241776
0.0222609
0.0438874
-0.0661483
-0.0210229
0.000968401
0.0105188
0.194019
-0.204538
0.0505218
-0.00265338
0.0547333
0.0978803
-0.152614
0.210467
-0.0529939
-0.212185
-0.0595555
0.27174
-0.0904892
0.246488
-0.155998
-0.235961
0.267795
-0.0285501
0.00674769
0.0218024
0.258509
-0.338848
0.0803386
-0.192273
-0.153185
0.0860594
-0.0307482
-0.0553112
-0.151527
0.107916
0.0506219
-0.22054
0.0227894
0.0455085
-0.0682979
-0.147976
0.0590033
0.0889725
-0.000102907
-0.0174235
-0.246588
0.257107
0.230241
-0.328904
0.0986628
0.352617
-0.154076
-0.198541
0.0042687
-0.0251814
0.0209127
0.0273532
0.142657
-0.17001
-0.167636
-0.163792
0.284397
0.00261747
-0.287015
0.00685006
-0.0397824
0.0329323
-0.0668369
-0.137889
0.204726
0.0483647
-0.190461
-0.150737
-0.211754
0.257773
-0.0437853
-0.213988
-0.0357794
-0.017446
0.141287
0.235634
-0.0594856
0.265401
0.045164
-0.0475135
0.00234946
0.0783277
-0.197759
-0.31808
0.21943
0.0986496
0.18688
-0.1488
-0.0380797
-0.0462557
0.0456201
0.000635678
0.14903
0.203587
-0.00552926
-0.0233173
0.0288466
0.305572
-0.0716686
0.00453204
-0.25402
0.249488
0.0427478
-0.097405
0.0546572
-0.000645552
-0.0093822
0.0100278
-0.00183453
0.126992
-0.125157
-0.329483
0.26656
0.062923
0.107719
-0.0649715
0.327211
-0.321178
-0.00603327
0.0473709
-0.0405208
0.280238
-0.26013
-0.0201087
-0.00231344
-0.0471845
0.0232778
-0.0791
0.0558222
-0.0983675
-0.067615
0.284841
0.0105439
-0.295385
0.00284499
-0.109631
0.106786
0.0740021
0.0407479
-0.11475
-0.0405867
-0.274695
0.308337
-0.203288
-0.105049
0.268823
0.0160178
-0.269849
-0.0596339
-0.014359
-0.0141911
0.213404
0.0685395
0.0811196
-0.0267092
-0.294277
0.174531
0.0469303
-0.0504947
0.00356432
0.0834029
-0.163246
-0.026393
-0.00330124
0.0296942
0.131841
-0.0784464
-0.0533944
0.00225877
0.0217325
0.143535
-0.0515814
-0.0919538
-0.305442
0.0724589
0.0449652
-0.129532
0.0845664
0.165749
-0.209656
0.103663
-0.0603983
-0.245012
0.154523
0.119889
-0.18561
0.0450481
0.000115947
0.0215784
-0.283796
0.262217
0.221802
0.0865343
0.237392
-0.33282
0.0954279
0.188094
-0.279973
0.0918795
0.307025
-0.0852222
-0.0449187
-0.0951094
0.272902
-0.0215517
-0.251351
-0.0288897
0.0355887
-0.00669895
-0.158131
-0.061769
0.2199
-0.33395
0.15373
0.18022
0.235969
-0.197007
0.00772284
-0.0451131
0.0373903
0.244125
0.0402721
0.0810041
-0.0261022
-0.353499
0.283498
0.0700013
0.175608
-0.0332709
-0.142337
0.264708
-0.192814
-0.213557
0.282121
-0.0685634
-0.0319222
0.0453122
-0.0501745
0.00486232
-0.163362
0.275175
-0.111813
-0.21651
0.286769
-0.0702584
-0.227027
0.299213
-0.0721864
0.0456298
0.0156968
-0.0613267
-0.146762
0.0567466
0.0900152
0.0188881
-0.151831
0.132943
0.0571596
-0.0637893
0.00662965
0.125546
0.104279
-0.166608
0.0623293
-0.232207
0.157991
0.0742162
0.237613
-0.321791
0.0841783
0.0269955
-0.0552294
0.0282339
0.0647221
-0.222853
0.290682
-0.0772774
0.0478216
-0.0521607
0.00433916
0.0537573
-0.0460345
-0.0534259
0.0240472
0.0293788
0.156277
0.0449583
0.0209356
0.259303
0.0660536
0.0134633
-0.0795169
0.236324
-0.156301
-0.0800239
-0.270171
0.106809
-0.301034
0.121232
0.179802
-0.21974
-0.114211
-0.093261
0.0368515
0.0564094
-0.0166272
0.000266241
0.0163609
-0.241799
0.107539
0.134259
0.0577868
-0.10376
0.0459734
-0.0150397
-0.11797
0.133009
-0.0358068
0.0459142
-0.0101074
-0.207374
0.0523409
-0.261322
-0.0286705
-0.0111923
0.1868
-0.0313642
-0.101212
0.132576
0.0163358
-0.0228367
0.00650088
-0.0357831
0.0897861
-0.054003
0.221667
-0.160751
-0.0609167
-0.0573493
-0.20174
0.259089
0.228408
-0.279741
-0.128918
0.113878
-0.318606
0.162403
0.156203
-0.018643
0.0606264
-0.0419834
0.0131513
-0.0725291
0.0593778
0.284426
-0.0997956
-0.18463
0.194803
-0.175915
0.067933
0.00497155
-0.0729046
-0.0482228
0.0124159
-0.0322258
0.0033361
0.0154882
-0.0117973
-0.00369082
0.0260593
-0.0486791
0.0226199
-0.00468704
0.207796
0.0777029
-0.150087
-0.0917121
0.171898
-0.0676197
-0.016926
0.0015393
0.0153867
-0.0358708
-0.0109958
0.0468666
0.0178747
-0.158579
0.140704
-0.00156514
-0.015062
0.0405692
-0.119789
0.0792203
-0.0614593
0.00225115
0.0592082
0.1387
-0.205537
0.0274949
-0.0232262
-0.032179
-0.028086
0.060265
-0.164347
0.243737
-0.0793897
-0.136237
0.154112
0.030912
0.24199
-0.249686
0.278306
-0.0286203
-0.00756065
-0.0832609
0.0908216
0.0512444
0.143559
0.260257
-0.292415
0.0321581
-0.0421102
0.00298964
0.0391205
0.050815
-0.00299347
-0.0809334
0.311175
-0.210488
-0.108117
-0.04774
0.296325
0.0500056
-0.100343
-0.149105
0.2166
-0.0674949
0.1607
-0.258684
0.0979839
0.223273
-0.336817
0.113544
0.0340717
-0.123162
0.0890908
0.307505
-0.105448
-0.202058
0.0655695
0.0662712
0.142191
-0.224211
0.0820204
0.00180899
0.0997924
0.207713
0.0742717
-0.277928
0.203656
-0.000299597
-0.0210992
0.0213988
-0.0621511
0.200851
0.196049
-0.144804
-0.075238
-0.0584953
0.314994
-0.0311267
-0.283867
0.189397
-0.259831
0.0704341
0.31616
-0.117865
-0.198295
-0.170973
0.0650775
0.105895
0.181368
-0.0422042
-0.131226
-0.0134794
0.070639
-0.142919
0.199241
-0.0563226
-0.0310142
-0.00121163
-0.119212
0.0878477
0.267696
-0.0314141
-0.236282
0.135081
-0.326738
0.191656
0.0865075
0.197918
0.00433066
0.0111575
-0.234507
0.304229
-0.069722
0.303423
-0.0801501
0.0384273
-0.0706063
-0.278443
0.0967604
0.181683
0.277974
0.0169263
-0.2949
-0.195481
0.260439
-0.0649577
-0.0217049
0.0896379
0.120037
0.0904292
0.0651409
-0.194502
0.303841
-0.16876
0.0147193
-0.272558
0.257839
-0.101869
0.0943083
-0.0684118
0.0497688
0.00120516
-0.0546465
0.0534414
0.0938769
-0.0634155
-0.046082
0.0102112
-0.168753
0.148947
0.0198061
0.0049623
0.0668133
-0.0717756
0.0826343
-0.0307645
-0.0518698
0.0161582
0.000265678
-0.0164239
0.0591203
-0.045969
0.194858
-0.140333
0.0774863
-0.0542085
0.0764492
0.0312701
-0.0737864
0.027193
0.0465934
-0.00912046
0.0660933
-0.0569728
-0.27311
0.0787341
-0.0044233
-0.124495
-0.115777
0.169394
-0.0536165
-0.184334
-0.142404
0.177992
-0.11478
-0.0632119
0.25414
-0.214381
0.201336
-0.147461
-0.0538747
-0.0344668
0.100967
0.0645811
0.136755
0.0574926
0.232496
-0.289988
0.151281
-0.155704
-0.1509
-0.0751833
-0.178155
0.253339
-0.235927
0.338566
-0.102639
0.079223
-0.0589936
0.076388
0.101604
0.0534701
0.0327456
-0.00751669
-0.0539427
0.0372602
-0.131598
0.0943374
0.212476
0.0550526
-0.267528
0.204561
-0.154718
-0.0498425
-0.153422
0.230554
-0.0771326
0.267427
-0.0549516
-0.00484631
0.0182077
-0.297702
0.122269
0.175434
-0.228199
0.300419
-0.07222
0.280725
0.00829453
-0.28902
-0.00792667
0.0153778
0.19335
-0.250699
-0.0935316
0.254232
-0.0244534
-0.00484136
0.0292947
-0.174137
-0.159187
-0.115894
-0.0422867
0.0424708
-0.000184051
0.27262
-0.0564944
-0.216126
0.258633
-0.187045
-0.0715881
-0.041421
0.0442001
-0.00277904
-0.0920895
-0.166847
0.258936
0.259665
-0.244946
0.0682456
0.053148
0.0294863
-0.207483
0.260066
-0.0525828
0.0134319
-0.0137002
-0.0694409
0.189478
0.205717
0.0981246
0.228025
-0.302813
0.0747875
-0.335487
0.254998
0.0804888
0.326383
-0.215614
-0.110769
0.0408703
-0.044609
0.00373876
0.0323367
0.184876
-0.217213
-0.0103415
0.0491628
-0.0388214
-0.0683738
0.156365
-0.0879912
-0.059627
-0.153685
0.213312
-0.0760466
0.111372
-0.0353257
-0.0317083
0.000694065
0.160319
-0.0371178
-0.123201
0.138001
0.188382
0.155249
-0.0233966
-0.131852
-0.0385541
0.0469713
-0.00841717
-0.00625056
0.0262654
-0.0200148
-0.187637
0.219974
-0.0140354
-0.258523
-0.0564233
-0.0409816
0.22927
-0.307315
0.0780456
-0.125683
-0.0404534
0.251425
0.00824002
0.0462523
0.226368
0.050442
-0.0234466
-0.193354
0.156005
0.0373492
0.234148
0.0635617
-0.29771
0.0419709
-0.0407969
-0.00117405
0.307786
-0.0785167
-0.23285
0.237383
-0.0715341
0.305682
-0.115506
0.0306196
0.0848869
-0.273443
0.26422
0.00922357
0.0866635
-0.0206099
0.014311
0.00465644
0.0607053
0.166257
-0.226963
0.267496
-0.216874
0.032157
-0.0424985
0.120375
-0.0598243
-0.0605508
-0.0539844
0.0345739
0.0194106
-0.012421
0.16767
0.125006
-0.0717992
-0.053207
-0.06171
0.0525896
0.0470922
-0.00320814
0.133938
0.0474307
-0.0566968
0.10062
-0.0439228
-0.293087
0.207184
0.198317
-0.265966
0.0676489
-0.025034
-0.0283919
0.107332
-0.0619043
-0.0454276
-0.232991
0.171511
0.0614803
-0.0219825
0.0238716
-0.00188912
0.0034168
0.0568932
-0.162646
0.0703023
0.0923437
-0.22273
0.315048
-0.0923181
-0.334113
0.134248
0.199866
-0.0334855
0.0869556
0.0293001
-0.0333166
0.0040164
-0.102579
0.0658723
0.0367072
-0.0943527
-0.0610845
0.155437
-0.0131191
0.0140351
-0.000915997
-0.0190259
0.0046669
0.0825306
-0.269576
-0.193293
0.140163
0.0531305
0.157798
0.0467625
-0.298079
0.212578
0.0855009
0.275313
0.00266126
0.00219982
-0.074316
0.0721162
0.257431
-0.181351
-0.0760804
-0.0791618
-0.218917
-0.212315
0.30481
-0.092495
0.249804
0.0309209
-0.0608858
-0.200583
0.261469
0.0582996
0.22617
-0.28447
-0.0758679
-0.197576
0.146691
0.0194066
-0.166098
-0.12494
0.196141
-0.0712014
0.03232
-0.274314
0.241994
-0.0477253
0.204003
0.091505
-0.28556
0.194055
0.108691
0.165406
-0.274098
-0.0498002
0.0603456
-0.296273
0.0230147
0.137304
0.0555879
-0.0601688
0.00458097
-0.0805999
0.018863
0.0617369
-0.0517345
-0.0139836
0.000864487
0.0188237
-0.000452263
-0.0183715
0.0408864
0.0597332
0.175636
-0.0978591
0.0802497
-0.0304059
-0.292178
0.0473194
0.133284
-0.271406
0.15926
0.0520945
0.171907
-0.252969
0.0810624
-0.314369
0.123325
0.191044
0.0514568
0.00413102
-0.206721
0.0459708
-0.0414833
0.000686457
-0.0277546
-0.0480436
-0.127265
0.175309
0.0771618
0.0984741
-0.104272
0.0524799
0.0517918
0.0386331
0.00223715
0.0136152
-0.115788
-0.0423383
0.158126
-0.10696
0.230367
-0.123408
0.0555698
0.211926
0.233869
-0.150742
-0.0831275
0.0753527
0.0979471
-0.1733
-0.138112
-0.114753
0.252865
-0.0494362
0.0608043
-0.174658
0.0355082
-0.118206
0.0572255
0.0609803
0.131377
-0.0482188
-0.083158
0.12691
-0.194201
-0.139912
-0.0488672
0.122869
-0.0921482
0.045222
0.0469263
0.156975
-0.0949012
-0.062074
0.27815
0.0368438
-0.0902309
-0.0347039
0.124935
-0.047074
0.00478727
-0.170904
0.0847439
0.0861597
-0.0354742
-0.264923
0.190781
0.0564324
-0.261671
0.205239
0.0985172
-0.090876
-0.00764126
0.194108
-0.254994
0.0435702
0.00352204
0.21187
-0.164105
-0.0477654
-0.000381165
0.00947197
-0.0090908
0.155673
-0.2153
-0.149102
0.0604817
-0.179913
0.13071
0.0492031
-0.228285
-0.047582
0.275867
0.298349
-0.0948274
-0.203522
-0.30286
0.274712
0.0281479
-0.0886239
-0.0822797
-0.0233222
0.00133968
-0.154954
-0.0361483
0.191103
0.0850776
0.0718975
-0.0639309
0.167617
-0.103686
-0.0552484
-0.0485117
-0.276095
-0.0267651
-0.147937
-0.0450409
0.192978
0.0622843
0.0322868
-0.00298663
-0.0503118
0.0483529
0.00195889
0.243739
-0.187307
-0.0139849
0.0110061
0.216497
-0.0895057
-0.0239086
-0.0300758
0.208438
-0.268689
0.0602507
0.204378
0.0766863
-0.281064
0.115393
0.182956
0.306182
-0.101805
-0.163728
0.0676511
0.0960766
0.0630601
-0.0407992
0.0445508
0.0153199
-0.0598706
0.0944718
-0.0555665
-0.0389052
0.0916906
0.138677
0.179077
-0.0323861
-0.0878464
0.259753
0.124191
-0.172234
0.118813
-0.0202959
0.319444
-0.154523
-0.164921
-0.0940225
-0.063089
0.157111
-0.210138
0.274147
-0.0640092
0.0348892
-0.0101008
-0.0247885
-0.194453
0.273936
-0.0794829
-0.0912128
-0.0555489
0.185237
-0.128567
-0.0566699
0.144206
-0.0874594
-0.0482457
-0.0119231
0.120196
-0.134739
-0.300879
0.168455
0.132424
0.195589
0.123855
-0.14802
0.0922157
0.0558047
-0.0228082
0.115379
-0.0925704
-0.0212654
0.141461
0.298472
-0.0726777
-0.193738
-0.0392535
0.0538701
0.0625437
-0.0247188
-0.0378249
-0.0866306
-0.0613897
-0.302167
0.309502
-0.00733486
0.0539898
-0.0510305
-0.00295929
0.0418477
-0.06387
0.0220222
-0.275886
0.0657483
0.0336212
0.0474984
-0.0286607
-0.0904545
0.119115
0.10528
0.111218
0.310555
-0.224973
0.102762
0.0587094
0.00574408
-0.147318
0.202308
-0.0549896
-0.151267
0.209242
-0.0579756
0.164341
0.0471791
-0.21152
0.224634
0.076592
-0.301226
-0.0465483
-0.00545554
0.0520039
-0.139579
0.0553314
0.0842474
0.12041
-0.00450492
-0.115905
0.175546
-0.251483
0.075937
0.0480048
-0.00269267
-0.0186268
0.025279
-0.00665214
0.298194
-0.0651117
-0.233082
0.0214926
-0.12251
0.101018
-0.110735
0.0456363
0.0650984
-0.0517783
0.260216
0.060059
0.238134
0.140838
-0.0655238
-0.075314
0.0162367
-7.84451e-05
-0.121471
0.098663
-0.00120767
0.00524479
-0.273311
0.0866578
0.186653
-0.197551
0.274233
-0.0766822
0.0374695
-0.184336
0.0642211
0.149226
0.0626442
-0.104875
0.126368
-0.155573
0.110337
0.0452359
0.152255
-0.318116
0.165862
-0.00324414
0.0437129
-0.133473
0.0897603
-0.0038243
-0.042724
-0.0633899
-0.039455
0.102845
0.0376111
-0.113658
0.28194
-0.190435
0.0587303
0.0821075
-0.0578006
0.129719
0.0956639
-0.150335
0.0546711
0.0636035
0.104217
-0.0618629
0.144613
-0.0827501
-0.0524561
0.0476795
0.00477661
0.313414
-0.205512
-0.107902
0.128282
-0.140703
0.0584373
-0.084147
0.0257096
0.017768
-0.063534
0.045766
0.0193871
-0.00507603
0.0331254
0.00235593
-0.0354813
0.0339091
-0.00162234
0.0704537
-0.0415313
-0.0289225
-0.0465534
0.0643422
-0.0177889
-0.267567
0.0831762
0.184391
0.0174149
0.217539
-0.234954
-0.138106
-0.0306471
-0.312843
0.100878
0.211964
0.0873664
-0.181389
-0.0836088
-0.183958
-0.0884235
-0.0225807
0.111004
0.0556728
0.0309908
0.00879546
0.00744122
0.0897461
-0.118407
0.14065
-0.199221
0.0585709
0.182903
-0.291564
0.10866
-0.0397408
-0.0433992
0.0354695
-0.0342767
-0.00119272
0.0977257
-0.0506278
-0.0470979
6.77773e-05
-0.0124373
0.0123695
-0.0218784
-0.0358751
0.0577535
0.00273132
-0.0490282
-0.0366293
0.0856575
0.309701
-0.0273895
-0.282312
0.0385825
0.0591432
-0.194709
0.146133
0.048576
0.300151
-0.0977235
-0.202427
0.0517341
0.0430303
0.00394099
0.266335
-0.0782409
-0.168511
0.0546301
0.113881
0.0302718
-0.026919
-0.0606496
0.22499
0.223981
-0.301179
0.0771973
0.0461883
-0.020129
0.0611055
-0.0433375
0.19225
-0.136337
-0.0559135
-0.247422
0.321065
-0.0736433
0.307416
-0.0834351
0.114999
-0.0314709
-0.0835286
0.240797
0.0689043
0.0715043
-0.125422
0.0539177
0.113073
0.00733721
-0.156712
0.251196
-0.0944841
0.0472238
-0.163012
0.176042
-0.0909645
0.00411304
0.00874664
-0.0128597
-0.329835
0.0953273
-0.0210026
-0.0410209
0.0620235
0.0197281
0.0432018
-0.0629299
-0.3052
0.224592
-0.227856
0.312741
-0.0848848
-0.0237283
0.0682791
-0.0482311
0.284448
-0.175757
0.0347305
0.0278131
0.01161
-0.0115422
0.293649
-0.199729
-0.09392
0.0416574
-0.0903287
0.0486713
-0.175213
-0.125666
0.334552
-0.156067
-0.178485
0.0929691
-0.276609
0.18364
-0.0280063
-0.092767
0.120773
-0.230231
-0.0301172
0.260348
0.0413727
0.053099
0.0733868
-0.0356374
-0.0377495
-0.253383
0.0864551
0.166927
0.0207919
0.000704338
-0.0214962
0.0894744
-0.227586
-0.0390402
-0.0442726
0.0833128
0.231787
0.0921062
-0.323893
0.142602
0.19195
0.040952
0.00207835
0.220232
0.0734176
-0.213412
-0.0134195
0.226832
-0.0331601
0.0317393
0.00142082
-0.13521
-0.0594983
0.00901964
0.0520859
0.293475
-0.286992
-0.00648295
0.0674149
-0.0652151
0.0129639
0.000467948
-0.0547873
-0.200081
0.254869
0.228708
-0.299889
0.0711806
-0.0413048
-0.0603843
0.101689
0.348566
-0.138505
-0.210061
0.0241987
-0.25443
-0.00751116
0.00713
0.253479
-0.0601296
0.0695973
-0.128764
0.0591664
0.106093
-0.0693394
-0.160413
0.19443
0.154136
-0.0713487
-0.204887
0.276236
0.0315975
0.00231164
-0.300295
0.128738
0.171557
0.0947989
0.0494071
-0.0190554
0.0603584
-0.041303
-0.268773
0.0666698
0.202104
-0.119972
-0.194398
0.341415
-0.304328
-0.037087
0.0410793
0.129616
-0.170695
-0.104005
0.0533769
0.0529201
0.13933
-0.105228
-0.010279
0.162562
0.0737621
-0.0794138
-0.18936
-0.0816714
0.136405
-0.0813765
0.270774
-0.0613226
0.0422672
-0.0456224
0.0573963
-0.00354393
0.068219
-0.0216993
0.0515485
0.00584771
-0.0714434
0.132099
-0.0883857
-0.195446
-0.104848
0.0851136
0.0909286
-0.283039
-0.055445
-0.165738
0.221183
0.0475447
0.0845539
0.0528964
-0.08674
0.184569
-0.0620754
-0.108897
0.0126809
-0.0760707
0.189419
-0.244207
-0.0341255
0.0314197
0.00270581
0.22761
-0.174572
-0.053037
0.168346
0.0556741
-0.0746394
0.03645
-0.0408314
0.00438141
-0.0737706
-0.0395692
0.265129
0.0126534
-0.277783
0.159724
0.0951198
-0.254844
-0.0392393
0.0421216
-0.00288232
-0.236753
-0.0632872
0.30004
-0.0736877
0.024766
0.0489216
-0.176456
0.111535
0.0649213
0.153354
-0.0761925
0.0622403
-0.298993
-0.123867
0.283592
-0.21588
0.156676
0.0592042
-0.0589199
0.192858
0.00242856
0.264924
0.0312921
-0.296216
0.00487317
0.0305963
0.0387724
0.196285
-0.235058
-0.0130157
0.0152692
-0.00225351
0.201277
-0.205949
-0.0792788
-0.218012
0.297291
0.306079
-0.214615
-0.0914639
-0.100748
0.0594436
-0.0558995
0.245319
0.211176
-0.172403
-0.341379
0.191309
0.15007
0.27581
-0.200765
-0.0750446
0.086641
0.0752228
0.224421
-0.3037
0.195754
-0.223448
0.0276939
0.0185241
-0.0418427
-0.0607368
0.00221552
-0.0442559
0.0420404
-0.00213195
0.0634185
-0.0612865
-0.0436452
-0.00457759
0.0123035
-0.0185541
-0.0663309
0.0453284
-0.172448
0.0858174
0.246007
-0.158593
-0.0184074
-0.00470133
0.0231087
0.0679062
-0.0610009
-0.00690529
0.0493323
0.104022
-0.0379114
-0.0666715
-0.0515343
-0.0417207
-0.258994
0.300715
0.0516691
-0.273958
0.0721019
0.201857
0.063657
-0.188597
-0.0165987
0.0161464
0.046156
-0.0463761
0.000220091
-0.240266
0.16298
0.0772855
-0.0225434
0.0248022
0.0298417
-0.0792053
0.0493636
0.206606
-0.0053293
0.0807597
-0.016834
-9.20168e-05
0.115477
-0.230385
0.114908
0.0846641
-0.031089
-0.0535751
0.131875
-0.0451783
0.304563
-0.255865
-0.0486986
-0.0851861
-0.191083
0.276269
-0.106217
-0.0382439
0.144461
-0.0485165
0.0048713
0.01572
-0.0375984
-0.00815908
0.253661
0.0712704
-0.135201
-0.147156
-0.0461982
0.154052
-0.0583882
-0.0224261
-0.228572
0.250998
0.217472
-0.290212
0.0727405
0.028488
0.00197593
-0.030464
-0.0023862
0.00184826
0.0701331
-0.0719814
0.0163257
-0.021899
-0.0387985
-0.141114
0.172953
-0.0352881
-0.137665
0.0951097
-0.0922647
0.31407
-0.096598
-0.0240111
0.00414497
0.0198661
0.00296727
-0.208294
0.205327
-0.0464604
-0.0252784
0.0717388
0.380504
-0.163327
-0.217177
0.149952
0.0684697
-0.218421
0.190743
-0.053449
0.0810985
-0.0254258
-0.110159
-0.122048
-0.281726
0.0742434
0.0552197
-0.27795
-0.0465469
0.209182
0.171323
0.217232
-0.0594335
0.0503156
0.192732
-0.243048
0.21557
-0.0656179
-0.232805
0.302511
-0.0697065
-0.209179
-0.1322
0.220939
0.079212
-0.173419
-0.0121915
0.00661256
0.0872644
-0.116044
0.0423541
0.0736903
0.175103
0.100707
0.263617
-0.0389831
0.0656156
-0.0677476
-0.166786
-0.350282
0.187451
0.162831
0.125844
-0.0497294
-0.0426504
0.0448659
-0.0226232
0.00421586
0.153548
-0.208993
0.276973
-0.0734442
-0.203529
0.0634153
-0.17608
0.112664
0.0205683
-0.0254097
-0.117283
0.0892764
0.137784
0.0852905
-0.223074
-0.0698321
-0.0107678
0.0119581
-0.202198
0.147044
-0.208206
0.0611621
-0.277319
0.0660072
0.211312
0.172209
-0.14963
-0.0225789
-0.0126068
0.0162664
-0.0036596
0.196109
-0.252008
0.0540297
-0.0336173
-0.0204124
-0.0150907
0.00471203
0.196614
-0.2818
-0.0619454
-0.224958
0.286903
0.110367
-0.0697975
0.0636494
-0.156255
0.0926054
0.0250533
0.203773
0.058647
-0.26242
-0.125992
0.0468438
0.0791484
-0.235628
0.309428
-0.0738003
-0.0307805
0.0299946
0.000785858
0.0689356
0.0338806
-0.000755271
0.244628
-0.129151
0.0640991
0.161821
-0.225921
-0.219103
-0.0436443
0.262747
0.0284598
-0.0970509
0.0685911
-0.0466139
0.00529416
0.0413198
0.00944635
-0.0682622
0.0588158
0.0746003
-0.0366857
-0.0379146
-0.0726345
0.0744827
0.06546
0.233872
-0.299332
0.0385528
-0.294418
0.349044
-0.164167
0.283432
-0.0249226
-0.0167368
0.212491
0.140109
-0.00572819
-0.134381
0.0449611
0.0232579
-0.00312265
0.0167378
-0.0502418
-0.0787984
0.12904
0.0222988
0.048155
0.0393757
0.0838149
-0.123191
0.232554
0.128026
0.221018
0.168504
0.0487273
0.0648642
-0.0951687
0.0303045
0.00718467
0.0102006
-0.0173853
0.201866
-0.095634
-0.106232
0.186068
-0.039935
0.255538
-0.0614294
-0.000999241
0.142002
-0.10532
-0.036682
0.0983091
-0.254183
-0.195662
-0.0877702
-0.186188
-0.255835
-0.0463321
0.0532192
-0.244664
0.191445
0.029537
-0.0952998
0.0657628
-0.103202
-0.00642885
-0.221593
0.0745358
0.147057
-0.0168264
-0.0389476
-0.00188377
-0.0320896
0.00877227
0.0873737
0.0445017
-0.158222
0.267598
-0.109376
-0.157996
-0.113442
0.271438
0.110951
-0.0435363
0.0618993
0.0060069
-0.187022
0.133478
0.0535437
-0.046832
0.127083
-0.0468745
-0.0802083
0.232242
-0.294187
-0.211723
0.156001
0.0557214
-0.0485759
0.280818
0.09401
-0.064473
-0.155118
0.153081
-0.267516
0.114435
0.272338
-0.0882142
-0.184123
-0.0842215
0.296862
-0.212641
0.0230038
-0.00667806
0.0203931
-0.0162481
-0.137459
-0.212823
-0.0571349
0.000635899
0.056499
0.0292201
0.234624
-0.263844
0.152927
-0.0246443
0.286718
-0.340126
0.053408
-0.0392176
0.000269997
-0.0650121
-0.104379
0.169391
-0.0855994
0.0498162
0.0675187
0.194664
-0.262183
0.189286
0.0604379
-0.249724
-0.128018
-0.0484385
-0.00621868
0.0150141
-0.0721097
-0.193051
0.265161
0.0888671
-0.139109
0.0239115
-0.143123
-0.187399
0.003959
0.0309302
0.0591688
0.0481631
0.294785
-0.232054
-0.0627307
0.0526038
0.0583474
-0.0628679
0.049997
0.012871
0.118805
-0.20646
0.0876553
0.0504721
-0.193391
-0.116783
0.164007
-0.159767
0.252203
-0.092436
-0.0591702
-0.0310807
0.0902509
0.042664
-0.0553389
0.0126749
0.047637
-0.0235898
0.114256
0.0507525
-0.165008
0.0395966
0.0106345
-0.0224548
0.0198421
0.00261266
-0.211682
-0.0586215
0.270304
0.0970529
-0.162065
-0.0108829
-0.0391477
0.0500305
0.312439
-0.0490418
-0.263397
0.207563
0.084144
-0.291707
-0.121479
-0.0264973
0.0657626
0.161847
-0.270006
-0.0417714
0.138824
0.20138
-0.082575
-0.242834
0.0969755
0.145858
-0.0939854
0.157635
0.178155
-0.0638997
0.040242
-0.0016089
0.054352
-0.011688
-0.0201918
-0.0574511
0.0776428
0.217084
-0.04858
-0.106549
0.04622
0.0603293
0.202674
-0.274784
-0.0439447
-0.308991
0.234328
0.0746625
-0.113222
0.0763599
0.0368618
-0.0909055
0.265355
-0.174449
-0.276354
0.219825
0.0354374
-0.067986
0.0325487
-0.0982911
-0.0741569
0.00262769
0.0511296
-0.0877095
0.0285393
0.0350311
-0.193253
0.0160981
-0.0192208
0.0355482
-0.130365
0.0948164
0.0379641
0.00227794
-0.046837
0.0513752
-0.00453824
0.00347088
0.188594
-0.192065
0.199463
0.0950291
-0.0356723
-0.234498
0.0980121
-0.218233
0.120221
-0.0742605
0.0540687
0.182066
-0.13588
-0.0461857
-0.132113
0.0629127
0.0692005
0.213469
-0.152764
-0.0127583
0.204062
-0.191304
0.0213828
0.0262542
-0.0522637
0.0419335
-0.0669999
0.0250665
0.0815719
-0.0399679
0.0329741
0.0416262
0.0754822
-0.212266
0.133632
0.0786342
0.156565
0.0601753
-0.21674
-0.0448279
-0.259949
0.304777
0.0768479
0.125018
-0.0590719
0.048189
-0.143706
-0.0991276
0.0164542
0.029259
-0.302191
0.076097
0.226094
-0.223352
0.226822
-0.341885
0.184767
0.157118
0.0284212
-0.0287482
0.000327014
-0.0849546
-0.217237
-0.158231
0.182292
-0.0240615
-0.0873397
-0.196623
-0.145263
-0.0331816
-0.00605773
-0.288972
0.102292
0.186679
-0.200224
-0.0131887
0.0554563
-0.0449854
-0.0471628
-0.0539454
0.0199867
-0.0748861
0.25779
-0.00941291
0.0196135
-0.0716634
-0.044381
0.055962
0.174797
-0.230759
0.0888825
0.0661592
-0.0496983
-0.0164609
-0.0566863
-0.047672
0.104358
-0.15019
0.182608
-0.0324185
-0.306422
0.235361
0.0710615
-0.168859
0.224821
-0.0913099
-0.0408034
-0.134883
-0.0623035
0.197187
0.127623
-0.0622153
-0.0654072
0.0792178
-0.0869623
0.0131596
-0.10594
0.0927802
-0.209749
0.269518
-0.0597691
0.219176
0.0894022
-0.308578
-0.0456174
-0.140722
0.18634
-0.286902
0.0747169
0.311827
-0.111667
-0.20016
-0.149157
0.211038
-0.0618815
0.0783099
0.0120294
0.135764
-0.0821737
-0.0535901
-0.0232866
0.0689164
0.0677963
-0.271801
0.204005
-0.161184
0.220729
-0.059545
-0.0112155
-0.0308946
-0.0732115
0.112587
-0.186474
0.134735
0.0517387
0.188944
0.0833938
0.0950634
0.217375
-0.273453
0.078146
0.195307
-0.105044
-0.192659
0.256496
-0.183232
-0.0732638
0.0654606
-0.0204995
0.311513
-0.162483
0.164337
-0.250017
0.0856799
0.306504
-0.244264
0.205194
0.0589373
-0.264131
0.0190411
0.287463
0.0301815
0.0238482
-0.0458676
-0.0558846
0.101752
-0.146523
0.0780351
0.0684883
-0.324674
0.235816
0.0888578
0.215497
-0.0684527
-0.080307
0.108789
-0.0284818
0.138846
0.069024
-0.20787
-0.0494668
-0.0765254
0.269472
-0.198927
-0.0705452
0.212134
0.0996928
-0.0563146
0.129461
-0.0731462
-0.0510217
-0.111149
0.162171
-0.179773
0.0700359
0.109737
0.142521
0.0304314
0.00570412
0.0677223
-0.0734265
-0.0327179
-0.232718
0.265436
0.000503223
-0.0038068
-0.0413064
-0.178459
0.130198
0.0482608
-0.209963
0.237035
-0.0270719
0.10481
-0.0658737
-0.0389361
0.228886
-0.131602
-0.0972844
-0.0324475
0.0657546
-0.0333071
-0.0736543
0.202099
-0.234817
-0.0179914
-0.0563246
0.134051
-0.100157
-0.0338943
0.1195
-0.0479957
0.0648666
0.144774
-0.209641
0.00246908
0.0259521
0.258048
-0.0504851
0.0756435
-0.0311119
-0.0445315
0.047856
-0.0538157
0.00595973
-0.296889
0.0957834
0.201106
0.184063
-0.137139
-0.0469234
-0.165811
-0.15227
-0.079088
0.172082
-0.0929941
-0.197852
0.2906
-0.0927483
0.185009
0.0897038
0.231688
0.0435333
-0.275221
0.18859
-0.263773
0.285483
-0.0660526
-0.0415213
-0.0103124
0.0518337
0.0529793
-0.157024
0.0974824
0.0595419
0.0792864
-0.020849
-0.0400396
-0.0607088
0.229053
-0.0397676
-0.0950287