/*--------------------------------*- C++ -*----------------------------------*\
| =========                 |                                                 |
| \\      /  F ield         | OpenFOAM: The Open Source CFD Toolbox           |
|  \\    /   O peration     | Version:  v2012                                 |
|   \\  /    A nd           | Website:  www.openfoam.com                      |
|    \\/     M anipulation  |                                                 |
\*---------------------------------------------------------------------------*/
FoamFile
{
    version     2.0;
    format      ascii;
    class       volVectorField;
    location    "300";
    object      U;
}
// * * * * * * * * * * * * * * * * * * * * * * * * * * * * * * * * * * * * * //

dimensions      [0 1 -1 0 0 0 0];


internalField   nonuniform List<vector> 
54593
(
(1.03109 -0.00440885 1.31364e-22)
(1.00521 -0.00990818 1.71864e-22)
(1.03245 -0.00580063 -1.95054e-22)
(1.0771 0.0586743 1.07451e-20)
(1.05409 0.0750847 1.30924e-21)
(1.0323 -0.00227104 -1.1056e-23)
(1.0098 0.00248064 2.10217e-22)
(1.0797 0.0587365 -3.92411e-21)
(1.06458 0.0746355 5.11861e-21)
(1.06208 0.0272429 -5.03625e-23)
(1.01787 0.000562968 2.02403e-21)
(1.08223 0.058635 5.2098e-21)
(1.00065 -1.90994e-05 0)
(1.01082 0.00328028 0)
(1.02611 0.00977789 -2.30295e-23)
(1.00837 0.000203038 2.17336e-22)
(0.47874 0.0276082 4.65149e-23)
(1.01982 0.00643142 0)
(1.00849 0.000209853 -2.205e-22)
(1.08019 0.0639562 0)
(1.01656 0.00995576 -6.67586e-23)
(1.02933 0.0179237 1.93786e-22)
(1.02672 0.0086675 -5.79121e-24)
(1.01402 0.00555382 0)
(1.01063 0.0005071 -2.92119e-22)
(1.06989 0.0266693 5.08938e-21)
(0.897899 0.0812774 -1.39796e-22)
(1.02527 0.00791374 0)
(1.01215 0.0594172 2.75481e-22)
(1.01515 -0.000304537 1.77459e-22)
(1.02382 0.060377 0)
(0.996325 0.0348342 6.9923e-22)
(1.00519 0.000116525 -2.81035e-24)
(1.07206 0.0454759 2.42106e-21)
(1.00725 0.000314087 6.31674e-23)
(1.01385 0.00527125 -5.74925e-23)
(1.07461 0.0235866 -9.49521e-21)
(0.967118 0.0112078 5.17698e-22)
(0.942853 0.103199 -8.77796e-22)
(0.883214 0.0957626 6.84173e-22)
(1.03816 0.022678 4.30883e-22)
(1.00352 9.53368e-05 0)
(1.01972 0.00811379 3.98986e-24)
(1.02212 0.00633599 1.32733e-21)
(1.00906 0.00202951 2.5771e-22)
(1.01775 0.0114568 -1.85771e-23)
(1.01016 0.00268834 8.27476e-23)
(0.890909 0.0712102 0)
(0.960073 0.0109404 -5.64083e-22)
(1.02957 0.0181691 4.76838e-22)
(1.00896 0.00197272 -2.13302e-22)
(1.01214 0.00319494 0)
(1.01521 0.00785805 0)
(1.06754 0.0179177 1.12345e-20)
(1.05493 0.0312537 -4.56953e-21)
(1.01782 0.000534405 2.57661e-21)
(1.07973 0.0586574 4.20418e-21)
(1.03011 0.0124465 8.00332e-22)
(0.992456 0.053277 0)
(1.01557 0.000802479 1.41625e-22)
(0.947432 0.105824 -4.87909e-23)
(1.02608 0.012235 -2.44933e-21)
(1.02396 0.0161484 1.56626e-21)
(1.02563 0.0121343 0)
(0.540889 0.0295487 7.77366e-21)
(0.87125 0.0946478 -1.23578e-21)
(1.02245 0.00241777 0)
(0.668102 0.0383629 6.85131e-21)
(1.01205 0.00312897 0)
(1.0099 0.00254652 -3.38604e-22)
(0.53863 0.0307962 4.00525e-21)
(1.01282 0.00468796 2.20042e-23)
(1.06722 0.0183644 -5.76352e-21)
(1.00516 0.000113916 -1.33757e-23)
(1.00699 0.000226765 0)
(1.01026 0.00275797 0)
(0.81774 0.0244885 -7.99018e-22)
(1.03646 0.0133255 4.75909e-21)
(1.05555 0.0280465 0)
(1.0739 0.0263704 0)
(1.01396 0.00547269 0)
(1.03489 0.0066333 0)
(0.540103 0.0299695 6.5172e-21)
(0.642118 0.0349162 -6.73916e-21)
(1.01734 0.00546974 0)
(1.0122 0.00364609 -9.25582e-23)
(1.07945 0.061487 -1.62537e-21)
(1.0165 0.00997237 6.64732e-23)
(1.01232 0.00372136 6.05072e-23)
(1.07992 0.0594497 2.26047e-20)
(1.00976 0.00195893 -2.13073e-23)
(1.01382 0.0052017 4.80049e-23)
(0.645229 0.035525 7.40454e-21)
(1.0351 0.00644688 0)
(0.829314 0.0334695 -1.83699e-22)
(1.06419 0.0319932 3.87635e-21)
(1.01851 0.0149404 -1.06484e-22)
(1.02245 0.0145626 3.73185e-22)
(1.01953 0.00795912 -1.39815e-21)
(1.00704 0.000273933 0)
(0.898355 0.0888963 0)
(0.922686 0.0569664 0)
(1.02587 0.0123089 0)
(1.08161 0.0650966 0)
(1.01042 0.0185777 -1.6029e-22)
(1.0671 0.0992302 0)
(1.0127 0.00456491 1.54659e-22)
(1.07357 0.0476289 -1.14986e-20)
(1.00523 0.000125328 2.04225e-22)
(1.01974 0.0078198 1.30108e-21)
(1.01034 0.00205502 -3.69045e-24)
(1.03652 0.0131593 -3.68832e-21)
(0.509895 0.0245817 0)
(1.01714 0.0111078 1.32357e-22)
(0.884341 0.0734932 -7.05738e-22)
(1.02157 0.000702124 0)
(1.01963 0.00634567 0)
(1.01743 0.011259 1.62823e-23)
(1.00989 0.0163905 3.02984e-22)
(0.895855 0.0772084 0)
(1.01387 0.00496277 6.51359e-23)
(1.0818 0.0643535 0)
(1.06961 0.0262798 1.24931e-20)
(1.00565 0.0430637 -1.68693e-22)
(1.02586 0.0192818 -2.54938e-21)
(0.479827 0.0286602 3.8435e-21)
(1.01428 0.00612904 7.31326e-24)
(1.03314 0.03485 2.83879e-23)
(0.684703 0.0407256 6.84961e-21)
(1.03123 0.00113944 -1.65652e-21)
(1.03535 0.0155564 4.39795e-21)
(1.02093 0.0167308 4.47064e-22)
(1.00928 0.00180875 0)
(1.02941 0.0324371 0)
(1.02234 0.00645379 0)
(1.00734 0.000334316 2.84875e-23)
(1.06875 0.0334233 1.47283e-20)
(1.06878 0.100329 0)
(1.0259 0.0190791 1.12904e-21)
(1.05347 0.105529 0)
(1.02172 0.000739643 -1.58393e-21)
(1.01484 0.000703516 7.03511e-23)
(1.01953 0.00730828 0)
(0.619323 0.0428512 5.60441e-21)
(1.0172 0.00534978 -1.04598e-21)
(1.02939 0.0322224 7.18113e-22)
(1.04291 0.0316247 -2.97239e-21)
(1.04586 0.0292909 0)
(1.01978 0.00772878 0)
(0.483907 0.0279516 -4.56132e-23)
(1.01466 -0.00035596 1.63625e-22)
(0.983536 0.0605614 0)
(1.02017 0.0105963 6.38273e-22)
(1.01193 0.0034064 3.2518e-23)
(1.05899 0.0120142 0)
(1.07954 0.0613076 2.88295e-21)
(1.07985 0.0595235 -1.7455e-20)
(0.878627 0.0579927 3.67677e-22)
(1.00569 -0.00651419 -7.19008e-23)
(1.02249 0.0143972 -3.93153e-22)
(1.00957 0.00473221 -7.96574e-23)
(1.08851 0.0514109 0)
(0.632794 0.0330918 0)
(1.00804 0.00139726 0)
(1.07995 0.0637559 1.3445e-21)
(1.03635 0.0124207 3.7467e-21)
(1.0173 0.0111225 0)
(1.00951 0.0018257 -9.85456e-24)
(1.027 0.000823075 4.58843e-21)
(1.01047 0.0020774 2.16239e-23)
(0.612891 0.0469888 -3.20969e-23)
(1.01426 0.000532753 4.68465e-23)
(1.01458 -0.000449301 0)
(1.05697 0.0483357 4.15246e-21)
(1.03521 0.0152341 -2.91391e-21)
(1.01956 0.00723335 -6.40328e-22)
(1.06688 0.0619428 -4.00592e-21)
(1.03179 0.0322421 0)
(0.628468 0.0437207 -6.75903e-21)
(1.00811 0.00143668 1.78185e-22)
(1.00698 0.000284508 -1.83072e-22)
(1.01353 0.00355896 3.06085e-22)
(0.716229 0.0474514 -3.86666e-21)
(1.02423 0.00935428 -1.43561e-22)
(1.00498 -0.00483271 2.83613e-22)
(1.00037 -1.05798e-05 1.07069e-22)
(0.496121 -0.02126 5.09744e-21)
(1.02132 0.00995922 3.9783e-22)
(1.01836 0.0151467 8.75749e-23)
(1.00057 -1.70981e-05 9.10237e-23)
(0.937164 -0.130187 1.79676e-21)
(1.0818 0.0655087 1.09794e-20)
(1.00358 0.000125493 3.68221e-22)
(0.92681 -0.0958491 -1.13887e-21)
(1.08015 0.0601133 1.05735e-20)
(1.03007 0.0122218 1.58409e-21)
(1.00668 0.00037032 -8.66887e-24)
(1.02113 0.0192272 4.78265e-22)
(1.0801 0.05976 -9.71133e-24)
(1.01347 0.00331947 -6.2288e-23)
(0.686874 0.0798622 1.4711e-21)
(1.02381 0.00780606 5.93256e-23)
(1.01076 0.00044033 -1.3159e-21)
(1.07445 0.0414236 -3.09813e-21)
(0.392922 0.0101817 6.92792e-21)
(1.02548 0.0194288 1.00997e-21)
(1.01306 5.75756e-05 -2.56506e-22)
(1.0746 0.0420818 4.28894e-23)
(1.01553 0.000248299 1.67118e-21)
(0.533099 -0.0190745 0)
(1.02101 0.000922382 0)
(1.08194 0.058398 -3.52115e-21)
(1.06227 0.04517 0)
(0.986977 0.0625287 2.23017e-21)
(1.01678 0.000109623 0)
(1.03041 0.0311246 0)
(1.05128 0.0224448 4.6008e-21)
(1.03175 -0.00804023 4.62574e-24)
(1.00512 0.000104104 2.19463e-23)
(1.01755 8.66692e-05 0)
(1.01301 -5.41226e-07 1.94611e-22)
(0.60924 0.0427334 2.59707e-20)
(1.01263 0.00453683 -8.87692e-22)
(0.962668 0.0996324 2.79735e-22)
(0.890731 0.0321861 -7.52659e-22)
(1.08055 0.0591053 1.391e-20)
(1.02108 0.0166214 5.59948e-22)
(0.661275 0.0805399 1.19006e-20)
(1.03101 0.036306 -8.73177e-22)
(0.693051 0.0421449 -6.9981e-21)
(0.957065 0.0735348 1.94162e-21)
(1.00528 0.000133892 -1.67333e-22)
(1.0372 0.0255031 -1.97436e-21)
(1.01654 0.00986785 7.9728e-23)
(1.06223 0.0276752 7.01537e-21)
(1.02669 0.000740246 0)
(1.02552 0.0192487 1.10985e-21)
(0.890992 0.0498355 -1.1391e-21)
(1.08017 0.0599827 -1.01656e-20)
(1.00259 9.78231e-05 0)
(1.00513 0.000103335 -2.56817e-23)
(1.00936 0.000542899 -8.4293e-22)
(1.01698 0.00492613 -4.78252e-22)
(1.00508 9.59501e-05 -4.86381e-23)
(1.05529 0.0310367 7.39455e-21)
(1.01324 0.00495876 0)
(0.854006 0.0534783 0)
(0.92164 0.0669909 0)
(1.01617 0.000381113 -5.62312e-24)
(1.01081 0.000520295 0)
(1.07997 0.0594392 1.33699e-20)
(1.00054 -2.29061e-05 -9.91229e-23)
(1.07315 0.0473144 8.01509e-21)
(1.00162 -3.47279e-05 -3.8241e-23)
(0.987846 0.0578594 -2.54467e-21)
(1.01091 0.00334556 0)
(0.969325 -0.0156729 0)
(0.671954 0.0772899 -1.13567e-20)
(1.08074 0.0591874 2.51741e-21)
(1.01381 0.00473169 -1.04488e-21)
(1.01354 0.00477922 0)
(1.00514 9.10071e-05 -2.68301e-23)
(1.0741 0.0627366 -1.00899e-20)
(0.8262 0.0507387 6.26811e-21)
(1.01024 0.0345067 -8.47402e-23)
(1.06164 0.07693 -1.24366e-21)
(1.00518 0.000114205 2.73887e-24)
(1.01877 0.0234861 0)
(1.02046 0.0119985 -6.84611e-22)
(1.00074 -1.67862e-05 0)
(1.0708 0.103121 6.60959e-21)
(0.930064 0.0663999 -1.03568e-22)
(1.01249 0.00442307 6.8616e-22)
(1.08363 0.0641771 2.71792e-21)
(1.08003 0.0594492 2.25997e-21)
(0.525128 0.07514 0)
(1.02001 0.0105675 1.74517e-21)
(1.02091 0.000944107 0)
(1.0662 0.0511924 -1.36432e-21)
(1.03224 0.000801787 -1.7119e-21)
(1.01394 0.00485833 1.66654e-21)
(1.01491 0.00192864 0)
(1.01622 0.000189456 1.9672e-22)
(1.07535 0.0396592 3.24825e-21)
(0.542903 0.0257409 0)
(0.982411 0.00360305 9.06831e-22)
(1.07639 0.0396746 -9.42483e-23)
(1.01807 0.0172708 9.51047e-23)
(1.08041 0.0605993 0)
(1.02032 0.0107736 -1.92402e-21)
(1.01583 0.00070477 0)
(1.00809 0.0802765 0)
(1.02971 0.0417511 -2.18476e-22)
(0.641492 0.0342293 2.14669e-22)
(1.04209 0.0589012 -5.76055e-21)
(1.02593 0.00758152 -3.14341e-21)
(1.01197 0.0133543 1.20943e-22)
(1.01423 0.00607913 0)
(1.01834 0.0171999 -2.62958e-23)
(0.99965 -0.0224799 -3.26071e-22)
(1.06687 0.0637181 8.26882e-21)
(1.05787 0.0665898 0)
(1.00358 -0.000754818 3.54356e-22)
(1.00979 0.0368359 -3.69452e-22)
(1.03468 0.0694093 -5.14806e-21)
(1.08055 0.0606449 0)
(0.868171 0.0531718 1.47388e-21)
(0.510232 0.0185382 5.19173e-21)
(0.559379 0.128569 0)
(0.633016 0.0332764 0)
(1.01514 0.0077497 -9.94172e-24)
(0.982302 0.00680132 2.90617e-22)
(1.01881 0.0229222 0)
(0.608251 0.0452066 0)
(1.07934 0.0621295 0)
(1.02579 0.00945857 7.17905e-23)
(0.537433 0.0247676 0)
(1.03908 0.0335732 2.29796e-21)
(1.0759 0.062246 0)
(1.0213 0.00979503 1.1871e-21)
(0.733905 0.0496476 3.7711e-21)
(1.08466 0.0494988 0)
(1.01692 0.00524886 2.05104e-21)
(1.0265 0.00903592 5.49787e-22)
(1.01313 0.00487683 0)
(0.968393 -0.108761 0)
(1.03493 0.0255011 0)
(1.00623 0.0368659 0)
(1.00797 0.000535053 5.42763e-23)
(1.06177 0.0692436 -5.20702e-23)
(1.08337 0.0645993 0)
(1.00688 0.000273745 1.8432e-22)
(0.996847 -0.0198023 -2.58815e-22)
(1.03099 -0.00099909 0)
(1.07454 0.0266611 -3.16003e-22)
(1.01922 0.0078242 -8.66145e-23)
(1.01483 0.00573142 9.26837e-23)
(0.99724 0.00547674 -4.54658e-22)
(1.02969 0.0318435 -7.9136e-22)
(1.01365 0.00472319 3.51319e-23)
(1.03115 0.0359743 9.56287e-23)
(1.03051 0.136915 1.61267e-21)
(0.486292 0.0294135 5.17825e-24)
(1.01364 0.00466208 2.40793e-23)
(1.00791 0.00117413 2.43174e-22)
(0.683556 0.050111 8.26069e-22)
(1.02109 0.00963235 -1.48937e-21)
(1.005 0.0398034 -5.4814e-22)
(1.0333 0.0349733 0)
(1.00116 2.56849e-05 -5.64885e-23)
(0.963068 0.0191029 5.32182e-22)
(1.00105 -1.198e-05 0)
(0.98711 -0.0377569 1.07744e-21)
(1.02233 0.0141829 3.83402e-22)
(1.02486 0.00885839 1.55736e-22)
(1.06049 0.0766238 1.66169e-21)
(1.01877 0.0139948 0)
(0.857378 0.0535127 -1.54566e-21)
(1.02923 0.0411007 6.07397e-22)
(1.01719 0.010703 9.4097e-23)
(1.01286 -0.0324404 -1.47894e-22)
(1.0038 -0.00204035 -3.56534e-22)
(0.514112 0.0189738 -4.81851e-21)
(1.01042 0.000160603 7.14369e-23)
(0.998825 0.00314546 4.75155e-22)
(1.08474 0.0490274 5.87668e-21)
(1.01302 0.00215093 -5.65123e-22)
(1.00364 -7.17259e-05 -3.35499e-23)
(1.01409 0.00586632 1.28703e-21)
(1.03392 0.0681806 1.26874e-21)
(1.01711 0.0110259 0)
(0.905374 0.0790723 -3.24789e-22)
(1.00984 -0.0369248 0)
(1.01603 0.00897236 0)
(1.03493 0.0252838 -3.26133e-21)
(1.06657 0.0631048 -6.94564e-21)
(1.06708 0.0759384 1.13054e-21)
(1.04585 0.0295963 4.35981e-21)
(1.07951 0.0622514 0)
(0.8207 -0.0891697 0)
(1.06379 0.0557431 5.12017e-21)
(1.02614 0.0751883 -1.08563e-21)
(0.538776 0.0180995 0)
(1.05817 0.0672723 0)
(0.994021 0.0371158 7.76977e-22)
(1.06234 0.0456529 1.11835e-20)
(1.07414 0.0424072 0)
(1.05936 0.06388 9.13699e-21)
(1.05549 0.057126 4.13095e-21)
(1.01204 0.00347255 -2.3321e-23)
(1.01852 0.0176425 -1.405e-22)
(1.00676 0.0278772 2.65323e-22)
(1.00889 -0.0314055 0)
(1.01111 0.030884 5.73445e-23)
(1.00939 0.00183439 0)
(1.036 0.00552119 2.89281e-21)
(1.07477 0.0241965 1.11974e-20)
(1.03577 0.00568129 -4.90268e-21)
(1.01707 0.000411157 0)
(1.01876 0.0175035 -1.66443e-22)
(1.00426 -0.00796179 -1.84776e-22)
(1.00786 0.00102631 1.88146e-23)
(1.0098 0.000160865 -1.65187e-22)
(1.06897 0.033894 0)
(1.01046 0.0301187 -4.49909e-23)
(1.07992 0.0294612 0)
(1.07593 0.0618407 6.87713e-22)
(1.03136 0.0366378 0)
(0.963071 -0.00196602 1.66936e-22)
(1.01793 0.0107673 0)
(1.02549 0.00759603 1.38527e-22)
(0.967577 -0.0065104 3.18512e-22)
(0.605824 0.0570134 -5.54028e-21)
(1.01686 0.00454291 0)
(1.00514 7.47119e-05 1.08722e-22)
(1.00015 -9.39535e-06 -4.57615e-23)
(0.52007 0.026341 0)
(0.38362 0.00866938 1.62053e-21)
(1.0128 0.0122696 4.82612e-22)
(1.01482 0.00566189 -3.61957e-23)
(0.636784 0.0830846 5.80995e-21)
(1.01506 -0.00042673 -1.00178e-22)
(1.01388 0.00503567 -1.40133e-23)
(0.960502 0.0900551 9.09346e-21)
(1.01866 0.0022176 0)
(1.0141 0.0147592 -1.26499e-22)
(1.07757 0.0581991 -7.51556e-21)
(1.00717 -0.000419882 -9.05745e-25)
(1.01603 0.00824504 0)
(1.02576 0.00771753 0)
(1.02441 0.0745449 9.56023e-22)
(0.955381 -0.0411648 0)
(0.470774 0.00922009 1.25901e-20)
(1.01699 0.0108754 -1.15476e-23)
(1.0137 -0.0378668 1.67548e-23)
(1.00728 0.000268033 6.09241e-23)
(1.00538 0.000243807 1.90552e-22)
(1.01481 -0.00960103 -6.87446e-23)
(1.01158 0.0568636 0)
(1.02265 0.00666079 2.24312e-22)
(1.08171 0.059954 1.84357e-20)
(1.03949 0.0179105 0)
(0.834254 -0.0503529 1.95464e-22)
(1.05715 0.0297259 0)
(0.871877 0.054023 0)
(1.02553 0.0334741 3.04578e-22)
(1.01601 -0.00997941 -6.33919e-23)
(1.01532 0.0284907 -1.54182e-22)
(1.06732 0.0644903 4.37535e-21)
(0.703478 0.0435617 -6.76966e-21)
(1.02177 0.00636876 0)
(1.01654 0.00934319 -4.96546e-23)
(1.07493 0.0411416 9.71826e-21)
(1.00523 0.000106306 0)
(0.995393 0.0542834 0)
(1.01559 0.00790061 0)
(1.01901 0.00222986 4.61692e-24)
(1.06889 0.104614 0)
(1.02438 0.0164713 4.69777e-22)
(1.01347 0.00165884 7.8359e-23)
(1.06913 0.065045 1.32632e-20)
(1.00518 9.9183e-05 0)
(1.01244 0.000587006 0)
(1.01323 0.00173165 -8.20995e-23)
(1.03585 0.0343067 -9.19608e-22)
(0.998478 0.0161399 2.59035e-22)
(1.06563 0.0509578 -2.63121e-21)
(0.626136 0.0424705 0)
(1.02073 0.00427238 -2.60027e-21)
(1.01936 0.00706593 3.08095e-21)
(1.08166 0.0601382 0)
(1.03346 0.0373769 0)
(1.08125 0.0582922 6.05143e-21)
(1.01513 0.0277226 3.21206e-23)
(1.03144 0.0353016 -7.68561e-22)
(1.05541 0.0566599 5.47522e-21)
(1.0794 0.0610593 -2.94217e-21)
(1.02213 0.0141163 0)
(1.06366 0.056774 0)
(1.01041 0.00462649 -1.14612e-22)
(1.01403 0.00613237 0)
(0.530863 0.0811555 3.82345e-21)
(1.02456 0.0537143 -8.88752e-22)
(1.00809 0.0209886 2.88729e-22)
(0.723092 0.0477303 0)
(1.07362 0.0642507 0)
(1.01257 0.0146445 1.12326e-22)
(1.01995 0.0228423 0)
(1.00546 -0.000181896 0)
(1.01488 0.001597 -4.15137e-23)
(1.07933 0.0292477 7.10283e-21)
(0.833311 0.0543567 8.52335e-22)
(1.0026 0.0373099 0)
(1.02348 0.0224092 -1.75572e-23)
(0.484949 0.0431919 1.23555e-20)
(0.599527 0.0389575 -2.24615e-20)
(1.01482 0.0160597 2.42636e-22)
(1.01791 0.0151961 2.47392e-23)
(1.01828 0.0104089 2.9707e-22)
(1.01783 0.00248725 -1.20359e-21)
(1.00382 -8.19543e-05 -1.86632e-23)
(0.907708 -0.00203594 0)
(1.01481 0.00708869 0)
(1.01791 0.00243926 2.14536e-21)
(1.00517 6.5161e-05 8.8958e-23)
(1.00037 -2.24557e-05 0)
(1.01091 0.00967534 1.18727e-22)
(1.00671 0.000220526 5.61066e-23)
(1.00101 0.0171444 -2.08316e-22)
(0.989429 -0.0612126 9.32746e-22)
(1.03144 0.00891574 3.30686e-21)
(1.01695 0.000245963 -9.59247e-24)
(1.01984 0.010401 -1.16713e-21)
(1.01146 0.00378062 -4.25551e-22)
(1.00806 0.00111297 -6.97356e-24)
(1.01759 0.0113115 2.27779e-23)
(1.00995 0.000164133 1.36341e-22)
(1.02512 0.0336563 -5.05918e-22)
(1.08705 0.0610705 -2.83937e-21)
(1.06422 0.0540514 -2.91988e-21)
(1.06399 0.0561707 6.78043e-21)
(0.475094 0.0424606 -1.36517e-20)
(0.65258 0.0484137 -6.76298e-21)
(1.06311 0.057028 -1.09493e-20)
(0.979846 0.0637116 6.88461e-22)
(1.05306 0.0742653 0)
(1.02793 0.00984733 -4.90403e-23)
(1.02233 0.0022963 -1.46463e-21)
(1.03127 0.00132232 -1.16617e-21)
(1.01707 0.00257269 0)
(1.01317 0.00263646 0)
(1.08679 0.060745 0)
(1.0262 0.00767068 4.65405e-21)
(1.0751 0.0651824 -1.23545e-20)
(0.647211 0.0786797 0)
(1.0154 0.00526345 5.48211e-22)
(0.976161 0.0614295 -2.09018e-21)
(1.05879 0.0391315 -4.85782e-21)
(1.02405 0.0576416 0)
(0.627256 0.0579871 -1.87428e-21)
(1.02857 0.0172004 8.03773e-22)
(1.02827 0.01584 -5.00992e-22)
(1.01918 0.0070141 -2.37645e-21)
(1.02735 0.0143046 5.3373e-22)
(1.02968 0.0118136 2.74171e-21)
(1.01878 0.00649403 1.22065e-21)
(1.06518 0.0753523 3.18556e-21)
(1.02261 0.0147863 3.86081e-22)
(1.03423 0.0369131 1.67972e-21)
(1.03818 0.0256997 0)
(1.02714 0.0151782 4.40217e-22)
(1.01508 0.00152411 5.11606e-23)
(1.05128 0.0228393 9.88666e-22)
(1.01713 0.0569486 0)
(1.02869 0.0333 -5.0902e-22)
(1.00171 2.58867e-05 0)
(1.07053 0.0350139 -2.7122e-22)
(0.947487 0.0877304 0)
(1.02844 0.0239687 -1.5823e-21)
(1.07585 0.0393325 2.92096e-21)
(0.936349 -0.0408283 2.72975e-21)
(1.0079 0.00121828 0)
(1.02966 -0.0073765 3.57237e-21)
(1.01171 0.00905696 -1.23177e-22)
(1.07946 0.0608974 3.00319e-21)
(1.02006 0.0106223 8.48545e-22)
(0.35347 0.0155888 4.87666e-21)
(0.832732 -0.0342443 -1.24551e-21)
(1.02418 0.057992 -7.98128e-23)
(1.01601 0.0153776 0)
(1.01014 0.000140745 -1.77729e-22)
(1.02117 0.0151103 0)
(1.0085 0.0015036 0)
(1.02874 0.0240531 3.11645e-23)
(0.734807 0.0483946 0)
(1.01878 0.0106218 0)
(1.02833 0.0332748 -1.18416e-21)
(1.03077 0.0132515 2.12799e-21)
(1.07689 0.0394219 -7.71915e-21)
(1.0085 0.00151619 0)
(1.01967 0.0100965 -1.82062e-21)
(1.01706 0.00536499 -2.62815e-21)
(0.846956 0.0562379 1.90202e-22)
(1.08357 0.0655125 0)
(1.00794 0.00125926 0)
(0.466735 0.0264878 -4.06515e-21)
(1.02522 0.0196042 -1.70847e-23)
(1.0811 0.0583115 0)
(0.99884 0.0089323 4.30707e-24)
(1.01371 0.00328255 0)
(1.01958 0.015595 2.40913e-22)
(1.0133 0.00356683 0)
(1.00856 0.0297506 1.05277e-21)
(1.08845 0.0519333 0)
(1.08178 0.0565806 0)
(1.03502 0.0909086 2.34301e-22)
(1.02806 0.0168486 0)
(1.00157 -0.0592446 2.91172e-24)
(1.01693 0.00248331 0)
(1.01542 0.00640536 2.13152e-22)
(1.03459 -0.0053941 -3.40272e-21)
(1.08147 -0.0068592 6.11914e-22)
(1.02494 0.0157136 0)
(1.00675 0.000698582 -2.90373e-23)
(0.720954 0.0557987 -5.98821e-21)
(1.01373 0.00182942 -1.43351e-22)
(0.847008 0.051714 -6.5395e-21)
(1.04359 0.00416834 -3.48457e-21)
(0.787388 0.0645445 -1.45393e-22)
(1.08755 0.0610978 2.18477e-21)
(1.07239 0.0292785 0)
(1.01212 0.00376605 5.23022e-24)
(1.08673 0.00384406 -8.3678e-22)
(1.04039 0.0202033 -7.02999e-24)
(1.02982 0.0287597 -4.87757e-22)
(1.07559 0.033015 2.96136e-22)
(1.00694 0.000266982 0)
(1.00965 0.021405 4.97078e-22)
(0.963953 -0.0120432 0)
(0.649509 0.129084 -1.20752e-22)
(1.04065 0.020179 2.56984e-21)
(1.01166 0.000614443 0)
(1.08835 0.0613259 -1.97383e-20)
(0.814047 0.0915956 1.26791e-21)
(1.00672 0.000698827 1.84228e-23)
(0.955967 0.0968031 0)
(1.03154 0.024725 4.23726e-21)
(1.02496 0.0194743 -1.03572e-21)
(1.00988 0.00198234 2.02558e-23)
(1.07285 0.0502081 -2.42205e-21)
(1.08791 0.0609526 0)
(1.0196 0.0135663 0)
(1.01988 0.0115972 5.11375e-22)
(1.02113 0.00705612 8.44157e-22)
(1.00062 -5.51147e-06 3.14622e-24)
(0.544182 0.00648292 1.50146e-21)
(1.03872 0.0224737 4.10451e-21)
(1.03341 0.0325053 -3.58618e-21)
(1.02498 0.00396534 -4.96588e-22)
(1.0809 0.0591596 0)
(0.718034 0.0470517 6.59926e-21)
(0.937989 0.0629052 9.39603e-23)
(1.03822 0.0190853 0)
(1.02605 0.0371604 4.82576e-22)
(0.996847 0.00824749 0)
(0.935687 0.0552848 -3.00282e-22)
(1.04077 0.0255462 -2.42714e-23)
(0.544666 0.0192697 2.77229e-21)
(1.02989 0.028489 4.52609e-22)
(1.08008 0.0598717 6.1539e-21)
(0.730858 0.047405 -3.04839e-21)
(1.01353 0.00436095 6.57177e-24)
(1.01631 0.00443941 -1.34802e-21)
(1.02632 0.0123959 2.77498e-21)
(1.01938 0.00796423 1.95171e-22)
(1.02042 0.0105221 -6.30609e-22)
(1.03838 0.0193953 0)
(1.00453 0.0312914 -7.06699e-22)
(1.02989 0.0240918 3.89858e-24)
(1.0807 0.0590661 -1.4701e-20)
(1.03817 0.0243419 0)
(0.563137 0.0112093 4.33487e-22)
(0.87509 -0.0215476 3.62915e-23)
(1.05724 0.0292574 0)
(1.01153 0.00385197 0)
(1.04044 0.0255919 2.4714e-21)
(1.05842 0.01192 -3.18022e-21)
(1.02717 0.0253829 3.68548e-22)
(1.02131 0.0613163 -3.56078e-23)
(0.853063 0.0664086 6.27252e-21)
(1.08611 0.0605482 9.74694e-21)
(1.02977 0.00192195 -6.18617e-23)
(1.01587 0.0271707 0)
(1.08364 0.0430449 -8.83314e-21)
(1.04015 0.086078 0)
(0.614994 0.0418361 0)
(0.721478 0.0845647 5.64883e-23)
(0.835172 0.0556211 1.63281e-21)
(0.879683 0.0966983 -1.10069e-21)
(1.08498 0.0502826 -2.1673e-20)
(0.985568 -0.0737392 -5.49599e-23)
(1.01142 0.00284345 -4.77731e-22)
(0.82698 -0.0829763 0)
(0.996898 -0.0231383 2.99294e-22)
(1.02497 0.0155391 1.11699e-21)
(0.979461 -0.0709098 5.58078e-23)
(1.03635 0.0306396 -1.03616e-21)
(1.06508 0.0512736 0)
(0.544045 0.0180772 2.26523e-21)
(1.03157 0.0244403 -1.43466e-21)
(1.01877 0.0133225 9.79334e-24)
(1.01398 0.00588948 -6.65354e-22)
(1.0553 0.0746436 -1.58738e-21)
(0.753826 0.0754206 0)
(1.05396 0.0587862 4.93244e-21)
(0.48142 0.0384222 -4.03432e-21)
(1.08278 0.061084 -1.38271e-20)
(1.08876 0.0611812 1.99636e-20)
(1.04767 0.0547793 3.77918e-21)
(1.00667 0.00066287 2.75532e-24)
(1.05331 0.0589324 -4.23066e-21)
(1.02063 0.0185071 0)
(0.990379 -0.015147 0)
(1.01745 0.010654 -1.70984e-22)
(1.06425 0.0637412 -1.47919e-21)
(1.01681 0.0047936 0)
(0.911986 0.0199255 0)
(0.898671 0.0559762 6.53359e-21)
(1.02089 0.0069485 1.53342e-21)
(1.00523 9.04696e-05 0)
(0.585594 0.124876 -6.10703e-22)
(1.03984 0.0875438 -4.50572e-21)
(1.02124 0.011447 0)
(1.0009 -0.005092 -1.38508e-22)
(1.00517 8.36254e-05 -2.79955e-23)
(1.03748 0.0264774 -9.81366e-22)
(1.00663 0.000645754 -1.93171e-24)
(1.03285 0.0367906 -1.28382e-21)
(1.03317 0.0325437 2.95588e-21)
(1.02383 0.000432555 4.29689e-22)
(1.02884 0.0174199 0)
(1.02829 0.0337538 1.01468e-21)
(0.461609 0.0410192 0)
(1.01058 0.000162355 3.51656e-23)
(1.07578 0.0578506 -8.69199e-21)
(1.07933 0.0555792 -2.31726e-20)
(1.0253 0.00701527 8.19684e-24)
(1.00916 8.94457e-05 6.82079e-23)
(1.08152 0.0563499 6.34293e-21)
(1.0665 0.0750879 -6.16325e-21)
(1.00816 0.00112497 0)
(0.646717 0.127371 8.15033e-22)
(0.466974 0.0365248 0)
(1.01023 0.00282821 -2.845e-22)
(1.05661 0.0466021 0)
(1.01217 0.00381111 -1.4735e-22)
(1.0146 -0.0023233 0)
(1.04168 0.0160961 4.26798e-23)
(1.04542 0.0131216 2.54309e-21)
(1.01189 -0.00693155 -3.90892e-22)
(1.03306 0.0906377 -3.25083e-21)
(0.858128 0.103459 0)
(1.04294 0.0220385 5.69735e-23)
(0.696902 0.0519588 -6.76827e-21)
(1.01875 0.00635908 -1.33675e-21)
(0.799412 -0.0285191 3.02694e-23)
(1.00532 0.000142831 4.36124e-23)
(1.0149 -0.00240244 0)
(1.07147 0.0638203 -1.58951e-21)
(1.0102 0.00280403 3.16809e-22)
(1.0176 0.0105931 1.09828e-22)
(0.863113 0.0536507 -4.39179e-21)
(1.02084 0.0186689 4.46959e-22)
(1.03731 0.0880978 0)
(1.00023 -6.32612e-06 0)
(0.871248 -0.00251576 -8.39742e-21)
(0.476849 0.0100945 -1.19814e-20)
(1.01077 0.00668453 0)
(1.0011 -1.7709e-05 -3.01848e-23)
(1.06363 0.0267557 -7.50332e-21)
(1.02575 -0.0144606 0)
(1.01155 -0.0059338 3.94184e-22)
(0.343792 0.0135476 5.84774e-21)
(1.01233 0.0111992 -6.03309e-22)
(1.05307 0.0308631 4.79461e-21)
(1.04287 0.0319962 -1.51746e-21)
(1.04444 0.018469 -6.59073e-23)
(1.0274 -0.0136606 8.20246e-23)
(1.00272 5.72273e-05 -1.54539e-23)
(0.84609 0.0566879 0)
(1.02204 0.00295226 0)
(0.76773 0.0617619 0)
(1.02963 0.117451 0)
(1.01232 0.000562698 2.97104e-22)
(1.01318 0.00294572 0)
(1.00769 0.000252535 -9.6979e-22)
(1.02299 0.0150752 -1.10824e-23)
(1.05411 0.057807 0)
(1.0215 0.0115776 0)
(1.03617 0.0343627 0)
(1.03227 0.00105824 -1.81947e-21)
(1.01224 0.000593981 -1.94586e-22)
(1.03646 0.0126479 -1.81821e-21)
(0.965918 0.0143121 -1.90727e-22)
(1.03884 0.115434 -1.52673e-21)
(1.06713 0.0624383 8.47632e-21)
(1.07998 0.0596454 -8.30561e-21)
(1.07674 0.0586419 -1.11535e-20)
(1.0799 0.0597494 6.01175e-21)
(1.02972 0.0321075 2.81784e-23)
(1.03819 0.0246989 0)
(1.02224 0.00239361 1.59254e-22)
(1.02795 0.0337868 0)
(1.01513 0.000674261 0)
(1.0121 0.00972971 0)
(1.03788 0.0247558 2.08246e-21)
(1.01113 0.0107669 1.17821e-22)
(1.04418 0.00367536 3.75667e-21)
(0.98323 -0.0338227 1.18121e-21)
(0.901006 -0.0196503 -2.25784e-21)
(1.01147 0.00639751 0)
(0.858312 0.0530157 1.14498e-20)
(1.00875 0.017107 2.5572e-22)
(1.03328 0.000736691 0)
(1.08512 0.0498745 1.10237e-20)
(1.02939 0.0571429 -1.13575e-20)
(1.06459 0.031644 -1.23679e-20)
(1.01081 -0.000712815 1.2382e-24)
(0.989269 0.0161404 2.57079e-22)
(0.661675 0.131533 -8.2075e-22)
(1.01542 0.00998575 0)
(1.04695 0.0803108 -7.40886e-21)
(0.97525 -0.0583169 2.4766e-21)
(0.972237 0.0641404 8.73569e-22)
(1.0164 0.00915785 8.69859e-23)
(0.98598 0.0166057 -4.31171e-22)
(1.01904 0.0110734 -4.14502e-22)
(1.02197 0.013895 0)
(0.85022 0.0527496 0)
(1.00475 -0.000126525 3.72085e-24)
(0.744269 0.076657 0)
(1.01254 -0.000288738 -2.99545e-22)
(0.478413 0.0352934 0)
(1.01954 0.00613946 2.9275e-21)
(1.00614 1.07565e-05 5.8301e-23)
(1.07705 -0.00237141 -4.08134e-22)
(1.06345 0.026236 1.17302e-20)
(1.01148 0.00566957 -2.39397e-22)
(1.01273 -0.000298184 3.25448e-22)
(1.01544 0.00652032 -1.3015e-23)
(1.01374 0.00537951 2.77846e-22)
(1.00426 0.0423214 2.14933e-22)
(1.00603 1.16238e-05 -1.40858e-25)
(1.01935 0.00546573 0)
(0.662396 0.0488144 -8.83568e-22)
(1.00249 0.0400222 7.43504e-22)
(0.909848 0.120167 -1.97482e-21)
(1.04856 0.0446498 3.70003e-21)
(1.08061 0.0608916 0)
(0.686392 0.0415823 5.24648e-21)
(1.07566 0.0574859 -1.07155e-20)
(1.04059 0.0197271 -4.35511e-21)
(0.874672 0.0581458 -1.28428e-21)
(0.734233 0.061735 0)
(0.549588 -0.0535656 1.24377e-21)
(0.96794 0.0613382 -8.07744e-22)
(1.05488 0.0577929 -4.46239e-21)
(1.03442 0.0371761 0)
(1.01048 0.000162591 2.32021e-22)
(1.02087 0.0190623 -5.12947e-22)
(0.957937 -0.0821092 3.2874e-21)
(1.03177 0.00902658 -3.65482e-21)
(0.633769 0.0472471 -7.16458e-21)
(1.07881 0.0579363 0)
(0.999111 0.154419 0)
(0.710381 0.0444326 6.99379e-21)
(1.06013 0.0626146 -5.90804e-21)
(1.01936 0.00606757 -2.91651e-21)
(1.00519 9.75279e-05 -5.41268e-23)
(0.599797 0.0448808 -4.8303e-21)
(1.01437 0.00294437 8.6175e-22)
(1.0525 0.0532858 0)
(1.05448 0.0307908 2.46567e-21)
(1.00934 0.000112926 6.26633e-23)
(1.01096 0.00278378 -5.37012e-22)
(0.958497 0.0557723 1.16371e-21)
(1.08078 0.0609376 0)
(1.083 0.0608532 7.28079e-21)
(1.01614 0.0575798 1.08905e-20)
(1.01652 0.0103443 5.04044e-23)
(1.03069 0.0130655 -1.27141e-21)
(1.02458 0.0164717 1.0564e-21)
(1.02698 0.0250094 7.03546e-22)
(1.00981 0.00250801 0)
(0.985621 -0.0355602 0)
(0.819951 0.0531689 0)
(0.846626 0.0526439 -9.19236e-21)
(1.04623 0.0408876 0)
(0.543201 0.0186743 1.82059e-20)
(1.01605 0.0159417 0)
(1.02364 0.0164643 1.19722e-21)
(1.03051 0.031375 0)
(0.991743 -0.0351172 1.59113e-23)
(0.532774 0.00646064 0)
(1.01782 0.00449112 -2.16373e-21)
(1.06491 0.0619319 7.07708e-21)
(1.01302 0.000902026 0)
(1.01898 0.00797006 -9.49655e-24)
(0.824454 0.0122934 1.02725e-21)
(1.06459 0.050909 3.06092e-21)
(1.0206 0.0120528 2.19008e-21)
(0.947323 -0.0385207 -1.19342e-22)
(1.00539 -0.000169045 0)
(1.03698 0.089367 0)
(1.01298 0.000771253 1.75538e-22)
(1.0187 0.0105974 -2.53627e-22)
(1.0181 0.000671111 7.31363e-23)
(1.01881 0.00784263 6.3744e-22)
(1.00971 8.15752e-05 -6.92825e-23)
(1.01619 0.00672954 1.47613e-23)
(0.990996 -0.0189503 -3.73612e-22)
(0.892096 0.055059 9.0048e-22)
(1.04541 0.029806 -3.5135e-21)
(1.06125 0.0343225 2.2369e-21)
(1.01364 0.00532258 0)
(1.00008 -8.38468e-06 -3.67483e-24)
(1.04856 0.044383 6.07444e-23)
(1.01512 0.0018684 0)
(1.01508 0.00113633 -3.62119e-22)
(1.03312 0.0345995 -1.10102e-21)
(0.934914 0.120269 1.72447e-21)
(0.720359 0.0598167 1.51423e-21)
(1.01258 0.00972196 -3.74879e-22)
(1.01186 0.00409355 5.00613e-22)
(1.03108 0.0107024 0)
(0.62466 0.0816703 -1.99476e-20)
(1.04517 0.0128615 -1.02649e-20)
(1.02662 0.00762583 -5.85227e-22)
(1.06487 0.0540391 3.01992e-21)
(0.83066 0.0496749 1.18842e-23)
(1.01515 0.0130996 -2.5553e-22)
(0.961269 -0.112503 0)
(1.02496 0.016732 3.06132e-21)
(0.517574 0.0284124 6.01249e-21)
(1.01201 0.00548677 4.33475e-22)
(0.980847 0.0698345 9.44847e-21)
(0.549466 0.0306227 -8.85316e-21)
(1.01094 0.00270121 7.01737e-22)
(1.0057 -8.52557e-07 -5.41153e-23)
(1.03894 0.0339022 1.16563e-21)
(1.02529 0.0135867 2.38033e-21)
(1.02478 0.0167513 -1.92801e-21)
(0.953808 0.091596 1.21865e-22)
(1.03878 0.0235134 0)
(1.00926 0.000102041 0)
(0.85166 0.052497 0)
(1.0094 0.000110453 -6.78602e-23)
(0.710238 0.0863996 0)
(1.01426 0.00284189 -1.64645e-21)
(1.0123 0.00377047 9.26227e-23)
(1.01494 0.00161075 0)
(1.04697 0.0289109 2.41464e-21)
(1.08021 0.0590124 -9.67537e-21)
(1.0562 0.0556196 0)
(0.629641 0.0384655 5.82472e-21)
(1.04627 0.0406179 0)
(1.0058 4.28994e-06 -5.32108e-23)
(1.00947 0.000120469 9.43203e-23)
(1.02299 0.00786259 -1.57854e-23)
(1.01264 0.0002932 0)
(1.01918 0.00539338 1.8649e-22)
(0.81169 -0.0741134 -1.44037e-21)
(1.07654 0.0589436 0)
(0.641445 0.0587284 -4.99977e-22)
(1.04201 0.0163144 5.65065e-22)
(0.867736 0.0940217 1.00481e-21)
(1.04944 0.0151952 3.87858e-21)
(1.01219 0.00373819 1.59395e-22)
(1.02224 0.00858907 1.38743e-23)
(1.01907 0.0103119 4.00785e-22)
(0.986275 0.0637273 -1.01384e-21)
(0.545616 0.0106856 0)
(1.02447 0.0198862 0)
(1.0206 0.0180835 0)
(1.01157 0.00815845 1.22186e-22)
(1.08635 0.0608491 -1.24192e-20)
(1.0519 0.0125809 0)