# y+ ()       
# Time        	patch         	min           	max           	average       
0             	walls	2.869056e+00	6.255103e+00	4.592353e+00
