/*--------------------------------*- C++ -*----------------------------------*\
| =========                 |                                                 |
| \\      /  F ield         | OpenFOAM: The Open Source CFD Toolbox           |
|  \\    /   O peration     | Version:  v2012                                 |
|   \\  /    A nd           | Website:  www.openfoam.com                      |
|    \\/     M anipulation  |                                                 |
\*---------------------------------------------------------------------------*/
FoamFile
{
    version     2.0;
    format      ascii;
    class       volScalarField;
    location    "200";
    object      ddt0(omega);
}
// * * * * * * * * * * * * * * * * * * * * * * * * * * * * * * * * * * * * * //

dimensions      [0 0 -2 0 0 0 0];


internalField   nonuniform List<scalar> 
37809
(
4.88151e-07
0.000345457
2.18126e-05
0.213099
2.89698e-06
5.36861e-08
-5.91387e-07
0.0718188
-3.94242e-06
2.50962e-05
9.74614e-05
1.02458e-05
5.32183e-07
-3.48547e-05
-1.07606e-05
1.07617e-05
3.07065e-06
0.00591489
8.68894e-06
-1.19231e-07
1.06246e-05
0.0635159
0.00242613
0.000842284
0.0351108
1.56744e-06
1.4545e-05
-0.0426354
6.3023e-05
-5.26859e-08
-0.000171817
0.0602629
6.07377e-07
-0.00621656
1.48746e-05
5.76334e-07
-0.000590165
1.30824
-0.320565
-3.72667e-07
2.75746e-07
-0.0115447
1.12806e-05
8.60452e-06
-1.15669e-07
1.31526e-05
5.25143e-06
-1.84438e-05
3.82099e-06
0.000686069
-0.10386
-0.14587
0.0201676
0.00407806
1.49749e-05
-3.66952e-06
-0.000413104
2.23102e-05
-0.00294566
-0.00830182
1.29564e-05
3.65408e-05
0.167232
9.09302e-06
-5.73943e-05
-1.09135e-05
0.000365952
-0.0191243
-1.43174e-05
-0.00035842
-2.82169e-06
1.88701e-06
-0.119287
-0.00125324
-1.27765e-06
0.00446371
0.00062375
5.07383e-07
9.88438e-06
7.75222e-07
1.89156e-05
0.0131436
2.39907e-06
-4.38983e-06
0.00124433
-0.0406596
7.65001e-07
-0.074289
-1.77804e-05
-0.000555666
1.78823e-06
-0.0371779
5.62176e-05
-1.42836e-06
4.017e-05
-1.8441e-07
0.0611444
-6.0514e-07
7.341e-07
0.0310113
1.02411e-06
-0.000535115
-4.67201e-07
-5.33706e-05
-0.0100679
1.75289e-06
0.0561854
2.72606e-06
0.0939771
-0.00983545
-4.66309e-06
-0.0012354
0.000176883
5.10481e-08
0.0396192
0.0107243
-1.05161e-05
-1.5937e-07
-0.938221
2.61513e-06
-0.0101847
2.78526e-05
0.067957
-2.07812e-07
5.92326e-06
0.00167726
-1.54243e-07
-6.38358e-06
-1.68217e-06
-1.23934e-06
2.18623e-05
-1.07811e-05
2.09315e-06
5.86215e-06
-1.37099e-07
1.51512e-06
-1.34426e-05
0.00435709
0.022224
1.04205e-05
1.13912e-05
-0.0151127
-4.12751e-05
3.49459e-06
-9.38841e-07
6.40229e-07
9.7539e-06
-1.60212e-05
-1.51994e-06
-1.62985e-07
-0.0221249
3.52286e-06
9.45467e-07
-0.00145127
-1.64035e-06
-0.000137141
-1.50038e-07
-0.148011
5.56134e-07
2.09936e-06
7.36192e-07
-0.224119
0.0579986
6.96264e-06
-1.41227e-06
0.00045904
7.05076e-07
-0.0107776
-6.90163e-06
0.000651013
5.19712e-08
0.000694031
7.59146e-06
2.84327e-06
-4.06336e-05
5.24857e-06
-3.82558e-06
-3.19887e-06
-0.00012586
1.5353e-06
1.47647e-05
-0.0135007
4.53153e-06
1.65012e-05
-1.31577e-06
2.78317e-06
0.0549906
7.29494e-06
0.0257151
0.000789209
0.0011332
-0.000323577
3.49057e-08
0.00195135
1.30986e-06
2.55107e-06
2.5624e-06
-0.00135466
2.18812e-07
-0.150929
-0.0116743
2.02142e-05
-1.54857e-06
-6.13729e-05
1.18746e-05
-1.08355e-05
2.219e-06
-0.00415889
2.66205e-06
-0.0339012
0.00663603
0.0023455
-0.0876465
0.000654566
3.13634e-06
4.82352e-07
-1.5679
-0.00110203
2.08967e-07
-0.0112251
-0.000176474
-2.01197e-06
1.13416e-05
3.61623e-06
2.66366e-06
-0.00116431
1.37289e-06
0.0618557
-2.59446e-07
0.110295
8.19383e-06
-2.31678e-06
3.93165e-07
-1.39491e-06
-5.52236e-05
-0.00025129
0.0924633
3.43407e-06
1.40008e-05
9.74042e-07
-0.000280982
4.12405e-08
-0.0133837
0.0584538
8.85615e-05
2.19768e-05
-0.00129953
-0.0049811
0.0352008
0.000144792
-1.06879e-06
1.32902e-06
4.1049e-05
-0.247154
9.61616e-07
-1.34834e-06
-7.04082e-05
-3.17181e-08
3.35294e-05
1.55942e-05
-5.05362e-06
-2.74466e-06
9.25961e-05
-1.34643e-05
0.025719
2.38372e-06
-0.0551833
0.00243829
4.71009e-07
5.29421e-06
-4.08263e-06
-4.7744e-06
-6.07832e-06
0.000616417
-4.56087e-05
0.0177323
-1.75732e-05
1.1127e-05
1.24756e-06
-0.0122551
0.00223536
-5.5145e-08
-3.28963e-05
-1.40366
-0.00531262
-1.64974e-07
0.0907007
4.06481e-05
4.70352e-07
-0.00151917
-7.62832e-06
4.76355e-07
0.000461628
0.0275284
2.57064e-05
2.78137e-07
0.10761
-8.64084e-07
-7.21852e-07
0.00144212
0.00671434
4.2471e-06
1.10697e-05
6.45025e-05
6.88765e-06
-2.45299e-05
-8.88615e-07
2.15642e-06
-1.19343e-05
0.000556633
-5.672e-05
2.80729e-06
2.49943e-06
0.00165278
-0.000525277
1.18958e-07
0.00856445
3.17339e-06
-0.273984
0.00118836
-6.29538e-05
0.00119819
-0.00408627
0.0588761
0.0793949
-8.11276e-07
4.10116e-05
0.0149428
8.90131e-07
-1.56136e-05
-0.000177782
-0.000191979
0.427397
-5.4077e-08
1.59292e-07
6.16983e-06
3.02739e-06
0.000920253
0.0626167
-3.7533e-07
-0.0875216
9.72648e-08
0.019547
0.000562341
-6.15055e-06
5.32825e-06
0.0411937
-0.0296937
3.28822e-05
2.29724e-05
-0.000101755
1.05922e-05
3.69057e-06
0.00146513
2.85637e-05
7.31121e-06
5.03186e-07
0.0559428
0.230867
1.287e-05
-2.04329e-06
0.00136143
1.96379e-05
-2.35003e-06
-8.31717e-06
0.000418653
9.79564e-06
-0.00112349
0.000523977
2.19284e-06
-0.000471863
1.88205e-06
6.5547e-06
-1.66197e-07
0.000684799
6.31721e-06
2.21274e-05
-7.22661e-07
8.06274e-05
0.048266
1.72576e-05
-1.5166e-06
-3.05841
-0.00128099
0.00148099
-6.61824e-06
2.13966e-06
0.0966288
-0.300035
0.0652209
-1.44923e-06
-0.000410008
0.0661055
-0.000115639
-0.00255968
-4.78499e-06
-1.35314e-06
-5.22641e-06
0.0219255
-1.3664e-06
-2.97023e-06
-3.62067e-07
-6.00469e-09
0.0659074
-5.70384e-06
-0.0376863
0.000701593
1.39157e-07
9.21987e-06
-0.0132889
7.30185e-06
-4.1922e-06
-3.16435e-05
-7.79035e-05
-0.00942258
-2.78898e-06
-1.3484e-06
-4.76816e-05
0.000270841
0.0058486
-1.02103e-06
-1.75039e-06
7.74027e-06
0.00304256
-0.0128928
0.000813141
1.65499e-05
8.16607e-07
9.86339e-07
-7.52346e-07
1.34255e-07
0.0613972
0.0100042
0.000830636
1.07445e-05
-4.96199e-05
-9.4607e-05
0.0289495
-4.50421e-05
-0.011783
-7.98885e-05
6.05963e-05
-4.70729e-06
6.69577e-07
3.03262e-06
1.95633e-06
3.62666e-06
-6.53326e-06
9.75658e-07
-3.59078e-05
1.28073e-06
-4.07126e-06
-0.0139691
-3.23151e-06
-1.20101e-05
-4.2462e-07
-5.30409e-07
-3.90241e-05
-3.96275e-07
1.4447e-05
4.00417e-05
8.68169e-07
0.00593627
-8.72827e-06
4.85402e-06
0.00166059
1.1807e-06
-1.05569e-05
0.000574676
0.000854964
0.000792936
1.11702e-06
0.349249
8.21914e-05
0.00276492
1.26481e-06
5.19768e-06
0.27788
0.00806199
-4.45257e-06
6.44942e-06
-0.0107217
0.210672
-1.82609e-07
-0.000799917
1.21852e-06
0.0244001
-9.63725e-06
-4.94551e-07
-0.00107203
3.33289e-06
-4.06023e-07
0.292522
-0.00824451
2.66381e-06
-5.00538e-06
1.24611e-06
2.38883e-06
0.0434839
0.310726
1.04828e-07
-0.445193
0.0115896
4.37629e-06
1.25325e-06
5.57227e-08
-0.000143448
0.0916932
0.0908371
-0.0121018
-5.17688e-06
-0.00868786
-2.92793e-07
-1.26055e-07
-0.00037471
-2.87686e-07
-6.12534e-05
0.00333027
-1.41696
4.4104e-05
-0.00113585
1.22533e-07
-0.000158302
-0.420319
0.00321753
2.50499e-06
-0.0101054
8.13173e-06
-5.38369e-07
0.000507008
-2.05338e-07
-9.02138e-05
1.00804e-05
0.000981565
3.24333e-06
-0.000131875
0.000165137
0.0210177
1.28732e-07
6.37917e-07
5.03899e-07
0.000117953
0.0894733
-0.0045685
0.089861
0.00108622
-3.15731e-05
-1.45086e-05
-0.000291774
0.00046516
0.0915544
0.0012259
5.86978e-07
-6.74678e-06
0.000467419
-6.24757e-06
0.00541864
-5.1073e-05
-0.000364237
-0.0141722
-0.00360868
2.20159e-07
-1.30072e-06
0.0571328
-4.08591e-06
4.65377e-07
-2.43091e-07
-8.15699e-07
-1.57295e-05
0.0134203
0.0713602
0.284505
0.0436649
-1.24992e-06
-3.87118e-06
0.153146
9.91454e-06
1.64585e-05
-3.89849e-05
0.18483
-7.24365e-07
-1.03301e-06
1.5858e-05
-2.20925e-06
0.00839625
0.0185598
9.29454e-07
1.06542e-05
0.000879243
0.00335321
5.78727e-07
4.87378e-07
-0.000904311
5.49918e-07
0.160379
0.00361068
0.000123123
1.07327e-05
-2.05588e-06
0.658787
1.76668e-06
0.000124298
3.87208e-06
1.07123e-06
4.03779e-05
-0.00672867
4.36486e-05
5.16033e-06
1.13629e-06
0.00218529
0.000893295
2.88575e-05
7.22862e-06
-0.000393514
-2.23233e-05
0.416038
0.000151769
0.00492666
1.7662e-06
-0.0302307
0.00296491
-0.824843
-6.06369e-05
2.99189e-05
0.0256608
1.38274e-06
-1.65877e-05
-0.00271587
-0.000203029
-5.45461e-07
8.41128e-05
-0.0250682
9.29257e-06
-1.42908e-05
0.00590824
-0.121688
-8.79924e-05
1.65719e-05
-0.0162521
1.26801e-06
6.66318e-07
-0.00174443
1.04208e-05
0.00190099
-3.70232e-06
-2.17645e-06
-3.85793e-06
0.000703433
0.000130733
-0.00013201
0.000129787
-0.000618741
-0.00118847
1.47637e-05
9.03596e-05
-0.000566916
-3.09248e-06
2.64905e-06
-1.10437e-07
0.140662
7.59182e-07
0.000153682
-7.9639e-06
3.17509e-06
-3.64313e-07
3.79253e-06
-0.030436
-1.43825e-06
2.23175e-07
4.60978e-07
-2.094e-05
-0.0912999
0.000173323
-0.0124279
-3.34207e-07
2.50305e-06
-0.00285516
4.26234e-07
1.31257e-06
0.000458199
3.42954e-06
0.0343554
0.00093084
0.00542883
0.000819745
1.44801e-06
1.82911e-07
1.24834e-06
-4.81214e-07
-0.00717119
-0.00751819
1.13747e-05
-6.81589e-06
-1.93894e-07
-0.00424892
1.41786e-05
-8.84182e-07
1.47811e-06
0.000210169
9.00719e-05
7.60561e-06
0.000785222
-0.089338
-0.000967798
2.18287e-05
0.0347571
-1.82086e-06
0.00328482
6.64775e-06
3.43099e-06
-7.74454e-06
0.00168084
-2.59142e-08
5.13084e-05
2.15101e-07
-0.129502
-0.0243806
0.413819
9.71291e-07
4.53728e-06
-1.76115e-06
-2.09003e-06
-5.8506e-07
0.00138108
-5.20795e-05
1.32115e-06
6.97558e-07
-2.72587e-06
-0.0172589
0.00371612
0.00100337
-0.0255914
-0.000557109
1.57905e-05
1.3197e-06
-9.92382e-08
-4.30268e-05
-0.00148021
4.35763e-06
-0.0152372
2.19052e-05
-0.554655
-9.6295e-07
-0.0305793
-0.00498754
8.47205e-06
-1.33557e-06
0.0194025
-2.5238e-07
4.51255e-06
-0.641114
-5.83411e-06
0.000158028
-1.21083e-06
-0.202098
-4.73196e-06
-1.19166e-06
0.49848
-0.00289557
0.00131066
-2.64143e-07
-4.90853e-05
1.44128e-06
-1.23873e-07
1.33369e-05
4.56698e-07
-2.30844e-05
-1.30366e-06
-0.148079
-0.205955
-0.178004
1.31845e-05
4.75343e-06
-0.0276714
4.74902e-06
2.95506e-06
9.35938e-07
-5.81967e-07
4.15139e-05
0.00113496
-0.00421356
3.25224e-07
4.02165e-07
0.0518221
-1.9776e-06
5.02887e-06
0.000791426
-0.00019184
-0.00109072
-0.0525812
0.000778318
0.100192
-0.51951
-4.30464e-06
0.0491421
5.44028e-06
0.00188564
0.000105058
-1.90158e-08
-5.80027e-06
-0.738123
-1.44591e-05
-1.22695e-07
0.0341416
1.00682e-05
6.35649e-06
0.0213377
0.507991
-6.16009e-07
0.00291326
0.0829043
-1.12308e-05
-0.000260469
-2.01612e-06
0.000747456
0.0279952
-1.32042e-06
1.0641e-07
-0.0124201
9.35015e-07
0.00142259
-0.369802
-0.0105702
2.24584e-06
0.173905
0.000533975
2.38153e-06
-3.26024e-07
-1.87652e-06
-3.37548e-08
4.6445e-06
-0.000230293
0.407556
-6.89556e-06
1.13167e-06
-0.000499252
1.51259e-05
0.000101471
1.50643e-05
-3.2195e-06
-0.00532929
-4.97007e-08
1.55239e-05
-4.10772e-07
5.4454e-07
-0.00101831
2.8672e-06
9.6572e-05
-1.33481e-06
-5.8496e-05
-0.000113518
-2.31256e-07
1.38806e-06
-0.000650366
4.43592e-06
0.0259156
1.00015e-05
0.000176975
3.02526e-06
3.27976e-05
-6.8747e-06
-3.26444e-07
-0.0768897
-4.47002e-05
8.67536e-07
-0.0857989
-4.77751e-07
7.07972e-07
3.57854e-06
-0.00015015
6.62105e-07
-0.00153976
0.000103436
5.80785e-06
0.00114894
-0.0224069
0.000176955
-5.47749e-06
1.95903e-06
8.03427e-06
0.515313
-4.15758e-06
4.27909e-07
4.0661e-06
0.000662715
9.79261e-06
0.000167704
-0.0196879
-4.9784e-06
-0.00560375
-0.00615861
-0.162623
-0.000393583
0.297653
-0.000194389
5.0943e-07
-0.00544775
-1.04542e-05
-0.010843
-1.2666e-05
-0.116114
0.000709187
3.76439e-06
4.27538e-07
0.0156444
-0.0142554
4.51348e-06
2.54559e-06
5.60134e-07
5.93613e-06
2.71495e-06
-0.0167366
2.91543e-06
1.86279e-06
0.0190725
-9.96261e-08
-0.00172809
-0.000129701
-0.00011262
0.000317035
4.22124e-06
-1.10511e-07
0.0618032
0.0131024
5.51581e-06
-7.10004e-05
-7.37984e-06
3.59054e-07
6.99367e-05
-0.000213491
0.0211476
-4.35122e-06
-8.76716e-06
0.0184422
-0.00313626
-4.541e-07
-0.000384903
0.000923267
0.000646942
4.04866e-06
-2.71919e-05
-5.47325e-05
0.0331433
2.23412e-06
2.57452e-06
5.46562e-06
4.69006e-07
1.71753e-06
8.74665e-07
0.0191284
1.26675e-05
1.04563e-05
-0.00317799
-1.17298e-06
-0.0639245
1.42772e-06
-0.181309
3.03224e-07
-0.0229382
0.0732818
-0.00211182
2.98158e-05
-0.0492517
9.23493e-06
4.52385e-06
0.000268895
1.85777e-05
-0.00147592
-5.05948e-07
1.54132e-06
-0.00174749
1.07905e-05
-0.212212
0.000135915
0.447882
-3.78506e-06
0.00016301
1.3725e-07
2.20535e-05
0.000612632
7.40477e-05
-0.000103262
1.18518e-06
-0.0134626
-1.44499
-0.000373025
0.0707905
-0.000937909
2.23954e-06
0.0782114
-0.00661826
-0.0277375
0.00016246
0.0321101
-0.0394459
0.0264373
-1.9144e-07
-7.23239e-07
5.47183e-07
1.31302e-05
4.84513e-07
0.00375157
0.00337088
2.28729e-06
0.00163111
8.56316e-05
-4.07908e-06
-7.25331e-07
0.139825
-0.000235158
3.09361e-06
9.04956e-06
0.104391
2.41444e-07
-0.108012
-0.0140911
-0.00733903
4.1427e-07
-0.00423071
0.00128202
-0.206069
-9.246e-07
-0.0253085
9.99661e-05
-0.239892
-1.20231e-05
-9.71742e-07
4.66696e-07
-0.0799507
9.15946e-07
8.03231e-06
0.00242503
0.000104475
1.00733e-05
1.42707e-05
-4.19746e-06
-1.14921e-06
2.27085e-05
9.93444e-07
-0.000305365
-0.000240192
0.000169482
0.000872202
-1.53206e-06
-0.000295979
0.132938
-0.000109181
0.0731812
4.26083e-06
-5.55676e-07
7.46869e-05
0.473982
6.5582e-07
5.08251e-06
7.42023e-05
-0.00320638
-0.000840116
2.49372e-05
-4.29375e-06
0.000340867
-0.106246
-4.29883e-06
9.76033e-06
-0.00237435
9.6771e-08
-0.430631
-0.000110346
0.000446243
6.4886e-06
1.07132e-06
0.000113511
-8.82779e-05
-0.00627473
1.23771e-05
-1.1536e-06
0.0719934
-5.42265e-05
0.00135877
-0.839684
-4.6542e-06
0.003248
1.49874e-06
1.1174e-05
4.06968e-06
9.22773e-05
1.47423e-05
-0.0360794
-9.26263e-08
0.777069
3.41285e-06
-1.37195e-06
-3.47407e-07
0.001282
0.0378461
3.95646e-06
-0.000268359
-1.33486e-06
-5.90328e-05
0.0220839
-0.338856
-2.9174e-06
0.0302212
4.31385e-06
3.72042e-06
2.59613e-06
5.29001e-06
5.12109e-06
-1.3285e-06
0.068929
-2.97659e-06
0.00350245
0.000289457
-8.67957e-07
0.00134509
2.30104e-06
-0.0011785
-2.06508e-06
-3.97594e-06
-1.09166e-05
-4.10005e-07
7.3484e-05
-3.75236e-05
0.000916639
0.0195317
-6.70331e-06
-1.86565e-06
-0.000267553
0.000845685
0.0388521
0.00242733
1.29089e-06
6.32536e-07
-3.51133e-06
0.00185874
-0.00237563
4.14865e-05
-0.000159945
0.336073
-1.43552
-0.125082
2.77194e-06
0.0630905
0.0308886
-1.5339e-06
-5.30817e-07
-5.79725e-07
-1.55623e-06
-6.29348e-07
-1.88469e-08
5.24326e-05
-0.00150193
0.041181
0.0934677
0.00125357
-0.00051279
-0.000114472
2.71568e-05
6.05446e-06
-6.05315e-07
0.000253936
1.12705e-06
8.19723e-06
-6.93061e-05
0.000153038
-3.26029e-07
5.11192e-07
-5.35248e-06
-2.00662e-05
1.376e-06
2.74788e-06
-9.04387e-07
-2.06599e-05
7.00678e-07
-3.91492e-05
-0.000334258
2.7213e-07
2.14181e-05
6.60618e-05
6.45186e-07
1.47334e-06
2.15651e-05
8.37242e-07
1.25889e-06
0.0631112
1.40691e-06
0.119888
0.018762
3.61221e-06
-2.29045e-06
-7.80218e-07
1.54816e-06
-0.0133028
0.174893
-0.0283825
-4.05033e-06
0.000263013
2.28308e-06
-6.13127e-07
0.0414846
0.00116067
-2.43039e-06
5.56713e-07
1.31511e-06
0.0130544
-5.73145e-06
-1.207e-05
3.246e-07
0.000534963
-4.36464e-06
1.0035e-05
-2.58583e-05
-1.45868e-07
1.01008e-06
9.16463e-07
5.20669e-07
2.22229e-06
6.53912e-07
4.20794e-05
-1.03203e-07
-0.0671963
-0.000603477
-1.30726e-05
-1.49642e-06
-0.00666297
-0.000250422
1.11287e-05
-3.06024e-07
-6.99954e-07
-0.207416
-7.96476e-07
1.08415e-06
6.25175e-07
3.14238e-06
0.0562366
-0.000116767
3.39703e-08
5.8067e-07
4.37679e-05
1.07431e-05
0.000452806
0.000584808
2.64073e-05
0.0780891
0.0792062
7.50992e-07
5.99346e-06
-2.44541e-05
-0.779936
-0.302225
-4.02097e-06
-2.87465e-06
-4.41712e-05
-0.000217489
-0.000240602
7.54243e-07
0.0261401
3.31014e-06
-0.286114
5.02167e-07
5.17681e-07
1.03751e-06
-1.17069e-06
1.93554e-07
-2.61543e-07
5.99637e-07
-0.017378
3.3169e-06
-1.68401e-06
3.70767e-07
1.73579e-06
6.72515e-05
5.90814e-07
0.0461378
3.76889e-06
4.18261e-07
0.087867
8.72001e-05
-1.34688e-05
0.00173054
0.000773192
4.67571e-06
-1.65717e-06
-0.000159817
0.000745619
0.000195254
-0.00018539
0.0212994
6.83921e-08
0.0626599
1.44831e-05
-5.87476e-07
-1.4079e-05
-0.010735
-0.0173565
-0.0160304
2.0329e-06
-0.000360696
6.21836e-05
-3.30745e-06
-0.00179795
0.000683124
7.52373e-07
4.40568e-06
6.7688e-07
-9.02374e-06
1.90492e-06
2.00294e-06
-9.71326e-06
6.49504e-07
1.88372e-06
1.14184
-0.161873
1.98404e-06
-0.000998013
2.1094e-06
1.9897e-07
7.77202e-07
2.15934e-05
-4.47902e-06
0.000386961
-0.000531577
1.02465e-05
2.4574e-05
-0.149172
-1.94542e-08
0.0814151
1.15746e-06
4.36653e-06
-2.28622e-05
-1.17391e-05
2.20656e-05
0.0453881
-1.26865e-05
1.34674e-06
4.9201e-08
2.61297e-06
1.45003e-05
-4.5707e-06
9.3287e-08
0.0238072
3.26736e-05
0.0705488
-1.07826e-06
-0.000254244
-0.00075352
0.0321747
-1.56327e-07
-9.65487e-05
0.0121303
9.75351e-06
-1.22145e-05
5.5057e-07
0.000190879
2.18108e-06
0.00332294
-0.00168052
1.31003e-06
-4.13092e-05
-8.81963e-05
-3.80939e-06
-1.20754e-07
7.60524e-05
5.11474e-07
-0.017203
0.726266
-0.0014042
-0.000260062
0.0520486
-3.54429e-06
0.000781526
-0.000196188
-1.58252e-06
5.34955e-07
0.000194609
-0.118421
-5.19141e-06
-9.60432e-06
-1.51931e-06
-1.48206e-06
4.12872e-07
0.00106817
-1.18056e-06
-0.000312393
-0.000170418
-1.57684e-06
8.38087e-05
5.45851e-07
-0.000840834
6.53949e-05
-1.15658e-05
5.53166e-06
3.84295e-08
0.0585899
3.77855e-06
0.000371427
5.01571e-06
0.000320174
-0.000155621
1.10893
1.51689e-06
-0.0012441
3.36398e-07
-2.63534e-06
-1.27421e-06
0.000609482
-4.28099e-05
-0.0241415
-0.0983022
1.24367e-06
3.27732e-07
0.000576557
-0.00187088
-4.43099e-06
-0.000389574
9.09312e-07
7.45756e-05
-1.17938e-05
-1.20922e-06
-0.00121608
-4.30012e-07
-0.00128547
4.86189e-05
0.0820305
-1.06691e-06
-1.1509e-05
0.000141269
9.72007e-05
-2.32077e-05
-0.0895705
-1.31447e-06
1.97661e-06
-0.00505263
-5.58111e-07
0.000177479
0.000387308
-2.12421e-06
0.0826144
0.00681349
-0.00294095
0.0600676
0.000847461
-7.2355e-06
-0.116859
0.0153952
-6.8316e-07
2.68121e-05
-7.3351e-07
0.0127655
0.0190957
-0.0383816
0.015482
1.01343e-06
1.10817e-05
-1.80121e-06
2.59346e-06
-5.85049e-05
0.00025463
-0.0311205
-0.0424582
-4.72174e-07
0.000447119
1.18335e-06
0.0604273
-3.04416e-06
-3.10693e-06
-3.33869e-07
-1.05431e-06
1.02771e-06
-8.3583e-07
-2.76596e-06
-0.00332964
-4.30209e-06
7.51415e-05
-1.54495e-06
-1.16632e-07
4.89746e-05
1.99646e-06
-0.0015577
-3.12758e-06
2.43977e-05
0.14679
-1.66576e-05
-5.26064e-07
1.07533e-06
-5.97192e-06
-0.50616
-0.0630632
-5.117e-07
-0.028332
5.18159e-07
-0.00150531
1.26597e-05
2.00571e-07
-1.73988e-07
-6.16484e-07
-3.47443e-09
1.05124e-06
5.67164e-05
0.0747208
0.069013
-0.000989553
0.000781997
5.11011e-06
0.00639259
1.52305e-06
-1.81746e-08
6.18916e-05
0.0264371
0.000339662
1.66215e-06
4.8352e-06
0.0565951
1.67314e-05
-1.11483e-06
-0.00797704
5.97553e-06
2.23434e-06
-1.36056e-06
-8.66704e-07
-3.98113e-06
-0.000695369
-3.55958e-06
-0.0134761
0.000645127
-0.000126282
4.952e-07
3.4175e-06
0.000280336
8.49482e-07
3.09019e-06
0.0492218
-3.21604e-07
-2.73196e-06
4.13279e-06
0.0374468
2.28838e-05
8.26751e-06
3.22394e-06
1.46704e-05
-1.1451e-05
1.59931e-05
0.0101372
-5.43966e-09
0.0682782
0.000636284
1.72707e-06
0.00314843
-0.00120612
-0.000526912
3.43569e-06
0.131968
3.7048e-06
-0.285329
2.62937e-05
-5.9405e-07
0.145276
-9.93179e-06
-3.31818e-05
0.040839
0.000323365
0.000222539
-1.44518e-05
-0.00134691
-9.49344e-07
0.0185463
-9.24383e-06
-0.023544
7.84859e-05
3.14143e-06
5.58232e-06
1.36013e-05
4.40203e-06
-0.000527556
6.05857e-05
5.76827e-06
1.94516e-05
-6.02871e-06
-1.46719e-05
-0.00413742
-0.00122117
0.000323572
-0.00955818
8.08315e-07
0.935617
-8.17933e-05
3.27819e-06
-5.13527e-06
2.61259e-06
0.000634036
-9.10572e-07
4.17869e-06
-0.000534328
5.07785e-06
-0.00173671
4.53627e-06
-7.06915e-07
0.0217869
-0.0258465
0.0888438
2.54851e-05
-0.170955
2.11003e-05
-0.000487668
0.00699362
5.19396e-06
0.00671189
8.73295e-05
-1.14232e-09
0.00735954
-7.20587e-07
1.78901e-06
-0.00669843
-5.14879e-07
-1.2608e-06
-0.00167575
0.774547
1.52023e-05
-3.48782e-05
0.00195838
-4.84584e-05
-3.43872e-05
-9.65064e-06
0.000164652
-0.0033729
-2.99804e-05
-9.87004e-06
-2.16656e-06
-2.09466e-06
-7.8819e-07
-9.29052e-07
0.0815047
-0.0175311
2.26851e-05
0.000423603
3.84613e-06
1.05026e-06
0.000246782
3.66552e-06
-0.231141
8.60946e-06
-2.03039e-06
0.000168556
1.32063e-06
-0.00366764
0.939847
0.0392585
-1.46869e-05
-8.94979e-06
-0.000124733
-0.00926202
0.166318
1.0971
-0.000256702
-0.000392353
-7.16763e-06
-3.47031e-05
1.61413e-06
0.000235216
-8.37114e-07
-0.00140128
-0.000117595
-0.0141017
3.62136e-06
7.4207e-07
-1.48556e-06
0.0243773
5.1532e-07
-0.170327
0.000754827
-6.61913e-07
-0.00223688
3.17139e-06
-0.00380755
-4.92553e-05
2.25627e-05
-8.82016e-07
-1.99559e-06
5.65236e-05
0.000403384
-0.000262767
-3.84417e-05
4.80898e-06
5.5459e-07
-3.79207e-06
-2.65601e-06
0.00670163
0.0230825
3.39182e-07
0.00122902
0.000278757
9.37508e-08
-0.00114548
2.18937e-05
9.50535e-06
9.96622e-06
8.67712e-07
4.26386e-07
0.000248478
0.000824614
0.0734642
0.000491068
-0.00281624
1.87193e-06
1.83724e-05
2.14203e-06
1.02951e-06
-1.41025e-06
0.000239303
-2.59404e-06
0.00168997
-3.98444e-06
1.18852e-06
-1.16654e-05
0.000127021
-6.79199e-07
3.39529e-05
-0.286142
0.000146721
-5.22417e-06
-1.73891e-06
-4.39384e-06
-6.02627e-07
4.9366e-06
-3.62569e-06
-0.000127175
2.64092e-06
1.66685e-05
-7.01595e-05
2.74245e-07
-0.000159191
-1.0751
-4.1418e-07
7.88066e-06
6.39231e-06
-5.2966e-06
4.22658e-07
-1.73065e-06
0.00755885
3.35248e-06
4.45955e-06
0.000691085
6.64979e-07
5.75195e-06
-0.0398943
4.18975e-06
0.000805048
8.74334e-07
1.13108e-06
0.0182067
1.17576e-05
0.0316359
0.0668397
-0.281646
1.36251e-06
-0.000293656
5.17554e-07
-0.000976326
2.65778e-07
-0.000212283
-1.49162e-06
-0.00197824
0.301143
0.0411926
-7.99877e-05
1.69354e-06
2.75821e-06
5.92875e-07
3.81139e-05
7.87226e-06
7.13006e-07
0.0100126
-0.000854825
-0.0442143
-1.43685e-05
1.54559e-06
-0.125633
6.20551e-05
0.000156296
5.13634e-06
0.00239655
-1.68014e-06
-2.5233e-07
0.0666486
1.36184e-05
1.59837e-06
-5.05231e-07
-2.28389e-06
3.05458e-06
0.0329742
-1.30813
4.28366e-05
7.61107e-05
7.63391e-07
-0.0112932
2.64342e-06
0.445835
2.20532e-06
-0.000388144
0.00034238
-4.41614e-06
2.84656e-06
-0.16466
-0.00454427
3.04297e-06
-0.000157538
3.45371e-07
-2.86459e-05
-0.0178451
-3.26928e-05
-0.000592038
2.60363e-05
-0.00401773
4.83365e-06
0.000779763
-0.000434805
2.6452e-07
-0.0016355
1.53535e-07
2.45624e-06
-1.15869e-05
-0.000545375
0.0460462
4.48434e-06
2.16336e-05
7.72682e-06
0.00485214
1.42014e-06
0.000168067
-3.33396e-07
-2.37559e-05
1.3575e-05
-5.28728e-05
-7.35368e-07
-0.00718594
8.28052e-06
3.26869e-08
0.000782405
-1.35747e-05
2.04452e-06
-5.66119e-08
1.91465e-05
-1.11532e-06
2.0593e-06
4.92552e-07
2.42167e-05
0.00142914
-6.80452e-07
-0.00148317
-3.84852e-06
-5.56412e-07
1.38333e-05
1.00841e-06
1.54206e-06
-0.215147
-0.000158749
0.00339417
-0.000601379
0.000713553
-7.29547e-07
2.68477e-06
3.51281e-07
1.49765e-05
0.00195991
0.0722826
0.0725231
0.227972
-4.51961e-07
-0.00672864
-0.177202
-6.2074e-07
-6.351e-06
-0.165335
-0.00795539
0.222922
0.429055
-1.0794e-06
1.353e-06
-1.81061e-05
-0.000809355
-0.216161
0.000661154
-0.0118056
5.17171e-07
-0.00415667
1.19201e-06
1.38928e-05
1.89668e-06
-0.00114504
2.32912e-06
0.00882472
0.000205112
0.00035281
2.69183e-05
3.84594e-06
-0.000209479
0.0687199
-0.000309194
0.0261925
-1.97139e-05
-3.38174e-07
-5.27751e-06
-3.97825e-06
1.88477e-05
0.00168346
1.2059e-05
-0.00153538
3.41995e-07
-0.00039159
0.00299639
0.00298942
-1.03113e-05
4.42632e-06
-0.00642353
-5.07737e-06
0.026395
-4.71429e-09
3.81453e-06
3.90049e-06
4.13507e-07
0.00158303
-7.01245e-06
0.0786388
-1.04022e-06
1.5844e-06
8.24019e-07
-0.196975
-1.09516e-05
0.0829696
0.000218344
5.20374e-06
-0.00114686
-1.34765e-05
3.56481e-06
3.21991e-07
3.75442e-06
-1.43508e-05
0.0135247
0.000224029
-1.95464e-07
-1.71228e-06
-7.72836e-06
-1.70479e-06
8.03848e-07
-8.26006e-06
5.60775e-05
2.50199e-05
2.97236e-06
9.76398e-06
-3.45412e-07
5.36476e-07
4.4396e-06
4.28954e-06
2.93987e-06
0.000563772
1.1608e-07
7.30606e-05
0.0054103
-2.46037e-07
4.07142e-06
-0.000144843
-0.229206
0.000586686
4.38251e-06
7.1772e-06
1.4495e-05
6.52562e-06
3.35587e-06
-0.00456514
-3.00825e-05
1.37155e-05
8.60025e-05
2.22457e-05
-7.92426e-06
0.000750363
1.27759e-05
4.10248e-06
3.33044e-06
0.00028483
0.0992725
-5.02099e-06
-0.0152378
-1.25865e-06
2.58181e-06
0.000349597
1.70079e-05
-5.44164e-06
0.571537
-0.0473923
0.00177498
-1.51523e-06
-1.90144e-06
1.74415e-06
0.0604396
-0.00127742
0.000132969
0.000374463
-1.11995e-06
-5.76047e-07
0.000213913
-5.47881e-06
-1.26938e-05
-1.5084e-06
-3.03033e-05
-0.00302981
-2.26899e-06
8.32257e-07
0.00728653
-2.88625e-07
8.01587e-07
0.000612752
6.74383e-06
-0.000222588
0.0193875
-0.817879
5.44351e-06
8.06243e-06
4.46107e-07
4.3722e-07
-0.000149715
-1.12477e-06
3.39668e-07
-5.44306e-06
1.19255e-06
-1.3191e-05
-0.000368556
-9.31668e-07
2.60233e-06
4.65325e-07
0.00349425
8.28197e-07
-0.0545727
-6.04538e-06
7.12507e-06
1.66956e-06
3.13081e-07
-1.36041e-06
1.11591e-05
-8.00583e-06
0.0261068
-1.19681e-05
6.20198e-07
0.00018608
-0.000168061
-1.61225e-05
-9.27385e-05
1.6629e-06
1.01698e-06
4.40412e-05
4.62942e-07
0.000774779
3.52346e-08
2.08462e-06
6.69495e-07
-0.00075439
1.07364e-05
1.12551e-06
3.29929e-06
0.000228904
-0.00178539
0.00191416
2.36701e-05
-0.00368186
-5.17218e-08
4.69701e-06
4.31914e-07
2.3804e-07
5.16087e-07
-2.13144e-05
-0.122931
-8.43333e-07
1.47704e-06
0.792548
2.17366e-05
1.52502e-06
5.0108e-06
-0.655363
-2.44807e-05
4.95872e-07
-0.000149793
-5.20603e-06
0.0360471
0.00238028
-1.37538e-05
-0.00459292
8.89219e-07
2.31921e-06
-1.80354e-05
3.64256e-05
0.000119947
-1.76121e-06
-4.88517e-05
0.0539919
9.9381e-06
6.12318e-07
-0.0225523
-2.19209e-06
-1.53015e-06
6.11519e-05
-0.000172798
0.000179684
0.0551193
-0.000124772
0.000253418
0.00132143
0.0341106
-0.00311677
-0.0160824
7.01943e-07
-3.60808e-05
9.90496e-08
9.65137e-07
1.77705e-05
0.0390716
2.01853e-06
-0.00373729
-2.08933
-0.0495838
-0.20339
7.84737e-06
-1.44194e-05
7.30408e-07
0.000402702
3.62977e-06
-0.174222
3.09187e-06
3.95174e-06
-0.00934211
-5.49806e-07
-0.00047463
0.016985
0.000554628
1.29492e-05
-0.0765754
9.01968e-05
-8.93339e-08
2.3897e-06
0.14332
5.97505e-07
-7.70988e-07
-1.36172
-2.54332e-05
-3.57629e-06
0.48321
2.52685e-07
0.138411
-0.000173547
-1.81497e-06
0.000804001
5.68505e-07
-1.86616e-06
3.06829e-05
2.17928e-06
0.0100172
0.00169203
-1.24548e-06
2.34084e-06
7.44349e-06
-0.00151728
6.99024e-05
1.18661e-06
0.0557963
-5.18382e-07
2.34515e-05
0.00284782
-3.11017e-05
1.64547e-06
2.20602e-07
0.0230211
0.00207089
-0.000310014
1.46952e-05
-0.00011053
-4.22323e-05
0.00063226
-0.00632613
-0.0109343
-0.00128279
8.45248e-05
7.46779e-05
0.000771769
-1.50497e-08
-0.0291712
-5.3958e-07
0.000516205
-0.0182749
-0.00134628
0.00581155
2.44425e-06
0.0453269
1.15323e-05
9.03198e-05
-0.00179245
-1.06116e-05
3.77275e-06
4.29201e-06
-0.00795696
1.13396e-06
-0.0503665
6.23106e-06
7.16935e-07
5.97629e-06
-6.77324e-07
-9.423e-06
-1.4442e-06
0.0681984
5.4643e-06
0.635992
1.53364e-06
8.65118e-06
-8.71018e-06
6.28745e-06
-0.0578228
-3.97876e-06
1.11525e-06
0.172689
-1.34757e-05
0.0754417
4.46003e-06
0.0109225
-0.0355509
-0.010425
-7.55052e-07
-6.61256e-07
0.000886822
0.00145897
-7.26116e-07
-2.32841e-06
-0.0103346
1.50382e-06
-4.45474e-06
0.000691535
0.000193677
2.60897e-06
1.2768e-06
-0.174207
6.22552e-06
-8.68035e-06
-9.64204e-07
3.84786e-06
0.295557
-4.24057e-06
-6.41382e-06
0.00171235
1.21841e-05
4.86914e-07
3.79377e-07
3.11842e-07
3.28238e-06
-4.76369e-07
0.469305
-0.00021996
0.101085
-4.72612e-07
5.21743e-07
-2.65334e-07
-0.000570855
-0.000270654
8.67107e-06
-0.00354604
-1.55462e-06
8.52535e-05
0.0202943
6.68501e-06
8.74027e-06
2.31951e-05
-2.56368e-06
-8.44969e-07
-0.0600382
-8.15055e-06
-0.00292933
7.86203e-06
0.000404439
0.0109436
-5.64118e-05
1.53644e-05
-0.000114392
9.03995e-06
-7.52715e-05
-2.67628e-05
3.81577e-06
-0.177184
-0.000338708
-6.07578e-06
-8.62688e-05
0.0582441
-0.941906
0.009499
0.000170887
0.0421576
3.79287e-07
-2.93275e-07
-8.03855e-07
0.282714
-0.130314
7.21058e-05
0.632743
5.7186e-06
-0.00112926
-0.0396572
0.370224
-0.0742008
2.0617e-06
0.0735817
0.00170818
2.3763e-06
0.000732101
-7.78029e-05
5.87536e-05
-7.08192e-07
1.63852e-05
-3.32882e-05
-7.6729e-07
0.000481272
-0.000211066
0.0675286
2.61749e-06
-0.000158497
-5.49659e-07
-0.000982105
0.00229562
-5.98411e-07
-0.00273706
-4.97108e-05
-0.206201
-3.14306e-06
-1.25121e-06
1.19759
-6.20588e-07
0.0206715
-2.59133e-06
-1.18069e-06
1.03068e-07
-0.00217051
3.16771e-07
-0.0154676
-2.19709e-07
0.0353578
2.62718e-06
2.9517e-06
0.00680507
6.92752e-05
-1.65358e-06
-4.1213e-07
0.746203
0.000343918
1.61779e-05
4.73626e-06
-0.0167013
1.7859e-06
2.30364e-05
-2.21768e-07
-1.15718e-08
0.000191286
-0.148353
-0.0016128
-0.0174139
2.74132e-06
-1.06515e-05
1.30739e-06
-0.00269696
6.2272e-05
0.000348163
0.000105233
-0.0238951
-7.67792e-06
0.081227
5.62941e-06
3.33533e-06
9.18409e-07
2.98612e-06
0.000161635
2.43353e-06
-0.000347473
8.00503e-07
0.652916
-0.00109911
0.0878158
1.85482e-05
8.83303e-05
-2.12856e-05
0.0256659
-4.43074e-06
7.28496e-07
0.00281705
-1.95769e-07
0.00241958
9.21091e-07
5.97764e-05
0.0169534
-2.05857e-05
0.000786482
-0.000996384
0.0345196
5.7163e-06
-3.96197e-07
0.00232913
1.18084e-06
-5.54483e-05
-0.00103415
-0.000134224
0.212601
5.06502e-06
0.0525059
-0.00144337
5.71402e-06
0.0508434
0.00566876
8.76164e-06
-0.00587252
0.000322959
0.000265058
0.00105805
2.70475e-06
0.0242823
0.000265623
4.18856e-05
-2.94353e-07
0.0458547
1.52042e-07
0.303219
2.65451e-06
0.116814
0.000484303
-3.79069e-06
-3.88309e-06
-9.34957e-07
0.0158232
-7.96247e-07
1.58465e-06
0.000329014
4.97602e-06
2.45168e-05
5.40524e-06
0.000491411
-5.97947e-05
1.17874e-05
-0.000110894
8.0477e-07
7.0762e-06
3.2266e-07
8.64133e-05
4.47478e-07
0.000613861
0.00318849
-7.30527e-07
-1.43348e-06
5.51085e-06
-0.00119103
-2.7142e-06
-3.16968e-06
-3.86208e-07
-4.27251e-06
-0.804503
8.05979e-07
2.66219e-06
0.275031
-0.00562014
0.00019357
0.00285421
1.53367e-05
5.78066e-05
-0.00245837
2.56857e-08
-1.40894e-05
4.06449e-07
-2.0901e-07
3.70466e-06
1.97126e-06
-8.05548e-07
5.66183e-06