/*--------------------------------*- C++ -*----------------------------------*\
| =========                 |                                                 |
| \\      /  F ield         | OpenFOAM: The Open Source CFD Toolbox           |
|  \\    /   O peration     | Version:  v2012                                 |
|   \\  /    A nd           | Website:  www.openfoam.com                      |
|    \\/     M anipulation  |                                                 |
\*---------------------------------------------------------------------------*/
FoamFile
{
    version     2.0;
    format      ascii;
    class       surfaceScalarField;
    location    "200";
    object      ddtCorrDdt0(phi);
}
// * * * * * * * * * * * * * * * * * * * * * * * * * * * * * * * * * * * * * //

dimensions      [0 3 -2 0 0 0 0];
oriented        oriented;


internalField   nonuniform List<scalar> 
56329
(
-1.64462e-05
-3.15089e-06
1.95966e-05
3.69222e-06
-2.80447e-05
2.43528e-05
0.000114624
-6.92822e-05
-4.53476e-05
-0.000112118
0.000657187
-0.000545077
5.23449e-05
-7.4476e-05
2.21292e-05
-4.96748e-06
4.92579e-06
4.15176e-08
1.19541e-05
-1.08022e-05
-1.15179e-06
-0.00197828
-0.000210334
0.00218865
-1.60508e-05
3.07662e-05
-1.47155e-05
-0.000235116
7.84107e-05
0.000156709
0.00112656
-0.000590948
-0.000535621
7.18352e-05
-0.000117747
4.5912e-05
9.73358e-05
-0.000126523
2.91872e-05
-0.000115884
-0.000189659
0.000305524
1.41205e-05
9.27822e-06
-2.33996e-05
3.40143e-05
-6.11027e-05
2.70867e-05
7.38692e-06
3.07315e-06
-1.04603e-05
-5.09706e-05
-0.000515278
0.000566229
0.000118675
-4.68418e-05
-2.48587e-05
2.86212e-05
-3.76362e-06
5.28519e-05
-1.88388e-05
-0.00139345
0.00090311
0.000490378
-0.0355771
0.0527067
-0.0171296
0.00132934
0.000134187
-0.00146353
0.000697776
-2.05223e-06
-0.000695747
1.32953e-05
3.97247e-06
-1.72682e-05
5.28333e-05
-9.69029e-05
4.40678e-05
0.00138665
-0.000609941
-0.000776768
-0.000115185
-2.32233e-05
0.000138426
-7.24654e-06
1.30621e-05
-5.81567e-06
0.00102785
0.000229174
-0.00125707
0.000109558
0.00048804
-0.000597589
-5.17747e-06
2.15407e-05
-1.63636e-05
-0.00987218
0.0123384
-0.00246624
-5.91763e-05
-4.80631e-05
0.000107238
1.31096e-05
0.000110769
4.29432e-05
-0.000153715
-8.96015e-05
0.000247432
-0.00015787
0.0228798
-0.00420164
-0.0186782
-5.2684e-06
-4.84972e-05
5.37644e-05
-1.66902e-05
3.02235e-05
-1.35328e-05
0.00391196
0.00344786
-0.00735987
3.53707e-05
2.98354e-05
-6.52068e-05
-0.000260022
8.93184e-05
0.000170703
8.38072e-06
1.63632e-05
-2.47451e-05
0.000158042
-3.64925e-05
-0.000121551
-2.19396e-06
3.9063e-05
-3.68697e-05
3.58986e-05
-7.45698e-05
3.86705e-05
-2.6466e-05
4.67509e-05
-2.02905e-05
0.00111501
-0.000124991
-0.000990025
-0.000746498
0.00169502
-0.000948531
0.00920743
-0.0102253
0.00101783
-0.000360311
-0.00951197
0.00863559
0.00370287
-9.95461e-05
4.03691e-05
-5.26125e-05
-1.09358e-05
6.35475e-05
0.00039058
-0.000303104
-8.74791e-05
-0.000102043
6.86529e-05
3.33887e-05
-0.000702593
0.00050676
0.000195852
0.000482373
0.0004056
-0.000887989
0.00013402
2.40221e-05
4.17771e-05
-0.000140666
9.88921e-05
-0.000631443
0.000519323
-0.000167321
-9.26988e-05
0.000613762
-0.00051601
-9.77588e-05
3.66267e-05
-2.25066e-05
-1.59619e-05
1.96527e-05
7.34614e-05
-0.000592448
0.00051899
0.000317101
-0.000167289
-0.000149813
-0.000708235
0.00232963
-0.00162133
-8.54119e-05
3.2799e-05
1.90043e-05
-2.13824e-05
2.37766e-06
0.0129416
-0.00373431
0.000423899
-0.000261137
1.39502e-05
-1.19134e-05
-2.03662e-06
-0.0044234
-0.00735272
0.0117762
-1.30606e-05
0.00112807
-3.31186e-06
3.08138e-06
2.30742e-07
-3.37038e-05
-2.71341e-05
6.08363e-05
1.75635e-05
-5.00389e-06
-1.2559e-05
-0.000249041
8.1721e-05
0.000600555
-0.000651525
4.10514e-06
3.38042e-05
-3.79078e-05
0.0100729
-0.0104333
-0.0125292
0.00567562
0.00685364
6.86637e-05
7.84736e-05
-0.000147138
0.000640122
0.000240839
7.62616e-05
0.000156895
-4.61152e-05
1.5974e-05
-2.67899e-06
-0.000334407
-0.000341924
0.000676331
-0.000120616
0.000102102
1.85107e-05
-2.35482e-07
1.41858e-05
-9.64479e-05
0.000138228
-2.86181e-05
-2.21314e-07
2.88397e-05
0.000136642
-0.000495022
0.000358389
-6.81127e-06
-2.18069e-05
-8.62034e-07
1.32223e-05
0.000791507
-9.3859e-05
-2.55811e-05
1.80344e-05
7.54699e-06
0.00025098
0.000139603
-3.93844e-06
-1.36874e-05
1.76244e-05
0.000560069
5.36889e-05
-0.00591429
-0.00661471
-0.000117546
0.000104484
1.30563e-05
-0.000399171
-0.000994251
-3.12727e-06
2.51898e-06
6.09064e-07
-0.00227959
-0.00133222
0.00361172
0.00624276
-0.0153549
0.00911234
2.95995e-05
-3.56244e-06
-2.60373e-05
0.000210861
0.000213034
0.000280562
-0.000831873
0.000551325
5.28399e-05
-5.81092e-05
-0.000461169
0.000467006
-5.82005e-06
-0.000604731
0.000885272
-4.07595e-05
1.12325e-05
2.9527e-05
-1.77178e-05
1.50282e-05
2.68782e-06
0.0158923
-0.00625657
-0.00963614
1.24546e-05
-5.99737e-05
4.75186e-05
-0.00419354
-0.0055524
0.009746
-0.000560544
-0.00152046
0.00208102
-0.00191672
0.000681649
0.00123509
-1.25377e-05
2.09152e-05
-5.40731e-05
6.51773e-06
4.75558e-05
-0.00034494
0.0069749
-0.00662992
-1.32992e-05
1.25292e-05
7.69733e-07
1.82681e-05
-3.05657e-05
1.22981e-05
1.43813e-05
-7.30377e-06
-7.078e-06
2.51301e-05
-8.55237e-06
-1.6578e-05
-0.000108284
4.7137e-05
6.11473e-05
1.1469e-05
2.51578e-05
0.000120069
-2.27319e-05
-2.40639e-05
-3.00084e-05
-1.15897e-05
-1.70909e-06
3.24621e-05
-2.39608e-05
-8.50228e-06
-0.000338213
0.000154707
0.000183501
-0.00727639
0.00693152
0.000701135
0.000118149
-0.000819358
-9.6634e-05
6.97747e-05
2.6859e-05
8.1681e-05
3.69951e-05
0.00838794
-0.00447601
0.000229303
-0.000345194
5.99355e-06
-4.5361e-05
3.9369e-05
9.13115e-06
1.59988e-05
-2.80407e-05
2.56743e-05
2.36664e-06
0.0001274
-4.572e-05
3.08695e-05
-5.09653e-05
2.00967e-05
-4.88674e-06
1.80563e-05
-1.317e-05
-1.13148e-05
-2.75197e-07
-0.000342764
-0.000226355
0.000569138
3.83272e-05
-3.23331e-05
1.88822e-05
-2.25324e-05
3.65033e-06
-0.000364993
0.000370721
-5.72175e-06
9.49433e-06
-0.000461154
0.001489
-1.07918e-05
-5.22666e-07
0.00954492
-0.00539272
-0.00415217
1.59672e-05
-1.42282e-05
-1.7391e-06
-2.55427e-06
1.00597e-06
1.5484e-06
-2.89278e-05
1.07144e-05
1.82146e-05
-0.000450844
-0.00133217
0.00178317
-0.000501888
0.000611466
2.84491e-05
2.73202e-05
-5.57691e-05
8.82459e-06
9.23165e-06
0.000213385
-3.48296e-05
-0.000178531
-9.54736e-06
-1.938e-05
0.00543465
-0.0127372
0.00730263
2.6523e-05
-8.25376e-06
-0.0363602
0.057494
-0.0211339
-4.40005e-06
-5.6738e-07
0.00139024
-0.000284736
-0.00110551
0.000116444
-9.46536e-05
-2.17894e-05
5.3704e-05
-4.12496e-05
-9.78093e-05
0.000327108
-3.95342e-05
4.60519e-05
-3.23218e-05
1.62704e-05
4.87728e-05
-2.40396e-05
-2.47335e-05
0.00102136
-0.000671945
-0.000349421
2.91243e-05
3.33671e-06
0.000237836
-3.5831e-05
-0.000202004
-0.00478053
0.00822833
-5.19978e-05
-1.09616e-05
6.29584e-05
7.59689e-05
0.000161867
2.98348e-05
-1.52212e-05
-1.46137e-05
7.57343e-06
9.66303e-06
-1.72367e-05
0.000313764
0.000103357
-0.000417107
9.13956e-06
0.000107304
0.000790402
-8.92722e-05
-0.000373013
0.000250046
0.000122972
0.0462078
0.0122836
-0.000131258
3.60981e-05
9.51565e-05
-3.18813e-05
7.02175e-06
-0.0020435
-0.000795128
0.00283866
7.5595e-06
-5.16669e-06
-2.39256e-06
8.50715e-06
-3.77845e-05
2.92781e-05
-3.08532e-05
3.936e-05
-0.000323321
-4.1673e-05
-0.000107833
0.000176496
0.000927405
0.000767626
-0.00675006
0.0529579
-5.67719e-05
-0.000192267
5.74096e-05
-2.24682e-05
-3.49406e-05
0.00070775
-0.000580152
-0.000127605
0.000165393
-3.13729e-05
-2.92903e-05
-2.68486e-06
1.30345e-07
-7.78294e-05
0.000623909
-0.000546055
-1.35241e-05
4.15756e-06
9.36587e-06
0.000943488
-0.000707213
-0.000236251
-0.0221305
0.00863197
0.0134986
-0.00230027
-0.000846962
0.00314727
0.00185135
-0.0022591
0.000407727
0.00126525
8.89076e-06
-1.50386e-06
-1.46586e-06
1.7433e-05
0.00678424
0.009108
-0.000181703
0.000300633
-0.000118934
-2.03851e-05
0.0177044
5.03343e-05
6.54585e-05
-0.000115799
9.55537e-06
4.78574e-05
0.000142564
2.28273e-05
2.14472e-05
-1.98683e-05
-1.57857e-06
-2.90346e-07
-7.31925e-06
7.60874e-06
0.000140174
-0.000321875
1.94835e-05
-3.1641e-05
1.21583e-05
0.00032819
0.000217883
-0.000546078
1.02053e-05
-3.85743e-06
-6.34798e-06
0.000591798
9.42327e-05
-0.000685956
5.11209e-05
9.54371e-06
-6.06659e-05
4.84246e-05
-3.88684e-05
1.88523e-06
-1.8849e-06
-6.17762e-05
3.93094e-05
0.000191739
-0.00155991
0.000136284
0.00142363
-0.000648949
0.000198862
0.00045008
1.78216e-05
3.62572e-06
-0.000209388
0.000110478
9.89118e-05
2.30795e-05
6.50667e-06
-2.95866e-05
-7.85838e-06
-0.000123401
-9.09476e-06
1.21476e-05
-3.05413e-06
-0.00978545
0.00387129
0.000418236
-0.000281588
4.92748e-05
0.000124401
-0.000173677
-5.05613e-05
-5.77249e-05
0.000417587
-0.000206728
-0.00503223
-0.00475304
0.000485613
-6.9679e-05
-0.00041592
0.000184896
-0.000141702
-4.31946e-05
-1.39241e-06
2.52853e-05
-2.38939e-05
3.33567e-05
-1.3873e-05
3.80366e-05
-0.000134481
0.00172367
-0.00217453
1.88437e-05
1.08132e-05
-2.96579e-05
1.69345e-05
1.28999e-05
-0.000562796
0.000128605
0.000434198
2.13409e-05
-2.51291e-05
3.78851e-06
0.000632403
-0.000590041
-4.2358e-05
-4.67125e-05
0.000208441
-0.000136877
-7.15643e-05
3.21261e-05
1.66457e-05
0.000782257
-0.000149856
-8.55714e-05
3.74525e-06
8.18273e-05
-1.99682e-05
0.000593588
-0.000573621
6.27857e-05
-5.03372e-06
-5.7752e-05
-0.000696641
0.000693471
3.16785e-06
0.000800099
-0.00310033
-2.67423e-06
-6.3754e-07
0.000159522
-8.79836e-05
-7.15366e-05
-1.59976e-05
-1.36911e-06
1.7367e-05
7.45724e-06
-3.34162e-05
2.59584e-05
0.000115961
9.24811e-05
-0.000407539
-0.00123331
0.00164085
0.00019455
-0.000381447
0.000186891
0.000580591
5.46015e-05
-1.87027e-05
-3.76412e-05
-2.34629e-05
-2.44882e-06
-1.02239e-06
3.47161e-06
-7.83814e-05
-0.000514058
-0.00289045
-1.67019e-05
-5.66889e-06
2.23708e-05
-0.000535249
0.00109796
-0.00056271
0.0178018
-0.00157028
-0.0162315
0.000319607
-0.00462747
0.00430788
2.53138e-05
-3.97274e-06
-2.52595e-05
-0.000623691
-8.88049e-05
0.00012684
-1.9689e-05
1.63516e-05
3.33786e-06
0.0219168
-1.24991e-05
2.45235e-05
-1.20229e-05
2.74448e-05
-8.60216e-06
-0.000972136
0.00533407
-0.00436195
-0.000156252
0.00083647
-0.000680214
-0.000102359
-0.000132755
-1.58233e-05
-3.86647e-06
-0.000710355
0.000215236
0.000495125
2.1722e-05
1.72712e-06
-2.34484e-05
-1.96888e-06
2.36915e-05
-0.00394653
0.00280472
0.00114183
-0.0139325
-0.00819802
1.89306e-05
-7.09294e-05
-6.33381e-05
2.56966e-05
-0.000160845
4.56847e-05
-2.47396e-05
5.3188e-05
7.69138e-05
6.5718e-05
-0.000142634
-2.33893e-05
2.51162e-05
1.76699e-07
1.88274e-05
-5.47531e-06
-5.70723e-05
6.25489e-05
0.0020482
-0.000152272
-0.00189594
-0.000522197
0.000171862
0.000350339
-6.50885e-07
6.34363e-05
-3.3679e-05
0.00489327
-0.00144625
-0.00344702
-0.000126305
0.000169246
1.58413e-07
1.43681e-05
-1.45272e-05
-0.00979033
0.00769655
0.00209374
8.96614e-06
4.65685e-07
-9.43139e-06
-0.0288893
0.00799206
0.0208971
0.00192711
0.00296618
-0.000321806
-0.000200397
-0.00664962
0.00567744
-0.000780725
-5.1146e-05
-0.000114408
0.000706239
-0.000511141
0.000137175
0.000373958
5.82387e-06
-1.95119e-05
9.59047e-05
-0.000134711
3.88055e-05
-0.000116997
-0.000416185
0.000533189
-2.96354e-05
2.06802e-05
8.95501e-06
-7.52648e-06
3.83977e-05
0.00044294
-0.000602643
0.000159699
0.000659037
-0.000216098
-0.000548731
0.000642964
9.02911e-06
-2.09224e-05
1.18931e-05
2.45039e-05
-9.64793e-06
-1.48556e-05
2.4292e-05
-4.83559e-05
-5.63199e-05
1.7098e-05
3.92217e-05
0.000864939
-0.0016156
0.000750656
-0.000165081
-0.000373155
0.000538239
7.43069e-05
-5.79587e-05
-1.63481e-05
9.02895e-05
-0.000786935
-1.4701e-05
1.48594e-05
0.000814807
-0.000773956
-4.08848e-05
0.000148374
-0.000105392
-4.29716e-05
6.9938e-05
-6.19637e-05
-7.97506e-06
-5.437e-05
-1.18456e-05
6.62151e-05
0.000411776
7.38382e-05
-0.000223943
-0.000344992
0.000568965
-2.26172e-05
0.000118522
-4.80332e-05
-5.40105e-05
-0.000575877
0.00115009
-0.00057422
2.0128e-05
9.47243e-05
-0.000114852
-4.31863e-05
1.67189e-05
-0.000592314
0.000513935
-1.45716e-05
-8.85593e-05
0.000103132
5.52619e-06
8.78929e-05
-9.3419e-05
-1.94341e-05
-1.44375e-06
2.08773e-05
-0.000582401
9.64701e-05
0.000485938
0.0237757
-0.0184404
-0.00533538
-0.000324046
0.000162119
0.000161929
-2.78085e-06
-1.04508e-05
1.32319e-05
0.0272675
-0.0326245
0.00535699
-0.000158339
6.32437e-05
9.5102e-05
1.23045e-05
-1.50852e-05
3.38947e-05
-7.24527e-05
3.85571e-05
3.69542e-05
0.000176448
0.000207655
-3.29517e-05
-0.000174704
0.000307865
-0.000291023
-1.68429e-05
-0.000299305
0.000121813
0.000177533
-2.14522e-05
-8.94898e-06
3.04013e-05
-0.000477973
-0.00182528
0.00230326
7.39848e-06
-2.88508e-05
5.35438e-05
-2.62239e-05
-1.8827e-06
-8.90921e-06
0.000320021
-0.00024223
-7.77749e-05
0.000171825
-0.000248077
2.16206e-05
-2.35885e-05
0.00110655
-0.00166709
-0.00010607
0.000419832
-2.12527e-05
-7.17654e-05
9.30232e-05
-6.14424e-06
6.14435e-06
0.0188938
-0.00109205
0.000181223
0.000236359
-0.00321254
-0.000733975
-1.849e-05
-5.9779e-05
7.82676e-05
-1.83963e-06
2.07218e-05
0.0192536
-0.0031495
-0.016104
-0.0083126
0.00179051
0.0065221
0.000615953
-0.000454503
-0.00016145
-6.26432e-06
9.91685e-06
-3.65099e-06
0.00149012
-0.00196809
-0.00278207
0.000803791
0.000316546
-0.000511912
0.000195362
-0.00605001
0.00409612
0.00195387
9.26601e-05
-5.85228e-05
-3.41377e-05
2.71146e-06
-8.97616e-06
4.78702e-05
4.47894e-05
0.00065853
1.39866e-05
1.66022e-05
-3.0588e-05
0.000110459
-6.2589e-05
2.76008e-05
-2.34409e-05
-4.16113e-06
3.23632e-05
6.70488e-05
-9.9414e-05
0.00045356
-0.000125373
-0.000159361
0.000304216
-0.000144863
-0.000152488
-0.00705416
0.0112329
-0.00417872
3.41007e-06
-1.06567e-05
-0.00016313
0.000146694
1.64341e-05
0.0112268
-0.00719594
-0.00403092
3.29648e-05
-5.77048e-05
-0.000346055
0.000181026
0.000165027
0.00037234
-0.000134618
-0.000237728
-0.000586149
-0.000973762
-0.00703641
0.00323693
0.00379944
2.62458e-05
-9.24008e-06
-1.70063e-05
-1.51902e-05
2.91775e-05
0.000292217
-0.000390031
-5.40877e-05
-0.000117003
0.000171097
0.00110063
-0.00248084
0.00138018
-1.04488e-05
-4.96189e-05
6.00642e-05
-7.95849e-05
-2.07891e-05
0.000100373
-1.39929e-05
6.51134e-05
0.00264648
-0.0070699
-0.0283002
0.00304001
0.0252602
-0.000590219
0.000525063
6.5155e-05
-7.14174e-05
5.01689e-05
9.50044e-06
1.07717e-05
-2.02722e-05
-2.2765e-05
-6.8703e-06
7.76399e-05
-8.80891e-05
1.85295e-05
0.000530804
8.51459e-05
-0.0103873
0.00749292
0.00289439
-0.00192277
0.00151523
-4.23339e-05
-9.48693e-05
0.000137204
-0.000428359
0.000147026
0.000281346
-0.00029226
-0.000333173
0.000625437
0.000126577
0.000709906
0.000586512
-0.000442171
-0.000144341
0.0119154
-0.00567254
-3.53143e-06
-0.0015782
0.00076435
0.000813854
-1.94127e-05
5.97872e-05
-4.03731e-05
4.06242e-07
-1.82578e-06
1.41895e-06
1.65397e-05
-1.82876e-05
7.81966e-06
1.04682e-05
4.1383e-05
1.14152e-05
1.89786e-05
-1.58621e-05
-3.11584e-06
-0.000347944
0.000158281
4.5278e-05
-3.86397e-05
-6.62436e-06
0.000202681
-5.20063e-05
-0.000150676
0.00271964
0.00236014
-0.00507981
-2.18697e-05
-3.11703e-05
5.30405e-05
4.45795e-05
-5.00533e-05
-1.33068e-05
-1.51938e-05
2.85004e-05
8.26825e-06
3.68558e-06
0.000116547
0.000179432
-0.000295983
-1.983e-05
2.4846e-05
-5.01555e-06
-0.000100045
5.77153e-05
-7.15466e-05
3.84399e-05
3.31047e-05
5.56565e-05
1.86501e-05
-0.00175168
8.14091e-05
-4.75143e-05
-5.82443e-05
0.000132434
-7.41907e-05
0.0132904
-0.00817816
-0.00511235
-1.86109e-05
6.61482e-06
1.19959e-05
8.2099e-05
-0.000100589
-0.00014601
-0.000153291
-0.0027565
0.00354282
-0.000786285
0.00229608
-0.00239826
0.000102162
1.85561e-05
4.22626e-07
-0.000757666
0.000668073
0.000956982
0.000169581
-0.000477309
0.000399492
4.71902e-06
4.05667e-05
-3.65449e-05
3.43502e-05
0.00857077
-0.0267161
0.0181452
0.00742928
-0.00651931
-0.000909951
-6.0808e-05
4.1396e-05
-8.51378e-05
6.61278e-05
1.90089e-05
-0.000676539
-0.0276236
-0.00026251
-0.000447847
-2.30564e-05
2.88149e-05
-5.75948e-06
0.00632073
-0.00242537
-0.00389526
1.63465e-07
-2.61205e-06
-8.77175e-05
-0.00047328
0.000560973
-0.000262963
0.00022207
4.08914e-05
3.43665e-05
-9.41987e-06
-2.49471e-05
-0.000142416
0.000284628
-0.000142218
-1.3613e-05
-3.17473e-05
-2.98563e-05
1.65494e-05
-0.000696448
0.000433938
0.0194675
-0.0154842
-0.0039833
-1.95605e-06
-1.15687e-05
3.14945e-05
-2.40353e-05
1.94874e-05
-9.30729e-07
-3.8952e-06
-1.55236e-06
5.44742e-06
0.000173065
-0.000653001
0.000479882
-0.000403375
0.00062306
-0.000219754
1.03698e-05
-2.38996e-06
-7.97944e-06
0.000967484
-0.000978446
1.09814e-05
-0.000523562
0.00795285
-1.66633e-05
8.15346e-06
8.50926e-06
3.04778e-05
2.1121e-06
8.25826e-06
0.00132475
-0.000983056
-0.000341693
-0.000298788
-0.000157467
0.000456239
-0.0043218
0.00204211
-0.00101701
0.0204845
5.32994e-05
-0.000132885
0.000768509
-0.000286138
5.48393e-06
1.68048e-06
-1.07758e-05
0.00440573
0.00191496
4.5442e-06
-0.000197115
-0.00036567
0.0131776
-0.00678803
-0.00638956
0.0255899
-0.00669617
-0.00121751
0.000682253
0.000158216
9.77349e-06
-7.66112e-06
-7.2759e-05
0.000123091
-0.0125015
-0.0163878
-0.00741913
0.00617349
0.00124565
-8.94355e-06
-5.103e-05
0.00590928
-0.0101027
-7.1467e-05
7.17826e-05
-3.17031e-07
2.37367e-05
1.06296e-05
0.000523668
0.00152453
2.69185e-05
-1.0794e-05
-1.61236e-05
0.000236538
-0.000528802
-4.33968e-05
-5.32377e-05
-0.00361544
0.0040578
-0.000442397
3.32862e-05
-4.68989e-05
0.000548781
-0.000232237
0.00036574
7.60732e-05
-0.000441811
0.00080739
-4.93255e-05
-0.000758105
1.97012e-06
7.80396e-06
-3.652e-05
-8.10282e-05
2.7656e-05
-2.99179e-05
2.26177e-06
-0.00016704
4.64118e-05
0.000120621
-0.000498002
0.000199208
0.00478309
0.00839453
0.000632407
3.6266e-06
-0.000636051
-0.000541444
-0.00279247
0.00333393
-0.000128529
0.000224851
-9.63188e-05
-0.000105027
1.17187e-05
9.33099e-05
0.0013192
-0.00259762
0.00127846
4.04892e-05
0.000202219
-0.000242681
0.000607142
0.00224245
-0.00278389
2.22701e-06
-3.11776e-05
2.89508e-05
-7.78116e-05
-0.00022136
0.000299171
-0.000221338
0.00026181
-6.63672e-05
-0.000196596
7.37939e-05
-0.000256496
-0.000910718
0.00101086
-0.000100145
0.00406397
0.00432397
-0.000130744
-0.000274351
0.000405082
2.92043e-05
-2.78423e-05
-1.36294e-06
1.39021e-05
-5.07737e-06
-0.000101273
-0.000481134
3.19496e-05
-1.20916e-05
-1.9861e-05
-1.88246e-06
-1.35489e-05
1.54311e-05
8.3226e-06
1.9559e-05
-1.04279e-05
-7.44618e-05
-3.05639e-05
0.000383562
0.00022561
-0.000609163
-0.000794338
-0.00112235
0.00406949
-0.0100516
0.00598207
-0.00112817
0.000729012
-2.65779e-05
2.06455e-05
5.92916e-06
-3.20199e-05
1.74043e-06
3.02808e-05
-0.0210772
0.0186579
0.00241919
-6.48797e-05
3.1175e-05
-1.21043e-05
7.49134e-05
-6.28052e-05
1.39883e-06
0.000330557
-0.000331959
-0.0106338
-0.0104434
-1.63917e-05
1.75575e-05
-1.16556e-06
-2.47818e-05
-9.41077e-05
0.000203637
-0.000109532
-6.8156e-05
1.9658e-05
-0.00802478
-0.00176555
0.000835305
-2.80263e-05
4.66694e-05
6.16911e-06
-2.05656e-05
-0.000596292
-0.00132649
-0.00526499
0.00164959
-3.84807e-07
1.58098e-05
9.46632e-06
-2.52764e-05
0.000386847
-6.99323e-06
-2.08993e-06
-4.54527e-06
6.63559e-06
-0.00174389
0.00319981
-0.00145596
0.00402287
-0.00322274
-0.000108549
-5.84941e-05
-9.77518e-05
-0.000111636
-4.3951e-06
3.15837e-05
-2.71889e-05
0.000198466
4.89432e-05
0.000126479
-9.41126e-05
-0.00100821
0.000777107
0.00023111
-0.00014288
8.46348e-05
2.2231e-05
5.54083e-05
-4.16583e-05
-8.48266e-05
0.00012648
-0.00322594
-0.00381043
-0.000130463
-4.29514e-05
3.06896e-05
1.22618e-05
2.74951e-05
2.73879e-05
-5.48834e-05
-0.00513499
0.00522995
-9.49519e-05
-0.000170814
-0.000419402
-0.000107526
9.29534e-05
-1.82096e-05
5.11735e-05
-0.00169262
0.000984419
5.55083e-05
-0.000120086
6.4575e-05
-0.000404873
-0.000291581
-0.00018854
0.000554284
0.0128386
0.00641501
7.61336e-06
1.87705e-07
-7.79947e-06
0.000644665
-0.00125467
-0.0010794
0.00217999
0.0306256
-0.0131579
-0.0174678
0.000677764
-0.000133379
-0.000544402
-0.000567635
0.00022204
0.000345591
-0.000635174
0.000547519
-5.73771e-07
-1.07529e-06
1.649e-06
-3.87604e-05
-1.22047e-05
-0.00303286
-0.0030172
0.000836705
-0.000743992
-9.27152e-05
1.85354e-05
-5.74657e-06
-1.27887e-05
-5.216e-05
-0.000158407
0.000210564
-0.00984669
-0.00550809
6.17709e-05
6.00918e-05
-8.36824e-06
-5.17204e-05
-0.000286296
0.000669872
0.0570085
-0.00481749
0.000251741
-0.000451739
0.000199994
-0.000193595
-0.00037404
2.15919e-05
1.50022e-05
-3.65947e-05
0.00030912
-9.22767e-05
-0.000216848
-0.000444148
0.000313391
-7.67498e-05
9.68782e-05
-0.00170743
0.0024039
-0.000696474
1.80597e-05
-1.47129e-05
-3.34659e-06
-1.06644e-05
2.80503e-05
-1.73845e-05
1.34318e-05
4.62802e-06
0.000628041
-0.000431702
-0.000196342
-0.000823203
-0.000185011
0.000559464
0.00046189
-0.0015784
-0.00150883
0.00308725
0.000841052
-0.00171912
0.000878076
-1.54581e-05
1.49286e-05
-7.72195e-05
6.22904e-05
-0.00170328
0.00356801
-0.00186471
0.000632872
-0.00120131
0.000568429
0.000109368
0.000148443
-0.000257811
6.3893e-05
-2.3628e-05
-4.02643e-05
-1.11097e-06
1.36403e-05
0.00234636
-0.00409027
-2.97434e-05
5.72384e-05
-0.000227399
0.000426788
-0.000199387
-1.09326e-05
-5.20605e-06
1.61401e-05
-3.53055e-05
3.63532e-05
-1.04732e-06
4.18888e-06
1.43461e-05
2.04987e-05
1.99114e-05
-4.04126e-05
0.000602093
0.000341423
-1.2171e-05
1.16574e-05
5.13918e-07
-1.85294e-06
1.03877e-05
-8.53443e-06
4.90292e-06
-2.52101e-06
-2.38171e-06
9.18062e-05
-3.62973e-05
0.00254373
0.000698984
-0.00324269
-0.00041593
8.2445e-05
-0.000450464
0.000368021
-1.35295e-05
7.11982e-06
-3.93987e-06
-3.18004e-06
-0.000342683
-0.00035991
-2.73342e-05
-2.58394e-06
-6.37222e-05
8.59518e-05
-0.0112409
0.00418677
8.51624e-06
-8.05022e-06
-0.00039381
-0.00021965
0.000613463
0.000299111
0.000328933
0.00735967
0.00465965
-0.0120193
0.0012057
0.000123639
-9.74805e-06
2.11673e-05
-1.14185e-05
3.15373e-05
-1.53636e-05
-1.61737e-05
-1.5174e-05
3.67661e-05
-0.000136225
0.000245593
0.0656049
0.0594331
-2.79677e-05
-0.000148956
-0.000197101
-8.35429e-06
-2.38969e-07
8.59368e-06
0.00056641
5.85071e-05
-0.000624944
6.68729e-05
-5.19419e-05
2.08597e-05
-2.90547e-05
8.19422e-06
-2.02984e-05
1.05509e-05
-0.0320889
0.0129758
0.0191131
-0.00131053
0.000992853
0.000317685
-5.11984e-05
3.29877e-05
0.000537224
-0.000144131
-0.000393096
0.00351899
0.00510706
0.000372998
1.38475e-05
6.40612e-05
-0.000822051
-0.00030611
1.25996e-05
-1.83114e-05
5.71021e-06
0.000254985
0.0037679
7.94604e-05
-7.28845e-05
-6.74969e-06
1.45618e-06
5.29274e-06
-2.00186e-05
9.08555e-06
0.00519058
0.00603602
-1.07441e-05
-0.000467353
2.51801e-05
-6.77752e-06
8.74751e-06
0.0163807
0.0406273
0.01306
-0.0549106
0.0418505
0.0107799
-0.00671056
3.82053e-06
3.739e-06
5.55403e-05
-2.45923e-06
-5.3081e-05
-5.48942e-05
3.08044e-05
2.40894e-05
1.76777e-05
-2.83441e-05
-1.25667e-06
2.2878e-05
0.000848534
-0.003641
0.000451575
0.000108491
-1.16256e-05
-1.39556e-05
-5.45322e-07
-2.66118e-06
3.20688e-06
2.18508e-05
0.00940128
-0.00533729
-0.000471419
0.000722255
-0.000250879
-0.00220352
0.00160722
0.0053195
-0.00915452
0.00383503
-0.00064578
-0.000587593
0.00123337
1.91196e-06
6.1403e-05
-6.33037e-05
-2.73549e-06
5.14489e-06
-2.40924e-06
3.94692e-06
2.48676e-05
-0.000356168
0.000126965
0.000229218
-0.000421565
0.000102469
0.000319096
3.64321e-05
-3.74072e-05
9.73458e-07
-0.000576329
0.000233567
-7.04302e-05
-7.48256e-05
0.00014526
-0.00191023
3.15593e-05
0.0018787
2.97786e-05
-8.92057e-06
0.000151071
-0.000624079
0.000473055
0.00602512
-0.00297432
-0.00305076
1.36878e-05
4.37553e-05
-5.74429e-05
6.29978e-06
-3.58715e-06
-0.000378405
0.000604028
-1.49058e-05
3.02869e-05
-1.5381e-05
9.04052e-05
-3.27776e-05
-5.76264e-05
-0.00333596
0.002213
0.00112316
1.80337e-05
4.22043e-05
-6.02383e-05
0.000112244
-8.11057e-05
-3.11375e-05
3.74215e-06
2.55811e-06
0.0298262
-0.00694635
4.91306e-05
-3.59609e-05
-1.31682e-05
0.000265549
0.000187075
-0.000452631
8.63084e-05
-0.000489715
0.00454824
-0.000452029
-0.00302821
0.00387675
1.64833e-05
-3.13892e-05
-6.61087e-05
0.000517681
-4.36539e-05
8.62664e-06
3.50251e-05
-2.33399e-05
6.63819e-06
-2.41937e-05
-6.75434e-05
9.17337e-05
-2.1504e-05
1.66067e-05
4.89909e-06
-4.31719e-05
2.62539e-05
-4.55867e-06
-2.16974e-05
0.00425822
0.00528671
0.025339
0.0248957
0.0417196
5.64048e-05
-8.05996e-05
9.04358e-05
-5.95776e-07
-8.98408e-05
0.000384064
-0.00053657
1.52707e-05
7.51361e-05
4.20062e-05
1.16976e-05
2.41357e-05
-8.32593e-06
-2.4727e-05
2.34703e-05
-0.000348703
-0.000118649
-0.000891819
-0.00131171
-0.000519496
0.000380752
0.00013874
2.33498e-06
-9.11207e-06
-5.67831e-06
8.01327e-06
0.000471632
-5.98475e-05
-2.80913e-05
-2.68032e-05
-6.97055e-05
8.49772e-05
-0.000181701
-0.000191307
0.000653456
-0.00116896
0.000515498
9.58095e-05
0.000188811
0.00311609
-0.000574812
0.000621129
-4.63105e-05
0.0027781
-0.00411038
-0.00161234
3.15947e-05
1.75362e-05
-0.000454164
-7.00722e-06
-4.92963e-06
9.53641e-05
-0.00250256
2.96064e-07
0.00249002
-0.00249015
-2.77974e-05
4.91139e-06
2.28853e-05
-0.000386654
0.000180304
0.00020635
0.0196147
0.00597518
-7.38517e-05
-2.38506e-05
-0.000624219
0.000230388
-3.17905e-05
-3.30897e-05
-1.47451e-05
-0.000183226
0.000197969
-0.000687045
-7.61682e-06
0.000694703
0.00871608
-0.00342559
-0.00529045
-8.63025e-05
0.00035185
0.0065024
0.0387075
5.45291e-05
-9.94884e-06
-0.00322303
0.00132943
0.00189361
7.50605e-06
4.48585e-06
-1.19922e-05
0.00220252
-0.000239353
-0.00196317
-0.0252552
0.0245787
-1.32948e-05
1.38153e-06
1.22576e-05
1.92801e-05
-0.00493377
0.00798239
-0.00304859
-7.27846e-06
1.80504e-05
-0.00123966
0.0030377
-0.00179823
0.0189122
-0.0231138
0.0209311
-0.0219482
-6.74906e-05
6.24566e-05
0.0224743
-0.00154326
8.2404e-05
6.59742e-05
-9.17195e-07
-2.20991e-06
1.38965e-05
1.63905e-05
1.17371e-05
-4.23096e-06
-1.97078e-06
-1.7918e-05
1.98891e-05
-2.37637e-06
5.79164e-05
-0.000811901
0.00029977
0.00051212
0.0416113
-0.0330406
1.29212e-05
-2.24257e-05
9.50221e-06
-3.02575e-06
2.45208e-06
0.00069329
-0.001156
0.000462698
1.93484e-05
-7.32187e-05
5.38752e-05
0.000352073
-0.00094302
0.000302304
0.000725648
-0.00102795
3.21247e-05
8.45509e-06
-4.05774e-05
0.00341469
-0.00834845
1.85897e-05
-2.05605e-05
-5.78714e-05
-1.74584e-05
-1.69097e-05
3.43683e-05
-4.95415e-06
1.63482e-05
-1.13936e-05
0.0002626
-0.000166795
-6.98516e-06
6.69461e-06
-0.000122835
0.00034121
-0.000218377
-3.25083e-07
0.000563232
0.000114516
0.000678658
-0.000115447
5.84923e-06
-2.25393e-05
1.43503e-05
6.81705e-06
0.00131385
-0.000680982
9.22456e-06
-1.72007e-05
7.97668e-06
-0.000709212
2.21651e-05
0.00016655
-0.000181295
-8.90558e-05
-8.77557e-05
0.000176804
-2.45939e-05
2.33878e-05
1.20607e-06
-0.000118843
0.000104997
1.38464e-05
1.40242e-05
-1.59598e-05
-0.000627428
0.000717717
-0.000209139
4.50053e-06
1.92034e-05
-2.37039e-05
0.000303646
0.00154771
2.0674e-05
-2.43803e-07
-2.04294e-05
1.18167e-05
-1.26784e-05
6.0469e-05
-6.45911e-05
4.12249e-06
0.000371966
0.000176814
-1.00594e-06
0.000406851
-0.00031774
-8.91076e-05
-0.0105631
-0.0215257
-4.72456e-06
-9.53151e-05
0.0019129
-0.000559248
0.000335317
7.7719e-05
-0.000166772
2.30986e-05
-3.55101e-05
1.24113e-05
-1.61316e-05
-5.13591e-05
-0.000113201
-4.54663e-06
-0.000942648
-0.00501811
0.00596044
1.7508e-05
1.20913e-05
-9.5375e-07
1.36002e-06
3.86708e-05
-2.24086e-06
0.000174033
-9.4562e-05
-1.86423e-05
8.42995e-05
2.79479e-05
-0.000576107
0.000461722
-7.20123e-07
-3.52396e-05
0.000198317
0.000279764
-0.000478089
0.00058553
-1.91216e-05
-5.2082e-05
0.00259583
-0.00010982
-3.01566e-05
0.00013995
0.00768185
-0.0422015
-0.00136358
0.00155347
-0.000189887
2.85095e-05
-2.51254e-05
-3.38555e-06
0.00548149
-0.00516194
4.61064e-05
-3.48736e-05
-0.0369604
0.0227608
0.0141997
2.74776e-06
-2.6083e-05
2.33344e-05
0.00020925
-0.000836681
0.000344783
0.00185772
-9.28564e-05
6.00795e-05
3.5371e-05
-1.99726e-05
-1.53974e-05
-0.00591427
-0.000296077
0.00621034
-0.0239734
-0.0129871
1.6404e-05
-1.88516e-05
2.44774e-06
4.65543e-06
9.98257e-05
1.28161e-05
-1.77711e-05
4.44055e-05
-4.94835e-05
5.07893e-06
0.000108924
3.48579e-06
-0.000112409
0.0474921
0.0181128
2.92201e-05
4.1318e-07
-2.96329e-05
1.59616e-05
-1.73129e-05
1.35046e-06
6.28181e-05
0.000338905
-0.000401729
2.88503e-05
-1.02605e-05
0.000482947
-0.000182995
-0.000299958
0.00127594
4.88216e-05
0.0005411
0.000137549
0.000128918
-0.000129962
1.032e-06
1.50463e-05
-5.82155e-06
1.81201e-05
1.07302e-05
0.000509183
-4.75866e-05
-0.000461597
-0.000474425
0.000357432
8.00962e-05
-8.48191e-05
-0.000178768
0.000439931
-0.000261167
-0.000264575
0.000249311
1.52643e-05
1.78798e-05
1.74917e-05
0.000158182
-0.000281019
0.000457994
0.00020104
0.000915553
-0.0015466
0.000631053
2.16341e-05
-2.51964e-05
-0.00020563
-0.0102458
-9.43934e-05
0.0103402
-0.00509834
0.00206542
2.17461e-05
-1.07179e-06
-2.49839e-05
0.000472488
-0.000447518
5.26521e-05
-0.000627473
0.000171153
-0.000327317
0.000156163
-3.41697e-05
0.000143094
-0.000330433
0.00033183
8.39213e-05
-8.43359e-05
4.10951e-07
0.000700767
-0.000742392
4.16713e-05
7.2995e-06
3.14075e-07
-1.73211e-07
2.69288e-06
2.4267e-06
-3.89714e-05
1.29915e-06
5.86131e-07
-0.00063074
0.000961852
-0.000331113
2.31198e-05
-1.86193e-05
-0.00342322
0.00218359
0.000127762
-0.000221872
-6.20697e-05
3.49353e-05
0.011344
3.10715e-05
-3.54722e-06
-2.75276e-05
-0.00056235
-0.000429379
0.000991662
2.13674e-05
-2.52063e-05
3.83943e-06
0.000394706
-0.000645359
0.000250635
-8.04726e-06
6.19444e-06
0.000289505
-0.00909803
-0.00334585
0.0124438
0.00061788
-0.000376675
-0.000241209
0.000151519
0.00115432
-0.000389531
-0.000764782
0.00017552
-0.000190586
1.50614e-05
-2.38083e-05
2.38073e-05
0.000120389
-0.000174475
-0.000101497
0.000119274
0.0023474
-0.00161041
-0.000736984
2.0957e-06
4.98664e-06
-7.08197e-06
2.41052e-05
-2.73747e-06
-0.000125534
-0.000296029
-3.22345e-05
-0.000924604
0.000629318
0.000295575
7.63457e-05
0.00835662
0.00242329
4.06155e-05
-0.000132737
9.21218e-05
0.000118749
1.76032e-05
-0.000136353
2.64605e-05
-1.30402e-05
-1.34204e-05
-2.10694e-05
8.97207e-05
0.00197677
-9.13469e-05
-0.00188542
-0.000139475
-1.93049e-05
0.000158758
-0.000260172
1.74483e-05
-7.42524e-07
-1.67057e-05
0.00211905
-0.00689967
0.0174047
0.00101184
-0.0184164
-0.00101736
0.000447459
0.000569879
-0.000172184
0.0006099
-0.00043773
-0.0022733
-0.00282507
-5.85937e-05
4.96502e-05
0.000340311
0.000215626