/*--------------------------------*- C++ -*----------------------------------*\
| =========                 |                                                 |
| \\      /  F ield         | OpenFOAM: The Open Source CFD Toolbox           |
|  \\    /   O peration     | Version:  v2012                                 |
|   \\  /    A nd           | Website:  www.openfoam.com                      |
|    \\/     M anipulation  |                                                 |
\*---------------------------------------------------------------------------*/
FoamFile
{
    version     2.0;
    format      ascii;
    class       volScalarField;
    location    "200";
    object      k_0;
}
// * * * * * * * * * * * * * * * * * * * * * * * * * * * * * * * * * * * * * //

dimensions      [0 2 -2 0 0 0 0];


internalField   nonuniform List<scalar> 
37809
(
0.000135093
0.00018999
0.00015801
0.000144902
0.000141055
0.000145818
0.000140694
0.030595
0.000150296
0.000167984
0.000159673
0.000159752
0.000145241
0.000156713
0.000151856
0.000153471
0.000147021
0.0294221
0.000159713
0.000145601
0.000153473
0.0285898
0.00571265
0.000167702
0.0304026
0.000156223
0.000158807
0.026469
0.000165663
0.000132584
0.000159769
0.0368353
0.000143323
0.00025216
0.000159679
0.000143352
0.000193738
0.000625566
0.0124026
0.000138753
0.000130387
0.000240139
0.000153577
0.000169263
0.000143329
0.000160908
0.000151618
0.000154785
0.000153554
0.000192431
0.0243355
0.00869532
0.000208548
0.00025659
0.000159264
0.000141921
0.000203312
0.000157521
0.000214858
0.0274937
0.000160883
0.000165867
0.000155812
0.000169236
0.000153651
0.000151878
0.000189166
0.0207483
0.000167889
0.000188038
0.000141962
0.000150183
0.00880698
0.00020793
0.0001417
0.00035003
0.000191939
0.000132927
0.000152956
0.000153413
0.000169779
0.0264514
0.000146662
0.000214378
0.000261884
0.0181852
0.000148174
0.0249807
0.000168026
0.00019384
0.000155971
0.0248991
0.000163633
0.000142267
0.000165372
0.000133721
0.0331664
0.000133642
0.000127642
0.029451
0.00014988
0.000204193
0.00013525
0.000153473
0.00024503
0.000151282
0.0274472
0.000144382
0.0283107
0.0349431
0.000144022
0.000207751
0.0362303
0.000138789
0.0293445
0.0333873
0.000151506
0.000138073
0.000257513
0.000148833
0.000248183
0.000171852
0.0311487
0.000142945
0.000138478
0.000308289
0.000132244
0.000153731
0.000132771
0.000133235
0.000157622
0.000151674
0.000145019
0.000138476
0.000132238
0.000140133
0.000170794
0.000329538
0.027145
0.000154583
0.000160246
0.000240466
0.000157245
0.000148635
0.000133348
0.000139337
0.000160225
0.000154575
0.000132896
0.000132227
0.000222934
0.000148636
0.000151221
0.00021134
0.000132872
0.000159578
0.000132243
0.0215366
0.000127798
0.000141867
0.000143564
0.0232099
0.0358977
0.000151249
0.000133009
0.000181431
0.000143628
0.000265394
0.000153743
0.00609296
0.000145349
0.000193254
0.000149157
0.000148878
0.000157353
0.000138298
0.000150456
0.000145538
0.000176595
0.000140066
0.000142227
0.000242858
0.000141356
0.000142203
0.000143419
0.000134591
0.0307216
0.000149156
0.0284213
0.000190677
0.00757311
0.000197808
0.000145741
0.000204731
0.000142399
0.000146559
0.000146551
0.000210619
0.000148501
0.0228187
0.00714012
0.000169758
0.000147538
0.000153868
0.00016142
0.000151709
0.000141771
0.0269874
0.000134921
0.0421163
0.00295909
0.000207497
0.000225823
0.000192945
0.000147829
0.000127881
0.000324322
0.000206675
0.000135242
0.00605187
0.000189261
0.000147807
0.000161393
0.0001585
0.000150477
0.000207247
0.000139623
0.0314553
0.00013218
0.000192884
0.000152015
0.000147804
0.000147694
0.000147538
0.000153538
0.000191596
0.0334161
0.000158548
0.000151484
0.000134442
0.000196964
0.000141274
0.000232213
0.0331488
0.000169325
0.000157797
0.000206005
0.000226695
0.031475
0.00017037
0.000142719
0.000139525
0.000165196
0.0229966
0.000149453
0.000143384
0.000179267
0.000143142
0.000146524
0.000159122
0.000142215
0.000145271
0.000146367
0.000152758
0.0220718
0.000147963
0.00802871
0.000208326
0.000132926
0.00015039
0.000143128
0.000148652
0.000141837
0.000178013
0.000172374
0.0252944
0.000154768
0.000153556
0.000144946
0.021751
0.000206297
0.00014469
0.000153875
0.00104352
0.000216511
0.000143069
0.0331218
0.000164835
0.000138001
0.00581399
0.00015404
0.000153674
0.000214651
0.0298834
0.000167976
0.000138119
0.00522643
0.000142499
0.000142374
0.000185019
0.00307384
0.000141661
0.000153524
0.000165607
0.000151286
0.000156043
0.00014254
0.000150509
0.000152124
0.000182633
0.000158998
0.000147976
0.000146694
0.000186969
0.000192729
0.000137432
0.00021932
0.000134754
0.0137057
0.000186063
0.000159488
0.000219355
0.0371849
0.000193179
0.0335194
0.000135408
0.000166469
0.0266803
0.00014358
0.000154575
0.000177002
0.000177708
0.000213375
0.000132929
0.000145774
0.000138764
0.000148508
0.000201751
0.0328831
0.000149316
0.00616445
0.000137394
0.0267797
0.000190541
0.000138054
0.00014819
0.0325888
0.0462449
0.000165999
0.000157692
0.000157322
0.000150607
0.000153334
0.0237737
0.000167905
0.000149493
0.000128745
0.0385336
0.00100539
0.000142745
0.00013337
0.00358469
0.000162827
0.000133523
0.000138261
0.000180737
0.000141825
0.000208253
0.000185133
0.000134783
0.000169474
0.000134624
0.000151079
0.000132248
0.000187075
0.000141743
0.000142726
0.000142345
0.000171354
0.0297337
0.000158788
0.000147555
0.000881676
0.000205981
0.000185097
0.000138482
0.000157397
0.00291623
0.000290231
0.0352006
0.000136719
0.000168189
0.0304962
0.000175011
0.000202069
0.000138264
0.000136659
0.000138523
0.0278043
0.000140921
0.000138455
0.000139822
0.000158641
0.0320006
0.000154804
0.0183405
0.000247278
0.000133481
0.000161973
0.000303671
0.00015148
0.000155427
0.000172714
0.000191898
0.000227329
0.000134385
0.000140817
0.000157905
0.000175939
0.000225697
0.000142049
0.000138699
0.000151811
0.000343387
0.00405679
0.000193665
0.000158543
0.000132791
0.000143654
0.000142138
0.000132793
0.0348228
0.000219836
0.000179475
0.000160214
0.000158391
0.000161333
0.0307196
0.000145099
0.0334794
0.000144912
0.000158035
0.000139763
0.000148602
0.000134748
0.000133111
0.00014105
0.000138325
0.000138059
0.000156589
0.000145079
0.000149167
0.0199173
0.000148393
0.000152101
0.000140225
0.000141026
0.000156841
0.000142962
0.000160029
0.000190252
0.000149103
0.000259288
0.000138549
0.000147677
0.000244706
0.00013736
0.000138756
0.000185822
0.000186159
0.000184568
0.000137929
0.000155135
0.000160402
0.0273007
0.000144996
0.000151426
0.00162302
0.000296086
0.000139745
0.000153734
0.00412327
0.00273423
0.000139702
0.000220021
0.000145262
0.0292812
0.000167138
0.000140354
0.000206303
0.000148715
0.000140208
0.00238663
0.000429767
0.000135086
0.000148862
0.000137901
0.0001322
0.0387527
0.00739662
0.000131589
0.00246097
0.000299542
0.000134498
0.000134617
0.000131522
0.000159263
0.0338282
0.0279604
0.000494781
0.000138981
0.0269563
0.000143028
0.000142343
0.000219537
0.000139781
0.000179163
0.000257458
0.00587295
0.000154507
0.000206842
0.000131463
0.000188385
0.0111064
0.000207596
0.000148923
0.000248145
0.000189229
0.000140337
0.000182777
0.000143864
0.000161305
0.000154738
0.0002023
0.000148694
0.000175774
0.000182552
0.0275855
0.000131439
0.000151286
0.000139452
0.000169125
0.0337448
0.00025909
0.032842
0.000180077
0.000157345
0.000153113
0.00017534
0.000182255
0.0331083
0.000180214
0.00014114
0.000150872
0.000182278
0.00016696
0.000215727
0.000158751
0.000181844
0.000255712
0.0218968
0.000139614
0.000133038
0.0386838
0.000148798
0.000136938
0.000132169
0.000133407
0.000153473
0.0258376
0.0310592
0.00359614
0.0263227
0.000142884
0.000153375
0.000722445
0.000152909
0.000157064
0.00016963
0.00084785
0.000138613
0.000142669
0.000137039
0.000138945
0.000232738
0.026525
0.000138509
0.000161969
0.000179906
0.000230681
0.000139373
0.000133632
0.000214122
0.000131239
0.00360846
0.000211413
0.000169264
0.000151105
0.000134525
0.00111922
0.000159024
0.000160652
0.000147892
0.000141932
0.000164253
0.000219353
0.000164649
0.000152842
0.000147236
0.000197591
0.000193759
0.000167964
0.000151521
0.000187652
0.000155641
0.000731413
0.000182092
0.00345596
0.000150654
0.0271634
0.000223843
0.00628212
0.000181488
0.00017161
0.0309378
0.000144523
0.000154704
0.00019696
0.000177309
0.000138387
0.000171397
0.0323269
0.000150716
0.000152885
0.0241157
0.0225508
0.000174067
0.000170858
0.0214861
0.000141704
0.000171173
0.020626
0.000150459
0.000202517
0.000134467
0.000150079
0.000134631
0.000191318
0.00015961
0.000177619
0.000176148
0.000161397
0.000209398
0.000157508
0.000178915
0.000187685
0.000149791
0.00014913
0.000132287
0.00337917
0.000147021
0.000181255
0.000152212
0.000161225
0.000138286
0.000153073
0.0415215
0.000139306
0.000132445
0.000132996
0.00015563
0.0271817
0.000181723
0.000234475
0.000138172
0.000146826
0.000214104
0.00013949
0.000141929
0.000249406
0.000134922
0.0387524
0.000190557
0.000253713
0.000167288
0.0001375
0.000138405
0.000141632
0.00014948
0.00778653
0.00788712
0.000153644
0.000155359
0.000131703
0.0374339
0.000157763
0.000145833
0.000137619
0.00354207
0.000157334
0.000151698
0.000195787
0.0231519
0.000212869
0.000157753
0.0245794
0.000135586
0.00021094
0.000154711
0.000135114
0.000152003
0.000301315
0.000131665
0.000144167
0.000131415
0.023565
0.00786435
0.00213664
0.000142651
0.00014762
0.000146968
0.00014994
0.000142229
0.000183038
0.000153467
0.000150153
0.000131076
0.000134548
0.000257036
0.0433907
0.000181432
0.000259886
0.000150667
0.00015638
0.000142035
0.000139659
0.000157825
0.000216717
0.00015157
0.000228906
0.000162241
0.00036843
0.000145668
0.0420746
0.00021302
0.000134333
0.00013656
0.0278505
0.000140236
0.00014422
0.0196492
0.000137429
0.000178468
0.000136556
0.0149281
0.000148723
0.000144351
0.0055048
0.000204402
0.000182956
0.000140196
0.000153303
0.000137895
0.000143148
0.000158183
0.000142921
0.000155991
0.000142985
0.0204532
0.0238634
0.0242933
0.000158162
0.00015059
0.0203722
0.000144217
0.000148773
0.000133464
0.000142199
0.00014434
0.000182103
0.0255281
0.000131342
0.000131326
0.0339019
0.000146702
0.000143988
0.000190712
0.000180262
0.000206395
0.0236042
0.000191629
0.0284351
0.0210622
0.000148521
0.0302794
0.000150379
0.000204094
0.000182692
0.000139683
0.000156116
0.0120928
0.000153003
0.000139727
0.0394181
0.00015305
0.0001641
0.0268303
0.00272718
0.000144386
0.000247683
0.00621327
0.000151848
0.000175639
0.000139615
0.000180619
0.00381197
0.000142561
0.000138362
0.000239053
0.000132655
0.000226182
0.011931
0.000543611
0.000147703
0.000656204
0.000190513
0.000144378
0.000140202
0.000139464
0.00013817
0.000147395
0.000183333
0.00225654
0.000151744
0.000144209
0.000186415
0.000157078
0.000159617
0.000155126
0.000148032
0.000243938
0.00013816
0.000157336
0.00013776
0.000143021
0.000205735
0.000149185
0.000139435
0.000142978
0.000181638
0.000181007
0.000130606
0.000137459
0.000188358
0.000150844
0.0278254
0.000163679
0.000172797
0.000134918
0.000164975
0.000154008
0.000140247
0.00728123
0.000158189
0.000144624
0.000223546
0.000142006
0.000127702
0.000147301
0.000175979
0.000127752
0.000213009
0.00369979
0.000159462
0.000183072
0.0453716
0.000172778
0.00013665
0.000147717
0.000159374
0.0233929
0.000144006
0.000148635
0.000151592
0.000186375
0.00015917
0.000178146
0.000193303
0.000148704
0.000237672
0.0368041
0.0258964
0.000190174
0.00323204
0.000161577
0.000138857
0.000217003
0.000151546
0.00449642
0.000152816
0.00548004
0.000181171
0.000144502
0.000138644
0.000320632
0.00474215
0.000151714
0.000151019
0.000143046
0.000138997
0.00014336
0.00771636
0.000153631
0.000135288
0.0314179
0.000138084
0.000220479
0.000159251
0.000181185
0.000177742
0.000151669
0.000138073
0.031417
0.0263426
0.000159232
0.000174375
0.000166706
0.000138619
0.000138975
0.000178077
0.014031
0.000143743
0.000156017
0.000245138
0.000192873
0.000141954
0.000203465
0.000191672
0.000193674
0.00014361
0.000169112
0.000189642
0.0334294
0.000150616
0.000144714
0.000151376
0.000146958
0.000148251
0.000144531
0.000225454
0.000137526
0.000153167
0.00026384
0.000147479
0.0246259
0.00013761
0.00706333
0.000132499
0.0255903
0.00175916
0.000211349
0.000148446
0.00949576
0.000160607
0.000162033
0.000175909
0.000165654
0.000196498
0.000136082
0.000137739
0.000215439
0.000153364
0.00649856
0.000170163
0.00164991
0.000139352
0.000171387
0.000133267
0.00015757
0.000213307
0.000167124
0.00017484
0.000137687
0.000242921
0.00307572
0.000185599
0.036343
0.000189915
0.000148872
0.0348665
0.0235857
0.0407108
0.000171328
0.0410401
0.0432151
0.0352926
0.000143517
0.000141532
0.000141111
0.000155768
0.000131249
0.0415102
0.00385247
0.000132326
0.000186125
0.000168773
0.000148413
0.000130318
0.00038809
0.000178232
0.000150104
0.000162581
0.000675992
0.000135877
0.0178796
0.000233505
0.000260101
0.000135789
0.00384745
0.000189562
0.00136634
0.000134121
0.040323
0.000167899
0.000267781
0.000170728
0.000134142
0.000133093
0.0071868
0.000148491
0.000158201
0.000191305
0.000171733
0.000152999
0.000156058
0.000143163
0.000144305
0.000157963
0.000143304
0.000180891
0.000183326
0.000175815
0.000201751
0.000144339
0.000184451
0.00149815
0.000162081
0.0329441
0.000153256
0.000140005
0.000167707
0.00396214
0.000128838
0.000151649
0.000167119
0.000216442
0.000194871
0.000163058
0.000166567
0.000179563
0.0231906
0.000149004
0.000158462
0.00383469
0.000132394
0.000384196
0.00016216
0.000181421
0.000153915
0.000144995
0.000159408
0.00017598
0.000221269
0.000160774
0.000142501
0.0370418
0.000189759
0.0436016
0.00632286
0.00014864
0.00338073
0.000145048
0.000160757
0.00013415
0.000167771
0.000155649
0.0426237
0.000143338
0.00173979
0.000137812
0.00014747
0.000136072
0.00018004
0.0405786
0.000150157
0.000200084
0.000145673
0.000173073
0.0321641
0.0193636
0.000138698
0.000208182
0.000134719
0.000137807
0.00014128
0.000151199
0.000148427
0.00015859
0.033794
0.000152863
0.00323972
0.0001771
0.000134883
0.000198899
0.000151623
0.000209145
0.000150143
0.000149028
0.00015681
0.000130216
0.000169021
0.000157266
0.000203274
0.000245062
0.000147513
0.000134686
0.000197894
0.000191945
0.00101926
0.000191136
0.00014842
0.000127758
0.000153177
0.000188385
0.00401132
0.000158865
0.000177852
0.00438073
0.00525888
0.000284235
0.000148632
0.0326079
0.000255958
0.000134761
0.00014209
0.000142855
0.0001348
0.000130175
0.000160213
0.000199216
0.000196757
0.039646
0.0274282
0.000198212
0.000195328
0.000152559
0.000190215
0.000153508
0.00013187
0.000175164
0.000151238
0.000158652
0.000152496
0.000179772
0.000131782
0.00015635
0.000150563
0.000146041
0.000137716
0.000149057
0.00013864
0.000154541
0.000131104
0.000157671
0.000150789
0.000137266
0.000168019
0.000166087
0.000152306
0.000137663
0.000162757
0.000140846
0.000137592
0.0322112
0.000148283
0.00028304
0.000235258
0.000135228
0.000133207
0.000134387
0.000144948
0.00786677
0.000859677
0.0255443
0.00014856
0.000175772
0.000146579
0.00013429
0.0399606
0.00017852
0.000133214
0.000140611
0.000142569
0.000306719
0.000136892
0.000152761
0.000137188
0.000185082
0.000143401
0.00015306
0.00017146
0.000136695
0.000138576
0.000139908
0.000141016
0.000133294
0.000137969
0.000163723
0.000133089
0.0109303
0.000161994
0.000153044
0.00014103
0.000218532
0.000181038
0.000159082
0.000138977
0.00014932
0.00684824
0.000137363
0.000138545
0.000135733
0.000148542
0.0347767
0.000157565
0.000138038
0.000130982
0.00016409
0.000161871
0.000181531
0.000198797
0.000160126
0.00365309
0.0353306
0.00015917
0.00014989
0.000155787
0.0010956
0.0238149
0.000137193
0.000145367
0.000170256
0.000183092
0.000178881
0.000135655
0.0278244
0.000134687
0.020317
0.000138731
0.000127974
0.000144914
0.000140752
0.000130865
0.000141398
0.000127766
0.038634
0.000147344
0.000145541
0.000130951
0.000132508
0.000164929
0.000160468
0.00384589
0.000133354
0.000160227
0.003455
0.000198824
0.000155635
0.000186859
0.000211455
0.000150379
0.000139458
0.000176718
0.000194121
0.000185889
0.000183683
0.000215001
0.000138149
0.0254974
0.000161844
0.000140033
0.000153002
0.00022522
0.00406809
0.0340725
0.00014271
0.000181994
0.000164634
0.000148602
0.000189786
0.000194019
0.000131075
0.00015089
0.000148928
0.000151202
0.000136581
0.00015613
0.000151152
0.000147002
0.000131452
0.00276787
0.0060111
0.000142378
0.000212364
0.000136633
0.000130787
0.000138081
0.000158036
0.000143559
0.000188654
0.00018978
0.000158958
0.000158434
0.00479005
0.00013057
0.0301368
0.000137403
0.00014712
0.00015516
0.000149007
0.000157685
0.000176235
0.000152367
0.000139937
0.000130708
0.000133404
0.000160951
0.000150153
0.000130633
0.0155584
0.000165959
0.0374868
0.000140737
0.000184148
0.000192834
0.000173044
0.000130521
0.000157315
0.0208785
0.000150037
0.000156077
0.000141041
0.000197747
0.000146421
0.000205441
0.000212875
0.000139833
0.000157732
0.000153976
0.000137246
0.000135954
0.000166074
0.000133497
0.00423736
0.0217335
0.0426587
0.000224209
0.0306305
0.000148354
0.000190061
0.000177216
0.000143423
0.000137216
0.000185738
0.0015905
0.000148711
0.000167328
0.000145801
0.000145883
0.000136916
0.000186631
0.000142388
0.000185211
0.000177874
0.000143395
0.000167019
0.000138747
0.000195546
0.000363594
0.000152512
0.00015009
0.000135943
0.0349645
0.000153696
0.000160021
0.000147945
0.00017841
0.000182314
0.00118517
0.000147334
0.000203455
0.000137198
0.000147542
0.00014262
0.000184513
0.00017226
0.000218263
0.000292047
0.000138131
0.000139577
0.000190246
0.000218137
0.000149583
0.000186377
0.000137351
0.00016768
0.000147578
0.000140715
0.000211027
0.000139879
0.000203618
0.000163221
0.0359482
0.000169986
0.000167466
0.000158547
0.000173206
0.000155343
0.000218576
0.000143162
0.000132487
0.000212664
0.000138512
0.000167256
0.00018784
0.000136999
0.0336567
0.000326499
0.00341269
0.0317864
0.000199465
0.000155887
0.00816606
0.000227843
0.000130047
0.000165353
0.000130101
0.0318023
0.0184057
0.047043
0.0310657
0.000143619
0.00015775
0.000143607
0.000143554
0.0001713
0.000168752
0.0464173
0.0181917
0.000149286
0.000181501
0.000151577
0.0356346
0.000145595
0.000148237
0.000141715
0.000142686
0.000140616
0.000141873
0.000153069
0.000216709
0.000142005
0.000166139
0.000143161
0.0001404
0.000163218
0.000157484
0.000214044
0.000145792
0.00015932
0.00100432
0.000153598
0.000131865
0.000154462
0.000166809
0.0101405
0.00102908
0.000131918
0.000280748
0.000142962
0.000188465
0.000155577
0.000136843
0.000149279
0.000131911
0.000140321
0.000143657
0.000163612
0.0329351
0.0379322
0.000193183
0.000195176
0.000153174
0.00022576
0.000147522
0.000146969
0.000165234
0.0275802
0.00019597
0.000155937
0.000141224
0.0377638
0.000153296
0.000136435
0.0439131
0.000153917
0.000143584
0.000135806
0.00014278
0.000134271
0.000191364
0.000154494
0.00023822
0.00019099
0.000164162
0.000133014
0.000150726
0.000169433
0.000153338
0.000152454
0.0344737
0.000133095
0.000147376
0.000133558
0.0406838
0.000154683
0.000163791
0.000159957
0.000152516
0.000152298
0.00015678
0.000268476
0.000145736
0.0181576
0.000194302
0.000141319
0.000207933
0.000210839
0.000192461
0.000153133
0.00125015
0.00015066
0.0166294
0.000189317
0.000155246
0.000223721
0.00015635
0.000172828
0.0382618
0.000178519
0.000179923
0.000175022
0.0002145
0.000136433
0.000249574
0.000151577
0.000271128
0.000171998
0.000133609
0.000137892
0.000155181
0.000151104
0.000189423
0.000162748
0.000135207
0.00016389
0.000149886
0.000172064
0.000212288
0.000207162
0.000178533
0.00354474
0.000133705
0.00117368
0.000156374
0.000143806
0.000151608
0.000135493
0.000191566
0.000139468
0.000135011
0.00018712
0.00015075
0.000216785
0.000135239
0.000155088
0.0268789
0.00784948
0.0325513
0.000151193
0.00595465
0.000164147
0.000204056
0.024632
0.00014122
0.0248776
0.000169419
0.000144955
0.000270035
0.00014234
0.000147361
0.0440406
0.000142035
0.000142872
0.000197408
0.000379675
0.000155596
0.000156457
0.000208711
0.000158019
0.000157606
0.000151599
0.00017829
0.0235553
0.000156601
0.0001514
0.00014317
0.000148055
0.000134135
0.000134237
0.0336523
0.000224184
0.000166179
0.000180746
0.000135337
0.000149109
0.000175037
0.00015052
0.00163441
0.000153289
0.000143372
0.000160802
0.000137453
0.000227428
0.000456478
0.0389737
0.000153274
0.000151346
0.000163076
0.000238822
0.00723138
0.000887502
0.0302
0.000183269
0.000151953
0.000157429
0.000150151
0.000197171
0.000130375
0.000214576
0.000176375
0.0193468
0.00013638
0.000151363
0.000135397
0.0294631
0.000141734
0.00426089
0.000190961
0.000142697
0.000212318
0.000143579
0.000207609
0.00017044
0.000157755
0.000142643
0.000149266
0.000156823
0.000194249
0.000169123
0.000156912
0.000165294
0.000132917
0.000134482
0.000154819
0.0240431
0.0282468
0.000146927
0.000199262
0.000176526
0.000136481
0.000209171
0.000157481
0.000149942
0.000145125
0.000133169
0.000159655
0.00017508
0.000183554
0.0156162
0.000184446
0.000220938
0.000158155
0.000159057
0.000148968
0.000133209
0.000145538
0.000180544
0.0001581
0.000212303
0.000148804
0.000152271
0.000156258
0.000178388
0.000131911
0.000162697
0.023268
0.000178169
0.000148587
0.00014349
0.000166246
0.000131901
0.000141084
0.000142951
0.000190202
0.00013261
0.000156693
0.00017196
0.000144184
0.000180767
0.000108011
0.000136575
0.000151808
0.000153211
0.000148726
0.0001475
0.000141596
0.000266272
0.000155328
0.000169402
0.0287331
0.000143666
0.000149306
0.0211525
0.000140864
0.00019135
0.000129057
0.000132393
0.0263698
0.000161297
0.0326965
0.0262094
0.0168372
0.000133114
0.000185467
0.00013779
0.00021318
0.000137647
0.000197919
0.00013515
0.000199159
0.000179214
0.000251618
0.000173924
0.000140989
0.000132395
0.000143115
0.000163416
0.000163996
0.000129049
0.000323502
0.000195845
0.033281
0.00015549
0.000137635
0.019445
0.000166863
0.000174685
0.000141102
0.000220276
0.000134845
0.000135984
0.0302393
0.000155357
0.000141021
0.000142925
0.000152566
0.000144539
0.0326044
0.0025572
0.000163185
0.000164702
0.000143521
0.000228781
0.00014684
0.000287699
0.000147185
0.000176498
0.000195959
0.000148829
0.000158203
0.00519551
0.000211223
0.000144347
0.000161554
0.000143318
0.000156285
0.0267776
0.000157643
0.000195908
0.000165289
0.000228536
0.000147907
0.000220047
0.000168262
0.000146769
0.000187027
0.000139144
0.000146847
0.000155599
0.000173637
0.00333824
0.000150383
0.000158745
0.000157748
0.00021809
0.000141815
0.000179386
0.000133714
0.000154989
0.000161317
0.000152472
0.000150405
0.000234774
0.000151955
0.000144575
0.000198303
0.000152697
0.000149376
0.000132386
0.000150958
0.000140647
0.000155931
0.00013883
0.000159522
0.0243425
0.000145244
0.000225068
0.000150374
0.000131851
0.000155242
0.000144269
0.000141923
0.0244254
0.000178889
0.000195903
0.000204959
0.000195657
0.000145238
0.000151913
0.00013365
0.000156178
0.000675346
0.0315645
0.0355464
0.0356247
0.000146429
0.0382219
0.0217102
0.000139309
0.000147315
0.000293552
0.000228921
0.0370248
0.0031762
0.000130472
0.0001378
0.00015838
0.00022146
0.00496266
0.000190132
0.0293549
0.000133687
0.000212671
0.000135086
0.00015509
0.00014289
0.000201717
0.000142111
0.000213453
0.000167889
0.00018015
0.000164448
0.000148875
0.000178274
0.0200799
0.000174828
0.00335182
0.000158068
0.000143829
0.000148586
0.000148632
0.000180201
0.000239035
0.000154362
0.000177983
0.000143007
0.000190103
0.000233378
0.000244968
0.00015171
0.00014688
0.000225528
0.000148489
0.0297208
0.000171251
0.000138634
0.000143334
0.000128109
0.000246086
0.000138113
0.0305214
0.000142606
0.000149285
0.000162689
0.00214214
0.00015208
0.0298831
0.000180728
0.000149324
0.000201698
0.000152613
0.000148776
0.000142966
0.000143117
0.000152933
0.025971
0.000169386
0.000135962
0.000143502
0.00013832
0.000143486
0.000142475
0.000138525
0.000156228
0.000159918
0.000144506
0.000170465
0.000133767
0.00013113
0.000162636
0.000162221
0.000150737
0.000185866
0.000135244
0.000172903
0.000234991
0.000130464
0.00014084
0.000202159
0.00217748
0.000178655
0.000167983
0.000173066
0.000161445
0.000150951
0.000147661
0.000236795
0.000155931
0.000161239
0.00016707
0.000149593
0.000150762
0.000189418
0.000154794
0.000173646
0.000138257
0.000176437
0.0277898
0.000153108
0.000233249
0.000136734
0.000142116
0.000179312
0.000155873
0.000146484
0.0225953
0.0202971
0.0284972
0.000144883
0.000148826
0.000137799
0.0322837
0.000214925
0.000169613
0.000182489
0.000136738
0.00013873
0.000182195
0.000153061
0.000147056
0.000157809
0.000156961
0.000204273
0.000139312
0.000143518
0.000298829
0.000136681
0.000151488
0.000178028
0.000139136
0.000181783
0.000232316
0.00106333
0.00014911
0.000157315
0.000136806
0.000136775
0.000159661
0.000142737
0.000145738
0.000150397
0.000143857
0.000151056
0.000173357
0.00013918
0.000138267
0.000180727
0.000195771
0.000135312
0.000257682
0.000146551
0.000151562
0.000152459
0.000142061
0.00014502
0.000153966
0.0001499
0.0276954
0.000155265
0.000135209
0.000174758
0.000176393
0.000151499
0.000154651
0.000159827
0.000152098
0.000163565
0.00013268
0.000189887
0.000132345
0.000135089
0.000144628
0.000195158
0.000162525
0.000141687
0.000135119
0.000169296
0.000211926
0.000203594
0.000162099
0.000208028
0.000165297
0.00013863
0.000133306
0.00014273
0.00013274
0.000154757
0.000295608
0.000144428
0.000141771
0.0103558
0.000155337
0.000141836
0.000159479
0.00169289
0.000168534
0.000144712
0.000175577
0.000148887
0.028891
0.000206043
0.000147677
0.0234726
0.000144919
0.000138199
0.000145802
0.000163077
0.000160746
0.000134873
0.000146376
0.0352338
0.000160859
0.000143156
0.00400721
0.000145729
0.000141613
0.000164095
0.000176143
0.000175341
0.000239891
0.000162954
0.000200289
0.00540576
0.0293286
0.000219887
0.00789978
0.000128621
0.00014649
0.00013894
0.00014054
0.000168608
0.0295174
0.000145163
0.000217996
0.00261551
0.0140911
0.00182633
0.00014959
0.000155864
0.000143238
0.000182978
0.000148639
0.00360242
0.000148965
0.000137469
0.0375621
0.000143372
0.000204249
0.000242857
0.000235404
0.000154656
0.0102768
0.000153647
0.000137768
0.000138183
0.00292556
0.000143632
0.000143625
0.00284993
0.000174272
0.000147533
0.00300968
0.000145743
0.00275107
0.000197908
0.000145404
0.000236542
0.000141215
0.000132824
0.000162655
0.000157567
0.000221945
0.00019118
0.000140743
0.00014687
0.000151722
0.00336079
0.000165885
0.000143834
0.00730301
0.000131946
0.000161954
0.00358914
0.000156056
0.000149044
0.00013245
0.0281409
0.000220579
0.000180752
0.000156258
0.000159088
0.000157827
0.000189338
0.000228958
0.0289854
0.000215591
0.00017131
0.000168946
0.000195184
0.000148777
0.0043402
0.000136563
0.000191092
0.0273359
0.000215061
0.000198048
0.000134581
0.0398857
0.000153928
0.000153703
0.000235949
0.000147968
0.000150529
0.000149186
0.000226601
0.000140459
0.00745847
0.000133238
0.000143214
0.000138708
0.00013012
0.000149641
0.000143442
0.0346682
0.000144345
0.00189011
0.000137567
0.000157585
0.000138705
0.000133479
0.00333398
0.000147532
0.000152925
0.00360304
0.000149528
0.0304101
0.000150494
0.0410311
0.0330435
0.00690739
0.000143477
0.000130361
0.000208792
0.000191814
0.000130056
0.000133349
0.00538312
0.000141803
0.000150322
0.000194214
0.000174304
0.000146712
0.000141789
0.00713517
0.00013608
0.000138485
0.00014374
0.000148897
0.00482049
0.000148231
0.000138954
0.000231948
0.000144283
0.000141328
0.000134436
0.000161957
0.000153048
0.000137857
0.0234985
0.000173673
0.00666308
0.00013993
0.000141253
0.000142449
0.000195808
0.000173193
0.000154047
0.000220541
0.000143369
0.000170583
0.000212922
0.00015462
0.000156468
0.000157922
0.000133353
0.000143387
0.0308504
0.000147348
0.000213518
0.000151834
0.000172316
0.00377276
0.00017365
0.000153024
0.000158552
0.000158038
0.000162961
0.000155631
0.000154916
0.00500826
0.000181351
0.000150264
0.000180025
0.0318986
0.000159097
0.000241927
0.000172082
0.0271923
0.000165839
0.000136103
0.000140424
0.000979865
0.00881235
0.000167496
0.000217881
0.000152775
0.000209074
0.0253796
0.00063023
0.00326061
0.000148762
0.034108
0.000202769
0.000135466
0.000189118
0.00017449
0.000164773
0.000143896
0.000158328
0.000159537
0.000130265
0.000182975
0.000165399
0.031503
0.000141124
0.000180628
0.000137489
0.000221279
0.000198758
0.000143496
0.000205352
0.000153895
0.00157751
0.000173727
0.000140403
0.00556654
0.000142461
0.0324858
0.000155804
0.000148512
0.000139701
0.000211662
0.000144889
0.000231022
0.000142428
0.0288783
0.000132281
0.000144117
0.00022176
0.000153278
0.000143482
0.000139865
0.000811325
0.000173086
0.000213735
0.000152699
0.0216853
0.000136277
0.000163141
0.000146202
0.000139734
0.000174271
0.00223936
0.000199709
0.0398863
0.000132319
0.00015712
0.000147627
0.000212557
0.000155661
0.000179286
0.00017179
0.00462362
0.000142004
0.0341435
0.000144114
0.000148264
0.000143477
0.000152053
0.0001747
0.000149116
0.000158188
0.000135657
0.0224935
0.000207424
0.0269669
0.000164235
0.000170097
0.000154587
0.0367854
0.000139087
0.000137324
0.000224664
0.000134881
0.000226658
0.000143452
0.00015425
0.000231998
0.000155417
0.000195273
0.000193357
0.0249602
0.000138969
0.000130325
0.000216536
0.000142402
0.000171084
0.00023931
0.000163961
0.0220204
0.000147463
0.0309045
0.000204432
0.000141365
0.0280268
0.000205824
0.000160655
0.00722887
0.000181626
0.000200359
0.000206467
0.000160409
0.00128389
0.000188729
0.000162653
0.000132117
0.00340837
0.000146651
0.00318592
0.00014671
0.00224409
0.000153914
0.00014828
0.000147474
0.000143372
0.034891
0.000142519
0.000141864
0.000181732
0.000143855
0.00016266
0.000153454
0.000154574
0.000174216
0.000146313
0.000174445
0.000143547
0.000139418
0.00014521
0.000175167
0.000143079
0.000189887
0.000249192
0.000131944
0.000148941
0.000135465
0.000211038
0.000145022
0.000134373
0.000131993
0.000134731
0.00119763
0.000137673
0.000137888
0.00352446
0.000222276
0.000174235
0.000227127
0.000146555
0.0001551
0.00020092
0.000147011
0.000173162
0.000153907
0.000143806
0.000158469
0.000155191
0.000142859
0.000154277
0.000196309
0.000132065
0.000130435
0.000213221
0.00015912
0.000181615
0.000141634
0.000151635
0.000399909
0.000142211
0.000149582
0.00013264
0.000171143
0.0406888
0.000226241
0.0223083
0.000159393
0.000143476
0.000143456
0.000402741
0.000146462
0.000265622
0.000941923
0.000170862
0.000190046
0.000142759
0.000149152
0.000158555
0.000142037
0.00013987
0.000174194
0.000225615
0.000142095
0.00016955
0.000139891
0.000144787
0.000148757