/*--------------------------------*- C++ -*----------------------------------*\
| =========                 |                                                 |
| \\      /  F ield         | OpenFOAM: The Open Source CFD Toolbox           |
|  \\    /   O peration     | Version:  v2012                                 |
|   \\  /    A nd           | Website:  www.openfoam.com                      |
|    \\/     M anipulation  |                                                 |
\*---------------------------------------------------------------------------*/
FoamFile
{
    version     2.0;
    format      ascii;
    class       volScalarField;
    location    "200";
    object      nut;
}
// * * * * * * * * * * * * * * * * * * * * * * * * * * * * * * * * * * * * * //

dimensions      [0 2 -1 0 0 0 0];


internalField   nonuniform List<scalar> 
37809
(
0.00584703
0.00236537
0.00251254
0.000253896
0.00594036
0.00594055
0.00594216
0.0107707
0.00594328
0.00222482
0.00554163
0.00304989
0.00594878
0.00568549
0.00590898
0.00403822
0.00599285
0.00654455
0.00349878
0.00589826
0.00369979
0.00906825
0.0151047
0.00608377
0.00940207
0.00605079
0.0031967
0.00945808
0.00254283
0.00584722
0.00559439
0.0113805
0.00582823
0.003845
0.00343236
0.00582854
0.00180337
0.000383656
0.0118944
0.0059263
0.00585071
0.00109201
0.0036635
0.00215708
0.00584019
0.00267947
0.00487384
0.00578246
0.00432129
0.00112264
0.00842859
0.0111443
0.00293958
0.00411888
0.00317462
0.00594488
0.00148709
0.0028117
0.00112131
0.00976768
0.00301949
0.00270224
0.000292918
0.00218027
0.00576397
0.0059094
0.00243687
0.00491084
0.00208079
0.0011856
0.00594439
0.00600834
0.0109999
0.00120107
0.00591787
0.00711381
0.00113927
0.00580127
0.00367335
0.00598153
0.00216808
0.00621781
0.00590748
0.00342385
0.00337393
0.00356535
0.00594829
0.00872202
0.00226608
0.00152802
0.00603739
0.00846423
0.00201603
0.00591513
0.00236974
0.00583343
0.00952043
0.00583284
0.00578506
0.00896793
0.00600211
0.00145641
0.00584894
0.0057824
0.00342667
0.0059288
0.00863664
0.00596961
0.0105862
0.0177819
0.0059514
0.00123083
0.00731478
0.0059281
0.0101734
0.00726537
0.00591915
0.00583266
0.000735031
0.00579242
0.00293405
0.00350437
0.0106037
0.00583394
0.00592949
0.00652649
0.00579856
0.00532386
0.00581838
0.00582541
0.00259672
0.00591419
0.00595099
0.00592884
0.00579843
0.00584735
0.00204985
0.00647928
0.00772164
0.00313856
0.00353381
0.0011018
0.00564707
0.00593752
0.00582745
0.00582632
0.0034984
0.00579407
0.00581949
0.00579844
0.000782496
0.00593769
0.0059582
0.00125423
0.00582027
0.00561444
0.00579878
0.010189
0.0057858
0.00594033
0.00583453
0.00775827
0.0112451
0.00440932
0.00582172
0.00240641
0.00583525
0.00272738
0.00570296
0.0156326
0.00593209
0.00106963
0.0059601
0.00568746
0.00564818
0.00592687
0.00594135
0.00595384
0.00167706
0.00584628
0.00592047
0.00108863
0.00594399
0.0059208
0.00585622
0.00584744
0.0104826
0.0059594
0.0083525
0.00219644
0.0144948
0.00185049
0.00590069
0.000730217
0.00592662
0.00590662
0.00590685
0.00127758
0.00594134
0.00754289
0.0137491
0.00219185
0.00596456
0.00573991
0.00292305
0.00591435
0.00594611
0.00948282
0.00584815
0.0095212
0.00886536
0.000760363
0.000667004
0.00106799
0.00599337
0.00578641
0.000604144
0.00143243
0.00584992
0.0153876
0.00194529
0.00596305
0.00307618
0.00606465
0.00599152
0.00141455
0.005838
0.00920217
0.00579901
0.000502499
0.0043251
0.00596318
0.00588032
0.00596425
0.00576025
0.000926141
0.0104385
0.00606568
0.00588859
0.00584936
0.00190134
0.00592379
0.00334491
0.00947627
0.00234252
0.00263852
0.0012149
0.0032843
0.00883404
0.00235592
0.00584777
0.00583683
0.00246026
0.00767132
0.00595931
0.00585606
0.00154079
0.00584186
0.00585543
0.00316918
0.00592329
0.0059497
0.00585429
0.00587806
0.00603307
0.00596313
0.00269624
0.00072394
0.00580106
0.00591566
0.00594024
0.00595837
0.00592935
0.00241515
0.0019299
0.00639892
0.00578273
0.00352795
0.00593735
0.00550209
0.000734873
0.00587214
0.00577922
0.00117672
0.00103629
0.00584085
0.0102586
0.00244835
0.00583424
0.0151743
0.00561749
0.00602163
0.00474039
0.00884193
0.00214484
0.00583624
0.00186753
0.00584287
0.00584099
0.0018298
0.00915611
0.0059463
0.00389331
0.0022965
0.00439924
0.00570479
0.00584423
0.00600273
0.00590123
0.00178935
0.00548281
0.00596417
0.00590845
0.00210827
0.00165682
0.00581851
0.00188428
0.00584958
0.0129744
0.00225222
0.00543969
0.00465642
0.00919566
0.000560168
0.00992834
0.00585201
0.00188571
0.00779558
0.00584515
0.005794
0.00159022
0.00151934
0.000280739
0.0058328
0.00588047
0.00593215
0.00593455
0.00109658
0.0107896
0.00596171
0.00218891
0.0058172
0.00734899
0.00228532
0.00592821
0.00596538
0.00915811
0.0124815
0.00201899
0.00283042
0.00569211
0.00594098
0.00446661
0.0066502
0.00185566
0.00595215
0.00580781
0.0115143
0.00678667
0.00591228
0.00583991
0.0131006
0.00266943
0.00584277
0.00593017
0.00247124
0.00592752
0.00135074
0.00275601
0.00585502
0.00548708
0.00585196
0.00444462
0.00579891
0.00254486
0.00592877
0.00591254
0.00583988
0.00363487
0.0101575
0.00335366
0.00586942
0.000647273
0.00135436
0.00199832
0.00593178
0.00602009
0.00221105
0.00267309
0.0111681
0.0058339
0.00551601
0.0108443
0.00172357
0.00318721
0.0059293
0.00583356
0.00593279
0.00782723
0.00584713
0.00593038
0.00582622
0.00544492
0.00934903
0.00580507
0.00393965
0.00278635
0.005864
0.00295015
0.0017763
0.00439354
0.00578082
0.00193879
0.000973776
0.00102216
0.00585669
0.00584561
0.00560789
0.00243902
0.000920739
0.00594571
0.00593218
0.00382271
0.00704411
0.0117432
0.00190154
0.0031905
0.00583153
0.00584617
0.00594636
0.00583001
0.0110917
0.00388185
0.00226479
0.00491297
0.00553167
0.00529185
0.0091547
0.00587216
0.0168441
0.00587227
0.00541293
0.0059365
0.00597774
0.00585078
0.00584187
0.00594129
0.00593173
0.00583823
0.00568531
0.00586845
0.00592806
0.00856393
0.00596248
0.00590099
0.00582513
0.00593462
0.00566292
0.00584015
0.00465311
0.00233055
0.00596293
0.00410677
0.0059328
0.00595334
0.00434476
0.00582682
0.00593318
0.00267725
0.00551126
0.00169386
0.00583576
0.00024885
0.00552823
0.00957729
0.00586666
0.00481663
0.00409111
0.00745693
0.00593656
0.0029727
0.0118848
0.00110449
0.00582545
0.000754053
0.00592629
0.00820693
0.00232461
0.00582819
0.00144868
0.00593649
0.00582434
0.00106185
0.00240564
0.00585161
0.00595832
0.00583638
0.00582343
0.0116255
0.0022778
0.00579982
0.0011797
0.00781178
0.00587963
0.00585311
0.00579779
0.00565027
0.0104287
0.0105161
0.00244321
0.00593274
0.00951646
0.00584111
0.00590698
0.000822987
0.00582633
0.00147605
0.00430742
0.00284819
0.00576033
0.00143086
0.0057972
0.00181361
0.010826
0.00405249
0.00569616
0.00289092
0.0020734
0.0058284
0.00182578
0.00585275
0.00528274
0.00276093
0.00528425
0.00593571
0.00166509
0.00173114
0.00762595
0.00579649
0.00592725
0.00582715
0.00237946
0.0102785
0.00431841
0.0102254
0.0023165
0.00560716
0.00586387
0.00550806
0.00233813
0.010378
0.00242604
0.00582432
0.00588767
0.00228231
0.00256937
0.00391406
0.00549697
0.00130902
0.00119521
0.00595415
0.00582805
0.00582153
0.0114838
0.00595721
0.00581359
0.00579874
0.00582793
0.00584718
0.00609486
0.010505
0.00207967
0.00777229
0.00584914
0.00524627
0.00643765
0.00377708
0.00326892
0.00209944
0.00627446
0.00584362
0.00584619
0.0059117
0.00592896
0.00217996
0.00706256
0.00592381
0.00294053
0.00222695
0.00529816
0.0058262
0.00585193
0.00116529
0.00579581
0.00184623
0.000681291
0.00226242
0.00589622
0.00585819
0.000637322
0.00545638
0.00548091
0.00595206
0.00594592
0.00249607
0.000913524
0.00250581
0.0045155
0.00595384
0.00433463
0.00188869
0.00194405
0.00436541
0.00115093
0.00573167
0.000450987
0.00164107
0.00304453
0.00597742
0.00973138
0.000916226
0.00673848
0.00148004
0.00219016
0.00897917
0.00596469
0.00578686
0.00318512
0.0015492
0.0058387
0.00220099
0.0164636
0.00591187
0.00587195
0.00520928
0.0153302
0.00180875
0.00222608
0.00397748
0.00584146
0.00205946
0.00591665
0.00594236
0.000726487
0.00586222
0.00594539
0.00586527
0.00208226
0.00550507
0.00166564
0.00265654
0.00596336
0.00131198
0.00327512
0.00251599
0.00111996
0.00591593
0.00503204
0.00579894
0.00157592
0.00595075
0.00174061
0.00589601
0.00607073
0.00583704
0.00455483
0.00976092
0.00585849
0.0057991
0.00580112
0.00573108
0.00979139
0.00165656
0.000831364
0.00583432
0.00598575
0.00113826
0.00582709
0.00594628
0.00270826
0.00585294
0.0116462
0.0021651
0.00261426
0.00607266
0.00583163
0.00581812
0.0058399
0.00592123
0.0146592
0.0149884
0.00342731
0.00577915
0.00580056
0.00972173
0.00346949
0.00590519
0.00583352
0.0105178
0.005455
0.00427832
0.00176622
0.0109276
0.00120219
0.00263663
0.00769371
0.00585407
0.000732141
0.00263487
0.0058556
0.00590314
0.0017159
0.00580078
0.0058901
0.00579637
0.0158501
0.0152959
0.00170234
0.00591984
0.00596267
0.00596237
0.00594763
0.00583817
0.00227554
0.0057878
0.00599574
0.00579523
0.00585986
0.00124447
0.0119977
0.00208764
0.00190923
0.0058285
0.00333636
0.00595178
0.00582546
0.00557538
0.00113614
0.00552412
0.000806023
0.0025361
0.000417101
0.00590221
0.00940358
0.000923116
0.00591947
0.00583183
0.00711692
0.00582241
0.00595423
0.00557063
0.00592621
0.00204223
0.005833
0.0139906
0.00596221
0.00589255
0.00187
0.00300612
0.00224266
0.00582166
0.00579552
0.00591414
0.00584642
0.00232919
0.00582514
0.00570624
0.00584971
0.00965105
0.0169234
0.0166044
0.00233203
0.00594329
0.00498969
0.00595452
0.00585906
0.00584853
0.00583705
0.00588567
0.00231067
0.00643325
0.00579611
0.00579609
0.00957987
0.00596102
0.00595413
0.00218556
0.00144584
0.00144898
0.0110986
0.00201889
0.0107077
0.00636594
0.00596111
0.0104795
0.00594647
0.000754088
0.00547264
0.00582736
0.00575007
0.00557248
0.00586747
0.00582732
0.011735
0.00356368
0.00274606
0.00778871
0.00193626
0.00589177
0.00440871
0.0122562
0.00591014
0.0029275
0.00586346
0.00222524
0.0110842
0.00591432
0.00581802
0.00372135
0.00582864
0.00094125
0.0115559
0.00236435
0.00596141
0.00239719
0.00229052
0.00596432
0.00582296
0.00586037
0.00581624
0.00595977
0.00128999
0.00493655
0.00591089
0.00595851
0.00113759
0.00329308
0.00554361
0.00578597
0.00596051
0.00357932
0.00581597
0.00322874
0.00585045
0.00582581
0.00147256
0.00600974
0.00588584
0.00585025
0.00143099
0.00146991
0.00585535
0.00583179
0.00101611
0.00602133
0.00831767
0.00282052
0.00226656
0.00588678
0.00198762
0.00555433
0.00582372
0.00249416
0.00554296
0.00587253
0.000664132
0.00582464
0.00578505
0.00596344
0.0016751
0.00578559
0.00122817
0.0109438
0.00449757
0.00188997
0.0124799
0.0023043
0.00591175
0.00596035
0.00347519
0.00800087
0.00595008
0.00595685
0.00482412
0.0026255
0.00382706
0.00205233
0.000693253
0.00596131
0.000845768
0.00889839
0.00913119
0.00163855
0.00762924
0.00561427
0.00581873
0.00104981
0.00591912
0.0124531
0.00587594
0.00199254
0.00184673
0.00595398
0.00582099
0.00776891
0.0129925
0.00602985
0.00593341
0.00582586
0.00593438
0.0059506
0.0147152
0.00604042
0.0058545
0.00760625
0.00581578
0.00105861
0.00565476
0.00140599
0.00240067
0.00601976
0.00581572
0.0107786
0.0077224
0.00520893
0.0018156
0.00240929
0.00582125
0.00589051
0.00149275
0.00497759
0.0059478
0.00574936
0.00238001
0.00308123
0.0058242
0.00144905
0.00184098
0.0019756
0.00595185
0.00216734
0.00198956
0.0102327
0.00599231
0.00596165
0.00488338
0.00589477
0.00587177
0.00587033
0.000780409
0.00590624
0.00347618
0.00277604
0.00593997
0.00845466
0.00583808
0.00263898
0.00579939
0.00879352
0.0071239
0.00120716
0.00586908
0.0034722
0.00535637
0.00602463
0.00227235
0.00187487
0.000817993
0.00582549
0.00584113
0.00116634
0.00364616
0.00892735
0.00222259
0.00132877
0.00593489
0.00208857
0.00584224
0.00309239
0.000836965
0.00238573
0.00178631
0.0058319
0.00107619
0.00379288
0.00113768
0.0112992
0.00305914
0.00548054
0.0111439
0.00650375
0.00899874
0.00226909
0.0114628
0.00915077
0.0176019
0.00584727
0.00593518
0.00582342
0.00346673
0.00579574
0.0120671
0.0107264
0.00582596
0.00206579
0.00232441
0.00595547
0.00579504
0.00346364
0.00151525
0.0060025
0.00290016
0.00277929
0.00582452
0.00837276
0.00082581
0.00270822
0.00582299
0.0107868
0.0040308
0.00336257
0.00581554
0.00939049
0.00220611
0.00318986
0.00206477
0.00581549
0.00583825
0.00268497
0.00593326
0.00368899
0.00166135
0.00225168
0.00363181
0.00341356
0.005942
0.00593455
0.00290499
0.00591523
0.00133565
0.00136017
0.00258613
0.00120066
0.00593449
0.00122014
0.000706861
0.00522263
0.00828369
0.00470142
0.00582764
0.00232196
0.00647901
0.00581051
0.00485231
0.00238802
0.00105322
0.00533045
0.00263471
0.0024263
0.00242062
0.0109917
0.00596193
0.00363882
0.0113486
0.00579943
0.000514772
0.00522932
0.00231289
0.00279489
0.00586559
0.0053399
0.00271868
0.000988088
0.00341917
0.00587687
0.0113113
0.00206388
0.0118994
0.00678516
0.00595758
0.010029
0.00586927
0.00341916
0.00591989
0.00229898
0.00337792
0.0101117
0.00596544
0.000728713
0.00592261
0.00594011
0.00582613
0.00253088
0.011646
0.00601166
0.0048922
0.00590291
0.00186094
0.00885575
0.00543406
0.00593364
0.00227335
0.00588414
0.00592182
0.00594285
0.00488362
0.00596661
0.00495186
0.0109893
0.00529078
0.00965514
0.0024111
0.00586403
0.0042286
0.00591961
0.00131503
0.00590902
0.00596235
0.00565922
0.00584503
0.00227716
0.00561811
0.00106541
0.00223622
0.00596068
0.00586113
0.00497276
0.00205183
0.00301275
0.00177343
0.00589767
0.00578526
0.00509738
0.00185222
0.0118259
0.00538688
0.00160851
0.00260244
0.00318008
0.00153264
0.00593468
0.0107566
0.00211706
0.00582675
0.00582593
0.00583934
0.00582664
0.00579251
0.00604396
0.00170808
0.000807278
0.0116975
0.0104999
0.00101964
0.0017579
0.00577772
0.00212097
0.00307634
0.00580044
0.00234562
0.00600764
0.00357463
0.00578122
0.00209732
0.00580163
0.00599324
0.00594039
0.00587849
0.00584178
0.00561757
0.00584321
0.00579332
0.00579543
0.00558314
0.00585852
0.00581633
0.00165843
0.00247066
0.00596776
0.00583344
0.00271734
0.00594183
0.00583037
0.0107284
0.00590045
0.00189298
0.00211275
0.00589417
0.00583231
0.00582578
0.00586754
0.015083
0.00700549
0.00883126
0.00596241
0.00238438
0.00591225
0.00582343
0.0116693
0.00261751
0.00583131
0.00594018
0.00594301
0.00742984
0.005915
0.0058774
0.0058154
0.00275476
0.00594428
0.00354204
0.00197905
0.00582423
0.00593274
0.00593272
0.0058219
0.00584633
0.00583464
0.00252463
0.00585528
0.00359114
0.00596449
0.00586631
0.00584977
0.000956446
0.00138897
0.00539203
0.00593517
0.00596089
0.00937923
0.00584228
0.00593121
0.00582308
0.00593602
0.00984393
0.00566895
0.00583307
0.00580171
0.00252525
0.00338361
0.00230679
0.00155527
0.00283086
0.0110064
0.0111777
0.00605076
0.00595434
0.00571904
0.000584368
0.00726844
0.0059227
0.00590282
0.00208094
0.0013102
0.00144048
0.00582176
0.00838294
0.00588235
0.00603122
0.00582204
0.00578967
0.00586374
0.00584724
0.0058008
0.00591338
0.00578538
0.00879016
0.00596456
0.00589366
0.00580204
0.00582708
0.00229508
0.00607843
0.0112539
0.00585814
0.00608565
0.0108061
0.00173072
0.00576162
0.00216746
0.000918313
0.00591573
0.00586152
0.0016193
0.000940837
0.00140584
0.00131126
0.00315389
0.00583583
0.00835293
0.00349344
0.00582759
0.00586858
0.000942034
0.0119347
0.0175742
0.00594907
0.00128421
0.00251668
0.00596244
0.0057896
0.000970582
0.0058031
0.00593639
0.00600393
0.00592754
0.00591754
0.00603983
0.0058811
0.00589199
0.00587859
0.00313757
0.010748
0.00594209
0.00120344
0.00591982
0.00579864
0.00583747
0.00235624
0.00594826
0.00247235
0.00121099
0.00349726
0.00257214
0.00178682
0.00579477
0.0105455
0.00582664
0.0059571
0.00575798
0.00585177
0.00269589
0.000569416
0.00589168
0.00584227
0.00579758
0.00586296
0.00532995
0.00590827
0.0057955
0.00545839
0.00189001
0.0113094
0.00584781
0.00126936
0.00108982
0.000592425
0.00579467
0.00569721
0.00488455
0.0059505
0.00570579
0.0058227
0.00178606
0.00590922
0.00432378
0.00121321
0.00584007
0.00562987
0.00581003
0.00592512
0.00582435
0.0023132
0.00586847
0.0123395
0.00645624
0.0122222
0.00100434
0.010595
0.00596112
0.00221368
0.00152966
0.00585867
0.00583311
0.00143205
0.00502832
0.00595887
0.00236353
0.00588295
0.00588197
0.00581288
0.00216064
0.00591206
0.00117105
0.00516148
0.00585863
0.00233967
0.00582151
0.00147521
0.00305585
0.00588738
0.00595219
0.00582481
0.0110879
0.00603765
0.00613498
0.00596544
0.00239597
0.00137081
0.000664654
0.00595622
0.00133715
0.00583382
0.00594401
0.00587981
0.0017291
0.00198244
0.000766913
0.000292727
0.00591724
0.00582821
0.00230278
0.0011009
0.00595803
0.00109941
0.00583448
0.00235086
0.00589677
0.00584312
0.00128831
0.00582677
0.00122445
0.00237177
0.0111681
0.0021592
0.00236083
0.00538251
0.00209694
0.00574923
0.000651727
0.0058918
0.005828
0.000894562
0.00584182
0.00456507
0.00254563
0.00592131
0.0100548
0.00642983
0.0124895
0.0105969
0.00152248
0.00577334
0.0028158
0.00446492
0.00579289
0.00191356
0.00579341
0.00794787
0.0052602
0.0123406
0.00776875
0.00584417
0.00227737
0.00586593
0.00588273
0.00199694
0.00441911
0.0124195
0.00358923
0.00595233
0.00236636
0.00591933
0.0112137
0.00590885
0.00595759
0.00592038
0.00584238
0.00592579
0.00592076
0.00537804
0.001085
0.00594438
0.00252772
0.00589263
0.00584485
0.00229758
0.00605895
0.00120069
0.00591345
0.00292795
0.000670601
0.00584188
0.00579773
0.00599512
0.00241269
0.010086
0.00267637
0.00579776
0.00142928
0.0058256
0.00570331
0.00356771
0.00592185
0.00595181
0.00580282
0.00584395
0.00584441
0.00538292
0.0109365
0.0112301
0.000872376
0.000921357
0.00296533
0.00515067
0.00595908
0.00590681
0.00488051
0.00667414
0.00189
0.00603103
0.00594341
0.0114834
0.00581533
0.00583088
0.01162
0.00292355
0.00594731
0.0058613
0.00584052
0.0058922
0.00576197
0.0058179
0.00110486
0.00123977
0.00508622
0.00580143
0.00590017
0.00437215
0.00598654
0.00602011
0.00968829
0.00583659
0.00594121
0.00586243
0.0115676
0.00578508
0.00280926
0.00606916
0.00583886
0.00589425
0.00329114
0.00227565
0.00597372
0.00714074
0.00193668
0.00591972
0.000777998
0.00129276
0.00160509
0.0060111
0.00331841
0.00377121
0.00365365
0.00211749
0.00483066
0.000275943
0.00569023
0.00190753
0.01157
0.00237552
0.00191615
0.00166086
0.00118771
0.00583197
0.00224455
0.00591602
0.00132119
0.00212402
0.00586693
0.00592122
0.00296164
0.0058815
0.00151578
0.00543087
0.00590088
0.00195436
0.00591262
0.00200393
0.000971158
0.0024502
0.00246133
0.00958842
0.00587265
0.00049073
0.0057429
0.00593152
0.00591348
0.00586099
0.00119767
0.00586499
0.00589867
0.0010703
0.00590037
0.0011276
0.00590226
0.00537121
0.00787679
0.0153006
0.0101908
0.00585685
0.0106517
0.00255002
0.0014371
0.0071649
0.00594312
0.00676729
0.00225034
0.00586969
0.00257148
0.00587197
0.00596798
0.0117565
0.00582542
0.00584958
0.000939399
0.000342678
0.00338565
0.00569131
0.000795632
0.00560866
0.00564855
0.00591619
0.00255451
0.00676369
0.0056635
0.00592307
0.00589457
0.00596057
0.00581729
0.00581953
0.0110192
0.00080544
0.00185825
0.00238476
0.00586253
0.00596355
0.00234561
0.00403523
0.000878658
0.00573488
0.00589862
0.00543201
0.00582916
0.000877747
0.000337245
0.0116671
0.00585592
0.00592366
0.00516408
0.000934219
0.0036968
0.00167671
0.00709796
0.0054359
0.00590397
0.00560428
0.00600373
0.00181959
0.00580543
0.00118733
0.00159197
0.00834492
0.00591558
0.00599712
0.00585056
0.00835115
0.00592184
0.00831727
0.0021839
0.005837
0.00118606
0.00592667
0.00086673
0.00205036
0.00290196
0.00589657
0.00592787
0.00569984
0.00546072
0.00548166
0.0056659
0.00263082
0.00580068
0.00589538
0.00580769
0.00663467
0.00774987
0.00592614
0.0010077
0.00237365
0.00581723
0.00134906
0.00268727
0.00595105
0.00590885
0.00581549
0.00603706
0.00231933
0.00182695
0.00616154
0.00274768
0.00101833
0.00603726
0.00227978
0.00509897
0.00581553
0.00590077
0.00190515
0.00504294
0.00603644
0.00596276
0.00598561
0.00569643
0.00177843
0.00580049
0.00492932
0.00669601
0.00168351
0.00595941
0.00586377
0.00251064
0.00579889
0.00594302
0.00593979
0.0019084
0.0058325
0.00331486
0.00194961
0.00590599
0.00142444
0.000506641
0.00582312
0.00411454
0.00573413
0.00595943
0.00590629
0.00591527
0.00226668
0.00603618
0.00606121
0.00737766
0.00583526
0.0059528
0.0057599
0.00594179
0.00413156
0.0058166
0.00582277
0.0081056
0.00342265
0.00993594
0.00862794
0.00382601
0.0058407
0.00583686
0.00584785
0.00119478
0.00584516
0.000752074
0.00587203
0.000935163
0.000293156
0.00205644
0.0018255
0.00586533
0.00583211
0.00582749
0.0051008
0.00272856
0.0058159
0.00722876
0.00149839
0.0180546
0.00574342
0.00583745
0.00911739
0.00311394
0.00201163
0.00594366
0.00596972
0.00582996
0.00581092
0.0108846
0.00288505
0.00586553
0.00584039
0.00534613
0.00595213
0.00995746
0.00313754
0.00250421
0.00493143
0.00583451
0.000808727
0.00591568
0.000380124
0.00593664
0.00322396
0.00188723
0.00595806
0.0048619
0.00965951
0.000794257
0.00594181
0.00561012
0.00592337
0.00568814
0.009496
0.0056514
0.00172976
0.00196524
0.000870656
0.00596386
0.000827018
0.00552154
0.00592307
0.00291381
0.00585979
0.00599129
0.0057358
0.0033605
0.0107569
0.00432953
0.00298644
0.00361139
0.000790721
0.00584977
0.00206564
0.005803
0.00577021
0.00344257
0.00581076
0.00590509
0.000925903
0.00381189
0.00586115
0.00147886
0.00587947
0.00596144
0.00580088
0.00581867
0.00584032
0.00599882
0.00581868
0.0028243
0.00730759
0.00593659
0.00582111
0.00590176
0.00579859
0.00296867
0.00595492
0.00585157
0.0174834
0.00148992
0.00183775
0.00140862
0.00177965
0.0059367
0.00507415
0.00583042
0.00333199
0.000442696
0.0105413
0.0112208
0.020073
0.00593792
0.00907627
0.00688011
0.00586174
0.00596214
0.000481908
0.00103193
0.0200615
0.00564309
0.005807
0.00583458
0.00553192
0.000827839
0.00191341
0.00134813
0.0158946
0.00583067
0.000805444
0.00584824
0.00303354
0.00594084
0.00141428
0.00589166
0.00205197
0.00451696
0.00238285
0.00197813
0.00594324
0.00259562
0.00706081
0.00365916
0.0108196
0.00555443
0.00595026
0.00595966
0.00595693
0.00187463
0.00158867
0.00315177
0.00306019
0.00583437
0.0016334
0.0069081
0.00642757
0.0059138
0.00595351
0.00112204
0.00595972
0.00866406
0.00203037
0.00592803
0.00592492
0.00579179
0.00267839
0.00593053
0.00966299
0.00584124
0.00594909
0.00607204
0.00489243
0.00590282
0.0104622
0.00183321
0.00595164
0.00124591
0.00588361
0.00594449
0.00583315
0.00592048
0.00587106
0.00819894
0.00444095
0.00581014
0.00586141
0.00593222
0.0058619
0.00587026
0.00593327
0.00571544
0.00282015
0.00595173
0.00210771
0.00580325
0.00585142
0.00603547
0.00602852
0.00594033
0.00267829
0.00589249
0.00223996
0.0070825
0.00579409
0.00594131
0.0015075
0.00122482
0.00230686
0.00605287
0.00221559
0.00528304
0.00452786
0.00599511
0.00189955
0.00572434
0.00529586
0.00236863
0.00588562
0.00593791
0.00228705
0.00306204
0.00190736
0.00592179
0.00239671
0.0105776
0.00534996
0.000825846
0.00583177
0.00589276
0.0023167
0.00313827
0.00596103
0.00799931
0.00523047
0.0102042
0.00588664
0.00593694
0.00583936
0.010649
0.00117571
0.00232521
0.00170663
0.00583128
0.00593364
0.0021743
0.00527967
0.00586531
0.0047941
0.0056399
0.000838095
0.00593346
0.0058357
0.00407584
0.00582484
0.00599779
0.00245802
0.00593474
0.00511235
0.00245493
0.00246039
0.00596301
0.0037207
0.00581239
0.00581219
0.0057508
0.00584477
0.00594107
0.00594303
0.00584619
0.00588086
0.00547075
0.00584447
0.00592142
0.001781
0.00183537
0.00582785
0.000332598
0.00592659
0.00395405
0.00598072
0.00592838
0.0058891
0.00374444
0.00591236
0.00844058
0.00575683
0.00582611
0.00213605
0.00160068
0.00586846
0.00580337
0.00608469
0.00600447
0.00255803
0.00579997
0.00227258
0.00579898
0.00585032
0.00587352
0.00113917
0.00296687
0.00584861
0.00585457
0.0044419
0.0011106
0.000793053
0.00472665
0.000864161
0.00253892
0.00592875
0.00582122
0.0058256
0.0058002
0.00578319
0.000622993
0.00591655
0.00584548
0.0070547
0.00579424
0.00584827
0.00503044
0.000822967
0.00222029
0.00587559
0.0016588
0.00595918
0.00991184
0.00220173
0.00589626
0.00678546
0.0058629
0.00592862
0.00589625
0.00512961
0.00548061
0.00582955
0.00588026
0.00992087
0.00532486
0.00582786
0.0102937
0.00591844
0.00591623
0.0022148
0.00156267
0.00218217
0.000782431
0.00515511
0.00152423
0.0145235
0.00921142
0.00101826
0.0152393
0.00580554
0.00588189
0.00593332
0.00585296
0.00222204
0.0101303
0.0059786
0.00105526
0.00182178
0.00449734
0.000821133
0.00595184
0.00571891
0.00583433
0.00165093
0.00593889
0.00735652
0.00595472
0.00591558
0.00915226
0.00586811
0.00142468
0.00238233
0.000880427
0.00312255
0.00341979
0.00570363
0.0058492
0.00592759
0.00933564
0.00584949
0.00587335
0.00180652
0.00169175
0.00596322
0.00579625
0.00598419
0.00939348
0.00076946
0.005899
0.000869934
0.00582507
0.00582213
0.0050933
0.00606142
0.00449023
0.00217745
0.00584268
0.00595189
0.00394578
0.0108109
0.00227819
0.00584655
0.0112066
0.00580504
0.00295494
0.0131103
0.00571852
0.00593234
0.00579971
0.00815074
0.00603166
0.00132018
0.00342439
0.00548834
0.00563092
0.00146791
0.0063072
0.0105499
0.00115886
0.00226795
0.00235706
0.00179779
0.00595418
0.0110852
0.00582373
0.00225124
0.00975555
0.00117459
0.00203295
0.00584858
0.0112632
0.00371629
0.00570477
0.000852513
0.00588082
0.00594365
0.00595256
0.00273703
0.00585139
0.00998686
0.00589005
0.0058343
0.00593061
0.00579252
0.00591675
0.00585771
0.0111037
0.00595324
0.00135401
0.00583454
0.00370361
0.00593158
0.00589437
0.0106374
0.00596347
0.0059797
0.00230145
0.00584577
0.0107569
0.00420873
0.0119896
0.0177639
0.0092378
0.0058698
0.00579495
0.00618803
0.00213653
0.00579454
0.00583704
0.0109977
0.00584541
0.00594419
0.0019107
0.00223637
0.0059132
0.0058502
0.0096145
0.00591623
0.00593072
0.00587518
0.00594442
0.0102887
0.00595923
0.00593139
0.000908758
0.00592577
0.00582576
0.00585061
0.00604546
0.00600894
0.00582041
0.00838027
0.00302412
0.0103385
0.00582772
0.00582501
0.00583299
0.000801472
0.00314243
0.00583979
0.00101154
0.00586259
0.002155
0.00332844
0.00265264
0.00375676
0.00299123
0.00583595
0.00585231
0.0151652
0.00591015
0.00113898
0.00425384
0.00409323
0.0101891
0.00185786
0.00587633
0.00553164
0.00361844
0.00574099
0.00573169
0.00580402
0.00185107
0.00131382
0.00594586
0.00150245
0.0105723
0.00122719
0.00212729
0.002325
0.00837554
0.00246122
0.005813
0.00593872
0.00226837
0.0141926
0.00304901
0.000234072
0.00446799
0.00134978
0.00881463
0.000513023
0.00127021
0.00563039
0.011049
0.00080574
0.00589865
0.0023539
0.00178558
0.0049654
0.00587977
0.00296975
0.0055684
0.00579441
0.00224932
0.00457492
0.0106457
0.00587297
0.00147976
0.00584453
0.00104967
0.00217393
0.00585328
0.00257085
0.005783
0.00583551
0.0017434
0.00593858
0.00411174
0.00587479
0.00889475
0.00576329
0.0059562
0.00582915
0.00119589
0.00594723
0.000828552
0.00583306
0.00997832
0.005828
0.00593734
0.00172086
0.00588504
0.00586458
0.00582386
0.000726461
0.00386433
0.00609811
0.00464641
0.0056913
0.00583966
0.00257068
0.00593371
0.00582891
0.00215211
0.0070204
0.0010175
0.00870372
0.00582777
0.00563888
0.00593947
0.0011606
0.00572121
0.00242194
0.00213794
0.0128364
0.00592695
0.0110666
0.00595314
0.00596493
0.0058394
0.00492636
0.00209999
0.00533052
0.0057544
0.00590097
0.00712135
0.00141154
0.0102299
0.00254367
0.00228262
0.00579251
0.0186543
0.0059328
0.00583497
0.00084755
0.00586309
0.000922019
0.00583826
0.00588698
0.00238877
0.00574452
0.000888053
0.000869384
0.00655899
0.00593286
0.00579279
0.000764198
0.00593587
0.00197292
0.00287604
0.00507778
0.00944323
0.00596439
0.0108454
0.00075044
0.00594539
0.0086137
0.0019955
0.0053521
0.00244912
0.00285347
0.00151746
0.0009695
0.00608058
0.00307386
0.00247663
0.00255975
0.00579901
0.00133602
0.00598981
0.00783461
0.00591174
0.00732148
0.00587361
0.00595465
0.00591129
0.00585257
0.0101099
0.0058355
0.00584797
0.00242816
0.00595254
0.00260186
0.00293247
0.00588409
0.00380944
0.00587476
0.00175551
0.00584532
0.00593842
0.00593327
0.00189819
0.00583522
0.00143014
0.0028164
0.00580259
0.00596317
0.00590537
0.00110776
0.00589553
0.00585737
0.00579797
0.00587086
0.00251186
0.00584381
0.00591445
0.00816209
0.000980313
0.0022548
0.00587389
0.00587371
0.00573582
0.000842586
0.00598065
0.0041064
0.00584264
0.00585831
0.00523111
0.0057943
0.00584165
0.00264642
0.000692242
0.00579815
0.00579593
0.00121903
0.00257692
0.00135379
0.0058387
0.00591566
0.00622828
0.00594618
0.00595833
0.00582984
0.00226881
0.00884035
0.000858306
0.0106066
0.00429077
0.00583783
0.00583703
0.000444157
0.00596053
0.00197581
0.00250221
0.00241752
0.0010211
0.00584405
0.00585227
0.00554614
0.00592733
0.00592572
0.00175977
0.000947468
0.00593014
0.0022298
0.00592678
0.00591525
0.00593937
0.0059699
0.00768219
0.00584713
0.00557002
0.00539688
0.0059467
0.00214537
0.00535004
0.00302884
0.00600214
0.000854887
0.00582382
0.00587194
0.00584323
0.00245335
0.00558875
0.00180648
0.00596548
0.00591208
0.00190673
0.00077267
0.00599414
0.00593881
0.011728
0.00566951
0.00595048
0.0117695
0.00890037
0.00580542
0.00956778
0.00590336
0.00206138
0.000652304
0.00580139
0.00261604
0.00200417
0.00130907
0.00321709
0.000889748
0.0110201
0.00580326
0.00783225
0.00593283
0.00934441
0.00592913
0.0108797
0.00553327
0.00582538
0.00582139
0.00595179
0.00583611
0.00260677
0.00246575
0.0027495
0.00583751
0.00237995
0.00592302
0.00586275
0.00596039
0.00826001
0.00226912
0.00595544
0.00561569
0.0142158
0.00594405
0.00603844
0.0129184
0.0101503
0.00563034
0.00123893
0.00421023
0.0058226
0.0025689
0.00585221
0.00589927
0.00594946
0.00227656
0.00595438
0.00180768
0.00576506
0.00259497
0.00586639
0.00594826
0.00258377
0.00588355
0.00206238
0.00094194
0.00786492
0.011863
0.00594478
0.00590256
0.00591672
0.00111221
0.00229882
0.00589937
0.00580739
0.00606101
0.00158111
0.00585301
0.0116654
0.00583861
0.00583694
0.00581602
0.00555504
0.00131065
0.00309016
0.00153431
0.00194442
0.00578415
0.00576787
0.00278482
0.00590975
0.00096963
0.00591745
0.00596306
0.00593929
0.00593856
0.00596364
0.00590012
0.00242502
0.000511436
0.00607226
0.00590908
0.00246604
0.00104403
0.00183676
0.00607958
0.00113718
0.00141578
0.00703659
0.0164241
0.0101159
0.0058701
0.0059179
0.000810267
0.00592334
0.00201206
0.00590047
0.0103387
0.00578586
0.0120571
0.00591067
0.00582186
0.001993
0.00583869
0.00119583
0.0011712
0.00591371
0.00592929
0.00585413
0.00590673
0.0056165
0.00595204
0.0088211
0.00579675
0.00592183
0.00588037
0.00189798
0.00553786
0.00258965
0.0021724
0.00150293
0.00258688
0.00239319
0.00113689
0.00591643
0.00582144
0.00582637
0.00587313
0.00219295
0.00576046
0.00828588
0.00187661