/*--------------------------------*- C++ -*----------------------------------*\
| =========                 |                                                 |
| \\      /  F ield         | OpenFOAM: The Open Source CFD Toolbox           |
|  \\    /   O peration     | Version:  v2012                                 |
|   \\  /    A nd           | Website:  www.openfoam.com                      |
|    \\/     M anipulation  |                                                 |
\*---------------------------------------------------------------------------*/
FoamFile
{
    version     2.0;
    format      ascii;
    class       volScalarField;
    location    "200";
    object      p;
}
// * * * * * * * * * * * * * * * * * * * * * * * * * * * * * * * * * * * * * //

dimensions      [0 2 -2 0 0 0 0];


internalField   nonuniform List<scalar> 
37809
(
0.00213485
-0.0514154
-0.0408753
-0.0490092
0.00249269
0.00172829
0.00130856
-0.0405736
-0.0158463
-0.0282886
0.00506835
-0.0177823
0.00283866
-0.00126278
-0.0111017
-0.0286368
0.0018193
-0.0517071
-0.0173034
-0.01523
-0.0284128
-0.0431372
-0.0217653
0.000202983
-0.0449199
0.00025007
-0.0243872
-0.0470321
-0.0355898
0.0011388
0.00481103
-0.0450211
-0.012253
0.00626016
-0.0238589
-0.0122073
-0.0641689
-0.0605192
0.0150995
0.00229565
0.000148343
0.0194586
-0.0303797
-0.0267968
-0.0108711
-0.022142
-0.0230895
-0.00809369
-0.0211901
-0.0356837
-0.0469749
-0.00739863
0.00497072
0.00632633
-0.023868
0.00252805
-0.0475113
-0.0339676
-0.0465593
-0.0487724
-0.0216503
-0.0315272
-0.0489065
-0.0274779
0.00406586
-0.0107508
-0.0513971
-0.0415478
-0.0207349
0.00514103
0.00254266
0.000570115
-0.00580474
-0.0698509
0.000336579
0.00378493
-0.0353137
0.00193612
-0.0294754
-0.0113666
-0.0280122
-0.0536273
-0.0198968
0.00358015
0.0145196
-0.0411466
0.00255654
-0.0477661
-0.0201046
-0.0636859
0.000242792
-0.0506042
-0.0447621
0.000354681
-0.0314733
0.00200549
-0.0428499
0.00200598
2.54967e-05
-0.0455758
-0.000363115
-0.0476077
0.00214491
0.00401731
0.014263
-0.00408626
-0.0442048
0.00191496
-0.0615794
0.0342896
0.00234739
-0.0690779
-0.0604277
0.00227878
-0.0467602
-0.0624822
-0.0100067
0.000936467
0.0382335
-0.0248926
0.00844768
0.0040743
-0.042614
-0.0108793
0.00223885
0.00291277
0.00188265
-0.01506
0.00189818
0.00196593
-0.0393805
-0.0106039
0.00280357
0.00223644
0.00187985
-0.000966863
-0.0251754
0.00244844
-0.0443485
-0.0374798
-0.0171033
0.0219444
-0.000946191
-0.0232292
0.0019713
-0.00181402
-0.0166806
-0.00923424
0.00192169
0.00187039
-0.0580793
-0.0231763
-0.0111885
-0.0495866
0.00191463
0.00481952
0.00186889
-0.0371313
7.43093e-05
0.00154996
-0.0132585
-0.0411441
-0.0446699
-0.0268463
0.00193409
-0.0406845
-0.0134087
0.00696444
-0.0146728
-0.0231423
0.00172529
-0.0355339
-0.00160584
-0.0247927
-0.000654652
0.00222902
-0.0160346
0.000315993
-0.00828367
-0.000921204
0.00237857
0.0193936
0.00250922
0.00236688
-0.0120129
0.00207986
-0.0451581
-0.0013867
-0.0441789
-0.0443194
-0.0303365
-0.0555728
-0.0154367
-0.0349438
0.000965899
-0.0195286
-0.0194683
-0.0497892
0.0026964
-0.0482761
-0.0288247
-0.0286397
-0.000568465
0.00417698
-0.021536
-0.0102169
0.00155629
-0.0490633
0.00211671
-0.0574539
-0.00302784
-0.0342723
-0.0473331
-0.0349898
0.0018048
8.13239e-05
0.0398592
-0.060285
0.00214042
-0.0220499
-0.060989
-0.000363332
-0.0210704
-0.000826413
0.0017445
-0.0604903
-0.00093786
-0.0441755
0.00184453
-0.0634805
-0.0292286
-0.000191487
0.00167701
-0.000748108
0.00406948
-0.0250502
-0.0475202
-0.000794447
0.00187089
0.00204745
-0.0557282
0.000124724
0.0138604
-0.0423347
-0.0351801
-0.039936
-0.0691942
0.013249
-0.0444805
-0.040803
-0.0102353
-0.000936571
-0.032185
-0.0400676
-0.00437096
-0.0118267
-0.025414
-0.0126688
0.00250309
-0.0244464
0.00241312
0.00025335
0.00251434
-0.00735616
-0.0540968
-0.00652182
-0.0452764
-0.0353483
0.00193983
0.00141348
0.0021717
-0.0133743
0.00240231
0.00639702
-0.0234351
-0.0539996
-0.00844072
-0.0292608
0.00169262
-0.0416566
-0.0356739
-0.00965581
0.00354514
0.0444905
0.01937
-0.0125149
-0.0449735
-0.0320986
0.00110323
-0.0226779
-0.0141721
-0.00435229
0.00397775
-0.0467276
-0.0289225
0.0011081
-0.0472081
-0.0101028
-0.00989658
0.00937597
-0.0039177
0.00253199
-0.029455
-0.0360434
-0.0265143
-0.00605229
-0.0100698
0.00060876
-0.00851316
0.00741999
-0.00157889
-0.00628834
-0.0199006
0.004122
-0.0640665
0.00068071
0.0094355
0.00209272
0.0107411
0.00428094
-0.00133377
0.00384872
-0.0590878
-0.0629821
-0.0409154
0.00215894
-0.0550106
-0.0436489
-0.0138792
-0.00957951
-0.0184384
-0.0182212
-0.0630516
0.00184464
-0.0106735
0.00225569
-0.0236311
-0.0446378
-0.0427973
-0.00686595
-0.0454576
0.000633862
-0.0467294
-0.0479781
0.00212464
-0.00487885
-0.043651
-0.0599604
-0.0549329
-0.0345842
0.0045456
-0.00160136
-0.0211512
-0.0419865
-0.0577237
-0.00056629
0.00015737
-0.0458028
0.00102977
0.00237612
0.0018925
-0.00908859
-0.0270914
0.00190943
0.00210311
-0.0403477
0.0023845
-0.0499342
-0.0420999
0.00207917
0.00544788
0.00206998
-0.02668
0.0018595
-0.0427525
0.00237868
0.00239017
-0.00992632
0.00399514
-0.0449776
-0.0258042
0.000397984
0.0472154
-0.0686106
0.00910379
0.00208247
-0.0113286
0.0172322
0.0044016
-0.0442455
0.00188581
0.00536674
-0.0432128
-0.0206179
0.01142
0.00214551
0.00187659
0.00216442
-0.0463157
-0.00306608
0.00217377
-0.00307995
-0.0100979
-0.0456857
-0.000688063
-0.0413196
0.00529671
0.00112474
-0.0203699
0.0318836
-0.0266702
5.92899e-05
-0.0254402
-0.0262202
0.0174889
0.0019958
-0.00299219
-0.000342456
-0.0408132
-0.0522839
0.00253875
0.00206203
-0.0289814
0.0038702
-0.0108055
-0.0434822
-0.0257511
0.00181452
-0.0140748
0.00255327
0.00182546
-0.0441166
0.00740416
0.00714469
-0.010144
-0.00223636
0.000651758
-0.0472289
0.00248198
0.0380679
0.00247705
0.00526001
0.00234891
0.00192827
0.00208756
0.00181019
0.00248273
0.00214297
0.00125983
-0.00156816
-0.0176012
0.00289085
-0.0643916
-0.0092891
-0.00889402
-0.00459746
0.00128757
-0.00178434
-0.0122413
-0.0104615
-0.0559524
-0.00679647
0.00716343
0.00212166
0.00249534
0.00378405
0.00125806
0.00209779
-0.0420932
0.00473455
0.00904215
0.00125431
-0.060808
0.00523699
-0.0484663
-0.0173874
-0.0229619
-0.00981183
0.00369368
0.00234111
-0.0386087
-0.0117288
-0.0471446
-0.00289144
-0.00937316
0.00167391
-0.050265
-0.0216851
-0.00439489
-0.0593182
-0.0236368
-0.00461052
-0.0480701
0.00440166
0.00212846
-0.0133476
0.0013052
0.00172614
-0.0469832
-0.0621145
0.00175029
-0.0463796
0.00387525
0.00184213
0.00205717
0.00174786
0.00474586
-0.0417374
-0.0640242
0.00483953
0.00207243
-0.0496627
-0.012409
7.96603e-05
-0.0072573
-0.00295068
-0.0262847
0.00351211
0.0476932
0.00355211
-0.0596374
0.00173477
-0.0609407
0.0120159
0.00798683
-0.0252866
0.00769387
-0.0573805
-0.00426192
0.0071059
-0.0105139
0.000486342
-0.037962
0.00463838
-0.0237904
-0.0204595
-0.0306777
-0.0477945
0.00173305
-0.00430241
-0.00197303
-0.0396778
-0.0419264
0.00377695
-0.0447691
0.00492033
-0.00434224
-0.00675413
0.00557734
-0.0393193
-0.0453107
0.00507283
-0.00772972
0.00350022
-0.0388622
-0.0220376
0.00782396
-0.00198376
-0.013098
0.024512
-0.0430576
-0.00227684
0.00193215
-0.0454891
-0.0142714
0.000872493
0.00185287
0.0019681
-0.00657053
-0.0527477
-0.0421581
-0.00214948
-0.0437908
-0.0107191
-0.0167139
0.00257207
-0.0297854
-0.0277405
-0.0181859
0.00182893
0.00107072
-0.0102664
0.000179946
0.00231982
0.00951337
-0.0478486
0.00227415
-0.020899
0.00748398
0.00472486
-0.00192482
0.00186269
-0.0697148
0.00167375
-0.0597383
-0.033965
-0.0401528
0.00176916
0.00202153
-0.0599325
-0.0098237
0.00578599
0.00255843
0.00253831
-0.0326958
0.0159816
-0.0327625
-0.0225629
-0.00761054
0.00822448
-0.0433151
-0.0574676
-0.0263195
0.00381272
-0.00668806
-0.0481549
-0.0304653
0.0182569
0.00168302
-0.047141
-0.051647
0.0136364
-0.0259556
-0.00845888
-0.0509619
0.00184101
-0.0090414
0.0110207
-0.0139034
0.000993379
-0.0327184
0.0314966
0.00152897
-0.00827047
-0.0526808
-0.0374963
-0.0215616
-0.0089501
-0.0523659
-0.00707415
-0.0270879
-0.0431845
-0.00154707
-0.0354373
0.00198384
-0.0169316
0.00199502
-0.041572
0.00552958
-0.00786764
0.00453858
0.00259692
-0.0497129
-0.0259262
0.00442766
-0.0146929
0.00315942
-0.0259205
0.00189214
-0.0588309
-0.00770596
-0.0310418
-0.0140076
-0.00567286
0.000993173
-0.021488
-0.0581699
0.00126033
0.00190581
0.00194891
-0.00700157
-0.0372334
-0.0311466
-0.0522516
0.000931936
0.00182953
-0.046506
-0.00208559
0.00254293
0.00383519
0.00210576
-0.0514729
-0.0413249
0.002773
0.000119215
0.00138692
-0.000832899
-0.00705718
0.00310752
-0.0335528
-0.031249
-0.0300147
-0.000157225
0.00177429
-0.0476633
-0.0260699
-0.0148819
0.00138996
-0.00691941
0.00535396
-0.0264623
-0.0442764
-0.0496078
-0.0693412
-0.0404299
-0.0435806
0.00216665
-0.0324859
-0.0415571
0.0021182
-0.0140799
0.0337207
0.00176228
0.0024627
0.00171975
-0.0359358
-0.0268625
-0.000511333
0.00097099
-0.00553555
-0.000951645
-0.0169223
-0.009735
0.0047731
0.00403038
-0.000580508
0.0016388
0.00201269
0.0270573
-0.0542772
0.00821882
0.0031681
0.00260351
-0.0281265
0.00167734
-0.00275575
-0.00290164
-0.0539445
-0.0223416
-0.0584988
-0.0283136
-0.047113
-0.0146265
-0.0543412
0.0141787
0.000101436
0.0018814
-0.0531528
-0.00500367
0.00270158
-0.0410438
0.00205191
-0.0547846
0.00190678
0.0151459
-0.0102626
0.00244151
-0.0624846
0.01194
0.00447334
-0.00502732
0.0039538
0.00224937
-0.00972143
-0.0469589
-0.0117747
-0.00640712
-0.0110985
-0.0339535
-0.0236791
-0.029315
-0.0473077
-0.00399742
-0.042328
0.00271933
-0.0243555
0.00184916
-0.00975826
0.00246558
0.00854828
-0.0450069
0.00170871
0.00169761
-0.0431722
-0.0011356
0.00269109
-0.0441425
-0.00454297
-0.0586191
-0.0499388
-0.0406894
-0.0601182
-0.0408207
-0.0101055
-0.0463726
-0.0039059
-0.0362653
0.00544249
-0.00254329
0.000640639
0.0493529
-0.00716569
-0.00267928
-0.0511308
-0.0303634
-0.0190957
-0.043441
-0.0106735
0.00245482
0.00404075
-0.0275814
-0.00910635
0.00452208
0.00124097
0.00690616
-0.0106364
0.000308018
-0.000754416
0.0135266
0.00180283
-0.0475172
0.0126211
0.00230677
-0.00667923
0.00164093
-0.0483866
0.00189989
-0.00482117
0.00122562
-0.000683046
-0.0054117
-0.0216215
-0.00790704
-0.0145193
0.00182654
-0.0160106
-0.0263827
0.00536372
0.0035898
0.000142624
0.0139371
-0.000675957
-0.0264967
0.00191325
-0.0119125
-0.0583605
0.00174608
0.000110835
-0.0109445
-0.0251827
-0.0245006
0.000176625
0.00143037
-0.0146574
0.00103652
-0.043462
-0.0187033
-0.0388924
0.00188446
-0.0546134
-0.0145653
-0.00479634
-0.0435697
-0.00263794
-0.0152182
-0.0469849
-0.010366
3.62915e-05
-0.00251393
-0.0195566
3.78512e-05
-0.0543785
-0.008377
-0.0103695
0.00933827
-0.0595863
-0.0394506
0.00205065
-0.00692486
-0.0183824
-0.073494
0.0023136
0.00194747
-0.0221526
-0.0426365
-0.0183636
-0.0542658
-0.0633853
-0.0105362
-0.0598592
-0.0485615
-0.034955
-0.0641217
-0.0151699
0.00499374
-0.00176384
0.020438
-0.00962349
-0.0140205
-0.0108001
-0.0442289
0.00736007
0.00273978
-0.000955288
0.0033084
-0.0162819
0.000836137
-0.00413082
-0.011881
0.00227445
0.00267396
-0.0316659
-0.00211066
0.00213882
-0.0448109
-0.000585061
-0.0505827
0.00480621
-0.0237206
-0.0452463
0.00104316
-0.000516009
-0.0460111
-0.0452581
-0.0107874
-0.0237148
-0.0186588
-0.000879336
0.000136145
-0.0172512
-0.0496366
0.00230044
0.000373213
-0.00164282
0.0105385
-0.0102484
-0.0464566
-0.0405978
-0.0457934
0.00270935
-0.0176521
-0.0584059
-0.0485591
0.00168214
0.00192548
-0.0233059
0.00170568
0.00254198
-0.0151277
-0.0476321
0.000166878
-0.0296564
0.00787192
-0.015765
-0.0499154
0.00159144
-0.0446173
0.00190931
-0.0493719
-0.000921881
-0.046638
0.00253709
-0.0488662
-0.00723082
-0.00370365
-0.0413521
-0.0568408
-0.00994713
0.00189213
0.00163214
-0.0543091
-0.0302114
-0.0117536
-0.0401984
0.0051405
0.00222196
-0.0405438
0.00185381
-0.0335552
-0.0490978
-0.0353839
-0.021402
0.00125245
0.0168715
0.00486892
-0.0192865
-0.0440141
0.0101736
-0.02542
-0.0430986
-0.0444944
-0.0542361
-0.0399821
-0.0471305
-0.0599081
0.0416407
-0.0104113
0.00130415
-0.00777974
-0.0266809
0.00168586
-0.0565025
-0.00521638
0.00174258
0.0105023
-0.0352233
-0.0140421
0.00138976
0.0176343
-0.0134576
-0.00133986
-0.0196737
0.00200563
0.00193648
-0.0323307
-0.0523865
0.00616997
0.00192312
-0.00750058
0.00906099
-0.00996606
0.00204109
-0.0565266
-0.0386594
0.00397234
-0.025868
0.00204542
0.00184
-0.0475654
-0.00724257
-0.0196311
0.0108773
-0.0344828
-0.0306483
-0.0266967
0.00221471
0.000112887
-0.0331476
0.000946781
-0.0135911
0.000434835
0.00449645
-0.0445245
5.28495e-05
-0.0205483
-0.0457904
0.00102039
-0.0431493
-0.0215449
-0.00336555
-0.0347598
-0.00930007
0.000151946
-0.0227667
-0.0358841
-0.0454116
0.00472701
-0.0287414
-0.0193185
-0.0467897
-0.0463356
-0.00927052
-0.0195844
-0.00898182
0.00190416
-0.0468608
0.00117382
-0.0411721
-0.039104
-0.0173851
0.00541602
0.00440839
-0.0453428
-0.0164057
-0.00333966
-0.0442902
-0.0577973
-0.0522914
0.00343328
-0.0136472
-0.00611848
-0.0173378
-0.0159333
0.000108506
-0.0380692
-0.0288721
-0.0578888
0.00182789
-0.0622239
0.00219295
-0.0156324
0.00190952
0.00712838
-0.0466423
0.000825669
0.00452574
-0.0144035
-0.0232824
-0.0425606
-0.0495424
0.00219389
0.00257778
0.00185969
0.00219358
0.00250861
-0.0232051
-0.00492517
-0.0106051
-0.0429986
-0.0171722
-0.00433669
-0.0446753
0.00205067
0.00922015
-0.00356578
-0.0700461
0.00194036
-0.00894741
-0.0101182
0.000156368
-0.0335036
-0.00353849
-0.0451354
-0.00301869
0.000645339
0.00203378
0.00459062
-0.0433712
0.00229771
0.0104387
0.00192435
7.32042e-05
-0.016721
0.0113474
-0.0106021
0.00517995
-0.00689657
-0.00842318
0.0424213
0.00363561
-0.0240631
-0.0432368
-0.00622189
0.00208883
-0.0104996
-0.0119464
0.00209032
0.00135333
-0.00906339
-0.0488021
-0.00849216
-0.0464955
-0.0663477
-0.0415836
-0.0609951
0.00347772
-0.0565686
-0.0383082
0.00181128
-0.0441596
-0.000344167
-0.0190075
0.00349519
-0.055297
0.00178642
-0.0113242
-0.0150398
0.00269628
0.00166773
-0.0255667
0.00101626
-0.00633177
0.00164996
-0.00326162
0.00257786
0.000712102
-0.0584796
-0.035585
-0.0113071
0.00134724
-0.0276137
0.00246767
0.00125411
-0.0440561
0.00190052
-0.00729118
0.0083116
0.00189323
0.00191108
0.00208299
-0.0171403
-0.0301814
-0.000418653
-0.0503071
-0.00981904
-0.0441349
-0.0182431
0.00207088
-0.0462704
0.00661002
0.001916
0.00245504
0.00168753
0.00362446
0.00207141
-0.0112325
0.000728834
-0.0425688
0.00221916
-0.0314707
-0.0250555
0.00160682
0.00220652
0.000702279
-0.00768805
0.00181941
0.00115463
-0.0332916
0.00113292
-0.0442778
0.00258292
-0.0106417
-0.00297714
0.0158812
-0.00488663
0.0051329
0.00220813
-0.0071487
-0.0138501
0.00185509
0.00220773
0.00193711
-0.0235083
-0.0438566
0.00458688
0.000993604
0.00155707
-0.0333543
-0.0143622
-0.0393621
-0.0438782
-0.0307496
-0.00928202
-0.0438025
-0.0110536
-0.00404758
-0.00598642
-0.0456368
-0.036058
0.00204058
-0.0122754
-0.0179174
-0.0225596
-0.0170847
0.00193429
-0.0432787
0.00186668
-0.0482297
-0.00101391
5.72377e-05
-0.0171674
-0.00254707
0.00152534
0.00203854
8.7424e-05
-0.0560892
-0.00231152
0.00271983
0.00154194
0.00177794
-0.038571
-0.00378359
-0.0115503
0.00173278
-0.0038895
-0.00768044
-0.048924
-0.000406826
0.00440464
-0.0483325
0.00158523
0.00127777
-0.0193856
-0.0350394
-0.0307894
0.00134372
0.00243696
0.00105415
-0.0410948
-0.0148512
-0.00347948
-0.00959213
-0.0452103
-0.0109679
0.0302103
0.0016191
-0.0121418
-0.0381707
-0.00918142
0.00356216
-0.0343139
0.00157286
-0.00374919
0.0015757
-0.0122265
0.00196903
0.000219495
0.0035511
0.00165724
8.96903e-05
-0.011642
-0.0155187
0.00155012
-0.0682607
0.00196124
0.00152282
0.0012096
-0.0414124
0.00233668
-0.0508538
0.00596193
-0.0189578
-0.0406065
-0.0444487
0.00148733
-0.0443882
0.00121206
-0.00557599
-0.00618235
0.00244272
-0.0389062
-0.0535461
-0.00831129
-0.00112132
0.00150624
0.00170125
-0.00733864
0.00210309
0.00150491
-0.0488835
-0.0555945
-0.0439726
-0.00240444
-0.0214822
0.00723442
-0.0531127
0.00147028
0.00458249
-0.0479047
-0.00176498
-0.00999588
-0.00764851
-0.04874
-0.0179538
0.00822329
-0.049618
-0.00114963
-5.95535e-05
0.00351089
0.00202536
0.00190797
-0.0380889
0.00166477
-0.0113628
-0.0805917
-0.0570347
-0.0503076
-0.0462477
-0.00960334
-0.0407951
-0.0148387
-0.0115482
0.00164575
-0.0313843
0.00382021
-0.0127552
-0.0184491
0.000358147
0.000436622
0.00083612
0.00398124
0.00029599
-0.020399
0.00507209
-0.0113735
-0.0376673
-0.00109733
-0.0671848
0.0174422
-0.0114119
-0.00413185
0.00192122
-0.0428833
-0.00136173
0.000182775
-0.00504522
-0.0451976
-0.0227991
-0.0619012
-0.00728662
-0.0668298
0.00167251
-0.0145089
-0.00328255
0.00860514
-0.0241274
-0.0584018
-0.0447907
0.0022614
-0.00214642
-0.0476281
-0.0519513
-0.0088855
-0.0191011
0.00161843
-0.0353378
0.00324318
-0.00307982
-0.0552265
-0.00320435
-0.0675088
-0.0467998
-0.0436589
-0.0266513
-0.0177503
0.0055334
-0.0332244
-0.00629663
-0.0476951
-0.0029752
0.00176551
0.0120943
0.00105648
0.00187318
-0.0509677
0.0020118
-0.0430822
0.00310862
-0.00738574
-0.0438041
-0.0442061
0.0036395
-0.0434948
0.00019814
0.00129907
-0.0554533
0.00131824
-0.0440872
-0.0475779
-0.0596848
-0.0617405
-0.0139823
-0.0469337
-0.0110445
-0.00668637
-0.0160342
0.00266786
-0.0594204
-0.0408629
-0.0176278
-0.0398548
-0.00380771
-0.0432456
-0.0120374
0.000340801
0.00210278
-0.0109572
0.000718826
0.000551952
-0.0171534
-0.0463676
0.00255875
-0.037657
-0.00281854
-0.00192741
-0.0464289
-0.000396289
-0.0540791
-0.0120564
-0.0298121
-0.0461831
-0.00709618
0.00182233
-0.0106495
-0.0205797
0.0107331
-0.00790951
0.00182984
0.0320576
-0.0118475
0.00425606
-0.0261974
0.00198452
-0.0177546
0.00180416
-0.00193368
-0.0140717
0.00591454
-0.0444181
-0.0442047
-0.0135762
-0.0342518
-0.0382135
0.00218927
-0.00724331
-0.00967755
-0.00405837
-0.0612876
-0.0486283
0.000280066
0.00248944
-0.0456619
0.00414043
0.00190802
-0.0527023
-0.0395592
0.00180076
0.00218083
-0.0115445
0.0016267
0.00430763
-0.000999106
0.0218905
-0.0356391
0.0022696
0.00194239
0.00199293
0.0029386
-0.0104787
-0.0020637
-0.0437683
0.0018554
-0.014283
0.00175183
-0.0467288
0.00345121
-0.0180875
-0.0057962
0.00404157
-0.0111785
-0.0276806
0.0077406
0.00189084
-0.0681147
-0.0460167
0.00181494
-0.0458546
-0.05576
-0.0647198
0.00115918
-0.00771124
-0.0304633
-0.0570139
-0.0567599
-0.0172032
-0.0464069
-0.0108743
-0.0247169
-0.0463799
-0.0399258
-0.0335156
-0.0634952
-0.0576236
0.00192457
-0.00368003
-0.0125678
0.0294566
-0.032702
0.00172089
0.00220973
-0.0363046
0.00239091
-0.0691586
0.00561436
0.0018214
-0.0548762
0.00200518
-0.0256271
0.0174888
0.00637081
-0.0403162
0.00335428
0.00168917
-0.0655058
0.00364071
0.000774084
-0.0156631
0.0021507
-0.0359238
0.00144298
0.00178927
-0.0158516
0.00183311
-0.0511541
0.00181198
-0.0171665
-0.043269
-0.0263055
-0.0450878
0.00385185
-0.0182162
-0.0274565
-0.0467735
-0.0420945
0.00249088
-0.0488241
-0.0346192
-0.0104934
0.00237906
-0.0036398
0.00193448
-0.051559
-0.0103898
-0.0106033
0.00707698
-0.0669051
-0.0292211
-0.00214651
-0.0461329
-7.03911e-05
0.000235683
-0.0123281
0.00450879
-0.0424912
-0.00459335
-0.0090995
-0.00252626
-7.45018e-06
0.00205306
0.00206172
-0.0444325
-0.0502017
-0.0570609
-0.0399004
0.00212779
-0.00651422
-0.0419319
-0.0300564
-0.0447422
0.00405966
-0.00254676
0.00609873
0.00130175
-0.0068301
-0.0660548
-0.0468299
-0.009404
-0.0125751
0.00172311
-0.000724753
-0.0149734
-0.00592371
-0.0508129
0.00563996
-0.0144583
-0.00396274
0.000372104
-0.0488701
0.00125636
-0.0571482
-0.00911791
-0.0639999
0.00194676
0.00147726
0.00215481
-0.0494604
0.00213841
-0.0130345
-0.0450069
-0.0116075
-0.0466714
0.000667821
0.00599187
-0.0171499
-0.0326098
-0.000710557
0.00295886
0.00374019
0.00543782
0.00536007
-0.001512
-0.0180105
0.0019504
0.00165112
-0.000470349
-0.0512364
-0.0493987
-0.016502
-0.0423463
-0.0407576
0.00145574
-0.0560482
-0.0383552
-0.00172073
0.00271565
0.001977
-0.00809746
-0.0413969
0.00845114
-0.0662865
-0.0425612
-0.0460032
-0.0108346
-0.0465562
-0.025848
0.00198045
-0.0141671
-0.0335121
-0.0109111
0.00233067
-0.0093933
0.0014073
-0.0101726
0.00104138
0.00181673
-0.00657901
-0.0380979
0.00032243
-0.0122118
-0.010864
-0.020721
0.00182476
0.00248627
0.00221977
-0.0588623
0.00176426
-0.0281612
-0.0157059
0.00109018
-0.0222045
0.00868514
0.00163499
-0.0272706
0.00399945
-0.0124793
-0.0106692
0.0019889
0.00575797
0.000548346
-0.00852691
-0.0495313
-0.0134003
-0.000343871
-0.046432
0.00247412
0.00960357
0.000117586
0.00178307
-0.0424116
-0.0151546
-0.048926
-0.0433603
-0.0568019
0.00182112
0.00364791
0.00182884
-0.0684989
0.0018157
-0.0234506
0.00205589
0.00849605
-0.0618215
-0.00513634
-0.0223259
-0.000632001
0.00170662
-0.0120619
-0.00554164
-0.0196941
0.00013394
0.00365502
-0.0665459
0.0125781
-0.00966049
0.00155247
-0.0354668
-0.0075982
-0.0528593
0.00249234
0.00223142
0.00210247
0.0014957
-0.0456507
-0.0368961
-0.000717184
-0.0121049
-0.0176435
0.00187065
-0.0474264
0.0155934
-0.0338456
-0.00212195
-0.0132689
-0.0593092
-0.0191559
-0.0671896
0.00190538
0.00741952
-0.0483207
-0.0139465
-0.0121166
-0.0132634
0.0036152
0.000916688
0.00495359
0.0011009
-0.00489368
-0.0485594
0.000488479
-0.0614309
-0.0560698
-0.00448274
-0.00533344
-0.0327759
0.00544832
-0.0164233
0.0093638
0.00146093
0.00187344
-0.0107743
0.00674034
-0.0108755
-0.0286466
-0.0293609
-0.0202056
-0.0324676
-0.00583663
-0.0548316
0.00196647
-0.00533133
-0.0156434
0.00338731
0.00202937
0.000892321
-0.0276247
-0.0108198
-0.0434696
-0.007731
-0.00602752
0.00190442
0.00324019
-0.00332773
-0.0108377
-0.00166226
-0.0302894
-0.0429052
-0.00239643
0.00376498
0.00337393
0.00181322
-0.0359374
0.0016632
-0.00593869
-0.020842
-0.0062306
0.0115009
-0.0468669
-0.0444305
-0.00222108
-0.0206859
0.0019943
-0.0276281
-0.0454014
-0.0428468
-0.0437943
0.0339072
-0.00848747
-0.0503367
-0.0498181
0.0014271
0.000478595
-0.0543339
0.0197039
0.03628
-0.00388798
0.00127903
0.00130598
-0.00579112
-0.0311788
-0.0447101
-0.035915
0.00948517
0.00200276
0.00500178
0.00213059
-0.0353662
0.00162552
-0.0651541
-9.00687e-05
0.00213604
0.00212284
-0.046733
-0.0544148
-0.0217107
0.00449035
-0.0527048
0.00840396
-0.011403
-0.00573325
0.0018079
-0.0119455
-0.0143415
-0.0603017
0.0260571
-0.0343587
0.00773017
-0.0125868
-0.0647906
0.00272232
0.00303987
-0.0113812
-0.00546157
0.0227023
-0.0116475
-0.0477654
-0.0264326
0.00226557
0.000919838
6.83636e-05
0.00329984
0.00212126
-0.0417536
-0.0107591
-0.0192334
-0.00822896
-0.00883791
-0.0113492
-0.045756
-0.0329207
-0.000143075
-0.0657788
-0.00848675
-0.0211445
-0.0125084
0.000834316
-0.00789875
-0.0431229
0.00170337
0.00147753
-0.011424
0.00210007
-0.0112558
-0.00449265
0.00207738
0.00360505
-0.0303217
0.0019444
-0.0271802
0.00196533
7.60767e-05
-0.00380782
-0.00375707
-0.00436482
-0.0416614
0.00111573
-0.031997
0.00268047
0.00145433
0.00247319
-0.0465247
-0.0564876
0.00638104
-0.00924152
-0.00626964
-0.00692891
-0.0261918
0.00180512
0.00524095
-0.00211448
-0.0058222
-0.0380486
0.00358359
-0.0128882
-0.0406871
-0.0351548
-0.00581962
0.00225267
-0.044698
-0.0640977
-0.015857
-0.0529062
0.00182406
1.33443e-05
-0.0394089
-0.0319073
0.000165891
-0.0800327
-0.0469643
-0.047338
-0.0135969
0.00275394
0.00152138
-0.0430672
-0.0585832
-0.0413843
0.00609127
0.00179912
0.00205541
-0.0541365
-0.0155466
0.00270404
-0.0123712
-0.00465713
0.00462335
0.00221674
-0.0133996
0.00196973
0.00163145
0.00154815
0.00576659
0.00226975
0.00491954
0.000328416
0.00868624
-0.00465573
-0.0207704
0.000907903
0.000927054
0.00373701
-0.0108235
0.00172182
-0.0147702
-0.0145551
0.00348586
0.00574155
0.000454599
0.00225691
-0.0608217
0.0111677
0.00207748
-0.0450231
0.0030368
-0.0290601
-0.00717548
0.00220184
-0.0138465
-0.0274074
0.00214267
-0.0430104
-0.0110136
0.00207031
-0.0511576
-0.0176057
0.00356225
0.00359649
-0.00279414
0.00140008
-0.0339128
0.00192041
-0.0441376
0.00189943
0.00212486
-0.0150601
0.0109288
-0.0202037
-0.00553892
0.00211984
0.00185908
-0.0474106
-0.0399968
-0.00750486
0.0105253
-0.0204045
0.00226007
0.00198023
-0.0117152
0.00192263
-0.00647028
-0.0533636
0.00126219
-0.0064726
-0.0177883
0.00362248
-0.00620779
-0.0099307
-0.046418
-0.0179503
-0.0151537
-0.0179386
-0.0130435
-0.0445862
0.00289137
0.00320418
-0.0425675
-0.0171638
0.0021965
0.00275068
-0.00552763
0.00565361
0.0021002
0.00272941
-0.0441869
-0.00579246
-0.0121615
-0.00535636
-0.00995496
0.00202897
-0.0452367
-0.015283
-0.0516501
-0.0554708
0.00155516
-0.0451084
-0.0214964
-0.0432764
-0.0454704
-0.0290126
0.000125012
0.00277691
0.00221495
-0.00121936
-0.0282248
-0.0448228
0.00192463
-0.0461449
0.0457271
-0.0434502
-0.0443635
-0.000684145
-0.00940586
-0.0130006
0.00658214
-0.0228315
-0.0106406
-0.000160466
0.00217653
-0.0481274
-0.00926124
-0.0465501
-0.000753418
-0.0524923
-0.0345771
-0.0431174
0.00401856
0.00188535
0.00220306
-0.0050921
-0.0138264
-0.00940435
0.0413151
-0.063466
-0.000248454
-0.00848123
0.00194688
-0.00422349
-0.0245387
-0.0137089
-0.0595185
-0.00783914
0.00189014
-0.006995
-0.000403752
0.00187055
0.00387006
-0.00324116
0.00189496
-0.0293224
-0.00870109
-0.0367855
-0.0145009
-0.0147594
0.00180076
-0.0285791
-0.00865265
-0.00224204
0.0029745
0.00191045
-0.0467642
0.00194304
-0.0145243
-0.0271483
0.00485791
0.000206805
-0.0362077
0.00348386
-0.0381093
-0.0594791
-0.0332637
-0.0340233
-0.0440107
0.000264317
-0.00630247
0.00166109
-0.0487642
-0.0481034
-0.0580243
0.00482424
0.00206917
-0.0461443
-0.0277045
0.00404424
-0.0526779
0.0033061
-0.00433115
-8.84614e-05
0.00750633
-0.0012052
-0.00880243
0.00116662
-0.0130216
0.00226339
0.00133107
0.00205
-0.0118301
-0.0436255
0.00276474
-0.00768495
0.0014744
-0.020735
0.00210687
0.00119744
-0.0071816
-8.10518e-05
-0.0112684
0.00529476
0.00251726
-0.0450416
-0.0290959
-0.0565401
0.0159073
-0.00725061
-0.0094415
0.0014052
0.00317264
0.00365277
0.0012789
0.00190861
-0.0110039
-0.00663552
-0.0155163
-0.0450681
-0.0376997
-0.0189015
-0.00564096
-0.011673
0.00187103
0.0021289
-0.00958251
-0.0215005
-0.0199254
-0.0104335
0.00208714
-0.0528544
0.00267414
-0.00812446
0.00204456
-0.0089114
0.00115245
0.000298386
-0.0743254
0.00431951
-0.0122302
-0.00321163
-0.00801462
-0.00995819
-0.0216258
0.00438952
2.36905e-05
-0.0455404
-0.0104803
-0.034004
0.00222377
-0.0409271
-0.0218163
-0.0336259
0.00191758
-0.0124849
0.042701
0.00313831
-0.0460876
-0.0269024
0.00446907
0.00083424
-0.0238911
0.000122333
0.00474761
-0.0201752
0.00350664
-0.00511769
0.000312042
-0.0437054
-0.0107761
-0.0141681
-0.0254131
-0.042265
0.00895829
0.0123506
-0.0395257
-0.0434315
-0.0202149
0.00151452
0.00243194
-0.00589975
-0.0243015
-0.00713737
-0.063394
-0.0228947
-0.0565974
-0.0494763
-0.0487491
-0.0453426
-0.0251579
-0.0429448
-0.0379772
0.00190902
-0.0444327
-0.0229486
-0.00407318
-0.00931879
-0.0259731
0.00241123
0.00137452
-0.0383638
0.00432133
-0.0430391
-0.000111713
-0.0229871
0.00186438
-0.0516405
0.00322206
-0.0128513
0.00799518
0.00354494
0.0040411
-0.0626299
0.00243527
-0.0117818
-0.00354915
-0.044194
0.00059697
0.000221895
-0.00233614
-0.046421
0.000617429
-0.0495723
-0.00985525
-0.0464052
0.00170377
0.000800457
0.0179696
0.00252836
-0.0106652
-0.00362231
-0.0507694
0.0049414
0.00274556
-0.0221547
-0.0421356
0.00208417
-0.0281514
-0.00830934
-0.00247181
-0.0499709
0.0037982
0.0129597
-0.0532206
0.0017194
-0.0100066
0.00195158
-0.0460843
0.00385888
-0.0398662
-0.0338693
0.0030233
0.00242742
-0.0440287
0.00274325
-0.00606004
-0.0136676
-0.021033
-0.0522547
-0.0261916
0.00372902
0.00193448
-0.0743129
-0.0568718
-0.0657092
-0.0268579
-0.0340598
-0.00595927
0.0382605
0.0022041
0.00164636
-0.0281197
0.00205326
-0.0510928
-0.0135225
0.0026469
0.0012794
-0.00737053
-0.0348534
-0.0124054
-0.0609661
0.0022705
0.00140302
-0.0338054
0.0022936
-0.0168761
0.00839944
0.00208886
-0.0759714
-0.0032475
-0.0404226
-0.0142023
0.00250596
-0.0433226
0.00361754
-0.00673542
-0.0455678
-0.0499344
-0.0450265
-0.0466072
-0.00557752
-0.00357772
-0.0529725
-0.0344067
0.00183696
-0.0461503
0.00191781
-0.00398258
-0.0193801
-0.00172942
0.00202908
-0.0141744
0.00314866
-0.0123832
-0.0586366
-0.0111315
-0.00639289
-0.0496839
0.00271481
-0.0288759
-0.0385565
0.0020785
0.00849926
0.0020722
-0.0199042
-0.013802
0.00228188
0.00168379
-0.0578353
-0.01275
-0.0364272
0.00607963
0.00181375
-0.00777167
0.00184171
-0.0473676
-0.0120714
0.00198612
0.00183206
0.00197534
0.00815892
0.00176181
0.002241
-0.00467774
-0.0452809
-0.0382592
0.00179464
0.00209963
0.00371554
0.0039372
0.00191927
0.00821631
-0.00105939
-0.0135202
-0.0131893
0.000291092
-0.0117249
-0.0404819
-0.0641068
0.00183901
0.00142401
-0.052205
-0.0395045
-0.0220463
-0.00713879
-0.00892433
0.00315253
0.00257469
-0.00856986
0.00179259
-0.0345862
-0.052454
-0.0255143
-0.0362111
-0.0114408
-0.0135583
-0.0134429
0.0486036
0.000208077
0.0173617
0.00726038
-0.0410068
-0.024305
-0.010994
0.00204864
0.00474403
0.00241566
0.00208463
-0.0176894
-0.0452465
0.00223248
-0.0334774
0.00207615
0.0027033
-0.0227924
0.00174491
0.00800298
-0.0106554
0.00262949
0.00172115
0.00229662
-0.037878
-0.0176184
0.00810994
0.00154857
-0.063778
-0.00249104
-0.00654745
0.00172917
-0.0124352
0.00530871
-0.0329463
-0.00581454
0.000137574
-0.0577792
-0.0375177
0.00181668
-0.0229654
-0.020738
-0.0106366
-0.0186642
-0.0108485
-0.0420201
0.00354982
-0.0549635
0.00272944
0.00304128
-0.0570147
0.00179298
-0.0390981
0.00566596
-0.0362
-0.0337998
-0.0585516
-0.0443355
0.00195641
-0.00185953
-0.0123647
-0.0443301
0.00200629
-0.0442757
0.00553828
-0.00176215
0.00206582
-0.00507418
-0.0114348
-0.0270403
-0.0407122
0.00854361
-0.00147536
-0.0198505
-0.00943656
0.00160077
-0.00287025
-0.0642578
-0.00285872
-0.0524326
0.0040012
0.0110139
0.00187527
-0.00733622
-0.00745997
-0.0371472
-0.0220641
-0.0549352
0.00374085
0.00207174
-0.0411175
0.00209073
0.00349872
-0.0190077
-0.0414227
0.00226565
-0.0558168
0.00394592
0.00154334
0.00161718
0.0028144
-0.0344525
-0.00927359
-0.0306769
-0.0508547
-0.00131022
-0.0567281
0.00229871
-0.00204594
0.00311088
-0.0513244
-0.0445142
-0.00202285
0.00348611
0.00205024
-0.0441802
-0.0107435
-0.0517854
-0.0116444
-0.0135572
0.00142907
0.00472284
-0.0544436
-0.0439543
-0.0463934
-0.0550514
-0.000697863
0.0036929
-0.0092095
-0.019152
-0.0252612
-0.0101716
0.00203646
0.00168356
0.00205528
-0.00438021
-0.0120357
-0.0435687
-0.0444256
0.00208366
0.00177119
-0.0425412
-0.0452797