/*--------------------------------*- C++ -*----------------------------------*\
| =========                 |                                                 |
| \\      /  F ield         | OpenFOAM: The Open Source CFD Toolbox           |
|  \\    /   O peration     | Version:  v2012                                 |
|   \\  /    A nd           | Website:  www.openfoam.com                      |
|    \\/     M anipulation  |                                                 |
\*---------------------------------------------------------------------------*/
FoamFile
{
    version     2.0;
    format      ascii;
    class       volVectorField;
    location    "200";
    object      U_0;
}
// * * * * * * * * * * * * * * * * * * * * * * * * * * * * * * * * * * * * * //

dimensions      [0 1 -1 0 0 0 0];


internalField   nonuniform List<vector> 
37809
(
(1.00736 -8.84427e-05 0)
(1.07537 0.0549149 -6.88457e-21)
(1.06166 0.0227401 -4.00159e-21)
(1.07284 0.0722512 -7.36014e-21)
(1.01036 0.000747181 0)
(1.00059 -3.03687e-05 -3.66617e-22)
(1.00251 -0.000100523 1.93705e-22)
(0.720908 0.0186892 5.15277e-21)
(1.03207 0.0160806 -2.50604e-21)
(1.04964 0.0432994 -4.35864e-21)
(1.01138 0.01038 0)
(1.03758 0.0314631 0)
(1.01166 0.00273024 4.06243e-22)
(1.02101 0.0217721 1.15713e-22)
(1.02851 0.0190465 -1.87812e-21)
(1.04735 0.0188228 2.02231e-21)
(1.00203 3.54807e-05 1.89802e-22)
(0.841049 0.0744579 -4.80434e-21)
(1.03706 0.0313549 0)
(1.02801 0.00796963 0)
(1.04711 0.0191075 -2.48596e-21)
(0.79819 0.0406954 6.01167e-21)
(0.966112 -0.0600774 5.23822e-21)
(1.01887 0.000729159 -1.50753e-25)
(0.420547 0.025002 2.19866e-21)
(1.00211 0.000110321 1.19024e-23)
(1.04436 0.0304512 5.10169e-21)
(0.568117 0.0328423 0)
(1.05744 0.0385133 0)
(1.00475 -0.000220826 2.23233e-22)
(1.01245 0.0119679 1.29642e-21)
(0.512398 0.0393046 -5.81559e-21)
(1.02067 0.000178661 1.44779e-21)
(1.05519 -0.0092509 0)
(1.04392 0.0317072 -1.24439e-21)
(1.02061 7.26161e-05 0)
(1.08804 0.0572666 0)
(1.08703 0.0855462 -9.79851e-21)
(0.829715 0.0182144 0)
(1.01017 -0.000146529 0)
(1.01052 -0.00158583 5.02013e-23)
(0.952016 0.0812522 -9.65605e-22)
(1.04922 0.0182702 -4.50398e-21)
(1.04792 0.0451954 1.7738e-21)
(1.0186 0.000678574 3.6448e-21)
(1.0423 0.0336122 -4.85869e-21)
(1.04052 0.0169569 0)
(1.02726 0.0224091 8.65221e-22)
(1.0395 0.0216564 0)
(1.0627 0.07402 -4.16323e-21)
(0.548031 0.0323439 -7.08801e-21)
(0.866846 -0.215059 2.57828e-21)
(1.06504 -0.00665962 -5.28981e-22)
(1.05231 -0.00691702 0)
(1.04386 0.031222 5.42936e-21)
(1.01077 0.000690658 -2.19358e-22)
(1.07194 0.0585263 7.54407e-21)
(1.05428 0.0254966 -3.03425e-21)
(1.06997 0.0581974 0)
(0.571293 0.032087 5.17754e-21)
(1.04174 0.0335972 4.47322e-21)
(1.05299 0.0398363 7.98143e-23)
(1.07185 0.0714201 7.79445e-21)
(1.04871 0.0450345 -1.78977e-21)
(1.01466 0.00955514 -3.92767e-22)
(1.02816 0.0190566 -1.12533e-21)
(1.07535 0.0544771 0)
(0.41535 0.0119082 0)
(1.04091 0.0429996 -1.40546e-21)
(1.0055 0.042622 8.14802e-22)
(1.01089 0.000696822 -1.81742e-22)
(1.00381 0.000204519 8.59306e-23)
(0.864541 -0.20955 -1.53432e-21)
(1.09451 0.0691606 0)
(1.0028 -6.77785e-05 -1.71549e-23)
(0.984338 0.0217915 -2.43847e-22)
(1.06199 0.0732743 -7.31429e-21)
(1.00451 -3.73302e-05 0)
(1.04797 0.0171516 -2.14424e-21)
(1.01744 0.00030935 1.22549e-21)
(1.04936 0.0456828 3.71895e-21)
(0.873558 0.0757475 0)
(1.03347 0.00458736 0)
(1.06539 0.000248348 0)
(0.958578 0.0106385 -3.90805e-21)
(0.403078 0.00926887 -3.52071e-21)
(1.01262 0.00687432 1.89396e-22)
(0.553615 0.0323912 4.77641e-21)
(1.04012 0.0430853 2.07146e-21)
(1.08751 0.0575041 3.33582e-21)
(1.00099 2.80279e-05 0)
(0.544671 0.0278075 -3.75365e-22)
(1.06665 0.0315388 0)
(1.00241 -4.18388e-05 0)
(1.05285 0.039243 0)
(1.00707 -0.000304703 1.92477e-22)
(0.738787 0.0531651 0)
(1.00696 -0.00031475 0)
(1.00713 -0.000570173 0)
(0.411368 0.0231219 0)
(1.00522 0.000367645 -5.35333e-23)
(1.07188 0.0586636 -1.28985e-20)
(1.00742 -9.49896e-05 1.26765e-22)
(1.01433 0.0093557 7.79484e-22)
(0.963418 0.0105654 -2.38357e-22)
(1.02083 0.0168002 0)
(0.818988 0.0421996 -5.8448e-21)
(1.00175 -4.00333e-05 0)
(0.796466 0.0208548 -1.48171e-20)
(0.766316 -0.0866132 -3.16271e-21)
(1.01092 0.00299344 -7.59555e-23)
(1.09366 0.0689684 0)
(0.794181 0.0756505 6.10501e-21)
(1.01026 -0.000125867 0)
(0.557733 0.0287442 -2.86754e-21)
(0.828049 0.077481 5.59173e-21)
(1.02715 0.0184025 -3.32052e-21)
(1.00736 0.00176402 0)
(0.965444 -0.0548828 0)
(1.04028 0.00534039 1.09857e-21)
(0.979066 0.0785695 3.39431e-22)
(1.02789 0.0311036 0)
(0.707422 0.0332931 -8.75285e-21)
(1.01863 0.000775689 -2.94311e-21)
(1.01033 -0.000117788 -2.25664e-22)
(0.998012 0.0262803 7.92988e-25)
(1.00487 -0.000160624 2.06338e-22)
(1.0334 0.0222595 1.70785e-21)
(1.00635 -0.000385726 0)
(1.00666 -0.000349164 0)
(1.0599 0.0227958 -3.91608e-21)
(1.02784 0.0187184 8.02983e-22)
(1.01148 0.00265118 2.53386e-22)
(1.01027 -9.33848e-05 2.32117e-22)
(1.00478 -0.000148124 4.09276e-22)
(1.0102 0.00401134 1.56916e-22)
(1.04605 0.0471525 4.55856e-21)
(0.997935 0.030732 0)
(0.384348 0.0195355 0)
(1.05703 0.0160577 0)
(1.03687 0.0319919 0)
(0.947875 0.0752185 -3.35285e-21)
(1.02096 0.0221544 1.65753e-22)
(1.03832 0.00665842 8.31197e-21)
(1.00679 -0.000337761 -2.48941e-22)
(1.0097 0.00284805 -1.23282e-22)
(1.03643 0.0319209 0)
(1.02819 0.0224448 0)
(1.00639 -0.000364634 -6.517e-22)
(1.00474 -0.000150674 -4.11386e-22)
(1.07854 0.0791164 3.66751e-23)
(1.03828 0.00695065 -3.7651e-21)
(1.01782 0.000353743 1.67746e-21)
(1.0718 0.0619548 0)
(1.00645 -0.000386067 1.12326e-22)
(1.01198 0.0113391 -7.64913e-22)
(1.00466 -0.000138314 4.04273e-22)
(0.683318 0.174148 4.3689e-21)
(1.00697 -0.000545521 -8.10389e-24)
(1.002 -6.5433e-05 0)
(1.02243 0.00038029 0)
(0.538013 0.0265814 4.31086e-21)
(0.496422 0.036745 1.78203e-22)
(1.04428 0.0138078 1.74698e-21)
(1.0065 -0.000361253 2.84134e-22)
(1.065 0.0532644 4.30628e-21)
(1.02267 0.000303027 0)
(0.979975 0.0972822 -2.84464e-22)
(1.03302 0.0222799 1.62211e-21)
(0.942099 -0.0809168 -3.57501e-22)
(1.00086 -5.79347e-05 3.43861e-22)
(1.06254 0.0765089 4.1968e-21)
(1.01672 0.0125925 -3.08068e-22)
(1.0402 0.00578071 1.22499e-21)
(1.02056 0.0220916 -2.6555e-22)
(1.0102 -0.000154154 -3.0398e-23)
(1.03243 0.0163574 3.13481e-21)
(1.01308 0.00724114 -4.01118e-23)
(1.02482 0.0472494 0)
(1.01009 0.00391232 3.42874e-23)
(1.01272 0.000469773 1.82562e-22)
(0.94908 0.0881927 2.17805e-21)
(1.01055 0.000756013 3.14753e-22)
(1.01264 0.000495992 1.66248e-22)
(1.0226 0.00581068 -2.62867e-21)
(1.00755 -0.00017249 2.25632e-22)
(0.55272 0.0299575 -6.09898e-21)
(1.01653 0.0124993 1.51619e-22)
(0.389118 0.0212002 -8.5308e-22)
(1.07012 0.0576569 1.64395e-20)
(0.954637 0.09532 4.34129e-21)
(1.07888 0.0597796 1.04309e-20)
(1.02837 0.00807504 0)
(1.06129 0.101551 5.87305e-21)
(1.00212 -5.64623e-05 -2.01817e-22)
(1.03299 0.0049697 0)
(1.03295 0.00527363 0)
(1.07217 0.0619409 1.07451e-20)
(1.01266 0.00696337 2.15388e-22)
(0.536261 0.0327531 -3.01686e-21)
(0.964511 0.118031 -6.3918e-21)
(1.05012 0.0455411 0)
(1.01491 0.00977078 8.8564e-23)
(1.01534 0.00963845 4.66418e-22)
(1.04164 0.0343847 -2.12676e-21)
(1.0275 0.0187473 8.61045e-22)
(1.00217 -7.33489e-05 -7.84402e-23)
(0.559454 0.0292855 -5.4842e-21)
(1.00748 -9.83926e-05 -4.93643e-22)
(0.701237 0.0700497 0)
(1.0553 -0.0181737 3.83788e-22)
(1.05951 0.107197 1.22873e-21)
(1.08226 0.0511634 -7.9805e-21)
(1.06174 0.0757513 3.12426e-21)
(1.00136 -1.19267e-06 -4.02293e-22)
(1.00687 -0.000511876 0)
(0.95127 -0.0536822 -2.99933e-21)
(1.08357 0.0663877 1.32101e-21)
(1.00749 -9.49516e-05 -1.21781e-22)
(0.932177 -0.107374 0)
(1.0847 0.0534868 0)
(1.01489 0.00988341 -1.51286e-22)
(1.04113 0.0343923 -3.90261e-21)
(1.002 0.00011124 1.34094e-23)
(1.00031 -5.24384e-07 0)
(1.08386 0.0670498 -2.76651e-21)
(1.00964 0.00345549 -2.58494e-22)
(0.763029 0.0521545 7.47544e-21)
(1.00461 -0.000149797 -1.0488e-22)
(1.08982 0.0841637 0)
(1.04721 0.0145007 3.98762e-21)
(1.01476 0.00971747 -4.17837e-23)
(1.0002 -3.82805e-06 0)
(1.01505 0.00993922 0)
(1.01496 0.00944524 3.54227e-22)
(1.04578 0.0786733 -1.94985e-21)
(0.690097 0.0443552 6.336e-22)
(1.00265 0.000114779 -3.31403e-23)
(1.01458 0.0109326 2.19232e-22)
(1.00769 -0.000290222 1.22794e-22)
(1.07915 0.0593405 1.27749e-20)
(1.00308 -5.6126e-05 -6.69614e-24)
(0.966302 0.0172344 1.95458e-21)
(0.740255 0.0539976 4.29467e-21)
(1.05746 0.0434207 -7.49603e-21)
(1.06054 0.0229593 4.68813e-21)
(1.09373 0.0677771 -1.27206e-20)
(0.971122 0.01628 1.67486e-21)
(0.775931 0.0574497 2.06237e-21)
(1.06359 0.0427237 -2.79508e-21)
(1.02014 0.00555805 -1.2488e-21)
(1.00951 0.003332 2.00934e-22)
(1.05363 0.0388439 -4.18893e-23)
(0.536226 0.0241616 3.78358e-21)
(1.01015 0.00071018 -4.61212e-22)
(1.02239 0.00585447 1.45245e-21)
(1.04655 0.0576626 0)
(1.02242 0.00363432 1.07997e-21)
(1.01243 0.00125527 6.62573e-22)
(1.04445 0.0309794 -5.60161e-21)
(1.01291 -0.000244656 0)
(1.01297 0.00709035 -1.04794e-23)
(1.01221 0.000968946 0)
(1.02537 0.0196759 6.26693e-22)
(0.915757 0.0786841 -2.43661e-21)
(1.02097 0.0131326 1.71967e-21)
(1.00769 0.0611206 -1.59673e-21)
(1.06076 0.109255 -1.42555e-21)
(1.00455 -3.63847e-05 5.18479e-23)
(1.0147 0.0105004 1.45729e-23)
(1.01052 0.00287876 0)
(1.0283 0.0135341 2.79658e-21)
(1.01259 -0.000242894 -3.41763e-22)
(1.01967 0.0219373 8.68308e-22)
(1.04393 0.0490829 1.54886e-21)
(0.885691 0.077175 -2.49341e-21)
(1.02757 0.0224727 0)
(1.04803 0.0188966 -4.68137e-21)
(1.00103 -5.12813e-05 3.49326e-22)
(0.423282 0.0130423 -6.68662e-21)
(1.0625 0.103729 -3.63422e-21)
(1.01698 0.000807077 0)
(1.01268 0.00563977 2.74291e-22)
(0.854151 0.0951065 -4.86273e-21)
(0.97001 0.0473141 0)
(1.02215 0.00358833 1.23344e-22)
(0.703792 0.0461922 -2.09881e-21)
(1.05348 0.0382781 -5.52314e-23)
(1.0073 0.00170611 0)
(0.954971 -0.0853141 -4.95736e-21)
(1.03264 0.0227122 -5.04612e-24)
(1.00919 0.000510359 0)
(1.01595 0.04086 9.93989e-23)
(0.379985 0.0228773 2.81121e-21)
(1.05037 0.0431855 1.00917e-21)
(1.00742 0.00177374 0)
(1.03317 0.0705814 -4.00904e-21)
(1.01965 0.00504843 -1.61953e-21)
(1.01931 0.00491808 -1.54339e-21)
(1.02219 0.0142365 -5.76759e-22)
(1.05763 -0.0215069 -2.75672e-23)
(1.01074 0.000798873 0)
(1.04825 0.0185212 4.64139e-21)
(1.05799 0.0382208 4.25453e-21)
(1.04395 0.0141793 -1.67283e-21)
(1.02598 0.0231571 6.50328e-22)
(1.01972 0.00521861 2.31711e-21)
(1.00301 0.000138347 -1.65197e-22)
(1.0261 0.0190978 -7.50644e-22)
(1.0132 0.024564 0)
(1.02344 0.0240424 0)
(1.02074 0.0131094 7.30148e-22)
(1.03348 0.00489551 1.43826e-21)
(1.04051 0.0399504 0)
(1.08792 0.0565739 0)
(1.00663 0.00127904 0)
(1.0535 0.00202936 0)
(1.00759 -0.000145045 1.21978e-22)
(0.802107 0.0625684 1.0146e-21)
(1.03776 0.0405323 0)
(1.02346 0.0242454 0)
(1.01673 0.0432709 -1.03748e-22)
(0.779626 0.0756009 1.73723e-21)
(1.08745 0.0831584 0)
(0.716325 0.0498327 1.97584e-23)
(1.00755 -9.75533e-05 0)
(1.07728 0.0304605 0)
(0.833976 0.0564711 1.94375e-21)
(1.02395 0.00288273 6.80347e-22)
(1.02852 0.0225717 0)
(1.03718 0.0540848 0)
(1.03681 0.0550487 -2.41062e-21)
(1.09289 0.085253 1.02107e-20)
(1.00726 -0.000504255 0)
(1.01796 0.00056819 0)
(1.01044 -6.64399e-05 0)
(1.03864 0.0055243 -1.00121e-21)
(1.07804 0.0695743 5.52534e-21)
(0.521305 0.032387 1.30443e-21)
(1.02234 0.0149094 -9.04115e-22)
(1.02347 0.061006 -1.62488e-21)
(1.00658 0.00123334 -1.66462e-22)
(0.364773 0.0184936 6.76104e-21)
(1.07252 0.0558945 1.46665e-21)
(1.01081 -0.000858835 -3.78792e-22)
(1.01945 0.0130751 0)
(0.758822 0.0564216 0)
(0.467846 0.0497467 0)
(1.07717 0.0296267 0)
(1.05497 0.0257136 8.817e-22)
(1.01198 0.00998267 7.30467e-22)
(1.01751 0.0144091 0)
(1.03938 0.0212361 0)
(0.434419 0.0156272 9.77712e-21)
(1.08025 0.0309386 2.11203e-20)
(1.01588 0.0120313 0)
(1.0086 -0.00112191 -1.86785e-23)
(0.530973 0.0436507 0)
(0.992625 0.0879167 0)
(1.01279 0.000670794 0)
(1.00753 -0.000532849 -6.51827e-22)
(0.944331 0.0863904 0)
(1.04782 0.0363297 5.82017e-21)
(1.00766 -0.000540186 6.05622e-22)
(1.01118 -0.000930668 -5.13691e-22)
(1.06449 0.0528866 -4.15664e-21)
(1.01253 0.000294575 0)
(1.07262 0.0614057 -1.24183e-23)
(1.06698 0.0555895 -4.55114e-21)
(1.00788 -0.000235875 4.32592e-22)
(1.00614 0.0108465 5.5867e-22)
(1.00775 -0.00024752 -4.40788e-22)
(1.04399 0.013366 -3.42593e-21)
(1.00462 -0.000138899 -5.10569e-22)
(1.06801 0.0566305 4.78492e-21)
(1.01245 0.000332944 0)
(1.01289 0.000652169 -3.32931e-22)
(1.01925 0.00474188 1.54243e-21)
(1.02828 0.0301927 0)
(0.54002 0.0276871 -2.87119e-21)
(1.04587 0.030252 0)
(1.00084 -1.51188e-05 0)
(0.837447 0.0861768 4.10194e-21)
(1.09304 0.0674665 1.55071e-20)
(1.02364 0.0143906 1.74838e-21)
(1.01155 -0.000908317 0)
(1.01646 0.000147773 0)
(1.05091 -0.0655006 0)
(0.988739 -0.0156942 0)
(0.517026 0.036421 -4.24541e-23)
(1.00664 0.000733941 -2.3017e-22)
(1.00643 0.00953064 0)
(0.715096 0.0153999 0)
(1.04025 0.0521253 -6.15234e-23)
(0.984086 0.0166459 -7.51854e-23)
(1.01082 -0.000825334 0)
(1.00656 0.000703991 -3.33449e-22)
(1.01094 -0.000827055 -1.27419e-22)
(0.367115 0.020002 -9.19397e-21)
(1.01242 0.00499105 2.36375e-22)
(1.0108 -0.000760498 -4.87383e-22)
(1.01101 0.00311393 4.05331e-22)
(1.03009 0.0274789 -1.21935e-21)
(0.754874 0.0519519 -2.65477e-21)
(1.01871 0.0189844 -9.27067e-23)
(0.429829 0.0090894 0)
(0.999398 0.090804 -3.32818e-22)
(1.00457 -0.000206575 -2.28846e-22)
(1.04041 0.0351123 -2.95333e-21)
(0.973498 -0.0270262 1.40337e-21)
(1.04422 0.0146573 -1.71911e-21)
(1.01782 0.0189783 0)
(1.04643 0.0495363 -3.4229e-21)
(1.04742 0.079503 0)
(0.961336 0.0736416 -3.41819e-21)
(1.00808 -0.000512403 -2.25259e-22)
(1.01224 0.00482908 4.33909e-22)
(1.0205 0.0224764 1.41372e-22)
(1.06426 0.0483498 1.71847e-21)
(1.09461 0.0735751 -2.66814e-22)
(1.01095 0.000755384 -2.01021e-22)
(1.01188 -0.000795433 0)
(1.04684 0.0141087 0)
(0.984991 0.0171371 0)
(1.01574 0.0875269 -1.34483e-21)
(1.07096 0.0601479 -3.49418e-23)
(1.04567 0.0298378 0)
(1.00724 -0.000496824 3.84402e-22)
(1.02426 0.00287911 1.55455e-21)
(1.01107 0.000777863 4.15512e-23)
(1.00715 -0.000493826 0)
(0.507154 0.0353428 -7.1243e-22)
(1.04367 -0.0090783 -1.25674e-21)
(1.019 0.0210853 0)
(1.03019 0.0292571 -8.99438e-22)
(1.02374 0.0238005 8.41971e-22)
(1.02249 0.0253338 5.24988e-23)
(0.382008 0.024255 0)
(1.01274 0.00121503 3.09169e-22)
(0.772833 -0.0763797 4.99533e-21)
(1.01255 0.00102856 -3.02183e-22)
(1.01992 0.00816459 0)
(1.01078 -0.000268638 -1.73507e-22)
(1.00043 -3.39359e-05 1.13873e-22)
(1.00767 -0.00016335 -1.16903e-22)
(1.00778 -0.000532836 0)
(1.01037 0.000744026 -3.29253e-24)
(1.01095 -0.000873541 0)
(1.00738 0.0017096 0)
(1.02139 0.0218005 2.23776e-22)
(1.02952 0.00166997 0)
(1.01289 0.00727959 -2.40821e-22)
(0.891439 0.117411 -7.10954e-21)
(1.02404 0.013687 -1.17142e-21)
(1.02646 0.0191349 1.62615e-21)
(1.01247 0.0032461 -8.15667e-22)
(1.00234 -8.7331e-05 1.49211e-22)
(1.022 0.0222315 -1.36963e-22)
(1.02179 0.00371722 -1.2685e-22)
(1.03049 0.0291384 3.01115e-21)
(1.07969 0.0548271 0)
(1.02207 0.0145879 1.20171e-21)
(1.04704 -0.0116527 -1.00488e-21)
(1.01135 -0.000967687 7.77002e-22)
(1.01226 0.00639568 0)
(1.01529 0.0584141 0)
(1.0067 0.00135145 -1.62502e-22)
(1.01174 -0.000959622 0)
(1.06716 0.0561112 -7.92692e-21)
(1.02217 -0.00910874 0)
(1.01286 0.021385 1.3609e-21)
(1.00725 0.00164574 1.50309e-22)
(1.08993 0.0843145 -8.71425e-21)
(1.01091 0.0107337 -5.01713e-22)
(0.560132 0.0294764 3.08413e-21)
(1.02915 0.00154596 0)
(1.04029 0.0165342 0)
(0.869026 -0.179196 0)
(0.99219 -0.00324425 0)
(1.01075 -0.000242717 0)
(1.05785 0.0121159 -6.84752e-23)
(1.00676 0.0960818 0)
(1.0513 0.0707676 -4.68884e-21)
(1.01073 0.00297445 -3.69044e-22)
(1.00881 0.121388 0)
(1.00078 -4.32847e-05 -5.15044e-22)
(0.342946 0.0208189 -4.03367e-21)
(1.04191 0.042138 1.46241e-21)
(1.01255 0.00367293 0)
(1.08244 0.0658486 -8.41413e-21)
(1.03884 0.00656817 -7.48757e-21)
(1.01242 0.00313472 7.30558e-22)
(1.05623 0.0715426 4.567e-21)
(0.922841 0.157752 0)
(1.00761 -9.86155e-05 5.22724e-22)
(1.02844 0.0139032 -1.97305e-21)
(1.00724 0.00162874 -3.02344e-22)
(1.007 -0.000475159 0)
(0.487643 0.0418522 -5.06447e-21)
(1.04199 0.0864778 0)
(1.00537 -0.000299195 0)
(1.06476 0.046787 5.42836e-21)
(0.989456 -0.000906629 0)
(1.00918 -0.000613553 5.32303e-22)
(1.00782 -0.000277059 0)
(1.00526 -0.000282772 0)
(1.01094 0.01022 0)
(0.68391 0.0462022 4.4006e-21)
(0.807716 0.0246315 4.71109e-21)
(0.912134 0.163639 -4.40628e-22)
(1.0121 -0.000843553 0)
(0.564222 0.0310625 7.56836e-22)
(1.02206 0.00376605 -1.21039e-21)
(1.00261 -7.30851e-05 0)
(1.00405 0.120221 8.80167e-22)
(1.01089 0.00312028 -1.17519e-23)
(1.04768 0.057451 -4.02717e-21)
(1.00666 0.066079 -8.40693e-22)
(0.784388 0.0964727 2.09068e-21)
(1.01307 0.00623 -5.46219e-22)
(1.08279 0.0664664 7.35091e-21)
(1.0052 -0.000273041 9.70186e-23)
(1.08465 0.0528159 0)
(0.819003 0.0649755 0)
(1.03544 -0.00979036 0)
(1.0408 0.00525902 1.16368e-21)
(0.982262 0.0843274 0)
(1.08108 0.0538908 -7.86346e-21)
(1.01242 0.00365857 -4.35988e-22)
(1.01251 0.0258263 7.35935e-22)
(1.01808 0.000735015 2.2552e-21)
(1.02282 0.0252878 5.63054e-23)
(1.05764 0.0161361 0)
(1.02634 -0.0103744 0)
(1.03896 0.0062499 2.35257e-21)
(1.03996 0.0530918 3.3242e-23)
(1.0536 0.0608081 -8.54885e-22)
(0.358969 0.0191149 3.8014e-21)
(1.0051 -0.000258183 9.54433e-23)
(1.02111 0.0169016 0)
(1.00993 0.00296933 -2.4804e-22)
(1.06221 0.0414838 -1.76145e-21)
(0.695798 0.0459948 -4.50806e-21)
(1.00032 0.0652773 4.2437e-22)
(0.708739 0.0458464 0)
(1.03675 0.0322601 -5.9389e-22)
(1.02511 0.0237317 0)
(1.02499 0.01997 -1.147e-21)
(1.00825 -0.00521325 -5.08777e-22)
(1.06376 0.054925 -4.17006e-21)
(0.696009 0.0450603 0)
(1.03715 0.0304407 -5.87351e-22)
(1.0157 0.00304396 0)
(1.01238 0.00725126 -3.33753e-22)
(1.06328 0.0552673 0)
(1.04236 0.0418235 7.54172e-22)
(1.0386 -0.0124998 0)
(1.02376 0.0240194 0)
(1.0292 0.0584545 0)
(0.939624 0.0761762 -2.61198e-21)
(0.892637 0.0681905 -1.16357e-20)
(1.01029 0.00310755 -7.75136e-22)
(1.00649 -0.000350505 6.9845e-22)
(0.54239 0.0448006 5.38658e-21)
(1.02932 0.0135659 0)
(1.0061 0.000972094 2.44418e-22)
(1.00465 -0.000152239 0)
(1.00679 -0.000327497 1.5779e-22)
(1.025 0.0202642 0)
(0.291125 0.014473 0)
(0.720414 0.033604 6.06572e-21)
(0.922185 0.191245 1.18283e-22)
(0.835886 0.0438895 0)
(1.02077 0.00553507 -4.27297e-22)
(1.03483 0.021757 -2.39062e-21)
(1.00052 0.0690662 -2.29917e-22)
(1.0483 0.0167733 6.83454e-21)
(1.04755 0.0269196 -5.31723e-21)
(1.03771 0.0445582 2.12465e-21)
(1.00902 0.0722371 3.66557e-23)
(1.00787 0.0020601 2.3688e-22)
(1.02005 0.005369 -1.64146e-21)
(1.01532 -0.00216258 0)
(1.0103 -0.00016206 -2.09808e-22)
(1.05736 -0.00115956 1.21951e-21)
(0.350474 0.0175145 0)
(1.01009 -0.000111274 -2.7423e-22)
(1.04097 0.0350818 1.0795e-21)
(1.02026 0.0198012 0)
(1.02807 -0.0119931 -1.30274e-21)
(1.00979 0.0028446 1.36616e-22)
(1.00814 -0.000566866 0)
(1.09442 0.0729081 -4.72743e-21)
(1.00505 -0.000237339 0)
(1.08775 0.0917242 4.51708e-21)
(1.05977 0.113089 9.23461e-21)
(1.06277 0.0415996 1.46933e-21)
(1.01461 0.0107069 0)
(1.0081 -0.000474642 0)
(1.08101 0.0857104 0)
(1.02987 0.0277683 -6.14426e-22)
(1.01143 0.00819969 -7.53031e-22)
(1.01237 0.00657433 0)
(1.01088 0.000780881 0)
(1.05405 0.0373364 0)
(0.967148 0.0726849 0)
(1.05421 0.0378992 4.07345e-21)
(1.04064 0.0199644 0)
(1.02158 0.0123701 3.2621e-23)
(1.02928 -0.00913149 1.45853e-21)
(1.07109 0.0605198 -6.28283e-21)
(1.07992 0.0315447 -9.04242e-23)
(1.04388 0.0150106 1.75435e-21)
(1.00678 0.044562 -5.58565e-22)
(1.02637 0.0229377 -6.95998e-22)
(1.06798 0.0719255 4.49844e-21)
(1.05336 0.0602124 7.21062e-22)
(1.04006 -0.0677816 0)
(1.00002 -1.50878e-05 -4.71891e-22)
(0.574513 0.0330992 0)
(1.09345 0.0753345 0)
(0.835928 0.0812541 0)
(1.0473 0.0608099 1.86824e-21)
(1.02664 0.0409824 -9.39437e-22)
(0.353792 0.0234808 0)
(1.00123 -4.72383e-05 -1.8978e-22)
(1.02804 0.0225711 4.0209e-22)
(0.986687 0.0161311 0)
(1.03135 0.052582 1.43175e-21)
(1.00767 0.00194623 5.86682e-23)
(1.05494 0.0466886 -4.4211e-23)
(0.809166 -0.0893489 2.09134e-21)
(1.0147 0.0107562 -3.81787e-22)
(1.02635 0.0200516 1.54886e-21)
(0.278578 0.011896 9.87565e-23)
(0.828289 -0.0443374 0)
(1.04153 0.0511113 0)
(1.02732 0.0405219 0)
(0.269207 0.0101432 4.4717e-21)
(1.01633 0.00540517 0)
(1.04836 0.0475292 1.88639e-21)
(0.906895 0.0673874 1.15238e-20)
(1.01733 0.014141 9.30587e-23)
(1.06258 0.096559 0)
(1.00831 -0.000576724 3.012e-25)
(1.03301 0.0154139 1.97688e-21)
(1.00844 -0.000582607 0)
(1.06895 0.0617378 0)
(1.01204 0.00814795 -6.5196e-22)
(1.02389 0.0480269 0)
(1.02885 0.035836 0)
(1.01057 -0.00354766 -3.86099e-22)
(1.07226 0.0615077 -6.81855e-21)
(1.04571 0.0281165 1.13913e-21)
(1.02904 0.0390965 0)
(1.02966 0.0689806 -5.25004e-22)
(1.01265 0.00717525 -8.23207e-22)
(1.04177 0.00558717 5.54627e-21)
(1.00492 -0.00015667 6.4596e-26)
(1.08489 0.0940679 7.73357e-21)
(1.02154 0.0121261 0)
(1.05402 0.0587664 3.21267e-21)
(1.03153 0.019814 -1.58368e-21)
(1.00845 0.000433607 6.17458e-22)
(1.00757 0.00188116 -5.94205e-23)
(1.03961 0.0207006 5.73517e-23)
(0.713127 0.0713353 -5.97043e-21)
(1.00847 0.0023243 8.51619e-23)
(1.00481 -0.000109719 4.56204e-22)
(1.00459 -3.12327e-05 -6.73442e-22)
(1.02666 0.0230405 -1.97829e-21)
(0.598703 0.00724981 0)
(1.0542 0.0594331 -3.57588e-21)
(1.07123 0.0726593 2.12891e-21)
(1.00747 0.00182956 0)
(1.00149 -3.13378e-06 -4.05677e-22)
(1.07019 0.0580004 0)
(1.01003 0.00296634 0)
(1.01095 0.00080444 1.43796e-22)
(1.00335 0.0962064 1.03249e-21)
(1.00773 -0.000138081 -1.30333e-22)
(0.455659 0.0388523 0)
(1.06843 0.0614266 4.62082e-21)
(1.01542 0.100981 5.64408e-22)
(1.01833 0.0011023 0)
(1.00689 0.00140372 0)
(1.00807 0.00181096 -1.18679e-22)
(1.01619 0.00529643 2.13797e-21)
(1.01249 0.00693271 5.73674e-22)
(0.957062 -0.0103822 0)
(0.960302 0.0579614 2.40066e-21)
(1.04889 0.0186522 0)
(1.01816 0.019147 2.71028e-23)
(1.00537 -0.000303093 -1.01135e-22)
(0.723601 0.065183 8.66277e-21)
(1.04588 0.0285493 1.46582e-21)
(1.02785 0.008698 0)
(1.00701 0.00146644 0)
(1.05823 0.0105676 0)
(1.01857 0.00676787 5.96144e-22)
(1.04413 0.0154815 -1.89427e-21)
(1.07193 0.0595706 1.77396e-21)
(0.657386 0.14955 1.27649e-20)
(1.09397 0.0722325 0)
(1.06101 0.0224278 0)
(0.859047 0.045429 0)
(1.00761 -9.49025e-05 -2.94799e-23)
(1.05655 0.114787 0)
(1.06125 0.012859 1.82723e-21)
(1.00781 -0.000117834 1.26385e-22)
(1.03148 0.0194352 1.47016e-23)
(0.965956 -0.0262774 -1.57268e-21)
(1.00543 -0.000309534 -9.70532e-23)
(1.01275 0.000994757 0)
(1.00505 -0.000247868 0)
(0.82791 -0.0557797 2.14596e-21)
(1.0038 0.0579934 2.08987e-21)
(0.939809 0.184095 -1.29817e-22)
(1.00198 -5.02952e-05 1.25657e-22)
(1.01973 0.0125612 -1.20674e-21)
(1.01492 0.00954871 1.80693e-22)
(1.0329 0.0151074 3.61726e-21)
(1.01894 0.00461966 0)
(1.03893 0.0334568 7.52863e-22)
(1.01397 0.00934712 -5.61249e-24)
(1.00505 0.000351947 0)
(1.00517 -0.000256422 0)
(1.0082 -0.000506698 0)
(0.935355 0.0692192 0)
(0.5104 0.049858 0)
(1.01971 0.0186246 -1.19305e-21)
(1.02399 -0.026287 2.33733e-22)
(1.01117 0.000262985 -6.46705e-24)
(1.04777 0.0255762 -5.22566e-21)
(1.00214 -8.4789e-05 0)
(1.01062 0.00298001 0)
(1.02406 0.023588 0)
(1.07556 0.0682183 6.477e-21)
(1.03973 0.0170903 1.46425e-21)
(1.07943 0.0785062 -1.1493e-20)
(1.04912 0.0352854 0)
(1.08187 0.048441 -8.45102e-21)
(1.02746 0.00857175 0)
(0.679733 0.066927 -1.13994e-20)
(0.973837 0.0656164 0)
(1.0137 -0.00215112 2.42892e-23)
(1.00649 0.000674529 -3.43528e-22)
(0.299672 0.0164462 4.41637e-21)
(1.0127 0.00291102 -1.78691e-22)
(1.01101 0.00238692 -3.85429e-22)
(0.50693 0.0223859 0)
(1.01077 -0.000817344 -5.96959e-22)
(1.07825 0.045185 0)
(1.00653 0.000658225 6.21999e-22)
(0.816131 0.00895171 0)
(1.02528 0.0140893 -7.09356e-22)
(1.01447 -0.00067202 7.49167e-25)
(1.05824 0.0866379 0)
(0.982414 0.0142113 2.88773e-21)
(1.03861 0.0356663 6.61592e-22)
(1.01266 0.00277207 1.62845e-22)
(1.0137 0.00910513 2.19467e-22)
(1.00966 -0.000112359 -1.27102e-22)
(1.01726 0.000921719 0)
(1.06779 0.0186113 -2.20762e-23)
(1.01988 0.000620611 2.01292e-21)
(1.02627 0.0232163 -7.15277e-22)
(1.02121 0.00547163 1.00376e-21)
(0.711214 0.177929 -5.83278e-21)
(0.746128 -0.115099 -3.06334e-21)
(0.788055 -0.0903473 3.59205e-21)
(1.06814 0.0180966 6.45988e-21)
(1.02022 0.0158251 0)
(0.440798 0.0113669 6.54284e-21)
(1.01098 0.00231715 0)
(1.03965 0.005852 0)
(1.00802 -0.000552466 -2.06583e-22)
(1.01887 0.0044441 -7.45392e-22)
(1.01294 0.00113474 -3.73438e-22)
(1.02135 0.0173021 0)
(0.857543 0.0650228 0)
(1.0051 -0.000253351 -9.68038e-23)
(1.00505 -0.000241724 9.51916e-23)
(0.732471 0.0551764 3.78277e-21)
(1.01493 0.00944413 0)
(1.01084 0.00223645 0)
(1.07007 0.0578799 -1.34174e-20)
(1.0191 0.0476464 0)
(1.08169 0.0658451 -1.236e-20)
(0.630866 0.140682 0)
(1.06846 0.0637679 -2.10828e-21)
(0.770366 0.0143059 0)
(0.519487 0.0226486 -3.73695e-21)
(1.02495 0.0138265 0)
(0.569192 0.0308364 -5.8062e-21)
(1.01997 0.0155173 1.73659e-23)
(1.0639 0.0986483 3.65842e-21)
(1.0127 -0.00931828 0)
(1.01053 0.00312142 3.33247e-22)
(1.01718 0.0191494 0)
(0.756538 0.0901886 -1.20078e-20)
(1.02534 0.0199634 0)
(1.01065 0.00313099 0)
(0.467647 0.0414609 1.48983e-21)
(1.04896 0.016877 -4.49456e-21)
(1.03903 0.0375618 6.26394e-21)
(0.403374 0.0189035 3.29105e-21)
(0.96616 0.186598 -1.55118e-21)
(1.01432 -0.000859974 -3.25254e-22)
(1.00926 0.0588188 -4.91818e-22)
(0.957084 0.149612 -1.75216e-21)
(1.02649 0.0188169 -2.39787e-21)
(1.0247 0.0368355 -6.11679e-22)
(1.00872 0.00250686 -1.78776e-22)
(1.01705 0.0224491 -5.62646e-22)
(0.99119 0.114743 1.67901e-21)
(1.00234 -4.9587e-05 0)
(1.00801 0.00180494 1.11606e-22)
(0.993226 -0.0233723 -9.8372e-22)
(1.00713 -0.000483225 -3.85501e-22)
(1.08375 0.108834 1.14745e-20)
(0.824795 0.0328925 9.28888e-22)
(0.914447 0.179842 0)
(1.02097 0.0128297 -9.24844e-22)
(0.903234 0.188496 1.97684e-22)
(1.07282 0.0557106 0)
(1.00154 -4.30563e-05 0)
(1.01254 0.00294758 0)
(1.0086 0.00243701 2.53612e-22)
(1.00775 0.00154161 1.04788e-22)
(1.01947 0.0123082 6.14632e-22)
(1.04099 0.0637621 3.31122e-21)
(0.857629 -0.158327 -5.96747e-22)
(1.03177 0.018998 0)
(1.00156 -5.75305e-05 -8.93587e-23)
(1.0321 0.0673268 0)
(1.04609 0.0272419 -2.29465e-21)
(1.01149 0.00960265 4.9271e-22)
(1.01048 0.00365122 0)
(1.01464 0.00959564 1.03207e-23)
(0.995965 -0.0281553 1.77895e-21)
(1.00768 0.00147292 -9.62043e-23)
(1.04626 0.027758 2.42003e-21)
(1.00747 0.00112107 2.4502e-22)
(1.02008 0.000514956 -2.78861e-22)
(1.08139 0.065204 1.18686e-20)
(1.00128 1.4832e-05 0)
(1.01622 -0.00183496 -7.41148e-25)
(1.02109 0.00559051 0)
(1.0462 0.0611655 -5.49377e-21)
(1.04526 0.0602342 1.9006e-21)
(1.01068 -0.00161856 -2.40008e-23)
(1.00687 0.00137563 -9.11081e-23)
(1.02918 0.0701115 5.5736e-21)
(1.0028 0.000175285 1.21238e-22)
(0.41213 0.0205125 8.5705e-22)
(1.0386 0.0369452 -2.10293e-21)
(1.06186 0.0461017 8.90602e-22)
(1.00937 -0.000617209 -1.11447e-22)
(1.07672 0.0279782 -1.87709e-21)
(1.03301 0.0227163 -2.26564e-21)
(1.01259 0.0030899 0)
(1.01281 0.060047 -5.20539e-21)
(1.02404 0.0238038 -4.84463e-22)
(1.02699 0.00564715 0)
(1.08195 0.0502448 1.02904e-20)
(1.01845 0.00217337 -5.3676e-23)
(1.00716 -0.000612874 0)
(1.01652 0.011075 -2.92971e-22)
(1.03877 0.0531239 2.49626e-21)
(1.00701 -0.00053936 0)
(1.07644 0.0667978 5.76001e-21)
(1.05646 0.0123303 1.06922e-21)
(1.0304 0.0285201 5.90134e-23)
(1.02091 0.0163047 0)
(0.448537 0.0471719 -7.40686e-21)
(1.06243 0.04581 2.78033e-21)
(1.01 -0.000756769 -2.40993e-22)
(1.02124 0.0128651 -6.62104e-22)
(1.03803 0.0310416 0)
(0.697641 0.0051583 6.42697e-21)
(1.01089 0.00306384 8.10017e-23)
(1.00001 -2.87369e-05 -1.04644e-22)
(1.03954 0.0173135 1.69518e-21)
(1.06775 0.0562394 4.21926e-21)
(1.03803 0.0306885 0)
(1.07769 0.0449519 0)
(1.08603 0.0820589 0)
(1.02555 0.0140404 4.30679e-21)
(1.08205 0.0778746 0)
(0.736115 0.0663522 -8.91549e-21)
(0.579705 0.00454949 0)
(1.08794 0.0541061 4.93887e-21)
(0.868014 -0.153058 0)
(1.00907 0.00958163 0)
(1.00906 0.00204511 1.08726e-22)
(0.9687 0.0423203 0)
(1.02681 0.0184378 8.71723e-22)
(1.00399 -0.111693 -1.94612e-21)
(1.02875 0.0204212 -1.11357e-21)
(1.02769 0.059568 9.82201e-21)
(1.01566 0.022623 0)
(1.01118 0.00246491 -6.04185e-24)
(1.00843 0.00210889 0)
(0.987761 0.005945 3.06632e-22)
(0.993778 -0.115746 0)
(1.00239 0.000151769 2.19375e-22)
(1.02066 0.0164456 -6.5688e-22)
(1.02005 0.000446147 0)
(1.01055 -3.70089e-05 -3.81979e-22)
(1.01062 0.0013659 0)
(0.974687 -0.0196913 -2.23162e-21)
(1.00634 0.000409622 2.41895e-22)
(1.0077 -9.48218e-05 1.29603e-22)
(0.785455 0.0607621 0)
(1.00757 0.00140575 1.05875e-23)
(1.07179 0.0661275 0)
(1.01033 0.00975029 4.13508e-22)
(1.04414 0.0606237 0)
(1.06886 0.0479876 2.15452e-21)
(1.00196 6.41983e-05 1.26343e-22)
(1.00752 0.00141431 0)
(0.590527 0.03387 6.07456e-21)
(0.839291 0.0564147 4.49076e-21)
(1.03073 0.0283685 0)
(1.04426 0.0516549 0)
(1.03845 0.0409167 -4.07004e-21)
(1.00837 0.00211334 0)
(1.01609 -0.00195125 0)
(1.03547 0.0550241 -3.71206e-21)
(0.988456 0.0433026 4.12447e-21)
(1.0108 0.00293623 1.38212e-22)
(1.0176 0.0193269 0)
(1.0695 0.0612524 1.09139e-22)
(0.988304 0.0194593 4.47253e-22)
(1.01828 0.00212834 0)
(1.07195 0.0579135 0)
(1.06852 0.0642679 2.85198e-21)
(1.07139 0.0576945 0)
(1.01071 0.00144147 -1.94008e-22)
(1.03716 0.043736 -2.00674e-21)
(1.08213 0.0541409 -6.19768e-21)
(0.39947 0.0286436 1.00135e-22)
(1.00039 -1.47825e-05 3.15749e-22)
(1.00129 -4.66285e-05 0)
(1.04063 0.0162523 0)
(1.00033 -9.95548e-06 3.10567e-22)
(1.01175 0.000708427 0)
(1.02678 0.00543207 0)
(1.08361 0.111465 -1.10132e-20)
(1.0156 -0.00212033 0)
(1.04823 0.0176895 0)
(0.977015 0.0904449 7.37097e-22)
(1.02988 0.0107538 6.55474e-22)
(0.548225 0.0309443 -5.79524e-21)
(1.00709 0.00138112 2.9169e-22)
(1.02877 0.0457441 0)
(1.0048 -9.94819e-05 0)
(0.547689 0.0278464 3.2808e-21)
(1.01463 0.0505871 0)
(1.07071 0.0580316 0)
(1.01195 0.00113176 3.63706e-22)
(1.02132 0.0448921 0)
(1.02793 0.0280148 0)
(1.00138 1.74439e-05 7.79426e-22)
(1.06481 0.0480824 -1.64584e-21)
(1.07904 0.0277803 7.4586e-21)
(1.01875 0.0827444 -3.47517e-22)
(1.00612 0.000550626 -1.23618e-22)
(1.00722 0.00141293 -1.05653e-22)
(1.07606 0.067889 -6.81398e-21)
(1.04893 0.0178276 0)
(0.858778 -0.227999 -2.07953e-21)
(1.0629 0.0425416 -1.41553e-21)
(0.931107 0.182076 7.26807e-22)
(1.01126 -0.000807017 -2.56e-22)