/*--------------------------------*- C++ -*----------------------------------*\
| =========                 |                                                 |
| \\      /  F ield         | OpenFOAM: The Open Source CFD Toolbox           |
|  \\    /   O peration     | Version:  v2012                                 |
|   \\  /    A nd           | Website:  www.openfoam.com                      |
|    \\/     M anipulation  |                                                 |
\*---------------------------------------------------------------------------*/
FoamFile
{
    version     2.0;
    format      ascii;
    class       volVectorField;
    location    "300";
    object      ddt0(U);
}
// * * * * * * * * * * * * * * * * * * * * * * * * * * * * * * * * * * * * * //

dimensions      [0 1 -2 0 0 0 0];


internalField   nonuniform List<vector> 
37809
(
(2.96791e-07 -4.32317e-06 0)
(0.000156388 0.000707312 -1.29916e-21)
(-0.000174129 0.000164316 -7.35475e-22)
(0.000790848 -0.00416064 -1.83179e-21)
(-0.000104686 -6.50981e-05 0)
(3.47111e-06 -4.8487e-07 9.71e-22)
(2.61819e-06 4.52428e-07 -4.34679e-22)
(0.0147385 0.0161902 4.27167e-21)
(-4.90756e-05 2.10067e-05 -1.12167e-21)
(-0.000492315 -0.000596423 -1.11461e-21)
(0.00181913 0.000971648 0)
(0.000228258 -0.000163774 0)
(-0.000159101 -0.000251536 -1.31228e-21)
(-0.000734642 -0.000378543 5.90588e-22)
(-9.50852e-05 0.000100765 -1.20588e-21)
(-8.20031e-05 4.15152e-05 5.10609e-22)
(2.69869e-07 7.05437e-07 -7.33075e-22)
(0.00145246 -0.00293566 -9.21703e-22)
(0.000247456 -0.000143827 0)
(-3.82424e-05 5.61974e-06 0)
(-8.11311e-05 3.54793e-05 -6.28171e-22)
(0.00682613 0.0040914 3.56838e-21)
(0.0110651 0.0987709 2.54937e-21)
(-0.00182966 0.00406736 1.61834e-23)
(0.00690128 -0.00123299 6.42577e-22)
(-9.75547e-06 -4.87808e-07 -4.19809e-22)
(-3.24735e-05 -0.000185163 1.53881e-21)
(0.00481741 -0.00686754 0)
(-0.000471074 -7.54874e-05 0)
(7.43374e-06 -2.38974e-06 -4.81422e-22)
(-6.93662e-05 -0.00337981 -2.90378e-21)
(0.0055708 -0.00196017 -1.55584e-21)
(-7.90575e-06 2.08666e-05 8.27875e-22)
(-0.0167094 0.0178248 0)
(-1.98261e-05 -0.000225688 -3.87244e-22)
(-7.13312e-06 2.07815e-05 0)
(-0.00051799 -5.71765e-05 0)
(0.000684788 -0.00383341 -1.43398e-21)
(0.0709553 0.0265533 0)
(-8.91574e-05 3.69697e-05 0)
(-2.71317e-05 -7.72744e-07 -5.90499e-23)
(0.0218909 -0.0170014 5.51298e-23)
(-8.93544e-05 6.27189e-05 -1.06175e-21)
(-0.000501663 -0.00080513 4.63042e-22)
(-1.77213e-05 1.3977e-06 2.37966e-21)
(5.09349e-05 -0.000308336 -1.62269e-21)
(-5.08679e-05 1.86848e-05 0)
(-0.000190894 0.00027996 7.95647e-22)
(-2.26318e-05 -1.44983e-05 0)
(-0.00717624 -0.000345375 -4.2352e-22)
(0.00478287 -0.00899572 -2.86171e-21)
(0.0869439 0.0559188 -7.91674e-22)
(-0.0205181 0.0194433 6.63871e-22)
(-0.0157103 0.0162036 0)
(-1.5389e-05 -0.000208896 1.7047e-21)
(-0.000139319 6.71842e-05 7.06272e-22)
(0.00221162 0.00215479 1.82585e-21)
(-0.00017057 3.82361e-05 -6.59977e-22)
(0.00449448 0.00220091 0)
(0.00235094 -0.00468143 1.86063e-21)
(7.61171e-05 -0.000305974 1.54271e-21)
(-0.000448506 -0.000299268 3.54458e-24)
(0.00144578 -0.00401605 1.95236e-21)
(-0.000538071 -0.000746719 -4.67417e-22)
(-0.000990465 -0.00115001 9.68474e-22)
(-0.000104451 0.000104909 -7.63668e-22)
(9.00158e-05 0.000698862 0)
(0.00449085 -0.000720867 0)
(0.000101988 -0.000960093 -4.58208e-22)
(0.00793299 -0.000963282 -1.55707e-21)
(-0.000162333 6.12517e-05 5.80825e-22)
(-8.3508e-06 2.02899e-07 -1.06764e-21)
(0.0881074 0.0463546 3.25488e-22)
(-0.00168398 -0.00063764 0)
(-7.30028e-06 2.82066e-07 3.25183e-23)
(0.0170164 -0.0297677 5.58933e-22)
(-0.00674524 -0.000430832 -8.26226e-22)
(8.82946e-06 4.03819e-06 0)
(-7.96311e-05 6.33062e-05 -5.20675e-22)
(-1.01899e-05 2.68569e-06 7.63416e-22)
(-0.00060888 -0.00074368 9.40802e-22)
(0.00121259 -0.00308923 0)
(-2.61785e-05 6.29929e-05 0)
(-0.0233796 0.0170303 0)
(0.026515 -0.000781338 2.92321e-21)
(0.004359 -0.000559626 -1.21339e-21)
(-6.50729e-05 -0.000287097 -7.35035e-22)
(0.0041444 -0.00789388 1.77718e-21)
(0.000168243 -0.000995457 7.20078e-22)
(-0.000487975 -8.49658e-05 4.73193e-22)
(-1.20308e-05 -4.45466e-07 0)
(0.000703171 -0.00452938 -1.19243e-22)
(-0.000304449 0.000212495 0)
(-9.07465e-06 3.50859e-07 0)
(-0.000421285 -0.000287838 0)
(1.40403e-05 -5.12247e-07 -5.37216e-22)
(0.000958755 -0.00264004 0)
(1.33235e-05 -1.23622e-06 0)
(2.27894e-06 -8.1183e-06 0)
(0.00701604 -0.00113699 0)
(-1.43244e-05 -3.08752e-06 -1.15038e-21)
(0.00237653 0.00203757 -3.10597e-21)
(6.10838e-07 -6.77327e-06 -3.82201e-22)
(-0.000808532 -0.00112162 -1.88074e-21)
(0.0241326 -0.000570154 1.78694e-22)
(-0.000167742 -0.000105127 0)
(0.00632501 0.00447715 -3.35998e-21)
(6.99394e-06 9.33677e-07 0)
(-0.000328403 0.0387675 -5.34335e-21)
(0.0513071 0.0574022 2.50716e-21)
(-4.28673e-05 6.73319e-05 3.05719e-22)
(-0.00159725 -0.000688988 0)
(0.00398019 -0.00139943 8.55267e-22)
(-0.000102456 2.62514e-05 0)
(0.00181124 -0.00217249 -9.62344e-22)
(0.00385246 -0.0015703 7.41341e-22)
(-0.000121871 9.56706e-05 -2.40719e-21)
(-8.25159e-06 -3.42347e-06 0)
(0.0336222 0.028279 0)
(-2.63036e-05 9.39883e-05 3.15812e-22)
(0.0125055 -0.0413707 -2.27184e-22)
(-0.00718852 -6.39523e-05 0)
(0.0109732 0.00339197 -5.64184e-21)
(-1.77856e-05 1.2636e-06 -1.91142e-21)
(-3.15295e-05 -0.000114564 6.39193e-22)
(0.00176054 -0.0278708 -1.90575e-24)
(5.38231e-06 5.07475e-07 -5.74955e-22)
(6.5618e-06 6.83703e-05 8.1749e-22)
(1.03692e-05 -1.22484e-05 0)
(1.16901e-05 -5.35865e-06 0)
(-0.000169293 0.000140885 -7.4468e-22)
(-0.000108711 9.93836e-05 5.61553e-22)
(-0.00012102 -0.000233813 -8.29364e-22)
(-5.12623e-05 -9.72281e-05 -6.57472e-22)
(5.25549e-06 7.58294e-07 -1.14315e-21)
(-2.2707e-05 4.9492e-06 1.18008e-21)
(-0.000496918 -0.00106899 1.22788e-21)
(-0.0043057 -0.0338227 0)
(0.00748825 -0.000881831 0)
(-0.000101295 0.000149464 0)
(0.000281498 -0.000163735 0)
(0.0235659 -0.0155309 7.84421e-22)
(-0.000822765 -0.000427019 1.22884e-21)
(-3.14912e-05 7.77646e-05 2.50851e-21)
(1.26903e-05 -4.66865e-06 6.86582e-22)
(-2.11603e-05 5.14906e-06 -5.32832e-22)
(0.000300856 -0.000144563 0)
(-0.000125832 0.000248611 0)
(1.04497e-05 -9.46398e-06 1.77665e-21)
(5.07773e-06 -2.48199e-07 1.14905e-21)
(-0.00153369 -0.00372157 -8.59141e-24)
(-3.23312e-05 7.50368e-05 -1.13364e-21)
(-1.51445e-05 2.28651e-06 1.05992e-21)
(0.00282732 -0.000132828 0)
(1.071e-05 -1.13355e-05 -3.04151e-22)
(0.000255523 -0.00313688 1.7111e-21)
(4.97701e-06 5.28103e-08 -1.12705e-21)
(-0.0814331 -0.0774306 -3.16866e-21)
(1.12457e-06 -8.95367e-06 1.46765e-23)
(8.53843e-06 1.20699e-06 0)
(-9.11854e-06 3.06678e-05 0)
(0.0135457 -0.0108006 2.31171e-21)
(0.00580031 -0.00184574 4.90275e-23)
(-5.87537e-05 6.574e-05 4.62353e-22)
(1.11037e-05 -8.59262e-06 -7.71088e-22)
(-0.00123526 0.000721715 8.79888e-22)
(-8.39637e-06 3.22386e-05 0)
(0.0200682 -0.057633 1.05746e-22)
(3.77708e-06 7.85656e-05 8.09316e-22)
(0.0119276 0.104849 -1.77608e-22)
(5.07996e-06 -6.18293e-07 -9.1073e-22)
(-0.00797598 -0.000850722 3.83399e-22)
(5.79882e-05 -9.50042e-05 -1.52275e-21)
(-2.80109e-05 9.176e-05 3.49282e-22)
(-0.00080296 -0.000528918 -2.96834e-21)
(-1.19146e-05 -0.000105008 8.57437e-23)
(-4.78675e-05 2.07398e-05 1.40683e-21)
(-7.52677e-05 1.44009e-05 9.61851e-22)
(0.00252868 -0.00189551 0)
(-2.2573e-05 4.11156e-06 2.74708e-22)
(-0.000599482 -0.000249589 -5.06552e-22)
(0.0224956 -0.0193889 -2.83313e-22)
(-9.58501e-05 -0.000108303 -9.94474e-22)
(-0.000566735 -0.000334872 -4.59783e-22)
(-2.96503e-05 1.16971e-06 -1.52211e-21)
(8.74344e-06 3.1219e-06 -6.4522e-22)
(0.00241816 -0.0019213 -2.08455e-21)
(6.96537e-05 -9.07692e-05 6.9311e-22)
(0.00755957 -0.000967222 -2.19343e-22)
(-0.000714222 0.00231316 3.44368e-21)
(-0.0284981 0.0245416 1.94641e-21)
(0.000454216 -0.000147657 1.88876e-21)
(-3.86554e-05 6.61295e-06 0)
(-0.0154941 -0.00838143 -7.1946e-22)
(2.14841e-06 4.88365e-07 4.26677e-22)
(-2.7574e-05 5.68608e-05 0)
(-2.83362e-05 5.42432e-05 0)
(0.00265136 -0.000122093 2.54028e-21)
(-6.52962e-05 -0.000332692 -7.72508e-22)
(0.0041428 -0.0101407 -1.13155e-21)
(-0.0265441 0.0184971 -2.77748e-21)
(-0.000636003 -0.000682051 0)
(1.70412e-05 1.69379e-05 1.41195e-21)
(-0.0013078 -0.000955008 -1.05937e-21)
(8.95677e-05 -0.000342178 -7.23635e-22)
(-0.000118408 0.000102556 6.37104e-22)
(8.53898e-06 1.49178e-06 1.92108e-22)
(0.00143471 -0.00387341 -1.85945e-21)
(6.01505e-08 2.18912e-06 1.45132e-21)
(0.00416339 -0.00133513 0)
(0.00550648 0.0282975 1.43925e-21)
(-0.0164639 -0.0109389 -2.31265e-22)
(0.00300465 0.0145533 -1.82913e-21)
(-0.00751581 -0.000928245 3.21774e-22)
(-3.89576e-07 4.79503e-07 1.55708e-21)
(1.0701e-06 -8.44962e-06 0)
(0.0372417 0.0263708 1.52319e-21)
(-0.000260143 -0.00118858 2.09138e-22)
(-7.23274e-07 -5.06091e-06 3.67175e-22)
(0.0155799 0.0955102 0)
(-0.000307731 0.000177748 0)
(2.73736e-05 2.61919e-05 -2.73059e-21)
(0.000114448 -0.000339999 -1.38213e-21)
(-1.90288e-05 -8.16275e-07 1.23082e-22)
(-7.4579e-07 1.57353e-07 0)
(-0.000342887 -0.00126318 -4.33521e-22)
(-2.19075e-05 1.65096e-06 -2.12957e-21)
(0.000772502 -0.00219949 2.66426e-21)
(5.10803e-06 -2.79587e-06 2.88269e-22)
(-0.0031381 -0.00328271 0)
(-6.7565e-05 8.08797e-05 9.82094e-22)
(1.6444e-05 3.9365e-05 -1.36231e-21)
(7.36357e-07 -1.72176e-07 0)
(2.21286e-05 5.07183e-06 0)
(-0.0011114 -0.000938901 -8.47351e-22)
(-0.00509566 -0.00572714 -1.82718e-22)
(0.00199742 -0.00210866 2.23011e-22)
(-1.7186e-05 -1.44936e-06 -3.25369e-22)
(0.000282144 0.000252194 -8.67779e-22)
(1.80306e-05 -1.78687e-06 -3.46091e-22)
(0.000379229 -0.000105034 2.28957e-21)
(-5.24666e-06 -4.43375e-07 1.09458e-23)
(0.0228248 -0.00379996 -1.42951e-21)
(0.000918046 -0.00265374 1.4175e-21)
(-0.00069229 -0.000142497 -1.62833e-21)
(-0.000172654 0.000148117 8.79703e-22)
(-0.00150565 -0.000591525 -1.59327e-21)
(0.0203713 -0.00354961 -1.20965e-21)
(0.000421414 -0.00287406 6.68118e-22)
(-0.000608098 0.000170524 -5.49981e-22)
(-2.82141e-05 1.15062e-05 -8.45396e-22)
(-2.15344e-05 8.5947e-07 1.66819e-21)
(-0.000427374 -0.000240245 -1.87055e-24)
(0.0152941 -0.0108081 2.3956e-21)
(-2.3079e-05 -1.68045e-06 -7.84249e-22)
(-3.01272e-05 1.69728e-06 8.55529e-22)
(-0.00156934 -0.0020264 0)
(-2.50817e-05 3.22715e-06 5.91509e-22)
(-0.000309799 -0.00189685 -1.77785e-21)
(-3.42099e-05 -0.00019651 -1.69107e-21)
(-0.00039511 0.00036616 0)
(-7.08436e-05 1.10177e-05 2.90392e-22)
(-3.03139e-05 -0.00195853 0)
(-0.000227802 0.000121644 6.05007e-22)
(0.0012349 -0.00328546 -4.4303e-22)
(-7.61058e-05 1.47307e-06 1.91267e-21)
(-0.00198301 -0.00196423 -5.25718e-22)
(-0.0177017 -0.0113698 4.02984e-22)
(8.97751e-06 3.76138e-06 -1.56169e-22)
(0.000151414 0.000204731 4.09991e-24)
(-4.36125e-05 3.56544e-05 0)
(-5.79797e-05 2.06446e-05 1.51772e-21)
(-0.000334003 0.000308556 9.798e-22)
(0.00207684 0.0063604 -1.23321e-21)
(-0.000443546 -0.00139386 4.28496e-22)
(0.00134033 -0.00310795 -4.53954e-22)
(-0.000167652 0.000275546 0)
(-8.58592e-05 4.58697e-05 -1.15086e-21)
(6.275e-06 -2.02877e-07 -8.7653e-22)
(0.00439468 -0.00079696 -2.27374e-21)
(-0.0166985 -0.00878313 5.00302e-22)
(-1.72309e-05 8.28319e-07 0)
(-4.78756e-05 -0.00253725 -7.29581e-22)
(0.00186873 -0.0360149 1.22567e-21)
(0.0192206 -0.00478565 0)
(-2.46913e-05 2.51188e-06 6.89465e-23)
(0.00193513 -0.00204447 -7.80997e-22)
(-0.000401611 -0.000233782 -1.43536e-24)
(-8.35812e-06 2.12641e-06 0)
(0.0162191 0.0937868 -2.40832e-21)
(9.86508e-06 9.83764e-05 -7.14878e-25)
(-2.20881e-05 -1.23411e-06 0)
(-0.00752987 -0.0219572 -2.65508e-22)
(0.00814758 -0.000923425 6.59091e-22)
(-0.000521681 -0.000553249 2.56336e-22)
(-8.55836e-06 9.05545e-07 0)
(-0.0015416 -0.00391799 -1.05264e-21)
(-2.65744e-05 1.09329e-05 -1.13075e-21)
(-2.62593e-05 1.18396e-05 -1.09748e-21)
(0.0011548 0.010614 5.57234e-22)
(0.00750542 0.0300208 -1.3033e-22)
(-0.000122136 -0.000116719 0)
(-8.60925e-05 5.18523e-05 1.141e-21)
(-0.000463512 -4.62465e-05 8.96574e-22)
(-5.88986e-05 6.06072e-05 -4.58719e-22)
(-0.000352932 0.000385366 7.63748e-22)
(-2.7152e-05 1.15547e-05 1.60034e-21)
(-8.67545e-06 1.41027e-07 2.20273e-21)
(-0.000171889 0.00011312 -6.29554e-22)
(0.00520584 0.00537638 0)
(-0.0011832 0.000265993 0)
(-7.44825e-05 -3.7659e-06 8.666e-22)
(-2.73641e-05 6.0584e-05 5.00638e-22)
(-0.0178003 -0.000376286 0)
(-0.000483365 -5.33068e-06 0)
(-7.54748e-06 -1.44879e-06 0)
(-0.0115905 0.0237125 0)
(5.47676e-06 3.07963e-06 -3.50954e-22)
(0.0838222 0.0241099 -1.78988e-21)
(-0.0164098 -0.00179472 0)
(-0.00128811 0.000309941 0)
(-0.00885904 -0.0236255 2.77079e-22)
(0.0039501 -0.00139939 2.39146e-22)
(-0.00329476 -0.00327171 0)
(0.00134101 -0.00231843 -1.47373e-23)
(-3.32659e-08 -7.22211e-06 0)
(-0.000251143 0.000364931 0)
(-0.000387134 -0.00215773 6.69665e-22)
(-2.26603e-05 1.86618e-05 3.41184e-22)
(-0.000108662 0.000245833 0)
(3.08139e-05 -0.00256446 0)
(1.0566e-05 -0.00274543 -7.45639e-22)
(-0.00142768 -0.00346776 1.37597e-21)
(9.6941e-06 -1.08799e-05 0)
(-1.74358e-05 5.30723e-07 0)
(-7.42553e-05 -0.000105386 0)
(-2.69787e-05 8.54778e-05 -2.99431e-22)
(-0.00777533 0.00705758 6.56901e-22)
(0.0041174 -0.00190061 4.23884e-22)
(-0.000110921 9.55752e-06 -9.67515e-22)
(-0.00182719 -0.00177293 -5.41124e-22)
(-7.57128e-06 -1.87014e-06 2.07864e-21)
(0.00813717 -0.000765475 1.60515e-21)
(0.000137659 0.00131922 2.97631e-22)
(0.0001628 6.9137e-05 1.04044e-21)
(-5.87025e-05 -3.81949e-05 0)
(0.00068571 -0.00286515 0)
(0.00731668 -0.000320899 0)
(-0.000243388 0.00036116 0)
(-0.000176043 4.47414e-05 1.87722e-22)
(0.000388817 -0.00237891 -1.73631e-21)
(5.41946e-05 -0.000184232 0)
(-2.53088e-05 -1.14979e-05 0)
(0.00449141 -0.000953833 3.26925e-21)
(-0.000250448 0.000400877 2.95755e-21)
(0.000115087 -5.48356e-05 0)
(-8.06135e-06 -1.42833e-05 2.88037e-23)
(0.00549059 -0.00206995 0)
(-0.0459282 -0.0540191 0)
(-0.000615475 -0.00052594 0)
(1.13593e-05 -1.25445e-05 1.7179e-21)
(0.00301376 0.0849277 0)
(-0.000188768 -0.000345682 1.61752e-21)
(1.23344e-05 -1.18478e-05 -1.59612e-21)
(0.000119019 0.000148539 1.40913e-21)
(-0.001241 0.00063931 -8.46176e-22)
(-0.000528131 -0.000102475 0)
(0.00242178 0.000108277 -4.73796e-24)
(-0.00125386 0.00125584 -9.29945e-22)
(1.46071e-05 -2.1786e-06 -1.2222e-21)
(0.0038604 -0.00421057 -1.26256e-21)
(1.54343e-05 -1.11437e-06 1.24535e-21)
(-5.69824e-05 6.73479e-05 -9.09553e-22)
(4.95128e-06 -8.82529e-07 1.42301e-21)
(-0.00121155 0.0016159 9.81815e-22)
(-0.000504485 -0.000177714 0)
(-0.00067444 -0.000421062 9.2226e-22)
(-2.58492e-05 1.08023e-05 1.09679e-21)
(-0.00703217 0.000604051 0)
(0.0023726 -0.00181627 -9.75625e-22)
(-7.53505e-05 -0.000168728 0)
(-9.39474e-06 8.19972e-08 0)
(0.00330361 -0.0345422 -1.03755e-21)
(-0.00142433 -0.000620708 1.94307e-21)
(0.00039941 0.0107671 -1.64199e-21)
(2.45346e-05 0.000211 0)
(-1.6205e-05 1.73089e-06 0)
(0.00323281 0.0500649 0)
(0.0199705 -0.000837455 0)
(0.00500111 -0.00199031 -1.25233e-23)
(-8.12763e-07 -2.0142e-05 9.4309e-22)
(0.00381072 -0.00345598 0)
(0.0148289 0.0181731 0)
(-0.000253933 -0.00203172 -8.45645e-24)
(0.0140887 -0.00326647 3.8595e-23)
(0.000194182 3.26515e-05 0)
(-5.652e-07 -1.94415e-05 1.38421e-21)
(0.000220761 1.81828e-05 3.53273e-22)
(0.00820732 -0.000812661 -2.17533e-21)
(-2.46996e-05 -1.63885e-05 5.95469e-22)
(0.000209325 -1.45583e-05 1.34788e-21)
(-2.09625e-05 -4.82454e-06 1.01691e-21)
(0.000223772 0.000389141 -9.09075e-22)
(0.000845122 -0.0022696 -8.94876e-22)
(-0.000210403 -0.000542848 -9.52822e-22)
(0.00294892 -0.000615869 0)
(-0.00273873 -0.0488095 -3.43466e-22)
(7.62099e-06 -1.96859e-06 4.93525e-22)
(0.000161362 -0.000378517 -1.06841e-21)
(0.0256867 0.0210211 -7.48244e-22)
(-6.07824e-05 5.85011e-05 -4.48111e-22)
(-9.79441e-05 -0.000695412 0)
(-0.000693165 -0.00123824 -8.92147e-22)
(-0.00562765 -0.0056325 0)
(0.019687 -0.0142353 7.79191e-22)
(2.69936e-05 -7.79811e-06 6.13296e-22)
(-2.41617e-05 -1.45834e-05 1.13509e-21)
(-0.000897327 -0.000587293 2.32134e-21)
(-0.000877297 0.000347926 3.4722e-22)
(-0.0146749 0.014775 -2.79604e-23)
(-0.000187923 1.07008e-05 6.36977e-22)
(-0.000112012 0.000229195 0)
(-6.51818e-05 8.14892e-05 0)
(0.0213935 -0.0226493 0)
(-0.0314603 0.0564599 -1.68043e-21)
(-0.00155645 0.00375002 -1.91441e-23)
(-6.7607e-05 -0.000159418 0)
(9.14061e-06 -7.88101e-06 -9.7953e-22)
(-2.24855e-05 2.08202e-05 7.63313e-22)
(-0.000204614 -1.04964e-05 -1.30486e-22)
(9.7815e-06 -9.82409e-06 0)
(0.00519304 -0.00191843 -2.16001e-22)
(-0.0110577 0.0146363 1.39124e-21)
(0.00237879 0.00693038 0)
(0.000413914 0.000388248 -6.47235e-22)
(-0.00100402 0.000313728 2.62618e-21)
(-0.00195163 -0.000172709 8.8554e-24)
(0.00821368 -0.00094596 0)
(-0.000529852 -0.00144937 -8.34039e-22)
(0.0517446 0.0511002 -3.13211e-21)
(-0.000329958 -0.00152455 8.12761e-22)
(-0.00331968 0.00123571 0)
(-6.84884e-05 0.000124226 5.08987e-22)
(-7.29848e-07 -9.4184e-07 -3.85969e-22)
(7.32659e-06 2.14042e-06 3.36353e-22)
(4.58238e-06 -2.87216e-06 0)
(-9.39283e-05 -8.10902e-05 3.38547e-24)
(0.000192517 6.35699e-05 0)
(-8.62585e-06 4.82359e-06 0)
(-0.000738647 -0.000291011 1.03817e-21)
(-1.32832e-05 5.86261e-05 0)
(-0.000121687 -0.000407525 8.08515e-22)
(-0.0578778 0.00218819 3.31011e-21)
(-8.10044e-05 3.39803e-05 -9.26464e-22)
(-0.000159356 0.000116352 1.33766e-21)
(-2.55278e-05 -1.29545e-05 -1.30298e-21)
(2.26733e-06 6.84058e-07 -3.46881e-22)
(-0.000811899 -0.000157513 -5.90729e-22)
(-2.43841e-05 7.3046e-07 -7.26888e-23)
(0.000388221 0.00035782 2.18181e-21)
(1.58621e-06 0.00026699 0)
(-0.000104084 6.70283e-06 1.26899e-21)
(-0.0118914 0.0165163 9.98177e-22)
(0.000155654 0.000159082 -2.13298e-21)
(2.94993e-05 -0.000256337 0)
(-0.0106603 -0.0371899 0)
(-8.47895e-06 5.35389e-06 1.03194e-21)
(5.76487e-05 0.000240044 0)
(-0.00130437 0.00138826 -1.61854e-21)
(-0.00157756 0.0078009 0)
(0.0054247 0.0067307 -1.41428e-21)
(-8.57612e-06 5.47114e-06 -9.99867e-22)
(-0.000902124 -0.00382451 -1.25829e-21)
(0.00204851 0.000861588 7.682e-22)
(0.00130047 -0.00353651 1.0523e-21)
(-1.27763e-05 5.74631e-05 0)
(-5.08967e-05 2.06192e-05 0)
(0.0524491 0.0384428 0)
(0.0152574 -0.00716259 0)
(-8.37477e-05 0.000111782 0)
(-7.30207e-05 0.000169888 -2.01361e-24)
(-0.0327388 0.0595668 0)
(-0.00136591 -0.00397499 -1.17291e-21)
(-2.03799e-05 -2.15001e-06 -9.58497e-22)
(-0.000229751 -0.0253702 0)
(4.68357e-06 -1.15708e-07 1.29851e-21)
(0.00905629 -0.000617096 -8.05076e-22)
(2.86468e-05 -0.000863457 4.71539e-22)
(-2.63516e-05 -1.47345e-05 0)
(-6.28105e-05 -0.00116272 -1.35276e-21)
(-3.13376e-05 8.0984e-05 -2.23862e-21)
(-2.55443e-05 -1.27419e-05 1.19356e-21)
(-0.0011812 -0.00408152 1.15248e-21)
(-0.126679 -0.143128 0)
(-1.92489e-06 1.06361e-06 -1.53577e-21)
(-5.90397e-05 2.27809e-05 -1.0591e-21)
(-8.59572e-06 5.88388e-06 1.89038e-21)
(1.12097e-05 5.04123e-06 0)
(0.00661614 -0.00171459 -1.1521e-21)
(0.00261616 -0.00309484 0)
(1.19092e-05 -9.23143e-06 0)
(0.00358279 0.014447 1.34075e-21)
(0.0173606 -0.00893854 0)
(-2.0994e-05 -6.55215e-06 -1.32052e-21)
(1.81435e-05 -2.5204e-06 0)
(1.1908e-05 -8.89255e-06 0)
(0.000976199 -0.00280506 0)
(0.0018296 -0.00220266 1.64859e-21)
(-0.00196736 0.0393393 1.60813e-21)
(-0.126017 -0.146727 -1.40094e-22)
(-9.35656e-05 0.000275458 0)
(0.00184182 -0.00453169 2.56339e-22)
(-2.46595e-05 1.44348e-06 -6.78011e-22)
(-8.11614e-06 -3.55503e-07 0)
(0.00156377 -0.0254223 -6.12225e-22)
(-2.06993e-05 -3.59367e-06 1.23121e-24)
(-0.00167714 -0.00186997 -8.70207e-22)
(-0.00353607 -0.0493068 2.76789e-21)
(0.00351952 -0.0379154 -5.92124e-22)
(-0.000341789 -0.00282197 1.45568e-21)
(-0.000141862 -0.0012443 1.18632e-21)
(1.21024e-05 -7.6126e-06 -2.48372e-22)
(-0.000312459 0.000206852 0)
(0.0801634 0.0141224 0)
(-0.00750878 0.0132599 0)
(-2.5988e-05 9.69621e-05 3.26009e-22)
(0.0114278 -0.0453824 0)
(-0.000111901 0.000250546 -1.27761e-21)
(-2.62654e-05 -1.49637e-05 -7.64042e-22)
(0.00550399 0.00485435 -9.07762e-22)
(-1.74279e-05 -1.36785e-08 1.52404e-21)
(-0.00193174 4.42082e-06 -7.96654e-22)
(-0.000102874 0.000154666 0)
(-0.00323573 0.00920111 0)
(-2.98374e-05 8.34098e-05 7.01008e-22)
(-0.00029219 -0.0021809 -1.18621e-23)
(-0.00268152 -0.00123163 -1.6375e-22)
(0.00842527 -0.000758722 8.65849e-22)
(1.19616e-05 -7.44596e-06 -2.45986e-22)
(-0.000175908 -8.98175e-05 0)
(-2.10008e-05 5.00743e-06 -9.77178e-22)
(-0.000581874 0.000102356 -3.53173e-22)
(0.00168637 -0.00218492 -1.68489e-21)
(0.00660606 -0.0486915 -1.4358e-21)
(0.00216637 -0.00193517 0)
(-0.0127881 0.00266602 5.26239e-22)
(-0.000567111 0.000484574 0)
(-0.000264513 0.000122383 -1.25841e-21)
(0.00468041 0.0039563 1.25811e-21)
(-0.0015697 0.000704966 -8.48672e-22)
(0.00213102 -0.00203375 0)
(-0.0123397 0.00392466 5.78622e-22)
(-2.74475e-05 1.09684e-05 0)
(0.000202405 -0.000748642 9.31073e-22)
(-0.00166274 0.000651037 0)
(4.42187e-06 -0.000822065 2.39017e-22)
(-0.00817346 0.0149468 0)
(-0.00109528 0.000380964 0)
(0.0011746 -0.0039992 0)
(0.0266509 -0.0165312 5.88754e-22)
(-0.00146123 -0.00352374 -3.11026e-21)
(-2.05467e-05 3.26955e-06 -2.60152e-21)
(1.09191e-05 -7.15496e-06 -1.92168e-21)
(0.00524342 -0.00214886 1.37622e-21)
(-5.4229e-05 1.65734e-05 0)
(-8.05825e-06 3.81354e-06 -2.22157e-21)
(5.09065e-06 -2.1825e-06 0)
(1.26148e-05 -2.82935e-06 -4.38101e-22)
(-0.000283349 0.000134967 0)
(0.0098537 -0.000309159 0)
(0.0109964 0.00455081 3.88784e-21)
(-0.0217061 -0.0489496 -9.84712e-22)
(0.00532333 0.00405506 0)
(-2.80584e-05 7.50574e-06 -2.80735e-22)
(-3.30848e-07 3.4267e-05 -1.05007e-21)
(-0.0437881 -0.0460877 6.94921e-22)
(-7.98398e-05 6.97125e-05 1.64473e-21)
(-0.000102666 -7.33852e-05 -1.392e-21)
(0.000398621 -0.00122307 8.15961e-22)
(-0.0454145 -0.0365439 -7.64877e-23)
(-9.67294e-06 -7.85952e-06 -1.85168e-21)
(-2.7729e-05 1.05437e-05 -1.13609e-21)
(-0.000373386 0.00068402 0)
(-9.04373e-05 5.14271e-05 6.10234e-22)
(-0.0120983 0.0259191 -1.0384e-21)
(0.00852974 -0.000687803 0)
(-9.29381e-05 1.30012e-05 7.95137e-22)
(0.000131463 -0.000378273 3.86419e-22)
(0.00183527 0.00763589 0)
(-0.00347507 0.0101734 3.78554e-21)
(-2.09643e-05 5.09734e-06 5.41412e-22)
(1.46049e-06 -4.4443e-06 0)
(-0.00208325 -0.000976363 -5.58835e-22)
(1.32799e-05 -1.06076e-06 0)
(-0.0217027 0.0151213 -2.59434e-23)
(-0.0184057 -0.0130403 -2.06441e-21)
(-0.000580901 0.000127011 2.93684e-22)
(0.000228776 0.000250674 0)
(2.88424e-05 -7.43134e-06 0)
(0.00099666 -0.00386729 0)
(0.000254352 0.000421737 -4.82878e-22)
(0.00183361 0.00181073 1.01136e-21)
(6.49597e-06 -0.000279209 0)
(-0.000179264 -3.05829e-05 0)
(-0.000380055 -0.000187445 0)
(0.017818 -0.0132745 0)
(-0.000405257 -0.000194081 9.30255e-22)
(-4.21351e-05 -3.35415e-06 0)
(-6.89692e-05 1.90091e-05 -8.02367e-25)
(-0.00483696 0.0118171 -1.52139e-21)
(-0.00179828 0.00391155 -1.27963e-21)
(-0.000257178 0.000397239 1.47454e-24)
(-6.05628e-05 5.32861e-05 4.74224e-22)
(0.00750403 -0.00151173 8.92311e-22)
(-0.000290754 0.000350774 -7.45307e-22)
(-0.000860645 -0.00417822 1.10496e-21)
(-0.00251797 -0.00120588 1.38109e-22)
(0.00728933 0.0484108 0)
(-1.96099e-06 1.99226e-08 2.0033e-21)
(0.00433448 -0.00611272 0)
(-0.0151126 0.0134611 0)
(0.0545967 -0.0201499 0)
(-0.00209606 -0.00229416 3.92069e-22)
(0.00203848 -0.0006648 -8.58154e-22)
(0.00895415 -0.000698391 0)
(2.93704e-06 2.99325e-07 5.36347e-22)
(-0.000135527 0.000264635 3.27895e-22)
(0.0128604 -0.00290022 0)
(0.00109789 -0.00269878 6.54077e-22)
(-8.95829e-06 -6.57808e-06 -5.07378e-22)
(-0.000875485 -0.000378766 1.3398e-24)
(0.0397121 0.0584211 -1.38466e-21)
(0.000197998 0.000204445 2.09779e-21)
(-0.000191867 0.000148909 1.35063e-21)
(0.00998219 -0.000260119 -6.40184e-24)
(0.00730377 0.0977395 0)
(-0.000332904 -0.00179906 0)
(0.00188558 -0.000601605 0)
(0.0100385 -0.000238605 8.38332e-22)
(-3.32517e-05 1.13514e-05 0)
(-0.000676579 -0.000928259 4.65372e-22)
(-0.00151746 -0.00357787 3.07909e-21)
(6.34245e-05 -0.000170527 4.92403e-22)
(-0.0144162 -0.00631091 0)
(2.46702e-05 -5.41231e-06 -7.46494e-25)
(-4.70811e-05 1.42429e-05 8.02871e-22)
(2.85962e-05 -3.91357e-06 0)
(-0.00276853 0.00296785 0)
(0.00151599 0.00179564 9.74298e-22)
(0.00273448 -0.00208332 0)
(-0.00964957 -0.00234173 0)
(0.00397601 -0.0021298 1.08307e-21)
(0.00260123 7.68273e-05 -1.62972e-21)
(-6.91571e-05 -0.000115871 3.2182e-22)
(-0.0108774 -0.00419056 0)
(-3.98163e-05 -0.0063452 -1.42423e-22)
(1.47576e-05 -0.000546825 2.56414e-21)
(-2.75584e-05 0.000100157 1.52942e-21)
(5.64571e-06 1.58462e-06 -1.43119e-24)
(-0.0226707 0.0138298 -5.77443e-22)
(-6.61913e-05 2.01041e-05 0)
(-0.00232385 -0.000988364 6.30488e-22)
(-4.22568e-05 6.9589e-05 -8.16833e-22)
(-2.78865e-05 -2.96172e-07 7.89542e-22)
(-8.55757e-06 -4.82779e-06 4.78416e-22)
(-3.14067e-05 -8.06355e-06 -1.11098e-25)
(0.0041081 -0.00129178 -8.53316e-22)
(-1.14178e-05 -8.71653e-06 -5.88738e-22)
(6.1428e-06 5.1901e-06 -1.30122e-21)
(9.32087e-06 2.26147e-06 2.0377e-21)
(-0.0002571 0.000356113 -2.01314e-21)
(0.0221744 0.00748859 0)
(-0.00246451 -0.00100156 -7.0189e-22)
(0.00157399 -0.00359695 4.49207e-22)
(-8.39463e-06 -5.19052e-06 0)
(-1.78562e-06 1.72975e-08 1.49945e-21)
(0.00434675 0.00245163 0)
(-2.08028e-05 4.56756e-06 0)
(-0.000183121 -5.80715e-05 -4.5097e-22)
(-0.00634326 -0.0526157 4.7741e-22)
(3.49621e-06 1.66444e-06 3.7798e-22)
(0.0073925 -0.00138822 0)
(-0.00266261 0.00273024 8.79617e-22)
(-0.02077 -0.0535052 7.07696e-22)
(-0.00243933 0.00399821 0)
(-8.3897e-06 4.18285e-06 0)
(-2.06078e-05 -7.75852e-06 -1.06834e-21)
(-3.29115e-05 1.14664e-05 2.20269e-21)
(7.30038e-05 -0.000502029 -1.78936e-21)
(-0.0363076 0.102267 0)
(-0.0341 0.0466142 1.39714e-21)
(-8.96944e-05 5.61307e-05 0)
(-0.000152719 -0.000656835 1.11552e-21)
(1.1048e-05 -1.1163e-05 2.64516e-22)
(0.00240568 -0.00278753 1.89599e-21)
(-7.27191e-05 -0.000124926 4.20188e-22)
(-3.98514e-05 3.75613e-06 0)
(-8.40933e-06 4.85235e-06 0)
(-0.0021748 0.0417306 0)
(-0.00226155 0.00203643 -9.94643e-22)
(-6.1647e-05 5.11175e-05 -5.0787e-22)
(-0.000893793 0.00425128 3.71827e-22)
(-0.100847 -0.060622 -8.72764e-21)
(-0.00196101 -0.000960671 0)
(-0.000168894 0.000157259 0)
(0.00473809 0.00446087 0)
(1.55578e-06 -9.17488e-06 9.03011e-23)
(-0.0175628 -0.0145747 0)
(-7.9339e-05 0.000193253 3.28116e-22)
(-4.87884e-07 1.16478e-06 -3.68674e-22)
(-4.50615e-05 6.44048e-05 2.24727e-25)
(0.0280766 0.0197597 8.01952e-22)
(1.15824e-05 -1.03232e-05 2.51439e-22)
(-0.000505173 -0.00114164 0)
(1.22516e-05 -6.26238e-06 0)
(0.0135957 0.0965352 -5.10167e-22)
(-0.0403027 0.0570788 7.8276e-22)
(-0.0214223 -0.0473995 1.08243e-21)
(1.42932e-06 2.74859e-07 -2.67747e-22)
(-5.98146e-05 -1.83471e-05 -1.62037e-21)
(5.54819e-06 5.16962e-07 1.43899e-21)
(-4.74812e-05 1.38622e-05 1.53094e-21)
(-2.54791e-05 1.18994e-05 0)
(-0.0144335 0.00281084 -6.47493e-22)
(-0.000646818 -0.00127312 1.37176e-23)
(-1.49339e-05 -2.85074e-06 0)
(1.32777e-05 3.67623e-06 0)
(2.9778e-05 -7.00653e-06 0)
(0.0284255 -0.0147646 0)
(0.00666449 -0.00132228 0)
(0.002141 0.00818449 1.28289e-21)
(0.00372288 0.0144787 -7.84862e-22)
(0.00107252 -0.00277456 3.18663e-24)
(-0.000101671 -4.58005e-05 -1.36558e-21)
(1.04136e-05 -4.62718e-07 0)
(-2.02001e-05 -7.01155e-07 0)
(-0.000839651 0.000353173 0)
(0.00124333 -0.00205539 1.33167e-21)
(-4.8147e-05 1.47463e-05 4.64509e-22)
(-0.00115986 -0.00348042 -1.89609e-21)
(-0.000214766 -0.000276739 0)
(0.00436261 0.0148466 -1.96764e-21)
(-3.9451e-05 3.17794e-06 0)
(0.00418093 -0.00176406 -1.90827e-21)
(0.0163033 -0.0104065 0)
(-0.000212088 0.000197049 -1.06273e-23)
(-4.00769e-07 -1.8093e-05 1.39784e-21)
(0.00977778 -0.00032565 8.06963e-22)
(-2.72711e-05 -1.04837e-05 -2.62799e-22)
(-1.72211e-05 -0.00019419 1.28097e-21)
(0.0163449 -0.015491 0)
(1.42603e-05 0.000112254 1.60261e-21)
(-0.000328534 0.000425228 0)
(-2.84525e-07 -1.71045e-05 -2.53003e-21)
(0.0679077 0.0309811 0)
(-7.95382e-05 3.71495e-05 -4.94278e-22)
(-0.000478839 0.000916987 -3.09303e-24)
(0.00226726 -0.00333079 0)
(0.0149912 -0.00218375 -2.09699e-21)
(-0.0150795 0.00135632 -5.3473e-22)
(-2.70601e-05 -9.99578e-06 2.39494e-22)
(-0.000481995 -0.00121937 -5.50973e-22)
(-6.57504e-05 3.06676e-06 3.70683e-22)
(-1.75896e-05 6.84022e-07 0)
(-0.000132659 0.000244011 -3.57478e-24)
(-1.33132e-05 1.27896e-05 1.1983e-21)
(-0.000312182 0.000387284 -8.26786e-22)
(-2.80598e-05 4.8221e-06 6.35116e-22)
(-0.0700659 -0.0737819 4.21331e-21)
(0.0249043 0.109437 5.4691e-22)
(0.021441 0.103248 -6.50269e-22)
(-0.000127322 0.000248124 1.03579e-21)
(-0.000116476 -0.000106805 0)
(0.00306321 -0.000749198 2.26587e-21)
(2.01031e-05 -0.000204238 0)
(-2.83419e-05 8.89101e-05 0)
(2.25455e-06 -4.28472e-06 5.26641e-22)
(-2.51183e-05 1.11023e-05 -5.33482e-22)
(-0.000679926 -0.00107801 1.01801e-21)
(0.00133564 0.00890665 0)
(-0.00112552 -0.00337705 0)
(1.27334e-05 -4.97009e-06 2.47938e-22)
(1.2907e-05 -3.66756e-06 -2.43133e-22)
(0.00109767 -0.00281174 1.20938e-21)
(8.5383e-07 -5.21797e-06 0)
(3.75922e-05 -0.000183954 0)
(-0.000793096 0.00241787 -2.82015e-21)
(0.00389316 -0.00208779 0)
(6.82187e-05 -0.00118894 -2.06528e-21)
(-0.100849 -0.0447889 0)
(-0.003769 0.00288728 -3.87605e-22)
(0.000633578 0.0403966 0)
(0.0175095 -0.0135757 -2.45916e-21)
(-7.80693e-05 3.61023e-05 0)
(0.00196399 -0.00221127 -1.98325e-21)
(-0.000101745 -0.000106857 -5.29031e-26)
(-0.0155862 -0.00652687 -3.71868e-22)
(0.00306694 0.00643678 0)
(-2.04354e-05 9.47862e-07 1.01363e-21)
(-2.00235e-05 -0.000823706 0)
(0.00700531 -0.035677 3.64603e-21)
(-0.000243473 0.000132452 0)
(-2.03383e-05 -4.48912e-07 0)
(0.00719173 -0.00146735 3.09688e-22)
(-8.23834e-05 7.37891e-05 -1.07683e-21)
(0.000286039 -0.000535921 2.41067e-21)
(0.00673171 -0.000994139 1.00415e-21)
(-0.0257744 -0.0483462 1.58652e-21)
(-0.000319514 0.000953425 9.24887e-22)
(-0.00388373 -0.0386628 1.24818e-21)
(-0.0204276 0.010336 -5.6133e-22)
(-0.000149762 0.000106728 -1.93768e-21)
(-0.0079141 -0.00460592 6.55621e-22)
(-1.12629e-05 -1.39839e-05 1.2357e-21)
(0.00350827 0.00628169 7.03301e-22)
(-0.0352658 0.0472155 2.52367e-21)
(-9.73758e-06 2.00862e-07 0)
(-2.02076e-05 -9.09144e-06 1.16533e-21)
(0.0119915 0.0143307 6.38694e-22)
(9.70504e-06 -6.96989e-06 9.82331e-22)
(-0.0272736 -0.00331315 -2.63254e-21)
(0.0813177 0.0277822 -1.4676e-21)
(-0.125046 -0.139477 0)
(-7.29762e-05 5.83344e-06 -1.01962e-21)
(-0.120277 -0.141491 5.68745e-22)
(0.00015227 0.00121847 0)
(6.85552e-06 6.6518e-07 0)
(-2.63427e-05 -1.14889e-05 0)
(-1.14224e-05 -1.25145e-05 -1.76995e-21)
(-1.87204e-05 -9.97568e-06 1.18124e-21)
(-5.54981e-05 -1.93539e-05 7.95139e-22)