/*--------------------------------*- C++ -*----------------------------------*\
| =========                 |                                                 |
| \\      /  F ield         | OpenFOAM: The Open Source CFD Toolbox           |
|  \\    /   O peration     | Version:  v2012                                 |
|   \\  /    A nd           | Website:  www.openfoam.com                      |
|    \\/     M anipulation  |                                                 |
\*---------------------------------------------------------------------------*/
FoamFile
{
    version     2.0;
    format      ascii;
    class       surfaceScalarField;
    location    "300";
    object      ddtCorrDdt0(phi);
}
// * * * * * * * * * * * * * * * * * * * * * * * * * * * * * * * * * * * * * //

dimensions      [0 3 -2 0 0 0 0];
oriented        oriented;


internalField   nonuniform List<scalar> 
56329
(
-1.26625e-06
-3.11261e-07
1.57715e-06
-6.68062e-05
4.59007e-05
2.09078e-05
-3.29617e-05
2.88263e-05
4.13456e-06
0.000193196
-0.000231858
3.86548e-05
-4.13739e-05
1.617e-05
2.52046e-05
1.36063e-06
-1.44008e-06
7.95141e-08
-1.02708e-06
6.49224e-07
3.7899e-07
0.00124483
-0.00108284
-0.000161962
1.00441e-05
-9.51582e-06
-5.2859e-07
7.14913e-05
-9.40057e-05
2.25141e-05
-0.000295265
0.000592558
-0.000297293
4.3713e-05
-7.49042e-06
-3.62252e-05
4.20337e-05
6.25437e-05
-0.000104581
-0.00013514
0.000186361
-5.12195e-05
-2.0117e-05
-5.56977e-06
2.56869e-05
-1.00179e-05
1.3984e-05
-3.96674e-06
-1.86121e-07
3.59716e-07
-1.74048e-07
0.000152986
-2.63168e-05
-0.000126677
5.44738e-06
3.82641e-05
7.87322e-06
-8.78493e-06
9.12411e-07
-1.16224e-05
1.60487e-06
-0.000183166
-0.000189253
0.000372416
0.0217038
-0.0325112
0.0108073
-0.000157343
-0.00125241
0.00140975
-0.000237244
3.1638e-05
0.000205569
-2.80975e-06
-8.97263e-07
3.70609e-06
-2.79515e-05
1.48653e-05
1.30918e-05
-0.000297412
-1.22472e-05
0.000309664
6.73306e-05
-4.21759e-05
-2.51544e-05
3.08772e-06
-2.74296e-06
-3.44841e-07
0.000655403
-0.00101498
0.000359581
-7.44323e-05
-0.000124415
0.000198865
-3.87613e-07
-5.96842e-06
6.36099e-06
0.000108165
-0.00567893
0.0055708
3.62915e-05
-1.58709e-05
-2.04222e-05
-5.34266e-06
-3.60496e-05
8.18241e-06
2.78712e-05
0.000206753
-6.38253e-05
-0.000142917
0.0198681
-0.011984
-0.00788422
-3.44301e-05
4.21289e-05
-7.69595e-06
5.14016e-06
5.05008e-06
-1.01901e-05
0.00292528
-0.00353184
0.000606551
-1.12448e-05
-4.53927e-06
1.57847e-05
7.59795e-05
-0.0001143
3.83199e-05
-2.22306e-06
-4.22032e-06
6.44233e-06
8.53568e-06
-3.29535e-05
2.44171e-05
-3.89511e-07
-7.47882e-06
7.87081e-06
3.11734e-05
3.27771e-05
-6.39484e-05
3.1909e-06
-3.73143e-06
5.44234e-07
0.000166456
-0.000536845
0.000370388
6.23869e-06
-0.000383883
0.000377626
-0.0255967
0.0212432
0.00435348
-0.00722812
0.00733629
2.63845e-05
-0.00570529
1.52898e-05
2.10039e-05
-3.22383e-05
5.22498e-05
-2.00129e-05
-2.17264e-05
0.000171506
-0.000149779
2.35908e-05
-2.53739e-05
1.78326e-06
0.000137755
0.000134087
-0.000271844
-0.000165806
-5.30931e-06
0.000171123
-2.71017e-05
3.56373e-05
5.68894e-05
9.19534e-06
-6.60849e-05
0.000223304
-3.01095e-05
-3.16577e-05
0.000107637
0.00011937
0.000278683
-0.00039805
-3.31905e-05
1.30738e-05
-3.73932e-05
-2.94079e-05
-2.59e-05
0.000140313
-0.000114409
-2.91762e-05
9.35335e-05
-6.43583e-05
-0.000991337
0.000246344
0.000744989
2.11817e-05
-5.34194e-05
-3.05202e-06
3.5599e-06
-5.07244e-07
-0.0240514
-0.0015453
-7.69101e-05
-6.39368e-06
3.12578e-06
-2.87972e-06
-2.45931e-07
0.0112689
-0.00245103
-0.00881784
0.000496986
-0.000330528
-1.07889e-06
3.04389e-06
-1.9642e-06
1.00955e-05
4.58536e-06
-1.46805e-05
-3.95999e-06
8.35178e-07
3.12547e-06
8.6881e-05
-0.000118539
1.69318e-05
0.000136041
-2.90293e-07
-1.15759e-05
1.1867e-05
-0.0072673
3.92056e-05
-4.5435e-05
-0.00451483
0.00456029
-0.000105805
5.49173e-05
5.08878e-05
-0.000291165
-0.000134334
0.000105157
-2.98451e-05
-6.20333e-06
-3.80519e-06
9.947e-07
3.64041e-05
0.000121025
-0.000157409
3.10284e-05
-4.42195e-05
1.31918e-05
-1.36222e-07
3.26205e-06
5.89475e-05
-2.05872e-06
3.97486e-06
-5.51249e-06
1.53775e-06
-2.26556e-05
0.000111789
-8.91377e-05
4.73998e-06
-7.64976e-07
-3.71273e-06
2.88406e-06
-0.00024576
8.50883e-06
6.48845e-06
-4.22842e-06
-2.2595e-06
-0.000169453
0.000147727
-2.99352e-07
-1.93085e-06
2.23071e-06
-0.000203315
0.000322686
-0.00366583
0.0036204
3.9538e-05
-1.67765e-06
-3.78605e-05
-0.00034002
0.000156781
-3.0478e-06
2.06052e-06
9.87658e-07
-0.000995522
0.00249892
-0.00150339
-0.00994886
-0.00186201
0.0118112
1.02559e-05
-2.93118e-05
1.90566e-05
2.35295e-05
-0.000100444
6.04984e-05
8.94755e-05
-0.000149983
-3.21109e-05
-2.32014e-06
8.83072e-05
-0.000104435
1.61229e-05
0.00018602
-0.000125513
3.22882e-05
-2.18572e-05
-1.0431e-05
1.35217e-06
-3.18073e-06
1.82748e-06
-0.00108027
-0.00438642
0.00546668
-3.28573e-06
1.96563e-05
-1.63707e-05
-0.00951335
0.00856413
0.000949043
0.00145836
-0.00064067
-0.000817704
0.000434561
-0.000579646
0.000145152
3.24133e-06
-5.46479e-06
2.73521e-05
2.05401e-05
-4.78905e-05
-0.00921871
0.0018845
0.00733418
-4.53797e-07
-1.30913e-06
1.76335e-06
2.00404e-06
-9.43659e-06
7.43267e-06
-6.25672e-06
3.33591e-06
2.92063e-06
-4.22676e-06
4.38347e-06
-1.56033e-07
3.16312e-05
-2.12216e-05
-1.04099e-05
-2.00201e-05
-1.31706e-05
-1.75718e-05
5.96069e-05
-8.32455e-06
3.56784e-05
1.48693e-06
-1.94063e-06
-8.1983e-06
5.49841e-06
2.70021e-06
9.54469e-05
-0.000155372
5.99256e-05
0.00104906
-0.0102678
-0.000206153
-5.75572e-05
0.000263731
3.0209e-05
-1.79148e-05
-1.22953e-05
4.85808e-05
-4.31346e-05
-0.000617845
0.00354311
-0.000203894
6.8755e-05
-8.19583e-07
1.40593e-05
-1.32396e-05
-4.79806e-06
5.71381e-07
6.49694e-06
-6.59544e-06
9.87468e-08
6.96865e-06
4.16109e-05
2.2525e-05
1.46078e-05
-3.71321e-05
3.1743e-06
-5.27051e-06
2.0962e-06
-1.80632e-07
1.66804e-06
0.000223184
-9.33905e-05
-0.000129802
-1.14094e-05
1.05899e-05
-4.77162e-06
5.51406e-06
-7.42421e-07
-5.0781e-05
-8.5507e-05
0.000136287
-3.08236e-06
0.000815334
-0.000159925
1.6061e-06
-1.78649e-06
0.000553734
-0.00986845
0.00931468
3.46154e-06
5.6991e-10
-3.46224e-06
3.4949e-06
-1.60065e-06
-1.89433e-06
9.20815e-06
-2.1067e-06
-7.10332e-06
0.000655485
4.90015e-05
-0.000704505
0.000129827
-0.00020427
-7.47959e-06
-7.38922e-06
1.4869e-05
-4.33231e-06
-9.37796e-07
-0.00012115
0.00012121
-6.01924e-08
1.7073e-06
7.49978e-06
0.0119689
-0.000926342
-0.0110422
1.2668e-05
-1.06643e-05
0.0229936
-0.0370933
0.0140997
1.60522e-06
-2.44602e-07
0.000124192
-0.00062204
0.000497847
3.27771e-06
2.03258e-05
-2.36012e-05
-1.72933e-05
1.40077e-05
-0.000179954
-2.39393e-05
3.35918e-05
-1.30509e-05
9.96992e-06
7.43457e-08
-1.83551e-05
-3.81781e-06
2.21713e-05
-0.000182959
-0.000199589
0.000382548
-6.38158e-06
-1.81633e-06
-0.000236066
0.000147986
8.8085e-05
-0.00267662
-0.000855217
-2.70902e-05
4.3578e-05
-1.64882e-05
-0.000195329
-4.0736e-05
-8.83317e-06
4.61482e-06
4.21896e-06
-1.79085e-06
3.76958e-06
-1.97876e-06
-6.98438e-05
-2.95109e-05
9.93318e-05
2.70013e-05
-2.37194e-05
-0.00025888
5.2725e-05
7.61912e-05
-0.000197645
0.000121452
-0.0107877
0.00769967
1.43839e-06
-2.93706e-05
2.79325e-05
9.72695e-06
-1.85353e-06
-0.00137746
0.00161119
-0.000233734
-6.8185e-07
1.19488e-07
5.62631e-07
-1.66577e-06
1.16815e-05
-1.00155e-05
1.03202e-05
-1.19859e-05
9.85633e-05
-0.000149344
-6.00511e-05
-4.57531e-05
-0.000343292
-4.05829e-05
-0.00643234
-0.00435532
9.97678e-05
-1.28872e-05
8.65389e-06
-6.82539e-06
-1.82166e-06
7.45528e-05
0.000283495
-0.000358043
1.21946e-05
-3.9297e-05
1.22681e-05
2.08956e-06
1.40552e-06
-3.03613e-05
-0.000120891
0.000151266
6.72418e-07
2.1348e-07
-8.85959e-07
-0.000157661
0.000189413
-3.17394e-05
0.0118955
-0.00505549
-0.00684006
-0.00151671
0.00176324
-0.000246528
0.000136703
0.000703191
-0.000839889
-0.000412653
-1.03697e-07
-8.25609e-08
2.72324e-06
7.38395e-07
0.00560568
-0.00668601
-5.34527e-05
-2.14743e-05
7.49756e-05
-1.56556e-06
-0.0134613
-1.44882e-05
-1.15834e-05
2.6072e-05
1.02968e-05
-1.63985e-06
-2.99725e-05
4.21668e-05
-5.87693e-06
5.3968e-06
4.82519e-07
7.63827e-08
4.54767e-07
-5.31661e-07
-8.46908e-05
3.12591e-05
-6.09989e-06
7.67291e-06
-1.57261e-06
-7.66814e-05
-1.57379e-05
9.2421e-05
-2.11916e-06
1.73461e-06
3.84922e-07
-1.6566e-05
-0.000192144
0.000208699
-1.31719e-05
-3.32007e-06
1.64926e-05
1.44516e-05
-4.15108e-06
-4.66677e-07
4.66512e-07
-2.06944e-06
-4.75666e-06
0.000353238
-1.41116e-05
0.000656842
-0.000642733
0.000138505
-8.10366e-05
-5.74629e-05
-4.83122e-06
-1.04464e-06
-9.87526e-06
-7.97841e-05
8.9663e-05
-5.50204e-06
6.69159e-06
-1.19001e-06
2.36567e-05
-2.22197e-05
-1.81877e-06
2.26513e-06
-4.45421e-07
0.000865112
-0.00453093
-0.000100623
7.79652e-05
4.77605e-05
-8.57479e-05
3.79858e-05
2.21498e-05
9.4812e-06
-7.94558e-05
0.000102993
-0.00309957
0.00396468
-0.000110401
-8.11947e-06
0.000118515
-7.26841e-05
1.74842e-05
5.51939e-05
2.63858e-07
-7.17885e-06
6.91543e-06
-7.78407e-06
1.68399e-06
4.74332e-05
1.15138e-05
-0.000132885
0.000788365
-4.75117e-06
-3.31593e-06
8.06557e-06
-5.12538e-06
-3.70753e-06
0.000224788
-0.000285368
6.0577e-05
-5.84548e-06
7.07602e-06
-1.23077e-06
-0.00017038
0.000506506
-0.000336126
-1.26616e-05
-9.94536e-05
0.000176972
-7.75214e-05
-2.3169e-05
4.81708e-06
-0.000627089
0.00045671
1.47361e-05
3.4471e-05
-4.9207e-05
-0.000140494
6.86425e-06
0.000133609
-2.09915e-05
8.42799e-06
1.25629e-05
-1.72305e-06
-0.00010046
0.000102189
-0.0021581
0.000641396
-3.40796e-06
2.32935e-06
5.0929e-06
5.19452e-05
-5.70365e-05
-1.37555e-05
2.00637e-05
-6.30638e-06
-4.92531e-07
1.24912e-05
-1.19965e-05
-0.000136637
3.71808e-05
0.00126912
-0.000427784
-0.00084136
-0.000187602
9.62543e-05
9.13501e-05
-0.000123567
-1.65147e-05
4.7688e-05
1.12658e-05
2.71833e-06
1.97572e-06
1.04519e-07
-2.08043e-06
3.0765e-05
0.00010955
0.000385773
4.26389e-06
1.35627e-06
-5.62011e-06
-0.000563771
-9.88881e-05
0.000662665
-0.00121879
-0.00275938
0.00397812
0.00294435
-0.000850045
-0.00209431
-7.13754e-06
1.29189e-06
6.38353e-05
7.46727e-05
5.40816e-05
-6.6478e-06
2.6316e-06
-2.81796e-06
1.86626e-07
-0.0153895
-4.82536e-06
1.6319e-05
-1.14941e-05
-7.09948e-06
2.34732e-06
-0.00756146
0.00225048
0.00531099
2.16894e-05
-0.000279844
0.000258156
8.74963e-05
-1.60056e-05
3.11599e-06
-4.85802e-07
0.000231204
-0.000178366
-5.28407e-05
-6.36236e-06
-2.6018e-07
6.62302e-06
2.77753e-07
-6.63948e-06
-3.09277e-05
-0.00126688
0.0012978
0.00787626
0.00401928
-5.75801e-05
3.04899e-05
1.5257e-05
-3.9911e-06
4.57895e-05
2.15413e-05
6.38369e-06
-1.38636e-05
4.80501e-05
-0.00010011
5.20609e-05
6.81674e-06
-7.0767e-06
2.15171e-08
-3.07368e-06
2.68375e-05
1.12811e-05
-3.81182e-05
-0.000884846
0.00114742
-0.000262576
4.34651e-05
0.000143059
-0.000186522
-8.17941e-06
-1.2812e-05
1.13913e-05
-0.00227823
0.00357167
-0.00129346
3.74243e-05
-2.92407e-05
1.23718e-06
-2.40339e-06
1.16623e-06
0.00478941
-0.0007313
-0.0040581
2.49928e-06
-7.28024e-07
-1.77162e-06
-0.0206801
0.0125845
0.00809541
-0.00336978
0.00109157
0.000207324
-0.000163857
-0.00150343
-0.00605801
0.000155307
-6.58356e-05
0.000204667
-0.000221238
9.15205e-05
-2.48755e-06
-8.90334e-05
1.36071e-07
-2.06662e-06
-2.21739e-05
5.07886e-05
-2.86165e-05
7.16046e-06
8.15816e-05
-8.87408e-05
8.75883e-06
-5.79854e-06
-2.96015e-06
4.75538e-05
-2.50292e-05
-0.000368623
0.00012122
0.000247403
-0.000130833
-0.00023779
-7.53761e-05
-0.000116772
5.82482e-06
-3.71155e-06
-2.11239e-06
-6.23886e-06
2.45903e-06
3.77853e-06
-4.40956e-05
3.57705e-05
1.8156e-05
-4.60863e-06
-1.35472e-05
0.000480169
0.000322071
-0.000802223
6.58747e-05
8.26338e-05
-0.000148508
-1.84791e-05
2.74534e-05
-8.97499e-06
-9.91646e-05
9.74466e-05
2.59514e-06
-1.35795e-06
-0.000264064
0.000270901
-6.83029e-06
-4.93282e-05
-5.44304e-05
0.000103764
-3.34324e-05
6.49441e-05
-3.15114e-05
2.46342e-06
1.395e-05
-1.64133e-05
-0.000125742
1.53351e-05
2.47109e-06
0.000217113
-0.000219595
2.50338e-05
-4.72085e-05
2.04486e-05
3.14279e-06
-0.000594425
2.14106e-05
0.000573023
4.65043e-05
-5.11507e-05
4.64595e-06
4.4505e-06
-1.26019e-06
0.000145558
-0.000114793
-1.13139e-05
4.46683e-05
-3.33541e-05
-3.58456e-05
2.30499e-05
1.28072e-05
-6.03665e-06
1.73772e-06
4.29872e-06
0.000203011
-7.83643e-05
-0.000124636
-0.0264765
0.0126494
0.0138272
0.000293841
-8.46453e-06
-0.000285377
-6.79717e-06
3.85296e-06
2.94452e-06
-0.0214444
0.0335445
-0.0121002
3.52121e-05
-5.20201e-05
1.68075e-05
-3.59793e-06
-3.199e-06
1.42055e-08
5.32868e-05
-5.32995e-05
-0.00012847
7.31959e-06
-0.000205438
0.000137528
6.79219e-05
3.03119e-05
9.74091e-05
-0.000127721
7.46514e-05
7.85234e-05
-0.000153176
5.22513e-06
-4.8976e-06
-3.273e-07
0.00147909
-0.000703287
-0.000775798
6.10494e-06
-8.8013e-07
-1.44439e-05
7.05477e-06
1.67603e-06
-6.95416e-08
-0.000124899
-3.52899e-05
0.000160189
-5.74504e-05
9.85134e-05
-6.27877e-06
6.5568e-06
0.000602176
0.000856184
2.6284e-05
-9.61353e-05
2.43784e-05
-4.85289e-06
-1.95181e-05
-3.84078e-06
3.84085e-06
-0.00515927
0.00394047
9.97038e-06
-8.94159e-05
0.00133192
-0.00136287
4.29565e-05
2.12609e-05
-6.42166e-05
3.79679e-07
-5.15128e-06
-0.00193279
-0.00574617
0.0076789
0.00462185
-0.00683064
0.00220878
-0.000197753
0.000115198
8.25467e-05
7.3357e-06
-7.24926e-06
-8.90735e-08
0.000988361
0.000490737
0.000254396
0.000990441
-0.000280679
0.000116753
0.000163926
0.000651899
0.00201912
-0.00267102
-5.43836e-05
7.46132e-05
-2.02299e-05
1.46194e-06
5.87197e-06
-7.74505e-05
2.30665e-05
-0.000242373
-2.42304e-06
-6.8303e-06
9.25341e-06
-7.44253e-05
-3.02615e-06
-7.55012e-06
5.06853e-06
2.4813e-06
8.80353e-05
-6.22897e-05
-2.57456e-05
-9.12988e-05
1.46168e-05
0.000137212
-5.97718e-05
-7.7438e-05
3.74861e-05
-0.00755354
-0.00134348
0.00889732
5.61833e-07
2.52597e-06
-1.52894e-05
-3.57412e-05
5.10302e-05
-0.00101282
0.00429099
-0.00327817
-8.42007e-06
1.48043e-05
7.41091e-05
-0.000165042
9.09318e-05
-0.000113561
0.00016695
-5.33859e-05
-0.000612149
0.00059805
0.000951235
0.00234545
-0.00329671
-1.02664e-05
9.55741e-06
7.09442e-07
6.50637e-06
-8.92945e-06
-0.000243434
6.34787e-05
9.27426e-05
-1.90141e-05
-7.3732e-05
-0.00170841
0.00113619
0.000572235
-6.42154e-05
6.35054e-05
7.13452e-07
8.62626e-05
-2.70597e-05
-5.92025e-05
4.50991e-06
-1.76814e-05
0.00765091
0.00361796
0.0231159
-0.00217017
-0.0209458
4.92341e-05
-0.000307916
0.000258703
1.97435e-05
4.6372e-06
-2.84867e-06
5.00555e-06
-2.15649e-06
6.36703e-06
2.39202e-06
-5.68072e-05
-7.40809e-06
2.97615e-06
-0.000143309
-5.44784e-05
0.00498745
-0.000260461
-0.00472694
0.000896133
0.000372958
-8.82848e-05
5.57472e-05
3.25343e-05
4.66002e-05
0.000125218
-0.000171817
0.000424594
-0.000241172
-0.000183424
-8.93337e-06
-0.000270905
-0.00022551
0.000427556
-0.000202047
-0.000681957
-0.00926682
0.000280995
0.000112824
0.000640762
-0.000753569
-2.91261e-05
-1.3443e-05
4.25657e-05
-8.86119e-08
4.85146e-07
-3.96474e-07
7.08429e-07
-6.09485e-07
-1.27856e-06
1.88702e-06
2.20418e-06
4.11808e-05
-3.4429e-06
2.56854e-06
8.74002e-07
8.80591e-05
9.83027e-05
-1.633e-05
1.29077e-05
3.42397e-06
-7.08687e-05
0.000130954
-6.00854e-05
-0.00516165
0.00393711
0.0012244
1.68847e-06
1.68597e-05
-1.85482e-05
-1.11496e-05
3.79872e-05
4.94181e-06
3.67159e-06
-8.61317e-06
-5.15343e-07
-5.11557e-07
0.000110298
-0.000208337
9.80383e-05
5.39511e-06
-7.01871e-06
1.6236e-06
-2.14711e-05
-6.68155e-05
-2.00539e-06
2.05193e-05
-1.85127e-05
-2.62357e-05
7.75668e-06
0.00501385
-7.38511e-05
7.38661e-05
-6.74124e-05
-2.35733e-06
6.97706e-05
-0.00504609
-0.0043937
0.00943984
2.20598e-06
1.12991e-06
-3.33396e-06
-5.01211e-05
9.30784e-05
0.000182522
-0.000107872
0.00245093
-0.000721117
-0.00172981
-0.00108924
-0.000166813
0.00125606
-2.66588e-06
-7.76484e-07
0.000149863
5.68951e-05
0.000230838
-0.000526104
7.31432e-05
-0.000103501
-2.83367e-06
-1.34961e-05
7.44731e-06
-7.83576e-06
-0.0185421
0.00566766
0.0128745
-0.00678766
0.00142667
0.00536097
4.47733e-06
-3.3601e-05
2.8749e-05
-1.90973e-05
-9.65204e-06
0.000295054
0.0228209
0.000150634
8.05701e-05
4.81307e-06
-7.40999e-06
2.59669e-06
0.000148599
-0.00215254
0.00200393
1.8127e-08
1.95743e-06
7.49619e-05
0.000163755
-0.000238719
8.55518e-05
7.1466e-06
-9.26992e-05
-9.71078e-06
1.79331e-06
7.9175e-06
-5.49116e-05
-1.25327e-05
6.74651e-05
3.41372e-06
1.06458e-05
8.85649e-06
-3.91448e-06
0.000224683
-7.40513e-05
-0.0420998
0.0235106
0.01859
6.10468e-07
6.18715e-08
-1.23231e-05
1.18308e-05
-4.01527e-06
1.34995e-06
-2.05151e-06
4.60183e-06
-2.55062e-06
9.33379e-06
0.000203116
-0.000212454
0.000227081
-0.000112557
-0.00011452
2.79227e-06
-6.22655e-06
3.43456e-06
-0.000634471
-0.000160434
0.0007949
-0.00567348
-0.0011142
5.38471e-06
-8.44885e-06
3.06359e-06
6.0271e-07
5.5894e-06
-2.7971e-06
0.000224922
0.000577887
-0.000802801
2.23926e-05
6.71641e-05
-8.95533e-05
0.00160353
-0.00259906
-0.00951936
-0.0325806
-2.96935e-06
8.92322e-05
-0.000168332
2.53876e-06
-1.74247e-06
7.99394e-07
-2.6172e-06
-0.0022121
0.00236068
-2.73713e-06
0.000287248
-6.24603e-05
-0.00257979
0.0104978
-0.00791798
-0.000195125
-0.00496418
0.000359391
-0.000923158
-7.63779e-05
2.22107e-06
3.36908e-06
1.72186e-05
-3.1701e-05
-0.0128004
-0.00787994
0.00394964
-0.000208201
-0.00374149
2.26462e-06
1.73916e-05
-0.00914831
-0.000364998
2.00502e-05
-3.94527e-06
-1.60963e-05
-7.29853e-06
-2.41226e-06
-0.00102713
0.000142284
-6.88144e-06
2.804e-06
4.07622e-06
0.000227468
0.00019713
1.75134e-05
1.26953e-05
0.00333288
-0.000726438
-0.00260644
-1.14634e-05
1.48773e-05
-0.00011935
-0.000161329
0.000148663
-0.000263
0.000114336
-0.000305768
5.05872e-05
0.000255189
5.38953e-06
-3.16737e-06
3.4971e-05
4.56558e-06
-6.85306e-06
7.08535e-06
-2.32199e-07
6.31015e-05
-4.78498e-05
-1.52542e-05
9.11767e-05
-6.87801e-05
0.00904054
-0.0116203
-0.000143488
7.01038e-05
7.33864e-05
0.00245786
-0.00092628
-0.00153161
-8.57547e-05
-5.04444e-05
0.000136199
2.23209e-05
3.53679e-05
-5.76887e-05
0.00153573
0.000170347
-0.00170607
-0.000157721
1.45783e-05
0.00014314
-7.96511e-05
0.000907122
0.00155074
-1.31733e-06
9.15406e-06
-7.83661e-06
-0.000229665
0.000197651
3.20155e-05
-2.49933e-05
-0.000132729
9.04261e-05
-4.87447e-06
0.00368917
0.000189659
0.000330073
0.000115267
-0.000445339
0.00355934
-0.0041772
0.000179673
-5.81945e-05
-0.00012148
-7.15198e-06
6.43905e-06
7.12883e-07
-2.61257e-06
-1.71956e-06
8.37321e-05
0.000119302
-1.13581e-05
1.76039e-06
9.60054e-06
-5.90448e-07
2.70227e-06
-2.11176e-06
-4.42925e-07
-1.94155e-06
-2.85635e-06
5.92855e-05
-3.69652e-05
-0.000192725
-6.85182e-05
0.000261229
0.000633095
-0.000198418
0.00242246
0.00401056
-0.00643304
-0.000221842
-0.000118109
7.77467e-06
-6.03979e-06
-1.73436e-06
-6.07027e-06
3.33846e-06
2.73259e-06
0.0181366
-0.0235281
0.00539153
1.65412e-05
-6.44572e-06
1.44106e-05
-1.73409e-05
2.92809e-06
0.000146548
-0.000143277
-3.27032e-06
0.00346944
0.0146671
4.27109e-06
-9.92079e-07
-3.27887e-06
7.08076e-06
0.000262465
-0.00028467
2.22054e-05
2.39743e-05
1.8157e-05
0.000227125
0.00456229
-0.000293977
-1.1782e-05
4.60751e-07
-3.25727e-05
-4.52622e-05
0.00164628
-0.00075016
0.00133319
0.00199969
-3.56028e-07
1.74134e-06
-5.25837e-07
-1.2164e-06
-6.97175e-06
-8.92027e-05
-4.36591e-06
4.8865e-06
-5.21553e-07
-0.00155532
-0.000322743
0.00187804
-0.00207645
-8.16533e-05
4.77996e-06
5.83193e-05
-8.12518e-05
7.13781e-05
9.67868e-06
-1.09601e-05
1.28186e-06
7.4322e-05
-0.000138142
3.54806e-05
5.25536e-05
-5.41301e-05
-0.000539314
0.000593443
1.24146e-05
-7.98263e-05
-7.55136e-05
1.87067e-05
-3.94682e-05
4.87702e-05
-9.30094e-06
0.00263102
-0.00167981
1.46133e-05
6.48408e-06
-4.27755e-06
-2.20879e-06
-2.78969e-06
-1.23264e-05
1.51158e-05
0.00306856
-0.000239122
-0.00282948
-0.0002517
0.00030094
3.17936e-05
-4.31078e-05
4.42449e-06
-1.28449e-05
6.45612e-05
-0.0010559
4.85404e-05
3.77529e-05
-8.62928e-05
0.00012749
9.71892e-05
0.000232865
-8.42025e-05
-0.00665446
0.00472165
-4.62441e-07
6.00817e-09
4.56636e-07
-0.000249803
0.000237572
-0.00106028
-0.0006481
0.0123404
-0.000562834
-0.0117784
-0.0002944
0.000330805
-3.64069e-05
4.62579e-05
0.000210593
-0.000256852
0.000275554
-0.000200576
1.23508e-06
-7.68089e-08
-1.15777e-06
3.86648e-05
-2.40572e-05
-0.00150364
0.00215554
-0.000297153
-3.92013e-05
0.000336355
-1.28639e-06
-2.27608e-06
3.56146e-06
-7.96116e-05
0.000104422
-2.48128e-05
0.00852111
-0.010383
-7.61571e-05
-1.54546e-05
-3.06469e-05
4.6102e-05
0.000103365
-0.000296105
-0.0117572
-0.00845265
-0.000228874
9.72831e-05
0.000131592
-0.000180807
0.000227064
-6.93729e-06
-3.61377e-06
1.05508e-05
-0.000101049
0.000129557
-2.85085e-05
0.000137509
4.21663e-05
3.67494e-05
9.75304e-06
-0.00111931
-0.0003669
0.00148621
-9.28097e-06
8.58575e-06
6.96254e-07
-9.6847e-07
-6.60153e-06
7.56988e-06
-1.0937e-05
1.65605e-06
-0.000213703
-0.000105367
0.00031907
0.000451063
-0.000505191
0.000273612
-0.000456569
0.00195178
-0.00121163
-0.000740125
-0.00136566
0.00137865
-1.30269e-05
0.000128875
-1.99485e-05
1.6925e-05
3.02272e-06
0.00225496
-0.000869925
-0.001385
-0.000822515
0.000283183
0.000539333
0.000111354
-0.000177277
6.59229e-05
-2.08869e-05
7.14263e-06
1.37438e-05
-2.12575e-06
8.16864e-07
-0.00216137
0.000606042
1.25009e-05
-1.52908e-05
-0.000161061
-6.21631e-05
0.000223224
-1.05683e-05
1.33176e-05
-2.74942e-06
9.60782e-06
-9.75971e-06
1.51766e-07
2.04037e-06
-3.32789e-06
-2.65274e-06
-2.10927e-06
4.75994e-06
-0.000169957
1.22979e-05
6.42543e-07
-4.41407e-06
3.77004e-06
-2.6392e-06
2.34129e-06
2.9905e-07
1.39712e-06
1.99043e-06
-3.38764e-06
-1.15762e-05
6.01162e-05
0.000220295
-0.00106636
0.000846046
7.18033e-05
-0.000202288
0.000175108
2.72105e-05
3.39234e-06
-6.78838e-07
2.54141e-07
4.24738e-07
-0.000159782
0.000297537
6.56983e-06
5.15439e-07
-3.54641e-05
-4.00488e-05
0.00318871
-0.0107421
3.09796e-07
-1.03798e-06
0.000208063
3.07806e-05
-0.000238791
-0.000348688
0.000134981
0.0069803
-0.011996
0.0050159
-0.00119243
0.00103509
3.16613e-06
-2.53322e-06
-6.31445e-07
-8.042e-06
3.4006e-06
4.64168e-06
3.66675e-06
-1.06042e-05
0.000134189
-2.28349e-05
-0.0317031
-0.0129834
4.01242e-06
0.000132508
-5.83986e-05
3.09091e-06
-6.23058e-06
3.13996e-06
-3.20412e-05
-0.000100074
0.000132115
-1.62417e-05
-3.7054e-06
-6.88575e-06
9.06752e-06
-2.18114e-06
2.48405e-06
6.83465e-07
0.018743
-0.00826805
-0.0104749
0.000423035
0.000310642
-0.000733681
1.2506e-05
-8.08111e-06
-6.33033e-05
-0.000247133
0.000310448
-0.0116697
0.00815635
-0.000103335
9.63678e-05
-1.08119e-05
6.3045e-05
-0.000284886
3.44165e-06
-2.57356e-06
-8.67599e-07
-0.00214215
6.56837e-05
-2.90906e-05
2.18341e-05
3.32445e-07
-7.42733e-08
-2.58243e-07
3.16959e-06
-1.37374e-05
0.0034634
-0.00447621
-3.13573e-06
0.00022742
0.000200134
4.05504e-06
1.33506e-06
0.00264461
-0.0144017
0.0074719
0.0127164
-0.0201883
-0.00341324
0.0058357
-1.06603e-07
-5.75102e-07
-7.8462e-06
-8.13864e-06
1.59849e-05
4.453e-07
-1.8651e-06
1.42391e-06
-8.17307e-06
7.2039e-06
-3.11576e-08
-6.24719e-06
-0.00315535
0.00222908
0.000244466
-0.00044778
2.8125e-06
3.67649e-06
-2.86211e-06
5.1657e-06
-2.30392e-06
-5.87646e-07
-0.000267725
0.00382706
0.000235235
-0.000254032
1.88005e-05
0.000975312
0.000670958
0.00237131
0.00187924
-0.00425055
-7.88649e-05
0.000855435
-0.000776567
-1.1016e-05
-4.0234e-06
1.50395e-05
3.33539e-06
-3.97742e-06
6.42073e-07
-1.99127e-06
-5.41854e-06
4.70869e-05
0.000108391
-0.000155478
0.000103811
-0.000138446
3.46348e-05
-6.3891e-06
7.71775e-06
-1.3259e-06
0.000127199
9.59713e-05
4.41231e-05
-1.56187e-05
-2.85049e-05
-8.79969e-05
0.000854938
-0.000766941
-9.39264e-06
2.50789e-06
7.91281e-05
9.37223e-05
-0.000172853
-0.000556881
-0.00167151
0.00222838
-2.41451e-05
-7.40003e-05
9.81454e-05
-4.19422e-06
5.65473e-06
0.000195104
-0.000263624
4.79861e-06
-8.87758e-06
4.0792e-06
-2.06892e-06
-5.85883e-05
6.06614e-05
0.00110751
-0.000335761
-0.00077183
-2.38638e-05
-1.89515e-05
4.28158e-05
-5.58902e-05
3.31658e-05
2.27206e-05
2.44945e-06
-6.64589e-06
0.0158522
0.00401597
-1.98729e-05
1.86112e-05
1.26087e-06
5.98238e-05
-0.000305878
0.000246054
0.000174477
5.26143e-05
-0.000572503
0.00259163
-0.00113257
-0.00202281
-4.26854e-06
9.06728e-06
0.000289104
-4.46372e-05
2.22337e-05
-2.5746e-05
3.51235e-06
5.94874e-06
-1.6847e-06
1.72089e-05
1.7152e-05
-3.43611e-05
6.26981e-06
-4.07425e-06
-2.1961e-06
8.58029e-05
-7.71935e-06
1.38487e-06
6.33486e-06
0.0086519
-0.00809825
-0.0174361
-0.00399582
-0.0147915
-1.37695e-05
3.09781e-05
-2.9631e-07
-3.32061e-05
3.35068e-05
-7.16035e-05
0.00010909
6.04353e-05
-6.2503e-05
-1.43613e-05
-2.93175e-06
1.59534e-06
1.4535e-07
6.75647e-06
-6.78718e-06
0.000358205
-0.000130785
0.00184491
-0.000869591
6.78449e-05
-0.000147536
7.96888e-05
4.88731e-06
-8.31798e-07
4.56295e-06
3.24025e-07
-0.000115656
-1.00967e-05
5.99526e-07
-1.53075e-07
5.12851e-05
9.15092e-06
-9.63457e-05
0.000172528
-0.000567389
0.000152181
0.00041521
5.54704e-05
-6.7987e-05
0.00879559
-0.000137634
-0.000188238
0.000325871
0.000133784
0.00236516
0.000974615
-1.6998e-05
-2.87514e-06
0.000106029
-1.77209e-05
2.83099e-05
-2.86048e-05
0.000491872
0.00232424
-0.00162195
-0.000702284
7.09555e-06
-2.03891e-06
-5.05641e-06
6.35063e-05
0.000125811
-0.000189318
-0.0044528
0.00425766
5.01041e-05
5.10424e-06
0.000235485
-2.7411e-05
1.02151e-05
6.32636e-06
7.34189e-05
-1.8211e-05
-5.5208e-05
0.00021585
-1.72793e-05
-0.000198629
-0.00302477
-0.00312475
0.00614949
0.000282919
-0.000223095
0.0054517
-0.00675399
-3.56429e-05
2.44933e-05
0.000670493
0.00109225
-0.00176273
5.17593e-07
-4.84544e-06
4.32868e-06
8.28719e-05
-0.000885164
0.000802262
0.0209015
-0.0206064
-3.45742e-06
5.77931e-07
-3.42412e-06
-4.61763e-06
0.00456934
-0.00193342
-0.00263589
3.10023e-06
1.90537e-06
-0.00200411
0.000230587
0.0017735
0.0076432
-0.0196272
-0.0401736
0.0306538
2.22055e-05
-1.37776e-05
-0.0329033
-0.00727027
4.7151e-05
-9.64742e-05
-1.34429e-06
-1.70359e-06
-4.80654e-06
-4.07078e-06
-4.53042e-06
5.04764e-06
4.84174e-07
4.76603e-06
-5.24991e-06
7.23846e-06
-1.50848e-05
0.00026553
-0.000473924
0.000208395
-0.0027258
-0.0158163
7.94666e-06
4.49524e-06
-1.2441e-05
9.55718e-07
2.79258e-07
-0.000659944
0.000250041
0.000409906
-1.83185e-05
1.6252e-05
2.06175e-06
0.00053892
5.36397e-05
-0.000949194
0.000473703
0.000475492
1.99381e-05
-6.38804e-06
-1.35463e-05
0.00442812
0.000141207
-4.82374e-06
5.30799e-06
-1.39373e-06
1.25672e-06
5.41448e-06
-6.67108e-06
2.81454e-07
-4.18919e-06
3.90737e-06
-8.21974e-06
6.3705e-05
-1.66028e-07
2.42147e-07
-0.000172519
-0.000299176
0.000471696
5.54703e-08
5.37341e-05
-0.000348134
-0.0002525
0.000306235
8.05294e-06
-2.91266e-06
1.42683e-07
-2.67532e-06
-0.000469789
-0.000352725
-1.96355e-06
3.23892e-06
-1.27515e-06
0.000201889
1.39389e-05
2.95907e-05
4.38283e-05
8.2146e-05
-2.33012e-05
-5.88467e-05
-1.79379e-06
-7.63184e-06
9.42548e-06
4.87064e-05
-2.85951e-05
-2.01119e-05
7.84252e-06
4.05015e-06
-1.52826e-05
-8.3879e-05
0.000172305
-1.41827e-06
-5.70819e-06
7.12627e-06
0.000708061
-0.000571352
-5.36154e-06
-6.11836e-08
5.42307e-06
-9.1262e-07
-2.80009e-06
-2.79399e-06
1.267e-05
-9.87652e-06
-0.000309967
0.000190617
2.88458e-06
-9.05478e-05
-2.35956e-05
0.000114139
0.00747736
0.0112656
-7.40445e-05
5.25709e-05
0.000578019
0.000221685
-0.000219184
2.20845e-05
6.00599e-05
-6.9075e-06
2.53516e-05
-1.84437e-05
1.09009e-05
1.13043e-05
2.38076e-05
-3.12992e-05
-0.00327058
0.00500031
-0.00172986
2.26799e-05
-1.24243e-05
3.68153e-07
-4.56875e-07
-7.49113e-06
1.10354e-06
5.76221e-05
-7.70208e-06
3.15087e-05
-3.23369e-05
-2.35536e-05
0.000218299
-1.36326e-05
3.63621e-06
1.49741e-05
-0.000187055
7.84624e-05
0.000108572
-0.000135938
0.000103897
0.00111969
-0.000899379
3.41786e-05
-2.72175e-06
-3.14553e-05
-0.00655374
-0.0118491
-0.000412138
-0.000560926
0.000973066
-6.49819e-06
6.60621e-06
-1.08637e-07
0.000619757
0.0023246
-3.32139e-05
1.13569e-05
0.0199292
-0.0151396
-0.00478964
9.0207e-06
2.41981e-05
-3.32187e-05
-9.06128e-05
7.53371e-05
0.00105297
-0.000970103
2.48473e-06
-6.10713e-05
-8.44681e-06
5.48457e-06
2.96281e-06
0.00708346
-0.00732446
0.000240971
0.0157197
0.00420951
-2.81027e-06
3.42844e-06
-6.18069e-07
3.17279e-05
-3.3404e-05
-4.60174e-06
4.88339e-06
-5.26349e-06
4.93528e-05
-4.40897e-05
-5.95152e-05
5.72816e-05
2.23326e-06
-0.0349627
0.00325975
-6.86617e-06
-1.27783e-07
6.99385e-06
-6.13749e-07
-7.75393e-07
1.38907e-06
-7.88564e-05
-5.82148e-05
0.000137074
-7.77539e-06
2.95178e-06
-9.54949e-05
0.00017389
-7.83945e-05
-0.000574735
0.000799657
8.89251e-05
-0.000341426
-7.73765e-05
3.24429e-05
4.49284e-05
-3.08046e-06
1.11698e-06
-4.56132e-06
-3.21398e-06
-9.08631e-05
-2.1167e-05
0.000112035
6.27401e-05
-5.55837e-05
-1.94457e-05
-5.46001e-05
0.00020544
-0.000118531
-8.69072e-05
-9.45617e-06
-9.44171e-05
0.000103874
-3.57741e-06
-4.86914e-06
-0.000315887
0.000143369
-0.000354776
0.000223944
0.00023697
0.000925315
-0.00116228
-1.4929e-05
-1.43818e-05
-0.000101535
-0.000701732
0.00568974
-0.00498789
0.000838755
-0.00234238
-5.71975e-06
3.5848e-07
-0.000227486
2.59442e-05
0.000201541
-0.000358295
0.00022066
0.000130665
6.92286e-05
-0.000199895
-5.34119e-05
-6.10317e-06
0.000121727
2.48218e-05
-9.31854e-06
1.93795e-05
-1.00536e-05
-0.000278941
0.000251414
2.75487e-05
-4.3336e-07
-2.921e-08
-2.03403e-07
2.26381e-06
-1.39828e-06
8.84685e-06
-9.78808e-08
-3.68728e-07
9.85587e-05
-0.000689589
0.000591033
-6.90065e-06
5.48237e-06
-0.000100142
-0.00190397
2.86014e-05
0.000233865
1.4586e-05
-1.00008e-05
0.00282051
-9.11728e-06
3.05928e-08
9.08734e-06
5.51922e-05
0.000186354
-0.000241568
-1.32305e-06
2.81696e-06
-1.49354e-06
-0.000561308
-0.000108646
0.000669958
-2.79911e-06
1.60495e-07
-8.44844e-05
0.0149043
-0.00957361
-0.00533071
-0.000110071
0.000291659
-0.000181588
-0.00052853
-0.00078115
0.00100779
-0.000226633
5.0219e-05
6.78195e-05
-0.000118039
8.54346e-06
-8.54402e-06
2.53715e-06
9.0202e-05
2.88899e-05
-4.99274e-05
8.20855e-05
0.000988589
-0.00107067
-1.16814e-06
3.19054e-06
-2.02053e-06
-2.57299e-06
1.24872e-06
0.000125823
-2.20109e-05
1.00468e-05
0.0279431
-0.0118977
-0.0160453
-6.79057e-05
-0.00603566
0.0026224
-0.000100254
9.87893e-05
1.46494e-06
-8.34242e-05
3.8181e-05
4.524e-05
2.71225e-06
-3.57379e-06
8.60549e-07
-7.7096e-06
-1.76644e-05
-0.00116607
0.000971001
0.000195105
7.21768e-05
-4.41238e-05
-2.80544e-05
-0.000112122
-3.85875e-06
1.61273e-06
2.24808e-06
-0.00378613
0.00110952
-0.0456992
0.0248337
0.0208657