/*--------------------------------*- C++ -*----------------------------------*\
| =========                 |                                                 |
| \\      /  F ield         | OpenFOAM: The Open Source CFD Toolbox           |
|  \\    /   O peration     | Version:  v2012                                 |
|   \\  /    A nd           | Website:  www.openfoam.com                      |
|    \\/     M anipulation  |                                                 |
\*---------------------------------------------------------------------------*/
FoamFile
{
    version     2.0;
    format      ascii;
    class       volScalarField;
    location    "300";
    object      k_0;
}
// * * * * * * * * * * * * * * * * * * * * * * * * * * * * * * * * * * * * * //

dimensions      [0 2 -2 0 0 0 0];


internalField   nonuniform List<scalar> 
37809
(
0.000135139
0.000189305
0.000158012
0.00184192
0.000140923
0.000147315
0.000142255
0.0292213
0.000150258
0.000167877
0.000158815
0.000159655
0.000144921
0.000156018
0.000151777
0.000153463
0.000148734
0.036998
0.00015962
0.000145676
0.000153462
0.02939
0.00398961
0.000151891
0.0309675
0.000158931
0.000158719
0.0272644
0.000165634
0.000133069
0.000155608
0.0384234
0.000143366
0.000235109
0.000159573
0.000143394
0.00019219
0.00308628
0.000331551
0.000138658
0.00013043
0.00020589
0.000153577
0.000169117
0.000143396
0.000160784
0.000151605
0.000154764
0.000153505
0.00019292
0.0251252
0.0160698
0.000247579
0.000221325
0.000159171
0.000141811
0.000201451
0.000157498
0.000210023
0.0285331
0.000160759
0.000165786
0.00155249
0.000169093
0.000152477
0.000151794
0.000188547
0.0211274
0.000167616
0.000184832
0.000141838
0.000151609
0.0133087
0.000205166
0.000142668
0.000504568
0.000192369
0.000133008
0.000152961
0.000153668
0.00016966
0.0343163
0.000146684
0.000245441
0.000209503
0.0184912
0.000147768
0.0258161
0.000167746
0.000192264
0.000158636
0.0259234
0.000163605
0.000143094
0.000165304
0.000133857
0.0376938
0.000133775
0.000127738
0.0299245
0.000150773
0.000202019
0.000135297
0.000152127
0.000203331
0.000150987
0.0283622
0.000146321
0.0276236
0.000432162
0.000143997
0.000204932
0.041683
0.000138681
0.0306449
0.0391118
0.000151406
0.00013811
0.000243366
0.00014886
0.000226878
0.000173021
0.0310062
0.000143006
0.000138448
0.000374363
0.000132335
0.000153675
0.000132883
0.000133361
0.000157621
0.000151586
0.000144715
0.00013843
0.000132327
0.000140159
0.000170587
0.000526733
0.0273929
0.000154602
0.000160152
0.000207666
0.000156504
0.000148655
0.000133481
0.000139369
0.000160133
0.000154551
0.000133014
0.000132318
0.000138874
0.000148655
0.00015143
0.00020629
0.000132987
0.00015531
0.000132335
0.0272564
0.000127896
0.000143422
0.000143606
0.0236971
0.0372828
0.000151263
0.00013313
0.000181805
0.000143668
0.000172975
0.000153687
0.00397602
0.000146834
0.000193418
0.000149037
0.000148907
0.000156519
0.000138288
0.000150418
0.000145421
0.000175579
0.000140094
0.000141888
0.000206363
0.000141206
0.000141869
0.000143472
0.0001347
0.0321447
0.000149046
0.0287243
0.000191892
0.00162206
0.000195607
0.000145817
0.00019982
0.000143686
0.000146588
0.000146583
0.000205719
0.000148032
0.0236545
0.00214677
0.000169647
0.000147521
0.000152963
0.00016129
0.000151613
0.000143387
0.0280739
0.000134979
0.0465235
0.000547674
0.000200958
0.000209646
0.000193067
0.000149689
0.00012798
0.000243379
0.000202808
0.000135287
0.00397847
0.00018813
0.000147789
0.000161266
0.000161416
0.000152689
0.0002033
0.000139664
0.035808
0.000132274
0.000229154
0.000152031
0.000147788
0.000148336
0.000147521
0.000152495
0.000189266
0.0360406
0.000161507
0.000151544
0.000134575
0.000194931
0.000142162
0.000198033
0.0377985
0.000169333
0.000157798
0.000203358
0.00019409
0.0370487
0.000170396
0.000142741
0.00013957
0.000165132
0.0234549
0.000149841
0.000143435
0.000178922
0.000143208
0.000146006
0.000159027
0.000141885
0.00014515
0.000145873
0.000152615
0.030007
0.000147823
0.0161614
0.00020142
0.000133006
0.000150465
0.000143095
0.000148611
0.000141554
0.000178863
0.000172072
0.0331602
0.000154751
0.000153551
0.000146438
0.0221883
0.000200747
0.00014478
0.000151221
0.00748151
0.000199431
0.000143135
0.0358466
0.000164767
0.000138036
0.00398019
0.000153987
0.000154175
0.000216355
0.0301194
0.000167873
0.000138152
0.0139494
0.000142524
0.000142397
0.000185491
0.00058638
0.000141496
0.00015352
0.000165577
0.000151297
0.000156063
0.000142563
0.00015213
0.000152003
0.000181779
0.000158908
0.000147836
0.000146716
0.000190774
0.000191296
0.000137474
0.000213107
0.000134849
0.00065543
0.000189032
0.000159403
0.000247644
0.0426017
0.00018729
0.0371896
0.000135456
0.000166378
0.0324885
0.000143643
0.000154553
0.000176291
0.000176952
0.000944672
0.000133
0.000145889
0.000138694
0.000148526
0.000202709
0.0343212
0.000149147
0.0139197
0.000137437
0.0268791
0.000190517
0.0001381
0.000148056
0.0378915
0.0470916
0.000165917
0.000157673
0.000153943
0.000150349
0.000153287
0.024304
0.000167782
0.0001494
0.000128826
0.0404132
0.007399
0.000142423
0.000133449
0.00376518
0.000162718
0.000133605
0.000138228
0.000181098
0.000141493
0.000204072
0.000185738
0.000134899
0.000159555
0.00013475
0.000151096
0.000132341
0.000187971
0.000141421
0.000142381
0.000142371
0.000172992
0.0310325
0.000158705
0.000147502
0.00758529
0.000203274
0.000185667
0.000138343
0.000157802
0.000279341
0.000256697
0.0367493
0.000136799
0.000158883
0.0291283
0.000174512
0.000182027
0.00013833
0.000136735
0.000138588
0.0279297
0.00014096
0.000138532
0.000139851
0.000158698
0.036283
0.000154021
0.0187818
0.000200554
0.000134113
0.000161837
0.000225677
0.000151489
0.000154498
0.000172492
0.000189733
0.000203538
0.000134508
0.000140854
0.000157004
0.000176107
0.000216898
0.000141888
0.000138454
0.000151828
0.000400766
0.00340022
0.00019562
0.000158461
0.000132858
0.000143717
0.000141963
0.000132862
0.0362573
0.000205687
0.000180018
0.000160287
0.000158333
0.000160933
0.0309796
0.000144759
0.000578624
0.000144601
0.000159379
0.000139673
0.000150658
0.000134846
0.000133174
0.000140922
0.000138373
0.000138095
0.000155984
0.000145106
0.000148601
0.0253713
0.000148269
0.000151989
0.000140269
0.000142473
0.000156346
0.000143025
0.00016008
0.000189149
0.000148936
0.000211064
0.000138523
0.000147321
0.0002066
0.000137416
0.000138626
0.000186545
0.000170418
0.000183525
0.000137967
0.000752237
0.000159075
0.0284126
0.000145024
0.000151415
0.000779563
0.000233843
0.00013965
0.000153761
0.00316624
0.0108898
0.00013973
0.000202202
0.000146576
0.0292478
0.000166897
0.000140401
0.000202412
0.000148737
0.000140251
0.00989041
0.0171956
0.000135138
0.000148814
0.000137942
0.000132283
0.0401117
0.0135235
0.000131666
0.00346275
0.000245897
0.000134526
0.000134745
0.0001316
0.000154881
0.0367064
0.0273998
0.0175168
0.000138734
0.0280119
0.000143092
0.000142924
0.000202343
0.000139809
0.000178896
0.000223299
0.0107914
0.000151834
0.000202873
0.000131541
0.000187357
0.000763963
0.000193675
0.000148953
0.000224716
0.000188166
0.000140383
0.000181677
0.00014394
0.000161069
0.000154757
0.000177438
0.000148717
0.000175233
0.000182648
0.0276567
0.000131518
0.000150998
0.000139481
0.000169138
0.0368207
0.00020208
0.0354349
0.000184033
0.000157446
0.000152956
0.000163484
0.000182738
0.0356658
0.000184333
0.000141174
0.000149858
0.000182765
0.000166722
0.000200482
0.000158768
0.000180328
0.000205583
0.0306934
0.000139639
0.00013316
0.0407142
0.00014877
0.000136987
0.000132262
0.000133538
0.000153316
0.025488
0.0307632
0.0167475
0.0276846
0.000142912
0.000153319
0.00641071
0.000152916
0.000157009
0.000169259
0.006406
0.000138648
0.000142695
0.000136138
0.000138846
0.000217687
0.026528
0.000138413
0.000161828
0.00018075
0.000181999
0.000139403
0.000133682
0.000210752
0.000131322
0.00312819
0.000203227
0.000169279
0.00015118
0.000134659
0.00466798
0.000159091
0.000159929
0.000147516
0.000141754
0.000164193
0.000200616
0.000164592
0.000152808
0.000147111
0.000186086
0.000195806
0.000167848
0.000151527
0.000184419
0.000155649
0.00660028
0.000182146
0.000272718
0.000152861
0.0280101
0.000216232
0.00144625
0.000181121
0.000171104
0.0309819
0.000146371
0.00015469
0.000179606
0.000176375
0.000138422
0.000171405
0.00036362
0.000150762
0.000152781
0.0237184
0.0286461
0.000173643
0.000170425
0.0210642
0.000141736
0.000171019
0.0294649
0.000150219
0.00019894
0.000134563
0.000150051
0.000134743
0.000193393
0.000159326
0.000176439
0.000176784
0.000154693
0.000204912
0.00015744
0.000178874
0.000185241
0.000149075
0.00014916
0.000132377
0.00302618
0.000146901
0.000181373
0.000152154
0.000162974
0.000138322
0.000153031
0.0461075
0.000139336
0.000132532
0.000133072
0.000155644
0.0267719
0.000181872
0.000165184
0.000138208
0.000148643
0.000209661
0.000139517
0.000141747
0.000177811
0.000135004
0.0397517
0.000192483
0.000118618
0.000153068
0.00013756
0.000138456
0.000141665
0.000148809
0.00195321
0.0016202
0.000153643
0.000154457
0.000131781
0.0429144
0.000157692
0.000145902
0.000137675
0.00293309
0.000158966
0.000151703
0.000197454
0.0317046
0.000209516
0.000157754
0.0261744
0.00013564
0.000202148
0.000154735
0.000135183
0.000151946
0.000227966
0.000131743
0.000143849
0.000131495
0.0300938
0.00234928
0.0136993
0.000143793
0.000147503
0.000146957
0.000149915
0.000142252
0.000186959
0.00015204
0.000151353
0.000131161
0.000134683
0.000208198
0.044984
0.000181927
0.000216783
0.000149249
0.000156335
0.000143693
0.000139686
0.000157794
0.000210331
0.000151554
0.00018388
0.000162147
0.000548292
0.000145737
0.0463122
0.000197968
0.000134058
0.000136632
0.0275449
0.000140281
0.000143994
0.0204675
0.000137371
0.000178167
0.000136624
0.00032643
0.000148617
0.000143697
0.0107671
0.000183151
0.000186792
0.000140239
0.000151891
0.000137826
0.000143208
0.000158187
0.000142973
0.000156026
0.000143022
0.0260312
0.0284478
0.0296649
0.000158164
0.00015033
0.0209023
0.000144004
0.0001488
0.000133518
0.000142224
0.000143979
0.000182889
0.0335816
0.000131422
0.000131407
0.0386625
0.000146698
0.000143793
0.00019199
0.000178694
0.000202436
0.0338757
0.000193683
0.0283601
0.0217392
0.000148412
0.0316814
0.000150128
0.000199779
0.000166856
0.000139709
0.000155023
0.0109112
0.000152866
0.000139752
0.0405672
0.000153059
0.000163916
0.0272066
0.0140377
0.000143716
0.000212523
0.0026993
0.000151734
0.000173727
0.000139654
0.000180571
0.00294183
0.000143331
0.000138415
0.000200302
0.000132723
0.000213209
0.000352355
0.0199901
0.00014757
0.0196023
0.000190388
0.000146258
0.000140246
0.000139503
0.00013822
0.000147289
0.000182357
0.000686345
0.000151689
0.000146021
0.000184375
0.000157015
0.000158824
0.000151364
0.000148018
0.000204331
0.00013821
0.00015727
0.00013787
0.000143071
0.000201884
0.000151203
0.000137911
0.000143013
0.000181213
0.000180507
0.00013064
0.000137523
0.000185715
0.000152725
0.0282783
0.000163502
0.000172891
0.000134905
0.000164905
0.000153954
0.000140292
0.0151099
0.000158217
0.000144698
0.000208707
0.000142046
0.000127792
0.00014727
0.000175383
0.000127847
0.000207411
0.00343988
0.000159523
0.000183704
0.0460474
0.000172866
0.000136687
0.000147582
0.000159283
0.028511
0.000143992
0.00015057
0.000151573
0.000187115
0.00015908
0.000177859
0.000112279
0.000148605
0.000235404
0.0425803
0.0257547
0.000188985
0.00137543
0.000155988
0.000138896
0.000199675
0.000151437
0.00287567
0.000152752
0.0129305
0.000180903
0.00014425
0.000138697
0.000271483
0.00345337
0.000153734
0.000150737
0.000143095
0.000138893
0.000143329
0.00205762
0.000154581
0.000135329
0.0377696
0.000138133
0.000214202
0.000154891
0.00018063
0.000177808
0.000153743
0.000138122
0.0329758
0.0320635
0.000159271
0.000174048
0.000166444
0.000138673
0.000137554
0.00017723
0.0126604
0.000143715
0.000154961
0.000261347
0.000177714
0.000141993
0.000202195
0.000193715
0.000194452
0.000143551
0.000168748
0.000188509
0.0338477
0.000152835
0.00014652
0.000151368
0.000147867
0.000147463
0.000144605
0.000209605
0.000136484
0.000153169
0.000190443
0.00014752
0.025591
0.000137688
0.00856953
0.000132586
0.026633
0.00246935
0.000207312
0.000147577
0.00893675
0.000160825
0.000165761
0.000176065
0.000165571
0.000190114
0.00013614
0.000137816
0.000209254
0.000153367
0.0177444
0.000170189
0.0139891
0.000139406
0.000171435
0.000133328
0.000157545
0.000211257
0.000167107
0.000174386
0.000137733
0.000204299
0.011459
0.000184002
0.0382249
0.000176075
0.0001489
0.0367753
0.0319362
0.0455235
0.000171381
0.0435375
0.0472437
0.00122207
0.000143585
0.00014298
0.000141145
0.000155719
0.00013133
0.0419274
0.00108826
0.000132406
0.000186707
0.000168772
0.00014839
0.000130415
0.000242578
0.000177133
0.000150573
0.000162433
0.000236327
0.000135931
0.0242272
0.000144656
0.000189831
0.000135842
0.00116858
0.000180544
0.00472098
0.000134201
0.0452909
0.000167903
0.00024253
0.000170536
0.000134223
0.000133156
0.00707451
0.000148706
0.000158114
0.000190967
0.000171773
0.000153009
0.000156006
0.000143117
0.000144199
0.000157933
0.000144345
0.000179527
0.000181168
0.000176898
0.000202703
0.000144237
0.000183199
0.00883404
0.000161649
0.0369213
0.000153211
0.000140039
0.000167691
0.000799989
0.000128918
0.000151633
0.0001671
0.000213578
0.000174464
0.000162964
0.000166311
0.000179565
0.0310815
0.000148877
0.000158372
0.00373412
0.000132483
0.000565048
0.000161552
0.000181787
0.000153942
0.000145022
0.000160758
0.000174896
0.000218164
0.000160679
0.000142567
0.0391733
0.000188639
0.0454436
0.0112652
0.000148604
0.00216729
0.000145079
0.000160665
0.000133898
0.000167768
0.000155614
0.0468516
0.00014512
0.00604664
0.00013788
0.000147509
0.000136127
0.000183689
0.0425783
0.00015188
0.000189779
0.000145738
0.000172752
0.0382126
0.0203032
0.000138769
0.000210983
0.000134724
0.000137867
0.000141132
0.000151194
0.000148281
0.000158629
0.0354001
0.00015281
0.00150764
0.000177179
0.000135028
0.000184735
0.000151291
0.000206232
0.000150281
0.000148894
0.000156838
0.000130267
0.000169007
0.00015724
0.00020372
0.000262252
0.000147449
0.000134829
0.000185951
0.000193726
0.00024469
0.000191053
0.000149352
0.000127846
0.000153123
0.00018855
0.00388509
0.000159558
0.000176673
0.0165575
0.000236631
0.000225816
0.000148653
0.034058
6.99923e-05
0.000134861
0.000142132
0.000142915
0.000134904
0.00013027
0.000160948
0.000197888
0.000190329
0.0412077
0.0276663
0.000199213
0.000193504
0.000150794
0.00018908
0.000153536
0.000131953
0.000175229
0.000152675
0.000158565
0.000150799
0.000179408
0.000131862
0.000156672
0.000150515
0.0001452
0.0001378
0.000149087
0.000138678
0.000154449
0.000131186
0.000157706
0.000149402
0.000137309
0.0001679
0.000166056
0.000152543
0.000137715
0.000162653
0.000140866
0.000137639
0.0337106
0.000149278
0.00082743
0.000222806
0.000135204
0.000133311
0.000134456
0.000144981
0.00194218
0.00738449
0.0265699
0.000148444
0.000175846
0.000146635
0.000134361
0.0417203
0.000182474
0.000133324
0.00014065
0.000144156
0.000247723
0.000136945
0.000152699
0.000137232
0.000185661
0.000143378
0.000153074
0.00017123
0.000136782
0.000138644
0.000141312
0.000141052
0.000133353
0.000138005
0.000163669
0.000133646
0.0177761
0.000155263
0.000152984
0.000141069
0.000200272
0.000179348
0.000159533
0.000139039
0.000149155
0.0175863
0.000137468
0.000138608
0.000135787
0.00014856
0.0392386
0.000154237
0.000138074
0.000131089
0.000164037
0.000161785
0.000181959
0.000200564
0.000160063
0.00265988
0.0373382
0.000159552
0.00014967
0.000155786
0.00199345
0.0253124
0.000137126
0.000145382
0.000169853
0.000182253
0.000177947
0.00013571
0.0283194
0.000134693
0.021203
0.000138783
0.000128098
0.00014494
0.000140775
0.000130973
0.000141335
0.000127852
0.0441119
0.000147315
0.000144904
0.00013106
0.000132578
0.000164905
0.000162434
0.00277429
0.000133468
0.000161827
0.00267978
0.000197559
0.000154751
0.000190892
0.000209607
0.000150462
0.000139489
0.000176081
0.000194045
0.000185862
0.000181478
0.000204561
0.000138182
0.0251093
0.000161746
0.000140067
0.000152927
0.000220352
0.00384691
0.000284174
0.000144341
0.00018042
0.000164607
0.000148475
0.000164446
0.000193784
0.000131181
0.000150603
0.000150827
0.00015113
0.000136483
0.000158871
0.000150099
0.000147826
0.00013144
0.000642774
0.0106482
0.000143926
0.000208847
0.000136533
0.000130891
0.000138114
0.000158037
0.000143487
0.000188114
0.00018587
0.000158864
0.000158431
0.011932
0.000130668
0.028519
0.000137454
0.000147023
0.000155109
0.000146506
0.000157683
0.000247818
0.000152247
0.000139964
0.00013081
0.000133537
0.000161164
0.000150285
0.000130732
0.0142796
0.000165873
0.0397369
0.000140757
0.000183068
0.000187835
0.000185893
0.000130619
0.000153926
0.0297454
0.000149833
0.000156089
0.000141076
0.000196782
0.000146479
0.000190849
0.000207408
0.000139862
0.000156693
0.000150715
0.000137162
0.000136009
0.000166056
0.000133649
0.00375745
0.0286548
0.043212
0.000219654
0.0320743
0.000148236
0.000191894
0.000176286
0.000143465
0.000137306
0.000185848
0.000279001
0.000148655
0.000167041
0.000145947
0.000146058
0.000136965
0.000189004
0.000143177
0.000183828
0.0001701
0.000143434
0.000167009
0.000138796
0.00019395
0.000239117
0.000152448
0.000149861
0.000135995
0.0363005
0.000155082
0.00014861
0.00014782
0.000178483
0.000181568
0.00381636
0.000147207
0.000200839
0.000137292
0.000147561
0.000142684
0.000183178
0.000171991
0.000126048
0.00359679
0.00013805
0.000139603
0.000190306
0.000211357
0.000149443
0.00018462
0.000137436
0.000167663
0.000147554
0.000140751
0.000205903
0.000139909
0.000201013
0.000163189
0.0382075
0.00016982
0.000167173
0.000160255
0.000173247
0.00015531
0.000195889
0.000143224
0.000132559
0.000197762
0.000138546
0.000169437
0.00018734
0.000136911
0.0371509
0.000649661
0.00376023
0.0331964
0.000201207
0.000151912
0.0145168
0.000211858
0.000130137
0.000165278
0.000130192
0.0382146
0.0272723
0.0482834
0.0370525
0.000143678
0.000157758
0.000143629
0.000143549
0.000170812
0.000171067
0.0474306
0.0185186
0.00014928
0.000181921
0.000151257
0.0370647
0.000145599
0.000148232
0.000141637
0.000142727
0.000141863
0.000142957
0.000153015
0.000212238
0.000141908
0.000166121
0.000143224
0.000140412
0.000163187
0.000160336
0.0002082
0.000145792
0.000159255
0.00643888
0.00015347
0.000131951
0.000154804
0.000166558
0.00114821
0.00231037
0.000132005
0.00020472
0.000143013
0.00016627
0.000155527
0.000136737
0.000149276
0.000131994
0.000140334
0.000143715
0.000161054
0.0346828
0.0404723
0.000188569
0.000194389
0.000153203
0.000199579
0.000147393
0.000147102
0.000165657
0.0336778
0.000195407
0.000158645
0.000141095
0.0394047
0.000151754
0.000136501
0.0463374
0.000153944
0.00014472
0.000135844
0.000142833
0.000134398
0.000166146
0.000153781
0.000206989
0.000191694
0.000162898
0.000133091
0.000150861
0.000171664
0.000153626
0.000153237
0.0392092
0.000133164
0.000147397
0.000133655
0.0428876
0.000151372
0.000163617
0.0001609
0.000151224
0.000152228
0.000156728
0.000231088
0.000147575
0.0180289
0.000194961
0.000142017
0.000205499
0.0002058
0.000191057
0.000155632
0.000573069
0.000150693
0.0176134
0.000188279
0.000155185
0.00325848
0.000156354
0.000172571
0.0394084
0.000178792
0.000180173
0.000174734
0.000208925
0.000136494
0.000246706
0.000151508
0.000202413
0.000172007
0.000133735
0.000137906
0.00015519
0.000151307
0.000188406
0.000160423
0.000135271
0.000163834
0.00015
0.000171853
0.000197654
0.00019555
0.000178803
0.00124957
0.000133853
0.00433034
0.0001525
0.000143736
0.000151559
0.000135532
0.000192331
0.000139482
0.000135106
0.000184893
0.000150874
0.000210328
0.000135316
0.000155028
0.0272954
0.00244089
0.0350377
0.000150488
0.0107145
0.000164032
0.000202382
0.0252277
0.000141093
0.0334043
0.000169423
0.000145052
0.000285493
0.000142407
0.000149272
0.0462235
0.000142075
0.000142899
0.000190732
0.00119741
0.000155564
0.000155984
0.000205859
0.000157025
0.000156442
0.000151526
0.000178888
0.0242087
0.000156608
0.000151277
0.000143217
0.000148043
0.000134211
0.000134316
0.035585
0.000100245
0.000166086
0.000181112
0.000135407
0.000148939
0.000175153
0.000150553
0.0070883
0.000154047
0.000143429
0.000160699
0.000137508
0.000198838
0.00182133
0.0402086
0.000153206
0.000151278
0.000162187
0.00018964
0.0187557
5.79596e-05
0.0378112
0.000166428
0.000151896
0.000157492
0.000151602
0.000196326
0.000130465
0.000208919
0.000175357
0.0249533
0.000136292
0.000153614
0.000135449
0.0294956
0.000141655
0.0096071
0.000191966
0.000142752
0.000207783
0.000143515
0.000195437
0.000170016
0.000157722
0.000142597
0.00014867
0.000156101
0.000170944
0.000159418
0.000156341
0.000165072
0.000132993
0.000134615
0.00015402
0.0326174
0.028214
0.000146992
0.000200174
0.00017672
0.000136558
0.000204477
0.000157479
0.000149746
0.0001446
0.000133275
0.000160557
0.000175212
0.000182768
0.0151404
0.000184921
0.000217501
0.000158593
0.000159054
0.000148998
0.000133311
0.000145601
0.000180833
0.000158132
0.000202612
0.000148679
0.000154752
0.000156271
0.000177442
0.000131996
0.000162941
0.0250746
0.000177141
0.000148519
0.000143512
0.00016602
0.000131986
0.000141016
0.000142885
0.000189008
0.000132683
0.000156644
0.000171432
0.000145157
0.000180094
0.000286603
0.000136661
0.000151816
0.000153961
0.000148667
0.00014765
0.00014154
0.000235864
0.000158023
0.000170923
0.0366169
0.000143705
0.000149245
0.0219241
0.000140836
0.000179837
0.000129134
0.000132465
0.0270734
0.00016121
0.0330302
0.0255602
0.0178332
0.000133175
0.000162978
0.000137893
0.000209644
0.00013775
0.000192933
0.000135294
0.000191567
0.000674099
6.72239e-05
0.00017354
0.000140989
0.000132496
0.000143164
0.00016374
0.000163812
0.000129127
0.000286649
0.00019418
0.000334863
0.000155495
0.000137706
0.0253231
0.00016683
0.000174516
0.000141038
0.000201832
0.000134944
0.000136052
0.0288987
0.000155369
0.000141019
0.000142986
0.000152517
0.000144537
0.0329899
0.00048476
0.000163137
0.000165578
0.000143565
0.00018344
0.00014688
0.000672298
0.000148651
0.000168106
0.000195429
0.000148795
0.000158206
0.0100606
0.000196663
0.000144256
0.000155923
0.000144532
0.000156262
0.0277725
0.00015642
0.000194018
0.000165211
0.000201526
0.00014778
0.000196615
0.000158989
0.000146835
0.000173834
0.000139157
0.000148678
0.000155589
0.00016649
0.00273319
0.000150415
0.000158682
0.000157664
0.000207616
0.000141866
0.000179046
0.000133789
0.00015487
0.000161224
0.000150101
0.000150544
0.000196194
0.000151964
0.000144665
0.000200097
0.00015257
0.000149195
0.000132479
0.000149343
0.000140688
0.000156321
0.00013887
0.000159462
0.025088
0.000145288
0.000171701
0.000149502
0.000131935
0.00015525
0.000146009
0.000141972
0.0293259
0.000177521
0.000194341
0.000202941
0.000197217
0.000145282
0.000151882
0.000133778
0.000156131
0.00611136
0.0323579
0.0373626
0.0167842
0.000146326
0.0434859
0.0226196
0.000139324
0.000147259
0.00022777
0.000205153
0.0159484
0.000603082
0.000130565
0.000137844
0.000158619
0.000198001
0.00689486
0.000191006
0.000341377
0.000133811
0.000197318
0.000135133
0.000155096
0.000144503
0.000199165
0.000142087
0.000221087
0.000170021
0.000180151
0.000164387
0.000148897
0.000177384
0.0178729
0.000168222
0.00265107
0.000158289
0.000145589
0.000148517
0.000148609
0.000179726
0.000208827
0.000154372
0.000169028
0.000143069
0.00018892
0.000175843
0.000215892
0.000151629
0.000146796
0.000203147
0.00014841
0.0298969
0.000171083
0.000138535
0.000143311
0.000128248
0.00017039
0.000138137
0.0290829
0.000142645
0.000149291
0.000163707
0.00560932
0.000152007
0.0281315
0.000180972
0.000149272
0.000199167
0.000152503
0.000148798
0.000143027
0.000143106
0.000152817
0.0268174
0.000170873
0.000136028
0.000143538
0.000138261
0.000143517
0.000142543
0.000138365
0.000155709
0.000159853
0.000144508
0.000170324
0.000133843
0.000131723
0.000166433
0.000166061
0.000150477
0.000186615
0.000136163
0.000172905
0.000175649
0.000130562
0.000140817
0.000201231
0.00127539
0.000179079
0.000169363
0.000172483
0.00016168
0.000150967
0.000149514
0.000240284
0.000155429
0.000161573
0.000167061
0.00014938
0.000150694
0.000191099
0.000154803
0.000173028
0.000138172
0.000176507
0.0279263
0.000153053
0.000157004
0.000136821
0.000142098
0.000179624
0.000155855
0.000146411
0.0293042
0.0210221
0.0294656
0.000144945
0.000148326
0.00013786
0.0336505
0.000209398
0.000169626
0.000181166
0.000136827
0.000138474
0.000181765
0.000153005
0.000145836
0.000157802
0.000157009
0.000194119
0.000139368
0.000143564
0.00279521
0.000136769
0.000153769
0.00017834
0.000139051
0.00017226
0.000232855
0.00028489
0.000148933
0.000157235
0.000136858
0.000136827
0.000154075
0.000142772
0.000147241
0.000150349
0.000143908
0.000150026
0.000161206
0.00013926
0.000138181
0.000180223
0.000194928
0.000135414
0.00259732
0.000146123
0.000151582
0.000152878
0.000141968
0.000145084
0.000153944
0.000149996
0.0282681
0.000155245
0.000135313
0.000174621
0.000175664
0.000150413
0.00015111
0.000161863
0.000154585
0.000163518
0.000132764
0.000191014
0.000132434
0.000135139
0.000144704
0.000189338
0.000162374
0.000141744
0.000135184
0.000170877
0.000210558
0.000201038
0.000162274
0.000195876
0.000165088
0.000138534
0.000133423
0.000142786
0.000132823
0.000154687
0.000235274
0.000145579
0.000141811
0.00482938
0.000151459
0.000141881
0.000159553
0.00243961
0.000168202
0.000144788
0.000174925
0.000148835
0.0301199
0.000208928
0.000147345
0.0241546
0.000144944
0.000138268
0.000145161
0.000163412
0.000159853
0.000134976
0.000145476
0.0396841
0.000161201
0.000143205
0.00429295
0.000145668
0.000141551
0.000164065
0.000175339
0.000175192
0.00021794
0.00016228
0.000201046
0.00398323
0.0300238
0.000216747
0.00197475
0.000128703
0.0001457
0.000139001
0.000140547
0.000168486
0.0308106
0.000147045
0.000213676
0.000235286
0.0206538
0.00835139
0.000149484
0.000155884
0.000143294
0.000181592
0.000148658
0.00832842
0.000148941
0.000137533
0.0431547
0.00014336
0.000202674
0.000258728
0.000216901
0.000154663
0.016701
0.000153644
0.000137876
0.000138245
0.00337182
0.000143701
0.000143609
0.00024062
0.000174012
0.000147511
0.000778303
0.000147592
0.00329528
0.000193018
0.00014546
0.0002331
0.000141247
0.000132928
0.000162859
0.000160408
0.000206408
0.000194227
0.000140783
0.000148543
0.000151741
0.00275506
0.000165863
0.000143887
0.011367
0.000132028
0.000161861
0.0037776
0.000155575
0.000148473
0.000132539
0.0284125
0.000217047
0.000179473
0.000156208
0.000157374
0.000156711
0.00019031
0.000216888
0.0283018
0.000210051
0.000171325
0.000168936
0.000197
0.000148775
0.00482031
0.000136649
0.000190872
0.0282934
0.000209432
0.000202013
0.000134693
0.0426541
0.000153908
0.000153624
0.000213077
0.000147982
0.000150276
0.00014915
0.000212678
0.000140468
0.00136497
0.000133274
0.000143271
0.000138624
0.000130212
0.000149717
0.000143492
0.0362745
0.000144137
0.0141086
0.000137633
0.000157501
0.0001386
0.000133495
0.00284477
0.00014751
0.000153176
0.0161263
0.000146985
0.0289485
0.000150526
0.041628
0.000558236
0.00120856
0.000143467
0.00013046
0.000207942
0.00019415
0.000130145
0.000133443
0.00533354
0.00014184
0.000150281
0.000195371
0.000174447
0.000146759
0.000141844
0.0177259
0.000136094
0.000138484
0.000143723
0.000148917
0.00381869
0.000148134
0.000138722
0.000226391
0.000143885
0.000141358
0.00013457
0.000163058
0.000155532
0.000137906
0.0287939
0.000171854
0.0109599
0.00013996
0.000141284
0.000142495
0.000191165
0.000170812
0.000153323
0.000216684
0.000143384
0.000170595
0.000206338
0.000154643
0.000156396
0.000157893
0.000133454
0.00014345
0.000471552
0.000146818
0.000209261
0.00015184
0.000174885
0.000958407
0.000173343
0.000152497
0.000156643
0.00015795
0.000155028
0.000155553
0.000154035
0.0113967
0.000179786
0.00015021
0.000179647
0.0332532
0.000254352
0.000218979
0.000172157
0.0300922
0.000165612
0.000136174
0.000140473
0.0205803
0.00897563
0.000167427
0.00120514
0.000152744
0.000204449
0.026367
0.0049488
0.0111322
0.000148791
0.0358199
0.000199872
0.000135429
0.000190023
0.000174125
0.000165213
0.000143872
0.00015825
0.000157561
0.000130361
0.000183519
0.000161544
0.0321173
0.000141148
0.000180012
0.000137596
0.000215343
0.000200524
0.000143564
0.000189579
0.000151195
0.00409452
0.000173476
0.000140457
0.00058718
0.000142528
0.0385884
0.000154753
0.00014851
0.000139726
0.000207499
0.000144756
0.000127851
0.000142474
0.0301292
0.000132374
0.000144027
0.00020582
0.00014897
0.000143497
0.000139898
0.00285659
0.000175565
0.000225483
0.000152664
0.0222447
0.000136325
0.000163041
0.000146103
0.000139758
0.000174165
0.0045859
0.000192141
0.0447556
0.000132406
0.000157149
0.00014933
0.000208745
0.000155542
0.000179593
0.000171829
0.00379757
0.000141772
0.0360905
0.00014396
0.000148117
0.000143531
0.000152022
0.000174541
0.000149146
0.000153056
0.000135611
0.0282708
0.000203144
0.0265824
0.000164114
0.000170104
0.00015448
0.000951495
0.000139148
0.000137414
0.000172401
0.000135023
0.000217966
0.000143507
0.000149731
0.000229783
0.000155426
0.000194621
0.000188687
0.0312239
0.000138854
0.000130423
0.00020698
0.000142294
0.000170621
0.000229292
0.000162947
0.0342276
0.000147406
0.0302582
0.000194712
0.000141262
0.0309412
0.000210036
0.000160909
0.0158391
0.00018143
0.000201233
0.000206141
0.00016132
0.000452428
0.000187972
0.00016261
0.000132211
0.0117729
0.00014855
0.00741458
0.000146749
0.00379077
0.000148134
0.000148267
0.000146756
0.000143434
0.0346722
0.000142567
0.000141904
0.000181544
0.000143736
0.000162568
0.000153482
0.000148282
0.00016818
0.000143948
0.000173929
0.000143612
0.000139308
0.000146709
0.000174906
0.000143141
0.00019096
0.000203846
0.000132029
0.000148788
0.00013551
0.00020984
0.000145041
0.000134495
0.000132083
0.000134806
0.000369273
0.000137771
0.000137819
0.00733265
0.000219187
0.000174375
0.000213347
0.000144046
0.000155127
0.000192482
0.000148964
0.00016755
0.000153253
0.000143879
0.000158457
0.000154275
0.000142915
0.000154301
0.000113593
0.000132156
0.000130535
0.000207458
0.000159107
0.00018084
0.000141664
0.000151513
0.00181931
0.000142052
0.000149441
0.000132708
0.000171174
0.0453237
0.000181345
0.0279221
0.000159412
0.000143528
0.000143507
0.00238766
0.000146384
0.000222395
0.000431993
0.000170903
0.000188003
0.0001428
0.000145448
0.000156221
0.000141783
0.000139421
0.000173597
0.000219682
0.000142002
0.00016954
0.000139444
0.00014434
0.000148778
0.000152757
0.000276399