/*--------------------------------*- C++ -*----------------------------------*\
| =========                 |                                                 |
| \\      /  F ield         | OpenFOAM: The Open Source CFD Toolbox           |
|  \\    /   O peration     | Version:  v2012                                 |
|   \\  /    A nd           | Website:  www.openfoam.com                      |
|    \\/     M anipulation  |                                                 |
\*---------------------------------------------------------------------------*/
FoamFile
{
    version     2.0;
    format      ascii;
    class       surfaceScalarField;
    location    "300";
    object      phi;
}
// * * * * * * * * * * * * * * * * * * * * * * * * * * * * * * * * * * * * * //

dimensions      [0 3 -1 0 0 0 0];
oriented        oriented;


internalField   nonuniform List<scalar> 
56329
(
-0.298629
0.356107
-0.0574779
-0.0101154
0.0710517
-0.0609363
0.0677939
-0.14587
0.0780757
0.0478555
0.00258305
-0.0504385
0.368015
-0.2922
-0.075815
0.361068
-0.354188
-0.00688018
-0.413664
0.33668
0.0769835
0.0391262
-0.0151795
-0.0239467
-0.136062
0.207198
-0.0711355
-0.137498
0.0652753
0.0722227
-0.244173
0.304491
-0.0603187
0.184988
-0.111802
-0.0731857
0.199155
-0.321504
0.122349
0.0753307
-0.229769
0.154439
0.224938
-0.118686
-0.106252
0.173297
-0.133574
-0.039723
0.282935
0.110237
-0.393171
-0.00509778
0.0293663
-0.0242685
0.0859925
0.0989955
-0.175569
0.240471
-0.0649026
0.133241
0.0400564
0.00564063
-0.0297494
0.0241088
-0.247672
-0.0592983
0.30697
0.371518
-0.103884
-0.267634
-0.0110885
-0.00160451
0.012693
0.281854
0.0800938
-0.361948
0.0371533
-0.129859
0.0927062
0.00227427
-0.0206992
0.018425
-0.148966
0.075044
0.0739217
0.333788
-0.413415
0.0796276
0.285385
-0.0207864
-0.264599
0.000938918
-0.0152732
0.0143343
-0.41063
0.310712
0.0999182
0.167148
0.0192338
-0.186382
-0.0228626
-0.0875767
0.110439
-0.101769
0.0728137
-0.0158084
-0.0570053
-0.00582682
0.0481259
-0.0422991
0.265997
-0.194202
-0.0717949
0.394988
-0.351178
-0.0438105
-0.166927
-0.182886
0.349813
0.14576
-0.069773
-0.0759867
0.172998
-0.0685803
-0.104418
-0.127705
0.0538112
0.0738934
0.153933
0.22487
-0.378803
0.182362
-0.0878003
-0.0945616
-0.0645428
0.179124
-0.114581
-0.200767
0.0787242
0.122042
-0.0414646
0.143981
-0.102516
-0.0248566
0.0753345
-0.0504779
-0.0230094
0.00618921
0.0168202
-0.123862
0.175021
-0.0511593
0.317986
-0.150838
-0.188006
0.207239
-0.120834
0.0979718
0.31501
-0.341018
0.0260083
-0.0511054
0.0685639
-0.0174584
-0.11689
0.162906
-0.0460153
0.0550172
0.00129558
-0.0563128
-0.0192526
0.0207653
-0.00151272
0.0891729
0.0931889
-0.0325589
-0.0721328
0.104692
-0.00164386
0.0494993
-0.0629352
-0.0647694
0.193715
-0.267408
0.0736933
0.149447
0.0754911
0.0682673
-0.0783827
1.22352e-05
0.0108007
-0.0108129
0.134858
-0.0344285
-0.10043
-0.14631
0.0589391
0.0873707
0.00380701
0.311203
0.363034
-0.425404
0.0623703
-0.210677
0.0868148
0.0644253
-0.0181207
-0.390721
0.334698
0.0560226
0.214562
-0.353749
0.139187
-0.0803215
0.0554649
-0.268614
0.348614
-0.0800001
-0.171914
0.0674811
0.104433
0.400421
-0.166294
-0.234127
-0.126229
0.0632938
-0.0359575
0.0308597
0.254427
-0.0654064
-0.18902
0.178512
0.139474
-0.0268789
-0.146919
0.173797
0.0903769
0.201743
-0.29212
-0.0207351
0.0405992
0.0942589
0.0716753
0.00113842
0.333223
-0.0513695
-0.0205488
0.0187384
0.0018104
-0.012343
0.116949
-0.104606
0.00201669
-0.392737
-0.108502
0.0759427
0.273591
-0.407201
0.13361
-0.0345531
0.0203174
0.0142358
0.346357
-0.0727655
-0.176042
-0.183264
-0.013596
0.00250753
-0.435098
0.357031
0.0780668
-0.066337
0.0152316
0.377585
-0.293203
-0.0843819
0.278136
-0.0844214
-0.182874
0.155995
-0.250506
0.149067
0.101439
-0.0276148
0.0332554
-0.434574
0.356171
0.0784022
0.0513517
-0.0116942
-0.0396575
-0.171032
0.105641
0.0653906
-0.353451
0.263647
0.0898038
0.00935216
0.0550732
-0.00453431
0.0272222
-0.0226879
0.287793
0.107195
-0.0021572
-0.0137047
0.0158619
0.0284178
-0.0329521
-0.149247
0.223164
-0.0739165
-0.290695
0.364275
-0.0735801
-0.103596
-0.0234798
0.127076
0.210691
-0.151064
-0.0596268
-0.171391
-0.0320816
0.203472
-0.210745
0.0852954
0.12545
0.0325939
-0.037086
0.00449203
-0.16055
0.314483
-0.398736
0.352269
0.0464678
-0.23447
0.378553
-0.144083
-0.0421947
-0.293528
0.335723
0.221453
-0.111835
-0.109618
-0.287858
0.388069
-0.10021
-0.214151
0.352778
-0.138627
-0.08881
0.134227
-0.0454172
0.221609
-0.0721621
0.303199
-0.104044
-0.289802
-0.108934
0.295726
-0.337921
0.333785
-0.274113
-0.0596719
-0.136031
0.0617258
0.0743049
-0.339372
0.104901
-0.0116352
-0.00102598
0.0126612
-0.100985
-0.0464162
0.147401
0.180044
-0.0940512
0.0673473
0.0784124
0.219997
-0.144666
0.223113
-0.161196
-0.0619173
-0.362585
0.148434
-0.340795
0.264566
0.0762291
0.0783313
0.101712
-0.205776
0.140328
0.0654481
0.36008
-0.248706
-0.111374
-0.046128
0.341854
-0.0191063
-0.0328277
0.0519341
0.191245
0.0318686
0.279033
-0.386041
0.107008
-0.0279487
-0.0239006
0.0518493
0.0722218
-0.0206235
0.306009
0.299654
-0.345782
0.047553
0.00953236
-0.0570854
-0.198614
0.360154
-0.161541
0.397363
-0.161356
-0.236007
-0.20829
0.32793
-0.119641
0.028053
-0.0138335
-0.0142195
0.0142347
-0.0132958
0.172208
-0.0691924
-0.103016
-0.357957
0.109251
0.0547569
-0.103416
0.0486586
-0.316861
0.108572
0.170309
-0.230958
0.060649
0.087899
0.133554
-0.230187
-0.0357271
0.265914
0.343971
0.0170972
-0.00972724
0.0743555
-0.0646283
0.294039
-0.0628473
-0.231192
0.140706
0.0699854
0.0810513
0.138946
0.0154083
0.33686
-0.212981
0.076919
0.196554
0.101987
-0.298541
0.0494139
-0.139227
0.0898131
0.306902
0.0268822
0.379874
-0.168656
-0.211218
-0.140382
0.0706092
-0.146621
-0.16955
0.316171
0.149014
0.23086
0.304624
-0.169355
-0.135268
-0.311863
0.368891
-0.0570272
0.000844058
-0.0159666
0.0151225
0.261028
0.033011
-0.0122734
0.000638209
0.0796299
-0.0059545
-0.0736754
0.227558
-0.280273
-0.0253553
-0.0408407
0.0661959
-0.260612
0.0850437
0.0274183
-0.0884245
0.0610062
-0.393837
0.301146
0.0926902
0.269939
-0.19617
-0.073769
0.0514163
0.218523
0.037531
-0.0654797
-0.193115
0.283492
-0.0119841
0.0181733
0.277886
-0.0503281
-0.0582813
-0.0679477
0.123978
-0.311244
0.187266
0.160846
-0.25842
0.0975743
0.177592
-0.0884193
0.0723623
0.314751
0.082612
-0.0229367
0.00712038
0.0158163
-0.285777
0.36554
-0.0797625
-0.0317955
0.0271467
0.0046488
0.0196562
0.245247
-0.264903
0.0158114
-0.0827308
0.0669194
-0.0774821
0.0769905
0.000491628
0.0656073
0.33433
-0.0513953
0.193332
-0.391945
0.0441968
-0.147793
-0.0598231
0.0723784
-0.0125554
0.0789555
-0.279222
-0.0144104
0.073713
-0.0593026
0.321986
-0.198008
0.0796764
0.0979158
0.316856
-0.304232
-0.0126241
0.0158831
-0.319947
0.304064
0.0138239
-0.0736469
0.264057
-0.350032
0.0859756
-0.0321772
0.0323137
-0.000136501
-0.289982
0.379151
-0.0891695
0.0407966
0.0107461
-0.0515427
-0.0411271
0.147667
-0.10654
0.119527
0.20246
-0.4166
0.4166
-0.0952183
-0.216026
-0.106562
-0.0830838
-0.0327996
0.115883
0.0195727
-0.0253097
0.00573693
0.28478
0.0320754
0.183758
-0.268121
0.0843629
-0.276381
0.3623
-0.0859193
0.0560838
-0.0814391
0.300114
-0.366369
0.0662549
-0.0218801
-0.160994
-0.0184996
-0.0160536
-0.0553486
0.123997
-0.0686481
-0.129691
0.0408808
0.0729578
-0.0636057
-0.19999
0.17811
-0.0234284
0.0306401
-0.00721172
0.0994517
0.0100427
-0.109494
-0.144269
0.282631
-0.138362
0.367007
-0.102951
-0.0370134
-0.0714883
0.0128335
0.0152195
0.249529
0.104355
-0.353885
0.191148
0.113476
-0.125868
0.0547274
0.0711405
0.206801
-0.289977
0.0831758
0.425418
-0.183704
-0.241714
-0.0836812
-0.0490397
-0.241419
0.290458
0.321089
-0.124536
0.156882
0.268536
0.0632601
-0.205158
0.141898
0.00876803
-0.0382118
0.0294438
0.285127
-0.126954
-0.158172
0.040868
0.00926921
-0.0501372
0.0832727
-0.0674613
-0.364169
0.0955545
-0.211596
0.289082
-0.0774859
0.354832
-0.275097
-0.0797343
0.098025
-0.249912
0.151887
0.248037
-0.297077
0.0364438
0.109274
-0.145717
0.0528497
-0.124939
0.0720896
-0.0271894
-0.112254
-0.0885129
-0.176748
0.0431733
0.356426
0.0205976
-0.377024
-0.000547406
0.0113481
-0.0553125
-0.239367
-0.0960849
0.335452
-0.23383
0.334176
-0.100346
0.140109
-0.0899386
-0.0501699
0.159214
-0.0884342
-0.0707803
0.295553
-0.0887513
0.0264024
-0.00682971
-0.110357
0.0733437
-0.274262
0.370614
-0.0963519
-0.283399
-0.172059
0.0659673
0.106092
0.334685
-0.0851559
-0.0240458
0.213836
-0.18979
0.00303795
-0.0134952
0.0104573
-0.0853812
-0.0521169
-0.37303
0.0987677
-0.00938111
0.0419709
-0.0325898
0.123388
0.158174
-0.281563
-0.166027
0.289416
0.214455
-0.131481
-0.0829735
0.282596
-0.262939
0.157876
-0.304497
-0.133529
-0.0432184
-0.107113
-0.0418522
0.0643731
0.107835
-0.199077
0.142472
0.0566049
-0.149103
0.307277
-0.000673392
0.363707
-0.206572
0.0838585
0.122714
-0.168311
0.0796545
0.0886562
0.0284144
-0.164321
0.135907
0.0940066
0.19112
0.0582566
0.143758
-0.209104
0.0653451
-0.0828916
0.0670831
-0.0890045
0.315381
-0.226377
0.0338464
-0.146333
0.112487
0.37545
-0.297686
-0.0777645
-0.249529
0.171191
0.078338
0.197901
-0.0541421
-0.124807
0.153221
-0.206582
0.182536
0.0294372
-0.00221496
-0.0127235
0.0535201
-0.0106813
0.0278662
-0.0171849
-0.350099
0.0568961
-0.069443
-0.0448768
0.11432
0.0378739
-0.0322066
-0.00566732
-0.198673
0.284356
-0.0856831
-0.10225
-0.103526
0.0390821
-0.112868
0.0737863
0.107875
-0.0687932
-0.0408817
0.0516278
0.307344
0.0331392
-0.340483
0.364104
-0.155942
-0.208162
0.0548033
-0.344606
-0.152654
0.230159
-0.0775047
-0.0930216
0.0393158
0.0537058
-0.0027761
0.0157394
-0.0129632
0.158409
-0.25598
0.0975703
0.048978
-0.00810998
-0.320703
0.231699
-0.0122469
0.011205
0.00104189
-0.0946187
0.0817922
0.0128266
-0.285404
0.366368
-0.0809641
-0.175324
-0.0758518
0.251175
0.0071485
-0.0305769
0.00232213
0.0125612
-0.0148834
-0.13041
0.0609667
-0.134008
0.0171175
-0.249404
0.325383
-0.0759792
0.223243
0.00452164
-0.227765
-0.136737
0.0952729
0.0112395
-0.0117869
0.114625
-0.100801
-0.0138247
-0.263748
0.255354
0.00839371
0.0469831
0.293245
-0.340228
0.0150298
0.000994288
-0.0160241
0.25889
-0.350266
0.0913768
-0.394493
0.236646
0.157847
-0.273203
0.382064
-0.108861
0.271592
0.0260516
-0.297644
-0.143288
0.0548858
0.0884024
-0.356469
0.0832661
-0.273697
0.369876
-0.0961787
0.108106
-0.0533495
0.406158
-0.248184
-0.157974
0.0146165
0.0449141
-0.0595306
0.0407739
-0.0941109
0.053337
0.317935
-0.386485
0.0685501
0.194981
-0.287351
0.0923707
0.37189
-0.0539557
0.105627
-0.174819
0.362215
-0.0625616
-0.0272038
0.0884336
-0.0612298
0.237501
-0.24548
0.127521
-0.293549
-0.108259
-0.102486
0.0147795
-0.0139355
-0.0147822
-0.107902
0.122684
0.341222
-0.341222
0.0562532
0.0838554
0.0140683
0.0588895
0.121498
0.0929572
-0.274114
0.370722
-0.0966077
-0.0565605
0.335593
-0.160142
0.0883866
0.0717559
0.244783
-0.35295
0.108167
-0.013329
0.014511
-0.001182
0.207875
0.100678
-0.308553
0.306374
-0.111393
0.0339639
0.00516232
0.046205
-0.120834
0.0746286
-0.0221264
0.173919
-0.151792
-0.298584
0.365087
-0.0665024
0.348638
-0.140763
-0.36109
0.0625052
-0.00920897
0.232857
0.0662286
-0.299085
-0.31314
-0.04795
0.340696
-0.294139
-0.046557
0.0764897
-0.182548
0.106058
-0.0109686
-0.0212085
-0.151291
0.264547
-0.113256
0.00137565
-0.159857
0.220452
-0.0605951
-0.0151827
0.348971
-0.162868
0.0622381
0.10063
-0.10574
0.13175
-0.0260103
0.175447
-0.111074
-0.258264
0.0874086
0.170855
0.125695
-0.0576044
-0.0680907
0.00947103
-0.0925548
-0.0645181
0.135792
-0.0712737
-0.297865
0.379633
-0.0817671
-0.0734968
0.306353
0.228079
-0.147027
-0.120624
0.0640934
0.0565304
0.0657553
0.00359582
-0.0693511
0.337298
-0.32255
-0.0147477
-0.257764
0.353643
-0.0958788
-0.158271
0.117144
0.312695
-0.0981329
-0.00341296
-0.251378
0.254791
0.0790428
-0.0174515
-0.0615913
-0.101139
0.0863568
-0.367745
0.308457
0.0592871
-0.306576
0.107903
0.316482
0.020816
-0.0604009
-0.0152801
0.00195108
0.0110434
-0.198582
0.187539
0.139278
-0.102835
-0.104268
0.142377
-0.0381092
0.0378705
-0.173244
0.135374
-0.223858
0.106339
0.117519
-0.00269528
-0.0108
0.444103
-0.194353
-0.24975
-0.0865208
-0.0845108
0.260399
0.0698107
-0.253922
0.184112
0.375061
-0.247257
-0.127804
0.285758
-0.354443
0.0686856
0.0635867
0.0744485
-0.340793
0.266345
0.198465
0.0796832
0.265321
-0.349315
0.0839942
-0.169593
-0.0601759
-0.084859
-0.15621
0.241069
0.274279
-0.0794622
-0.194817
0.0703286
-0.0596802
-0.0106483
0.0848077
-0.249639
0.164831
-0.0772492
-0.129323
0.0182544
-0.240656
0.222402
-0.248587
-0.165077
-0.116071
0.2528
-0.136729
-0.212833
0.29148
-0.0786472
0.0463128
-0.150581
-0.0926803
0.0463166
0.0463637
0.261698
-0.103288
-0.176962
-0.36512
0.0914236
-0.234194
0.277809
-0.0436153
0.337403
-0.206851
-0.130552
-0.335823
0.0814081
0.254415
-0.366136
0.0920217
-0.0668078
0.107582
0.0558716
-0.264481
0.20861
-0.1696
0.119104
0.050496
0.375446
-0.110125
-0.0554201
0.0495933
-0.00194391
-0.242229
-0.0111774
-0.0117593
-0.242057
0.157198
-0.176524
0.111981
-0.278319
0.187091
0.0912279
-0.266563
-0.0872993
0.353862
0.236877
0.138184
-0.0812374
-0.0745486
0.155786
0.245842
-0.249255
-0.0377857
0.0284046
-0.268243
0.363891
-0.0956487
0.147025
-0.0633104
-0.083715
0.00117065
0.355255
0.00120444
0.00686634
-0.00807079
-0.100572
0.120264
-0.0196913
0.361149
-0.213221
-0.147928
-0.0580393
0.0722146
-0.0141752
-0.223845
0.0626486
-0.244679
0.262933
-0.00391048
-0.0338753
0.0890224
-0.150601
0.0615791
-0.350766
0.064989
0.245166
-0.147141
0.308046
0.0674002
-0.290935
0.368682
-0.0777469
-0.00644957
0.0162644
-0.00981482
0.0392982
-0.0502887
0.0109906
-0.0513427
-0.300274
0.351616
-0.0557693
0.0596305
-0.0038612
-0.349283
0.0827206
-0.296603
0.378597
-0.0819942
0.0955096
0.28789
-0.339233
0.33777
-0.125918
-0.211852
-0.0209336
0.0251054
-0.00417181
0.04288
0.00847173
-0.10486
0.193882
-0.363097
0.105333
7.69336e-05
-0.0193296
0.0827194
-0.0646538
0.364767
0.0775988
0.0694267
0.0724536
-0.0785652
-0.0473028
0.304581
-0.125475
-0.179106
0.130613
-0.0743598
-0.330071
0.0962406
0.0143391
-0.0502294
0.338119
-0.0817841
0.0673737
-0.170434
-0.0790944
0.035289
-0.214196
0.178907
-0.202274
0.0512099
0.0401916
-0.211583
-0.0582151
0.0875563
-0.0293412
0.174094
0.187055
-0.113172
-0.0551383
0.402985
-0.168737
-0.234248
-0.130986
-0.0928722
-0.154568
0.0535833
-0.00564836
-0.235816
0.241465
-0.0932213
-0.130623
0.115089
-0.0688837
-0.0107443
0.0729134
-0.062169
-0.0112024
0.000216885
0.0109855
0.294121
-0.344351
-0.15054
-0.0999664
0.281837
-0.374657
0.0928193
-0.0969883
0.0905514
0.00643683
0.00424795
-0.0251816
0.180136
0.124445
-0.0235036
0.0269724
-0.00346885
-0.20201
0.102116
0.0998932
0.201126
-0.0759139
-0.125212
0.028786
-0.187193
0.158407
0.0625969
0.217409
-0.280006
0.105472
-0.0485762
-0.0568961
0.00289887
-0.122899
-0.079111
-0.0848559
-0.228176
0.313032
-0.20212
-0.0574664
0.259586
0.0510697
0.0544026
0.0105608
-0.111133
-0.163293
-0.126451
-0.0722514
0.142317
-0.0700656
0.147116
-0.0797684
-0.029939
0.0342343
-0.00429529
0.378467
-0.285449
-0.0930188
-0.0915473
-0.26641
-0.00167969
0.0167095
0.232084
-0.0995569
-0.132527
-0.0833992
-0.213492
0.296891
0.0722337
-0.0930956
-0.269489
-0.152337
0.181123
-0.00503555
-0.00282491
0.00786046
0.0354215
-0.00282755
0.0689601
-0.120857
0.0518973
0.00159848
-0.0292133
-0.246016
0.276838
-0.0308213
-0.033406
-0.107528
0.140933
-0.403461
0.233113
0.170347
-0.120462
-0.0514521
-0.0497351
0.141437
-0.0917022
0.0771901
0.0470373
-0.124227
-0.277689
-0.125772
-0.401226
0.3101
0.0911263
-0.293372
0.0508718
0.282899
-0.33377
-0.0399938
-0.311184
0.142362
-0.108515
-0.0119145
0.000712092
-0.0555702
0.343363
-0.0831918
0.023881
0.115397
0.202998
-0.208646
-0.0589576
0.274032
-0.336795
0.0627631
0.0322894
0.0219375
-0.298708
0.369469
-0.0707613
0.0880675
-0.0291428
-0.0589247
0.129058
-0.0457858
0.0194007
-0.116389
-0.0920745
0.275833
0.349779
-0.299576
-0.0502028
0.0487928
-0.000666856
-0.0862418
0.162731
0.16842
-0.261748
0.0933281
-0.29879
0.064596
0.377143
-0.0606609
0.0368789
-0.112233
0.0753543
0.071391
-0.135909
-0.0734781
-0.153092
0.113797
0.0392955
-0.0412844
0.210761
-0.169477
0.0506715
-0.225968
0.175296
0.0766177
0.00242509
0.0326391
0.0819861
0.0673066
0.108141
-0.0190943
-0.127216
-0.205903
0.0855544
0.120348
-0.0403245
0.036414
-0.0832611
0.0725168
-0.0743725
-0.08577
0.350289
0.00516791
-0.355456
-0.0186454
-0.00205387
0.0835799
-0.0178246
0.264285
-0.0633323
-0.200953
0.126296
-0.0620493
-0.064247
-0.0245182
0.11773
-0.0932116
0.00977443
-0.00856998
0.377583
-0.00409231
-0.37349
0.017402
0.122926
-0.164768
0.142642
0.0710767
-0.139781
0.0687041
0.312881
0.00497219
-0.317853
0.0487252
-0.116621
0.0678961
0.157962
-0.0523214
-0.30367
-0.076077
0.20705
-0.130973
0.0033848
-0.00842035
-0.110698
0.104255
0.0455166
-0.120128
0.0746119
-0.117738
0.0932195
0.0776676
0.183051
-0.260719
0.128146
-0.0588902
-0.0692563
0.00259419
-0.0325332
-0.00403434
0.227277
0.0338487
0.0596979
-0.0935467
-0.306575
0.379672
-0.0730971
-0.0427508
0.167032
-0.124282
-0.384692
0.0781168
-0.0222914
0.0799155
-0.0576241
0.257848
-0.0894277
0.129428
-0.0800137
-0.204792
0.0783362
0.126455
-0.357748
0.232636
0.125112
0.0521475
0.0174911
-0.132023
0.114532
-0.199921
0.147885
0.0520363
0.0167565
-0.0992554
0.0824989
0.21776
0.0612327
-0.278993
0.148554
-0.222411
0.0738565
-0.349602
0.0560743
0.0624921
0.0255754
-0.223881
0.182597
0.031866
0.0583911
-0.0902571
-0.0545872
-0.122456
0.177043
-0.361108
0.362021
-0.000913218
-0.0425225
0.355403
0.041445
0.0939766
-0.135422
-0.0231447
-0.00865084
-0.251739
0.337067
-0.0853281
-0.389707
0.128243
0.261464
0.240047
0.124405
-0.364453
-0.135106
-0.0707967
0.00178788
-0.0268456
0.0250578
-0.0513951
-0.039869
-0.00917105
0.0490401
-0.333218
0.380476
-0.136937
-0.243538
-0.00723181
0.062249
-0.279006
-0.0956511
0.0644162
0.312727
-0.211693
0.0518354
0.0542116
-0.351897
0.00820357
0.00521824
-0.0134218
0.0643703
-0.0866617
0.13447
0.0804302
-0.214901
0.297468
0.07405
-0.244263
0.348487
-0.104225
0.341703
-0.0526296
-0.289073
-0.193054
0.270721
-0.0525562
0.270316
0.0158487
-0.026289
0.0394691
-0.101478
-0.156785
0.354697
-0.289475
-0.0652219
-0.0323702
0.00343548
0.0289347
0.10304
-0.0855489
0.160754
-0.238558
0.0778042
-0.35478
0.110517
0.0297176
-0.279087
0.24937
0.0607597
-0.253611
0.192851
-0.0982874
0.165594
-0.0750719
0.0616248
0.0134471
0.0529841
-0.0118599
0.0597956
-0.0275062
-0.0618969
0.0343596
-0.0327611
0.267106
0.106672
-0.373778
0.0605179
0.0685406
0.115465
0.0441484
-0.363385
0.0988913
0.264494
-0.176727
0.12214
0.0299979
-0.135738
0.0544236
-0.396285
0.201932
0.363856
-0.0697346
-0.0979614
-0.012737
-0.2717
0.0404954
0.231205
0.114644
-0.0456836
-0.197506
-0.196331
0.201628
0.0465925
-0.24822
-0.114134
-0.186476
0.300611
0.126115
-0.168865
-0.153504
0.281025
0.221847
-0.119731
0.176016
0.10212
-0.232406
-0.202692
-0.275936
0.36429
-0.0883533
0.0519136
0.0657958
0.0813198
0.0140376
-0.0200572
0.00601957
0.127638
-0.103757
-0.228257
0.330379
-0.102123
-0.396678
0.251456
0.145222
0.0428426
0.0948757
-0.137718
0.329715
-0.405025
0.0753108
0.0910995
0.272792
0.0494931
-0.18247
0.132977
-0.0240966
-0.0358211
0.0599177
0.170385
-0.139046
-0.0313388
-0.0600493
0.040943
-0.083984
-0.0571685
0.141153
0.0779879
-0.00985258
-0.0681353
0.245063
-0.0843091
-0.00405045
0.0227181
-0.0186677
0.0655683
-0.137622
0.0720539
-0.232214
0.358365
-0.126151
0.374571
-0.0259334
0.00550674
-0.00833165
-0.0274655
0.252767
-0.225302
0.301644
-0.188399
-0.113245
0.00875963
0.0109374
-0.019697
0.294766
-0.376586
0.0818198
0.081911
0.0130955
-0.0950065
0.291195
0.0833762
0.140453
0.125544
0.176184
-0.261947
0.0857633
-0.382929
0.249628
0.133301
-0.00911759
0.0484157
-0.000532626
0.174452
0.0867638
0.135083
0.246973
-0.274439
-0.0783896
0.254406
-0.299831
0.38055
-0.0807192
-0.347438
0.10807
-0.142108
0.0595984
0.0825098
-0.177688
0.323519
-0.145831
-0.113522
0.303864
-0.102465
-0.201399
-0.015319
0.0628721
0.0493451
-0.0957086
-0.0486163
-0.0692954
-0.0728128
0.182411
0.0509916
-0.233403
-0.0113423
0.0127179
0.231018
0.0706257
-0.0680745
0.20878
-0.0664573
0.340489
-0.308346
0.154842
-0.228849
-0.167436
0.0156168
0.112021
0.0261055
0.00631703
-0.0324225
0.294075
0.0697807
0.368474
-0.074399
-0.0233641
0.0305126
0.159337
-0.273471
-0.0757817
0.3068
0.079006
0.000623933
-0.087792
-0.0376462
0.125438
0.052154
0.0200606
-0.0233117
0.0837613
-0.0101987
-0.0735625
-0.0388687
0.0271745
0.0215931
0.250032
-0.0738483
0.013805
-0.0159622
-0.0516032
0.234014
-0.0545758
0.0609329
-0.27037
0.209437
-0.353846
0.118903
0.234942
-0.248466
0.184382
0.0640839
0.0574591
0.0731538
-0.123933
-0.262746
0.0143032
-0.00609962
-0.175211
0.0547489
0.0834841
-0.13534
0.0518557
0.0106488
0.0012294
-0.0118782
0.116943
-0.0441204
-0.0728227
-0.245087
-0.137842
0.211928
0.234711
0.13265
-0.209899
-0.161769
-0.0377468
0.199515
0.249679
0.0782108
-0.327889
-0.14173
-0.0110472
0.152777
-0.0664846
0.312327
0.388235
-0.053537
0.252929
0.0887738
0.228523
-0.219094
-0.00942809
0.375674
-0.067217
0.0694127
0.0001043
-0.069517
0.0366735
-0.230875
0.0565055
-0.161365
-0.308299
0.181345
0.167641
-0.111135
-0.0658873
-0.0287314
-0.183424
-0.25115
-0.000501798
0.253269
0.336765
-0.0870869
0.161611
-0.300726
0.139115
-0.0565498
0.258178
-0.112491
0.0467872
0.0657035
-0.195614
-0.0827055
0.056927
-0.17661
0.119683
0.333129
0.0444542
0.0392705
-0.108627
0.0693569
0.0385665
-0.136928
0.0983611
0.116934
0.187557
-0.239649
0.319206
-0.079557
0.114417
-0.261513
0.147096
0.0381009
0.190422
0.311305
-0.149694
-0.0934564
-0.334318
0.272531
0.0617868
-0.296084
0.277806
0.0182782
0.0681127
-0.0159587
-0.269545
0.285428
-0.256635
0.331329
-0.0746945
0.0578478
0.075675
0.0506213
0.120285
-0.0446101
-0.302847
0.13592
0.0925061
0.255981
0.0876577
-0.0709012
0.2099
-0.337177
0.127277
0.0123617
-0.0017129
0.135274
-0.0517895
-0.110264
0.0477089
0.0625552
0.0497803
0.289912
-0.339692
-0.0706565
-0.0499998
0.120656
-0.0841601
-0.245181
0.0393314
0.00964661
-0.123751
-0.0566775
0.205342
-0.148664
-0.0209026
-0.0565795
0.278561
0.00574864
-0.28431
-0.357171
0.181129
0.248189
-0.0731635
-0.175026
0.0441467
0.070942
0.17689
0.0254622
-0.0657007
0.0402385
0.262711
-0.232994
-0.120899
0.167212
-0.115864
0.013613
-0.0112909
-0.0516217
-0.0586424
-0.276947
0.383909
-0.106962
-0.183772
-0.124527
-0.00891692
-0.102885
0.0329691
-0.0051515
-0.0278176
-0.174237
-0.179214
-0.0519019
0.33766
0.15911
0.0112751
-0.0940116
-0.112108
0.103191
-0.0147967
0.0967077
-0.0519198
0.0391962
-0.137352
-0.124595
0.00998407
0.0444435
-0.0544275
-0.0257423
-0.00662785
0.0222765
-0.0204886
-0.0845033
0.028566
0.0559372
-0.237437
-0.00822244
-0.315544
0.110682
0.204862
0.329464
-0.279779
-0.0496842
0.0608861
0.0983283
0.160588
0.0625756
0.0664278
-0.283201
0.216774
-0.182883
0.0568395
0.126043
0.0476083
-0.00827689
0.0226572
-0.164387
-0.290249
0.101851
0.355247
-0.288654
-0.0665928
0.203383
-0.33501
0.131627
0.276958
-0.21053
0.299299
-0.357073
0.0577737
-0.0752212
0.224288
-0.0503449
-0.245739
0.283595
-0.37246
0.0888644
-0.227251
0.295107
-0.0678562
0.273874
-0.258025
0.34446
0.00326954
-0.347729
0.250888
0.105388
-0.356275
0.0267759
-0.0261241
-0.0006518
0.296609
0.0146958
0.00923339
0.045776
-0.0550093
0.124137
0.213633
0.0790348
0.0412503
0.0605993
0.0390727
-0.099672
0.311195
-0.101295
0.311216
-0.0146069
0.00309509
-0.0182682
0.0151732
0.0137761
0.0240978
-0.105845
-0.0150542
-0.0515152
0.119975
-0.0684595
-0.134144
0.0428477
0.091296
0.0691996
0.286047
0.0844296
-0.341064
0.0334682
0.0744072
-0.0521929
0.0525925
-0.000399632
-0.0722843
0.335931
-0.161057
0.0158743
-0.148346
0.132471
-0.0306138
-0.134154
0.303547
-0.024986
-0.0133675
-0.0557739
0.0691414
0.0789763
0.00478504
-0.0632963
0.0782769
-0.0149807
-0.294507
0.0672563
-0.0523809
0.129571
0.0835298
-0.0550506
-0.0284792
-0.0116576
0.0129814
-0.00132373
0.316414
0.0338748
-0.00422514
0.360397
-0.0617833
-0.114741
-0.330944
-0.0856551
-0.375506
0.147928
0.227578
0.155269
-0.211946
-0.00460872
0.0740214
0.300826
-0.249954
-0.0860952
0.153576
0.2105
0.228272
-0.0314306
-0.196841
-0.0194968
0.0174038
0.00209299
0.0866967
-0.371855
0.285158
-0.0547038
0.0512136
0.00349014
-0.195201
-0.194506
-0.0134284
-0.167968
-0.17464
0.342608
-0.0548479
0.0662627
-0.0114148
-0.218624
-0.0553043
-0.00017142
0.0554757
-0.111243
0.162163
-0.0509196
-0.364694
0.364694
-0.0487235
-0.0719003
0.0457599
0.0722248
0.119154
-0.0517292
-0.0674247
0.356809
-0.0878352
-0.268974
0.347058
-0.260362
0.032868
-0.0569646
-0.154676
0.103487
0.0350752
-0.138562
0.118852
0.0489251
0.0657186
-0.37721
0.301038
0.076172
0.127056
-0.0831871
-0.0438688
-0.0752983
-0.269068
0.344366
0.0672118
0.095694
0.0167527
-0.0616055
0.0448528
-0.138593
0.0648615
0.0737315
-0.075317
0.29056
0.040417
-0.330977
-0.0742032
-0.0661789
0.119959
0.0324507
-0.15241
-0.110762
0.0417047
0.0690577
-0.00145524
-0.0148366
0.0162918
0.149148
-0.179762
-0.129714
-0.07256
-0.0186456
0.00302845
0.0156171
0.0347802
-0.0086747
-0.0209765
0.0169261
0.0565309
0.070525
0.00407598
-0.0191117
0.0150358
-0.0271549
0.00401029
-0.0872083
0.160716
-0.0735077
0.311593
0.0913922
-0.0240797
0.36076
0.229078
-0.313934
0.042938
0.0969675
-0.139906
0.0697662
-0.00178704
0.0122135
-0.0104265
0.0716644
-0.29563
0.223966
-0.364009
0.0730733
-0.0139295
0.135427
0.0631899
-0.118539
-0.100885
-0.139857
0.240742
-0.364906
0.313174
0.0517327
-0.280253
0.161056
0.119198
-0.0566244
0.127701
0.263715
0.0688676
-0.332582
-0.139985
0.0551501
0.0848347
-0.089165
-0.245327
0.334492
0.213722
-0.344852
0.131129
-0.0502211
0.0712675
-0.0210465
-0.0455612
0.0056922
-0.0719646
-0.158993
0.320077
-0.106355
0.291093
-0.219428
0.0463787
0.18904
-0.235419
-0.268436
0.188877
0.0795589
-0.424166
0.220846
0.20332
-0.00112904
-0.0198475
0.0969494
-0.0112995
-0.0856499
0.337707
-0.0929233
-0.07723
-0.0588006
-0.20795
-0.216215
-0.356103
0.280805
-0.00390167
-0.0514026
0.302762
-0.363129
0.0603669
0.0242878
-0.119353
0.0950656
0.190703
-0.111204
-0.0794986
0.119867
-0.0547015
-0.0651655
-0.121911
-0.0532994
-0.0943253
0.137263
0.0944357
0.260396
-0.336591
0.169103
0.167489
0.0925659
-0.146267
0.0537007
0.351432
-0.0502852
-0.141071
0.06882
0.125483
-0.0188597
-0.106623
-0.130971
-0.0738202
-0.0661674
-0.0268542
-0.221876
-0.114715
-0.114286
0.0479821
0.0663044
0.0334994
0.0126063
-0.0461057
0.235637
-0.129298
-0.0216499
-0.0952925
-0.379784
0.214815
0.16497
-0.121577
0.054588
0.0669894
0.277525
-0.0567226
-0.220802
0.280211
-0.233227
0.0400774
-0.0722944
-0.0662986
0.0104923
0.0511094
-0.0616017
-0.179945
0.13832
-0.0634765
-0.0748438
-0.0921328
-0.0420109
0.0416456
0.0560883
-0.0977339
0.0410953
0.231939
-0.0820653
-0.149874
0.117339
-0.0930508
0.00810335
0.254608
0.285171
-0.393887
0.108716
0.0570852
0.10879
0.126847
-0.0708065
-0.0326091
-0.15141
0.0701727
-0.0848191
-0.157238
0.257707
-0.187897
0.0435975
-0.205366
-0.0498778
0.0603701
0.172609
-0.0942774
-0.0171931
-0.241264
0.258457
-0.0179892
0.0165339
0.0253147
-0.00499621
0.0190338
0.187408
-0.151937
-0.0979743
-0.0301185
-0.248969
0.114574
-0.191354
0.0767801
0.074975
0.0976337
-0.407141
0.174927
-0.00654316
0.103493
-0.153932
0.0620211
0.0919106
-0.0211256
-0.00602936
0.280062
0.0755927
-0.355655
0.0418129
-0.0509305
-0.377838
0.102551
0.275287
0.199413
0.0288589
0.289454
0.0673551
0.0923941
-0.148077
0.0556831
0.00562358
0.0125043
-0.0181279
-0.0378785
0.03103
0.169577
-0.200607
0.176854
0.0682092
-0.0699286
0.122778
0.0291035
-0.00232756
0.0173298
-0.0201434
0.00281359
0.0470856
-0.360225
0.241991
-0.331156
-0.351681
0.0550783
-0.129124
-0.248714
0.0203479
-0.312548
-0.173737
0.111953
0.0704746
-0.245798
-0.0452838
-0.137264
0.0122789
-0.015055
0.0380563
-0.155699
0.117643
0.252477
-0.042592
0.103191
-0.360117
0.104457
0.25566
-0.177482
0.22386
-0.24689
0.188699
0.0581902
0.0312598
0.280471
-0.216572
-0.0638994
0.087681
0.144258
-0.0106767
-0.138107
0.148783
-0.388636
0.20575
-0.122305
0.0531559
0.0691492
0.0498481
-0.18492
0.135072
0.0786692
-0.0393534
0.140281
-0.124406
-0.110631
0.274336
-0.163706
0.0553429
-0.354919
-0.16514
0.19617
-0.0894347
0.0264521
0.0629826
-0.315076
0.0697492
0.061811
0.128891
0.441592
-0.27414
-0.167452
-0.132936
-0.224235
-0.148686
0.11528
-0.125133
0.248436
-0.240333
0.274557
-0.175798
-0.0987588
0.0444751
0.0849525
-0.0546455
-0.066212
-0.133673
0.0883679
0.0453047
-0.317205
0.0889481
-0.220729
-0.0145071
0.013746
0.000761043
0.00243162
-0.131726
0.129294
-0.361579
0.161106
0.200474
0.26302
-0.307594
0.0445742
-0.200248
0.288332
-0.0880842
-0.235762
-0.125817
0.392134
-0.325657
-0.0664764
0.343584
-0.401007
0.0574224
-0.0388259
-0.0229095
0.0617354
0.0530256
0.0661282
0.010311
-0.0167606
-0.0422609
0.00422136
0.0380396
0.0156852
0.0649919
-0.0806771
-0.0531478
-0.0197895
0.0729373
-0.321171
0.0973227
0.223848
-0.0316415
-0.0610388
-0.17337
0.0988215
-0.385402
0.0993692
0.286033
0.0426629
-0.101483
0.0588199
0.00573868
0.351292
0.0122982
0.10504
-0.226501
-0.0946703
0.07195
0.0236794
-0.0956294
-0.35502
0.0655442
0.328664
0.12926
-0.204965
0.0757046
0.0632792
0.238377
-0.301656
0.271861
0.0751977
0.199764
-0.221367
-0.179859
-0.145696
0.201056
-0.0553608
-0.373367
0.0974302
-0.132622
-0.24875
0.227619
-0.310119
0.0824998
-0.0167384
-0.0840621
-0.0426592
0.117703
0.293784
0.106637
-0.0838186
-0.270961
-0.0822
-0.0610882
0.148382
-0.297569
0.149187
0.355949
-0.0653889
-0.0139809
-0.00136928
0.0153501
0.173949
0.267643
-0.140649
0.14308
0.015735
0.126627
-0.284253
0.334033
-0.351938
0.0923994
0.259539
0.0634836
0.237081
-0.300564
-0.10355
0.218124
0.28998
-0.0161063
0.282051
-0.0231615
0.0188153
0.172168
0.0778646
-0.0586766
0.10134
0.128341
-0.206756
0.0784146
-0.21255
0.276033
0.0159346
0.153023
-0.0606291
-0.250559
-0.101379
0.30356
-0.155177
0.350312
-0.1459
-0.344104
0.0671574
-0.0626434
-0.120239
0.314748
-0.0871289
-0.0395178
-0.0545931
-0.347382
0.1586
-0.115615
-0.0429851
-0.0613209
0.123047
0.331583
-0.0580494
-0.273533
-0.361223
0.0988441
0.262379
-0.314527
-0.00372757
0.318255
0.0863706
0.237293
-0.323663
0.340826
-0.266378
0.0886283
0.281985
0.0394308
-0.113128
0.0736971
-0.247821
-0.165595
0.00364433
0.0399744
-0.0436187
-0.220332
-0.137416
-0.121647
0.178487
-0.231515
0.297744
0.136959
0.0392288