/*--------------------------------*- C++ -*----------------------------------*\
| =========                 |                                                 |
| \\      /  F ield         | OpenFOAM: The Open Source CFD Toolbox           |
|  \\    /   O peration     | Version:  v2012                                 |
|   \\  /    A nd           | Website:  www.openfoam.com                      |
|    \\/     M anipulation  |                                                 |
\*---------------------------------------------------------------------------*/
FoamFile
{
    version     2.0;
    format      ascii;
    class       volVectorField;
    location    "300";
    object      U;
}
// * * * * * * * * * * * * * * * * * * * * * * * * * * * * * * * * * * * * * //

dimensions      [0 1 -1 0 0 0 0];


internalField   nonuniform List<vector> 
37809
(
(1.00836 0.000344395 0)
(1.07675 0.0536778 -8.19129e-21)
(1.0624 0.0203002 -4.57594e-21)
(1.08217 0.0670887 -1.10818e-20)
(1.01183 0.000915177 0)
(1.00055 -1.55186e-05 -1.36683e-22)
(1.00227 -4.48346e-05 8.5456e-23)
(0.67417 0.0984319 7.56426e-21)
(1.03388 0.0149401 -3.28984e-21)
(1.05183 0.0384146 -5.17615e-21)
(1.01634 0.0155842 0)
(1.04072 0.0296285 0)
(1.01369 0.0025263 1.12842e-22)
(1.02344 0.0187848 4.84334e-22)
(1.03051 0.0180772 -2.71368e-21)
(1.04871 0.0167727 2.40574e-21)
(1.0031 7.90234e-05 2.25794e-24)
(0.799491 0.0575912 -6.7366e-21)
(1.04023 0.0296193 0)
(1.02944 0.00709429 0)
(1.04849 0.0170438 -2.95876e-21)
(0.777379 0.083145 1.05775e-20)
(0.884876 0.0359545 7.66167e-22)
(1.01234 -0.00414054 7.52967e-24)
(0.397067 0.0195191 3.63771e-21)
(1.00349 0.000148691 -1.2787e-22)
(1.04667 0.0278537 6.29709e-21)
(0.553577 0.0560801 0)
(1.05844 0.0346808 0)
(1.00457 -6.43939e-05 9.92738e-23)
(1.02016 0.0067628 5.32718e-22)
(0.486727 0.0315889 -9.54083e-21)
(1.02156 -0.000100874 1.90781e-21)
(0.995356 -0.0114769 0)
(1.04641 0.0290313 -1.54519e-21)
(1.02149 -0.000196144 0)
(1.08959 0.0518173 0)
(1.07818 0.0635918 -1.23695e-20)
(0.989626 0.107848 0)
(1.01113 0.000316519 0)
(1.00964 -0.00063805 2.46208e-23)
(1.03991 0.0822583 7.53895e-22)
(1.05046 0.0162017 -5.30308e-21)
(1.05056 0.0398388 2.11574e-21)
(1.01973 0.000571434 4.96137e-21)
(1.04518 0.0308813 -6.13864e-21)
(1.04208 0.0152595 0)
(1.02911 0.0215015 1.43238e-21)
(1.04141 0.0199172 0)
(1.0504 0.0555254 -3.39609e-21)
(0.537354 0.0552092 -1.40109e-20)
(0.807992 0.0465169 -3.74057e-21)
(0.9944 -0.01635 -1.09409e-21)
(0.99783 -0.0101691 0)
(1.04629 0.0285991 6.75522e-21)
(1.01197 0.00112712 -7.35127e-23)
(1.07452 0.0661375 9.61334e-21)
(1.05549 0.0228756 -3.5449e-21)
(1.07752 0.0721041 0)
(0.549736 0.0467653 9.51473e-21)
(1.0447 0.0309334 5.69582e-21)
(1.05458 0.0356659 8.08847e-23)
(1.08855 0.067475 1.1787e-20)
(1.05113 0.0397197 -2.13497e-21)
(1.0174 0.00646352 -1.07354e-22)
(1.03016 0.0180878 -1.65384e-21)
(1.07656 0.0530788 0)
(0.381697 0.0105107 0)
(1.04532 0.0386868 -1.79311e-21)
(1.0277 0.0536302 -1.84876e-21)
(1.01208 0.00107375 -6.25391e-23)
(1.00533 0.000254358 -2.5428e-22)
(0.831928 0.0379843 2.50202e-21)
(1.09519 0.0581432 0)
(1.00178 -3.42589e-05 -8.11205e-24)
(1.05706 0.0175638 8.00638e-23)
(1.05073 0.0553355 -6.18935e-21)
(1.00533 0.000112895 0)
(1.04922 0.0151707 -2.53302e-21)
(1.01839 0.000280356 1.64324e-21)
(1.05162 0.0402077 4.39705e-21)
(0.832344 0.0583686 0)
(1.03453 0.00355256 0)
(0.997418 -0.0194406 0)
(1.01694 0.0481489 -5.61657e-22)
(0.368872 0.00818915 -6.41853e-21)
(1.01531 0.00654007 -4.60973e-23)
(0.540421 0.0533624 9.07367e-21)
(1.04477 0.0388523 2.69931e-21)
(1.08925 0.0520639 3.88618e-21)
(1.00212 4.14459e-05 0)
(0.520773 0.0375547 -6.64082e-22)
(1.06716 0.0286069 0)
(1.00147 -1.80346e-05 0)
(1.05446 0.0351613 0)
(1.00789 0.00013824 7.62775e-23)
(0.706216 0.0539203 0)
(1.00777 0.000127433 0)
(1.00605 -0.000208496 0)
(0.388104 0.0179405 0)
(1.00689 0.000424349 -4.64873e-22)
(1.07516 0.0664559 -1.64078e-20)
(1.00844 0.000362264 4.44717e-23)
(1.01731 0.00654518 2.34485e-22)
(1.01687 0.0455816 -3.41148e-23)
(1.02341 0.0154709 0)
(0.79768 0.0848273 -9.85415e-21)
(1.00233 3.74953e-06 0)
(0.681565 0.0868826 -5.07262e-21)
(0.934918 0.0921045 -2.33897e-21)
(1.01266 0.00365794 4.15554e-24)
(1.09474 0.0581045 0)
(0.760484 0.0570979 7.54824e-21)
(1.01123 0.000287393 0)
(0.527612 0.0341938 -5.126e-21)
(0.793905 0.0582356 6.86844e-21)
(1.02916 0.0174307 -4.95551e-21)
(1.00902 0.00201344 0)
(0.9733 0.0813348 0)
(1.04125 0.00411362 1.30911e-21)
(1.0609 0.0295008 -4.3584e-23)
(1.01912 0.0164493 0)
(0.685487 0.0857502 -1.59134e-20)
(1.01977 0.000654627 -4.00313e-21)
(1.01162 0.000229772 -9.64937e-23)
(1.05132 0.00153138 -9.37363e-26)
(1.00557 6.84127e-05 7.36145e-23)
(1.03554 0.0210802 2.31545e-21)
(1.00702 6.78343e-05 0)
(1.00742 9.93989e-05 0)
(1.06073 0.0203456 -4.49392e-21)
(1.02984 0.0177528 1.18734e-21)
(1.01354 0.00251636 6.48181e-23)
(1.01152 0.000221956 9.92532e-23)
(1.00548 6.48736e-05 1.44352e-22)
(1.01209 0.00403895 6.27817e-22)
(1.04928 0.0412433 5.49305e-21)
(1.05634 -0.000728112 0)
(0.362612 0.0150895 0)
(1.05785 0.0140342 0)
(1.04016 0.0302617 0)
(1.03733 0.0839116 1.8073e-21)
(1.02335 0.0189121 9.30238e-22)
(1.03939 0.00540628 1.00093e-20)
(1.00756 0.000116526 -9.88836e-23)
(1.01148 0.00286928 -3.42163e-22)
(1.03976 0.0302875 0)
(1.03013 0.0215791 0)
(1.00709 8.01073e-05 -2.57805e-22)
(1.00543 5.88864e-05 -1.45096e-22)
(1.09303 0.0631967 1.38254e-23)
(1.03937 0.00568099 -4.5327e-21)
(1.01888 0.000306925 2.2627e-21)
(1.08201 0.0660267 0)
(1.00714 7.40466e-05 4.48967e-23)
(1.01992 0.00704287 -3.08715e-22)
(1.00534 5.55893e-05 1.42107e-22)
(0.613634 0.00199269 2.69063e-21)
(1.00595 -0.000201144 -3.92305e-24)
(1.002 -2.41809e-05 0)
(1.02334 -2.80947e-05 0)
(0.537814 0.0736667 9.64814e-21)
(0.470987 0.0294725 2.93896e-22)
(1.04551 0.0120827 2.08201e-21)
(1.00722 9.07173e-05 1.12935e-22)
(1.0628 0.0492932 4.81609e-21)
(1.02358 -0.000115284 0)
(1.08472 0.0258276 1.37696e-22)
(1.03516 0.0211362 2.2224e-21)
(0.88006 0.049739 -6.73642e-23)
(1.00087 -3.81049e-05 1.28199e-22)
(1.04971 0.0553823 3.29762e-21)
(1.01957 0.0121652 -1.14761e-21)
(1.04118 0.0045321 1.45999e-21)
(1.02318 0.0187325 -2.10639e-21)
(1.01148 0.000235755 -1.29912e-23)
(1.03424 0.0151891 4.11716e-21)
(1.01524 0.00737368 3.54716e-22)
(1.03674 0.0456564 0)
(1.01196 0.0039382 1.428e-22)
(1.01401 -0.000351572 8.38031e-23)
(1.04254 0.0835813 -1.4873e-21)
(1.01212 0.000866861 1.10584e-22)
(1.01414 -0.000321103 7.69494e-23)
(1.02404 0.00529133 -3.54836e-21)
(1.00848 0.000215043 8.72415e-23)
(0.521197 0.0324632 -1.09278e-20)
(1.01941 0.0121398 5.36184e-22)
(0.368045 0.0162386 -1.36995e-21)
(1.0656 0.0582517 1.83442e-20)
(0.887139 -0.146037 1.05744e-21)
(1.08343 0.0570532 1.28139e-20)
(1.02979 0.00717386 0)
(1.04838 0.0517871 3.47918e-21)
(1.00149 -3.04898e-05 -8.95252e-23)
(1.03408 0.00393077 0)
(1.03406 0.00422064 0)
(1.08195 0.0655824 1.44589e-20)
(1.01544 0.00656339 -3.01231e-23)
(0.527758 0.0536845 -5.93979e-21)
(0.894092 -0.144591 -1.58151e-21)
(1.05218 0.0401215 0)
(1.01738 0.00993243 7.8706e-22)
(1.01723 0.00641025 1.58339e-22)
(1.0447 0.0316414 -2.70304e-21)
(1.0295 0.0177759 1.29279e-21)
(1.00217 -2.78817e-05 -3.21248e-23)
(0.534706 0.0400498 -9.88027e-21)
(1.00845 0.000286786 -1.82361e-22)
(0.670325 0.0532212 0)
(0.977725 0.00230911 -4.5637e-22)
(1.04936 0.0508442 8.8775e-22)
(1.0554 0.0846343 -7.83514e-21)
(1.05002 0.0552071 2.55616e-21)
(1.00231 2.79971e-05 -4.42754e-24)
(1.00586 -0.000187266 0)
(0.974727 0.0866848 -7.246e-22)
(1.08949 0.0588041 1.63506e-21)
(1.0085 0.000353307 -4.27233e-23)
(0.881781 0.0673695 0)
(1.08605 0.0493813 0)
(1.01738 0.0100856 -1.50577e-21)
(1.04427 0.0317203 -5.00954e-21)
(1.00333 0.000132817 5.91447e-23)
(1.00108 2.19051e-05 0)
(1.08985 0.0589898 -3.42656e-21)
(1.01148 0.00347861 -1.09018e-21)
(0.732608 0.0583882 1.3234e-20)
(1.00526 4.27829e-05 -3.75995e-23)
(1.09878 0.0631663 0)
(1.04837 0.0126788 4.71115e-21)
(1.01722 0.00996367 -7.04397e-22)
(1.00007 3.05196e-06 0)
(1.01755 0.0100501 0)
(1.01718 0.00649063 9.96195e-23)
(1.04848 0.053292 -1.8847e-21)
(0.663074 0.05395 1.12465e-21)
(1.00411 0.000134539 -1.53329e-22)
(1.01748 0.0120796 -2.20613e-22)
(1.00858 0.000169282 4.87574e-23)
(1.08336 0.0564987 1.55893e-20)
(1.00191 -2.78606e-05 -3.62513e-24)
(1.02101 0.0435345 2.62325e-22)
(0.707252 0.0543029 7.48693e-21)
(1.05819 0.0389277 -8.63176e-21)
(1.06135 0.0204979 5.37298e-21)
(1.0947 0.0574983 -1.47742e-20)
(1.02037 0.0409896 3.05664e-22)
(0.740698 0.0561255 3.55511e-21)
(1.06381 0.0389234 -3.19778e-21)
(1.02166 0.00517745 -1.74505e-21)
(1.01135 0.00335586 8.5194e-22)
(1.05513 0.0348405 -4.04196e-23)
(0.536509 0.0772213 8.768e-21)
(1.01186 0.000737532 -8.2624e-22)
(1.02385 0.00534789 1.97019e-21)
(1.04946 0.0474234 0)
(1.02368 0.00311229 1.43246e-21)
(1.01765 -0.000153244 2.79744e-22)
(1.0468 0.0283189 -6.91135e-21)
(1.01302 -7.48327e-06 0)
(1.01512 0.00720855 1.07558e-22)
(1.01775 0.000183365 0)
(1.02737 0.0185287 1.03395e-21)
(0.876553 0.0604176 -3.35226e-21)
(1.02316 0.0122895 2.86555e-21)
(0.974991 0.071233 -2.63426e-21)
(1.04942 0.0503074 -8.29316e-22)
(1.00538 0.000122488 1.55141e-23)
(1.01736 0.0113589 8.24315e-24)
(1.01228 0.00344634 0)
(1.03009 0.0126312 3.79856e-21)
(1.01286 6.60786e-05 -1.57105e-22)
(1.01522 0.0368702 -2.40732e-22)
(1.04797 0.0425844 1.88676e-21)
(0.845229 0.0592825 -3.45003e-21)
(1.02945 0.0215901 0)
(1.04935 0.0168196 -5.54718e-21)
(1.00096 -2.86016e-05 1.40743e-22)
(0.389603 0.0115917 -1.21005e-20)
(1.04834 0.0512383 -1.81806e-21)
(1.01829 0.000742412 0)
(1.01886 0.00239187 1.17802e-22)
(0.966714 0.109352 1.66947e-21)
(1.02596 0.0726093 0)
(1.02341 0.00308569 1.64225e-22)
(0.677037 0.0566324 -3.77325e-21)
(1.05501 0.03435 -5.24026e-23)
(1.00894 0.00194044 0)
(0.884112 0.0518261 -7.1046e-22)
(1.0348 0.0216221 -9.54572e-24)
(1.0109 0.000539441 0)
(1.04092 -0.00307094 7.73408e-23)
(0.362763 0.0172266 4.38237e-21)
(1.05239 0.0383247 1.19637e-21)
(1.00908 0.00202101 0)
(0.998989 0.0659699 -6.21631e-21)
(1.02115 0.00470131 -2.2753e-21)
(1.0208 0.0045862 -2.17566e-21)
(1.00721 0.0355211 -2.09774e-22)
(0.971977 0.00396559 1.11768e-23)
(1.0123 0.00087625 0)
(1.04954 0.0164598 5.49972e-21)
(1.05895 0.0344539 4.9249e-21)
(1.04521 0.0124465 -2.00704e-21)
(1.02752 0.0221392 1.18919e-21)
(1.02123 0.00486189 3.24786e-21)
(1.00445 0.000176871 5.37784e-22)
(1.02811 0.0180539 -1.18096e-21)
(1.01681 0.0437383 0)
(1.024 0.0213021 0)
(1.02295 0.0122629 1.24698e-21)
(1.03456 0.00384376 1.76523e-21)
(1.01653 0.00497444 0)
(1.08931 0.0513072 0)
(1.00825 0.00145618 0)
(0.98722 0.0167893 0)
(1.00854 0.000233169 4.69925e-23)
(1.00626 0.142177 -1.17495e-22)
(1.01833 0.00610785 0)
(1.0238 0.0214037 0)
(1.04375 -0.00421156 -8.07117e-23)
(0.745769 0.0572856 2.14842e-21)
(1.0977 0.063017 0)
(0.686228 0.0543498 -6.52417e-25)
(1.00857 0.000374509 0)
(1.07735 0.0277986 0)
(0.800813 0.0635331 3.37216e-21)
(1.02508 0.00227466 8.84698e-22)
(1.03048 0.0217229 0)
(1.04468 0.0460194 0)
(1.04465 0.0465344 -3.14603e-21)
(1.09701 0.0634249 1.26212e-20)
(1.00781 3.11462e-05 0)
(1.01915 0.000490289 0)
(1.0117 0.000207538 0)
(1.03965 0.00432057 -1.20208e-21)
(1.04888 0.0638582 3.99075e-21)
(0.490534 0.0292997 2.30368e-21)
(1.02454 0.0139424 -1.50106e-21)
(0.992887 0.0723758 -2.6536e-21)
(1.0082 0.00140481 4.94829e-22)
(0.34645 0.0140113 1.05959e-20)
(1.07233 0.0562087 1.73277e-21)
(1.01158 0.000279148 -1.74585e-22)
(1.02183 0.012235 0)
(0.723889 0.054365 0)
(0.45962 0.0379201 0)
(1.07724 0.0270024 0)
(1.05615 0.0230717 1.02735e-21)
(1.01889 0.0071297 2.62328e-22)
(1.02064 0.0136415 0)
(1.04127 0.0195129 0)
(0.401332 0.013852 1.75384e-20)
(1.08019 0.0282906 2.36383e-20)
(1.01881 0.0119678 0)
(1.00769 -0.00042072 -8.99045e-24)
(0.505929 0.0346062 0)
(1.01963 -0.0566233 0)
(1.01469 -0.000393245 0)
(1.00814 5.02304e-05 -2.77574e-22)
(0.902238 0.0175117 0)
(1.05012 0.0327891 7.05754e-21)
(1.00829 5.80233e-05 2.58823e-22)
(1.01171 0.000210479 -2.42047e-22)
(1.06247 0.0487417 -4.62812e-21)
(1.01357 -0.000257065 0)
(1.08122 0.0649217 -5.17376e-23)
(1.06361 0.0527119 -5.03948e-21)
(1.00881 0.000195993 1.72631e-22)
(1.0215 0.0106218 2.12893e-22)
(1.00866 0.000187275 -1.75902e-22)
(1.04522 0.0116682 -4.0868e-21)
(1.00529 4.99344e-05 -1.79408e-22)
(1.06396 0.0546219 5.29732e-21)
(1.01366 -0.000236696 0)
(1.01453 -0.000456433 -1.53464e-22)
(1.02074 0.00441756 2.17429e-21)
(1.01851 0.0170468 0)
(0.507983 0.0299801 -5.14926e-21)
(1.04801 0.0275556 0)
(1.00043 -9.87806e-06 0)
(0.958695 0.112949 -1.41213e-21)
(1.09431 0.0573912 1.80115e-20)
(1.00676 0.0340998 6.93686e-22)
(1.01186 8.44816e-05 0)
(1.01753 0.000109761 0)
(0.948935 0.0335898 0)
(1.02018 0.0262886 0)
(0.488939 0.0305302 -7.19111e-23)
(1.0081 0.00109763 6.59655e-24)
(1.02053 0.0105129 0)
(0.662676 0.0995767 0)
(1.04603 0.0446416 -5.45439e-23)
(1.02023 0.0329324 -3.63874e-23)
(1.01173 0.00032923 0)
(1.008 0.00106298 1.74258e-23)
(1.01192 0.000367416 -5.84069e-23)
(0.349549 0.0151207 -1.43857e-20)
(1.01433 0.00499064 5.10401e-22)
(1.01187 0.000361973 -2.21985e-22)
(1.01278 0.00314229 8.57379e-22)
(1.03258 0.0272143 -1.94074e-21)
(0.7242 0.0573335 -4.61057e-21)
(1.02229 0.0168037 -6.75934e-22)
(0.393624 0.00886669 0)
(1.06653 0.00976166 -1.7531e-23)
(1.00436 -6.54449e-05 -1.0177e-22)
(1.04376 0.0324541 -3.82352e-21)
(0.986223 0.0718831 3.4359e-22)
(1.0455 0.0128945 -2.04768e-21)
(1.0219 0.0167874 0)
(1.04957 0.0428249 -4.08572e-21)
(1.04867 0.0533906 0)
(1.03743 0.0779002 2.38813e-21)
(1.00885 0.000111286 -9.45882e-23)
(1.01413 0.00483879 9.50764e-22)
(1.0231 0.0188331 1.57723e-21)
(1.0636 0.0443405 1.95021e-21)
(1.03682 0.0657454 -1.10077e-22)
(1.01221 0.000980964 -7.11172e-23)
(1.01207 -9.07302e-05 0)
(1.048 0.0123131 0)
(1.05062 0.0177898 0)
(0.937768 -0.0649857 1.55769e-22)
(1.06131 0.0618387 -1.19346e-22)
(1.04779 0.0271915 0)
(1.00777 2.07379e-05 1.64956e-22)
(1.02539 0.00225358 2.01338e-21)
(1.01235 0.000929899 1.5262e-23)
(1.00769 2.5781e-05 0)
(0.479388 0.0294123 -1.21219e-21)
(0.998928 -0.00428974 -1.37949e-21)
(1.01418 0.0376144 0)
(1.03312 0.0292324 -1.42856e-21)
(1.02447 0.0214979 2.55798e-21)
(1.02263 0.0204155 6.40626e-23)
(0.36556 0.0182505 0)
(1.01678 -0.000408349 1.35901e-22)
(0.941391 0.0973459 2.29573e-21)
(1.0169 -0.000156407 -1.27512e-22)
(1.01495 0.00543595 0)
(1.01162 0.000399683 -7.13682e-23)
(1.00104 -7.66188e-06 2.02803e-23)
(1.00861 0.000224284 -4.50374e-23)
(1.00829 1.09976e-06 0)
(1.01188 0.000898335 -4.10433e-24)
(1.01177 0.000320009 0)
(1.00902 0.00193713 0)
(1.02364 0.018952 8.76272e-22)
(1.03048 0.000910031 0)
(1.01572 0.00668115 1.44822e-23)
(0.77895 0.0152515 -4.94043e-22)
(1.02603 0.0128757 -1.7516e-21)
(1.02847 0.0181159 2.53154e-21)
(1.01421 0.00317993 -1.44343e-21)
(1.0021 -3.85728e-05 6.2471e-23)
(1.02389 0.0194718 -5.0979e-22)
(1.02307 0.00324321 -1.69826e-22)
(1.03339 0.029003 4.80625e-21)
(1.08174 0.0519502 0)
(1.02428 0.0136416 1.98375e-21)
(0.996475 -0.00550163 -1.16946e-21)
(1.01189 0.000257975 3.65916e-22)
(1.01501 0.00627049 0)
(1.05689 -0.0078745 0)
(1.00829 0.00152013 1.37943e-22)
(1.01202 0.000126847 0)
(1.06342 0.053445 -8.7474e-21)
(1.00732 0.00180538 0)
(1.01428 0.043754 -2.84143e-22)
(1.00888 0.00186033 -1.43088e-22)
(1.09522 0.0629821 -1.10199e-20)
(1.01654 0.0161099 -3.29332e-23)
(0.534605 0.0396483 5.5648e-21)
(1.0301 0.000799436 0)
(1.04182 0.0148604 0)
(0.909048 0.101155 0)
(1.02724 0.0189873 0)
(1.0116 0.000370558 0)
(1.05856 0.0103198 -7.30879e-23)
(0.932051 -0.0719514 0)
(1.02191 0.0662995 -7.10403e-21)
(1.0125 0.00300623 -7.92235e-22)
(1.0566 0.0617749 0)
(1.00066 -2.75473e-05 -2.05488e-22)
(0.332299 0.0154134 -5.84016e-21)
(1.04595 0.0379131 1.85384e-21)
(1.01431 0.0036015 0)
(1.08877 0.0589845 -1.04557e-20)
(1.0399 0.00530405 -9.00285e-21)
(1.01416 0.00306986 1.30207e-21)
(1.03011 0.0660804 6.9546e-21)
(0.931562 -0.00204497 0)
(1.00858 0.000297172 1.93627e-22)
(1.03025 0.0129883 -2.67423e-21)
(1.00887 0.00183729 2.45635e-22)
(1.00743 -1.76142e-05 0)
(0.467206 0.0320848 -7.75453e-21)
(1.012 0.0633649 0)
(1.00585 2.47045e-05 0)
(1.03557 0.0908368 5.90927e-21)
(1.03043 0.0200159 0)
(1.00973 -5.82155e-05 2.45197e-22)
(1.00873 0.00018023 0)
(1.00573 2.42408e-05 0)
(1.01945 0.00762887 0)
(0.655391 0.052726 8.07033e-21)
(0.689626 0.0835909 1.44241e-21)
(0.902443 -0.00748754 1.94305e-21)
(1.0122 -6.44821e-05 0)
(0.541585 0.043926 1.3652e-21)
(1.02334 0.00327299 -1.61305e-21)
(1.00154 -3.9725e-05 0)
(1.05623 0.0633822 2.38322e-21)
(1.01267 0.00315069 -1.39263e-23)
(1.05001 0.04737 -4.50706e-21)
(1.07159 -0.00291646 9.48219e-25)
(0.913088 0.111979 -6.29369e-22)
(1.01934 0.00208765 -2.44234e-22)
(1.08918 0.0591691 9.11695e-21)
(1.00567 2.12474e-05 3.89849e-23)
(1.08584 0.0487945 0)
(1.0168 0.139562 0)
(1.00026 0.000554896 0)
(1.04175 0.00402693 1.3823e-21)
(1.06485 0.0259679 0)
(1.08282 0.050588 -9.23669e-21)
(1.01419 0.00359599 -7.99398e-22)
(1.0179 0.0445835 -4.06296e-22)
(1.01929 0.000644739 3.09677e-21)
(1.02267 0.0206951 -4.17507e-22)
(1.05844 0.0141037 0)
(1.00599 -0.000421817 0)
(1.04 0.00500246 2.8247e-21)
(1.04597 0.0451888 1.42041e-23)
(1.05239 0.0498453 -9.02445e-22)
(0.342795 0.0142131 5.86867e-21)
(1.00556 2.00306e-05 3.78843e-23)
(1.02364 0.0155693 0)
(1.01171 0.00299468 -6.54018e-22)
(1.0626 0.0376524 -2.019e-21)
(0.66703 0.05249 -8.25296e-21)
(1.0732 0.00437742 -3.39811e-23)
(0.682966 0.0582512 0)
(1.01435 0.011596 -8.46323e-22)
(1.0262 0.0224947 0)
(1.02698 0.018749 -1.98518e-21)
(1.01162 0.0104963 -2.4914e-22)
(1.06085 0.0502237 -4.58651e-21)
(0.669827 0.0564423 0)
(1.01308 0.0124545 -7.46397e-22)
(1.01722 0.00285259 0)
(1.01627 0.00666868 -6.86415e-23)
(1.06028 0.0502587 0)
(1.04625 0.0376505 9.49746e-22)
(0.99811 -0.000364473 0)
(1.02427 0.0216555 0)
(1.04206 0.0493846 0)
(1.0376 0.0874145 1.33437e-21)
(0.849263 0.0609136 -1.87207e-20)
(1.01208 0.00313996 -1.88287e-21)
(1.00722 9.07906e-05 2.74307e-22)
(0.516634 0.0357757 8.73584e-21)
(1.03108 0.0126082 0)
(1.00766 0.00109746 -4.38975e-22)
(1.00531 4.75854e-05 0)
(1.00757 0.0001135 6.19915e-23)
(1.02696 0.0190252 0)
(0.287091 0.0105491 0)
(0.6973 0.087221 1.09126e-20)
(0.897261 0.0621131 2.92126e-21)
(0.814698 0.0835971 0)
(1.02226 0.00513091 -5.92557e-22)
(1.03691 0.020438 -3.17022e-21)
(1.03382 -0.0428589 6.58321e-22)
(1.04951 0.0148045 8.06251e-21)
(1.04932 0.0243862 -6.38934e-21)
(1.04338 0.04029 2.87915e-21)
(1.02696 -0.0499181 -7.36212e-23)
(1.00958 0.00236033 -3.2626e-22)
(1.02156 0.00499449 -2.30285e-21)
(1.01364 -0.00163384 0)
(1.01124 0.000327131 -8.61695e-23)
(0.983918 0.0161003 1.99105e-21)
(0.334727 0.0130692 0)
(1.01108 0.000286956 -1.13981e-22)
(1.04423 0.0323427 1.3925e-21)
(1.01294 0.0364121 0)
(1.00463 -0.000775552 -1.14155e-21)
(1.01157 0.00286771 3.61913e-22)
(1.00869 1.45128e-05 0)
(1.0953 0.0598113 -5.48612e-21)
(1.00543 6.19356e-06 0)
(1.00713 0.0541749 8.00333e-22)
(1.05028 0.0495653 4.75795e-21)
(1.06311 0.0378053 1.68312e-21)
(1.01739 0.0117791 0)
(1.00891 0.000128119 0)
(1.06726 0.0639551 0)
(1.03239 0.0276113 -1.00082e-21)
(1.01498 0.0150862 -1.69216e-22)
(1.01513 0.00637446 0)
(1.01222 0.000926919 0)
(1.05551 0.0335484 0)
(1.03725 0.0755298 0)
(1.05563 0.0340404 4.76604e-21)
(1.04238 0.0181801 0)
(1.02364 0.0116011 3.50105e-23)
(1.0019 0.00429268 1.18065e-21)
(1.06053 0.0620319 -6.52104e-21)
(1.07988 0.0288595 -9.25473e-23)
(1.04519 0.0132427 2.10368e-21)
(1.02889 0.0534433 9.65536e-22)
(1.02802 0.0219782 -1.21821e-21)
(1.05233 0.0669035 6.76729e-21)
(1.05246 0.0495591 7.61717e-22)
(0.950797 0.0396156 0)
(1.00069 1.51316e-06 5.66042e-23)
(0.558085 0.0547423 0)
(1.03757 0.0644335 0)
(1.0314 0.141829 0)
(1.04962 0.0488966 2.07639e-21)
(1.03514 0.041268 -1.91211e-21)
(0.343167 0.0174354 0)
(1.00157 -1.6771e-05 -6.3568e-23)
(1.02996 0.0217131 6.38477e-22)
(1.0197 0.0314774 0)
(1.04156 0.0463232 2.19946e-21)
(1.00937 0.00222754 -9.78618e-23)
(1.05581 0.0413291 -3.27064e-23)
(0.939568 0.0824543 1.3912e-21)
(1.01747 0.0116703 6.68841e-22)
(1.02833 0.019002 2.47641e-21)
(0.275273 0.00856322 6.81877e-23)
(0.610584 -0.0499128 0)
(1.04665 0.0439636 0)
(1.03534 0.0406724 0)
(0.265357 0.00737987 6.12693e-21)
(1.01802 0.00506539 0)
(1.05088 0.0415092 2.21255e-21)
(0.863859 0.0597736 1.84628e-20)
(1.02043 0.0134467 3.72648e-22)
(1.04783 0.0526607 0)
(1.00902 9.25171e-05 -4.89693e-26)
(1.03476 0.0141988 2.54298e-21)
(1.00918 9.98015e-05 0)
(1.05855 0.0591419 0)
(1.015 0.0144937 -1.13903e-22)
(1.03662 0.0463886 0)
(1.02064 0.0129071 0)
(1.01924 0.00482534 -1.56861e-22)
(1.08135 0.0654829 -9.18431e-21)
(1.0477 0.0256006 1.3878e-21)
(1.02202 0.0110684 0)
(1.0444 0.0526725 -7.43197e-22)
(1.01592 0.00660567 -5.41633e-23)
(1.04272 0.00431887 6.5802e-21)
(1.00563 7.56177e-05 -4.12971e-25)
(1.00209 0.0504803 1.21186e-21)
(1.02358 0.0113753 0)
(1.05308 0.0490261 3.42523e-21)
(1.03354 0.0187287 -2.16668e-21)
(1.01006 0.000454881 1.00511e-21)
(1.00925 0.0021516 8.63249e-23)
(1.04145 0.0189725 5.86645e-23)
(0.68142 0.0541614 -7.49513e-21)
(1.01021 0.00267837 -9.07091e-23)
(1.00556 8.97726e-05 1.56137e-22)
(1.00544 0.000138738 -2.00164e-22)
(1.02835 0.0221427 -3.4114e-21)
(0.567443 0.101735 0)
(1.05298 0.0493952 -3.81016e-21)
(1.08928 0.064913 3.01149e-21)
(1.00915 0.00208994 0)
(1.0024 3.31252e-05 -3.11219e-23)
(1.0766 0.0720061 0)
(1.0118 0.00299388 0)
(1.01234 0.000893254 5.2687e-23)
(1.07125 0.00491335 1.66125e-22)
(1.00869 0.000243569 -4.98996e-23)
(0.439401 0.0290714 0)
(1.05885 0.0585368 4.61903e-21)
(1.07231 -0.00735882 4.48279e-22)
(1.01262 -0.00497255 0)
(1.00848 0.00158154 0)
(1.00981 0.0018657 -5.21274e-22)
(1.01788 0.00496574 3.31956e-21)
(1.01575 0.00652961 3.88273e-23)
(0.869283 -0.117188 0)
(0.882082 -0.138602 6.736e-22)
(1.05016 0.0165663 0)
(1.02207 0.0168755 7.08795e-22)
(1.00588 2.98843e-05 -3.99784e-23)
(0.687382 0.0515663 1.30001e-20)
(1.04791 0.0259955 1.79156e-21)
(1.02934 0.00783818 0)
(1.00861 0.00165085 0)
(0.956352 -0.011796 0)
(1.01408 0.00728145 2.7148e-22)
(1.04545 0.0136865 -2.26645e-21)
(1.06245 0.0639398 1.89015e-21)
(0.542952 -0.0271711 3.74056e-21)
(1.09509 0.0595358 0)
(1.06178 0.0200067 0)
(0.836913 0.0851987 0)
(1.00866 0.000401164 -1.01063e-23)
(1.0512 0.0499087 0)
(1.06186 0.0110125 2.07195e-21)
(1.00878 0.000265382 4.79653e-23)
(1.03347 0.0183483 1.76551e-23)
(0.987265 0.0757443 -3.49601e-22)
(1.00593 2.74129e-05 -3.88445e-23)
(1.01615 -0.000357152 0)
(1.0055 1.71608e-05 0)
(0.622684 -0.0395217 -1.59218e-21)
(0.894999 -0.116992 2.65434e-22)
(0.936326 0.0675114 -3.20335e-21)
(1.00139 -2.88377e-05 5.5302e-23)
(1.022 0.0117596 -2.14851e-21)
(1.01734 0.0096359 8.96275e-22)
(1.03464 0.0139035 4.68706e-21)
(1.02042 0.00430951 0)
(1.01378 0.00957164 1.12833e-21)
(1.01746 0.00657092 -1.63697e-24)
(1.00672 0.000406289 0)
(1.00551 -5.51257e-06 0)
(1.009 0.000121916 0)
(1.03443 0.0891729 0)
(0.494077 0.0374496 0)
(1.01175 0.036877 -1.82869e-23)
(0.999527 0.00575039 2.18608e-22)
(1.01941 0.00146043 8.09257e-24)
(1.04945 0.0231233 -6.27708e-21)
(1.00229 -3.19109e-05 0)
(1.01239 0.00301336 0)
(1.02496 0.0216226 0)
(1.08791 0.0632235 8.72682e-21)
(1.04133 0.0154341 1.8057e-21)
(1.09116 0.0628787 -1.50554e-20)
(1.05118 0.0318322 0)
(1.05644 0.0888402 -8.66138e-21)
(1.02896 0.00773616 0)
(0.649888 0.0507489 -1.52267e-20)
(1.03467 0.0721247 0)
(1.01267 -0.001194 1.3048e-23)
(1.00792 0.0010294 6.25192e-24)
(0.296081 0.011985 6.03909e-21)
(1.01441 0.00282588 -3.06658e-22)
(1.01311 0.00244983 -9.30953e-23)
(0.519081 0.0788235 0)
(1.01126 6.76184e-05 -2.80615e-22)
(1.07856 0.0421051 0)
(1.00794 0.00101761 -1.06324e-23)
(0.979808 0.105865 0)
(1.02723 0.0132643 -1.02606e-21)
(1.01334 -9.77034e-05 -2.05835e-24)
(1.03141 0.0636506 0)
(1.01886 0.0339683 6.25036e-22)
(1.01513 0.00848622 1.05922e-21)
(1.01436 0.00269225 2.79463e-22)
(1.01738 0.00663169 5.92261e-23)
(1.01068 0.000302214 -5.1192e-23)
(1.01856 0.000846795 0)
(1.06822 0.0164668 -2.48633e-23)
(1.02085 0.000382122 2.68146e-21)
(1.02785 0.0222735 -1.2955e-21)
(1.02268 0.00504363 1.38005e-21)
(0.651921 0.0106307 -3.52537e-21)
(0.586255 -0.022815 2.48158e-21)
(0.60942 -0.0275494 -2.91456e-21)
(1.06855 0.0159844 7.26813e-21)
(1.02285 0.0146332 0)
(0.405078 0.0110529 1.19358e-20)
(1.01315 0.00243054 0)
(1.04065 0.00461083 0)
(1.00856 1.27021e-05 -9.13663e-23)
(1.02035 0.00414091 -1.05072e-21)
(1.01608 -0.000553741 -1.6641e-22)
(1.01036 0.0354018 0)
(0.814503 0.0591366 0)
(1.00553 1.45636e-05 -3.87278e-23)
(1.00546 1.22179e-05 3.81745e-23)
(0.698609 0.0529264 6.54516e-21)
(1.01733 0.00950134 0)
(1.01298 0.00240083 0)
(1.06508 0.0585228 -1.49506e-20)
(1.03445 0.0482683 0)
(1.08842 0.0593007 -1.54313e-20)
(0.49034 -0.0385738 0)
(1.05627 0.0588223 -2.02143e-21)
(0.647173 0.0873152 0)
(0.525835 0.0806128 -9.09951e-21)
(1.0269 0.013016 0)
(0.539467 0.0366125 -1.04077e-20)
(1.02261 0.0143723 1.76465e-23)
(1.04765 0.0522096 1.98442e-21)
(1.00869 0.00812285 0)
(1.01231 0.00315668 7.71425e-22)
(1.0217 0.0168856 0)
(0.905872 0.115809 3.19132e-21)
(1.02732 0.018799 0)
(1.01243 0.00316583 0)
(0.450634 0.0312657 2.20941e-21)
(1.05015 0.0148894 -5.29855e-21)
(1.04304 0.0347594 8.30776e-21)
(0.377841 0.014913 5.53498e-21)
(0.939036 0.0572724 -2.93953e-21)
(1.01325 0.000105428 -1.6322e-22)
(1.05902 -0.00253937 -1.66198e-22)
(0.89746 -0.147997 -5.78163e-22)
(1.02851 0.0178087 -3.70566e-21)
(1.02313 0.0137748 -4.39941e-22)
(1.0105 0.00288186 1.92745e-22)
(1.01534 0.0399853 1.44317e-22)
(0.936412 -0.0875327 2.01117e-22)
(1.0014 -2.62027e-05 0)
(1.00974 0.00186707 5.45435e-22)
(0.997074 0.0274889 -4.5194e-22)
(1.00764 1.86768e-05 -1.65428e-22)
(1.04215 0.047558 3.49984e-21)
(0.998124 0.11805 -1.65018e-22)
(0.848991 -0.0347837 0)
(1.02313 0.0120118 -1.53475e-21)
(0.814722 -0.0447143 -1.88461e-21)
(1.07289 0.0557946 0)
(1.0021 -4.15419e-06 0)
(1.01425 0.00287415 0)
(1.01036 0.00280436 -2.79409e-22)
(1.00947 0.00161308 5.40594e-22)
(1.02174 0.0115292 1.07943e-21)
(1.04715 0.049872 3.8555e-21)
(0.919588 0.104723 3.6258e-23)
(1.03374 0.0178895 0)
(1.00197 -1.93006e-05 -2.93558e-23)
(1.04476 0.0518299 0)
(1.048 0.0247652 -2.78557e-21)
(1.01587 0.0152854 4.28205e-23)
(1.01844 0.00427884 0)
(1.01705 0.00992335 2.14627e-22)
(0.994508 0.026414 9.09017e-22)
(1.0094 0.00154675 -4.96314e-22)
(1.04819 0.0252347 2.93771e-21)
(1.00903 0.00145707 -1.82418e-23)
(1.02104 0.000264788 -3.70404e-22)
(1.088 0.0591186 1.4819e-20)
(1.00225 4.88325e-05 0)
(1.01404 -0.00226917 -5.79796e-25)
(1.02257 0.00516605 0)
(1.04914 0.0489707 -6.1569e-21)
(1.04878 0.0485174 2.11521e-21)
(1.00981 -0.000648248 -1.2089e-23)
(1.00846 0.0015546 5.14133e-23)
(1.04454 0.0530144 7.90233e-21)
(1.00422 0.000221876 -1.54116e-22)
(0.386567 0.0162687 1.44229e-21)
(1.04258 0.034319 -2.7875e-21)
(1.06176 0.041799 1.01444e-21)
(1.00993 -4.41088e-05 -5.14785e-23)
(1.07681 0.025433 -2.1054e-21)
(1.03518 0.0215899 -3.10435e-21)
(1.01431 0.00301155 0)
(0.981328 0.0724838 -8.5631e-21)
(1.02476 0.0218098 -1.41933e-21)
(1.02827 0.00483254 0)
(1.0574 0.0858415 1.01194e-20)
(1.01975 0.00196309 -7.41995e-23)
(1.00612 -0.000224663 0)
(1.01904 0.0107051 -7.78376e-22)
(1.04535 0.0453291 3.24355e-21)
(1.00596 -0.000199001 0)
(1.08712 0.0624315 7.63816e-21)
(0.948505 -0.0120389 -3.27697e-22)
(1.03316 0.0283301 9.43212e-23)
(1.00917 0.0359195 0)
(0.441663 0.0358866 -9.23981e-21)
(1.06233 0.0416251 3.16093e-21)
(1.01068 0.000135792 -1.08888e-22)
(1.02338 0.012048 -1.0671e-21)
(1.04107 0.0291774 0)
(0.504458 0.0707372 4.69998e-22)
(1.01267 0.0037506 -4.43161e-24)
(1.00046 -1.91982e-05 -1.88802e-23)
(1.04116 0.0156564 2.09749e-21)
(1.06404 0.0539873 4.66873e-21)
(1.041 0.0288522 0)
(1.07795 0.0418876 0)
(1.09529 0.0627896 0)
(1.02748 0.0132169 6.19892e-21)
(1.09093 0.0625505 0)
(0.698846 0.0523749 -1.3338e-20)
(0.55199 0.103162 0)
(1.08891 0.0493161 5.67874e-21)
(0.913105 0.14452 0)
(1.01971 0.00876847 0)
(1.0108 0.00206342 2.97222e-22)
(1.02342 0.0731077 0)
(1.02883 0.0174543 1.30968e-21)
(0.923443 0.0582447 1.28868e-22)
(1.03077 0.0194656 -1.63306e-21)
(0.99886 0.0732403 1.61306e-20)
(1.01559 0.0412148 0)
(1.01329 0.00248197 -5.36406e-24)
(1.01018 0.00214625 0)
(1.03742 0.0190304 1.01199e-23)
(0.914234 0.062496 0)
(1.00375 0.000196267 -4.03694e-22)
(1.02325 0.0151658 -1.3551e-21)
(1.02099 0.000204676 0)
(1.01175 0.000189256 -1.64441e-22)
(1.0126 0.00214993 0)
(0.868402 -0.102243 -3.72867e-22)
(1.00803 0.000439447 5.96191e-22)
(1.00869 0.000321514 4.7349e-23)
(0.747165 0.0549556 0)
(1.00928 0.00148486 5.99916e-23)
(1.08683 0.0659578 0)
(1.01934 0.00798919 1.57199e-22)
(1.0483 0.0486513 0)
(1.06842 0.04481 2.46398e-21)
(1.00326 9.26991e-05 -1.71815e-22)
(1.00923 0.00149693 0)
(0.561888 0.0408646 1.09433e-20)
(0.806502 0.0641559 7.75569e-21)
(1.03348 0.028083 0)
(1.04827 0.044148 0)
(1.04322 0.0375168 -5.45898e-21)
(1.01012 0.00215693 0)
(1.01389 -0.00202973 0)
(1.04402 0.0467025 -5.06878e-21)
(0.943208 0.0912033 3.5252e-21)
(1.01254 0.00356199 -5.78778e-24)
(1.02188 0.0169572 0)
(1.01258 -0.0225994 -1.43591e-21)
(1.02158 0.0304819 9.00287e-23)
(1.01959 0.00192974 0)
(1.0712 0.0678629 0)
(1.0557 0.0588471 2.6691e-21)
(1.06827 0.060672 0)
(1.01277 0.00220902 -5.38193e-23)
(1.04285 0.0398138 -2.71993e-21)
(1.08389 0.0505578 -7.27102e-21)
(0.383853 0.0214486 5.68753e-23)
(1.0012 8.40826e-06 -3.89855e-23)
(1.00178 -1.71387e-05 0)
(1.04213 0.0145677 0)
(1.00017 -2.31975e-06 1.19633e-22)
(1.01859 0.000724738 0)
(1.02806 0.0046312 0)
(1.04299 0.0463741 -3.38386e-21)
(1.01376 -0.0017281 0)
(1.04949 0.0156767 0)
(1.07601 0.029627 -3.43433e-22)
(1.03145 0.00976786 8.49856e-22)
(0.529775 0.0448964 -1.07102e-20)
(1.00868 0.00158261 -1.17481e-22)
(1.00147 0.0909924 0)
(1.00555 9.39245e-05 0)
(0.52286 0.0374878 5.89178e-21)
(0.972511 -0.0222604 0)
(1.07544 0.0709082 0)
(1.01856 0.000296378 1.45199e-22)
(0.981806 0.0913687 0)
(1.03009 0.0285605 0)
(1.00215 2.40425e-05 1.48579e-21)
(1.06421 0.0442092 -1.86806e-21)
(1.07904 0.0252794 8.33878e-21)
(1.04561 0.057569 -6.89929e-22)
(1.00749 0.000866549 1.02178e-24)
(1.00882 0.00162129 3.94688e-23)
(1.08772 0.0628808 -9.07447e-21)
(1.05016 0.0157918 0)
(0.76293 0.0720204 7.82245e-22)
(1.06317 0.0387064 -1.62149e-21)
(0.932284 0.0709007 -3.10915e-21)
(1.01255 0.000488304 -1.16505e-22)
(1.06357 0.039938 1.04631e-20)