/*--------------------------------*- C++ -*----------------------------------*\
| =========                 |                                                 |
| \\      /  F ield         | OpenFOAM: The Open Source CFD Toolbox           |
|  \\    /   O peration     | Version:  v2012                                 |
|   \\  /    A nd           | Website:  www.openfoam.com                      |
|    \\/     M anipulation  |                                                 |
\*---------------------------------------------------------------------------*/
FoamFile
{
    version     2.0;
    format      ascii;
    class       volScalarField;
    location    "100";
    object      ddt0(omega);
}
// * * * * * * * * * * * * * * * * * * * * * * * * * * * * * * * * * * * * * //

dimensions      [0 0 -2 0 0 0 0];


internalField   nonuniform List<scalar> 
13917
(
-9.14843e-05
4.33148e-06
-0.0971405
1.06422e-05
8.18552e-07
0.015066
-0.176925
-0.0602935
0.177469
2.85387e-05
-0.00170369
-0.00101742
1.06076e-05
-1.52
1.06473e-05
4.81568e-06
8.6611e-06
0.000240545
-0.000945908
6.00273e-08
-2.82303e-09
-0.181224
8.60403e-07
-0.0337879
-1.38577e-06
-0.172291
-0.000784884
0.000794609
0.0217531
-6.88421e-05
-8.48013e-06
-6.07249e-05
-8.59712e-05
6.7203e-06
-1.08626e-06
0.230878
6.5886e-07
-0.0583523
1.60064e-05
-0.0142486
-3.15994e-07
9.47192e-09
-3.95306e-07
0.00132122
-6.34939e-06
-3.83731e-05
0.000216247
0.000121325
0.0109952
1.30295e-07
2.87492e-05
-8.89963e-07
0.0257771
9.7709e-06
8.48376e-06
-3.27718e-05
-0.00119615
-3.36759e-06
-2.78976e-05
-5.92275e-06
-0.138279
3.81484e-06
-0.554157
-2.25507e-07
0.0106947
-0.198196
-2.89588e-08
-2.6475e-07
0.00180033
-0.000238875
5.59194e-07
0.151874
-0.0344311
-7.87232e-07
0.00273376
-0.000901649
-0.0998216
-1.10456e-05
-0.128933
-1.69576e-07
-4.147e-07
1.78527e-08
0.0367135
-0.0728354
-0.0328917
-8.94565e-06
-4.92951e-07
-0.602599
5.20972e-06
-1.9692e-07
-0.0393248
0.000152267
1.43464e-06
1.9985e-05
-1.13871
0.00428543
-0.00102558
0.000152892
-0.00292072
-0.0339866
5.17515e-08
1.2133e-06
0.001433
-8.37485e-06
1.12463e-06
0.146385
-0.00951985
0.000178387
7.18453e-06
0.00013324
0.0336465
-0.0259588
-0.00178729
0.16804
2.74666e-06
-0.0138514
6.85413e-08
-0.00540053
0.0218964
3.03227e-05
2.31663e-08
0.00239783
0.00905405
8.90006e-05
1.93797e-08
1.86042e-05
-5.31275e-06
-7.96508e-09
-7.04789e-07
0.0216762
-0.0677843
2.46611e-06
-6.68488e-06
1.93869e-08
0.513908
-0.0284556
4.10597e-05
-0.0182662
1.49381e-08
-2.15628e-06
0.0338648
-9.5402e-07
3.8838e-06
0.000875054
-1.29595e-07
0.0684237
0.0166761
-1.42218e-06
-4.3379e-07
-5.95552e-05
-0.000551196
-0.0116064
-0.00186532
-0.000249628
-4.16897e-05
0.0175848
-0.000249586
-0.379628
-0.185838
0.603909
1.5426e-05
-0.00374784
-1.7617e-07
-0.00144741
-0.0017226
-0.0033303
-8.22251e-06
-0.000324613
-3.52606e-06
-0.000429124
8.5889e-05
0.120919
-0.00203904
8.69904e-06
0.0236337
-0.00033788
-0.0878207
0.000612253
0.0364881
4.20573e-06
0.00168786
2.45755e-05
-1.01053e-06
-5.19204e-07
-2.02588e-05
-0.144342
0.005274
0.0300674
-3.98251e-05
-0.00275008
-0.0440275
-0.0546167
-0.00197487
9.50392e-07
-0.0507853
-0.00515114
-3.87218e-07
1.49326e-06
-0.00262333
0.488293
-2.49052e-05
6.56886e-08
-0.000382994
-0.00060282
-0.0545867
0.000259107
-1.17428e-07
-1.67829e-06
0.000124529
-0.114358
3.39123e-06
-0.177833
-0.0721672
-0.00276161
1.05355e-06
-0.0772507
-3.28485e-05
0.0698481
-3.66756e-06
-0.120335
2.95191e-06
0.00131205
-2.82205e-07
-0.0605233
0.153215
-7.71231e-06
0.092605
-4.12106e-05
1.0121e-06
0.13207
-0.00182557
-3.44686e-05
-0.0430915
-0.0524303
4.48147e-07
-6.06166e-05
-0.0170599
-0.0104773
-2.77495e-07
-5.95462e-07
-0.0501876
-0.000515928
3.15968e-09
-0.00447926
0.00189742
-0.00546576
-3.67739e-05
-2.60935e-07
0.000620106
-0.0763607
-1.98931e-07
-0.000236154
-0.00460418
-5.3697e-06
-4.20858e-06
-0.00131551
0.0381941
-0.00166151
-0.000170083
1.56169e-06
-2.96367e-11
0.0553573
-0.0255617
0.10948
1.0412e-06
-0.0151352
-0.298267
-0.183417
-0.122289
-0.00110393
-3.79808e-07
1.26174e-07
0.000121219
-0.0574853
0.00188267
-2.51287e-05
-0.015545
4.91289e-05
-6.42747e-07
-0.0425784
7.06566e-08
0.0318878
-2.25136e-05
-1.39108e-09
-5.51527e-06
-0.000293051
-0.00316718
0.0264286
-0.000103405
-2.13907e-06
0.00303114
-0.0221556
-0.0160603
-3.42641e-06
-0.169207
-1.42708e-07
-2.15401e-06
6.09717e-07
-0.00771327
-9.16678e-08
0.00231623
-9.54399e-05
-3.34613e-06
-0.00043592
-2.94983e-05
0.0103439
-0.000160204
0.000553179
-1.95272e-06
-5.02116e-06
0.0374643
0.0787521
-1.52544e-07
-6.88992e-08
-0.0383985
4.1164e-06
-0.0190648
-1.90091e-06
-0.0630588
5.97022e-06
-0.00109065
-0.000144886
0.000383755
1.55812e-05
1.04572
-0.0799622
-3.59262e-05
-0.000576436
0.00775979
1.1395e-05
-0.0568623
0.0137262
-0.173975
6.10548e-05
0.0305717
-5.88159e-05
-0.0429494
-0.024867
-0.00397054
-0.00198742
-0.132578
-4.04789e-07
-8.03047e-05
0.0312644
-1.20696e-06
7.15829e-06
-0.297714
-0.00412266
3.41087e-06
-0.0143558
0.0153452
-4.10166e-07
0.0237793
0.0912249
3.13047e-07
-9.30845e-07
-5.8165e-08
-6.85553e-07
0.0141835
0.0360635
-0.131885
0.0310546
-1.7106e-07
-0.00392559
-0.0419412
-0.000228191
-0.183374
-0.0507125
0.17529
6.2652e-07
0.0718484
-4.37285e-07
-0.0941841
-5.90601e-06
0.000704705
0.00190357
-1.52841e-06
-5.78902e-07
-4.34819e-05
-0.00107754
0.000806753
0.0124407
-0.0124041
0.173107
-0.000346567
7.75514e-05
-4.60089e-07
-0.0163515
-0.184471
3.00235e-06
-0.242256
1.37767e-06
-0.00467638
5.46516e-06
-2.9819e-07
-9.62751e-06
-0.0210863
-4.89045e-06
0.0389282
0.0758459
-0.00288675
0.136607
1.15628e-05
-0.0789232
0.0919298
1.08421e-06
-0.0017791
-1.66429e-06
7.21285e-08
-0.000366472
1.30526e-09
-1.74232e-06
-1.97758e-07
0.000412686
-1.24128e-07
0.0202736
-0.0555658
-0.0325873
-0.00154851
0.00340752
0.0371132
-0.000269404
4.29666e-07
0.00439281
1.43263e-05
-5.94196e-05
1.07341e-06
0.0603427
-0.155655
-0.018096
1.65632e-06
0.0013342
3.99685e-06
1.37434e-05
0.000647495
-2.33103e-06
0.089223
4.78143e-06
-9.10682e-08
0.00799381
-0.0767421
-0.0906506
-4.98919e-05
-0.0442368
-0.0823244
0.0522296
-0.1406
-6.92129e-07
6.35709e-05
-5.70084e-06
-1.1879e-06
0.0236919
0.000193505
1.16993e-06
0.000424596
-0.000163799
-0.0925875
1.0245e-06
0.000762153
0.199369
-0.0189308
0.0266584
-4.80537e-08
2.30826e-06
2.35218e-07
0.000204611
6.82348e-07
-0.0900548
-0.0702066
-0.00021515
-0.00977706
-2.80745e-05
-0.00136031
0.0681554
0.0072837
-0.00304052
0.0211549
0.000742926
0.000469984
0.00428773
-0.000295746
-0.0026174
0.00769198
-0.000385569
-3.95187e-06
7.48523e-07
0.194236
-0.000166186
-3.26631e-07
0.000364689
-1.00137e-05
-0.0756284
0.154376
3.67015e-06
-6.93521e-07
-0.0675571
0.111781
7.04895e-11
0.0196571
-3.36602e-06
0.000124121
4.60236e-06
-0.0452769
-0.744058
-6.402e-05
-9.85316e-06
-0.0170926
0.00137323
-0.0460728
-1.4448e-10
-0.0777437
0.00932466
-0.054306
-5.62984e-07
-0.0175275
0.0694568
-0.000307327
-6.73999e-07
1.31744e-05
-0.000730184
0.000817067
1.09402e-06
-1.12361e-06
1.27177e-07
9.47233e-08
-0.0252435
0.0292626
-0.000287722
0.00262986
-3.15932e-07
-4.98638e-08
0.00154219
0.183829
-1.5238e-05
-3.81591e-06
-4.90225e-07
-7.96361e-08
-0.0753644
-0.0797548
-3.94688e-07
6.37721e-07
0.0258736
-0.000340113
-0.000329667
4.48914e-07
-5.83471e-06
-5.35005e-05
-0.000227634
-0.00215354
0.00580448
0.0044998
0.00133783
-0.0379507
0.000543375
-2.78526e-06
-0.0751378
-1.74183e-07
3.12246e-06
-1.0886e-05
0.167267
-0.00261657
-1.07175e-07
-0.00954871
0.00132199
0.152202
0.00134581
0.00196364
-0.000192059
-6.00442e-07
0.0124915
0.00206463
-0.158224
6.86867e-06
-3.2914e-05
0.00151628
-0.0469307
0.573579
0.000228035
-0.000506008
5.34103e-06
-3.27056e-05
3.95269e-07
0.0044327
0.0018389
4.52618e-07
-0.000117931
-0.0035388
-0.155869
-0.0361388
-2.49739e-05
-0.00161297
-0.424411
-2.71871e-06
1.99663e-06
-0.00344743
0.0297883
0.0882717
0.00116558
-7.72777e-07
0.0263599
-0.000843079
-1.72763e-07
-3.71041e-05
-0.000950271
-0.000225883
-0.000144302
-0.141893
0.00413199
-0.000188547
0.0193295
-1.24002e-05
-0.21446
-1.89612e-07
-4.41177e-07
-0.136433
0.0534522
-0.00944325
-1.19579e-05
1.54201e-05
7.06354e-07
4.65359e-05
0.00841179
-0.00287922
-3.1083e-05
-0.00277962
-6.77042e-05
4.49372e-06
-0.0203764
-0.00271133
0.078876
-3.65229e-06
0.00408727
-9.84796e-06
0.127222
0.000198018
0.00127123
-3.50765e-05
-4.26531e-07
-1.20402e-06
-6.18526e-06
0.00158021
-3.72534e-05
0.0062259
-0.00681238
-0.000288568
-4.62696e-07
0.00399197
-0.114357
0.135531
-4.3757e-07
3.27565e-05
-1.25257e-06
-1.73268e-05
-2.84582e-05
0.0901242
-2.69628e-07
-1.9459
-3.21714e-05
-0.00125582
0.000246934
-0.0289269
0.000653373
1.18288e-05
-0.0615531
0.431456
7.04365e-06
-1.04256e-05
-0.463105
0.000618984
0.00144141
-3.93781e-09
-1.01735e-05
0.00406461
-1.09875e-06
0.000754729
-0.00113418
-1.34273e-06
-0.000703862
-0.0912848
6.87789e-07
6.33641e-06
1.55925e-07
0.0555596
-1.78575e-08
8.64866e-06
0.103722
1.26034e-05
0.0277912
-4.41058e-05
5.15964e-05
1.47496e-07
-0.000204304
1.08115e-06
0.000526575
-2.85647e-07
-0.00119288
-3.16155e-06
0.113235
0.01214
0.182865
-1.68165e-07
-4.36322e-07
0.000307267
-1.06522e-05
-0.0728091
0.20997
0.000224108
-1.93886e-07
0.00114086
-0.0491593
0.0584383
0.0142824
-0.000122302
-0.0977773
4.48879e-05
7.54098e-05
0.00318852
0.00166317
0.000211468
-0.00957854
9.98062e-05
1.05876e-06
-0.00094812
-9.99542e-05
-9.02024e-07
-1.74018e-05
-7.13999e-05
-5.90117e-05
1.1958e-06
9.25642e-08
-0.000215707
-8.41225e-06
0.000738848
6.73566e-07
1.6739e-06
1.70874e-08
-5.01244e-07
9.29728e-07
-4.53704e-05
1.90991e-07
-0.0429637
-0.000796395
-0.000755178
3.22459e-07
-8.29345e-08
-5.85407e-05
0.000521956
2.80418e-06
-0.0936923
-0.000573469
-0.0728441
-3.13393e-05
0.00176818
-4.87134e-06
8.89922e-09
2.66433e-08
-2.81071e-05
0.0696208
-2.16906e-08
-0.261287
-5.18329e-05
-0.0360814
-0.000224887
-0.000314898
-0.0018792
-7.34987e-07
6.65171e-10
-0.000894122
9.82551e-08
1.25488e-05
-0.0359137
8.28903e-06
-2.0584e-07
-3.79496e-05
-3.18788e-07
-5.07249e-07
-6.01292e-05
0.00306376
-0.183976
-0.000178985
9.48734e-07
-2.73344e-07
-0.0430668
0.0014851
1.09881e-05
5.25323e-06
-0.0420604
-0.412286
0.168804
0.000292127
5.76657e-07
3.77914e-07
-6.78131e-07
-0.000410575
-0.000125227
0.0251448
3.13261e-05
-0.0359457
-4.20727e-06
2.07592e-05
0.172713
1.56712e-06
1.14148e-05
2.32787e-06
-6.78921e-08
2.27572e-05
0.00133632
-9.02513e-06
0.0456125
0.0289794
-0.000216242
-3.1557e-06
1.21001e-07
-0.00273624
-0.102534
2.30912e-09
-0.051416
-9.06152e-08
-0.000110758
3.80156e-06
-1.57859e-06
0.00697936
-3e-06
0.371305
-8.34031e-05
2.76569e-08
-7.66964e-07
-3.26304e-07
-1.06976e-06
5.26296e-06
-0.015026
-7.63577e-07
-1.9157e-06
0.0921668
0.0975029
-0.000220498
-0.000151925
0.000273429
-2.27143e-05
-6.05514e-07
-5.694e-05
-0.0656801
-0.000108186
1.63487e-07
-8.66187e-06
0.208001
-6.48226e-05
0.0174208
-2.44776e-08
1.01497e-06
0.171307
-8.81472e-05
-9.314e-06
-0.000520542
0.00428065
-6.02319e-07
0.00312456
8.54394e-09
-3.42031e-06
4.39407e-07
-0.00430594
9.82975e-07
5.86898e-06
-7.62033e-07
0.231616
9.22174e-06
0.000197844
0.00705261
-1.1371e-06
0.000436649
-3.35551e-07
0.0279392
-5.57885e-07
-4.3533e-07
-2.99298e-07
-0.00293288
-3.05142e-07
0.00421379
-0.0890232
-0.0336095
2.93223e-05
0.00706751
0.0806112
-3.83278e-06
0.032173
-0.155975
0.0617614
-0.00285639
0.0734728
-0.0586016
0.00366517
1.14467e-05
-0.133062
-7.89557e-05
-0.182532
-7.511e-07
6.48588e-07
1.14116e-05
-3.9276e-07
-2.81424e-05
0.000109427
0.0368035
5.1989e-07
8.36092e-07
-0.0433305
-0.00843069
4.17503e-07
-0.00400777
-3.50151e-05
-5.31705e-06
0.00019795
-0.00314832
1.86291e-05
8.00263e-06
-0.00257181
0.164431
0.00193507
3.37528e-06
0.00143248
0.00181574
0.0300803
0.183309
-0.00160588
4.44877e-06
-5.18636e-06
-3.91338e-06
7.20504e-07
-7.88222e-06
-7.36515e-07
-5.36892e-05
-6.34972e-05
-0.0197909
0.00100924
5.32033e-06
0.00176943
0.0597953
-0.00012548
3.61064e-07
-0.145394
-2.52305e-06
9.42911e-06
0.000104846
-0.00715806
-8.16459e-08
-3.75911e-06
-0.175697
0.0137809
-0.414714
0.00226434
0.174592
-2.3417e-06
0.00441393
1.42258e-06
4.07072e-07
-3.29763e-07
-0.120121
0.0979059
-1.76976e-06
-7.80475e-07
4.8403e-06
-0.605508
-1.2634e-05
-3.32585e-05
1.43036e-07
7.68113e-06
0.00452233
-8.73881e-07
0.000524877
-0.0118089
-0.0941814
-4.43153e-06
-0.00406165
-2.3063e-05
-0.0355927
0.051204
-9.9164e-07
0.0387849
0.000449059
0.00652583
-1.38712e-07
-0.0179376
5.89554e-08
-3.05469e-05
-0.000112404
0.00212417
-0.0994671
0.0882011
0.0016126
0.0375376
-4.57246e-07
0.00895018
-1.60407e-06
-5.76584e-05
-0.175564
3.04492e-07
4.77705e-09
-1.52113e-05
-6.48209e-06
-0.0195287
-5.76678e-07
1.01977e-06
-0.000669185
7.46553e-05
-0.000163788
0.0663485
-0.00265877
0.0377552
-0.000277212
-7.38085e-05
7.10032e-05
-0.0842376
-0.000255132
-0.0574617
-0.169973
-2.2797e-05
-8.77254e-08
0.0351611
0.0692223
-2.25467e-06
0.00202523
-1.88512e-05
8.46566e-08
-3.75757e-05
-6.0042e-06
-1.42919e-05
1.55319e-09
-0.000208707
-0.00280811
-4.60497e-07
0.000362594
-1.79648e-06
6.64243e-05
-3.65761e-07
9.42905e-05
0.000115897
-8.98184e-06
-2.34348e-06
-1.93027e-06
0.0327446
-0.000391395
0.0252276
-2.50013e-06
1.39005e-06
-0.000218971
1.17282e-06
0.00141459
-5.71839e-05
-4.26224e-08
0.00202391
-1.8598e-06
-0.0822512
-2.26241e-06
-0.000184713
-0.117696
0.00568149
-2.81303e-06
1.05963e-06
-0.0142443
1.0837e-07
-1.49723e-06
0.0165908
0.0189036
-1.56392e-05
-0.000652852
1.98157e-07
-2.0858e-06
-0.119563
-1.77503e-05
-6.21892e-07
0.0235587
-1.80794e-06
-0.944788
-5.2244e-07
-3.93684e-07
1.12908e-05
-0.00310217
-0.000545378
-3.64153e-06
1.00984e-05
-2.48459e-06
-7.74513e-06
-7.00382e-08
-0.0173292
0.000356474
-2.9124e-09
0.0487556
-0.00153844
0.0104545
-0.0980953
0.00210245
-1.51936e-06
-9.08331e-07
6.17857e-06
0.0220247
2.01681e-05
-0.00509258
0.0884133
1.52132e-05
-0.179399
0.000736594
-0.000132677
-0.00359777
0.00098318
0.056205
-0.083483
-0.00210625
-0.00742208
-0.0840285
-0.00106157
1.14553e-06
-0.0657179
0.000154366
-9.5695e-07
-9.6385e-06
-0.0574721
-0.000125406
3.62039e-06
0.000731556
0.000801737
2.20675e-05
-0.069699
-1.21776e-05
0.0105599
-4.14849e-06
0.0354096
0.00243926
-0.000277827
-3.53105e-05
-1.73306e-06
-8.15895e-06
-0.0641437
-5.119e-07
2.18727e-05
7.62341e-07
-5.57523e-06
-8.65798e-07
-8.56153e-05
-0.00291068
0.00375122
0.00161406
0.00132129
0.0142628
-0.00400717
-1.75999e-06
-0.558204
-0.0903477
-4.78665e-07
-1.48442e-06
-2.96666e-05
0.0696285
-3.64903e-09
0.000675081
-0.00410606
-0.000102353
-5.1639e-06
-5.6183e-07
-1.80833e-06
0.00237234
-0.000317804
1.85288e-07
-0.0547596
-0.113286
0.000133586
-0.0465321
-0.00107716
-0.242706
1.19526e-05
-2.27491e-05
0.0245325
-0.17175
-0.00176147
0.0412596
-6.08333e-05
1.99971e-08
-2.23991e-06
2.99119e-06
-2.7359e-06
4.34816e-06
-1.02305e-05
-3.36933e-06
-0.00210858
-5.16032e-07
-3.68902e-05
-1.18804e-06
-0.00029212
-0.00296012
-0.0120911
-5.29219e-06
0.000240683
-2.2533e-06
0.0367052
1.00374e-06
-6.12138e-05
4.07443e-07
0.00975537
-0.0414273
-0.0035357
-3.13061e-06
0.00104711
8.27303e-06
-5.89599e-05
-0.00299943
-3.56315e-06
7.09483e-07
-9.92114e-07
-3.28357e-05
-0.180731
-3.61372e-06
-0.000165104
6.74206e-06
1.49277e-06
0.0015884
9.59287e-06
6.46562e-07
1.874e-05
-0.0833293
-3.37122e-05
-0.02822
0.0782081
0.000159198
-0.0124183
-3.07683e-05
6.47439e-07
-1.65006e-05
0.0638085
2.75871e-06
-3.6699e-05
-0.00033133
1.91851
2.59049e-07
0.00740851
0.000331514
0.000546904
-7.26161e-07
-8.18132e-07
0.000294192
3.32389e-06
1.81155e-08
0.000119394
-1.10141e-06
1.70368e-05
-4.96741e-05
-0.00132963
0.0142974
-0.176768
1.31424e-05
-0.00119654
0.588493
-0.0977792
-0.000197611
-0.00034157
0.0440191
-9.35045e-07
-0.0744554
1.22985e-06
-2.76042
-0.0310762
2.99692e-07
-6.53568e-09
-6.72518e-07
-2.41356e-06
0.00011544
-8.44499e-07
-2.66216e-08
-0.00154041
-1.54619e-05
-0.000502584
-0.0554478
6.96643e-05
-1.41829e-05
0.177201
-9.82241e-06
0.024427
-8.65039e-06
0.00128767
7.28324e-07
-0.0151342
0.0958062
8.6769e-06
-2.87036e-06
-0.0352217
-0.000108734
-0.0432365
8.43071e-08
-1.7595e-06
-0.162684
-4.79931e-06
0.00118221
0.105234
8.96952e-07
0.000348433
-5.79942e-05
-8.76715e-07
-5.60508e-08
-0.103216
0.0864531
-6.76172e-06
-9.30482e-06
-2.25507e-06
-5.30113e-05
0.00472511
-0.157016
1.43935e-05
0.000297421
-0.145304
0.00367817
-0.277326
-5.37223e-06
-0.00224895
-0.00128118
-8.69954e-05
1.83e-06
-0.000889301
-0.0512529
1.82429e-05
-7.50621e-05
-0.0302009
-0.0057903
-0.0134945
2.02788e-06
1.05986e-05
-1.57023e-09
-1.22608e-07
0.112417
-0.000223108
-1.15728e-05
-1.51002e-06
-2.59304e-05
2.06053e-09
9.76108e-07
6.35885e-08
-0.0011867
1.54934e-05
0.0362494
-0.00385275
0.00629492
0.0365165
-0.000119507
-0.000184114
1.82649e-07
6.43716e-05
0.00277398
5.61594e-06
-1.17493e-05
-0.000307866
0.00115626
-0.00324172
-0.026496
0.01141
-2.59224e-06
-0.0503547
-5.61654e-07
-5.47891e-06
-0.00125682
1.35147e-08
3.26655e-07
0.00238193
-0.0293693
-1.80506e-06
-0.00872382
2.32556e-06
-1.44523e-06
-1.0085e-05
0.0063022
-6.10262e-05
-9.77512e-06
-0.0725714
-1.53437e-05
0.0315286
-0.0224716
-1.01759e-09
-0.00422168
8.06598e-08
-0.107855
0.000594429
2.92273e-07
-0.116904
-7.19804e-05
0.000279606
3.05665e-08
0.11988
-0.000371533
0.023765
4.18894e-06
-5.30337e-05
0.0353902
-1.77396e-06
0.0584406
-4.07326e-06
0.00044126
0.000138382
1.36662e-09
-0.00453168
9.43849e-06
0.000808525
0.000503559
0.00268872
-0.00043688
-0.00192963
1.35522e-05
-0.0285318
3.65304e-05
0.0151003
7.273e-05
-0.00109817
-3.1734e-06
5.21081e-05
-5.74265e-06
-0.000351366
-0.0771571
2.18124e-06
1.49594e-06
0.00323214
-8.76966e-06
0.439396
-1.07319e-05
-0.0472456
0.00572291
-2.51265e-05
-7.02116e-07
-2.11276e-06
3.71894e-07
-6.95017e-07
0.00322451
0.00254865
0.00414823
-4.39203e-05
1.97856e-07
0.0319098
-1.02441e-05
3.28092e-05
0.912219
-5.01329e-06
0.179566
-4.4086e-05
2.27708e-06
0.00788236
-0.061528
0.035939
-0.0165716
0.21236
8.08009e-07
-0.0118127
0.0498884
-0.125987
-3.28706e-07
-2.57275e-06
-0.00159939
-0.123784
0.0299703
-0.0088277
7.00406e-06
-0.00310537
-3.2299e-05
-0.0232785
-0.0111215
-0.000319449
-0.000818979
-1.3228e-05
-5.90316e-06
-0.00155647
-3.40255e-07
0.00123812
-0.0667491
6.1193e-08
-0.568622
-3.33002e-08
-3.29012e-06
-0.0903573
-0.0377127
-3.2985e-07
6.60199e-06
-1.1563e-05
-1.81147e-06
1.11935e-05
0.00281046
-7.57772e-07
-1.36647e-07
1.24981e-07
-0.000236149
-4.97521e-05
-5.31302e-05
0.00840938
-1.14756e-06
-0.00667356
-0.0181058
-0.061765
-0.000468526
0.000295952
-0.351094
-6.02138e-05
-0.114346
-0.427861
-0.863021
8.53162e-06
-0.0926462
0.00955759
5.76318e-07
1.34161e-06
-0.00148697
-0.00402739
-0.114606
-5.73421e-07
8.05659e-06
-0.0785186
-15.7651
-0.0248038
-2.90555e-05
1.68452e-05
0.00210188
6.81685e-06
-0.105405
0.0253296
-0.056968
-0.0453457
-5.51162e-06
-2.20968e-06
-3.55911e-07
-6.83347e-05
-0.0108228
-0.00025989
-2.3475e-05
2.22253e-06
-0.00400837
0.105593
-0.000220137
-0.00705731
-0.0282878
0.0190028
0.0023426
1.50153e-06
-2.67929e-07
-0.0278592
-5.55648e-07
-9.86323e-07
1.57644e-05
-0.00619195
-7.84645e-05
0.0326021
0.00254559
8.46969e-07
0.206177
-1.9642e-05
-2.36786e-07
-0.0333782
0.000538838
-9.3962e-05
-1.39971e-06
0.0080245
0.0336596
-3.7446e-07
-0.0529807
-0.107663
-0.109328
-0.0418613
-0.00019144
1.45775e-06
-1.18431e-05
-0.0578245
-3.15555e-05
-0.00117026
-0.000129607
0.0404478
0.0187635
8.34545e-06
3.54833e-06
4.45587e-06
1.23606e-05
-0.0418613
0.0202762
3.93841e-07
-0.0142019
-0.000313101
7.11239e-06
2.43995e-05
-2.23959e-06
0.00372086
-1.18652e-05
-0.00182265
-0.00104703
2.5394e-06
-2.51336e-07
0.0337697
-0.188608
3.85071e-05
-1.80728e-05
-0.000139351
-5.18991e-06
-1.46449e-05
-2.3092e-05
0.147331
0.0131022
0.0110137
4.71692e-07
-4.30059e-07
1.15322e-05
-0.00252898
-1.85011e-07
9.46784e-06
0.00234709
-0.000356614
-0.396722
4.68912e-07
0.0576784
0.0166282
-4.36322e-10
0.0843857
0.000558032
-0.000212903
0.00181058
1.01196e-05
-0.0153563
0.000228938
2.00684e-05
1.43019e-05
-6.61853e-07
0.0306413
-1.25566e-06
3.12978e-06
0.00015295
0.0326929
-0.0191885
-5.06507e-08
1.62703e-08
-2.77585e-05
-3.75911e-06
0.00322609
1.16119e-06
0.00117518
-1.01209e-05
-0.0590524
-2.38171e-06
-0.16519
4.45488e-07
0.17928
-1.09833e-05
-8.47518e-07
-0.10988
0.0166396
-0.0767266
0.0884005
-0.000410151
-5.14155e-05
3.90898e-07
0.0483377
5.78629e-08
-4.66335e-07
0.0012461
-0.000637987
0.0219628
0.0255864
0.00184801
-0.0287776
0.00186409
0.0511069
1.15255e-06
-2.38689e-05
4.77717e-05
0.0248794
7.30913e-06
0.0466722
0.00642497
-1.09104e-06
-9.79777e-07
3.65349e-06
-0.037623
0.0107133
-9.54584e-06
6.90848e-07
-9.37817e-06
-5.19436e-05
-7.8113e-05
-0.011606
0.00464396
-1.26733e-07
-0.140103
0.00121057
-0.0494172
0.000716466
-6.95967e-06
-2.9595e-05
0.193843
-3.4574e-07
0.00110474
-0.117965
1.86133e-05
-4.11698e-05
0.00294235
0.00457481
1.55989e-05
0.233156
-2.65854e-05
0.00888844
-1.9791e-05
-7.16544e-05
-4.12689e-06
0.028973
-4.21192e-07
-0.0014809
-0.00992839
-0.0566382
0.000262411
0.000503007
-2.27594e-05
0.000410904
-8.58203e-09
-0.0788157
-3.01491e-05
-2.32954e-06
-3.78459e-05
2.61701e-07
6.41441e-09
0.00523388
1.93314e-06
-1.63985e-08
4.70193e-06
-0.000981981
-1.55756e-06
-0.000109603
-0.00107025
-0.000223304
0.000856874
6.6976e-09
0.00105632
-0.00805639
0.000846409
0.000434096
-0.000282017
0.00343652
-0.0181951
-0.00874903
4.47534e-09
0.00995278
-0.0756976
2.93957e-09
-2.87591e-05
-6.45244e-07
-0.0171167
-0.00146347
-2.08993e-06
-0.0115137
0.0333181
6.88489e-08
-1.86105e-06
-0.0300988
-0.00602112
-0.000744544
-6.71354e-07
-0.0687269
0.037146
0.00352926
1.15647e-06
0.0294182
-0.00119807
8.96585e-05
0.0130009
-2.87191e-05
-5.38881e-07
-3.18072e-05
0.00107723
-5.90271e-05
-0.0848137
0.0693588
1.36541e-06
-0.00505179
0.00145472
0.0342448
4.4637e-07
-0.00303674
-1.12284e-06
2.38104e-06
-0.067723
-0.421015
0.00577352
-0.389264
3.71948e-05
0.000149813
-7.1175e-06
-0.00471753
0.00804654
1.74041e-07
-7.25187e-06
-0.000167203
-3.24168e-07
-3.74054e-05
-0.133543
-0.0605643
0.000172537
-1.11672e-05
-6.5242e-07
-0.0351525
2.34096e-05
5.57089e-06
9.20567e-07
1.52499e-05
-0.0089882
-0.373382
-0.0921677
-0.0173245
-2.20521e-07
0.000133549
-1.22788e-06
-0.00103009
-0.133207
0.0124072
1.86696e-06
2.15314e-08
-0.000113288
5.88466e-06
-3.06729e-06
-0.0612232
0.0378729
-1.77349e-06
7.71205e-07
-3.0963e-07
-2.73385e-07
-0.00626204
-1.27361e-06
-0.0573796
0.00325083
-0.000490572
-6.99456e-07
1.63515e-05
0.0665777
-7.71898e-05
0.000132738
-0.0429987
9.06388e-06
-0.0540299
0.000108802
-0.000972814
-0.00372674
0.0887015
0.0412757
-0.000723426
1.95492e-07
-0.0101484
-1.51927e-06
-3.62904e-05
-2.19923e-06
-0.036624
-2.90355e-05
0.362285
0.098932
-1.41187e-05
2.85048e-07
-0.00179901
-5.75896e-05
1.58279e-09
0.0583278
-6.61352e-07
0.000105641
-1.72139e-05
-3.45089e-06
-0.157679
7.36433e-06
0.294287
1.78274e-05
-1.98651e-06
-0.0773156
-0.0902132
1.26237e-05
9.1997e-06
-0.000227708
0.000111315
-0.000935325
-2.64006e-05
-7.60538e-06
-2.08675e-05
0.011788
4.93252e-05
-0.0214139
0.000791614
0.0296437
-0.00216182
-5.37096e-06
-0.0492397
-7.42284e-07
-0.137753
-1.04469e-05
0.0273292
0.352128
0.2312
0.0671296
0.00687645
0.00087696
-2.26837e-06
-0.138128
-0.00071636
4.66726e-08
0.137316
0.0698362
1.74525e-05
-1.02832e-05
-5.28835e-05
-5.29439e-05
-1.37106e-05
-0.0652582
-2.29867e-09
-5.27034e-06
-0.000170594
-0.000169215
-3.09841e-07
-0.00193636
-8.52501e-07
-0.0390023
2.52404e-05
0.00215047
-2.60873e-05
2.71155e-05
0.000534998
-0.572349
0.000728078
1.9664e-06
-0.0210721
-0.174948
0.0870353
-3.71841e-06
0.0243002
-3.95351e-05
0.0129813
3.16051e-07
9.53741e-06
-0.0903892
-0.000427849
0.0246804
0.121238
6.58964e-05
0.168572
6.21865e-06
-5.31705e-07
0.127292
0.00313145
1.02784e-05
0.124003
-4.94087e-05
-0.000302934
0.000140807
0.000394857
-6.17225e-06
-0.00113062
0.0418312
-0.0478098
0.00798111
-3.26339e-05
2.44239e-05
0.0414954
1.4044e-05
8.79082e-06
-0.00015733
-2.80331e-07
-0.00443218
-0.0141349
-0.0124041
0.038934
-0.000734313
-4.13422e-06
0.0208061
-6.47578e-07
-0.00110782
-1.88623e-07
0.104413
-1.8454e-05
0.00159788
-0.0435572
0.00322222
4.33534e-07
0.000153617
0.118481
-9.60638e-07
0.001315
-6.36749e-07
-0.0736378
0.0490385
7.90362e-06
-0.0259917
-1.08389e-07
-0.0149735
-0.00275694
1.11888e-05
-3.3167e-07
-2.67821e-06
-7.9056e-08
-0.000716526
4.70275e-07
-0.00194032
4.14611e-07
-1.7609e-06
-0.0748282
-1.53771e-06
-4.74057e-05
-1.85372e-05
1.78678e-08
-0.0801048
1.6224e-07
4.46776e-05
-0.0430265
-0.000248387
-0.00413281
-3.62096e-06
0.0197094
-0.000336304
0.104014
-1.1321e-05
-0.00136691
6.84836e-07
-6.8833e-05
-0.00256143
-0.00282482
0.00860163
0.0192518
0.00469931
0.0601908
2.61086e-05
-0.00184823
-0.000551094
0.1021
2.92155e-05
8.37927e-07
-4.15931e-06
-0.000669556
-0.001051
-0.282088
-2.63643e-05
-0.0562197
-0.027246
0.00756891
5.40668e-06
-0.39854
0.00298005
2.85226e-06
1.99973e-05
-5.89482e-06
0.0280434
-2.17633e-06
-0.0394424
-1.06281e-06
-2.83414e-05
0.04303
0.00113741
1.54518e-06
-3.77488e-06
-0.0823289
1.61333e-06
1.61171e-05
-2.31454e-05
6.8933e-05
-4.71598e-05
1.06938e-05
-0.00309137
-0.00388679
0.000326833
0.0243052
0.00493914
-0.0689796
-0.0148484
6.26181e-07
-5.74232e-06
0.000731431
-4.33058e-06
0.00187831
0.0179877
-0.0499094
-7.12445e-07
4.0828e-07
-0.0165761
-0.137382
-5.72713e-07
1.89018e-06
4.98989e-05
0.0207398
-0.140446
-4.3697e-05
-4.12604e-05
-5.79066e-07
-0.0149391
-0.00242639
-0.00409906
-0.000355869
0.000884865
2.95258e-07
4.69063e-05
0.00477409
7.28442e-06
-6.25814e-06
-4.57486e-05
-0.152981
1.27852e-05
0.0851373
5.41305e-07
-0.0786071
-0.000167678
0.00152774
5.67725e-07
-1.83015e-06
-0.00806213
-0.0507759
0.00116788
0.0061421
-0.016118
1.24981e-05
-0.030018
-0.00313176
1.24753e-06
-0.159936
0.0400615
0.000574552
-4.05311e-09
-0.0448176
0.0227156
-1.9975e-06
-0.00109655
0.00334573
-0.000155092
3.04626e-06
-1.64696e-06
-1.09577e-05
-1.32893e-05
0.00093633
0.00908084
-0.00353331
0.000730683
-1.1937e-07
8.33465e-06
-0.000372018
5.95878e-07
-0.000197588
8.13031e-05
6.1266e-06
0.000287542
9.55461e-07
1.79083e-05
0.00237185
1.89558e-07
0.0356269
5.03628e-07
1.50009
-0.125906
0.00124568
1.2244e-05
4.98741e-09
0.0499362
-7.28935e-07
-3.2354e-05
-1.14458e-06
0.00501138
0.278831
-2.13521e-05
-0.104309
-0.000809157
-0.526689
4.05569e-07
-0.000796399
-1.57494e-06
-1.57477e-07
-0.0162289
-0.074474
-0.0101028
-2.75239e-05
-0.000194025
-0.000342795
-0.0174078
-0.0151955
0.00448344
-8.22191e-05
-6.24691e-07
0.00963402
-3.49584e-06
-4.85669e-06
0.0039688
-0.00207254
2.00196e-05
0.00381655
-0.00126291
-0.000443511
-4.45841e-05
0.188348
-2.31664e-05
1.84915e-08
0.0231285
0.00174641
-5.29358e-07
0.00514854
4.64645e-07
5.38311e-07
0.00363715
-0.00025941
0.0305537
-1.23371e-07
3.00178e-05
-1.14292e-06
-0.00312425
2.37974e-06
0.0566638
-0.362203
-0.09619
0.0282454
-0.113029
0.000255206
-0.00899434
0.0308367
-5.18375e-07
-5.22895e-05
0.000776404
-0.000154023
0.00272353
-0.0509624
-0.00242225
-0.0946357
-0.0108336
4.1055e-06
0.000279281
1.9967e-07
-0.0175335
-3.47728e-05
-4.27215e-06
-2.91685e-05
-1.4461e-05
3.42912e-06
0.000248674
0.000879459
5.44065e-07
-2.28696e-05
-4.09205e-07
-0.0611855
-2.2485e-05
0.0927714
-0.014152
-0.00229583
1.18171e-06
3.54819e-06
-0.0713586
-0.104644
-8.34374e-08
0.0054848
-2.48978e-07
-0.00107602
0.000615493
0.0016283
-0.000366647
0.0954975
8.33489e-07
-1.38031e-06
-0.00848172
0.0225525
-5.52082e-05
-0.000238275
6.20554e-07
-0.225238
-1.05087e-06
1.22739e-07
-2.05569e-05
-5.74725e-06
0.0349441
-0.0560161
-0.611039
-0.000327148
0.0569027
0.0270626
-4.87243e-07
-8.58801e-05
-2.56163e-07
-0.0175862
-2.27227e-06
1.29378e-05
-4.79997e-06
-1.61746e-06
-1.63223e-06
-2.32392
4.86552e-07
0.0311628
2.42637e-06
0.000540189
-5.49722e-07
0.00286685
1.50757e-06
-6.14832e-05
-0.000168332
0.000334606
-0.196963
-1.64614e-06
-0.00683671
0.000169239
-0.000248272
1.09136e-06
-3.67729e-06
-0.0135232
0.00381028
-2.25168e-06
-3.23184e-06
0.0160656
-0.000597972
0.000326556
-0.0976894
1.87009e-05
0.000649558
-7.9854e-05
1.88007e-07
0.0278516
8.56296e-06
-0.149612
-2.87075e-06
-1.55431e-05
3.74743e-07
-0.0644628
-0.0815919
-3.83594e-07
-0.0700467
0.00629561
2.63333e-07
-2.8433e-06
-3.08987e-07
-0.0842684
-0.0376389
0.000104549
-7.61826e-07
9.53523e-05
1.09208e-06
-5.77164e-06
-2.31439e-05
3.15463e-07
0.00340964
-5.82149e-06
-0.00110509
-0.00549121
-4.21599e-05
-7.70543e-07
0.0515729
-0.000290142
1.51466e-06
-0.00062645
-5.97842e-05
-0.45126
-4.99943e-06
-0.1391
0.000402827
6.47581e-06
0.000336072
0.00111933
-2.49733e-05
0.0754433
-0.00088946
1.7067e-05
-0.731683
5.19029e-06
0.000152442
0.00161526
-0.00236246
-1.72406e-06
-9.92066e-07
-7.81574e-07
-0.00480505
-0.000814006
-0.000690313
-0.0233207
0.0174278
-0.0252817
-5.80048e-09
0.0075138
-0.142768
-0.0250162
-5.18857e-06
8.48301e-06
-0.000263812
-0.181471
1.60895e-05
-0.000149551
-0.101094
-0.0870274
0.290998
7.05123e-05
0.00378139
-0.00994296
-0.0377719
-6.92845e-07
0.728685
-0.00548657
-1.03877e-05
-4.33105e-06
2.42241e-06
-0.027975
0.000708017
0.0443645
-3.05285e-05
-0.7186
-6.41977e-06
-0.0618892
-0.00952504
7.18685e-06
-0.00012362
0.0144526
-0.000697396
0.000387488
-1.5763e-05
1.96084e-05
-7.71398e-08
-0.00530686
-0.00281793
-0.00272695
-0.0281014
-6.16966e-07
-0.0219917
-0.00264597
0.578559
1.98636e-08
-2.94118e-07
0.898261
-0.105179
-9.17349e-08
0.000278084
-0.00229888
-0.000250309
-0.0147407
-0.158033
0.0291007
-0.00337217
2.53912e-06
-1.2017e-06
-0.000145111
0.0146891
-0.0530483
-2.86226e-06
-0.00514535
0.0305056
-0.0275114
8.34547e-06
-5.308e-08
0.0126194
-0.5642
0.534002
0.0267032
0.0199726
-2.21719e-06
0.0450576
-0.00350905
-1.28311e-06
0.000227136
0.00158774
-4.38689e-07
0.00250387
0.00094213
0.0241534
-3.40103e-08
-0.015001
0.0020704
0.0388632
1.04124e-06
-9.52202e-06
6.03189e-06
8.70198e-06
6.962e-06
6.78518e-05
-0.000302352
0.00160183
-0.000968248
-0.000108519
-0.0605232
1.30658e-05
1.64071e-05
-5.92646e-05
0.165468
-0.00040969
0.0589337
-4.7694e-05
2.97048e-05
-0.0466875
-0.0013659
-4.3592e-06
9.4944e-06
-0.418242
0.0548123
0.00259546
5.43288e-06
3.59359e-06
4.67657e-06
-0.250362
1.25822e-05
-0.00298125
0.0034845
-0.0942388
-9.151e-05
0.0024665
0.0843964
7.2764e-06
-0.0418272
-0.000219214
-6.45221e-05
3.46286e-06
-2.51125e-06
0.000385809
0.0696132
5.28493e-08
0.0337047
0.00456879
0.00689601
0.00110721
2.30009e-06
7.24263e-07
-4.45414e-05