/*--------------------------------*- C++ -*----------------------------------*\
| =========                 |                                                 |
| \\      /  F ield         | OpenFOAM: The Open Source CFD Toolbox           |
|  \\    /   O peration     | Version:  v2012                                 |
|   \\  /    A nd           | Website:  www.openfoam.com                      |
|    \\/     M anipulation  |                                                 |
\*---------------------------------------------------------------------------*/
FoamFile
{
    version     2.0;
    format      ascii;
    class       volScalarField;
    location    "100";
    object      ddt0(k);
}
// * * * * * * * * * * * * * * * * * * * * * * * * * * * * * * * * * * * * * //

dimensions      [0 2 -3 0 0 0 0];


internalField   nonuniform List<scalar> 
13917
(
-6.30152e-08
4.25804e-08
0.00101896
-2.02809e-08
1.13449e-08
1.14695e-06
0.00172936
6.59297e-05
-0.00194214
4.98426e-08
-2.85341e-06
-8.09326e-07
-2.35074e-08
0.000538778
2.11847e-09
4.33451e-09
6.96105e-08
1.31111e-07
-8.05767e-07
7.53302e-10
1.22773e-11
0.00149557
1.13268e-08
0.000246464
-2.35177e-08
0.00293049
4.67975e-08
2.00617e-07
2.18636e-06
1.64203e-07
-9.51352e-08
-1.29862e-07
-3.03608e-08
2.05025e-08
-1.29982e-08
0.000131796
8.76397e-09
-0.00055452
-4.01986e-08
0.000207461
-4.86741e-09
6.07491e-11
-4.92602e-09
2.93825e-07
-6.49656e-08
-3.33896e-08
1.32752e-07
5.83323e-08
2.89044e-06
1.55474e-09
4.1748e-08
-3.8179e-09
2.74032e-06
2.55251e-08
6.71169e-08
-1.62742e-08
-3.04319e-06
-2.67624e-08
-6.9008e-08
-6.71408e-08
-0.000121595
3.39624e-08
-0.000357511
2.96878e-09
3.98695e-07
0.00799122
1.23715e-09
2.05248e-10
6.56196e-07
-1.07778e-07
7.59579e-09
-0.0026661
0.000583914
-1.01742e-08
5.09877e-07
-6.68329e-07
0.000301983
-4.62976e-08
0.00345738
-2.25292e-09
-5.33246e-09
9.31646e-10
1.55267e-06
-0.000591292
-0.00028068
-4.25701e-08
-6.62377e-09
-0.0376741
4.41697e-08
-1.66539e-09
0.000144815
-9.8619e-10
1.66847e-08
8.53028e-08
0.0760771
-2.66889e-06
-7.75048e-07
1.72348e-07
-2.93455e-06
-2.33501e-06
9.16248e-10
-6.85506e-08
3.39122e-07
2.23937e-08
1.39641e-08
-0.00264388
-7.7699e-07
1.36862e-07
5.76524e-08
-5.86745e-08
0.000231316
0.000315731
-1.46424e-06
-0.00229145
1.40944e-08
-1.69936e-06
-1.53573e-09
9.48023e-08
-0.000447847
2.9505e-08
3.23592e-10
6.64111e-07
-0.000474144
3.51918e-08
-4.52208e-11
8.2962e-08
-6.35931e-08
-4.74785e-10
-9.81697e-09
-8.24905e-07
-0.000170214
1.28024e-08
-7.11267e-08
2.15665e-10
0.00562119
0.000500673
-7.8832e-08
-1.48312e-06
1.27459e-09
2.528e-08
-0.000247214
-9.37086e-09
2.07367e-08
1.72393e-08
1.4773e-09
-0.00516044
1.49573e-06
-7.90897e-09
-8.32086e-09
-1.26638e-07
-3.52535e-07
-1.44812e-06
-1.45773e-06
-2.08272e-07
-9.79553e-08
-0.000105702
-1.07452e-07
-0.00338954
0.000412518
-0.0312349
4.31305e-08
-4.75153e-07
-2.22235e-09
-8.69483e-07
-1.42158e-06
-3.50259e-06
2.15547e-08
-1.46276e-07
-4.50159e-08
-1.42494e-08
-5.03095e-08
-0.000140414
-1.614e-06
5.81501e-08
-0.00664095
-1.42334e-07
-6.26996e-05
-3.21263e-06
-0.0057612
5.00116e-08
1.90836e-08
-5.46327e-08
-1.32145e-08
-7.07627e-09
-9.23264e-08
0.00361278
2.97207e-07
-8.14326e-05
3.32017e-08
-2.92475e-06
-0.00020705
-0.000343693
-8.58068e-07
1.22462e-08
-4.16821e-06
-3.9535e-07
4.0779e-08
1.82791e-08
-2.05693e-07
-0.0248652
2.63232e-08
8.99937e-10
-2.15139e-07
-3.7938e-07
0.000638104
5.52525e-05
-9.64185e-09
-1.13215e-08
9.77395e-08
0.00293193
1.55689e-08
0.00141763
0.000711615
-2.93597e-06
1.63358e-08
-5.30612e-06
-2.58539e-08
0.000356539
-4.50255e-08
0.000250644
4.439e-08
3.48665e-07
-3.41533e-09
-0.000498584
-0.00223062
-3.46915e-09
-4.40544e-06
-9.27654e-08
1.28265e-08
0.000293347
-1.5495e-06
3.57666e-08
0.00127154
0.000711613
6.05438e-09
-1.27224e-07
5.83385e-05
-0.000176385
-3.93748e-09
-7.76405e-09
0.000498268
-5.4238e-07
3.82354e-11
3.02374e-05
6.68482e-07
-1.53567e-06
-8.87568e-08
-3.38038e-09
-9.34951e-08
0.000612613
2.03479e-08
3.71359e-08
-6.34349e-07
-6.26201e-08
-3.87772e-08
-9.90287e-07
0.000495379
-1.30006e-06
-8.33727e-08
1.70321e-08
1.73503e-11
-0.000505812
0.00104493
3.91616e-06
1.4857e-08
0.000699895
-0.000140677
-0.00444578
0.00291571
-8.5904e-07
-4.95648e-09
1.88236e-09
1.35402e-07
-0.000236313
8.41471e-07
-6.9693e-08
8.47764e-05
-5.53887e-08
-7.0739e-09
0.00422016
1.21649e-09
-0.00638979
2.85898e-08
-1.6612e-12
-5.40655e-08
-1.26273e-07
-9.00429e-07
1.26507e-05
-1.41446e-07
2.12189e-08
-0.000124749
0.00107133
0.00084382
-4.24592e-08
-0.00576691
-2.36704e-09
2.17299e-08
7.4859e-09
-5.1476e-06
-1.29502e-09
4.44846e-07
-9.69742e-08
-4.17917e-08
-2.79866e-07
-9.32934e-08
1.55519e-06
-2.28995e-07
1.40246e-07
-2.87945e-08
-5.22394e-08
0.000169184
-0.000523019
-4.38869e-09
-5.41202e-10
0.00419241
5.25425e-08
0.000520825
-2.73368e-08
-0.000555341
2.3202e-09
2.60887e-10
-9.93247e-09
-5.85915e-07
4.43502e-08
0.125484
-7.32977e-06
-5.70178e-08
-3.57546e-07
1.39089e-05
8.73868e-08
-0.000423584
1.85023e-06
-0.000234671
8.88022e-08
-0.000257252
-1.20622e-07
-0.000161364
-1.47499e-06
-1.77551e-07
2.06211e-07
0.00080621
-5.34567e-09
-1.79029e-08
0.000242659
-3.56499e-09
3.98847e-08
-0.000338933
-3.38271e-07
3.58021e-08
-2.3958e-05
1.545e-06
-5.46111e-09
-0.00048041
-0.00813133
6.46398e-09
-1.23412e-08
-4.50915e-10
-9.40132e-09
-2.31998e-05
-0.00624283
-1.55999e-05
0.000189892
-4.01202e-09
1.91025e-07
-6.86202e-05
-1.02335e-07
0.00135368
-0.000318556
-0.00191041
8.30055e-09
4.71158e-05
-4.82619e-09
0.00117998
-6.36205e-08
-3.16594e-07
6.504e-07
-5.46053e-10
-7.66247e-09
1.90135e-08
1.20314e-07
4.08495e-07
3.75839e-06
-9.99432e-05
0.000294585
-3.97694e-07
-1.06916e-07
-5.37411e-09
-0.000195202
0.0017767
2.60102e-08
-0.000243562
1.75416e-08
2.16953e-05
5.01721e-09
-3.93874e-09
-6.78432e-08
0.00282611
-6.3791e-08
0.000635215
6.31358e-06
-3.17895e-06
1.16425e-05
8.81513e-08
-6.83091e-06
1.25695e-05
1.42513e-08
-2.34802e-07
-9.07205e-09
5.51251e-09
1.53572e-07
-7.54975e-12
-1.97197e-08
-4.33817e-09
9.1603e-06
-1.55882e-09
-0.000203662
0.00495397
-3.59159e-05
-6.22087e-07
0.000734227
0.000548274
-1.14506e-07
5.80486e-09
2.11733e-06
-3.51474e-08
-1.25096e-07
1.39655e-08
-0.0056011
0.00235858
0.00599021
2.52284e-08
8.88214e-07
3.34601e-08
-4.49977e-08
3.51292e-07
4.58607e-09
0.000108067
4.29675e-08
-1.11026e-09
0.000453787
-7.29786e-05
4.94469e-05
1.12261e-07
-2.09737e-05
-0.000394062
0.0005013
-1.37457e-05
-9.18805e-09
1.54791e-07
3.91088e-10
-5.54952e-09
2.85991e-05
1.22725e-07
2.62075e-08
1.89134e-07
-5.98038e-08
-1.47085e-05
1.34469e-08
2.8235e-07
0.000207678
-1.70555e-06
-0.000191596
-6.66411e-10
2.81821e-08
4.62212e-08
-1.09085e-07
8.98051e-09
0.00510729
8.313e-06
-1.27119e-07
-0.000182388
-6.75549e-09
-9.9111e-07
0.000539903
5.72979e-07
-3.0913e-06
0.000635316
1.83664e-07
2.18329e-07
1.67552e-06
-2.70362e-07
-4.54062e-06
1.99852e-06
-3.76082e-07
-2.5195e-08
9.0129e-09
-0.000582785
3.4559e-08
-4.01918e-09
-1.33346e-07
-2.67441e-08
-7.93919e-05
-0.00256211
4.98422e-08
-9.29074e-09
0.00448254
0.000532999
-5.17785e-12
-0.000280293
4.81687e-08
1.67759e-07
5.68571e-08
0.000766044
-0.00028241
-1.28282e-07
-8.66152e-08
0.00102507
7.94123e-07
-8.53634e-05
1.12055e-11
0.000669338
1.48237e-06
0.00381148
-7.21522e-09
-0.000237887
0.000761219
-1.4493e-07
-1.00275e-08
9.60549e-08
-5.12219e-07
3.53211e-06
1.99424e-08
-1.44699e-08
1.71508e-09
1.30092e-09
0.000748342
4.58083e-05
-1.33218e-07
3.0719e-06
-4.0245e-09
-7.4953e-10
8.72785e-07
0.00022197
-1.59783e-11
-5.1583e-08
-4.40438e-09
-1.83219e-09
0.00420049
-0.00043969
-5.3726e-09
7.50883e-09
4.36306e-05
-2.77584e-07
-7.16029e-09
1.02588e-08
-5.24463e-08
-1.16372e-07
-4.10266e-08
-1.51986e-06
-5.15151e-07
1.31421e-06
5.84721e-07
6.36618e-05
2.79562e-07
-3.81798e-08
0.00062665
-3.71887e-09
2.66417e-08
2.56792e-08
0.000225568
3.1823e-08
-1.74367e-09
-1.8015e-06
2.24075e-07
-1.39021e-05
6.32598e-07
1.59107e-07
-6.43468e-08
-7.82988e-09
0.000649777
-5.18514e-07
-0.000302192
6.00784e-08
-2.06313e-10
1.96847e-06
-0.000330378
0.000472084
1.82605e-07
1.63508e-07
1.68712e-08
-1.2402e-07
1.0346e-08
8.9216e-07
2.96068e-07
4.57734e-09
-2.36894e-08
3.70005e-07
-0.000360945
-9.68179e-05
-8.42703e-08
-1.08856e-06
-0.000240373
-6.18025e-08
1.44449e-08
9.0389e-08
-0.00244812
-0.00467712
-6.20355e-07
-1.05661e-08
-0.000482284
-6.29197e-07
-2.82762e-09
-6.52342e-08
-6.33304e-07
-1.08025e-07
2.16781e-07
0.00329044
1.79505e-06
-1.7546e-07
0.000526108
-4.22929e-08
9.85976e-05
-2.49719e-09
-5.9949e-09
-0.00589465
-0.00258549
5.39965e-06
-3.89244e-08
5.8536e-08
9.50773e-09
-6.60748e-08
3.66217e-06
-2.67137e-06
-1.23381e-07
-2.7215e-06
-1.13377e-09
6.36056e-08
-1.7098e-05
-2.60626e-06
-5.91485e-05
-4.87205e-08
1.78838e-06
-3.37068e-08
8.13043e-05
1.38756e-07
1.80947e-07
-5.54649e-09
-5.24878e-09
-1.60089e-08
-7.14436e-08
4.47049e-07
-1.61986e-08
5.84461e-05
-7.17712e-06
-9.24785e-08
-6.06569e-09
1.37702e-06
-8.96173e-06
0.000716721
1.95083e-08
3.04087e-08
-1.54951e-08
-5.30606e-08
-6.00742e-08
0.000726615
-3.61934e-09
-0.00256355
-4.43215e-08
-2.88467e-06
-1.48039e-07
0.000645479
2.38734e-08
9.4692e-08
-0.000121637
0.000418974
7.09614e-08
2.44003e-08
-0.00116435
-3.37803e-07
8.0782e-07
-5.48447e-11
-8.85518e-08
1.43676e-07
-3.48158e-09
4.17692e-07
-8.74886e-07
-1.72504e-08
-4.38252e-07
0.000930339
1.93011e-08
-4.40202e-09
2.08518e-09
-0.000492909
-2.55301e-10
3.22093e-08
-0.00013189
6.06583e-08
-0.0030735
-1.0284e-07
2.57802e-08
1.9053e-09
2.48896e-07
1.29464e-08
1.70422e-07
-3.77701e-09
-2.38849e-07
5.1196e-08
-4.7847e-05
2.31745e-05
0.000368215
3.30269e-08
-5.59184e-09
1.25113e-07
-4.30895e-08
-0.000559966
-0.000623646
1.46964e-07
8.90544e-10
9.39789e-06
-1.62602e-06
-1.88223e-05
-4.16681e-06
9.1558e-08
0.00376762
-1.05249e-07
-4.37905e-08
1.3493e-06
-1.54297e-08
1.46354e-07
1.67238e-07
1.70231e-07
1.18235e-08
-5.94345e-07
-6.16495e-08
-1.11087e-08
-4.97005e-08
-9.44105e-08
-1.24873e-07
1.40784e-08
2.00928e-09
-7.25596e-08
5.35972e-08
3.78106e-07
5.67893e-10
2.18041e-08
2.32414e-10
-2.61397e-08
1.23287e-08
-1.20769e-07
2.27974e-09
0.000759806
-7.14016e-07
2.07183e-06
4.78787e-09
-1.06234e-09
-5.37392e-08
2.15782e-07
7.79891e-09
0.00330162
-2.36182e-07
0.00211881
-4.85988e-08
1.07636e-06
1.93304e-08
1.21533e-10
2.73256e-10
-7.83238e-08
-0.000285638
-2.39993e-10
-0.000521941
-1.2732e-07
-7.81591e-05
1.08981e-07
-2.38352e-07
-3.03438e-06
-1.05725e-08
3.50254e-12
-7.38983e-07
5.6248e-10
7.34299e-08
0.00443429
5.27086e-08
-2.17775e-09
-6.05907e-08
-6.35166e-09
-7.76277e-09
-1.28081e-07
-1.72201e-06
-0.000488849
-1.14376e-07
1.96803e-08
-4.21456e-09
-0.000435156
8.31255e-08
8.62152e-08
5.30311e-08
0.00423526
-0.00276508
6.35302e-05
-8.62853e-08
1.1147e-08
5.11165e-09
-9.80511e-09
-3.89643e-07
-1.01947e-07
1.12861e-05
-5.86657e-09
-0.000448097
-1.14004e-08
6.96061e-08
-1.24523e-05
2.05387e-08
3.49934e-08
3.38354e-08
-9.42371e-10
-5.2224e-08
-2.15537e-07
-5.76524e-08
-0.00324409
0.000258883
-1.12118e-07
-4.27389e-08
1.86498e-09
-2.7661e-06
-0.000438401
2.70731e-11
5.32616e-05
-1.11793e-09
-6.75034e-08
4.99297e-08
-1.84291e-08
9.46383e-06
-1.70709e-08
0.00560761
-2.5701e-08
3.41136e-10
-1.01281e-08
-2.96477e-09
-2.08625e-09
-1.57152e-09
2.74851e-06
1.14111e-08
-2.38005e-08
-0.00184814
-0.00428555
-1.84638e-07
-9.92786e-08
1.90834e-07
2.67223e-08
-7.82499e-09
5.7659e-08
0.00063328
-8.48432e-08
2.04931e-09
-7.78628e-08
-0.00097961
2.9663e-08
0.00019141
-3.17484e-10
6.61806e-09
-0.000566716
2.16363e-08
-4.55495e-08
-0.000256198
-1.2493e-06
-4.94275e-09
1.0953e-06
-2.07893e-11
-2.84173e-08
6.15953e-09
0.000663363
1.36324e-08
2.32155e-08
-1.13577e-08
0.00596278
-2.70377e-08
2.33362e-07
1.95359e-06
-9.88847e-09
3.46067e-08
-4.70549e-09
0.00017139
-7.74629e-09
1.19373e-08
-3.79969e-09
-3.02387e-06
-3.73561e-09
1.89403e-06
0.000426159
0.00201281
4.34584e-08
-0.000823504
-0.000100698
-4.37093e-08
-0.000506622
-0.000459162
-5.33851e-05
0.000658421
-0.00165094
-5.94148e-05
1.1118e-06
8.55901e-08
0.00295279
2.70687e-08
0.00131413
-1.00605e-08
8.04059e-09
9.49983e-08
-4.81077e-09
4.16843e-08
1.60552e-07
-0.000495999
8.13027e-09
1.30505e-08
-7.9711e-05
9.3035e-08
3.50218e-09
-3.46624e-06
-4.56892e-08
-3.58395e-08
2.14785e-05
-2.31687e-06
6.51931e-08
-2.34509e-08
0.000175385
-7.43853e-07
2.61511e-06
4.63479e-08
8.04131e-07
2.81215e-07
-0.000196013
-0.00160029
-1.30487e-06
5.75499e-08
1.95128e-08
-8.3724e-09
9.51537e-09
-4.6804e-08
-9.24274e-09
-1.19242e-07
-1.15244e-07
-0.000218056
3.49569e-07
2.15725e-08
1.13306e-06
0.000538521
-6.8074e-08
7.22782e-10
0.00021156
-3.69756e-08
6.14086e-08
5.16867e-08
-0.000193127
-6.62001e-10
-5.03161e-08
0.000894197
-5.728e-06
-0.000486859
7.28663e-07
0.000294216
-2.92768e-08
1.30956e-06
1.51224e-08
4.79591e-09
2.80408e-09
0.00418898
0.000146469
-2.11914e-08
-1.02232e-08
5.54313e-08
-0.000812574
-1.84832e-08
1.29906e-08
1.50072e-09
5.83376e-08
1.70403e-06
-8.27741e-09
2.24039e-07
-5.85448e-07
0.000166511
-5.46186e-08
-6.42989e-07
-7.61348e-08
0.000701848
0.000536642
-1.58199e-08
0.000215399
2.60391e-07
-4.10384e-07
-2.64341e-09
0.00247044
7.15553e-10
-1.99973e-08
-9.14771e-08
7.87104e-07
0.00373147
-4.51525e-06
-2.48849e-06
-0.00180516
-5.77808e-09
1.10012e-05
-1.61617e-08
-6.03827e-08
0.000533077
8.40239e-09
1.66036e-10
-8.73863e-08
-6.28869e-08
-0.000207772
-8.34994e-09
1.30877e-08
-4.09869e-07
4.36446e-08
-5.64121e-08
2.39965e-06
-2.56525e-06
-0.000286012
-1.83153e-07
3.05332e-08
-2.58935e-08
-7.42293e-05
-2.30642e-07
-0.000447402
0.00258764
4.09759e-08
3.12401e-10
0.000924726
0.000281991
-1.21608e-08
8.34924e-07
1.01359e-08
2.28399e-08
4.12137e-08
-5.5578e-08
-5.43181e-08
2.80246e-11
8.09003e-08
-3.21754e-07
-8.6115e-09
1.47709e-07
-2.70036e-08
-1.15464e-07
-5.35305e-09
3.09292e-08
1.44657e-07
5.29952e-08
1.96046e-08
-2.28762e-08
6.47757e-06
2.42703e-08
-0.00400979
-3.09819e-08
1.43522e-08
-9.5676e-08
2.97942e-08
3.88841e-07
5.72721e-08
2.56183e-08
7.12869e-07
-2.52311e-08
0.00177859
-1.18617e-08
-1.81901e-07
-0.000406636
6.58418e-06
-3.34258e-08
8.96092e-09
0.00023037
3.97437e-09
-2.00758e-08
-0.000185866
0.000610443
-2.09491e-08
-2.32778e-06
1.12339e-09
2.24171e-08
0.00443715
-9.39993e-08
-7.77567e-09
4.76811e-05
-2.11713e-08
0.000293206
-6.85008e-09
-5.5212e-09
9.15511e-08
-3.07343e-06
6.4362e-05
-2.48776e-08
7.75532e-08
-3.0243e-08
2.82552e-09
-9.73321e-10
-6.5155e-06
1.79047e-07
6.8345e-12
-0.00606957
-6.06879e-07
1.25244e-05
-0.000351833
-1.29093e-06
-2.14105e-08
-3.52622e-09
5.64862e-08
2.99272e-06
3.26339e-08
-2.12993e-06
-4.51434e-05
5.21674e-08
0.000462347
1.83862e-07
2.60787e-08
-3.089e-06
3.34298e-07
4.51399e-06
0.00390558
-5.07566e-07
-2.97076e-06
-0.000648992
-9.05563e-07
9.72833e-09
-0.000124161
1.52334e-08
-1.27344e-08
2.66468e-08
-0.000456818
-1.69205e-07
5.10301e-08
3.69203e-07
4.91049e-07
-1.06059e-07
-0.000327582
-3.70445e-08
-0.00187161
-1.0198e-07
-6.66568e-05
8.63265e-07
-2.65508e-07
-4.09506e-08
-2.50044e-08
4.26967e-08
0.00173602
-6.31833e-09
5.61032e-08
1.31462e-08
-5.41113e-08
-1.05247e-08
-1.65607e-07
-4.20653e-06
2.75907e-06
1.16411e-07
1.1224e-06
0.00663384
-7.16624e-08
-2.73872e-08
-0.00098521
0.00539382
-7.33998e-09
-1.81758e-08
-2.32328e-08
-0.000280296
-1.24152e-10
2.51747e-07
-3.68514e-06
-7.68545e-08
-4.92103e-08
2.64094e-08
-1.57546e-08
8.37608e-07
-1.26939e-07
2.19514e-09
-0.000298924
0.00361971
6.23194e-08
5.69671e-05
-9.01212e-07
-0.00156699
5.96974e-08
2.21365e-08
0.00681987
-0.000358573
-1.43933e-06
1.6193e-05
-1.2339e-07
2.57453e-10
7.32938e-09
2.21906e-08
-3.44885e-08
2.26889e-08
-3.59942e-08
-4.85696e-08
-1.90695e-06
-6.15009e-09
-5.68193e-08
-1.54545e-08
-6.86383e-08
-2.79338e-06
-2.88167e-06
-5.81442e-08
7.2546e-07
6.2055e-09
0.00546201
1.31264e-08
4.23373e-08
5.33436e-09
5.22004e-08
0.000703123
-2.88767e-06
-3.62436e-08
4.28878e-07
8.52305e-08
-1.2773e-07
0.00058464
-3.90521e-08
3.67549e-09
7.17161e-09
-6.08461e-08
0.00112083
-4.70662e-08
-1.5172e-07
-6.70573e-09
1.95836e-08
5.18906e-07
6.5956e-08
8.75554e-09
5.96314e-08
0.000604737
-1.26167e-07
6.96698e-05
-0.00509759
1.53767e-07
0.000206047
-1.26339e-07
8.95408e-09
-5.10524e-08
0.000707306
4.60147e-09
-7.76333e-08
-2.11264e-07
-0.221887
1.99752e-09
-2.60953e-05
1.56077e-07
2.83061e-07
-8.11038e-09
-1.10806e-08
-2.2976e-06
1.70595e-08
1.65085e-10
1.36494e-08
-1.43251e-08
4.47554e-08
-1.17107e-07
-1.05164e-06
1.19017e-06
0.00223646
-3.24851e-08
-8.62143e-07
0.0040667
0.000361596
-1.79257e-07
-3.63773e-07
-0.000279365
5.61797e-08
-0.0003368
-1.9896e-09
-0.000328362
-1.84193e-05
4.95714e-09
-1.19046e-11
-9.75667e-09
3.6992e-08
-2.18008e-08
-1.02941e-08
1.01503e-08
-1.10088e-06
-5.65972e-08
-4.7367e-08
0.000225351
9.78797e-08
4.80402e-08
-0.00198169
-5.58748e-08
-0.00031786
1.71904e-08
3.56031e-07
1.22201e-08
0.00078271
-2.05826e-05
8.59797e-08
4.39276e-08
0.00339041
9.06707e-08
-0.000110658
2.2333e-09
-2.19908e-08
-0.000133136
4.73739e-08
3.14107e-07
5.32893e-05
1.26716e-08
1.59868e-07
-1.24853e-07
-1.12677e-08
-5.12187e-10
0.00317164
-0.000140243
-5.83152e-08
4.12687e-08
-2.03981e-08
-1.21228e-07
9.86322e-07
0.000100758
7.08932e-08
-1.13456e-06
-0.00532249
-0.000113465
-0.000511469
4.30096e-08
-2.23274e-06
-7.59099e-08
-1.27172e-08
2.379e-08
-6.98064e-07
-8.87888e-05
6.05082e-08
-1.0858e-08
-0.000404863
3.28927e-06
-6.09777e-06
-1.47116e-08
7.5811e-08
-5.63945e-11
-8.65848e-12
-0.000121056
-7.73917e-08
4.9369e-08
5.16322e-08
-7.62487e-08
6.77325e-12
7.06326e-09
8.09606e-10
-8.37311e-07
-8.04742e-08
-0.00627161
-1.11904e-06
-1.98816e-05
0.000713966
-2.40605e-08
4.61286e-08
2.55207e-09
-6.39842e-08
0.000758551
5.05911e-08
-4.02566e-08
-8.73145e-08
7.93839e-07
-2.39387e-07
0.0043151
-3.22218e-05
-3.50502e-08
-0.000529025
-6.95082e-09
-4.70014e-08
-3.72704e-07
2.18657e-10
2.05986e-08
1.19759e-06
0.000542975
-2.45434e-08
0.00672968
3.17405e-08
-2.03958e-08
-4.71422e-08
2.29241e-06
-1.28903e-07
1.39078e-08
-0.000437339
-9.53774e-08
1.16943e-05
0.00125148
-3.23607e-11
-9.42765e-07
2.90934e-09
0.00050074
2.82422e-07
1.60669e-10
0.00447724
9.0706e-08
5.95196e-08
4.1504e-10
-4.31959e-05
-1.15535e-07
3.73837e-06
3.9404e-09
-3.05315e-08
0.000715019
-2.24063e-08
6.41659e-06
-3.10072e-08
1.63498e-07
7.41017e-10
6.15447e-12
-0.000165182
4.79284e-08
6.81991e-07
2.02474e-07
9.11999e-07
-2.24592e-07
-2.68297e-07
6.79084e-08
-0.00020783
-6.20224e-08
-0.000255272
-2.20308e-08
-8.67784e-07
-3.86967e-08
-4.12187e-08
-5.55929e-08
-2.6963e-07
0.00311062
2.78341e-08
2.18077e-08
-6.69288e-07
-1.59139e-08
0.00524735
-8.70489e-08
0.00595326
-0.000106196
-1.15113e-07
-1.08574e-08
-2.70138e-08
4.23482e-09
-1.00928e-08
6.80772e-07
9.37376e-08
-4.15493e-07
-1.22979e-07
7.60274e-10
7.82231e-05
4.42789e-08
-1.19268e-07
0.00286899
-5.23778e-08
0.000247086
-5.3012e-08
-6.04774e-08
-8.93758e-08
9.18432e-05
-0.000224066
0.00514161
0.00374731
7.82792e-09
-8.35952e-07
-0.000204344
-4.60128e-06
-4.21348e-09
-1.90494e-08
-1.85764e-06
0.00405143
-0.000259233
-1.56461e-06
3.04043e-09
-5.46021e-07
6.0113e-08
0.000952109
-1.15442e-05
-1.80111e-07
-5.80835e-07
-4.06168e-08
1.79179e-09
-1.18171e-06
-4.43183e-09
5.444e-07
0.00377671
1.06204e-09
-0.00378725
-4.56922e-10
-3.17786e-08
-0.000315062
-0.000171761
-4.44633e-09
9.19752e-10
-9.06363e-08
-2.3232e-08
-4.67631e-08
1.37254e-06
2.95845e-08
-1.21326e-09
2.39475e-09
-2.29642e-07
-1.22716e-07
-1.26341e-07
-0.000178218
-2.71413e-08
6.06093e-05
-0.000220532
-0.000954971
1.03125e-09
1.4303e-07
-0.000335585
3.15393e-08
0.00305835
-0.00118731
0.00900235
6.43328e-08
0.000677886
0.000550635
7.64825e-09
1.61931e-08
1.15602e-07
1.96058e-06
0.00262517
-2.66515e-09
8.20316e-08
2.24026e-05
-2.23345e-05
0.00948436
-1.1873e-07
2.4632e-08
1.71564e-06
6.09183e-08
-0.000272618
-8.94111e-05
0.00168892
1.16484e-05
-4.99186e-08
-3.08328e-08
-4.42667e-09
9.18413e-09
-0.000476226
-1.76512e-07
3.22594e-08
7.05457e-09
-4.07726e-07
-0.000218807
-2.17664e-07
-0.00396131
-0.000104342
-0.000445752
2.20049e-06
1.94393e-08
-3.60376e-09
0.00614863
-7.73416e-09
-1.42604e-08
7.8217e-08
1.05702e-06
4.07271e-08
-5.66221e-05
7.27125e-07
1.11069e-08
-0.000232284
-1.83444e-08
-5.3743e-09
-0.000117572
3.27905e-07
-1.0049e-07
3.05556e-08
-1.80735e-05
0.000353145
-4.81872e-09
0.00272318
-0.00512629
-0.000533075
-2.00151e-05
-1.14628e-07
2.14953e-08
-8.53555e-08
-4.71819e-05
-6.97396e-08
0.00513655
-1.3412e-09
0.000106256
3.52975e-05
3.81829e-08
1.03892e-09
5.713e-08
6.0829e-08
-0.000220659
-0.000341328
6.03226e-09
-0.000137012
-1.63812e-07
7.56079e-08
5.61397e-08
-2.95514e-08
1.77265e-06
-8.70089e-08
-1.85226e-06
-8.87065e-08
3.59889e-08
-3.58602e-09
2.74895e-06
0.000257359
6.03145e-08
-5.8905e-08
-2.88492e-09
-5.19365e-08
-7.17662e-08
3.40068e-08
-0.000181428
-0.00015329
0.000166151
6.6196e-09
-5.20007e-09
8.68558e-08
-2.56502e-06
-4.18275e-09
7.27608e-08
1.0517e-06
-1.44933e-07
-0.000143028
7.32499e-09
0.000500572
-9.87672e-05
-1.77103e-11
-0.000245488
3.06244e-08
-1.82241e-07
4.82356e-07
8.01985e-08
-0.000187491
1.43157e-07
8.18464e-08
3.83402e-08
-9.08389e-09
-8.04799e-05
2.7073e-08
1.00123e-08
-1.10097e-07
0.000559882
0.000124148
-7.47378e-10
-1.24192e-10
-1.22455e-07
-4.96263e-08
1.05078e-06
9.04639e-09
4.14457e-07
4.72285e-08
-9.96194e-05
3.76093e-08
-0.000103313
5.68706e-09
0.000420866
-9.20529e-08
-1.11035e-08
-0.000570123
1.51131e-06
-6.07996e-06
0.000157659
-4.05656e-07
3.67206e-08
4.11852e-09
0.000354053
-1.05967e-10
-5.80442e-09
1.04856e-08
-5.71194e-07
-0.000120918
-0.000155657
9.95921e-07
0.000961625
6.01733e-07
-0.00299669
2.25755e-08
-1.31612e-08
2.74521e-08
0.00037964
-9.31342e-09
0.000575231
-0.000451504
3.0694e-08
-8.80576e-09
4.64453e-08
0.000294599
8.38825e-06
3.5767e-08
9.24391e-09
-1.14662e-08
-1.24037e-07
4.78568e-08
-0.00010122
9.10619e-08
3.42302e-09
-1.40053e-05
2.96419e-07
0.000719555
3.44397e-07
-2.04565e-08
-1.07523e-07
-0.000154382
-4.44805e-09
4.2998e-07
0.00256946
9.75912e-08
-1.26474e-07
1.23809e-06
1.26348e-06
6.95612e-08
-0.000616067
-8.86631e-08
8.84362e-06
-1.13634e-07
-2.72711e-08
5.21644e-08
0.00028699
-4.81796e-09
-1.38181e-07
-4.6688e-07
-0.000217903
1.26814e-07
1.56285e-07
3.83499e-08
-4.12101e-07
4.267e-11
-0.000320723
4.15997e-08
6.01715e-09
5.81041e-09
2.42538e-09
2.6943e-11
1.61587e-06
2.45111e-08
-2.04702e-10
4.57416e-08
-5.75355e-07
-1.07759e-08
-1.2332e-07
-7.32692e-07
5.70885e-10
4.89001e-07
5.41403e-11
2.64397e-07
-1.14613e-06
-3.94419e-07
1.0801e-07
8.83255e-07
1.71784e-06
0.00176756
-1.64417e-06
5.70888e-11
0.00445403
0.00577699
2.97053e-11
-9.5623e-08
-8.36993e-09
1.52527e-05
2.51556e-07
2.55473e-08
-1.78535e-06
0.000576391
8.80471e-10
-1.41891e-08
0.00364963
-0.000409893
-6.50168e-07
-7.50283e-09
-0.00116021
0.00105833
-2.03342e-08
1.67015e-08
0.000290567
-9.55359e-07
1.22771e-09
-2.70046e-05
-7.40823e-09
-7.08697e-09
-2.95164e-08
-2.03378e-07
2.72096e-08
0.00459625
0.000552385
1.86702e-08
-0.00156974
1.16782e-07
-0.000174337
5.63086e-09
-1.25808e-06
-5.55013e-09
3.30292e-08
-0.000851105
-0.00142614
6.79226e-06
-0.0050864
-1.0371e-07
1.69625e-07
-8.67806e-08
0.000179058
-0.000337962
1.14923e-09
-6.52081e-08
-3.72313e-08
1.94169e-09
-9.30684e-09
-0.000673827
0.00245517
1.70353e-07
-9.10947e-08
3.07811e-08
-0.000692685
3.52817e-08
1.18528e-07
1.01106e-08
6.91505e-08
-1.73053e-06
-0.00142584
0.000108455
-2.34536e-06
-3.37684e-09
2.18474e-05
6.4788e-09
-5.19167e-07
0.000758892
-0.000254741
2.46622e-08
3.01459e-10
-1.30492e-07
2.05275e-08
-1.98111e-08
-0.00110128
0.000518418
-2.43613e-08
1.02246e-08
-4.52371e-09
-5.26969e-09
3.4978e-06
-1.82826e-08
0.00451189
7.34406e-07
-4.36971e-07
-1.11193e-08
-6.03794e-08
0.000562525
2.65461e-08
1.96221e-06
-0.000298328
7.33758e-08
0.000746085
4.87239e-08
4.67019e-07
-5.88402e-07
0.000471157
-0.000173284
-6.30516e-07
6.08498e-10
8.97677e-08
-2.00616e-08
-3.30002e-08
-1.71924e-08
0.00489556
1.31678e-08
-0.0330876
-0.000148846
1.51487e-07
4.51554e-09
-1.48392e-06
3.77233e-08
1.53627e-11
4.71342e-06
-9.234e-09
-1.58648e-08
1.62208e-08
-2.26872e-08
0.00179063
3.48194e-08
2.07318e-05
7.95165e-08
-2.47734e-08
-0.000422072
-0.000328523
3.67865e-08
6.67355e-08
-1.9534e-07
-3.01912e-08
-6.97636e-07
2.28095e-08
3.2322e-09
7.65644e-09
3.55196e-05
4.81104e-08
0.00610484
-3.71125e-08
0.000274112
-2.0797e-06
4.09383e-08
-0.00125868
-9.36295e-09
0.00227597
-9.42501e-10
0.000227478
0.00367095
0.0011301
0.00494185
1.40087e-05
-3.17001e-07
2.28492e-08
-0.000668464
-1.5941e-07
-4.25107e-10
-7.33042e-05
-0.00529358
6.61029e-08
5.00867e-08
-1.10369e-07
-1.08917e-07
1.18432e-08
0.000687246
-2.85463e-12
-5.9204e-08
-1.20972e-07
-3.83397e-08
-4.13149e-09
-1.59168e-06
-1.04891e-08
0.00637874
7.19979e-08
5.88889e-07
-4.62054e-08
6.3402e-08
1.57548e-07
-0.00156336
2.40135e-07
2.51578e-08
-1.22851e-06
0.000279145
-0.000792109
4.06041e-08
0.00731933
3.80955e-09
-1.67571e-05
3.55964e-09
4.35534e-08
-0.000648878
-4.08567e-07
-0.000218429
0.00024037
-4.79167e-08
0.000255918
7.71976e-08
-6.1965e-09
0.000460622
9.3749e-07
3.80943e-08
-0.00221273
-1.24971e-07
-2.61835e-07
9.28393e-08
1.27509e-07
-5.36987e-08
-0.00624193
-0.00258179
-6.94827e-05
5.80439e-06
-6.5296e-08
-3.92085e-08
-0.000219869
4.6234e-08
5.56897e-08
-2.18063e-07
-4.50929e-09
-2.00476e-07
-0.000235908
-0.000375088
-0.000530018
-4.79642e-07
4.1205e-08
-5.85316e-05
-8.44544e-09
-7.77552e-07
-2.64145e-09
-0.000697786
-6.2472e-08
2.83468e-07
-0.00032429
8.93295e-07
4.33949e-09
-1.42376e-09
5.64296e-05
-1.16372e-08
6.34346e-07
-1.05728e-08
0.00334762
0.000507186
-2.3658e-07
-1.33816e-06
-3.99902e-09
-1.59584e-05
-3.00374e-06
6.43831e-08
-5.65801e-09
3.74016e-08
-1.02307e-09
-5.04045e-07
4.18327e-09
-1.51926e-06
5.25032e-09
-2.46423e-08
0.000666506
-2.56683e-08
-1.2471e-07
4.13703e-08
2.31155e-10
-0.000239758
4.39899e-09
-1.13169e-07
-0.000546762
-3.10837e-07
0.00590475
-3.84723e-08
0.000266515
-3.86167e-07
-0.00165649
-3.70063e-08
-1.68069e-06
2.63512e-08
4.48678e-08
-2.39678e-06
-2.45251e-06
3.80429e-06
0.00045958
-1.26066e-06
-0.000499667
3.29947e-08
-1.90987e-06
4.87741e-07
-0.00290126
6.92424e-08
2.35466e-08
-4.48623e-08
-3.80259e-07
-2.00485e-07
-0.000353563
1.3481e-08
0.00306904
0.000841034
-1.93088e-08
6.19294e-08
-0.00225801
2.58133e-07
1.73211e-08
5.08492e-08
-4.93693e-08
-0.00141172
-3.07492e-08
-0.000362855
-1.97101e-08
3.52649e-08
0.000327955
-7.10196e-08
1.71639e-08
-4.07384e-08
0.000649651
2.50511e-08
5.82202e-08
4.39999e-09
-8.80602e-08
-1.05291e-07
9.2375e-08
-5.65952e-06
-1.06085e-06
1.92656e-07
1.38418e-05
-0.000171287
-0.000238018
0.000788456
8.15984e-09
-6.7887e-08
-6.69824e-08
4.13346e-08
2.38063e-07
0.00726474
-0.000507663
-9.43607e-09
5.50043e-09
0.00133248
0.000294668
-9.00255e-09
2.63091e-08
4.69163e-08
-0.000200031
0.00369915
-1.17851e-07
-1.20174e-07
-7.71563e-09
5.44421e-05
-2.53788e-06
-5.26892e-07
-1.30908e-07
3.1863e-07
2.22982e-09
-2.4407e-08
-1.33878e-05
3.41039e-08
-6.4108e-08
-1.25881e-07
0.00185412
3.798e-08
-0.000265063
7.249e-09
-0.000616728
-6.06629e-08
2.37888e-07
7.87385e-09
-2.42047e-08
-5.91815e-08
0.00419092
3.35196e-07
0.000430663
-0.000282318
7.03779e-08
-0.000169778
-2.87918e-06
1.64694e-08
-0.00641639
0.000363218
2.07891e-08
-1.36815e-10
0.000431666
-0.000183398
1.37242e-08
-4.33765e-07
-0.000274165
-5.41255e-08
4.76922e-08
-2.15224e-08
-9.43619e-08
4.71844e-08
2.97964e-07
2.01739e-06
-1.13151e-07
1.23862e-07
-2.92688e-09
6.67547e-08
0.00343784
5.89623e-09
-1.45082e-07
1.13372e-08
4.60226e-09
1.44395e-07
1.39608e-08
6.45919e-08
-1.0137e-06
3.14584e-09
0.000320199
7.40602e-09
-0.000102352
0.00035816
5.35147e-07
8.95751e-08
3.44791e-11
0.000389523
-9.98972e-09
-1.23873e-07
-3.15407e-09
3.39905e-07
0.0186562
1.51426e-08
-0.000165867
-3.72278e-07
-0.000403272
5.01587e-09
-5.47672e-07
-1.80378e-08
-1.91603e-09
-0.000137229
-0.000504263
1.75548e-08
-1.06055e-07
-9.76046e-08
-1.83447e-07
-0.000194817
-0.000281372
1.70603e-06
-2.93412e-08
-8.84757e-09
0.000581398
-4.50754e-08
-5.95135e-08
-2.88546e-06
-2.10644e-06
-1.28187e-07
4.86183e-07
-1.40756e-07
-2.40115e-07
-1.08092e-07
0.000140554
-5.46179e-08
-5.31363e-10
-0.000261911
2.07656e-07
-7.839e-09
0.00052981
4.63444e-09
7.39981e-09
1.77526e-06
2.44698e-07
-0.000108529
-3.80811e-09
6.22191e-08
-2.32127e-08
-2.23174e-06
3.11517e-08
2.08056e-06
-0.00588702
0.000303488
0.000634678
-0.000137094
8.94666e-08
0.000688033
2.40798e-06
-6.88933e-09
4.69341e-08
2.60964e-07
-5.23654e-08
-3.43102e-07
7.17422e-06
-6.17662e-05
0.00114627
-6.3935e-07
4.0275e-08
-4.16678e-07
1.4565e-09
-0.000131481
-6.65647e-09
4.60812e-08
-1.01296e-07
-9.9811e-08
4.56107e-08
4.09155e-07
-2.65513e-05
6.94378e-09
-1.17762e-07
-5.2435e-09
0.000509477
-1.0607e-07
0.000803769
0.00462885
-2.24403e-05
1.62797e-08
5.03837e-08
-0.00038268
-1.15664e-05
-1.68079e-09
2.02768e-07
-3.18925e-09
-2.73796e-07
1.85756e-07
7.21615e-07
-2.25162e-07
-0.000878921
9.02054e-09
-1.1402e-08
-6.17755e-06
0.000857724
-1.13509e-07
-1.30211e-07
1.16432e-08
0.000364765
-1.17674e-08
1.88398e-09
-1.13699e-07
-6.37508e-08
-1.73011e-05
-0.00032452
0.00106611
-3.14623e-07
0.000467082
0.0021885
-6.79134e-09
1.75557e-08
-3.59925e-09
-7.84109e-06
1.0855e-08
4.13372e-08
-6.55823e-08
-2.13795e-08
-2.36906e-08
6.29865e-05
2.34973e-08
8.49661e-06
3.33935e-08
-3.28454e-07
-2.57475e-08
1.24369e-06
1.99597e-08
2.90639e-08
-1.24171e-07
6.01849e-08
-0.000472144
-2.36693e-08
-0.000444722
3.22206e-08
-3.51287e-07
2.53828e-08
-4.91405e-08
0.000397157
-0.000141854
1.38799e-08
-4.41448e-08
1.26613e-06
1.33172e-05
-1.84949e-07
-0.000725619
9.5382e-08
-0.000148439
2.21338e-09
2.49259e-09
-0.00642206
-1.32745e-08
0.00284453
-3.43405e-08
-1.07711e-07
4.60618e-09
-0.000219707
0.000142218
-3.45134e-09
-7.10556e-06
-1.46225e-05
1.47618e-09
-3.97352e-08
-4.75277e-09
-5.27808e-06
-0.000456624
-1.12496e-08
-7.40481e-09
-9.46055e-09
1.54592e-08
-4.73793e-08
-9.5061e-08
4.63531e-09
1.62919e-06
-4.99573e-08
-9.17355e-07
-3.11081e-06
-7.74586e-08
-9.00098e-09
0.00732322
-1.33636e-07
1.97531e-08
1.14293e-07
2.93714e-08
-0.000969368
1.2927e-08
-0.000432252
2.05212e-07
7.09628e-08
3.75872e-07
2.96226e-07
-6.01416e-08
0.000863025
-7.52554e-07
-5.86716e-08
-0.0017745
6.37911e-08
3.94658e-08
2.93749e-07
-1.50064e-07
-2.36978e-08
4.24752e-10
-1.02209e-08
-3.12522e-07
-6.05753e-07
-5.50778e-07
-0.00146868
-0.000205158
0.0048042
-1.12344e-10
-4.30502e-06
0.000965709
-0.000729753