/*--------------------------------*- C++ -*----------------------------------*\
| =========                 |                                                 |
| \\      /  F ield         | OpenFOAM: The Open Source CFD Toolbox           |
|  \\    /   O peration     | Version:  v2012                                 |
|   \\  /    A nd           | Website:  www.openfoam.com                      |
|    \\/     M anipulation  |                                                 |
\*---------------------------------------------------------------------------*/
FoamFile
{
    version     2.0;
    format      ascii;
    class       volVectorField;
    location    "100";
    object      ddtCorrDdt0(U);
}
// * * * * * * * * * * * * * * * * * * * * * * * * * * * * * * * * * * * * * //

dimensions      [0 1 -2 0 0 0 0];


internalField   nonuniform List<vector> 
13917
(
(-0.00086729 0.000176227 2.925e-21)
(-0.000324472 0.00011283 5.10072e-22)
(-0.0063474 0.0145309 1.12146e-20)
(0.000120585 0.000884768 2.19705e-22)
(-2.84598e-05 -0.000418631 -3.02389e-21)
(-4.54727e-05 -0.00179085 0)
(-0.00622514 0.0168571 0)
(-0.0019475 0.00999914 0)
(0.00933623 -0.0148554 1.7621e-21)
(-0.00118777 0.000714277 -3.03808e-21)
(-0.0033963 0.0120383 3.55892e-22)
(0.00134672 0.00284812 0)
(0.000154032 0.00090566 0)
(0.0269506 -0.000192864 4.66436e-21)
(-0.000525344 -0.000223021 -1.91964e-21)
(-0.00053882 -8.17681e-05 1.81598e-21)
(-0.000349115 3.85613e-05 2.2588e-21)
(-0.00103694 -0.000912358 0)
(0.00131612 0.00266268 -2.36683e-22)
(-4.94912e-05 -0.000158534 1.97622e-21)
(2.34274e-06 5.6382e-05 0)
(-0.00572363 0.016737 0)
(-7.42522e-05 -0.000216416 2.33162e-21)
(-0.0039061 0.0113054 4.24711e-21)
(-0.000107454 1.22844e-05 3.08215e-22)
(-0.0147375 0.017675 -2.7731e-21)
(-9.28826e-05 -0.000958436 0)
(-0.000346274 -0.00115083 -1.41042e-21)
(-0.000567814 -0.00243452 0)
(0.00113489 0.00121909 0)
(-0.000733053 0.000220798 -2.79501e-21)
(-0.000652404 4.10791e-05 -1.68247e-21)
(-0.000258281 -0.000783486 0)
(-1.11204e-05 -0.000601408 1.58921e-21)
(-7.83793e-05 -4.29738e-06 -3.23131e-22)
(-0.00123214 0.0248336 -2.79833e-21)
(-6.6209e-05 -0.000242911 1.57337e-22)
(0.0240678 0.000498137 0)
(8.0052e-05 0.00116712 7.5438e-22)
(-0.0377345 0.000658991 -3.83617e-23)
(-6.9092e-05 -6.31866e-06 0)
(7.2511e-09 3.45386e-05 -2.3625e-22)
(-3.18232e-05 4.11685e-05 3.26362e-22)
(-0.00043352 -0.00143126 0)
(-0.000257046 6.5279e-05 1.64731e-21)
(-7.53666e-05 -0.000601704 0)
(-0.00114013 -0.00082054 0)
(-0.0032379 -0.000656379 0)
(-9.03502e-05 -0.00190113 3.16941e-21)
(-5.71022e-05 -2.73637e-06 -1.41455e-21)
(-0.000682859 0.00036037 0)
(-6.91092e-05 -0.000656299 -6.49039e-22)
(-0.000130461 -0.00182787 -5.9076e-21)
(-1.60013e-05 -0.000601167 1.71658e-21)
(-0.000356475 2.02519e-05 0)
(-0.000605222 -3.75665e-05 1.40511e-21)
(-0.00388711 0.0114629 3.46229e-21)
(-0.000202729 -0.000420399 2.77212e-21)
(-0.000537261 -3.46413e-05 -9.73164e-22)
(-0.00024546 7.27837e-05 -3.26503e-23)
(-0.0108956 0.00222781 0)
(-0.000320688 0.000138636 1.34844e-23)
(0.0224627 -0.000702269 -5.03308e-21)
(-5.65745e-05 -0.000155385 0)
(-5.40702e-05 -0.00176012 0)
(0.00506485 -4.74986e-05 1.51776e-21)
(4.16036e-06 -0.000401188 -3.30799e-21)
(7.64211e-06 -2.02963e-05 -3.94144e-21)
(-0.0109574 -0.00144768 5.49163e-21)
(-0.000967973 4.39258e-05 1.20048e-21)
(-2.64398e-05 -0.000440109 2.7811e-21)
(0.0120496 -0.0153839 -8.73752e-22)
(-0.00790264 -0.00515768 3.49849e-21)
(-9.5004e-05 1.64925e-05 -9.20155e-22)
(-2.36816e-05 -0.0018443 -2.84455e-21)
(0.00258671 0.000123197 3.45682e-21)
(0.00939827 -0.00296866 -1.71287e-21)
(-0.000372937 1.99291e-05 0)
(-0.0219447 0.0138948 0)
(1.28329e-06 3.25963e-06 -2.10933e-21)
(6.04426e-07 -7.96119e-05 -2.05839e-21)
(2.46357e-06 -0.000438105 0)
(-7.58849e-05 -0.00169634 0)
(0.0230596 0.000398015 0)
(0.0059258 -0.000802119 3.30755e-21)
(-0.000357416 2.96421e-05 1.08445e-21)
(-9.82574e-06 -0.000173975 2.14432e-21)
(-0.000791707 0.000375177 0)
(-0.00066867 0.000359955 -2.57292e-21)
(-2.89286e-05 5.24184e-05 0)
(0.00488812 -0.00682178 0)
(-0.00060346 0.00139237 4.48896e-21)
(-0.000214603 0.000184584 0)
(-0.0003254 -0.000401223 -2.72235e-24)
(0.00641714 0.000301815 -9.00482e-21)
(-3.22658e-05 -0.00173621 -1.29958e-21)
(-0.00710776 0.00474281 2.49392e-21)
(-0.00238635 -0.000921905 2.47374e-21)
(0.00907304 0.00275526 3.60312e-21)
(-0.000180168 -0.00148809 3.27711e-21)
(-9.43234e-05 -1.90479e-05 -2.37462e-21)
(-2.25353e-05 -0.000688152 -2.38406e-21)
(-0.000384415 -0.00140047 1.75707e-21)
(-0.000390712 0.000143632 0)
(-0.000134152 0.000103806 -6.014e-22)
(0.0114409 -0.0149904 2.83727e-22)
(-0.000908091 -0.00233519 -4.79293e-21)
(-0.0033994 -0.000842117 -6.26341e-21)
(-0.00035429 7.10639e-05 0)
(-0.000878922 0.000302759 -2.00174e-22)
(-0.0118132 0.00410734 -1.09112e-21)
(-0.0368141 0.00125084 -9.69598e-23)
(0.00324606 0.00361274 0)
(0.0100041 -0.0148585 -4.82957e-21)
(-4.55425e-05 -0.000694864 9.79025e-22)
(0.000148359 -0.0019805 -1.47083e-21)
(-0.000104378 4.61095e-05 -3.90483e-21)
(-0.000118722 -0.00190654 -6.20695e-22)
(0.00244734 0.00404883 7.52133e-22)
(-7.26915e-05 -0.000594047 -4.34379e-21)
(1.3412e-06 4.79635e-05 -1.73021e-21)
(-0.0103667 -0.00181085 -9.01944e-21)
(0.0140857 0.0035929 0)
(-0.00032927 -0.00110104 1.07948e-21)
(-5.1233e-05 1.56906e-06 7.696e-22)
(-0.000307973 -0.000419031 0)
(-0.000258948 0.000144414 2.65494e-21)
(-5.49295e-05 3.60205e-06 -1.35665e-21)
(-3.11729e-05 3.65965e-06 2.16089e-22)
(-4.06437e-05 -0.00179813 0)
(0.00929481 0.00835529 1.96836e-21)
(-4.54852e-05 -0.000693338 7.90595e-22)
(-0.00026602 6.68586e-05 1.49522e-21)
(7.07218e-07 5.16898e-05 0)
(0.00601514 -0.0071156 8.91342e-22)
(-0.00514399 0.0126764 0)
(-0.000910795 0.000179807 -2.7327e-21)
(-0.000201884 -0.00153468 1.04324e-21)
(1.0726e-06 -0.000373043 3.71702e-21)
(-5.24256e-05 -0.000599841 2.38612e-21)
(-0.00194057 0.0215829 5.96345e-21)
(-0.000116577 9.60244e-05 0)
(-0.000135188 -0.0006696 0)
(-0.000324019 -0.00151304 0)
(1.30233e-05 -2.16944e-05 1.81169e-21)
(0.0187144 -0.0150714 4.33495e-23)
(-0.000757049 -0.00259911 3.59247e-21)
(-6.97682e-05 -0.000626392 0)
(-9.48498e-05 7.43882e-05 1.04066e-21)
(-0.000700595 4.32102e-05 2.96257e-21)
(-0.00241564 0.00183551 0)
(0.000103696 -0.00191069 4.94337e-21)
(-0.00188338 0.00565907 -3.13458e-21)
(-0.00118641 -0.000284275 2.67315e-23)
(-0.000568081 -3.45654e-05 0)
(0.00257695 -0.000893635 -5.51057e-21)
(-0.000913892 -4.39159e-06 0)
(-0.00362951 0.00973644 -1.19789e-20)
(0.00954168 -0.00231485 -3.3261e-21)
(0.00435465 -0.00577765 -8.38705e-23)
(-0.000232504 -0.000527374 -1.13649e-21)
(7.05767e-05 -0.000968351 -1.78143e-21)
(2.67405e-06 6.07398e-06 1.96227e-21)
(-0.00649242 0.00485037 2.23198e-21)
(0.0027629 0.00370624 -1.24488e-21)
(0.00845198 0.00306688 -3.78095e-21)
(-0.000402855 0.000120557 0)
(-0.0028704 0.000574688 -4.30344e-21)
(-0.000200407 0.000106745 0)
(8.92041e-06 -0.000731674 1.48037e-21)
(-0.00119869 -0.000173452 0)
(-0.00530704 0.00195041 -1.05859e-21)
(0.00435401 0.00291549 0)
(-0.00039209 3.68385e-05 1.74022e-21)
(0.0181387 -0.010637 -1.60661e-21)
(-0.00130051 -0.000454867 3.12983e-21)
(0.00855596 0.00922695 -1.70723e-21)
(-9.86692e-05 -0.00192556 -1.88986e-21)
(0.0194807 -0.0147982 0)
(-0.00023399 -0.000159001 0)
(-0.000410588 0.00149567 0)
(-0.000703805 0.000255651 0)
(-0.000112038 7.74465e-05 -6.56075e-22)
(-1.75319e-05 -0.00020114 -1.80112e-21)
(-0.000566951 -0.00042933 1.87242e-21)
(-0.0193432 0.0189055 6.64543e-25)
(-0.000694524 0.00527451 6.17678e-21)
(0.00299568 -0.000950617 3.88734e-21)
(-0.000670123 -0.000252888 1.33744e-21)
(0.00553149 0.00691009 -5.51038e-21)
(-0.0163228 0.0182259 5.17615e-21)
(0.00503885 -0.00101174 3.49216e-21)
(-0.00290126 0.00412291 4.06174e-21)
(-6.71606e-05 -0.000307008 -2.29257e-21)
(-8.97145e-05 -0.00153817 0)
(-9.68016e-05 -0.000924291 4.10353e-21)
(-5.69546e-05 2.23124e-06 0)
(-0.000220799 0.000189062 0)
(-0.00120042 -0.00211256 2.21383e-21)
(-0.00185588 0.000593885 0)
(-0.000458606 0.000944859 5.87157e-22)
(-6.16905e-05 -3.4188e-06 -1.86321e-21)
(-0.00252124 0.00102809 -7.02679e-21)
(-0.00227277 0.0019013 0)
(-0.00685963 -0.00415028 5.7312e-21)
(0.00196515 -0.0167424 2.10203e-21)
(-7.08724e-05 9.63191e-06 0)
(-0.000213372 -0.000438371 -3.12071e-21)
(-0.00248344 -0.000699205 -5.78626e-22)
(-0.015462 0.019149 1.92028e-21)
(-0.000132966 -0.000653387 1.15455e-21)
(-0.00443884 0.0160567 0)
(-0.00584656 -0.00240059 -2.01338e-21)
(0.00488545 0.00712254 3.60714e-21)
(-0.000136232 8.73873e-05 -3.06411e-22)
(-0.000321105 -0.00217421 8.12435e-21)
(-0.00225466 -0.000189049 -3.91232e-21)
(-0.0171366 0.00116682 1.92198e-21)
(-0.000122502 -9.57487e-05 0)
(-0.0122722 0.00246339 0)
(-0.000224659 -0.000169547 -9.93898e-22)
(0.0012567 0.00014195 -2.7839e-21)
(-6.8007e-05 -7.60099e-06 0)
(0.0223734 -0.00186898 0)
(0.0101065 -0.0148513 -2.15349e-21)
(-0.000569078 -8.57674e-05 -2.31679e-21)
(-0.00366069 -0.00304036 -5.66082e-21)
(-0.000578822 -5.30827e-05 0)
(-0.000131989 6.18751e-05 2.18608e-21)
(0.00180281 0.0239041 0)
(0.00418033 0.00238414 0)
(-0.000701272 -0.00023495 7.12669e-22)
(-0.00857973 0.0151739 3.16446e-21)
(-0.0061311 -0.00210892 -9.82965e-22)
(-7.75934e-05 2.58866e-05 -9.20586e-22)
(-0.000663612 3.85722e-05 0)
(0.00365619 -0.00792061 0)
(0.00518235 -0.00158742 0)
(3.98318e-06 -1.39483e-05 0)
(-7.23039e-05 -3.30766e-06 1.11362e-21)
(-0.039917 -0.000470359 -2.54898e-22)
(-0.00878212 0.0038619 1.49573e-21)
(1.74755e-06 4.68295e-06 0)
(0.0073188 0.0189126 7.85031e-21)
(-0.000313858 -0.00303457 0)
(7.79271e-05 -0.000909581 0)
(-0.000753689 0.000109884 4.92119e-21)
(6.588e-06 -9.21903e-06 -1.94529e-21)
(-0.00115501 -0.00062376 0)
(-0.000341695 -0.00217242 5.07425e-21)
(-6.32733e-05 0.000408032 -3.22053e-22)
(-0.00082409 0.00214685 -2.64799e-21)
(-0.000255525 -0.00160645 1.86605e-21)
(-0.000246437 0.000140401 1.97135e-21)
(-0.000187955 -0.000409004 -3.06863e-21)
(-0.00113462 0.00416381 -5.18922e-21)
(-0.0370818 0.000898051 0)
(-0.00170014 0.00534152 0)
(-0.000587895 -0.000445824 0)
(-0.000542976 -0.000202777 2.76645e-21)
(1.58031e-06 8.8085e-06 9.3358e-23)
(0.0135155 0.00257851 0)
(-0.00206766 -0.00297143 0)
(0.0207242 0.0139959 9.82743e-22)
(-0.000134764 3.85402e-05 -3.38802e-21)
(-0.0166984 -0.00250312 3.49179e-21)
(0.0252111 0.000390413 0)
(0.00114712 0.0095688 1.32252e-20)
(-0.0220107 0.0129996 -1.49157e-22)
(0.00316423 4.01128e-05 1.26161e-21)
(3.2504e-06 -5.8559e-05 1.97535e-21)
(-4.80442e-05 -6.74207e-07 -2.38553e-21)
(-0.00136823 -0.000758767 -3.9035e-21)
(0.0199317 -0.00314441 -6.51467e-21)
(-0.00502621 -0.0037559 -8.71338e-22)
(-0.000527818 -2.88989e-05 -3.81207e-21)
(0.00352997 -0.0173389 0)
(-3.88564e-05 0.00148504 0)
(-3.10076e-05 3.43586e-06 -3.07396e-22)
(-0.0210236 0.00717603 8.6912e-22)
(-5.88165e-05 -0.000112174 1.2315e-23)
(0.0178141 -0.00994091 -2.23424e-22)
(-0.000431812 0.000928845 -5.07762e-22)
(3.30923e-06 4.12009e-06 -2.45282e-22)
(-0.000660129 -9.88514e-05 0)
(-0.00119492 -0.000325471 1.40768e-23)
(1.26414e-05 -0.000964003 0)
(0.00754034 0.0200322 -5.81137e-21)
(-0.000869963 -0.00024986 -3.58055e-21)
(-0.000172883 0.000207624 -8.39479e-22)
(0.0118217 -0.00175335 0)
(-0.00789916 0.0144013 -3.5444e-21)
(-0.00185967 -0.00225462 0)
(-0.000120172 -6.09565e-05 -1.99697e-21)
(0.00724154 0.00270212 0)
(-4.31208e-06 -0.000352726 0)
(-0.00016913 0.000243945 -2.84167e-21)
(-0.000103908 4.13552e-05 4.4117e-21)
(-0.000727513 -0.00271346 -4.02156e-21)
(-3.98268e-05 -2.63921e-05 0)
(0.00146641 0.000208034 -2.97675e-21)
(-0.000755706 9.75428e-05 -4.18853e-21)
(-0.00018939 0.000101856 -1.884e-21)
(-0.00260422 0.00119467 8.84151e-21)
(-0.000439635 0.000147602 -3.30677e-21)
(-0.000129015 -0.00212725 -5.04205e-22)
(-0.00124555 -0.000411737 -1.92316e-21)
(-0.000575185 0.00123167 2.07669e-21)
(-0.000138841 2.86112e-05 2.41588e-21)
(-0.000180662 -0.000382288 4.46206e-21)
(-0.0101171 0.00407631 -6.16052e-22)
(0.0188418 0.00234978 5.63554e-21)
(-0.000103959 4.42824e-05 -9.03424e-22)
(-5.54677e-05 -5.71116e-06 6.93915e-22)
(-0.0214367 0.00752576 0)
(-0.000228542 -3.23093e-05 1.58931e-21)
(-0.00745116 -0.00597824 -6.56631e-21)
(-0.000135278 3.78645e-05 -8.76975e-22)
(0.0215086 -0.0025116 -1.70026e-21)
(9.44791e-05 0.000634592 1.36128e-21)
(-0.00441547 -0.000784607 -2.32205e-21)
(-0.00108879 0.000597342 6.81712e-21)
(-7.75233e-06 -0.001861 5.91604e-21)
(-0.000232106 -0.000527891 2.10524e-21)
(0.0200392 -0.00423986 -1.38376e-22)
(-0.000257164 -0.00184947 0)
(-0.000663207 -8.0115e-05 0)
(-0.00878667 0.00317087 6.61282e-21)
(-0.00154479 -0.00260862 0)
(-0.000306221 -0.000341244 0)
(0.018845 0.00491985 0)
(-6.29921e-05 -0.00151008 0)
(0.0256072 -0.000194274 7.33695e-22)
(-9.55228e-05 -0.000600821 -3.01836e-21)
(-0.0202004 0.00241012 0)
(-0.000664235 2.68018e-05 -3.4115e-21)
(0.00198169 0.00556385 2.61463e-21)
(-0.000268561 -0.00176091 0)
(-0.00137143 -0.00161749 3.59546e-21)
(-0.00144743 -0.0015581 -3.22631e-21)
(-0.00350478 0.0139929 -6.89737e-21)
(1.62977e-06 -7.55939e-05 1.35668e-21)
(-0.00125918 -0.000153627 2.91177e-21)
(-0.0106821 0.00494694 9.90832e-22)
(-0.000197796 -0.000543306 0)
(-0.000474994 -3.49596e-05 -3.28667e-21)
(0.0254038 -4.87341e-05 -8.57415e-21)
(-0.00112643 -0.00226401 0)
(-0.00038809 8.83737e-05 -5.38943e-22)
(-0.0142354 0.016654 0)
(-0.000553519 -0.00229518 0)
(-7.91879e-05 -5.18467e-05 0)
(0.00311831 0.00302119 -8.23722e-22)
(-0.00723405 0.0218413 -4.96661e-21)
(-6.31829e-05 -0.000105986 -2.04189e-21)
(-0.000114254 -0.000144168 0)
(-2.84605e-06 -0.000298388 8.32086e-23)
(-9.19989e-05 5.80555e-05 -1.13673e-21)
(0.0105292 -0.00275187 6.67094e-22)
(0.0195308 -0.0137046 -3.13989e-21)
(0.000177819 -0.00183929 0)
(-0.00927981 0.00491489 5.19258e-22)
(-0.000104853 3.43726e-05 1.51175e-23)
(-0.000813904 0.00238986 4.66675e-21)
(0.00281043 -0.000275054 1.69046e-24)
(-0.00161086 0.000833378 8.02978e-22)
(-0.00312451 0.0158619 0)
(0.0188456 -0.00389389 -5.56287e-21)
(0.00864918 -0.0148967 6.91301e-21)
(-8.3768e-05 5.66127e-05 8.25115e-22)
(0.0194435 0.013752 1.94668e-21)
(-0.000120586 -0.000133175 0)
(-0.014836 0.00298308 -2.53871e-21)
(-0.000245477 9.09046e-05 -1.75389e-21)
(-1.82224e-05 -0.00193632 -3.14893e-21)
(3.96963e-06 -0.00306431 -1.23626e-21)
(-0.00015415 0.00104445 -2.77568e-21)
(1.39029e-06 -0.000171021 -7.66278e-22)
(-0.00234743 -0.000535254 9.00354e-21)
(-0.000385591 0.00168873 0)
(-0.00146126 -0.00199035 0)
(-0.000199643 -0.00252103 -3.10349e-21)
(0.00207695 0.0050128 2.63936e-21)
(-0.0173638 0.000960279 -2.36993e-21)
(-0.00122692 -0.000657638 0)
(-0.00116053 0.000642497 7.54464e-21)
(-6.82074e-05 1.28067e-05 0)
(0.00505748 -0.00172914 0)
(-0.00762539 0.0170282 -4.67356e-21)
(-0.000242705 -0.000397398 -1.75255e-21)
(0.0131219 -0.00196819 6.04444e-22)
(-8.04243e-05 -2.88566e-05 0)
(0.00261475 -0.0106798 -3.18288e-21)
(6.66301e-05 0.00062654 -1.01479e-21)
(2.65754e-06 -2.35804e-05 0)
(-0.000441674 0.000148676 0)
(-0.026858 0.0024274 -4.08381e-22)
(-0.000448464 0.000149192 0)
(-0.0358216 0.00111926 -5.02809e-22)
(0.00204786 -0.0014423 7.83783e-22)
(0.000112981 0.010927 9.07679e-21)
(-0.000227982 -0.00186534 0)
(-0.000302029 -0.000321312 1.20571e-21)
(-0.000393721 -0.00188814 -6.68562e-21)
(-0.000244354 -0.00187567 3.4687e-21)
(-9.41308e-05 -1.65551e-05 1.20623e-21)
(-0.000973012 -0.0022557 4.46366e-21)
(-0.000191734 -0.000520902 3.199e-23)
(-9.23865e-05 1.87735e-05 3.38065e-22)
(0.000735842 0.00126365 0)
(2.83581e-06 1.09194e-05 0)
(-8.84364e-05 3.00261e-06 9.19602e-22)
(-0.000123059 -0.000122107 0)
(0.00741241 -0.0027671 -6.09889e-22)
(2.55859e-06 3.64542e-05 -1.45767e-22)
(-0.0186194 0.00342159 0)
(-0.0285529 0.0068051 0)
(0.00148487 -0.00057692 0)
(-0.00309387 0.00369251 -1.39179e-21)
(-0.0260406 0.00642396 -2.22692e-22)
(-0.0188663 0.000182267 0)
(-0.00154909 0.000962474 -1.44244e-21)
(-9.86127e-05 3.24095e-05 0)
(0.00314678 -0.00459167 6.20484e-22)
(5.00549e-05 0.00114564 -6.1587e-22)
(-0.00070026 4.44735e-05 -3.48372e-21)
(-7.13408e-05 -0.000276669 -2.59194e-21)
(0.0192548 -0.0142833 2.94483e-21)
(-0.0112401 0.0180765 -2.17574e-21)
(-0.0305375 0.00653203 1.02076e-23)
(-0.000521208 -0.000154068 3.08094e-24)
(-0.000747405 -0.00398671 1.46464e-21)
(-8.92366e-05 -0.000615065 4.6669e-21)
(5.18213e-05 0.00121962 1.55982e-21)
(-0.00164394 -0.0018514 0)
(-0.000431477 0.000106523 4.23517e-21)
(0.0223833 0.011364 0)
(-0.000348786 8.60098e-05 0)
(-4.01803e-05 -3.12562e-05 -1.67034e-21)
(-0.00827613 -0.00701753 0)
(0.0067691 0.00912247 0)
(0.00613525 0.010035 7.77855e-22)
(-0.00262068 0.00113933 3.5154e-21)
(0.00144788 -0.000462233 0)
(0.018173 0.00561149 0)
(-0.017335 0.00118654 0)
(0.018506 -0.00226844 0)
(-2.88206e-05 1.88933e-06 -4.83358e-22)
(-0.00184133 -0.000803632 7.10993e-23)
(-0.000427222 0.000126769 -4.2784e-21)
(-0.00021185 -0.000462677 0)
(0.0049954 -0.0147145 4.24826e-21)
(-0.00127904 -0.000856871 4.46943e-21)
(3.13308e-05 1.50195e-05 0)
(0.000103272 -0.000702594 0)
(-0.00152903 0.000647705 2.92702e-21)
(0.0209575 -0.00177348 7.31432e-21)
(-9.4237e-05 4.79086e-06 1.48596e-21)
(-0.00715712 -4.50427e-05 8.67532e-21)
(0.0019187 3.39641e-05 -1.6626e-21)
(-0.0048683 -0.0011026 -1.41289e-21)
(-0.0121544 0.00493204 1.8226e-21)
(2.07587e-06 4.41386e-05 -1.24883e-21)
(-0.00024959 -0.000401529 2.27807e-22)
(-8.16916e-05 2.37361e-06 2.4233e-22)
(-0.000940249 7.42209e-06 -1.6291e-22)
(-8.29301e-05 5.46755e-05 -2.05047e-21)
(-0.0256027 0.0190192 1.21185e-21)
(0.000185329 -0.00182226 -1.35295e-21)
(-0.000847198 -0.000220467 3.03223e-21)
(0.0037964 -0.00191829 0)
(-0.000615556 -1.2855e-05 -2.70758e-21)
(-0.00637954 0.00558892 0)
(-0.0163311 0.00153458 -3.98717e-22)
(-0.00087286 -0.00262219 2.67621e-21)
(0.000645198 0.0104752 -7.46342e-21)
(-0.00352815 0.0224482 -8.20867e-21)
(-0.00753118 0.00026063 -7.34142e-21)
(0.000139792 -0.000215036 -4.36211e-21)
(0.000764497 -0.00633461 0)
(-0.000644336 0.00213924 -3.05635e-21)
(0.0051432 0.0113329 4.57883e-21)
(-0.000110016 -0.00169495 0)
(3.95456e-05 0.00224373 3.83449e-21)
(-0.00435053 -0.000426729 -1.97179e-21)
(-3.73044e-05 1.28293e-05 -8.10277e-22)
(0.0100629 -0.0100877 0)
(-0.000725285 0.000287304 -2.6539e-21)
(-3.85303e-05 0.000227093 -3.66559e-23)
(-0.000909553 -2.70903e-05 0)
(-0.000382562 4.01203e-05 1.13679e-21)
(0.0200608 -0.00206463 0)
(0.0110901 -0.015402 0)
(-0.000221082 -6.33779e-05 -1.0787e-21)
(-2.94754e-05 4.31418e-06 -1.16266e-22)
(-0.0219028 0.020914 2.0142e-21)
(-0.0189846 0.000193293 0)
(2.9279e-06 8.58642e-06 -1.27933e-21)
(-0.013454 0.00347572 -1.63109e-21)
(-0.000215171 0.000564139 2.29672e-21)
(-0.0019185 0.00360463 -1.07783e-21)
(-0.000230203 -8.41218e-05 7.94384e-22)
(-0.0120466 -0.00321357 1.83298e-21)
(-0.0103352 -0.0118753 0)
(-0.000687764 4.57328e-05 -3.0536e-21)
(-0.000333251 0.000153154 2.72308e-21)
(-0.0246946 0.00751903 6.02785e-22)
(-0.000530279 0.00475886 -4.36683e-21)
(0.00438895 -0.000487577 0)
(1.732e-06 1.10347e-05 0)
(-0.003783 -0.00264263 4.4485e-21)
(-2.65616e-05 -0.00197677 2.53453e-21)
(-0.0217219 0.00807544 -2.33579e-22)
(-4.52624e-05 0.000209652 1.17563e-21)
(0.00622433 -0.000892487 8.90068e-22)
(-0.00455053 -0.000342832 0)
(-0.00162029 0.00114692 -5.98856e-21)
(-0.000119116 -0.000143837 -1.93474e-21)
(-0.000342981 -7.34843e-05 0)
(0.00225882 -0.000706259 4.5521e-21)
(0.00406788 -0.011551 -2.37524e-21)
(3.96716e-05 1.94603e-05 -5.41409e-23)
(-0.000105674 -0.000131234 -1.17703e-21)
(-4.87784e-05 1.06253e-05 -1.69019e-21)
(-4.74317e-05 6.3355e-06 0)
(-0.0161091 -0.00207396 -2.23996e-21)
(0.00606986 -0.0137402 3.20575e-21)
(-0.00160336 0.001104 5.98646e-21)
(0.000323609 0.00529834 6.17689e-23)
(-5.29372e-05 3.47109e-07 2.32477e-21)
(-9.42093e-05 -2.83978e-05 2.04286e-21)
(-0.00114155 -0.00380801 -7.66023e-22)
(-0.00787897 -0.00838115 -1.78953e-22)
(-0.000598368 -0.000157655 0)
(-0.000206216 9.05849e-05 0)
(-8.80569e-05 2.08522e-05 0)
(6.35764e-07 -0.000140347 -4.05241e-21)
(-0.0207722 0.00840436 -1.98477e-21)
(0.0041481 -0.000986489 -7.47367e-21)
(-1.02856e-05 -0.000158595 0)
(-2.36109e-05 -0.000133765 -2.52502e-21)
(0.0205675 0.0117677 9.59133e-22)
(-0.000709675 0.00207485 2.98113e-21)
(-0.00107679 0.000685851 1.25799e-21)
(-0.000228656 -0.00042247 -3.21816e-21)
(-0.000450469 0.000143464 -1.99634e-21)
(-0.000653234 4.95971e-05 -7.37916e-22)
(-0.00431256 -8.79778e-05 -1.11782e-22)
(-0.00155084 -0.00246854 0)
(-0.000312412 0.00557681 -4.68065e-21)
(0.00313497 -0.00520775 -2.98978e-21)
(-0.00342744 -0.00311688 0)
(0.00126824 -0.0175836 -3.5399e-22)
(-0.00041725 0.00113978 2.70399e-21)
(-0.000115757 -2.53219e-05 2.06713e-21)
(-0.00183821 -0.00289633 -4.39623e-21)
(3.17535e-06 -0.00016955 2.53013e-21)
(-0.000488596 -3.11957e-05 3.87224e-21)
(-0.000301976 0.000848986 -1.02619e-22)
(0.0101546 -0.0106165 5.20001e-22)
(-0.00160946 -0.0010904 0)
(-7.9974e-05 -8.26897e-06 0)
(-0.00489878 -0.00086127 0)
(0.001425 0.00133786 0)
(0.00183541 0.0011455 1.81807e-21)
(-0.0030914 -0.00324714 -3.73879e-21)
(-0.000570736 -0.000701643 1.79267e-23)
(-0.00159002 0.000580511 2.84397e-21)
(-6.5974e-06 -0.000217232 1.62852e-21)
(-0.00154531 -0.00218344 0)
(-0.00463942 -0.00063062 2.66656e-21)
(0.0100783 0.00826599 0)
(-0.000334073 6.24222e-05 0)
(-0.000653469 -9.31147e-05 -4.87481e-21)
(0.000655757 0.00550709 0)
(0.0174924 -0.00463027 1.19006e-20)
(-0.0109321 -0.000255358 4.43527e-21)
(-0.00251539 -0.00112374 -8.15338e-23)
(-0.00280618 0.00128179 4.93688e-22)
(-0.000531226 -0.000103125 -5.28103e-22)
(-0.000498888 3.4205e-05 -2.92831e-22)
(-0.00023812 -0.000425461 -1.86526e-21)
(-0.000919596 -0.00105043 0)
(-0.00031863 -0.00145156 0)
(1.7941e-05 -0.000493079 0)
(-0.00226289 2.39957e-06 0)
(-0.000204328 -0.00158297 -4.54994e-21)
(0.00954671 0.00788063 2.33872e-21)
(0.00455508 -0.000621493 0)
(-0.000522032 0.000104269 9.94339e-22)
(-0.00583447 0.0056996 3.02081e-22)
(-0.0173697 -0.0101623 0)
(-0.000722289 -0.000100547 -1.74344e-21)
(-0.000147993 -0.000639895 -2.35413e-21)
(-2.68451e-06 -0.00197046 0)
(0.0124716 -0.0141529 -1.9347e-21)
(0.0164378 -0.0128673 -3.54048e-21)
(0.00179235 0.00497813 4.73642e-21)
(-2.96781e-05 8.71358e-07 0)
(0.00489095 0.00355361 1.01889e-21)
(0.0022312 -7.24988e-05 -4.21813e-21)
(-7.82782e-05 -5.6521e-06 0)
(-0.000589029 -3.77008e-05 1.04884e-21)
(-0.00399358 0.00258978 0)
(-0.000264706 -0.000740024 1.89179e-21)
(0.00106667 0.000861313 -1.26166e-21)
(-0.0203524 0.0150209 0)
(0.00023044 -0.0061172 -1.19504e-21)
(-0.000593434 0.00184708 -3.29078e-21)
(-0.00103614 -0.00304175 0)
(-0.000422681 8.97347e-06 -8.48438e-22)
(0.0184409 -0.00183747 8.98652e-22)
(3.70143e-06 3.2901e-06 0)
(-2.11698e-05 -0.000184175 -8.60238e-23)
(0.00790436 0.00314304 5.71821e-21)
(0.0126953 -0.0142958 1.38201e-21)
(-0.000132204 -0.00186241 -3.36468e-21)
(-0.000421462 1.77931e-05 9.03844e-22)
(-0.000380052 4.31724e-05 -2.75976e-21)
(-2.62321e-05 -0.000157805 3.55031e-21)
(1.85697e-05 0.0015028 -1.75323e-21)
(-8.52398e-05 -0.00191455 3.13704e-21)
(0.00753576 0.00273193 3.60027e-21)
(-0.000509167 2.19118e-05 -3.11079e-22)
(0.000520059 0.00969989 3.9749e-21)
(-0.00240141 -0.000331815 -4.22914e-21)
(-0.000240666 -8.48734e-05 2.99813e-21)
(-0.00355527 -0.00316711 -2.9538e-21)
(0.00735596 0.00199219 -2.63072e-21)
(0.0282994 -6.02037e-05 -2.91195e-21)
(-0.000142621 -0.000176841 0)
(-0.000779315 -0.00623227 1.0202e-21)
(-0.000379438 2.25752e-05 1.65299e-22)
(0.00219763 -0.00156933 2.59553e-21)
(-0.00110945 0.000826601 2.97805e-21)
(-0.00165229 -0.00100987 0)
(-0.000606102 -9.70992e-05 4.52882e-21)
(-6.14876e-05 -2.95875e-05 1.56857e-21)
(-7.29663e-05 7.01391e-05 -3.79251e-22)
(-0.000266836 0.000134443 -1.81306e-21)
(-0.00164358 -0.00156341 -3.30227e-21)
(-9.29635e-05 -0.000596522 0)
(0.00625669 0.00158034 2.36424e-21)
(0.000376343 -0.00239131 1.02658e-24)
(-0.00271895 0.000408199 4.54924e-21)
(-7.46912e-05 -5.29156e-05 0)
(0.00140151 -0.00540594 0)
(-0.000110258 -0.00189379 0)
(-0.00738466 0.0251445 8.05175e-21)
(-7.08175e-05 0.000379111 0)
(-0.000159448 -0.000577523 8.74527e-22)
(-0.000100768 -0.000120311 -3.41789e-24)
(-0.000268473 0.00142139 0)
(-0.000547662 -5.34818e-05 0)
(-0.00497138 -0.00101951 -1.61671e-23)
(2.7321e-06 -1.79825e-05 0)
(-0.00372063 -0.00301485 5.53479e-21)
(-0.000356045 0.00134744 0)
(-0.00242146 0.0122917 -1.48527e-21)
(-0.000963605 0.00136049 1.25761e-21)
(-0.0107915 -0.00456702 -4.58813e-21)
(-0.00180238 -0.00092449 -2.90146e-21)
(-0.000334813 -9.53554e-05 -6.04941e-22)
(0.0174514 -0.00357825 6.84497e-21)
(-0.0166374 -0.000463026 -2.11634e-21)
(-0.000269126 -0.000272245 0)
(-0.000268469 0.000869723 -3.7254e-22)
(-0.00862907 -0.0151672 -1.21578e-20)
(0.00140504 0.00444975 0)
(-0.00516006 -0.00326661 1.96849e-21)
(4.7563e-06 3.9706e-06 -1.56893e-21)
(-0.000333247 0.000144222 0)
(-0.00414823 -0.000626992 0)
(-0.000124037 0.00108903 3.72135e-21)
(-0.00122121 -0.00188641 0)
(-0.0011184 0.00385608 0)
(-7.24315e-05 8.81916e-05 -5.39693e-22)
(-0.00210028 0.00224435 0)
(-0.00585295 0.0138286 -6.31985e-21)
(-3.49635e-05 0.000415809 -6.1697e-22)
(6.94524e-05 0.000790996 0)
(-5.44152e-05 1.6816e-05 1.53175e-21)
(0.0178485 0.00209535 2.67126e-21)
(2.41222e-06 5.70485e-05 2.74942e-22)
(-0.000504865 -0.000151978 7.29939e-24)
(-0.00449652 0.00222711 -1.14113e-21)
(-0.000428514 -0.000133213 2.00545e-21)
(0.014286 -0.0153689 -1.30995e-21)
(-0.000581978 -2.68522e-05 3.41389e-22)
(-0.000272503 -0.000790041 -3.30324e-21)
(-5.13177e-05 1.37381e-05 2.54851e-21)
(-0.00140975 -0.00049105 -3.85823e-21)
(-0.000102106 2.37965e-05 -2.39422e-21)
(6.36856e-05 -8.86082e-06 8.97794e-22)
(-5.59839e-05 -1.61738e-05 0)
(-0.00218055 -0.000495872 2.87542e-21)
(-0.000240151 0.000521832 0)
(0.0069991 0.00246197 3.00359e-21)
(-7.83461e-07 -0.00219824 2.88272e-21)
(-0.00823482 -0.00752345 2.1576e-22)
(-8.69813e-05 1.47723e-06 2.2246e-22)
(1.20028e-06 -0.000112177 -1.25959e-21)
(-0.000417057 0.000960542 -2.55306e-21)
(-0.000680091 0.000347423 6.4749e-24)
(0.0246347 0.00102514 8.95595e-21)
(0.000590615 -0.0129986 -1.8957e-21)
(-0.000902465 -0.000896562 -3.80312e-21)
(-7.99699e-05 4.47702e-06 0)
(0.0070156 -0.00342759 -6.02775e-22)
(-0.000102607 -0.00181746 6.95781e-21)
(0.0265989 0.00162874 2.17284e-21)
(0.00639799 0.00171329 -2.76479e-21)
(-0.00153257 -0.000529674 -3.93066e-21)
(-0.0253415 0.011318 -7.76121e-22)
(-0.000942267 0.000134959 1.50979e-21)
(-7.86261e-05 0.00152678 -2.74302e-21)
(0.00296086 -0.00293911 -1.71341e-21)
(-0.00114985 -0.00198224 2.14658e-21)
(-0.000852901 -0.000821435 2.70563e-21)
(-0.000160884 -0.00184218 -4.67009e-21)
(-0.000661127 -0.000758046 -1.60668e-21)
(-6.55381e-05 0.000891376 1.17619e-21)
(-0.00432701 0.00264416 3.54929e-21)
(-0.000686243 -7.15445e-05 -1.90689e-21)
(-6.50765e-05 0.000232855 -1.96627e-21)
(-0.000300254 0.00138264 -7.74463e-22)
(-0.000820939 0.000290554 -3.22577e-21)
(-0.000690032 4.56584e-05 -1.10866e-23)
(-9.94413e-05 4.42173e-06 0)
(-5.72504e-05 -2.18688e-06 0)
(-0.00260126 3.31804e-05 -4.32322e-21)
(-0.000363841 0.000404728 2.38999e-21)
(-0.00101714 -0.00202358 -3.23508e-22)
(-7.67676e-05 6.53759e-06 0)
(-7.02972e-05 -0.000109246 0)
(1.10029e-06 5.43884e-05 1.88072e-23)
(-0.000455581 0.000119712 -1.19853e-22)
(1.30517e-05 0.000153672 1.14694e-22)
(-0.000598719 6.64785e-05 -2.66983e-21)
(-5.78375e-05 1.70452e-05 -4.22961e-22)
(-0.0127738 -0.0027516 0)
(0.00149322 0.00221471 0)
(0.000207638 -0.00180594 -3.23501e-22)
(-9.38651e-05 2.24122e-05 -3.42872e-22)
(3.53715e-06 2.92994e-05 2.17938e-21)
(-0.000452047 -0.00103179 -2.17816e-21)
(0.000224933 -0.000276472 5.06921e-21)
(-2.62061e-05 -0.000701823 0)
(-0.0174072 0.00697337 -1.21317e-21)
(-0.00194577 0.000490017 -5.23849e-21)
(-0.017748 0.00333465 4.42895e-21)
(-0.000336076 0.00138074 1.00336e-21)
(-0.000312365 -0.00472712 -1.66053e-21)
(-0.000282292 0.000161419 -1.18679e-21)
(-4.88987e-06 4.85069e-05 2.02674e-21)
(-4.69398e-05 2.13488e-06 0)
(-0.000441811 0.000143993 5.17634e-21)
(0.00433868 0.00100643 4.3447e-21)
(3.42546e-06 3.33119e-05 -3.10296e-21)
(0.00515431 -0.0189726 -1.18101e-21)
(-0.000630508 5.76158e-05 0)
(0.00288135 -0.000358379 2.28938e-21)
(-0.00120206 -0.000788969 -3.84485e-21)
(-0.00194579 0.000603819 2.93298e-21)
(-0.00174967 0.0120265 -6.94635e-22)
(-5.455e-05 1.00298e-05 0)
(8.24983e-08 2.2676e-06 0)
(0.00158909 0.00240177 0)
(-2.45756e-05 -2.00755e-05 0)
(-0.000284565 -0.000451269 1.2449e-21)
(-0.0171483 0.00516704 0)
(-0.000402243 5.14011e-05 1.55172e-21)
(-1.25971e-06 -0.000309838 7.05537e-22)
(-0.000583628 -6.113e-05 3.75949e-21)
(-6.76623e-05 -6.02353e-06 -9.72237e-22)
(-2.5667e-05 5.50103e-06 3.71265e-22)
(-0.000658374 4.57511e-05 1.59863e-21)
(9.15161e-05 -0.000616727 0)
(0.0246607 0.000787992 5.46247e-21)
(-0.000788983 8.46668e-05 -2.77886e-22)
(-2.00409e-05 0.000435636 -6.66862e-22)
(-7.29067e-05 -8.79328e-06 0)
(0.0161544 -0.00556202 -5.62363e-21)
(-0.00156814 -0.00162144 0)
(-0.000301935 -0.000264145 -1.93885e-21)
(-0.000333661 8.6278e-05 1.1644e-21)
(-0.0183506 0.0059012 1.9567e-21)
(-0.0122026 -0.0136292 -5.15656e-21)
(-0.0131583 0.00144105 -1.7986e-21)
(-0.000585827 -0.000679923 0)
(-9.23817e-05 0.000881234 -5.79789e-22)
(-8.19495e-05 1.9555e-05 6.67449e-22)
(-2.76663e-05 3.41944e-06 -7.55382e-22)
(3.6473e-06 0.00235625 2.5053e-24)
(-0.000791563 0.000102779 1.48391e-22)
(-0.0140324 0.0122924 4.9009e-21)
(-0.000101019 -0.000602708 0)
(0.019975 0.00403364 6.03889e-21)
(-0.00034126 0.000190883 -3.88734e-21)
(-0.000339854 -0.000384245 2.07242e-21)
(-0.0110859 0.00112705 2.46204e-21)
(-7.92128e-05 -4.94885e-05 0)
(-0.000746974 0.000318719 3.06632e-21)
(-0.000242849 -0.000324158 2.2815e-21)
(-4.83969e-05 -2.83065e-05 1.96292e-21)
(-0.000895326 0.000256934 -3.86903e-22)
(1.88661e-05 -0.00095493 -1.90914e-21)
(-0.000335091 2.20512e-05 0)
(0.0144316 -0.0151719 0)
(-0.0343648 0.00222867 4.73036e-22)
(-0.00078563 0.00146284 -1.08045e-21)
(-0.000117882 -5.40938e-05 3.76796e-21)
(-2.23983e-05 0.000156634 2.02306e-23)
(0.00581168 0.0058585 7.189e-21)
(0.00373473 -0.0184922 1.74477e-21)
(2.96993e-06 1.3055e-05 1.68441e-21)
(-0.00264932 -0.0168131 -3.42968e-21)
(-2.57409e-05 0.000137369 0)
(-0.000785244 0.000240802 2.99447e-21)
(7.51056e-05 0.00033672 0)
(-9.60409e-05 0.000184289 2.10655e-21)
(0.00598784 -0.0120117 -1.48991e-21)