/*--------------------------------*- C++ -*----------------------------------*\
| =========                 |                                                 |
| \\      /  F ield         | OpenFOAM: The Open Source CFD Toolbox           |
|  \\    /   O peration     | Version:  v2012                                 |
|   \\  /    A nd           | Website:  www.openfoam.com                      |
|    \\/     M anipulation  |                                                 |
\*---------------------------------------------------------------------------*/
FoamFile
{
    version     2.0;
    format      ascii;
    class       surfaceScalarField;
    location    "100";
    object      ddtCorrDdt0(phi);
}
// * * * * * * * * * * * * * * * * * * * * * * * * * * * * * * * * * * * * * //

dimensions      [0 3 -2 0 0 0 0];
oriented        oriented;


internalField   nonuniform List<scalar> 
20673
(
0.000112831
-0.000144751
3.19225e-05
-0.000102688
0.000114187
-1.15013e-05
-0.00125979
0.000825903
0.000433894
-0.000207492
-4.62471e-05
0.000253742
-0.000200119
0.000219368
-1.92523e-05
-0.000114642
0.000121253
-6.61232e-06
-0.00129043
5.98704e-07
0.00128984
0.000627516
-0.0005421
-8.54155e-05
-0.000517936
-0.000416958
0.000934898
0.000158301
-0.000183096
2.47951e-05
0.00138077
-0.000224317
-0.00115645
0.000526455
-0.000377398
-0.000149059
-0.000184016
0.00119646
-0.000114936
-0.00108152
-0.000134989
6.4023e-05
7.09652e-05
-0.000131979
0.000136869
-4.88958e-06
2.2696e-05
-9.71754e-05
7.44797e-05
-0.000246241
0.000144589
0.000101657
0.000138641
0.000387813
6.25246e-05
-9.41232e-05
3.1599e-05
-2.67874e-05
1.89607e-06
2.48926e-05
-0.000321808
-0.000968623
3.74184e-05
6.36269e-05
-0.000101044
6.41797e-05
0.00056334
3.60207e-05
-1.13094e-06
-3.489e-05
0.00136328
-0.00159493
0.000231655
-3.84762e-05
-7.86718e-05
0.000117148
6.63129e-05
-0.000118396
5.2086e-05
0.000125458
-0.000194791
6.93333e-05
-9.89391e-05
0.000183543
-8.46003e-05
-0.000124437
9.30559e-05
3.13837e-05
-0.000131724
0.00011959
1.21347e-05
-5.79139e-05
-6.23453e-05
0.000120259
-3.0436e-05
0.000115075
-8.46397e-05
2.93824e-05
-2.48494e-05
-4.53467e-06
0.00118626
0.00062884
-0.0018151
0.000123632
-8.62122e-05
-0.000389519
-0.000854739
0.00124426
0.000218596
-0.000300644
0.00204326
-9.78122e-05
-0.00194544
4.20465e-05
-3.98092e-05
-2.23696e-06
-7.22014e-07
-1.24132e-05
1.31353e-05
-3.18538e-05
1.46165e-05
1.72374e-05
0.0001664
-0.00011433
-5.20713e-05
5.88846e-05
1.66668e-05
-7.55521e-05
-0.000124135
0.000103185
2.09484e-05
-0.000134976
-0.000111261
0.000165892
0.000234116
-0.000400007
9.91829e-05
-9.56028e-05
-3.58105e-06
4.1709e-05
-2.56232e-05
-1.60851e-05
5.87124e-05
7.093e-05
-0.000129642
-0.000104936
0.000183459
-7.85258e-05
0.00011428
-1.50979e-05
-0.000109913
7.94774e-05
-7.11488e-05
9.3845e-05
-0.000120937
0.000123661
-2.7223e-06
0.000182262
0.00119851
7.74246e-05
9.99624e-05
-0.000177388
-4.51077e-05
-7.82642e-05
0.000123372
7.45054e-05
-1.56213e-05
0.000570446
0.000196143
-0.000766595
-3.16327e-06
-9.95236e-05
0.00119646
9.98592e-05
-3.73349e-05
-0.000132189
1.75479e-05
-0.00020976
0.000183123
2.66242e-05
1.00324e-05
-0.000176489
-4.36133e-06
-1.32578e-06
0.000836706
-0.00100429
0.00016759
0.000159119
-0.00016226
3.14589e-06
8.48327e-06
-0.000208604
-0.00115773
0.000639792
0.000218919
-0.00054517
0.000326252
-6.21389e-06
4.22351e-05
9.65274e-05
-1.41852e-06
-9.51086e-05
-7.87562e-05
0.000331978
-0.000253215
-0.000272954
-0.00028269
0.000555649
-1.4553e-05
-7.7431e-05
9.19862e-05
-0.00207382
0.00103462
0.00103921
-1.69325e-06
4.17413e-06
-2.4806e-06
4.01217e-05
-1.06172e-05
-2.95025e-05
-0.000182148
0.000110602
-0.000119439
8.83631e-06
0.00103676
-0.00142627
-0.000183929
-0.000179806
0.000363732
7.77531e-05
-9.23067e-05
9.1106e-05
-9.22361e-05
1.12922e-06
-0.000180382
-2.93874e-05
-9.34644e-05
0.000152176
-1.47785e-05
-1.70755e-05
-0.000521101
0.000129599
0.000391506
-0.000122255
0.000203868
-8.16148e-05
-6.60668e-05
-4.97049e-05
0.000115772
4.25982e-05
8.1276e-05
-0.000123875
2.03593e-05
-0.00020075
-0.000100536
-2.4415e-05
0.000124951
-7.62431e-05
0.000749017
-0.000672773
-0.000333224
0.000145304
0.00018792
-0.000147594
-0.000689327
0.000836938
7.04066e-05
8.94464e-05
-0.000159855
3.43362e-05
-5.35462e-05
1.92097e-05
6.68209e-05
-0.000122333
5.55118e-05
9.25575e-05
7.38427e-05
0.000119802
-6.74076e-05
-5.23932e-05
3.99248e-05
3.10294e-05
-7.09539e-05
0.001218
-7.0756e-05
-0.00114724
-0.000152218
0.000209542
-5.7319e-05
-0.00020502
0.000370914
-5.24267e-06
-9.19334e-05
-9.3612e-05
0.000144093
-5.04824e-05
0.000537175
0.000171066
-0.000708241
0.000364172
0.00167909
0.000105265
0.00037992
-0.000485176
0.000402728
0.000815277
4.47154e-05
-0.000145899
0.00010118
0.000120348
-8.16459e-05
-3.87003e-05
5.34941e-05
-4.78328e-05
-5.66125e-06
3.03647e-06
0.000104227
-0.000107264
-0.000279831
4.40074e-05
0.000235827
0.000119632
-3.89007e-05
-8.07329e-05
2.41732e-05
-2.48943e-05
0.000955381
-0.000118675
-5.7516e-05
0.000697635
-0.000640117
0.000143684
-7.73684e-05
3.37619e-05
-8.52289e-06
-2.52387e-05
0.000141038
-9.8439e-05
1.98281e-05
-9.04536e-05
7.06258e-05
2.86158e-05
5.14569e-06
1.39526e-05
-1.8649e-05
4.69505e-06
2.07177e-05
0.000838982
-0.000631049
-0.000207931
0.000171861
-0.000127147
-5.83416e-05
7.50081e-05
-2.58381e-05
-9.49584e-07
-0.000598783
-3.53447e-05
0.000634127
0.000772776
-0.000708592
-3.14995e-05
0.000144329
-5.47596e-05
0.000125166
-0.000178541
2.05279e-06
8.71276e-05
3.25044e-05
-0.00122214
-0.000530089
0.00175224
-4.11559e-05
-1.71148e-05
5.82696e-05
-0.00015183
-4.30387e-05
0.000194867
3.56829e-05
0.000104069
-0.000139751
-8.08584e-06
3.72465e-06
0.000481153
0.0011762
-0.00165735
9.22095e-05
-0.000206771
0.000114563
-0.000193865
8.89291e-05
-4.00443e-05
-1.43857e-05
5.44307e-05
-0.000136154
0.000150162
-1.40103e-05
-9.73151e-05
-0.000254876
0.000352195
5.75065e-05
6.28419e-05
0.000785432
-0.000106015
-0.000679419
0.000110938
3.69257e-05
-0.000147868
-0.000115263
0.000114332
9.3265e-07
3.81487e-05
-0.000142879
0.000104729
0.000146757
1.23642e-05
-0.000882432
0.000663213
0.000219225
0.000165846
-0.000438801
-0.000957563
0.000358776
-5.90401e-05
-6.72296e-05
0.000126267
8.22102e-05
-0.000135606
5.33951e-05
3.17119e-06
-8.38515e-07
-2.33277e-06
-0.000718725
0.000642483
-0.000433135
0.000538399
0.000558396
-0.000705985
6.46294e-05
5.51747e-05
0.000422526
-0.000351167
-7.13581e-05
1.64007e-05
-7.77371e-05
6.1337e-05
0.000111335
-4.45152e-05
-0.000180789
0.000163873
1.69185e-05
0.000315284
-0.000213619
-0.000101663
0.00064258
-0.000343107
-0.00029947
2.15403e-05
-0.000104424
8.28853e-05
0.00164721
-0.000661318
-0.000985885
2.72263e-05
0.000117514
-0.000144744
0.000382793
0.000456191
0.000102354
-9.93179e-05
0.00183138
-0.00135023
4.20001e-06
-8.98366e-05
8.56371e-05
-0.000211042
8.87896e-05
-5.10795e-05
-7.33541e-05
-5.3748e-05
1.25915e-05
0.000113767
-2.26619e-05
-0.000120594
0.000111935
8.65862e-06
-0.000429923
0.00179321
0.000485055
-0.000264472
-0.000220571
0.000161561
-0.000123417
-0.000115172
7.86531e-05
3.6521e-05
2.95473e-05
0.000535715
-0.000565245
0.00181915
-0.00208591
0.000266775
0.000135432
-0.000319366
0.000324083
9.38108e-05
-0.000417885
-9.37211e-06
-0.000137201
0.000146574
0.000139538
-0.00013354
-5.99823e-06
6.91923e-05
-0.00010767
-4.49109e-05
4.49113e-05
3.00633e-05
-9.61307e-05
0.000119264
9.16524e-05
-0.000210915
0.000209374
-0.000406585
0.000197197
0.000215734
-0.000232444
1.67156e-05
2.17596e-05
1.99493e-05
-0.000499938
0.000164704
0.000335236
-0.000354213
0.0002569
-0.000211821
0.000430741
0.000722163
0.000550916
-0.00127308
2.35271e-05
5.85498e-06
0.000160107
-8.26832e-05
-0.000110327
-0.000222899
-0.00176754
3.01818e-05
0.00173737
5.45842e-05
-0.000206415
-0.000921077
-0.000300124
0.00122121
0.00033562
-0.000146075
-0.000189544
0.000785003
-0.000755449
6.73558e-05
-2.74314e-05
0.000131485
-0.000182172
5.0687e-05
-0.000306453
5.04708e-05
0.000255979
0.000563372
0.000392031
-0.000955402
6.03428e-05
-6.6226e-05
5.8858e-06
-0.000468413
0.00103886
0.000100029
-9.58279e-05
-1.15765e-05
0.000116915
-0.000105338
1.41743e-05
2.78717e-05
-0.000873051
-0.000300457
0.00117349
0.00096893
5.07319e-05
-0.00101966
-2.80683e-05
-0.000103911
0.000394982
4.52009e-05
-0.000440187
-1.77293e-05
-9.75309e-05
4.48094e-05
2.25464e-05
0.00163606
-0.000449799
0.000397043
0.000245538
-2.296e-05
-9.22095e-05
0.000911778
-0.00117545
0.000263686
0.000316288
1.93338e-05
4.28022e-05
-4.70142e-05
4.21116e-06
-0.000113429
-1.8294e-05
-0.000343616
-0.000177482
9.09876e-05
0.000135848
-0.000226837
1.39915e-06
1.7715e-06
3.45433e-05
-3.47121e-05
1.69622e-07
0.0021404
-0.000233865
0.00100613
-0.000485517
-0.000520612
3.23736e-06
-7.48898e-07
-2.48795e-06
-0.00200159
0.000246309
0.00175528
0.000206801
0.000123684
-0.000330484
-2.53657e-05
0.000107576
0.000138808
-2.3933e-05
-0.00011487
-1.29456e-06
4.57117e-07
-0.000140153
-6.06291e-05
0.000200783
-3.69295e-05
-3.44163e-05
7.13489e-05
0.000124264
-4.61598e-07
-0.000123804
-0.000332244
0.00016102
0.000171228
0.00015645
-0.000131024
-2.54266e-05
9.50666e-05
-7.52401e-05
-5.43242e-05
0.000154287
0.000613186
-0.000248345
-0.000364841
-0.000112947
-0.00145337
0.00156632
0.000158407
0.000627022
-0.000121995
1.40171e-06
-3.45077e-05
-0.000100481
-5.15032e-06
5.94244e-06
-7.91552e-07
-0.000574944
0.000517428
0.000203684
-0.000307613
0.000103926
0.00255463
-0.00187452
-0.000680093
5.32772e-05
-8.46923e-06
-0.0001373
-0.000751291
0.000888596
-0.00115191
0.00114527
6.64391e-06
-0.000738848
-0.000143582
-0.00142643
-0.00064739
-0.000404946
0.000326176
3.8827e-05
-2.50678e-05
3.24692e-05
-7.40188e-06
0.000238521
-0.000100616
-0.000137901
-0.00025089
0.00102679
-0.00077589
-0.0008225
0.000473335
0.000349166
8.15887e-05
-0.000126696
-0.000694437
0.0014166
-0.00013892
0.000245833
5.46124e-06
1.25153e-05
-1.79773e-05
0.00193948
-0.00135268
-0.000586815
3.97672e-05
-7.1708e-05
3.19411e-05
0.000976478
0.000670734
0.000200756
1.49813e-05
1.62645e-06
1.61134e-06
-6.04242e-05
-7.22492e-05
0.000132675
-4.55472e-05
0.000156485
-7.19983e-05
-6.3608e-05
-0.00139354
-0.000608038
-1.94195e-05
-0.000109081
0.0001285
-5.19486e-05
-4.30237e-05
9.49721e-05
0.000606537
-0.000922355
0.000315814
0.00117284
-0.000261061
1.82193e-05
0.000185463
4.45635e-05
1.57799e-05
0.0004482
0.000102988
-0.000551186
0.000160233
-0.000184587
2.43574e-05
4.92458e-05
-0.000101194
4.31897e-05
1.03045e-05
-8.73028e-05
0.000179511
2.43142e-05
-3.0768e-05
6.45378e-06
-0.000149465
0.000137889
0.000117672
2.11387e-05
7.84633e-05
-6.20628e-05
-0.000153555
-0.000346379
7.5327e-05
3.70958e-05
-0.000112422
2.37704e-06
5.97029e-05
-6.20812e-05
-0.000119265
0.00014649
4.30688e-05
0.000160802
5.10887e-05
1.67053e-06
-5.27595e-05
-0.000148833
9.45086e-05
0.000384926
-0.000652231
0.000267307
0.00100017
-0.000935315
-6.48551e-05
-4.33699e-05
-4.46222e-06
2.00782e-05
-3.52141e-05
1.5136e-05
0.00111926
0.00082021
5.16307e-05
2.90778e-05
-8.07089e-05
-0.000310569
-0.000234599
2.98308e-06
4.81061e-05
-0.00106222
0.000189164
6.32416e-05
0.000112965
-0.000176215
-0.000402767
7.9802e-05
0.000322974
-0.000198809
0.000223261
-2.44495e-05
-8.71594e-05
9.78103e-05
-1.06505e-05
-0.000141823
8.2783e-05
-0.000381777
-0.000575793
3.93442e-05
8.02607e-05
-0.000119606
-0.000122785
6.23602e-05
0.000703709
0.000302422
-0.000113042
-0.000109636
0.000222681
-0.000116641
0.000133744
-1.71022e-05
9.67129e-05
-0.00100066
0.00090395
4.74586e-05
9.20792e-05
1.43384e-05
-0.00116625
7.36128e-05
5.00081e-05
-0.00012362
0.00112246
-8.15894e-05
-0.00104087
0.000111037
2.03671e-05
-0.0001314
-0.000318047
-3.76524e-05
0.000355697
0.000149997
-0.000110653
-0.000241592
0.000190009
5.15818e-05
-0.000181125
-6.04683e-05
-0.000504649
-0.000755139
3.84805e-07
3.89267e-05
-3.93117e-05
-0.000165214
-1.55735e-05
-0.000200097
0.000737273
-0.00013
-2.54341e-05
0.000155433
-0.000107738
2.49315e-06
0.000105244
-0.00130513
0.0011902
0.000218323
-9.90553e-05
0.000106865
-1.49927e-05
-9.18755e-05
0.00171928
9.98627e-05
0.000152046
-2.6587e-05
4.30251e-05
3.55801e-07
-4.33802e-05
-0.000189995
-8.98312e-05
0.0010646
-0.00200889
0.000944301
7.49124e-05
-3.51454e-05
-7.97619e-05
-3.7181e-06
8.348e-05
0.000167546
-7.31224e-06
-3.63996e-05
-3.64371e-06
-0.000340835
0.000947361
-0.000423685
0.00170616
-0.00128248
-0.000118802
0.000147323
-2.85165e-05
0.000582305
-0.000197378
4.94717e-05
-1.45115e-05
-3.49612e-05
-0.00020976
-0.000122481
0.000140587
-0.000148577
7.98455e-06
-3.33802e-05
0.000226721
-0.000193334
-0.000920477
-0.00106982
0.000818929
0.000898174
1.36942e-05
2.93464e-05
-4.30407e-05
0.00182402
0.000730611
-9.12679e-05
6.84626e-05
2.28062e-05
0.000635659
-0.00110407
7.60958e-06
6.68949e-05
-9.6523e-05
9.36364e-06
0.000374451
-0.00016765
-0.000279836
0.000249245
3.0591e-05
6.00079e-05
1.35943e-05
-7.36e-05
-0.000328527
0.000218199
-0.000114386
-9.66551e-05
-0.000339823
0.000111615
0.000228212
-4.2918e-05
7.84772e-05
-3.556e-05
-4.68075e-05
-0.000271241
0.000810056
-0.000246685
5.36036e-05
-0.000193755
3.28682e-05
0.000125434
3.93368e-06
3.06094e-05
0.00027813
-0.000187143
-0.000461817
0.00129909
-0.000837266
0.000174194
-0.000132463
-4.17331e-05
0.000837472
-0.00121926
4.24196e-05
-4.27332e-05
3.13525e-07
0.00115544
-0.000567574
-0.000587868
0.000161926
-9.86863e-05
-6.23605e-06
6.62217e-06
0.000114133
-1.4179e-05
-9.99528e-05
0.00122945
0.000357279
-0.00158672
-3.91263e-06
0.000118045
0.00177098
-0.00188392
-0.000166938
6.95422e-05
9.73857e-05
0.000766238
-3.55253e-05
-0.000730703
-0.000160893
0.000130028
3.08688e-05
-2.53529e-07
-0.000116387
-1.10351e-06
0.000132588
-8.0632e-05
-5.62412e-05
1.20745e-05
4.41668e-05
6.61066e-05
5.20766e-05
-0.000182078
-1.27932e-05
3.01803e-05
-1.73879e-05
-0.000154273
5.53349e-05
-7.39785e-06
2.24737e-06
4.31415e-05
-5.18025e-05
8.65857e-06
-4.74913e-05
-4.37762e-05
0.000319141
-0.000659977
-1.95985e-05
1.79068e-05
0.00081848
0.000303988
0.000431214
-0.00181083
0.00137962
-2.01061e-05
-6.07064e-05
8.08069e-05
-4.95966e-05
0.000373684
0.00073745
0.000781669
-0.00151911
0.000685904
0.000243151
-0.000929053
-0.000236663
0.000203285
4.40071e-05
5.46617e-06
0.000670809
-0.000435471
-0.000235337
9.96718e-06
0.000208631
-0.000124802
0.000136243
-1.14352e-05
0.000102463
-0.000111834
0.0014077
-0.00111111
-0.000656433
0.00232351
-0.00189229
8.72918e-05
-0.000121729
3.44387e-05
-0.000384484
0.00042697
-4.24847e-05
-7.25403e-05
0.000146151
-0.000103452
-0.000197194
-0.000246022
-9.37992e-05
-4.805e-05
0.000100476
-5.24286e-05
-0.000601901
0.00176861
-0.0011667
8.09868e-05
-8.62301e-05
2.76903e-05
-3.37619e-06
-0.000666099
0.000355532
0.000785636
-0.000402841
0.00024678
0.000538858
-0.000264949
-4.6457e-05
0.000311409
-5.67488e-05
3.66421e-05
0.00107998
-0.00098326
0.000294894
-0.00100693
0.000712034
-0.000826032
-0.000194109
0.00102015
-2.33245e-06
-1.10416e-05
1.33732e-05
0.000271217
-0.000101786
-0.000169429
-9.82114e-05
5.01603e-05
-0.00011051
-5.71598e-05
0.00016767
-0.000712181
0.00127926
-0.000567075
0.000103545
8.67023e-06
-1.68935e-05
8.22281e-06
-0.000100485
4.22057e-05
5.82834e-05
-0.00010112
0.000247372
-0.000146245
-0.0012114
0.000726056
0.000485354
-2.7366e-05
-2.88745e-05
-0.000770829
4.22968e-05
0.000728537
-3.67455e-05
-5.73338e-05
9.40766e-05
-0.00038818
5.7069e-05
0.000331115
-0.000248958
0.000638814
-0.000389855
-1.77019e-05
0.000141802
3.23919e-05
-3.40539e-05
-1.08565e-05
0.000142227
4.52821e-06
-3.38378e-05
4.75321e-05
0.000412024
0.00166688
-0.00207889
-1.65087e-08
-0.000118784
0.000118228
-0.000137649
-0.00020651
0.000279828
-7.33192e-05
-9.54254e-06
-0.000111393
-9.58269e-05
-0.000622898
0.000960556
-0.00066566
-7.03942e-05
-0.000136375
0.00116437
-0.000398128
-0.00187233
0.000650191
-0.000675573
-9.52528e-05
4.94639e-05
-1.57788e-05
-3.36832e-05
-0.000578907
0.000633203
-5.42957e-05
0.000302905
4.04496e-06
-0.000306952
0.0012903
-0.000248336
-0.00104196
-2.15875e-05
-0.00018267
0.000313663
-0.000130995
-0.000426598
5.00066e-05
0.000376595
1.4706e-05
-2.00014e-05
5.29451e-06
0.000548012
0.000515017
-0.00106303
-0.000193812
8.01786e-05
0.000113633
-2.56725e-05
-6.76136e-05
9.32863e-05
0.000133596
8.63473e-06
9.58051e-05
-5.19181e-05
-4.38863e-05
-0.000301193
-0.000910203
-0.000493725
0.000896453
-3.81987e-05
8.98302e-05
1.52618e-05
-9.80106e-06
0.000130486
0.00177845
-0.00190893
0.000886857
-0.000200952
1.79772e-06
4.14513e-06
0.000496467
-0.000745424
0.00010351
4.08572e-05
-0.000144367
-0.000245065
-0.000107361
0.000352433
3.46907e-05
-8.45379e-05
4.98476e-05
0.000685325
-0.00056263
-0.000122692
-0.00176192
0.00103646
0.000725473
-7.07206e-06
-0.000129083
-0.000106566
0.00010264
3.92863e-06
-0.000966128
0.00170358
0.000189628
0.000295433
0.000217093
-0.00022763
1.0533e-05
-6.34357e-06
-1.05398e-06
-0.000171342
-8.35355e-05
0.000254878
0.000104731
-0.00210199
0.000934889
0.0011671
4.78614e-05
-7.35335e-05
0.00017913
-0.000358938
-0.000313791
5.06049e-05
0.000263184
0.000366299
-0.000254708
-0.000111585
-7.4753e-05
-5.00796e-06
5.85105e-05
-9.39896e-05
3.54798e-05
-0.000318004
0.000666266
0.000489177
-1.49835e-05
2.3653e-05
7.42333e-05
-7.79508e-05
-3.31339e-05
1.75383e-05
1.55956e-05
-1.73469e-05
-1.57873e-05
0.000511372
-0.000648669
-0.00117887
0.000466686
0.000129636
-0.000203438
-0.000286383
0.00048984
-3.06102e-05
5.54291e-06
-7.15673e-06
4.14927e-05
-0.000405579
2.10956e-05
0.000619407
-0.000787809
0.0001684
-6.70432e-05
9.73133e-05
-3.02678e-05
-1.01038e-05
-6.7634e-05
-4.20106e-05
2.92178e-05
5.47042e-05
-5.60433e-05
1.33944e-06
-0.000982736
-0.00014099
0.000276422
7.45084e-05
-8.67303e-05
1.22219e-05
-4.47375e-05
5.48123e-05
-1.00741e-05
0.00122213
0.000344432
-4.15276e-05
-8.31216e-06
-0.000190495
0.000164693
-2.2893e-05
2.83855e-05
-0.000104552
7.61659e-05
-9.69859e-05
0.000140373
-4.33842e-05
4.43967e-07
-0.000427039
-0.000223196
0.000110156
-0.000467905
8.83527e-05
0.000582458
0.000391584
0.000100739
-0.000492321
0.00139411
-0.000843193
0.000142802
-9.97342e-05
-5.64781e-05
3.00318e-05
2.64479e-05
0.000168708
-0.000205637
8.38806e-07
-0.000121718
1.39813e-05
8.67284e-05
-0.000194403
0.000107676
0.00102513
-0.000477114
-0.000202401
3.01571e-05
0.000172243
-3.26788e-06
-2.95235e-05
3.27913e-05
4.27622e-05
-0.000430938
0.000221435
-0.000147532
-7.39003e-05
-9.14203e-05
-2.96781e-05
0.000121094
-3.81115e-05
0.000429696
-0.000110286
-1.81833e-05
0.00012847
-0.000278599
0.000177482
-5.99139e-05
0.000119922
-0.000138714
0.000156931
-0.000360001
-0.000303794
0.000685223
-0.000381429
-2.84668e-05
0.000109453
0.000105465
-0.000111655
6.19127e-06
0.000203701
-0.000490064
-0.000468731
-0.000601087
0.000732362
-0.00073236
-0.000202185
0.000347491
2.21866e-06
-0.000267166
3.58245e-05
0.000101046
-0.000101827
0.000102253
-4.24845e-07
0.000156069
8.62237e-06
0.00017067
-7.99256e-05
-9.07453e-05
0.000128239
-0.000145547
-0.000309747
3.29224e-06
0.000101691
-0.000749887
0.000446093
3.56429e-05
0.000181452
-4.80632e-05
0.000129509
-8.14458e-05
0.000610188
-0.000706013
-0.001248
-0.000513914
-6.3541e-05
-6.35333e-05
0.000127075
0.000115906
-0.000217161
0.000101254
0.000120882
-4.96819e-05
-7.11995e-05
0.00157307
-0.000186876
-0.0013862
-0.00152452
0.000507517
0.001017
0.00041181
-0.000537504
0.000125711
1.54905e-05
-1.53877e-06
-0.000346406
0.00015641
1.39762e-05
3.40163e-05
-3.72842e-05
-0.000101702
0.000101398
3.02803e-07
-0.000325815
0.000553672
-0.000227859
6.92022e-05
-0.000127115
8.49542e-05
9.859e-05
-0.00193955
0.00136865
0.000570903
5.3529e-05
-0.000632437
-0.000337143
8.13208e-05
0.000255824
-0.00023962
0.000100905
-0.000105044
8.22229e-05
2.28243e-05
-0.000952258
0.000126227
4.13374e-06
-2.73504e-06
9.79849e-05
-2.34773e-05
0.000531514
-8.33135e-05
0.000491325
0.00108174
-0.000129744
0.000135749
-6.00287e-06
-3.15054e-05
-7.35365e-05
-8.44126e-05
0.000105953
9.52463e-06
-5.42621e-05
-0.000222079
8.31591e-05
9.24512e-07
0.00092571
-0.000367295
-0.000102631
8.05705e-07
0.000634547
0.000529834
-0.000278058
8.75618e-05
-5.2871e-05
8.19923e-05
0.00031299
0.000679436
0.000246272
-0.0018395
0.00179735
4.2162e-05
8.7613e-05
-8.65643e-05
-1.04913e-06
0.000532225
-0.000517932
-1.42929e-05
1.8375e-05
-0.000180731
1.37902e-05
-0.000161572
-2.1521e-05
-0.000189942
-1.24566e-05
0.000113276
-7.8102e-06
3.12175e-05
-3.47735e-05
3.55606e-06
-4.86921e-05
2.62543e-05
2.24374e-05
-1.88706e-05
-7.15837e-05
0.000256989
-7.36721e-05
-0.000183318
-3.599e-05
-8.81442e-05
-0.000142574
0.000527459
-0.000384893
6.96238e-05
-0.000112543
0.000327583
9.49405e-05
-7.91542e-06
5.09403e-05
-0.000561655
8.02965e-05
0.000481357
-2.05028e-05
-0.00010924
0.00136721
0.000751368
-0.00211857
0.000127003
-2.73979e-06
-3.76187e-05
-5.86651e-05
9.62834e-05
6.88576e-05
5.37489e-06
0.000308938
-0.000242138
-6.67901e-05
3.23799e-05
-0.000110644
-2.72756e-05
-0.000286513
3.36963e-06
8.03666e-07
0.000254575
-0.000242521
0.000268877
-2.63512e-05
0.000904041
-0.00112836
-0.000144133
0.000203937
-5.98037e-05
0.00057673
-0.000140362
-0.000436364
-4.61784e-06
0.000207024
-0.00020241
-3.90183e-05
9.75286e-05
-0.00064593
0.00100122
-0.000355288
0.000596573
0.000135793
-0.00011521
2.45639e-06
0.000112753
-0.000128139
0.000214868
8.91387e-05
0.000923963
-0.0010131
0.000409311
2.51112e-06
-0.000481591
-0.000340909
-4.24345e-06
1.51823e-06
2.72599e-06
-4.44887e-05
-6.20756e-05
0.000358296
-0.000278492
-5.79348e-05
-0.000221899
0.000334205
-0.000222586
0.000427901
0.000185285
-2.30518e-05
-2.56395e-05
4.7129e-05
-0.000380031
0.000332902
-0.00034955
-1.05473e-05
-0.000108741
0.000119288
0.000169978
-0.00024785
7.78728e-05
-3.82667e-05
1.46952e-05
2.35709e-05
0.000773772
0.000226404
-2.92698e-05
3.4324e-06
0.000115839
-2.85446e-05
0.000193068
0.000122217
-2.65986e-05
-7.8284e-05
0.000104883
0.00177899
-0.00128767
1.29832e-05
0.000101347
4.93571e-05
-0.000111703
-2.07288e-05
-0.000156874
-1.80895e-05
0.000174961
1.94455e-07
4.29962e-05
1.76383e-05
-5.9481e-06
-1.16882e-05
-8.35354e-06
3.01617e-05
-2.18088e-05
-0.000232322
0.000207847
2.44769e-05
-2.51416e-05
0.000128649
-0.000439949
0.000403205
-0.000120403
6.31074e-05
5.72948e-05
0.000670047
-5.06409e-05
3.98235e-05
5.08937e-06
5.25229e-05
3.41097e-05
0.000108693
0.000130609
-7.70712e-05
-5.35319e-05
0.000188261
-0.00116875
0.000980487
-0.000290025
-0.000421063
0.000711086
6.44249e-06
0.000138147
2.72194e-05
-1.31137e-06
-2.59095e-05
0.000710409
-0.000391276
0.000124537
1.12122e-05
-0.00213661
0.000297102
0.00038352
-0.000526101
-0.000231625
8.19931e-05
0.000149635
0.00083334
0.000904952
-0.00173828
0.000151666
-0.000103692
-4.79778e-05
0.000143299
0.00010254
-0.000292447
0.000390884
-9.84358e-05
0.000204138
-0.000112482
0.00012682
-0.000120377
-8.92593e-05
-3.97266e-05
0.000128986
-3.68658e-06
0.000115873
-0.000112186
-7.89397e-05
0.000225866
-0.000146927
-0.000630103
0.000304287
-4.53502e-05
-7.74338e-05
2.9041e-06
-8.41356e-05
8.12313e-05
2.0725e-05
0.000288218
4.00684e-05
-0.00013368
9.95815e-05
5.05805e-05
3.51241e-05
4.13185e-06
-3.92533e-05
-1.05323e-05
-0.000360423
4.27321e-05
0.000317687
-7.6039e-05
-5.53668e-05
0.000131406
0.000122424
0.000211782
1.91492e-06
2.5304e-05
-3.2655e-05
-2.85618e-05
6.12153e-05
-2.89361e-05
-3.34013e-07
-9.55765e-05
0.000107104
-1.15275e-05
7.83165e-05
-6.35023e-05
-1.4816e-05
-3.85584e-05
-9.12966e-05
0.000129857
-3.71315e-05
2.40277e-05
1.31031e-05
0.000519352
0.000165973
-0.000435447
0.000126102
0.000309343
2.59188e-05
-0.000134073
-3.85333e-05
4.91645e-05
-1.0631e-05
1.40135e-05
-1.6393e-05
2.38004e-06
-0.000103582
-3.42808e-05
0.000137863
2.97195e-05
1.97468e-05
-6.16807e-05
-0.000112062
0.000173743
-0.000408819
-0.000864048
0.00127285
-0.000262082
0.000161899
0.000100183
0.00126836
-0.0006327
-0.000221795
-0.000394492
-8.35943e-05
0.000478087
-1.96784e-05
-5.71576e-05
7.68355e-05
1.61527e-05
-2.45417e-05
8.38781e-06
-2.80556e-05
1.0709e-05
0.000115182
-3.98554e-05
-0.00018461
0.000221296
-3.66844e-05
-1.34004e-06
1.53538e-05
-0.00079277
0.00150243
-0.000709658
5.80753e-05
-9.66332e-05
2.60167e-05
0.000114569
-0.000193631
0.000167347
2.62861e-05
-0.000120935
-0.000141143
0.00118078
-0.000276733
2.10715e-05
-4.97796e-07
-2.05745e-05
-1.9908e-06
1.99109e-06
-0.000296807
9.96115e-06
8.82394e-07
-1.08427e-05
1.85504e-05
0.000111587
-0.000130136
0.000526698
0.000728141
-0.00125486
-9.2557e-05
-1.18686e-05
-0.000158653
0.00014773
1.09242e-05
1.11004e-05
-9.83838e-05
8.72852e-05
6.82728e-06
2.78517e-05
-3.46781e-05
-1.19352e-05
1.16345e-05
2.99957e-07
0.000112516
-9.56655e-05
-0.000835485
0.00102375
-0.000139475
0.000120633
1.88467e-05
9.46434e-05
-0.000105191
-3.74511e-05
-2.35774e-06
0.000532198
-0.00100093
7.58639e-05
-0.000128577
0.000115923
1.26518e-05
5.81344e-05
-8.66009e-05
-0.00125807
0.000849238
0.00104502
-0.000113823
-0.000931188
-0.000488088
-0.000137921
0.00062601
1.59968e-05
-0.000126281
-0.000213326
0.000134385
9.49584e-06
3.33059e-05
-1.41518e-05
2.21627e-06
-0.000345165
0.000162494
-2.18018e-05
-0.0013596
0.00156129
-0.000201687
0.000110844
-6.08341e-05
-0.00125763
0.000256971
7.45494e-05
2.79104e-05
-0.00010246
7.81476e-05
3.36778e-05
-0.000111827
0.000467246
-0.000516609
4.93635e-05
8.27069e-06
3.41478e-05
-6.13332e-05
-0.00013248
1.24141e-05
0.000112544
-0.000124958
-3.13371e-05
1.34498e-06
2.9992e-05
4.4666e-05
9.94276e-05
5.23626e-05
-0.000124361
-7.27281e-05
8.70925e-05
-1.43646e-05
0.000844017
0.000934973
-0.000180009
-0.00143235
0.00161237
-0.000225747
-1.19136e-05
5.56336e-05
-6.11617e-05
5.52668e-06
-0.0010889
0.000702252
0.000386673
0.000601341
-7.99076e-06
1.64735e-06
0.000957349
0.000138657
-0.001096
1.33821e-06
5.4294e-05
0.000133125
7.14816e-05
4.2773e-05
-0.000114255
-1.44701e-05
-5.3324e-05
6.77921e-05
-0.000512601
5.75115e-05
1.06058e-05
-6.81177e-05
0.000175537
0.000864348
-5.80333e-05
-3.89272e-05
9.69606e-05
3.04965e-05
-6.85597e-07
-2.9811e-05
-1.84866e-05
1.95186e-05
-1.03363e-06
7.27896e-05
-4.33689e-05
-2.94202e-05
-0.000106691
9.26021e-05
1.40878e-05
-4.86645e-05
0.00021864
5.15494e-05
-0.000126919
7.53701e-05
-0.000105823
0.000117613
-1.17921e-05
5.05306e-06
-4.18425e-05
3.67897e-05
0.000848182
-0.00083266
-1.552e-05
-0.000210704
0.0013869
-7.33232e-05
-0.00026382
7.95301e-05
0.000203116
0.000121186
-0.000324297
-8.50814e-06
0.000107986
-9.94777e-05
-4.54176e-05
-2.78277e-05
7.32453e-05
1.98034e-05
8.33819e-05
-0.000383162
-0.000232964
6.4658e-07
-0.000176215
1.26631e-05
0.000163552
8.26808e-05
1.99585e-05
-0.00080416
0.000514135
4.52485e-05
8.63848e-05
-0.000131632
-0.00045131
0.000508837
-5.75252e-05
1.5613e-06
0.000110181
2.97895e-05
-0.000965102
0.000194461
-0.000132141
-6.23164e-05
8.94421e-05
-1.16907e-05
-0.000375234
0.000365148
1.00867e-05
9.89147e-05
6.18131e-06
-0.000105095
-9.62662e-05
-1.04237e-05
3.51258e-05
-0.000327572
-2.43168e-05
-3.73811e-06
6.49292e-05
-7.41773e-06
-4.37997e-05
5.2663e-06
-9.63267e-06
-0.000741659
3.19358e-05
4.63796e-05
-7.68047e-05
-6.25327e-05
0.00134085
4.84963e-05
-0.000200844
0.00015235
-0.000423766
0.000178706
-6.35282e-05
-8.08002e-05
-8.5397e-05
9.22821e-05
-6.88735e-06
5.85577e-05
5.68571e-05
-0.000115417
8.01849e-05
-8.22852e-05
2.10009e-06
0.000130995
-3.83036e-05
4.5768e-05
-7.46606e-06
2.11798e-05
0.000151118
-0.000142945
-8.1716e-06
-0.000553178
-7.53468e-06
0.000585754
0.00158225
-0.00198555
0.000403308
-0.00151521
0.00133097
0.000184255
-0.000103559
6.59418e-05
0.00159083
-0.000526231
-1.63655e-05
0.000155242
-0.000138876
-4.36851e-05
-0.00010515
-9.37749e-05
-0.000252633
0.000472613
-0.000276474
-0.000214059
0.000197694
0.000397707
-0.00134701
0.000949314
0.000726878
0.000121305
-0.000126589
3.51659e-05
-0.000326165
-0.000235489
-6.14222e-05
-3.25667e-05
-0.000904933
0.000129011
6.54513e-05
-0.0010285
0.000566684
-2.61218e-05
7.39853e-05
5.75563e-05
-0.000107261
-4.92309e-05
-7.9345e-05
-6.54588e-06
-0.00014311
0.000133679
9.42745e-06
1.2452e-05
8.96413e-05
-0.000102094
-0.000505941
0.000932111
-0.000426167
-4.67243e-05
0.000104281
-1.57647e-05
7.94732e-05
-6.37079e-05
2.83583e-05
-0.000156691
0.000128329
0.000103226
0.000122348
-0.000225574
2.94195e-05
4.33704e-05
-0.000116377
-2.80102e-05
0.000101962
-7.395e-05
7.7716e-06
6.07614e-05
-6.85333e-05
-5.0966e-06
-0.000115308
-3.50234e-05
-8.13542e-05
2.27392e-05
9.65487e-05
-0.000119288
-0.00014837
0.000196868
-0.00169386
0.00151385
0.000404824
6.24216e-05
0.000107526
-3.29993e-06
-4.40334e-05
0.000115515
-0.000232262
0.000421896
7.34282e-05
0.000148007
0.000292002
6.80897e-05
-0.000360093
-0.000753429
-0.000616269
0.000420975
0.000195292
-5.54606e-05
-8.45423e-05
6.48643e-05
-2.46262e-05
9.91744e-05
-8.40063e-06
-2.74099e-05
-6.7191e-05
-1.44397e-05
1.21068e-05
-0.000110207
1.32205e-05
7.45373e-05
7.71285e-05
0.000312257
-0.000119494
-0.000192767
0.000914042
-0.000177618
-0.00073642
-0.000146436
6.96308e-05
3.24775e-05
-0.000948427
0.000810162
0.000138266
-0.000100085
-8.55528e-05
-0.000106949
0.000192503
0.000671244
-0.000104992
-0.00056625
5.39777e-05
2.44859e-05
0.000139206
-0.000120655
7.18458e-05
5.8459e-05
-0.00013031
1.77457e-05
-0.000224263
1.32054e-05
1.37983e-05
7.38153e-05
-0.000524596
-0.000535473
0.00106008
0.000649658
0.000941184
-0.000179358
-0.00150013
0.0016795
0.000379163
0.000198729
-0.000577891
0.00142856
-0.000799722
5.09158e-05
4.17645e-05
-9.26789e-05
-0.000625992
0.000108615
0.000517377
0.000113309
-0.000198862
2.83747e-05
-4.85169e-05
2.0143e-05
0.000216205
-0.000100299
0.00214633
-0.0017343
0.000173019
-0.000661107
3.34305e-05
1.3928e-05
-4.73598e-05
-1.6584e-05
-1.90295e-06
0.000124568
-0.000112154
0.00113416
8.892e-06
0.000121107
-4.349e-06
-0.000116757
1.0846e-05
-8.84294e-07
0.000106939
-7.50412e-08
-0.000537639
1.43703e-05
-9.9769e-05
1.86034e-06
0.000280568
-4.19131e-05
-0.000238657
-0.000691909
0.00068579
6.1218e-06
6.22612e-05
3.28051e-05
-0.000230412
3.61015e-05
0.000194312
-0.000108994
6.09293e-05
-0.000551387
-1.12395e-05
-0.000947173
-1.25251e-06
0.000536123
-0.000365055
0.000348608
-0.000145491
0.000106265
-7.35028e-06
-3.68574e-05
-0.000334925
0.00156439
1.88441e-05
-2.1899e-06
3.72637e-05
8.63964e-05
-0.000122748
0.000158436
-3.56917e-05
0.000479901
0.00168788
-0.00155739
0.0017629
0.000291406
-0.00205429
0.00122347
-1.36725e-05
-0.0012098
-0.00109106
0.00110113