/*--------------------------------*- C++ -*----------------------------------*\
| =========                 |                                                 |
| \\      /  F ield         | OpenFOAM: The Open Source CFD Toolbox           |
|  \\    /   O peration     | Version:  v2012                                 |
|   \\  /    A nd           | Website:  www.openfoam.com                      |
|    \\/     M anipulation  |                                                 |
\*---------------------------------------------------------------------------*/
FoamFile
{
    version     2.0;
    format      ascii;
    class       volScalarField;
    location    "100";
    object      k_0;
}
// * * * * * * * * * * * * * * * * * * * * * * * * * * * * * * * * * * * * * //

dimensions      [0 2 -2 0 0 0 0];


internalField   nonuniform List<scalar> 
13917
(
0.000165768
0.000148514
0.0630271
0.000153406
0.000148423
0.000196258
0.0602874
0.0652133
0.0773848
0.000174701
0.000205455
0.0001858
0.000153584
0.0154714
0.000154404
0.000153317
0.000148903
0.000175903
0.00018537
0.000148451
0.000149721
0.059786
0.000148301
0.0627094
0.000147704
0.0549495
0.000161638
0.000164632
0.000213133
0.00018633
0.000167558
0.000157108
0.000159934
0.000153721
0.000147855
0.000331346
0.000148372
0.046445
0.000156861
0.0196519
0.000146884
0.00014988
0.000144221
0.000168962
0.000148416
0.000155228
0.000175571
0.00018342
0.000395192
0.000147663
0.000157789
0.000149214
0.000459746
0.000154065
0.000148957
0.000157213
0.00020489
0.000148086
0.000154576
0.000148208
0.0844149
0.000148526
0.00755914
0.000148358
0.000194756
0.0286539
0.000148383
0.000148049
0.000206097
0.00016308
0.000148486
0.0760979
0.04435
0.000147727
0.000405877
0.000190584
0.0313348
0.000150639
0.0496163
0.00014947
0.000149204
0.000148439
0.000192566
0.0508638
0.0463475
0.000150407
0.000149005
0.0112856
0.000157432
0.000144165
0.0486768
0.000181305
0.000147065
0.000150509
0.0173148
0.000191904
0.000196805
0.00018124
0.00020501
0.000171148
0.000146077
0.000158304
0.000168804
0.000151734
0.000146034
0.0771935
0.000197507
0.000184385
0.000148925
0.000168759
0.0493959
0.0214564
0.000192028
0.0776524
0.00015046
0.000427239
0.000147619
0.00026673
0.0272382
0.000154032
0.000149781
0.000204981
0.0304468
0.000163932
0.000147385
0.000150227
0.000148151
0.000147454
0.000144343
0.000194525
0.0439324
0.0001503
0.000148508
0.000149784
0.00381343
0.0615937
0.000165942
0.000172059
0.000148326
0.000153888
0.000175315
0.000146018
0.000149744
0.000171301
0.00014806
0.0652499
0.000216814
0.000149077
0.000145716
0.00015755
0.00017911
0.000433878
0.000190744
0.000163905
0.000156847
0.0241298
0.000162114
0.00585885
0.0256122
0.00423175
0.000152243
0.000161946
0.00014947
0.000195826
0.000191446
0.000204339
0.000151657
0.000180162
0.000147498
0.000158805
0.000164645
0.0268151
0.000194793
0.000149698
0.0505713
0.000165216
0.0465138
0.00030953
0.059697
0.000147314
0.000182553
0.000168493
0.000145974
0.000148934
0.000157504
0.0547318
0.000223094
0.0300612
0.000165744
0.000201203
4.82875e-05
0.0511035
0.000218075
0.000148389
0.000172981
0.000161252
0.000153602
0.000147149
0.000184023
0.00168002
0.000157414
0.000147789
0.000178349
0.000178836
0.0388291
0.00082324
0.000147858
0.000148172
0.000180789
0.0581489
0.000149534
0.0612288
0.0284972
0.000201253
0.000146084
0.000203336
0.000177667
0.030588
0.000147346
0.0802894
0.000147252
0.000185173
0.000146731
0.0495939
0.0782088
0.000153669
0.00041518
0.000157226
0.000146117
0.00031132
0.000194323
0.000165525
0.0601072
0.0233506
0.000145696
0.000157637
0.0535563
0.035417
0.000149404
0.000147124
0.0213969
0.000199829
0.00014972
0.000172622
0.000189281
0.000161413
0.000164426
0.000149404
0.000164396
0.0259283
0.000148209
0.00018712
0.00017502
0.000148039
0.00014803
0.000185544
0.0276682
0.000189328
0.000157715
0.000154582
0.000149758
0.0250199
0.0737868
8.49692e-05
0.000146164
0.0421572
0.0244079
0.0145249
0.0490167
0.000192214
0.000149293
0.000146993
0.000175882
0.0428496
0.000195636
0.000154173
0.00116425
0.000173568
0.000144257
0.0535395
0.000148254
0.0543326
0.000156766
0.00014968
0.0001557
0.000163846
0.000161864
0.000156604
0.000159645
0.000148572
0.000228227
0.0595456
0.0799484
0.000147347
0.0192971
0.000148935
0.000148571
0.000147676
0.000234973
0.00014837
0.000187256
0.000163699
0.000147379
0.000178628
0.000150927
0.000352853
0.000164828
0.000179819
0.000146621
0.000147958
0.0462359
0.0288615
0.000147577
0.000146862
0.0498842
0.000147163
0.047829
0.000146493
0.0526955
0.000150249
0.000226161
0.000164586
0.000444691
0.000151864
0.000959234
0.000187833
0.000155713
0.000199533
0.000204816
0.000148923
0.0441213
0.00017263
0.0283473
0.000152873
0.0209086
0.000158391
0.0599
0.000182957
0.000174603
0.000173976
0.0636165
0.000149305
0.00016525
0.0544763
0.000148702
0.000151334
0.0258239
0.000187486
0.000149541
0.000161185
0.000209294
0.000146397
0.0235319
0.000220807
0.0001482
0.000146754
0.000148996
0.000145677
0.000236088
0.0558016
0.000213596
0.0516668
0.000147689
0.000189754
0.00821021
0.000171352
0.0605621
0.0478864
0.0785546
0.000145666
0.000129528
0.000146593
0.0722674
0.000148174
0.000461248
0.000189217
0.000155292
0.000149154
0.000179643
0.000184591
0.000183143
0.000642352
0.0547863
0.0239431
0.000164913
0.000173562
0.000147184
0.0388396
0.0578484
0.000148173
0.000189094
0.000147892
0.000249964
0.00015022
0.000149387
0.000150927
0.0422041
0.000150851
0.0306943
0.0108335
0.000202827
0.000197713
0.000148855
0.000198835
0.000194396
0.000147843
0.000189355
0.000148628
0.000147804
0.000186197
0.000149676
0.000147738
0.000146559
0.000251392
0.000149562
0.0241387
0.04199
0.00520741
0.000215595
0.0373048
0.0308698
0.000170966
0.000147725
0.00020507
0.000156466
0.000158797
0.000148329
0.0626027
0.0587612
0.0388859
0.000153197
0.000192537
0.00015258
0.000157551
0.000183109
0.000150386
0.000124432
0.000148894
0.000148298
0.0529543
0.0448663
0.0470312
0.000185563
0.0034861
0.0484185
0.0580115
0.0304364
0.000144568
0.00017833
0.000150474
0.000148322
0.000308709
0.000176185
0.000147576
0.000178251
0.000169377
0.0289233
0.000147809
0.00019557
0.0145295
0.000250498
0.0290743
0.000149624
0.000148212
0.000153445
0.000162147
0.000145688
0.0510955
0.000204094
0.000159609
0.0376196
0.000157161
0.000196442
0.063129
0.000218226
0.000202176
0.000149783
0.000195542
0.000177079
0.000203748
0.000172712
0.000207348
0.000212057
0.000176823
0.000187183
0.000147114
0.00151536
0.000158633
0.000145394
0.000161193
0.000150954
0.0312913
0.0772747
0.000147095
0.000144467
0.0539136
0.0254945
0.000149678
0.0238627
0.000151261
0.000204583
0.000147233
0.0367554
0.00111216
0.000157544
0.00014909
0.0403293
0.000213538
0.012351
0.000149742
0.0293739
0.000353452
0.0535482
0.000145491
0.0420489
0.0849411
0.000171579
0.0001467
0.000148901
0.000190836
0.000235215
0.000146883
0.000146783
0.000147171
0.000147126
0.0368586
0.000406604
0.000171167
0.000218854
0.000147405
0.00014613
0.000192076
0.0767768
0.000163089
0.000147623
0.000147757
0.00014811
0.0596278
0.0562273
0.000148955
0.000148103
0.0001262
0.000172294
0.000164581
0.000148173
0.000151023
0.000155919
0.000186571
0.000197963
0.000222484
0.000206025
0.000190797
0.000638136
0.000179506
0.000147408
0.0303719
0.000148135
0.000151742
0.000154359
0.00157237
0.000170954
0.000146184
0.000254614
0.000189495
0.00790291
0.000190939
0.000159995
0.000170745
0.00014908
0.0819191
0.000229783
0.062875
0.000148631
0.000160084
0.000223199
0.0501251
0.0100028
0.000182247
0.000188704
0.000153169
0.000152954
0.000148198
0.000165642
0.000169709
0.000148657
0.000177443
0.000173942
0.064028
0.0146133
0.000152409
0.000195736
0.000740699
0.000156781
0.000149338
0.000453377
0.0679247
0.0685443
0.000218262
0.000144468
0.0263602
0.000190215
0.00014656
0.000161044
0.000186011
0.000159329
0.00018627
0.0506689
0.000203093
0.000169338
0.0817783
0.000151579
0.0256605
0.000149477
0.000148901
0.0223973
0.0700509
0.000209775
0.000151583
0.000149544
0.00014812
0.000174077
0.000448944
0.000202875
0.000153301
0.000200409
0.000179163
0.000147285
0.000383302
0.000202138
0.000105004
0.000147256
0.000202235
0.000150859
0.0140275
0.000175323
0.000170786
0.000160328
0.000146552
0.000145393
0.000148299
0.000175615
0.000155513
0.000238236
0.000538798
0.000179677
0.000146468
0.000201976
0.000211273
0.00106318
0.000148071
0.000155041
0.000146844
0.000161287
0.000154829
0.0844135
0.000149403
0.000616329
0.000160872
0.000205402
0.000180971
0.0440368
0.000171762
0.000148777
0.0402732
0.011404
0.000148038
0.000154264
0.0022694
0.000211055
0.000195641
0.000149474
0.000149207
0.000209536
0.000155531
0.000182827
0.000184382
0.000145437
0.00017901
0.0630636
0.000148021
0.000151921
0.000147335
0.026992
0.000149711
0.000152838
0.0289416
0.000151071
0.0653214
0.000156842
0.000160182
0.000147275
0.00016675
0.000147743
0.000176094
0.000146591
0.000174721
0.000151246
0.0178931
0.00032739
0.0768208
0.000151958
0.000149214
0.000178542
0.000170575
0.0313284
0.0789249
0.000175507
0.000147849
0.000249303
0.000210619
0.000104279
0.000222775
0.000175182
0.0470729
0.000165123
0.000172175
0.000199585
0.000180413
0.000175129
0.000243177
0.000174568
0.000153125
0.000187252
0.000155853
0.000146319
0.000161022
0.000168891
0.000156917
0.000147803
0.000146966
0.00017948
0.000152307
0.00018298
0.000147859
0.000148018
0.000149776
0.000150796
0.000143945
0.000154878
0.0001475
0.0355612
0.000185579
0.000190788
0.000145874
0.000149558
0.00016364
0.000177438
0.000149992
0.0686175
0.000176378
0.0547455
0.000161019
0.000195749
0.000149947
0.000149739
0.000146985
0.000150919
0.0201368
0.000149623
0.0051672
0.00015528
0.00995484
0.000165343
0.000177098
0.000205205
0.000145043
0.000149924
0.000185992
0.000148041
0.00014932
0.0500704
0.000149874
0.000149
0.000158036
0.000147066
0.000144986
0.000157109
0.000155843
0.0255974
0.000162826
0.000148017
0.000146629
0.054721
0.000175601
0.000148642
0.000148618
0.05708
0.00118472
0.0240812
0.00016
0.000153137
0.000145791
0.000144821
0.000177355
0.000163623
0.000227989
0.000153228
0.0407813
0.000148914
0.000151479
0.0201651
0.000147952
0.000158857
0.000147827
0.000148167
0.000167972
0.000162112
0.000149897
0.0673499
0.0258058
0.000181545
0.000147392
0.0001445
0.000200976
0.00523784
0.000149673
0.000369743
0.00014447
0.000167607
0.000146593
0.00014675
0.000223508
0.000148177
0.00754496
0.000166823
0.000149774
0.000144482
0.000148259
0.000147025
0.000151697
0.000441304
0.000147706
0.000146309
0.0743617
0.0710999
0.000170262
0.000169923
0.000182184
0.000155232
0.000146146
0.000155801
0.0364856
0.000175597
0.000148613
0.000148916
0.0791361
0.000166212
0.0583146
0.000149716
0.000150167
0.0246737
0.000164471
0.000150157
0.0177784
0.000294736
0.000146987
0.00019665
0.000146965
0.000148019
0.000145774
0.0462556
0.00014387
0.00014835
0.000146106
0.0129616
0.000155595
0.000204462
0.000166228
0.000146753
0.00015851
0.000148953
0.0532146
0.000147252
0.000147825
0.00014901
0.000201853
0.000148944
0.00020309
0.0206405
0.0572231
0.000154621
6.79339e-05
0.0340078
0.000147929
0.0222904
0.0841197
0.0381769
0.0376538
0.0737991
0.00848841
0.000199762
0.00014897
0.0499112
0.000164308
0.0575825
0.000145377
0.000147063
0.000148672
0.000148899
0.000156513
0.000157869
0.0328621
0.000146952
0.000148143
0.0114832
0.000190812
0.000148257
0.000160456
0.000159791
0.000149057
0.000316159
0.000160682
0.00015167
0.000155439
0.0211819
0.0249339
0.000259471
0.000146378
0.000212044
0.000189546
0.0350195
0.0793298
0.000194587
0.000147214
0.000150121
0.000148914
0.000143508
0.000150996
0.000144484
0.000156027
0.000164496
0.0419243
0.000198888
0.000148376
0.000195198
0.0596179
0.000166789
0.000149094
0.0274809
0.000147233
0.000149124
0.000160494
0.0426963
0.000148942
0.000147281
0.062098
0.000168185
0.000332286
0.000193038
0.000510361
0.000147089
0.000206133
0.000149186
0.000147523
0.000149196
0.0530594
0.0295891
0.000146321
0.000144465
0.000147927
0.00224469
0.000150564
0.000160382
0.000148025
0.000149236
0.000204948
0.000146958
0.000176798
0.000201177
0.0474199
0.000147895
0.000173611
0.000152595
0.0414808
0.0571459
0.00014774
0.0451767
0.000183514
0.000272779
0.000148933
0.0424842
0.00014954
0.000156944
0.000166957
0.000193008
0.0562097
6.04217e-05
0.000214089
0.0713029
0.000146408
0.000238852
0.000146675
0.00015586
0.062778
0.000148356
0.000149603
0.000150293
0.000148888
0.0403565
0.000144963
0.000148224
0.00017937
0.000170581
0.00017569
0.000207711
0.000205547
0.0193187
0.000186622
0.000165591
0.000171571
0.0370403
0.000170877
0.0652521
0.0543416
0.000156172
0.000147055
0.0353753
0.000102435
0.000149091
0.000192907
0.000163533
0.000149822
0.000157042
0.000149062
0.000167134
0.000149934
0.000174648
0.000172034
0.00014665
0.00017772
0.000146811
0.000167529
0.000146562
0.000154216
0.000178842
0.000152623
0.000148793
0.000146403
0.000297702
0.000178486
0.0606505
0.000147733
0.000148345
0.000180134
0.000147826
0.000186656
0.000178466
0.000149819
0.000189526
0.000146618
0.0746621
0.000148989
0.000169032
0.0289314
0.000237687
0.000147149
0.000151536
0.0176688
0.000147546
0.000146935
0.0391272
0.0514136
0.000152229
0.000213076
0.000148373
0.000148793
0.0531056
0.000150726
0.000145124
0.000226674
0.000146953
0.00157136
0.000149153
0.00014513
0.000148681
0.000205951
0.035549
0.000148513
0.000148937
0.000147088
0.000154131
0.000148141
0.000233653
0.000177269
0.000149738
0.058873
0.000165493
0.000239866
0.0508191
0.000443021
0.000146154
0.000148949
0.000148095
0.000213649
0.000154559
0.0355188
0.0326441
0.000151805
0.0619351
0.000326021
0.000175061
0.000209233
0.000170417
0.000193373
0.0558044
0.000168153
0.00042271
0.0537774
0.000184728
0.00015345
0.0380536
0.000164635
0.000145501
0.000152083
0.0766943
0.000163087
0.000147017
0.000167084
0.000188831
0.00016483
0.0375597
0.000151804
0.0636669
0.000171401
0.000135988
0.000195903
0.000214187
0.000159195
0.000146479
0.000149624
0.0605237
0.000147508
0.000152036
0.000146305
0.000151048
0.000147074
0.000160295
0.00020713
0.000307231
0.00016289
0.000165648
0.037253
0.000195825
0.000147094
0.00197439
0.0480091
0.000145552
0.000146869
0.000160939
0.023536
0.000149616
0.000181717
0.000215911
0.000167638
0.0001482
0.0001521
0.000147167
0.00019287
0.000163318
0.000147428
0.0214952
0.0481498
0.000163941
0.000415369
0.000185307
0.00274555
0.00015097
0.000155669
0.0432903
0.00130473
0.000194744
0.000273808
0.000157624
0.000149802
0.000148091
0.000148493
0.000147925
0.000149844
0.000167559
0.000147213
0.000198792
0.000147053
0.000158613
0.000146425
0.000177312
0.000200026
0.000331461
0.00014784
0.00021545
0.000148076
0.0442595
0.000147858
0.000153664
0.000148563
0.000231167
0.0400535
0.000206957
0.000147188
0.000198923
0.00014795
0.000158849
0.0493568
0.000147836
0.00014923
0.000169616
0.000161053
0.0613327
0.000147231
0.000157678
0.000152287
0.000147875
0.000158326
0.000149377
0.00014549
0.000151475
0.0287352
0.000153298
0.000144419
0.0664237
0.000175051
0.0375694
0.000152898
0.000145543
0.000158448
0.02457
0.000152687
0.000162231
0.000171608
0.00369153
0.000146897
0.0035709
0.000178382
0.000182199
0.000145477
0.00014459
0.000213831
0.000149384
0.000149882
0.000158953
0.00014541
0.000152407
0.000158101
0.000186056
0.000184539
0.0583396
0.000156411
0.000186462
0.00398356
0.0162515
0.000169049
0.000184416
0.0224769
0.000168089
0.0736501
0.000151528
0.00929091
0.00344328
0.000145429
0.00014968
0.000147174
0.000150626
0.000169149
0.000146514
0.00015185
0.000194828
0.000151811
0.000160254
0.0448022
0.000157221
0.000153799
0.0775527
0.000150144
0.0240551
0.000154568
0.000165746
0.000146806
0.0287029
0.0298791
0.000147948
0.00015093
0.0419286
0.000156818
0.0155578
0.000147692
0.000146968
0.0635878
0.000150795
0.000162697
0.00881158
0.000148103
0.0001758
0.000158473
0.000144571
0.000146737
0.0475791
0.0319107
0.000148674
0.000152539
0.000148205
0.000155559
0.000159921
0.0289626
0.000149906
0.00033856
0.0185619
0.000113408
0.0020652
0.00015062
0.00020345
0.000180889
0.000156533
0.000148054
0.000182147
0.0463422
0.000151129
0.000163126
0.0645768
0.000469528
0.000187232
0.000153254
0.000148908
0.000149546
0.00014813
0.0254398
0.000177988
0.000153362
0.000151223
0.000153677
0.000149749
0.000147734
0.000148005
0.000186056
0.000170235
0.0563291
0.000163698
0.00870352
0.0326067
0.000158144
0.000175602
0.000146019
0.000156798
0.0243749
0.000148344
0.000151556
0.000176462
0.00019573
0.000165052
0.038902
0.000155087
0.000147223
0.043093
0.000144307
0.000149201
0.000164231
0.000149776
0.000148214
0.000206112
0.0621241
0.000146986
0.0442887
0.000148262
0.000146067
0.000151405
0.000362841
0.000158231
0.000154568
0.0789991
0.000150548
0.000223861
0.0416377
0.000149547
0.000163964
0.000147598
0.0198876
0.000182187
0.000148054
0.0494943
0.000176925
0.000168808
0.00014982
0.0282022
0.000156769
0.000194097
0.000151705
0.00016841
0.0292334
0.000146229
0.000258301
0.000148455
0.000177941
0.000164362
0.00014954
0.0319758
0.000151467
0.0001953
0.00017696
0.000170618
0.00016303
0.000163383
0.000149765
0.064154
0.000158772
0.0205526
0.000157395
0.000183756
0.000147732
0.000168533
0.000148131
0.000188086
0.0572927
0.00015
0.000146402
0.000450145
0.000150903
0.00753945
0.00014978
0.0484176
0.00011696
0.000162843
0.000147478
0.000147098
0.000148443
0.000144517
0.000190778
0.000166481
0.00016078
0.000154859
0.000148199
0.00156797
0.000152724
0.000161945
0.00161453
0.000148027
0.0165978
0.000176196
0.000162538
0.000256058
0.0416653
0.000209539
0.0504421
0.0277428
0.000146851
0.000202099
0.032446
0.000189978
0.000148947
0.000148869
0.000196983
0.0493938
0.0241534
0.000239311
0.000149932
0.000164894
0.000168644
0.0405792
0.00287037
0.000171414
0.000198645
0.000152058
0.000178012
0.000194896
0.000148881
0.000189484
0.0620864
0.000148609
0.00762397
0.000149608
0.000147997
0.0346706
0.0512951
0.000146322
0.000150195
0.000149568
0.000146941
0.000166871
0.000207378
0.000152019
0.000147443
0.000148334
0.000171206
0.000157463
0.000157057
0.000222886
0.000147874
0.0552644
0.0167729
0.06444
0.000177561
0.00017396
0.000157615
0.000163952
0.0484304
0.00249322
0.0149621
0.00014922
0.0868137
0.0354149
0.000145659
0.000147835
0.00018652
0.057008
0.0680232
0.000146846
0.000147995
0.0453084
0.00218741
0.0106775
0.000152514
0.000151864
0.000302289
0.00014873
0.0512759
0.030943
0.00128172
0.000344246
0.000148242
0.000147122
0.000146598
0.000154267
0.0366564
0.000170343
0.00015635
0.000149843
0.000174541
0.0249926
0.000171258
0.0515868
0.0148627
0.0263027
0.000322234
0.00014798
0.000148937
0.0475917
0.000144837
0.00014545
0.0001506
0.000382146
0.00016685
0.0386447
0.000195814
0.000147768
0.0780449
0.000166601
0.000147065
0.0167773
0.000177883
0.000153221
0.000148932
0.00527846
0.061705
0.000149003
0.066417
0.0215093
0.0607898
0.000271064
0.000177911
0.000147325
0.000150038
0.000351192
0.000155376
0.0492517
0.000167953
0.00107758
0.00022133
0.000150358
0.000156799
0.000147342
0.000149987
0.0574392
0.0207723
0.000148132
0.0221823
0.000171938
0.000148045
0.000152899
0.000147079
0.000204683
0.0001495
0.00032137
0.000165162
0.000147252
0.000146492
0.000170753
0.022637
0.00016768
0.000152245
0.000168516
0.000148085
0.000151462
0.000158574
0.0200378
0.0313687
0.0594979
0.000145292
0.000146439
0.000149079
0.000203369
0.000146629
0.000149189
0.000206455
0.000179946
0.000136126
0.000145283
0.0624497
0.0314188
0.000149867
0.0189329
0.000195587
0.000168641
0.000326426
0.000148912
0.0372544
0.000157056
0.000150606
0.000151857
0.000144802
0.000183239
0.000153436
0.000151342
0.000157537
0.0313341
0.0374291
0.000149548
0.0001477
0.000151912
0.00014787
0.000197586
0.000149419
0.000185007
0.00015269
0.0444523
0.000150873
0.0625343
0.000145326
0.0798096
0.000149524
0.000144683
0.0621779
0.000188026
0.000172761
0.00103257
0.000162624
0.000169397
0.000148008
0.0371387
0.000148104
0.000146677
0.000169665
0.00018566
0.0460249
0.0412121
0.000195655
0.0672604
0.000194952
9.54468e-05
0.000147541
0.00015481
0.000159233
0.0562658
0.000152895
0.0560223
0.0314365
0.000149329
0.000148277
0.000147978
0.00036654
0.000435475
0.000152259
0.000148447
0.000154105
0.000157572
0.000167383
0.000262659
0.000197086
0.000148044
0.000209665
0.000183372
0.0225291
0.000182801
0.000151047
0.000152744
0.0764756
0.000146571
0.000186167
0.0596798
0.000150006
0.000154417
0.000207363
0.000174504
0.000150104
0.0249401
0.000153655
0.00023886
0.000172014
0.0001578
0.000150956
0.0589494
0.000146429
0.000172703
0.000268302
0.0609885
0.000173428
0.000177202
0.00015656
0.000164022
0.000149711
0.062597
0.000157787
0.000148247
0.000160489
0.000148278
0.000149741
0.000391012
0.000148113
0.000148985
0.000148135
0.000199124
0.000148965
0.000161156
0.000185892
0.000205533
0.000192422
0.00014961
0.000186367
0.000197529
0.000209119
0.000182883
0.000155369
0.000203768
0.0560914
0.000248238
0.000149869
0.0427152
0.047546
0.000149864
0.000153208
0.000144693
0.000218318
0.000186902
0.00014867
0.000257927
0.0548951
0.000146023
0.000148858
0.0407111
0.0338848
0.000186213
0.000144862
0.0429617
0.0364848
0.000491627
0.000147771
0.0578294
0.000192565
0.000168305
0.0513286
0.00015649
0.000144796
0.00016033
0.000202588
0.000162822
0.0464456
0.0646835
0.000146362
0.0607873
0.000202761
0.0375684
0.00014531
0.000164071
0.000149081
0.000147324
0.0619665
0.00347338
0.000234757
0.0091292
0.000157254
0.000174075
0.000150702
0.0645329
0.0235231
0.000148028
0.000148854
0.000158091
0.000147318
0.000175879
0.0663556
0.07385
0.000174561
0.000149775
0.000149168
0.0615214
0.000153156
0.000176273
0.000146174
0.000150478
0.000252148
0.00464629
0.000109317
0.000370196
0.000148924
0.00024577
0.000151929
0.000164148
0.0832186
0.0205864
0.000148152
0.000149948
0.00016776
0.000153833
0.00014878
0.0666729
0.0563144
0.000146352
0.000143761
0.000149088
0.000147278
0.000339664
0.000146139
0.0423859
0.000191059
0.000185741
0.000146953
0.000167729
0.0675271
0.000164386
0.000198847
0.0482314
0.000148907
0.02699
0.000158735
0.000159632
0.000193271
0.0282131
0.0370232
0.000183617
0.000146939
0.00019294
0.000146231
0.000153348
0.000148837
0.039968
0.000158707
0.00139994
9.10737e-05
0.000173508
0.00014856
0.000214948
0.000157832
0.000149751
0.000183917
0.000144302
0.000170492
0.000163927
0.000148723
0.0769945
0.000151179
0.000207855
0.000150209
0.000147081
0.0554762
0.0491008
0.000152113
0.000158411
0.000170309
0.000172943
0.000181588
0.000157563
0.000154203
0.000155334
0.000204637
0.000153242
0.0404861
0.00016732
0.000124132
0.000202408
0.000150679
0.0688266
0.000144355
0.0598474
0.000152215
0.0557014
0.00451025
0.0253937
0.0329986
0.000249855
0.00016932
0.000148525
0.0644035
0.000170861
0.000148037
0.0228622
0.0645837
0.000150974
0.000153352
0.000160021
0.000160066
0.000163738
0.0351379
0.000149865
0.000162663
0.000166902
0.000159153
0.000148874
0.000191154
0.000144594
0.0434439
0.000151598
0.000195437
0.000161563
0.000168312
0.000185525
0.00335091
0.00018373
0.000146456
0.000190803
0.0623192
0.0672979
0.000149959
0.0408135
0.000159653
0.000298601
0.000148105
0.00015265
0.0543957
0.000179414
0.0283561
0.0271448
0.000158898
0.0739258
0.000147679
0.000144532
0.0233384
0.000165459
0.00015259
0.0753302
0.000156442
0.000163677
0.000157277
0.00017848
0.000148586
0.0499189
0.0629122
0.00958033
0.000237992
0.000155335
0.000172963
0.0302501
0.000152124
0.000149118
0.000178299
0.000145175
0.000186601
0.0492774
0.0224702
0.0285381
0.000179595
0.000150184
0.0602674
0.000144336
0.000186237
0.000149459
0.0385426
0.000151996
0.000164818
0.0402231
0.000194497
0.000147743
0.000159102
0.0104046
0.000148315
0.000201654
0.000146255
0.0619851
0.056212
0.000195496
0.000168694
0.000147141
0.000219058
0.000202407
0.000168001
0.000146279
0.00015039
0.000148717
0.000179211
0.000148554
0.000191333
0.000148517
0.000146515
0.0860319
0.000147086
0.000156401
0.000155763
0.000149789
0.0462094
0.000146954
0.000161256
0.0574045
0.000177588
0.0367266
0.000148227
0.0612168
0.000179023
0.0745066
0.000151593
0.00019904
0.000149352
0.000169627
0.000199333
0.000198003
0.000218613
0.0546029
0.000211532
0.000406334
0.000155015
0.000196396
0.000163319
9.65882e-05
0.000153112
0.00014914
0.000147998
0.000177708
0.00016537
0.0010219
0.000177039
0.0564404
0.0520659
0.000171438
0.000147925
0.00699371
0.000180539
0.000149534
0.000152085
0.000148304
0.0507398
0.000147989
0.0181213
0.00014696
0.000158322
0.0387466
0.000171798
0.000147934
0.000147943
0.0252844
0.000146983
0.000152107
0.000155337
0.000160369
0.000157507
0.000148542
0.000210172
0.000168755
0.000162953
0.000228611
0.0459619
0.0442981
0.0314545
0.000145441
0.000147741
0.000173205
0.000150188
0.000163526
0.0396567
0.0437345
0.000144825
0.000147991
0.0413779
8.58853e-05
0.000144983
0.000146503
0.000154626
0.0570418
0.0507232
0.000156284
0.000161996
0.000149171
0.000258783
0.000200139
0.000175528
0.000158035
0.000163879
0.000149388
0.000165982
0.00024774
0.000150149
0.000148775
0.000155857
0.0611164
0.000153421
0.0234875
0.000148426
0.0520437
0.000162149
0.000155696
0.000145769
0.000147006
0.000256369
0.0555887
0.00016532
0.025042
0.0568663
0.000149627
0.0530926
0.000208361
0.000147379
0.0225958
8.84127e-05
0.000195422
0.000149611
0.0411084
0.0385127
0.000148206
0.000162896
0.0307948
0.000166976
0.000148182
0.000146394
0.000149522
0.000153455
0.000183694
0.000239662
0.000168359
0.000181369
0.000145509
0.000148731
0.0521332
0.000146718
0.000168953
0.000154615
0.000149409
0.000174094
0.000147765
0.000151658
0.000246816
0.000147533
0.0446901
0.000147743
0.00445659
0.0508048
0.000188706
0.000148797
0.000149939
0.0593851
0.000144705
0.000152906
0.000149223
0.000207466
0.000215867
0.000163679
0.049979
0.000162886
0.000158031
0.000149685
0.000184552
0.000147002
0.000148692
0.0217274
0.0479599
0.000319104
0.000152152
0.000183711
0.000184124
0.0395774
0.057715
0.00024286
0.000166473
0.000144285
0.0512111
0.000147672
0.000147916
0.00024001
0.000197472
0.000156244
0.000180093
0.000164265
0.000159235
0.000157466
0.0761837
0.000153809
0.000147485
0.0211381
0.000164523
0.00014543
0.035726
0.000147794
0.000148467
0.000204635
0.00018869
0.0396137
0.000145571
0.000152921
0.000147078
0.000317933
0.000146874
0.000204813
0.0115181
0.0476594
0.0329324
0.0150998
0.00015722
0.0438567
0.00022731
0.000149251
0.000158014
0.000162953
0.000157415
0.000253614
0.0450466
0.0531736
0.0469917
0.000361425
0.000148632
0.000193942
0.00014785
0.0216978
0.000159276
0.000152157
0.000153192
0.000150355
0.00014693
0.000193373
0.0548174
0.000145316
0.000152289
0.000146426
0.0399516
0.00015208
0.0800074
0.0363948
0.000265848
0.000148325
0.000147003
0.0369927
0.000193924
0.000148685
0.00019413
0.000149401
0.000190066
0.000179565
0.000189722
0.00017699
0.0361979
0.000146176
0.000147112
0.000228834
0.0358992
0.000158891
0.000167118
0.00014739
0.0164933
0.000147695
0.000147171
0.000151273
0.00014782
0.00695176
0.0442369
0.00123256
0.000184105
0.0595076
0.000196885
0.000144827
0.000162604
0.00014521
0.00025896
0.000148362
0.000153017
0.000147694
0.00014696
0.000146604
0.0004108
0.000151434
0.000283862
0.000144904
0.00015841
0.000157342
0.000272742
0.000147931
0.000162559
0.000166976
0.000173407
0.0804248
0.000146946
0.0333822
0.000177501
0.000165053
0.00014846
0.000147256
0.0379007
0.0100493
0.000148442
0.0001474
0.000242148
0.000229327
0.00016065
0.057701
0.000150078
2.76367e-05
0.000162906
0.00014523
0.0525028
0.000152176
0.0516375
0.00014796
0.00015023
0.000148538
0.0400786
0.0457627
0.000144978
0.000183431
0.000229906
0.000148009
0.000147246
0.000146937
0.000184915
0.056481
0.000176245
0.000154763
0.000167006
0.000147796
0.00014819
0.000152504
0.000147576
0.000208902
0.000148257
0.000184331
0.000313463
0.000164055
0.000144432
0.0328345
0.000185385
0.000147869
0.000179538
0.000161746
0.000922682
0.000152544
0.0835381
0.000176043
0.000147826
0.000184434
0.000184726
0.000154248
0.0834095
0.00018285
0.000162791
0.00118671
0.000147484
0.000187556
0.000169889
0.000184105
0.000147106
0.000147732
0.000144669
0.00015886
0.000180323
0.000179369
0.0510281
0.0329593
0.0381888
0.000149721
0.000305533
0.051995
0.0630841
0.000147743
0.000147996
0.000177598
0.0560249
0.00015229
0.00016656
0.0116792
0.0341424
0.00447082
0.000172703
0.000205741
0.0402574
0.000205609
0.000144617
0.00204567
0.000233416
0.000149268
0.000149745
0.000150162
0.0618547
0.000186807
0.0643112
0.000152529
0.0108302
0.000148498
0.00019761
0.0350471
0.000148815
0.000165231
0.049505
0.0529933
0.00017514
0.000150804
0.000151645
0.000149337
0.000187946
0.000200826
0.00040366
0.0607119
0.000145811
0.0186755
0.000194166
0.000142883
0.000147757
0.000148877
0.000873491
0.000184504
0.000147613
0.000173093
0.000167782
0.00016098
0.0413752
0.0632772
0.0666462
0.058319
0.00015374
0.000145198
0.00016679
0.0288551
0.0653139
0.000148031
0.0001855
0.000169738
0.000196915
0.000150638
0.000149635
0.000245792
0.00493736
0.00920388
0.00027997
0.0257237
0.00014726
0.000183874
0.0570473
0.000148926
0.000166209
0.000192353
0.000145083
0.000205266
0.0718239
0.00018283
0.000149626
0.0208962
0.00019565
0.0480275
0.000143633
0.00015321
0.000148462
0.000152507
0.000148353
0.000172029
0.000162935
0.000162669
0.000189336
0.000164927
0.0431243
0.000153387
0.000161808
0.000157078
0.0221504
0.000165425
0.0342473
0.000156809
0.000155739
0.0114169
0.000170904
0.000148277
0.000162999
0.0070564
0.0678935
0.000252434
0.000147739
0.000147188
0.000147438
3.84651e-06
0.000150812
0.000341372
0.000264675
0.000184821
0.000160354
0.000215763
0.0295165
0.000148354
0.0630609
0.000159963
0.000164034
0.000147496
0.000147878
0.000175575
0.0610364
0.000148171
0.0307319
0.000221506
0.000171143
0.000202414
0.000146978
0.000147732
0.000160989
0.000151707
0.0603931
0.0258332
0.000170867
0.000255258
0.000147636
0.000148302
0.000148709
0.000149543
0.084998
0.000152042
0.0431363
0.000169755
0.000150737
0.000192988
0.000528774
0.0411794
0.0217277
0.000152693
0.000146866
0.000148614
0.000153304
0.000220616
0.000182611
0.0821194
0.000148809
0.000150163
0.000178025
0.000149665
0.000188742
0.000151571
0.000176615
0.000178076
0.000162931
0.000163084
0.000145561
0.00017246
0.000162478
0.000183111
0.000168732
0.000163361
0.000146504
0.000191225
0.000146961
0.000852111
0.0493495
0.000230255
0.000148319
0.000172256