/*--------------------------------*- C++ -*----------------------------------*\
| =========                 |                                                 |
| \\      /  F ield         | OpenFOAM: The Open Source CFD Toolbox           |
|  \\    /   O peration     | Version:  v2012                                 |
|   \\  /    A nd           | Website:  www.openfoam.com                      |
|    \\/     M anipulation  |                                                 |
\*---------------------------------------------------------------------------*/
FoamFile
{
    version     2.0;
    format      ascii;
    class       volScalarField;
    location    "100";
    object      omega_0;
}
// * * * * * * * * * * * * * * * * * * * * * * * * * * * * * * * * * * * * * //

dimensions      [0 0 -1 0 0 0 0];


internalField   nonuniform List<scalar> 
13917
(
0.0445375
0.0253651
4.7409
0.026612
0.0254427
0.4836
4.47204
4.89421
5.65868
0.0728938
0.161873
0.070875
0.0266836
12.1452
0.0293305
0.0281162
0.0254802
0.0574287
0.0696109
0.0254522
0.0256556
4.40189
0.0254243
4.90847
0.0252997
4.29873
0.0466929
0.0599929
0.813425
0.110365
0.0473532
0.031059
0.0402047
0.028783
0.0253183
1.07635
0.0254361
3.9429
0.0283976
6.32596
0.0251573
0.025681
0.0247336
0.091367
0.0252414
0.0306899
0.0565028
0.0740677
2.85923
0.0253267
0.0298951
0.0255705
3.29723
0.0291971
0.0254938
0.0299036
0.159374
0.0252913
0.0280696
0.0252035
10.2161
0.0253659
23.3978
0.0254369
0.447828
17.1542
0.0254356
0.0253422
0.177298
0.0406936
0.0254545
5.75665
4.37147
0.0253101
2.93681
0.0829339
5.81471
0.0258604
4.11976
0.0256155
0.0255726
0.0254462
0.420136
3.90272
4.82724
0.0257647
0.0255403
15.0881
0.0296171
0.0247199
4.16415
0.0969538
0.025088
0.0261808
15.7375
0.417037
0.123876
0.0686676
0.1412
0.118199
0.0250553
0.0363341
0.0917203
0.0262271
0.0250166
6.0584
0.498926
0.0780248
0.0254829
0.0508173
4.39347
5.57101
0.090211
5.92418
0.0261474
3.27392
0.025307
1.53542
5.20103
0.0291726
0.0256651
0.171671
4.70289
0.0566018
0.0252706
0.0260215
0.0252194
0.0252801
0.0247684
0.46242
3.74774
0.0260586
0.0252665
0.0256657
3.46843
4.87857
0.0451885
0.128655
0.0254256
0.0290729
0.389561
0.0249554
0.0257853
0.113607
0.0253404
5.92679
0.848479
0.0255228
0.0249282
0.0316924
0.0596747
3.27269
0.0915951
0.0464112
0.0301392
6.4606
0.0389578
3.56408
7.83439
3.46196
0.0273671
0.0473103
0.0256154
0.118883
0.0883752
0.13863
0.0261977
0.0634281
0.0250902
0.0374393
0.0467506
6.86014
0.0980676
0.0257708
5.54908
0.0509857
3.74683
1.99006
5.85632
0.0251612
0.100756
0.0490409
0.0249473
0.0255285
0.0335734
4.39974
0.372413
8.2933
0.039711
0.129071
0.431163
5.30755
0.339503
0.0254382
0.132459
0.0451584
0.0256721
0.0250956
0.260489
7.45764
0.0292106
0.0253474
0.0589803
0.0589022
4.79961
1.51314
0.025323
0.0253011
0.0670402
4.55464
0.0256954
4.47481
6.68544
0.129521
0.0250286
0.63301
0.0588068
6.19191
0.0252454
10.8771
0.0251604
0.0980458
0.0251516
3.96292
6.10856
0.0284484
2.11528
0.0304777
0.0250332
0.984128
0.0963637
0.0392837
4.81328
8.91782
0.0249966
0.0315625
4.09813
4.67313
0.0256049
0.0252321
5.07668
0.140258
0.0256558
0.235371
0.102694
0.0450887
0.0408973
0.0256048
0.0505814
7.42202
0.0250628
0.128812
0.159255
0.0251952
0.0252837
0.073317
3.82967
0.0863595
0.033943
0.0294493
0.0256618
6.01402
7.16192
0.255524
0.0250456
4.61524
7.15663
4.14744
4.05569
0.0882909
0.0255868
0.025214
0.0566835
4.19986
0.125038
0.0277776
2.10165
0.0457444
0.0247605
8.51824
0.0254207
5.54448
0.0287392
0.0256496
0.030499
0.0460368
0.0474148
0.237373
0.0362851
0.0251784
0.359561
4.84347
7.14277
0.0252476
4.54009
0.0255303
0.0251709
0.0253182
1.20449
0.0254433
0.107221
0.039887
0.025071
0.0591694
0.026243
2.41225
0.049612
0.0882263
0.0249774
0.0252768
4.47227
5.21608
0.0252989
0.0251827
8.57534
0.0251356
4.22629
0.024974
3.95671
0.0254898
0.516312
0.0364078
3.05272
0.0270802
1.52021
0.352313
0.0304944
0.139628
0.575394
0.0254787
3.83138
0.133529
5.90603
0.0278983
6.6875
0.0323048
4.8166
0.272961
0.125048
0.122045
4.66205
0.0255891
0.0485747
4.39256
0.0254124
0.0266036
6.49789
0.317129
0.0256953
0.237107
0.753011
0.0251135
6.26019
0.480481
0.0254123
0.0251554
0.0255401
0.02492
0.368785
5.74553
0.73766
4.3906
0.0253108
0.144567
6.74071
0.0454873
4.40176
4.0261
5.98595
0.0249847
0.242386
0.0251277
11.013
0.0252015
3.79309
0.102665
0.0276497
0.0255648
0.063666
0.110004
0.0775213
8.0872
4.57246
9.66641
0.0527681
0.0681775
0.0252431
4.80554
4.30212
0.025297
0.803924
0.0253485
0.345594
0.0254883
0.0256023
0.026284
3.85846
0.0262493
3.54858
5.99205
0.145798
0.503109
0.025465
0.533226
0.456448
0.0253499
0.351986
0.0254005
0.0253241
0.1106
0.0256489
0.0253054
0.0251224
0.379144
0.0256303
5.60085
4.08895
5.32232
0.33935
3.55377
6.13817
0.0448765
0.0253209
0.185825
0.0281737
0.0328708
0.0254278
5.8305
4.47369
4.05728
0.0280804
0.115755
0.0277424
0.02886
0.0770357
0.02607
0.274719
0.0254692
0.0254295
4.15107
3.73967
3.74685
0.142935
6.36323
3.80025
4.36188
5.91129
0.0248089
0.061502
0.0261253
0.0253278
0.663619
0.0574982
0.0249628
0.0675883
0.0427099
5.96581
0.025344
0.121434
14.0504
0.81241
4.49966
0.0256402
0.0253044
0.0256478
0.0392385
0.0249885
4.36482
0.578436
0.0360895
5.33801
0.0298175
0.121049
4.52153
0.861326
0.141664
0.44131
0.121022
0.0662279
0.17303
0.0457516
0.161152
0.634124
0.0517803
0.0862486
0.0250484
1.82429
0.0306575
0.0248001
0.0375348
0.0259599
5.5224
5.93168
0.0251327
0.024777
4.50405
8.7553
0.0256493
5.81277
0.0259201
0.248953
0.025147
5.06746
2.3272
0.0316269
0.0254773
3.5617
0.286199
7.08708
0.0256593
6.53326
2.46747
8.8051
0.0248119
4.63434
6.59741
0.0455996
0.0251459
0.0254814
0.0832466
0.363723
0.0249007
0.0251645
0.025247
0.0252394
5.17139
0.742514
0.0449693
0.360676
0.0252461
0.0250656
0.113302
5.30767
0.0365359
0.0251018
0.0253188
0.0253789
8.73606
5.82649
0.0255326
0.0253771
0.223211
0.0454308
0.0363865
0.025303
0.0263638
0.0301024
0.0842814
0.460116
0.370843
0.189126
0.103394
1.56546
0.0861266
0.0252608
6.19777
0.0253841
0.0268852
0.027279
1.80161
0.0854358
0.025068
0.813354
0.124571
12.2029
0.104519
0.0398908
0.04479
0.0255535
6.95922
0.565747
4.28206
0.0253969
0.0326405
0.360481
4.01153
24.5614
0.071875
0.16436
0.0280624
0.0272461
0.0253052
0.060947
0.0976779
0.0254109
0.0582099
0.150953
4.35638
6.38916
0.0271606
0.117495
1.65562
0.0317538
0.0256124
3.54555
6.47375
5.70064
0.324968
0.0247869
5.58307
0.0815573
0.0251059
0.0347122
0.0790733
0.0386336
0.108008
4.13626
0.168138
0.0409117
6.9006
0.0262436
7.40125
0.0256165
0.0255238
4.6148
6.42295
0.670641
0.0262378
0.0257171
0.0253821
0.04644
3.37788
0.130912
0.0274523
0.131823
0.0624701
0.0251512
2.18998
0.127391
0.247647
0.0252219
0.162644
0.0259347
9.76918
0.0743222
0.0852242
0.0329568
0.0251426
0.0248321
0.0252504
0.134778
0.0311026
0.365265
7.08418
0.0626575
0.0251259
0.16529
0.734035
1.81932
0.0250412
0.030429
0.025175
0.0319326
0.0282351
6.41746
0.0256048
4.67217
0.0316676
0.160139
0.0981796
4.39066
0.0887451
0.0254398
4.43705
17.766
0.0252668
0.0271949
2.36982
0.259045
0.124662
0.0256171
0.0255045
0.38672
0.0277892
0.0769542
0.069934
0.0248328
0.0588626
4.76893
0.0250206
0.0260481
0.0252735
5.46587
0.0256541
0.0277584
6.19323
0.0264747
6.37518
0.0302256
0.0409938
0.0252635
0.0568083
0.0253303
0.0648395
0.0251498
0.0970453
0.0259213
26.9181
3.06111
5.35171
0.0255468
0.0255753
0.0816218
0.0539926
4.94391
5.60339
0.0569444
0.0253274
0.374141
0.726823
0.254687
0.314828
0.054265
4.09319
0.0440909
0.0436445
0.159825
0.206145
0.0561719
1.17026
0.0556806
0.0265859
0.0839064
0.0305918
0.0248808
0.0317106
0.0507555
0.0310324
0.0253388
0.0251976
0.0626953
0.0264001
0.0779626
0.0253319
0.0253694
0.0256645
0.026264
0.0246655
0.0289568
0.0253003
5.24096
0.0697025
0.397739
0.0250223
0.0256295
0.054013
0.0673894
0.0258868
8.28618
0.0903328
11.2213
0.0317755
0.132211
0.0255495
0.0256584
0.0252162
0.0262606
8.04919
0.02564
3.89975
0.0292481
6.07995
0.0553472
0.0918515
0.157525
0.0248531
0.0256879
0.0709335
0.0253404
0.0256095
7.94004
0.0258496
0.0255407
0.0310246
0.0252241
0.0248445
0.0310953
0.0315751
6.33029
0.0387175
0.0250184
0.0251282
4.01084
0.132628
0.0254075
0.0253977
8.17978
2.13171
8.77971
0.0400501
0.0265952
0.025012
0.0248263
0.0527419
0.0398729
0.238719
0.0283494
3.91558
0.0254599
0.0267841
9.5194
0.0253573
0.0308252
0.0252383
0.0254083
0.0492867
0.0484786
0.025615
6.33309
4.38432
0.0991314
0.0252552
0.0247307
0.12629
3.25019
0.0256485
1.11158
0.0247321
0.0477084
0.0248458
0.0249248
0.374853
0.0251395
2.94568
0.0438791
0.0256642
0.0247752
0.0253405
0.0251677
0.0259665
4.19519
0.0249906
0.0249288
5.10639
5.91496
0.0420887
0.0524453
0.0726762
0.028173
0.0249734
0.0315258
5.10052
0.102718
0.0254743
0.0254247
5.70877
0.0392125
4.51378
0.0256549
0.0259904
6.43564
0.0366889
0.0256863
8.15353
1.7617
0.0251643
0.144296
0.0252127
0.0251195
0.0250037
4.36569
0.0246563
0.0250189
0.0249656
3.19351
0.0277152
0.246749
0.0708451
0.02491
0.0368178
0.0255327
4.40386
0.0252518
0.0250067
0.0255421
0.131199
0.0255318
0.167781
5.81295
4.75305
0.0298324
0.53751
5.41649
0.0252705
6.95426
9.55017
4.89137
3.57515
4.99523
36.9705
0.153849
0.0254998
4.06911
0.0366251
4.22553
0.0248084
0.0250799
0.0254069
0.0255238
0.0289822
0.0348807
4.61581
0.0250703
0.0253894
6.54549
0.32983
0.025341
0.0419421
0.0327752
0.0253538
2.84239
0.0425226
0.0269063
0.0276537
5.76053
7.91735
1.34513
0.0248314
0.289398
0.124043
4.70027
6.03428
0.0964989
0.0251401
0.0256082
0.0254625
0.0246066
0.0263505
0.0248012
0.0302164
0.0428673
5.57784
0.138054
0.0250371
0.128666
4.39222
0.046483
0.0255358
6.60915
0.0250564
0.0255385
0.0422492
6.52507
0.0255318
0.025221
4.47147
0.211546
1.28066
0.113305
1.09574
0.0251907
0.187986
0.0255621
0.0252963
0.025556
4.37081
6.39849
0.0249146
0.0247689
0.0252504
2.56937
0.0261385
0.0328157
0.0253437
0.0255902
0.18291
0.0249231
0.0660141
0.383261
3.75104
0.0251692
0.0941579
0.0273328
4.56714
4.33219
0.0253097
4.51797
0.0774995
1.48011
0.02553
3.81074
0.0256275
0.0297171
0.04792
0.113448
4.52297
0.318497
0.184432
6.57117
0.0251177
0.320665
0.0249137
0.0305716
4.46084
0.0253342
0.0256373
0.0259289
0.0253336
5.16373
0.0248497
0.0254119
0.0598602
0.0521304
0.0540634
0.644435
0.140378
7.85783
0.0711192
0.0384495
0.04269
4.78595
0.0432157
14.1713
4.23447
0.0284413
0.0249217
3.43084
0.259344
0.0255259
0.119039
0.0369342
0.0254255
0.0293816
0.0253725
0.0479626
0.0256895
0.053151
0.120733
0.0251384
0.0670057
0.0249658
0.0669177
0.025143
0.0293311
0.0628539
0.0265346
0.0252359
0.0249266
2.15016
0.0909189
6.23958
0.0253006
0.0253137
0.0637875
0.0252396
0.100218
0.0913613
0.0254273
0.102921
0.0249502
10.0386
0.0254949
0.0404606
5.68094
0.315723
0.0251996
0.026725
6.80747
0.0253003
0.0251904
4.54177
4.24191
0.0273481
0.17312
0.0254397
0.0252274
4.39885
0.0261339
0.0248661
0.274427
0.024964
2.37477
0.0255642
0.0248723
0.0254108
0.142432
3.7876
0.0253702
0.0254816
0.0251923
0.0289743
0.0254052
1.05913
0.0645224
0.0256586
5.74061
0.0555773
0.331799
3.82003
3.66739
0.0249012
0.0254853
0.0252786
0.826906
0.0294361
3.8265
5.7913
0.0270567
4.38078
2.35674
0.0536058
0.154437
0.0786038
0.431551
4.54696
0.0709583
1.12933
3.92252
0.0692741
0.0282793
4.60485
0.0605088
0.0248225
0.0263751
13.4501
0.0427716
0.0251252
0.0589677
0.110274
0.0430369
4.52103
0.0268542
6.56294
0.042768
0.233028
0.135161
0.310013
0.0320703
0.0249442
0.025726
4.74753
0.0252885
0.0272529
0.0249892
0.0263759
0.0250648
0.0395949
0.158806
1.94235
0.0492754
0.0663503
4.02894
0.399269
0.0250502
2.25637
4.2763
0.0249098
0.0251786
0.0339079
6.8683
0.0256394
0.0754995
0.671853
0.0539283
0.0253276
0.026196
0.0249746
0.119449
0.0443094
0.0252884
31.1009
4.10714
0.048236
1.34346
0.0702761
5.81958
0.0264121
0.0284666
4.28197
1.95955
0.0971847
1.81985
0.0314458
0.0256683
0.0250934
0.0253565
0.0253094
0.0258295
0.059224
0.0252105
0.129847
0.0252221
0.0315725
0.0248935
0.0911191
0.12956
0.878656
0.0252628
0.306866
0.0250927
4.39451
0.0253397
0.0287626
0.0254663
0.267797
4.68855
0.149728
0.025201
0.138471
0.0252462
0.0329128
4.20448
0.025098
0.0255758
0.0502455
0.0346815
4.39089
0.0252109
0.0332354
0.0261783
0.0253513
0.0359957
0.0256323
0.0249609
0.026814
6.48745
0.0275453
0.270529
5.75151
0.0562773
3.70332
0.0272976
0.0249694
0.0346429
8.31631
0.0263887
0.0408442
0.0452362
5.17458
0.0251498
5.80391
0.0684907
0.0761288
0.0248963
0.0247958
0.178221
0.0256369
0.0256812
0.0376499
0.0248237
0.0275098
0.0317079
0.0752488
0.303728
4.42465
0.0281766
0.078868
2.57748
7.54307
0.0407352
0.296581
6.73169
0.0424868
12.9986
0.0268211
20.7949
5.47906
0.0247928
0.0256494
0.0252392
0.025685
0.0499537
0.0248914
0.0270419
0.0966482
0.0263761
0.0396918
4.31255
0.033769
0.0271831
5.67761
0.0256925
5.74185
0.0273562
0.0613896
0.0251355
6.77915
6.05386
0.0252439
0.0257995
3.94929
0.0330391
6.86848
0.0253315
0.0249587
4.36097
0.0257911
0.0497303
9.50449
0.0253805
0.059736
0.0323376
0.0247891
0.0251677
4.04729
5.66014
0.0253669
0.0265611
0.0253075
0.0296614
0.0404968
6.19487
0.0258586
2.60313
4.47849
0.229498
2.7133
0.0257436
0.130427
0.219048
0.0325429
0.0253767
0.0645728
4.14285
0.0265372
0.0519054
4.96232
3.68447
0.327321
0.028349
0.0254744
0.0256285
0.0253831
7.56558
0.0590489
0.0268575
0.0259041
0.0274565
0.0256599
0.0252309
0.0253365
0.0775525
0.0412349
5.65122
0.0521728
5.04808
3.48999
0.0340397
0.0547082
0.0250456
0.0317615
8.22248
0.0253183
0.0266712
0.0552238
0.124752
0.0632969
3.98298
0.249537
0.0250634
4.04496
0.0247467
0.0253966
0.0519378
0.0256647
0.0250553
0.177962
6.94034
0.0249704
4.25152
0.0252974
0.0248888
0.0265879
2.71548
0.0322931
0.0273259
12.604
0.0260424
0.242568
3.58622
0.0256285
0.0536582
0.0253158
5.92121
0.0767965
0.0253376
4.25382
0.0581608
0.0884017
0.0256713
6.58867
0.0326952
0.446686
0.0259914
0.0808831
6.82635
0.0249184
1.52317
0.0253629
0.0682141
0.0585023
0.0256273
4.60687
0.0267204
0.122176
0.0630547
0.108398
0.0454209
0.0490392
0.0257913
4.92954
0.0356708
7.02557
0.0335087
0.0689019
0.0251517
0.0487675
0.0253157
0.0751207
4.6392
0.0258925
0.0250423
3.45182
0.0259291
2.84134
0.0256118
4.35708
0.260248
0.038901
0.0252831
0.0252162
0.0254416
0.0247966
0.111787
0.0631626
0.0429971
0.0289202
0.0254119
2.09659
0.0266426
0.0375154
1.95578
0.025308
13.3464
0.0550763
0.0328834
1.30775
4.41022
0.367144
4.47973
9.51886
0.0251386
0.404439
5.05861
0.381002
0.0255319
0.0254593
0.120296
4.21442
5.61119
0.7034
0.0253938
0.0573364
0.0431965
3.58
4.96679
0.0451765
0.13405
0.0270171
0.0911196
0.0970487
0.025521
0.114814
8.10777
0.0254743
3.59173
0.0256377
0.0251207
4.82894
4.04871
0.0250992
0.0254681
0.0256136
0.0249718
0.054848
0.184945
0.0261636
0.0252842
0.0254326
0.0434745
0.0309699
0.0306988
0.375058
0.0253149
4.10687
7.75409
4.25381
0.173119
0.0574511
1.02163
0.0365179
4.03521
2.1602
9.98932
0.0255863
6.91311
3.58991
0.0249896
0.0253452
0.115063
4.56451
9.83176
0.0249083
0.0252567
3.734
5.04317
7.27512
0.0270995
0.0270713
1.91555
0.0254242
3.82462
7.17434
1.51767
2.83509
0.0253303
0.0251886
0.0251503
0.0293695
4.17718
0.0432418
0.028513
0.0258327
0.0985442
7.23902
0.0434428
6.19416
5.42441
5.31976
2.20107
0.0253613
0.0255305
4.35805
0.0248369
0.0248219
0.0262047
2.86424
0.040387
9.26849
0.144676
0.0253291
5.44612
0.043245
0.025072
6.18514
0.190362
0.0282103
0.0252273
5.0922
4.55671
0.0255408
7.54002
4.53302
6.17755
2.58831
0.0936302
0.0251794
0.0256915
1.93388
0.0286745
4.4753
0.045937
3.82073
0.284145
0.0260854
0.0325211
0.0251624
0.0259021
4.75635
6.96951
0.0253841
4.95944
0.0459009
0.0252676
0.027946
0.0252092
0.173197
0.0255937
2.35091
0.0580359
0.025166
0.025132
0.108277
8.17882
0.0421345
0.0271158
0.0472701
0.0253131
0.0262306
0.0304128
8.90522
4.18341
4.56088
0.0249181
0.0251238
0.0255341
0.131458
0.0251293
0.0255729
0.179464
0.0628403
1.05102
0.0247788
4.51947
4.15355
0.0256791
9.03779
0.12108
0.0403207
2.08243
0.0254851
5.11067
0.0330787
0.0262313
0.0270629
0.0248324
0.224031
0.0256754
0.0258593
0.0345766
3.59679
3.73542
0.0256282
0.0253304
0.026625
0.0251718
0.144625
0.0256545
0.0922726
0.0266092
4.20716
0.0257652
4.29021
0.0249187
5.68258
0.0255502
0.0248103
6.8705
0.360793
0.123763
1.31388
0.0496346
0.0437649
0.0253426
5.16553
0.0253775
0.025138
0.0985092
0.0694815
9.90956
4.53394
0.132271
7.07053
0.142321
0.934562
0.0249742
0.0280114
0.0309808
4.1625
0.0279627
4.30288
4.56855
0.0253128
0.0253418
0.0252594
1.68837
3.37772
0.0264403
0.0254472
0.0288712
0.0312776
0.0411307
0.415482
0.356497
0.0253871
0.703595
0.0941305
8.47324
0.0779747
0.0264034
0.0269935
5.25682
0.0251466
0.0977201
4.61764
0.0259058
0.0285355
0.184785
0.151231
0.0259602
6.33694
0.0274745
0.321794
0.0436712
0.033958
0.0258428
4.47978
0.0251127
0.110181
1.4997
4.91459
0.0543247
0.0745579
0.0286593
0.0536607
0.0256545
5.11065
0.0297474
0.0251308
0.0330065
0.0254243
0.0256591
2.99157
0.0253878
0.0255401
0.0252881
0.136769
0.0254862
0.036613
0.0774613
0.260496
0.128498
0.0256384
0.271828
0.530005
0.247495
0.0943094
0.0308531
0.167423
4.76327
0.716056
0.0256794
7.68584
4.2906
0.0256786
0.027229
0.024821
0.745935
0.117674
0.0251802
1.33636
4.22711
0.0250441
0.0254581
3.96338
4.25268
0.0710542
0.0248338
11.3209
3.42648
3.29378
0.0253342
4.17377
0.0892895
0.0797875
4.46971
0.0292675
0.0248365
0.0332353
0.210742
0.0351315
4.16377
4.59868
0.0250343
6.58231
0.582337
4.63813
0.0249137
0.0573425
0.025523
0.0251732
4.15481
2.73806
0.307869
3.99233
0.0327628
0.0551675
0.0254655
4.79875
5.95662
0.0253495
0.0254202
0.0357236
0.0249424
0.0548647
4.47709
7.58202
0.0557384
0.0256167
0.0252725
4.15217
0.0281239
0.0570643
0.0250083
0.0261451
0.798234
3.0352
0.359721
2.9831
0.0255286
0.329244
0.0255559
0.0537357
9.77252
6.97301
0.025395
0.0256918
0.0388462
0.0289038
0.0254377
4.38276
4.19724
0.0249597
0.0246267
0.0255552
0.025258
2.74388
0.0248847
4.07183
0.111439
0.0693192
0.0250544
0.053992
4.76535
0.0367497
0.507541
5.81638
0.0254735
7.09995
0.0371812
0.0400295
0.408138
7.21966
4.70573
0.065358
0.0251529
0.287977
0.0248982
0.0284373
0.0254542
4.0362
0.0355889
2.87106
0.320003
0.0527884
0.0254672
0.326467
0.029996
0.0256607
0.28651
0.0247613
0.0412724
0.0373651
0.0254218
9.83797
0.0265214
0.600251
0.0260212
0.0252136
5.55673
3.79886
0.0272776
0.0365548
0.0424026
0.0652681
0.0631341
0.0293135
0.0290267
0.0282965
0.228928
0.028176
4.1005
0.0672302
0.310468
0.125766
0.0257661
4.52657
0.0247778
4.58168
0.0273735
4.41114
6.2393
9.18874
7.70996
0.340851
0.086394
0.025152
4.32126
0.096451
0.0253347
7.98483
5.67998
0.0264628
0.0268354
0.0340171
0.0340228
0.0355102
5.25325
0.0256789
0.0330032
0.0383273
0.0361605
0.0255203
0.0910892
0.0247638
4.19803
0.0268264
0.147267
0.0351301
0.0429542
0.139268
3.14932
0.0959879
0.0250582
0.276238
4.35431
22.4706
0.0255164
4.16744
0.0321178
1.84404
0.0253779
0.0276493
3.92105
0.0562656
5.13559
7.40108
0.03749
5.02699
0.0251975
0.0247481
8.90374
0.0664806
0.0275759
5.3145
0.0301326
0.0514237
0.032927
0.0797131
0.0253393
5.78596
5.22689
7.14517
0.315858
0.0286396
0.0643275
5.10453
0.0271884
0.0255337
0.0933157
0.024871
0.332949
7.70016
6.40132
5.33682
0.0599264
0.0255799
4.19152
0.0247551
0.0789895
0.0256137
23.8554
0.0269248
0.0533846
3.84347
0.128694
0.0253382
0.0360501
8.92226
0.0253463
0.152447
0.0249844
9.57211
4.32857
0.119742
0.0919468
0.0252372
0.22281
0.144631
0.0427462
0.0249915
0.0256107
0.0254964
0.0588845
0.0254657
0.0919449
0.0253801
0.0249805
6.71487
0.025058
0.0300259
0.0281557
0.0256663
3.76204
0.0250628
0.037928
4.04243
0.0526715
3.99354
0.0253325
4.59069
0.0554666
5.07978
0.0267041
0.132532
0.0252969
0.0442633
0.129756
0.11914
0.280599
4.15677
0.23974
2.00477
0.0303376
0.117293
0.0471316
0.859161
0.0282049
0.0252448
0.0253091
0.0558672
0.0521672
2.04831
0.0578011
4.65497
6.90658
0.113853
0.0252487
4.20404
0.226476
0.0256905
0.027232
0.0253346
4.9219
0.0253179
8.22297
0.0250469
0.0301581
4.92905
0.0888326
0.0253508
0.0253063
7.86038
0.0250823
0.0272011
0.0283355
0.0363901
0.0308784
0.0253721
0.161429
0.0917265
0.0493439
0.358659
4.49311
3.7566
6.18004
0.02494
0.0252597
0.115535
0.025591
0.0527627
4.12323
3.87286
0.02483
0.0253446
3.57878
0.395729
0.0248495
0.0250575
0.0298822
13.0052
4.2329
0.0297328
0.0377457
0.0255667
0.407173
0.132284
0.159087
0.0356258
0.0498114
0.0256351
0.0418624
0.345836
0.0259714
0.0253142
0.0295322
4.59798
0.0283234
7.44954
0.0254446
3.8962
0.0410455
0.0315126
0.0250016
0.0251998
0.881234
7.92081
0.0654058
4.28068
9.61032
0.0257399
4.05255
0.152088
0.0250845
4.71626
0.333584
0.120245
0.0256386
3.64585
4.58494
0.0251027
0.0446191
4.35963
0.0507591
0.0252956
0.024976
0.0255522
0.0270002
0.0906063
0.330643
0.0869799
0.0867982
0.0248993
0.025421
4.62199
0.0250473
0.0547036
0.0299013
0.0252463
0.0552634
0.0253309
0.0268758
0.366203
0.0253002
4.51432
0.0253225
15.2012
3.82801
0.102143
0.0254496
0.0256904
4.22602
0.0248173
0.0273298
0.0255676
0.375683
1.26414
0.037029
3.79639
0.047043
1.30169
0.0257489
0.0741419
0.0249447
0.0254879
5.14843
3.8258
1.52689
0.0269174
0.0742328
0.0741428
4.80941
4.09589
0.344623
0.0433749
0.0247495
4.18866
0.0250826
0.0251473
0.31968
0.11974
0.031751
0.225437
0.0532766
0.0353985
0.0308975
5.23992
0.0274901
0.0252921
6.92567
0.0533427
0.0248997
3.59564
0.0253467
0.0254505
0.172783
0.171304
12.1028
0.0249226
0.0279313
0.0251771
2.27878
0.0250831
0.615048
4.24168
3.75323
3.56088
33.24
0.0339957
4.50215
0.912824
0.0255803
0.0343579
0.0491688
0.0341222
1.27881
4.21383
4.5173
3.75921
2.44835
0.0253934
0.111278
0.025357
4.91519
0.031867
0.026257
0.0272331
0.0258406
0.0251108
0.112205
4.51986
0.0249241
0.0267773
0.0251218
4.62053
0.0266271
5.74317
3.94911
1.43461
0.0254256
0.0251185
4.56245
0.43966
0.025487
0.342883
0.0256045
0.158937
0.21171
0.102458
0.0555306
10.7494
0.0250063
0.0249428
0.227527
3.47824
0.0326623
0.0530759
0.0251914
8.68604
0.0253061
0.0252362
0.0262918
0.0252643
5.21397
4.12662
1.70776
0.0654653
4.25015
0.49669
0.0248399
0.0343182
0.0248846
1.30981
0.0251473
0.027987
0.0252781
0.0251939
0.024943
2.93
0.0259283
1.76292
0.0247161
0.0364683
0.0260202
1.60291
0.0253625
0.0347862
0.0383974
0.0793089
6.90276
0.0251878
4.32228
0.077508
0.0514209
0.025065
0.0252253
3.64654
16.4947
0.0251618
0.0250668
0.2954
0.244623
0.0426459
4.00265
0.02594
0.559455
0.0345079
0.0248996
5.49407
0.0261162
4.13193
0.0253119
0.0258349
0.0254626
4.35433
3.72983
0.0248572
0.278533
0.247119
0.0253828
0.0250484
0.0251466
0.293875
4.04046
0.072766
0.0273478
0.0435865
0.0253396
0.0253127
0.0268199
0.0253079
0.193992
0.0253259
0.0687284
0.696147
0.039667
0.0247894
3.91975
0.0793063
0.0253521
0.0912575
0.0338109
1.52472
0.027681
10.1408
0.0629839
0.0252286
0.0969354
0.0958882
0.0277922
6.17676
0.0648663
0.0330134
2.03238
0.0251766
0.170829
0.0993464
0.14414
0.0252199
0.0252336
0.0248134
0.0369765
0.0602387
0.0588204
6.519
4.71269
3.99545
0.0256556
1.94366
3.91471
4.21595
0.0252774
0.0252559
0.0580456
4.31326
0.0273196
0.0385323
32.4881
5.14903
16.9034
0.128276
0.179598
3.55218
0.43468
0.0247615
11.8896
0.29205
0.0254867
0.025486
0.0259657
4.7909
0.107828
5.25491
0.0271274
8.8547
0.0253074
1.06302
3.93459
0.0254412
0.0373622
4.29338
4.68837
0.061681
0.0260002
0.0268779
0.0256113
0.258097
0.129852
2.9871
4.13564
0.0249377
5.38123
0.187913
0.68639
0.0253416
0.0255211
1.63513
0.293529
0.0252178
0.0553934
0.0820636
0.0439268
4.14524
4.61242
4.80029
4.12951
0.0285844
0.0248199
0.0741207
4.59518
10.2295
0.0251064
0.312486
0.100982
0.496452
0.0255866
0.0256418
1.27127
3.68743
7.05731
1.72817
4.26287
0.0252424
0.273105
4.12128
0.0254764
0.0701183
0.115793
0.0248674
0.172426
4.85515
0.282033
0.0256405
5.29072
0.125421
27.2157
0.0246343
0.0267447
0.0253538
0.0262384
0.0253246
0.0609743
0.0454792
0.0479116
0.372399
0.037018
4.28467
0.0284555
0.0321266
0.0313051
9.11764
0.0649841
5.06439
0.0313289
0.0312864
19.5963
0.108933
0.0253381
0.047708
3.57091
5.29036
0.34593
0.025218
0.0251527
0.0251559
0.91087
0.0263169
2.51761
1.36828
0.296614
0.0354187
0.287231
5.64981
0.0253265
7.3903
0.0377613
0.0573172
0.025153
0.0250741
0.0586095
4.40948
0.0254087
5.03578
0.566044
0.111546
0.211026
0.0250889
0.0253326
0.0331836
0.0260258
25.3057
24.7339
0.0956199
0.885605
0.0251977
0.0252716
0.0253483
0.0256279
7.63331
0.0263277
4.56594
0.0978653
0.0256147
0.432124
2.99073
3.62063
8.74129
0.0266562
0.0249249
0.0254747
0.0265901
0.789629
0.272665
6.02714
0.0255079
0.025555
0.181867
0.0256472
0.208286
0.0268624
0.170861
0.19461
0.0465605
0.0450021
0.0249124
0.0517307
0.0431523
0.239148
0.0913814
0.0478977
0.0251249
0.277513
0.0251251
3.45587
3.8725
0.982142
0.025333
0.122685
0.0252734
0.0536165
0.0261132
0.0258209
0.0316996
9.05925
4.24078
0.089008
0.053559
0.258187
0.0889291
4.12011
4.30893
0.034789
4.24553
0.392858
0.0250539
0.0636214
4.29477
0.10879
0.0256149
0.0598934
2.30789
0.40867
8.4983
0.0253105
0.853423
0.0254263
0.0251888
0.0458483
0.411999
0.0256519
4.31591
5.2221
0.219004
11.0652
0.426033
4.88659
0.354984
0.0249159
0.0279527
0.024798
0.0483052
0.313792
0.43268
0.0275152
0.0471471
0.0247749
4.44026
0.0419217
0.0526457
4.24097
0.111731
6.67347
4.86188
0.025224
6.9062
0.025455
0.0318365
0.052976
4.04217
0.161267
0.0312742
0.0263159
0.636643
0.0379783
4.41572
5.93621
0.0355991
3.40754
0.0492032
0.0256641
1.20383
0.0704549
0.0261913
9.25325
15.0803
0.0332033
0.0292684
0.140343
6.03429
0.0252224
0.0253905
0.024852
0.0249651
0.0255589
4.85027
0.0354317
3.98729
0.0252429
0.0251007
0.885395
0.0253492
0.0266461
0.025376
0.0253309
1.74838
0.0249372
4.80693
0.02515
0.0262031
0.0467537
0.0254229
0.163018
0.0249506
0.0256535
0.0249796
0.0309884
0.100492
0.0276106
3.85567
0.0251702
0.0490782
0.033028
4.29165
0.0259557
0.0256583
0.024834
0.0248572
0.430973
0.0251518
0.0250781
0.0277311
2.30579
0.0252148
0.0482429
0.0367152
0.0252689
4.8484
6.60243
0.327748
4.91914
0.0279608
0.118684
0.025404
0.111866
0.373871
0.0254536
1.96857
0.140858
4.60727
0.034531
0.0253343
1.62923
0.0489763
0.863115
5.04239
0.0247014
0.0252556
7.62531
3.40857
0.0646454
0.0640327
0.0262173
10.4085
5.75795
0.0246384
0.0252521
0.0252746
0.0255318
0.0256308
0.0253296
0.0399314
4.24384
0.0347638
0.0254384
0.475757
0.0252796
0.892734
0.0521244
0.025213
0.0307637
0.0251772
0.406433
0.0280349
0.0570659
0.0252272
0.0254313
4.54759
4.96709
0.0255358
0.056017
0.0499119
0.0347846
0.0270884
0.0256618
0.0258941
1.70755
0.612375
0.0439304
4.91545
0.0256306
24.0813
0.112393
0.0290749
17.3916
0.0262569
4.32912
5.33223
3.59202
4.25365
4.14232
3.91758
0.0247785
0.0304887
0.0279011
0.0247858
0.0248949
0.0324896
0.0859738
0.0249517
0.0330172
0.129197
0.0854372
0.34216
0.217029
0.0371488
1.89281
9.53872
0.03806
0.0280491
0.138079
8.63176
3.91858
0.0286896
0.0247623
0.0250957
0.0249693
0.0351876
3.91379
0.407621
0.0248881
4.68163
0.0252733
0.149026
4.2357
0.0927058
0.215518
0.100898
0.369045
0.026027
0.0373243
0.0251094
0.26832
0.0252272
0.0261236
0.0365423
0.161688
0.0255361
0.0276041
5.60084
0.0250573
0.0252231
0.0326455
5.66001
0.127731
0.559458
0.0429385
0.0255004
3.46188
0.0417811
0.0264386
0.0253069
0.0343286
0.0298095
0.0253181
0.0311583
4.55635
0.0267095
0.0248111
0.0526103
0.0251344
0.0355626
0.0338472
0.0253866
0.0252919
4.7295
0.0249055
0.0253363
0.0248284
0.0288932
0.0245949
4.93402
0.0290674
0.237675
0.0252486
0.0250762
0.0252002
4.38226
0.071003
0.0253269
0.0247409
5.55848
0.0282337
0.0722665
0.0251068
0.163225
0.0265193
0.0247028
4.1965
0.024906
0.0254973
0.0254967
0.0251449
0.0272992
0.0254683
0.0253472
1.69027
1.57375
4.69261
0.220512
8.2652
0.0250743
4.7678
0.0252564
4.21951
7.83057
0.0250299
10.2091
0.0252726
4.22278
11.5377
0.296153
4.16814
4.05159
0.888075
1.36306
6.02679
5.19876
0.0487796
0.0460995
4.70707
0.0266738
0.0248351
1.28212
0.0270025
0.0317317
11.8356
0.0261345
0.392127
3.77951
6.50841
0.416891
0.123837
0.0256359
0.0317018
0.0540144
0.0254383
7.01626
0.395263
0.120962
0.025148
0.0253935
7.99657
0.0248705
0.78997
0.0250335
9.05109
4.5478
0.0387268
0.0292561
0.0252565
10.17
4.08815
0.028587
0.0376937
0.025681
0.0256807
0.0631649
0.0263527
0.0359824
0.075321
0.0273978
0.0362344
0.0253417
0.0360226
15.0282
0.0256563
10.7289
0.0251372
3.37439
0.0612639
0.0253458
10.0171
0.132769
0.0250833
0.17443
0.0253326
0.32463
0.0254408
0.0253033
4.01992
0.0254954
0.11469
0.0265143
0.145898
0.0250382
0.025561
0.0251089
0.0337605
0.0273838
0.0255217
0.025806
0.0284851
0.0256661
0.131177
0.0726791
0.0330442
0.0265349
0.0247618
2.4016
8.71127
0.0259759
0.0257462
0.0258575
0.0424887
0.0254197
0.0392819
0.0247161
0.0256803
0.242335
0.0265161
0.0256795
0.0251635
4.89358
10.8033
0.0247569
0.0808102
0.0656592
0.262141
0.221813
7.02128
4.44219
0.714151
0.0260641
0.144914
0.025204
0.0352289
7.03519
4.51076
0.151679
0.0270881
15.2403
0.0253528
0.0526082
0.445568
0.0254612
0.143989
0.0265948
0.0263962
0.0841941
0.155612
3.89916
3.51665
0.0250145
0.0247456
4.88452
3.88887
0.0254683
0.0325971
0.129552
0.025336
0.0253201
0.0272318
1.33516
0.0249826
4.32267
0.0331539
0.0253935
0.223087
0.0805344
0.0747945
0.129467
4.96586
0.0275712
0.0380605
0.0309252
0.0269204
9.50088
0.0350435
4.18531
4.20574
0.075333
4.28744
0.0522524
0.0539643
0.38335
0.0249196
4.40793
0.0986184
0.0378056
0.0326566
0.0255375
0.0248202
4.19441
0.0487804
4.3279
4.29411
0.0254534
4.29114
0.0250764
0.0252183
0.0322662
11.1868
0.0807983
0.0248147
4.02753
0.0252573
0.0269504
4.12825
0.0268102
3.59666
0.0256636
4.52095
3.22699
0.076955
2.8462
0.0265535
3.61686
0.024756
5.45356
4.86923
4.50157
5.11085
0.0252274
0.0249982
0.267036
3.93077
3.64063
3.90275
3.87933
0.0253444
5.00427
3.60187
0.0256303
5.15564
0.035409
0.0367011
12.0873
0.0429123
4.45174
0.0251374
0.0424872
0.037962
0.228361
6.19312
0.0414163
3.71005
4.46171
0.0255298
0.0277725
0.0269446
0.0279557
3.64876
0.0253141
0.02497
0.0441238
3.90376
4.1052
0.0314336
3.9473
4.30796
0.0252218
8.45119
4.735
0.184458
4.06976
0.0749992
0.0275232
0.0255307
0.175797
0.0296141
0.0904809
9.85698
4.63182
0.0325692
0.0791517
0.0289446
0.0425162
0.0248333
0.0455192
0.0278308
0.101612
4.60084
7.04708
3.90557
0.0248062
0.140626
0.0684948
4.28273
0.0264119
4.75772
4.70422
4.31501
0.0252694
0.194393
4.63281
10.7324
7.30025
0.0410475
5.52632
4.27738
0.0679727
0.0737121
0.027218
0.0327919
4.87017
0.0509258
0.0255486
3.48795
0.0252258
0.0254371
0.130658
0.130455
0.0249813
0.102087
0.0278422
3.88276