/*--------------------------------*- C++ -*----------------------------------*\
| =========                 |                                                 |
| \\      /  F ield         | OpenFOAM: The Open Source CFD Toolbox           |
|  \\    /   O peration     | Version:  v2012                                 |
|   \\  /    A nd           | Website:  www.openfoam.com                      |
|    \\/     M anipulation  |                                                 |
\*---------------------------------------------------------------------------*/
FoamFile
{
    version     2.0;
    format      ascii;
    class       volScalarField;
    location    "100";
    object      p;
}
// * * * * * * * * * * * * * * * * * * * * * * * * * * * * * * * * * * * * * //

dimensions      [0 2 -2 0 0 0 0];


internalField   nonuniform List<scalar> 
13917
(
-0.0805507
0.0012021
-0.10059
-0.0315778
0.0285757
0.458208
-0.0926502
-0.108497
-0.169626
-0.133586
-0.0949085
-0.0659626
-0.0320052
-0.11253
0.0492266
0.0267773
0.00746392
-0.119165
-0.0649679
0.0127328
0.0218882
-0.0877098
0.0173754
-0.114145
0.0283873
-0.0780592
0.217685
0.231285
0.0979411
-0.189366
-0.0952327
-0.0395157
0.172374
0.109891
0.0328998
-0.0927193
0.0173964
-0.114758
-0.0376359
-0.04561
0.0031374
0.0206384
-0.00697107
0.258122
-0.0181261
0.126823
-0.116465
-0.118253
0.510887
0.00781899
-0.0614729
0.0588585
0.513848
0.114064
0.00882209
-0.0624682
-0.095714
0.0276679
-0.0485633
-0.0169082
-0.387756
-0.000291449
-0.111629
0.0128612
0.449413
-0.377596
0.0292976
0.0365216
-0.13079
-0.0468242
0.0281761
-0.168567
-0.196645
0.0276844
0.497524
-0.0572226
-0.159953
-0.031703
-0.0655266
0.0216775
0.0188772
0.0287693
0.435233
-0.115376
-0.401149
-0.0307501
0.0169395
-0.336073
-0.0597798
-0.00727187
-0.162607
-0.172233
-0.00394695
0.0499719
-0.36829
0.450784
-0.108011
-0.119414
-0.0643706
0.331686
0.00162176
0.1676
0.26657
-0.0386645
-0.00094763
-0.177609
0.0676359
-0.120824
0.00566778
-0.0972113
-0.32693
-0.0468014
-0.0680542
-0.174324
0.075196
0.512964
0.0195578
0.500549
-0.0841054
0.113049
0.0207153
-0.131557
-0.0934623
0.224983
0.00633515
0.0485184
-0.0136149
0.0065554
-0.00514309
0.458517
-0.0928482
0.0728874
-0.0183431
0.0221579
-0.256514
-0.111182
-0.0779621
0.346121
0.0296314
0.11215
-0.0947211
-0.00770892
0.0618614
0.292704
0.0371393
-0.162707
0.0395268
0.0570892
-0.0071427
-0.0348202
-0.0921656
0.507964
-0.0882552
-0.0146307
-0.0548576
-0.403238
-0.0419992
-0.118849
-0.160216
-0.266199
0.0827326
0.216409
0.0194969
-0.106269
-0.0687002
-0.0651954
-0.0378033
-0.104638
-0.0126532
0.172946
-0.0347366
-0.357641
-0.0652811
0.0102488
-0.141972
-0.0075716
-0.0904108
0.507732
-0.157313
0.00763363
-0.178152
-0.100845
-0.00825394
0.0171752
0.0813633
-0.0811689
-0.276297
-0.399776
-0.0948921
-0.0736981
-0.107405
-0.401028
-0.272806
0.0209544
0.36347
0.209639
-0.000401712
-0.00391778
0.0494849
-0.337612
-0.0516606
0.00808701
-0.0977278
-0.0904883
-0.195138
-0.20202
0.0325771
0.0285204
-0.116501
-0.0888486
0.0598212
-0.0942943
-0.196204
-0.0746026
-0.000579296
0.318713
-0.108567
-0.304962
0.0172961
-0.380234
0.00779667
-0.177443
0.00354962
-0.121184
-0.184215
0.0260353
-0.286581
-0.0579088
-2.04015e-05
-0.0916139
-0.0639824
-0.0932683
-0.101825
-0.19834
2.89889e-05
-0.0428058
-0.163433
-0.40555
0.0199172
0.00839286
-0.0397583
-0.113182
0.0109477
-0.0847739
-0.156388
0.208848
-0.0762958
0.0191954
0.0266832
-0.181375
-0.0209346
-0.200552
0.347508
-0.0135384
0.0282794
-0.0824124
-0.0434409
-0.0873067
0.0800777
0.045718
0.0112146
-0.092374
-0.268157
-0.0746212
0.000477448
-0.234236
-0.117159
-0.121209
-0.0608653
-0.0575723
0.0192579
0.0053136
-0.115449
-0.13383
-0.141154
-0.0469006
-0.205434
-0.0513925
-0.00510042
-0.330136
0.011663
-0.139937
-0.0499577
0.0108996
0.0203551
-0.00948721
0.216752
-0.0862517
0.0190174
-0.0230956
-0.253607
-0.100755
-0.262485
0.0175671
-0.125697
0.0265302
-0.023138
0.0191796
0.00623324
0.00958246
-0.183102
-0.0716051
-0.0124337
-0.0977141
-0.0152321
0.517543
-0.00588486
-0.165519
-0.0121483
0.0275021
-0.334229
-0.0982555
0.0192563
0.00452363
-0.336753
0.00383331
-0.193954
-0.0114258
-0.122494
-0.0252086
-0.254026
-0.0770981
0.478786
0.0791212
-0.262416
0.351977
0.0181177
-0.115041
-0.0640898
0.0276213
-0.100909
0.359363
-0.117695
0.09985
-0.0648013
-0.048986
-0.377206
0.347684
0.0414754
0.029536
-0.0996576
0.02279
-0.0411522
-0.328902
0.0415263
0.0209767
-0.113387
0.0440779
0.00536129
-0.106859
0.133214
0.00325634
-0.0835171
-0.0989058
0.0117564
0.00635818
0.0263479
-0.00750646
-0.246884
-0.151253
0.407944
-0.336784
0.0242384
-0.208026
-0.398086
-0.0878257
-0.0922053
-0.135528
-0.181086
-0.000419069
-0.0739296
0.00485232
-0.379767
-0.0160241
0.46897
-0.159726
-0.0405877
0.0231583
-0.113911
-0.185147
-0.135927
-0.0827175
-0.374834
-0.306031
0.0210044
-0.125899
0.00854055
-0.406645
-0.0859323
0.0233854
-0.256797
0.0278197
-0.20213
-0.0253317
0.0227452
-0.0105763
-0.0470268
-0.0088211
-0.0449211
-0.387404
-0.0872272
0.386442
0.0257903
0.33522
0.368892
0.0156899
0.0740135
0.0400729
0.0291519
-0.188377
0.0112909
0.0298458
0.00454144
-0.242482
0.0216464
-0.0663105
-0.0526197
-0.389313
-0.268358
-0.0571519
-0.279062
-0.0857876
0.0237479
-0.195721
-0.0375135
-0.0481642
0.0210037
-0.151782
-0.0894332
-0.0556624
0.0380405
-0.15975
0.0965691
-0.0386138
-0.133546
0.00347837
-0.0724102
0.0045631
0.00965486
-0.195177
-0.0899768
-0.0890044
-0.190912
-0.389801
-0.101181
-0.279771
-0.141502
-0.004474
-0.116454
0.00162986
0.0310848
-0.20715
-0.117663
-0.0064226
-0.140973
-0.0871125
-0.135047
0.0155934
-0.122307
-0.387418
-0.286774
-0.0716996
0.0219574
0.024595
-0.000699548
-0.0366927
-0.000475326
-0.0753702
0.415765
0.017091
-0.405151
-0.0615913
-0.104667
-0.281128
0.03083
-0.0856693
-0.096154
-0.121742
-0.1406
-0.179843
-0.0689484
-0.0800084
0.448127
-0.064029
-0.119314
-0.00278033
-0.238076
-0.0647807
-0.0130499
-0.0319516
-0.0338312
-0.137828
-0.178857
0.00429238
-0.00497565
-0.0867153
-0.280167
0.011116
-0.0705932
-0.0343795
-0.250199
0.00537397
-0.214393
-0.147004
-0.0376257
-0.0153316
-0.0574164
-0.265101
-0.406287
0.0114123
-0.190121
0.513925
-0.341354
-0.0131412
-0.403387
-0.2624
-0.0856174
0.00576781
0.0137545
-0.0544899
-0.203417
-0.00655785
0.00657643
0.00663585
0.00638061
-0.232181
-0.210607
-0.0851411
-0.272529
0.00511612
0.00197074
-0.1556
-0.219933
-0.0848936
-0.0135957
0.0286989
0.0323572
-0.33595
-0.39967
0.0155071
0.0323138
-0.0734576
-0.0696075
-0.0760372
0.0257217
-0.00633057
-0.0231165
-0.116798
-0.0453495
-0.280189
-0.196846
-0.139669
-0.197876
-0.1638
0.0186522
-0.184076
0.0319982
0.0201884
-0.0428026
-0.233786
-0.00704317
0.00200851
-0.284447
-0.199495
-0.382629
-0.141702
0.1229
-0.0894482
0.0234083
-0.263439
-0.26723
-0.10595
0.0049855
-0.0732432
-0.277361
-0.136618
-0.234337
-0.121993
-0.199925
0.0307552
-0.0337721
0.0269102
0.104379
0.285344
0.0505629
-0.105884
0.35042
-0.106093
-0.406816
-0.00910187
-0.103008
-0.14636
0.0152914
0.0562184
0.357924
-0.201805
-0.146863
-0.265048
-0.00502225
-0.0851087
-0.0557356
0.00199874
-0.0732978
-0.101439
0.164438
-0.184656
-0.0666408
-0.176113
-0.0652472
-0.258884
-0.0359126
-0.14266
0.0202571
0.0156787
-0.124744
-0.198084
0.425604
-0.0363934
0.00874126
0.0318892
-0.0526219
0.506986
-0.0645676
-0.036035
-0.0853879
-0.111189
0.00582213
-0.271226
-0.0629086
-0.06157
0.0152518
-0.170291
-0.033137
-0.386906
-0.139352
-0.0153404
-0.0744469
0.00409504
-0.0115021
-0.0146771
-0.000908493
0.128205
-0.255421
0.103356
-0.104915
0.00366482
-0.182281
0.419759
-0.0985926
-0.0204142
0.119336
0.00714093
-0.0507851
-0.0508423
-0.263398
0.0220648
-0.318349
-0.052168
-0.0928645
-0.171207
-0.205985
-0.0377491
0.0141429
-0.140633
-0.236025
0.01587
-0.0417645
-0.158463
-0.258145
-0.138137
0.0109701
-0.0165253
-0.236702
-0.0411295
-0.136161
-0.0817209
-0.0119889
-0.0882298
-0.104898
-0.0199042
-0.0299626
0.00720758
-0.0962463
0.0225255
0.0380985
-0.361946
0.0296924
-0.196507
-0.0537458
0.176425
0.0069332
-0.0190404
0.0195248
-0.139353
0.00426242
-0.0938809
-0.0341605
-0.380437
0.202807
-0.223246
9.80041e-05
0.0231255
-0.156921
-0.111985
-0.109939
-0.195142
-0.121144
0.0313738
-0.236206
0.443109
-0.0623863
-0.250884
-0.110313
-0.0599921
-0.071384
-0.0509885
-0.194178
0.0707149
-0.119317
0.439275
-0.120294
-0.0350844
-0.103101
0.0138928
-0.0154708
-0.0506449
-0.0984611
-0.0303983
0.0216202
0.004809
-0.108203
-0.0397398
-0.139267
0.0306481
0.0287081
0.0227577
-0.0016102
-0.00875962
-0.0275452
0.00775996
-0.215663
-0.0627222
0.371104
0.000617305
0.0169338
0.193295
-0.14445
0.0700677
-0.330524
-0.136353
-0.373051
-0.05213
-0.166975
-0.0296336
0.0200682
0.00605682
-0.0135193
-0.386108
0.0166399
-0.19675
-0.0284831
-0.399475
0.0330789
-0.143802
-0.0915216
-0.00637214
0.0110285
-0.0640525
0.036678
0.038487
-0.315723
0.00926798
0.0263631
-0.0637333
0.00749544
-0.00407264
-0.0368058
0.131907
-0.109336
-0.0637506
-0.0198569
0.00275424
-0.13727
0.00875978
0.0207138
0.0039746
-0.32167
-0.152163
-0.330074
0.116642
-0.0360094
0.000406796
-0.0042309
-0.0656334
-0.0685026
-0.111579
0.10325
-0.102439
-0.00664105
0.0581607
-0.333909
0.0281562
-0.0658004
0.0167712
0.00926524
-0.0912614
0.22419
-0.0272972
-0.186961
-0.0496805
-0.175103
0.0183484
-0.00985011
-0.0711742
-0.202299
0.011513
-0.186719
-0.00953721
-0.0939009
-0.0156029
-0.016239
-0.209086
-0.0199308
-0.048916
-0.0969985
0.0232769
-0.00652044
0.0431695
0.00909518
-0.029644
0.252677
-0.0191177
-0.0131735
-0.143266
-0.158297
-0.0665721
-0.106092
-0.127661
-0.0534254
-0.00740204
0.129849
-0.191622
-0.104603
0.0252285
-0.0141198
-0.189769
-0.0908038
-0.341293
0.0230767
0.0722782
-0.0985108
-0.0825878
-0.0292635
-0.398511
0.474581
0.00858025
-0.189539
0.00579029
-0.0190136
0.000429934
-0.231407
-0.00851578
-0.0187215
-0.00795354
-0.0477502
-0.0372824
-0.254841
0.272249
-0.016681
0.167483
0.0149079
-0.339887
0.0100141
-0.0195953
0.0262761
-0.0721033
0.026449
-0.174169
-0.0438418
-0.101822
0.115405
-0.100528
-0.366113
0.026144
-0.0855267
-0.396856
-0.364473
-0.0596788
-0.14237
-0.391641
-0.17908
0.012034
-0.0660253
-0.0819912
-0.0884745
-0.0126082
-0.00485826
0.0192505
0.0151125
-0.0581895
0.124349
-0.10043
-0.00491694
0.0310131
-0.403714
-0.0460085
0.042963
0.192396
-0.0715958
-0.0238542
0.140769
0.197135
0.0709908
-0.0377615
-0.0486183
-0.337235
0.499048
-0.0153481
-0.261848
-0.194557
-0.395437
-0.187787
-0.0615024
0.0042642
-0.0305288
-0.00525909
-0.00654567
-0.00445737
-0.00443055
-0.0249554
-0.0673061
-0.404755
-0.125792
-0.0191471
-0.16294
-0.27163
-0.0868398
0.051929
-0.148809
-0.0114362
0.0375348
0.188525
-0.405428
0.0264126
0.0159367
-0.0956168
-0.10069
-0.14041
-0.140654
-0.0945409
0.0109536
-0.191626
0.0527888
0.0132968
0.0550015
-0.0756146
-0.329445
-0.0142045
-0.00684837
0.0169549
-0.154885
-0.000613202
-0.0745156
0.0357951
0.00611793
-0.191549
-0.0171853
-0.142593
-0.157283
-0.0865692
-0.0124389
-0.0769544
-0.00914772
-0.212104
-0.267447
0.0290085
-0.330376
-0.130453
0.47868
0.0265438
-0.0480533
0.0251507
-0.0608025
-0.0806476
-0.142122
-0.0877898
-0.0637278
-0.0613938
-0.211498
0.00343948
-0.172423
-0.0162643
0.0111636
-0.099677
0.0305405
0.025142
-0.0151741
-0.0221523
-0.403571
-0.00551545
0.0177189
-0.090088
-0.113829
-0.100904
0.445634
-0.0589897
-0.393131
-0.0541544
-0.088626
-0.0497078
-0.142629
-0.0682704
-0.3895
-0.0740946
-0.0506104
-0.0173903
-0.0463765
-0.0631656
0.0565238
-0.164479
-0.0873191
-0.0269556
-0.0594728
-0.0231541
-0.0827437
0.0118088
-0.107783
0.306837
0.00539131
-0.140602
-0.0147966
0.0311284
0.0040793
0.115449
-0.119185
-0.0410164
-0.0242022
-0.0141109
0.297281
-0.154939
-0.187697
0.0298038
-0.00348137
-0.107697
0.0178011
-0.175341
-0.157188
-0.0268856
-0.157207
-0.014376
-0.370463
0.0547475
-0.0633294
-0.114506
-0.166132
0.0125201
0.0144765
-0.0431748
0.0129812
0.00810113
-0.39433
-0.232951
0.0929783
-0.0582802
0.0123643
-0.024038
-0.0790709
-0.0149754
-0.00610776
-0.138479
-0.0157966
-0.12777
0.0188591
-0.00562817
0.0225556
-0.0602404
-0.0717352
0.0398742
0.030683
0.0112395
0.0419826
0.00914267
0.427794
-0.136422
0.011651
-0.148285
0.0244024
-0.176113
-0.101086
0.400522
-0.0136843
0.049847
0.0184484
0.0815949
0.0539563
-0.074389
-0.352872
0.0765951
-0.0979905
0.492969
-0.105669
-0.0586358
-0.0309941
0.433388
-0.0885661
0.0228681
-0.322505
-0.115043
-0.071491
0.0345877
-0.138569
0.22533
-0.0127404
-0.0397708
-0.392157
-0.0199124
0.00365609
-0.0273645
-0.18023
-0.0723053
-0.126048
0.00192818
-0.21158
-0.054645
-0.0554104
-0.17472
-0.266155
-0.0688884
-0.0136555
0.00648527
-0.100628
0.0170582
0.0739977
-0.00249418
-0.00849932
-0.00747642
0.0852735
-0.0786968
0.454621
0.131791
0.264274
-0.0557829
-0.0597184
-0.00982301
-0.150317
-0.0682546
-0.00684517
0.00752764
-0.0768762
-0.386955
0.025155
-0.142562
-0.14459
-0.0723698
0.0402619
-0.0345191
-0.0170744
-0.166992
-0.0133385
0.00749244
-0.380078
-0.0621174
0.0228066
-0.190191
-0.0707607
-0.354074
0.0272858
-0.055208
-0.0789589
-0.179847
-0.0627184
0.252763
-0.0452208
0.0198378
-0.0205198
-0.000903372
0.0349041
0.0634426
-0.0400953
0.0138906
-0.096199
0.00775187
-0.0662173
-0.0155505
-0.14445
-0.0837408
-0.309711
0.0255269
-0.269757
-0.0203313
-0.0892624
0.0282572
0.108775
0.0250356
-0.112541
-0.208072
-0.0649257
0.0131706
-0.128117
0.0111383
-0.0501697
-0.207481
-0.0175675
0.0559597
-0.109559
-0.0731217
-0.0957709
0.0145399
0.0367973
-0.0308113
0.0212319
0.129641
0.0104355
-0.000923696
0.0705739
-0.179901
-0.0316821
-0.111507
-0.148903
-0.12198
-0.07119
-0.0293354
-0.000736324
0.0428123
-0.244229
-0.0340692
-0.0140077
-0.0794103
-0.32016
0.00730421
-0.387969
-0.143366
-0.140156
-0.00694999
-0.00600252
-0.0606141
0.0549457
0.0236993
0.174292
-0.012088
0.0841558
-0.0551546
-0.0840183
0.436274
-0.088551
-0.038021
-0.0929327
-0.0537731
-0.0396383
-0.06739
0.18241
-0.393839
-0.0979222
-0.396445
0.0882494
-0.362954
-0.387913
-0.0134097
0.0120709
0.00954089
-0.0306928
-0.106505
-0.0159819
0.089191
-0.0590347
-0.0363526
0.0801132
-0.165668
0.129573
-0.04678
-0.162208
-0.0286663
-0.0729571
-0.0422682
0.114033
0.00606415
-0.221674
-0.349529
0.010164
-0.0323474
-0.0469766
0.127028
-0.405608
0.00860021
-0.0164383
-0.105395
-0.0334283
0.159867
-0.387759
0.0315323
-0.129542
-0.0517855
-0.00634263
0.00411234
-0.0603489
-0.370254
-0.0115278
-0.0418618
0.0300274
-0.0271831
0.186283
-0.144659
0.0503098
0.420309
-0.123887
-0.0589507
-0.180182
-0.0326464
-0.0591324
0.0973284
0.121257
0.0280392
-0.0817513
-0.147373
0.0676212
0.184534
-0.110693
0.437167
0.422543
0.106454
0.0291215
0.0252467
0.0321907
-0.351341
-0.105828
-0.0431966
-0.0333775
-0.0444744
0.0190275
0.0175865
0.0362483
-0.0932119
-0.0536471
-0.144976
0.136352
-0.388886
-0.0458883
0.0367622
-0.108192
0.00124031
0.0119437
-0.218753
0.00259898
-0.00189036
-0.100864
-0.136828
0.259624
-0.0473184
-0.101051
-0.0106923
-0.11696
-0.00682952
-0.0245433
0.074745
0.0237664
-0.0206431
-0.135867
-0.24867
-0.0159217
-0.0705518
-0.00212445
-0.0137948
-0.00212702
0.442618
-0.0440133
-0.0414108
-0.400743
-0.0168445
-0.112911
-0.0574986
0.0110803
0.131083
0.00833723
-0.0415879
-0.143414
0.0372686
-0.0675559
-0.113612
0.246202
0.0192843
-0.343995
0.0961534
0.404376
-0.0303689
0.156512
-0.247015
-0.0134275
0.326607
0.0386792
-0.143482
0.213393
0.0109439
-0.404687
0.0294691
-0.13416
-0.133917
0.341892
0.0281649
0.076455
0.0492246
-0.110165
0.0656531
-0.0672138
0.0878692
-0.0826912
-0.0103903
-0.101708
0.0381918
-0.0543332
-0.0953559
0.00676807
-0.00191776
0.4909
-0.0334232
-0.0489987
-0.0251291
-0.0765907
-0.0577505
-0.0608942
0.0165582
0.0109793
0.0285
-0.00473523
-0.168357
0.0508899
0.200547
-0.0295278
0.0113344
-0.210772
-0.0425666
-0.0559144
-0.0542225
0.0366734
-0.385721
-0.103388
-0.0485909
0.500004
-0.152526
-0.262338
-0.0877941
-0.35018
0.00649227
-0.158634
-0.390791
0.442325
0.0143126
0.0533562
-0.0956321
-0.0678719
-0.0684359
-0.298249
-0.0235491
0.12188
-0.0994529
-0.0613855
-0.388233
-0.0814082
-0.115132
7.95328e-05
-0.150116
-0.0601554
0.0145021
-0.1847
-0.321011
0.0273379
-0.128935
0.0153578
-0.0185412
-0.123945
-0.148217
0.0031154
-0.0243373
-0.018769
-0.0155383
-0.0361885
-0.140899
-0.0345105
0.011584
0.0131544
-0.0662079
-0.0515766
-0.046639
-0.254632
0.0337841
-0.167096
-0.402432
-0.123294
0.114512
-0.128022
-0.136196
-0.0838598
-0.0666536
-0.116232
-0.360754
0.00819757
-0.331233
-0.0593856
-0.000254847
0.0205089
-0.190763
-0.363738
-0.371206
-0.0169387
0.0133723
-0.086979
-0.335653
-0.356933
-0.0250861
0.0887975
0.502514
0.0314392
-0.0991016
-0.40268
-0.100509
-0.337978
0.0408012
0.0117611
0.00433004
0.108669
-0.10128
-0.0779336
-0.0496718
0.0680972
-0.088417
-0.369025
-0.065041
-0.184475
-0.403407
-0.0817827
0.457441
0.0291288
0.0137448
-0.0785723
-0.00528754
-0.0125837
0.0276875
0.520077
-0.0933541
-0.401165
-0.197796
0.0238086
-0.197482
-0.0949297
-0.00666396
-0.40736
0.227009
0.104794
-0.0243514
-0.388029
-0.319468
0.0260792
-0.294065
-0.11946
-0.398119
-0.340029
-0.151756
0.0105531
-0.0265895
-0.272515
-0.0523364
-0.0892034
-0.101842
-0.34929
-0.140518
0.0668635
0.0768291
0.00670705
0.0543746
-0.382459
-0.0734732
0.0322052
-0.406424
-0.0834868
0.0146874
0.0742685
0.0108874
-0.164188
-0.0174839
0.506519
0.0993095
0.0088006
0.00364372
0.330034
-0.146832
-0.0984049
-0.00303891
-0.104379
0.0378927
-0.0346944
-0.0617957
-0.354176
-0.0733564
-0.344714
-0.00279365
0.00367542
0.0119534
-0.0617522
0.00496608
0.0101661
-0.134563
-0.102188
-0.114922
-0.0128874
-0.293247
-0.0709068
0.0110796
-0.377473
-0.1192
-0.0683726
0.481506
0.0106255
-0.405928
0.0892143
0.0524449
0.0830572
-0.0051638
-0.0825177
0.000527061
-0.0299833
0.155533
-0.0477818
-0.0735189
0.0156258
0.00763094
-0.0296968
-0.011412
-0.178094
0.0581866
-0.165791
-0.0421279
-0.145225
-0.0318195
-0.104004
-0.00323759
-0.232493
-0.0228127
-0.00579599
-0.400453
0.32963
0.352885
-0.0972188
0.166101
-0.0961217
0.035398
-0.305603
0.0325818
0.00554287
0.329393
-0.0600916
-0.402336
-0.387978
-0.167854
-0.258896
-0.197419
-0.295669
-0.00639947
-0.0516532
-0.0637217
-0.192338
0.10258
-0.256568
-0.089668
-0.0256139
0.0435995
0.0182909
-0.279405
0.454235
-0.0403577
0.0204573
0.0281595
-0.0502506
-0.0955253
-0.272839
-0.12888
0.0107867
0.390458
-0.17436
-0.199394
-0.141797
-0.000586602
-0.0377119
-0.195781
0.00432308
-0.171047
-0.0947257
0.0342695
-0.0284405
-0.138981
0.34071
0.0543323
-0.102153
-0.0433849
-0.169226
-0.0542347
0.058986
-0.0343853
-0.326592
0.00360044
0.0721371
0.504523
-0.379055
-0.121053
-0.149645
-0.0509312
0.113461
0.024941
-0.382895
-0.0586917
-0.0210379
-0.0754709
0.012124
0.0119316
0.519174
0.0276765
0.0103776
0.02089
-0.111426
0.0553823
-0.0476278
-0.0948351
-0.256035
-0.191576
0.0251947
-0.0207686
0.227597
-0.251237
-0.173755
0.126485
-0.158394
-0.103824
-0.294352
0.0119494
-0.307893
-0.0702052
0.0116647
-0.0411188
-0.00495781
0.434329
-0.195204
-0.023513
0.495478
-0.229574
0.00120256
0.0535866
-0.046341
-0.0893718
-0.0613955
-0.00582935
-0.372683
-0.0455738
0.450921
0.0202423
-0.186498
-0.0589609
0.143562
-0.370076
-0.0594055
-0.00468806
-0.0745652
-0.242708
-0.081107
-0.0605727
-0.285503
-0.00260652
-0.216706
0.014909
-0.390318
-0.00353575
0.248338
0.0577731
0.00963342
-0.12166
-0.164183
-0.160107
-0.125696
0.0415125
-0.12102
0.00246643
-0.346116
-0.0750927
0.0353412
-0.0127729
0.161478
-0.0180925
-0.105898
-0.111365
-0.300053
-0.123033
-0.0242477
-0.0248632
-0.13629
0.0739247
-0.113245
-0.00356711
0.0255655
-0.297778
-0.170171
-0.13802
0.348621
0.0132162
-0.197013
0.000993974
0.101633
-0.382508
-0.398651
0.0270609
0.0209607
-0.0622169
0.102279
0.0517106
-0.123083
-0.212763
-0.0111365
-0.00650157
0.0258483
0.0102336
0.301888
-0.0144386
-0.0500427
-0.165037
-0.0576377
-0.00742891
-0.0743198
-0.294134
-0.0839804
-0.00598442
-0.403923
0.0320918
-0.201919
0.162645
0.183523
0.00801945
-0.284053
-0.389429
-0.0648496
0.00774599
-0.142164
-0.0144109
0.104731
0.0490585
-0.0517906
0.0714699
-0.341068
-0.0781343
-0.115952
0.0277373
-0.266719
-0.0623404
0.0122585
0.428941
-0.00542002
-0.0491308
-0.0894512
0.0473084
-0.374868
0.0157697
0.438712
0.0495996
0.0104629
-0.399975
-0.0997375
0.0845661
0.167656
-0.0687982
-0.122809
-0.0797264
-0.0520816
0.0384189
-0.053584
-0.0961841
0.0867426
-0.0571265
0.0433388
-0.0944947
-0.0578781
-0.0331141
-0.124175
-0.00497447
-0.0952711
0.0922285
-0.333419
-0.345342
-0.360701
-0.312171
-0.205263
0.0950211
-0.0228259
-0.110047
0.10123
0.0369163
-0.341494
-0.146208
0.0670727
-0.0422259
-0.0611984
-0.0640466
-0.0763324
-0.19792
0.0109678
-0.0499383
-0.0689911
0.0491767
0.0139367
-0.0811943
-0.00873208
-0.0645472
0.0606739
-0.202176
-0.0767489
-0.0998654
-0.1868
-0.159019
-0.178307
-0.000506172
-0.114753
-0.100942
-0.400602
-0.0294053
-0.0690997
-0.0717215
0.489793
0.0325678
0.0414354
-0.113314
-0.0629734
-0.400164
-0.309533
0.16037
-0.216092
0.00607023
-0.0091649
-0.280364
0.282339
0.0346781
-0.147208
-0.0444012
0.0935004
0.057476
-0.155955
-0.0115478
-0.156901
-0.117308
-0.402368
-0.163063
-0.0520722
-0.126137
-0.395243
0.0348956
0.0382836
-0.152714
-0.00376169
0.223604
-0.402844
-0.0772344
-0.103208
-0.0871971
-0.0304504
-0.167763
-0.00652151
-0.0961951
0.0209978
-0.387931
-0.00700717
0.0426968
-0.093429
-0.172554
0.00998165
0.0427201
-0.386428
0.0446812
-0.127017
-0.0075538
-0.359031
-0.276222
-0.113656
0.314999
0.00761839
-0.0562293
-0.0897834
-0.100244
-0.00697826
-0.0300435
0.0101217
-0.0851645
0.02733
-0.0826235
0.0480966
-0.0108559
-0.329666
-0.00905628
-0.0461378
-0.0490676
0.0186053
-0.0948773
-0.00580199
-0.0267717
-0.135817
-0.060859
-0.0504299
0.0420293
-0.335155
-0.0614766
-0.147467
0.000987495
-0.100771
-0.0249187
-0.0982858
-0.090163
-0.0831853
-0.242977
-0.198652
-0.237829
-0.295151
0.118078
-0.0938118
0.043539
-0.295713
0.0837072
-0.0240247
0.0363714
-0.0869951
-0.00351717
-0.175156
-0.108597
-0.0967205
-0.247973
0.33762
0.0157698
-0.171454
0.19383
0.0589024
0.0774812
0.0375343
-0.113917
0.036972
-0.077836
-0.00822152
-0.0604902
-0.309312
-0.0303154
0.0289891
0.0352694
-0.186685
-0.00319722
0.038017
-0.0542273
-0.0222407
-0.056202
0.0131624
-0.0642956
0.328993
0.120708
-0.265051
-0.388816
-0.0936515
-0.235228
-0.00247674
0.0254087
0.0609568
-0.0305249
0.150882
-0.064966
-0.104814
-0.00568576
0.0347444
-0.0551724
-0.14057
-0.00568122
-0.00099278
0.11285
-0.401033
-0.0678107
-0.0504163
-0.0525371
0.0225138
-0.266194
-0.088831
0.333516
0.161657
0.0390231
0.0590294
-0.0943188
-0.21379
0.065861
-0.0207954
-0.0444269
-0.095554
0.0661407
-0.377341
0.0177965
-0.114085
-0.00697941
0.131103
-9.9449e-05
0.00938432
-0.257706
-0.312355
0.272443
-0.0430617
-0.403221
0.0450869
-0.150411
-0.0599825
-0.0021358
-0.130103
-0.103591
-0.11884
0.0250149
-0.0720661
-0.393625
-0.0213636
0.0243648
-0.0773234
-0.0710129
0.0221661
-0.0101218
-0.0218394
-0.0452726
-0.168151
-0.181078
0.318192
-0.166889
-0.00349382
0.0284241
-0.0967856
-0.0050415
-0.0926174
0.120003
-0.0218514
-0.123275
0.0221914
0.0378989
-0.22872
0.0117346
-0.311099
0.0251417
-0.332448
-0.087825
-0.163739
0.0193393
0.0124677
-0.199766
-0.00543095
-0.0274881
0.0574019
-0.223231
-0.303316
-0.0873357
-0.0961365
0.0681804
-0.137529
0.0660189
-0.101099
-0.0168918
0.0237026
-0.406643
-0.106066
-0.326381
-0.0207272
-0.114689
-0.107723
-0.405247
-0.150944
-0.210091
-0.0942853
-0.00635919
-0.21155
-0.0161293
-0.0154469
-0.179032
-0.0894209
0.0917585
0.288665
0.0831493
0.00843122
-0.0546504
-0.21088
-0.0460416
0.0121118
-0.398499
0.0656271
-0.00670141
-0.0576582
0.00993816
0.0213829
-0.161992
-0.195694
-0.398704
-0.00591538
0.0778721
0.0105614
0.407569
-0.00143542
0.455613
-0.129301
-0.0850024
-0.0491812
-0.390043
0.150069
-0.239208
0.478028
0.0224741
0.0647553
0.112607
0.128739
0.49586
-0.151151
-0.372979
-0.0714155
0.509716
0.032179
-0.112845
0.00916011
-0.40551
-0.0709128
-0.0367261
-0.0399536
-0.0260186
0.00226497
-0.128785
-0.368462
-0.00239235
-0.0339802
0.0036089
-0.179466
-0.0331123
-0.279652
-0.0462409
-0.334363
0.0285125
0.00266903
-0.123091
0.430079
0.0255869
-0.0988516
0.020653
-0.213105
0.174343
-0.152469
-0.0951514
-0.369652
-0.00412892
-0.0174625
-0.0827481
-0.0498973
-0.057464
-0.0652326
0.0123234
-0.0409049
0.0268056
0.00572357
-0.0259265
0.0260523
-0.386706
-0.130298
-0.126944
-0.0573131
-0.209552
-0.236665
-0.00478631
-0.0747806
-0.00536461
0.486078
-0.0220694
0.0544513
0.0277263
0.00851226
-0.014716
-0.170077
-0.031987
0.436085
-0.0122616
0.163034
-0.00382923
0.490606
0.0191826
-0.0794977
-0.0681135
-0.109486
-0.376395
0.00878111
-0.0929611
-0.151156
0.00564485
-0.00632116
0.0152523
-0.0667285
-0.366665
-0.02243
-0.0131966
-0.140308
-0.105111
0.20292
-0.115656
0.0364313
-0.106684
-0.0738443
-0.00396495
-0.143127
-0.0292994
-0.0701969
0.0356187
-0.0228655
0.0212626
-0.132122
-0.0852174
-0.00508713
0.388774
-0.0959786
0.00968914
-0.0127445
0.00240489
0.408561
-0.13931
-0.144948
-0.0390776
-0.0982302
0.019176
0.0337954
-0.0366648
0.011578
-0.146086
0.0385734
-0.0740628
-0.314228
-0.0805672
-0.00467451
-0.0564211
-0.111905
0.0194711
-0.163247
-0.076878
-0.123526
0.0993178
-0.389694
-0.135243
0.0121339
-0.177677
-0.174063
-0.0478112
-0.280561
-0.0731361
-0.0468616
-0.124364
0.00752347
-0.186099
0.288488
-0.174806
0.0105728
0.0185147
-0.0052916
0.168742
-0.0786316
-0.0823795
-0.215567
-0.400157
-0.0492656
0.020433
0.499671
-0.0821068
-0.13805
0.0284416
0.0123534
-0.103072
-0.080779
0.0412224
-0.0776071
-0.38115
-0.150196
-0.367374
0.340951
-0.168035
-0.056009
-0.2961
-0.00909268
-0.309874
-0.165288
-0.0204043
-0.0288341
0.00602014
-0.365195
-0.184255
-0.126438
-0.0230479
-0.356714
-0.0127799
-0.183387
-0.0782834
0.03267
-0.0806687
-0.240158
-0.100486
-0.134158
-0.0294378
0.0406018
0.0587266
-0.0924444
-0.0776416
-0.343807
-0.139788
-0.00738275
-0.405885
-0.223244
-0.0563443
0.00890171
0.0133918
-0.049689
0.421351
0.0162376
-0.124695
0.305901
0.196247
-0.0612412
-0.102561
-0.321342
-0.157459
0.0490648
-0.010682
0.294858
-0.0762129
-0.364621
-0.0195098
0.199482
0.327
0.376589
-0.0254042
0.0198584
0.377476
-0.166372
-0.337111
0.41625
-0.0461911
0.0134323
0.416707
-0.161816
0.0483835
0.28297
-0.160433
-0.0053958
-0.144972
-0.128262
0.425554
0.0212726
-0.0417407
-0.142698
-0.385675
-0.00780498
-0.0409389
0.00410064
-0.030272
0.00481544
-0.119844
0.0374455
0.103026
0.383197
-0.0799133
-0.149096
0.0814108
-0.0459929
-0.0276357
-0.305971
0.272953
-0.383684
-0.0121713
0.113954
-0.376909
0.331966
0.0428412
0.0859178
-0.177937
-0.123678
-0.211267
0.0121956
0.0069031
0.00254675
-0.15655
0.0196179
0.473822
0.49198
0.405731
-0.0461297
-0.256481
-0.374505
0.00634594
-0.284986
0.035163
0.228281
-0.00137644
-0.0192116
-0.127375
-0.259307
0.0101945
-0.396583
-0.218321
0.327587
-0.24027
-0.0021701
0.0137684
-0.0756721
-0.0325181
-0.389888
-0.382725
0.048896
-0.240239
0.00907106
-0.0115855
-0.0151739
0.0252541
-0.376899
-0.0395611
-0.35302
0.301382
-0.0257052
0.443957
-0.345301
-0.0675984
-0.367345
-0.0424448
-0.0168624
0.0258655
-0.0324886
0.467034
0.361279
-0.233961
0.0249125
-0.0296933
0.138477
0.01098
-0.0813164
0.0797106
0.185582
0.249406
0.053283
0.0155498
-0.0064732
-0.116941
0.0124353
0.0242244
0.325902
0.0585286
0.00404739
-0.12164
0.00414108
-0.321552
-0.0721738
0.487467
0.034871
0.318484
0.0230769
-0.113946
-0.0322019
-0.0308172
0.119286
-0.350547
-0.0710681
0.318382
-0.017323
-0.083796
-0.117242
-0.05588
-0.230992
0.0308373
-0.237113
-0.198393
-0.00580654
0.269619
-0.18774
0.335626
0.0224
-0.132475
0.424806
-0.18681
-0.146146
-0.0227134
-0.12997
0.0294773
0.0123379
-0.063213
-0.104118
0.0128193
-0.0673146
-0.384553
-0.0842668
-0.391343
0.41764
-0.34917
-0.26437
-0.00573454
-0.0396399
-0.0117819
0.13764
-0.194203
-0.212217
0.0537635
0.00977139
-0.012494
-0.322444
-0.0869881
-0.119983
-0.0797422
0.351756
-0.404404
-0.298392
0.0163891
-0.402468
0.0285323
0.111367
0.147026
-0.0828994
-0.0976663
0.11016
-0.0310648
0.291829
-0.0686928
-0.0829127
-0.387769
0.161877
-0.0445305
-0.063259
0.0250406
0.477079
-0.144341
0.0637087
-0.375796
-0.398121
-0.0765056
0.106371
-0.0679489
-0.3965
0.0176748
-0.0155466
-0.0049707
-0.0034266
0.0592132
-0.405463
0.0548857
-0.131233
0.00730913
-0.0198682
0.446842
-0.0250305
-0.00636911
0.0195004
0.0299798
-0.140832
-0.0111374
-0.405768
-0.0225221
-0.0381117
-0.0264661
0.0517789
0.363587
-0.0115666
0.0142481
-0.00885546
-0.0600714
0.303786
-0.0471776
-0.0787583
0.00680929
0.0944022
-0.075278
-0.238525
0.0704328
0.0183705
-0.0154161
-0.00913423
-0.280445
0.00724593
-0.0141261
-0.0498698
-0.3347
0.00655796
0.180872
0.0496982
0.0216523
-0.105279
-0.402433
-0.0974177
-0.107948
-0.0486958
-0.0771346
0.0466145
0.349009
-0.234915
-0.0285517
-0.130825
-0.0551857
-0.100648
0.0541057
0.0289542
0.483448
-0.046057
-0.254445
-0.129338
-0.0117993
0.0242587
-0.404873
-0.0441869
-0.0788356
0.0621291
0.0178628
-0.402351
-0.160093
-0.00804346
0.0127675
-0.0219204
0.0188597
0.0209607
0.0356545
0.17946
-0.158166
0.019882
0.0467739
0.45216
0.0149535
-0.247023
0.0595401
-0.0221072
-0.0639001
0.0100223
-0.17965
0.0640431
0.244321
0.0187287
-0.0178788
-0.331013
-0.374895
0.0103133
-0.0811599
0.206529
0.0258174
0.0848844
0.0126338
-0.03067
-0.289765
-0.219917
-0.0530402
-0.115447
-0.0304665
-0.390361
-0.132813
-0.0215196
-0.230067
0.0643009
-0.108694
-0.126479
-0.0621837
-0.339908
-0.189047
-0.0805146
-0.0137066
-0.0495253
0.100185
-0.0113273
-0.0150056
-0.0729996
0.307201
-0.0133821
0.112487
-0.0991001
0.0786264
0.41695
-0.0793427
-0.0615443
-0.29498
-0.355163
0.171957
0.101746
-0.0668549
-0.404226
-0.117948
0.0775306
-0.0120358
0.000965583
-0.0086595
-0.0766785
-0.102319
-0.199923
-0.0164543
-0.303074
0.0112845
-0.0550049
-0.0649375
0.313573
-0.209798
0.317099
0.382224
0.061143
0.1664
0.0040591
0.129051
0.018245
-0.0239431
-0.0831379
-0.0816242
0.0188097
0.0967785
-0.174234
0.00158252
-0.0153774
0.116996
-0.405352
-0.190987
-0.122925
0.203727
0.0122891
-0.0440075
0.194806
-0.0310313
0.0331015
0.0120652
-0.0190817
0.0360427
-0.0473168
-0.144306
0.0111277
-0.0103166
0.229363
0.00592842
0.111136
0.138923
0.0267658
0.0160583
-0.405528
-0.00616453
0.0256569
-0.00688593
0.0728249
-0.00784948
-0.3515
-0.0412063
-0.247714
0.00732514
-0.017054
-0.0235297
-0.308392
-0.0589624
0.0377807
-0.0124053
-0.139328
0.104019
-0.118699
0.0037715