/*--------------------------------*- C++ -*----------------------------------*\
| =========                 |                                                 |
| \\      /  F ield         | OpenFOAM: The Open Source CFD Toolbox           |
|  \\    /   O peration     | Version:  v2012                                 |
|   \\  /    A nd           | Website:  www.openfoam.com                      |
|    \\/     M anipulation  |                                                 |
\*---------------------------------------------------------------------------*/
FoamFile
{
    version     2.0;
    format      ascii;
    class       surfaceScalarField;
    location    "100";
    object      phi_0;
}
// * * * * * * * * * * * * * * * * * * * * * * * * * * * * * * * * * * * * * //

dimensions      [0 3 -1 0 0 0 0];
oriented        oriented;


internalField   nonuniform List<scalar> 
20673
(
-0.172269
0.162091
0.0101782
0.370762
-0.306375
-0.0643874
0.0211339
-0.0480788
0.0269449
0.152224
-0.27694
0.124717
-0.361376
-0.116395
0.477771
-0.0203612
-0.00222988
0.0225911
0.0334872
-0.0289017
-0.00458556
0.00953706
0.0179268
-0.0274639
0.0137391
-0.0260622
0.0123232
-0.0562386
0.158042
-0.101803
-0.107809
0.106856
0.000952429
0.149885
0.00492055
-0.154805
-0.0976012
-0.000806756
-0.000290983
0.00109774
0.204374
-0.0383073
-0.166067
0.241483
-0.242461
0.000977988
-0.105932
0.300218
-0.194286
0.140672
-0.16325
0.0225783
0.151147
-0.00126241
0.336716
0.263575
-0.60029
-0.373489
0.573239
-0.19975
0.03127
0.00221724
-0.598162
0.333995
0.264167
0.0443642
-0.0348272
-0.307609
-0.059934
0.367543
-0.00450515
0.0315803
-0.0270752
-0.105914
0.0778536
0.0280605
-0.100008
0.0515633
0.0484444
-0.0652324
0.0524245
0.0128079
-0.148391
0.109649
0.0387423
0.156739
-0.171061
0.0143224
0.195502
-0.206175
0.0106722
-0.0968319
0.138213
-0.0413815
0.174568
-0.0486609
-0.125907
-0.387446
0.361939
0.0255068
0.0904207
-0.110755
0.0203338
-0.365585
-0.232578
-0.00377322
-0.0028198
0.00659303
-0.187201
-0.0542771
-0.0156133
0.000898915
0.0147144
-0.580281
0.59025
-0.0099689
0.685292
-0.386936
-0.298356
0.365243
-0.537932
0.172688
-0.0495954
-0.0183761
0.0679715
-0.171065
-0.155488
0.326554
0.0964674
0.071315
-0.167782
0.14742
-0.00674788
-0.0171889
-0.111688
0.128877
-0.00340412
0.0101209
-0.00671682
-0.680421
0.436633
0.243788
0.0430583
-0.165296
0.122238
-0.282899
0.032804
0.250095
-0.00651737
0.00311325
0.0554921
0.119076
0.167592
-0.273524
0.213
-0.224315
0.0113158
-0.113715
0.00590646
0.270616
-0.352668
0.0820518
0.0846437
0.16136
-0.246003
-0.332745
0.161679
-0.0167343
-0.0185499
0.0352842
0.164157
0.206605
-0.000806756
-0.165642
0.502357
0.0156447
-0.0360059
-0.0775292
0.0852928
-0.00776352
-0.515719
0.323772
0.26333
-0.36188
-0.104903
0.103835
0.0010675
-0.162354
0.182222
-0.0198684
-0.525266
0.16389
-0.0156413
0.0293804
0.00050199
-0.00335539
0.0028534
0.143254
-0.450864
-0.00741409
-0.00700061
0.0144147
-0.0176994
0.144158
-0.126459
0.00368638
-5.38409e-05
-0.00363254
0.0724244
0.191459
-0.263883
0.0343921
-0.0308284
-0.00356374
-0.612006
0.326903
0.285103
-0.325131
0.60051
-0.275379
-0.257288
0.00811183
0.0246011
-0.0327129
0.00644415
-0.0102174
0.00289787
0.00324818
-0.00614605
-0.213339
0.285763
0.368063
0.204663
-0.572727
-0.0881437
0.0106145
0.21239
-0.169332
0.51599
-0.150747
-0.00211738
0.00118855
0.000928822
0.122595
-0.00397742
-0.118618
-0.051309
0.365945
-0.314636
-0.261382
0.0524073
0.208975
-0.0390327
-0.049111
0.0248003
-0.0352302
0.01043
0.0871675
-0.12521
0.0380428
0.128956
-0.00134135
-0.127615
-0.0667888
-0.0355834
0.102372
0.0519669
-0.0640238
0.0120568
-0.455519
0.559748
-0.104229
0.122335
0.00816379
-0.130499
0.0190943
-0.0686897
-0.272562
0.0732854
0.199276
-0.484131
0.0891609
0.39497
0.0351163
-0.0262372
-0.00887907
-0.00281691
-0.0624071
0.065224
0.0942178
-0.111407
0.10369
0.196528
0.162258
-0.151051
-0.0112072
0.00270383
0.00723935
-0.00994318
-0.00317368
-0.0124396
-0.112252
0.132259
-0.0200073
0.03182
0.00329626
-0.274694
0.117421
0.157273
0.00732464
-0.00784783
0.000523192
-0.362202
0.500178
-0.137976
0.0110012
-0.0117473
0.000746103
-0.0057878
0.00759144
-0.00180364
-0.0774072
0.165594
-0.0881872
0.497936
0.187356
-0.0966786
-0.00822391
0.00130974
0.00458789
-0.00589763
-0.0561315
-0.0438763
-0.608949
0.12321
0.485738
-0.246011
-0.0153707
0.0993764
0.219532
-0.318908
-0.534766
-0.0741834
-0.492804
0.587197
-0.0943928
0.0225704
0.00758143
-0.01149
0.00390855
-0.0829007
-0.191793
0.149116
-0.304604
0.208341
-0.58183
-0.130773
0.064169
0.0666044
0.00855988
0.0358044
-0.0166355
-0.155634
0.0514272
0.00053972
-0.114007
0.437779
0.101404
-0.178811
-0.0967216
0.115297
-0.0185752
0.451815
-0.191291
-0.260523
-0.2159
0.277241
-0.0613406
-0.0716102
0.0247028
0.0469074
-0.0685032
0.331833
0.0440174
0.00539957
-0.049417
0.0176624
0.0434768
-0.0611392
0.0184809
-0.30138
0.504388
-0.167672
-0.336716
0.224217
-0.214489
-0.00972804
0.155176
0.00416927
-0.159345
-0.000344683
0.00766932
0.0219335
-0.116355
0.0944213
-0.0819241
-0.0437011
0.125625
0.219262
-0.214248
-0.00501452
0.00225473
0.00220189
-0.00445662
-0.174559
0.012205
0.0310804
-0.0905292
0.0594488
-0.000442272
0.00412866
-0.0779126
-0.0528608
-0.148216
0.219214
-0.0709985
-0.0858534
-0.00606466
0.091918
0.243399
0.356625
-0.600024
0.113027
-0.02586
-0.135171
0.0229194
0.0277413
-0.0945301
-0.20289
-0.0696718
-0.157838
0.154429
0.00340918
0.133797
0.221411
-0.355208
0.0251527
0.0971826
0.150383
-0.142816
-0.00756771
0.0182731
-0.00783803
-0.0104351
0.109149
0.00648849
-0.115638
-0.00687495
0.236206
-0.229331
0.0602266
-0.047961
-0.0122657
-0.0430716
-0.0700631
0.113135
0.0131952
-0.00561381
0.000583822
0.0104174
0.0589925
-0.0149751
-0.258894
0.402238
-0.143344
0.00589751
0.116698
-0.0130391
0.169778
0.298498
0.153317
-0.0897937
0.457857
0.190251
-0.0920562
-0.0981944
0.034246
-0.0387511
-0.032775
0.129396
-0.0966209
-0.000324448
0.00257918
0.151718
-0.151359
-0.000359051
-0.108283
0.0983302
0.00995259
-0.00937571
0.0760746
-0.0666989
0.000287421
0.00261045
-0.114995
0.0957871
0.0192083
0.624696
-0.278754
-0.345942
-0.0314316
-0.0140181
0.0454496
-0.102292
-0.00362206
0.63207
-0.63207
-0.30445
0.253141
0.00624082
-0.0809501
0.0747093
-0.088326
0.0884067
-8.07373e-05
0.0240661
0.176989
-0.201055
-0.340028
-0.340394
0.163886
-0.00209848
-0.161788
0.154057
0.00111915
-0.00431676
0.00481875
-0.0751401
0.104186
-0.0290458
-0.280033
-0.107413
-0.0910529
0.361669
0.00843933
0.120517
0.0157352
0.030769
-0.0465042
-0.287126
0.0712252
0.0359681
-0.0273053
-0.00866281
0.00648642
4.58952e-05
-0.00653232
-0.00674876
-0.101534
-0.41486
-0.0692711
-0.0583275
0.0416295
0.0166981
0.14902
-0.00542215
-0.143598
0.0105572
0.00395224
-0.0145094
-0.491763
0.291284
0.200479
0.0399483
-0.0566826
-0.396734
0.13784
0.000441629
0.11517
-0.115611
-0.12804
-0.452241
-0.00559307
-0.000391388
0.00598446
0.032798
-0.0242404
-0.00855758
0.0635432
0.17794
-0.11956
0.0182625
0.101297
0.038023
0.181239
-0.456074
0.0412139
0.00464955
0.0857711
0.124581
-0.0154325
-0.0104589
0.162177
-0.0554331
0.0195035
0.0359296
0.00754254
-0.00105612
-0.591423
0.489671
0.101753
0.194161
0.00134192
-0.00336762
0.00125024
-0.00319658
-0.00254764
0.00574422
-0.303198
0.546597
-0.461369
0.44247
0.0188993
-0.0177659
0.00118038
-0.118794
0.0954235
0.0233706
0.399589
-0.602082
0.202493
-0.0780094
0.0933823
-0.0153729
-0.144612
0.141761
0.00285057
-0.103386
0.0175329
-0.167855
-0.01257
0.180425
0.582377
-0.225752
0.140166
0.00538979
-0.145556
0.0057946
-0.00639291
0.000598315
-0.287908
0.386898
-0.0989903
0.0544005
-0.134535
0.0801348
-0.037824
-0.0101606
0.0479846
-0.23957
0.338946
-0.281823
-0.0708451
-0.0261109
-0.106062
0.132173
0.000200731
0.0138647
-0.0140654
0.106087
-0.0841534
0.122435
0.0678152
0.0134351
0.190939
0.241502
0.37069
-0.612192
-0.00266654
0.00397628
0.00586868
0.040516
-0.0463847
0.0548807
-0.0901949
0.0353142
-0.382012
-0.074062
-0.00146541
-0.00550413
0.00696955
-0.00086125
0.000546722
0.000314528
-0.0442374
0.0753179
0.0335966
0.000795502
-0.123024
0.105324
0.257245
0.472977
-0.661628
0.188651
-0.142301
0.00254912
0.139752
-0.0013629
0.00222161
-0.000858712
0.117275
-0.133726
0.0164516
-0.171201
0.255845
-0.1082
0.03306
-0.145117
-0.0156015
-0.0929044
-0.453757
0.546662
-0.0739279
0.0693708
0.00455712
0.254653
0.281487
-0.53614
0.0568022
0.00342445
-0.209784
0.23385
-0.072322
0.471911
0.0836403
0.112699
-0.196339
0.0492628
-0.131187
0.105969
-0.112034
0.0232633
-0.101273
-0.00385721
0.131639
-0.127781
0.377178
-0.0904389
-0.286739
0.0826892
-0.0970679
0.0143788
-0.0263274
-0.0291057
0.0283857
-0.022517
-0.227264
-0.264499
0.080145
-0.0234009
-0.0567441
-0.48348
0.0151274
0.468352
0.185643
0.191535
-0.474864
0.112663
0.0614941
-0.0438317
-0.0587311
0.520031
-0.4613
-0.107339
0.10778
-0.180296
0.012441
-0.265649
0.399446
0.00341661
0.160469
-0.24616
0.0276266
0.218533
-0.00824378
0.00232825
0.00591553
0.0849306
-0.128002
0.125755
-0.129732
-0.276299
-0.10756
0.383858
0.0684978
-0.350321
0.000604945
-0.0097801
0.00917515
0.00493996
-0.00325953
-0.00168043
0.287943
0.212235
-0.392456
0.625713
-0.233257
-0.0637099
-0.010218
-0.289752
-0.0680157
0.357768
-0.00132878
-0.00202661
0.102344
-0.378643
-0.00652817
0.000935101
-0.332292
0.254634
0.0776576
0.104072
-0.0108996
-0.093172
0.21703
-0.14409
-0.0729391
0.0174471
-0.011783
-0.00566408
0.0622986
-0.210514
-0.0025728
-0.0753398
-0.0519409
0.0109695
0.0409714
0.182175
-0.0985346
-0.0616816
-0.0571125
-0.00760825
0.0714856
-0.0638773
0.0552213
-0.280765
0.225544
-0.0037662
-0.00530986
0.00907606
-0.0522346
0.0208031
-0.000426373
-0.000434877
-0.188887
0.170108
0.0187791
-0.0103907
0.000324694
0.010066
-0.160081
-0.0576686
0.217749
-0.00173288
0.00462868
-0.0028958
-0.0440777
-0.00786323
0.0723952
-0.0940327
0.0216375
0.0945792
-0.022184
0.034515
-0.0133811
-0.563472
0.336473
0.226999
0.144283
0.00610099
-0.00628364
0.00898747
-0.178872
0.293902
-0.115029
0.222956
-0.00173482
-0.221221
-0.00168365
0.00139267
-0.0662529
0.0724938
-0.213844
-0.0523839
0.266228
-0.0823269
0.0729512
-0.0370899
-0.0281426
-0.601583
0.3249
0.276683
-0.00696854
0.00118073
-0.112358
0.0347328
0.077625
-0.266753
0.521406
0.508602
-0.359378
-0.149224
0.110219
-0.593699
0.236398
0.267991
-0.0138288
0.096518
-0.0401571
0.0582542
-0.0180971
-0.0384617
0.0223133
0.0161484
0.00878298
-0.00817803
-0.373087
-0.00460632
0.377693
-0.0624904
0.116891
-0.0094509
0.0100914
-0.000640529
0.125085
-0.166032
0.040947
0.00706648
-0.00467475
0.00331185
0.00656083
0.211393
-0.479991
0.268599
0.0919704
-0.0370898
0.322582
-0.495452
0.17287
-0.0147075
0.0546558
-0.143891
-0.188853
0.0157893
0.00165777
-0.0281217
-0.11649
0.182536
0.0865881
-0.269124
0.460866
-0.572338
0.111472
0.140293
-0.131854
-0.09373
0.0996276
0.124449
-0.128332
0.00388348
-0.0132091
-0.0376873
0.0508964
-0.00772543
0.00599256
0.014358
-0.00380086
0.00570268
0.134464
0.0623158
-0.118554
0.0176845
-0.479054
-0.00626813
0.00307155
-0.0202433
-0.00929868
0.029542
-0.0305776
0.289101
-0.258523
0.0916345
-0.0942073
-0.305689
0.501237
-0.195549
0.0388835
0.0730613
-0.111945
-0.099652
-0.23264
-0.319303
-0.244169
-0.294329
0.110642
0.183687
-0.0254957
-0.0086286
0.0341243
-0.0771409
-0.217188
-0.0192594
0.0194601
0.00392824
-0.00127872
-0.00264953
0.0806926
-0.0851947
0.00450217
0.0271593
-0.0446295
0.0174702
-0.214685
0.269906
-0.0335434
-0.0247842
0.0381288
0.588901
-0.243985
-0.344916
-0.0690698
-0.29657
0.117697
0.214685
-0.339682
0.124997
-0.0756863
-0.0727051
-0.365223
0.606726
-0.392124
0.461609
-0.0694856
0.389241
-0.0666587
0.0905464
-0.104375
-0.328324
-0.283682
-0.00886877
-0.00152194
-0.0038189
0.0392861
-0.0354672
0.00351071
0.00298393
-0.00649463
-0.0820453
-0.0329501
-0.0063898
-0.0119503
0.0183401
0.00976822
0.00202823
-0.0117964
0.166179
-0.0410948
-0.473215
0.100128
0.111155
0.0133139
-0.124469
-0.266963
0.0797617
0.20722
-0.195105
-0.0121152
0.226725
0.397971
0.0188353
0.035387
-0.0196518
-0.0530625
0.0492436
-0.189356
0.20863
-0.0192736
0.109075
0.0269655
-0.136041
-0.165607
-0.0232804
-0.259877
0.2056
0.00519542
0.119253
0.195034
-0.242439
0.0474053
-0.0822645
0.0862158
-0.00395131
-0.174655
0.278345
-0.438153
0.379422
-0.00144508
0.000116293
0.0104704
0.00272483
0.014353
-0.0038826
0.0437649
0.0911666
-0.134932
0.00607489
-0.00256419
0.00917327
-0.0129395
-0.00106002
-0.00446534
0.00552536
0.00263712
-0.000736305
-0.00190082
0.147605
0.365996
-0.513601
-0.13176
0.00175002
0.13001
0.225694
-0.03066
0.346831
-0.263587
-0.083244
-0.111683
0.031766
0.0799168
0.00511908
0.48458
-0.538408
0.053828
0.0121803
-0.137936
0.125756
-0.0048358
-0.149689
0.154525
0.00142301
-0.000971704
-0.000451303
0.344402
0.244499
0.121048
-0.00827744
-0.112771
0.00127409
0.000797551
-0.00207164
0.102955
-0.0182115
-0.0847433
0.000989016
-0.00965394
0.00866492
0.244915
-0.25187
0.221293
0.521551
0.110519
-0.149778
-0.0247803
0.509024
-0.297632
-0.0314848
-0.0105306
0.0420154
-0.032293
-0.00616873
-0.155037
0.15118
0.00294865
-0.00536286
0.00241421
0.0227162
0.190284
0.0991423
0.0138851
0.00181364
-0.00287366
-0.0088604
0.0523372
-0.0124726
0.0931651
-0.00404398
-0.0926776
0.105122
0.0159263
0.123144
-0.148365
0.025221
0.0855585
0.0327412
-0.1183
-0.172115
0.178091
-0.00597596
0.0920972
-0.109912
0.0178148
0.0237566
-0.138445
-0.0143531
0.152798
0.105246
0.00362563
-0.108872
-0.530596
0.544299
-0.0137035
0.106674
-0.0280181
-0.0786562
0.216039
-0.0157423
-0.200296
-0.431039
0.304481
0.126558
-0.160872
0.0110938
-0.264931
0.184458
0.0804727
-0.000661654
0.00208466
0.0116552
0.0201648
0.090355
-0.380107
-0.516783
0.423879
-0.0342715
-0.00969815
0.0439696
0.0124176
-0.00264943
0.593911
-0.223222
-0.00729257
0.00828159
-0.313698
0.232475
0.0812232
0.126717
-0.0973137
-0.0294031
0.00719107
0.324569
-0.33176
0.00724772
-0.00483104
-0.00241668
0.0647802
-0.0962854
0.0315052
0.0436336
0.180584
0.305613
-0.190918
-0.114696
0.0177399
-0.0241297
-0.117587
0.0848115
-0.0127025
0.0126433
5.91687e-05
0.241258
-0.606481
-0.000280042
-0.00616635
0.0064464
-0.00765996
0.0797836
-0.013786
-0.0659975
-0.353978
-0.0770611
-0.00413208
0.00738026
0.024565
-0.0133685
-0.0111966
-0.130179
0.167039
-0.0368593
0.126232
0.38237
-0.217361
0.265662
-0.0483013
-0.140284
-0.0613812
0.100265
-0.0436851
0.528265
-0.518439
0.159061
0.65015
-0.439028
-0.211122
0.407974
0.242175
0.00517527
-0.00664068
-0.0475817
-0.064101
0.0360003
-0.103538
0.118082
-0.0145438
0.572725
-0.0997478
-0.0481474
-0.407371
-0.0106863
0.119762
-0.0132335
0.00478885
0.00844468
0.150888
-0.168252
0.017364
-0.114792
0.336203
0.452058
-0.237373
-0.286943
-0.0907362
0.377679
0.0160737
0.001107
-0.000819579
0.396711
0.165627
-0.562338
-0.265832
-0.142644
0.408476
0.00970591
-0.0231342
-0.148981
0.105805
0.111224
0.0427414
-0.294612
-0.149257
0.261957
-0.112701
0.183488
-0.220695
0.0372063
-0.00430322
0.109549
0.0639569
-0.0715651
0.0258575
0.0997546
0.0114004
-0.149274
0.0604521
0.0888216
0.0198019
0.084384
0.00751326
0.118241
0.453095
-0.292853
-0.160242
0.00615734
-0.00036274
-0.452815
0.250269
-0.027313
0.252124
0.00622466
-0.258349
0.0776966
0.0289777
0.0827476
0.0201661
-0.102914
-0.0144131
0.39968
-0.385267
-0.000675693
0.10363
0.110747
-0.140553
0.0298057
0.00232866
0.00166793
-0.00399658
-0.0817218
-0.0675519
0.0040187
0.0936434
-0.0976621
0.142268
-0.147104
0.322837
0.138029
0.0428407
-0.014455
0.103396
-0.0230383
0.0184739
0.00456433
0.170489
-0.345145
-0.157086
0.186837
-0.0297513
0.112514
0.00556805
-0.00253248
-0.00214227
0.0117275
-0.0117275
0.118665
-0.120007
-0.0661866
0.109952
-0.0371701
-0.205291
0.199213
-0.227913
0.0286997
-0.212131
0.254872
-0.0750897
-0.0150995
0.0901892
-0.0525159
0.0268389
0.147339
0.00168084
0.0136032
-0.016094
-0.00694422
-0.00315091
-0.00955156
0.0203508
-0.218581
0.19823
-0.00938204
0.108524
0.0924608
-0.0276805
0.0859585
0.0923077
-0.178266
-0.291427
0.0885323
0.202895
-0.0302192
0.002826
0.0273932
0.0552627
-0.0351972
-0.0200655
-0.0485069
0.0377148
0.0107921
-0.0393037
-0.0694871
0.108791
-0.539214
0.0464102
-0.00524688
-0.00172166
0.00387451
-0.467304
0.452891
0.186255
-0.183611
-0.00264409
-0.00711257
-0.112969
0.120082
-0.125182
0.0283503
-0.0157983
0.125447
0.0361523
-0.0107555
-0.0253967
0.111334
-0.0257758
-0.0201844
0.192411
-0.172227
0.0206793
0.0221614
0.26544
-0.198486
-0.0669539
0.0025554
8.17205e-05
0.271704
-0.574902
-0.0119788
0.40869
0.0669337
0.0132113
0.0407991
0.0144636
0.0320748
-0.00714643
-0.0249284
0.0971311
0.168309
0.257912
-0.264787
-0.448323
0.182491
0.0050913
-0.150208
0.00270685
0.114808
-0.0870671
0.221211
-0.0219974
0.10102
-0.113492
0.134871
-0.262647
0.269838
-0.0517526
-0.0678073
0.11698
-0.00217203
-0.0824752
0.0717691
0.0107062
-0.0478206
0.359905
-0.312084
-0.0835299
-0.0255787
0.109109
-0.073472
0.000317041
0.0036112
0.0328876
0.125154
0.109524
-0.0267761
-0.189551
0.0324651
-0.258995
0.53701
-0.278015
0.292087
0.0857651
-0.377852
-0.0912933
0.310825
-0.088653
-0.00999479
0.0986478
0.154945
-0.0584773
-0.0570631
0.105481
-0.0484184
-0.0380939
0.0248848
-0.1407
-0.0171384
-0.222411
-0.379172
0.027548
-0.0901953
0.0626473
0.0225421
0.00953275
-0.105204
0.0871536
0.0180502
0.0577505
-0.345659
-0.180282
0.148318
0.0319641
-0.120905
-0.397534
-0.160911
-0.0416055
0.202517
-0.0528252
0.214185
0.00618953
0.0183755
-0.287297
0.6142
-0.0700635
0.189456
-0.00312883
-0.186327
0.0844999
0.0223566
0.149384
-0.0611552
-0.0882286
0.00439566
-0.000399006
-0.00399665
-0.0215483
-0.0906693
0.112218
0.0486749
-0.266036
0.00052118
0.000730144
-0.00125132
0.00958919
0.00213827
0.354459
-0.265446
-0.089013
0.222042
0.0300821
0.106507
-0.0783213
-0.0281857
0.0856574
-0.124961
0.118121
-0.00084674
-0.347921
-0.24252
0.590441
0.0345442
0.271069
-0.10429
0.09339
0.243604
-0.0610684
-0.11264
-0.0156924
-0.15117
0.125059
0.388074
-0.0959865
-0.145542
0.151029
-0.00548717
-0.0285753
0.400611
-0.175811
-0.2248
-0.267047
-0.0307818
0.297828
0.672727
-0.393152
-0.279575
0.00331244
0.00162751
-0.413696
0.622038
-0.201923
0.0125664
0.0042677
0.0140054
0.00955985
0.201653
-0.211213
0.0499581
-0.00915899
-0.0272236
-0.187024
0.0664642
0.0717492
0.2337
0.122305
-0.0047338
-0.117571
-0.0991274
-0.375737
0.139663
-0.00578123
-0.133881
0.325231
-0.585948
0.260717
0.111783
-0.102118
-0.00966591
-0.219292
-0.0944057
-0.0190148
0.0202889
0.0494834
-0.0432407
-0.00624268
-0.00285108
-0.0103824
-0.559969
-0.0721011
-0.235866
0.129768
-0.122255
-0.148168
0.163727
-0.0155589
0.000938734
-0.00311849
0.00217976
0.0183309
-0.018202
-0.000128834
-0.135351
-0.0278996
-0.332011
-0.0136102
0.345622
0.107411
-0.0168644
-0.0263268
0.0191803
-0.0844665
0.00199127
0.0571931
-0.114256
0.142594
0.000521723
-0.143116
-0.0282226
-0.00680079
0.0350234
-0.165573
0.151965
0.0136079
0.160598
-0.176199
0.00139374
0.0940712
-0.0954649
-0.0773103
-0.00363986
-0.149278
0.0139272
-0.00208683
0.0194728
-0.017386
0.14782
-0.153365
0.00554521
-0.280642
0.0801326
0.20051
0.0991607
-0.106273
0.0709113
0.111264
-0.4053
0.318125
0.0871748
-0.185785
0.0248742
0.0149109
0.147347
-0.169626
-0.0448633
-0.381695
-0.0414198
0.423115
0.180269
0.148725
-0.0146636
-0.134061
-0.0629004
0.242904
-0.180003
-0.138922
0.0262819
0.0101074
-0.342119
-0.226006
0.462766
-0.23676
0.135254
-0.548951
0.215472
-0.158742
-0.0567299
0.223037
0.223893
-0.446931
0.0267136
0.186307
-0.213021
0.625739
-0.283336
-0.342403
0.00581329
0.00143443
-0.14731
0.146828
0.000482246
0.0392771
-0.038269
0.237389
-0.516633
0.279244
-0.354457
-0.205179
0.559636
-0.0352958
0.0861034
-0.0508076
0.152566
-0.0294227
0.250388
-0.194626
-0.0557619
0.0413977
0.0169988
-0.0583965
0.137092
-0.0402447
-0.096847
-0.0737254
0.0590179
0.00367065
0.0970084
-0.125034
0.0280256
-0.0888103
0.26091
-0.1721
-0.63396
0.0245328
0.609428
0.598518
-0.190544
-0.256734
0.0105745
0.0160795
-0.0164001
0.000320649
-0.603349
0.248891
-0.0937698
0.0202689
0.0735009
-0.127943
0.154656
-0.00159348
-0.00785742
0.110297
-0.137191
0.0268947
0.112817
0.0242752
-0.0125232
0.0970232
-0.440483
0.102466
0.338017
0.280808
0.316207
0.00383691
-0.42984
0.275286
0.154554
-0.29967
0.0806482
0.219022
-0.0482079
-0.0222692
0.0704771
0.251649
-0.0154427
0.0978616
0.448742
-0.546603
-0.0077031
0.177789
-0.170086
-0.0587154
-0.417671
0.476386
0.32454
-0.474465
0.149924
-0.162541
0.013501
-0.000573665
0.0015124
0.166797
-0.177856
0.0110588
0.250849
0.149761
0.46448
0.125769
0.00467308
-0.00720556
0.00592618
0.33211
-0.10216
-0.22995
-0.109014
0.279504
0.0649149
-0.0235172
-0.0854385
0.101828
-0.0163899
-0.0129037
-0.00181876
0.0147225
-0.112673
0.116692
-0.0495664
-0.231076
-0.235044
-0.356379
0.505675
-0.181134
0.0095465
-0.147991
-0.0134987
0.0203417
-0.0906695
0.0703278
0.0499891
0.120119
-0.00893748
0.00362762
-0.286738
0.0876516
0.199086
0.0339652
-0.216007
0.182042
0.0116779
-0.0145296
0.00285176
0.144561
-0.450249
0.00265932
0.21338
0.273942
-0.357671
0.0837281
0.335855
0.259899
-0.595755
0.00479655
-0.155847
0.0873371
0.0186319
0.205478
-0.277059
0.0715812
0.0450101
0.00494806
0.00142586
0.0127008
-0.0141267
0.030766
0.22583
-0.310912
-0.11879
0.429702
-0.0911849
-0.0126819
0.103867
-0.0739679
-0.325384
0.566642
-0.0829645
0.101672
-0.0187077
-0.437578
0.126666
-0.15615
-0.280345
0.36497
-0.0846257
0.438409
-0.154307
-0.284102
-0.108963
-0.242501
-0.102355
0.344856
0.0310027
-0.0914798
0.145344
0.0411399
-0.186484
0.393088
-0.586429
0.193341
0.374584
-0.504871
0.130287
-0.0165488
-0.267032
0.283581
0.0303041
-0.320577
0.290273
-0.339548
0.072501
-0.0319678
0.0443366
-0.0123688
0.289954
0.0509104
-0.340864
-0.109695
0.401105
-0.291409
0.0224233
-0.00765149
-0.0147718
-0.0269492
0.0323488
-0.152255
0.132071
-0.161207
0.000563236
-0.121346
0.120783
-0.051142
-0.166707
0.217849
0.472454
-0.163087
-0.309367
0.12536
-0.054045
-0.0045968
0.114248
-0.00246464
0.273006
-0.482242
0.209237
-0.302936
0.112018
-0.00390773
0.0222386
-0.0520337
-0.0830538
0.135087
-0.00128571
0.00635445
-0.00506874
0.528342
0.167487
0.000525001
-0.00378453
-0.183398
0.155796
0.027602
-0.277635
0.0642962
0.0157921
-0.0151424
-0.000649732
-0.0186073
0.0102061
0.00840116
0.353798
-0.323494
0.10299
-0.101596
0.4916
0.106918
-0.33942
0.0969192
0.429223
-0.191834
-0.00041736
-0.00508677
0.47222
-0.249183
-0.328614
0.281163
-0.0504522
-0.273991
0.074643
0.199348
0.0332347
0.093482
-0.0923784
0.0460188
0.30508
0.0738491
-0.378929
0.0980794
-0.123918
0.0258389
0.372442
0.166727
-0.539169
0.00749727
0.505006
-0.482406
-0.0225996
0.347704
0.360832
0.219191
-0.580022
0.00714534
0.458693
0.0278044
-0.0120138
0.0159572
-0.00394336
0.0151979
-0.051628
0.0364301
0.000883552
-0.181166
-0.0427198
-0.0696379
-0.0126579
0.014518
-0.00186011
-0.280747
0.349245
0.000340228
-0.00558711
-0.0258536
0.00730365
-0.0143812
0.00172331
-0.000748688
0.0152711
-0.0145224
0.00606269
0.0163607
-0.0163341
0.0186627
-0.0719253
0.0994733
0.179166
0.0864966
0.00532393
-0.154357
-0.0290407
0.00623062
-0.0264739
-0.412347
0.0583695
0.0908637
0.275082
0.276809
0.0553014
0.538068
0.164213
-0.230965
0.0667518
0.120443
-0.146832
0.0263888
-0.00367829
0.00442465
-0.000746365
0.372179
-0.281315
0.425367
-0.186238
-0.23913
-0.00241993
0.0105054
-0.00808545
0.00883785
-0.0778715
0.0690337
-0.269651
0.253102
0.0227102
0.0225977
-0.176365
0.153767
-0.0726639
-0.206332
0.278996
0.0249133
0.0245701
0.0888214
-0.0661113
0.161435
-0.212122
0.0506867
-0.166198
-0.107793
0.0126187
-0.0111928
0.0129487
-0.00127081
0.00350899
-0.0152563
-0.363391
0.0830465
-0.0881492
-0.0294374
-0.00969798
0.120445
-0.00758953
-0.00434315
0.0119327
-0.0281482
-0.121099
0.124043
-0.00294385
0.256553
0.170161
-0.258971
-0.0765612
-0.210177
-0.508716
-0.114266
0.0662156
0.512067
-0.364462
0.169817
0.0136716
-0.0631614
-0.102411
-0.00467473
0.00233526
0.00233947
-0.13219
0.034664
0.0975256
-0.0946531
-0.233961
0.123974
-0.00300424
0.00480363
-0.00179939
0.166888
0.327493
-0.245235
-0.0822581
-0.0024028
-0.0007494
0.0031522
-0.36144
0.0957911
-0.305262
0.00559147
0.0739834
-0.108675
0.0346915
0.00235025
0.000598401
0.482489
0.29927
-0.347091
-0.0238933
0.0328217
-0.00892845
-0.103828
0.061108
-0.0271125
0.0927386
-0.0656261
-0.137603
0.0371123
0.100491
-0.0453061
-0.0654484
-0.487471
0.173772
0.313698
-0.10219
0.0999885
0.0022019
0.172661
0.154832
0.0125329
0.357027
-0.36956
-0.0804305
-0.210997
-0.0458962
0.0144114
0.00115834
-0.0140621
-0.369413
0.0895592
0.279854
0.500528
-0.125944
-0.0736063
0.347549
0.0210684
0.0669516
-0.182242
-0.00552433
0.187767
-0.232928
-0.196913
-0.302971
0.0891271
-0.00243585
0.364369
-0.0592889
-0.00870209
-0.0760619
-0.0138668
0.0899287
-0.0111243
-0.0045452
0.0156695
-0.327325
0.0877547
0.117863
-0.0257615
-0.0921015
0.183907
-0.163556
-0.00534256
0.000511517
-0.00428198
0.00127775
0.0108732
-0.00363386
-0.121058
0.121621
-0.0048337
-0.0137736
0.463869
0.00626677
-0.0317625
-0.46664
0.479667
-0.073397
-0.150918
0.172656
-0.157101
-0.0155549
-0.0771509
-0.0428909
0.00861942
0.0448151
0.0316757
-0.0764908
0.0909554
0.0177837
-0.108739
-0.0158887
0.0464497
-0.030561
-0.285971
-0.273837
0.559808
-0.057719
0.10041
-0.0426912
0.10592
0.332489
-0.0853699
0.156281
0.0290793
-0.0216613
-0.00741803
0.230004
0.116826
0.174653
-0.641293
0.218625
-0.267399
0.048774
0.10171
-0.255879
0.154169
-0.00308647
-0.00158826
0.467973
-0.10268
-0.365293
0.513147
-0.179152
0.00851429
-0.0211006
0.132038
-0.110937
0.147809
-0.146769
-0.00103968
-0.0262767
-5.01144e-05
-0.0999334
-0.00889074
0.108824
0.0152506
0.000400097
-0.0156507
-0.00103993
-0.13274
0.113409
-0.165443
-0.00153282
-0.000215125
-0.17539
0.00435584
0.0535594
-0.0579153
0.00200773
0.0295726
0.20547
-0.00689228
-0.198578
-0.307529
-0.0577932
0.365322
0.00264326
0.0195613
-0.0222045
-0.0396514
-0.247063
0.265544
-0.145941
0.0378112
0.10813
0.156174
-0.00528546
-0.345467
0.118288
0.227179
-0.0278078
0.192021
-0.143404
0.245113
0.156021
0.286112
0.310903
0.137433
0.00516062
-0.0260361
0.0507389
-0.369219
0.139485
-0.129848
-0.00963652
0.109807
0.209155
-0.318962
0.104417
-0.0977858
-0.00663101
-0.252417
0.577649
0.156896
0.00197379
-0.133734
-0.231914
0.169013
0.320718
-0.0819019
-0.238816
-0.29699
-0.0724232
0.0386175
-0.0373971
-0.0012204
-0.0918266
-0.0297126
0.121539
-0.0239385
0.0526948
-0.0287563
0.264286
0.197323
-0.324444
0.267478
0.0569661
0.00802472
-0.271168
-0.0865028
0.0194797
0.116355
-0.135835
-0.127215
0.0353882
-0.234891
-0.110576
0.0279109
0.11385
-0.258663
0.36847
-0.0184419
0.0505769
-0.0321351
-0.290924
0.0438603
-0.000393153
0.192804
-0.000801073
-0.000882576
-0.0755126
0.100618
-0.0251051
-0.093641
0.400868
-0.307227
-0.22345
0.192572
0.0308785
0.00204009
-0.0140539
0.354828
-0.342295
0.474526
-0.118605
-0.355921
-0.0117006
0.00411108
-0.00403206
0.0036147
0.0310453
-0.196652
-0.010777
-0.0857675
0.0965444
0.54429
-0.280715
0.230279
-0.0116502
0.238736
-0.21111
-0.353922
-0.086561
-0.0924237
0.0217767
0.070647
0.306929
-0.287343
-0.0195857
0.0214836
0.0679365
-0.0894201
0.198523
0.401987
-0.446631
0.0927089
-0.2971
0.19494
0.00723279
-0.107166
0.0109007
0.00245519
-0.0133559
-0.220817
-0.0757527
0.00121786
-0.237006
0.235788
-0.348938
-0.138533
0.198191
-0.184756
0.481895
-0.14604
0.0204553
0.137004
-0.124823
-0.584734
0.25935
0.0156838
0.0425704
0.115999
-0.0944362
0.0367173
0.012657
-0.00348377
-0.0213192
-0.00890001
0.395545
-0.305986
-0.301963
0.0567284
-0.258014
0.338563
-0.0805489
-0.00871468
-0.178645
0.140338
0.00128394
0.0109246
-0.0122085
-0.00486927
-0.010088
0.0149573
0.230922
-0.168623
0.00518605
0.00809279
-0.0150934
-0.143358
0.146144
-0.002786
-0.0975933
0.0868163
-0.114188
0.0926397
-0.00167553
-0.0121219
0.110437
-0.00602029
0.0356647
0.0552173
-0.090882
0.0102719
-0.00382771
0.135471
0.00307388
-0.138545
0.17146
6.84899e-05
-0.0249467
0.07651
-0.399178
-0.0131695
0.215275
-0.14199
0.03656
-0.0322042
-0.126938
0.144726
-0.0177876
0.373553
-0.283198
0.123679
-0.00137408
-0.0997749
0.119255
-0.00366887
0.00180652
-0.000832864
-0.000973654
0.215142
-0.00189728
-0.213245
-0.0550825
0.0391938
0.0282039
0.131444
-0.159648
-0.0201049
0.0874144
-0.0673094
-0.051218
-0.0526208
0.103839
0.123247
-0.0900126
-0.160111
0.182709
-0.368358
0.205528
0.0421429
0.306827
-0.431229
0.124402
-0.0459262
0.207361
-0.503894
-0.0267016
0.184817
-0.37015
0.112872
0.257278
0.00564516
0.109962
-0.115607
-0.0166649
0.108762
0.0117054
0.00542622
-0.0171316
0.0783561
0.0306765
-0.109033
-0.0324802
-0.0598983
-0.0415962
-0.0114663
0.0727947
0.261192
-0.364103
0.102911
0.00554302
0.00878204
-0.0426496
0.0338675
0.324609
-0.392245
0.0676364
0.353621
-0.152395
-0.0106288
0.163024
0.00271674
0.0133627
0.338195
-0.593833
0.255638
0.130451
-0.00746296
-0.122988
0.0741874
-0.00278575
-0.0714016
0.121673
-0.152907
0.0312336
0.373819
-0.268137
-0.105682
-0.287636
0.23014
0.0574956
-0.18046
0.323203
-0.142743
-0.0813565
-0.0645848
-0.14706
0.103359
0.232587
0.00554467
-0.0245595
0.0344841
-0.0228214
-0.0116627
-0.119109
0.124499
-0.0993828
0.0164183
-0.0184642
0.153935
0.100526
-0.0903271
-0.0101985
-0.213169
0.222729
-0.204851
0.153709
0.0118669
0.0422721
-0.0541389
-0.0681375
0.0976088
-0.0294714
0.00348224
-0.00462326
0.0340799
-0.0433173
-0.590643
-0.416119
0.310557
0.105562
-0.146691
0.310848
0.346612
-0.0711741
-0.275437
0.117737
0.159504
-0.0564993
-0.0773801
0.133879
0.371464
-0.077173
-0.294291
-0.000112852
0.100428
-0.100315
-0.502301
0.443586
-0.167814
-0.29938
0.129127
-0.0163104
-0.0064172
0.107437
-0.0596069
0.0952716
-0.355352
0.0746048
0.0350981
-0.175024
-0.241095
0.0123063
0.0434855
-0.0557918
0.273532
0.227705
-0.184901
0.13624
0.458172
-0.185166
0.0189276
0.0775264
-0.096454
-0.000946896
0.0667928
-0.102376
0.277823
-0.0741992
-0.0579905
0.359273
-0.144956
-0.214318
0.149551
0.00258285
-0.00298185
0.23435
0.102351
-0.336701
0.19503
-0.27546
-0.139531
0.11843
0.171769
0.0144867
0.00551638
0.282732
0.116715
-0.177938
0.0612229
0.250865
-0.281647
0.119724
-0.501419
0.13754
-0.0170971
-0.0956631
-0.169124
-0.215396
-0.237005
0.452401
-0.16301
-0.0491125
-0.00284396
-0.00354895
-0.202271
-0.0140372
0.216308
-0.0670225
0.0873642
-0.0328231
-0.00145761
-0.00307987
0.0139806
-0.222365
0.0200944
-0.448226
0.23283
0.0525846
0.125627