/*--------------------------------*- C++ -*----------------------------------*\
| =========                 |                                                 |
| \\      /  F ield         | OpenFOAM: The Open Source CFD Toolbox           |
|  \\    /   O peration     | Version:  v2012                                 |
|   \\  /    A nd           | Website:  www.openfoam.com                      |
|    \\/     M anipulation  |                                                 |
\*---------------------------------------------------------------------------*/
FoamFile
{
    version     2.0;
    format      ascii;
    class       volVectorField;
    location    "100";
    object      U;
}
// * * * * * * * * * * * * * * * * * * * * * * * * * * * * * * * * * * * * * //

dimensions      [0 1 -1 0 0 0 0];


internalField   nonuniform List<vector> 
13917
(
(1.09693 0.119996 -2.31844e-20)
(1.02043 0.0409622 5.55823e-22)
(0.577265 -0.0566605 -4.55332e-20)
(1.05509 -0.0127269 -1.42254e-21)
(0.99627 0.00298796 -1.19794e-20)
(0.359633 0.0507058 0)
(0.50646 -0.052752 0)
(0.581611 -0.0522781 0)
(0.421849 -0.0616441 -1.35166e-20)
(1.14139 0.149213 3.43194e-20)
(1.12617 -0.0587169 -1.85794e-21)
(1.09518 -0.0472469 0)
(1.05558 -0.0135269 0)
(-0.00902144 -0.00322695 -1.63242e-20)
(0.972108 0.093233 -9.73989e-21)
(0.995245 0.0878699 5.40685e-21)
(1.0149 0.0461905 2.38192e-21)
(1.13929 0.0182736 0)
(1.09384 -0.0467896 1.1405e-21)
(1.00137 0.0045608 4.56947e-21)
(0.999972 0.000849624 0)
(0.484317 -0.0519471 0)
(1.00083 0.00763165 6.72606e-21)
(0.638414 -0.0565662 -1.60054e-20)
(0.994932 0.0144451 1.24191e-21)
(0.518048 -0.0584693 2.1346e-20)
(0.784049 0.0320487 0)
(0.758065 0.119594 -3.25473e-20)
(0.732068 0.568223 0)
(1.19676 0.0867794 0)
(1.11147 0.10975 2.49264e-20)
(1.06046 0.0879107 6.85879e-21)
(0.837995 0.0672095 0)
(0.91132 -3.16966e-05 1.904e-20)
(0.991459 0.011473 -1.43796e-21)
(1.14544 -0.0766466 1.44843e-20)
(1.00074 0.00716033 4.5118e-22)
(0.124114 -0.0214318 0)
(1.06256 -0.0182953 -4.19867e-21)
(0.278725 -0.0112057 8.10121e-22)
(1.00807 0.000738237 0)
(0.999988 0.000381775 -7.62155e-22)
(1.01959 0.00218607 -1.9789e-21)
(0.703349 0.201918 0)
(1.03835 0.0234519 -4.97481e-21)
(0.892665 0.0135247 0)
(1.13682 0.0166206 0)
(1.13951 -0.012345 0)
(0.104341 0.1331 1.50241e-19)
(1.00327 0.00076364 -2.31796e-21)
(1.08543 0.0138227 0)
(0.96574 0.00881064 -4.67955e-21)
(0.0753138 0.111625 -2.75628e-19)
(0.906697 0.00118243 2.18128e-20)
(1.01373 0.0471818 0)
(1.08516 0.0373336 -9.45766e-21)
(1.12647 -0.0576805 -1.8089e-20)
(0.995423 0.028773 1.06716e-20)
(1.07114 0.0435636 5.40553e-21)
(1.03691 0.0230287 2.24458e-22)
(0.535236 0.0522686 0)
(1.02193 0.0410045 2.81004e-22)
(-0.024288 0.000982296 1.78483e-20)
(1.00147 0.00496327 0)
(0.386365 0.0630055 0)
(1.0326 0.347888 -2.52417e-20)
(0.995539 -0.000737029 -1.31063e-20)
(0.988283 -0.0017966 -1.87805e-20)
(1.15024 -0.0410581 -3.72785e-20)
(1.06374 0.134627 -5.86542e-21)
(0.996646 0.003123 1.10197e-20)
(0.480196 -0.068202 6.6375e-21)
(-0.0687076 -0.0220916 -4.34815e-20)
(0.995511 0.0141011 -3.59493e-21)
(0.105944 0.206921 -1.26103e-19)
(1.086 -0.0550005 -1.35903e-20)
(-0.0686161 -0.0116311 1.08138e-20)
(1.0536 0.0258816 0)
(0.533058 -0.0608083 0)
(0.999885 0.0017278 -6.97243e-21)
(1.00004 0.00274793 -6.32895e-21)
(0.996083 -0.000682238 0)
(0.405567 0.126256 0)
(0.152202 -0.0246192 0)
(-0.0958316 0.0183783 -6.89767e-20)
(1.05251 0.0247075 -5.00985e-21)
(1.00029 0.00367702 6.12712e-21)
(1.17927 0.424343 0)
(1.08357 0.0137481 1.71401e-20)
(1.02003 0.00217962 0)
(0.0124974 -0.0256927 0)
(1.17851 0.128264 -6.69417e-20)
(1.02267 0.0227615 0)
(0.973905 0.0525743 -4.83572e-22)
(1.13078 0.41849 6.28587e-20)
(0.386955 -0.0105728 -5.71638e-20)
(1.13423 -0.0430095 -1.46303e-20)
(1.13986 -0.00368427 -2.29739e-20)
(1.09368 -0.0692516 -1.88108e-20)
(0.609279 0.126938 1.05859e-19)
(1.01076 0.00558465 -1.01619e-21)
(0.845817 -0.000974874 -4.16015e-20)
(0.693183 0.186775 4.62164e-20)
(1.06099 0.0192307 0)
(1.01591 0.0118216 1.2179e-22)
(0.494287 -0.067702 9.9622e-22)
(0.81244 0.507177 -2.89758e-20)
(1.14176 -0.0134057 5.2658e-20)
(1.01675 0.0466698 0)
(1.11186 0.124674 1.85552e-21)
(-0.181325 -0.0155604 6.07855e-20)
(0.285512 -0.012815 2.61051e-21)
(1.09737 -0.0549715 0)
(0.456726 -0.0667538 5.23021e-20)
(0.948692 0.00765918 8.78192e-21)
(0.0832064 -0.119597 -7.52996e-20)
(1.00071 0.0134311 -1.18639e-20)
(0.200703 0.0915518 -2.7365e-20)
(0.142298 -0.0109292 -4.93214e-21)
(0.907955 0.0137181 -5.45505e-20)
(0.999983 0.000733917 -5.56036e-21)
(1.15069 -0.0400844 6.15319e-20)
(0.114123 -0.010963 0)
(0.766954 0.112856 2.49213e-20)
(1.00488 0.000661778 1.11253e-21)
(0.97531 0.0499942 0)
(1.03386 0.0270283 -6.00393e-21)
(1.00453 0.000537784 -1.93843e-21)
(1.01696 0.00155589 -7.87e-22)
(0.362268 0.00374355 0)
(0.215623 -0.0240453 -9.9191e-21)
(0.951129 0.00673617 6.91015e-21)
(1.03874 0.0244432 -4.73302e-21)
(0.999976 0.000671757 0)
(1.27628 -0.024184 -4.25381e-20)
(0.65436 -0.06027 0)
(1.09437 0.124622 1.96942e-20)
(0.585408 0.128056 3.59344e-20)
(0.995218 -0.000328053 1.47269e-20)
(0.908934 0.00949304 3.00564e-20)
(1.13547 -0.0717073 -3.09262e-20)
(1.02398 0.012393 0)
(0.962574 0.0209261 0)
(0.655379 0.198456 0)
(0.987634 -0.00150979 8.60292e-21)
(0.694301 -0.0681656 -3.07095e-22)
(0.802459 0.574189 6.39952e-21)
(0.967639 0.00922974 0)
(1.02259 0.0103813 -1.94967e-21)
(1.05547 0.0971309 -1.02317e-20)
(1.11785 -0.0220072 0)
(0.0928007 -0.153352 2.51501e-19)
(1.11673 -0.0450123 1.77292e-20)
(1.02643 0.178643 -4.91179e-23)
(1.07681 0.0619975 0)
(-0.0556043 0.050067 1.56496e-19)
(1.05891 0.13192 0)
(1.1324 -0.0586324 5.02006e-20)
(-0.0906026 -0.0091004 2.3033e-20)
(1.27215 -0.0219236 -6.3167e-21)
(0.940264 0.0430529 -1.02414e-20)
(0.784959 -0.0282974 -4.07052e-20)
(1.00001 0.00186862 6.07557e-21)
(1.13255 -0.0427638 -1.34009e-20)
(1.09814 -0.0539813 6.18164e-21)
(1.09505 -0.0683456 1.97771e-20)
(1.0601 0.0200983 0)
(1.1279 -0.0145976 3.31843e-20)
(1.03163 0.0200536 0)
(0.838961 -0.00530376 2.76527e-20)
(1.04602 0.171477 0)
(-0.310485 0.000167979 4.45316e-20)
(1.09464 -0.0585044 0)
(1.0126 0.0552577 2.47791e-21)
(0.834672 -0.0653089 8.32436e-21)
(1.01575 0.199482 -1.46979e-21)
(0.238525 -0.0279701 8.32511e-21)
(0.163605 0.0932922 -9.15266e-20)
(0.751035 -0.0689343 0)
(1.01224 0.0262433 0)
(1.18402 0.122858 0)
(1.1169 0.108206 0)
(1.02446 0.0119438 1.47764e-21)
(1.00029 0.00403391 -5.12936e-21)
(0.936492 0.112325 1.68455e-20)
(0.575391 -0.0625771 -5.13355e-24)
(1.26713 0.133252 -1.29788e-19)
(-0.00216168 0.0504659 -1.10213e-19)
(1.11585 0.0401088 -1.18935e-20)
(1.10472 -0.0639633 2.93335e-20)
(1.14939 -0.0625688 -2.36939e-20)
(-0.0455176 0.022567 -6.97121e-20)
(1.25687 0.175647 -7.75499e-20)
(0.999638 0.00744566 -7.53146e-21)
(0.564414 0.0608983 0)
(0.794642 0.0339096 8.8164e-20)
(1.00688 0.000271447 0)
(1.02288 0.0237557 0)
(0.873419 0.441646 6.8038e-21)
(1.20959 0.474882 0)
(1.07644 -0.00372592 -3.59729e-21)
(1.00298 0.000683888 -3.20014e-21)
(1.12194 -0.0152863 5.105e-20)
(1.11609 -0.022216 0)
(-0.0951657 -0.0176445 -7.06678e-20)
(1.22524 -0.0479106 -4.32009e-20)
(0.991786 0.0106894 0)
(0.994711 0.0298435 -1.20136e-20)
(1.13751 -0.00523931 5.19568e-21)
(0.594125 -0.0621289 -1.02931e-20)
(0.964789 0.0212814 8.35988e-21)
(0.490919 -0.0525754 0)
(-0.141439 -0.0109258 2.45702e-20)
(1.10576 -0.0631471 -1.92462e-20)
(1.01554 0.0121004 3.86168e-23)
(0.493841 0.406311 2.13046e-19)
(1.13062 -0.00405486 3.34239e-20)
(-0.265794 -0.0097414 -1.42657e-19)
(1.00276 0.0175048 0)
(0.687992 0.0731014 0)
(1.01186 0.0252671 -1.18784e-21)
(1.18757 0.0632718 4.44459e-20)
(1.0079 0.000926271 0)
(0.11249 -0.0252763 0)
(0.47366 -0.068752 2.75216e-20)
(0.996213 0.0913386 -6.86833e-21)
(1.18981 0.477937 7.77007e-20)
(1.07985 0.0609726 0)
(1.01484 0.0116806 1.25223e-22)
(1.14446 -0.0770616 0)
(1.09312 -0.0578273 0)
(1.11454 0.0377011 -6.22246e-21)
(0.662007 -0.0598928 -1.19737e-20)
(-0.162038 -0.00820725 1.24123e-20)
(1.01166 0.00288254 -4.33226e-23)
(1.06375 0.0890436 0)
(0.0414535 -0.0296888 0)
(-0.137296 0.0195645 0)
(0.999967 0.00208969 0)
(1.00588 0.00862831 1.78352e-21)
(0.33879 -0.0123762 2.57473e-21)
(1.13863 -0.0431798 -8.79736e-21)
(1.00004 0.000116294 0)
(1.11804 -0.0771651 -4.49339e-20)
(1.17081 0.00715386 0)
(0.794857 -0.0333646 0)
(1.09449 0.105354 -3.5647e-20)
(1.00001 0.00203431 -6.02302e-21)
(0.979175 0.203849 0)
(-0.128504 -0.00851022 -5.06263e-20)
(1.04009 0.00233682 2.28656e-21)
(1.20096 0.139573 4.47204e-20)
(0.570551 0.172279 6.30899e-20)
(1.03356 0.0257656 -4.40387e-21)
(0.994849 0.027114 -1.18438e-20)
(1.11066 -0.039908 2.99259e-20)
(0.349245 -0.0212437 0)
(1.11548 -0.0440525 0)
(0.93731 0.117003 0)
(0.975439 0.0958645 1.44724e-20)
(1.00003 0.000203998 2.01959e-22)
(0.0913313 -0.0076872 0)
(0.687373 -0.0577266 0)
(1.11468 -0.086964 -7.43285e-21)
(1.0144 0.0119406 -2.79195e-22)
(-0.135118 -0.0190312 -9.77068e-20)
(0.0053658 -0.00704554 0)
(1.08113 -0.0609783 -5.53181e-20)
(0.513217 -0.0590031 2.40899e-21)
(1.08616 -0.0563825 -5.57434e-21)
(0.999993 0.00254124 6.07364e-21)
(1.00596 0.000787855 -2.88148e-21)
(1.1358 0.0119503 3.80927e-20)
(0.042498 -0.0186567 2.99495e-20)
(1.15795 -0.0240419 8.4737e-21)
(1.06959 0.0414996 2.10334e-20)
(1.23164 -0.0502124 0)
(1.07967 -0.0386017 0)
(1.01688 0.00101354 1.26163e-21)
(0.95763 0.0113047 -4.39158e-20)
(1.00177 0.0045138 7.85144e-23)
(0.795416 -0.0642757 1.10685e-21)
(1.07462 -0.0033774 3.11098e-21)
(1.00006 0.000117851 -5.19419e-22)
(1.00001 0.108248 0)
(1.02074 0.180557 -1.04136e-21)
(0.785194 -0.0159061 0)
(1.1235 -0.0777522 3.26496e-20)
(0.997663 0.143731 -6.30733e-21)
(1.04293 0.00898115 4.4006e-21)
(1.2422 -0.000811527 0)
(0.671841 -0.0591533 1.34869e-20)
(0.586065 -0.059935 0)
(1.00249 0.017009 -5.62272e-21)
(1.05534 -0.0595817 0)
(0.998409 -0.00023756 0)
(1.04298 0.00804003 1.5329e-20)
(1.00084 0.0128358 1.34177e-20)
(0.814677 0.614094 -7.16438e-21)
(1.00146 0.000801648 0)
(1.19255 0.0628115 5.02941e-20)
(1.08993 0.105183 3.03058e-20)
(1.03119 0.0191025 4.40872e-21)
(1.12188 -0.0173052 -6.41632e-20)
(1.03775 0.055834 5.93342e-21)
(0.113595 0.0549977 -2.32771e-20)
(1.01496 0.194325 1.96677e-21)
(1.17254 0.12569 -2.88864e-20)
(1.02961 0.0132307 -6.82223e-21)
(0.995524 0.0261315 1.72233e-20)
(-0.202961 -0.0120399 3.35986e-20)
(0.0878999 -0.00910307 -2.50256e-20)
(1.00096 0.0139753 -2.63616e-21)
(1.00679 0.00082098 7.74782e-22)
(1.0103 0.0198057 0)
(1.01548 0.0248386 9.2237e-22)
(-0.0456526 -0.0250838 8.0147e-20)
(1.02868 0.0131241 2.47766e-21)
(0.129501 -0.0259396 6.86657e-21)
(1.04636 -0.00641346 -1.15799e-20)
(1.20937 0.325622 4.60437e-20)
(1.10148 0.00287714 -4.99305e-20)
(0.111343 0.279156 2.51824e-19)
(0.94406 0.0428073 1.95655e-20)
(1.30168 -0.0162606 -1.8024e-21)
(0.510442 0.299616 0)
(1.00307 0.106025 0)
(1.13978 -0.0420345 -4.05859e-20)
(0.953575 0.519902 0)
(0.995784 0.0431215 0)
(0.166707 -0.021414 0)
(0.572661 0.0400467 0)
(0.0140213 -0.00904257 -2.44324e-21)
(0.922391 0.0186607 -3.36065e-20)
(0.189578 -0.00963599 0)
(1.06997 0.0871817 1.69104e-20)
(-0.0846132 0.00146457 -6.47345e-20)
(0.528681 0.278544 0)
(0.920885 0.351073 1.64429e-20)
(0.937101 0.345963 -9.18994e-21)
(0.523254 -0.0544938 2.74699e-20)
(0.999701 0.00212623 4.62508e-21)
(1.05234 0.174729 -1.21035e-20)
(-0.147109 -0.0169441 -5.51872e-20)
(0.98273 0.0288222 0)
(1.00204 0.0709839 -7.99032e-21)
(0.0236928 -0.00678674 2.92271e-20)
(0.860445 0.476079 0)
(1.01739 0.0520982 -6.39165e-22)
(1.13583 -0.0615107 0)
(0.701854 0.540738 0)
(1.00885 0.00482799 0)
(0.122472 -0.00763858 5.09449e-21)
(1.14651 -0.0694415 4.53087e-20)
(1.00189 0.0048814 -4.48356e-21)
(1.00914 0.01248 0)
(0.998608 -0.000415284 2.9884e-22)
(1.02296 0.0100072 2.48789e-21)
(1.23463 -0.00254469 -2.47674e-20)
(0.787496 -0.0682553 1.92574e-20)
(0.387651 -0.282502 0)
(-0.168924 -0.0139811 -2.87312e-20)
(0.997908 0.0140762 5.47503e-23)
(1.20812 0.138894 -7.94374e-20)
(-0.194305 0.0204386 -1.36835e-21)
(1.1125 -0.00734968 -5.73422e-21)
(0.470448 -0.051383 0)
(0.0718369 -0.0227348 2.56111e-20)
(0.436549 -0.0675427 -8.41831e-20)
(1.0129 0.00529596 -1.039e-22)
(1.10789 -0.0849055 -1.35969e-20)
(1.01029 0.0121114 0)
(0.815717 0.0865618 4.87126e-20)
(1.03603 0.0237045 4.83071e-21)
(0.0855672 0.326809 -1.31795e-19)
(1.17377 0.00883619 1.74722e-20)
(1.06493 -0.00989632 1.50185e-20)
(0.999544 0.00259768 -2.64007e-21)
(1.13522 -0.00400177 -7.95868e-20)
(1.19021 0.124025 0)
(1.15379 0.00486774 0)
(0.326794 1.09074 -1.15204e-21)
(-0.129551 2.02328e-05 -6.97901e-20)
(-0.292695 -0.00674338 1.73014e-19)
(0.984221 0.211935 0)
(1.13489 0.146203 -8.57273e-20)
(1.00558 0.00821326 0)
(-0.112171 0.0207594 0)
(0.473085 -0.0525593 2.63269e-20)
(0.999393 0.0328091 -5.53855e-21)
(1.27528 -0.0107653 4.78068e-20)
(0.995689 0.0105368 0)
(1.20016 -0.0307271 6.76426e-20)
(1.04647 -0.00576679 8.35467e-21)
(0.999777 0.00177563 0)
(1.03316 0.0590099 0)
(0.57769 -0.0625278 1.0277e-20)
(1.03141 0.0593237 0)
(0.369673 -0.0264478 8.31681e-21)
(-0.0587236 0.0382281 -2.51235e-20)
(1.11909 -0.0604387 -4.80306e-20)
(0.442424 0.279708 0)
(0.997512 0.0427719 3.96199e-21)
(0.495787 0.363421 -1.75115e-19)
(0.468603 0.304409 1.11721e-19)
(1.00198 0.0098375 3.23286e-21)
(0.825204 0.476662 2.6984e-20)
(0.984119 0.0285353 1.66057e-22)
(0.994484 0.0122663 1.38775e-21)
(1.19535 0.0916533 0)
(1.00006 0.000304343 0)
(0.993809 0.0138722 3.84797e-21)
(1.01052 0.0119206 0)
(1.23663 0.00255189 2.2625e-20)
(0.999935 0.00137133 -4.83492e-22)
(0.198989 -0.0118605 0)
(0.678356 -0.0736234 0)
(-0.127708 0.01601 0)
(1.2519 0.182138 2.66803e-20)
(0.339428 -0.0333941 5.44715e-21)
(-0.239484 -0.0121072 0)
(1.11053 -0.00778014 1.02651e-20)
(0.998254 0.0135056 0)
(1.20304 0.00227611 -1.30022e-20)
(1.06221 -0.0170324 3.48942e-21)
(1.0686 0.0945492 1.66903e-20)
(0.999641 0.00801447 -8.37763e-21)
(0.719594 -0.0695654 -1.84902e-20)
(0.536068 -0.0585442 1.14746e-20)
(0.738307 -0.0780582 -2.25586e-22)
(0.984103 0.0865564 -4.96085e-22)
(1.17329 -0.00245922 -1.93797e-20)
(0.925785 0.0157995 5.11012e-20)
(1.06398 -0.0187691 -8.48702e-21)
(1.15168 0.00358414 0)
(1.01917 0.0608878 1.46457e-21)
(1.10648 -0.0863017 0)
(1.01782 0.0454544 0)
(1.00144 0.000944715 -3.21833e-21)
(-0.015379 -0.0299413 0)
(0.232535 -0.0267832 0)
(0.253945 -0.0296076 -4.1659e-21)
(1.1817 0.210496 -5.37489e-20)
(-0.136014 0.0118075 0)
(0.196647 -0.0249304 0)
(-0.0894468 -0.03109 0)
(-0.0348712 -0.0107487 0)
(1.01623 0.00170045 1.26392e-21)
(1.1371 0.00332151 -6.60189e-22)
(1.02119 0.0606807 -1.26582e-21)
(0.992408 0.0304283 0)
(1.21924 -0.0434724 -1.02067e-19)
(1.13782 0.0134452 -4.35846e-20)
(1.01732 -0.000174152 0)
(1.15703 0.045127 0)
(1.11113 -0.00263045 -2.21512e-20)
(-0.0286732 -0.00835607 -3.53738e-20)
(1.00215 0.0102016 3.85133e-21)
(1.14401 -0.0331795 -6.07638e-20)
(-0.00769783 0.010714 4.60714e-20)
(1.22872 0.340878 2.97733e-20)
(0.201191 -0.0153107 -1.82792e-20)
(0.99994 0.00119305 -4.19242e-21)
(0.998278 0.0332425 7.5387e-22)
(1.0106 0.000381494 -6.02631e-23)
(1.05376 0.135761 5.93414e-22)
(1.01283 0.00490278 2.10422e-22)
(0.641117 -0.0698551 -1.03023e-20)
(0.399044 -0.242784 -5.85143e-20)
(1.00058 0.138366 5.73636e-21)
(-0.0707552 0.0278765 0)
(1.08458 0.0349744 1.84674e-20)
(1.13166 -0.0444764 0)
(-0.0499535 -0.0346421 -5.29665e-20)
(0.823808 0.574987 1.88152e-21)
(1.11757 -0.0605077 3.99825e-20)
(1.14212 -0.0718264 4.31602e-20)
(1.14352 -0.0343706 5.16152e-20)
(1.15599 0.0621546 5.57516e-20)
(1.1897 -0.0116958 0)
(1.09615 -0.0275168 1.74003e-20)
(1.11253 -0.0682584 -2.44744e-20)
(0.375755 0.106149 0)
(1.09218 -0.03638 -1.97212e-20)
(1.14052 -0.0207318 1.58649e-20)
(1.01397 0.000618549 8.72329e-22)
(1.26178 -0.0318102 0)
(1.08843 0.0166702 1.85301e-20)
(1.02905 0.0028344 -6.15154e-23)
(1.04934 0.132217 0)
(1.05601 0.0242008 -5.62241e-21)
(-0.0243438 -0.0109943 0)
(0.479961 -0.0697864 0)
(1.01476 0.0238533 -8.71415e-22)
(1.01679 0.000807686 4.20968e-22)
(0.662217 -0.0676234 -1.14928e-20)
(-0.261708 -0.00872646 0)
(1.00005 0.000230868 -2.74459e-21)
(0.177627 -0.0105436 1.81946e-20)
(1.05658 0.00371998 -1.38649e-20)
(1.24038 0.160948 2.02927e-20)
(1.01416 0.0257401 5.87944e-22)
(-0.131526 -0.0153594 -3.07307e-20)
(1.18082 -0.0557927 0)
(1.05842 0.0947918 1.26837e-20)
(1.03681 0.0365479 -5.895e-21)
(0.366387 -0.0383658 -1.41613e-20)
(1.25552 0.131535 8.86292e-20)
(-0.254652 0.00983243 0)
(1.00004 0.000275874 0)
(-0.129221 -0.0113088 -4.84932e-20)
(0.136154 0.0543942 1.22204e-19)
(0.981724 0.0235553 2.69416e-21)
(1.02921 0.00334743 -8.41171e-21)
(-0.128168 0.0183409 -1.92115e-20)
(0.328734 -0.058501 0)
(1.11025 -0.0112629 4.15589e-20)
(1.00967 0.012554 -2.13909e-21)
(1.0089 0.0466204 0)
(1.0831 -0.0552213 -1.69236e-20)
(1.19859 -0.0350604 5.49369e-20)
(1.0178 -0.000192889 -6.08844e-22)
(1.00867 0.0117786 -1.56932e-21)
(1.00478 0.00231184 -2.49618e-21)
(1.00508 0.0024137 0)
(-0.158452 -0.0160629 5.96929e-20)
(1.21985 -0.0403368 -8.8301e-20)
(1.10972 -0.0100096 -4.15177e-20)
(1.26586 0.118933 -1.57783e-21)
(1.00601 0.000608727 2.80734e-21)
(1.01033 0.00529676 9.38195e-22)
(1.16996 -0.00351971 9.46275e-21)
(0.185915 -0.0545835 7.84041e-21)
(1.10608 0.0505238 0)
(1.03277 0.0202945 0)
(0.994809 0.01271 0)
(0.992493 -0.000230542 -1.73246e-20)
(0.922142 0.0142323 8.01157e-20)
(-0.000812034 0.0251763 1.47288e-19)
(1.00043 0.00349597 0)
(0.992669 0.00272488 -1.09689e-20)
(1.10415 -0.0850875 -7.01789e-21)
(1.09658 -0.0259727 -1.74825e-20)
(1.10059 0.00154218 -8.94277e-21)
(0.997265 0.0316991 -1.13158e-20)
(1.0287 0.0622163 1.32256e-21)
(1.04402 0.0933814 1.67479e-21)
(1.13855 -0.0214195 8.72115e-22)
(0.949397 0.493604 0)
(1.27081 0.127885 9.97801e-20)
(1.20302 -0.00180795 6.08425e-20)
(1.15727 -0.0144664 0)
(1.22436 -0.0510459 1.17004e-20)
(1.17205 0.118653 -3.86621e-20)
(1.00169 0.0164772 6.05089e-21)
(-0.115763 -0.0113088 4.34303e-20)
(0.992838 -0.000720736 1.07867e-20)
(1.00265 0.0738522 9.34708e-21)
(1.0668 -0.00208327 6.15735e-22)
(1.25829 -0.0323954 -2.77761e-20)
(0.99262 0.288744 0)
(1.00954 0.00115631 0)
(1.23149 0.329819 0)
(1.20545 0.0790177 0)
(-0.0917629 -0.0037583 -5.26786e-20)
(1.15875 -0.0127966 3.87101e-20)
(0.887758 0.134049 -6.71343e-23)
(1.11343 -0.00331321 -2.13717e-20)
(0.999409 0.00286889 5.6715e-21)
(0.512208 -0.0610139 0)
(1.22089 0.319325 -5.29692e-20)
(0.364147 -0.0413681 0)
(1.01714 0.0433269 0)
(1.09592 0.0403652 3.65959e-20)
(1.26923 0.114127 0)
(0.0812197 -0.024814 -5.53454e-20)
(-0.185385 0.00232268 -1.29936e-19)
(1.14225 -0.00507182 7.59624e-22)
(1.19057 0.212394 -8.01973e-21)
(0.991405 0.0869385 -1.96468e-21)
(1.05626 0.0549674 1.16922e-21)
(0.996196 0.0321988 -6.96952e-21)
(0.889391 0.22995 0)
(0.671184 0.180332 0)
(0.973888 -0.00433059 0)
(1.12837 -0.00534899 0)
(0.569627 0.147033 -1.56151e-19)
(0.378879 -0.0424465 -8.78743e-21)
(-0.248091 0.0115888 0)
(1.03178 0.07218 -8.30457e-22)
(1.13012 -0.044445 -1.76828e-21)
(1.18108 -0.0543494 0)
(1.00456 0.116375 -2.53769e-21)
(0.968292 0.0232614 -1.66175e-20)
(0.174907 0.539451 0)
(0.686181 -0.0728515 4.92839e-20)
(0.631917 -0.0655349 1.99134e-20)
(1.26071 0.101127 -1.10335e-19)
(1.01687 0.00177605 0)
(0.129168 -0.00942105 -5.94077e-21)
(1.08451 -0.0544586 1.6828e-20)
(1.00948 0.000850486 0)
(1.09388 0.0722085 -7.61824e-21)
(1.12678 -0.0309168 0)
(0.847347 0.0689557 3.23073e-20)
(1.19312 0.0819892 2.03874e-20)
(0.520067 -0.0610505 0)
(1.18637 -0.0116142 1.83616e-20)
(1.09208 -0.0242739 1.85564e-20)
(0.513174 -0.0609279 0)
(1.05825 0.030228 4.14785e-21)
(-0.0552134 -0.00890561 -4.71476e-21)
(0.999962 0.001844 0)
(1.00043 0.0037989 -2.33669e-22)
(1.03036 -0.0612201 -2.35279e-20)
(0.654929 -0.073461 -2.70338e-20)
(0.376975 0.237784 -1.32282e-19)
(1.05878 0.0288332 -4.41868e-21)
(1.01387 0.053354 -2.78749e-21)
(0.993089 0.00317835 1.54242e-20)
(1.08092 -0.0387905 7.57738e-21)
(0.0783343 0.172009 1.44879e-19)
(1.09428 -0.0668203 -1.77886e-20)
(1.05856 0.0553695 1.33504e-21)
(1.11684 -0.0588004 -2.14807e-20)
(1.13297 -0.0054332 3.69598e-20)
(1.01403 0.0264717 2.99073e-21)
(1.16778 0.48601 3.40613e-20)
(1.09242 -0.0662088 1.30867e-20)
(1.0911 -0.0887501 2.43217e-20)
(1.00445 0.0189526 0)
(1.18149 -0.014859 -1.42394e-20)
(1.05516 0.025731 -7.91971e-22)
(-0.0155623 0.0488377 -8.43913e-20)
(1.14727 0.145787 -3.66957e-20)
(1.0034 0.281785 0)
(1.09709 0.042237 -3.40935e-20)
(1.00742 0.00271464 1.57645e-21)
(1.02708 0.00561556 1.84261e-21)
(1.03512 0.0275644 4.2029e-21)
(0.967548 0.351742 -8.38934e-22)
(0.891042 0.0185463 0)
(1.25499 0.0349885 -6.69238e-20)
(0.470512 0.805204 1.09463e-20)
(1.128 -0.0124428 -3.5085e-20)
(1.0084 0.00476789 0)
(1.19184 -0.00552189 0)
(0.373902 0.268286 0)
(1.14809 -0.0731405 -3.82917e-20)
(1.03937 0.00290305 0)
(0.900506 0.0316088 1.06294e-20)
(1.00816 0.011669 -8.9583e-23)
(1.0768 -0.0188249 0)
(1.07354 0.0431906 0)
(0.304992 -0.0589707 -2.0823e-20)
(0.999844 0.00186691 0)
(1.2361 0.504709 -4.49411e-20)
(1.07805 -0.0157715 0)
(1.1246 -0.0601763 7.77639e-21)
(1.17555 0.140872 -1.73667e-20)
(-0.0846517 -0.020792 7.2313e-20)
(1.02624 0.279861 8.72159e-21)
(1.0085 0.0449706 -1.33982e-21)
(0.0116604 -0.0173797 -3.32553e-20)
(-0.25189 -0.00447311 6.41446e-20)
(1.00614 0.0344112 0)
(1.06571 -0.00291236 2.22515e-21)
(1.18546 -0.0558107 9.25425e-20)
(1.25162 0.103586 0)
(1.15559 -0.0241574 -1.7355e-20)
(1.00014 0.000333881 -3.35238e-21)
(1.03807 0.0364621 0)
(1.19713 0.316464 0)
(1.06552 -0.0108836 -2.01796e-20)
(1.15384 0.00820754 0)
(1.1096 -0.038259 0)
(1.02774 0.00546965 2.70799e-21)
(1.11411 -0.0249491 0)
(0.586255 -0.0564111 2.55541e-20)
(1.03881 0.00130306 4.59271e-21)
(1.05253 -0.00866443 0)
(1.00426 0.00246965 2.38155e-21)
(0.0840731 -0.00745133 -1.20815e-20)
(0.99995 0.000805123 9.32406e-22)
(0.98439 0.0827011 -4.72628e-22)
(-0.305295 -0.00203861 4.39227e-20)
(0.993456 0.0676058 7.20257e-21)
(0.71569 -0.0702459 2.54372e-20)
(1.07574 0.0647206 -2.01333e-21)
(0.832123 0.0730838 -6.20778e-20)
(1.00459 0.00257997 3.78361e-21)
(1.02309 0.21403 8.43541e-21)
(1.00057 0.0122061 -7.24791e-21)
(1.15427 0.0703416 -1.11253e-20)
(1.00709 0.00162364 0)
(1.0848 0.260564 -2.27241e-20)
(1.05632 0.00452022 0)
(0.24468 0.142392 -8.14469e-20)
(0.43365 0.680666 4.44852e-20)
(0.182814 -0.0555832 -9.81298e-21)
(1.01017 0.000370953 6.87454e-24)
(0.999631 0.0022823 -4.35631e-21)
(1.16623 0.115564 3.53864e-20)
(1.12656 0.111537 -6.81369e-23)
(0.0578005 -0.0107744 -3.07492e-20)
(0.301304 -0.0618444 3.57165e-20)
(1.14032 0.0217297 3.93607e-20)
(0.992796 0.0110927 0)
(1.23471 0.00120717 2.12042e-20)
(0.344084 0.212728 2.78294e-19)
(1.09047 -0.0875655 -2.09053e-20)
(1.25184 0.0390302 8.27995e-20)
(1.13136 0.00855129 3.60992e-20)
(0.57026 -0.0656768 1.75894e-20)
(1.08711 0.129045 -1.02987e-20)
(1.0792 -0.0372869 1.18039e-20)
(1.20213 0.0158387 3.36272e-20)
(0.855612 0.420685 1.30383e-20)
(1.1388 0.0236489 -2.78914e-20)
(0.305072 0.289035 -1.8008e-19)
(1.13939 0.0296257 1.72015e-20)
(1.05855 -0.00714403 -7.12894e-21)
(1.12815 -0.0319844 -2.35328e-20)
(1.00723 0.107518 -2.55788e-21)
(1.03262 0.0041771 1.2848e-20)
(1.07671 -0.0178118 4.2839e-21)
(1.1136 0.119505 3.04762e-20)
(1.05131 0.0955857 1.22388e-21)
(0.999462 0.0121375 0)
(1.00643 0.00048146 0)
(1.13059 -0.0093302 3.47871e-20)
(1.06259 0.00996753 -1.39508e-20)
(1.15672 0.00942928 3.73623e-21)
(0.993474 0.0108181 0)
(0.995292 0.00856613 0)
(0.999962 0.000637787 6.39205e-23)
(1.02456 0.062448 4.56287e-23)
(1.02212 0.000719353 -3.29067e-21)
(1.04944 0.0813291 8.46497e-21)
(1.00378 0.00263374 -6.82202e-22)
(-0.139939 -0.0143303 0)
(1.09146 -0.047992 0)
(0.472518 -0.288661 -1.23433e-20)
(1.01169 0.0050154 -7.93436e-23)
(1.00005 0.00143559 6.17144e-21)
(0.802889 0.142842 -4.32116e-20)
(1.15925 0.0599045 -6.55798e-20)
(0.954018 0.0026711 0)
(0.830479 -0.00637247 7.83177e-20)
(1.13674 0.196853 6.1794e-20)
(0.991188 0.112548 -9.07253e-20)
(1.07807 -0.0168142 -5.55308e-21)
(1.17885 -0.00518322 2.35294e-20)
(1.05096 0.014415 5.95153e-21)
(0.999914 0.00089731 6.40283e-21)
(1.00532 0.00214883 0)
(1.03601 0.0569082 -8.98705e-21)
(-0.329361 0.00106534 -1.07867e-19)
(1.00004 0.00122262 -8.74873e-21)
(1.19332 -0.0578915 2.36592e-20)
(1.05086 0.0837308 0)
(-0.192645 0.0233125 -6.76831e-20)
(0.967499 0.223361 -1.05287e-20)
(1.14414 0.194846 -3.51252e-20)
(1.12294 -0.0601159 3.66051e-21)
(1.02005 0.00583059 0)
(1 3.96295e-05 0)
(1.09294 -0.0483584 0)
(0.988336 0.00304106 0)
(0.985581 0.0423385 5.92282e-21)
(0.975968 -0.0111476 0)
(1.01362 0.0571431 1.58955e-21)
(0.998635 0.000234585 2.55583e-21)
(1.08588 0.0529482 -2.55142e-20)
(1.00601 0.0073649 -1.43955e-21)
(1.01581 0.00077212 -8.35047e-22)
(1.05777 0.0905958 -6.50841e-21)
(0.886137 -0.0245578 0)
(0.0351243 -0.00801715 -1.81361e-20)
(1.08226 0.109002 1.72855e-21)
(1.03876 0.000750547 5.39133e-21)
(1.00871 0.000892073 0)
(0.113017 -0.0288949 2.61006e-20)
(0.953003 0.359286 0)
(1.00212 0.041523 -5.18953e-21)
(1.01816 0.0426521 6.58863e-22)
(0.924962 -0.00474268 -1.20806e-19)
(1.18592 -0.0549973 3.86728e-20)
(-0.311389 -0.0061308 1.09487e-19)
(0.89552 0.134567 0)
(1.05949 -0.00631067 3.55002e-21)
(1.0113 0.00300448 4.40394e-23)
(1.01601 0.000914699 1.69982e-21)
(1.09374 -0.0364049 -3.68455e-22)
(1.08697 0.11001 -1.01059e-21)
(1.13442 -0.0572692 -2.31054e-20)
(0.918468 0.018627 0)
(0.142148 -0.0179403 -2.51245e-20)
(1.02846 0.0418914 3.68976e-21)
(0.965445 0.0584704 1.39356e-20)
(-0.32181 -0.00208568 -1.22381e-19)
(0.99551 0.0099973 0)
(1.08945 0.0150746 -2.14085e-20)
(1.005 0.0308322 5.61619e-21)
(1.00187 0.00123046 3.68332e-21)
(1.10629 0.125096 3.25364e-21)
(0.775062 -0.00994542 -4.51698e-20)
(1.04878 0.0263921 0)
(0.679094 -0.0704639 0)
(0.295076 -0.0171007 -1.33253e-20)
(1.18001 0.13578 1.54616e-20)
(1.00199 0.0170502 1.06873e-20)
(1.02407 0.00220986 -2.65731e-23)
(1.10179 -0.064342 -3.68457e-20)
(1.20753 -0.0556835 -3.50584e-20)
(1.00006 0.000377511 3.7234e-21)
(1.20747 -0.0504379 5.3697e-20)
(1.02358 0.00239564 0)
(1.10998 0.114395 -2.67158e-20)
(1.03313 -0.00254716 0)
(1.03384 0.00584527 -1.16092e-20)
(1.20415 -0.0358607 4.01444e-20)
(1.03942 0.0149864 -1.08201e-20)
(1.02994 -0.0924128 0)
(1.11502 0.086915 -3.22276e-21)
(0.999956 0.000574134 7.77093e-21)
(1.01927 0.00310553 0)
(0.981583 0.000516178 1.08097e-20)
(1.00937 0.0196233 0)
(1.05209 -0.00760923 -4.04319e-21)
(0.272106 0.683277 -6.53898e-20)
(1.03763 0.00326317 1.07463e-20)
(1.03016 0.00972222 -4.55301e-21)
(0.373109 -0.0550268 0)
(0.605087 -0.0674446 3.86127e-22)
(1.09347 -0.0255615 8.13889e-21)
(1.12115 0.112876 0)
(1.14685 0.000654465 -5.53734e-20)
(1.07668 0.0230558 3.04842e-20)
(1.02391 0.0135743 0)
(0.888842 0.0112734 -1.85097e-20)
(-0.10092 -0.0159425 7.02506e-20)
(1.0946 0.262002 0)
(0.998247 0.00496805 6.46581e-21)
(1.03549 0.035707 6.5516e-21)
(0.333207 -0.0639592 0)
(1.11322 0.0185031 2.74336e-20)
(-0.12074 -0.0153369 3.22303e-20)
(0.999953 0.000751622 -8.65368e-21)
(0.951628 0.00349615 1.57956e-20)
(0.0685235 -0.00692719 1.97584e-20)
(1.10585 0.0128341 3.67331e-20)
(1.05087 0.0250018 0)
(-0.316274 0.00267202 2.1774e-19)
(0.213023 0.235213 1.36111e-19)
(1.00962 0.0191018 0)
(1.19804 0.0177237 0)
(1.00562 0.00225538 0)
(1.03828 0.0149637 1.11001e-20)
(1.01205 0.00527977 0)
(-0.108677 -0.0232181 2.60662e-20)
(1.02171 0.000591938 5.99584e-23)
(1.03777 -0.00488749 4.92433e-21)
(1.02443 0.013124 0)
(0.985643 -0.0911846 0)
(1.06187 -0.0147468 1.01551e-20)
(1.24493 0.153949 -1.99132e-20)
(0.703283 -0.0963226 6.71347e-20)
(1.03432 0.00401354 -1.63956e-21)
(0.845802 0.0259874 -1.21131e-20)
(1.00046 0.00332221 2.77171e-21)
(-0.158912 -0.0134047 3.44262e-20)
(1.00524 0.00988781 -2.76129e-21)
(1.03828 0.00268916 -8.72115e-21)
(0.998674 0.000746438 0)
(1.1032 -0.0649074 5.08645e-20)
(0.998515 0.000611228 3.82254e-22)
(1.18467 -0.0149658 2.23303e-20)
(0.31096 -0.0120534 5.76437e-21)
(0.69815 -0.0627343 1.26928e-20)
(0.905353 0.0321386 -3.88928e-20)
(1.14497 -0.0674222 1.07581e-20)
(-0.279079 -0.00315494 -6.56683e-20)
(0.996666 0.0263402 0)
(0.109655 -0.00670912 1.40633e-20)
(0.408267 0.0465884 -1.49396e-19)
(-0.257094 -0.00343252 -4.39447e-20)
(0.324407 -0.0318894 3.07888e-22)
(0.354476 -0.0532947 1.27339e-20)
(0.112421 0.167714 -9.99568e-20)
(1.18867 -0.00377749 0)
(1.01057 0.0475577 2.01133e-21)
(0.503662 -0.0597068 0)
(1.10525 0.0147775 -2.57073e-20)
(0.439802 -0.04888 -1.38348e-20)
(1.02854 0.00375645 3.00096e-21)
(1.02352 0.0222672 0)
(1.00355 0.0424989 1.01777e-20)
(1.00049 0.0036089 0)
(1.08156 0.0185752 1.94017e-20)
(0.891934 0.0905105 -7.01571e-21)
(0.0940608 -0.0128666 3.01595e-20)
(1.02333 0.021301 0)
(0.99392 0.00397609 -1.06898e-20)
(-0.223521 0.0164235 -1.32408e-19)
(0.971585 0.451161 1.20562e-22)
(0.981747 -0.000726075 0)
(0.813484 -0.0547811 3.95219e-20)
(1.09334 0.0548561 0)
(1.04452 0.0204531 3.61711e-21)
(0.496047 0.717576 0)
(0.807198 -0.0495919 0)
(0.95238 0.0505947 1.8372e-20)
(1.06227 -0.0139552 -1.04119e-20)
(0.27338 -0.0118714 1.37439e-20)
(-0.306859 -0.00170561 1.25019e-19)
(0.22306 0.0571245 -2.19893e-19)
(1.03269 -0.00205072 0)
(1.25203 0.139481 4.48969e-20)
(1.20167 0.0751586 -1.34177e-20)
(-0.22995 0.00624449 -6.98165e-20)
(0.420335 -0.0684802 -3.25429e-20)
(1.0903 -0.0583043 0)
(1.01523 0.0257894 -6.02903e-22)
(1.052 0.0151284 -6.04146e-21)
(1.02707 0.042276 -2.95893e-21)
(1.01831 -0.000107316 2.08204e-21)
(1.02721 0.0634739 -1.42748e-21)
(1.01619 0.00147669 9.27465e-22)
(1.04639 0.0917855 2.46453e-21)
(1.08293 0.128882 2.28527e-20)
(-0.0515162 0.0281084 0)
(1.14706 -0.0361514 0)
(1.03827 -0.00434525 -8.0066e-21)
(1.17562 -0.00558662 -2.16808e-20)
(-0.0705174 -0.0331255 5.17508e-20)
(1.10285 0.119893 4.341e-20)
(0.972707 0.0231354 1.33886e-20)
(-0.0613851 -0.00792539 5.37966e-21)
(1.02998 0.0187764 -2.60516e-21)
(0.986422 0.040311 1.13971e-20)
(0.818529 0.0621667 -2.40887e-21)
(-0.0134447 0.0346704 0)
(0.998461 -0.000749719 -1.11007e-20)
(1.00402 0.0192546 -2.78536e-21)
(0.472468 -0.0504941 -3.39139e-20)
(1.1306 -0.0658279 0)
(1.17661 -0.0532448 -1.07158e-19)
(1.1578 -0.0188682 -3.82403e-20)
(1.14675 -0.0748464 -2.31509e-20)
(1.00755 0.0183404 0)
(1.19853 -0.00668034 -7.29799e-20)
(0.971774 0.0250484 0)
(1.00342 0.0104843 3.37005e-21)
(0.969639 0.0210173 0)
(0.597644 -0.0668563 2.74436e-20)