/*--------------------------------*- C++ -*----------------------------------*\
| =========                 |                                                 |
| \\      /  F ield         | OpenFOAM: The Open Source CFD Toolbox           |
|  \\    /   O peration     | Version:  v2012                                 |
|   \\  /    A nd           | Website:  www.openfoam.com                      |
|    \\/     M anipulation  |                                                 |
\*---------------------------------------------------------------------------*/
FoamFile
{
    version     2.0;
    format      ascii;
    class       volVectorField;
    location    "100";
    object      U_0;
}
// * * * * * * * * * * * * * * * * * * * * * * * * * * * * * * * * * * * * * //

dimensions      [0 1 -1 0 0 0 0];


internalField   nonuniform List<vector> 
13917
(
(1.09694 0.119994 -2.31629e-20)
(1.02043 0.0409606 5.59868e-22)
(0.577354 -0.0568677 -4.54893e-20)
(1.05508 -0.0127395 -1.41682e-21)
(0.996271 0.00299394 -1.19836e-20)
(0.359634 0.0507311 0)
(0.506547 -0.0529933 0)
(0.581637 -0.05242 0)
(0.421715 -0.0614305 -1.35105e-20)
(1.14141 0.149202 3.42991e-20)
(1.12622 -0.0588893 -1.85469e-21)
(1.09516 -0.0472877 0)
(1.05558 -0.0135399 0)
(-0.00940976 -0.00322406 -1.63233e-20)
(0.972115 0.0932362 -9.74843e-21)
(0.995253 0.0878711 5.41643e-21)
(1.0149 0.0461899 2.39902e-21)
(1.1393 0.0182868 0)
(1.09382 -0.0468278 1.13686e-21)
(1.00137 0.00456307 4.58578e-21)
(0.999972 0.000848789 0)
(0.484397 -0.0521868 0)
(1.00083 0.00763475 6.74018e-21)
(0.638468 -0.0567269 -1.60017e-20)
(0.994933 0.0144448 1.24308e-21)
(0.518257 -0.0587232 2.12428e-20)
(0.78405 0.0320623 0)
(0.75807 0.11961 -3.25499e-20)
(0.732075 0.568258 0)
(1.19675 0.0867617 0)
(1.11148 0.109747 2.49046e-20)
(1.06047 0.0879101 6.8456e-21)
(0.837999 0.0672206 0)
(0.91132 -2.31583e-05 1.90409e-20)
(0.99146 0.011473 -1.43884e-21)
(1.14545 -0.0770035 1.44535e-20)
(1.00075 0.00716381 4.52139e-22)
(0.123768 -0.0214383 0)
(1.06256 -0.018312 -4.18278e-21)
(0.279264 -0.0112154 8.00566e-22)
(1.00807 0.000738327 0)
(0.999988 0.000381264 -7.63149e-22)
(1.01959 0.00218549 -1.95646e-21)
(0.703355 0.201939 0)
(1.03835 0.0234509 -4.95132e-21)
(0.892666 0.0135333 0)
(1.13683 0.0166325 0)
(1.13955 -0.0123352 0)
(0.104342 0.133127 1.50244e-19)
(1.00327 0.00076368 -2.33385e-21)
(1.08544 0.0138176 0)
(0.965741 0.00882 -4.68015e-21)
(0.0753157 0.111651 -2.75634e-19)
(0.906698 0.00119096 2.18137e-20)
(1.01374 0.0471815 0)
(1.08517 0.0373341 -9.44165e-21)
(1.12653 -0.0578446 -1.80592e-20)
(0.995426 0.028779 1.06854e-20)
(1.07115 0.0435641 5.39489e-21)
(1.03691 0.0230277 2.24328e-22)
(0.535391 0.0522371 0)
(1.02194 0.0410025 2.80718e-22)
(-0.0246123 0.000992507 1.78445e-20)
(1.00147 0.0049655 0)
(0.386366 0.0630304 0)
(1.03253 0.347888 -2.52421e-20)
(0.995539 -0.000731288 -1.31064e-20)
(0.988283 -0.00179635 -1.87803e-20)
(1.15039 -0.0410362 -3.72511e-20)
(1.06376 0.134626 -5.85764e-21)
(0.996646 0.0031293 1.10236e-20)
(0.480023 -0.0679807 6.63459e-21)
(-0.0685924 -0.0220178 -4.34495e-20)
(0.995512 0.0141009 -3.59858e-21)
(0.105944 0.206947 -1.26106e-19)
(1.08596 -0.0550023 -1.35316e-20)
(-0.0687493 -0.0115882 1.0812e-20)
(1.05361 0.0258813 0)
(0.533371 -0.0610087 0)
(0.999885 0.00172771 -6.98061e-21)
(1.00004 0.00274903 -6.33951e-21)
(0.996083 -0.000675973 0)
(0.405568 0.12628 0)
(0.151871 -0.0246241 0)
(-0.095917 0.0183903 -6.89792e-20)
(1.05251 0.0247071 -4.9946e-21)
(1.00029 0.00367949 6.14017e-21)
(1.17926 0.424343 0)
(1.08357 0.0137431 1.71058e-20)
(1.02003 0.00217888 0)
(0.0124289 -0.0255949 0)
(1.17852 0.128244 -6.6908e-20)
(1.02268 0.0227588 0)
(0.973909 0.05258 -4.83317e-22)
(1.13067 0.418513 6.28777e-20)
(0.386955 -0.0105482 -5.71652e-20)
(1.13433 -0.0430768 -1.46134e-20)
(1.13989 -0.00367079 -2.29478e-20)
(1.09355 -0.0692917 -1.87227e-20)
(0.609281 0.126959 1.05864e-19)
(1.01076 0.00558493 -1.05403e-21)
(0.845818 -0.000965217 -4.16023e-20)
(0.693188 0.186795 4.62199e-20)
(1.061 0.0192287 0)
(1.01591 0.0118201 1.12503e-22)
(0.494123 -0.0674867 9.92508e-22)
(0.812452 0.507211 -2.89874e-20)
(1.1418 -0.0133933 5.2599e-20)
(1.01675 0.0466688 0)
(1.11187 0.12467 1.85406e-21)
(-0.181157 -0.0156193 6.07394e-20)
(0.286038 -0.0128333 2.58011e-21)
(1.09732 -0.0550235 0)
(0.456582 -0.0665404 5.22614e-20)
(0.948693 0.00766909 8.78284e-21)
(0.0832043 -0.119569 -7.53016e-20)
(1.00071 0.0134304 -1.18864e-20)
(0.200705 0.0915788 -2.73658e-20)
(0.142259 -0.0109876 -4.9134e-21)
(0.907956 0.0137265 -5.45539e-20)
(0.999983 0.000733208 -5.56777e-21)
(1.15084 -0.0400573 6.14862e-20)
(0.113918 -0.0110143 0)
(0.766959 0.112871 2.49234e-20)
(1.00489 0.000661755 1.12189e-21)
(0.975315 0.0500002 0)
(1.03387 0.0270263 -5.97028e-21)
(1.00453 0.000537732 -1.95505e-21)
(1.01697 0.00155584 -7.75902e-22)
(0.362269 0.003769 0)
(0.215486 -0.0241649 -9.89566e-21)
(0.95113 0.00674606 6.91073e-21)
(1.03874 0.0244422 -4.71235e-21)
(0.999976 0.000670991 0)
(1.2762 -0.0240877 -4.24916e-20)
(0.654431 -0.0604504 0)
(1.09439 0.12462 1.96748e-20)
(0.585411 0.128078 3.5936e-20)
(0.995218 -0.000322716 1.4727e-20)
(0.908935 0.00950156 3.00583e-20)
(1.1355 -0.0720166 -3.08672e-20)
(1.02398 0.0123917 0)
(0.962575 0.0209357 0)
(0.655383 0.198478 0)
(0.987634 -0.00150953 8.60268e-21)
(0.694032 -0.0679485 -3.06987e-22)
(0.80247 0.574226 6.40728e-21)
(0.96764 0.00923866 0)
(1.02259 0.0103802 -1.92821e-21)
(1.05548 0.0971303 -1.02099e-20)
(1.11788 -0.0220333 0)
(0.0927992 -0.153325 2.51508e-19)
(1.11676 -0.0450932 1.7695e-20)
(1.02645 0.178647 -4.89853e-23)
(1.07682 0.061998 0)
(-0.0556407 0.0500801 1.56486e-19)
(1.05892 0.13192 0)
(1.13245 -0.0587696 5.01973e-20)
(-0.0907378 -0.00906704 2.30278e-20)
(1.27206 -0.0218505 -6.31133e-21)
(0.940267 0.0430604 -1.02441e-20)
(0.784958 -0.0282837 -4.07056e-20)
(1.00001 0.0018685 6.08518e-21)
(1.13265 -0.0428327 -1.3384e-20)
(1.0981 -0.0540347 6.16088e-21)
(1.09493 -0.0683902 1.96843e-20)
(1.06011 0.0200967 0)
(1.12794 -0.0146056 3.314e-20)
(1.03163 0.020052 0)
(0.838961 -0.00529343 2.76534e-20)
(1.04604 0.171479 0)
(-0.310411 0.000139945 4.4508e-20)
(1.09458 -0.0585464 0)
(1.01261 0.0552571 2.48984e-21)
(0.83441 -0.0651546 8.32469e-21)
(1.01577 0.199488 -1.4556e-21)
(0.238399 -0.0281022 8.30558e-21)
(0.163606 0.0933195 -9.15292e-20)
(0.750754 -0.0687209 0)
(1.01225 0.0262456 0)
(1.18402 0.122837 0)
(1.11691 0.108202 0)
(1.02446 0.0119427 1.46504e-21)
(1.00029 0.00403677 -5.14042e-21)
(0.9365 0.112331 1.68519e-20)
(0.575667 -0.0628487 -5.11051e-24)
(1.26714 0.133177 -1.29746e-19)
(-0.00220431 0.0504796 -1.10206e-19)
(1.11586 0.0401125 -1.18791e-20)
(1.10464 -0.0640631 2.92314e-20)
(1.14963 -0.0628293 -2.36725e-20)
(-0.0455902 0.022582 -6.97166e-20)
(1.25691 0.175588 -7.75352e-20)
(0.999639 0.00745006 -7.54205e-21)
(0.564415 0.0609201 0)
(0.794643 0.0339227 8.81682e-20)
(1.00688 0.000271415 0)
(1.02289 0.023753 0)
(0.873436 0.441676 6.80937e-21)
(1.2096 0.474874 0)
(1.07644 -0.00373936 -3.588e-21)
(1.00298 0.000683937 -3.22054e-21)
(1.12198 -0.0153007 5.09749e-20)
(1.11613 -0.022243 0)
(-0.0950654 -0.017585 -7.06166e-20)
(1.22521 -0.0476704 -4.31562e-20)
(0.991787 0.0106892 0)
(0.994714 0.0298497 -1.20291e-20)
(1.13754 -0.00522899 5.18957e-21)
(0.594344 -0.0624032 -1.02649e-20)
(0.964791 0.0212907 8.36216e-21)
(0.49098 -0.0528051 0)
(-0.141353 -0.0108914 2.45524e-20)
(1.10569 -0.0632498 -1.91792e-20)
(1.01554 0.0120992 3.41091e-23)
(0.493845 0.406342 2.13059e-19)
(1.13065 -0.0040519 3.3382e-20)
(-0.265549 -0.00975835 -1.42524e-19)
(1.00276 0.0175062 0)
(0.688166 0.0730664 0)
(1.01186 0.0252695 -1.19678e-21)
(1.18755 0.0632695 4.44141e-20)
(1.00791 0.000926378 0)
(0.112169 -0.0252486 0)
(0.473515 -0.0685389 2.74972e-20)
(0.996221 0.0913398 -6.88058e-21)
(1.18987 0.477973 7.77027e-20)
(1.07986 0.0609734 0)
(1.01484 0.0116797 1.56788e-22)
(1.14444 -0.0774052 0)
(1.09306 -0.057862 0)
(1.11455 0.0377046 -6.21467e-21)
(0.662127 -0.060109 -1.19653e-20)
(-0.161948 -0.00817706 1.24032e-20)
(1.01166 0.00288217 -6.105e-23)
(1.06376 0.089043 0)
(0.0414029 -0.029575 0)
(-0.13737 0.0195875 0)
(0.999967 0.00208985 0)
(1.00589 0.00862834 1.79512e-21)
(0.339362 -0.01237 2.53922e-21)
(1.13875 -0.0432343 -8.78878e-21)
(1.00004 0.000116225 0)
(1.11794 -0.0774364 -4.47983e-20)
(1.17081 0.00719741 0)
(0.794856 -0.0333517 0)
(1.0945 0.105352 -3.56087e-20)
(1.00001 0.00203441 -6.03254e-21)
(0.979192 0.203858 0)
(-0.128497 -0.00847909 -5.05962e-20)
(1.04009 0.00233102 2.27543e-21)
(1.20097 0.139542 4.47017e-20)
(0.570555 0.172301 6.3093e-20)
(1.03357 0.0257636 -4.37806e-21)
(0.994852 0.0271198 -1.18588e-20)
(1.11068 -0.0399675 2.98621e-20)
(0.349776 -0.0212572 0)
(1.1155 -0.0441289 0)
(0.937318 0.11701 0)
(0.975447 0.0958674 1.44845e-20)
(1.00003 0.000203867 2.02806e-22)
(0.091134 -0.00772404 0)
(0.687405 -0.0576853 0)
(1.11438 -0.0871654 -7.39746e-21)
(1.0144 0.01194 -3.27881e-22)
(-0.134877 -0.0189956 -9.76057e-20)
(0.00500299 -0.00705081 0)
(1.08111 -0.0611131 -5.53179e-20)
(0.513531 -0.0591906 2.39061e-21)
(1.08612 -0.0563832 -5.54999e-21)
(0.999993 0.00254204 6.08377e-21)
(1.00596 0.000787863 -2.91311e-21)
(1.13582 0.0119613 3.80497e-20)
(0.0422127 -0.0186109 2.99573e-20)
(1.15802 -0.0239875 8.46568e-21)
(1.0696 0.0415 2.09903e-20)
(1.23159 -0.0499638 0)
(1.07967 -0.0386228 0)
(1.01688 0.00101349 1.24382e-21)
(0.957932 0.0111995 -4.38871e-20)
(1.00177 0.0045154 7.83841e-23)
(0.795159 -0.0641315 1.10696e-21)
(1.07462 -0.00339062 3.10295e-21)
(1.00006 0.00011779 -5.21698e-22)
(1.00002 0.108249 0)
(1.02076 0.180562 -1.04129e-21)
(0.785193 -0.0158925 0)
(1.1234 -0.0780398 3.25539e-20)
(0.997676 0.143735 -6.32484e-21)
(1.04293 0.00897823 4.38221e-21)
(1.24203 -0.000779651 0)
(0.671951 -0.0593584 1.34772e-20)
(0.586093 -0.059904 0)
(1.00249 0.0170098 -5.63542e-21)
(1.05523 -0.0596183 0)
(0.998409 -0.000232544 0)
(1.04298 0.00803659 1.52643e-20)
(1.00084 0.0128352 1.34431e-20)
(0.814686 0.614133 -7.17307e-21)
(1.00146 0.000802025 0)
(1.19253 0.0628083 5.02582e-20)
(1.08994 0.105181 3.02732e-20)
(1.0312 0.019101 4.37965e-21)
(1.12191 -0.017322 -6.40687e-20)
(1.03776 0.0558319 5.90442e-21)
(0.113597 0.0550278 -2.3278e-20)
(1.01498 0.194331 1.95814e-21)
(1.17255 0.125672 -2.88709e-20)
(1.02961 0.0132303 -6.77607e-21)
(0.995527 0.0261369 1.72449e-20)
(-0.202817 -0.0120985 3.3575e-20)
(0.0876267 -0.00913652 -2.49947e-20)
(1.00096 0.0139747 -2.6417e-21)
(1.00679 0.000821061 7.84331e-22)
(1.01061 0.0196955 0)
(1.01549 0.0248391 9.38226e-22)
(-0.0455439 -0.0249981 8.00881e-20)
(1.02868 0.0131235 2.46109e-21)
(0.129192 -0.0259027 6.8686e-21)
(1.04636 -0.00642253 -1.15263e-20)
(1.20943 0.325634 4.60401e-20)
(1.10149 0.00286873 -4.98444e-20)
(0.111343 0.279182 2.51832e-19)
(0.944063 0.0428148 1.95703e-20)
(1.30147 -0.0162025 -1.80588e-21)
(0.510446 0.299642 0)
(1.00308 0.106026 0)
(1.1399 -0.0420791 -4.05455e-20)
(0.953597 0.519939 0)
(0.995789 0.0431264 0)
(0.166434 -0.0214839 0)
(0.572662 0.0400681 0)
(0.0136529 -0.00903961 -2.4439e-21)
(0.922392 0.0186692 -3.36097e-20)
(0.189865 -0.00967066 0)
(1.06998 0.0871813 1.68826e-20)
(-0.0846428 0.00138492 -6.47215e-20)
(0.528685 0.278569 0)
(0.920905 0.351096 1.64532e-20)
(0.937122 0.345986 -9.19954e-21)
(0.523302 -0.0546934 2.74431e-20)
(0.999701 0.00212727 4.62966e-21)
(1.05236 0.174731 -1.20879e-20)
(-0.146957 -0.0170149 -5.51453e-20)
(0.982733 0.0288299 0)
(1.00205 0.0709844 -8.00927e-21)
(0.0233269 -0.00678578 2.92291e-20)
(0.860461 0.476111 0)
(1.01739 0.0520969 -6.43144e-22)
(1.13604 -0.061749 0)
(0.701862 0.54077 0)
(1.00885 0.00482873 0)
(0.122423 -0.00768196 5.07691e-21)
(1.14661 -0.0697532 4.51861e-20)
(1.00189 0.00488292 -4.50133e-21)
(1.00914 0.0124821 0)
(0.998608 -0.000411071 2.98866e-22)
(1.02296 0.0100064 2.4636e-21)
(1.23448 -0.0025052 -2.47441e-20)
(0.787215 -0.0680574 1.92537e-20)
(0.387649 -0.282476 0)
(-0.168791 -0.0140517 -2.87109e-20)
(0.99791 0.0140756 5.48178e-23)
(1.20813 0.13886 -7.94042e-20)
(-0.194345 0.0204425 -1.36777e-21)
(1.11252 -0.00736142 -5.725e-21)
(0.47049 -0.05161 0)
(0.0715672 -0.0226782 2.56174e-20)
(0.436425 -0.0673289 -8.41106e-20)
(1.0129 0.00529515 -8.84103e-23)
(1.10761 -0.0851041 -1.35352e-20)
(1.01029 0.0121133 0)
(0.815929 0.0865195 4.87117e-20)
(1.03604 0.0237032 4.80647e-21)
(0.0855675 0.326837 -1.31799e-19)
(1.17376 0.00888012 1.74563e-20)
(1.06493 -0.0099112 1.49695e-20)
(0.999544 0.00260009 -2.64259e-21)
(1.13526 -0.00399385 -7.94916e-20)
(1.19022 0.124 0)
(1.15381 0.00489645 0)
(0.326797 1.09078 -1.1572e-21)
(-0.129582 -5.15357e-05 -6.97726e-20)
(-0.292446 -0.00675737 1.72854e-19)
(0.984239 0.211944 0)
(1.1349 0.146193 -8.56766e-20)
(1.00558 0.00821306 0)
(-0.112243 0.0207845 0)
(0.473192 -0.0528033 2.62466e-20)
(0.999397 0.0328148 -5.54873e-21)
(1.27505 -0.0107215 4.78094e-20)
(0.99569 0.0105372 0)
(1.20012 -0.0305743 6.75761e-20)
(1.04647 -0.00577573 8.31658e-21)
(0.999777 0.00177592 0)
(1.03317 0.0590078 0)
(0.578075 -0.0625642 1.01556e-20)
(1.03141 0.0593215 0)
(0.370186 -0.0264646 8.21169e-21)
(-0.0587535 0.0382483 -2.51208e-20)
(1.11909 -0.0605955 -4.79191e-20)
(0.442427 0.279734 0)
(0.997516 0.0427765 3.96878e-21)
(0.495792 0.363448 -1.75125e-19)
(0.468607 0.304435 1.11727e-19)
(1.00198 0.00983773 3.241e-21)
(0.825217 0.476694 2.69948e-20)
(0.984122 0.0285428 1.66169e-22)
(0.994485 0.012266 1.38883e-21)
(1.19534 0.091635 0)
(1.00006 0.000304181 0)
(0.99381 0.0138721 3.85123e-21)
(1.01052 0.0119224 0)
(1.23652 0.00259094 2.26037e-20)
(0.999935 0.00137078 -4.84041e-22)
(0.199253 -0.0119098 0)
(0.678765 -0.0737229 0)
(-0.12773 0.016018 0)
(1.25194 0.182085 2.66749e-20)
(0.339799 -0.0334869 5.39771e-21)
(-0.239213 -0.0121102 0)
(1.11055 -0.00779373 1.02479e-20)
(0.998255 0.0135051 0)
(1.203 0.00234165 -1.29898e-20)
(1.06221 -0.0170488 3.47626e-21)
(1.06861 0.0945485 1.66631e-20)
(0.999642 0.00801844 -8.39028e-21)
(0.719317 -0.0693593 -1.84863e-20)
(0.536227 -0.0588031 1.14435e-20)
(0.738746 -0.0781538 -2.26607e-22)
(0.984111 0.0865586 -4.95861e-22)
(1.1733 -0.00240193 -1.93617e-20)
(0.925786 0.0158082 5.1106e-20)
(1.06398 -0.0187866 -8.45646e-21)
(1.1517 0.00361086 0)
(1.01918 0.0608863 1.4957e-21)
(1.10616 -0.086467 0)
(1.01782 0.0454531 0)
(1.00144 0.000945162 -3.23514e-21)
(-0.0152585 -0.0298407 0)
(0.232434 -0.0269137 0)
(0.253854 -0.0297512 -4.15424e-21)
(1.18173 0.210479 -5.37329e-20)
(-0.136035 0.011814 0)
(0.196384 -0.0250102 0)
(-0.089198 -0.031107 0)
(-0.0351357 -0.0107159 0)
(1.01623 0.00170042 1.24413e-21)
(1.13713 0.00333323 -6.5942e-22)
(1.0212 0.0606789 -1.29753e-21)
(0.992411 0.0304349 0)
(1.21916 -0.0432616 -1.01959e-19)
(1.13784 0.0134576 -4.35355e-20)
(1.01732 -0.000174366 0)
(1.15703 0.045137 0)
(1.11115 -0.00263955 -2.21157e-20)
(-0.0289734 -0.0083303 -3.53776e-20)
(1.00215 0.0102016 3.86179e-21)
(1.14411 -0.0331781 -6.07048e-20)
(-0.0077261 0.0107137 4.60679e-20)
(1.22879 0.340894 2.97718e-20)
(0.201361 -0.0153816 -1.81768e-20)
(0.99994 0.00119239 -4.19678e-21)
(0.998282 0.0332483 7.55154e-22)
(1.0106 0.000381461 -5.49583e-23)
(1.05378 0.135761 5.92421e-22)
(1.01283 0.004902 1.71792e-22)
(0.641482 -0.0701287 -1.02511e-20)
(0.399041 -0.242758 -5.85155e-20)
(1.00059 0.138369 5.7514e-21)
(-0.0708096 0.0279042 0)
(1.08459 0.0349746 1.84359e-20)
(1.13175 -0.0445559 0)
(-0.04972 -0.0346643 -5.2906e-20)
(0.82382 0.575025 1.88726e-21)
(1.11756 -0.0606581 3.98864e-20)
(1.14217 -0.0721492 4.30834e-20)
(1.14363 -0.0343735 5.15656e-20)
(1.15599 0.0621576 5.57055e-20)
(1.18969 -0.011605 0)
(1.09616 -0.0275473 1.73576e-20)
(1.11246 -0.0684213 -2.43965e-20)
(0.375757 0.106173 0)
(1.09218 -0.0364121 -1.96654e-20)
(1.14059 -0.0207252 1.58472e-20)
(1.01397 0.000618365 8.49132e-22)
(1.26163 -0.03167 0)
(1.08844 0.0166662 1.8496e-20)
(1.02905 0.00283118 -6.13027e-23)
(1.04936 0.132217 0)
(1.05602 0.0242002 -5.60675e-21)
(-0.024631 -0.0109643 0)
(0.479802 -0.0695651 0)
(1.01476 0.0238542 -8.8195e-22)
(1.01679 0.000807628 4.14739e-22)
(0.662529 -0.0679234 -1.14591e-20)
(-0.261435 -0.00872944 0)
(1.00005 0.000230741 -2.7563e-21)
(0.177816 -0.0105936 1.8084e-20)
(1.05658 0.00371197 -1.38185e-20)
(1.24041 0.160896 2.0287e-20)
(1.01416 0.0257413 5.95609e-22)
(-0.131351 -0.0153135 -3.07042e-20)
(1.18097 -0.0556201 0)
(1.05843 0.0947911 1.26605e-20)
(1.03681 0.0365457 -5.86496e-21)
(0.366739 -0.0384744 -1.40332e-20)
(1.25553 0.131467 8.86008e-20)
(-0.254715 0.00983946 0)
(1.00004 0.000275711 0)
(-0.129164 -0.0112709 -4.84616e-20)
(0.136155 0.0544222 1.22207e-19)
(0.982037 0.0234409 2.6985e-21)
(1.02921 0.00334445 -8.3547e-21)
(-0.128258 0.0183542 -1.92119e-20)
(0.3288 -0.0584973 0)
(1.11027 -0.0112791 4.14892e-20)
(1.00967 0.0125561 -2.16066e-21)
(1.00891 0.0466215 0)
(1.08307 -0.0552111 -1.68482e-20)
(1.19853 -0.0348951 5.48804e-20)
(1.0178 -0.000193165 -6.01635e-22)
(1.00868 0.0117805 -1.58189e-21)
(1.00478 0.00231168 -2.51627e-21)
(1.00508 0.00241361 0)
(-0.15822 -0.0160333 5.96319e-20)
(1.21976 -0.04014 -8.82069e-20)
(1.10974 -0.0100252 -4.14479e-20)
(1.26585 0.118857 -1.57876e-21)
(1.00601 0.000608721 2.83814e-21)
(1.01033 0.00529717 9.70481e-22)
(1.16997 -0.00346496 9.45388e-21)
(0.186028 -0.0544641 7.83025e-21)
(1.10609 0.0505261 0)
(1.03277 0.0202932 0)
(0.99481 0.0127096 0)
(0.992493 -0.000228545 -1.73252e-20)
(0.92244 0.0141116 8.00716e-20)
(-0.000871975 0.025191 1.47299e-19)
(1.00043 0.00349822 0)
(0.992669 0.00272678 -1.09713e-20)
(1.10386 -0.0852582 -6.98364e-21)
(1.09659 -0.0260023 -1.74419e-20)
(1.10061 0.0015325 -8.92638e-21)
(0.997268 0.0317051 -1.13331e-20)
(1.02871 0.0622142 1.30695e-21)
(1.04403 0.0933807 1.66953e-21)
(1.13861 -0.0214177 8.71101e-22)
(0.949419 0.493639 0)
(1.27081 0.127805 9.97464e-20)
(1.20298 -0.00173359 6.07875e-20)
(1.15732 -0.0144213 0)
(1.22434 -0.0507933 1.16871e-20)
(1.17205 0.118636 -3.86406e-20)
(1.00169 0.0164775 6.06354e-21)
(-0.115735 -0.0112672 4.34051e-20)
(0.992838 -0.000718318 1.07869e-20)
(1.00266 0.0738526 9.36948e-21)
(1.0668 -0.00209535 6.13955e-22)
(1.25815 -0.0322445 -2.77443e-20)
(0.992643 0.28876 0)
(1.00954 0.00115643 0)
(1.23156 0.329832 0)
(1.20543 0.0789983 0)
(-0.0917897 -0.00377469 -5.26753e-20)
(1.1588 -0.0127496 3.86724e-20)
(0.887766 0.134059 -6.68604e-23)
(1.11345 -0.00332133 -2.13386e-20)
(0.999409 0.00287196 5.67669e-21)
(0.512231 -0.0609839 0)
(1.22096 0.319334 -5.29651e-20)
(0.364 -0.0414855 0)
(1.01714 0.043326 0)
(1.09592 0.0403666 3.65424e-20)
(1.26922 0.114048 0)
(0.0809695 -0.0247468 -5.53586e-20)
(-0.185228 0.00232631 -1.29798e-19)
(1.14229 -0.00505542 7.58773e-22)
(1.19061 0.212376 -8.01759e-21)
(0.991412 0.0869399 -1.96734e-21)
(1.05627 0.0549669 1.16633e-21)
(0.9962 0.0322049 -6.97907e-21)
(0.889404 0.229965 0)
(0.671188 0.180352 0)
(0.973888 -0.00432359 0)
(1.1284 -0.00534877 0)
(0.56963 0.147055 -1.56159e-19)
(0.37874 -0.0425582 -8.78374e-21)
(-0.248156 0.0115978 0)
(1.03179 0.0721785 -8.22972e-22)
(1.13021 -0.0445261 -1.76587e-21)
(1.18132 -0.0542003 0)
(1.00457 0.116377 -2.54718e-21)
(0.968294 0.0232705 -1.66225e-20)
(0.174907 0.539479 0)
(0.686003 -0.0726489 4.92259e-20)
(0.63168 -0.065349 1.9912e-20)
(1.26068 0.101055 -1.10286e-19)
(1.01687 0.00177604 0)
(0.129094 -0.00947146 -5.92269e-21)
(1.08448 -0.0544575 1.67568e-20)
(1.00948 0.000850567 0)
(1.09389 0.072209 -7.60851e-21)
(1.12684 -0.0309535 0)
(0.847351 0.0689661 3.23105e-20)
(1.19311 0.0819765 2.03742e-20)
(0.520357 -0.0612669 0)
(1.18636 -0.0115265 1.83447e-20)
(1.09209 -0.0243003 1.85095e-20)
(0.51319 -0.0608854 0)
(1.05825 0.0302279 4.13694e-21)
(-0.055477 -0.008879 -4.71513e-21)
(0.999962 0.00184391 0)
(1.00043 0.00380151 -2.34241e-22)
(1.03024 -0.0612631 -2.35318e-20)
(0.654748 -0.0732562 -2.70044e-20)
(0.376977 0.23781 -1.32287e-19)
(1.05879 0.028833 -4.40706e-21)
(1.01387 0.0533534 -2.80735e-21)
(0.99309 0.0031806 1.54277e-20)
(1.08092 -0.0388119 7.55152e-21)
(0.0783355 0.172036 1.44882e-19)
(1.09417 -0.06686 -1.77072e-20)
(1.05857 0.0553692 1.33202e-21)
(1.11683 -0.0589396 -2.14273e-20)
(1.13301 -0.00542818 3.69152e-20)
(1.01404 0.0264729 3.01806e-21)
(1.16784 0.486057 3.40633e-20)
(1.09232 -0.0662376 1.30267e-20)
(1.09069 -0.0887514 2.41564e-20)
(1.00445 0.0189551 0)
(1.1815 -0.0147695 -1.42262e-20)
(1.05517 0.0257307 -7.89707e-22)
(-0.0155948 0.0488595 -8.43821e-20)
(1.14729 0.145775 -3.66747e-20)
(1.00342 0.281799 0)
(1.0971 0.0422385 -3.40439e-20)
(1.00742 0.00271506 1.59847e-21)
(1.02709 0.00561458 1.82889e-21)
(1.03512 0.0275625 4.17982e-21)
(0.967571 0.351765 -8.48687e-22)
(0.891043 0.0185548 0)
(1.2549 0.034965 -6.68753e-20)
(0.470506 0.805238 1.09459e-20)
(1.12804 -0.0124484 -3.50382e-20)
(1.0084 0.00476865 0)
(1.19182 -0.00544447 0)
(0.373904 0.268313 0)
(1.14819 -0.0735013 -3.82297e-20)
(1.03937 0.00289766 0)
(0.900509 0.031617 1.06306e-20)
(1.00816 0.0116707 -8.94439e-23)
(1.0768 -0.0188452 0)
(1.07355 0.0431914 0)
(0.305064 -0.0589573 -2.07956e-20)
(0.999844 0.00186713 0)
(1.23618 0.504757 -4.49512e-20)
(1.07805 -0.0157907 0)
(1.12464 -0.0603523 7.76151e-21)
(1.17556 0.140852 -1.7358e-20)
(-0.0844952 -0.0207266 7.22508e-20)
(1.02626 0.279875 8.71141e-21)
(1.00851 0.044972 -1.34379e-21)
(0.0114111 -0.0173279 -3.32609e-20)
(-0.25165 -0.00446654 6.40764e-20)
(1.00615 0.0344151 0)
(1.06571 -0.00292475 2.21843e-21)
(1.18558 -0.0555916 9.24969e-20)
(1.2516 0.103522 0)
(1.15566 -0.02411 -1.73389e-20)
(1.00014 0.000333819 -3.3668e-21)
(1.03807 0.0364601 0)
(1.19719 0.316473 0)
(1.06552 -0.0108992 -2.01139e-20)
(1.15386 0.00823473 0)
(1.10962 -0.0383141 0)
(1.02774 0.00546842 2.68893e-21)
(1.11414 -0.024981 0)
(0.586337 -0.056608 2.55317e-20)
(1.03881 0.00129714 4.56933e-21)
(1.05253 -0.00867573 0)
(1.00426 0.00246941 2.39928e-21)
(0.0838141 -0.00748114 -1.20638e-20)
(0.99995 0.000804276 9.33292e-22)
(0.984397 0.0827033 -4.72395e-22)
(-0.305232 -0.00207062 4.39017e-20)
(0.993462 0.0676076 7.21269e-21)
(0.715486 -0.0700255 2.54096e-20)
(1.07575 0.064721 -2.01011e-21)
(0.832127 0.073095 -6.20832e-20)
(1.00459 0.00257977 3.8138e-21)
(1.02311 0.214036 8.41854e-21)
(1.00058 0.0122058 -7.26172e-21)
(1.15427 0.0703416 -1.11163e-20)
(1.00709 0.00162387 0)
(1.08483 0.260571 -2.27129e-20)
(1.05632 0.00451282 0)
(0.244579 0.142357 -8.14426e-20)
(0.43365 0.680697 4.44901e-20)
(0.182933 -0.0554761 -9.80015e-21)
(1.01017 0.000370932 1.13303e-23)
(0.999631 0.00228386 -4.36011e-21)
(1.16624 0.11555 3.53651e-20)
(1.12657 0.111531 -6.80855e-23)
(0.0574454 -0.0107887 -3.07455e-20)
(0.301296 -0.0616583 3.56771e-20)
(1.14033 0.0217427 3.93187e-20)
(0.992797 0.0110926 0)
(1.23461 0.00125539 2.11847e-20)
(0.344085 0.212754 2.78304e-19)
(1.09009 -0.0875918 -2.07588e-20)
(1.25175 0.0390052 8.27389e-20)
(1.13138 0.00855906 3.6056e-20)
(0.570622 -0.0658406 1.74394e-20)
(1.08713 0.129043 -1.02883e-20)
(1.0792 -0.0373086 1.17634e-20)
(1.20209 0.0158806 3.3598e-20)
(0.855628 0.420713 1.3044e-20)
(1.13881 0.0236608 -2.78615e-20)
(0.305074 0.289061 -1.80087e-19)
(1.1394 0.0296366 1.71838e-20)
(1.05855 -0.00715675 -7.1039e-21)
(1.12821 -0.0320219 -2.3501e-20)
(1.00724 0.107519 -2.56861e-21)
(1.03262 0.0041738 1.27724e-20)
(1.07672 -0.0178315 4.27166e-21)
(1.11362 0.119501 3.04517e-20)
(1.05132 0.095585 1.22339e-21)
(0.999463 0.0121374 0)
(1.00643 0.000481491 0)
(1.13062 -0.00933038 3.47425e-20)
(1.0626 0.0099618 -1.39112e-20)
(1.15674 0.00945842 3.73257e-21)
(0.993475 0.010818 0)
(0.995293 0.00856769 0)
(0.999962 0.000636981 6.39789e-23)
(1.02457 0.0624462 4.47117e-23)
(1.02212 0.000717165 -3.2595e-21)
(1.04945 0.0813282 8.44364e-21)
(1.00378 0.0026335 -6.86968e-22)
(-0.139754 -0.014291 0)
(1.09144 -0.0480237 0)
(0.472515 -0.288635 -1.23434e-20)
(1.01169 0.00501509 -8.52268e-23)
(1.00005 0.00143514 6.18479e-21)
(0.802895 0.142856 -4.32163e-20)
(1.15925 0.0599084 -6.5526e-20)
(0.954019 0.00268111 0)
(0.830731 -0.00647317 7.82587e-20)
(1.13677 0.196846 6.17677e-20)
(0.991443 0.112499 -9.07207e-20)
(1.07808 -0.0168339 -5.5372e-21)
(1.17885 -0.00511535 2.35078e-20)
(1.05096 0.0144127 5.93177e-21)
(0.999914 0.000896591 6.41214e-21)
(1.00532 0.00214879 0)
(1.03602 0.0569061 -8.94192e-21)
(-0.329424 0.00105098 -1.07849e-19)
(1.00004 0.00122212 -8.7679e-21)
(1.19324 -0.0576189 2.36346e-20)
(1.05087 0.0837299 0)
(-0.192687 0.0233175 -6.7678e-20)
(0.967516 0.223372 -1.05434e-20)
(1.14417 0.194837 -3.51102e-20)
(1.12296 -0.0602883 3.65327e-21)
(1.02005 0.00583046 0)
(1 3.95955e-05 0)
(1.09292 -0.0483927 0)
(0.988337 0.00304131 0)
(0.985585 0.042345 5.92838e-21)
(0.976216 -0.0112213 0)
(1.01363 0.0571424 1.60049e-21)
(0.998635 0.000238977 2.55626e-21)
(1.08589 0.0529491 -2.54749e-20)
(1.00602 0.00736497 -1.4503e-21)
(1.01581 0.000772043 -8.20446e-22)
(1.05778 0.0905951 -6.49589e-21)
(0.886136 -0.0245491 0)
(0.0347687 -0.00802821 -1.81327e-20)
(1.08227 0.109 1.72645e-21)
(1.03876 0.000744338 5.36353e-21)
(1.00872 0.000892199 0)
(0.112786 -0.0288142 2.61064e-20)
(0.953025 0.359309 0)
(1.00213 0.0415268 -5.20153e-21)
(1.01817 0.0426509 6.68465e-22)
(0.925227 -0.00482789 -1.20716e-19)
(1.18609 -0.0548009 3.86516e-20)
(-0.311201 -0.00615152 1.09404e-19)
(0.895528 0.134576 0)
(1.05949 -0.00632323 3.53721e-21)
(1.0113 0.00300421 5.67909e-23)
(1.01601 0.000914653 1.67e-21)
(1.09374 -0.0364386 -3.68882e-22)
(1.08698 0.110009 -1.00948e-21)
(1.13462 -0.0574441 -2.30881e-20)
(0.91847 0.0186356 0)
(0.141859 -0.0179976 -2.51007e-20)
(1.02846 0.0418887 3.65306e-21)
(0.96545 0.0584759 1.3943e-20)
(-0.321652 -0.00210192 -1.22299e-19)
(0.995511 0.00999799 0)
(1.08946 0.0150701 -2.13691e-20)
(1.005 0.0308369 5.63147e-21)
(1.00187 0.00123086 3.70346e-21)
(1.10631 0.125093 3.2508e-21)
(0.775061 -0.009932 -4.51705e-20)
(1.04879 0.0263918 0)
(0.678888 -0.0702463 0)
(0.295567 -0.0171331 -1.31805e-20)
(1.18002 0.135759 1.54526e-20)
(1.00199 0.017051 1.07111e-20)
(1.02407 0.00220764 -2.65519e-23)
(1.1017 -0.0644267 -3.67111e-20)
(1.20748 -0.0554178 -3.5022e-20)
(1.00006 0.000377317 3.73832e-21)
(1.20751 -0.0501963 5.36458e-20)
(1.02358 0.00239369 0)
(1.10999 0.114391 -2.66924e-20)
(1.03313 -0.00255196 0)
(1.03384 0.00584267 -1.15436e-20)
(1.20406 -0.0356888 4.01017e-20)
(1.03942 0.014986 -1.07708e-20)
(1.03011 -0.0922993 0)
(1.11503 0.0869137 -3.21965e-21)
(0.999956 0.000573316 7.77731e-21)
(1.01927 0.00310543 0)
(0.981583 0.000519055 1.08106e-20)
(1.00937 0.0196265 0)
(1.05209 -0.00762026 -4.02644e-21)
(0.272104 0.683306 -6.53947e-20)
(1.03764 0.0032583 1.06916e-20)
(1.03016 0.00972198 -4.52315e-21)
(0.372972 -0.0548584 0)
(0.604852 -0.0672305 3.85979e-22)
(1.09348 -0.025589 8.1189e-21)
(1.12116 0.112872 0)
(1.14688 0.000676554 -5.53144e-20)
(1.07669 0.0230538 3.04211e-20)
(1.02391 0.0135726 0)
(0.888843 0.011282 -1.85106e-20)
(-0.100843 -0.0158875 7.02029e-20)
(1.09463 0.262009 0)
(0.998247 0.00497399 6.47088e-21)
(1.03549 0.0357045 6.5173e-21)
(0.333171 -0.0637627 0)
(1.11324 0.0185042 2.73965e-20)
(-0.120634 -0.0154232 3.2207e-20)
(0.999953 0.000750738 -8.66078e-21)
(0.951629 0.00350611 1.57964e-20)
(0.0682453 -0.00695046 1.97337e-20)
(1.10587 0.0128313 3.66767e-20)
(1.05088 0.0250015 0)
(-0.316383 0.00266959 2.17731e-19)
(0.213025 0.235239 1.36115e-19)
(1.00963 0.0191049 0)
(1.19801 0.0177634 0)
(1.00562 0.00225544 0)
(1.03828 0.0149634 1.10491e-20)
(1.01205 0.00527936 0)
(-0.10844 -0.0231734 2.60389e-20)
(1.02171 0.000589824 5.98219e-23)
(1.03777 -0.00489332 4.89648e-21)
(1.02443 0.0131225 0)
(0.985888 -0.0910827 0)
(1.06187 -0.0147626 1.01175e-20)
(1.24496 0.153893 -1.99076e-20)
(0.703281 -0.0963047 6.71345e-20)
(1.03432 0.00400976 -1.63022e-21)
(0.845804 0.0259979 -1.21138e-20)
(1.00046 0.00332427 2.77939e-21)
(-0.158796 -0.0134798 3.44043e-20)
(1.00524 0.00988749 -2.77484e-21)
(1.03828 0.00268386 -8.67693e-21)
(0.998674 0.000750768 0)
(1.10312 -0.0650019 5.06792e-20)
(0.998515 0.00061609 3.82342e-22)
(1.18467 -0.0148724 2.23096e-20)
(0.311515 -0.0120601 5.69038e-21)
(0.69832 -0.0629842 1.26821e-20)
(0.905356 0.0321467 -3.88968e-20)
(1.14509 -0.067717 1.07377e-20)
(-0.279045 -0.00319347 -6.56415e-20)
(0.996668 0.0263456 0)
(0.109574 -0.00674714 1.4022e-20)
(0.408388 0.0465639 -1.494e-19)
(-0.257058 -0.00347948 -4.39251e-20)
(0.324743 -0.0319911 3.09179e-22)
(0.354338 -0.0531358 1.27353e-20)
(0.112371 0.167685 -9.99518e-20)
(1.18865 -0.00370419 0)
(1.01057 0.0475582 2.02079e-21)
(0.503951 -0.0599118 0)
(1.10526 0.0147753 -2.56672e-20)
(0.439866 -0.0491091 -1.3789e-20)
(1.02854 0.0037539 2.98023e-21)
(1.02353 0.0222644 0)
(1.00356 0.0425022 1.02019e-20)
(1.00049 0.00361129 0)
(1.08157 0.0185717 1.93635e-20)
(0.89194 0.090519 -7.01709e-21)
(0.0937548 -0.0128999 3.01326e-20)
(1.02334 0.0212982 0)
(0.99392 0.00397898 -1.06933e-20)
(-0.22357 0.0164294 -1.324e-19)
(0.971609 0.451194 1.20447e-22)
(0.981747 -0.000723293 0)
(0.813481 -0.054769 3.95214e-20)
(1.09335 0.0548577 0)
(1.04453 0.0204527 3.60346e-21)
(0.496045 0.717608 0)
(0.807196 -0.0495797 0)
(0.952384 0.0506015 1.83783e-20)
(1.06227 -0.0139707 -1.03745e-20)
(0.27389 -0.0118932 1.35896e-20)
(-0.306707 -0.00172959 1.24933e-19)
(0.223061 0.0571516 -2.19899e-19)
(1.03269 -0.0020555 0)
(1.25204 0.139416 4.48851e-20)
(1.20165 0.0751433 -1.34092e-20)
(-0.230049 0.00623253 -6.98117e-20)
(0.42023 -0.068273 -3.251e-20)
(1.09024 -0.0583256 0)
(1.01523 0.02579 -6.08706e-22)
(1.052 0.0151263 -6.0214e-21)
(1.02707 0.0422733 -2.92032e-21)
(1.01831 -0.000107818 2.05736e-21)
(1.02721 0.0634719 -1.41021e-21)
(1.01619 0.00147663 9.13212e-22)
(1.0464 0.0917846 2.45821e-21)
(1.08294 0.128881 2.28286e-20)
(-0.0515733 0.0281388 0)
(1.14718 -0.0361434 0)
(1.03827 -0.00435142 -7.96258e-21)
(1.17563 -0.00552192 -2.16607e-20)
(-0.0702664 -0.0331296 5.16914e-20)
(1.10286 0.11989 4.33702e-20)
(0.972709 0.0231441 1.33937e-20)
(-0.0615948 -0.00789489 5.37947e-21)
(1.02998 0.0187747 -2.58869e-21)
(0.986426 0.0403176 1.14074e-20)
(0.818532 0.0621789 -2.40874e-21)
(-0.0134931 0.0347014 0)
(0.998461 -0.000744963 -1.11002e-20)
(1.00403 0.0192572 -2.79285e-21)
(0.472489 -0.0507051 -3.38586e-20)
(1.1307 -0.0660978 0)
(1.17692 -0.0531362 -1.07125e-19)
(1.15786 -0.0188187 -3.82042e-20)
(1.14677 -0.0751944 -2.31013e-20)
(1.00755 0.0183435 0)
(1.19849 -0.00659584 -7.2913e-20)
(0.971776 0.0250573 0)
(1.00342 0.0104835 3.38108e-21)
(0.969641 0.0210263 0)
(0.597961 -0.0671263 2.73011e-20)
(-0.28845 -0.00755865 -6.42149e-20)