/*--------------------------------*- C++ -*----------------------------------*\
| =========                 |                                                 |
| \\      /  F ield         | OpenFOAM: The Open Source CFD Toolbox           |
|  \\    /   O peration     | Version:  v2012                                 |
|   \\  /    A nd           | Website:  www.openfoam.com                      |
|    \\/     M anipulation  |                                                 |
\*---------------------------------------------------------------------------*/
FoamFile
{
    version     2.0;
    format      ascii;
    class       volScalarField;
    location    "200";
    object      ddt0(k);
}
// * * * * * * * * * * * * * * * * * * * * * * * * * * * * * * * * * * * * * //

dimensions      [0 2 -3 0 0 0 0];


internalField   nonuniform List<scalar> 
37190
(
1.98436e-07
3.46991e-09
7.10914e-09
1.14144e-08
0.0014102
-3.91865e-08
-8.11988e-09
-3.49962e-06
2.72846e-08
0.0001711
-5.79889e-05
0.0173343
6.93199e-08
-6.57468e-09
-9.12743e-05
0.00233953
7.49263e-09
1.90471e-05
-2.9625e-10
4.87859e-09
-5.33213e-09
0.0033678
-1.55868e-08
-0.00318324
0.00185707
4.50283e-09
-0.000884761
-1.70424e-08
-0.000262356
-1.32192e-08
-4.15476e-05
7.55001e-08
-9.49577e-07
2.63088e-06
-1.14244e-06
-0.00208863
-0.000932048
0.00200252
1.77823e-09
-8.30998e-09
-0.0230132
-2.92482e-08
0.00261364
6.42269e-08
-0.000313253
0.00826319
-0.000332569
0.0148433
-4.14257e-08
-1.35773e-07
-7.87172e-07
-7.95702e-09
-2.56762e-08
-2.08363e-08
-3.17656e-09
-2.87702e-06
-7.08489e-09
1.91105e-08
-0.000389865
-2.85685e-05
-3.5122e-06
-0.000101316
-2.60598e-09
6.2969e-09
-0.000258018
0.0128621
0.00248162
-2.75524e-05
-0.000429878
0.00017026
3.91424e-09
-1.11506e-08
-9.33844e-07
-1.399e-08
1.22797e-07
-0.000168571
0.00202445
-0.00224951
-9.75583e-07
-0.00393879
-0.00036645
9.51799e-09
0.000198182
-1.49965e-06
-0.00017158
-7.92195e-07
-0.00258937
0.00975835
-6.52748e-09
0.00670147
-8.33604e-09
-0.000241482
-9.43171e-07
1.11011e-08
-2.11292e-06
0.00100501
4.17851e-09
0.0127685
-0.000529507
1.0569e-07
-0.000684328
-3.03257e-06
-2.43753e-08
9.37466e-09
-0.000173377
5.81006e-09
1.24504e-08
0.000117083
0.00633163
-3.95436e-08
0.00633397
-2.06754e-07
9.56344e-09
-2.09737e-07
-3.72557e-06
1.21175e-08
-0.00040395
-0.00267725
-1.16638e-07
2.28576e-09
1.81605e-05
-0.00243653
-1.61485e-08
-9.57324e-07
0.00110362
-8.79114e-09
-0.000248833
-1.56923e-08
-0.000195207
0.000989312
-0.000840397
8.34067e-09
1.34083e-08
0.00044622
-4.0326e-10
-0.00159637
-1.78265e-07
-0.00274263
0.00111781
-0.000791597
0.00210667
5.91237e-06
-8.6421e-05
0.000681193
1.52341e-09
-1.37232e-07
2.0123e-09
-1.16578e-08
-1.30174e-07
0.000122129
1.34886e-08
-1.4439e-08
7.42326e-09
-4.20955e-08
-0.000132215
-9.83751e-09
-0.000293053
-2.0247e-09
2.34828e-06
-0.000214148
-6.8586e-08
-7.62265e-08
7.02549e-07
-9.94826e-07
0.000950398
2.92796e-09
0.000229846
-0.000193202
-1.07688e-07
0.00212215
0.00132768
2.29259e-08
-0.000321355
-2.15215e-08
0.000174435
-0.00130963
-2.50228e-06
5.26044e-07
-2.67234e-08
0.000166284
-4.46696e-08
-6.16499e-07
0.00492321
-0.000924415
-6.76103e-09
-0.00050122
-1.08079e-08
0.000144696
0.0119917
-5.21206e-08
-1.12026e-07
5.84706e-06
1.85141e-07
-2.75822e-08
-1.02616e-07
0.00023334
-0.000492606
0.00137113
0.00206339
1.04858e-08
2.42242e-09
-4.47526e-07
-2.79309e-08
-3.87851e-08
-0.0026555
-0.00156235
1.60037e-09
-3.75671e-09
-0.000234085
-2.64622e-08
-3.19077e-08
2.059e-09
-0.00553236
7.77946e-09
-0.00389265
-8.35365e-09
1.88279e-09
-1.71372e-08
-0.000914952
1.15345e-09
-2.0274e-08
4.27799e-09
0.0134304
-2.08918e-05
0.00134555
0.0102698
-6.14335e-05
-0.000101563
-1.59175e-08
-0.000209514
0.000133645
-1.64405e-07
7.84628e-09
-4.21187e-10
1.38863e-09
-1.11638e-06
0.00181901
1.90513e-08
2.61344e-09
-3.09111e-07
-7.42649e-08
0.000161176
-1.96928e-08
-7.35904e-09
-0.000198219
-0.000352243
1.56274e-09
-7.99099e-07
0.000244126
1.63897e-08
3.04896e-09
2.7921e-06
-3.55194e-07
3.18612e-09
-7.44459e-08
-1.38306e-08
9.6551e-10
-3.76662e-08
-2.4032e-06
6.05437e-09
-0.00626384
-7.09195e-05
6.5463e-06
-7.46683e-09
-0.000138083
-3.12373e-08
1.18662e-08
-0.000200624
6.49302e-08
5.39544e-06
2.67403e-06
-1.34158e-08
-0.00677829
0.000162185
1.85345e-06
0.000170311
-1.64242e-06
-9.20079e-10
0.000154945
2.81985e-09
5.90445e-08
-2.15922e-07
1.49043e-07
1.69755e-08
0.00121576
3.76974e-09
2.37325e-08
5.61303e-07
-0.000671827
5.49233e-07
-7.39618e-08
6.64571e-09
-3.06512e-06
-0.000110667
-4.50473e-09
-0.000171146
-8.40814e-11
1.59403e-08
0.00019744
-1.6982e-08
-3.20772e-06
0.0156366
0.000249412
-9.93176e-05
-3.48219e-07
-7.29964e-06
-0.000677106
1.05859e-09
-0.000303152
-0.00426671
-0.00029236
-0.00052923
-0.000234411
0.00377776
1.60403e-05
2.11874e-05
-2.73977e-09
2.28338e-07
0.00067524
-3.19173e-09
-0.000802807
-0.000889035
-7.06505e-09
-2.53763e-07
0.01019
-0.000442502
-1.27566e-07
0.000203343
0.000169259
4.9867e-08
-0.00882156
0.00253629
-0.000406836
-0.00381464
-2.56733e-08
3.4628e-08
1.18534e-08
2.06447e-08
-4.73041e-09
-3.01124e-09
0.00260695
-1.09808e-08
0.00852073
-2.16863e-08
-0.00203368
-3.60089e-05
-0.00023358
2.27953e-08
0.00248837
0.000141292
-0.00203413
3.6487e-05
-2.05635e-08
-8.05895e-09
0.00113361
2.13617e-05
-1.06574e-08
2.49725e-08
-0.000882836
-0.00306748
-0.000839657
-0.000205159
-0.0145196
-0.000287274
-0.000248429
5.93125e-05
-2.49991e-08
-0.0027418
-1.08777e-09
-0.000292876
-2.10231e-08
-0.00382622
3.7449e-06
0.000843216
-1.2356e-06
-4.51405e-10
0.00210686
-0.000148374
0.00626138
-0.000219181
1.46343e-07
-1.36016e-06
-5.35219e-09
-0.0087683
-0.00143454
0.000766048
-2.24039e-07
6.4236e-08
-2.33818e-07
-1.46115e-07
-2.13951e-05
0.00864529
5.62538e-07
-4.22868e-08
-0.000310572
-0.00109396
-0.00112672
-0.000718407
-5.86839e-05
4.48688e-08
-0.000215434
-0.000383042
-1.03697e-07
0.000218888
-0.00378837
-7.19044e-07
-0.00019644
-0.00280735
-0.000212215
2.89603e-08
-2.56738e-08
-1.53208e-08
2.64633e-07
0.000154353
-1.08875e-07
0.00210753
4.15227e-06
5.72409e-07
-2.98947e-05
-3.12723e-09
6.6128e-08
-0.00388442
-0.000219587
-2.35675e-07
-1.05773e-08
1.1337e-08
7.04823e-08
6.71764e-09
0.00223928
-3.00671e-05
1.17984e-08
5.41447e-08
2.00994e-08
-0.000496455
-0.000325077
-2.02582e-08
-1.91262e-08
1.81003e-07
-2.06665e-08
0.00788167
1.22814e-08
-3.24699e-08
-0.00370706
-3.32281e-06
9.10118e-05
-0.000357844
0.00268189
-5.73049e-07
-8.25116e-07
4.714e-09
0.000158853
0.0109927
-1.35133e-08
4.71797e-09
-0.000229727
-0.00571152
-4.44905e-09
-3.90123e-09
-6.75446e-10
-0.000102124
2.06702e-08
-2.16815e-07
0.00121993
-5.03464e-08
-2.07017e-07
3.40415e-09
0.00610057
1.28019e-07
-5.71763e-09
-0.00486283
-3.69635e-08
-1.15331e-08
-0.00222651
8.22313e-09
2.73167e-07
-0.00818027
-2.2411e-08
-1.35348e-07
-1.01637e-08
-0.000234778
0.00878151
-2.25571e-08
-2.27322e-08
1.95635e-05
7.28554e-06
-1.08028e-07
0.00189731
-7.32304e-09
-0.00139346
-5.44844e-09
-3.22699e-05
-0.000797057
5.74693e-06
-3.8642e-08
-1.95198e-08
-2.49184e-07
-1.60342e-06
-0.000231956
-4.39448e-08
0.000595678
0.00176045
-0.00293467
0.000603234
-0.015714
1.88359e-07
2.2831e-08
1.66195e-07
2.3249e-08
3.02443e-09
-3.43082e-08
-0.00548425
-2.7714e-08
-5.04258e-09
-4.30883e-06
0.000195553
-6.71196e-05
-0.000358854
-4.9605e-08
-1.60307e-08
0.00426997
-2.19565e-08
0.00897143
-1.04852e-07
-9.68654e-09
-1.35899e-08
0.00114912
-9.10744e-07
-0.0370404
3.76367e-07
-4.46635e-08
-4.09425e-08
-2.95495e-07
2.85145e-09
-3.85389e-08
0.00640413
3.24211e-09
-2.45271e-05
-0.012552
0.00233037
-0.00045095
-5.89788e-06
3.8209e-05
-6.75246e-07
-0.000527967
-1.93871e-05
-0.000225168
0.0174024
-3.73775e-08
1.66375e-08
-4.75058e-08
-0.000228125
-0.00274871
-0.00345074
-1.11023e-08
-5.44569e-05
-1.55257e-08
-1.97191e-08
0.00668718
-1.74378e-06
-0.00846458
-0.00363821
0.000988734
3.12739e-09
-4.05753e-08
-5.27732e-05
-0.00030919
-5.20327e-05
-0.000793793
1.61718e-09
8.92548e-05
-0.0015448
-0.000105613
2.34455e-08
0.0182165
0.00704633
-0.000732536
0.00531958
5.30076e-09
-4.31348e-06
-4.70722e-09
2.37205e-08
4.04177e-08
2.14757e-07
-1.67618e-08
-0.00139339
0.00167713
-0.00158705
-4.16889e-05
-1.32617e-08
-7.5855e-08
-2.6366e-05
-2.81439e-09
0.00695798
-1.06309e-08
0.00192768
-0.00169188
9.09847e-05
-0.00102509
1.37066e-07
-8.42832e-09
-1.54985e-08
-9.67783e-10
8.39323e-09
-0.0151418
-1.10487e-07
-3.09857e-07
3.5452e-08
0.000164349
0.00563691
-1.38167e-08
-6.02936e-09
-0.000183337
1.57441e-08
8.47142e-09
4.53775e-09
-0.00154597
-8.6335e-09
-0.0119075
5.53035e-09
-0.000110659
0.00784526
2.41707e-06
-1.35237e-08
-2.15176e-08
5.24276e-09
-1.0995e-06
-0.000222328
-2.16536e-09
-0.0343682
2.36275e-08
-0.00597956
-1.07956e-08
-1.88858e-07
0.000107684
-4.97641e-05
-0.0105125
-0.00282295
5.52617e-06
-2.6794e-07
-6.70099e-08
-0.00097282
3.42765e-06
-1.14654e-07
0.00535775
-5.03757e-09
-0.00108932
-1.83954e-08
-9.73213e-08
-4.95765e-07
0.00254991
9.63436e-09
-1.67148e-06
-0.00281148
-0.00132428
-0.00785119
-0.000434042
-2.8863e-08
-0.00220603
-0.00107714
1.26239e-08
2.04145e-07
-0.000814979
-0.0179792
-1.05375e-07
0.00198209
-3.05145e-08
-1.04338e-07
1.67956e-07
0.00294266
-2.46363e-08
-3.67827e-09
3.5142e-08
-5.38172e-09
3.34417e-05
3.68581e-05
-3.00277e-08
1.5788e-08
-0.000296283
0.00379495
-7.088e-09
7.23792e-07
-0.000202432
4.71688e-09
-3.02639e-07
-6.97106e-09
6.34362e-10
7.45094e-09
0.00634851
-2.45255e-06
-0.000121614
3.64973e-08
-1.15654e-06
-4.07757e-07
-0.000214551
-6.77959e-09
-3.48491e-08
-0.00053205
-4.66208e-08
-3.63494e-08
-2.79771e-06
-9.43549e-09
4.53313e-09
0.00017317
-8.8442e-09
-1.03689e-07
-9.75504e-09
1.18864e-07
7.40181e-08
3.92861e-07
-2.43092e-08
-3.45449e-07
-9.1542e-09
-0.000281129
5.19745e-06
-5.7064e-10
0.0116521
1.84487e-07
-5.25742e-09
-0.000146577
-0.000395784
-0.00766488
-1.0906e-06
-8.04204e-09
-9.9274e-09
-1.9017e-08
-2.83602e-06
-0.00392945
3.8623e-05
-8.45509e-08
-0.00117716
5.04007e-08
-0.000931187
4.13486e-09
1.98384e-09
-2.56592e-06
-1.29855e-05
5.92121e-06
-2.95716e-07
-6.56945e-09
-4.02769e-08
4.81027e-09
9.05913e-05
-0.000906621
-2.95693e-07
0.000659454
3.9327e-08
-0.000275668
-0.000164055
0.000107624
-0.000872223
0.00287039
-9.38038e-07
5.07865e-06
4.24504e-09
0.00278622
-2.48277e-06
5.57487e-06
-0.000362595
-0.00174086
1.14404e-08
0.00130149
-3.34595e-08
-9.03915e-09
1.02385e-08
-0.00023585
-7.23053e-09
-0.000177578
3.59574e-09
-6.01245e-07
-0.00164453
-4.14849e-09
-1.23921e-06
-4.06975e-07
3.34393e-06
4.51476e-08
-3.23536e-07
2.09557e-08
8.31495e-10
-2.05186e-08
-7.37902e-07
-3.18593e-08
-7.49618e-09
-1.24169e-08
0.000255047
5.45001e-09
-0.00361703
2.79074e-06
2.67963e-07
3.24789e-06
-2.72788e-07
-5.60795e-09
-2.57844e-07
-3.27615e-09
2.62636e-08
5.05747e-09
4.53496e-05
-1.36733e-08
-6.56461e-08
-6.33754e-08
0.00131187
-2.84702e-06
-1.21302e-08
3.43322e-07
-4.85594e-08
-0.00862881
-1.44292e-09
0.000212179
-0.000103757
0.000150974
3.06231e-05
-3.76795e-08
-3.02064e-08
2.38353e-08
-0.00178886
-2.52951e-08
1.88796e-07
-1.19383e-05
5.0213e-06
-0.0031378
-5.64906e-07
-4.80207e-06
-1.10046e-07
2.41591e-08
-0.00079083
-4.9668e-10
0.00199466
-0.0067304
9.37323e-09
7.28088e-06
-8.99541e-10
-0.00111774
4.7525e-09
0.000349602
-0.000317683
0.0014384
4.41948e-06
-2.11175e-06
5.89333e-09
-7.36983e-09
-0.000299515
-0.0135357
-0.000214204
5.52287e-07
-6.12521e-09
2.87024e-07
-0.00236365
-5.38557e-09
-2.37451e-09
0.000196826
-2.97605e-08
-5.2809e-06
1.26357e-08
-2.49046e-07
-8.41951e-07
-1.54266e-08
-1.28774e-08
0.00872174
-1.44653e-08
2.8481e-06
0.000112797
-0.000128237
5.19223e-06
-1.62203e-07
-1.96853e-08
-1.18604e-08
-0.000175005
-0.00492481
-0.000196962
0.000126276
2.91242e-08
0.00699112
1.91941e-08
3.34681e-06
1.22885e-08
0.000592488
-0.00291344
-0.000148041
-0.0122773
-8.27033e-08
0.002043
-0.000118927
-0.000237357
1.94987e-07
-2.14018e-06
0.00189904
4.11062e-08
-0.000121912
0.00191918
-0.000296912
1.42376e-08
1.94539e-05
-9.50744e-07
-0.00125647
-4.02133e-09
-3.13908e-08
-2.28813e-08
-2.29547e-08
-3.05924e-08
-7.83017e-09
-4.60131e-09
-2.93341e-08
-4.69621e-08
-1.09349e-05
-0.000956823
-1.66611e-06
-1.17106e-08
-0.000689287
-4.52971e-08
2.12178e-08
-9.41503e-09
-7.582e-09
0.00264437
-0.001749
-1.17217e-08
-2.41488e-08
-2.54843e-06
-7.22853e-09
-1.71232e-08
5.48442e-07
-6.76282e-09
-0.00200004
1.28822e-06
-0.00163135
-0.000167335
-3.77086e-08
1.30421e-08
-6.99266e-07
-0.00116924
-0.000105972
-1.17222e-08
-3.95847e-06
0.000741419
-2.77052e-08
-0.000185775
-1.04885e-07
-0.00535509
-6.60645e-08
-3.09439e-08
-0.000272055
5.66892e-09
6.51504e-05
0.000157759
4.79561e-07
-4.08162e-08
4.05844e-06
5.70996e-07
-1.18479e-09
0.000182815
-2.24265e-08
-1.00322e-07
-0.00022559
8.43566e-08
5.13821e-06
-0.00544249
-1.41108e-05
9.848e-09
-6.1476e-08
0.00491621
-7.61596e-09
6.66406e-09
-2.75148e-09
-2.28382e-08
-0.00276683
-0.000798555
-2.90462e-09
-0.00026349
-5.58613e-09
-0.00157257
-1.19668e-08
-0.000620631
-9.18883e-08
-0.0034636
-0.00310793
1.95874e-07
5.49213e-09
2.99035e-08
3.22484e-06
3.00938e-08
4.51433e-09
1.76348e-08
2.92849e-08
-1.20539e-06
-2.19008e-06
5.96207e-08
2.83127e-06
0.00156087
5.42819e-09
-6.89146e-05
6.90191e-08
4.63697e-08
-3.34795e-05
0.00106556
-0.00422614
0.000173365
-1.80866e-08
-1.01707e-06
-1.25231e-06
3.97304e-08
0.000374561
0.0065559
-1.48938e-08
-0.000235293
1.12816e-08
-4.11579e-08
2.36662e-07
4.8679e-08
-2.15547e-06
0.00417534
-3.54422e-08
0.000159974
-3.6162e-08
0.00590446
-0.00534682
0.000715512
-0.000840165
-0.00341008
2.32461e-06
-6.17237e-07
3.19544e-05
-3.96367e-07
1.85306e-08
-2.08148e-07
-9.26889e-08
-0.00264498
-3.43718e-08
-4.69232e-08
-3.10886e-08
3.8258e-08
0.0016577
3.02842e-08
-4.25084e-08
-3.52407e-05
-3.95475e-08
4.67474e-05
9.63791e-09
2.19021e-08
9.31651e-09
-0.00220532
1.98379e-06
3.36463e-08
-4.11483e-08
0.0029364
-4.02713e-07
6.31776e-05
1.54438e-08
5.92662e-09
-0.00335703
2.49632e-08
-4.87395e-12
-5.94651e-09
-2.35936e-08
-0.0064734
-2.67684e-05
2.20295e-06
1.86514e-06
-3.56033e-06
0.000154922
6.92978e-08
-0.00330059
-4.70467e-08
-5.43965e-07
1.41264e-07
-2.07619e-08
1.84357e-07
-0.00140974
0.00100376
0.000934058
8.09195e-09
5.52499e-07
1.93904e-07
-0.000814284
-9.54167e-07
-4.67527e-08
2.25303e-07
-8.42404e-07
-1.28796e-08
-0.00141797
1.09282e-05
5.17359e-09
8.50396e-08
1.75607e-08
-1.12014e-08
-2.30856e-09
9.77895e-09
1.46857e-09
2.04301e-08
1.85895e-08
-9.9101e-10
1.02913e-08
9.326e-08
-4.49643e-08
-8.00857e-05
1.01481e-08
1.83264e-07
-0.00186521
7.32599e-09
9.53357e-10
-1.38011e-08
-3.49266e-07
5.0562e-10
-1.03686e-08
4.55301e-08
-2.12501e-06
-0.00204762
5.22352e-09
0.00925481
0.000431843
-0.00124452
1.68475e-08
0.00565362
1.8616e-08
0.00367015
0.0124479
1.27378e-05
9.36542e-07
-0.0095239
0.000127622
7.47754e-06
-6.01804e-09
4.92348e-09
-3.82239e-05
-2.42761e-08
4.58999e-05
-0.000269852
0.000982552
4.21869e-08
6.69418e-09
-5.00675e-09
-2.84932e-06
-0.00199374
-0.000293511
-0.00162926
-7.59592e-05
4.68204e-09
0.001832
-0.000862558
0.000779875
-2.08881e-06
-1.44772e-06
4.23091e-08
3.71026e-09
-0.000553694
-0.000792742
-4.28146e-07
-1.53503e-08
5.18324e-06
-4.5956e-09
-0.000218224
-3.43089e-11
-1.21577e-08
-2.07306e-07
4.4039e-07
-1.0472e-08
7.35993e-07
-1.1503e-06
0.00689508
-7.85976e-09
-4.04456e-05
-6.10287e-10
-0.000310916
0.00426413
-0.000400312
-4.52174e-08
0.000890878
-4.11914e-08
1.04387e-08
1.53411e-07
-0.00871194
-2.47092e-09
7.88153e-08
0.00221316
7.1796e-07
2.59203e-08
-3.85394e-08
1.7477e-05
0.0100462
0.000217643
3.85617e-07
-0.000162492
-0.000570885
6.92682e-07
0.00461008
9.60997e-08
-3.88551e-08
-0.0178761
0.00398843
0.0212027
-8.66125e-09
-1.93422e-05
-0.00016634
-0.00914758
4.93316e-07
-5.74141e-06
-0.00138902
3.04797e-06
1.76494e-07
2.9765e-06
-0.0182554
1.3221e-08
-3.60324e-06
2.43151e-08
-0.000323901
-0.00111379
-3.25067e-09
-1.55363e-08
-2.56939e-08
-0.000460792
-5.17754e-08
2.17253e-09
1.46959e-08
7.75749e-05
0.00199021
-1.73551e-07
-0.0025075
-2.36574e-09
5.2858e-08
-5.12955e-07
-9.96481e-10
0.00528403
-0.000197071
1.10421e-09
0.00131888
1.537e-08
4.30482e-06
5.25719e-08
1.98975e-08
3.46962e-08
3.49631e-08
2.66706e-06
0.00647151
-8.01929e-07
1.26415e-06
0.000660582
-1.82451e-07
-0.000147226
0.0169392
4.2931e-09
4.49677e-08
4.11336e-07
1.10044e-08
0.00272723
1.45854e-08
3.01917e-08
6.07817e-08
-1.0202e-06
1.57364e-08
4.14681e-09
-0.00974635
6.064e-07
0.0073758
2.12434e-09
6.76566e-08
-1.15292e-09
-1.90544e-07
3.4285e-08
0.00210567
9.38814e-08
3.34964e-09
0.00231302
-3.36874e-08
-1.2506e-08
0.00147023
-6.89215e-07
3.32664e-08
1.59711e-07
-0.000594057
-3.52902e-08
-1.17708e-06
-4.39818e-08
-0.000520793
6.81734e-09
-1.34853e-08
-3.62682e-07
3.46788e-09
-0.00396827
1.07692e-07
2.41481e-09
-4.97916e-08
0.00103404
-0.000169514
-1.66997e-08
-1.53316e-08
3.73293e-08
5.58687e-08
-7.03204e-09
7.14368e-09
-1.71475e-06
-0.00343409
0.0197528
2.27852e-08
1.16203e-08
-6.99783e-07
-1.67031e-05
-0.00366096
9.66575e-09
-1.85217e-08
0.00128273
-0.000334049
2.91562e-08
-0.000221328
6.94356e-08
-1.21124e-08
6.51521e-07
-8.78303e-07
3.98725e-08
-2.57378e-08
-8.71168e-09
-0.000147151
-3.90901e-07
-1.23684e-08
-4.28233e-08
0.000207114
-1.63415e-06
8.00127e-09
-1.52335e-08
-0.000470981
1.96038e-07
-4.8812e-06
1.71884e-07
-6.3211e-08
-4.46197e-08
0.000107344
-1.63967e-06
3.20201e-09
-0.000753225
-1.23406e-08
-1.37183e-05
5.68734e-09
2.75001e-07
-0.000904945
-6.80103e-08
1.99005e-06
-0.0101294
-2.44425e-08
7.8114e-09
5.1922e-09
-3.92838e-08
1.68081e-06
0.00119536
2.31596e-08
-2.7231e-06
-2.46876e-08
2.99521e-07
-2.70076e-08
1.13015e-06
3.05496e-08
0.000269698
-4.53422e-09
-6.58867e-09
-0.000293921
1.62177e-06
1.67376e-08
3.05599e-08
-9.85865e-07
0.000821128
-7.81288e-07
-5.25376e-09
-1.00683e-08
6.31626e-09
3.76146e-09
-0.000248647
3.78056e-10
-0.000157986
-1.21508e-06
-2.52737e-07
5.9458e-09
0.00725968
9.64235e-10
0.000603691
2.6351e-06
-8.62292e-08
-0.00640114
-0.000321146
-2.93207e-10
1.56142e-07
4.81019e-09
-0.000127362
-0.000170217
4.45655e-08
0.00212278
9.89326e-09
-4.17468e-07
-0.00149195
-1.35166e-06
0.000431639
-0.00286366
2.38714e-08
0.000818135
-4.82815e-09
2.48413e-08
-0.00367847
-0.00375904
-2.42026e-08
-1.72264e-06
-4.48638e-08
-6.41895e-07
1.96199e-09
-9.72137e-07
8.54104e-09
-1.77615e-06
-6.77842e-09
2.16272e-08
4.42729e-09
6.85525e-08
-5.48353e-07
-0.00103895
-0.00172262
5.90419e-09
1.34533e-08
-2.13725e-06
2.03714e-07
-0.00160512
-3.59031e-09
0.00164545
-4.75522e-08
-6.35528e-09
0.000170696
8.63697e-09
-0.00100545
-3.79928e-08
-6.65039e-08
-0.0119975
-6.65472e-09
-1.24422e-08
-6.19397e-08
-3.05434e-09
1.72995e-07
0.00254838
-4.44528e-08
-0.00643296
-4.7446e-05
-2.82566e-09
0.00161342
-9.61794e-05
1.60025e-08
2.78774e-09
0.000154848
0.000348952
-5.12662e-07
6.64766e-08
-0.00223233
0.00990917
-3.58451e-09
-1.03267e-08
-4.11394e-08
1.48877e-08
-0.000670795
0.00180004
-3.57652e-07
0.0109167
-3.53885e-07
2.01939e-08
0.0014267
0.000266271
-8.10421e-09
2.75966e-05
-7.12765e-06
9.03362e-07
-0.000176184
5.70925e-08
3.34648e-06
1.62059e-08
3.50677e-09
-3.47906e-08
-6.39806e-09
-6.14577e-07
-1.59427e-06
4.10759e-09
2.41525e-07
-4.89229e-08
-0.010331
-3.66931e-08
-0.000164549
0.000541546
0.00427338
-5.82466e-09
-6.90006e-08
0.00800993
-5.13158e-09
0.00137091
-2.59735e-08
2.35111e-07
-0.00293025
-1.39814e-08
-0.00238686
2.06059e-08
0.00815924
-1.85094e-06
3.65266e-06
0.0060878
-9.47668e-07
1.19282e-09
0.00019954
3.72952e-09
-0.00168483
-3.30987e-06
-1.65131e-05
-1.44551e-06
3.07652e-07
7.26862e-05
2.06581e-07
-1.77325e-08
3.11835e-06
-9.28308e-05
8.20466e-10
5.82152e-08
-0.0010607
0.000959107
7.01124e-06
-0.00207539
1.94357e-07
3.09198e-08
-0.000527836
-1.2462e-07
0.00914879
0.000445131
0.00863112
2.09078e-08
-2.24642e-08
1.0064e-08
-0.000533335
3.42496e-09
0.00139431
3.62726e-08
-5.49138e-09
-1.3446e-08
-0.00378942
-0.00286564
3.24932e-06
3.30429e-06
-4.32842e-07
-8.05793e-09
4.6635e-06
-3.73546e-08
-0.000157116
-0.000288375
0.000973891
3.19904e-09
-3.30361e-07
0.00195761
-1.30735e-09
0.000635744
-4.09514e-09
2.78299e-08
-9.072e-07
0.00242901
1.6411e-08
0.00808944
0.000151361
2.21317e-08
0.00457775
-2.0543e-06
4.74039e-09
-8.50855e-09
0.00557906
-0.0037746
5.21119e-09
5.66407e-06
-0.00227444
-8.85644e-09
0.00734097
6.93928e-06
-8.97224e-05
-0.000305813
7.31634e-09
-1.10811e-10
2.62762e-08
2.43076e-08
-0.000227453
1.68743e-06
2.52395e-08
-0.000435046
-1.64945e-08
-1.00666e-07
1.467e-07
-5.49783e-05
8.02491e-06
-7.7363e-08
2.8315e-09
4.85569e-06
4.56656e-07
-1.16576e-07
6.56631e-08
-1.62784e-08
-3.45832e-06
-0.023175
2.28689e-08
4.48028e-06
-0.00751183
-0.00131073
0.000864111
2.46369e-08
-5.68712e-07
0.000156117
0.00773792
2.20104e-08
-5.77052e-09
0.000163145
-0.00158718
-0.00676751
5.06006e-09
-0.00376752
0.00169323
-3.06622e-08
-0.0117421
4.74865e-07
-8.52563e-10
-5.00736e-07
4.53634e-08
-0.000149804
-4.81396e-09
0.000101929
1.48863e-06
-0.0033188
4.68937e-07
0.00259364
0.000481603
-0.00207602
-0.000551988
-1.4774e-08
-0.00187996
8.97563e-05
1.53557e-07
-5.9276e-08
2.49647e-06
1.10188e-06
-0.000598603
8.43889e-09
1.46219e-06
-2.90731e-08
0.000431043
-1.96617e-07
4.39942e-10
8.86127e-09
5.00089e-08
3.37087e-08
0.00404275
6.7698e-06
2.4243e-08
3.94839e-06
2.04874e-09
-6.66198e-07
1.98561e-08
1.36439e-06
1.96928e-07
-0.00657752
0.000301568
-8.0763e-08
-0.00143877
-2.00285e-05
0.00276772
-0.000166882
-1.33626e-08
0.000167839
3.79202e-09
-0.00308751
0.000280178
-5.05344e-09
-1.92142e-07
4.44156e-09
7.5894e-09
-1.36193e-08
-1.27762e-08
-3.87323e-08
-0.000502239
-1.94648e-08
0.00645235
-1.37243e-08
-0.00062796
-1.50987e-09
5.09378e-09
-0.00306532
-1.89437e-08
-7.63064e-09
1.7758e-08
6.95096e-06
-4.44823e-06
5.38016e-09
-1.91339e-06
-4.4247e-08
-2.43009e-06
5.92954e-09
-0.000460856
2.05117e-08
-2.31481e-08
0.00845837
5.07204e-09
6.5221e-06
-6.92634e-07
2.14229e-08
0.00296214
1.80757e-08
-0.00739584
0.000316397
5.06079e-05
-2.35422e-07
2.37309e-08
4.99972e-08
-9.15279e-07
-7.64981e-09
-1.86389e-08
-2.49819e-07
-7.81808e-07
-4.41878e-07
1.90697e-08
0.00238378
-0.000741815
-1.46417e-08
0.000228558
0.0110786
-2.65954e-10
2.11843e-08
8.91735e-09
1.63378e-07
0.00556708
6.11426e-07
3.87055e-08
1.34371e-08
0.00078932
2.34235e-06
-0.000978063
-6.28386e-05
2.35743e-08
5.64416e-09
-1.59192e-08
-0.00441012
-0.000613659
-5.38896e-08
-2.06881e-08
0.00415703
0.0032248
-1.85609e-08
-1.99076e-08
1.07598e-09
-2.50242e-08
-0.000578401
-1.69833e-05
-4.7173e-08
0.00023461
-2.33173e-08
-0.00126922
-0.0123705
-2.10724e-06
-3.6629e-05
0.000110672
-3.05438e-10
-0.000649586
-2.76653e-08
-0.00129338
7.7457e-05
-1.14284e-09
-0.00106301
-0.000456372
-0.00118692
0.0119447
-1.12522e-07
-0.000165303
-0.000418464
-2.16388e-08
-5.65183e-08
-0.00102186
0.000319615
-0.00170638
3.11111e-07
-6.97317e-08
-2.5764e-06
1.88979e-08
-0.00143182
-0.00473216
-6.4589e-06
1.8544e-07
1.25136e-07
2.51748e-08
0.000199101
3.63917e-08
-0.000184897
-0.000143444
-2.47065e-07
-4.13387e-08
-0.00024492
4.29361e-09
-9.31021e-08
-0.000366199
-0.00113746
-1.20301e-08
-4.05007e-08
1.37344e-08
7.85226e-07
8.07764e-06
-1.69962e-08
-9.32865e-08
7.39817e-06
-7.727e-10
-3.41436e-08
-1.483e-07
0.00184438
3.99955e-08
1.03286e-08
7.59664e-07
1.62666e-08
-9.70367e-07
-0.0160241
0.00885699
-0.00127544
-0.000171497
-1.50795e-08
-6.16341e-08
-1.56482e-06
1.55773e-05
1.2347e-08
9.02286e-08
0.000123616
0.000154039
0.000156965
-0.000108827
7.89469e-07
-9.86253e-09
0.000170139
-2.27463e-08
0.00135502
-2.08202e-06
6.2834e-08
-0.00400999
4.02299e-09
-6.16357e-07
0.00151418
0.00012307
-1.67186e-08
-0.000190944
-8.1254e-09
-3.89728e-08
-2.14485e-08
3.12301e-11
-3.90973e-08
-2.24347e-07
-5.0056e-09
0.000835805
-1.82818e-06
6.68607e-09
-7.05583e-09
-3.41161e-07
-0.00600781
0.00708938
-0.000857833
-4.53284e-09
5.91765e-09
-0.00345853
-9.1599e-07
0.00677197
-3.4798e-08
1.27288e-09
-6.09679e-09
2.86694e-07
-0.00053795
-1.79059e-08
1.05103e-08
-4.55889e-08
3.22444e-07
-1.09761e-08
-2.4167e-07
2.12638e-09
9.11343e-09
2.38136e-08
1.42361e-06
-1.61833e-07
2.94856e-06
3.18155e-09
0.00559628
5.33424e-05
0.000206913
-0.00967723
-2.28229e-07
0.00322999
-2.66098e-06
7.62349e-06
-0.00159165
1.18764e-08
-0.0054322
-1.12889e-09
9.07164e-06
-0.00219037
-3.85499e-09
2.04949e-08
0.0033165
-2.2683e-08
-0.00411269
-0.00143644
-1.09105e-08
6.93432e-08
-1.22311e-08
7.52607e-09
-0.000915643
-5.94748e-08
4.20053e-09
9.02895e-09
4.52869e-08
-6.31157e-09
6.95098e-09
-0.00161967
1.05132e-08
0.00765972
-0.000226504
-3.22943e-08
8.93138e-09
-1.49424e-08
4.83217e-09
1.08805e-07
0.000202382
-9.88021e-09
1.50017e-07
-1.47214e-06
-0.00598602
-0.000108778
-1.10316e-08
7.51589e-07
-9.59131e-08
-1.28892e-08
7.26978e-11
-0.00359966
-1.71447e-08
-3.28546e-09
-0.00134874
-0.00288108
-0.00169076
-1.39521e-08
-0.00598559
-0.00362642
1.62696e-09
-7.62211e-08
5.12566e-09
5.09938e-09
6.16449e-08
6.39526e-09
-0.00388185
8.34792e-09
-1.23683e-08
-0.00410624
-8.07474e-09
-0.00101115
3.27749e-08
-4.69903e-08
-0.0201752
1.84963e-09
0.000154406
1.01675e-08
1.44091e-08
-0.0094721
-9.92703e-09
1.74518e-09
-3.98202e-08
-0.00180788
-0.00155417
-2.39651e-10
-9.80448e-09
6.67698e-08
-3.75599e-09
-0.00330318
1.80462e-06
2.08605e-09
-0.000192423
0.000603726
-4.36886e-08
0.00883684
-1.65485e-08
0.00172741
-0.00353387
4.22119e-08
-3.50522e-08
0.00167004
9.22621e-07
-0.000203076
-1.6858e-06
-6.33418e-07
-0.000199875
4.96058e-09
0.00653774
-3.79246e-08
0.00352517
-7.63144e-09
-0.00411162
-1.13296e-08
-3.26407e-09
-2.13971e-08
2.16057e-08
0.000120994
-0.00363028
0.000166483
-9.64728e-07
6.98465e-09
-0.000226954
-5.17655e-09
-1.27977e-08
-0.00149075
3.01723e-08
0.00293133
-0.0012298
-3.08106e-09
-4.4483e-10
2.50801e-06
-2.00048e-06
2.92919e-09
-7.04826e-07
-3.95615e-08
-0.000621851
-0.00207661
-5.23114e-09
-3.33105e-08
-8.14127e-09
3.92779e-09
-0.00226303
8.05632e-07
0.000740622
4.46981e-10
9.55964e-05
-0.000174703
8.27683e-09
6.72652e-08
-0.000209381
-0.00194223
-0.0013951
1.13921e-06
-9.31882e-05
-5.27982e-07
1.75885e-07
-3.71621e-06
-0.000986781
-0.00124656
-3.08273e-06
5.35022e-06
-4.28621e-08
-4.46233e-09
4.91399e-07
0.00575925
8.24261e-09
-2.92504e-06
-2.65182e-05
2.20968e-09
6.02195e-08
1.26941e-08
-4.22755e-07
7.03444e-09
0.00134492
-4.8989e-05
-0.000158128
-6.66277e-08
-0.00198569
-2.03142e-08
4.57317e-07
8.57783e-07
-3.95092e-07
-0.000237697
2.6848e-08
4.32197e-09
3.19667e-06
6.30507e-09
-0.00320795
-1.75533e-07
1.66064e-08
-2.20665e-08
-0.008146
-4.23421e-08
-7.99132e-08
5.16382e-09
-4.64143e-09
6.77628e-07
-6.46277e-07
1.53738e-07
2.33131e-08
-4.06823e-08
-1.30281e-05
-1.4756e-08
9.60687e-06
-4.67194e-09
2.45406e-08
1.91733e-09
0.0064054
6.08339e-05
-0.000229141
-5.31107e-07
4.81655e-07
3.36294e-08
0.00960524
-6.4658e-05
-1.21556e-06
-0.00312989
1.74219e-08
-8.46335e-09
-7.25311e-06
-7.71047e-05
-0.00375332
-0.00113434
-6.02841e-06
-6.92202e-07
-7.64197e-09
-1.74255e-06
-2.76033e-05
-0.000253378
-1.00592e-07
1.64743e-09
1.20067e-05
0.000275853
2.17336e-08
1.33914e-07
-0.000222835
-9.74858e-08
-0.00304493
0.00013286
-0.000607265
-5.17513e-08
4.91325e-08
4.14634e-08
-0.000309548
-9.87173e-09
7.12298e-09
-5.03924e-09
-0.00101685
-0.000228208
0.00902935
0.000162147
-9.11005e-09
-8.78274e-09
-5.88749e-08
-0.000416551
2.00981e-08
-1.10537e-08
-2.09847e-08
1.72099e-08
-0.0010906
2.27962e-08
1.92107e-08
5.20585e-09
-1.05637e-07
-4.63628e-08
0.000184167
-1.49662e-08
4.1372e-09
-0.00689545
-1.39446e-08
2.57686e-06
-0.000236097
8.25301e-07
3.96537e-08
0.00185848
0.000682191
-7.89073e-09
-0.00151654
5.52912e-08
-2.48301e-05
0.000168607
0.00463744
4.88291e-07
-4.84177e-08
-1.3666e-06
2.1441e-08
-1.49851e-08
1.34823e-09
4.0456e-09
2.94505e-06
-0.000196909
-5.7852e-08
-0.0278401
-7.07633e-09
-0.000982182
-0.000373718
-1.45685e-08
-1.2573e-05
4.75328e-09
1.20677e-06
6.25702e-09
0.00160321
-1.85366e-08
-0.000205752
3.55321e-08
4.01547e-09
-2.05316e-08
0.00287804
-0.00266932
2.45963e-08
0.00711678
0.00449738
-4.79055e-08
-0.0018433
-4.18976e-08
-7.56072e-06
-0.00429492
-1.77322e-09
5.15857e-05
4.50891e-09
-9.15223e-09
0.000185755
-2.9365e-06
3.7611e-09
2.3763e-08
1.26211e-07
6.59655e-09
-4.65005e-09
0.000165655
-0.000105785
-0.0022504
-4.2404e-08
-1.40098e-08
-3.018e-07
-8.11776e-05
-0.00180942
-0.00182216
-0.00289191
8.34055e-08
8.10698e-09
3.66651e-09
-5.16247e-08
-5.05084e-09
4.56077e-08
0.00544476
-0.0121148
0.0022213
3.81337e-09
-8.35131e-09
0.000378539
1.37826e-08
2.32681e-08
5.09573e-09
3.82289e-09
-5.13122e-07
0.00118826
2.39521e-08
7.13704e-09
-2.44743e-07
2.34365e-09
-0.00139594
-6.79318e-09
-0.00132014
-4.78308e-08
4.76366e-07
-1.71875e-06
5.29382e-08
1.35233e-06
5.19496e-07
-0.00014607
1.42144e-08
-0.0065262
-1.20494e-08
0.00589802
-2.26808e-08
0.0040778
-1.21471e-08
5.42495e-07
-3.78194e-08
-1.07159e-08
-1.50204e-08
9.25813e-06
-0.00313557
-2.2927e-08
1.55496e-08
-5.32142e-09
-0.000487724
8.72218e-08
-0.000319425
-4.83268e-09
-9.85453e-09
-3.14186e-06
0.00317228
-5.18378e-05
-0.000466485
1.73548e-08
-1.05464e-07
0.00118463
0.00984118
-3.97932e-09
-1.02112e-05
4.40017e-09
-7.88535e-09
0.00715424
-4.28079e-08
0.00476028
-4.79825e-08
-0.000168341
4.71151e-08
-0.00166863
0.00309226
1.37636e-09
-1.01228e-07
-4.25812e-08
-1.65228e-06
-8.99364e-06
-0.0081433
-0.000331458
-0.000727797
4.68791e-08
6.16162e-06
6.36673e-09
0.00806372
-3.61583e-08
-0.000819328
-6.71382e-09
-3.58777e-06
-4.05744e-08
1.42994e-08
2.21978e-08
-0.000209951
-0.00177742
-0.00555089
9.68566e-06
6.29393e-06
-9.58875e-05
-1.79833e-07
0.000683023
-5.12085e-07
2.49402e-08
-9.39972e-07
-6.51827e-09
8.29898e-08
-4.86115e-06
-0.00312099
0.000127421
-1.79461e-06
-2.162e-08
-0.00880811
-6.26413e-09
-7.41784e-08
-1.95746e-05
-0.00514975
-3.73773e-08
-5.50433e-08
5.06863e-09
-5.83663e-08
-1.96557e-08
0.00235393
7.31185e-06
4.06308e-09
4.25699e-09
-1.3729e-06
4.25356e-09
0.00318411
-0.00012442
0.0108587
-4.58275e-08
0.00347659
0.00898991
-1.47313e-06
-0.00815025
2.82267e-09
-4.40373e-08
0.0138708
-0.000515378
-0.00285456
-1.18353e-08
3.34977e-08
-2.78434e-08
0.00155848
-0.000147128
-2.33602e-09
1.6854e-08
5.0121e-09
1.96227e-09
-9.75712e-05
4.95825e-05
4.81744e-08
5.76555e-08
-1.53344e-06
-8.82889e-09
-6.33463e-09
-1.65296e-07
5.84137e-09
3.51227e-09
2.44921e-10
0.00749953
2.3423e-10
4.76224e-06
-4.3925e-09
8.44808e-05
5.44534e-08
2.01549e-06
-7.48996e-10
3.69776e-09
-7.45908e-09
-4.43763e-08
-0.00115679
2.89078e-09