/*--------------------------------*- C++ -*----------------------------------*\
| =========                 |                                                 |
| \\      /  F ield         | OpenFOAM: The Open Source CFD Toolbox           |
|  \\    /   O peration     | Version:  v2012                                 |
|   \\  /    A nd           | Website:  www.openfoam.com                      |
|    \\/     M anipulation  |                                                 |
\*---------------------------------------------------------------------------*/
FoamFile
{
    version     2.0;
    format      ascii;
    class       volScalarField;
    location    "200";
    object      ddt0(omega);
}
// * * * * * * * * * * * * * * * * * * * * * * * * * * * * * * * * * * * * * //

dimensions      [0 0 -2 0 0 0 0];


internalField   nonuniform List<scalar> 
37190
(
2.73334e-05
7.66821e-07
5.54946e-07
8.6378e-07
-0.0381979
-2.98871e-06
-4.40198e-05
-0.000489995
1.90634e-06
-0.146146
0.289263
0.0740464
0.000248113
-5.01774e-06
0.0510769
0.0522829
5.90674e-07
0.0468465
-4.03793e-08
-5.4464e-06
-2.35569e-05
0.779555
-1.05307e-06
0.368805
-0.0506123
7.18197e-07
-0.00253475
-7.18396e-06
0.113692
-9.86773e-07
-0.00761662
-2.2451e-06
-6.82628e-05
0.00139714
-7.91567e-05
-0.0307448
0.00127076
-0.0556891
1.3417e-07
1.37821e-05
-0.208055
-2.18984e-06
0.0619155
-3.49309e-06
-0.0278255
-0.0172659
-0.0267955
-0.00847605
-3.18383e-06
-1.53546e-05
-4.95114e-05
-5.9727e-07
-2.07266e-06
-2.79277e-05
6.30614e-06
0.0014635
-5.84721e-07
-7.08198e-06
-0.209882
-0.00673427
-0.000929262
-0.0246757
-2.51517e-05
9.92632e-07
-0.0440073
0.379285
0.0570303
0.247136
0.232464
-0.0215124
3.01675e-07
-0.00427177
-6.28279e-05
-9.45539e-07
-3.65697e-06
0.00058639
0.0701554
0.00342645
-6.86856e-05
-0.000304138
-0.0281982
7.42579e-07
-0.0630774
-0.000146334
0.223022
-0.000117992
-0.0319963
0.0225351
-4.6366e-05
-0.0774331
-5.87858e-07
0.173486
-6.79277e-05
1.31761e-06
-2.28149e-05
0.190306
-4.80309e-06
0.425488
-0.205772
-3.38591e-06
0.186423
0.00128909
-1.76844e-06
6.98168e-07
0.207995
9.05343e-07
-3.39579e-06
-0.159139
0.411785
-4.28563e-06
-0.0763845
-7.14762e-06
7.50884e-07
-7.48035e-06
-0.00101958
9.19802e-07
-0.0278935
-0.0590797
-1.48406e-05
-9.58478e-06
0.0106359
0.00145147
-1.23947e-06
-2.49477e-05
-3.81119
-2.30396e-05
0.0664707
-1.14885e-06
0.143704
0.229183
0.00397478
1.28185e-06
1.41695e-06
0.0041225
2.34163e-07
-0.493943
-3.93623e-06
-0.198084
0.179523
-0.0827275
-0.0564149
0.0063894
-0.0566137
0.106262
-6.12885e-06
-9.42037e-06
-9.2638e-06
-9.98415e-06
-1.06941e-05
-0.0134879
-3.59139e-06
-8.30413e-07
5.86133e-07
-7.83744e-05
-0.023993
-6.13919e-07
0.228834
5.59273e-08
0.000521135
-0.418963
-1.29568e-05
-6.19785e-06
4.26779e-05
-7.08089e-05
0.324958
-1.01514e-05
-0.0859181
0.122331
-8.95959e-06
-0.0414874
-3.73521
1.60032e-06
-0.0896704
-1.57355e-06
-0.117754
2.08809
0.0007145
1.6212e-05
-2.90094e-06
-0.113401
-8.07026e-05
0.00133149
-0.0909799
-0.0150443
-2.46223e-05
1.15828
-5.41269e-06
-0.125152
0.223465
-0.000153869
-1.1665e-05
0.0070686
0.00124061
-2.64481e-06
-1.12452e-05
-0.0694687
-0.0618134
-0.214966
-0.0574277
9.66432e-07
5.17426e-07
-0.000134764
-6.35295e-06
-3.15388e-06
0.0432498
-0.0924374
1.76664e-07
-2.65729e-07
0.108978
-0.000122348
-6.53605e-06
1.79778e-07
0.0316866
2.70318e-06
-0.00400865
-6.51443e-06
3.39944e-07
-5.99563e-06
-2.68727
1.60739e-07
-7.06974e-06
3.53663e-07
0.331992
-0.0584627
0.332371
0.41325
0.15444
-0.0683019
-1.21063e-06
0.196367
-0.0655023
-4.92473e-06
6.18317e-07
1.11247e-07
1.47535e-07
-7.69019e-05
-0.0663878
1.35739e-06
8.67441e-07
-0.000340186
-9.776e-06
-0.128147
-2.75151e-05
-5.99698e-07
0.19429
0.999166
3.77498e-07
-7.31392e-05
-3.66003
1.52418e-06
-1.11844e-05
0.000455598
-0.000380867
-1.02804e-05
-8.19723e-06
-9.95813e-06
3.25465e-07
-3.41498e-06
0.000144497
4.77258e-07
0.00727014
0.0397674
0.0012022
-5.87854e-07
-0.160515
-9.67821e-06
9.06185e-07
-0.0770455
8.23302e-06
0.00173584
0.00218591
-1.04927e-06
-0.164063
-0.136471
0.0013874
-0.107855
0.000271768
-4.76999e-06
-0.140771
2.03577e-07
8.09841e-06
-0.000497275
2.52682e-05
1.31482e-06
-0.00038168
3.15312e-07
3.11257e-06
5.72243e-05
-0.0771552
3.52075e-05
-6.93539e-06
2.13298e-06
-0.00045669
-0.0628559
-2.1001e-07
0.141785
-2.32014e-09
1.80374e-06
-0.055644
-1.13305e-06
-0.000193824
1.43285
-0.468233
-0.0597789
-1.66011e-05
-0.00707991
-0.0391575
9.42155e-08
-0.0268225
-0.148109
-0.0435446
-0.0604986
0.0268646
0.898837
0.00359727
0.00505087
-2.56775e-07
4.43984e-05
0.326413
-5.11994e-06
-0.0407301
-0.0389234
-5.33573e-07
-2.38567e-05
0.384092
-0.0339909
-1.41984e-05
0.196219
-0.111998
7.04406e-06
-0.368672
0.137068
0.0415473
0.00231422
-1.95815e-06
3.22283e-06
9.22277e-07
3.02116e-06
-3.54549e-07
-2.20786e-07
0.0651961
-9.07291e-07
0.21399
-1.84284e-06
2.11666
-0.0202239
0.00429202
1.92079e-06
0.0621719
0.272975
-0.247633
0.00808892
6.14929e-06
-6.31917e-07
0.620055
0.0646076
-8.11421e-07
1.96755e-06
0.00256379
0.323163
-0.00190313
0.188658
-0.596004
-0.0276149
-0.0271235
0.0188248
-3.11618e-06
0.0618439
-2.3002e-07
0.217331
-1.73304e-06
-0.0797655
0.00671133
-1.39222
-0.000165754
-1.07127e-08
-0.05566
-0.747029
0.293886
-0.0215834
1.06041e-05
-0.00453049
-4.03088e-07
-0.0334063
-0.150385
7.65126
-6.15071e-06
5.50003e-06
-6.11432e-05
-0.000885427
0.0358603
-0.0479645
3.21722e-05
-3.26426e-06
-0.0215559
-0.166949
0.964389
-0.0350226
0.440107
3.28026e-06
0.0763915
0.0242801
-1.1093e-05
-0.0892677
-0.00256219
-5.98554e-05
0.00207197
-0.17274
-0.0282012
2.07901e-06
-2.81697e-06
7.13771e-06
9.56274e-06
-0.14945
-0.000164464
-0.0425659
0.000914173
3.15975e-05
-0.0648625
-2.91758e-07
5.37451e-06
-0.0835496
-1.27979
-1.11391e-05
-8.43765e-07
8.87438e-07
6.25298e-06
9.64487e-07
-3.67476
0.0455178
9.3566e-07
6.0978e-06
1.61852e-06
-0.217001
-0.0256881
-1.57763e-06
-3.08787e-05
3.83554e-06
-3.13172e-05
0.0749027
1.06597e-06
-3.40358e-06
-0.0102666
-5.79738e-05
-0.0465606
-1.10805
0.150667
-0.000197486
-5.86056e-05
-1.45197e-05
-0.136606
0.0324111
-4.50015e-05
-1.21526e-05
-0.00207426
0.141236
-4.58196e-07
-2.67981e-07
-3.8241e-07
-0.157454
1.53864e-06
-0.000145851
-0.000577567
-6.30184e-06
-0.000109735
5.39032e-07
-0.072385
0.000101658
-4.54885e-07
-0.185006
-3.21818e-06
-8.7818e-07
-0.120088
-8.14337e-06
0.00120376
-0.304754
-1.70184e-06
-0.000356028
-7.3443e-07
-0.0727286
0.210736
-1.74105e-06
-2.31033e-06
0.0588309
0.00262994
-0.000155781
-0.0397877
-7.29688e-06
-0.173552
-4.09034e-07
0.0959135
-0.114089
0.00172604
-2.83405e-06
-4.54365e-05
8.35323e-06
-0.000670515
-0.0251325
-3.8726e-06
0.131225
0.0417087
-0.0515686
0.307481
-0.113826
3.50557e-06
7.66957e-06
3.06805e-06
3.93824e-06
-9.00243e-06
-6.60967e-06
-0.211048
-1.57278e-06
-3.7428e-07
-0.00044949
-0.0345359
-0.0488729
0.124339
-5.9937e-06
-1.19189e-06
0.262012
4.14283e-06
0.115438
-0.0001616
-2.56983e-05
-1.02955e-06
0.0211104
-0.000185554
-0.25167
2.22763e-05
-4.27827e-06
-3.08672e-06
-0.000498965
-1.05556e-05
-3.58503e-06
-0.0993586
2.65038e-07
-0.017208
-0.349909
0.633528
-0.0433898
-0.00253427
-0.017498
-0.00011971
1.07551
-0.0389768
0.0166486
0.216383
-2.69295e-06
1.25419e-06
-3.86596e-06
0.0147971
-0.15589
-0.106268
-9.15006e-07
0.38884
-1.15859e-06
-9.38333e-06
0.373842
-0.000110039
-0.205372
-0.101515
-1.27046
2.57258e-07
-6.43825e-06
0.0410331
-0.00362264
0.304005
-0.0329538
5.92207e-07
-0.0743311
-0.155608
-0.0583973
2.94131e-06
0.305215
0.172251
-0.0434128
0.212703
4.26783e-07
-0.000653973
-2.92729e-05
-1.87075e-07
1.6203e-05
2.79512e-05
-1.28629e-06
0.753617
0.0405855
-0.0282168
-0.0588715
1.19699e-05
-0.000105814
-0.00789836
-1.80965e-07
0.189562
-7.37617e-07
0.0447496
-0.911834
0.00894268
-0.140082
-2.77742e-06
-6.62124e-07
-1.13852e-06
1.41891e-05
4.77306e-07
-0.0553554
-0.000166478
-0.000317539
3.11861e-06
-0.00174736
0.175707
-1.04838e-06
-4.19478e-07
0.0377069
1.60846e-06
1.02288e-06
-1.38786e-05
-0.248149
-6.58559e-07
-0.302469
4.47201e-07
-0.275206
0.0948325
0.000453477
-1.02839e-06
4.46e-06
-3.55707e-06
-7.37211e-05
-0.0583768
-2.8973e-05
-0.156224
2.34584e-06
-0.290353
-8.67525e-07
0.00240321
0.330638
-0.182898
-0.114682
-0.00432639
0.00179489
-3.85698e-06
-5.80491e-06
-0.135515
0.00828596
-0.000166193
1.10273
-3.78188e-07
1.2767
-1.29086e-06
-8.64828e-06
-0.000254929
0.102325
7.36201e-07
0.000314079
-0.0924769
-0.098153
-0.273265
-0.029063
-2.21105e-06
-0.133385
-0.0637094
1.79378e-06
1.61642e-05
-0.0431125
-0.13899
-0.000178674
-0.0304661
-1.00623e-05
6.86791e-05
3.25484e-05
-0.0430784
1.56515e-06
1.712e-07
2.98689e-06
-4.14743e-07
0.0108327
0.0971327
-2.35867e-06
1.18686e-06
-0.103856
-0.207312
-4.71389e-06
4.44139e-05
0.131926
6.11222e-07
-0.000313329
-7.24584e-07
6.9924e-08
1.54536e-06
-0.130826
0.000507713
-0.163494
2.81345e-06
-0.000103196
-0.000527058
0.222357
-4.98674e-07
-2.72364e-06
-0.0605953
-3.84093e-06
-2.98316e-06
0.00121505
-7.04281e-07
3.79054e-07
0.352974
-6.78641e-07
-0.000163322
-7.5739e-07
-0.000251788
4.25623e-05
0.000411912
-1.85003e-06
-0.000534607
-7.46353e-07
-0.0119023
0.000429245
-4.99123e-08
0.0910784
4.43585e-06
-3.95405e-07
0.0218747
-0.0289434
-0.493162
-0.000377539
-5.62034e-07
-3.92645e-06
-1.17702e-06
0.000921477
-0.0844567
-2.24155
-0.000153653
1.06983
6.45879e-06
-0.0257333
-1.15277e-05
1.56115e-07
0.000769033
-0.00214276
-0.1631
-1.73906e-05
-4.61858e-05
-2.85075e-06
3.95117e-07
0.0291177
-0.018339
-0.000342029
0.553896
1.66491e-05
-0.0273295
0.0249592
0.00393776
-0.260065
0.0825598
-6.4169e-05
0.00081758
2.92472e-07
0.0810457
-0.000709893
0.000852404
-0.160567
0.319198
9.36886e-07
-0.0155391
-0.000220479
-6.45649e-07
1.69085e-06
-0.0367482
-5.03683e-07
-0.11119
5.67031e-07
-4.38357e-05
-0.0703871
-4.12685e-07
-8.06431e-05
-9.35882e-05
0.000292819
3.52179e-06
-0.0005012
2.13409e-06
8.52769e-08
-1.00544e-05
-0.000559443
-2.44063e-06
-5.84817e-07
-1.0408e-06
0.055812
4.31365e-07
-0.00446133
0.000721673
-0.000688173
0.000268471
-4.05949e-06
-3.74819e-07
-2.16065e-06
-2.21503e-07
3.61046e-06
3.02356e-07
0.011217
-1.11767e-06
-8.13517e-06
-6.0331e-06
0.0316915
0.00829793
-1.33538e-06
1.43856e-05
-4.26815e-06
-0.0160286
-2.63259e-05
0.300527
-0.0458257
-0.0567451
0.0196996
-2.93626e-06
-2.86712e-06
3.10962e-06
0.628356
-3.08609e-06
2.58861e-06
0.00576468
0.000963813
0.17723
-1.03379e-05
-0.00113276
-0.000163464
3.45417e-06
0.672843
-2.58149e-05
-4.06451
-0.200482
1.50225e-06
0.00130643
-7.60119e-08
-0.161056
4.73359e-07
0.0493212
-0.0222204
0.234628
0.000684273
-0.00193996
5.04303e-07
-5.52457e-07
-0.0255213
-0.525907
0.0195066
3.41669e-05
-1.60737e-06
1.09411e-05
-0.0218295
-3.27424e-06
-1.88013e-07
-0.112328
-5.57656e-05
-0.00128871
1.89779e-06
4.14743e-05
0.000203671
-1.04437e-06
-9.64259e-07
0.26852
7.74434e-06
-0.00911509
-0.00541865
0.00687152
0.000488653
-0.000140002
-3.37678e-05
-3.66278e-05
0.0218409
0.00133629
0.169389
0.292948
2.204e-06
-0.0798905
1.38517e-06
0.000467239
9.38618e-07
-0.240773
-0.198555
0.00469955
0.593571
-1.44515e-05
0.0607135
0.000825328
0.139199
-0.00103359
-9.25998e-05
0.565518
3.96867e-06
-0.0695868
0.0544375
1.31442
1.12794e-05
0.00447174
-5.37044e-05
-0.0593154
-4.69959e-07
-3.08896e-06
-1.83668e-06
-2.10863e-06
-2.8504e-06
-4.43658e-06
-3.44754e-07
-2.72879e-06
-3.95385e-06
-0.00825997
-0.040683
-3.27478e-05
-8.76994e-07
-0.0724887
-8.31579e-05
1.44278e-06
-3.94872e-06
-5.69389e-07
0.245979
2.26179
-2.98344e-06
1.74307e-06
-0.000339429
-5.59572e-07
-5.11391e-05
-0.00175488
-6.59658e-06
-0.743468
-0.000673837
-0.203801
0.0109207
-3.00149e-06
1.7749e-06
-4.8087e-05
0.969914
0.126175
-9.32365e-07
0.000211355
-0.568812
-2.18797e-06
-0.0172191
-2.00758e-05
-0.178111
-9.82337e-05
-2.42727e-06
-0.0144506
4.40201e-07
0.0682352
0.09107
-0.000125694
0.000745582
0.000620746
-0.000290174
-4.19856e-06
-0.0301076
-1.75944e-06
-1.31682e-05
0.17975
-1.70332e-06
0.000638707
-0.188471
-0.00218241
7.58451e-07
-5.42364e-06
0.0644742
-2.66279e-05
5.22844e-07
-2.89121e-05
-2.07141e-05
-0.46659
-0.000646607
3.3971e-07
-0.0277778
-3.82483e-05
-0.154008
8.40369e-06
0.423437
-0.000413091
-0.0795771
-0.0542357
-0.00102563
4.56816e-07
2.20344e-06
-0.006795
2.15816e-06
-1.20236e-05
1.92794e-06
3.38591e-06
-0.000105149
-0.000200802
5.69216e-06
0.00117647
-0.258891
4.44375e-07
0.0141911
5.44657e-06
3.85729e-06
-2.65821
-0.0526226
-0.00177676
-0.140336
-3.33602e-05
-0.000906773
-0.000451936
2.72157e-06
0.12934
0.0085363
-1.12585e-06
-0.0118792
8.45909e-07
-3.36537e-06
7.12036e-06
3.87751e-06
0.00677461
0.297432
-2.74794e-06
-0.0391257
-2.53539e-06
0.440163
-0.0586827
0.0458471
-0.0295811
-0.0783458
0.000146156
-4.43115e-05
0.00819915
-1.8402e-05
1.45309e-06
-0.000460646
-8.8e-06
0.000280823
-2.34141e-06
-3.8936e-06
-2.03605e-06
3.2438e-06
-0.012335
2.63027e-06
-7.82608e-05
-0.101389
-4.05761e-06
0.0166345
7.11314e-07
1.57623e-06
2.46904e-06
0.0117112
0.0400766
2.96529e-06
-4.67599e-06
0.320753
-7.46788e-05
-0.0700817
0.0019053
3.2031e-07
-0.0884338
2.53679e-06
5.7722e-07
-4.89334e-07
-1.82922e-06
-0.169982
-0.0166857
0.000140775
0.000302296
-0.00041892
0.0467331
5.52327e-06
-0.082186
-4.29685e-06
-0.000104031
3.51872e-05
-5.37798e-05
-5.30498e-08
-0.718645
0.0514917
0.436509
7.04278e-07
0.000559408
3.079e-06
1.12502
-0.000796306
-4.40357e-06
7.77487e-06
-0.000595174
-1.02032e-06
0.427932
0.0342347
4.33906e-07
6.26227e-06
2.22341e-06
-8.36956e-07
1.01802e-05
7.81868e-07
-5.85661e-06
1.61435e-06
2.15321e-06
-3.73373e-06
7.7633e-07
5.33267e-05
-3.79707e-06
0.473397
8.11299e-07
-1.03495e-06
-0.079496
5.62794e-07
-8.9466e-06
-1.05109e-06
-1.6851e-05
4.44598e-09
-7.27679e-07
5.48445e-06
0.00132735
-0.416264
3.76178e-07
0.496077
0.126721
-0.556128
1.23163e-06
0.200555
2.02245e-06
1.69365
0.323575
-0.0937552
0.000166976
-0.325175
-1.55896
0.0022288
-3.35273e-05
-1.29013e-05
-0.000612496
-1.95451e-06
0.0151082
0.32355
0.0294317
4.10831e-06
7.47922e-07
-3.17948e-07
-0.000262448
-0.136867
-0.327301
-0.00224313
-0.0608616
3.7569e-07
-5.03021
-0.0974697
0.0224741
-0.000279769
7.07123e-06
3.88991e-06
-6.24178e-06
-0.0574169
1.19572
-3.3777e-05
-1.15427e-06
0.00151269
-3.43749e-07
0.114135
1.10021e-05
-9.81121e-07
0.000292096
-0.000165588
-4.26142e-07
0.00101512
-0.000469737
0.854878
-6.40657e-08
0.503714
-4.02324e-08
-0.0236231
-0.147534
-0.0396087
-4.06249e-06
0.0256717
-4.19603e-06
7.1709e-07
0.000290781
-0.331337
-3.99187e-07
1.55461e-05
0.0524474
0.000155018
2.59271e-06
-2.76635e-06
-0.0560532
-0.35753
0.176039
-0.00151623
0.0306513
0.331668
0.000116297
-0.069356
1.98645e-06
-3.0163e-06
-0.0280168
0.307137
0.623466
-6.84176e-07
-0.0149584
0.255737
-0.117311
0.000552067
-0.00375388
-0.174914
0.000483077
2.62416e-08
0.000511695
-0.137313
1.13026e-06
-0.00053877
3.08761e-06
-0.0278017
-0.130813
-2.31265e-07
-1.19636e-06
-5.01405e-05
-0.023992
-4.4033e-06
2.01238e-07
2.0201e-06
-0.0105773
0.0648064
-0.000412898
-0.174281
4.51762e-07
4.20952e-06
8.4376e-05
5.64962e-08
0.242198
0.271422
-0.00036442
0.0778547
2.11966e-06
0.000984834
4.05341e-06
1.45902e-06
2.74008e-06
3.29268e-06
0.000190263
0.243271
-0.000139538
9.64741e-05
0.0256642
-0.000265228
0.190711
1.19009
3.42305e-07
3.73794e-06
0.000397578
1.04067e-06
0.733343
1.11156e-06
2.15106e-06
5.55216e-06
-0.000690936
1.34516e-06
-1.18998e-05
-0.159716
0.000926478
0.15388
4.6471e-07
1.60887e-05
-8.38874e-08
-7.65552e-06
2.62116e-06
-0.234176
4.71854e-06
-1.00753e-05
0.639884
-1.30432e-05
-8.49042e-07
4.15778e-05
-0.0013143
2.52411e-06
2.37046e-05
-0.00810234
-6.46534e-05
-0.000426281
-3.45157e-06
-0.0603944
4.44891e-07
-1.02049e-06
-0.000339778
2.31037e-07
-0.138163
0.000278667
2.67278e-07
-4.00019e-06
0.0260648
0.103652
-1.26198e-06
-1.13586e-06
1.0706e-05
5.16849e-06
-5.24632e-07
5.62306e-07
-0.000106365
-0.204848
0.830707
1.52492e-06
8.60038e-07
2.04249e-05
0.00925347
-0.129886
5.9497e-07
-4.80188e-05
0.188802
-0.0228962
3.82905e-06
0.0477605
5.58617e-06
-3.58045e-05
-6.93113e-05
-0.000653192
1.08575e-05
-6.96621e-06
-7.38943e-07
0.224903
-0.000465315
9.59454e-06
-1.27529e-05
-0.18292
-0.000776104
1.45332e-06
-1.12556e-06
-0.105537
3.81547e-06
-0.000940626
0.0023863
-5.73743e-06
-4.13162e-06
0.0071377
0.000169753
2.71191e-07
-0.919146
5.24707e-08
-0.0743464
4.77169e-07
0.00027151
-0.0482225
-4.65864e-06
0.00679678
0.00279766
-2.26223e-06
1.34758e-06
4.18898e-07
-6.81133e-05
0.000415898
-0.672671
1.67252e-06
0.000565425
1.11572e-05
0.00039557
-3.0683e-06
0.00101752
2.13389e-06
0.00616442
1.00229e-05
-4.98187e-07
-0.0151269
0.000365106
1.38879e-06
2.1283e-06
-5.84063e-05
0.0628202
-0.000149445
-3.99617e-06
-7.89641e-07
6.19479e-07
-4.32805e-05
0.225659
-3.74795e-05
-0.00682083
-9.26676e-05
-0.00031046
4.91142e-07
-0.0523906
1.45437e-07
0.0174686
0.000188208
-7.02372e-06
2.19519
-0.0298451
1.65143e-08
-0.00314331
3.8705e-07
0.0895623
-0.0288124
3.54985e-06
0.062294
1.41938e-06
-2.1239e-05
-0.396337
-0.00062195
0.0144489
-0.181887
1.76173e-06
0.0490794
-3.42096e-07
1.71294e-06
-0.152178
-0.00577616
-1.91413e-06
1.90092e-05
-6.61678e-06
-0.000133411
8.70233e-07
-0.000174083
1.31417e-06
-0.000318859
-5.04509e-07
1.70332e-06
-3.09753e-05
5.71142e-06
-0.000401315
-0.527069
-0.142399
4.30038e-07
1.30433e-06
0.0007745
0.000217756
-0.113083
-2.52359e-07
-0.0626903
-6.38438e-06
-4.3269e-07
-0.180483
6.70925e-07
0.0499185
-2.97779e-06
-4.51801e-06
0.270749
-8.34394e-07
1.77063e-06
-2.77115e-06
-4.24109e-06
1.17644e-05
-0.214287
5.32419e-06
0.00909076
0.0330966
-1.82049e-05
4.00006
-0.00889923
1.41047e-06
5.5022e-07
-0.144153
0.630023
-3.28755e-05
6.37969e-06
-0.0505595
-0.205275
-3.11392e-07
-2.41219e-05
-2.95171e-06
1.2655e-06
-0.403011
0.107256
-0.000348019
1.32754
-1.99348e-05
2.18851e-06
0.0290388
0.0760206
-6.90008e-07
-0.147351
-0.00141069
0.000108717
0.16318
4.51901e-06
0.00024978
1.32326e-06
6.56928e-06
-3.79803e-06
-3.06969e-05
-0.000138691
-0.000304516
-9.86124e-06
1.82814e-05
-8.86977e-05
-0.0516055
-3.15228e-06
0.174313
0.0250093
0.0515197
-7.29551e-07
-5.85385e-06
0.090277
-3.77797e-07
-0.00689614
-1.9514e-06
0.000276344
-0.119399
-1.08598e-06
-0.0739324
1.48591e-06
0.235883
-0.000240403
0.00537316
-0.166043
7.89243e-05
6.76372e-07
-0.160115
1.04889e-06
-0.016175
-3.96209e-05
-0.0145637
-0.000548782
1.41365e-05
0.0313539
1.21577e-05
-2.10686e-05
0.000425895
0.0850146
8.22535e-08
4.59571e-06
0.751609
0.349119
0.00223244
0.00325236
6.68505e-06
2.26919e-06
-0.060921
-0.000197948
0.263557
0.0147034
-0.271233
2.15805e-06
-4.04506e-05
6.19872e-07
-0.0513745
-8.86228e-06
0.053284
3.62539e-06
-1.55814e-07
9.54118e-07
-0.00728686
-0.101146
0.00252787
0.000630679
-3.13517e-05
-6.29047e-07
0.000677986
-2.93869e-06
0.355795
-0.195025
0.0312468
4.4644e-07
-1.60798e-05
0.333089
-3.66702e-05
-0.00784282
4.46321e-09
3.11544e-06
-0.000428192
0.0114337
1.17967e-05
0.3821
-0.177783
2.28959e-06
0.0755352
0.00100332
3.03509e-06
-6.39832e-07
1.00294
-0.131235
3.96455e-07
0.00123818
0.0763443
-6.35085e-07
-0.0637965
0.00230975
0.354128
0.270281
1.40982e-06
-6.56906e-08
1.89562e-06
1.7466e-06
0.211759
0.000242672
1.84131e-06
0.00660018
-1.0731e-06
-0.00016263
4.90955e-06
0.00526739
0.00255716
-0.000586951
8.9855e-07
0.000907189
-0.00120298
-0.000162919
8.16381e-06
-1.31172e-06
-0.000353246
-0.0288058
1.88287e-06
0.00637224
-0.322183
-0.15089
0.0261371
1.82223e-06
-4.07925e-05
-0.270505
0.125212
2.92556e-06
-4.23496e-07
-0.134983
-0.152282
-0.0623804
-1.31365e-05
-0.247014
-0.263297
-2.48159e-06
-0.10791
-0.000673142
3.90024e-08
1.22015e-05
3.33034e-06
0.146229
-3.56627e-07
-0.00236586
-0.00211397
-0.0126271
-0.00601749
-2.52392
0.04113
-0.567145
-0.758326
-9.88459e-07
0.568435
0.0380864
2.50852e-06
-0.000125509
0.00062077
0.00101441
-0.194391
6.47036e-07
0.000199553
-2.01473e-06
0.0140301
-2.95753e-05
7.10695e-08
9.08703e-07
2.9598e-05
3.15247e-06
-0.210159
0.00194966
1.76833e-06
0.000690928
-1.36472e-05
-0.00040007
2.69001e-06
0.00103002
1.01998e-05
-0.244521
-0.0727118
-1.23579e-05
0.0500101
-0.0035524
-0.0226005
0.0039478
1.98494e-05
-0.0877991
6.11555e-07
-1.2453
0.0129415
-3.6543e-07
-1.64716e-05
3.33165e-07
5.66439e-07
-9.40971e-06
-3.63781e-05
-2.98368e-06
-0.029626
-3.40276e-06
-0.135217
-8.30233e-06
-0.137834
-1.1183e-07
4.11959e-07
-0.220423
-1.7928e-06
-4.00301e-07
1.35386e-06
0.002745
-0.00184754
8.68779e-07
-0.00143917
-3.91804e-06
-0.000143755
4.56087e-07
-0.0855436
1.55522e-06
-4.69829e-05
-0.311298
9.17171e-07
0.00121602
-0.00047179
1.56651e-06
-2.03825
1.27749e-06
-0.521967
-0.218551
0.146061
-0.000248364
1.99837e-06
0.000249212
-0.000646739
-5.8704e-07
-4.73685e-05
-3.11708e-06
-0.000150347
-6.17254e-05
1.43014e-06
0.054956
-1.14342
-1.08581e-06
-0.0144221
1.46788
-5.5534e-08
1.56065e-06
7.06724e-07
-0.000493601
0.384143
0.000414012
3.4726e-06
1.36101e-06
-0.00582312
0.000454944
-0.0482717
-0.59013
1.7622e-06
1.53538e-06
-1.09716e-06
-0.252852
0.111352
-4.4592e-06
-5.21315e-05
0.268142
0.313405
-3.5664e-05
-7.3728e-05
4.37417e-07
-1.99197e-06
-0.0525107
-0.183615
-3.95112e-06
-0.0777383
-1.7014e-06
-0.0069358
-0.0722056
0.000208961
-0.00847039
-0.0145622
-2.828e-08
-0.0434911
-4.98371e-05
-0.399454
-0.126745
-8.64748e-08
-0.0305535
-0.0300449
-0.0932729
0.153437
-7.66191e-05
-0.0281879
-0.00707544
-3.55165e-05
-5.12852e-06
-0.0263224
-0.0540888
-0.0385599
0.000324929
-8.22094e-06
-0.110003
1.41122e-06
-0.156491
-0.144479
-0.00181212
3.14628e-05
1.02533e-05
1.89576e-06
-0.121912
3.04853e-06
0.0389967
0.235499
-0.000278457
-3.19206e-06
0.195715
-2.51012e-07
-0.000129702
-0.0158747
-0.0206046
-3.52334e-06
-3.93536e-06
-8.91509e-06
6.15028e-05
0.00126964
-1.30542e-06
-0.000142938
0.0011829
2.21694e-07
-2.63824e-06
-0.000775226
0.0163199
3.34015e-06
7.66098e-07
7.19838e-05
2.71199e-06
-6.7684e-05
-0.169799
0.087838
-0.381486
0.256921
-1.13263e-06
-2.5234e-06
2.50209e-05
0.000703494
9.34119e-07
0.000176501
-0.0462971
-0.0775921
-0.0364209
0.021867
4.17299e-05
-4.59427e-05
-0.075476
-1.68838e-06
0.123236
0.00132764
4.70968e-06
-0.108533
6.05471e-06
-0.000401284
-0.000812884
0.0357752
-3.54048e-05
0.244458
-6.43686e-06
-4.05308e-06
-1.60383e-06
-2.5966e-05
-3.08929e-06
-4.89251e-06
-3.79129e-07
0.0412238
-0.000136676
5.08344e-07
-4.31842e-05
-1.52289e-05
-0.327105
-0.0844838
0.0320492
-3.48008e-07
4.26363e-07
-0.155125
-0.0004527
0.712307
-2.92902e-06
-9.0402e-06
-3.58573e-07
5.12289e-05
1.2967
-1.12379e-05
7.97429e-07
-4.15232e-06
-0.000442288
-8.52604e-07
1.48189e-05
1.71669e-07
6.94796e-07
3.18107e-06
-0.00025986
-0.000281752
0.000473655
2.48275e-07
-0.038471
0.0150551
-0.118844
-0.41651
-5.18631e-06
0.0330775
0.000644815
0.00267695
-0.00352189
1.26906e-06
-0.274137
4.61603e-07
0.00313462
-0.125287
-2.93616e-07
1.60822e-06
0.0228275
-1.55083e-06
-0.129993
-0.00685915
-1.09429e-06
-0.0002529
-1.38518e-06
8.82842e-07
0.487209
-4.97343e-06
3.39741e-07
6.71057e-07
3.16557e-06
-2.96593e-05
1.1953e-06
-0.160006
7.85298e-07
0.153189
0.166895
-4.429e-07
1.13438e-06
-1.54304e-06
3.25354e-07
1.4651e-05
-0.10421
-1.27912e-06
0.000128587
-9.85644e-05
-0.332949
-0.000178015
-3.66946e-06
-0.0126648
-0.000170975
-1.1156e-06
2.52811e-08
-0.147864
-1.44444e-06
5.20003e-08
-0.25246
-0.21726
-0.140248
-1.06107e-06
-0.293963
-0.117713
-1.56029e-07
-0.000137264
3.42146e-07
3.85943e-07
4.59755e-06
4.97497e-07
-0.174991
6.40705e-07
-1.03223e-06
-0.0727982
-6.00282e-06
0.15889
4.66142e-06
-4.75321e-06
-0.544768
1.48953e-07
-0.121495
7.39943e-07
-7.02191e-06
-0.370191
-7.61429e-07
1.24182e-07
-3.04372e-06
0.0459185
-0.0291801
1.02818e-07
-7.56835e-07
5.18418e-06
-2.56404e-05
-0.0562259
0.00116945
2.58186e-07
0.230191
0.215514
-3.53316e-06
0.203511
-1.30926e-06
0.682538
-0.290747
3.00908e-06
-1.28636e-05
0.0983385
0.000183727
0.139613
0.000153253
-0.000314582
0.171911
-1.38598e-05
0.344108
-3.30795e-06
-0.165335
-6.70713e-07
-0.00926147
-3.35949e-06
-1.80924e-05
-3.42811e-05
1.64325e-06
-0.0875002
-0.102397
-0.17893
0.0022468
5.60252e-07
-0.0452891
-4.82774e-07
-9.40995e-07
-0.00471262
2.10108e-06
-0.0128839
-0.239664
-5.80231e-07
-1.03992e-05
0.000597943
0.0010547
2.12794e-07
-0.000522612
-7.24216e-05
-0.0268558
-0.161492
-3.97101e-07
-2.44511e-06
-6.39357e-07
6.09974e-07
0.0280107
-0.000166821
0.00627464
-7.48981e-08
-0.605606
-0.066548
6.2465e-07
5.21303e-06
0.197667
-0.0322832
0.0134105
-0.00203221
0.127665
0.00276406
0.000153453
-0.000993475
-0.0131652
0.00679402
6.15348e-06
-0.00187563
-3.40236e-06
-1.0015e-05
-0.00401924
0.12175
2.41744e-06
0.000792578
-0.0349514
1.02096e-07
-3.41026e-06
3.43839e-06
-3.52093e-05
5.43271e-07
0.430473
-0.383319
0.121546
-5.99998e-06
-0.0318618
-3.88173e-05
0.00725541
0.00134363
-0.00051079
0.206766
1.93068e-06
3.45976e-07
0.00051908
5.02758e-07
0.240142
-0.000265431
1.24297e-06
-1.39408e-06
-0.10487
-3.78444e-06
-8.73586e-06
4.64658e-07
-2.32309e-05
9.0448e-05
-0.000134636
2.02514e-05
1.70089e-06
-3.26925e-06
0.222177
-1.09656e-06
-0.0563187
-3.26406e-07
1.86765e-06
5.70707e-08
0.20313
-0.112582
0.0248734
-3.44379e-05
2.39712e-05
4.20621e-06
-0.493409
-0.0335231
-9.31702e-05
-0.00483462
1.31422e-06
-6.05396e-07
-0.00207525
-0.123563
-0.0768728
-0.140502
-0.00141726
-0.000466148
-5.04843e-07
-1.90031e-05
0.00610896
0.13356
-0.000147992
1.34508e-07
0.0418676
-0.0796037
1.8666e-06
1.61598e-05
-1.35411
-5.91633e-06
0.00844052
-0.0699441
-0.0404136
-5.16152e-06
4.85169e-06
3.41326e-06
-0.0254922
-7.67165e-06
5.84562e-07
-9.96953e-06
-0.132344
-0.0232756
-0.363933
-0.0644958
-4.24794e-06
-6.18126e-07
-6.55525e-06
-0.0297127
1.70501e-06
-3.38814e-06
-2.95736e-05
1.27692e-06
-0.825157
1.77153e-06
1.17225e-06
4.23691e-07
-0.000190072
-3.63393e-06
0.0704784
-1.14491e-06
3.3217e-07
0.073684
-1.02889e-06
0.00151443
0.0987684
-8.72226e-07
-4.76097e-06
-0.0995581
0.0298642
-5.86791e-07
-0.445857
4.00824e-06
-0.00832641
0.0531038
0.0122081
0.000518359
-0.000307494
0.000230409
1.59235e-06
-1.15932e-06
8.05721e-09
3.29621e-07
0.000379654
0.180121
-0.000101422
-0.609995
-5.39982e-07
-0.024677
-0.788623
-6.19557e-06
-0.0234083
3.84969e-07
-0.000260616
7.4422e-07
-0.00241496
-1.43603e-06
0.169416
2.47736e-06
3.10383e-07
-3.35033e-05
2.18323
-0.0314176
2.9785e-06
0.322885
2.12368
-4.34453e-06
-0.112277
-7.38383e-05
-0.00250535
-0.154834
-8.48938e-08
-0.0631837
3.43291e-07
-6.3371e-07
0.0293083
-0.000688682
8.67292e-09
1.99558e-06
1.47412e-05
4.894e-07
-4.00118e-06
-0.107486
-0.43831
-0.0174802
-3.39174e-06
-1.10458e-06
-4.85681e-05
-0.0192066
0.119727
0.0150899
-0.0498045
-1.26751e-06
5.1643e-07
3.07342e-07
-1.14882e-05
-3.89738e-07
3.2737e-06
-0.115325
-0.234818
-0.766551
4.69606e-07
-6.20568e-07
-0.0921801
1.53685e-06
1.73525e-06
3.8178e-07
-9.81725e-06
-0.00540804
0.323613
1.80483e-06
5.70501e-07
-1.86716e-07
1.69646e-07
-0.152449
-3.36304e-05
-0.0736938
-2.91666e-06
5.68519e-05
-0.000106456
3.73013e-06
0.00104374
3.05963e-05
-0.024346
1.04786e-06
-0.595476
-7.85117e-06
0.242329
-1.80592e-06
0.686389
-9.12889e-07
0.000528993
-3.45854e-06
-1.00712e-06
-9.9642e-07
0.00133033
-0.282874
-1.78948e-06
1.55282e-06
-4.0339e-07
-0.0538321
5.6253e-05
-0.277123
-1.22538e-05
-5.15778e-06
-0.000756403
0.773086
0.00962803
-0.557988
1.30675e-06
-4.54337e-05
-3.07583
0.692944
-2.60237e-07
-0.00828451
-1.03874e-05
-5.76835e-07
-0.0845459
-3.47603e-06
0.276737
-4.06974e-06
0.0755184
4.47923e-06
-0.0692131
0.0634664
2.00338e-07
-5.10055e-06
-3.13421e-06
-9.64099e-05
-0.070062
-0.0356858
-0.0257424
1.10586
4.60798e-06
0.00122594
4.84738e-07
0.281352
-2.4785e-06
-0.313435
-4.80285e-07
0.00441534
-3.73079e-06
1.07916e-06
2.85009e-06
0.056566
-0.0864694
-0.137126
0.00364349
0.00175831
-0.0268115
0.000295424
0.0312691
-1.85351e-05
3.04357e-06
-5.15486e-05
-5.58298e-07
8.29441e-06
-0.0015804
-0.054309
0.011888
-0.000129048
-1.69804e-06
-0.248406
-4.7938e-07
4.05385e-05
-0.00574443
0.116838
8.41514e-06
-4.73678e-06
4.20377e-07
-3.3316e-06
-1.46082e-06
0.00206931
0.00288189
3.26892e-07
-1.12895e-05
0.000170642
-1.48105e-05
0.476855
0.216825
0.00933963
-3.84623e-06
0.162332
0.299723
-0.00057267
-0.0419031
2.36938e-07
-4.51734e-06
0.42904
-0.0535673
-0.0989389
-7.0868e-07
3.21634e-06
-2.01218e-06
0.337242
-0.0724488
-1.64895e-07
1.59157e-05
4.21098e-07
1.61759e-07
-0.521027
-0.0555161
3.76305e-06
4.59853e-06
-0.000100035
-6.6609e-07
-4.72599e-07
-1.98058e-05
4.57154e-07
-6.06717e-06
4.62582e-09
0.313743
-9.18657e-08
0.000422135
-3.05021e-07
-0.0911487
4.36983e-06
0.000247886
1.88309e-08
2.16817e-07
-5.54837e-07
-3.87605e-06
-0.0753644
-6.27243e-06
0.00107283
-1.80528e-05
-0.505478
-3.22637e-06
0.174882
-1.59166e-06
-0.606087
-8.59661e-05
-0.0273536
0.00128536
-0.0920818
-0.0533357
-0.660578
-2.02316e-06
0.354378
1.45487e-06
-8.3924e-05
0.161933
0.000393557
-0.000106819
0.0113283
-0.000100632
4.84729e-06
-2.21547e-05
-0.478542
-4.07418e-06
-6.36178e-07
1.81324e-06
-5.31304e-05
-6.91856e-07
5.41542e-07
-0.0743615
2.47419e-06
-6.24248e-07
1.80119e-06
-0.269973
-8.80361e-06
-2.30591e-05
-0.0765375
-0.0730758
-0.253483
-0.00107299
0.0566125
1.46719e-05
4.01189
7.77944e-06
0.0020492
-9.55057e-05
-2.46659e-06
-6.32598e-07
-0.127806
-0.039847
-0.000629754
-5.18524e-05
-3.29675e-06
8.53193e-08
-0.574599
-3.66173e-05
0.0919746
2.64619e-06
-4.74926e-07
3.94306e-05
-1.58455e-06
-1.6754e-06
-2.25087e-05
-0.000416879
-1.0679e-06
-4.11104e-06
5.79198e-05
3.10495e-06
3.82041e-07
-5.90854e-06
0.547948
-0.0491165
1.60408e-06
-0.00408673
-0.0162649
-0.000136235
-7.68976e-05
-0.0331609
-0.000234459
6.05064e-06
4.01285e-05
0.000662188
-5.68178e-07
6.66633e-07
3.26221e-06
0.254639
7.23952e-07
-1.01848e-06
1.13434e-05
-1.90456e-05
1.77242e-05
4.31347e-05
2.68167e-06
-0.26348
0.102106
0.244675
7.33116e-07
1.8177e-06
0.0769351
0.0912046
-0.000452991
-0.247998
-0.0198181
-2.91021e-05
-1.56613e-06
-6.659e-07
1.9669
0.00916924
-5.28963e-07
-2.83489e-05
-0.173508
-0.193091
0.450414
-0.03566
6.10354e-07
-0.0463673
7.56784e-07
-0.000254941
1.80343e-06
-0.0400809
0.00138142
9.31536e-07
4.08608e-05
4.7141e-06
-0.00123401
-2.95379e-07
8.19372e-07
-0.0109725
0.00239125
0.183874
-0.169346
-0.152447
1.57342e-06
0.343686
-0.106313
-0.116152
-0.0314289
-0.467978
-0.01828
-0.00534841
-6.37556e-07
-0.00367187
-0.00148777
2.22559e-06
0.292508
-4.75953e-07
-0.0440377
2.32676e-06
-0.000142319
0.000299446
-0.0478614
-3.0523e-06
0.0297447
0.00148447
-0.000230884
1.53334e-06
-5.90974e-08
0.0665989