/*--------------------------------*- C++ -*----------------------------------*\
| =========                 |                                                 |
| \\      /  F ield         | OpenFOAM: The Open Source CFD Toolbox           |
|  \\    /   O peration     | Version:  v2012                                 |
|   \\  /    A nd           | Website:  www.openfoam.com                      |
|    \\/     M anipulation  |                                                 |
\*---------------------------------------------------------------------------*/
FoamFile
{
    version     2.0;
    format      ascii;
    class       surfaceScalarField;
    location    "200";
    object      ddtCorrDdt0(phi);
}
// * * * * * * * * * * * * * * * * * * * * * * * * * * * * * * * * * * * * * //

dimensions      [0 3 -2 0 0 0 0];
oriented        oriented;


internalField   nonuniform List<scalar> 
55332
(
-0.000121179
-0.000160778
0.000281958
-8.69261e-06
6.58812e-07
8.03428e-06
1.47789e-06
9.47914e-06
-1.09569e-05
-9.74556e-06
1.5149e-05
-5.40295e-06
0.0504712
-0.0396229
-0.0108482
3.21403e-05
6.58297e-07
-3.27973e-05
7.47115e-05
7.33895e-05
-0.000148096
0.00270766
0.00151505
-0.00422269
-1.43591e-05
-5.47506e-06
1.98341e-05
0.000337222
-0.000250541
-0.00046444
0.000139114
0.000325312
-0.0180468
-0.00439032
0.0224371
0.000603701
-0.000385093
-0.000218658
7.18106e-05
-5.49365e-05
-1.68741e-05
0.000657364
-0.000506468
-0.000150945
0.035401
0.0239845
-0.0593855
-9.26849e-06
1.07465e-05
-0.00985867
0.01485
-0.00499136
6.99561e-06
1.40298e-05
-2.10244e-05
-3.33496e-05
-1.13096e-05
4.46619e-05
0.000105154
-2.39132e-06
-0.00010276
-0.0293957
0.0283233
0.00107193
2.40067e-05
5.92527e-06
-2.99306e-05
0.00127413
-0.00711108
0.00583703
0.0344778
0.0159933
-1.13209e-05
1.54733e-05
-4.15165e-06
-0.00077368
0.000260771
0.000512898
0.000110078
-2.96845e-05
0.000523269
-0.000670934
0.000147651
-2.95438e-05
3.30735e-05
-3.5281e-06
-0.000320815
-0.00996346
0.0102842
3.23325e-06
0.000107217
-0.000110449
-0.000684935
0.000214
0.000470939
-0.000855952
0.00352871
-0.00267275
0.000600776
-0.000805789
0.00020501
0.0233079
0.0454072
-0.0687153
-0.000471224
-0.000302467
-0.0356996
-0.00757024
0.0432692
-1.5167e-05
2.21631e-05
-3.06656e-05
8.65291e-05
-5.58632e-05
0.00762719
0.0203791
-0.0280062
4.18103e-05
-1.84004e-05
-2.34101e-05
-0.0154529
0.0508539
-9.4992e-05
9.82239e-05
-0.000816015
0.000205138
0.000610916
-0.0613517
0.0101513
0.0511995
-0.00055627
-0.000259743
0.00785366
-0.0259005
-2.01452e-05
3.00356e-05
-9.88986e-06
0.000200243
-0.00019189
-8.35414e-06
-0.000161868
0.0005264
-0.000364532
1.44794e-05
-2.04684e-05
5.98907e-06
-1.33465e-05
2.59724e-05
-1.26252e-05
-0.000116949
0.000129542
-1.25935e-05
0.000103888
-8.77069e-05
-1.61789e-05
0.0026226
0.00193963
-0.0045622
-2.7983e-06
1.72777e-05
-7.93162e-05
0.00016431
-8.4996e-05
0.00171399
0.00824699
-0.00996094
-0.0104281
0.0101073
-0.00137658
0.00408428
0.000554427
4.8198e-05
-0.00060287
1.15227e-05
9.36315e-05
3.13757e-06
-1.44579e-05
0.00136685
0.00178208
-0.00314888
0.0194775
0.00490133
-0.0243788
0.0345112
-0.0526112
0.0181
7.67897e-05
-0.00328284
0.00320597
0.00378111
-0.000774277
-0.00300682
-0.000442334
6.58602e-05
0.000376499
4.6714e-06
-1.98376e-05
-0.0075033
0.0112445
-0.00374117
-4.20397e-06
-0.000754194
0.0007584
-2.8236e-06
2.68305e-05
-0.000276369
-2.42656e-06
0.000278796
0.00535749
0.0015596
-0.00691712
-0.012891
0.0170798
-0.00418864
0.000125689
0.000258048
-0.000383738
-0.000670382
0.000360822
0.000309564
0.000860295
-0.000461114
-0.000399201
0.000444257
0.000208105
-0.000652395
-5.03377e-06
-1.23547e-05
1.73891e-05
0.00040164
-0.00060014
0.000198509
0.000700378
-0.000837959
0.000137574
8.55032e-05
-4.45273e-05
-4.10348e-05
-0.00104021
0.000554659
0.000485549
0.00039513
8.93921e-05
-0.000484571
-0.0162536
-0.0450997
-5.13395e-05
0.000126054
0.0903395
-0.0619036
-0.0284356
1.99291e-05
-1.38679e-05
-6.05811e-06
-0.000537378
-7.56555e-05
0.000613032
-8.41609e-05
-9.08355e-06
-2.69577e-06
1.17799e-05
-0.000961624
-0.000591787
0.00155342
-0.0133742
0.00722104
0.00615294
1.62801e-05
-4.9631e-05
0.0249993
-0.00552183
-0.0403952
0.0263918
2.47072e-05
-0.000301079
0.00683769
-0.0120115
0.00517393
0.00438093
-0.00175832
-4.98365e-05
1.06589e-05
3.91782e-05
-1.22362e-05
5.25771e-06
6.97837e-06
0.000628873
-0.000105617
1.14791e-05
-2.1609e-06
-9.31959e-06
-6.65757e-05
-1.29996e-05
7.95764e-05
0.000232804
-0.00063973
0.000406954
-0.00649986
0.0049641
6.76138e-06
-4.32566e-05
3.64968e-05
0.0448532
-0.00803974
-0.0368136
-0.000276493
0.000168758
0.000107739
1.33402e-05
-1.83739e-05
-6.36554e-05
-0.000212836
-0.00833697
0.000833655
-1.43987e-05
4.65383e-06
0.000666398
-0.000222178
-0.000148249
0.000543382
-0.000105969
0.000171079
-6.51097e-05
5.43102e-05
1.9067e-05
-7.33775e-05
-0.0115257
0.00203699
0.00948869
-0.000396944
0.00052262
3.86539e-05
-4.31237e-05
4.46894e-06
0.000466658
-0.000628543
-0.00507374
0.00619726
-0.00112349
0.000169382
-7.42944e-05
-9.50888e-05
4.76367e-06
0.000511534
-0.000516284
4.23217e-05
-3.66747e-06
-0.000570244
3.28421e-05
0.0140566
-0.00721885
0.000598066
-0.000269277
-0.00032879
-9.1168e-06
1.66292e-05
-7.51124e-06
-1.1192e-05
2.10868e-06
-0.0184615
-0.00839243
0.0268539
1.81614e-05
-1.20191e-05
-6.14148e-06
0.019204
-0.021034
0.00183009
0.000488795
-0.000345223
-0.000143571
-0.00415917
-0.0105571
0.0147163
0.0130167
-0.00255473
-0.010462
-0.0561504
0.0165274
0.00244087
-2.14875e-05
-0.00241941
-0.0124299
0.000904064
0.000236834
0.00441078
-0.00464759
-0.000566522
-0.0128077
-4.89582e-05
2.63915e-05
2.25599e-05
0.000244326
-0.000244453
1.30128e-07
-1.43469e-05
6.8657e-05
4.76756e-05
-0.000102804
5.51294e-05
5.72869e-05
0.000187036
-0.000231376
-0.000210949
-7.46371e-05
8.06442e-06
-1.19308e-05
-2.11564e-08
1.19522e-05
-1.3898e-05
5.26279e-06
8.63501e-06
3.69756e-05
9.84238e-05
-0.000135403
-0.000112221
0.000666656
-7.57372e-06
-2.21578e-05
2.97323e-05
0.00314694
0.000634487
5.24337e-06
-2.43809e-06
-2.80564e-06
0.00381315
-0.00308811
-0.000725038
-0.000789439
-0.00178848
0.00257794
1.47448e-05
0.000164573
-0.000179315
-7.40125e-05
0.000125565
-5.15525e-05
-7.66574e-05
-0.000431604
0.000508263
-0.000456381
0.00219891
-0.00132614
-0.000872918
-4.46335e-05
6.36995e-05
-0.000444313
0.000558023
-0.000113696
-0.000314307
0.000346587
-3.22768e-05
-0.000174327
6.83572e-05
0.000251538
-0.00105115
0.000799636
-0.00590047
0.0008268
1.10971e-05
-2.54562e-05
-0.00557967
0.00581649
2.78582e-05
7.84501e-06
-3.57034e-05
0.000399335
-0.000337942
0.00212772
-0.000368717
-0.00175898
-0.000383915
0.00105756
-0.000673649
-0.000744638
0.000732411
1.22186e-05
3.83475e-05
-2.0933e-05
-1.74136e-05
0.000339785
-0.000298339
-7.58289e-05
0.000112807
0.00357493
-0.00327008
-0.00030485
0.0653461
0.0249933
-0.00360551
-0.00168198
0.00528751
8.61274e-05
8.32555e-05
0.000540562
-0.000417245
-0.000123353
-4.29106e-05
7.73498e-05
-3.44363e-05
7.03456e-05
0.000267013
0.02258
0.00809572
-0.0306758
-0.000257903
0.000206574
5.13371e-05
0.000215855
-0.00015857
0.000807375
-0.000287269
-0.000520079
0.000645403
0.00292953
3.24835e-05
-1.86225e-05
-1.38602e-05
7.52251e-05
0.000140629
0.000510494
-0.000108855
-0.000103279
-0.000379869
0.000483147
-0.0109589
0.00877603
0.00218275
0.0016691
0.000466129
-0.00213518
1.06442e-05
-7.45705e-06
-3.18697e-06
1.17255e-05
-2.45678e-07
-4.61061e-05
6.96096e-06
3.91473e-05
-8.52599e-05
6.47765e-05
2.04842e-05
-3.28833e-05
1.01588e-05
2.27233e-05
0.0199136
-0.0215655
0.00165139
0.01105
0.0060386
-0.0170886
-1.5802e-05
1.98058e-06
1.38219e-05
1.93217e-07
4.46977e-06
-4.66335e-06
-0.000541957
-0.00012603
0.000667987
-9.83407e-05
-0.000159564
-5.79895e-05
-2.72706e-05
-1.54289e-05
1.34228e-05
2.00699e-06
-0.0197334
0.0212437
-0.00151011
1.55259e-06
2.14585e-05
-2.30118e-05
-0.000560836
0.00083136
-0.0002705
7.81617e-05
-8.69127e-05
8.75121e-06
1.89742e-06
-1.55093e-05
1.36125e-05
2.18666e-05
-0.000413071
0.00244317
-0.0020302
-1.39046e-05
7.90617e-05
-1.10193e-05
1.28467e-05
-1.82667e-06
0.0274814
-0.000464458
0.00142464
-0.0119628
0.0156537
-0.00369069
0.00159084
-0.000960983
-0.000629878
-0.000186031
-0.000437687
0.000623708
4.65215e-06
2.80563e-05
-3.27098e-05
-0.00024062
0.000391275
-0.000150915
-0.000767757
0.000645949
0.00035737
0.000131425
-4.8514e-06
-9.04692e-06
7.99567e-06
1.01656e-05
-1.34481e-05
-7.13216e-06
-0.00079866
-0.000705016
0.00237413
1.68771e-05
-7.3907e-06
-9.48614e-06
-1.03179e-05
3.77474e-06
6.54218e-06
-9.48315e-06
0.000113305
-0.000103813
0.000185264
-0.00011004
-0.000550116
0.000105814
-4.55737e-06
-0.000112392
-1.84164e-05
1.84989e-05
-8.26703e-08
0.000123594
-3.81166e-05
0.000702308
-0.000161786
-1.96137e-06
-1.35479e-05
-0.000527232
-0.000512977
9.07021e-05
-0.000503807
-5.53884e-06
1.27977e-05
-7.25897e-06
-5.62574e-05
5.84267e-05
-2.16615e-06
-0.002762
0.00118831
0.00157369
-5.77864e-05
-7.71452e-05
0.000134935
-6.30012e-05
1.83688e-05
7.4299e-05
0.000110965
8.4599e-05
-3.69227e-05
-6.68237e-05
1.35359e-05
5.32885e-05
-4.25938e-05
4.61071e-05
-3.51352e-06
0.00103988
-0.00200149
-1.41103e-05
9.21784e-06
4.89261e-06
-0.00450397
-0.0152294
0.000319932
0.000337452
0.00165672
0.00278209
-0.00443881
-7.23049e-06
-1.03165e-05
1.75473e-05
-0.00610408
0.00553754
8.58644e-05
-0.000109107
2.3242e-05
-1.05398e-05
1.12017e-05
-6.60974e-07
-0.00387589
0.0070748
-0.00319888
0.000140475
-9.48075e-05
-4.56727e-05
-0.00586588
0.00527498
0.000590884
-1.3351e-05
-0.00217812
0.00219148
-0.0136929
-0.00803958
-0.000369515
9.50714e-06
0.000359861
0.00245008
-0.00330602
-0.000363956
-5.61143e-06
-0.00152076
0.000928978
-7.70621e-05
2.42692e-06
3.53122e-05
1.16303e-05
-2.05276e-05
8.89627e-06
3.90597e-05
0.000101413
-0.000436673
0.000699025
-0.000262313
-0.000259787
0.000138609
7.19462e-06
9.68272e-06
0.000173645
0.00113747
-0.001311
1.45915e-06
-1.24777e-05
1.11884e-05
-9.03914e-06
-2.14868e-06
5.78897e-05
-0.000802531
-0.0410666
-0.0150839
-0.000784709
0.000370225
0.000414491
7.16863e-05
-0.000145699
-2.10798e-05
2.26323e-05
-0.00218716
-0.00103704
0.00322421
0.000338071
-0.000524105
1.35032e-05
8.34343e-06
-2.18459e-05
-0.000339091
2.47899e-05
6.19169e-07
-1.59599e-05
1.53418e-05
1.05533e-05
-2.16293e-05
1.10763e-05
6.74184e-06
2.49905e-07
-1.21806e-05
-0.00356375
0.0431176
0.00773669
-0.0508543
-0.0105915
0.00448744
0.000539654
-0.000201583
-0.000445512
0.000209296
0.000236228
-0.00171389
0.00304206
-0.00132809
0.00799233
0.00684946
-0.0148417
-2.33871e-06
1.01545e-05
-7.81559e-06
0.000732811
-0.000514662
-0.000218125
-0.00759652
0.00113425
0.00646227
-0.00175212
0.00311899
0.000400937
-0.000504209
-0.000520032
0.000524803
0.0248105
-0.0177714
-0.00703949
-0.00080748
0.00235086
-0.00154338
0.00196838
-0.00277586
-4.94594e-05
1.8951e-05
3.05089e-05
0.000820089
-0.000565439
-0.000254648
0.00221756
1.91686e-05
-0.0022366
2.883e-07
0.000147119
0.000433703
-0.000580826
6.2537e-05
0.000445383
-0.000507918
1.86647e-05
-2.2632e-06
-1.64035e-05
0.000476436
-0.000220955
-0.000255481
-0.0178926
0.0059302
-0.0147993
0.0258492
2.5915e-05
-0.00265088
0.00272761
0.000549705
8.33268e-06
0.000151956
-0.000112886
0.00408409
-0.00306034
-0.00102371
-0.00311717
-0.00283118
0.0059474
-0.0131429
0.0132218
-7.86791e-05
0.000299455
-2.19689e-05
8.62248e-06
1.27816e-06
0.000150678
-9.73407e-06
-8.04847e-07
-7.51909e-06
1.19477e-05
-4.4285e-06
-1.87311e-05
5.73684e-06
1.29945e-05
4.87094e-06
-4.67772e-06
0.0326452
-0.0480981
-2.48766e-05
1.73027e-05
0.000708969
-0.0084315
0.00772265
-1.09827e-05
-1.09858e-05
-0.00330465
0.0042407
-0.000935961
-0.00311976
0.00140589
0.000521883
5.00783e-05
-0.00057195
7.67833e-05
-6.30277e-05
-1.37559e-05
-0.0100639
0.0427091
-0.000538696
0.0024809
-0.00194224
0.00913622
-0.0132954
-0.00534561
0.00521627
0.000129339
5.76966e-05
-3.17043e-05
-2.59959e-05
8.53336e-06
-1.5764e-05
-0.000131231
0.00171616
-0.00158487
-0.00295387
0.0103637
-0.0074098
-1.68733e-05
1.36328e-05
3.24254e-06
5.04345e-05
2.63483e-05
0.000726379
-0.000397305
-0.000329076
0.0054188
-0.00414467
0.000255149
0.000369669
-0.000610434
-0.000236689
-0.0100739
0.0103106
0.000176539
-0.00044013
-0.000173747
0.000613864
0.000815542
0.00282447
-0.00364001
2.30633e-05
1.52843e-05
0.00775548
-0.00260547
-0.00515004
-7.15893e-06
2.06623e-05
-0.000452886
0.00223492
6.26425e-06
-1.72461e-05
-0.0246097
0.00191863
0.022691
0.000203718
0.000603658
-0.00239062
-0.00514522
0.00753559
-0.000186565
0.000886945
5.00716e-06
-1.61513e-05
1.11448e-05
0.000518031
0.00192279
-0.00176028
0.000970834
-0.00510023
0.0151693
-0.0100691
0.00682751
-0.00570503
-0.00112241
0.000144583
-1.27303e-05
-0.000131853
0.000563142
-0.000563136
-1.13168e-05
1.78579e-05
-6.53853e-06
0.0156213
-0.00744636
-0.00817496
0.00235395
-0.00934437
0.00699039
0.00294562
0.000776308
-0.00372181
-0.000332674
0.000153014
0.000179661
2.6137e-05
-3.37663e-05
7.62956e-06
-0.000213614
0.00029307
-7.94542e-05
-0.00209779
0.000167366
0.00193042
0.00185985
-0.000787571
-0.00107226
0.0106092
0.02116
-0.0317691
-0.000551297
0.000191316
0.000359985
-2.49473e-05
4.80266e-06
0.000617158
0.000117412
-0.000734564
0.00782081
-0.00546689
-0.00071333
-5.22245e-05
0.000765557
-7.95875e-05
0.000541125
-0.000461542
-0.000572471
0.000144377
0.000428078
-1.99516e-06
-3.70529e-06
5.70105e-06
4.54921e-05
0.000399569
-0.000445076
0.0042021
-0.00338655
7.76243e-05
7.047e-06
0.00052646
2.32499e-05
0.000572376
0.000258983
4.25012e-05
-0.000256115
-0.000713308
0.00086833
-0.000155003
-0.000342435
-8.6022e-05
0.000428624
0.00015125
-0.000591363
3.79288e-06
-9.26762e-06
5.47568e-06
1.15506e-05
3.09724e-05
2.67226e-05
-0.00014709
0.00023246
-8.53723e-05
0.000681405
-0.000773595
9.21244e-05
7.25038e-07
0.000114709
-0.000115442
-0.000652836
0.000904407
0.00256809
-0.00383568
0.00126757
-0.000313652
-0.000237644
0.00212771
-2.78412e-05
-2.16185e-05
1.17959e-05
-2.0443e-05
8.64796e-06
-0.0252512
0.000641532
-0.00165761
0.0208615
0.000257369
0.000219067
3.42717e-06
2.58216e-05
-2.92466e-05
4.32366e-06
-8.77354e-06
4.44996e-06
2.11007e-05
5.03596e-06
1.74766e-05
-6.83653e-06
-1.06403e-05
0.0107831
-0.00786907
-0.00291397
9.14512e-05
-4.76623e-06
9.08998e-06
2.71912e-05
-4.84704e-05
2.128e-05
-1.31885e-05
-7.46363e-06
2.06532e-05
-0.00651961
0.00823356
0.000709253
-9.21107e-05
-8.33305e-06
-2.76931e-05
3.6025e-05
0.000129162
-2.34611e-05
-0.000105703
8.23804e-05
-0.000229473
0.000124604
0.00378788
0.00267733
-0.00646522
5.10549e-06
6.7378e-05
-3.17093e-05
-3.56682e-05
-0.000406047
-0.000230774
0.000636839
-0.00251331
0.00546626
-0.00295291
0.000634116
6.03796e-05
0.000771463
-0.000832063
-0.00653952
0.00342328
-1.12461e-05
-3.48601e-05
-0.000568083
0.000563894
-1.46266e-05
-6.33078e-05
7.79344e-05
1.81942e-06
0.0188003
-0.0350552
-8.24737e-05
-3.93909e-05
0.000121861
4.98072e-05
1.37633e-05
-6.35751e-05
-3.88971e-05
0.000560792
-0.00230718
-0.00970413
-2.82706e-05
-3.85523e-05
1.8016e-06
3.44129e-06
0.000103193
-7.42488e-05
-2.89424e-05
0.00156134
-0.00293145
0.00137014
-8.86588e-06
1.73438e-05
-8.47775e-06
6.31701e-05
-2.90735e-05
-3.41253e-05
-0.0018447
0.00201844
1.22272e-05
4.74758e-05
-5.9705e-05
5.4949e-05
8.20925e-06
4.0165e-05
0.00872593
-0.0706296
0.00016805
-0.000121529
-4.65203e-05
-8.73039e-06
-7.32203e-06
1.60527e-05
0.0198587
0.0139173
-0.0337761
3.11517e-05
3.62258e-05
3.97351e-05
-3.18768e-05
0.0529655
-0.0121405
-0.0408258
4.93821e-05
-0.000128695
0.000389427
0.000214202
0.00426588
-0.000181766
3.48132e-05
-4.31468e-05
-0.000568203
0.000131545
0.0016225
0.00467592
-0.00629843
-0.0110275
0.00736883
0.00365879
-6.72816e-06
-4.31086e-05
2.72764e-05
-0.000101525
0.00749363
-0.0104475
0.00176579
0.00544951
-0.00721533
-1.01046e-06
-0.000113308
0.000114316
0.00117715
-0.00037339
-0.00080372
7.5488e-06
7.0613e-05
-0.00343426
-0.00163068
0.0050649
1.06343e-05
-1.93649e-05
0.000547427
0.00104341
-0.00172349
-0.00275659
0.00448011
-0.0063595
0.000493586
-1.48542e-05
1.97006e-05
-4.84578e-06
-0.000119845
3.73729e-05
0.000401429
-0.00111993
0.0007185
-0.00142043
0.00123702
0.00018347
0.00206873
0.00475883
3.89779e-05
-8.40971e-06
-3.0567e-05
0.00951915
0.00349751
0.0281043
-0.0381682
0.0614909
-0.0381831
0.00170171
0.000515757
0.0125906
-0.0018125
-0.0107783
0.000172279
0.000148434
-0.000320706
0.000121818
-1.79263e-05
0.000275795
-0.000103513
-1.01356e-05
1.03957e-05
-2.62568e-07
5.04894e-05
-6.01471e-05
9.65585e-06
-6.51913e-06
-5.14708e-05
0.0404812
-0.0206227
3.65978e-05
-8.73969e-06
-1.96291e-06
1.83446e-05
-1.63818e-05
0.00564818
-0.00413311
0.000728181
0.0043448
-0.0027223
0.000942142
-0.000881936
-3.8636e-05
5.08646e-05
3.27424e-06
2.46639e-05
-2.79364e-05
0.0089563
-1.85712e-05
-2.83958e-05
4.69607e-05
-0.00302361
-0.00800374
0.00011174
2.76879e-05
-0.000139433
0.000209571
-0.000171227
-3.8322e-05
2.7048e-05
-2.8859e-05
1.81146e-06
0.00013482
0.0279695
-0.00111049
0.000313204
0.000797283
0.0273343
-0.0308572
0.00352231
-0.000707034
-7.76712e-05
6.31042e-05
-3.12094e-05
-3.18942e-05
-1.62849e-05
1.4311e-06
0.000397636
0.00030137
6.95721e-06
-6.32165e-05
2.98108e-06
3.59976e-05
0.0535791
-1.27861e-05
1.42458e-05
-0.00351051
0.00327482
0.00023567
-0.000844026
-0.00569009
0.00653419
0.032637
-0.00782674
-0.00852405
0.00390306
0.00462105
-0.000967179
-0.000453231
-0.00733457
0.0143529
-0.00701832
-0.000386238
0.000843219
-0.000456982
-0.00208937
0.00163644
-0.00157073
0.00293131
-0.00136057
0.000650664
-0.000604873
-4.57905e-05
0.0257827
-0.0112906
-0.0144923
-7.08068e-06
3.92216e-05
-5.4619e-06
1.73114e-05
-1.18496e-05
-2.52461e-07
-3.58741e-05
3.61255e-05
-0.00046994
-0.0257425
0.0211844
0.00455818
0.0278087
-0.00917922
-0.0186294
1.77458e-05
2.14657e-08
-1.77673e-05
0.00014278
0.000420359
2.34712e-05
-2.0196e-05
-9.29491e-05
8.639e-05
6.55682e-06
-0.00587011
-0.000629701
-0.00111965
0.000810378
0.000309265
-0.000625095
0.00986506
-0.00923993
0.0283269
-0.000518038
0.00290712
-0.00529794
-1.76448e-06
-1.10208e-05
-4.90498e-05
4.25277e-05
0.00083116
0.00102873
0.00263176
-0.0210932
-0.00318955
-0.00060533
0.00052574
-9.13126e-06
4.38889e-07
-0.000383868
0.000561573
-0.000177744
-0.0133527
-0.0123898
0.00586071
-0.00144992
4.14362e-06
-1.326e-05
0.0194024
0.00638015
-0.00396686
0.00624375
-0.00227676
-0.000408041
0.000555153
-0.00565113
0.0068189
-0.00116726
-1.17489e-06
1.1746e-05
-1.05704e-05
0.0014746
0.00417361
7.74404e-05
5.20052e-05
-0.000129447
0.000145507
-0.000144225
0.000123471
-6.08321e-05
-6.26367e-05
-0.000234641
7.38618e-05
-1.36606e-05
4.17154e-05
-0.00105702
0.00126142
-0.000204417
0.00073676
0.0258129
-0.0265496
-0.0493106
0.032635
0.0166754
0.00738642
-0.0185243
0.011138
-8.92675e-05
5.86026e-05
0.00011755
-2.64759e-05
-9.107e-05
-0.00971454
0.0184335
-0.00871907
-1.61971e-05
1.64459e-05
-2.49096e-07
0.00232227
-0.00628885
-8.52717e-06
-1.61012e-05
2.46287e-05
-0.00713179
0.041643
-0.00714176
0.00029133
0.00685042
0.00524434
-0.0125789
-0.00633428
0.00204349
0.00429074
0.00042017
-0.000167636
-0.000252538
-3.09101e-05
2.83393e-05
2.57058e-06
-6.47593e-06
-3.6648e-05
9.96318e-05
-1.31025e-05
2.22567e-05
-1.35282e-05
-8.72715e-06
0.0102248
0.00236577
0.000112471
-7.73487e-05
6.78672e-05
2.73266e-05
-5.75282e-05
3.02029e-05
-0.000309845
0.000391954
-8.20529e-05
-0.0104233
0.0527504
-0.0423271
3.28875e-08
-2.95762e-05
-1.10817e-05
1.71644e-05
-6.08248e-06
0.000386311
-0.000497037
0.000110709
4.98839e-06
7.80925e-06
8.49151e-06
8.98485e-06
7.51884e-05
-5.98316e-05
-1.53517e-05
7.28335e-05
-0.00259001
0.00251717
-5.50235e-06
-2.54078e-05
-0.00261298
-1.13472e-05
1.01728e-05
0.00032234
-0.000610128
0.000287761
-0.00183261
0.00562053
0.00226421
-0.000431875
-0.00183234
8.2913e-06
8.46299e-06
-1.67536e-05
-5.02736e-05
0.000182287
-3.67796e-05
-4.35659e-05
-0.00071064
0.00159113
-0.00334319
-7.06567e-05
0.000136037
-6.53805e-05
0.0306849
-0.00335027
-0.000260856
-7.83627e-05
0.000339224
-0.00470104
0.0124089
-0.00770781
1.22417e-05
-2.07682e-05
-0.000635327
0.000515968
0.000119364
-0.000478953
0.000479197
-0.000353329
0.000675686
-0.0114184
0.0107933
-5.26243e-05
-0.000434083
0.000486676
0.00104584
-0.0054251
0.00437923
-0.000587076
0.000383043
0.000204034
7.37929e-05
-0.000126348
5.2557e-05
-0.00491136
0.00499541
-8.40206e-05
-0.000572481
-4.30887e-07
0.000115143
-0.021198
-0.00819784
7.67454e-06
1.06005e-05
-1.82754e-05
0.00143644
0.00149711
-0.00293358
3.28356e-06
3.90374e-05
0.000110947
-3.33227e-05
-0.000183573
0.00141045
-0.00122688
0.000643408
-0.0135343
-8.93129e-06
-3.30499e-06
0.000361515
-0.00188227
-0.000490691
-0.00477016
0.00304669
-0.0107716
0.00607063
-0.000472864
0.000674812
-0.000202003
-5.97147e-07
3.06913e-05
-3.00932e-05
0.0199963
-0.0139577
-0.00469403
-8.56852e-06
1.29771e-05
-4.40826e-06
0.000148925
-0.000203051
5.4128e-05
0.000510031
-0.000447491
-0.0248465
0.0324737
0.000174428
-0.000140555
-3.38384e-05
0.000368557
0.00080859
-7.08609e-06
-0.000216637
0.00128786
-0.00107122
-0.000195584
0.000324558
-0.000128973
-0.0403026
0.00460342
-3.6675e-05
5.88342e-05
-2.21619e-05
1.63624e-05
-1.45945e-05
-1.76771e-06
-3.03366e-05
7.33307e-06
2.30043e-05
-1.45469e-05
3.23193e-06
3.94787e-05
-0.000752779
0.000569671
-0.000569639
-3.03624e-05
2.97654e-05
-1.98111e-05
1.43494e-05
-0.00412174
-0.00145793
0.0156794
0.00977164
-0.025451
4.15922e-05
3.02187e-05
0.000427513
-0.00050417
-0.00063163
8.96783e-05
-4.83581e-05
1.51608e-05
3.3198e-05
0.000113283
-0.000164308
5.10341e-05
-9.72572e-06
1.67422e-05
-7.01529e-06
1.41297e-05
-1.35096e-05
-2.81487e-06
-1.9811e-05
2.26242e-05
0.0262886
-0.000773563
0.000389639
-0.00896779
0.0142121
-8.33882e-06
-2.19977e-05
-0.000294156
0.00101034
-0.000716174
-0.00060215
0.000266254
0.000335865
1.77353e-05
0.000211234
-0.000229007
1.55474e-05
-2.46424e-05
-5.71852e-06
-0.0133334
0.0207198
3.98943e-05
-1.46361e-05
-2.52585e-05
3.52365e-05
-3.54891e-05
0.000851496
-0.00110442
0.000252915
2.65037e-06
-1.95224e-05
-4.01364e-06
-1.00964e-05
0.00197837
-0.00106865
-0.000909786
6.91103e-06
1.30195e-05
-9.16786e-05
0.000119378
1.09656e-05
-1.5622e-05
4.65607e-06
-0.000708885
0.000216066
0.000492827
2.36809e-05
0.000105233
-0.000128925
0.000135053
-0.000178671
4.36224e-05
2.49074e-05
5.78434e-06
-0.000288603
-0.000313533
-4.42195e-06
1.53873e-05
0.000592555
5.54879e-05
-0.000648037
-0.00512577
-0.000914403
0.00604022
9.39962e-06
6.25671e-06
-1.56528e-05
0.0292557
0.000639982
-0.000396225
-0.000243753
1.83088e-05
5.62781e-05
-0.000420493
0.00036421
0.000193522
-8.98064e-05
-0.00811566
0.00820542
-0.00124045
-0.000329834
0.00157028
2.36878e-05
-1.20244e-05
-1.1663e-05
-5.57942e-05
5.41423e-05
1.65257e-06
1.0528e-05
3.12821e-05
0.00136142
-0.000509941
-0.0282948
-0.0222762
-0.000277998
-0.00072068
0.000998636
0.000124369
-0.000179366
5.50103e-05
0.000110557
-0.000823881
6.1799e-05
-3.46073e-05
0.000157719
0.000436677
-0.000594402
6.44636e-05
-6.04193e-06
-1.09454e-05
8.60684e-06
4.08561e-05
0.0010167
0.0011507
-0.00297298
0.00182228
-0.0142111
0.00524329
-0.000298021
0.000330517
-3.24934e-05
-9.56768e-05
4.43378e-05
-4.93267e-06
2.11163e-05
-1.61831e-05
1.11687e-05
5.77728e-07
-0.00639226
0.00447809
0.00191418
-0.0138074
0.000935713
0.0128717
0.000144599
-3.13122e-05
-0.000749416
-8.47832e-05
0.000834202
6.59887e-05
5.7483e-05
0.000658052
-0.000444281
-0.000213745
0.000425399
-3.90881e-05
-0.00036401
-0.000403784
0.0105186
-0.0158326
0.00531392
-0.0591773
0.0219333
0.037244
-0.000139942
0.000666336
-0.00025726
-0.00250474
2.43673e-06
1.36061e-05
-1.60419e-05
-0.0286961
-0.0304811
3.52452e-05
-0.00074413
-0.00676271
0.00163694
-0.0109088
-0.0294865
-0.00261337
0.0015736
0.00103979
-7.57927e-06
-1.84614e-05
2.60416e-05
0.0015278
-0.000390205
-0.00100178
-0.00125747
0.00225925
1.77868e-05
-2.05586e-05
2.77241e-06
6.39546e-08
-5.66094e-06
5.59545e-06
0.00619224
-0.00083478
-1.6949e-05
5.86744e-06
0.0019848
-1.63447e-05
9.38882e-06
6.95598e-06
0.000382241
3.90744e-05
-0.000421313
-0.00664608
0.0146384
5.77639e-06
-1.55017e-05
0.000907409
-0.000950986
0.000960185
0.000142063
-0.00110224
4.9335e-05
0.00199693
-0.00204624
1.38291e-05
-7.70102e-06
-6.12743e-06
0.000476354
-0.000209513
-0.000266805
1.58227e-05
-1.5513e-05
-3.09037e-07
9.67068e-07
-1.13881e-05
1.04216e-05
7.65031e-05
9.88395e-06
3.96715e-05
-0.000472655
0.000432973
2.53133e-06
3.27049e-05
-3.45925e-06
-1.49575e-05
1.30752e-05
3.66793e-06
0.00200389
-0.017702
0.0156982
-8.25462e-06
-3.09237e-06
-0.000559932
0.000153891
7.99066e-05
-0.00318181
0.00310191
-0.000634721
-0.00146304
0.00156866
-0.00151933
0.000627983
-0.000241966
-0.000386017
1.49816e-05
8.70649e-06
-0.000278936
-0.000308139
-1.79012e-05
1.70399e-06
-2.88259e-05
-1.20766e-05
4.09033e-05
-9.82394e-06
2.27574e-05
-1.29329e-05
0.000868977
-0.00621458
1.70534e-05
-3.97751e-06
-7.31667e-05
-7.06358e-06
8.02341e-05
-2.17621e-05
9.55561e-05
0.0170168
0.00109289
-0.0181097
-0.0003651
0.00115418
-0.00078908
5.08168e-05
-2.14732e-05
-2.93421e-05
-0.000215492
0.000220054
-4.56426e-06
4.49639e-06
-4.03708e-05
0.0111173
-0.000126114
5.54548e-05
-0.00352427
0.00307584
0.000448516
0.00201966
-0.00359039
-0.000216803
-0.000383328
0.00328946
0.00244675
-0.00573618
-2.99136e-05
3.13103e-05
-1.39599e-06
-3.80229e-05
3.30704e-05
4.95314e-06
5.02685e-06
-1.24229e-05
7.39658e-06
-0.00080135
-0.00181203
-1.28365e-05
3.59002e-05
0.000157532
7.12692e-05
-0.000228796
-0.000476496
0.00376597
-0.00297221
-0.000145179
0.00311739
-0.00661964
0.00562767
0.000991917
-0.000620568
0.001022
-0.00135218
0.00453232
-0.00318013
0.000102906
-0.000103345
8.61457e-06
-8.55117e-06
-0.00315577
-0.000126962
-6.36967e-05
-6.24158e-05
0.00594094
0.00484218
-0.0288545
-1.17101e-05
3.1414e-06
0.00466953
-0.00301279
1.35284e-05
-8.52102e-06
-0.00480973
0.00137538
-1.91546e-05
-6.6351e-06
2.57905e-05
0.0274491
-0.00753594
0.000661158
2.59091e-05
-0.000687058
0.00375104
-0.00274573
-0.00100537
0.00222521
-0.00214529
-0.00172425
0.000587872
0.00113642
-1.03075e-05
2.05368e-06
-2.10741e-05
1.57732e-05
5.30399e-06
0.000416498
-0.000590228
-0.00592675
0.000149696
0.000500967
5.40182e-05
-0.00048562
5.66392e-05
-3.6953e-05
-1.96854e-05
1.69677e-05
0.000507593
-0.00041832
3.15364e-05
2.51022e-05
-7.60832e-06
2.16385e-05
-0.000485248
0.000491983
-0.000113639
-2.34504e-06
0.000115981
-0.00669278
0.00188673
0.00480605
-1.00066e-05
-3.68618e-06
1.36931e-05
-0.00113216
0.000915534
0.00092585
-0.00305196
0.00212609
2.24004e-05
2.84177e-05
3.32589e-05
0.0142245
-0.0202647
0.00604031
8.91791e-06
2.20531e-05
-0.0192994
0.00450016
0.0117886
-0.0325147
0.0207261
0.000426841
-0.000370565
-0.00314164
0.00226855
0.000873071
0.00161151
-0.00158562
-2.58801e-05
-0.000126103
0.000102641
3.73345e-05
6.59454e-05
-0.00010328
0.000109961
0.000280612
-0.000390569
0.00443638
-0.00168464
-0.00275179
-0.000318233
0.000363708
0.00119081
-4.79553e-06
-8.98475e-06
1.37811e-05
-0.0267384
0.0920849
-4.4074e-06
1.15004e-05
-7.09169e-06
-0.00338154
0.00111243
0.00226912
-4.96772e-06
1.84397e-05
-1.34726e-05
0.0120238
0.00810585
-0.0201296
-0.0100226
0.00506556
0.00495695
-0.0599705
0.021185
0.0387855
-0.00593579
0.00497386
0.000962114
0.000149779
-0.000135035
-0.0074368
0.0343603
-0.0269234
-0.0233601
-0.0366103
-0.000546547
0.000735746
-0.000189223
0.000747826
0.00223815
-0.00298596
0.00151935
-0.000479462
0.0243439
0.0082931
-3.4424e-05
6.1751e-05
5.2546e-05
-0.000490232
-0.0277541
0.0203172
0.00230694
-0.000745618
4.47046e-05
-8.30733e-06
-3.63976e-05
-0.0040286
0.00355011
0.000478486
0.00052892
0.000260661
-0.00078958
0.0846247
-0.0218514
-0.0627733
-2.04368e-05
3.25373e-06
1.71829e-05
-4.42842e-05
-2.1882e-05
6.61649e-05
-4.32362e-06
3.91361e-05
-5.73439e-05
2.88351e-05
2.8511e-05
1.41733e-05
-5.84574e-05
6.39962e-06
-6.13356e-05
-9.17134e-06
-5.37286e-06
-2.41837e-05
-1.38388e-05
3.00659e-05
-3.95677e-05
9.50211e-06
0.00210991
0.000932116
0.0662938
0.0183309
-0.000251812
0.000780732
-1.91519e-05
1.39249e-05
5.22624e-06
-0.00297796
-0.00167278
0.00465063
-0.00015786
8.20315e-05
9.06316e-06
-2.22511e-05
-5.02216e-05
-5.57297e-06
2.08832e-05
-3.09597e-06
-0.00113275
0.00100156
-2.73825e-06
-0.00330181
5.31594e-05
-5.76367e-05
4.47736e-06
-6.50718e-05
-0.00208559
-0.000940622
0.00302621
-7.88984e-06
-1.31843e-05
0.000132031
-5.78026e-05
-7.42282e-05
0.000617988
-0.00333222
0.00271428
-6.3749e-05
-2.31637e-05
-0.000200046
3.4357e-05
0.000165681
-4.01777e-05
0.00201991
-0.00197977
0.00215158
-0.00207874
-0.000416688
0.000526644
-1.57275e-06
-3.13107e-05
-3.68196e-06
1.06152e-05
-6.93302e-06
-0.000477027
0.000112502
0.00108495
0.000766567
-0.000396914
-1.50646e-05
-4.08708e-06
0.000867347
0.000180341
-0.00104769
0.00307123
-0.000514553
-0.00255668
-4.09219e-06
2.26582e-05
-1.85654e-05
4.32735e-05
0.000286145
-0.000329422
-0.000321628
0.000202694
0.000118941
0.011879
0.00120097
-0.01308
5.56756e-05
6.18751e-05
-2.17159e-05
1.76235e-05
0.000409267
-0.00036599
-1.39617e-05
1.86348e-05
0.000644737
-0.000614638
-3.01286e-05
-0.014255
-0.00677902
-0.000421726
0.000853977
-0.000432253
0.00149154
-0.00153174
-0.00106175
-0.00231979
-0.00119396
0.000473557
0.00072041
1.69048e-06
3.80506e-05
-3.97412e-05
-0.000694814
0.000704695
-1.29059e-05
-9.16524e-06
2.20715e-05
-9.65481e-05
-0.000225081
-0.000620451
0.000704588
-8.41389e-05
0.000333832
0.000133012
-0.000466839
-0.000818633
-0.00232301
0.0257963
-0.0021648
0.00331549
-1.82441e-05
1.24056e-05
5.83903e-06
3.30302e-05
8.56758e-06
-4.15983e-05
0.00574154
-0.0091786
0.00343664
5.99418e-05
0.000149624
-1.13619e-05
-6.88149e-06
5.91499e-05
7.68857e-05
8.88044e-05
5.90628e-05
-0.000147865
4.07849e-06
-0.000204129
0.000200756
4.92915e-06
1.14336e-05
0.000143385
0.000131766
-0.000128877
-2.89179e-06
-0.0013969
-0.00415981
0.00555662
3.01008e-05
-2.11817e-05
0.00161344
-0.00182022
0.000206583
-0.000506934
-6.12572e-05
0.0760085
-0.0646751
-0.0113333
0.0178034
0.058205
0.00268627
-0.0019384
1.34817e-05
5.65414e-06
-1.91354e-05
2.21974e-06
-7.01432e-06
-0.00150362
0.00373632
-0.00223264
-4.82815e-06
7.04847e-06
-2.09047e-05
7.07112e-05
-9.65048e-06
-6.09722e-06
1.57481e-05
1.23166e-05
-4.1142e-05
0.000824901
-0.00111906
0.00265019
-0.00175057
-0.000899621
-2.50231e-05
-8.74334e-06
0.00284417
0.000684559
-0.00959224
-0.00136664
2.59972e-06
1.09828e-05
-1.35818e-05
-0.00342751