/*--------------------------------*- C++ -*----------------------------------*\
| =========                 |                                                 |
| \\      /  F ield         | OpenFOAM: The Open Source CFD Toolbox           |
|  \\    /   O peration     | Version:  v2012                                 |
|   \\  /    A nd           | Website:  www.openfoam.com                      |
|    \\/     M anipulation  |                                                 |
\*---------------------------------------------------------------------------*/
FoamFile
{
    version     2.0;
    format      ascii;
    class       volScalarField;
    location    "200";
    object      k;
}
// * * * * * * * * * * * * * * * * * * * * * * * * * * * * * * * * * * * * * //

dimensions      [0 2 -2 0 0 0 0];


internalField   nonuniform List<scalar> 
37190
(
0.000156367
0.000142202
0.000141928
0.00014013
0.0130501
0.000145394
0.000162074
0.000191084
0.000133205
0.0133061
0.00557465
0.0352606
0.000208241
0.00015036
0.0169217
0.00579334
0.000141942
0.000286461
0.000136761
0.000151699
0.000158755
0.001215
0.000142975
0.0241817
0.0128888
0.000149071
0.044265
0.000154434
0.0145646
0.000144416
0.000304452
0.000151371
0.00015544
0.000188811
0.000156449
0.00718788
0.0448179
0.0139682
0.000136664
0.000155061
0.0214262
0.00013066
0.00534728
0.000151083
0.0319906
0.011724
0.0328288
0.0357545
0.000131044
0.000160285
0.000144221
0.000127801
0.000146084
0.00016179
0.000149244
0.000190461
0.00012785
0.000151194
0.000524052
0.000306124
0.000190258
0.0217559
0.000159032
0.000149094
0.0150631
0.0241861
0.00519511
0.0225082
0.0305638
0.0287488
0.000136602
0.00025669
0.000156747
0.000142817
0.000144611
0.000471193
0.0270973
0.0351125
0.000155433
0.0330008
0.0330842
0.000140175
0.0342609
0.000144309
0.0118986
0.000169911
0.0159732
0.0111108
0.000162859
0.00755988
0.000136892
0.0142232
0.000155715
0.000144176
0.000177665
0.00129311
0.000151946
0.0225026
0.0235213
0.000144429
0.0323504
0.000189278
0.000146327
0.000129588
0.0126778
0.000143762
0.000149371
0.0153058
0.0228729
0.000147049
0.0102725
0.00014779
0.000140095
0.000147759
0.000249645
0.000140183
0.0343644
0.0124326
0.000159083
0.000152564
0.000260502
0.0325602
0.000145657
0.000145226
0.0123443
0.000159875
0.0173272
0.000145796
0.0118095
0.0322707
0.0444233
0.000147966
0.000144452
0.00573382
0.000146804
0.000528974
0.000147148
0.00133498
0.00534575
0.0132471
0.0289029
0.000252581
0.000258985
0.0011096
0.000152534
0.000139279
0.000152569
0.000154788
0.000138942
0.0278322
0.000149405
0.000139708
0.000128798
0.000166733
0.0234138
0.000142353
0.0311638
0.000146622
0.000178084
0.0105634
0.000151445
0.000157466
0.000153313
0.000155715
0.0289498
0.000152855
0.0137265
0.0140225
0.000159274
0.0314647
0.0123448
0.000133115
0.00041016
0.000137982
0.0135576
0.00821571
0.000202792
0.000179114
0.000147807
0.0138979
0.000166782
0.000187234
0.0083656
0.0240298
0.00015988
0.00612599
0.000149029
0.0119712
0.0273609
0.000172715
0.000138596
0.000218567
0.000186665
0.00014763
0.000138347
0.0353026
0.040554
0.0319604
0.0248535
0.000148872
0.000144541
0.000188165
0.000148666
0.000144597
0.0148529
0.00332588
0.000140034
0.000144061
0.0148586
0.000172351
0.000148629
0.000139639
0.0131185
0.000150293
0.0309773
0.000152245
0.000141329
0.000148883
0.0073384
0.000140127
0.000154651
0.000139636
0.0261618
0.00551291
0.029328
0.0137432
5.49346e-05
0.0368698
0.000146803
0.0174927
0.0174681
0.000146629
0.000128728
0.000146618
0.00013963
0.00015674
0.0252022
0.000128625
0.000147839
0.000180436
0.000138025
0.0122009
0.000161555
0.000129393
0.0128889
0.00686243
0.000141672
0.000170578
0.00713339
0.0001549
0.000153803
0.000163819
0.000181554
0.000152878
0.000137766
0.000154744
0.000137645
0.000145626
0.000178414
0.000128386
0.0144445
0.0166934
0.000186528
0.000127742
0.00113312
0.00015626
0.000142416
0.000331641
0.000138415
0.000198174
0.000193589
0.000146817
0.0101727
0.0113817
0.000188192
0.0137408
0.000178187
0.000149157
0.0115669
0.000129855
0.000138635
0.000186605
0.000156257
0.000128637
0.0289204
0.000139613
0.000147919
0.000178287
0.0132163
0.000156894
0.000157605
0.000150438
0.000187242
0.0356965
0.000131273
0.012067
0.000136457
0.000159193
0.0168658
0.000139638
0.000188457
0.00505193
0.000935212
0.0350066
0.000153831
0.000186978
0.0272583
0.000143041
0.0321209
0.0247212
0.0165057
0.0411864
0.0201028
0.00146361
0.000196147
0.000208483
0.000145163
0.000147614
0.0276324
0.000149146
0.0425207
0.0433601
0.000143356
0.000165908
0.0134119
0.00368741
0.000159968
0.0231227
0.0122806
0.000138492
0.00372097
0.0227914
0.0262742
0.0337685
0.000146083
0.00013869
0.000142377
0.000149624
0.000141096
0.000143983
0.00484118
0.000142496
0.0219747
0.000145929
0.0160534
0.000214194
0.0233151
0.000135957
0.00437735
0.0226203
0.000984152
0.000231981
0.000153834
0.000127713
0.00137621
0.000263418
0.000137076
0.000135782
0.0445994
0.0243583
0.0440183
0.0177656
0.00283328
0.031256
0.0309659
0.0246543
0.000148005
0.0237762
0.0001312
0.0140483
0.000145921
0.00482907
0.000218134
0.0116246
0.000144575
0.000129361
0.0285094
0.00915033
0.0295901
0.000654478
0.000148652
0.00577732
0.000143001
0.0139169
0.000825446
0.00882099
0.000140704
0.000135013
0.000136082
0.000201782
0.000139083
0.0295516
0.000151307
0.000130912
0.0284882
0.00072747
0.008362
0.0411145
0.00597773
0.000133797
0.0158147
0.0240396
0.000133563
0.0140403
0.0319068
0.000136213
0.00396957
0.00669218
0.0296165
0.000137146
0.000147814
0.000153622
0.000149208
0.0129522
0.000171693
0.0314168
0.000174253
0.000151178
0.00559539
0.000144949
0.000134038
0.00455425
0.000222638
0.000165256
0.000144723
0.000128298
0.000134926
0.000149861
0.0107919
0.0142065
0.000128318
0.000139386
0.000137451
0.000501846
0.0297705
0.000146932
0.000161385
0.000148823
0.000161689
0.0232292
0.000149014
0.000146644
0.027532
0.000184052
0.0189781
0.00445244
0.0231361
0.000189043
0.000156638
0.000154669
0.0117717
0.0107955
0.000176442
0.000153797
0.0246284
0.0329019
0.000137408
0.000144517
0.000136586
0.0125675
0.000130822
0.000183615
0.0285721
0.000148021
0.000184292
0.000136298
0.00822465
0.00018011
0.000141006
0.00824944
0.000146472
0.000145406
0.0127922
0.000151008
0.000206057
0.00463932
0.000146906
0.000186103
0.000144733
0.000369925
0.021731
0.000146141
0.00013683
0.000254285
0.0001985
0.000172217
0.0318498
0.000152515
0.0214166
0.000140995
9.60584e-05
0.0256441
0.000194221
0.000134808
0.000176475
0.000153299
0.000157131
0.000672626
0.000146224
0.00546082
0.00395922
0.00684186
0.028176
0.0285429
0.000146702
0.000149232
0.000146455
0.000160479
0.000152997
0.000148629
0.00880757
0.000138241
0.000141002
0.000194668
0.0155272
0.000263082
0.00900586
0.00014777
0.000144665
0.030465
0.000153939
0.0214399
0.000171454
0.000162652
0.000144123
0.00366386
0.000171138
0.0125905
0.000156894
0.000147204
0.000134799
0.000187852
0.000153576
0.000146231
0.0093959
0.000139611
0.000211461
0.00506493
0.00105077
0.000986804
0.00016428
0.000287459
0.000168591
0.0119677
0.000219093
0.0217942
0.0316292
0.000145398
0.000138631
0.000134218
0.0211702
0.00251324
0.00397126
0.000127831
0.00589635
0.000144687
0.00015572
0.0228609
0.000158649
0.0120694
0.00443597
0.012234
0.000139597
0.000148308
0.000137113
0.00581894
0.0219944
0.0421933
0.000143042
0.0368957
0.00204588
0.000274794
0.00015362
0.031355
0.023165
0.0416429
0.024075
0.000135841
0.000194636
0.000159404
0.000138534
0.000154378
0.000156315
0.000146906
0.0103691
0.00489226
0.0061194
0.0025273
0.000155401
0.000176671
0.000329695
0.000134515
0.0228361
0.000139585
0.00463456
0.00127619
0.000279067
0.00967411
0.000154557
0.000142748
0.000145524
0.000155082
0.000148116
0.0300285
0.000171746
0.000180384
0.000138254
0.0268058
0.00572108
0.000144332
0.00013466
0.0198729
0.000156188
0.000149688
0.000154483
0.0189283
0.000142644
0.0050009
0.000135846
0.00017556
0.0231624
0.000169791
0.000137251
0.000153962
0.000138761
0.000157565
0.0171899
0.000158954
0.0153228
0.000147413
0.0231625
0.000139697
0.000210381
0.00537592
0.00015426
0.0135241
0.0283657
0.000186332
0.000147503
0.000141412
0.0260296
0.00580626
0.000172033
0.00176647
0.000141037
0.0172396
0.000145951
0.000133873
0.000172352
0.0277325
0.000129444
0.000179012
0.0109591
0.0250262
0.0246318
0.0349584
0.000142478
0.00301692
0.0236485
0.000150152
0.000153883
0.0428351
0.0233617
0.000173044
0.0308698
0.000156262
0.000155394
0.000157378
0.0135866
0.000154181
0.000146678
0.000139066
0.000143001
0.00492513
0.00580083
0.000142756
0.000138729
0.00038164
0.029968
0.00015049
0.000153235
0.0127041
0.000142511
0.000179484
0.000145827
0.000136387
0.000149802
0.0304426
0.000201835
0.000275056
0.000138785
0.00015547
0.000187772
0.0136371
0.000143402
0.00014274
0.00269912
0.000145426
0.000134046
0.000206199
0.000137017
0.000128318
0.000215264
0.000136931
0.000171542
0.000129143
0.00014554
0.000178056
0.000186958
0.000142525
0.000186767
0.000129132
0.0252593
0.000211519
0.000135195
0.0291339
0.000146632
0.000141057
0.0223162
0.0337348
0.0323141
0.00017443
0.000135909
0.000149944
0.000130921
0.000205683
0.00619731
0.00406347
0.000171094
0.00936089
0.000139685
0.0436854
0.000153698
0.000143073
0.000203326
0.000189877
0.000234633
0.000148675
0.00016284
0.000130521
0.000135928
0.000304032
0.00411623
0.000179883
0.0113225
0.000154749
0.0315464
0.0216845
0.0170422
0.000973693
0.00545687
0.000144073
0.000171416
0.000136209
0.00541319
0.00014774
0.000208399
0.0222159
0.0144405
0.00014179
0.0296395
0.000175447
0.000139464
0.000151443
0.000527799
0.000134714
0.000308766
0.000132346
0.0001539
0.0269656
0.000145676
0.00015778
0.000156497
0.000169638
0.00013447
0.000185414
0.000154988
0.00013731
0.00015575
0.000191201
0.000133831
0.000129351
0.000145907
0.000322382
0.000135767
0.0306051
0.000187808
0.000200715
0.000167124
0.000168665
0.000136011
0.000147835
0.000134572
0.000148407
0.000131101
0.000243569
0.000145896
0.000148959
0.0001414
0.00338024
0.000208563
0.000142823
0.000149592
0.000134441
0.0127573
0.000158385
0.027057
0.00025462
0.0336108
0.000484987
0.000141896
0.000147617
0.000150501
0.0144408
0.000147988
0.00015331
0.000519985
0.000186391
0.0241819
0.000153203
0.000185168
0.000171952
0.000157648
0.0202744
0.000158163
0.0116842
0.0107255
0.000150177
0.000190377
0.000129171
0.0214128
0.00014197
0.0147491
0.0285613
0.00273812
0.000182866
0.000167259
0.000135753
0.00014326
0.033109
0.00288832
0.0210735
0.000152512
0.000153069
0.000149229
0.018313
0.000153015
0.000136821
0.0135527
0.000167305
0.000199414
0.000150781
0.000155548
0.00016677
0.000142513
0.000145535
0.0190203
0.000153453
0.00370807
0.00425267
0.0243219
0.000190085
0.000171731
0.000161505
0.00016068
0.0214231
0.0289286
0.0127481
0.000205428
0.000137325
0.0080139
0.000143563
0.000166094
0.000138456
0.0291755
0.00280542
0.00675462
0.0142216
0.000151209
0.00473105
0.00677751
0.0146072
0.000208854
0.000177735
0.0009568
0.000138382
0.0373778
0.00452662
0.0107635
0.000152449
0.000208588
0.000146116
0.00697012
0.000128478
0.000139263
0.000147124
0.000146405
0.000139263
0.000150176
0.000142933
0.000147525
0.000145674
0.000192092
0.00729892
0.000144583
0.000137283
0.0216883
0.000166875
0.000137596
0.000149801
0.000139515
0.00451582
0.0152937
0.000149395
0.000154227
0.000184503
0.000143219
0.000162616
0.000211336
0.000152069
0.00233507
0.000180171
0.0185125
0.0233223
0.000144608
0.000134999
0.000143799
0.0189072
0.0194958
0.000137252
0.000153256
0.0154293
0.000135205
0.0336011
0.000163069
0.00694765
0.000177342
0.000135202
0.0330599
0.000136528
0.022508
0.000354875
0.000185801
0.000172608
0.000168969
0.00019006
0.00015271
0.0157764
0.00013214
0.000163112
0.015072
0.000169772
0.000189623
0.00767337
0.000190833
0.000132032
0.000134867
0.0271178
0.000162659
0.00013193
0.000159152
0.000159968
0.00322471
0.043792
0.000147916
0.0306528
0.000175244
0.0263298
0.000153484
0.00741065
0.000184821
0.0076288
0.0080256
0.000208743
0.000132036
0.00013726
0.000228703
0.000137113
0.000153745
0.000152991
0.000148189
0.000155821
0.000182066
0.000135271
0.000187919
0.0320644
0.000135975
0.000124144
0.00013363
0.000137955
0.00291843
0.0130445
0.0338421
0.0126401
0.000161218
0.00021336
0.000175269
0.000133442
0.000454122
0.0135802
0.000144202
0.0265716
0.000138545
0.000145662
0.000153689
0.000137701
0.000210452
0.00292641
0.000142447
0.0178958
0.000134483
0.0352075
0.0296696
0.0265793
0.042761
0.00548159
0.000162126
0.000153785
0.000229568
0.000149452
0.000143472
0.000188199
0.000149231
0.0314378
0.000134348
0.00014543
0.000144002
0.000140296
0.0144118
0.000141931
0.000166292
0.00558895
0.000146786
0.000354669
0.000135752
0.000130789
0.000149622
0.0236891
0.000273668
0.000142253
0.000147052
0.0258435
0.000142409
0.0360616
0.000204844
0.000144991
0.00480815
0.000158643
0.000139802
0.000139518
0.000132116
0.00945082
0.000205125
0.000160307
0.000179038
0.000180429
0.024051
0.000133898
0.00513043
0.000146248
0.000157005
0.000146863
0.000162994
0.00014615
0.00153537
0.00285756
0.00116721
0.000131043
0.000190144
0.000146658
0.0150032
0.000194838
0.000146495
0.000153424
0.000191532
0.000142281
0.0120055
0.000281671
0.000135938
0.000147831
0.00015235
0.000141518
0.000152949
0.000140207
0.000152536
0.000143328
0.000154406
0.000152496
0.000135805
0.000177945
0.000143419
0.00686241
0.00013837
0.000146235
0.00312793
0.000144981
0.000153406
0.000144044
0.000149236
0.00014396
0.000142628
0.000161496
0.000202289
0.00284416
0.000136131
0.00586293
0.0241808
0.000912096
0.000137649
0.0237213
0.000152807
0.0207877
0.00675169
0.000313283
0.000164238
0.022452
0.00945598
0.000185998
0.000160039
0.000154036
0.000328459
0.000131442
0.000320248
0.0184256
0.00440988
0.000140848
0.000135869
0.000139418
0.000185596
0.0257704
0.0112098
0.0351878
0.0351576
0.000135852
0.0126157
0.00246156
0.00432817
0.000181132
0.000175881
0.000140574
0.000152226
0.041745
0.0178698
0.000153213
0.000142229
0.000182241
0.000136218
0.01433
0.000153004
0.000142387
0.00016616
0.000184752
0.000133936
0.000198775
0.000192294
0.00346674
0.000133804
0.00606367
0.000135515
0.0290416
0.0118909
0.000959441
0.000143724
0.00519197
0.000141521
0.000141921
0.00018876
0.022144
0.000132919
0.000153729
0.0051826
0.000163565
0.000158703
0.000130404
0.00027502
0.0205991
0.0228096
0.00021169
0.0209661
0.00784385
0.000163285
0.0263038
0.000150099
0.00014243
0.0215708
0.0370646
0.0103974
0.000136925
0.000204419
0.0195763
0.0295072
0.000190204
0.000203241
0.000729784
0.000169036
0.000154591
0.000169868
0.0236319
0.000141869
0.000180204
0.00014781
0.0302305
0.0257929
0.000127984
0.000142141
0.00016548
0.00288171
0.00013591
0.00014383
0.000148091
0.0280279
0.0115859
0.000191101
0.0278845
0.000147429
0.000137091
0.000159132
0.00014311
0.00480017
0.0116419
0.000190784
0.00263125
0.000148134
0.000175898
0.000136841
0.000136537
0.000141368
0.000140606
0.000163141
0.0227378
0.000149492
0.000159159
0.00272549
0.00017483
0.0106571
0.00607004
0.000132102
0.000141738
0.000186923
0.000133571
0.00102946
0.000132358
0.000137463
0.000134252
0.000194641
0.000133447
0.000153928
0.0287403
0.000198136
0.0150034
0.000148136
0.000154032
0.000138114
0.000140751
0.000136376
0.0301243
0.00017017
0.000153183
0.0017697
0.000157517
0.0001445
0.00294185
0.000221447
0.00013637
0.000155657
0.0411763
0.000167047
0.000192255
0.000144861
0.0414183
0.00013645
0.000144483
0.00018136
0.000142101
0.0102276
0.00018875
0.000129162
0.000135841
0.0273266
0.0125791
0.000140311
0.000140225
0.000151965
0.000134126
0.000128345
0.000136348
0.000159055
0.00326458
0.00761758
0.00014219
0.000132257
0.000151772
0.000353567
0.00348495
0.000142737
0.000162281
0.0029272
0.0291849
0.000152141
0.0183905
0.000133516
0.000168261
0.000189195
0.000193203
0.000151969
0.000143001
0.000127857
0.0104124
0.000186263
0.000153341
0.000151474
0.000307888
0.0001591
0.000144878
0.000132078
0.00242398
0.000146396
0.000199231
0.000203898
0.000135732
0.000143735
0.0258543
0.00017817
0.000136127
0.00698687
0.000143977
0.000338254
0.000135673
0.000184103
0.00263652
0.000149275
0.00021731
0.0174635
0.00014633
0.000144827
0.000142962
0.00016715
0.00016901
0.0149232
0.000136753
0.000184561
0.000155371
0.00018914
0.000147909
0.000198513
0.000132913
0.00363631
0.000153124
0.000143113
0.0264027
0.00016847
0.000143244
0.000133028
0.000152806
0.00180124
0.000169663
0.000149252
0.000141486
0.000143481
0.000164566
0.0125383
0.000163406
0.0261504
0.000147194
0.000178441
0.000135596
0.0129692
0.000129902
0.00427167
0.000165537
0.000148973
0.0118868
0.0307188
0.00014395
0.000216995
0.000137691
0.0155771
0.0272996
0.000134346
0.0123921
0.000136206
0.000153771
0.000593824
0.000197086
0.00424199
0.0281393
0.000130697
0.0226066
0.000141151
0.000143472
0.0234732
0.0305291
0.000132185
0.000177586
0.000148292
0.000168011
0.000144862
0.000171871
0.000140388
0.000178899
0.000143154
0.000141678
0.000175821
0.0001511
0.000186026
0.00142112
0.00176943
0.000142927
0.000140656
0.000185303
0.000184567
0.0104541
0.00013807
0.0335235
0.000148034
0.000135768
0.0140561
0.000140052
0.0202354
0.000131195
0.000156955
0.0137297
0.000135572
0.00014124
0.000142695
0.000149399
0.000148983
0.0336306
0.000151231
0.0265481
0.000133987
0.000156518
0.0114267
0.00743525
0.000140355
0.000147972
0.0108178
0.0109207
0.000153091
0.000151134
0.0077608
0.020699
0.000142288
0.00016737
0.000130643
0.000143453
0.00058407
0.0423779
0.000181045
0.00348504
0.000149091
0.000151717
0.00309441
0.000735283
0.000129067
0.0282085
0.000203395
0.000179678
0.0116591
0.000137205
0.000210993
0.000143039
0.00014892
0.000136781
0.000168216
0.000167827
0.000177482
0.000152637
0.000154307
0.000177224
0.0160426
0.000145608
0.0127769
0.00251167
0.0253964
0.000132827
0.000135677
0.0227181
0.000141087
0.00322458
0.000146347
0.000185128
0.012774
0.000144704
0.00736914
0.000141554
0.0170711
0.000179708
0.000203289
0.00994091
0.000149328
0.000146898
0.0131251
0.00014552
0.00755393
0.000180544
0.000198538
0.000196829
0.000147804
0.000259578
0.000153449
0.000159433
0.000167134
0.00711098
0.000137277
0.000137182
0.0106368
0.0122184
0.0001834
0.0361586
0.000152988
0.0001372
0.0213186
0.000173557
0.0268796
0.00369134
0.0227196
0.000151711
0.000164723
0.000149487
0.0388901
0.000152997
0.00256793
0.000135414
0.000138205
0.000147364
0.0296764
0.005693
0.000208065
0.000169721
0.000156325
0.000129065
0.000187796
0.000129589
0.0208582
0.0124568
0.0268128
0.000129221
0.000153687
0.0262325
0.000162962
0.0263461
0.000133439
0.000135453
0.000190861
0.0227501
0.000152523
0.0222747
0.022347
0.000155128
0.0260577
0.000200845
0.000166315
0.000143855
0.00183685
0.00328622
0.000134161
0.000177126
0.0245164
0.000138203
0.0124484
0.000192368
0.0210866
0.0264382
0.000150544
0.000143357
0.000132683
0.000132576
0.0136223
0.000151676
0.000136883
0.0262024
0.000141267
0.000171939
0.000150132
7.44197e-05
0.000186516
0.000191441
0.000139113
0.000165731
0.000202068
0.000172438
0.000148011
0.000143227
0.000183886
0.0196209
0.00014328
0.000208293
0.0304107
0.0264108
0.00537048
0.000138937
0.000156425
0.0124474
0.0227481
0.000148929
0.000143048
0.0120859
0.00180912
0.0297469
0.000154386
0.00215773
0.0087257
0.000141852
0.0255668
0.000203931
0.000148247
0.000144498
0.000133948
0.0113244
0.000141107
0.0151377
0.000227818
0.0252903
0.000225067
0.0106943
0.0201799
0.00224825
0.00789651
0.000143973
0.0134233
0.000265538
0.000146027
0.000170187
0.000174052
0.000198474
0.0231164
0.000140107
0.000150338
0.000140987
0.00371458
0.000138572
0.000135252
0.000152947
0.000153282
0.000159218
0.0101896
0.000184948
0.000130675
0.000162189
0.000154811
0.000188076
0.000152077
0.000199152
0.000153201
0.0296988
0.0357021
0.000138392
0.0230586
0.000180692
0.0264101
0.0243148
0.000152884
0.013136
0.000143634
0.000523606
0.0264872
0.00014102
0.000141002
0.000144503
0.000140073
0.000155089
0.000160627
0.000142175
0.00348686
0.000148398
0.0245757
0.000155317
0.00626875
0.000135235
0.000140119
0.00131509
0.000141265
0.000143918
0.00014284
0.000202315
0.000161732
0.000147563
0.000164361
0.000140965
0.000183177
0.000134117
0.0128846
0.000143413
0.000165383
0.0227991
0.000147368
0.000201053
0.000187678
0.000141819
0.011382
0.00013659
0.0319741
0.0290547
0.00517754
0.000179438
0.000138756
0.000188754
0.0001933
0.000143815
0.000162204
0.000167293
0.000170023
0.000155058
0.000138761
0.00528337
0.00693207
0.000144303
0.0283347
0.00330259
0.000135338
0.000138847
0.000132093
0.000191159
0.0030527
0.000215376
0.000142277
0.000138746
0.00298252
0.000169952
0.0276016
0.0109491
0.000142599
0.000151544
0.000135895
0.00922372
0.0262624
0.000136179
0.000162882
0.00233522
0.0255608
0.000161347
0.000158788
0.000132352
0.000147126
0.0399419
8.34323e-05
0.000143424
0.0370658
0.000138174
0.00751668
0.0256122
0.000168966
0.000190404
0.0024685
0.000145664
0.00424941
0.000166605
0.0193422
0.00541612
0.000135373
0.043442
0.0354884
0.00122284
0.00851853
0.000159476
0.0262546
0.0281286
0.000162676
0.000135663
0.00365143
0.000690923
0.00653546
0.000184593
0.000148962
0.000104288
0.000142381
0.0256946
0.0245041
0.000206157
0.000157136
0.000148706
0.000142616
0.0141471
0.000138078
0.0199131
0.0104022
0.000178009
0.000142104
0.013761
0.000142172
0.000176877
0.0246056
0.00683374
0.000150348
0.000147007
0.000146575
0.000143101
0.000207927
0.000142008
0.000170854
0.000186374
0.000145111
0.000130661
0.00020172
0.00710827
0.000138062
0.000135806
0.000142744
0.000152733
0.000155625
0.0219304
0.0217394
0.0192497
0.010419
0.000143546
0.000142372
0.000177397
0.000231008
0.000135945
0.000188222
0.0171734
0.0134209
0.000269612
0.000595279
0.000179552
0.000162175
0.0367542
0.000138199
0.00220195
0.000202294
0.000132799
0.00559326
0.000151238
0.000187189
0.0257003
0.000333277
0.000161065
0.0108171
0.000142979
0.000141838
0.000130057
0.000158283
0.000142308
0.000146931
0.000141005
0.0271322
0.000159319
0.000142247
0.000161938
0.000152911
0.0029478
0.00836901
0.0284809
0.000142926
0.000135613
0.0444152
0.000190523
0.00295973
0.000143441
0.000153396
0.000143958
0.000148171
0.0126908
0.000156737
0.000138468
0.000143729
0.000200645
0.000138677
0.000168015
0.000136171
0.000136577
0.000151558
0.000197805
0.000178208
0.000164035
0.00013626
0.012488
0.000255979
0.0144589
0.037646
0.000146904
0.00669835
0.000205135
0.000185751
0.0369857
0.000154196
0.00351616
0.000149977
0.000189138
0.0252721
0.000135371
0.000141426
0.0172543
0.000129992
0.00998225
0.0386586
0.000138876
0.000183856
0.000135981
0.00014265
0.0157686
0.000134622
0.000136028
0.000135758
0.000132065
0.000159379
0.000143313
0.026397
0.000135797
0.0127897
0.0122036
0.000148698
0.000141941
0.000139109
0.000136226
0.000153453
0.0138554
0.000135805
0.00018074
0.000157908
0.0308276
0.0254276
0.000150344
0.000203432
0.000172136
0.000130467
0.000134431
0.00409163
0.000130451
0.000132397
0.0178893
0.00698974
0.0259955
0.000143927
0.0438737
0.00471351
0.000130925
0.000170489
0.000144186
0.000141806
0.000132723
0.000140091
0.0284532
0.000142005
0.000143014
0.00455869
0.000151815
0.0131184
0.000157795
0.000147483
0.00499648
0.00013439
0.0120629
0.000131833
0.00015061
0.0366129
0.000141261
0.000135331
0.000142156
0.0155696
0.00629935
0.0001452
0.000141228
0.0001331
0.000159501
0.00677342
0.000199488
0.000147436
0.0105672
0.000521834
0.000142895
0.00559403
0.000130389
0.00126135
0.00152414
0.000131999
0.00015716
0.0297592
0.000164133
0.0137164
0.000176554
0.000172821
0.0113033
0.000154752
0.0111523
0.000140675
0.0125028
0.000143744
0.0303336
0.000149571
0.000156505
0.000162309
0.000137871
0.016647
0.00490637
0.0125993
0.000207874
0.000133742
0.0182065
0.000129464
0.000140061
0.0356605
0.000133166
0.0247453
0.0173924
0.000130836
0.000154108
0.000178001
0.00020092
0.000135387
0.000188343
0.000166856
0.00582538
0.0270055
0.00014298
0.000144292
0.00013984
0.00013076
0.0240956
0.000189467
0.00284341
0.000138671
0.00629297
0.0371368
0.000129179
0.000133188
0.0116317
0.012645
0.0467266
0.000215462
0.0127923
0.000209117
0.000180595
0.000196776
0.00627991
0.0462905
0.000153419
0.000192723
0.000140144
0.000154377
0.000217131
0.0253053
0.000150052
0.000205835
0.00249559
0.000138783
0.000147877
0.000149461
0.000153519
0.000140126
0.000749774
0.000139772
0.0165769
0.000135066
0.0123186
0.00016466
0.000219164
0.000187053
0.000184419
0.0139874
0.00013701
0.000141725
0.000210308
0.000133665
0.024288
0.000177965
0.000143193
0.000129841
0.0295789
0.000143736
0.000149239
0.00013868
0.000158267
0.000176875
0.000168379
0.000154721
0.000141371
0.000145419
7.80172e-05
0.000135608
8.50483e-05
0.000141217
0.000142804
0.000129779
0.0233321
0.000157134
0.0202746
0.000153208
0.000155927
0.000154253
0.0215592
0.00037921
0.000142392
0.0288444
0.000143097
0.000134967
0.000197641
0.0281838
0.00507092
0.0261002
0.000205101
0.000188055
0.000139914
0.000147148
0.000139158
0.0142641
0.000171574
0.000128123
0.000236697
0.0376384
0.000138281
0.000137294
0.00550253
0.000149456
0.0291347
0.000294912
0.0392629
0.000135778
0.000160483
0.000141706
0.0295702
0.000150065
0.000133817
0.000154388
0.0215657
0.0215511
0.0223052
0.0165696
0.000150132
0.000134937
0.00014168
0.0342936
0.0001385
0.000149203
0.000162214
0.000136475
0.000672727
0.00014125
0.000133493
0.000133598
0.00017272
0.000145113
0.000996701
0.000144436
0.000141721
0.0322704
0.000143097
0.000207708
0.0138696
0.000188677
0.000148836
0.0263439
0.00257541
0.000143923
0.00203417
0.000132426
0.000193427
0.000520811
0.0139854
0.000189317
0.000184199
0.000195333
0.000138791
0.000131493
0.000147508
0.000133528
0.000165983
0.0132276
0.000167824
0.00545875
0.000129463
0.0440612
0.000297978
0.00014758
0.000281487
0.000135945
0.000197869
0.000149955
0.0263828
0.000129746
0.0145166
0.000133323
0.000139554
0.000163965
0.0185028
0.0125823
0.000145985
0.0228145
0.0211117
0.000134925
0.00228687
0.000166892
0.000198563
0.00354419
0.000142511
0.0296673
0.000139586
0.000142823
0.0249572
0.000174066
0.000133092
0.000141894
0.000137243
0.000134053
0.000149275
0.014402
0.000162961
0.0128176
0.000140164
0.000143893
0.000187489
0.0189137
0.0159689
0.028593
0.00643815
0.00014853
0.000137199
0.000137525
0.00015767
0.000142974
0.000133761
0.0110328
0.0215256
0.0140221
0.000143691
0.000139262
0.0109497
0.000141278
0.000138888
0.000142788
0.000152617
0.000219221
0.0122297
0.000141075
0.000134001
0.000166618
0.000142405
0.021733
0.000159951
0.00274922
0.000146609
0.000178998
0.000141494
0.000132352
0.000199143
0.000152519
0.00140588
0.000136526
0.00100697
0.000149996
0.0229161
0.000138698
0.0217713
0.000137196
0.000189267
0.000141832
0.000138816
0.000143777
0.000218776
0.00169735
0.000142532
0.000152372
0.000135343
0.03846
0.000178792
0.000533155
0.000154681
0.000151355
0.00017534
0.0011008
0.00038944
0.0171914
0.000142778
0.000148448
0.0153611
0.00484708
0.000129359
0.000206326
0.000152943
0.0001351
0.00985009
0.000140432
0.00402436
0.000145914
0.0147302
0.000140542
0.027352
0.0338576
0.000131098
0.000146244
0.00013077
0.000148557
0.00167239
0.0132917
0.0039311
0.00605578
0.000140537
0.000202302
0.000142709
0.0323485
0.000130282
0.000573461
0.000134711
0.000213479
0.000141522
0.000138555
0.000152307
0.0169832
0.00281546
0.0157297
0.000191398
0.000181494
0.00350863
0.000190909
0.0210394
0.000143404
0.00015757
0.00015244
0.00013611
0.000135262
0.000194483
0.00607058
0.000455763
0.000158824
0.000144456
0.033461
0.000143312
0.000185641
0.000249957
0.0323051
0.000155623
0.000136356
0.000135591
0.000146551
0.000143803
0.0249605
0.000188327
0.00013804
0.000153445
0.000176364
0.000155036
0.0173874
0.0123726
0.00741129
0.000143137
0.00354995
0.0307834
0.000177434
0.0268203
0.000137448
0.000139543
0.0231409
0.0389213
0.00513418
0.000136959
0.000158436
0.000131871
0.0266145
0.0385251
0.000135481
0.000155289
0.000137691
0.000144326
8.13759e-05
0.0388295
0.000139094
0.000137389
0.000155863
0.000143373
0.000135235
0.000162073
0.000138405
0.000150919
0.000135484
0.0206196
0.000136274
0.000188701
0.000134573
8.9536e-05
0.000137576
0.000163221
0.00013947
0.00013942
0.000135209
0.000143466
0.0224682
0.000150939
0.000181148
0.000151483
0.0177586
0.000149279
0.000539675
0.000138567
0.00723816
0.000170462
0.0440152
0.00353239
0.0253509
0.0169756
0.000738257
0.000131877
0.0248786
0.000145971
0.000156664
0.00290044
0.00018921
0.000170984
0.0456386
0.000188229
0.000160552
0.000157644
0.00779483
0.000139581
0.000143383
0.000145662
0.000166167
0.000139392
0.000131866
0.00593265
0.000148122
0.000139672
0.000141193
0.0115231
0.00014914
0.000160337
0.0371787
0.0383212
0.00303467
0.000182822
0.0137931
0.000155297
0.0188522
0.00013516
0.000180445
0.000170509
0.000147648
0.000135074
0.000290565
0.0397401
0.000179012
0.000162692
0.000149313
0.00014758
0.00202107
0.000161165
0.0214313
0.000149643
0.00014207
0.00014429
0.000143718
0.000145795
0.000139944
0.000166141
0.000144005
0.000146487
0.000157578
0.000149776
0.00014186
0.000148461
0.00175987
0.0202385
0.000158808
0.000202842
0.0107923
0.000187766
0.000165699
0.0269011
0.000170698
0.000139204
0.000144922
0.000206184
0.000134839
0.00013185
0.000159092
0.00392058
0.000131839
0.000137328
0.000152837
0.000156084
0.000142971
0.000157346
0.000157567
0.00265929
0.0180106
0.00384324
0.000131913
0.000138657
0.0208653
0.0235152
0.000185325
0.00307353
0.0374675
0.000159016
0.000148342
0.000143435
0.0139156
0.00638869
0.000139752
0.000169166
0.0038981
0.00186139
0.0251089
0.0288257
0.000149739
0.000398753
0.000158875
0.000186849
0.000142046
0.0431858
0.000205679
0.000151398
0.000142552
0.000146351
0.000184588
0.000128003
0.0001319
0.000235936
0.000216987
0.0111062
0.028425
0.0267063
0.000143636
0.0388803
0.0237558
0.000405994
0.0359742
9.5403e-05
0.0289375
0.000380669
0.00014375
0.000349492
0.000209976
0.000142213
0.0226941
0.000144528
0.0191409
0.000141118
0.000170759
0.000190814
0.0316972
0.000142146
0.000428146
0.000173986
0.000178696
0.000141289
0.000142146
0.00619183
0.0209291
0.000155025
0.00443258
0.000135934
0.000168601
0.000143277
0.000167153
0.0275708
0.00379653
0.0233529
0.0262563
0.00766651
0.000154492
0.0251054
0.000152242
0.000130047
0.0224426
0.00368813
0.0001348
0.000149744
0.000145947
0.000149153
0.00165241
0.00013812
0.0263109
0.000188
0.00394764
0.000148266
0.000214938
0.000172526
0.0209274
0.00017943