/*--------------------------------*- C++ -*----------------------------------*\
| =========                 |                                                 |
| \\      /  F ield         | OpenFOAM: The Open Source CFD Toolbox           |
|  \\    /   O peration     | Version:  v2012                                 |
|   \\  /    A nd           | Website:  www.openfoam.com                      |
|    \\/     M anipulation  |                                                 |
\*---------------------------------------------------------------------------*/
FoamFile
{
    version     2.0;
    format      ascii;
    class       volScalarField;
    location    "200";
    object      k_0;
}
// * * * * * * * * * * * * * * * * * * * * * * * * * * * * * * * * * * * * * //

dimensions      [0 2 -2 0 0 0 0];


internalField   nonuniform List<scalar> 
37190
(
0.000156365
0.000142202
0.000141928
0.00014013
0.0130399
0.000145395
0.000162074
0.000191111
0.000133205
0.0133048
0.00557509
0.0351289
0.00020824
0.00015036
0.0169224
0.00577558
0.000141942
0.000286314
0.000136761
0.000151699
0.000158755
0.00118895
0.000142975
0.0242059
0.0128753
0.000149071
0.0442718
0.000154435
0.0145666
0.000144416
0.000304778
0.00015137
0.000155447
0.00018879
0.000156458
0.00720396
0.044825
0.0139531
0.000136664
0.000155061
0.0216031
0.00013066
0.00532739
0.000151083
0.0319929
0.0116621
0.0328313
0.0356418
0.000131045
0.000160286
0.000144227
0.000127801
0.000146085
0.00016179
0.000149245
0.000190482
0.00012785
0.000151194
0.000526976
0.000306349
0.000190284
0.0217567
0.000159032
0.000149094
0.0150651
0.0240878
0.00517613
0.0225085
0.0305675
0.0287475
0.000136602
0.000256692
0.000156754
0.000142817
0.00014461
0.000472494
0.0270816
0.0351297
0.00015544
0.0330309
0.033087
0.000140175
0.0342594
0.000144321
0.0118999
0.000169917
0.015993
0.0110375
0.000162859
0.00750898
0.000136892
0.014225
0.000155722
0.000144176
0.000177681
0.00128529
0.000151946
0.0224048
0.0235256
0.000144428
0.0323561
0.000189301
0.000146327
0.000129587
0.0126792
0.000143761
0.000149371
0.015305
0.0228245
0.000147049
0.0102249
0.000147791
0.000140095
0.000147761
0.000249675
0.000140183
0.0343675
0.0124531
0.000159084
0.000152564
0.000260365
0.0325789
0.000145657
0.000145233
0.0123359
0.000159875
0.0173291
0.000145796
0.011811
0.0322641
0.0444297
0.000147966
0.000144452
0.00573049
0.000146804
0.000540757
0.000147149
0.00135596
0.00533742
0.0132533
0.0288869
0.000252538
0.000259638
0.00110432
0.000152534
0.00013928
0.000152569
0.000154788
0.000138943
0.0278313
0.000149405
0.000139708
0.000128798
0.000166733
0.0234148
0.000142354
0.0311665
0.000146622
0.000178066
0.010565
0.000151445
0.000157466
0.000153307
0.000155723
0.0289429
0.000152855
0.0137248
0.014024
0.000159275
0.0314486
0.0123347
0.000133115
0.000412596
0.000137982
0.0135563
0.00822568
0.000202811
0.00017911
0.000147807
0.0138966
0.000166782
0.000187238
0.00832843
0.0240369
0.00015988
0.00612983
0.000149029
0.0119701
0.0272694
0.000172715
0.000138597
0.000218523
0.000186663
0.00014763
0.000138347
0.0353008
0.0405578
0.03195
0.0248377
0.000148872
0.000144541
0.000188168
0.000148667
0.000144597
0.0148737
0.00333791
0.000140034
0.000144061
0.0148604
0.000172352
0.000148629
0.000139639
0.0131602
0.000150293
0.031007
0.000152245
0.000141329
0.000148883
0.00734536
0.000140127
0.000154651
0.000139636
0.0260593
0.00551307
0.0293181
0.0136647
5.53999e-05
0.0368706
0.000146804
0.0174943
0.0174671
0.00014663
0.000128728
0.000146618
0.00013963
0.000156749
0.0251883
0.000128625
0.000147839
0.000180438
0.000138025
0.0121997
0.000161555
0.000129393
0.0128905
0.00686513
0.000141672
0.000170584
0.00713154
0.0001549
0.000153802
0.000163798
0.000181557
0.000152878
0.000137766
0.000154744
0.000137645
0.000145626
0.000178432
0.000128386
0.0144919
0.0166939
0.000186478
0.000127742
0.00113401
0.000156261
0.000142416
0.000333157
0.000138415
0.000198134
0.00019357
0.000146817
0.0102244
0.0113805
0.000188177
0.0137395
0.0001782
0.000149157
0.0115658
0.000129855
0.000138634
0.000186606
0.000156256
0.000128637
0.0289111
0.000139613
0.000147919
0.000178283
0.0132215
0.000156889
0.000157605
0.000150438
0.000187265
0.0356974
0.000131273
0.0120683
0.000136457
0.000159193
0.0168643
0.000139638
0.000188482
0.00493157
0.00093293
0.0350074
0.000153834
0.000187034
0.0272633
0.000143041
0.0321232
0.0247536
0.0165079
0.0411904
0.0201046
0.00143431
0.000196025
0.000208322
0.000145163
0.000147612
0.0276275
0.000149146
0.0425269
0.043367
0.000143356
0.00016591
0.0133341
0.00369089
0.000159969
0.0231211
0.0122794
0.000138491
0.0037884
0.0227728
0.0262771
0.0337976
0.000146083
0.000138689
0.000142377
0.000149624
0.000141096
0.000143984
0.00482129
0.000142496
0.0219097
0.000145929
0.0160689
0.000214467
0.0233169
0.000135956
0.00435832
0.0226192
0.000999318
0.000231702
0.000153834
0.000127713
0.00136754
0.00026325
0.000137076
0.000135782
0.0446061
0.0243817
0.0440248
0.0177672
0.00294347
0.0312582
0.0309678
0.0246538
0.000148005
0.0237972
0.0001312
0.0140506
0.000145921
0.00485823
0.000218105
0.0116179
0.000144585
0.000129361
0.0284933
0.00915144
0.0295429
0.000656161
0.000148651
0.00577732
0.000143001
0.0139837
0.000836369
0.00881522
0.000140705
0.000135013
0.000136083
0.000201783
0.000139243
0.0294861
0.000151303
0.000130913
0.0284906
0.000735753
0.00837059
0.04112
0.00597818
0.000133797
0.0158164
0.0240425
0.000133564
0.0140387
0.0319357
0.000136218
0.00397114
0.00671366
0.0296181
0.000137146
0.000147815
0.000153622
0.000149206
0.0129511
0.000171694
0.0314008
0.000174221
0.000151173
0.00559565
0.000144949
0.000134038
0.00458387
0.000223833
0.000165258
0.000144723
0.000128298
0.000134926
0.000149861
0.0107747
0.0142067
0.000128318
0.000139386
0.000137451
0.000505548
0.029773
0.000146932
0.000161385
0.000148822
0.000161689
0.0231694
0.000149014
0.000146644
0.0275603
0.000184077
0.0189774
0.00445517
0.0231159
0.000189047
0.000156644
0.000154669
0.0117705
0.0107125
0.000176442
0.000153797
0.0246302
0.0329465
0.000137408
0.000144517
0.000136586
0.0125683
0.000130822
0.000183617
0.0285628
0.000148022
0.000184294
0.000136298
0.00817821
0.000180109
0.000141006
0.00828645
0.000146473
0.000145406
0.0128096
0.000151008
0.000206054
0.00470188
0.000146906
0.000186104
0.000144733
0.000371707
0.0216639
0.000146141
0.000136831
0.000254131
0.000198444
0.000172218
0.0318354
0.000152515
0.0214273
0.000140995
9.63024e-05
0.0256502
0.000194177
0.000134808
0.000176476
0.000153301
0.000157143
0.000674407
0.000146224
0.00545647
0.0039457
0.00686435
0.0281718
0.0286625
0.000146701
0.000149231
0.000146454
0.000160479
0.000152997
0.000148629
0.00884934
0.000138241
0.000141002
0.000194701
0.0155258
0.000263589
0.0090086
0.00014777
0.000144665
0.030433
0.00015394
0.0213714
0.000171455
0.000162652
0.000144124
0.00365498
0.000171145
0.0128734
0.000156891
0.000147205
0.000134799
0.000187854
0.000153576
0.000146231
0.00934722
0.000139611
0.000211647
0.00516082
0.00103271
0.000990262
0.000164325
0.000287172
0.000168596
0.0119717
0.000219237
0.021796
0.0314967
0.000145398
0.000138631
0.000134219
0.0211719
0.00253389
0.00399753
0.000127831
0.00589676
0.000144687
0.00015572
0.0228098
0.000158662
0.0121327
0.00446372
0.0122264
0.000139597
0.000148308
0.000137511
0.00582128
0.0219948
0.0421994
0.000143042
0.0368951
0.0020574
0.000275592
0.00015362
0.0312162
0.0231115
0.0416486
0.0240347
0.000135841
0.000194669
0.000159404
0.000138534
0.000154378
0.000156314
0.000146906
0.0103797
0.00487937
0.00613159
0.00252737
0.000155401
0.000176671
0.000329903
0.000134515
0.0227832
0.000139585
0.00461977
0.00128901
0.000278381
0.00968179
0.000154556
0.000142748
0.000145524
0.000155082
0.000148116
0.030144
0.000171747
0.000180386
0.000138254
0.0268046
0.00567819
0.000144332
0.00013466
0.0198743
0.000156188
0.000149688
0.000154483
0.0189401
0.000142645
0.00509186
0.000135846
0.000176408
0.0231028
0.000169773
0.000137251
0.000153962
0.000138761
0.000157573
0.0171916
0.000158954
0.0155862
0.000147413
0.0232075
0.000139697
0.000210383
0.0053751
0.000154644
0.0136034
0.0283873
0.000186291
0.000147505
0.000141412
0.026037
0.00580623
0.000172034
0.00172504
0.000141037
0.0172479
0.000145951
0.000133873
0.000172356
0.0277128
0.000129444
0.000179025
0.0109806
0.0250363
0.024691
0.0349617
0.000142478
0.00303386
0.0236568
0.000150152
0.000153881
0.0428413
0.0235
0.000173045
0.0308547
0.000156262
0.000155395
0.000157377
0.0135642
0.000154181
0.000146678
0.000139066
0.000143001
0.00492496
0.00580054
0.000142756
0.000138729
0.000383888
0.0299393
0.00015049
0.00015323
0.0127056
0.000142511
0.000179486
0.000145827
0.000136387
0.000149802
0.0303946
0.000201854
0.000275935
0.000138784
0.000155479
0.000187776
0.0136388
0.000143402
0.00014274
0.0027028
0.000145427
0.000134046
0.00020622
0.000137018
0.000128318
0.000213939
0.000136931
0.000171543
0.000129143
0.000145539
0.000178056
0.000186955
0.000142525
0.00018677
0.000129132
0.0252614
0.00021148
0.000135195
0.0290452
0.00014663
0.000141057
0.0223173
0.0337378
0.0323723
0.000174438
0.000135909
0.000149944
0.000130921
0.000205705
0.00622732
0.00406312
0.000171094
0.00936987
0.000139685
0.0436925
0.000153698
0.000143073
0.000203346
0.000189976
0.000234551
0.000148677
0.00016284
0.000130522
0.000135928
0.00030334
0.0041232
0.000179885
0.0113175
0.000154749
0.0315485
0.0216858
0.0170414
0.000979929
0.005435
0.00014408
0.000171377
0.000136209
0.00539197
0.000147759
0.000208356
0.0222188
0.0144538
0.00014179
0.0296296
0.000175447
0.000139464
0.000151443
0.000529604
0.000134714
0.000310106
0.000132346
0.000153905
0.026978
0.000145676
0.000157789
0.0001565
0.000169613
0.000134469
0.000185417
0.000154988
0.00013731
0.00015575
0.000191207
0.000133831
0.000129351
0.000145907
0.000320504
0.000135767
0.0306328
0.000187787
0.000200713
0.0001671
0.000168667
0.000136011
0.000147837
0.000134572
0.000148407
0.000131101
0.000243223
0.000145896
0.00014896
0.0001414
0.00337026
0.000208585
0.000142823
0.000149589
0.000134441
0.012823
0.000158385
0.0270556
0.000255403
0.0336096
0.000484765
0.000141896
0.000147618
0.000150501
0.0144544
0.000147989
0.000153309
0.00052009
0.000186352
0.0242059
0.000153207
0.000185205
0.000171953
0.000157648
0.0202804
0.000158163
0.011669
0.0107769
0.000150177
0.000190322
0.000129171
0.0214213
0.00014197
0.0147475
0.0285638
0.00272713
0.000182833
0.000167275
0.000135753
0.00014326
0.0331113
0.0029923
0.0210752
0.000152508
0.000153069
0.000149227
0.0183311
0.000153015
0.000136821
0.0135512
0.000167306
0.000199454
0.000150781
0.000155549
0.000166777
0.000142513
0.000145536
0.0189535
0.000153454
0.00370809
0.00425195
0.0243228
0.000190045
0.000171733
0.000161505
0.00016068
0.0214245
0.0289665
0.0127496
0.000204444
0.000137325
0.00796102
0.000143563
0.000166069
0.000138456
0.0291712
0.00282726
0.0067558
0.0143152
0.00015121
0.00471543
0.00677845
0.014609
0.000208852
0.000177752
0.000942207
0.000138382
0.0373788
0.00451191
0.0107658
0.000152449
0.00020844
0.000146123
0.00697984
0.000128478
0.000139263
0.000147124
0.000146405
0.000139263
0.000150176
0.000142933
0.000147525
0.000145674
0.000192174
0.00730649
0.000144595
0.000137283
0.0216936
0.000166875
0.000137595
0.000149802
0.000139515
0.00449563
0.0153071
0.000149395
0.000154227
0.000184522
0.000143219
0.000162616
0.000211332
0.000152069
0.0023503
0.000180161
0.0185249
0.0233235
0.000144609
0.000134999
0.000143804
0.0189162
0.0194966
0.000137252
0.000153286
0.0154236
0.000135205
0.0336026
0.00016307
0.00698855
0.000177343
0.000135202
0.033062
0.000136528
0.0225075
0.000353702
0.000185797
0.000172609
0.000168938
0.000190055
0.00015271
0.015775
0.000132141
0.000163113
0.0150737
0.000169772
0.000189584
0.00771486
0.000190939
0.000132032
0.000134867
0.0270803
0.000162659
0.00013193
0.000159152
0.000159968
0.0032458
0.043798
0.000147916
0.0306548
0.000175244
0.0263418
0.000153484
0.00741539
0.000184822
0.00765538
0.00804949
0.000208742
0.000132036
0.00013726
0.000228678
0.000137113
0.000153745
0.000152991
0.000148189
0.00015583
0.000182082
0.00013527
0.000187897
0.0320526
0.000135975
0.000124669
0.00013363
0.000137955
0.0029186
0.013037
0.0338744
0.0126387
0.000161218
0.000213369
0.000175278
0.000133441
0.00045123
0.0135303
0.000144202
0.0265734
0.000138545
0.000145663
0.000153687
0.000137701
0.000210469
0.00289446
0.000142447
0.0178946
0.000134483
0.0351629
0.0297106
0.0265738
0.0427674
0.00550761
0.000162108
0.000153789
0.000229324
0.000149455
0.000143472
0.0001882
0.000149232
0.031458
0.000134348
0.00014543
0.000144002
0.000140295
0.0143996
0.00014193
0.000166292
0.00558922
0.000146786
0.000354318
0.000135752
0.000130789
0.000149622
0.023706
0.000273651
0.000142253
0.000147052
0.0258213
0.000142412
0.0360611
0.000204844
0.000144991
0.00483377
0.000158643
0.000139802
0.000139518
0.000132116
0.00950079
0.000205328
0.00016029
0.000179024
0.000180456
0.0240499
0.000133898
0.00515565
0.000146249
0.000157009
0.000146862
0.000162995
0.000146149
0.00154612
0.00284985
0.00116006
0.000131043
0.00019014
0.000146656
0.0150094
0.000194846
0.000146495
0.000153422
0.000191539
0.000142281
0.0120163
0.000281586
0.000135938
0.00014783
0.00015235
0.000141519
0.000152949
0.000140207
0.000152536
0.000143328
0.000154406
0.000152496
0.000135805
0.000177945
0.000143419
0.00686302
0.00013837
0.000146234
0.00314211
0.000144981
0.000153406
0.000144044
0.000149238
0.000143959
0.000142629
0.000161496
0.000202305
0.00285978
0.000136131
0.0057924
0.0241775
0.000921521
0.000137649
0.0236784
0.000152807
0.0207596
0.00665665
0.000313181
0.000164231
0.0225245
0.009455
0.000185942
0.000160039
0.000154036
0.000328743
0.000131442
0.000319901
0.0184277
0.00440233
0.000140848
0.000135869
0.000139418
0.000185618
0.0257856
0.011212
0.0352003
0.0351582
0.000135852
0.0126017
0.00246766
0.00432217
0.000181148
0.000175893
0.000140574
0.000152226
0.0417493
0.0178759
0.000153216
0.000142229
0.000182202
0.000136218
0.0143317
0.000153004
0.000142387
0.000166161
0.000184749
0.000133936
0.000198769
0.000192303
0.0034138
0.000133804
0.00606397
0.000135515
0.029044
0.0118587
0.000962511
0.000143725
0.00518518
0.000141521
0.00014192
0.000188759
0.0222104
0.000132919
0.000153729
0.00516564
0.000163559
0.000158703
0.000130405
0.000274875
0.0205226
0.0228079
0.000211687
0.0209673
0.00784821
0.00016328
0.0262686
0.000150099
0.000142431
0.0217088
0.0370348
0.0102357
0.000136925
0.000204565
0.0195776
0.0295767
0.0001902
0.000203284
0.000740301
0.000169012
0.00015459
0.000169845
0.0237724
0.000141869
0.000180231
0.000147809
0.030233
0.0258014
0.000127984
0.000142141
0.00016548
0.00288526
0.00013591
0.00014383
0.000148091
0.0280275
0.0115708
0.000191102
0.0279036
0.000147429
0.000137091
0.000159136
0.00014311
0.00475986
0.0116434
0.000190784
0.00262101
0.000148134
0.000175865
0.000136841
0.000136537
0.000141368
0.000140606
0.000163121
0.0226885
0.000149498
0.000159149
0.00272039
0.000174832
0.0106582
0.00594002
0.000132102
0.000141737
0.00018692
0.000133571
0.00100841
0.000132358
0.000137463
0.000134251
0.000194649
0.000133447
0.000153928
0.0288143
0.000198131
0.0149471
0.000148136
0.000154032
0.000138114
0.000140753
0.000136376
0.0301087
0.000170169
0.000153183
0.001752
0.000157517
0.0001445
0.00293066
0.000221452
0.00013637
0.000155656
0.0411808
0.000167047
0.000192263
0.000144862
0.0414223
0.00013645
0.000144483
0.000181362
0.000142101
0.0102585
0.000188749
0.000129162
0.000135842
0.0273187
0.0125804
0.000140311
0.000140225
0.000151964
0.000134126
0.000128345
0.000136347
0.000159068
0.00329081
0.00746635
0.00014219
0.000132256
0.000151777
0.000353711
0.00351284
0.000142737
0.000162281
0.00291736
0.0291874
0.000152141
0.0183922
0.000133516
0.000168261
0.00018919
0.00019321
0.000151969
0.000143001
0.000127857
0.0104135
0.000186266
0.000153341
0.000151474
0.000306347
0.000159112
0.000144878
0.000132078
0.00242723
0.000146394
0.000199268
0.000203897
0.000135733
0.000143735
0.0258535
0.000178183
0.000136127
0.00699261
0.000143977
0.000338344
0.000135673
0.000184101
0.00264348
0.000149275
0.000217295
0.0175406
0.00014633
0.000144827
0.000142962
0.00016715
0.000168998
0.0149141
0.000136752
0.000184582
0.000155371
0.000189137
0.000147909
0.000198504
0.000132913
0.00363427
0.000153124
0.000143113
0.026405
0.000168458
0.000143244
0.000133028
0.000152813
0.00179488
0.000169669
0.000149252
0.000141486
0.000143481
0.000164566
0.0125402
0.000163406
0.0261516
0.000147204
0.000178443
0.000135596
0.0129138
0.000129902
0.00426703
0.000165517
0.000148974
0.0119342
0.0307212
0.00014395
0.000216994
0.000137691
0.015578
0.0273009
0.000134346
0.012376
0.000136206
0.000153774
0.000604952
0.000197096
0.00423867
0.0281611
0.000130697
0.0226
0.000141151
0.000143472
0.0235012
0.0305578
0.000132186
0.000177599
0.000148292
0.000168016
0.000144862
0.000171878
0.000140388
0.000178913
0.000143154
0.000141677
0.000175821
0.0001511
0.00018603
0.00142904
0.00178201
0.000142927
0.000140656
0.000185319
0.000184565
0.010467
0.00013807
0.033511
0.000148034
0.000135768
0.0140548
0.000140052
0.0202427
0.000131196
0.000156955
0.0138209
0.000135572
0.00014124
0.000142695
0.000149399
0.000148982
0.0336112
0.000151231
0.0265979
0.000134346
0.000156518
0.0114152
0.00743598
0.000140355
0.000147972
0.0108166
0.0109181
0.000153094
0.000151134
0.00777797
0.0206235
0.000142288
0.00016737
0.000130643
0.000143453
0.000589217
0.0423648
0.000181047
0.00340088
0.000149094
0.000151716
0.00308354
0.000733256
0.000129067
0.0282084
0.00020345
0.000179671
0.0116605
0.000137204
0.000210967
0.000143039
0.00014892
0.000136781
0.000168216
0.000167831
0.000177494
0.000152636
0.000154305
0.000177224
0.0161209
0.000145608
0.0127782
0.00250739
0.0253639
0.000132827
0.000135678
0.0226571
0.000141087
0.00321416
0.000146347
0.000185126
0.0127967
0.000144704
0.00738743
0.000141554
0.0170086
0.000179722
0.000203261
0.00989429
0.000149336
0.000146898
0.0131236
0.00014552
0.00756693
0.000180569
0.000198663
0.00019684
0.000147801
0.000259019
0.000153447
0.000159433
0.00016711
0.00711169
0.000137277
0.000137181
0.010644
0.0122111
0.000183347
0.0361745
0.000152986
0.0001372
0.0213227
0.000173558
0.0268097
0.00368794
0.022654
0.000151711
0.000164723
0.000149487
0.0388942
0.000152997
0.00255728
0.000135414
0.000138205
0.000147364
0.0297053
0.00571489
0.000208042
0.000169695
0.000156328
0.000129065
0.00018776
0.000129589
0.0208594
0.012459
0.0268054
0.000129221
0.00015369
0.0262177
0.000162962
0.026341
0.000133439
0.000135453
0.000190868
0.0227316
0.000152522
0.022213
0.0223458
0.000155127
0.0260229
0.000200861
0.000166315
0.000143855
0.0017937
0.00331508
0.000134161
0.000177083
0.0245338
0.000138203
0.0123925
0.000192315
0.0210873
0.0264409
0.000150544
0.000143357
0.000132683
0.000132576
0.013624
0.000151663
0.000136883
0.0262056
0.000141267
0.00017194
0.00015013
7.48333e-05
0.000186455
0.000191442
0.000139113
0.000165694
0.000202065
0.000172439
0.000148011
0.000143227
0.000183912
0.0197993
0.00014328
0.000208259
0.0304682
0.0264208
0.00536392
0.000138936
0.000156429
0.0124462
0.0226892
0.000148929
0.000143048
0.0120846
0.00182079
0.0297986
0.000154386
0.00218653
0.00871134
0.000141852
0.025657
0.000203928
0.000148247
0.000144502
0.000133948
0.0113255
0.000141107
0.015137
0.000227807
0.0253157
0.000225063
0.0106744
0.0201763
0.00226405
0.00790067
0.000143973
0.0134377
0.000264848
0.000146026
0.000170188
0.000174033
0.000198465
0.0231209
0.000140107
0.000150327
0.000140987
0.00371128
0.000138573
0.000135252
0.000152947
0.000153281
0.000159218
0.0101583
0.000184897
0.000130675
0.000162159
0.000154811
0.000188081
0.000152077
0.000199141
0.0001532
0.0297491
0.0356998
0.000138393
0.0230696
0.000180842
0.026389
0.0243161
0.000152884
0.0131347
0.000143634
0.000546571
0.0264851
0.00014102
0.000141004
0.000144503
0.000140073
0.000155089
0.000160628
0.000142176
0.00349072
0.000148398
0.0245267
0.000155317
0.0062734
0.000135235
0.000140119
0.00133835
0.000141265
0.000143918
0.00014284
0.000202262
0.000161766
0.000147563
0.000164375
0.000140965
0.000183196
0.000134117
0.0128884
0.000143413
0.000165383
0.0227348
0.000147368
0.000201004
0.000187684
0.000141819
0.0113594
0.00013659
0.0320303
0.0290524
0.00517716
0.000179439
0.000138756
0.000188754
0.000193307
0.000143815
0.000162204
0.000167295
0.000170029
0.000155062
0.000138761
0.00526514
0.00693772
0.000144303
0.028333
0.00321704
0.000135338
0.000138847
0.000132093
0.000191157
0.00301005
0.000215372
0.000142277
0.000138746
0.00297638
0.000169935
0.0276089
0.0109496
0.000142599
0.000151544
0.000135896
0.00925503
0.0262669
0.00013618
0.000162882
0.00230321
0.0255365
0.000161347
0.000158788
0.000132352
0.000147126
0.0399463
8.35681e-05
0.000143424
0.037064
0.000138174
0.00752652
0.0257075
0.000168982
0.000190682
0.00246766
0.000145664
0.00425446
0.000166605
0.019352
0.00541553
0.000135373
0.0434503
0.0354919
0.00123189
0.00842761
0.000159477
0.0262559
0.028132
0.000162677
0.000135663
0.00365927
0.000688447
0.00654858
0.00018459
0.000148962
0.000104313
0.000142381
0.0257054
0.0245401
0.000206206
0.000157135
0.000148705
0.000142616
0.0141456
0.000138078
0.0199145
0.0104033
0.000178011
0.000142104
0.0137629
0.000142172
0.000176878
0.0246084
0.00684251
0.000150348
0.000147008
0.000146575
0.000143095
0.000207866
0.000142008
0.000170855
0.000186317
0.000145111
0.000130661
0.000201721
0.00709448
0.000138062
0.000135806
0.000142738
0.000152732
0.000155632
0.0220533
0.0216718
0.0192595
0.0104203
0.000143546
0.000142373
0.000177409
0.00023089
0.000135945
0.000188221
0.0171725
0.0134197
0.000268428
0.00059603
0.000179546
0.000162175
0.0367529
0.000138199
0.00219158
0.00020231
0.000132799
0.00562382
0.000151238
0.000187194
0.0256888
0.000332336
0.000161065
0.0108186
0.000142979
0.000141838
0.000130057
0.000158283
0.000142309
0.000146933
0.000141005
0.0271258
0.000159333
0.000142247
0.000161938
0.000152913
0.00299366
0.00831464
0.0284877
0.000142926
0.000135613
0.0444421
0.00019053
0.0029077
0.000143441
0.000153396
0.000143958
0.000148169
0.0126949
0.000156738
0.000138468
0.000143729
0.000200643
0.000138677
0.000168017
0.000136171
0.000136577
0.000151558
0.000197795
0.000178209
0.000164013
0.00013626
0.0124454
0.000255571
0.0144573
0.03772
0.000146905
0.00667418
0.000205155
0.000185692
0.0369979
0.000154196
0.00355771
0.000149977
0.000189069
0.0252889
0.000135371
0.000141426
0.0172291
0.000129992
0.010014
0.0386696
0.000138876
0.000183856
0.000135982
0.00014265
0.0157756
0.000134623
0.000136028
0.000135757
0.000132065
0.000159379
0.000143313
0.0264093
0.000135797
0.0127313
0.0122054
0.000148698
0.000141941
0.000139109
0.000136226
0.000153452
0.0138539
0.000135805
0.000180739
0.000157919
0.0308731
0.0254285
0.000150344
0.000203425
0.000172136
0.000130467
0.000134431
0.00411903
0.000130451
0.000132397
0.0178996
0.00701175
0.0260084
0.000143927
0.0439197
0.00474114
0.000130925
0.00017049
0.000144186
0.000141806
0.000132723
0.00014009
0.0284827
0.000142005
0.000143014
0.00459003
0.000151815
0.0131262
0.000157795
0.000147483
0.00514618
0.00013439
0.0120617
0.000131833
0.00015061
0.0366853
0.000141261
0.000135331
0.000142156
0.0155834
0.00631131
0.0001452
0.000141228
0.0001331
0.000159501
0.00679871
0.000199474
0.000147436
0.0105686
0.000517174
0.000142895
0.00552653
0.000130389
0.00124812
0.00155117
0.000131999
0.000157161
0.0297471
0.000164126
0.013718
0.000176567
0.000172826
0.0113048
0.000154752
0.0111025
0.000140676
0.012476
0.000143744
0.030365
0.000149571
0.000156505
0.000162309
0.000137871
0.0166461
0.00493404
0.0125981
0.000207882
0.000133742
0.0182083
0.000129464
0.000140061
0.0356719
0.000133165
0.024723
0.0174018
0.000130836
0.000154108
0.000177982
0.000200935
0.000135387
0.000188348
0.000166856
0.0058302
0.0270212
0.00014298
0.000144292
0.00013984
0.00013076
0.024113
0.000189461
0.00283762
0.000138671
0.00629224
0.0371382
0.000129179
0.000133188
0.0116333
0.0126599
0.0467372
0.000215453
0.012793
0.000209121
0.000180593
0.000196804
0.00628753
0.0463
0.000153442
0.000192682
0.000140145
0.000154377
0.000217128
0.0252614
0.000150052
0.000205857
0.00249566
0.000138783
0.000147877
0.000149461
0.000153522
0.000140126
0.000739423
0.000140137
0.0165781
0.000135066
0.0123338
0.00016466
0.00021916
0.000187047
0.000184422
0.0139892
0.00013701
0.000141725
0.000210283
0.000133665
0.0243125
0.000177966
0.000143193
0.000129841
0.0296411
0.000143736
0.00014924
0.00013868
0.000158267
0.00017687
0.000168384
0.00015472
0.00014137
0.00014542
7.8115e-05
0.000135608
8.49765e-05
0.000141217
0.000142804
0.000129779
0.0232834
0.000156672
0.0202764
0.000153212
0.000155923
0.000154253
0.0214861
0.000379715
0.000142401
0.0288683
0.000143097
0.000134967
0.000197696
0.0281845
0.00509959
0.0261089
0.000205147
0.00018806
0.000139914
0.000147162
0.000139368
0.014266
0.000171575
0.000128123
0.000236614
0.0376363
0.000138281
0.000137293
0.00550423
0.000149457
0.0291582
0.000293885
0.0392676
0.000135778
0.000160483
0.000141706
0.0295726
0.000150066
0.000133817
0.000154388
0.0215735
0.021553
0.0222365
0.0165684
0.000150132
0.000134937
0.000141681
0.0342968
0.000138499
0.000149203
0.000162214
0.000136475
0.000681024
0.00014125
0.000133493
0.000133598
0.000172721
0.000145113
0.000995304
0.000144436
0.000141721
0.0323247
0.000143097
0.000207688
0.0138714
0.000188671
0.000148836
0.0263296
0.00257015
0.000143923
0.00204573
0.000132425
0.00019361
0.000519527
0.0139504
0.000189314
0.000184199
0.000195344
0.000138791
0.000131493
0.000147508
0.000133528
0.000165961
0.0132291
0.000167824
0.00566719
0.000129463
0.0440687
0.000300822
0.00014758
0.000281578
0.000135945
0.00019786
0.000149955
0.0263706
0.000129747
0.0145181
0.000133323
0.000139553
0.000163965
0.0184811
0.0126027
0.000145985
0.0227601
0.0210773
0.000134926
0.00230099
0.000166893
0.00019862
0.00357685
0.000142511
0.0296669
0.000139585
0.000142823
0.0249558
0.000174089
0.000133092
0.000141894
0.000137242
0.000134053
0.000149275
0.0144008
0.000163757
0.0128348
0.000140165
0.000143893
0.000187492
0.0189143
0.0159827
0.0286072
0.0064603
0.00014853
0.000137199
0.000137525
0.00015767
0.000142974
0.000133761
0.0109916
0.0216179
0.0140052
0.000143691
0.000139262
0.0109479
0.000141278
0.000138888
0.000142788
0.000152617
0.000219225
0.0122207
0.000141075
0.000134001
0.00016662
0.000142405
0.0217437
0.000159951
0.00275936
0.000146609
0.000178995
0.000141507
0.000132351
0.000199133
0.000152515
0.00140704
0.000136526
0.00105604
0.000149996
0.0228712
0.000138698
0.0217402
0.000137196
0.000189263
0.000141832
0.000138817
0.000143777
0.000218705
0.00171993
0.000142532
0.000152372
0.000135343
0.0384638
0.000178792
0.000535502
0.000154681
0.000151355
0.000175363
0.00107626
0.000389861
0.0171949
0.000142778
0.000148449
0.015352
0.00477172
0.000129359
0.000206404
0.000152943
0.0001351
0.00979564
0.000140433
0.00398794
0.000145914
0.0147315
0.000140541
0.0273646
0.0338347
0.000131098
0.000146245
0.000130771
0.000148569
0.0016721
0.0133544
0.0039337
0.00606133
0.000140537
0.000202255
0.000142709
0.0322871
0.000130282
0.000579611
0.000134711
0.000213506
0.000141522
0.000138555
0.000152307
0.0169848
0.00282905
0.0157722
0.000191324
0.000181446
0.00350912
0.00019091
0.0210344
0.000143408
0.00015757
0.000152448
0.00013611
0.000135262
0.00019452
0.00609444
0.000454694
0.000158838
0.000144456
0.0335283
0.000143313
0.000185641
0.000250111
0.0323443
0.000155624
0.000136357
0.000135591
0.000146552
0.000143803
0.0249426
0.000188271
0.00013804
0.000153445
0.000176374
0.000155036
0.0173627
0.0123735
0.00732882
0.000143138
0.00352329
0.0307148
0.000177445
0.0268834
0.000137448
0.000139544
0.0230351
0.0389253
0.00515609
0.000136959
0.000158436
0.000131871
0.0266029
0.0385263
0.000135481
0.000155289
0.000137691
0.000144326
8.21029e-05
0.0388292
0.000139094
0.000137389
0.000155875
0.000143373
0.000135235
0.000162075
0.000138405
0.000150919
0.000135484
0.0205622
0.000136274
0.000188665
0.000134573
8.88927e-05
0.000137575
0.000163206
0.00013947
0.00013942
0.000135209
0.000143467
0.022477
0.000150939
0.0001811
0.000151485
0.0177644
0.000149279
0.000540575
0.000138567
0.00723733
0.000170462
0.0440227
0.00352891
0.025454
0.016974
0.000758976
0.000131877
0.0248966
0.000145971
0.000156673
0.00288177
0.000189208
0.000170984
0.0456459
0.000188232
0.000160551
0.000157644
0.00779382
0.000139582
0.000143383
0.000145662
0.000166167
0.000139392
0.000131866
0.00595828
0.000148122
0.000139672
0.000141193
0.0115215
0.00014914
0.000160337
0.0371776
0.0383222
0.00306871
0.000182854
0.0137678
0.000155297
0.018822
0.000135159
0.000180369
0.000170509
0.000147648
0.000135074
0.000290843
0.0397449
0.000179024
0.000162692
0.000149313
0.00014758
0.00203166
0.000161165
0.0214313
0.000149643
0.00014207
0.000144288
0.000143719
0.000145795
0.000139945
0.000166166
0.000144005
0.000146487
0.000157583
0.000149776
0.00014186
0.000148461
0.00174361
0.0202221
0.000158808
0.000202889
0.0107996
0.000187763
0.000165702
0.0269217
0.000170704
0.000139204
0.000144922
0.000206205
0.000134839
0.00013185
0.000159091
0.00391929
0.000131839
0.000137328
0.000152837
0.000156081
0.000142969
0.000157341
0.000157567
0.00269211
0.0180116
0.00381194
0.000131912
0.000138657
0.0208893
0.023539
0.000185328
0.00308447
0.037471
0.000159017
0.000148342
0.000143435
0.0139212
0.00638844
0.000139752
0.00016917
0.00392501
0.001867
0.0249874
0.0288143
0.000149739
0.000400469
0.000158875
0.000186846
0.000142045
0.0431925
0.0002057
0.000151398
0.000142551
0.000146349
0.000184604
0.000128003
0.0001319
0.000235974
0.000216965
0.0111075
0.0284567
0.0267364
0.000143636
0.038829
0.0237602
0.000406268
0.0359779
9.63606e-05
0.0289358
0.000380959
0.000143751
0.000350101
0.000209973
0.000142213
0.022653
0.000144528
0.0191251
0.000141118
0.00017076
0.000190815
0.0316853
0.000142146
0.000427604
0.00017393
0.000178697
0.000141289
0.000142146
0.00617284
0.0210186
0.000155024
0.00432471
0.000135934
0.000168601
0.000143277
0.000167154
0.0275183
0.00379755
0.0233025
0.0262643
0.00765865
0.00015449
0.0250726
0.000152245
0.000130047
0.0224191
0.00367463
0.0001348
0.000149744
0.000145948
0.000149153
0.0016598
0.00013812
0.0263174
0.000187992
0.0039473
0.000148266
0.00021476
0.000172529
0.0209227
0.000179429
0.00459963
0.00604511
0.0243804
0.000154952