/*--------------------------------*- C++ -*----------------------------------*\
| =========                 |                                                 |
| \\      /  F ield         | OpenFOAM: The Open Source CFD Toolbox           |
|  \\    /   O peration     | Version:  v2012                                 |
|   \\  /    A nd           | Website:  www.openfoam.com                      |
|    \\/     M anipulation  |                                                 |
\*---------------------------------------------------------------------------*/
FoamFile
{
    version     2.0;
    format      ascii;
    class       volScalarField;
    location    "200";
    object      p;
}
// * * * * * * * * * * * * * * * * * * * * * * * * * * * * * * * * * * * * * //

dimensions      [0 2 -2 0 0 0 0];


internalField   nonuniform List<scalar> 
37190
(
-0.00588595
0.000467063
-0.0120462
-0.00523222
-0.00998504
-0.00829964
-0.0408103
-0.0045049
0.00182219
-0.0443779
-0.0864613
-0.00905937
-0.0786959
-0.0319729
-0.0742231
-0.0164897
-0.0121271
-0.00716407
0.000946874
-0.0262416
-0.0338322
-0.0145324
-0.0062527
-0.0611544
-0.0089261
0.00153406
-0.0775125
-0.0456093
-0.0778871
-0.0190834
0.00833138
-0.00475914
0.00216249
-0.00861416
0.00260095
-0.031426
-0.0777466
-0.0245512
0.000938554
-0.0126436
0.0219473
0.000102065
-0.016023
-0.00505336
-0.0767012
-0.0185044
-0.0765844
-0.00704963
0.00116371
-0.0191477
0.00218973
9.53654e-05
-0.0210795
-0.0565688
0.000380076
-0.0093578
9.82766e-05
-0.0036342
0.00385765
0.00911544
-0.00413241
-0.074538
-0.0346723
0.00154091
-0.08828
-0.0306503
-0.0016156
-0.130742
-0.0757806
-0.101163
0.000984452
0.0181906
0.00269919
-0.00636249
0.00253145
0.00223006
-0.0101736
-0.0818327
0.0022566
-0.0767093
-0.0791038
-0.00584042
-0.0982006
0.000538683
-0.100336
-0.0101326
-0.083226
-0.022586
-0.041084
-0.024112
0.000617191
-0.0841527
0.00226883
0.00171764
-0.0119543
-0.0187172
-0.0261106
-0.0321087
-0.0169137
0.00249553
0.0058536
-0.00944573
-0.02338
0.00047345
-0.0782532
0.00134813
-0.00704315
-0.0524916
-0.0427016
-0.00733418
-0.0146832
0.00254445
-0.00571561
0.00254797
0.0176326
-0.00515218
-0.078135
-0.0832167
-0.0189797
-0.0338697
0.00945567
-0.0835418
-0.022316
0.00220485
-0.155226
-0.0318556
-0.0864393
-0.0226914
-0.0835488
0.00566232
-0.0765857
-0.00606326
0.00171579
0.00402061
0.00143222
0.0283953
0.00268579
0.00429844
-0.00043258
-0.0126161
-0.100877
0.00853417
0.00302988
-0.0181389
-0.0267524
0.00199634
-0.0344686
-0.0436834
0.00197838
-0.101492
-0.00673266
5.69097e-05
0.000533556
-0.0555887
-0.0749846
-0.00637694
-0.074829
-0.013975
0.00931232
-0.073807
-0.00217672
-0.0196826
0.00325141
0.00235015
-0.0773331
-0.0341232
-0.0407642
-0.0934012
-0.0196062
-0.103749
-0.16077
0.00182517
0.00299346
0.00195832
-0.0419687
-0.0994933
-0.0604449
-0.0252091
-0.0235558
-0.0428804
-0.055187
-0.00950403
-0.0277836
-0.108076
-0.0327484
-0.118002
-0.00618874
-0.0444361
-0.0270845
-0.0418976
0.00196083
-0.0811219
-0.0096742
-0.022875
0.00195234
-0.0978444
-0.085209
0.00181347
-0.0761569
-0.0125178
0.00137519
-0.0654008
-0.00585379
-0.00660803
-0.0137358
0.00475576
-0.0051403
-0.0139526
-0.08279
-0.0408974
-0.00553942
-0.00512623
0.00488356
-0.0198224
-0.0785221
-0.037852
-0.00512955
-0.0062429
-0.115152
-0.00505366
-0.0463959
-0.00535088
-0.0279545
-0.0858116
-0.0759902
-0.0270095
-0.0808055
-0.0930283
-0.0247745
-0.108257
-0.0508964
0.0026501
0.000514393
0.00133592
-0.00503182
0.0026848
-0.0759764
0.000506699
-0.011424
-0.055372
0.00192611
-0.0399976
-0.0554978
0.00102069
-0.0991209
-0.117721
-0.00504456
-0.010202
-0.119156
-0.012702
-0.0307148
0.00278989
-0.0548355
-0.0335146
0.00191262
-0.0443448
0.00211859
-0.00558451
-0.0113884
0.000277557
0.00392836
-0.0739623
0.00482992
8.24904e-05
-0.0174299
-0.0246563
-0.0134736
0.0033463
0.0020889
0.0117908
0.00202009
-0.0249326
-0.022162
-0.0410425
-0.00888396
-0.0415873
-0.0121847
-0.00665545
-0.0418807
0.0011997
0.00209952
-0.0383967
-0.00648295
0.000527259
-0.115734
-0.00526239
0.00115256
-0.0248358
-0.0155684
0.00154361
-0.0202235
-0.0203285
-0.00503836
-0.0919393
0.00155726
-0.0916304
0.000774598
-0.00895176
-0.0407637
3.16303e-05
-0.00510239
-0.0305269
-0.0171334
-0.0926318
0.00233433
0.00234108
0.00105074
-0.0152582
-0.0761014
0.0172263
-0.0905693
-0.0846787
-0.086813
-0.0184006
0.00185775
0.00193188
-0.010604
0.00246825
-0.079167
-0.0063574
-0.08225
-0.0832439
-0.01529
-0.0181962
-0.027308
0.00348711
-0.0197072
-0.128452
-0.0403892
0.00210069
-0.0178064
-0.063128
-0.0415212
-0.0782547
-0.0209409
0.00210125
-0.0133138
-0.000909389
-0.0102201
-0.0139861
-0.0137741
-0.00642138
-0.050862
-0.0205216
-0.141025
0.00237944
-0.0864472
0.0017968
-0.0139498
-0.127948
0.00396577
0.00243437
-0.0178599
5.68907e-05
-0.0664389
-0.0158973
0.000730957
0.00178585
-0.0768267
-0.0603771
-0.0776164
-0.10922
-0.0129278
-0.0761414
-0.0754998
-0.115195
-0.0239484
-0.0569161
0.00154236
-0.0880909
-0.0203761
-0.00771489
-0.0801426
-0.174047
0.00063018
0.000702613
-0.0991522
-0.0729095
0.00314753
0.00153183
0.00111241
-0.0808648
-0.0148985
-0.00040649
0.0046461
-0.0603561
0.00201796
0.00172832
0.000193972
-0.0203986
-0.0740842
-0.0220692
0.00284981
0.00114246
-0.0837636
0.00362638
-0.128915
-0.0796472
-0.0787282
0.00188734
-0.0895909
-0.115986
4.94189e-05
-0.0403895
-0.0780088
0.000142106
-0.0854051
-0.0825498
-0.075455
0.0016035
-0.0232946
-0.0177007
0.00241389
-0.0421942
-0.0524668
-0.0983547
0.00797464
0.00279834
-0.102209
-0.0105093
0.00165501
-0.00572196
0.027479
-0.0186108
-0.0199442
0.000444498
0.00170566
0.00132207
-0.185808
-0.0731597
0.00046367
0.00220022
0.0014216
0.00399262
-0.0833988
-0.0247416
-0.0539402
0.002296
-0.0549504
-0.0534572
-0.0126911
-0.00451827
-0.0798751
0.00521781
-0.0525615
-0.110159
-0.0628212
-0.0659167
0.00260262
-0.0349003
-0.0420033
-0.0214843
-0.0680816
-0.0339912
-0.086769
0.00733813
0.00210771
-0.013966
0.00184327
-0.0832757
0.00143667
-0.0656301
-0.117977
-0.0048179
-0.0663001
0.00181738
-0.018583
-0.0737643
-0.00974478
-0.0290577
-0.0047447
-0.0218292
-0.0205851
-0.0036891
-0.0781428
-0.0184732
-0.024541
-0.0369381
-0.0200471
0.00341791
-0.05573
-0.0230532
0.00186213
-0.0154503
0.0107507
-0.0560035
-0.0996388
-0.0382397
-0.111874
-0.00973925
-0.0793221
-0.0858696
0.0110739
0.00195029
-0.0672933
0.00359359
0.00207591
0.00173185
-0.00769705
0.00222421
-0.0132355
-0.0300677
-0.0786899
0.0101577
0.00275019
0.000519695
0.00269859
-0.0123581
-0.0293156
-0.00546992
-0.0324842
0.00198108
-0.00980274
-0.00314869
-0.0422972
0.0037018
-0.108941
-0.00482002
-0.0197805
0.00345631
-0.0189604
-0.0601359
-0.0508344
-0.0316763
-0.0183068
-0.0137343
-0.00785766
0.0143298
0.00186325
-0.00427494
0.00194972
-0.0384623
-0.030003
-0.0079806
-0.0193689
-0.00532924
0.00263251
-0.0136143
-0.0150082
0.00160322
0.00210604
0.0101432
-0.00956783
-0.0866972
0.000700648
-0.088024
-0.0180404
-0.00857385
-0.000586692
0.00176348
-0.0861583
-1.98924e-05
-0.00637094
3.20917e-05
-0.0815045
-0.0198464
-0.025329
-0.0461982
0.00343851
-0.00483467
-0.00699272
-0.16956
-0.00524036
-0.00550288
-0.0724012
0.00377248
-0.12992
-0.0814473
0.000414559
-0.0955895
0.000151695
0.00305699
-0.00610961
-0.0160455
-0.0460382
-0.0828183
-0.0541483
0.00092044
-0.00230823
-0.0441826
0.00209481
-0.0104724
-0.00566245
-0.024989
-0.128213
0.000501598
-0.0210546
-0.00234898
-0.0129096
-0.0647606
0.012237
0.00162165
-0.0420284
-0.00118063
-0.00176517
0.0256224
0.0102943
-0.00160966
-0.000135211
-0.0104355
-0.0220444
-0.0120537
-0.0073684
0.0110917
-0.0519372
-0.0562749
0.00215335
-0.10272
-0.028052
-0.0188111
0.00157477
-0.0919005
-0.0130683
0.00125813
-0.0334607
-0.124842
-0.0103895
-0.0134148
0.00093102
-0.0831016
-0.0510293
0.00695367
0.000676118
-0.0184413
0.00210138
0.00304695
-0.0897954
-0.0419151
0.014576
0.00279165
-0.0115161
-0.00115268
-0.0789725
-0.0739108
-0.0830862
-0.00261202
-0.08245
0.0101159
0.00270158
0.00227684
-0.0655817
-0.0780523
-0.0536165
-0.0187059
-0.009973
-0.129234
-0.0229641
6.59362e-05
0.000291184
-0.0051921
0.000440335
-0.0120707
-0.0831592
-0.0889953
-0.00979072
-0.0782435
-0.000872994
0.00461109
-0.0503081
0.00126853
-0.00601594
-0.0831123
0.0187953
-0.0467112
-0.0978941
-0.0252898
0.0037696
-0.00569847
-0.0250325
-0.0199689
-0.00994182
0.00195956
-0.0148208
-0.0856083
-0.075296
-0.000717094
-0.000602346
0.0029067
-0.0173065
-0.0324914
0.00336556
-0.0813532
0.000689662
-0.0527734
-0.0192212
0.000780563
-0.0204605
-0.0192899
-0.0595557
0.0107932
0.0019252
0.00360508
-0.0414407
-0.103643
-0.0154072
-0.000620234
-0.00341931
-0.00658847
0.00174114
-0.0589152
0.000767794
0.000246032
-0.07877
0.000575518
-0.0503374
0.000910835
0.00200051
-0.0722587
-0.077372
-0.000964593
-0.0413847
0.00091371
-0.0796985
0.0145535
0.00136981
-0.0236797
0.0025806
-0.00995213
-0.0929535
-0.0781131
0.00398492
-0.00313448
0.00160452
-0.0316039
0.000126114
-0.0567898
-0.0284916
-0.0685711
-0.0476455
-0.129178
0.00222791
-0.0806218
-0.0313021
-0.0153516
-0.0590709
0.00364222
0.0111777
0.00266834
-0.0405268
0.00105774
0.000880505
0.00191904
0.00339332
-0.0537427
-0.128169
-0.0100956
-0.0755949
-0.0916636
-0.0500577
0.0035688
-0.00915957
0.00220914
0.00305335
0.000877177
-0.00837741
0.0020201
0.0133773
-0.0167866
-0.115614
-0.00557961
-0.114523
0.00529398
-0.00281479
-0.0118716
0.00222383
0.00159175
0.00345327
0.000167232
0.00133
-0.0012089
-0.0189727
0.00314978
0.00359172
0.00578848
0.00193564
-0.0425871
-0.000108806
-0.000458005
-0.0259753
-0.0465083
0.0017271
0.000998381
-0.0195966
0.0267662
0.000967995
-0.0832379
0.00640379
-0.0202026
0.00551341
-0.0182616
0.00161425
0.00271736
0.00163933
-0.0117108
0.00150244
0.00239082
-0.0196665
-0.0036935
0.00228878
-0.0069226
-0.0626397
0.000587805
0.00242656
0.00177737
0.00167881
-0.0417325
-0.0821583
0.000462753
-0.0993335
0.000936577
-0.000434146
-0.0238777
-0.000715268
-0.112472
-0.0244314
-0.00262803
0.0013406
0.00261878
-0.0584173
0.00356565
0.00617377
-0.0541422
-0.0118412
-0.135831
-0.0408602
-0.18428
-0.0254608
0.00130578
0.00508975
0.000727013
-0.109137
-0.00583427
-0.0164751
-0.0803917
-0.0385827
0.00623823
0.00225241
0.000998412
-0.0153783
-0.0759127
-0.0133304
-0.0877675
0.00301488
-0.0235054
0.00233603
-0.0865192
-0.0238066
0.00090837
-0.0404799
-0.0606207
-0.00197828
-0.000211312
0.00375111
0.00518494
0.000464689
-0.0221161
-0.0373335
-0.0168958
0.00364482
0.00270186
-0.0931167
-0.00933818
0.00204895
-0.0533155
-0.0470855
-0.0902359
-0.0895187
-0.0895895
-0.0766375
0.00150223
-0.0303781
-0.0150623
0.00466817
-0.000837205
-0.0122287
-0.0198608
-0.0183631
-0.146334
-0.00226337
-0.00431405
-0.0167355
-0.0797814
-0.00849427
-0.0112214
-0.0141265
0.00215681
-0.0913079
-0.00432918
-0.0829075
-0.0133961
0.00200563
0.00197197
-0.0272343
0.000157624
0.00214377
-0.0249192
-0.00906908
0.00215602
-0.031694
-0.0146782
-0.0234554
-0.00721125
0.00245113
-0.0298072
0.00195388
0.000562292
-0.0948746
-0.0541392
0.0014401
-0.0310026
-0.00295591
-0.0685374
-0.145029
-0.0305623
-0.0194599
-0.00575665
-0.015245
-0.0464169
-0.00379443
-0.0370314
-0.0805102
0.00240981
-0.124129
-0.0912967
-0.00635016
0.000313332
0.00214373
-0.136629
-0.108831
0.00057584
0.000698787
-0.148695
0.00197241
-0.089071
-0.0233162
-0.0229656
-0.0654735
0.00197515
-0.08809
0.000986251
-0.106521
0.0283385
-0.027577
0.00240314
0.00471507
-0.0252872
-0.0246692
-0.0436194
0.00170668
-0.0227268
-0.0772619
-0.0265117
-0.00909674
-0.025019
0.0034433
0.0017353
0.00181182
-0.0652505
-0.0324437
0.00172271
-0.0427932
-0.0302992
-0.0799102
-0.0774579
-0.0102026
-0.076296
-0.0680889
-0.0497219
-0.0163831
-0.111386
-0.0373324
-0.032677
-0.0322452
-0.0107898
0.00173104
0.00152667
-0.0197689
0.00151203
-0.0346237
0.000605052
-0.0118508
0.00360211
-0.00657685
0.00174579
-0.00888339
-0.00283219
0.00090663
-0.0342757
0.00162368
0.00211627
-0.0686105
-0.0191699
-0.0782318
-0.0433695
-0.0523373
0.00772052
-0.0036188
0.00186173
-0.00498533
-0.0193411
-0.0184949
-0.087048
-0.000855452
-0.00812616
-0.00255038
0.00209816
-0.064214
-0.0183175
-0.000670001
-0.047309
0.00194711
-0.0326119
-0.0869595
-0.117019
-0.0805141
-0.0250862
0.0051708
0.00126075
0.00201047
0.0028856
-0.014906
-0.0372848
-0.00283556
-0.082675
0.00193822
-0.00685172
0.00100463
0.00195405
-0.0219669
0.00144559
-0.0533682
-0.0497714
-0.00753869
0.00164473
0.00125957
0.00142461
-0.0199991
-0.0562701
-0.00807734
0.00149469
-0.00702054
-0.0723243
0.00222165
-0.0937725
-0.0774616
-0.0175948
-0.0139196
-0.00309576
0.000282104
-0.00107725
0.00169499
-0.0175957
0.00219945
0.00494716
0.00976166
0.00552189
-0.107684
0.00164616
-0.0116362
-0.00708208
0.00362318
0.00241825
-0.0473733
0.00261928
-0.0807275
0.000735677
-0.0619952
0.00150143
-0.0780307
0.00261702
-0.0523271
-0.044986
-0.00714823
-0.00394212
-0.0480687
-0.00990741
-0.127984
-0.00481107
0.000904724
0.00281837
-0.00021819
-0.00950458
-0.0150808
-0.00579766
-0.0261508
-0.0144628
-0.00699955
-0.0243322
0.00129001
-0.0730189
0.000360702
-0.0741306
0.000242381
0.00261925
-0.00862182
-0.0174472
-0.0280843
-0.0180467
0.00284408
-0.0167459
0.000754051
-0.00699421
-0.0674563
-0.0813982
0.000878425
-0.0314195
-0.120169
0.0230385
0.00212461
-0.0511534
0.000637476
-0.0355377
-0.0164252
0.0272016
0.00264379
-0.125717
-0.0777225
0.00187922
-0.0438165
-0.0341348
0.0090063
0.000125907
0.00154049
-0.111257
-0.00392373
0.0020559
0.00200538
-0.00108736
-0.00578708
-0.0571744
-0.072892
-0.0845288
-0.0952463
0.00200719
-0.162305
-0.00827821
-0.00505168
-0.00590967
-0.0114235
0.00200984
-0.0268325
-0.0857146
-0.127237
0.000570114
-0.00966833
0.00940375
0.00165095
-0.0890534
-0.0145811
-0.00998368
0.00527472
-0.0283097
0.00190711
-0.076707
-0.059797
-0.0144701
0.00189654
-0.0758191
0.00144594
-0.0834732
-0.0320891
0.00158083
0.000500817
-0.00022111
0.00190956
-0.00561941
-0.0745529
-0.127543
0.00178478
-0.00960763
0.000373214
0.00140912
-0.00319501
0.00104399
0.0252104
-0.0750401
-0.120129
-0.00596689
-0.0923371
-0.112124
0.000930794
-0.0654633
0.00304869
-0.000559821
0.0103912
-0.0269535
-0.0140847
0.000661439
0.00254764
-0.113358
-0.00890918
-0.0775546
0.00870376
0.00353857
0.00701094
-0.000473126
0.00753492
0.0237327
0.00156288
0.00561039
0.00103833
-0.0837786
-0.0735852
7.40979e-05
-0.0095683
-0.0587412
0.00343852
0.00201595
-0.0164712
0.00129075
-0.00594513
-0.0898389
-0.0333263
-0.0135814
-0.0104122
0.00208268
0.00373504
0.000843483
-0.0265735
-0.101382
-0.0311394
-0.0206663
0.00125466
0.00843632
0.00206547
0.00149731
0.0012256
0.00199825
0.00523517
-0.0417488
0.00208336
0.00179385
-1.31114e-06
0.00454694
-0.0854193
-0.0306687
0.00173599
0.00118662
-0.078004
0.0018782
-0.0144085
0.00176547
0.00151739
0.00159534
-0.0460329
0.00186939
-0.0319855
-0.0104724
-0.0763045
-0.0383554
0.00136819
-0.00974626
0.000415265
0.00201287
0.00202908
-0.0138405
-0.0271709
-0.0299512
-0.0201312
-0.0260013
-0.0101981
-0.00412302
0.00751776
0.00203253
-0.00688368
-0.0766971
-0.058907
-0.0589098
-0.00669834
-0.0854174
0.00162206
-0.0193454
-0.0556028
-0.00587764
-0.0172834
-0.074157
0.00016611
0.00202037
-0.119818
-0.0764727
-0.00209761
-0.00221278
-0.0118267
0.00158217
0.000153014
0.00158899
0.00355893
-0.020985
-0.0149113
0.00160941
0.00175425
0.00203151
0.0255421
-0.0033627
0.000795783
-0.0478474
-0.0350237
-0.0816024
-0.000933613
-0.0879676
0.0016016
-0.0649849
-0.0249581
-0.0461234
-0.0114012
0.00240176
6.3695e-05
-0.0942268
-0.0426411
-0.0159659
-0.00240847
0.00353921
0.00216126
0.00163197
0.00133606
-0.019539
0.00267958
-0.00265797
-0.0770784
0.00189737
0.000243642
-0.102173
-0.00992697
0.000791109
-0.114425
0.00119218
0.00383341
0.00102939
-0.076444
0.00378537
0.00292998
-0.0799654
-0.000442321
-0.0089178
0.00162892
-0.0150195
-0.0583042
0.00639323
-0.151782
0.00154221
-0.0095158
-0.013573
-0.0757767
-0.0244009
-0.0778616
0.00182334
0.00314935
-0.0158447
-0.0150794
-0.0798444
0.00587573
-0.00466067
0.00183473
0.00330983
-0.00599375
-0.00907374
-0.0261305
-0.00958153
-0.00492442
-0.0364637
-0.0871698
-0.0358195
-0.0910351
0.00224111
-0.0525979
0.00109007
-0.0287505
0.00119893
-0.00481481
0.00542083
-0.00287343
-0.157255
-0.0843854
-0.0108616
0.0010066
-0.00104388
-0.0746177
-0.075141
0.0019203
-0.0891349
0.000300773
0.00216232
0.00535495
-0.0473828
-0.00630035
-0.00885606
0.001394
0.0137416
-0.0101037
-0.0015869
0.0132076
-0.0769199
0.00133383
-0.010456
-0.00512143
-0.00920279
-0.00508801
-0.00821761
0.000458037
-0.00585412
-0.0152072
-0.00495592
-0.0685837
-0.00892061
-0.0588822
-0.0821449
-0.00908029
-0.0148902
0.00194534
-0.00956471
-0.0745898
-0.019164
0.000469356
-0.105721
-0.00511358
0.00202816
-0.046866
-0.00582672
0.00999431
0.00118903
-0.019644
-0.152592
0.00201408
0.00227568
0.00235928
-0.0266464
0.00129694
0.00610147
0.00139466
0.0183935
-0.0376153
-0.0423811
-0.0572856
-0.0982861
0.00189708
0.0013248
-0.0404637
-0.127294
0.00103908
-0.0091929
-0.0333496
-0.0721454
-0.00614284
-0.0649847
0.0010925
-0.00468852
0.00794583
0.0160503
-0.0538989
-0.0279315
0.00278734
0.000823442
-0.00499974
0.0013673
0.000888152
-0.00837136
0.00777814
-0.0218333
-0.0793112
0.00205855
-0.0802866
-0.00484648
0.000145678
0.00185592
-0.0655286
-0.00807467
-0.00616453
-0.032167
-0.0055868
-0.0662746
-0.00269371
-0.00535819
-0.0957773
-0.0206024
-0.0100319
0.0017789
0.00188793
-0.0486704
-0.0100924
-0.00524332
-0.0232185
-0.0753458
-0.0162029
-0.0100389
-0.0327993
-0.0051183
-0.0375806
-0.00633157
-0.0108717
-0.0136808
0.00201367
-0.0111641
-0.0402797
-0.00516343
-0.0340262
0.00512256
-0.0780972
-0.0485548
0.00285456
0.000249465
-0.00547169
-0.0305645
0.00637343
-0.0872707
-0.00041914
0.00206325
-0.16948
-0.131463
0.00757619
-0.0818173
-0.00423148
0.00158124
-0.0923051
-0.0476389
0.0161572
-0.00604503
-0.0717936
0.00078219
-0.0590737
-0.00764331
-0.0839226
-0.0287426
-0.00231525
0.00175721
0.0019434
0.00269784
-0.080154
-0.0227144
0.00190451
0.00410493
0.00223997
0.000877896
-0.0110095
2.88259e-05
-0.125282
-0.0735654
-0.120792
0.000192424
0.00227325
-0.0765805
-0.0359993
-0.0167535
9.83829e-05
0.00176151
-0.0595782
-0.0976368
-0.012925
-0.0501316
-0.0327533
-0.000119849
-0.00790784
-0.0669084
-0.00883069
-0.0171837
-0.0209048
-0.00541634
0.00167089
0.00824239
-0.100352
0.00195959
-0.0255742
0.0103419
-0.123639
-0.0848379
-0.0114193
0.000963603
0.00180083
0.0017906
-0.0833626
0.00218408
0.00155393
-0.03636
0.00156099
-0.0476196
0.00299891
-0.081074
0.00818991
-0.0320891
0.000309569
0.00207822
-0.0165798
-0.0552256
0.000234148
0.000841224
0.00538109
0.0113522
-0.00170835
-0.0115031
-0.0852955
-0.0483403
0.000204943
-4.33222e-05
0.00239181
-0.0500667
-0.0464397
0.00116454
-0.0150255
-0.0430428
-0.00709607
-0.00914606
-0.0348924
0.00465484
-0.00659352
0.0020443
0.0255905
-0.0160731
0.00170872
0.00210316
0.00190352
-0.0781333
-0.0101693
-0.0502167
0.00513656
-0.0811754
-0.0174232
-0.18458
-0.0761257
-0.0797309
-0.0686037
0.00113424
-0.119901
0.000979168
0.00262424
-0.044756
0.008363
-0.0777009
-0.031932
-0.00602561
0.00221551
0.00156363
-0.00467571
0.00185615
0.00134846
-0.00252184
0.00380128
-0.00347193
-0.0112171
0.00894062
0.0013805
0.0020715
-0.0316064
-0.0589107
0.000593098
-0.0785711
-0.00547712
-0.089418
-0.0977641
0.00185899
-0.112685
-0.0794572
-0.0963013
-0.0908019
0.00368663
-0.0431512
0.0011377
0.0290696
-0.106702
-0.00986881
0.00206724
-0.0111182
-0.00610615
-0.0264855
-0.0477466
-0.00059717
0.0040698
-0.0245128
-0.0715108
-0.0266245
-0.00255672
0.00139157
-0.00664546
0.00501476
0.00160058
-0.0105883
-0.00481332
0.0116193
0.00200512
0.00166819
0.00214602
0.00175078
-0.00649804
0.00168377
-0.0222308
-0.0146569
-0.0595038
-0.073894
0.00167595
-0.00263282
-0.054289
-0.00499626
-0.180036
0.0015563
-0.00040883
-0.00954709
-0.0429574
-0.0597632
0.00195293
-0.0734275
-0.0475125
-0.0169954
-0.0485276
-0.0182659
-0.00829031
0.00360145
-0.000430955
5.94394e-05
-0.11407
-0.0187835
-0.102771
-0.0215988
0.0013924
-0.000366445
0.00173979
-0.0297292
-0.0249294
-0.0798981
0.00144967
0.0019695
-0.00682427
0.00669253
0.00397702
-0.0791015
-0.00214571
-0.0103942
0.00167164
-0.00340177
-0.0471609
0.00204836
-0.0481041
-0.0233863
-0.0701938
-0.0517221
0.00363713
0.000129249
-0.0247278
-0.0842012
-0.0830838
0.000273994
-0.0961877
0.00097227
-0.0337096
0.0214919
0.00525918
-0.0143553
-0.00598021
-0.0138501
0.00285575
-0.0602003
-0.12956
-0.0445093
0.00141647
0.020115
-0.078235
0.00268056
-0.0172445
0.00372569
-0.0752048
-0.00494672
-0.0561094
0.00190103
0.00340387
0.00313653
-0.0239754
-0.077322
-0.00339358
-0.0831497
-0.00215067
-0.0200356
0.0182341
-0.000718959
-0.0055364
0.000976982
-0.00456934
-0.0421617
0.00208648
-0.0910572
-0.0924185
-0.0515772
-0.000311859
-0.0792429
0.00171882
-0.0642164
-0.109028
-0.0256601
-0.0337755
-0.00451778
0.00205725
0.0020799
0.00705561
-0.00923184
-0.0547331
0.00302291
-0.0179382
0.00113485
-0.0224584
0.00265308
0.00209139
0.00117208
0.00208764
-0.00549904
0.00240176
0.0258923
-0.0542259
-0.128944
-0.0875205
0.000943936
0.00234799
-0.0096657
0.00827189
0.00120187
-0.0728996
-0.051536
-0.0417079
0.026009
-0.00758111
-0.0228774
-0.0431382
-0.0951893
0.000954338
-0.00151287
-0.06796
0.00154281
-0.0268999
0.00151054
-0.0585102
-0.0942024
0.00179845
-0.0507674
-0.0898799
0.00239939
0.00198604
0.00110112
-0.040257
-8.44835e-05
0.00274174
-0.0099025
-0.117407
0.00355575
-0.0116269
-0.0414716
0.00171313
0.00761856
-0.013199
-0.00549412
-0.0146042
0.00134262
0.0340982
-0.0584364
-0.0124451
0.000607472
-0.0286945
-0.00518435
0.00247536
-0.116228
-0.0499238
0.0003046
0.000331794
-0.0181637
0.00082825
-0.0187265
0.000751548
0.0016359
0.000848216
-0.0128181
-0.0440737
0.00285305
0.000834444
-0.0226449
0.00190018
-0.0420989
0.0337941
0.00273219
0.00134259
-0.0610297
0.00679993
-0.08412
0.000148156
0.00727913
-0.00986893
0.00754645
-0.0650178
0.00146897
-0.00508617
-0.0834255
0.00107956
-0.0194715
-0.0839271
0.0021413
-0.033857
0.00167227
-0.00147744
-0.0551699
0.00178842
0.000809407
0.00131615
0.00145602
-0.0450005
0.00160372
-0.0216781
0.00123346
-0.037132
-0.0873419
0.00285023
0.00137047
0.00216241
0.00157743
-0.00889954
-0.0409481
0.00164906
-0.0744722
0.00314933
0.00704777
-0.093446
-0.0333664
0.00255657
-0.046692
0.00119151
0.00165142
-0.0223043
0.000115022
9.06269e-05
-0.129437
-0.0819518
-0.0567136
-0.0177298
0.035396
-0.023814
0.00128019
-0.0467257
-0.00474999
-0.0123025
0.0015231
-0.00638111
0.00524605
-0.0121201
0.000726414
0.00368351
-0.0367704
-0.100973
-0.0016471
-0.00427019
0.00703023
0.00166321
-0.0409636
0.00172471
-0.00457456
0.0371063
-0.00919306
0.00134446
-0.000494568
-0.120443
-0.0205543
-0.0181368
-0.00905331
0.00156921
-0.0347818
-0.0300071
-0.0813947
0.000171319
-0.0825766
-0.00814304
-8.69589e-05
-0.0157681
0.00116776
-0.0192388
0.00478497
0.00143887
-0.025638
0.0238205
0.00218193
-0.0755408
-0.0116143
-7.11632e-05
-0.092626
-0.0341504
-0.0113307
0.00176576
-0.0297192
-0.010442
-0.0777397
-0.0309039
-0.0430147
-0.0552762
0.00213587
-0.0522798
-0.0234675
-0.0446994
-0.0774508
0.00169463
-0.0917976
0.00108729
-0.00244926
-0.0852903
0.00182243
-0.094345
-0.131443
0.00125631
-0.0289901
0.00985873
-0.0677932
0.00132063
-0.0552506
-0.0572356
0.00529797
-0.0177905
-0.0146473
0.00112455
-0.00277935
0.000176567
-0.103647
-0.0233096
-0.00532472
0.00210637
-0.043706
-0.0908917
0.000502027
0.00157974
-0.0862284
0.00347146
-0.0791821
-0.0800163
-0.0738768
-0.0782637
-0.0752482
0.00352272
-0.0228557
-0.0764167
0.000754888
0.00247934
0.00159993
-0.0280747
0.00366138
-0.00663797
-0.0199001
-0.0533966
-0.0202864
0.000672258
0.00208436
-0.0191206
0.000683881
-0.0063002
-0.0102138
-0.0799378
-0.100986
0.00182937
0.00422452
-0.0597178
-0.012355
-0.00916643
-0.0461471
-0.0817334
0.00159068
-0.0121258
-0.0801766
0.00169978
-0.0586845
-0.0450591
-0.0146577
0.000912449
-0.0104537
0.000584779
-0.00310106
0.00211143
-0.0337147
-0.0219209
-0.00842482
-0.00718554
-0.0048857
-0.0058306
-0.0600664
0.00162967
-0.083115
-0.00998046
-0.00459963
0.00118162
-0.0487075
0.017558
-0.0875169
0.0012543
0.000121851
-0.000708969
-0.0700002
0.0188899
0.00190767
-0.0814381
-0.0144083
0.00152666
0.00742558
-0.00651122
-0.00366787
-0.0608684
-0.00169973
-0.056922
-0.00281483
0.00199734
-0.0133785
-0.089088
-0.0558422
0.000190946
-0.00139667
-0.0959669
0.00211899
0.00182476
-0.114198
0.00298274
-0.00671466
0.0291061
-0.0803591
0.0019195
-0.00406778
0.00123313
-0.0839102
-0.00459735
0.00168641
-0.0274662
-0.107116
-0.0123311
-0.070134
-0.0414424
-0.0319258
0.00154339
0.00231408
-0.0782392
0.00213588
-0.0292188
-0.0571534
0.00151934
-0.0798613
-0.00484237
0.00184275
0.00170696
0.00295717
-0.00733115
0.00406048
0.00082825
-0.0121411
0.00576182
0.000985032
-0.0792266
-0.0798252
-0.0227576
0.00255549
-0.0529326
-0.00344885
-0.0173954
-0.0816824
0.00150034
-0.018284
0.00196623
-0.0184608
-0.0778834
-0.0362813
-0.0688271
-0.00027312
0.000182119
0.00145244
0.00171334
0.00604571
-0.0915321
-0.0505508
0.00968504
0.000817968
-0.0804026
-0.080469
0.00199254
0.0231832
0.000850038
-0.0141444
0.000341086
-0.0944661
0.000897919
-0.0765484
0.00184601
-0.00470992
-0.059263
-0.0311271
0.000356246
0.00164051
-0.0536403
-0.0339677
0.00179596
0.00462772
-0.056735
0.00764481
-0.0117321
0.000621327
0.0088111
-0.0048279
0.000663688
-0.106503
0.00561653
0.00180291
0.00148719
0.00184096
0.00168467
-0.0257941
-0.0437731
-0.0799333
0.00275448
0.00156891
-0.010026
-0.0670701
-0.0738795
-0.11827
-0.00533938
-0.0278055
0.00232037
0.00122385
-0.000759663
-0.0238295
-0.0145729
0.00187597
-0.0308006
-0.120568
-0.156787
-0.004945
-0.00285133
-0.014295
0.00171436
-0.000203342
-0.014638
-0.0327657
0.00169479
-0.133536
-0.00459754
0.00168873
-0.0186318
-0.00574488
-0.110165
-0.0444259
0.00401894
0.00269996
-0.026367
0.00191947
0.00148141
-0.0782912
0.00289906
-0.0859513
0.0015775
0.00565808
-0.00448509
-0.0433558
0.00101302
-0.0364614
0.00062089
-0.0784118
0.00200394
0.00088336
-0.00557642
0.00311775
-0.0196887
0.000386087
-0.00736287
0.00148887
-0.0848258
-0.0725182
0.00407708
-0.0413101
-0.0360245
0.00585691
-0.0118564
0.00266288
-0.142337
-0.00184908
0.00201855
-0.0337924
-0.0150843
0.000804416
-0.0760311
-0.0323125
0.00150878
-0.0232855
0.00160061
-0.0252126
-0.00730052
-0.0746803
0.00204702
0.00169871
0.0278572
0.00150957
0.00266801
0.00110632
0.00225907
-0.0208443
-0.0119519
0.00419473
-0.122557
0.00205828
-0.0020639
-0.0144411
0.0271691
0.00100818
0.00483251
0.00156097
-0.010983
0.0019312
-0.000670477
0.000745715
-0.0762987
-0.00749651
-0.0198918
0.00665422
0.00816215
-0.013985
-0.0727985
-0.0106833
0.0020852
-0.0122207
0.00334509
0.00164401
0.0016992
0.00355023
-0.0259524
-0.00574282
0.00345899
-0.00958744
0.0425865
-0.0160618
-0.0694843
0.0213837
0.0056659
-0.0145237
0.00205014
0.00107023
0.00268812
-0.00578015
-0.097008
0.00605209
-0.00159379
-0.034445
-0.01082
-0.0355166
-0.0885692
-0.0748388
-0.0303239
4.97789e-05
-0.0219482
0.0231247
-0.00239445
0.0224685
-0.00068242
0.00214908
-0.0138026
-0.085318
0.00494328
9.97709e-05
-0.00368416
0.00163464
-0.0777207
-0.0906981
0.00147223
-0.0112035
-0.000994592
-0.0109288
-0.0801811
-0.0919673
0.00191451
0.00208003
0.00352316
-0.0162306
0.00148935
-0.0194905
-0.00126504
-0.0278511
0.00141833
-0.0816728
0.00163171
-0.0100425
0.00160832
-0.0810278
0.00208857
0.0053494
-0.000866221
-0.000783524
0.00150831
9.99425e-05
-0.101809
-0.028333
0.00487586
-0.000150696
-0.139612
-0.0299841
-0.00217259
0.000962284
-0.05026
-0.0382269
-0.0810729
-0.015024
0.0245779
-0.0412372
0.00590028
0.0016415
-0.0589886
0.00162564
0.0028114
-0.0216883
-0.075345
-0.039132
-0.0772209
-0.0674368
-0.00417118
-0.0343481
-0.0497537
0.00215787
-0.0162698
0.00165786
-0.0591051
-0.00278391
0.0017187
-0.0263795
0.0016008
-0.00286253
-0.00464177
-0.0499099
-0.00377147
-0.0308988
-0.095548
-0.0917396
0.00221445
0.0060097
-0.0881774
-0.0117262
-0.0340009
0.0016705
0.00202692
0.00155171
-0.022571
0.00152651
0.00217564
-0.0787932
-0.00197884
-0.0457602
-0.0297559
0.00171405
-0.0819373
-0.0501783
-0.107462
-0.0195165
-0.00650347
0.00198988
0.000951541
-0.0223419
0.00207987
0.00408184
-0.0179786
-0.00745089
0.00363854
-0.00105817
0.00160362
-0.00322102
-0.020486
-0.0625731
-0.00856663
0.00887603
-0.0863518
-0.0275224
-0.00964194
0.0170936
-0.00450594
0.00218456
0.00200986
-0.0555989
0.00154451
0.00172078
-0.00321642
-0.00456276
0.00172341
0.000686074
-0.0141918
0.00353758
0.00200687
0.00167454
-0.0124054
0.00267763
-0.102014
-0.022998
0.00172569
0.00120036
0.0278366
-0.0577584
-0.0462576
-0.084168
-0.0764692
-0.0434911
-0.0218981
-0.0163916
-0.0518612
-0.0163697
-0.00289919
-0.0129123
-0.0221098
0.00674891
-0.017119
-0.111584
0.000222014
0.00251716
-0.0135712
-0.0281478
-0.00260762
-0.0842314
-0.0607342
-0.0058474
0.00198702
0.00254417
0.00328617
4.82259e-05
0.00172777
0.00393224
-0.078443
-0.0807437
0.0107768
-0.0212442
0.00119518
0.0119641
-0.0452776
0.00221334
-0.0787694
-0.0813927
-0.102072
0.0158433
-0.0168021
-0.00120389
-0.0792469
0.00157199
-0.0396814
-0.0105183
-0.0551179
0.00228525
-0.0457384
-0.0731586
-0.11152
0.00207596
0.00162338
0.00198374
-0.0419695
0.00172484
-0.00610657
-0.0133224
-0.129543
-0.011004
-0.0230798
0.000872337
-0.0545565
-0.0159516
-0.052638
-0.00062528
-0.00566198
-0.0488743
-0.0536135
-0.0624529
-0.00112545
-0.0650395
0.000395885
0.000960365
-0.0907562
-0.00517892
0.00156002
-0.0273928
-0.0228518
-0.0138748
0.00246608
-0.000860156
-0.0374875
-0.0210174
-0.00571661
0.000294684
0.00222612
0.00107825
-0.0772088
-0.0736169
-0.00331245
-0.0104501
-0.00864659
-0.000740907
-0.04091
-0.0799289
0.00131523
-0.00511058
-0.00199881
-0.0241075
0.00741508
0.00181687
-0.000521443
-0.132824
0.00197482
-0.0406985
0.00203658
-0.0357258
-0.099331
0.00497582
-0.0923958
-0.0122439
0.000946422
-0.101991
-0.089735
-0.0160609
0.00112654
-0.0221507
-0.0232898
-0.0235804
-0.0793034
0.00164849
-0.0425289
-0.00164956
0.00223595
-0.0503788
-0.0124225
-0.0214756
-0.0199236
-0.00658053
-0.0429297
0.00168785
-0.0781826
-0.00654902
0.00141626
-0.0194241
-0.00189189
-0.00548481
-0.0833468
-0.0394216
-0.0138583
-0.00846955
-0.0191913
-0.118004
-0.00933769
-0.0203881
0.00196612
-0.0508503
0.0017662
-0.0056637
0.0438287
-0.0323159
-0.00933116
-0.0010842
-0.114268
-0.0363522
-0.0140511
-0.0409711
-0.0786861