/*--------------------------------*- C++ -*----------------------------------*\
| =========                 |                                                 |
| \\      /  F ield         | OpenFOAM: The Open Source CFD Toolbox           |
|  \\    /   O peration     | Version:  v2012                                 |
|   \\  /    A nd           | Website:  www.openfoam.com                      |
|    \\/     M anipulation  |                                                 |
\*---------------------------------------------------------------------------*/
FoamFile
{
    version     2.0;
    format      ascii;
    class       surfaceScalarField;
    location    "200";
    object      phi_0;
}
// * * * * * * * * * * * * * * * * * * * * * * * * * * * * * * * * * * * * * //

dimensions      [0 3 -1 0 0 0 0];
oriented        oriented;


internalField   nonuniform List<scalar> 
55332
(
-0.243366
0.255914
-0.0125474
0.347757
-0.0484492
-0.299308
-0.25058
-0.0332935
0.283874
0.0993912
-0.30944
0.210049
-0.277962
-0.0184383
0.2964
-0.317762
0.143682
0.17408
0.0352699
-0.169667
0.134397
0.00194087
0.138019
-0.13996
0.38889
-0.322944
-0.0659461
-0.0146949
0.0149962
-0.00857869
0.00220906
0.00636964
0.00439338
0.0666388
-0.0710322
-0.0312725
-0.0394304
0.0707029
-0.125116
-0.0956429
0.220758
0.00905247
-0.00698889
-0.00206358
0.368292
-0.339762
-0.0285308
0.049739
-0.300319
-0.169345
0.176411
-0.00706618
0.234226
-0.388349
0.154122
0.172528
0.0813032
-0.253831
-0.141025
-0.0342606
0.175285
-0.270415
0.251301
0.0191144
-0.00686053
-0.259104
0.265964
0.0392831
-0.00811196
-0.0311712
-0.00780895
-0.270153
0.284772
-0.366917
0.0821451
-0.0232727
0.00553636
0.0177363
-0.0913813
0.182808
0.00746211
-0.00939603
0.00193392
0.209669
0.0640415
-0.27371
0.223258
-0.247381
0.0241232
-0.0778944
-0.154644
0.232539
-0.231025
0.272968
-0.0419435
0.168295
-0.147839
-0.0204563
-0.0387588
-0.231257
0.270016
-0.324484
0.287875
0.0366095
-0.0166401
-0.00663259
0.122155
-0.200789
0.0786343
0.367053
-0.132826
-0.155578
0.259251
-0.103673
-0.0414717
0.156145
-0.114674
-0.219499
-0.141884
0.361383
0.309224
0.0590681
0.170595
-0.248489
-0.0157072
0.00352855
0.0121786
0.255229
-0.312828
0.0575997
-0.0110354
-0.00467181
-0.0626504
0.0670438
0.0603645
-0.330373
0.270008
-0.160952
-0.0717823
0.232735
0.110999
-0.316855
0.205856
0.00176813
0.344235
-0.346003
0.288851
-0.191847
-0.0970037
0.131441
0.00272507
-0.134166
0.30809
-0.137447
-0.170643
-0.172859
0.186053
-0.0131942
0.263928
-0.26216
0.226684
-0.320387
0.0937034
0.364571
-0.130187
-0.234384
-0.0110913
0.234349
-0.1427
0.144641
0.00873495
0.000543106
-0.00927805
0.0306991
-0.171724
-0.0774618
0.362234
-0.000415209
0.00193975
-0.00152454
0.0174733
-0.0832095
0.0657362
0.248304
0.0446387
-0.292943
-0.030495
0.00928653
0.0212085
-0.0106405
0.0149363
-0.00429581
-0.015222
0.0191506
-0.00392863
0.263044
0.104009
0.113892
-0.228108
0.114215
-0.32557
0.114181
0.211389
0.225736
-0.232596
0.338974
-0.0348007
-0.304174
-0.367991
0.13437
0.233621
0.0143107
-0.001506
-0.0128047
-0.00503727
0.0281244
-0.0230872
-0.221384
0.287602
-0.0662176
0.0440163
-0.0215952
-0.0224211
0.00941451
0.00373343
-0.0131479
0.250291
0.0684066
-0.318697
-0.00502084
-0.0171193
0.0221401
-0.417988
0.259689
0.158299
-0.0131668
-0.000275155
0.0134419
-0.127878
0.199213
-0.0713351
-0.0115026
0.0431326
-0.03163
0.359529
-0.1043
0.147785
-0.112515
-0.0305684
-0.168444
0.199013
-0.403546
0.18585
0.217695
-0.00906038
-0.00195695
0.0110173
-0.269783
0.311406
0.0208237
-0.33223
0.170256
-0.151269
-0.0189866
0.0930797
0.118674
-0.211753
-0.111361
0.283888
-0.0834627
0.100936
0.00914153
-0.107849
0.0416815
0.297293
0.0550737
-0.0563091
0.0012354
-0.0159197
-0.156939
-0.100296
0.26668
-0.166384
0.422726
-0.280463
-0.142264
0.00878522
-0.00132311
-0.344492
0.0337335
0.310759
0.328887
-0.101337
-0.22755
-0.00260789
0.00674274
-0.00413485
0.0253241
-0.0196279
-0.121087
0.283978
-0.162891
0.166967
-0.200289
0.0333226
-0.403332
0.194691
0.208641
-0.125376
0.375666
-0.219809
-0.183523
0.178913
-0.0650208
0.292361
-0.192969
0.0136931
-0.00427859
-0.0492754
0.0377728
-0.191541
-0.0340221
0.225563
-0.256692
0.133208
0.123484
0.27709
-0.181115
-0.0959751
-0.0369265
0.0318892
-0.145453
-0.117922
0.263375
-0.185341
0.296339
0.0174993
-0.00876402
-0.00873529
-0.228666
0.110421
0.118245
-0.00104798
0.0108682
-0.00982024
0.108051
-0.253504
-0.00981597
0.000755592
0.0479536
0.00712013
0.0179061
-0.00507891
-0.0128272
0.24192
-0.38329
0.14137
0.352406
-0.0409995
0.296686
-0.245284
-0.0514028
-0.423257
0.275168
0.148088
-0.033956
-0.131021
0.164978
-0.0314588
-0.23194
0.263399
-0.363662
0.128288
0.235374
-0.144099
0.106605
0.0374937
0.262046
-0.280485
0.0580385
-0.0432744
-0.0147641
0.104987
0.172103
0.242904
-0.381547
0.138642
0.230695
-0.137615
0.235126
-0.104923
-0.130203
0.0137372
0.302366
-0.316103
-0.164729
-0.0919631
-0.212159
0.0899852
0.122174
0.273003
-0.259266
-0.0201804
0.00495848
0.240332
0.0885553
0.354183
-0.0176883
-0.336494
0.396409
-0.290291
-0.106118
0.137602
-0.117407
-0.0201956
-0.00148368
0.0102186
-0.178041
0.340044
-0.162003
0.00500211
-0.0156426
-0.0114836
-0.282398
0.293881
-0.19866
0.248343
-0.0496832
0.000594382
-0.000308865
-0.000285517
0.21152
-0.317244
0.105724
-0.185141
0.0327308
0.15241
0.299475
-0.0779647
-0.22151
0.0515836
-0.00930667
0.0140474
-0.00474072
0.229016
-0.0958075
0.00916526
-0.0104304
0.00126518
-0.00975692
0.0128678
-0.00311086
-0.0338924
-0.157649
-0.047692
0.0141529
0.0335391
0.00834786
0.00915145
0.255586
0.133304
0.357594
-0.11469
0.0953657
-0.368811
0.273446
-0.0126386
0.0128914
0.00366636
-0.00116552
-0.00250083
-0.0355402
0.0960415
-0.0605013
0.115093
-0.163016
0.0479234
-0.165442
0.269474
-0.104032
-0.0118483
0.0129282
0.120846
0.0167558
-0.150062
-0.013109
0.163171
0.16488
-0.195448
0.00239957
-0.0345551
0.0321555
-0.133882
-0.0947843
0.00335331
-0.00304211
-0.000311207
0.131732
-0.278668
0.146936
-0.00125885
-0.013436
0.0182872
-0.0761757
0.0578886
0.122372
0.0029611
-0.125333
0.019146
0.253857
-0.00874865
0.0558477
-0.047099
-0.15152
0.00145771
-0.162825
0.260205
-0.0973805
0.272142
-0.252996
0.018175
-0.0231959
-0.0134236
-0.00854055
0.0219642
0.0539432
-0.0279593
-0.025984
0.0575248
-0.00685046
-0.0506744
-0.421002
0.300485
0.120517
-0.361231
0.0167388
0.019531
-0.0948833
0.0753522
0.349072
-0.265498
-0.0835742
0.32662
-0.204677
-0.121943
0.193802
-0.116054
-0.0777476
0.230535
-0.309268
0.0787333
0.372742
-0.02849
-0.344252
0.320226
-0.353017
0.0327908
-0.00828089
-0.00254781
0.0108287
0.152886
-0.0305146
0.280226
0.0688466
0.365383
-0.335304
-0.0300796
0.168219
-0.0680402
-0.100178
-0.179895
-0.0919522
0.271847
-0.0312397
0.0455296
-0.0142899
0.069724
0.127294
-0.197018
-0.0268936
0.368504
-0.34161
-0.133766
-0.00324484
-0.00795135
0.0111962
0.345849
0.0865544
0.291739
-0.303243
0.011504
-0.0649223
-0.00857869
0.00562968
0.165373
-0.0918265
-0.0735461
0.0560775
-0.0751903
0.0191128
0.0036971
-0.0257387
0.0220416
-0.279917
0.195229
0.084688
0.0165876
-0.0127796
-0.003808
0.00871685
-0.00717364
0.239078
-0.270537
0.238742
0.157667
-0.199716
-0.22354
0.336893
-0.254184
0.0229277
0.00880239
0.0487224
-0.365696
0.319748
0.0459483
0.385964
-0.176097
-0.209867
-0.137549
0.0634356
0.0741136
0.00733
0.264812
0.0108483
-0.00168299
0.168992
-0.0375518
0.424796
-0.260019
-0.164777
-0.00232131
-0.0108455
0.00260725
0.000746058
0.0292854
0.339218
-0.181286
0.0534086
-0.00341815
0.000173308
0.206307
-0.437209
0.230902
0.161118
-0.218114
0.0569966
0.0890426
-0.341513
0.252471
-0.135146
0.0995686
0.0355772
0.115532
0.113484
0.305383
-0.298053
-0.0916047
-0.120554
0.249744
-0.348903
0.099159
0.339361
-0.18328
-0.156081
0.139662
0.0305933
0.426347
-0.167282
-0.259064
0.104907
0.0633113
0.00456227
0.0044902
-0.329548
0.104396
0.225152
0.348605
-0.015981
-0.332624
0.114922
0.115772
-0.248796
0.120487
0.12831
0.323499
-0.313496
-0.0100025
0.353223
-0.130212
-0.22301
0.248304
0.10178
-0.350084
0.249296
-0.198775
-0.0505214
0.35898
-0.123521
-0.235458
0.209595
-0.158851
0.0107307
0.000503315
-0.011234
0.0633563
0.104939
0.0124507
-0.00172004
-0.033338
-0.117931
0.348869
-0.108537
-0.000187897
0.0948788
0.228029
-0.322908
0.342774
-0.0944701
0.109312
0.00542091
-0.114733
-0.0579565
-0.18541
-0.322352
-0.0433438
0.0342426
-0.0219821
-0.0122605
-0.0155243
0.307264
-0.414791
0.295467
0.119324
-0.0511885
0.166281
-0.0350518
0.297098
0.287922
-0.232011
-0.055911
-0.220249
0.0351086
0.0460734
-0.225968
0.0224918
-0.150608
0.128117
0.02023
-0.0165329
0.113147
-0.327907
0.21476
-0.0115819
0.00182501
0.238776
0.0934543
-0.332231
-0.194208
0.389386
-0.195179
0.000962673
0.0250337
0.329149
-0.120208
-0.244407
0.265384
-0.0209773
-0.115449
0.230372
0.0204798
-0.000249806
-0.295317
0.247761
0.0475556
0.247229
-0.38218
0.134951
0.0188108
-0.0247636
0.00595282
0.117325
-0.2966
0.179275
0.0139149
-0.0101623
-0.00375256
-0.0604589
0.0555243
0.00493468
-0.00237181
0.0019566
0.0113196
-0.0247432
-0.0115337
0.0104857
0.243403
-0.246043
0.00264007
-0.361465
0.112291
0.249174
-0.235627
-0.125838
0.166193
0.106058
-0.272251
0.127431
-0.37625
0.248819
-0.0127401
0.00155374
0.0111863
0.0702012
0.00755486
0.0137131
-0.021268
0.00664799
0.0161119
-0.0227599
-0.182401
0.310825
-0.128424
-0.0869104
-0.111028
0.197938
0.0952151
0.0701575
0.358256
-0.127722
-0.194845
-0.0194952
-0.0109998
-0.0106306
0.00020013
0.24979
0.0929836
0.131257
-0.248005
0.116748
-0.00399236
0.00220166
0.0017907
0.0185631
-0.00257016
-0.0159929
0.0127766
0.200256
0.0885953
0.33579
-0.0859998
0.291639
0.0318598
0.251325
-0.387357
0.136032
0.21926
0.107838
-0.327098
0.0393881
0.280838
0.337377
-0.0281526
0.113565
-0.291607
0.00352873
0.00886098
-0.0123897
0.296192
-0.0959365
0.0245551
-0.00486428
-0.0196908
0.359729
-0.1125
0.0101993
0.00272977
-0.0129291
-0.020453
-0.2603
0.280753
0.309458
0.0279195
0.0280096
-0.00708293
-0.0209267
-0.129492
-0.23417
-0.357199
0.121657
0.235541
0.0930893
-0.227072
0.133983
0.0176607
0.330944
-0.00413009
0.0755742
-0.0714441
-0.159236
0.15812
0.00111609
0.375503
-0.190147
-0.185356
0.243329
-0.263782
0.0216959
-0.0146059
-0.00708997
0.00811228
0.0311709
0.00505575
0.00917943
0.00740813
-0.00689938
-0.174567
0.181466
0.00287951
-0.00880229
-0.00261442
0.0114167
0.0359386
-0.00307776
-0.0328609
-0.270684
0.105242
0.0332343
-0.0579407
0.0247064
0.314883
-0.201736
0.000433065
0.00150669
0.0906905
0.205502
-0.0148695
-0.251883
0.266752
-0.0646962
0.0559475
0.000421856
-0.0025198
0.00209795
-0.248679
-0.169309
-0.259469
0.383192
-0.123722
0.04013
0.0179085
0.000443929
0.000150452
-0.0565798
0.043579
0.0130008
-0.430459
0.195842
0.234617
0.162878
-0.342892
0.180014
0.00807438
-0.00807438
-0.135296
-0.184511
0.319807
-0.19474
0.108557
0.086183
-0.342921
0.145327
0.197594
0.00424761
0.00015291
-0.00440052
0.376043
-0.310131
-0.0659124
0.377417
-0.216502
-0.160914
0.397394
-0.364595
-0.0327988
0.075904
-0.121242
0.0453385
0.0787013
-0.00831781
-0.0703835
-0.0702109
0.022731
0.0474799
0.350348
-0.280406
-0.0699419
0.340789
-0.280425
0.0111306
0.00336062
-0.0144912
-0.228606
-0.114315
-0.00611002
0.000746398
0.00536362
-0.00299583
0.0157519
-0.0127561
-0.00745536
0.00180335
0.00565202
-0.273834
0.394728
-0.120893
0.00258581
0.00949047
-0.0120763
0.0282111
0.00772758
-0.218832
-0.143418
-0.00929559
-0.00133499
0.0325008
0.0130288
0.0547897
0.342604
0.0468989
0.00182138
-0.0487203
0.0131275
-0.051738
0.0386105
0.00212501
-0.0109273
-0.352453
0.232544
0.11991
0.106649
0.229148
-0.136058
0.187317
-0.27265
0.0853329
-0.00912826
0.0101661
-0.00103781
0.151521
-0.120001
-0.0315195
-0.0202864
-0.0274056
-0.232646
0.174401
0.0582449
0.297695
0.0526531
0.00366636
0.292389
-0.126196
0.383015
-0.126543
-0.256471
-0.30289
0.28802
-0.161268
0.127312
0.0933774
-0.180288
-0.353795
0.199785
0.154011
-0.234981
0.318725
-0.0837438
0.152104
0.225312
-0.437734
0.18854
0.249194
-0.00408184
-0.00695997
0.0110418
0.00109425
0.0657604
-0.300742
-0.0887252
-0.244191
0.332916
-0.21948
0.368605
-0.149125
0.183752
0.18082
0.014628
-0.00349743
0.301823
-0.167895
-0.133928
-0.119358
0.161406
-0.0420475
-0.107344
0.294661
0.049634
0.00242279
-0.00762396
0.00520117
-0.214695
-0.190979
-0.128509
0.319488
-0.0224843
-0.019634
0.0421183
-0.230056
0.281083
-0.051027
-0.00725484
0.00406595
-0.0088422
0.00477625
-0.000984287
-0.00300807
0.0827541
-0.0632231
-0.149102
-0.176468
-0.121927
0.210297
-0.0883701
0.00104306
0.182304
0.177225
0.129647
-0.0844658
-0.0451808
-0.223493
0.114122
0.109371
-0.00305426
0.0132536
-0.0251071
-0.031202
0.38143
-0.131686
0.241453
-0.252936
-0.0154163
-0.304974
0.32039
0.00130899
-0.00103575
-0.000273234
0.413075
-0.291329
-0.121746
-0.0677886
0.112253
-0.0444642
0.0133043
0.0209383
0.151622
-0.2664
0.114778
-0.106806
0.0390177
-0.275716
-0.202455
0.0340112
-0.061627
-0.0377552
0.0993821
-0.0560574
0.253865
-0.197807
0.284224
-0.178658
-0.105565
0.115559
-0.306538
0.11356
0.152234
-0.227983
0.308584
-0.0806016
-0.0285958
0.255279
0.0349554
-0.0662279
0.229908
-0.098651
0.156645
0.145178
-0.0300117
0.139324
-0.22794
-0.105455
0.333395
0.0131633
-0.0146111
0.00144783
-0.261849
0.161553
-0.355764
0.0507896
0.000366643
-0.159603
0.0812579
-0.252219
0.170961
0.142338
-0.0587971
-0.0835409
-0.0248085
0.042516
-0.0177075
0.188743
-0.119019
0.00368808
-0.00624681
0.00255873
-0.293275
0.237217
-0.0214094
0.0774869
0.00946501
-0.0390773
0.0296123
0.193768
0.0555286
0.352383
-0.312795
-0.0395874
0.0589927
0.0706539
0.384883
-0.168959
-0.215924
0.251236
-0.380362
0.129125
-0.199003
-0.231456
-0.293759
0.132879
0.16088
-0.0558696
-0.0882291
0.30639
0.00306801
-0.0575781
-0.266906
-0.0118265
-0.000913579
0.0679153
-0.0226074
-0.0453079
-0.0493967
-0.201875
0.251272
0.124813
0.183277
-0.283168
0.233772
0.351228
-0.356934
0.00570537
-0.160754
0.250079
-0.0893246
0.139216
0.14101
0.071779
0.212444
-0.22553
0.320895
-0.131085
-0.204346
0.335431
0.233161
-0.0951417
-0.00937476
-0.266538
0.0385981
-0.0103331
0.014399
0.265821
-0.114199
-0.27774
0.162213
0.115527
-0.00862617
0.286989
-0.190057
-0.0969317
-0.00474506
0.0179084
-0.11362
0.137246
-0.0236258
-0.205007
0.168485
0.0365216
0.116252
0.176323
-0.292575
0.340184
-0.0337941
-0.135699
-0.0536011
0.1893
0.105972
-0.120153
0.0141812
0.107573
0.180349
-0.135165
-0.149385
0.284551
0.308245
0.0441379
0.104783
-0.0993625
-0.0752767
0.236395
-0.146853
-0.146906
-0.0354886
0.324505
-0.340029
0.365438
-0.133817
-0.231621
-0.0148326
-0.171085
0.185918
0.223465
0.0199378
0.411438
-0.200073
-0.211365
0.36031
-0.109074
0.262545
-0.012303
-0.250242
0.0510968
0.14677
-0.197867
-0.000929266
0.00136233
0.324306
-0.317858
-0.00644751
0.0156562
-0.0126601
-0.00299606
-0.0560411
-0.0294926
0.0855336
-0.106343
-0.211419
-0.222777
-0.112961
0.335738
0.34048
-0.0898201
-0.25066
-0.0088039
-0.339039
0.105734
0.233305
0.36179
-0.303087
-0.0587025
-0.391285
0.215817
0.175467
0.00188454
0.00618984
-0.172447
-0.105294
0.127134
-0.27361
0.146476
0.0260632
-0.000739113
-0.195829
-0.0565575
0.252386
0.125225
-0.0402437
-0.0849816
0.129476
0.232314
0.00263388
-0.00221202
0.0491199
0.275385
0.264018
-0.124803
0.0212591
0.0574422
0.216956
0.07973
0.00851438
-0.0192126
0.0162167
0.363483
-0.0157256
0.00068137
0.0221653
-0.0228466
-0.0344892
-0.304549
-0.123184
-0.258362
-0.0696798
0.3116
-0.0819294
0.0258884
0.00466527
-0.00383916
-0.000826108
-0.0110049
0.0185598
0.0052279
7.26492e-05
-0.00530055
0.23765
-0.374217
0.136567
0.108063
0.125098
-0.184225
0.0790314
0.105193
0.234525
0.101265
0.0945115
0.136377
-0.230888
0.0624471
0.193466
0.156637
0.0385926
-0.00609519
0.00621043
-0.000115232
-0.37444
0.124029
0.250411
-0.00107652
0.280913
-0.279836
-0.0318553
-0.273258
0.305113
-0.250737
0.0951597
-0.0787801
0.119043
-0.0402632
-0.142055
0.183851
-0.0417963
0.149645
-0.365467
0.215822
0.000182585
0.00448269
-0.162662
0.342611
-0.17995
0.355087
-0.106783
0.0732923
-0.109316
0.0360239
0.232934
0.0296115
-0.0341951
-0.0426048
0.0767999
-0.260923
0.220168
0.0407543
0.0940795
-0.267874
0.173795
-0.263865
0.145943
0.164331
0.0949203
-0.408061
0.27193
0.136131
0.0493171
0.0185982
0.0379004
-0.0861337
-0.0514154
-0.350116
0.123334
0.226782
-0.0144539
-0.00437808
0.018832
0.309201
-0.153581
-0.15562
0.31468
-0.105012
0.156117
-0.387572
0.231455
0.00935374
-0.01467
0.00531623
-0.188904
-0.248305
-0.222001
-0.215733
-0.13619
0.204924
-0.0687348
0.00386594
-0.00514168
0.00127574
-0.166368
0.260447
-0.170372
0.409764
-0.172114
0.0485825
0.0150137
-0.0635963
0.00540432
-0.00298153
-0.25338
0.07138
0.182
-0.161619
-0.186258
0.347878
0.0599169
-0.0978819
0.332407
0.317113
-0.202932
-0.000790461
-0.00158135
-0.0356171
-0.143069
0.178686
0.125611
-0.0196391
-0.20725
0.333247
-0.125997
0.0322801
0.0289585
-0.0612386
-0.310088
0.147426
0.0161897
0.0513476
-0.0675374
-0.00584228
0.00584228
0.0635308
-0.0149483
0.0292799
0.0959454
0.0102958
-0.0407466
0.0304508
0.0704827
0.16791
-0.238392
-0.219851
0.325889
-0.106038
-0.379323
0.181977
0.197346
-0.0349308
0.045303
-0.0103722
-0.00745536
-0.16105
0.041049
-0.0393479
-0.231067
0.0918138
-0.302325
0.210511
-0.0282483
0.0210138
0.00723448
0.257289
-0.149238
-0.401813
0.182982
-0.17309
0.226406
-0.0533164
0.015961
-0.00165031
0.253712
0.169014
-0.127649
0.0943105
-0.0361479
-0.0246386
0.0341036
-0.0219258
0.0542059
-0.0100711
0.0141354
-0.00406429
0.152273
-0.364607
0.212333
-0.0968717
-0.212396
0.0344165
0.208933
-0.347545
0.138612
0.100728
0.146076
-0.246804
0.0209881
-0.0143401
-0.136569
0.0950973
-0.0910865
-0.0424851
0.133572
-0.0405769
0.0157684
-0.121662
0.340458
-0.128873
-0.211585
0.206493
0.0263461
-0.232839
-0.0631089
0.185263
0.287361
-0.0919211
-0.19544
-0.395136
0.281196
0.11394
-0.131378
0.353251
-0.221873
0.187955
-0.323251
0.0484312
-0.00153224
0.00696031
-0.00696031
0.343543
-0.191269
0.100484
-0.323261
0.109385
0.248209
0.0311973
-0.0625335
0.0313362
0.0935176
-0.218633
0.0483428
0.251132
-0.00989727
0.00161638
0.153789
-0.348551
0.194762
-0.103644
-0.0117695
0.115414
0.0900885
-0.235828
0.145739
-0.0856917
0.324468
0.155161
0.0856123
-0.240773
-0.0390136
-0.0837731
0.0482329
0.289658
-0.0567239
-0.357825
0.226447
-0.260894
0.321675
-0.0607819
-0.0222181
-0.0858774
0.108095
-0.0111528
-0.00391061
0.0150634
0.127398
0.204299
0.139244
-0.304914
0.273058
-0.326463
0.212394
0.114069
0.0887394
0.251741
0.0719559
-0.0832108
0.0112549
0.118462
0.257041
0.277429
0.148918
0.0842227
-0.073941
-0.0102817
-0.113679
-0.289866
0.131408
0.00583843
-0.208487
0.305025
-0.0965385
0.290071
-0.386896
0.0968246
-0.111876
0.0437121
0.0681636
-0.106151
0.0673129
0.0388385
-0.127563
-0.237044
-0.109289
0.0870708
0.0989337
-0.307421
0.0098155
0.0013102
-0.0111257
0.144584
0.0456481
-0.190232
-0.38179
0.163665
0.218125
-0.0534448
-0.389446
0.326884
0.0625621
-0.201461
-0.00275432
-0.0113629
0.0141172
0.00362197
-0.0198768
-0.0119632
0.03184
-0.147581
-0.0327981
0.180379
-0.233037
0.369056
-0.136018
0.143351
0.0769177
-0.220269
0.199126
-0.418625
0.0923991
-0.0204433
-0.27685
0.298016
0.000731272
-1.36738e-05
-0.000717599
0.0479614
0.0943002
-0.142262
-0.000941791
-0.00516823
0.244559
-0.333284
0.00541469
0.0151178
-0.0205325
-0.156881
-0.0612331
0.300307
-0.182982
0.00100629
0.0950352
-0.256361
-0.0686175
0.324978
0.0725423
0.217115
0.142452
0.161765
-0.304217
0.117422
0.0303629
0.0635359
-0.330162
0.266626
-0.116702
-0.257514
-0.354744
0.108206
0.246538
0.0659987
0.256853
-0.322852
0.0201365
-0.123781
-0.00454543
0.000912388
0.00363304
0.222602
-0.12809
0.0123414
-0.00884388
-0.00349754
0.0143829
-0.00502913
0.00408879
0.00462805
0.365285
-0.206758
-0.158528
0.0566527
-0.259751
0.203098
-0.0717129
-0.245142
0.301269
-0.212226
0.266
-0.385814
0.119814
0.266211
-0.209558
0.379978
-0.0899071
0.211452
-0.0668688
-0.0983784
0.10752
-0.00569472
0.00215004
0.00354468
-0.201521
0.322626
-0.121105
-0.00165344
-0.0203287
-0.23438
0.14757
0.08681
-0.345619
0.242454
0.103165
-0.0099741
0.238035
-0.228061
-0.288504
-0.0794868
0.372667
-0.216549
0.230039
0.3968
-0.138955
-0.257845
0.250463
-0.301141
0.0506778
0.0218898
-0.00307897
-0.145584
0.235672
0.233244
0.0838682
-0.311495
0.323282
-0.0117873
0.0254394
-0.213458
0.188019
0.0884133
0.234178
-0.322592
0.0288304
-0.114973
0.086143
-0.337378
0.334388
0.00299074
0.124284
0.216265
-0.340549
-0.145826
-0.127785
-0.0928536
-0.0228923
0.115746
0.342048
-0.253308
0.198667
0.22613
-0.269915
0.0340876
-0.178062
0.0211338
0.156928
0.152013
0.257751
-0.0329431
0.0104588
0.0456745
0.173542
-0.219217
0.131318
-0.055414
-0.202192
0.227632
-0.0655544
-0.107828
0.173382
0.109497
-0.342534
-0.296492
0.0766408
0.383453
-0.233808
-0.104465
0.251335
-0.14687
0.390886
-0.323568
-0.0673179
-0.292617
-0.0645822
-0.227647
-0.0422683
0.304622
-0.209973
-0.0946486
-0.255147
-0.124176
0.0402175
0.278509
-0.318727
-0.0178352
0.0760781
-0.0582428
-0.125668
0.348751
-0.223083
0.174371
-0.244371
0.0700004
-0.32967
0.23985
-0.0898325
0.142749
-0.178366
0.00974126
-0.0130781
0.00333682
-0.044575
0.368881
0.00613713
-0.0232564
-0.393207
0.188238
0.204969
0.160007
-0.348067
0.18806
0.237558
-0.0226423
-0.214916
-0.16473
0.375802
-0.211072
-0.00299255
-0.00270217
-0.220064
-0.0506196
-0.146535
-0.0999796
0.246515
-0.220091
-0.173115
-0.338124
0.102273
0.235852
-0.0234412
-0.0248648
0.048306
0.225342
0.159541
0.0563466
0.190495
-0.246842
-0.109933
-0.0511169
-0.299634
0.28966
-0.0239994
0.0332859
0.182387
-0.0396383
-0.0132921
0.00921025
0.036206
0.305214
-0.096281
-0.267213
-0.0623353
-0.290632
0.0311625
-0.000479312
0.00416739
0.326861
-0.201674
-0.125187
0.101745
0.0920561
0.0119835
0.000934555
-0.0129181
0.0845932
-0.0169612
-0.067632
-0.159686
0.20536
0.368714
-0.126948
-0.241765
0.398558
-0.246545
0.17564
0.135077
-0.310717
0.0094529
-0.0120673
-0.177984
0.00495557
0.0107006
-0.294864
0.216899
-0.180679
0.00126934
0.17941
-0.0982789
0.0500999
-0.00696734
-0.216955
0.0362752
-0.139068
-0.24928
0.0110242
-0.0100615
-0.0481013
0.138823
-0.0907213
-0.231511
0.0988162
0.132695
0.216437
0.125988
-0.342425
0.0852841
0.255174
-0.269436
0.0891481
0.180287
-0.324684
0.199016
-0.150306
0.0255468
0.0845365
-0.110083
0.286308
-0.0571601
0.111661
0.246595
-0.296548
0.0932195
0.203329
0.0119204
-0.0146747
0.181413
-0.107106
-0.0743073
0.165342
0.015764
-0.181106
0.116829
0.044577
-0.157614
0.073542
0.084072
-0.000278872
0.00989107
-0.0096122
-0.0122123
-0.00158574
0.0137981
-0.00769373
0.0102795
0.0759048
0.366669
-0.239022
-0.127647
0.214719
-0.0498394
0.13686
-0.264569
0.127709
0.0653674
0.195592
-0.260959
-0.21944
-0.111196
0.330636
0.0330593
-0.0549943
0.021935
0.18131
-0.321537
0.140227
0.0231409
-0.253331
0.230191
0.00613333
-0.0150597
0.00892637
-0.0655759
0.277095
0.35833
-0.229971
-0.128359
0.257651
-0.23451
-0.00756383
0.0107011
-0.00313725
-0.127751
0.0505136
0.0772374
-0.0375542
0.177217
0.244145
-0.0206797
-0.308525
-0.0415914
-0.00973185
-0.0160068
0.230448
0.127882
0.00128497
2.40176e-05
0.248336
-0.207314
-0.0410216
-0.128028
0.338581
-0.210553
-0.338332
-0.00107797
0.33941
0.172139
-0.270851
0.0987119
0.0575722
0.287999
-0.345571
0.368546
-0.239009
-0.129537
0.283266
-0.126621
0.273133
0.00860034
-0.281733
0.312428
0.056118
-0.236698
0.141055
-0.136806
0.324761
-0.0484558
0.286014
-0.217854
0.315396
-0.0975421
-0.120772
-0.261408
-0.0743397
0.246479
-0.00725452
-0.331078
0.357242
-0.33163
-0.0256122
0.00253088
-0.00484839
0.00231751
0.0753216
0.0455249
-0.3566
0.13712
-0.0790097
0.222361
-0.226097
-0.119521
-0.0650208
0.0608907
0.0248914
-0.000336329
0.0833654
0.143328
-0.226693
0.0973037
0.0272037
-0.163333
0.136129
0.307273
-0.131634
-0.112826
0.173846
-0.0610204
-0.114721
0.0720362
0.0426848
-0.0802434
0.207537
-0.043466
0.0575095
-0.0140435
-0.302538
-0.0382489
0.340787
0.00542051
-0.00155457
-0.013943
0.0136641
0.160779
0.165841
0.0917389
-0.351267
0.259528
0.300028
-0.0941724
-0.0288637
-0.00553186
0.0147113
0.319444
0.0377988
-0.418782
0.210763
0.208019
0.00344779
0.00155269
-0.00500047
0.386057
-0.329376
-0.0566816
-0.0389627
0.030689
0.00827371
0.196541
-0.0273454
-0.169195
0.262709
-0.215928
-0.0467809
-0.121784
0.0430039
0.323347
0.0627105
-0.0123913
-0.0265714
0.358314
-0.0952705
1.68485e-05
0.0123103
-0.0123272
0.0318933
-0.162915
-0.0534056
-0.0788395
0.132245
-0.324415
0.0218775
-0.170269
0.235637
0.0890099
-0.130442
0.0414319
0.129132
-0.230322
0.10119
0.0091004
-0.00890492
0.387903
-0.110408
-0.277496
0.172445
0.0240954
-0.00820095
0.00950314
-0.00130219
-0.141036
-0.0309389
0.171975
0.100107
0.0813063
0.0840507
-0.265145
0.00878463
0.229865
0.116645
-0.34651
0.0488513
-0.324236
0.275385
0.00910191
-0.0103349
0.00123303
-0.0713866
-0.13362
-0.116489
0.346354
-0.171649
0.0285806
-0.0897917
-0.100114
0.189906
0.0151104
-0.0585764
0.00330025
-0.176776
-0.21836
0.00217912
0.0130627
0.0917094
-0.104772
-0.0133484
-0.0236237
0.0369722
0.223757
0.0625507
-0.0156999
0.00908586
0.00661407
0.0946713
-0.124683
0.184122
0.0763582
-0.26048
0.289063
-0.104941
-0.0748202
-0.0529308
0.128377
-0.320032
0.191655
0.214019
0.15265
0.0690074
0.0240325
-0.0930398
0.356426
-0.142407
-0.107132
-0.116361
0.231345
0.11465
-0.345995
-0.250976
0.146511
0.0327693
-0.293663
0.130838
0.041737
-0.172575
0.0142856
-0.230788
-0.0105925
-0.137246
0.0182862
0.0356571
0.220863
-0.360473
0.13961
-0.0999023
0.02725
0.0726523
-0.161607
0.389911
-0.228304
0.155146
-0.316543
0.161397
-0.000131554
0.000862826
-0.096186
-0.216642
0.0222204
0.0272705
0.0102885
0.00470772
0.157571
-0.0407427
-0.211552
0.298501
-0.0869489
0.0346295
-0.182211
0.087614
-0.335436
0.247822
-0.238473
0.209943
0.0285297
0.182425
-0.116352
-0.0660731
-0.171322
0.287573
-0.0141588
0.0111045
0.111708
-0.331149
-0.177072
0.320754
-0.227639
0.0811038
0.315271
-0.160125
-0.0680698
0.0502345
0.247105
-0.0954078
0.360258
-0.15596
0.000953862
-0.00786538
0.00691152
0.197345
-0.331241
0.133897
-0.0130318
0.00195178
0.01108
-0.0150666
0.00285429
0.0208176
0.00177905
-0.0225966
-0.0137979
-0.341733
0.220833
0.1209
-0.0114019
0.213858
-0.202456
0.00556629
0.244897
0.213963
-0.341992
0.237608
-0.28495
0.047342
0.290321
-0.153461
0.114903
-0.0101195
0.174686
-0.294357
0.11967
-0.0266307
0.317889
-0.120544
-0.210016
-0.116447
0.117334
0.196821
-0.314155
0.13446
-0.352014
0.217554
-0.0990434
-0.204984
0.359519
-0.154534
-0.0628482
0.13817
-0.00570713
0.00570713
0.175833
-0.29692
0.430892
-0.242654
0.163297
-0.401492
0.238195
0.16247
0.250605
0.253025
-0.0978645
0.0532778
-0.0223686
-0.146977
-0.337853
0.132868
0.113233
0.170745
-0.0101544
0.00944575
0.000708611
0.240452
-0.312165
0.0176884
-0.0170071
-0.0374188
0.0723742
0.291845
-0.231371
-0.0604735
0.165664
0.0835476
-0.249212
-0.355886
-0.00902769
0.364913
-0.311869
0.357481
-0.0456116
0.209466
0.133146
0.232275
0.155628
0.220512
-0.0390619
-0.18145
0.106333
0.253397
0.228546
-0.239948
-0.201411
0.00275166
0.315642
-0.105666
-0.209976
-0.0176739
0.0176907
0.221407
0.29514
-0.201961
-0.0911784
0.29314
-0.28695
-0.0245447
0.321711
-0.19428
-0.163886
0.0510604
-0.340894
0.0542029
0.286691
-0.0415665
-0.0157198
0.0572863
0.314249
-0.21781
-0.0964386
-0.0052434
0.0808176
0.149469
0.241417
0.0927426
-0.034391
-0.0583516
-0.240586
-0.14886
3.70671e-05
-0.00153796
0.00150089
-0.134048
0.0769156
0.0571325
-0.308712
0.106751
-0.0430915
-0.173241
0.216333
0.00355133
-0.0964049
0.289144
-0.125587
-0.163558
-0.00512018
-0.000975017
0.0634945
0.112917
-0.15115
0.372013
0.125602
-0.332852
0.298742
-0.0823049
-0.169918
0.307909
-0.137991
0.271437
-0.220384
-0.0510525
0.26685
-0.198443
0.169741
0.0653844
-0.176594
-0.117796
0.29439
-0.0108483
0.25516
-0.244312
-0.0799893
0.209122
0.402754
-0.239457
-0.0448066
-0.0670692
0.135097
-0.33781
0.202713
-0.00617046
0.000328176
0.11779
0.203023
-0.320813
-0.0788105
-0.262084
-0.326824
0.133024
0.1938
0.0470032
0.244841
-0.273524
0.150176
0.123348
0.290685
-0.114362
0.273524
-0.0359166
0.16309
0.100807
-0.263897
-0.408394
0.294371
0.114023
0.284483
-0.295331
-0.0957594
0.0638974
0.031862
0.0136467
0.040946
-0.0545926
0.335414
-0.0694141
-0.150261
0.239313
-0.0890522
-0.00362354
-0.0183508
0.0219744
-0.0343801
0.107672
-0.23169
-0.117213
0.00261691
0.00261099
0.315258
-0.083913
0.00748273
-0.00762105
0.000138319
-0.0994437
0.319499
-0.220055
0.200082
-0.169825
-0.0302575
-0.240182
0.204497
0.0356847
0.0094202
-0.00989869
0.000478491
3.89667e-05
0.000263754
-0.000302721
0.123352
-0.182649
0.1337
0.048949
-0.083406
0.197528
0.00360737
-0.145662
-0.369305
0.161112
0.208193
0.182102
0.248789
0.0182745
-0.0157156
-0.00255894
0.38433
-0.237698
-0.146632
-0.153608
0.367963
-0.214355
0.381465
-0.319889
-0.0615759
-0.133385
0.342851
-0.123405
-0.0208653
-0.0135781
0.0344434
-0.000738243
0.000429378
-0.0228172
0.0354968
-0.0126796
0.0119245
0.00855529
0.326518
0.0549468
0.0110555
-0.00270766
-0.200296
0.329207
-0.128911
0.241126
0.143204
-0.0485777
0.179416
-0.14767
0.190807
-0.0431371
-0.347811
0.194203
-0.216283
0.0106024
-0.0254347
0.0148323
-0.010653
-0.0175953
-0.178911
0.277958
-0.0990474
0.177613
0.111531
0.24385
-0.173367
0.230681
-0.360189
0.129507
0.00674094
-0.0124953
0.00575434
0.215713
0.0557237
-0.265242
0.139656
-0.0387715
-0.230664
0.0788346
-0.13224
0.196138
-0.330492
0.134354
0.0488694
0.018447
-0.0673164
0.116281
-0.0703442
-0.0459367
-0.0398165
0.164283
-0.124467
0.327211
-0.131073
0.00158637
0.00537394
0.379753
-0.163573
-0.21618
0.0111741
0.00345389
-0.189095
0.137285
0.0518091
0.212434
0.354318
-0.219221
-0.401688
0.140785
0.260903
0.369612
-0.158559
-0.211053
0.12534
0.0989303
-0.0687682
-0.0301621
0.00913931
0.000280886
0.408494
-0.116601
-0.291893
-0.155772
0.240175
-0.0844032
-0.233545
-0.140896
-0.17836
0.190151
-0.0117912
-0.316743
-0.0391432
0.323579
-0.260043
-0.0698492
0.196716
-0.126867
-0.00351834
-0.00967848
0.0131968
0.0155249
-0.0191485
-0.0642073
0.00301999
-0.0110783
-0.00462168
0.0298325
-0.208192
-0.000238888
0.0093408
-0.307894
0.252281
0.055613
0.227431
0.132827
-0.136659
0.00926955
0.12739
-0.0127331
-0.000298652
0.189001
0.0206731
-0.209674
-0.185775
0.371625
0.244665
-0.00214323
0.0204177
-0.039868
-0.00133068
0.0411987
0.0587909
0.0339517
0.172807
-0.209236
0.0364293
-0.223196
-0.00540983
0.0830864