/*--------------------------------*- C++ -*----------------------------------*\
| =========                 |                                                 |
| \\      /  F ield         | OpenFOAM: The Open Source CFD Toolbox           |
|  \\    /   O peration     | Version:  v2012                                 |
|   \\  /    A nd           | Website:  www.openfoam.com                      |
|    \\/     M anipulation  |                                                 |
\*---------------------------------------------------------------------------*/
FoamFile
{
    version     2.0;
    format      ascii;
    class       volVectorField;
    location    "200";
    object      U_0;
}
// * * * * * * * * * * * * * * * * * * * * * * * * * * * * * * * * * * * * * //

dimensions      [0 1 -1 0 0 0 0];


internalField   nonuniform List<vector> 
37190
(
(1.02104 -0.0220098 -6.84054e-22)
(1.00302 5.13585e-05 -1.42516e-22)
(1.01819 -0.00367624 0)
(1.01192 -0.00356694 0)
(1.04119 0.0610501 0)
(1.01902 -0.0101537 1.33547e-21)
(1.05588 -0.0316561 -5.28399e-21)
(1.02711 -0.0684447 2.84916e-22)
(1.00812 0.000449364 0)
(0.439774 0.00676852 1.4277e-23)
(0.321737 -0.00180381 -9.26252e-21)
(0.696366 0.0808715 2.35978e-21)
(1.09354 -0.0658747 1.41506e-20)
(1.04423 -0.00941864 5.59732e-22)
(0.28011 -0.00452517 -1.46725e-20)
(0.914932 -0.0472771 0)
(1.01823 -0.00358507 8.47559e-22)
(1.01713 -0.14697 2.14553e-21)
(1.00675 -0.000871249 -2.06131e-22)
(1.03955 -0.0170681 3.12972e-21)
(1.04916 -0.0281871 -3.68611e-21)
(1.05449 -0.174942 -3.55687e-21)
(1.01564 -0.00746014 9.12379e-22)
(0.425381 0.103454 0)
(1.03749 0.0689007 0)
(1.00084 1.10853e-05 -3.01457e-22)
(0.486459 -0.0317446 -3.72426e-21)
(1.05909 -0.0125528 -9.67024e-21)
(0.325971 -0.00269674 0)
(1.02676 -0.00127398 9.18624e-22)
(0.951187 -0.0433171 1.38731e-22)
(1.01944 -0.0152916 -5.8595e-22)
(1.01698 -0.0142123 4.31642e-22)
(1.04652 -0.0403416 0)
(1.01756 -0.0146466 0)
(0.916334 -0.0665138 -1.97205e-21)
(0.49098 -0.0334558 1.06432e-20)
(0.771418 0.159166 1.49024e-21)
(1.00664 -0.000831138 1.92347e-22)
(1.02774 -0.0239043 0)
(0.734817 -0.0764673 0)
(1.01183 0.00180962 -1.14606e-23)
(0.919624 -0.0718874 -1.68407e-21)
(1.01955 -0.0151515 0)
(0.371455 -0.0164863 -4.75326e-21)
(1.05537 -0.00543376 3.35588e-21)
(0.373907 -0.0175746 1.31065e-20)
(0.637872 0.0907479 0)
(1.00938 0.00124675 -2.27856e-22)
(1.03642 -0.0317245 -4.80922e-21)
(1.01435 0.00307347 -3.46594e-22)
(1.00821 0.000796931 2.07182e-23)
(1.03064 -0.00602671 -1.2134e-21)
(1.07033 -0.0245608 0)
(1.01384 -0.00952962 -1.14709e-22)
(1.04921 -0.056383 0)
(1.00834 0.000831781 3.96205e-24)
(1.01863 -0.0144923 0)
(0.981248 -0.0110183 2.24203e-22)
(0.950375 -0.0359784 0)
(1.02612 -0.0666098 -4.75824e-22)
(0.301349 -0.00718841 6.51383e-21)
(1.04998 -0.0285021 -2.12894e-21)
(1.00036 3.14252e-05 2.98062e-22)
(-0.0330066 0.0534794 2.18985e-20)
(0.772087 -0.000217317 7.6942e-21)
(0.886506 0.0703046 0)
(0.586837 -0.100507 0)
(-0.0592833 -0.237289 1.58195e-20)
(0.530908 -0.0278283 1.1022e-20)
(1.00663 -0.000816336 0)
(0.996177 0.0320785 0)
(1.01834 -0.0144792 0)
(1.01557 -0.00730666 0)
(1.01316 0.000954685 7.97613e-23)
(1.02842 0.0180297 5.40396e-22)
(0.16159 0.0242232 2.36466e-21)
(0.829191 -0.049538 -7.90456e-21)
(1.01641 -0.014153 0)
(0.85377 -0.0519344 0)
(0.385612 -0.0170415 1.44119e-20)
(1.01227 -0.00336021 8.14301e-24)
(0.574313 -0.0353279 0)
(1.01556 0.00560394 -6.45291e-23)
(0.431187 -0.00622287 -5.41535e-21)
(1.03039 -0.0413172 -9.68783e-22)
(0.997733 -0.054605 1.22625e-20)
(1.04915 -0.0182174 -3.46936e-21)
(1.05617 -0.0324681 0)
(0.802607 -0.00360378 -1.56292e-22)
(1.00667 -0.000927797 0)
(0.360492 -0.00333019 0)
(1.0173 -0.0143592 -5.56608e-22)
(1.00203 5.18536e-05 0)
(1.03874 -0.0446437 0)
(0.883968 0.231382 0)
(1.03958 -0.0177888 -5.47139e-21)
(0.821811 -0.0120384 7.09807e-21)
(0.682385 -0.165272 -3.96177e-21)
(1.0132 0.000871586 0)
(0.384832 0.210564 1.65365e-21)
(1.04844 -0.0540718 1.32873e-22)
(1.03291 -0.00337103 4.60721e-21)
(1.00676 0.000352063 1.04479e-22)
(0.314973 -0.00296674 4.50984e-21)
(1.00188 4.53069e-05 0)
(1.02028 -0.0140978 3.27349e-21)
(0.242354 0.00533529 -1.85685e-23)
(0.4328 -0.0531728 -5.39061e-21)
(1.01913 -0.0114905 3.80428e-22)
(0.791248 -0.104201 -1.49705e-21)
(1.01275 -0.00450734 3.47052e-22)
(1.01208 -0.00322149 6.7645e-22)
(1.01285 -0.0045433 8.3005e-22)
(1.00165 0.0289931 7.68237e-22)
(1.01195 -0.00368758 7.7301e-22)
(0.395197 -0.0189269 -1.67416e-20)
(1.02364 -0.0547919 1.09578e-20)
(1.03582 -0.0302474 -7.26568e-22)
(1.04731 -0.015466 0)
(1.04797 0.0280479 0)
(0.858373 -0.0501799 -6.48442e-21)
(1.03131 -0.00198351 -4.73485e-21)
(1.01468 0.00341471 3.25882e-22)
(0.313024 -0.00971022 1.50312e-20)
(1.04772 -0.0302933 0)
(0.385536 -0.00609784 6.0507e-21)
(1.0318 -0.00184659 3.81861e-21)
(0.345776 -0.00205215 0)
(0.388563 0.203202 -1.47475e-22)
(0.467523 -0.0320188 4.28892e-21)
(1.01048 -0.000718271 5.12889e-22)
(1.0017 6.44801e-05 0)
(0.912246 0.0538247 1.44632e-22)
(1.00245 -6.49687e-06 0)
(0.868405 -0.0504236 2.4026e-21)
(1.01473 -0.00157268 -4.01738e-22)
(0.960082 -0.0182742 4.83204e-22)
(1.0321 0.0171241 -6.96033e-22)
(1.02021 0.083747 -4.64216e-21)
(0.73373 -0.119482 2.35396e-22)
(1.05319 0.0247762 0)
(1.0045 0.0118989 0)
(0.89084 0.229077 0)
(1.0405 -0.018735 0)
(1.01376 0.00152368 3.71384e-22)
(1.04788 -0.0150785 0)
(1.05742 -0.0151355 6.54066e-21)
(1.01345 0.00145686 -2.11072e-22)
(0.520698 -0.0251784 -6.26005e-21)
(1.02004 -0.0140385 -2.02966e-21)
(1.00395 5.27304e-05 9.16912e-25)
(1.00697 0.000429033 -6.47898e-23)
(1.06954 -0.0335052 2.58718e-21)
(0.310365 -0.00836155 0)
(1.01518 -0.00675504 0)
(-0.051167 -0.238173 -7.09775e-21)
(1.01858 -0.000179145 0)
(1.00626 -0.00658804 0)
(-0.0147386 -0.00946353 0)
(1.01784 -0.0137924 -2.19937e-22)
(1.03584 -0.0281439 5.69618e-21)
(1.01169 -0.0064228 0)
(1.01676 -0.0143721 0)
(-0.0760938 -0.225537 9.6125e-21)
(1.04762 -0.0162249 -3.09097e-21)
(0.380174 0.0051844 -1.91615e-21)
(0.407539 -0.00456141 -1.82631e-20)
(1.03649 -0.030611 0)
(0.799566 -0.0819367 0)
(0.325935 -0.0232396 0)
(1.00807 0.000466883 0)
(1.00415 0.0156908 -2.13212e-23)
(1.00894 -0.000371522 -5.8685e-22)
(0.423357 0.00492602 -7.8744e-21)
(-0.00968281 0.121587 5.43724e-21)
(1.06883 -0.0860949 6.60034e-21)
(1.04316 -0.0467018 1.82318e-21)
(1.03413 -0.00772727 -2.65507e-21)
(0.4295 0.00473528 -8.56884e-21)
(1.06908 -0.0339547 -3.09359e-21)
(1.04781 -0.0455313 2.80543e-21)
(0.814465 -0.0156082 -4.87547e-21)
(0.562107 -0.168724 -9.98964e-21)
(1.0485 -0.0301402 -7.56462e-21)
(0.055526 0.0823286 0)
(1.01939 -0.0132307 0)
(0.429564 0.00469951 3.74882e-21)
(0.680727 0.0322437 9.39868e-22)
(1.05691 -0.0446118 -4.33514e-21)
(1.01336 0.00133779 4.3896e-22)
(1.09457 -0.0724966 8.4878e-21)
(1.04663 -0.0448162 -2.5144e-21)
(1.03337 -0.00797633 5.30255e-21)
(1.01311 0.00128781 0)
(0.590898 -0.0379075 9.02067e-21)
(0.577449 -0.0341863 -4.00838e-21)
(0.37657 0.151078 8.81529e-22)
(0.781562 -0.140622 0)
(1.01694 -0.000626551 3.50296e-22)
(1.00154 2.76287e-05 0)
(1.07813 -0.0565647 9.03325e-21)
(1.01889 -0.0127064 1.04655e-21)
(1.01712 -0.00909777 7.94242e-24)
(0.763491 0.198802 -2.06702e-21)
(0.943339 0.0176578 -6.78908e-22)
(1.01082 -0.00132669 -1.03342e-21)
(1.01883 -0.000195282 0)
(0.352231 -0.00348823 -1.95083e-20)
(1.05607 -0.0440817 0)
(1.01868 -0.0126686 -4.5857e-22)
(1.01084 -0.00159717 -1.26917e-21)
(0.702603 0.2045 0)
(1.03249 -0.0159855 3.33413e-21)
(0.873755 -0.0524959 0)
(1.05092 -0.0116718 6.21362e-21)
(1.01067 -0.00106461 -1.0192e-21)
(1.01927 -0.0130276 3.06105e-23)
(0.239622 0.0106957 1.71834e-20)
(1.01071 -0.00125002 8.7589e-22)
(1.05999 -0.012634 7.64389e-21)
(1.01124 -0.00224376 1.85535e-21)
(0.734584 0.0197395 -5.46678e-21)
(0.221438 -0.00075136 9.30292e-21)
(-0.0692091 -0.228001 7.69495e-21)
(1.00524 -0.0111728 0)
(1.09687 -0.0952809 1.76305e-21)
(0.566638 -0.0327183 6.16645e-21)
(1.0346 -0.00223539 -1.84164e-21)
(0.495473 -0.0147394 6.37622e-21)
(0.276229 0.00794804 -7.33049e-21)
(1.01436 -0.00153696 -2.4176e-25)
(1.00701 0.000436154 7.34133e-23)
(1.00238 -5.995e-06 -2.77591e-22)
(1.01074 -0.00152013 1.04426e-21)
(1.01794 -0.014708 -7.54209e-23)
(0.76304 -0.144076 0)
(1.00804 0.000812586 5.60288e-23)
(1.01575 -0.000752632 -7.02732e-22)
(1.06888 -0.0506702 0)
(1.013 0.00120422 -1.34421e-23)
(0.371733 0.00357912 -3.32185e-21)
(1.06932 -0.0244852 -4.17514e-21)
(1.00658 0.000505886 0)
(0.442316 -0.00552006 -4.54145e-21)
(0.0706264 0.0680404 -1.1166e-20)
(1.01045 -0.000982001 1.21183e-21)
(1.03107 -0.0420234 -2.84199e-22)
(0.107099 0.0421595 1.2013e-20)
(1.01591 -0.000482524 1.3538e-21)
(1.0448 -0.0201925 -2.47533e-21)
(1.02309 -0.00152607 5.47729e-22)
(1.06817 -0.0523197 0)
(1.04706 -0.0166099 0)
(1.01275 0.0011779 -3.66567e-22)
(1.05801 -0.0146334 -2.90957e-21)
(1.01002 0.000261557 4.71921e-22)
(1.01691 -0.00967928 -9.15596e-22)
(1.03869 -0.0454067 -2.01132e-21)
(1.00727 0.000449451 -6.46175e-23)
(0.715807 0.209674 -2.26653e-22)
(0.279508 -0.00384395 0)
(1.02829 0.00469113 7.8738e-22)
(1.00798 0.000700921 0)
(0.889132 0.221797 0)
(1.04012 -0.0261435 3.7582e-21)
(1.0198 -0.00357029 0)
(0.997275 0.00757673 -2.77188e-23)
(1.01167 0.000511351 -1.7956e-24)
(1.01611 0.0110399 8.74037e-22)
(1.0237 0.00310754 1.25299e-22)
(1.03477 -0.00197524 -5.97207e-21)
(0.865283 -0.212357 2.69086e-21)
(0.404167 0.00292543 5.89544e-22)
(1.04716 -0.041934 -1.38352e-21)
(0.418258 0.00457235 1.0991e-21)
(1.03924 -0.0443379 0)
(1.01983 -0.0135987 -1.1992e-21)
(0.410703 0.00367752 8.32534e-21)
(1.00701 0.000609282 -4.26508e-22)
(1.01179 0.000535933 0)
(1.05124 -0.0589827 -4.12313e-21)
(1.0216 -0.0221971 0)
(1.00797 0.000796284 0)
(0.629275 -0.077168 0)
(1.01112 -0.00216468 -1.30533e-21)
(1.00266 -3.90418e-05 2.11592e-22)
(1.04309 -0.045989 0)
(1.02308 0.0757153 4.75691e-21)
(1.0177 -0.0142516 0)
(1.03647 -0.0283367 -6.42641e-21)
(1.0331 -0.0162456 -5.21929e-21)
(1.02822 -0.0619106 0)
(0.547483 -0.0303926 -7.5242e-21)
(1.00726 0.00060943 1.73884e-22)
(0.392576 -0.00144866 1.82348e-20)
(1.00632 -0.000742299 4.84484e-23)
(1.01095 -0.000515654 0)
(0.405808 0.0074585 3.93998e-21)
(1.00425 9.13325e-05 2.19444e-24)
(1.02924 -0.0638267 0)
(1.05745 -0.164944 -2.03244e-21)
(0.891973 0.217394 1.65862e-21)
(0.541569 -0.0294774 0)
(1.01342 -0.0116989 2.13322e-22)
(1.01451 0.00970826 0)
(0.208751 0.0956829 -1.79329e-22)
(1.02183 -0.00308681 -2.52764e-23)
(0.364448 -0.0163015 0)
(0.633933 -0.122196 0)
(-0.0418094 0.0591566 -8.04203e-21)
(0.592151 -0.0349402 -1.04894e-22)
(0.39806 -0.00836453 9.60712e-21)
(1.02453 -0.215938 -1.315e-21)
(1.02462 -0.00068721 -2.57897e-22)
(1.02519 0.000727108 2.39829e-22)
(1.02084 -0.0101632 -2.50177e-23)
(1.01653 -0.000801556 0)
(-0.0966946 -0.208498 -4.07433e-21)
(1.0196 -0.0135551 1.11567e-21)
(0.550265 -0.0324738 8.06684e-24)
(0.59695 -0.0361921 0)
(1.02093 -0.000205974 2.34111e-21)
(1.03758 -0.0374022 0)
(1.01346 -0.0192604 0)
(0.93595 0.0293717 0)
(1.03677 -0.0311744 3.65775e-21)
(0.589225 -0.0906606 1.93853e-20)
(0.367979 0.00497732 9.33251e-21)
(1.01174 0.000643193 -5.0286e-22)
(0.885945 0.217219 0)
(-0.0745669 -0.0265214 6.06146e-21)
(0.22952 0.0534339 -2.40617e-20)
(0.847531 -0.0520983 0)
(1.03054 -0.00628596 1.37252e-21)
(1.01186 0.000684672 4.34968e-22)
(1.01959 -0.00356092 5.32303e-22)
(1.005 -0.000296742 0)
(1.01566 -0.00228219 -3.11361e-22)
(1.0189 -0.000233654 -1.10554e-21)
(0.911906 -0.102839 7.85203e-22)
(1.01537 -0.00693843 0)
(0.2188 -0.110613 -1.87492e-21)
(1.03003 -0.00628928 0)
(0.561773 -0.0852026 0)
(1.01577 0.0113791 0)
(0.411463 -0.010659 0)
(1.01163 0.000979277 2.57454e-22)
(0.915185 -0.121593 0)
(0.58166 -0.0736985 5.36767e-21)
(0.962121 -0.0266575 -4.88355e-22)
(1.03192 -0.0138043 3.24067e-22)
(1.0326 -0.0228103 0)
(1.00806 0.000722729 1.01877e-24)
(1.05753 -0.127291 7.71167e-21)
(1.05764 -0.122814 -5.13986e-22)
(1.00694 -0.00101532 -7.56246e-23)
(1.01146 0.000977954 -5.45351e-23)
(0.47837 -0.0326574 -5.62233e-24)
(0.433907 0.107879 0)
(0.473347 -0.0315711 -4.45019e-23)
(0.499338 -0.0151848 0)
(0.862403 -0.22168 9.05925e-22)
(0.361311 -0.0154881 0)
(0.347787 -0.0148082 -1.63511e-20)
(0.59482 -0.141792 0)
(1.03468 -0.00784114 0)
(0.58199 0.128909 -1.38907e-20)
(1.00715 0.000603517 -3.53713e-22)
(-0.0266293 0.058558 -2.83742e-20)
(1.0299 -0.00649142 0)
(0.900688 -0.144764 1.25987e-21)
(1.0945 -0.0721787 -7.06433e-21)
(0.0101784 0.0547455 -2.54322e-20)
(1.01512 0.00524019 0)
(1.00666 0.000402169 9.68376e-24)
(0.737121 -0.122699 -9.42266e-21)
(-0.0100175 -0.0144736 2.28408e-21)
(0.380139 0.184272 3.42587e-22)
(1.02651 0.0183192 -2.68507e-23)
(1.0129 -0.00761358 -1.55418e-22)
(0.20463 -0.000842571 0)
(1.02045 -0.00094166 -1.95606e-21)
(0.736125 0.227294 0)
(0.985055 0.011159 1.05574e-23)
(0.103551 0.030405 5.82295e-21)
(1.0142 0.00199787 1.18323e-22)
(1.0111 0.000953907 -1.3739e-22)
(1.01538 0.00353837 -3.42788e-23)
(1.02683 -0.0689885 6.78419e-21)
(1.08277 -0.104235 0)
(0.580686 0.0713721 1.04981e-21)
(1.01251 -0.00541494 0)
(1.00921 0.00121541 3.18684e-22)
(0.413496 -0.0139182 0)
(0.984368 0.00589068 -2.91719e-22)
(0.00827338 0.190036 0)
(0.497941 -0.0285799 -1.50025e-20)
(0.281151 -0.00193995 0)
(1.00832 0.000376367 1.06998e-22)
(0.399328 -0.00617202 7.05649e-21)
(0.5804 -0.151954 3.06753e-21)
(1.01428 0.00263306 1.24005e-23)
(0.375731 0.00582098 -2.99369e-21)
(0.864762 -0.0522383 -7.16e-21)
(1.01564 0.0036891 4.01977e-23)
(1.08319 -0.0687277 -2.32763e-20)
(1.05935 -0.054675 -1.80408e-20)
(0.337875 -0.0135563 1.09036e-20)
(1.00779 -0.000782474 -4.34188e-22)
(1.0339 -0.00806626 -5.40253e-21)
(1.03223 -0.0224562 -6.99961e-23)
(1.01309 -0.00492305 -4.13212e-22)
(0.315571 0.00573489 0)
(1.06661 -0.0411755 0)
(0.801263 -0.079897 0)
(1.0224 -0.00353782 0)
(1.01265 -0.00525919 -2.18989e-22)
(-0.0104397 0.097907 1.16959e-20)
(1.02058 -0.00989639 0)
(1.0105 0.00094413 0)
(0.905305 -0.136941 1.83373e-22)
(0.859657 -0.0592499 -2.49606e-21)
(1.03767 -0.0368459 -2.07829e-21)
(1.02793 -0.000934608 0)
(1.00755 0.000639481 -7.26332e-24)
(1.0111 0.000961263 -4.96686e-22)
(1.00091 2.20873e-05 0)
(0.21169 -0.0454012 -1.39483e-20)
(0.266898 -0.00204251 1.09051e-20)
(1.00758 0.000647836 0)
(1.01072 -0.000107212 0)
(1.00777 -0.000963294 0)
(0.980363 -0.0054125 -8.49978e-22)
(0.422941 -0.0155481 -2.5598e-21)
(1.03469 -0.00308341 0)
(1.0678 -0.0250458 0)
(1.01312 -0.00490467 3.87216e-22)
(1.06877 -0.0252346 0)
(0.01216 -0.139644 0)
(1.01689 -0.000554781 -1.8108e-21)
(1.01663 -0.0102043 0)
(0.904175 -0.0527115 3.11095e-21)
(1.02073 -0.0336007 -5.60215e-22)
(0.254925 0.00717086 5.02472e-21)
(0.402173 -0.000684028 2.42257e-22)
(-0.0769397 -0.0337074 -5.06849e-21)
(1.07868 -0.0572143 1.12031e-20)
(1.01841 -0.0142699 0)
(1.04905 -0.0202981 0)
(0.415439 0.00309609 1.03298e-20)
(1.05494 -0.0430883 2.91253e-21)
(1.08084 -0.0410073 -1.63257e-20)
(1.04785 -0.0186412 0)
(0.421045 -0.0120778 3.28217e-21)
(0.396517 0.215607 -1.85007e-21)
(1.00988 0.000279585 -4.59719e-22)
(1.01882 -0.000134997 0)
(1.01201 0.00100099 -2.18405e-23)
(-0.022958 0.0355408 -2.937e-20)
(1.0073 0.000600014 -1.54339e-22)
(1.07834 -0.0505024 1.06538e-20)
(0.630384 -0.0816935 0)
(1.01768 -0.0116044 -4.77947e-22)
(1.07905 -0.0508689 -1.29866e-20)
(1.01177 0.000997092 -5.8048e-22)
(0.791234 -0.0433475 1.00706e-21)
(1.0857 -0.0428537 -3.11779e-21)
(1.01543 -0.00278673 0)
(0.889838 0.183334 3.58546e-21)
(1.01669 -0.010092 0)
(1.03057 -0.00121815 0)
(1.00296 0.0900148 3.16167e-21)
(1.01855 -0.0142097 0)
(1.09253 -0.0655204 -7.25485e-21)
(0.883608 0.21662 2.57142e-22)
(1.0345 -0.00339967 -4.64665e-23)
(1.0502 -0.0578497 0)
(1.02804 -0.000722422 3.50565e-21)
(1.00962 0.0213553 -1.00379e-21)
(0.260431 -0.105407 0)
(1.03246 -0.00313726 0)
(1.01217 0.00102672 -1.0986e-22)
(1.05969 -0.115078 -5.95445e-22)
(1.02667 0.0100804 1.29907e-21)
(1.0698 -0.0410034 0)
(0.807078 -0.075832 0)
(1.05142 -0.0121935 0)
(-0.126216 0.0654097 -1.23556e-20)
(1.01537 -0.00267569 0)
(1.09238 -0.0952802 0)
(0.570994 -0.172937 3.38171e-21)
(1.01937 0.00948533 0)
(1.00819 0.00033682 -4.07898e-22)
(1.08013 -0.0412511 1.71661e-20)
(1.01766 -0.00472607 -7.38491e-22)
(1.01757 0.00516343 0)
(1.02405 0.0196742 2.36406e-23)
(1.01896 -0.0107903 1.48712e-21)
(1.03003 0.018315 7.05206e-23)
(0.909271 -0.147093 -2.17183e-21)
(0.920167 -0.1045 0)
(-0.0903369 -0.216461 1.18941e-20)
(0.481408 0.223252 2.74339e-21)
(1.01328 -0.000468349 6.12664e-22)
(1.01367 -0.00930735 3.83044e-23)
(1.01307 -0.000607147 -1.77053e-22)
(1.01398 -0.000407959 0)
(1.04314 -0.0188109 -5.27261e-22)
(1.01851 -0.0123984 4.88169e-22)
(0.898174 0.16337 -6.81027e-21)
(1.00912 -0.000357426 2.3395e-22)
(1.01518 -0.00206964 -1.14607e-21)
(1.02567 -0.0722581 4.44708e-22)
(0.327188 0.00688704 0)
(1.00852 0.0181365 1.136e-21)
(0.453502 -0.00936053 -9.15818e-21)
(1.01753 -0.0113585 0)
(1.02781 -0.00196764 -4.33179e-21)
(0.375846 0.194464 -5.23455e-22)
(1.03373 -0.0228534 -2.47085e-21)
(0.252111 -0.109548 0)
(1.06512 -0.041391 7.95938e-21)
(1.04798 -0.0339743 1.84556e-21)
(1.02564 -0.00149208 0)
(0.910967 -0.160374 2.94544e-21)
(1.02726 -0.042527 -8.28058e-22)
(0.729765 -0.212156 3.63838e-21)
(1.01782 -0.0140493 0)
(1.01676 -0.0106047 0)
(1.00827 0.000356717 5.98617e-22)
(1.05095 -0.0602848 4.37269e-21)
(1.04404 -0.0199004 -2.32392e-21)
(1.01922 -0.0108851 -4.58993e-23)
(0.792808 -0.0859395 -3.60694e-21)
(1.01112 -0.00198474 -1.3433e-21)
(1.01034 0.0105195 -3.30668e-22)
(0.857246 -0.227485 -1.45987e-22)
(1.0109 -0.204247 0)
(1.01935 0.0248707 2.43364e-22)
(1.01865 0.00547647 0)
(0.951905 -0.00759369 -2.51323e-22)
(1.02873 -0.0399611 0)
(-0.0187451 0.056744 6.42194e-21)
(1.01427 0.0134717 -5.63821e-24)
(0.412529 -0.00991845 1.25456e-20)
(0.728046 0.0593033 0)
(1.01926 -0.010221 8.12299e-22)
(1.0084 -0.00226017 0)
(1.01009 0.000961716 0)
(0.40071 -0.00893639 -7.09898e-21)
(0.930623 -0.102294 -1.06403e-22)
(0.905268 -0.154498 -2.62558e-21)
(1.00848 0.000866962 -5.40701e-24)
(0.298452 -0.00196131 4.41102e-21)
(1.02788 -0.00175486 -3.66871e-22)
(1.04063 -0.0251079 0)
(0.422356 -0.0594628 0)
(1.01851 -0.0157505 2.1099e-22)
(0.624136 -0.241978 0)
(0.898236 -0.147419 1.79424e-21)
(0.0173992 0.0732974 3.74009e-20)
(1.01101 -0.0019184 1.94135e-21)
(1.01836 -0.0121305 9.55653e-22)
(1.07968 -0.104934 -1.08841e-22)
(0.922946 0.0640029 -2.41213e-22)
(0.580824 -0.0814582 -2.07839e-20)
(0.515122 -0.0300815 -1.92252e-21)
(1.00265 4.45749e-05 1.00623e-22)
(0.595638 -0.0369305 -1.05685e-21)
(0.940914 -0.105702 -1.38606e-22)
(1.00235 0.00990607 0)
(1.00941 -0.000517628 0)
(0.761078 0.0570919 0)
(0.0305681 -0.102996 -5.91342e-21)
(0.533351 -0.0307109 -8.22833e-21)
(-0.0539258 -0.0953928 -1.81957e-20)
(1.00566 -0.000453375 -1.60676e-22)
(1.02239 -0.0729598 0)
(1.05873 -0.0259963 -7.31128e-22)
(1.01185 0.000809173 2.97671e-22)
(1.02529 -0.0221306 -1.38289e-21)
(1.02078 -0.0215723 8.29759e-22)
(1.03482 -0.00251369 0)
(-0.00214957 0.194455 0)
(0.896821 0.109485 1.40485e-22)
(0.912966 -0.127278 2.61802e-21)
(0.941523 -0.117903 -6.61176e-22)
(1.02815 -0.0244906 0)
(1.07772 -0.0427811 4.72546e-21)
(0.933477 -0.142601 -2.25961e-21)
(1.00568 -0.000125453 0)
(0.0631466 -0.0990328 -4.29474e-21)
(1.0095 -0.00306057 -1.8278e-22)
(0.887111 0.0906066 1.47028e-22)
(0.947023 -0.0511085 0)
(0.955347 -0.000825316 -5.01122e-22)
(0.878565 -0.122737 1.90487e-22)
(1.0178 -0.0146978 -2.53715e-24)
(1.01857 -0.0068895 -1.93438e-21)
(1.03092 -0.00175871 3.4321e-21)
(1.02714 -0.0237301 0)
(1.01177 -0.000794055 0)
(0.461003 0.225081 -3.24224e-21)
(1.06606 -0.0416692 -5.86261e-21)
(1.06975 -0.0503306 0)
(1.01024 0.000128504 2.9593e-22)
(0.525383 -0.0263201 -3.25478e-21)
(0.918934 0.153688 2.04285e-22)
(1.02639 -0.00135409 2.44425e-21)
(1.00566 -0.000149459 1.71987e-22)
(0.42534 -0.00924182 -7.55018e-21)
(1.01591 -0.000513445 -3.06477e-21)
(1.00093 2.45518e-05 0)
(1.04763 -0.0204408 -1.59388e-21)
(-0.053649 0.141131 4.76308e-21)
(1.01839 -0.00674701 -9.57702e-22)
(0.856366 -0.229647 -2.48706e-21)
(1.0056 -0.000419086 -5.14111e-23)
(1.10422 -0.0604432 0)
(0.017889 -0.131508 0)
(1.01279 -0.00893952 0)
(1.00709 -0.00109873 1.52476e-22)
(1.03325 -0.0230273 0)
(1.01197 0.000881505 -2.46141e-22)
(1.01879 -0.014678 0)
(-0.048623 0.0543251 9.38902e-22)
(1.0565 -0.0260306 0)
(0.726218 -0.198474 -3.82582e-21)
(1.01473 -0.00061913 0)
(0.55542 0.212745 1.86082e-21)
(1.00962 -0.00315079 3.71418e-22)
(1.09395 -0.0703813 2.25479e-20)
(0.165482 -0.00148991 1.76655e-20)
(1.10378 -0.0610198 -1.17369e-21)
(0.607734 -0.24643 4.41154e-23)
(0.899144 -0.0517117 -3.44218e-21)
(1.02287 0.00434448 1.36084e-21)
(1.01451 -0.00241273 1.43608e-22)
(1.01174 6.84495e-05 2.16225e-22)
(0.556955 -0.177439 -1.20288e-21)
(0.193416 -0.00103026 0)
(1.06758 -0.0415936 -5.50306e-21)
(1.0697 -0.179258 -1.84779e-21)
(1.01551 -0.0024627 1.24419e-21)
(0.552533 -0.0509487 0)
(1.0322 -0.0020915 1.29888e-21)
(1.01435 0.00270846 -1.17225e-23)
(1.01169 -0.0359258 -7.099e-23)
(0.166459 0.0276637 -1.64399e-21)
(1.0068 0.000346774 -4.92553e-23)
(1.03976 -0.0443419 2.20422e-21)
(1.03265 -0.0544515 6.17581e-21)
(0.546837 -0.179141 -3.74057e-21)
(0.517772 0.21477 1.44582e-21)
(0.404942 -0.0194666 0)
(1.01156 -0.00501097 0)
(0.939144 0.00733033 3.33733e-22)
(0.626282 0.145518 8.26518e-21)
(1.00078 2.32725e-06 -7.7365e-23)
(1.02096 -0.019013 0)
(0.57771 -0.0344931 -4.27781e-21)
(0.712898 -0.0948132 4.36093e-21)
(1.06119 -0.0442566 5.21259e-21)
(0.826438 -0.076183 1.25745e-20)
(1.04072 -0.0260013 0)
(1.01924 -0.00465317 0)
(1.02089 -0.0231351 0)
(0.765157 0.144606 -5.02423e-21)
(1.03488 -0.0232537 5.1379e-21)
(1.01449 -0.000837277 2.67062e-21)
(1.00937 -0.000759349 1.23526e-22)
(1.0203 -0.000819393 0)
(1.07359 -0.0700072 2.59019e-20)
(0.177186 -0.0015254 0)
(1.01162 -0.00504107 0)
(1.00852 -0.00234428 -6.91604e-23)
(1.00715 0.0170116 -3.66033e-22)
(0.489801 0.110281 -2.83862e-22)
(1.0449 -0.00948054 4.02597e-21)
(1.01173 -0.0059399 -7.67078e-22)
(0.338539 -0.00124889 2.01023e-20)
(1.01081 -0.00369708 8.76739e-23)
(1.06633 -0.0502858 -3.28243e-21)
(1.02881 -0.00742499 0)
(1.00624 -0.000707003 0)
(1.03271 -0.0146827 -1.24962e-21)
(0.540194 0.0935389 4.07802e-21)
(1.06834 -0.0844651 -3.38816e-21)
(0.949274 0.00714548 0)
(1.0092 -0.000762493 -4.99304e-22)
(1.01139 -0.00628149 5.3792e-22)
(1.05372 -0.0609478 -4.19379e-21)
(0.457857 -0.00681052 -8.6901e-21)
(1.02112 -0.000156204 0)
(1.01156 -0.004941 -1.59054e-23)
(0.935691 -0.129554 -1.70292e-22)
(1.0176 -0.00980968 1.62064e-21)
(1.01006 0.000952794 0)
(1.06564 -0.0932049 -9.86959e-22)
(1.00689 -0.000985042 9.28769e-23)
(1.0073 0.000446219 -2.26747e-23)
(1.09089 -0.106349 -6.41449e-21)
(1.0067 -0.000952308 -6.65838e-23)
(1.06459 -0.0418043 0)
(1.00712 0.000685142 1.16705e-22)
(1.01674 0.00216913 2.33198e-22)
(1.0845 -0.0410377 0)
(1.08864 -0.04842 -1.33732e-20)
(1.01164 -0.00511677 8.22424e-23)
(1.05398 -0.0596353 -1.3516e-21)
(1.00703 0.000656687 -6.44117e-23)
(0.371137 -0.0101945 -1.46063e-20)
(1.007 0.0170993 0)
(1.0057 -0.000326267 0)
(0.637148 0.0558508 8.86597e-21)
(1.01418 0.00177713 2.94263e-22)
(1.01554 -0.00260552 0)
(0.444555 -0.0124411 -6.8375e-21)
(0.394703 -0.0181435 -6.18388e-21)
(0.382044 -0.148361 -2.24331e-22)
(1.01879 -0.0443998 0)
(1.00683 -0.000398169 1.63421e-22)
(1.04356 -0.00781854 0)
(1.01199 0.00184792 0)
(1.06306 -0.0922995 5.55069e-21)
(0.93642 -0.143709 -2.09298e-21)
(0.00510174 -0.0293847 0)
(1.06216 -0.0419066 4.7718e-21)
(0.00731001 0.189373 -7.41692e-21)
(1.01093 -0.000142541 2.75116e-22)
(0.539388 -0.0329062 0)
(1.04531 -0.019677 0)
(1.02204 -0.00323372 2.98e-24)
(1.06697 -0.0883361 0)
(1.00442 -0.00577204 0)
(0.95342 0.0143579 0)
(1.01399 -0.00467131 7.65122e-22)
(1.05569 -0.0326984 0)
(1.00901 0.00119034 2.74707e-24)
(1.00568 -0.00046102 3.42786e-22)
(1.0285 -0.0160862 2.34646e-22)
(0.986362 0.0413682 0)
(1.06724 -0.0506311 0)
(0.0860544 0.110308 -3.86573e-20)
(1.02499 -0.0225175 1.43434e-21)
(0.356191 -0.0155739 0)
(0.436142 -0.0114227 -3.39415e-21)
(0.27583 0.00821347 4.39254e-23)
(0.959966 -0.043658 -4.15385e-22)
(0.886219 0.0711801 6.39459e-22)
(1.01389 0.00291577 6.05692e-23)
(1.02474 -0.0018628 -2.03407e-22)
(1.00613 -0.000653952 -1.4904e-24)
(0.888009 0.0745032 -1.05844e-21)
(1.01737 0.00199357 0)
(1.01098 0.0152432 0)
(0.664692 -0.175929 -3.06868e-21)
(-0.0209485 0.15799 -1.31195e-20)
(1.01407 -0.00607277 8.27107e-22)
(0.638358 -0.0772753 3.10975e-21)
(1.00351 -0.0279282 -9.06372e-22)
(1.00999 -0.00305384 -2.78516e-22)
(1.01565 -0.00055008 -2.28041e-23)
(1.02574 0.0208373 -5.9132e-22)
(1.00576 -0.000152751 1.79625e-22)
(0.999275 0.0105718 4.25182e-22)
(1.00632 0.000259657 0)
(1.01682 -0.0136097 1.12309e-22)
(0.215165 0.108638 -3.23334e-22)
(1.02839 -0.00733542 2.04549e-21)
(1.01872 -0.015009 0)
(1.00976 -0.00210873 2.98376e-23)
(1.01475 0.00471832 0)
(1.00886 0.000384308 -2.43859e-22)
(1.05552 -0.0581753 5.75473e-21)
(1.00107 -4.83715e-05 -4.41473e-23)
(1.00665 -0.00078138 -5.3915e-23)
(1.04126 -0.0249492 4.81065e-21)
(1.05785 -0.0666415 0)
(1.00986 0.000932114 0)
(1.00662 0.000515257 -1.23988e-22)
(1.02919 -0.00724482 -4.4015e-21)
(0.893617 -0.0349075 0)
(1.00557 -0.000411446 -1.59872e-22)
(0.879603 -0.0509742 4.39196e-21)
(1.01625 0.0104371 0)
(1.02765 -0.0665493 -5.10072e-21)
(1.01489 0.00381769 -9.26437e-22)
(1.03861 -0.0394606 -7.95533e-23)
(1.00695 -0.000425327 -5.77901e-22)
(1.01492 -0.00245616 2.16934e-22)
(1.00578 -0.00012725 0)
(1.02368 -0.0138547 0)
(1.00722 0.000600859 -1.72333e-22)
(1.03451 -0.0118939 -4.74642e-22)
(1.02923 -0.00702793 7.47446e-21)
(1.01747 -0.0121504 6.68488e-22)
(1.01168 0.000101878 6.5951e-23)
(0.997275 -0.100726 2.02854e-21)
(1.06917 -0.0965468 0)
(1.01102 -0.0039133 -4.39094e-23)
(1.0129 -0.00520989 0)
(1.01029 0.000985089 1.90558e-22)
(0.724583 0.226809 2.2433e-23)
(1.05625 -0.0251039 0)
(-0.110973 -0.193422 5.40897e-21)
(1.01546 0.0153925 -1.70483e-23)
(0.562187 -0.0326859 0)
(1.03135 0.00953952 0)
(1.01098 -0.00425741 0)
(1.03437 -0.00690652 0)
(1.00424 -0.000214112 0)
(-0.0218704 0.150602 2.7521e-21)
(1.03508 -0.00751474 4.02322e-21)
(1.01856 -0.0157696 -8.18373e-23)
(1.02977 0.011752 -2.50558e-22)
(1.02089 -0.0138159 -3.54145e-22)
(0.517689 0.122245 -2.07375e-20)
(1.0175 -0.00520544 2.32242e-22)
(1.00317 -0.0267171 -6.87716e-22)
(1.06816 -0.0410388 -8.24361e-23)
(1.01442 -0.000426491 -2.45102e-21)
(0.578123 -0.100004 1.89463e-20)
(1.05541 -0.0249089 0)
(0.256289 -0.0603788 2.86053e-20)
(0.869061 -0.199289 0)
(1.00025 2.66911e-05 0)
(1.02739 0.0071209 0)
(1.00671 0.00042529 2.51738e-23)
(-0.120587 0.0701043 1.5782e-20)
(1.01443 -0.00629317 0)
(0.759049 0.187232 2.55074e-21)
(0.3924 -0.0132279 0)
(1.00922 -0.133826 0)
(1.01711 0.00918396 -1.41164e-21)
(1.01632 0.00697791 0)
(1.00562 -0.000437485 0)
(1.02111 -0.000593857 0)
(0.360688 -0.0169698 -5.25892e-21)
(0.860385 -0.227238 0)
(0.410589 -0.0092713 6.40963e-21)
(1.01194 -0.00658542 4.67087e-22)
(1.03767 -0.0208579 0)
(1.01294 -0.00517484 5.20208e-23)
(0.98207 -0.0549045 0)
(1.03796 -0.0206051 0)
(1.00678 -0.000890271 0)
(0.392257 0.00441161 0)
(1.07412 -0.0323452 -6.70164e-21)
(1.01879 -0.0793171 0)
(1.00385 -0.000195106 -9.11159e-24)
(1.01936 -0.00528645 -1.08735e-21)
(1.0258 -0.0155785 0)
(1.01092 -0.00388287 6.60659e-23)
(1.03098 -0.00140347 1.2639e-21)
(0.844643 -0.0560763 6.50376e-21)
(1.03147 -0.0220746 -2.0207e-21)
(0.94233 0.0392594 0)
(0.906183 0.00937612 8.72326e-23)
(0.455717 -0.0147479 0)
(1.0376 -0.0389151 0)
(1.00891 -0.0308821 7.22165e-23)
(1.06724 -0.0257728 0)
(1.0614 -0.0271485 -4.1622e-21)
(0.42905 -0.0107449 0)
(-0.0814494 -0.229425 2.56063e-21)
(0.38561 -0.00413497 -1.6633e-20)
(1.08885 -0.107107 -1.10775e-20)
(1.00776 -0.000896883 1.75638e-22)
(0.830772 0.0298955 6.3931e-21)
(1.02297 -0.00589411 1.67936e-21)
(1.02299 0.000196676 0)
(1.00824 -0.00210421 -2.10746e-22)
(0.414534 0.14316 1.17183e-21)
(0.910116 0.219751 -2.69128e-21)
(0.892771 -0.0494386 5.25569e-21)
(0.0866481 -0.250705 0)
(1.01776 -0.0135342 4.96632e-22)
(0.907586 0.110869 0)
(0.887158 -0.0443393 -2.28319e-21)
(0.33144 -0.00313965 -6.69429e-21)
(1.01173 -0.0654376 1.61521e-21)
(1.03793 -0.0455813 2.84683e-21)
(0.993605 -0.21036 -7.22236e-22)
(1.01029 7.97941e-05 -1.58042e-25)
(0.571376 -0.0334561 -1.95693e-20)
(0.913575 0.130799 0)
(-0.0172888 0.0382659 1.02055e-20)
(1.02751 -0.0201846 1.72341e-21)
(1.02428 -0.00973388 1.2804e-22)
(1.01461 0.00449478 2.48724e-22)
(0.873237 0.0681053 4.53657e-21)
(1.0091 0.00107396 0)
(1.01029 -8.7066e-05 5.049e-22)
(1.03497 -0.00375909 3.92655e-21)
(1.02028 -0.0113194 0)
(1.01035 -9.2544e-05 -4.4909e-22)
(1.04381 -0.00887522 -2.19215e-21)
(1.02011 -0.000854956 2.55376e-21)
(1.03388 -0.00693816 0)
(1.01825 -0.01016 0)
(1.01306 0.00963343 -2.89896e-22)
(0.881661 0.0508601 -9.52907e-21)
(1.01424 0.00409939 -2.52852e-22)
(1.00709 -0.00116035 1.80784e-23)
(-0.112292 0.0485167 1.15867e-20)
(1.06822 -0.0343979 2.35291e-20)
(1.0079 -0.000992063 0)
(1.04287 -0.00787205 0)
(1.01009 -0.00309242 9.87024e-23)
(1.03703 -0.128695 3.91704e-22)
(0.549498 -0.0928561 0)
(1.04213 -0.00643833 -4.53452e-21)
(1.03436 -0.0234264 0)
(1.02972 -0.0579766 0)
(1.0209 -0.000614725 -1.1754e-21)
(1.06097 -0.0306836 3.58986e-21)
(1.00604 -0.0624201 -1.85304e-22)
(1.05004 -0.0116836 -5.97261e-21)
(1.08599 -0.0527183 -5.17499e-21)
(1.01097 0.00681234 6.01801e-22)
(-0.0461609 0.146882 5.0948e-21)
(0.439822 -0.0124793 1.18797e-20)
(1.01691 -0.00903941 -1.14619e-21)
(1.00547 0.000183265 7.00661e-23)
(1.01448 0.00292793 0)
(0.571318 -0.0888349 0)
(0.507926 -0.0190294 0)
(1.00703 -0.00112344 0)
(1.01521 0.00676356 1.4743e-22)
(0.019421 0.13555 9.88046e-21)
(1.00838 0.000280237 -4.50678e-22)
(0.832082 -0.0554064 0)
(1.04102 -0.0345408 5.12697e-21)
(0.886286 0.20877 -5.50699e-21)
(1.07846 -0.0431257 0)
(1.00845 0.000308969 5.58181e-22)
(0.839639 -0.0552336 0)
(1.00654 -0.000782334 -5.86291e-23)
(0.515872 -0.0228236 -2.17637e-21)
(0.880276 -0.0555868 -2.77546e-21)
(1.04261 -0.0535322 0)
(1.01088 0.00549873 -2.69777e-22)
(1.02438 0.000762337 1.72873e-21)
(1.03903 -0.0566879 6.18998e-21)
(1.03865 -0.0197971 0)
(0.323795 0.00703144 4.65875e-21)
(1.00754 0.000591847 0)
(1.04055 -0.0347622 -5.2842e-21)
(0.313123 -0.00287592 -1.88691e-21)
(1.04462 -0.0407607 -8.74288e-22)