/*--------------------------------*- C++ -*----------------------------------*\
| =========                 |                                                 |
| \\      /  F ield         | OpenFOAM: The Open Source CFD Toolbox           |
|  \\    /   O peration     | Version:  v2012                                 |
|   \\  /    A nd           | Website:  www.openfoam.com                      |
|    \\/     M anipulation  |                                                 |
\*---------------------------------------------------------------------------*/
FoamFile
{
    version     2.0;
    format      ascii;
    class       volScalarField;
    location    "0";
    object      yPlus;
}
// * * * * * * * * * * * * * * * * * * * * * * * * * * * * * * * * * * * * * //

dimensions      [0 0 0 0 0 0 0];


internalField   uniform 0;

boundaryField
{
    frontback
    {
        type            empty;
    }
    topbottom
    {
        type            calculated;
        value           uniform 0;
    }
    outlet
    {
        type            calculated;
        value           uniform 0;
    }
    inlet
    {
        type            calculated;
        value           uniform 0;
    }
    walls
    {
        type            calculated;
        value           nonuniform List<scalar> 
720
(
5.56573
6.00003
6.25134
5.70727
6.05368
5.07017
5.45255
5.86265
6.0781
5.43055
5.4869
5.99618
5.61324
5.5678
6.2551
5.56443
5.36617
5.81206
4.98429
5.37601
5.40643
5.49826
6.01888
6.21051
5.6249
5.73207
5.70244
5.48759
5.52425
5.52937
5.69391
5.67517
5.44163
5.24025
5.43192
5.57238
5.4489
5.55973
5.34354
5.3588
5.16711
5.30746
5.05215
5.43449
4.94505
5.11391
4.99236
4.54562
4.64972
4.84123
4.3511
4.46494
4.84594
4.70011
4.64637
4.84123
4.98572
4.16505
5.06294
4.71563
4.59746
5.29146
4.58762
5.24053
4.22656
4.32444
4.84123
4.84123
4.796
4.84123
4.13099
4.6948
5.30818
4.92368
4.94696
4.61434
4.70917
4.97025
4.79401
4.84123
4.37886
4.5316
4.47784
5.20629
4.11625
4.84123
4.63997
4.89871
4.84123
4.42893
4.25997
4.58168
4.55601
4.22239
5.5123
4.63051
5.4646
4.84123
4.18296
4.54838
4.41648
4.60655
4.86899
4.84123
5.03782
4.84366
4.72192
4.59976
4.65945
5.38018
4.70275
4.84123
4.84123
4.39323
5.26731
4.87973
5.51666
4.6704
4.41631
4.92724
5.07056
4.84123
4.99672
4.97473
4.80574
3.79359
4.03795
4.84123
4.75519
4.97571
5.18935
4.66922
4.36607
4.11984
4.84123
4.84123
4.18797
3.92432
5.05596
4.46637
4.90892
4.96465
5.00368
4.30883
4.61582
4.87338
4.81895
4.91634
4.89763
4.64934
4.84123
4.94958
4.56206
5.64393
4.81992
4.64493
4.84123
5.2355
4.67027
4.9037
4.40944
4.32387
4.88456
5.04849
4.60159
5.52654
4.30203
5.59751
4.46589
4.21263
4.79052
4.84123
5.16184
4.47371
4.82102
5.01168
3.98692
4.86339
5.12591
4.39584
4.54567
5.03624
4.32989
4.58539
4.84123
4.80894
4.82045
4.43969
4.70221
4.84123
3.96797
4.92641
5.11534
4.71601
5.12455
4.44126
5.22287
4.9375
4.75282
4.42286
4.94575
4.71127
4.938
5.02916
5.31062
5.6517
4.66806
4.45185
4.51347
5.08022
4.24871
5.18309
5.01547
4.96612
4.52269
4.85146
4.56521
4.37721
4.84123
4.5731
4.63988
4.65391
4.7943
4.41825
4.73987
5.28996
4.75072
4.53076
3.82271
4.25375
5.22673
4.67435
5.49906
4.76795
4.14603
4.84123
4.95294
4.7444
4.34266
4.79689
4.59642
4.38645
5.38826
4.48347
4.38976
5.1622
4.87989
5.03973
4.84123
4.39095
4.96457
5.03505
4.78619
4.77951
5.03632
4.37372
4.5175
4.58881
4.66526
4.92004
4.71886
5.13373
4.48031
4.97238
4.92013
4.4203
4.67181
4.46981
4.71094
4.62451
4.84123
4.50074
4.5365
4.74169
5.59876
4.90196
5.03288
5.29156
4.84123
4.93165
4.21761
4.89899
4.80081
4.84123
4.67184
4.62717
4.84123
4.38444
5.16486
4.20571
4.34988
5.25306
4.84123
4.67186
5.31701
4.47986
4.84123
4.73813
4.83335
4.84123
4.46667
5.67903
4.84123
4.49472
5.55108
4.7179
4.84123
5.00389
4.51647
5.82987
4.78651
5.70806
4.84405
4.9427
4.90543
5.22746
4.78937
4.69778
4.84123
4.82786
4.76426
5.1457
4.84123
4.10249
4.84123
5.012
5.14898
4.7647
4.39646
4.62637
5.3019
4.42644
4.67341
4.61338
5.20203
4.98937
4.84123
4.93619
5.05511
5.81253
4.73418
5.5259
4.64633
5.15604
5.29315
5.19321
5.2595
4.57831
4.59678
4.22588
4.84123
4.4819
4.84123
4.72693
4.66474
4.54202
4.83827
5.75603
4.86104
4.46748
4.84123
5.4885
5.53228
4.65569
4.81558
4.71453
5.05615
4.88788
5.04523
4.81897
4.9715
4.51935
5.01355
4.65538
4.92608
4.84123
4.50669
4.44477
4.60644
4.5813
4.41875
4.68738
4.29328
4.86356
4.81386
4.91922
4.82266
4.84009
4.70724
4.87256
4.98778
4.27624
4.6413
4.73875
4.84123
4.68038
4.84123
4.84123
4.17702
4.85838
4.71459
4.36667
4.98528
4.90449
5.68691
4.94887
4.69646
4.75243
4.65491
4.61595
4.95486
4.20856
4.84123
5.81978
5.95492
4.68208
4.25514
4.90133
5.05965
4.87183
5.01839
4.65467
5.26847
4.84123
4.62767
5.09401
4.65892
4.84123
5.35187
5.01519
4.84123
4.79609
4.98776
4.96938
4.90294
4.90794
5.0819
4.84123
4.62235
4.77749
5.06581
4.91934
5.26825
4.7999
4.92273
4.65712
4.42454
4.78703
4.84123
4.74528
4.73481
4.84123
4.35518
4.70529
4.46449
4.725
5.01106
4.66123
4.84001
4.73442
4.6029
4.99157
4.11521
4.35438
4.91374
4.68712
4.75046
4.83986
4.94795
4.60351
4.47281
4.62643
4.38653
4.90912
4.69696
4.63364
4.67263
4.72173
4.7848
4.33026
4.23231
4.83343
4.63104
4.5682
4.41097
4.46941
4.87038
4.14753
4.33443
4.19337
4.70785
4.62906
4.42714
4.78127
4.08304
4.94054
4.52228
4.53237
4.71539
4.54907
4.6917
4.01508
4.93552
4.33311
4.76205
3.88414
4.63133
4.54803
4.21848
4.85217
4.6579
4.52887
4.87261
4.59498
4.17517
4.43935
4.17544
4.83055
4.10704
4.20857
4.41181
4.4957
4.49119
4.55857
4.63398
4.40048
4.97906
4.65808
4.58856
4.57889
4.47891
4.52131
4.42236
4.82071
4.5639
4.34318
4.31484
4.36791
4.32558
3.92656
4.27095
4.45092
4.58203
4.24535
4.29489
4.85393
4.38293
3.98594
4.59951
4.14902
3.96601
4.62828
4.11575
4.0816
3.90878
4.08088
4.50207
4.16749
4.08071
4.11748
4.02869
4.06988
4.09609
3.965
3.97336
4.55977
4.07608
4.09143
3.99919
3.98138
3.93074
4.40622
4.06123
3.94033
3.8661
4.35522
4.32136
4.52196
4.72629
4.54392
4.67945
4.36467
4.51082
4.30684
4.55787
4.31399
4.22048
4.56223
4.41823
4.33165
4.18957
4.16383
4.65056
4.51494
4.4999
4.37832
4.59001
4.60543
4.58061
4.0558
3.80084
4.15342
4.69522
4.12954
4.1456
4.60043
4.54877
4.02727
4.18677
3.72126
3.67639
4.56128
4.48228
3.76066
3.97209
4.34722
4.30847
3.61996
3.95558
3.98926
4.48482
3.90822
4.27846
4.61296
3.47402
3.96512
4.20564
3.76588
3.85486
4.24373
3.56448
4.31593
4.33847
3.6781
3.50723
4.1579
3.86585
4.37928
3.73039
4.05327
3.49157
3.81371
3.9272
3.67082
3.8361
3.55444
4.5203
3.7716
3.5888
3.87256
3.69005
3.96619
4.202
4.24677
3.41163
3.70451
3.88351
3.67704
4.01267
4.14271
4.14712
4.02948
3.40649
4.2916
3.80729
3.38453
3.5862
3.79549
3.49559
3.52754
3.67118
3.94073
3.97923
3.84777
3.54308
3.79663
3.4663
3.60188
3.40422
3.39108
3.50496
3.64248
3.45653
3.26247
3.34001
3.50883
3.4999
3.30316
3.24791
3.30624
3.26234
3.26073
3.17045
3.25092
3.3328
3.18921
3.80833
3.59946
3.28969
3.17338
3.51107
3.14562
3.31106
3.29804
3.64828
3.63306
3.27324
3.22211
3.30647
3.03238
3.25371
3.27478
3.18185
3.20782
3.14244
2.97081
3.3804
2.89066
3.26419
2.86906
)
;
    }
}


// ************************************************************************* //
