/*--------------------------------*- C++ -*----------------------------------*\
| =========                 |                                                 |
| \\      /  F ield         | OpenFOAM: The Open Source CFD Toolbox           |
|  \\    /   O peration     | Version:  v2012                                 |
|   \\  /    A nd           | Website:  www.openfoam.com                      |
|    \\/     M anipulation  |                                                 |
\*---------------------------------------------------------------------------*/
FoamFile
{
    version     2.0;
    format      ascii;
    class       surfaceScalarField;
    location    "300";
    object      ddtCorrDdt0(phi);
}
// * * * * * * * * * * * * * * * * * * * * * * * * * * * * * * * * * * * * * //

dimensions      [0 3 -2 0 0 0 0];
oriented        oriented;


internalField   nonuniform List<scalar> 
78975
(
0.00562185
-0.00446917
-0.00115268
0.000899598
-0.000370783
-0.000528814
2.42241e-06
1.24478e-05
-1.48704e-05
-5.0946e-06
3.95706e-06
1.13767e-06
-0.00864385
0.00723481
0.00140903
-9.7028e-08
-1.93741e-06
2.0342e-06
-4.34497e-06
1.78764e-06
2.55714e-06
4.17854e-06
-3.01125e-06
-1.16774e-06
0.000825169
-0.000288485
-0.000536684
4.94187e-06
1.97456e-06
-6.91643e-06
7.9343e-06
-5.49044e-06
-2.44396e-06
-1.6457e-05
0.000343457
-0.000327002
0.000176868
-0.000108754
-6.81131e-05
0.000765351
-0.000355875
-0.000409479
0.00636053
-0.0091462
0.00278568
-0.00706258
0.000225641
0.00683694
7.23187e-08
7.91906e-09
-8.01473e-08
0.00701304
0.0323371
-0.0393501
-2.19638e-05
1.55131e-05
6.45067e-06
-4.2967e-07
-1.27706e-06
1.70605e-06
-0.000122304
0.000113808
8.49542e-06
-0.000555355
0.00133853
-0.000783156
0.00160407
-0.00387662
0.00227255
-0.000954113
-2.05421e-05
0.000974649
-1.77627e-06
6.71812e-06
0.000162246
-0.000139066
-2.31801e-05
-0.0297712
0.0367842
9.80844e-05
-0.000104031
5.94659e-06
-0.00643787
0.00110407
0.0053338
-3.98297e-06
1.66192e-05
2.05514e-06
-1.86744e-05
9.86165e-07
-1.41553e-06
-6.30867e-05
0.000545081
-0.000482053
-0.000668697
0.00430217
-0.00363347
-2.49429e-06
-4.40561e-06
6.8998e-06
4.07025e-06
-6.56463e-06
-1.3023e-06
2.16513e-06
-8.62912e-07
-3.49207e-05
-0.00568291
0.00571783
0.000485662
0.000885945
-0.00137161
1.29818e-05
0.000111333
-0.000124314
0.011321
-0.00525354
-0.00606741
-0.000308755
0.000232856
7.58962e-05
1.63273e-05
3.37012e-05
-1.18614e-05
-6.20205e-06
1.80632e-05
-0.000533582
0.000538405
-4.82369e-06
-0.00123597
0.000680627
-3.27368e-05
1.07839e-05
2.19529e-05
-0.0100231
0.00137929
-0.00557446
0.00553953
-5.07023e-06
3.71328e-05
-5.16733e-05
-2.37588e-05
7.54318e-05
-7.24213e-05
-2.37533e-05
9.61741e-05
-1.13782e-06
6.67834e-07
4.69962e-07
-0.000462657
0.000261753
0.000200902
0.00219125
6.56581e-06
-0.00219782
0.000214622
-5.24139e-05
-0.000162208
-7.12868e-05
0.00299359
-0.00292234
0.00061001
2.72414e-05
-0.000637249
1.49316e-05
-2.27083e-06
-1.2661e-05
-2.46649e-06
2.1314e-06
3.35084e-07
-5.81139e-07
-1.85549e-06
2.43661e-06
7.80488e-07
7.27665e-07
-1.50833e-06
-5.68663e-05
4.95529e-05
7.31424e-06
1.48194e-05
-6.6493e-05
1.15747e-05
3.3572e-06
-8.83359e-05
-0.000220421
-0.000121367
5.8261e-05
6.31061e-05
1.52603e-05
-3.7851e-05
2.25906e-05
-2.20947e-05
1.41888e-05
7.90587e-06
6.42703e-07
2.61544e-07
-9.04123e-07
-6.10545e-07
-2.88145e-06
3.4919e-06
-8.45008e-07
2.47584e-06
-1.63068e-06
0.00145509
0.000237033
-0.00169213
-1.51553e-06
1.87097e-07
1.32844e-06
2.74617e-06
-1.24342e-06
-1.50212e-06
1.53321e-05
1.67809e-05
-3.21132e-05
2.01117e-06
2.16709e-06
-5.07359e-06
4.15824e-06
9.15229e-07
4.97381e-05
0.000112508
1.87276e-06
4.35181e-07
-2.30853e-06
4.60504e-06
-6.38131e-06
-1.43675e-05
-3.13811e-06
1.75053e-05
5.08843e-05
0.000163738
-1.13363e-07
1.67325e-05
1.98087e-06
-1.95631e-06
-2.46764e-08
-0.00015414
0.000169934
-1.57937e-05
7.16607e-05
-5.5191e-05
-1.64678e-05
-2.38947e-05
1.25043e-05
1.13894e-05
-0.000105987
-0.000228687
0.000334675
-4.74565e-06
2.53752e-06
2.20813e-06
5.71023e-06
-1.90959e-06
-3.80082e-06
1.08296e-06
-2.66296e-06
1.57995e-06
-3.71706e-06
8.14394e-06
-4.42685e-06
8.59067e-08
1.89513e-06
-1.46005e-05
-9.29557e-06
-0.00852535
0.0111161
-0.00259076
6.84789e-06
-5.69942e-06
-1.14994e-06
2.50837e-06
3.20155e-06
0.000126582
5.02864e-05
1.646e-07
4.77946e-07
2.01757e-06
-2.59875e-06
-8.88646e-07
-1.57788e-06
0.00389367
-0.00228961
2.80369e-05
7.00475e-05
3.08269e-06
-3.69324e-06
0.000834626
-0.00027053
-0.0005641
0.00113704
-0.000851215
-0.000285825
0.00160553
-0.00362289
0.00201734
-5.10534e-06
2.78969e-06
2.31559e-06
0.00674096
0.00273915
-0.0094801
3.95958e-07
2.94222e-05
-2.98181e-05
-2.98258e-05
-8.38836e-05
0.000113709
5.64158e-05
0.00388671
-0.00394315
-2.46326e-05
9.41995e-06
1.52125e-05
-0.000203109
1.18774e-05
0.000191232
-6.3309e-06
4.31987e-06
2.01127e-06
0.0155194
-0.0142892
-0.00123016
-0.000240444
-0.000222213
4.65506e-05
2.51125e-05
0.00503378
-0.0135591
6.8944e-06
-1.42497e-06
-5.46948e-06
0.000126136
-8.42125e-05
-4.19228e-05
7.97539e-06
0.000144475
-0.00015245
5.88713e-05
4.87488e-05
-0.00010762
3.95002e-06
-2.85819e-07
-3.66404e-06
-0.00239384
0.0033895
-0.000995656
-0.0103389
-0.00165943
0.0119984
-6.0634e-05
0.00154037
-0.00147974
-4.40346e-05
3.25944e-05
1.14405e-05
-5.41185e-06
-1.65519e-05
-1.96722e-06
-4.55363e-06
6.52114e-06
4.98477e-06
-0.0105327
0.0049653
0.00556747
0.00073656
-0.000124072
-0.000612488
-9.0429e-05
-3.09383e-05
-2.29717e-06
-2.44847e-06
1.74919e-06
5.38945e-08
-1.80303e-06
-0.0001042
-0.00049527
0.000599471
8.47657e-05
-0.000114592
5.18568e-06
-7.15262e-06
-0.000750062
0.000759307
-9.24606e-06
7.70782e-05
-0.000124974
4.7895e-05
0.000465368
0.00191758
-0.00238294
-6.04213e-08
-3.89226e-08
9.9321e-08
-2.00556e-06
-2.00024e-07
2.20558e-06
-1.6907e-05
1.89621e-05
-0.000475231
0.00137505
-0.00089981
0.000579308
0.00032029
-1.01605e-06
-1.7155e-07
1.18771e-06
-2.63932e-06
-4.50621e-07
3.08991e-06
-7.08814e-05
3.0373e-06
6.78438e-05
-1.91624e-05
2.82592e-05
-9.09725e-06
0.000387781
-0.000104688
-0.000283093
0.000178242
-0.000221556
4.33053e-05
-0.00102717
-0.000208796
-1.45273e-05
4.75507e-05
-3.30234e-05
0.00623983
-0.00734781
0.00110796
0.000660467
0.00338803
-0.0040487
-1.66055e-06
1.56363e-06
-3.80145e-06
-1.30386e-06
-3.04147e-06
1.59354e-05
-1.2894e-05
-1.81032e-05
6.24169e-06
6.32697e-06
1.15107e-10
-6.32713e-06
2.339e-07
3.33746e-06
-3.57146e-06
6.36449e-06
-3.75877e-08
-0.000779533
-0.000174583
-0.000260378
0.000183635
7.67439e-05
0.000382956
0.0028758
-0.00325876
-4.62411e-06
-1.61789e-06
6.24204e-06
5.3125e-06
-2.76628e-06
-2.54643e-06
-0.000559234
0.000352032
0.000207202
-0.00218646
-7.10879e-06
7.47344e-06
-3.64799e-07
-0.00202496
0.0129437
-0.0109187
6.33725e-06
-1.73225e-06
1.14577e-05
-2.91703e-06
-8.54131e-06
-1.06392e-06
4.7862e-08
-4.24739e-06
-2.08347e-06
-0.00019378
-6.65985e-05
2.96843e-05
-1.43522e-05
-3.47937e-05
9.76988e-05
-6.29046e-05
0.000342789
0.00048238
-1.26815e-06
1.98083e-06
-7.1254e-07
4.17392e-07
-2.35499e-06
0.00983121
-0.00442005
-0.00541117
-8.57167e-06
-1.60612e-05
-3.58394e-06
-2.11134e-06
5.69526e-06
3.57369e-06
-7.44549e-05
0.000137386
-0.000124403
1.69376e-05
2.16578e-05
-3.85958e-05
4.25293e-06
-4.52816e-06
2.74827e-07
-0.00306087
-0.000183854
0.00324486
0.000281243
0.000378159
-0.000659402
0.00046076
0.000676266
3.72406e-05
-0.000109662
2.17226e-06
-2.08626e-06
0.0148281
-0.00723151
-0.00759661
-0.000566039
0.000426337
0.000139699
1.53583e-06
6.36473e-07
0.00436271
0.00451118
-0.00887395
-2.04635e-06
1.91148e-06
1.34842e-07
-0.000355405
-0.000178177
-1.45736e-05
-0.000199823
0.000214394
1.36966e-06
-4.46453e-07
-9.23398e-07
0.000176602
-0.00155921
0.0013826
0.00169239
-0.00291089
0.0012185
4.07377e-06
1.7899e-07
8.96052e-05
-1.21076e-05
-7.74963e-05
0.0118394
-0.00330108
-0.00853838
0.00362611
0.00769485
-0.000202316
-0.000356919
-3.61364e-05
2.69135e-05
9.22287e-06
0.0422893
-0.012741
-0.0295483
3.33781e-05
9.27581e-05
-0.00132483
-0.00368361
0.00500855
-4.15881e-05
0.000123422
-8.18338e-05
0.000257769
0.00050758
-3.17702e-05
2.04821e-05
1.12877e-05
-4.1085e-05
0.000118163
-0.000103348
-2.16256e-05
2.23409e-05
1.68355e-05
-3.91768e-05
5.81009e-05
-9.96892e-05
5.77779e-06
1.06872e-06
0.000169144
-0.000220821
5.16775e-05
-0.000123457
3.52892e-05
8.81689e-05
-1.768e-05
-4.24503e-05
6.01303e-05
8.16461e-05
-2.21213e-05
-5.95245e-05
0.00660972
-0.000249188
3.67317e-05
4.49145e-05
4.60208e-06
-3.05013e-06
-1.55196e-06
-2.7615e-06
5.93004e-06
-3.16948e-06
0.00731376
0.0075144
4.36137e-06
-5.00553e-06
6.44103e-07
0.0033161
-0.013655
-1.50375e-05
1.71646e-05
-2.12703e-06
0.00019799
-0.000189908
-8.08152e-06
-1.95675e-06
1.10848e-07
1.84583e-06
5.39357e-06
0.0010139
-0.000287842
-0.000726055
-6.81723e-05
9.31152e-05
-2.49432e-05
0.00365786
0.000477333
-0.00413519
-0.000365017
0.00205741
-0.000163415
7.59797e-05
8.74344e-05
-0.0471325
0.0166644
0.0304681
1.70263e-06
-1.53793e-06
-0.0156603
-0.00171095
0.0173713
-7.9489e-07
-4.27903e-06
9.65341e-07
-3.13937e-07
-6.51373e-07
3.01571e-06
1.58641e-06
3.681e-05
-6.78766e-05
3.10665e-05
0.00656701
-0.00125641
-0.00531061
0.00020175
-0.00800988
0.00780812
6.29183e-05
-5.01669e-05
-1.27505e-05
-1.35937e-05
1.05523e-05
-2.02568e-06
1.1763e-07
1.90828e-06
3.72888e-06
-1.71782e-06
0.0305257
0.0117636
0.000287849
-0.000302426
4.32685e-05
-2.76958e-05
-1.55727e-05
-1.82577e-05
6.36664e-05
-4.54088e-05
-0.00013006
1.24689e-05
0.00011759
-1.92663e-05
1.13964e-06
5.63659e-07
-2.95595e-07
-8.4224e-07
0.00841288
0.0232426
6.74429e-08
-1.27912e-07
6.96096e-05
-0.000118384
4.87743e-05
-0.000124969
2.65815e-05
-4.11088e-05
0.000800412
0.00192908
-0.0027295
9.71289e-05
-0.000185576
8.84447e-05
-0.0002156
3.25614e-05
0.000183038
1.56882e-06
1.80327e-07
-2.09584e-05
4.32992e-05
-0.000518207
-0.000330758
0.000848963
-0.000339941
-0.000226099
-0.00024561
4.25023e-05
-9.17765e-05
-7.49479e-05
0.000166724
-4.30892e-07
-2.03369e-07
6.34469e-07
-2.08696e-07
2.08663e-07
6.18481e-05
-2.50383e-05
0.0347807
0.0015242
-0.00134761
0.000408535
0.00042609
-0.000229041
-0.00136586
0.00159487
-2.62685e-06
7.71288e-07
0.00163146
-0.00133492
-0.000296535
-2.80452e-05
-0.000102014
0.000752305
2.22057e-05
-0.000774598
-7.23468e-05
2.74402e-05
4.49062e-05
0.0141663
0.0209779
-0.0351442
0.0115839
-0.0099132
-0.0016707
1.521e-07
-4.41866e-05
0.000226083
-0.000128954
-2.47048e-06
2.7044e-06
-6.56468e-06
2.31725e-06
-1.7459e-05
1.98812e-05
-4.01912e-06
-1.53114e-05
1.93303e-05
-4.16399e-06
0.00624399
0.0208402
-0.00667388
0.000109833
-4.02235e-05
-2.07274e-06
7.90168e-06
-5.82893e-06
-7.31375e-06
5.24099e-06
3.39971e-06
-3.6575e-06
2.58354e-07
0.000808531
-0.000824938
1.64061e-05
0.00010578
0.000223585
-0.000329364
0.000114594
-8.65572e-05
4.62737e-05
4.76677e-05
-9.3942e-05
0.00299598
-0.0025306
5.57911e-05
-5.9041e-05
3.2494e-06
0.00984971
0.000829774
-0.0106795
-2.19587e-06
1.35105e-06
5.44881e-06
6.00849e-06
-1.17306e-06
2.1324e-06
-9.59219e-07
0.000241613
0.000772285
2.91651e-06
-2.32065e-06
-5.95828e-07
-0.000957144
0.00144281
-3.07546e-05
4.76916e-05
-0.00586723
0.010901
-2.62418e-05
0.000166559
-0.000140317
-1.56545e-05
2.43255e-06
5.1202e-07
-2.94454e-06
-0.0023194
0.000867011
0.00145238
4.16374e-06
-4.56755e-06
4.03803e-07
0.000336314
2.58833e-05
-0.000362197
-0.00455864
0.00323385
-2.98257e-05
-0.00181921
0.00184903
-5.09468e-07
-2.49498e-07
7.58697e-07
0.00715676
-1.70741e-05
-0.00713969
-8.06102e-06
2.49643e-06
5.56471e-06
-0.00562944
0.0208068
-0.0151774
-0.0126779
0.00681065
1.33545e-06
-9.84174e-06
8.50585e-06
0.000402829
-0.000732107
0.000329277
0.0288001
-0.0105583
-0.0182417
4.36227e-05
7.18786e-05
-0.000115501
4.30494e-05
-4.93267e-05
6.2771e-06
-1.99589e-05
3.05185e-06
6.09888e-06
-3.22153e-07
-3.25682e-06
-4.80405e-06
2.11402e-05
-1.84834e-05
-2.65679e-06
8.8252e-05
-2.93807e-05
3.39298e-05
-3.35097e-05
-4.20412e-07
0.0153082
-0.0037243
-0.00090078
0.000649806
0.000250971
1.72243e-05
-0.000100161
8.29369e-05
-2.18537e-05
3.13184e-06
3.84879e-06
-1.38087e-07
-3.71094e-06
-7.80874e-06
8.80097e-06
-9.91633e-07
0.0013724
-0.00261434
0.00124194
1.65938e-06
-8.78973e-07
2.72572e-06
2.58673e-06
0.0035112
-0.00433262
0.000821427
1.36675e-05
-0.000105444
-5.73295e-06
4.93781e-06
0.00193741
0.0268627
-3.15647e-05
-8.46344e-05
0.000116201
-0.000968501
0.000978521
-1.00226e-05
0.00247662
0.00190635
-0.00438309
-5.80492e-05
-6.54073e-05
-0.000980475
0.000129261
1.38705e-06
3.31503e-07
-1.71846e-06
0.00553974
-0.02035
0.0148102
-9.19772e-07
4.00326e-06
-3.08344e-06
-0.00175245
0.00214997
-0.000397523
-3.58207e-06
2.66237e-06
0.000355685
-0.000147963
-0.000207723
-0.00588408
-0.000553781
-0.00320138
-9.25581e-05
0.00329394
0.00364339
-0.00130029
-0.00234309
-0.00208974
0.00633241
-0.00424267
9.66606e-06
5.91741e-06
-1.55834e-05
0.000283307
0.00190795
0.000369028
-0.000473231
1.64084e-06
-4.24822e-06
2.60729e-06
4.44019e-06
-1.69386e-06
5.77267e-06
3.24707e-07
2.60612e-05
-2.60612e-05
0.00318139
0.000476476
-6.79666e-06
4.03411e-06
-2.50107e-06
3.78488e-06
-1.28398e-06
1.06772e-05
1.01057e-05
-2.07828e-05
-1.83424e-06
-2.12061e-07
0.022944
0.0121922
-0.0351363
-9.14646e-05
0.00015062
-5.91555e-05
-1.86966e-06
6.4928e-07
1.22038e-06
-0.00187989
0.000127442
0.00373674
-0.00907188
0.00533515
-0.00687083
0.00273285
0.00413798
-0.00144724
-0.0169457
0.018393
0.000132479
-0.000205991
7.3513e-05
-1.8905e-05
2.66586e-06
1.62389e-05
1.24903e-05
0.000160175
-0.000172667
-6.76223e-06
1.58014e-06
5.1817e-06
0.00258335
-0.00265466
0.000196934
-6.44551e-05
-0.00178966
0.000549887
0.00123978
-8.32939e-07
-7.76697e-07
1.60957e-06
-0.000145109
1.33986e-05
0.000131709
-2.60932e-05
-1.21683e-05
3.82616e-05
6.55654e-05
4.90288e-05
-3.95579e-06
4.3855e-06
-4.28911e-07
-0.00489613
0.00495244
-0.00500904
0.0279531
-1.08699e-06
1.11438e-06
-2.743e-08
-0.000176552
0.000330126
-0.000153574
-1.15385e-06
-1.90872e-08
-0.000335091
0.00033067
4.42024e-06
0.000119266
0.000722096
-0.000841362
8.81579e-08
1.28159e-06
-8.35159e-05
7.09527e-05
1.25632e-05
-1.75908e-06
3.59952e-06
-1.84134e-06
-0.000170792
-0.000591349
0.000762135
0.000145204
-0.000137229
-4.56512e-05
1.80015e-05
2.76497e-05
-6.56532e-07
-1.21314e-06
0.00771312
-0.0329719
0.0252588
-1.51552e-05
2.6108e-05
-1.09528e-05
-1.29929e-05
1.12528e-05
1.7411e-06
-1.54392e-06
-3.91617e-06
1.41481e-06
-0.0194669
0.0180196
6.31605e-06
-3.68913e-06
-2.6266e-06
4.60945e-06
-2.2445e-06
-2.36491e-06
0.000196389
-0.00114486
0.000948467
-8.99907e-05
0.000426305
-6.9928e-07
-5.72872e-07
1.2722e-06
0.00106844
-0.000832782
-0.000235681
-0.00144237
0.00290812
-0.00146575
-1.87224e-06
9.32366e-07
9.39797e-07
-0.000767874
0.00147321
-0.000705317
-0.00045342
0.000212975
0.00051091
-0.000485027
-0.000155526
6.58665e-05
8.96599e-05
1.40138e-06
-1.31317e-06
-3.32674e-06
0.00387625
-0.00166447
-0.00221177
8.89157e-05
-4.26424e-05
0.00677674
-0.00657499
-0.00122228
0.0013041
-8.17863e-05
-0.00182938
0.00898614
0.00192412
0.00171926
-0.00094075
0.000240687
0.00070006
-0.00052726
0.000464091
-0.00185266
0.00182282
-2.59135e-07
2.13181e-06
-9.91734e-05
0.000610083
-0.000303831
0.000594133
-0.000290301
0.000885265
0.00299099
7.63025e-07
1.42902e-06
-2.19197e-06
-5.81721e-05
-1.41751e-05
0.000178606
0.000889841
4.20997e-07
3.96545e-06
-4.38631e-06
4.05271e-07
-2.19393e-08
-3.83352e-07
0.000570656
-0.000121337
-9.29233e-05
0.000214261
0.00444622
0.00538499
7.62441e-06
0.00132581
-0.00133344
2.17322e-06
-4.16005e-08
-2.13167e-06
-0.00350937
0.00220136
0.00130801
-9.07329e-06
4.71637e-06
4.35636e-06
1.55065e-06
1.7437e-06
-3.2943e-06
-2.70419e-06
3.06225e-06
-5.56285e-07
-2.5059e-06
6.18781e-07
-8.76268e-07
2.5732e-07
-0.0056622
0.00387634
0.00178585
-0.00280239
0.00957912
0.0100555
-0.00331451
0.000326888
-0.000221108
0.00104679
-0.00344063
2.40442e-05
1.92242e-05
0.00601305
-0.00784244
-0.00161985
-0.00122519
0.00283071
2.31227e-06
2.94376e-05
-3.45079e-05
3.74333e-06
-1.62037e-06
-2.12372e-06
6.23825e-05
-4.63016e-05
-1.60793e-05
-0.00499622
0.00125548
0.00374068
7.16273e-05
6.51795e-05
-0.000136808
8.98914e-07
3.05115e-06
7.40489e-05
-0.000219159
0.00567131
-0.0084737
-0.000203583
0.000140801
6.27828e-05
7.49356e-06
3.46732e-05
-4.21666e-05
2.95664e-07
-9.94947e-07
-1.34977e-05
-8.98511e-05
-6.57294e-06
3.20518e-06
3.36784e-06
8.12167e-05
0.000116773
0.00136949
-0.00387439
0.00250492
3.86329e-07
1.7869e-06
4.17727e-06
-3.28568e-07
0.000911894
0.00565511
3.04862e-06
-2.28582e-06
0.00188793
0.00200575
-4.05534e-06
5.05175e-06
-9.96924e-07
2.04957e-06
-1.10732e-06
-9.42041e-07
4.37858e-05
-0.000120536
7.67505e-05
3.90538e-05
-3.15604e-05
-0.000103526
6.87318e-05
-3.27369e-05
0.00184376
-0.000471359
-5.11882e-06
0.000156161
-0.000151042
1.06043e-05
6.49112e-07
-0.000920406
-0.001399
5.51279e-05
-1.38072e-06
-5.37466e-05
-8.70874e-06
7.4906e-05
-6.61969e-05
-6.7099e-06
9.64707e-06
-2.93732e-06
-1.17255e-05
5.02031e-06
6.70508e-06
0.00774076
-0.00774494
0.00167912
-4.76629e-05
2.61179e-06
-2.47543e-06
-1.3684e-07
2.25473e-05
-2.21512e-05
1.35981e-05
-8.85458e-05
-5.85946e-06
-1.0556e-06
6.91517e-06
-7.3611e-05
0.000192816
-0.000119205
-0.000679882
0.000660246
1.96364e-05
1.68991e-06
-9.7983e-07
-7.10179e-07
6.12546e-06
-2.10935e-06
-4.01579e-06
9.77092e-06
3.97843e-06
-1.37493e-05
-0.00320793
-0.00463024
0.00783817
0.00213438
0.0062886
-0.00842298
-1.22295e-06
-6.55852e-06
-1.52952e-05
-0.0101667
-0.0178874
0.0280542
-4.97191e-06
-7.61123e-07
-0.000134323
0.000114795
1.95265e-05
-6.89217e-06
4.60261e-06
2.29103e-06
-4.29512e-05
0.000319212
-0.000276259
-2.47447e-05
6.24209e-05
-3.76758e-05
0.000159969
-0.000678176
5.59458e-06
-8.07812e-06
2.48349e-06
-0.00235048
-0.00351933
0.00586981
-0.0100766
0.00634833
0.00372832
6.92126e-07
-1.20164e-06
-0.00238671
-0.00112266
-5.08295e-06
1.02784e-06
-0.00360705
0.00927836
-0.000287336
-0.000166083
-5.73831e-06
-5.98713e-06
-0.0034286
0.0027599
-3.9144e-07
1.793e-06
8.14024e-06
-5.7627e-06
-2.37755e-06
6.44017e-06
-3.45174e-06
-2.98838e-06
1.7551e-05
2.52827e-06
-2.00792e-05
-0.00105365
0.00105848
-4.8326e-06
1.25082e-05
-2.73747e-06
-8.01963e-05
0.000111494
-3.12969e-05
-2.7271e-05
2.7271e-05
1.09032e-05
-5.79411e-05
4.7038e-05
-2.19432e-05
6.78799e-06
9.40411e-07
1.10429e-06
-2.04473e-06
7.35523e-07
1.87626e-06
-9.60144e-06
1.62881e-05
-6.68657e-06
-2.08886e-07
1.67898e-10
-0.000681772
-0.000258977
0.0343105
-0.032373
4.05747e-05
-0.000109916
6.93404e-05
7.1525e-05
-5.23518e-05
-1.91731e-05
-0.00705678
0.00117271
-2.35535e-05
8.39447e-06
1.51589e-05
-0.00828643
0.00467938
-1.04007e-05
3.69072e-06
-5.74976e-05
-0.00116482
-4.11075e-06
-2.78069e-06
7.24612e-06
-1.714e-05
9.89348e-06
5.82807e-06
-3.35203e-06
-2.47654e-06
5.99152e-05
-6.93267e-05
9.41117e-06
-1.59793e-05
1.33399e-05
2.63948e-06
-3.36182e-05
-9.2479e-07
3.87235e-05
-8.6294e-05
4.75716e-05
9.03725e-05
0.000216216
-0.000306589
-5.49946e-05
-2.85213e-05
-4.24432e-05
-0.000111697
-3.21595e-05
-2.50288e-05
5.71884e-05
-5.97219e-07
1.12922e-06
-5.32011e-07
1.64109e-06
8.34767e-07
-1.04399e-05
1.73153e-05
-6.87535e-06
-4.89139e-05
9.26997e-05
7.74256e-05
8.55442e-05
-0.000162969
-0.000284021
0.000107469
-0.0003165
0.00027355
-0.00197285
-0.00165007
-1.02129e-05
-5.44607e-05
2.97162e-05
-2.00916e-05
2.078e-05
-6.88536e-07
8.76686e-05
0.000239219
0.00123548
0.0174138
-0.0186492
6.58546e-05
-8.50192e-05
1.91646e-05
-2.20541e-06
2.48597e-07
-0.0131244
0.00599542
0.00712902
-0.000121855
-0.00231611
-3.92218e-06
-6.40542e-07
4.56303e-06
-0.00145575
-0.00717777
0.00863326
-6.05026e-06
2.46633e-06
6.82743e-06
-2.75728e-06
-2.4824e-05
-4.67602e-06
2.95e-05
-0.000178502
2.63781e-05
0.000152122
5.92941e-05
-0.000180631
-0.000543444
0.00132453
-0.000781077
0.00109098
0.0107485
1.39127e-06
2.39329e-06
0.000166189
-0.000170071
3.88181e-06
-0.00738349
-0.00200182
0.00938533
-0.00409076
-0.00157144
-3.21933e-05
9.80478e-05
-0.000272076
5.64763e-05
1.98392e-06
-0.000126034
8.32859e-05
4.27496e-05
9.67639e-06
9.29282e-07
4.67103e-06
-6.28448e-06
1.61351e-06
4.27696e-06
-1.89592e-06
-2.38101e-06
4.26553e-06
3.47885e-05
5.19011e-07
-2.17952e-06
-6.79073e-05
4.76657e-06
6.31405e-05
1.52217e-06
-6.14631e-06
0.00449054
-0.00684102
3.11682e-07
-5.61222e-07
0.000110024
-1.58291e-06
2.80473e-07
-0.00271349
0.00203809
0.000675439
0.0466329
-0.0123225
-3.95314e-05
-0.000139469
0.000179
-0.00839819
-0.00726215
-1.58966e-05
-1.69007e-05
3.27973e-05
-9.96307e-05
0.000143253
4.24825e-06
7.87922e-06
-1.21275e-05
-0.000153845
7.73149e-06
4.02796e-07
-8.13433e-06
1.56563e-06
2.03355e-06
-0.00349953
0.00388249
-0.00851407
-0.00461037
2.94453e-06
1.7792e-06
-4.72359e-06
-1.94055e-05
1.39936e-05
5.06077e-05
4.52068e-06
-2.25128e-06
1.93935e-06
3.11886e-07
0.00265613
-0.0125693
-0.00637632
-0.000686233
-4.23761e-05
-1.02588e-05
5.26348e-05
-6.74505e-06
1.09932e-05
-0.000593344
-0.000459906
0.00105325
-1.22693e-05
1.98843e-05
-7.6149e-06
-1.61339e-06
1.28265e-06
3.30755e-07
0.000157108
-0.00019664
-3.62475e-06
6.3783e-06
-6.13052e-06
-2.47749e-07
2.21402e-06
-3.29825e-06
1.08423e-06
-7.50902e-05
-8.04364e-05
0.000110016
6.63356e-05
-0.000176351
-6.42034e-05
-0.000103447
-0.00403619
0.00413963
-1.32621e-06
1.39342e-06
-6.72888e-08
1.01834e-05
-1.67418e-05
-4.93001e-05
-7.56614e-06
3.92316e-05
-0.000164756
0.000125524
-0.00064956
0.000478766
0.00149702
0.000669276
-0.00216629
-0.00203645
-0.00295977
2.07188e-06
7.60498e-06
-5.43644e-08
9.85738e-08
-4.42147e-08
-2.20831e-06
4.20168e-06
-1.99322e-06
-2.70312e-06
4.25381e-06
1.74199e-06
-1.73425e-06
-7.76192e-09
-0.000796483
-0.00018399
-0.000270012
0.000631716
-0.000361706
3.91908e-05
-5.7448e-05
-0.000124593
7.42422e-05
5.03509e-05
3.04014e-07
-7.1072e-06
6.80335e-06
0.00392259
-5.37024e-05
0.000157466
-0.000103764
-4.25344e-07
-1.45746e-06
1.88281e-06
-1.04306e-06
-2.91249e-06
0.000238633
0.000117052
-5.70886e-05
0.000167105
0.013799
0.00196951
-0.0157684
-0.00052128
0.00021745
7.16011e-06
-2.70103e-06
-4.45922e-06
-0.00372414
0.00973718
-0.000365065
-0.00142459
7.81852e-10
-1.33253e-05
1.33242e-05
0.000439617
-0.000648727
0.00020911
8.2198e-06
-9.97192e-06
1.7521e-06
5.27326e-06
-1.1599e-07
-4.27312e-07
5.43395e-07
-0.00224041
-0.000801158
0.00304156
3.43863e-05
-1.73601e-05
-1.70261e-05
0.000991751
-0.000700985
-0.000290775
-5.70581e-05
7.42824e-05
0.00556854
-0.0067593
0.00119076
7.84916e-06
1.19484e-05
-1.97976e-05
1.29397e-06
8.71168e-07
-1.19796e-06
4.72311e-06
-3.52545e-06
-0.000881186
5.67142e-06
-1.04586e-05
4.78713e-06
-0.000508569
0.00016863
-2.54388e-05
2.14192e-05
-5.22379e-05
-1.36604e-05
6.58989e-05
-2.5563e-06
6.87629e-07
1.86867e-06
-3.83275e-05
2.70891e-05
1.12384e-05
-0.00012906
0.000206486
-0.000422224
0.000533784
-0.00011156
-1.8107e-06
-1.41686e-05
7.91571e-07
3.02121e-07
-1.09361e-06
-1.83379e-06
1.14912e-06
6.84576e-07
-1.47087e-05
1.78734e-07
1.45301e-05
2.46459e-06
-2.7932e-06
3.29123e-07
-0.000424682
0.000137345
-0.00052793
-0.00632695
0.00685495
-3.36442e-06
7.25123e-07
0.00329031
0.00167974
-0.00497009
-0.000830745
0.000631489
0.000199253
-0.000180918
0.000188681
-7.76263e-06
-5.93951e-06
4.53638e-06
1.4037e-06
-1.79155e-05
0.000196151
1.63158e-05
3.81976e-05
-5.45135e-05
-0.000271141
9.30389e-05
0.000178103
-0.000210754
-5.17384e-05
0.000262489
0.000145868
-1.55148e-05
0.000631378
-0.000191761
7.28755e-05
0.000663684
-4.20916e-05
4.70196e-05
-4.92745e-06
8.70713e-06
-4.56358e-06
-4.14373e-06
-8.4327e-06
1.12214e-06
7.31042e-06
-0.00098781
-0.00286084
0.00384882
0.000797073
-0.000600685
-1.9754e-06
4.44123e-06
-2.46588e-06
-0.00574713
0.00365739
0.000226966
-0.000332953
0.00418042
-0.0136882
0.00950784
3.85494e-05
-5.62297e-05
-0.00956278
0.0137432
6.11687e-05
-6.95625e-05
8.39391e-06
-9.01428e-07
-7.13643e-05
-9.20504e-05
-0.000178638
6.77242e-05
0.000110913
0.00363154
-0.00593854
0.002307
-3.94457e-05
-6.20555e-06
-2.47008e-05
2.89665e-05
4.32647e-05
-4.53103e-05
2.04578e-06
-8.44781e-07
-4.83832e-07
1.3286e-06
-0.000935941
-0.000352785
0.00128873
-0.000159859
0.0002576
-9.77408e-05
2.03247e-06
0.0130219
-0.0018418
-0.01118
-9.30342e-06
6.14328e-06
3.16016e-06
2.57488e-07
-2.50338e-07
-7.03992e-09
3.24683e-06
-3.68724e-06
4.40401e-07
-4.15956e-06
-2.06646e-05
7.4517e-07
6.98643e-06
3.85348e-06
-9.08256e-06
0.000491804
-0.00048272
-6.42264e-06
-4.58147e-05
-0.00162424
0.00351217
-0.000202931
1.73534e-05
-2.14352e-06
4.86924e-06
-1.15273e-05
-4.64638e-06
1.61736e-05
0.0192019
-0.0136622
3.90855e-05
-2.23045e-05
-8.98684e-06
3.67259e-06
5.3144e-06
0.000476241
-0.000485323
-0.00149682
-0.000383071
-0.0054881
-0.00156867
-0.000904743
0.000108262
-1.26501e-06
-1.77898e-05
1.77904e-05
0.00770207
-0.0101903
0.00248821
-8.70933e-05
7.83848e-05
0.00075933
-0.000658935
-0.000100395
-0.000161376
-4.93837e-05
-3.42929e-07
3.88736e-05
-3.853e-05
7.12781e-05
-0.000124981
-0.000497946
0.000112184
0.000385763
-2.00267e-05
1.26435e-05
7.38315e-06
-4.98669e-06
-4.08114e-06
9.06792e-06
4.44281e-05
-1.3788e-06
0.012707
0.001673
-0.01438
-2.0032e-05
2.80311e-05
-7.99911e-06
1.94217e-05
-3.95337e-05
2.01119e-05
1.54044e-05
-5.77805e-05
1.65023e-07
-9.26868e-08
0.000951186
-0.000516759
-0.000434416
-0.000620464
0.00019824
-0.000590059
-1.15377e-05
7.58724e-06
3.95038e-06
-3.01936e-06
3.45499e-07
2.67384e-06
-1.21211e-07
-7.11789e-07
0.000530314
-0.00219478
0.00543207
-0.00534925
-8.27946e-05
0.000217275
0.00726459
-0.00748186
0.000987078
-0.00123716
0.000250068
-0.00133989
0.000864658
4.69479e-05
-0.000127144
0.00841445
-0.00405172
2.01501e-06
-0.011206
0.00918102
-3.58988e-06
-1.53152e-05
-0.00635959
0.0140617
-0.00243448
0.00296479
7.27683e-06
-2.53011e-06
-4.74716e-06
-0.00611264
0.000624554
4.19293e-07
5.46056e-07
8.61212e-06
6.51857e-07
-1.56893e-05
0.00407006
-0.00270057
-0.000154027
-8.59157e-05
0.000239943
-5.60348e-07
7.04471e-07
-1.43956e-07
-1.11548e-05
-1.094e-05
1.81691e-06
-1.37586e-06
-4.4094e-07
-6.9612e-06
3.90004e-06
3.06107e-06
-2.39806e-06
-1.85015e-06
-0.000592994
0.000174621
0.000418372
0.000212364
0.000596171
-4.542e-05
-4.21517e-05
8.75707e-05
0.000147088
-6.58708e-05
-8.12174e-05
0.00375134
-0.0131538
0.00940241
0.00125981
0.00249361
-0.00375343
-2.78908e-09
-4.36391e-07
4.3915e-07
-7.52753e-06
1.7711e-05
-4.10748e-07
2.42838e-06
1.03417e-07
-3.5445e-06
3.44124e-06
-0.00151057
-0.00514642
0.00665687
-1.57133e-06
-4.33704e-06
5.90832e-06
0.000797218
-0.0032622
0.00246499
1.07072e-06
-1.52952e-06
4.58819e-07
0.00017465
-0.00014453
-3.01205e-05
-0.000309299
-0.000115383
-0.000410131
-0.00202435
-6.71405e-06
-3.94855e-07
-1.62327e-06
5.74138e-05
-3.66389e-07
-0.00512674
-0.00304294
0.00816974
-1.29266e-06
-3.35453e-08
-0.0039021
0.00192925
-4.68378e-07
3.52409e-07
0.00321468
0.0123047
-0.00267095
0.0156928
1.46914e-05
-6.84224e-06
-0.00680253
-0.00373004
2.04662e-06
-1.6294e-06
-2.54874e-05
5.45535e-06
0.0125058
-1.24665e-05
2.31437e-05
0.0001369
-0.00660747
0.00647057
-1.33794e-06
-4.60153e-06
8.72584e-06
5.36568e-05
-4.14576e-05
-0.000161474
3.11792e-05
-8.5201e-06
-2.2659e-05
0.000949552
0.000523662
-0.000240044
-0.000268522
3.79036e-06
-2.94063e-07
-3.4962e-06
2.34177e-06
-3.76114e-07
-1.96566e-06
6.85962e-05
0.000319185
-0.000178972
0.000397995
-0.00021902
2.50393e-05
6.13977e-06
-5.62463e-05
0.000130292
1.57613e-07
-1.58459e-08
-1.41825e-07
1.18102e-05
-3.79033e-05
-0.00591938
0.0031583
0.00276109
6.19555e-06
-3.77777e-06
-2.41778e-06
-4.65377e-06
2.41555e-06
2.23822e-06
-4.76594e-07
-0.00517085
0.0088024
4.24719e-05
2.0447e-05
-0.00772915
0.00353723
0.00419192
-1.4847e-05
-1.56584e-06
1.64126e-05
-3.64802e-06
-5.6554e-06
-3.9788e-05
-8.48047e-05
1.82639e-06
4.14384e-05
-2.6142e-06
-1.67913e-05
0.00400213
-0.00180078
-0.00135842
0.00177001
-0.000411596
-0.0015474
5.05828e-05
9.80756e-07
2.80962e-06
-4.00222e-06
-2.56246e-06
0.00715679
-0.0086674
-2.58672e-05
5.24487e-05
6.69653e-05
-7.64837e-05
9.51843e-06
2.05371e-05
-2.00712e-05
-4.65827e-07
-0.000703477
-0.00235739
0.00318358
0.00630421
-0.00948782
1.55251e-05
-1.68936e-05
1.36835e-06
1.0641e-06
-4.98613e-06
0.00818313
-0.00692772
2.75674e-05
-2.9161e-05
1.59354e-06
1.01182e-06
2.71688e-06
1.15751e-06
-4.62928e-05
-2.16144e-05
-4.74121e-06
-2.57253e-06
-0.00204753
-0.00126948
0.00331701
-6.28127e-07
4.99765e-06
-4.36987e-06
3.17401e-06
-7.41453e-07
0.000498115
-0.000320619
-0.000177496
-0.00014396
0.000210296
-6.54504e-06
-4.86453e-05
5.51903e-05
-0.0028901
-0.00302927
0.000735994
-0.000176854
-0.000559143
0.00450157
-0.00436467
-0.00523629
-0.00087635
0.000130881
-0.00017564
4.47586e-05
-1.16074e-05
-5.28619e-06
4.14558e-06
-1.4233e-07
1.39305e-07
-1.54787e-07
1.54724e-08
6.46335e-06
1.43834e-06
-2.08758e-06
-1.63688e-07
-0.0027891
0.00177036
0.00101874
-0.0017006
0.00341185
-0.00171125
-3.09967e-06
-3.47329e-06
0.00616132
-0.00524943
6.62243e-05
1.06686e-05
-2.35615e-05
1.28928e-05
8.54805e-05
0.0409803
-0.0537128
0.0127325
-1.07477e-05
-0.000170171
-1.55941e-05
-2.27333e-05
5.24306e-06
-4.6721e-06
-5.71393e-07
-9.89196e-07
1.76986e-06
-7.80771e-07
-0.00293845
0.00393599
-0.00099753
-0.00833468
-4.63969e-05
0.000215541
-8.9861e-05
4.44407e-05
3.90519e-06
-1.49643e-06
5.60389e-07
9.36038e-07
-2.53894e-06
4.76008e-06
-2.22116e-06
2.18806e-05
-1.54197e-05
-6.46111e-06
-0.00466727
-0.00220356
5.87293e-06
-4.64673e-06
-1.22652e-06
-0.0107713
0.0517516
-0.000251889
0.000339558
-2.22591e-07
8.58088e-07
-6.35484e-07
0.0012153
0.00217419
2.35419e-06
-5.12052e-06
-4.91569e-07
-1.00486e-06
-0.00231761
0.000497671
0.00181993
2.19009e-05
-0.000165861
-1.19583e-05
1.71201e-06
1.02463e-05
0.000123445
-0.000179696
0.00148239
0.00582084
-0.00730323
3.36563e-06
-8.35225e-06
-0.000367336
0.000188369
-0.000129406
0.00016998
0.00170289
-0.00687374
1.75953e-05
-1.81825e-05
5.87084e-07
5.20763e-05
-6.64217e-05
1.43502e-05
-1.19676e-06
-9.09307e-07
2.10609e-06
-0.00982643
-0.000363851
1.01236e-05
-3.57607e-06
-6.54748e-06
-2.86153e-06
1.88405e-05
-1.59785e-05
1.4736e-09
-6.76373e-06
-0.00119272
0.000256784
3.42162e-06
-4.21023e-06
7.88381e-07
-9.8453e-06
7.13407e-07
9.13184e-06
5.28229e-06
-5.81102e-06
5.28937e-07
4.26986e-05
-2.63713e-05
3.43165e-05
0.000112772
-4.81215e-05
-7.51979e-05
0.000123319
-5.86632e-06
-9.55804e-06
-2.40005e-06
-3.09072e-06
-1.01679e-06
4.10716e-06
-2.62008e-06
3.01875e-05
7.6284e-07
1.05419e-06
-6.90285e-06