/*--------------------------------*- C++ -*----------------------------------*\
| =========                 |                                                 |
| \\      /  F ield         | OpenFOAM: The Open Source CFD Toolbox           |
|  \\    /   O peration     | Version:  v2012                                 |
|   \\  /    A nd           | Website:  www.openfoam.com                      |
|    \\/     M anipulation  |                                                 |
\*---------------------------------------------------------------------------*/
FoamFile
{
    version     2.0;
    format      ascii;
    class       volScalarField;
    location    "300";
    object      k;
}
// * * * * * * * * * * * * * * * * * * * * * * * * * * * * * * * * * * * * * //

dimensions      [0 2 -2 0 0 0 0];


internalField   nonuniform List<scalar> 
53008
(
0.000199019
0.000184949
0.024816
0.000143985
0.000286661
0.000137313
0.000144176
0.000132579
0.000165077
0.000137832
0.000129992
0.000202477
0.000137745
0.00777765
0.00146533
0.000265704
0.000156104
0.0117294
0.000165955
0.00014131
0.000150004
0.0137686
0.0140239
0.0067476
0.000137726
0.000167645
0.0101137
0.000137601
0.0276653
0.000143949
0.000172252
0.000141291
0.015948
0.000258616
0.000132823
0.000132898
0.000153585
0.000300485
0.00016039
0.0289131
0.0273901
0.00665568
0.000132763
0.00013886
0.00274014
0.0136057
0.00529152
0.000332173
0.0003013
0.0170897
0.00016369
0.0340577
0.000160709
0.000165673
0.000167247
0.000221195
0.0192186
0.0001493
0.000139777
0.000149062
0.000141894
0.000139184
0.000150935
0.000163708
0.000139824
0.00947869
0.0438438
0.000189747
0.000151325
0.000140658
0.000142164
0.000143253
0.000160191
0.000143107
0.000184284
0.000161051
0.000132513
0.000139705
0.000167604
0.000146012
0.000137764
0.000138612
0.000223074
0.000172707
0.000142591
0.000160462
0.000194941
0.000187489
0.000169567
0.000141734
0.000130825
0.000141712
0.000147953
0.00014262
0.000187521
0.0132117
0.000140672
0.000130803
0.00013773
0.000140553
0.000141967
0.00014895
0.0121207
0.00013752
0.000142136
0.0176215
0.00348555
0.0196092
0.000153844
0.00031321
0.0295335
0.0432866
0.0255298
0.00013893
0.000157597
0.000146229
0.003142
0.00016508
0.000194999
0.011218
0.000130926
0.000151783
0.0291076
0.000169865
0.00013358
0.0237889
0.00831085
0.000207857
0.0133596
0.000165944
0.000131365
0.000130905
0.0246035
0.000179227
0.0434146
0.000141699
0.000153979
0.000147551
0.0423436
0.000131251
0.00493923
0.0447124
0.000171251
0.00016268
0.000127737
0.000171469
0.000168123
0.000184703
0.00016285
0.000144086
0.0216875
0.000139626
0.00018617
0.01631
0.0137355
0.000158105
0.000217245
0.0184036
0.000137336
0.000154157
0.000135441
0.000138874
0.000129754
0.000144632
0.00012983
0.00754269
0.000211037
0.0251892
0.000131138
0.000136233
0.000181908
0.018907
0.000148785
0.0074828
0.000137656
0.000135197
0.000162947
0.00014602
0.00021115
0.000160796
0.000178515
0.000165149
0.000135965
0.000137319
0.0282138
0.000139037
0.000129424
0.0224763
0.0270287
0.0211884
0.00013643
0.0225387
0.000177988
0.00652236
0.0335316
0.000142691
0.0003522
0.00021432
0.000142713
0.0241368
0.000143825
0.00314393
0.000201424
0.000142986
0.000208949
0.000172108
0.000136408
0.000151429
0.000370821
0.0271878
0.000182667
0.000189258
0.00342724
0.000152106
0.0261005
0.000150477
0.00783348
0.0001884
0.0444345
0.0441729
0.000193217
0.000150214
0.000140555
0.0265143
0.000192949
0.013784
0.0001708
0.00207617
0.000170009
0.000152146
0.00013723
0.000384106
0.000146998
0.00959736
0.000145698
0.00667091
0.000148007
0.00015176
0.000185576
0.000136562
0.000247292
0.000172634
0.000196688
0.00421332
0.000140472
0.00132327
0.000139831
0.000139582
0.000152197
0.0001652
0.0298999
0.000368836
0.000193925
0.000135241
0.000154569
0.000132516
0.00360675
0.000201397
0.000191215
0.0173053
0.046216
0.000188412
0.000140402
0.000161101
0.00371369
0.000162259
0.0425667
0.0435683
0.000157824
0.000186533
0.000202095
0.000142213
0.000153967
0.000192541
0.000160311
0.000212446
0.000157996
0.0033437
0.000149054
0.000148584
0.000164962
0.00355761
0.000210355
0.0198593
0.000212844
0.000141823
0.000160303
0.0462565
0.00905143
0.0346077
0.00547419
0.000753502
0.011537
0.000201879
0.000144592
0.000146007
0.0249347
0.000138935
0.000215735
0.00403151
0.0421703
0.000135071
0.000134894
0.000144383
0.00612172
0.0002058
0.000137698
0.000165921
0.000173748
0.0290003
0.000330463
0.00014321
0.000135223
0.000134197
0.000185575
0.00014343
0.000161641
0.0230756
0.00622885
0.000145755
0.000189284
0.000129287
0.0115218
0.000130532
0.000138427
0.0260183
0.0146156
0.000140195
0.000283057
0.000152687
0.00266796
0.00445152
0.000137918
0.000165662
0.00916628
0.000150913
0.0127278
0.00017109
0.00014036
0.000152509
0.0001721
0.000169606
0.012753
0.000767107
0.0230484
0.000137075
0.000175706
0.00013092
0.000137009
0.000174337
0.000139118
0.000136157
0.0193367
0.00364006
0.000139863
0.00886977
0.0246963
0.00541723
0.0198567
0.000192215
0.00239146
0.00015065
0.0173761
0.000135613
0.000179012
0.000135406
0.000176454
0.027644
0.0260852
0.000177795
0.0266197
0.000147638
0.00016681
0.000147868
0.000143867
0.000183943
0.00014031
0.00420864
0.000239403
0.000137206
0.000138687
0.000136833
0.000143932
0.00274935
0.000137329
0.000142835
0.000170881
0.0214211
0.0261733
0.014428
0.0255578
0.0142368
0.00347308
0.00013272
0.0188046
0.0254902
0.0207398
0.000139422
0.00406299
0.000137561
0.00013758
0.00013638
0.0256838
0.0024143
0.000152161
0.000147512
0.000134091
0.000213414
0.000189354
0.000143029
0.000186708
0.000141944
0.0128084
0.0277724
0.000192879
0.000142815
0.00374316
0.000152543
0.000147455
0.000141782
0.000138763
0.0147509
0.000136591
0.000141596
0.000152766
0.000138373
0.000143333
0.0145895
0.000171983
0.000142924
0.0136307
0.00016506
0.000139251
0.000209757
0.000143028
0.000147714
0.0284379
0.000165488
0.000358992
0.0238253
0.000305682
0.000177379
0.000193
0.0157284
0.0154136
0.000145859
0.000139817
0.000159899
0.028065
0.000140269
0.0345695
0.0145852
0.000133228
0.000163813
0.0134995
0.0320694
0.0284565
0.0137815
0.000149598
0.0225526
0.00013497
0.000150023
0.00014403
0.000142171
0.000163508
0.026454
0.000441581
0.00116263
0.000210746
0.0243271
0.000190693
0.000310365
0.000209389
0.018606
0.000141634
0.0148998
0.000141777
0.0114959
0.0211301
0.0329437
0.000133574
0.0035713
0.000408884
0.000168367
0.000152174
0.000143393
0.0443201
0.000142948
0.00399127
0.00976556
0.000149555
0.000130849
0.0281765
0.00013868
0.00865389
0.000139372
0.000143112
0.000149747
0.000151931
0.000177794
0.0050783
0.000170146
0.00016262
0.000147487
0.010196
0.00984636
0.000187606
0.000134963
0.000148523
0.000222456
0.00015846
0.000144382
0.0286903
0.00907224
0.000131651
0.000209943
0.00018778
0.000163543
0.000134244
0.000139791
0.0273669
0.000615576
0.000142901
0.000175704
0.00372539
0.000139954
0.0453472
0.000134054
0.000158364
0.000135868
0.000160243
0.00013261
0.000265479
0.0273273
0.000140239
0.0217606
0.000139477
0.000655041
0.000164506
0.000148506
0.00024997
0.00014307
0.000134572
0.000135059
0.000170606
0.0063732
0.000139821
0.0183326
0.00470612
0.0115628
0.000152358
0.000147735
0.000143783
0.000138172
0.000148069
0.000192963
0.00820265
0.0300654
0.000136764
0.0279618
0.000138629
0.000861192
0.000134901
0.0242906
0.000134127
0.0232952
0.000133641
0.0119906
0.000162574
0.0419776
0.000139589
0.000136568
0.000148281
0.000186407
0.000160067
0.0386853
0.000129233
0.000143299
0.000150754
0.000149555
0.0354473
0.000147025
0.000158094
0.019822
0.0233185
0.000135746
0.0110042
0.000212039
0.0173344
0.0106862
0.000147876
0.0055591
0.0454579
0.0265871
0.000133644
0.0257389
0.000129371
0.00013288
0.0269837
0.000661003
0.0308736
0.0144834
0.000371482
0.000138606
0.000181916
0.0159776
0.0262922
0.0136839
0.000142173
0.000141918
0.000203955
0.000147266
0.000132976
0.000141496
0.000151646
0.000137388
0.0128687
0.000131093
0.000265312
0.000140164
0.000211091
0.00015684
0.019095
0.00812564
0.0129239
0.00182285
0.000134794
0.000151277
0.00013956
0.000168339
0.000157449
0.000142091
0.0258979
0.00567383
0.000138553
0.000165167
0.0108669
0.000143394
0.000285247
0.000264073
0.019722
0.000139528
0.000187469
0.000136366
0.000143592
0.0117281
0.00013499
0.000131813
0.000145809
0.000210676
0.000145588
0.000149952
0.030727
0.000143141
0.000174741
0.00015118
0.000145884
0.0124441
0.000198659
0.0209012
0.00014729
0.000162323
0.000146498
0.000150003
0.000152942
0.000464776
0.00015928
0.0152226
0.0148955
0.000129626
0.0249579
0.00958822
0.000147339
0.000136369
0.000175761
0.000145577
0.018391
0.000159713
0.000131975
0.000310068
0.0186438
0.0238343
0.000154228
0.000156571
0.000136595
0.000155888
0.0243681
0.000134724
0.00763259
0.000136951
0.0349714
0.000186961
0.000153739
0.000139223
0.000187003
0.000144749
0.000211617
0.00013917
0.0387187
0.000143349
0.000135336
0.0333008
0.000155623
0.000162562
0.00013579
0.000143014
0.000163
0.00014351
0.000164475
0.028145
0.000144072
0.0221449
0.000193602
0.000138259
0.000144554
0.0170602
0.0160985
0.000156976
0.0221387
0.0131968
0.000154379
0.000180229
0.000150465
0.000130231
0.000135171
0.0147643
0.000151923
0.000151164
0.0259209
0.000168886
0.0245812
0.0111188
0.0238561
0.000162803
0.000142988
0.000196093
0.000155717
0.000275684
0.000193522
0.000151409
0.0109096
0.000142312
0.00019111
0.00020289
0.000141538
0.000371989
0.000150718
0.000139763
0.000153986
0.0254244
0.000157171
0.000139263
0.00015547
0.0383707
0.00658897
0.000201227
0.000136118
0.000161726
0.0173703
0.000161072
0.000153094
0.000155417
0.000168071
0.028269
0.00032896
0.000147891
0.0242873
0.00747416
0.000187644
0.000169607
0.0211472
0.000191143
0.00633223
0.00436141
0.000151027
0.00015784
0.010503
0.0313256
0.000151302
0.0359158
0.0208651
0.000163082
0.00582805
0.000156168
0.000193598
0.000144973
0.000140598
0.000139406
0.0292077
0.0294019
0.0267629
0.0132322
0.000168504
0.0202222
0.0225897
0.000134184
0.00776687
0.0141005
0.00754348
0.0298644
0.000137682
0.0288782
0.000139479
0.000137925
0.000145483
0.00697999
0.000147651
0.000138121
0.0001512
0.000143051
0.000145634
0.000143737
0.000162829
0.00695003
0.00020201
0.000163199
0.000593638
0.0284463
0.000154072
0.000174371
0.00014204
0.00013234
0.0266183
0.000137577
0.000190133
0.000147679
0.000190676
0.000163949
0.0300684
0.000148702
0.0279938
0.000143077
0.0278733
0.000143195
0.0213706
0.000157312
0.00314664
0.000373574
0.00018686
0.0242672
0.000137306
0.000151136
0.000348134
0.000136838
0.0256482
0.000144344
0.0122562
0.000200672
0.0293104
0.0133356
0.000210255
0.000140838
0.000139732
0.000185643
0.00020867
0.0283706
0.00919273
0.00014477
0.000137652
0.0143881
0.000135457
0.000143478
0.000135961
0.000274494
0.000194152
0.038331
0.0271995
0.00015063
0.0149473
0.0133795
0.000165079
0.0227828
0.0001678
0.00016328
0.00014085
0.00014583
0.0265327
0.000157806
0.000139349
0.000156266
0.0226626
0.00028218
0.000138376
0.000133702
0.0214508
0.000132102
0.000132445
0.000138631
0.0124721
0.0001349
0.000210632
0.000137498
0.00012932
0.000194637
0.000145868
0.0149464
0.0153293
0.00823391
0.0252221
0.0295493
0.0299506
0.000138411
0.000135612
0.000140107
0.000135063
0.000143432
0.0001871
0.0122462
0.000142847
0.027709
0.000202963
0.000153077
0.000169612
0.00511026
0.000138466
0.000135093
0.000143894
0.000164858
0.0281946
0.0283228
0.026254
0.000201882
0.000144096
0.000159949
0.000151524
0.000138615
0.026333
0.000133519
0.00476147
0.000215095
0.000147384
0.0240024
0.000136273
0.000159683
0.000184735
0.000145866
0.000145766
0.010098
0.0268264
0.000157635
0.00020779
0.0303485
0.000266181
0.000171515
0.000195746
0.00012893
0.00728007
0.000144973
0.000134247
0.000132769
0.000190877
0.000141947
0.000134702
0.000133269
0.000132572
0.000163356
0.000151318
0.000144986
0.000145733
0.000144729
0.000132269
0.000143065
0.000145629
0.000141856
0.000151499
0.0334903
0.000201244
0.000153388
0.000165347
0.000155316
0.000135373
0.0391896
0.000148626
0.000132851
0.0137332
0.00013672
0.00740406
0.0289168
0.000272134
0.0216052
0.000156165
0.0271396
0.000145461
0.000137705
0.000138853
0.00684333
0.000147266
0.00893436
0.00587559
0.000204946
0.0137522
0.000153637
0.0001428
0.0295064
0.000204091
0.000136608
0.0201437
0.000195081
0.009426
0.000138372
0.000156228
0.0162909
0.000132246
0.000316815
0.000185123
0.000260264
0.0147892
0.00014301
0.000266032
0.000146579
0.000312995
0.000148588
0.0143529
0.000139151
0.000151204
0.000133735
0.0280001
0.000157907
0.000142715
0.000135239
0.000156145
0.00013413
0.019237
0.000156821
0.000138586
0.000186078
0.000138326
0.000140483
0.000130564
0.000163322
0.000151802
0.0271789
0.000403745
0.000178669
0.000142671
0.000159928
0.00186054
0.0133008
0.00457867
0.00992969
0.0214518
0.000129881
0.000156049
0.000140612
0.0260657
0.000167765
0.0111914
0.000129992
0.000137845
0.0289259
0.000129837
0.0069097
0.00216906
0.030476
0.00402162
0.000139116
0.000172099
0.000571499
0.040202
0.00558187
0.000138204
0.000153266
0.000152006
0.000137188
0.000153201
0.000136269
0.000464005
0.000177931
0.00986828
0.0219729
0.000204324
0.0319275
0.00017234
0.0193625
0.000137927
0.00245545
0.0178844
0.000204608
0.0300998
0.000161795
0.000160929
0.00490181
0.000127776
0.000136578
0.00014788
0.000157339
0.000129316
0.00375431
0.00986795
0.0221057
0.000167606
0.000131559
0.000147942
0.0398592
0.000137957
0.000133878
0.000147856
0.000129903
0.0117225
0.00381431
0.0150703
0.000132232
0.000162776
0.00019352
0.000151832
0.000137968
0.000146242
0.000157865
0.0286873
0.000151974
0.000136474
0.000131528
0.0261824
0.000161966
0.000158252
0.000161845
0.0050036
0.00462721
0.0263955
0.0234404
0.000188067
0.000338247
0.00024704
0.000185199
0.010816
0.000138794
0.000142575
0.00015591
0.000140455
0.000147333
0.0187621
0.00013231
0.000157853
0.000204088
0.000144573
0.022284
0.0122472
0.000157533
0.000246931
0.000202817
0.000194666
0.0125352
0.000218394
0.00886375
0.000408208
0.00017742
0.000188051
0.000151118
0.0306697
0.000184118
0.0270297
0.000140465
0.000137505
0.00509801
0.000159518
0.000153954
0.0311098
0.00167904
0.00681654
0.00016228
0.000208668
0.0359716
0.00996655
0.000597774
0.000147773
0.0114325
0.000154525
0.0148597
0.000133654
0.0279219
0.000185246
0.0143016
0.000151298
0.0160371
0.000998401
0.000179136
0.000150088
0.000336249
0.000151652
0.00014862
0.000177389
0.000129285
0.000151071
0.00463688
0.000148601
0.000138536
0.000202484
0.000138595
0.000141994
0.000755072
0.000147948
0.000164799
0.000204898
0.000197333
0.000175661
0.000220373
0.0167066
0.000188267
0.00629451
0.0279345
0.000131692
0.000139126
0.000165539
0.0155489
0.00423275
0.000134705
0.0371244
0.000164857
0.000164495
0.000143138
0.00015162
0.0208025
0.000156044
0.0215749
0.0117554
0.0148725
0.000144521
0.000151687
0.000138286
0.000136773
0.0370833
0.000157643
0.000141456
0.000160345
0.000130447
0.0103108
0.000210056
0.000136613
0.000152993
0.000157435
0.0163229
0.0384354
0.026057
0.00098593
0.000447397
0.0001335
0.000181384
0.000133243
0.000137954
0.0321264
0.000189214
0.015245
0.000136717
0.000135054
0.000138737
0.000368091
0.000146533
0.0198778
0.000148157
0.000187316
0.000188588
0.000131757
0.00220403
0.000147329
0.000189104
0.000147962
0.000137282
0.00013379
0.00017228
0.0131357
0.031778
0.000143157
0.000135413
0.0213632
0.00337086
0.000223262
0.000137296
0.0135522
0.000148607
0.034315
0.000134562
0.00616054
0.0144119
0.0288081
0.00720327
0.000188589
0.0001799
0.000164168
0.000143303
0.000146473
0.00019306
0.0125862
0.000201962
0.00249305
0.000131771
0.014472
0.000143178
0.0448766
0.000150938
0.000163177
0.0267664
0.000150826
0.000148207
0.00630912
0.0252651
0.000136662
0.000146302
0.000143398
0.000141968
0.02085
0.0211478
0.000143465
0.000199674
0.000183647
0.000137129
0.0110934
0.000141967
0.000161135
0.0158325
0.000181774
0.0039126
0.000174401
0.000150791
0.000152219
0.0206033
0.000197007
0.000146237
0.00680942
0.000150926
0.000135781
0.000148618
0.0264503
0.000139614
0.000177866
0.000132314
0.00014384
0.00012989
0.00015036
0.00016297
0.000147734
0.0309146
7.9696e-05
0.000168784
0.000144259
0.000133042
0.000148994
0.0401204
0.000146152
0.0287737
0.000134765
0.000151017
0.00545148
0.0204864
0.000149799
0.0157615
0.000141367
0.00018938
0.0266064
0.000170947
0.0139919
0.000191167
0.0267903
0.00013175
0.000139377
0.00472436
0.000209004
0.000258093
0.0266358
0.01242
0.0061628
0.000143541
0.000169841
0.00141997
0.00434912
0.0263157
0.000150802
0.000135023
0.000169515
0.0122433
0.000147208
0.000142637
0.0356691
0.000140502
0.0291012
0.00373351
0.000158734
0.000144959
0.000187847
0.00288711
0.000371906
0.000157494
0.000996546
0.0354451
0.0297877
0.000135089
0.000131392
0.000148147
0.00606055
0.00503351
0.0271987
0.0359812
0.00454143
0.000150689
0.000142169
0.000131659
0.000152912
0.00632463
0.0238652
0.00376047
0.000141966
0.000162962
0.000181688
0.000149347
0.000205483
0.000166794
0.00412889
0.000173864
0.00304333
0.000133625
0.0314235
0.0311428
0.0144145
0.0265547
0.00013827
0.000142308
0.0271311
0.000153216
0.0118227
0.000140651
0.0310271
0.000147041
0.0156328
0.000189784
0.000136119
0.000155935
0.000149382
0.000129879
0.000156459
0.000149281
0.000135735
0.000146146
0.000138658
0.00014797
0.000145096
0.000133906
0.0367064
0.000358413
0.000167734
0.0262081
0.0240149
0.000191952
0.000166596
0.0288862
0.000142216
0.0290449
0.000138323
0.000159268
0.0271084
0.0141339
0.000147967
0.000178707
0.000198699
0.0205608
0.00571129
0.00467126
0.000140456
0.00014866
0.000150981
0.0286645
0.000139944
0.00665323
0.000133116
0.0184288
0.000140427
0.000184456
0.000166619
0.000145258
0.000164995
0.000204648
0.0199698
0.0158614
0.000138985
0.000131473
0.0227185
0.00415334
0.0165556
0.000148488
0.000145071
0.000159617
0.000211442
0.000136819
0.000147846
0.000143062
0.000153999
0.0344122
0.000174138
0.000145163
0.00017584
0.0039869
0.000153578
0.000153392
0.0013895
0.0181384
0.000144599
0.000170372
0.000155104
0.000140627
0.000601395
0.000438247
0.00317916
0.000132945
0.0001639
0.000143572
0.000178355
0.000153073
0.000149943
0.000162841
0.000142209
0.000146281
0.00398881
0.000163358
0.0438413
0.000211836
0.000150933
0.000162208
0.000996059
0.000210223
0.0226403
0.000140372
0.000211104
0.000201188
0.000182782
0.000157649
0.0119865
0.0109737
0.00293049
0.000135613
0.00965606
0.000149359
0.00229678
0.00240017
0.000139606
0.0289817
0.000421353
0.00554444
0.00279509
0.0174879
0.000140158
0.000153517
0.000153479
0.0159485
0.0353743
0.000154609
0.000139675
0.000133678
0.000141734
0.000138259
0.0119254
0.0348603
0.00013799
0.00016285
0.00256252
0.000145093
0.000207484
0.000146035
0.00386037
0.000245865
0.000148596
0.000202239
0.000145455
0.000137966
0.0376717
0.0338866
0.0262704
0.000139535
0.000215715
0.000150944
0.000150262
0.000146216
0.000151408
0.000129054
0.000145258
0.000145218
0.0300513
0.0130367
0.00265078
0.0132059
0.0308162
0.000140067
0.0267654
0.00014639
0.0156344
0.00274047
0.0296519
0.000255007
0.000138395
0.000147376
0.000145225
0.000501816
0.000156566
0.000134552
0.000195302
0.000132111
0.000140922
0.00017883
0.0239932
0.000163599
0.000160054
0.0214635
0.0247235
0.00014628
0.000162659
0.000171968
0.000144671
0.00467271
0.000270477
0.000216897
0.000252358
0.000144366
0.0194008
0.000159651
0.00112782
0.000134358
0.000145745
0.000131938
0.000137895
0.000135824
0.00741547
0.0255446
0.000147538
0.026096
0.0153141
0.000138427
0.000149715
0.000259518
0.00853163
0.000154046
0.000145783
0.000174505
0.000153384
0.000153509
0.000138289
0.000207939
0.0258728
0.0266068
0.00635724
0.000164312
0.000163201
0.000902102
0.00517316
0.000204751
0.000132241
0.0120265
0.000149931
0.000149251
0.0345574
0.000138151
0.000147417
0.000134904
0.000190394
0.0246856
0.00348419
0.0225722
0.000141577
0.00442719
0.000142018
0.0173679
0.000134315
0.0128375
0.000227467
0.000191159
0.00594676
0.000153272
0.000138118
0.000220806
0.000186022
0.00016114
0.000146749
0.00271571
0.000173038
0.000241362
0.000150237
0.000144187
0.000163534
0.000140867
0.00263667
0.00301314
0.000149122
0.000138155
0.000156448
0.00015093
0.000141549
0.0254684
0.0001503
0.000150474
0.0236239
0.000151412
0.000203182
0.000137688
0.000140769
0.000138118
0.0146438
0.00351365
0.000244296
0.000152831
0.00348875
0.0342749
0.00382393
0.000133524
0.0298778
0.000155757
0.000140757
0.00929761
0.000132574
0.000146938
0.000145089
0.000129687
0.0127018
0.000141592
0.000141629
0.000151687
0.000134905
0.000217216
0.0245103
0.000176039
0.000146726
0.000203453
0.000133697
0.0259754
0.000138235
0.000200695
0.0414876
0.0208697
0.00709923
0.000155066
0.0315886
0.0159425
0.000138364
0.000143612
0.0269131
0.00121835
0.00617391
0.000181873
0.000244393
0.000156454
0.000159069
0.0276527
0.033427
0.000159972
0.017556
0.0122535
0.000147241
0.000134939
0.00262605
0.00023512
0.000155597
0.000151795
0.000131378
0.000197969
0.000773142
0.0330418
0.0262537
0.0271915
0.0328444
0.00113761
0.00013654
0.00643553
0.043444
0.000133508
0.000138983
0.000256946
0.000146587
0.00444272
0.000131249
0.000173526
0.000164298
0.000151269
0.000140389
0.0219787
0.000191939
0.00358163
0.00015372
0.0134309
0.000159895
0.000133374
0.000231098
0.000129305
0.000138159
0.0208386
0.000154233
0.0052806
0.00015116
0.000149407
0.000186881
0.0369401
0.000135505
0.00853633
0.0407998
0.0021254
0.000144989
0.000151694
0.00640743
0.000162388
0.0169414
0.000140116
0.000136597
0.0157951
0.000144261
0.000140715
0.000134962
0.00374656
0.000157521
0.00288618
0.000157247
0.000138892
0.00013825
0.000154514
0.0272403
0.000172463
0.0129627
0.0201497
0.00277011
0.00013544
0.000148691
0.000150762
0.000193486
0.000136208
0.0184749
0.000144371
0.00018962
0.000144553
0.000178586
0.000153124
0.00374438
0.00701196
0.000138929
0.000258224
0.00948196
0.000143103
0.000138861
0.00409112
0.000202897
0.000149014
0.00529713
0.000132728
0.000132398
0.0144457
0.00019932
0.000141528
0.0225173
0.000170361
0.0293878
0.000293507
0.0029399
0.000177002
0.00165617
0.000163318
0.000145841
0.00364986
0.000138121
0.000145179
0.00341725
0.000153249
0.000137122
0.0002039
0.0131891
0.003667
0.000136007
0.000158221
0.000143163
0.000147956
0.0091625
0.000146571
0.0185295
0.000219617
0.0256377
0.0168862
0.00020442
0.000179031
0.000171129
0.0261796
0.000136046
0.00928752
0.00502979
0.000153052
0.000132143
0.00113185
0.000204636
0.0113551
0.00014669
0.000143106
0.0016277
0.000153502
0.0235035
0.000154132
0.00260992
0.0432326
0.000178434
0.00014564
0.000131479
0.0184954
0.000270278
0.000155744
0.00015726
0.000148156
0.000132559
0.0267257
0.000155471
0.000165741
0.000137026
0.000191526
0.000143379
0.0115227
0.0166888
0.000189028
0.000235649
0.000176649
0.000147204
0.000144246
0.000137833
0.0119758
0.000138381
0.000143915
0.00585706
0.000131682
0.0198982
0.00012845
0.000147556
0.0373061
0.000139784
0.0288427
0.000147355
0.000171724
0.000167547
0.000138008
0.00013142
0.000136704
0.00013318
0.0219472
0.0301348
0.0248059
0.00459029
0.000132246
0.028545
0.000131556
0.000159736
0.000143486
0.000307625
0.0225112
0.000149327
0.000143045
0.0186544
0.000136621
0.000144157
0.0116463
0.00502473
0.000156206
0.000143361
0.00962426
0.0268873
0.000143001
0.0213031
0.000150005
0.00013658
0.000159943
0.0275441
0.000149702
0.000163789
0.00469092
0.00219112
0.000181461
0.000141775
0.0146639
0.000181921
0.0142568
0.0267204
0.000133577
0.000186628
0.000135233
0.000268657
0.0186084
0.000134697
0.0136118
0.0203164
0.000202172
0.00014602
0.000180799
0.0272102
0.0121739
0.00014316
0.0174668
0.000129604
0.000136293
0.0232843
0.000141051
0.000143386
0.000150537
0.00019186
0.0282292
0.000150633
0.000171786
0.000144487
0.000142812
0.0322184
0.000171458
0.000159262
0.0223569
0.000224538
0.000162806
0.000184496
0.0239503
0.00234748
0.000144541
0.00229107
0.000134544
0.000434484
0.028784
0.000128791
0.000227872
0.000160182
0.000218796
0.000144985
0.000197329
0.00412076
0.000134565
0.0155301
0.000144345
0.00014105
0.000150467
0.000144761
0.0228625
0.000143246
0.000145802
0.00474462
0.0100287
0.000137609
0.000169569
0.000164999
0.000147792
0.000168616
0.0174927
0.000149649
0.000203515
0.000133709
0.000165455
0.000168356
0.000178656
0.0261038
0.0266534
0.00013756
0.00281144
0.0309717
0.00015834
0.0225622
0.0125077
0.00509084
0.000138151
0.00012876
0.000136724
0.000142436
0.000161354
0.000261428
0.028943
0.000143983
0.000132473
0.000220769
0.0146199
0.000162483
0.00275822
0.000245807
0.0001604
0.00283869
0.000141508
0.00397026
0.000169132
0.000143628
0.0157521
0.00187905
0.0133559
0.00486655
0.000165448
0.000147852
0.0311424
0.000140053
0.0325506
0.000132555
0.00017345
0.000190791
0.0123166
0.000150921
0.00414111
0.0025892
0.000392252
0.000230299
0.000139064
0.0268256
0.000363694
0.0194681
0.00014033
0.000137148
0.000137587
0.000128454
0.00013622
0.000150467
0.000218918
0.00014301
0.000154093
0.0101452
0.000184161
0.000183295
0.000182649
0.000150468
0.0301346
0.000150622
0.000147516
0.000169664
0.0365761
0.000162631
0.000144711
7.86752e-05
0.0178415
0.0221096
0.000151512
0.00303987
0.000228885
0.000151016
0.0364218
0.000199871
0.0102496
0.000136312
0.000149017
0.00180632
0.000489782
0.000186833
0.000178453
0.0255684
0.0263622
0.000140546
0.000162809
0.000154085
0.000217854
0.00016825
0.00416265
0.000145782
0.000350849
0.000150535
0.0124384
0.000139947
0.000173902
0.000171516
0.000190941
0.0249665
0.000141029
0.0167809
0.0298114
0.0346359
0.00016409
0.000206341
0.000140518
0.00311563
0.0042135
0.000136124
0.000134717
0.0272054
0.0133116
0.00570514
0.000440008
0.0169545
0.000143472
0.00022283
0.000916663
0.000143945
0.000144732
0.000219211
0.000155869
0.00224759
0.000133684
0.000151285
0.000143411
0.0281676
0.0305369
0.000138609
0.000143426
0.000144063
0.000154179
0.000181279
0.00607926
0.000192638
0.000148613
0.000150176
0.000143045
0.0129795
0.000152278
0.000138958
0.00210566
0.0252866
0.000162082
0.000144746
0.000138664
0.000151554
0.00502658
0.000141015
0.000181909
0.000143215
0.000132698
0.000162698
0.000248138
0.0114017
0.00116411
0.00503448
0.000329692
0.00013253
0.000138418
0.000411117
0.000203033
0.000141715
0.000197991
0.000195231
0.000137701
0.000133359
0.00649261
0.000160082
0.000128273
0.000153101
0.0317331
0.000136532
0.000196271
0.000138904
0.000133845
0.000184102
0.000148188
0.000135455
0.0209463
0.000191004
0.000143749
0.000142986
0.000235953
0.000156168
0.0027847
0.00260298
0.000150419
0.000127761
0.0274209
0.00779718
0.000150362
0.0275455
0.000221794
0.000165848
0.000178454
0.0343994
0.00512917
0.0141632
0.000145103
0.00335763
0.000143473
0.0001819
0.000153473
0.000210048
0.00610352
0.00567125
0.000178337
0.00369867
0.0268649
0.000357269
0.000151521
0.000138057
0.0277472
0.00176776
0.000136278
0.000150371
0.0175531
0.000132058
0.000157285
0.00371311
0.000139363
0.000153038
0.000144038
0.000183485
0.000190018
0.000208377
0.000172692
0.000321643
0.000157056
0.000146469
0.000141944
0.000135453
0.000152621
0.00718887
0.000152304
0.00019102
0.000144028
0.000156775
0.000156508
0.000246861
0.00020238
0.00013385
0.000153937
0.00013661
0.000163873
0.000145448
0.000144975
0.000149128
0.000141759
0.0105837
0.00013764
0.000140983
0.000138686
0.026005
0.000132425
0.000145493
0.0038072
0.0273634
0.000128282
0.000138467
0.000138194
0.000140738
0.00464191
0.0204934
0.000209637
0.000156072
0.000157751
0.000135243
0.000197573
0.000150237
0.000140478
0.000140335
0.000137684
0.000203476
0.000138693
0.000179703
0.000148708
0.0292944
0.000146372
0.00491487
0.000139122
0.000149452
0.000127238
0.000133388
0.000146087
0.000173451
0.000203904
0.000146175
0.000132876
0.0335383
0.000190985
0.000236805
0.000152049
0.020715
0.000144332
0.000149685
0.000168017
0.0147222
0.000358677
0.000154975
0.00307367
0.0186837
0.000141842
0.000154919
0.0221776
0.000185507
0.000133186
0.000199387
0.000148542
0.000186484
0.000182662
0.000153831
0.0048061
0.00646978
0.00015368
0.00687211
0.000183912
0.000147188
0.00013334
0.000135246
0.000147521
0.000151612
0.000188206
0.000187102
0.000142056
0.000184568
0.0229376
0.000183846
0.000221566
0.000159762
0.000137451
0.000203481
0.000165921
0.0267311
0.000129681
0.000163947
0.0362034
0.000134505
0.00103227
0.00566593
0.00403695
0.0158727
0.000135842
0.000148988
0.000132042
0.000145081
0.000166829
0.000151415
0.00014126
0.000189934
0.000132623
0.000163656
0.000165303
0.0146258
0.000150542
0.000154491
0.000158758
0.000184893
0.000132251
0.00827524
0.000179853
0.000161639
0.00019145
0.00642501
0.0068115
0.000163473
0.000167335
0.00804643
0.000145883
0.000208197
0.000144763
0.000139666
0.0278927
0.000151676
0.0296945
0.00016422
0.000185896
0.000164165
0.000151376
0.000137268
0.000170288
0.000132229
0.000188232
0.000133968
0.00216169
0.0289181
0.000135071
0.000191451
0.000189993
0.000169771
0.000171799
0.0147528
0.0146288
0.000128784
0.000150042
0.000252973
0.0137054
0.000135831
0.0142664
0.000203682
0.000169527
0.000136294
0.000152224
0.00399283
0.0281841
0.000144752
0.00477773
0.0362959
0.000203642
0.0309049
0.000197066
0.00452409
0.0254809
0.0365613
0.000167034
0.00282172
0.000133642
0.000147978
0.000173763
0.0140678
0.00014013
0.000164264
0.00014332
0.000143699
0.000139005
0.000170533
0.000144744
0.000221944
0.00309043
0.000142262
0.0114182
0.00014466
0.000144749
0.0232523
0.000170014
0.000181285
0.0253169
0.000162031
0.00019239
0.000132379
0.000174829
0.000158582
0.0255858
0.000225909
0.000138075
0.000144549
0.000177408
0.000136251
0.000147829
0.00251373
0.000136221
0.0107879
0.000209117
0.0161183
0.000153731
0.000193943
0.000133692
0.0114979
0.000352791
0.000203381
0.000180171
0.00356956
0.0290707
0.000164494
0.012223
0.000219673
0.00016006
0.000185311
0.000131208
0.0300617
0.00632747
0.000168644
0.000208907
0.000144351
0.00245979
0.000186231
0.000164068
0.00014139
0.0222801
0.000150455
0.000171073
0.000206431
0.000143435
0.000135628
0.000169348
0.00510417
0.000248315
0.000153086
0.000153605
0.000147156
0.000145355
0.000174378
0.00015351
0.000149396
0.000136826
0.000128645
0.000144656
0.000135625
0.000151195
0.000134558
0.000162931
0.00263528
0.00256637
0.0378199
0.000139871
0.0182946
0.000145675
0.000183959
0.000141726
0.000136786
0.000140436
0.000150219
0.00013633
0.000169772
0.0110107
0.0108645
0.000193422
0.000132117
0.000146678
0.00654792
0.000192635
0.0200742
0.000154921