/*--------------------------------*- C++ -*----------------------------------*\
| =========                 |                                                 |
| \\      /  F ield         | OpenFOAM: The Open Source CFD Toolbox           |
|  \\    /   O peration     | Version:  v2012                                 |
|   \\  /    A nd           | Website:  www.openfoam.com                      |
|    \\/     M anipulation  |                                                 |
\*---------------------------------------------------------------------------*/
FoamFile
{
    version     2.0;
    format      ascii;
    class       volScalarField;
    location    "300";
    object      k_0;
}
// * * * * * * * * * * * * * * * * * * * * * * * * * * * * * * * * * * * * * //

dimensions      [0 2 -2 0 0 0 0];


internalField   nonuniform List<scalar> 
53008
(
0.000198979
0.000184954
0.0248156
0.000143985
0.000286247
0.000137313
0.000144176
0.000132579
0.000165071
0.000137832
0.000129992
0.000202478
0.000137744
0.00778081
0.00149091
0.00026575
0.000156104
0.0116499
0.000165955
0.00014131
0.000150003
0.0137656
0.0140043
0.00674456
0.000137726
0.000167645
0.0100228
0.000137601
0.02767
0.000143949
0.000172253
0.000141291
0.0159468
0.000258524
0.000132823
0.000132898
0.000153585
0.000300859
0.000160379
0.0289134
0.0273727
0.00665489
0.000132763
0.00013886
0.00274249
0.0136024
0.00529173
0.000331563
0.000301677
0.01709
0.00016369
0.0340532
0.000160709
0.000165671
0.000167249
0.000221392
0.0192299
0.000149304
0.000139777
0.000149061
0.000141894
0.000139184
0.000150935
0.000163708
0.000139824
0.0094779
0.0438419
0.000189749
0.000151325
0.000140658
0.000142164
0.000143253
0.000160178
0.000143107
0.000184286
0.000161051
0.000132513
0.000139705
0.000167605
0.000146012
0.000137764
0.000138612
0.000223074
0.000172708
0.000142591
0.000160461
0.000194946
0.000187491
0.000169566
0.000141734
0.000130825
0.000141712
0.000147953
0.00014262
0.000187523
0.0132279
0.000140672
0.000130803
0.000137729
0.000140553
0.000141967
0.00014895
0.0120998
0.00013752
0.000142136
0.0176188
0.00348403
0.0196556
0.000153844
0.000315188
0.029532
0.0432854
0.0255256
0.00013893
0.000157599
0.000146229
0.00313808
0.000165078
0.000195003
0.0112233
0.000130926
0.000151783
0.0291032
0.000169865
0.00013358
0.0237956
0.0083198
0.000207855
0.0133595
0.000165945
0.000131365
0.000130905
0.0245948
0.000179229
0.043413
0.000141699
0.000153979
0.000147552
0.0423426
0.000131251
0.00494218
0.0447111
0.000171252
0.00016268
0.000127737
0.00017147
0.000168126
0.000184708
0.00016285
0.000144086
0.0216878
0.000139626
0.00018617
0.0163085
0.0137322
0.000158105
0.000217162
0.0184107
0.000137336
0.000154157
0.000135442
0.000138875
0.000129754
0.000144632
0.00012983
0.00754
0.000211049
0.0251919
0.000131138
0.000136233
0.000181911
0.0189131
0.000148785
0.00748976
0.000137656
0.000135197
0.000162947
0.00014602
0.000211161
0.000160796
0.000178515
0.000165143
0.000135965
0.000137319
0.0281999
0.000139038
0.000129424
0.0224766
0.0270292
0.0211885
0.00013643
0.0225273
0.000177989
0.00652103
0.033527
0.000142691
0.000353276
0.000214336
0.000142713
0.0241325
0.000143825
0.00314641
0.000201426
0.000142986
0.000208944
0.000172078
0.000136408
0.000151428
0.000370627
0.0271654
0.00018267
0.000189261
0.00341364
0.000152105
0.0260725
0.000150476
0.00783666
0.000188403
0.0444332
0.0441719
0.000193221
0.000150214
0.000140555
0.0265079
0.00019295
0.0137849
0.0001708
0.00213363
0.000170009
0.000152146
0.00013723
0.000385054
0.000146998
0.009627
0.000145698
0.00666212
0.000148007
0.000151759
0.000185581
0.000136561
0.000247038
0.000172603
0.000196691
0.00420289
0.000140472
0.00130369
0.000139831
0.000139582
0.000152197
0.0001652
0.02989
0.000369414
0.000193929
0.000135241
0.000154569
0.000132516
0.00359305
0.000201397
0.000191218
0.0173042
0.0462149
0.000188414
0.000140402
0.000161101
0.00370898
0.000162259
0.0425655
0.0435672
0.000157824
0.000186496
0.0002021
0.000142214
0.000153967
0.000192545
0.000160305
0.000212456
0.000157999
0.00334347
0.000149054
0.000148584
0.000164963
0.00355099
0.000210351
0.0198571
0.000212842
0.000141824
0.00016029
0.0462555
0.00905109
0.0346035
0.00538923
0.000773609
0.0115369
0.000201884
0.000144592
0.000146007
0.0249342
0.000138935
0.000215667
0.0039633
0.0421691
0.000135071
0.000134894
0.000144382
0.00612343
0.000205895
0.000137698
0.000165921
0.000173749
0.0289979
0.000329322
0.00014321
0.000135223
0.000134197
0.000185581
0.00014343
0.00016163
0.0230756
0.00624487
0.000145755
0.000189287
0.000129286
0.0115309
0.000130532
0.000138427
0.0259898
0.0146138
0.000140195
0.000283663
0.000152687
0.0026631
0.0044614
0.000137918
0.000165654
0.00914452
0.000150912
0.012728
0.00017109
0.00014036
0.000152509
0.000172101
0.000169606
0.012753
0.000794503
0.0230479
0.000137074
0.000175707
0.00013092
0.000137009
0.000174303
0.000139118
0.000136157
0.0193299
0.00363988
0.000139863
0.00884954
0.0246967
0.00541193
0.0198996
0.000192216
0.00239079
0.00015065
0.0174241
0.000135613
0.000179092
0.000135406
0.000176456
0.027643
0.0261263
0.000177811
0.0265861
0.000147638
0.000166811
0.000147869
0.000143867
0.000183945
0.00014031
0.00420867
0.000239167
0.000137206
0.000138687
0.000136832
0.000143932
0.00272267
0.00013733
0.000142835
0.000170952
0.0214263
0.0261851
0.0144326
0.0255524
0.0142371
0.00347325
0.00013272
0.0188203
0.0254853
0.0207473
0.000139422
0.00406307
0.000137561
0.00013758
0.00013638
0.0256796
0.00238985
0.000152161
0.000147513
0.000134091
0.000213424
0.000189366
0.000143029
0.000186709
0.000141944
0.0128083
0.0277679
0.000192881
0.000142815
0.00374428
0.000152543
0.000147455
0.000141782
0.000138763
0.0147483
0.000136591
0.000141596
0.000152764
0.000138374
0.000143333
0.0145872
0.000171974
0.000142924
0.013628
0.000165058
0.000139255
0.000209766
0.000143028
0.000147714
0.0284786
0.000165488
0.000359321
0.0238257
0.000305934
0.000177397
0.000192999
0.0157269
0.0154092
0.000145859
0.00013982
0.000159896
0.0281065
0.000140268
0.034565
0.0145829
0.000133228
0.000163813
0.0134964
0.0320594
0.0284507
0.0137776
0.000149597
0.0225881
0.00013497
0.000150023
0.00014403
0.000142171
0.000163508
0.0264324
0.000443797
0.00118285
0.000210812
0.024329
0.000190696
0.000310322
0.000209386
0.0186512
0.000141634
0.0149
0.000141777
0.0114969
0.0211555
0.0329392
0.000133574
0.00357141
0.000409819
0.000168367
0.000152174
0.000143392
0.0443191
0.000142949
0.0039835
0.00975078
0.000149555
0.000130849
0.0281728
0.00013868
0.00863099
0.000139372
0.000143112
0.000149747
0.000151931
0.000177794
0.00507846
0.000170123
0.00016262
0.000147487
0.0102047
0.00984577
0.000187607
0.000134963
0.000148523
0.00022239
0.000158451
0.000144382
0.0286889
0.00907278
0.000131651
0.000209955
0.000187788
0.000163542
0.000134244
0.000139791
0.0273657
0.000625719
0.000142901
0.000175704
0.00372439
0.000139954
0.0453462
0.000134054
0.000158366
0.000135867
0.000160237
0.00013261
0.000265288
0.027298
0.000140239
0.0217977
0.000139476
0.000668498
0.000164504
0.000148506
0.000249858
0.00014307
0.000134573
0.000135059
0.000170606
0.00636864
0.000139821
0.0183332
0.00470595
0.0115619
0.000152358
0.000147735
0.000143783
0.000138172
0.000148069
0.000192962
0.00818103
0.030063
0.000136764
0.027956
0.000138629
0.000875659
0.000134901
0.0242911
0.000134127
0.0232948
0.000133641
0.0119911
0.000162574
0.0419766
0.000139589
0.000136567
0.000148281
0.000186407
0.000160066
0.0386818
0.000129233
0.000143299
0.000150754
0.000149555
0.03544
0.000147026
0.000158096
0.0198703
0.0233181
0.000135746
0.0110045
0.000212105
0.0173182
0.0106868
0.000147876
0.00558763
0.045457
0.0266288
0.000133644
0.0257332
0.000129371
0.00013288
0.0269831
0.000659277
0.0308632
0.0144856
0.000370805
0.000138606
0.000181915
0.0160008
0.0262691
0.0136846
0.000142174
0.000141918
0.000203962
0.000147266
0.000132976
0.000141496
0.000151647
0.000137388
0.012868
0.000131093
0.00026509
0.000140164
0.000211103
0.000156839
0.0190981
0.00810727
0.012914
0.00179362
0.000134794
0.000151276
0.00013956
0.00016834
0.000157449
0.000142091
0.0259041
0.00570037
0.000138553
0.000165167
0.0108662
0.000143394
0.000284807
0.000264163
0.0197212
0.000139528
0.000187477
0.000136366
0.000143592
0.0117182
0.00013499
0.000131813
0.000145809
0.000210684
0.000145588
0.000149952
0.0307117
0.000143141
0.000174741
0.00015118
0.000145884
0.0124445
0.000198676
0.0209357
0.00014729
0.000162323
0.000146498
0.000150003
0.000152942
0.000464498
0.000159275
0.0152217
0.0148961
0.000129626
0.0249637
0.00957689
0.000147339
0.000136369
0.000175762
0.000145577
0.0183428
0.00015971
0.000131975
0.000309788
0.0186516
0.0238338
0.000154233
0.000156571
0.000136595
0.000155888
0.0244064
0.000134724
0.0076329
0.00013695
0.0349065
0.000186963
0.000153739
0.000139223
0.00018701
0.000144749
0.000211626
0.000139169
0.0387154
0.000143349
0.000135336
0.0332933
0.000155618
0.000162563
0.00013579
0.000143014
0.000163
0.00014351
0.000164472
0.028136
0.000144072
0.0221255
0.000193598
0.000138258
0.000144554
0.0170585
0.0160989
0.000156979
0.0221367
0.0131976
0.000154384
0.000180231
0.000150465
0.000130231
0.00013517
0.0147547
0.000151922
0.000151164
0.0258918
0.000168886
0.0245622
0.0111195
0.0238408
0.000162803
0.000142988
0.000196096
0.000155718
0.000275888
0.000193525
0.000151409
0.01091
0.000142312
0.000191121
0.000202895
0.000141538
0.00037207
0.000150718
0.000139763
0.000153986
0.025424
0.000157171
0.000139263
0.000155468
0.0383677
0.00656939
0.000201232
0.000136118
0.000161726
0.0173998
0.000161072
0.000153094
0.000155415
0.000168136
0.0282583
0.000328846
0.000147891
0.0242867
0.0074862
0.000187645
0.0001696
0.0211452
0.000191146
0.00632128
0.00436388
0.000151027
0.00015784
0.010503
0.0313068
0.000151302
0.035911
0.0208642
0.000163082
0.00582587
0.000156162
0.000193595
0.000144973
0.000140598
0.000139406
0.0292467
0.0293845
0.0267681
0.0132276
0.000168504
0.0202228
0.0225894
0.000134184
0.00777294
0.0141008
0.00755037
0.029902
0.000137682
0.0288609
0.000139479
0.000137925
0.000145483
0.00696524
0.000147651
0.000138121
0.0001512
0.000143051
0.000145634
0.000143737
0.000162827
0.00695163
0.000202018
0.000163199
0.000588768
0.0284835
0.000154072
0.000174372
0.00014204
0.00013234
0.0266199
0.000137577
0.000190101
0.000147679
0.000190674
0.000163946
0.0301031
0.000148702
0.0279915
0.000143077
0.0278678
0.000143195
0.0214176
0.000157312
0.00314207
0.000374266
0.000186862
0.0242565
0.000137306
0.000151136
0.000349363
0.000136837
0.0256644
0.000144344
0.0122573
0.000200676
0.029308
0.0133328
0.000210262
0.000140838
0.000139732
0.000185643
0.000208677
0.0283683
0.00919228
0.00014477
0.000137652
0.0143824
0.000135457
0.000143478
0.000135961
0.000274668
0.000194156
0.0383293
0.0271972
0.00015063
0.014948
0.0133799
0.000165079
0.0228159
0.000167817
0.000163335
0.00014085
0.00014583
0.0265361
0.000157806
0.000139349
0.000156266
0.0226599
0.00028148
0.000138375
0.000133702
0.0214842
0.000132102
0.000132446
0.00013863
0.0124714
0.0001349
0.000210584
0.000137498
0.00012932
0.000194631
0.000145868
0.0149457
0.0153236
0.00822946
0.0252352
0.029525
0.0299444
0.000138411
0.000135612
0.000140107
0.000135063
0.000143432
0.000187071
0.0122254
0.000142847
0.0277076
0.000202968
0.000153077
0.000169612
0.00507571
0.000138464
0.000135093
0.000143894
0.000164858
0.028183
0.0283158
0.0262479
0.00020189
0.000144096
0.000159949
0.000151524
0.000138616
0.0263407
0.000133519
0.00472512
0.000215138
0.000147384
0.0240199
0.000136273
0.000159683
0.000184718
0.000145866
0.000145766
0.0100971
0.0268485
0.000157635
0.000207796
0.0303461
0.000266365
0.000171516
0.000195751
0.00012893
0.00730381
0.000144973
0.000134247
0.000132769
0.000190889
0.000141947
0.000134702
0.000133269
0.000132572
0.000163356
0.000151316
0.000144986
0.000145733
0.000144729
0.000132269
0.000143065
0.000145629
0.000141856
0.000151499
0.0334858
0.000201243
0.000153388
0.000165347
0.000155316
0.000135373
0.0391982
0.000148626
0.000132851
0.0137359
0.00013672
0.00740358
0.0288821
0.000272062
0.0216275
0.000156196
0.0271598
0.000145461
0.000137705
0.000138853
0.0068782
0.000147266
0.00904454
0.00587353
0.000204952
0.013752
0.000153662
0.0001428
0.0294941
0.000204115
0.000136608
0.0202082
0.000195055
0.00942863
0.000138372
0.000156222
0.0162909
0.000132246
0.000318008
0.000185103
0.00026
0.0147809
0.00014301
0.000266259
0.00014658
0.000314202
0.000148588
0.0143518
0.000139151
0.000151204
0.000133735
0.0280343
0.000157852
0.000142716
0.000135239
0.000156145
0.00013413
0.0192271
0.000156814
0.000138586
0.000186047
0.000138326
0.000140483
0.000130564
0.00016332
0.000151802
0.0271672
0.000406651
0.00017867
0.000142671
0.000159929
0.00188723
0.0132961
0.00458266
0.00993206
0.0215224
0.000129881
0.00015605
0.000140611
0.0260688
0.000167765
0.0111902
0.000129992
0.000137845
0.0289139
0.000129837
0.00696251
0.00219767
0.0305086
0.00401087
0.000139116
0.00017211
0.000577269
0.0401961
0.00558165
0.000138204
0.000153266
0.000152006
0.00013719
0.000153201
0.000136269
0.000467706
0.000177939
0.0098692
0.0219877
0.000204331
0.0319248
0.00017234
0.0193249
0.000137928
0.0024513
0.0178836
0.000204607
0.0300753
0.000161794
0.000160928
0.00490429
0.000127776
0.000136578
0.000147879
0.000157342
0.000129316
0.003755
0.00986764
0.0221093
0.000167606
0.000131559
0.000147942
0.0398567
0.000137957
0.000133878
0.000147856
0.000129903
0.0117977
0.00385084
0.0150696
0.000132232
0.000162776
0.000193531
0.000151832
0.000137968
0.000146242
0.000157865
0.0286776
0.000151973
0.000136474
0.000131528
0.0261847
0.000161966
0.000158252
0.000161844
0.00500375
0.00462914
0.0263933
0.0234388
0.000188067
0.00034118
0.000247088
0.00018519
0.0108159
0.000138794
0.000142575
0.00015591
0.000140455
0.000147334
0.0187622
0.00013231
0.000157853
0.000204093
0.000144573
0.022285
0.0122478
0.000157532
0.00024619
0.00020284
0.000194659
0.0125355
0.000218409
0.00886293
0.000406976
0.00017742
0.000188015
0.000151118
0.0306672
0.000184119
0.0270114
0.000140465
0.000137505
0.00508142
0.00015952
0.000153954
0.0311072
0.00166612
0.00686199
0.000162279
0.000208675
0.0359671
0.0099664
0.000591348
0.000147773
0.011432
0.000154524
0.0148577
0.000133654
0.0279116
0.000185206
0.0142979
0.000151298
0.0160319
0.00101336
0.000179137
0.000150088
0.000338236
0.000151652
0.000148619
0.000177389
0.000129285
0.000151071
0.00463653
0.000148601
0.000138536
0.000202485
0.000138595
0.000141994
0.000762576
0.000147948
0.000164799
0.000204811
0.000197326
0.000175682
0.000220266
0.0166965
0.000188276
0.00628885
0.0279306
0.000131692
0.000139126
0.000165546
0.015546
0.00423268
0.000134705
0.0371225
0.000164851
0.000164503
0.000143138
0.00015162
0.0207885
0.000156044
0.0216146
0.0117559
0.0148705
0.000144521
0.000151687
0.000138286
0.000136773
0.0370815
0.000157646
0.000141456
0.000160345
0.000130447
0.0103111
0.000210051
0.000136612
0.000152993
0.000157435
0.0163169
0.0384322
0.0260477
0.000983612
0.000444568
0.0001335
0.000181386
0.000133243
0.000137954
0.0321027
0.000189223
0.0152463
0.000136717
0.000135054
0.000138737
0.000367627
0.000146533
0.0198663
0.000148158
0.000187281
0.000188562
0.000131757
0.00220341
0.000147329
0.000189115
0.000147962
0.000137282
0.00013379
0.00017228
0.0131345
0.0317716
0.000143157
0.000135413
0.0213626
0.00336302
0.000223331
0.000137295
0.0135516
0.000148605
0.0343072
0.000134563
0.00617873
0.014411
0.0288766
0.00719842
0.000188597
0.000179896
0.000164168
0.000143304
0.000146473
0.000193072
0.0125855
0.000201968
0.00255903
0.000131771
0.0144735
0.000143178
0.0448756
0.000150937
0.000163177
0.026736
0.000150826
0.000148206
0.00631761
0.0252567
0.000136662
0.000146302
0.000143398
0.00014197
0.0208627
0.0211458
0.000143465
0.00019961
0.000183648
0.000137129
0.0110943
0.000141969
0.00016118
0.0158286
0.000181774
0.00391222
0.000174399
0.000150791
0.000152219
0.0205963
0.000196959
0.000146238
0.00681031
0.000150925
0.000135781
0.000148617
0.0264692
0.000139615
0.000177866
0.000132314
0.000143839
0.000129889
0.00015036
0.000162969
0.000147734
0.0309121
7.97395e-05
0.000168796
0.000144263
0.000133042
0.000148992
0.0401177
0.000146152
0.0287606
0.000134765
0.000151017
0.00545464
0.0204857
0.000149813
0.0157679
0.000141367
0.000189382
0.0266047
0.000170947
0.0139889
0.000191162
0.0268136
0.00013175
0.000139377
0.00472429
0.000209012
0.000257835
0.0266356
0.0124206
0.00616485
0.000143545
0.000169842
0.00144273
0.00434716
0.0263251
0.000150802
0.000135023
0.000169472
0.0122407
0.000147208
0.000142637
0.0356081
0.000140502
0.0290946
0.00373394
0.000158734
0.000144959
0.000187846
0.00289235
0.000370497
0.000157494
0.00101099
0.0354367
0.0297853
0.000135089
0.000131391
0.000148159
0.00607747
0.0050334
0.0271632
0.0359644
0.00454155
0.000150689
0.000142169
0.000131659
0.000152912
0.00634123
0.0238637
0.00374937
0.000141966
0.000162962
0.000181649
0.000149346
0.00020549
0.000166794
0.00412494
0.000173864
0.0030554
0.000133625
0.0314154
0.0311407
0.0144153
0.0265496
0.00013827
0.000142308
0.027133
0.000153216
0.01182
0.000140651
0.0310257
0.000147041
0.0156314
0.000189787
0.000136119
0.000155935
0.000149382
0.000129879
0.000156466
0.000149285
0.000135734
0.000146146
0.000138658
0.00014797
0.000145096
0.000133906
0.0367028
0.000357304
0.000167749
0.0262203
0.024015
0.000191947
0.000166596
0.0288459
0.000142216
0.0291184
0.000138323
0.000159262
0.0270791
0.0141309
0.000147967
0.000178708
0.000198614
0.0205718
0.00571315
0.00467408
0.000140456
0.000148659
0.000150982
0.0286589
0.000139944
0.00667255
0.000133116
0.0184219
0.000140427
0.000184413
0.000166634
0.000145258
0.000164995
0.000204655
0.0199613
0.0158603
0.000138985
0.000131473
0.022718
0.00415523
0.0165571
0.000148488
0.000145071
0.000159604
0.000211451
0.000136819
0.000147845
0.000143062
0.000153999
0.0344557
0.000174136
0.000145163
0.00017584
0.00396237
0.000153577
0.000153392
0.00141659
0.018139
0.000144599
0.000170367
0.000155104
0.000140627
0.000603045
0.000435997
0.00317011
0.000132945
0.000163897
0.000143572
0.000178355
0.000153073
0.000149943
0.000162841
0.000142209
0.000146281
0.00395483
0.000163355
0.0438391
0.000211927
0.000150933
0.000162194
0.00101507
0.000210228
0.02264
0.000140372
0.000211189
0.000201127
0.000182777
0.000157687
0.0119859
0.0109731
0.0029311
0.000135613
0.00965649
0.000149359
0.00229107
0.00239635
0.000139606
0.0289757
0.000418039
0.00554425
0.00278451
0.0175221
0.000140157
0.000153517
0.000153478
0.0159474
0.0354178
0.000154614
0.000139675
0.000133678
0.000141734
0.000138259
0.011926
0.0349103
0.00013799
0.00016285
0.00256137
0.000145093
0.000207513
0.000146035
0.00388289
0.000245596
0.000148596
0.000202231
0.000145455
0.000137967
0.0376646
0.0339316
0.0262719
0.000139535
0.000215864
0.000150943
0.000150261
0.000146216
0.000151408
0.000129054
0.000145258
0.000145218
0.0300424
0.0130373
0.00265387
0.0132037
0.0308027
0.000140067
0.0267695
0.00014639
0.015683
0.00273331
0.0296419
0.000254665
0.000138395
0.000147376
0.000145225
0.000502724
0.000156566
0.000134552
0.000195315
0.000132111
0.000140922
0.0001788
0.0239902
0.000163599
0.000160054
0.0214485
0.024721
0.00014628
0.000162658
0.000171969
0.000144671
0.00465859
0.000270212
0.000217007
0.000252134
0.000144366
0.019403
0.000159651
0.0011486
0.000134358
0.000145745
0.000131938
0.000137895
0.000135824
0.00741436
0.0255333
0.000147538
0.0261038
0.0153111
0.000138427
0.000149714
0.000259214
0.00854593
0.000154051
0.000145783
0.000174507
0.000153384
0.000153509
0.000138288
0.000207966
0.0258723
0.0266072
0.00636058
0.000164313
0.000163201
0.000911823
0.00517293
0.000204759
0.000132241
0.0120325
0.00014993
0.000149251
0.0345499
0.000138151
0.000147417
0.000134904
0.000190397
0.0247255
0.00347557
0.0225711
0.000141577
0.00444614
0.000142018
0.0173846
0.000134315
0.0128376
0.000227845
0.000191155
0.00594654
0.000153272
0.000138118
0.000220759
0.000185982
0.00016113
0.000146748
0.00271173
0.000173045
0.000241215
0.000150237
0.000144187
0.000163538
0.000140867
0.00263374
0.00310529
0.000149121
0.000138155
0.00015645
0.000150935
0.000141549
0.0254694
0.0001503
0.000150474
0.0236237
0.000151412
0.000203188
0.000137688
0.000140769
0.000138118
0.0147046
0.00345889
0.000244024
0.000152831
0.00345446
0.0342659
0.00381477
0.000133524
0.0298785
0.000155762
0.000140757
0.00929824
0.000132574
0.000146939
0.000145089
0.000129687
0.0127959
0.000141592
0.000141629
0.000151687
0.000134905
0.000217245
0.02455
0.000176003
0.000146726
0.000203462
0.000133697
0.0259672
0.000138235
0.000200698
0.0414977
0.0208684
0.00706997
0.000155061
0.0315865
0.015949
0.000138364
0.000143612
0.0268994
0.00121731
0.00617358
0.000181872
0.000244485
0.000156455
0.000159069
0.0276124
0.0334192
0.000159974
0.0175915
0.0122537
0.000147241
0.000134939
0.00265378
0.000235229
0.000155592
0.000151795
0.000131378
0.000197974
0.000769937
0.0329989
0.0262536
0.0272176
0.032823
0.0011355
0.00013654
0.00656278
0.0434409
0.000133508
0.000138983
0.000256732
0.000146587
0.00442264
0.000131249
0.000173527
0.000164298
0.000151269
0.000140389
0.0220039
0.000191895
0.00358367
0.00015372
0.0134304
0.000159882
0.000133374
0.000229637
0.000129305
0.000138159
0.0208479
0.000154233
0.00529515
0.000151159
0.000149407
0.00018688
0.0369325
0.000135505
0.00864891
0.0407943
0.002174
0.000144989
0.000151694
0.00637772
0.000162388
0.016938
0.000140116
0.000136596
0.0157938
0.000144261
0.000140715
0.000134962
0.00372865
0.000157521
0.00283771
0.000157247
0.000138892
0.00013825
0.000154514
0.0272337
0.000172464
0.0129607
0.0201478
0.00280053
0.00013544
0.000148691
0.000150762
0.000193489
0.000136208
0.0184661
0.000144371
0.000189623
0.000144553
0.000178547
0.000153124
0.00374505
0.00702496
0.000138929
0.000258287
0.00949024
0.000143103
0.000138861
0.00411438
0.000202902
0.000149012
0.00528788
0.000132727
0.000132398
0.0144373
0.000199329
0.000141527
0.0225259
0.000170356
0.0293719
0.000293043
0.00294007
0.000177003
0.00164904
0.000163314
0.000145841
0.00364472
0.000138121
0.000145179
0.00341512
0.000153249
0.000137121
0.000203906
0.0131889
0.00366229
0.000136007
0.00015821
0.000143163
0.000147956
0.00915818
0.000146571
0.0184451
0.000219509
0.0256094
0.0168853
0.000204458
0.000179026
0.000171129
0.0261877
0.000136046
0.00929415
0.0050298
0.000153052
0.000132143
0.00112708
0.000204644
0.0113551
0.00014669
0.000143106
0.00161893
0.000153502
0.0235036
0.000154131
0.00260084
0.0432295
0.000178424
0.00014564
0.000131479
0.0185165
0.000270182
0.000155744
0.000157259
0.000148157
0.000132559
0.0267292
0.000155471
0.000165734
0.000137026
0.000191523
0.00014338
0.0115213
0.016665
0.000189039
0.000235758
0.000176644
0.000147204
0.000144246
0.000137833
0.0119832
0.000138381
0.000143915
0.00585121
0.000131682
0.0199373
0.00012845
0.000147556
0.0372979
0.000139784
0.0288338
0.000147355
0.000171725
0.000167546
0.000138008
0.00013142
0.000136703
0.00013318
0.0219458
0.0301257
0.0247977
0.00460719
0.000132246
0.0285331
0.000131556
0.000159736
0.000143486
0.000307315
0.0225122
0.000149327
0.000143045
0.0186783
0.000136621
0.000144157
0.0116319
0.00502504
0.000156207
0.000143361
0.00962451
0.0268506
0.000143001
0.0213344
0.000150005
0.00013658
0.000159943
0.0275463
0.000149702
0.000163789
0.00469093
0.00217671
0.000181461
0.000141775
0.0146504
0.000181921
0.0142345
0.0266775
0.000133577
0.000186628
0.000135233
0.000268706
0.0186112
0.000134697
0.0136116
0.0203234
0.000202178
0.00014602
0.000180796
0.0271725
0.0121731
0.00014316
0.0174628
0.000129604
0.000136293
0.0232841
0.000141051
0.000143386
0.000150537
0.000191863
0.0282289
0.000150633
0.000171809
0.000144487
0.000142812
0.0321943
0.00017148
0.000159266
0.0223566
0.000224515
0.000162802
0.000184531
0.0239269
0.00241346
0.000144541
0.00227555
0.000134544
0.000432128
0.0287793
0.000128791
0.000227888
0.000160186
0.000218814
0.000144985
0.000197321
0.00411659
0.000134565
0.0155315
0.000144345
0.00014105
0.000150467
0.000144761
0.022863
0.000143246
0.000145802
0.00473188
0.0100286
0.000137609
0.000169569
0.000164999
0.000147792
0.000168612
0.0174918
0.000149649
0.000203512
0.000133709
0.000165465
0.000168357
0.000178659
0.0260904
0.0266696
0.00013756
0.00279824
0.0309706
0.00015834
0.0225894
0.0124372
0.00513042
0.000138151
0.00012876
0.000136723
0.000142436
0.000161356
0.000261784
0.0289324
0.000143983
0.000132473
0.000221303
0.0145237
0.000162483
0.00274573
0.000245499
0.0001604
0.00281979
0.000141508
0.00395616
0.000169137
0.000143628
0.0157536
0.00186142
0.0133545
0.00486654
0.000165448
0.000147851
0.0311364
0.000140053
0.0325508
0.000132555
0.000173451
0.000190801
0.012316
0.000150921
0.00414406
0.00258524
0.000391429
0.000231372
0.000139064
0.0268313
0.000364689
0.019467
0.00014033
0.000137148
0.000137587
0.000128454
0.00013622
0.000150467
0.00021893
0.00014301
0.000154093
0.0101447
0.000184166
0.000183299
0.00018265
0.000150468
0.0301349
0.000150621
0.000147516
0.000169657
0.0365724
0.000162631
0.000144711
7.83325e-05
0.0178405
0.0221562
0.000151512
0.00301992
0.000229275
0.000151016
0.0364183
0.000199878
0.0102485
0.000136312
0.000149015
0.00179306
0.000485914
0.000186835
0.000178456
0.0255654
0.0263604
0.000140547
0.00016281
0.000154085
0.000217893
0.000168246
0.0041646
0.000145782
0.000351192
0.000150535
0.0124385
0.000139947
0.000173902
0.000171513
0.000190952
0.0249656
0.000141029
0.0167819
0.0298297
0.0346111
0.00016409
0.000206351
0.000140518
0.00309741
0.00421571
0.000136124
0.000134717
0.0271888
0.0133071
0.00570815
0.000438213
0.016953
0.000143472
0.000222899
0.000937474
0.000143945
0.000144732
0.000219286
0.000155875
0.00224423
0.000133684
0.000151284
0.000143411
0.0281304
0.0305343
0.000138609
0.000143426
0.000144063
0.000154183
0.000181282
0.00606554
0.000192637
0.000148613
0.000150176
0.000143045
0.012978
0.000152278
0.000138958
0.0021024
0.0252336
0.000162081
0.000144746
0.000138664
0.000151554
0.00502639
0.000141015
0.000181911
0.000143215
0.000132698
0.000162702
0.000248159
0.0114242
0.00118298
0.00504877
0.000329953
0.00013253
0.000138418
0.000409629
0.00020304
0.000141715
0.000197996
0.000195236
0.000137701
0.000133359
0.00649229
0.000160081
0.000128273
0.000153101
0.0317333
0.000136532
0.000196285
0.000138904
0.000133844
0.000184138
0.000148188
0.000135455
0.0209302
0.000191
0.000143749
0.000142986
0.000236048
0.000156171
0.00277895
0.00259516
0.000150419
0.00012776
0.027447
0.00779757
0.000150362
0.0275225
0.000221115
0.000165848
0.000178416
0.0343738
0.00524347
0.0141592
0.000145103
0.00333866
0.000143474
0.000181873
0.000153473
0.00021006
0.00610619
0.0057017
0.000178339
0.003691
0.0268697
0.000358257
0.000151522
0.000138057
0.0277384
0.00184919
0.000136278
0.000150371
0.0175541
0.000132058
0.000157288
0.00370223
0.000139363
0.000153042
0.000144038
0.000183486
0.000190025
0.000208417
0.000172691
0.000319888
0.000157059
0.000146469
0.000141944
0.000135453
0.000152621
0.00718925
0.000152305
0.000191017
0.000144028
0.000156778
0.000156511
0.000246904
0.000202373
0.00013385
0.000153942
0.00013661
0.000163873
0.000145448
0.000144975
0.000149128
0.000141759
0.0105856
0.00013764
0.000140983
0.000138686
0.0260121
0.000132425
0.000145493
0.00380492
0.0273522
0.000128282
0.000138465
0.000138194
0.000140738
0.00465382
0.0205258
0.000209695
0.000156072
0.000157753
0.000135243
0.000197568
0.000150237
0.000140478
0.000140335
0.000137684
0.00020352
0.000138693
0.000179733
0.000148709
0.0292739
0.000146373
0.00491492
0.000139122
0.000149452
0.000127326
0.000133388
0.000146087
0.000173452
0.0002039
0.000146175
0.000132876
0.0335318
0.000190988
0.000236869
0.000152048
0.0207416
0.000144332
0.000149685
0.000168017
0.0148372
0.000358953
0.000154975
0.0031234
0.018683
0.000141842
0.000154913
0.0221766
0.000185509
0.000133185
0.000199393
0.000148542
0.000186439
0.000182662
0.000153831
0.00481814
0.00646039
0.00015368
0.00687178
0.000183914
0.000147188
0.00013334
0.000135246
0.000147521
0.000151612
0.000188294
0.000187082
0.000142056
0.000184547
0.022982
0.000183847
0.000221636
0.000159762
0.000137451
0.000203473
0.000165921
0.0266969
0.000129681
0.000163947
0.0361979
0.000134505
0.00102097
0.00566595
0.0040416
0.0158735
0.000135842
0.000148986
0.000132042
0.000145081
0.000166829
0.000151415
0.00014126
0.000189941
0.000132623
0.000163651
0.00016529
0.0146131
0.000150542
0.000154491
0.000158758
0.000184895
0.000132251
0.00827458
0.000179854
0.000161639
0.000191448
0.00633618
0.00682596
0.000163466
0.000167322
0.00804529
0.000145884
0.000208251
0.000144763
0.000139666
0.0278595
0.000151676
0.0297089
0.000164206
0.00018589
0.000164165
0.000151376
0.000137268
0.000170286
0.000132229
0.000188221
0.000133968
0.00215402
0.0289088
0.000135071
0.000191387
0.000189935
0.00016977
0.0001718
0.0147384
0.0146275
0.000128784
0.000150041
0.000252619
0.0137041
0.000135831
0.0142635
0.000203682
0.000169521
0.000136294
0.000152224
0.00399814
0.0281731
0.000144752
0.00477786
0.0362922
0.000203644
0.0309023
0.000197061
0.00453381
0.0254809
0.0365995
0.000167047
0.00281151
0.000133642
0.000147978
0.000173764
0.0140654
0.00014013
0.000164264
0.00014332
0.000143699
0.000139005
0.000170532
0.000144744
0.000222057
0.00308662
0.000142262
0.0114024
0.00014466
0.000144749
0.0232803
0.000170013
0.000181252
0.0253108
0.000162031
0.000192384
0.000132379
0.000174827
0.000158582
0.0255779
0.000225989
0.000138075
0.000144549
0.000177398
0.000136251
0.000147829
0.00249616
0.000136221
0.0107965
0.000209129
0.0161131
0.00015373
0.000193946
0.000133692
0.011494
0.000352345
0.000203345
0.000180169
0.00355807
0.0290585
0.000164494
0.0122232
0.000219958
0.000160056
0.000185311
0.000131208
0.0300375
0.00633254
0.000168645
0.000208912
0.000144351
0.00246615
0.000186228
0.000164068
0.00014139
0.0222609
0.000150455
0.000171068
0.000206441
0.000143435
0.000135629
0.000169342
0.00511128
0.000248329
0.000153086
0.00015361
0.000147156
0.000145355
0.000174378
0.00015351
0.000149396
0.000136826
0.000128645
0.000144656
0.000135626
0.000151195
0.000134558
0.000162931
0.00262786
0.00256476
0.0378165
0.000139871
0.0183009
0.000145675
0.00018396
0.000141726
0.000136787
0.000140436
0.000150218
0.00013633
0.000169773
0.0110111
0.0108643
0.00019342
0.000132117
0.000146677
0.0065551
0.000192717
0.0200744
0.000154921
0.000143199