/*--------------------------------*- C++ -*----------------------------------*\
| =========                 |                                                 |
| \\      /  F ield         | OpenFOAM: The Open Source CFD Toolbox           |
|  \\    /   O peration     | Version:  v2012                                 |
|   \\  /    A nd           | Website:  www.openfoam.com                      |
|    \\/     M anipulation  |                                                 |
\*---------------------------------------------------------------------------*/
FoamFile
{
    version     2.0;
    format      ascii;
    class       volScalarField;
    location    "300";
    object      nut;
}
// * * * * * * * * * * * * * * * * * * * * * * * * * * * * * * * * * * * * * //

dimensions      [0 2 -1 0 0 0 0];


internalField   nonuniform List<scalar> 
53008
(
0.00280241
0.00205336
0.00705677
0.00584411
0.00367209
0.00581364
0.00589209
0.00579987
0.00479589
0.00585224
0.00580603
0.00142187
0.00592413
0.00296862
0.00407773
0.00169416
0.00599945
0.0134808
0.00195311
0.00587039
0.00590242
0.00737629
0.00666244
0.00114805
0.00584959
0.0027654
0.0116638
0.00592924
0.0120554
0.00584286
0.00215426
0.00587061
0.00821204
0.00524185
0.00581633
0.00581876
0.00602996
0.00568973
0.00546545
0.00818149
0.0127553
0.000401114
0.00590398
0.00590645
0.000361425
0.00741858
0.000172594
0.00349376
0.00582689
0.00311206
0.00310158
0.0106509
0.00607495
0.00423947
0.00494492
0.000775814
0.00445404
0.0057904
0.00591504
0.0060071
0.00584526
0.00582939
0.00591686
0.00287384
0.00591553
0.000642864
0.0127216
0.0019687
0.00591846
0.00586027
0.00584278
0.00582827
0.00566643
0.00583029
0.00203501
0.00298739
0.00579964
0.00585733
0.00283499
0.00591195
0.0058495
0.00591443
0.000790389
0.00217097
0.00582797
0.00487392
0.00190153
0.00205035
0.00272723
0.00583038
0.00579738
0.00584305
0.00595933
0.00582788
0.00189077
0.0139141
0.00587571
0.00579738
0.00592403
0.00585827
0.00584735
0.00600526
0.00584995
0.00593015
0.00584289
0.00591589
0.001534
0.00651361
0.00357967
0.00219187
0.00984341
0.0128317
0.0182612
0.00590937
0.00554417
0.00592343
0.0120557
0.00464891
0.0018996
0.0122107
0.00579839
0.00588063
0.00765812
0.00280486
0.00585732
0.00619492
0.00735733
0.00113282
0.00168744
0.00221893
0.00584366
0.00579852
0.0179675
0.00204104
0.012755
0.00582986
0.00601169
0.0058106
0.0127423
0.00584177
0.000710041
0.0129073
0.0048458
0.00607179
0.00578525
0.00217386
0.00436241
0.00193549
0.00608618
0.00586488
0.00483457
0.00592264
0.00265105
0.00358216
0.00754191
0.00415087
0.00246646
0.00596364
0.00581421
0.00391642
0.00587536
0.00590551
0.00580177
0.00587378
0.00580323
0.00161326
0.00107491
0.00816043
0.00580086
0.00581842
0.00221128
0.00623013
0.00562648
0.016023
0.00584657
0.0058768
0.00609175
0.00591902
0.0010715
0.00341386
0.0026812
0.004795
0.00586932
0.00581334
0.017489
0.00591135
0.00579334
0.0051834
0.00721546
0.00482317
0.00581752
0.00478955
0.00214723
0.00256066
0.0104187
0.00582866
0.0027135
0.000987855
0.00582848
0.0199951
0.00586258
0.000482477
0.00148015
0.00582757
0.00111329
0.0047501
0.00581736
0.00589364
0.00316997
0.0122815
0.00244991
0.00213013
0.00954557
0.00586735
0.00981141
0.0058826
0.00295141
0.00210734
0.0128894
0.0129214
0.0020263
0.00589148
0.00587335
0.0071631
0.00206905
0.00193837
0.0026465
0.00489921
0.00270128
0.00566097
0.00588997
0.00273144
0.00591277
0.00866098
0.00595278
0.0022448
0.00593584
0.0058824
0.00174824
0.0059252
0.00550938
0.00474756
0.00178936
0.0109087
0.00585737
0.00388442
0.00585969
0.0058213
0.00534783
0.00299362
0.0183237
0.00571156
0.00197833
0.00587037
0.00596717
0.00579974
0.00986491
0.0014842
0.00208762
0.00375677
0.0129924
0.00205315
0.00585683
0.00607861
0.0123857
0.00606575
0.0127541
0.0128594
0.00431751
0.00521492
0.00144857
0.0059101
0.00601207
0.00208251
0.00541597
0.00102649
0.00551493
9.25318e-05
0.00597043
0.00587194
0.00305837
0.0121737
0.00110563
0.00637413
0.00108855
0.00584417
0.0056715
0.0130149
0.000670842
0.0109835
0.00684981
0.00240556
0.0011078
0.00146301
0.00587347
0.00591989
0.00717488
0.00591863
0.00252388
0.00580334
0.0127107
0.00585849
0.00585411
0.00592294
0.000901455
0.000691522
0.00592932
0.00341078
0.004811
0.0103872
0.00295455
0.0058283
0.00587814
0.00587029
0.00173048
0.00584371
0.00544786
0.00581477
0.00744957
0.00591298
0.00199248
0.00582382
0.00439484
0.0058023
0.00587672
0.00943597
0.00209419
0.00582969
0.0033767
0.00496158
0.0113352
0.00627018
0.00590444
0.00477413
0.0142648
0.00588366
0.00148879
0.00216876
0.00586881
0.00586906
0.00224627
0.00268063
0.00142007
0.00150073
0.00732026
0.00592545
0.00175354
0.00580765
0.00588989
0.00564215
0.00582842
0.00581736
0.00967783
6.59429e-05
0.00585924
0.013845
0.00603547
0.000937113
0.00343884
0.00207946
0.00133624
0.00595065
0.0172891
0.00586687
0.00601745
0.00586183
0.00250085
0.0121286
0.00999746
0.00481601
0.010648
0.0059612
0.00496308
0.00580543
0.00588542
0.00198036
0.00586803
5.57831e-05
0.005565
0.00589023
0.00583603
0.00591394
0.00586513
0.00526395
0.00591555
0.00582858
0.00590593
0.0187558
0.0175313
0.0148596
0.00687869
0.00186596
0.000276602
0.00582171
0.00338415
0.00684555
0.00724522
0.00583
6.83116e-05
0.00592377
0.00593005
0.00587598
0.0182314
0.00497967
0.00598711
0.00586783
0.00586796
0.00100355
0.00231158
0.00582767
0.00236511
0.00587729
0.00696686
0.00735742
0.00201158
0.00582875
0.0129985
0.00587951
0.00596077
0.00584414
0.0058381
0.0151312
0.0058833
0.00582908
0.0057282
0.00587656
0.00585379
0.007982
0.00538502
0.00582912
0.00700166
0.0044714
0.00585461
0.00113393
0.00582728
0.00596226
0.00961008
0.00326014
0.00588257
0.00906406
0.003428
0.00484962
0.00188289
0.00815935
0.00212233
0.00590827
0.00585155
0.00546797
0.0107608
0.00594356
0.0108329
0.00796228
0.00584998
0.00608362
0.00714888
0.00864147
0.0175735
0.00238526
0.00594228
0.00895806
0.00587382
0.0050073
0.00588922
0.00585008
0.00607248
0.0105651
0.0045654
0.00389366
0.000808253
0.00742112
0.00194448
0.00349089
0.00111723
0.00608374
0.0058296
0.00224324
0.00587498
0.00122998
0.0173807
0.0102497
0.00585787
9.69812e-05
0.00451179
0.00291815
0.0058884
0.00585566
0.0129376
0.00585939
0.00146126
0.00522665
0.00594906
0.00580652
0.0181187
0.0059275
0.00428544
0.00584953
0.00582688
0.00589414
0.00589536
0.00243498
9.11382e-05
0.00563066
0.00372162
0.00596171
0.00396717
0.000796346
0.0023987
0.00586988
0.00595899
0.00244444
0.00568026
0.00590772
0.00946091
0.000562916
0.00581081
0.0011072
0.0022954
0.00606714
0.00580947
0.00591744
0.0177396
0.00206858
0.00582923
0.00189476
0.013581
0.00586106
0.0130009
0.005807
0.00556014
0.00591972
0.00541819
0.00581371
0.00376651
0.0118726
0.0058302
0.00841654
0.00585228
0.00342498
0.00489573
0.00595902
0.00531696
0.00582726
0.00584835
0.0058554
0.00223386
0.00118646
0.00591781
0.00282548
7.62419e-05
0.00134318
0.00588636
0.00593315
0.00591771
0.0059023
0.00589097
0.00188331
0.0126735
0.0107332
0.00592611
0.0123502
0.00590748
0.00403522
0.00586807
0.00924719
0.00580832
0.00630154
0.00582729
0.00132108
0.00202912
0.0127013
0.00585432
0.005923
0.00585107
0.00225037
0.00488918
0.0119629
0.00580371
0.00582872
0.00593217
0.00589971
0.00775533
0.00588489
0.00557737
0.00642563
0.0062408
0.00592002
0.000908218
0.000791546
0.0176463
0.000795144
0.00593456
0.0092952
0.0130133
0.0097413
0.00580331
0.0180838
0.00579157
0.00581884
0.0081702
0.000550456
0.0080135
0.00403125
0.00290514
0.0058347
0.00290529
0.0109795
0.0105821
0.00137253
0.00591087
0.00587779
0.00136158
0.00596031
0.00581774
0.00582837
0.00590546
0.00581432
0.00160149
0.00580001
0.00371923
0.00582973
0.00107411
0.00605944
0.00866401
0.0123243
0.00430115
0.00413552
0.00590382
0.00586738
0.00591619
0.00284243
0.00290846
0.00588033
0.00660385
0.0094213
0.00586038
0.00216134
0.000999202
0.00584125
0.00193115
0.00172609
0.00482568
0.00591582
0.00164555
0.00590643
0.0058589
0.0039339
0.00587363
0.00582648
0.00592912
0.00110826
0.00591014
0.00590223
0.00967536
0.0058484
0.00195222
0.0059113
0.00591773
0.00679129
0.00166229
0.0167531
0.00596094
0.0060378
0.00594215
0.00486024
0.00599838
0.000423735
0.00547931
0.00263343
0.00184079
0.00580351
0.00639729
0.00322139
0.00592502
0.00587678
0.00262689
0.00591005
0.0117588
0.00547747
0.00581223
0.00337262
0.00658389
0.0066092
0.00562788
0.00272391
0.00588241
0.00604352
0.00946799
0.00590671
0.00170712
0.00592391
0.0109711
0.00187482
0.00603562
0.00584768
0.00177698
0.00594129
0.00104762
0.00592239
0.0120182
0.00582984
0.00591582
0.0075645
0.00556966
0.00238458
0.00586668
0.00582969
0.00226822
0.00591033
0.00487051
0.0176465
0.00586547
0.0100864
0.00184474
0.00592217
0.00592917
0.00414892
0.00289207
0.00559795
0.00742868
0.0011141
0.00563167
0.00194615
0.0059265
0.00584605
0.00588592
0.00501443
0.00573923
0.00427
0.010541
0.00298417
0.0195609
0.00112005
0.0192716
0.003076
0.00582975
0.00183434
0.00569776
0.00316102
0.00191942
0.00591164
0.000904809
0.00582402
0.00165462
0.00140681
0.00582889
0.00225312
0.00397531
0.00582109
0.00356314
0.00733494
0.00291017
0.0058475
0.00552143
0.0120345
0.00347532
0.00149962
0.00581729
0.00269094
0.0175395
0.00310545
0.00540386
0.00552032
0.00588971
0.0123294
0.000439188
0.0059355
0.0068659
0.0135612
0.00239678
0.00451114
0.00681128
0.00199922
0.0022553
0.00100232
0.00592653
0.00260792
0.000848593
0.0212626
0.00591936
0.0110537
0.00547361
0.00603669
0.00239997
0.00553569
0.00184303
0.00594413
0.00594091
0.0058301
0.0112601
0.00522314
0.0155407
0.00306659
0.00431482
0.00376379
0.0195336
0.00580838
0.016271
0.00167259
0.0136387
0.0117033
0.00589814
0.0124057
0.00581958
0.00590362
0.00595002
0.00397428
0.00586961
0.00592645
0.00592157
0.00594785
0.0059142
0.00588287
0.0050206
0.00129829
0.00145623
0.00325688
0.00463288
0.0119958
0.0060185
0.00217132
0.00584866
0.00579957
0.0157242
0.00584367
0.00440745
0.00594958
0.00218167
0.00505922
0.0119491
0.00585189
0.0100251
0.0058303
0.0177252
0.00585001
0.007134
0.00605773
0.0121013
0.0023507
0.0020318
0.0180053
0.00581347
0.00592403
0.00225972
0.0059145
0.0139567
0.00592476
0.00152589
0.00153113
0.0103479
0.00672454
0.00108907
0.00583026
0.00582987
0.00271303
0.00114695
0.00999808
0.000607061
0.00592536
0.00592388
0.00752484
0.00583381
0.00587592
0.00587034
0.00311666
0.0019671
0.0173355
0.00960635
0.00400819
0.00174786
0.00140311
0.00229921
0.00926808
0.00528459
0.00584103
0.00583022
0.00591625
0.0157832
0.00450295
0.00593578
0.0041235
0.00386844
0.00297672
0.00590889
0.00580338
0.0171559
0.00589141
0.00579952
0.00591403
0.00162511
0.00585311
0.00577073
0.0058916
0.00582411
0.00186462
0.00590666
0.00251184
0.00800086
0.00303233
0.0135915
0.0103051
0.00916061
0.00590862
0.00586799
0.00583041
0.0058595
0.00584239
0.00319462
0.00616377
0.00585738
0.0181142
0.00140162
0.0058565
0.00278898
0.00769015
0.00592089
0.00591193
0.00591503
0.00607203
0.0108486
0.0178953
0.00693239
0.0014628
0.00591921
0.00602695
0.00403684
0.00590439
0.0177108
0.00582587
0.00708134
0.000856407
0.00594201
0.00569062
0.00581859
0.00603657
0.00313105
0.00590644
0.00595049
0.000834112
0.0150807
0.0027501
0.00117595
0.010801
0.0032412
0.00203823
0.00184926
0.00581556
0.0131984
0.00594727
0.0058967
0.00582193
0.00175608
0.00583721
0.00586201
0.00582286
0.00590024
0.00345062
0.0058756
0.00594538
0.00595071
0.00586259
0.00589427
0.00595043
0.00594876
0.00587903
0.00590264
0.0104646
0.0012395
0.00583951
0.00311045
0.00598937
0.00583228
0.0172923
0.00596037
0.00581627
0.00397561
0.0058526
0.0014928
0.00500462
0.0017942
0.0178008
0.00581133
0.0173375
0.00594562
0.0058977
0.00583968
0.0125791
0.00594486
0.00960336
0.00228541
0.00132198
0.00169116
0.00580518
0.00585743
0.00984902
0.00160574
0.00585025
0.0104132
0.00290093
0.00415426
0.00585783
0.00551627
0.00593434
0.00581564
0.00406951
0.00316053
0.00534932
0.00490222
0.00589333
0.00323694
0.00590006
0.00384088
0.00596025
0.00238515
0.00591955
0.00420672
0.00580551
0.011883
0.000696357
0.00585597
0.00587292
0.00389304
0.00589567
0.00649809
0.00547688
0.00590418
0.00448177
0.0058378
0.00583276
0.00585685
0.00495809
0.00590523
0.0208374
0.00264874
0.00211696
0.00585587
0.00547039
0.00445492
0.0034078
0.0110945
0.00468192
0.0111136
0.00583762
0.00567319
0.00592255
0.00801215
0.00259848
0.0105033
0.00580692
0.00583407
0.0102113
0.00580421
0.00615125
0.00443298
0.0123329
0.0104362
0.00591946
0.00545199
0.00336665
0.0110901
0.000118103
0.00583658
0.00603198
0.00382983
0.00591733
0.00564105
0.0058172
0.00368694
0.00360911
0.000784039
0.0183902
0.00135005
0.0110562
0.0018938
0.0123094
0.00583546
0.00877967
0.00382424
0.00129643
0.0210603
0.00377277
0.00425742
0.00120798
0.00578561
0.00583844
0.00586962
0.00557443
0.00579007
0.0131388
0.000817531
0.00956078
0.00262776
0.00580483
0.00586144
0.0122944
0.00590189
0.00588992
0.00595674
0.00580392
0.012265
0.0067903
0.00165487
0.00581611
0.00226126
0.00181101
0.00590525
0.00583539
0.005908
0.00328753
0.0141182
0.00574076
0.00583649
0.00580719
0.0167396
0.00258853
0.00605957
0.00402638
0.000161928
0.0110511
0.0182638
0.00740743
0.00230996
0.00197087
0.00140325
0.00320233
0.000944674
0.00593233
0.00585448
0.00603916
0.00583246
0.00587493
0.00380567
0.00579919
0.00328969
0.00134456
0.00585924
0.00968899
0.00148094
0.004231
0.000423011
0.00174202
0.00186502
0.00115108
0.000904557
0.000628501
0.00376446
0.00251676
0.0052127
0.00548388
0.0107557
0.00221844
0.0171917
0.00594638
0.00590697
0.00295177
0.0054932
0.00598434
0.0108626
0.0012461
0.00604497
0.00444356
0.00117288
0.0112084
0.000801302
0.00354997
0.00595841
0.00117474
0.00601827
0.00805062
0.00580361
0.0107455
0.00448842
0.00614312
0.0041371
0.00225445
0.00466021
0.00233888
0.00600928
0.00261732
0.00588444
0.00585309
0.00224514
0.00580434
0.00432492
0.0109234
0.00595411
0.00586079
0.00141978
0.00584101
0.00584025
0.00450574
0.00586075
0.00283658
0.00574946
0.00165073
0.0051817
0.00563617
0.0171691
0.00238051
0.00140823
0.0179529
0.00580793
0.00584595
0.00538866
0.00777749
5.02223e-05
0.00586147
0.0119356
0.0048663
0.00540185
0.00586886
0.00386975
0.00965167
0.00278501
0.00808442
0.0010142
0.00805434
0.00585771
0.00520621
0.00583794
0.00583905
0.0119186
0.00554656
0.00585654
0.00326819
0.0058005
0.000846174
0.00110317
0.00592519
0.0054665
0.00319203
0.00238619
0.0119976
0.0176585
0.000573758
0.0047542
0.00582631
0.00236702
0.0058231
0.00584671
0.0181784
0.0015994
0.00267994
0.00583802
0.00585645
0.00592777
0.00384545
0.00597637
0.0069184
0.00584529
0.00318315
0.00303619
0.00580948
0.00843036
0.00592054
0.00231174
0.00594904
0.00584681
0.00589072
0.00196059
0.00649554
0.00840558
0.00582734
0.0058608
0.00770428
0.0123671
0.00151528
0.00584787
0.00144174
0.00586378
0.00980474
0.00584927
0.0125147
0.00254379
0.0157961
0.00171644
0.00164808
0.00243836
0.00607476
0.00582928
0.00589564
0.00187356
0.00106828
0.00146454
0.00219973
0.00580751
0.00234039
0.00589726
0.0129571
0.00587454
0.00269322
0.0106518
0.00593094
0.00586157
0.0126614
0.0176739
0.00592629
0.0059399
0.00584252
0.00589
0.00834858
0.00649502
0.0059369
0.00274261
0.00211887
0.00581338
0.00115725
0.00589048
0.0058335
0.00576648
0.00286346
0.000166844
0.00255378
0.00593126
0.00599283
0.00994535
0.00282434
0.00590751
0.0141791
0.00587462
0.00586763
0.00587327
0.0146543
0.00592169
0.00284676
0.00582624
0.00586199
0.00580599
0.0060076
0.00363984
0.00593997
0.010767
0.000330234
0.00531817
0.00585639
0.005907
0.00583272
0.0122879
0.00590213
0.0103873
0.00591195
0.00526545
0.000964496
0.00393101
0.00582084
0.00354359
0.00585417
0.00188261
0.0182548
0.00223255
0.00701758
0.00219273
0.0149595
0.00582553
0.00591847
6.14211e-05
0.00116191
0.00538888
0.00767765
0.00102283
0.0026985
0.00586519
0.00266957
0.00593378
0.0109952
0.0160277
0.00593115
0.00582677
0.000764724
0.00649091
0.00591818
0.0058793
0.0111417
0.0058267
0.00717121
0.0135628
0.00605531
0.0059183
0.00240031
0.00992523
0.000337152
0.00289819
0.00487175
0.00939895
0.0104823
0.00582878
0.00584116
0.00582538
0.0140301
0.000166564
0.00928751
0.0170996
5.66022e-05
0.00592242
0.00582371
0.00580634
0.00600193
0.014469
0.00778659
0.00982205
0.0058388
0.0034968
0.00455353
0.00592487
0.00129693
0.00605999
0.00183838
0.00253529
0.00220185
0.00582783
0.00770408
0.0108679
0.001437
0.016662
0.0059293
0.00582409
0.0102901
0.00341554
0.00602827
0.00582868
0.0107022
0.0059203
0.0081598
0.00206032
0.00592225
0.00250278
0.00590266
0.00583806
0.00549193
0.00579045
0.00589404
0.00590185
0.00590766
0.0059589
0.00588021
0.00580738
0.0116921
0.00348737
0.00056226
0.0175861
0.00905048
0.00211309
0.00277427
0.00609402
0.00585241
0.0158624
0.00592412
0.00547629
0.0101027
0.00639689
0.00593342
0.00209115
0.00524015
0.00838223
0.0122815
0.0110728
0.00584289
0.00584075
0.00592227
0.00732464
0.00582096
0.0105668
0.00584774
0.00672346
0.00584273
0.00326891
0.00531383
0.0059084
0.00270998
0.00133199
0.00960292
0.0081645
0.00592884
0.00580532
0.00833624
0.0117074
0.00345011
0.00583223
0.00587061
0.00566439
0.00105766
0.00588602
0.00592495
0.0058268
0.00364046
0.0143724
0.00262028
0.00587365
0.0027174
0.0108251
0.005076
0.00446286
0.00591765
0.00381763
0.00592739
0.00403658
0.00602906
0.00582856
0.00298961
0.003411
0.0119596
0.00581779
0.00506409
0.00585925
0.0026143
0.0035114
0.00589661
0.00308178
0.00585019
0.0059389
0.00626712
0.00510474
0.0126528
0.00564499
0.00591711
0.0056505
0.00493448
0.00113209
0.0115247
0.00592161
0.0056752
0.0027301
0.00331343
0.00581092
0.00138329
0.000813868
0.000481563
0.00589136
0.000677329
0.00590307
0.00109444
0.00111078
0.00584158
0.00749914
0.0004649
7.46189e-05
0.00200143
0.0124827
0.00591736
0.00516791
0.00583419
0.00824311
0.014873
0.00560508
0.00581972
0.00588181
0.00587652
0.00585688
0.00130309
0.0145764
0.0058467
0.0034502
0.000361155
0.00588078
0.00164141
0.0059086
0.00756253
0.00396288
0.0059393
0.00138614
0.00591046
0.00584291
0.0103955
0.0140856
0.0100795
0.00584034
0.00138696
0.00588388
0.00589567
0.00593511
0.00591673
0.00581774
0.00595096
0.00594805
0.0149752
0.00121966
0.00922706
0.00546465
0.0183753
0.00583031
0.0155234
0.00594175
0.015971
0.00117107
0.0149737
0.00390283
0.00592591
0.0059868
0.0059509
0.00296813
0.00276138
0.00589985
0.00163599
0.00580962
0.00589115
0.00360011
0.00855003
0.00308873
0.0060214
0.00993011
0.0083441
0.00594362
0.00351725
0.0021979
0.00586094
0.00239393
0.00371512
0.00138116
0.0039898
0.00592368
0.00887792
0.00487624
0.00526111
0.00582179
0.00591337
0.00581227
0.00593015
0.0058143
0.0015091
0.00675242
0.00592596
0.0162657
0.00770359
0.00591178
0.00590021
0.00395586
0.0132286
0.00565153
0.00588888
0.0023805
0.00332144
0.00535965
0.00591879
0.00166139
0.00762733
0.00706368
0.00169998
0.00304551
0.00606302
0.00497974
0.000167588
0.00203668
0.00582516
0.00280163
0.00589699
0.00597212
0.0100303
0.00585521
0.00592324
0.00580888
0.00195153
0.00929891
0.0102429
0.00648444
0.00593421
0.0107584
0.0058762
0.00332768
0.00582173
0.00708993
0.00070672
0.00219461
0.000208556
0.00366264
0.0058449
0.00251053
0.00322783
0.00532754
0.00595735
0.00136845
0.00542989
0.00388635
0.0059435
0.00589648
0.00490547
0.00588432
0.0111214
0.00413299
0.00593354
0.00584897
0.00564494
0.00577655
0.00593405
0.00979941
0.00600506
0.00547183
0.00881929
0.00591685
0.00140564
0.00581524
0.00582993
0.00584899
0.0150136
0.00342409
0.00394783
0.00377402
0.00579053
0.00896738
0.00988942
0.00587834
0.0105606
0.0055084
0.00588181
0.00068893
0.00581349
0.0059491
0.00587022
0.00580412
0.0130889
0.00587323
0.00585508
0.00588732
0.00581009
0.000881453
0.00853269
0.0046534
0.00589171
0.00202405
0.00580321
0.00791182
0.0058408
0.00126824
0.0180979
0.00677846
0.010651
0.0056203
0.0108511
0.00343692
0.00585829
0.00590277
0.017491
0.00635387
0.000227648
0.00241268
0.00193261
0.005645
0.00525847
0.00604577
0.0080738
0.00546386
0.017882
0.00108275
0.00595315
0.00581107
0.00686649
0.00146661
0.00558496
0.00589186
0.00583522
0.00170277
0.000498323
0.011946
0.0165656
0.015438
0.0164404
0.00677141
0.00592413
0.00861894
0.0123753
0.00580308
0.00584425
0.00380258
0.00595587
0.0107811
0.00583244
0.00165369
0.00307287
0.00590669
0.00591838
0.0178047
0.00518707
0.000709648
0.00356047
0.00140978
0.00567205
0.00582478
0.000423921
0.00579024
0.00584491
0.0183027
0.00349044
0.0123732
0.00601487
0.00592862
0.00245051
0.0103181
0.00591697
0.0109024
0.0113468
0.00579135
0.00594255
0.00588747
0.00956082
0.00263436
0.00569958
0.00583315
0.00592465
0.00300022
0.0059345
0.00582902
0.005911
0.00226183
0.00458038
0.00295156
0.00430922
0.00582624
0.00592968
0.00601654
0.018065
0.0027181
0.004498
0.00585647
0.00680367
0.00587628
0.00593564
0.00593249
0.00183009
0.00583323
0.00924971
0.00589924
0.00205492
0.00589217
0.00460546
0.00602913
0.0133098
0.0156268
0.00581882
0.00132952
0.0146031
0.00582981
0.00581822
0.0102174
0.00141933
0.00584242
0.00201822
0.00586275
0.00579965
0.00442771
0.00594981
0.00590312
0.00794776
0.00403565
0.0133116
0.00283311
0.011371
0.0019848
0.00764477
0.00510811
0.00593423
0.0123986
0.00590498
0.00587322
0.00079547
0.00347154
0.00584513
0.00137049
0.00726733
0.0125298
0.00581755
0.00566756
0.0058278
0.00593268
0.00817054
0.00590421
0.0124875
0.000742023
0.0196949
0.00223534
0.00159538
0.00250348
0.00249137
0.0178486
0.00581759
0.0143664
0.000161501
0.00591992
0.00586536
0.00377533
0.0013334
0.00110524
0.0059062
0.00584652
0.00785543
0.00350174
0.00884939
0.00354651
0.00896627
0.0123863
0.00297175
0.00591329
0.00580694
0.01896
0.00182629
0.00604947
0.00604685
0.00584675
0.005859
0.0179191
0.00434331
0.00475935
0.00588924
0.00218677
0.00583743
0.0047172
0.0183493
0.00234553
0.00151418
0.00281853
0.0059234
0.0059364
0.00583597
0.00235052
0.00590669
0.00586561
0.002254
0.00581072
0.00382366
0.00578869
0.00586784
0.0171981
0.00583132
0.014191
0.00595429
0.00224117
0.00605353
0.0058429
0.00580613
0.00592171
0.00587632
0.00650587
0.0183978
0.0180838
0.00265082
0.005799
0.017661
0.00580926
0.0060667
0.00593529
0.00347557
0.0194434
0.00599595
0.00582911
0.0190803
0.00583655
0.00589841
0.00613227
0.000146645
0.00566106
0.0058736
0.000657006
0.00853564
0.00592774
0.00850403
0.00591579
0.00588027
0.00547155
0.010382
0.00590011
0.00607933
0.000141032
0.00832091
0.00598526
0.00593902
0.00440208
0.00258405
0.0144421
0.0184253
0.00588731
0.00262819
0.00583062
0.00177462
0.00845551
0.00581075
0.00168354
0.00708371
0.00145671
0.00593333
0.00599546
0.00882841
0.000991449
0.00584793
0.0185983
0.00579455
0.00583484
0.00884342
0.00586138
0.00583993
0.00600918
0.00214453
0.00849325
0.00440088
0.00502621
0.00594077
0.00593096
0.0164568
0.00503808
0.00548234
0.00830442
0.00252465
0.00514431
0.00511505
0.0190556
0.00250373
0.00589149
0.0084642
0.00586391
0.00358873
0.0183484
0.00579376
0.0058291
0.00530026
0.000901418
0.005946
0.0016589
0.000647859
0.00586491
0.0028581
0.00590325
0.00586105
0.00592661
0.00591562
0.00509485
0.00587092
0.00593312
0.00257344
0.000839394
0.00584346
0.00255059
0.00606046
0.00593281
0.0050246
0.0037661
0.00600487
0.00135395
0.00588854
0.00548924
0.00279966
0.0052432
0.0204843
0.0175109
0.00581547
0.0101098
0.0106514
0.00607086
0.00936948
0.0143242
0.0110264
0.00590295
0.00578848
0.00592302
0.00588791
0.0051664
0.00517868
0.0135294
0.00589433
0.00581775
0.000712258
0.00995044
0.00603723
0.00999542
0.00131918
0.00323428
0.00907665
0.00590393
0.0105046
0.0049136
0.00591316
0.00295105
0.00468104
0.00642391
6.80692e-05
0.00607216
0.00592865
0.00950326
0.00582884
0.00663334
0.00582766
0.00184301
0.00212314
0.00117057
0.00592859
0.0116701
0.0111333
0.00472714
0.000661759
0.00591077
0.0148521
0.0037449
0.00489272
0.00582336
0.00584505
0.00581568
0.00578835
0.00590361
0.00593938
0.000904422
0.00590092
0.00417245
0.000637115
0.00180962
0.00183064
0.00299518
0.00450205
0.00878693
0.00589759
0.00592843
0.00538435
0.011638
0.00277792
0.00586441
0.000178715
0.00396237
0.00736652
0.00590856
0.00932936
0.00444778
0.00592622
0.0116805
0.00157849
0.00233279
0.00592268
0.00585446
0.00464323
0.00356305
0.00214391
0.00354098
0.0094283
0.00982683
0.00590827
0.0032264
0.00603743
0.00135985
0.00504316
0.0133335
0.0059295
0.00244155
0.00419994
0.00136962
0.00582917
0.00211221
0.00539351
0.00174935
0.00931119
0.0058512
0.00339735
0.0128459
0.0185495
0.00262277
0.00124945
0.00590869
0.00935562
0.0135275
0.00583402
0.00581162
0.0207952
0.0029749
0.00099985
0.00366356
0.0037988
0.00588595
0.00161287
0.00239736
0.00589605
0.00595948
0.0053695
0.00551222
0.00848294
0.00580529
0.00586688
0.00590823
0.00843077
0.0107771
0.00584364
0.00584105
0.0059211
0.00569227
0.00186913
0.012841
0.00207884
0.00594191
0.00495528
0.00582874
0.00612711
0.00586982
0.00582718
0.00977727
0.0170408
0.00380741
0.00591562
0.00591376
0.00601015
8.75696e-05
0.00585153
0.00248666
0.00590408
0.00581494
0.00511669
0.00113422
0.0169044
0.00363423
0.0119702
0.00359456
0.00586308
0.00583942
0.00339361
0.00140866
0.00584653
0.00169949
0.00188224
0.00581592
0.00587561
0.000279265
0.00492298
0.00578711
0.00338249
0.00952857
0.00590997
0.00160351
0.00592635
0.00588463
0.00512957
0.00592592
0.00587388
0.00662329
0.00219894
0.00591818
0.005828
0.00136447
0.0056688
0.0116314
0.0107367
0.00594038
0.00578605
0.0159571
0.000264415
0.00555959
0.0123402
0.000735307
0.0029335
0.00525408
0.0184917
0.0050577
0.00484394
0.00591452
0.00970568
0.00592431
0.00645624
0.00584325
0.00110681
0.0027535
0.0119261
0.00206633
0.0105538
0.0148697
0.00254074
0.00574488
0.00584219
0.0138161
0.00361743
0.0059227
0.00461282
0.00803102
0.00580066
0.00557154
0.00986206
0.0059295
0.00571528
0.00590576
0.00294949
0.00218694
0.00145406
0.00267435
0.000685799
0.00559979
0.00594098
0.0058556
0.0058729
0.00600977
0.000294681
0.00586985
0.00222425
0.00589835
0.00562449
0.0056473
0.00151018
0.00137763
0.00580661
0.00568009
0.00583685
0.00324823
0.00590796
0.00594679
0.00596693
0.00584666
0.00527564
0.0058501
0.00586668
0.00592356
0.0165025
0.00586319
0.00588093
0.000991297
0.00646081
0.00578695
0.0059182
0.00585207
0.00584804
0.0127795
0.0164796
0.00356218
0.00304034
0.00559053
0.00587221
0.00170174
0.00593059
0.00592908
0.00582516
0.00589564
0.00148301
0.00584276
0.00367105
0.00582326
0.0205384
0.0059057
0.000164478
0.00592655
0.00600477
0.000432398
0.00582422
0.00594095
0.00214154
0.00132696
0.00589205
0.0058719
0.00712203
0.00207862
0.00138675
0.00589861
0.017062
0.00589841
0.00598184
0.00536381
0.00855585
0.0038803
0.00313455
0.00763517
0.00298911
0.00593513
0.00562779
0.0112088
0.00189837
0.00587168
0.00160512
0.00594179
0.0010543
0.00298623
0.00364929
0.0132542
0.0136676
0.00370482
0.00024258
0.00203993
0.00592237
0.0058528
0.00586952
0.00595598
0.00591088
0.000904246
0.00446152
0.00585763
0.00451286
0.0177941
0.00209792
0.00150737
0.00606775
0.00589439
0.00131966
0.00295919
0.0114443
0.00579414
0.00311562
0.0109159
0.00590188
0.00469193
0.000200959
0.0131192
0.00282066
0.00587991
0.0058668
0.00581179
0.00590464
0.00266013
0.00591152
0.00594682
0.0021966
0.0058298
0.00592356
0.00538005
0.0041065
0.00593201
0.00604129
0.00606703
0.00237744
0.00579912
0.00127873
0.00192375
0.00324681
0.00219747
0.00780964
0.0153128
0.00592335
0.00534568
0.000934823
0.00591736
0.00362236
0.00587312
0.00583013
0.0102038
0.00590398
0.0130684
0.00515749
0.00634728
0.00255501
0.00398682
0.00590215
0.00315963
0.0058585
0.00309969
0.00588796
0.00977297
0.0146458
0.00588431
0.00292597
0.00297912
0.0030313
0.0018935
0.00408579
0.00254736
0.00579306
0.0059138
0.00390062
0.00203707
0.00587881
0.00669141
0.00135693
0.00498289
0.00592154
0.00516367
0.0019335
0.00805315
0.00594428
7.87113e-05
0.0116247
0.00135612
0.0108769
0.00172948
0.00847244
0.00705774
0.015524
0.00533437
0.00926469
0.00580331
0.00596143
0.00266884
0.00712458
0.00582094
0.00295416
0.00583668
0.00594035
0.00582599
0.00286321
0.00591779
0.00140902
0.0119497
0.00588424
0.0060149
0.00587127
0.00591762
0.0186104
0.00280933
0.00345693
0.0182251
0.00270031
0.00206777
0.00579933
0.00247315
0.0052846
0.0203844
0.00145271
0.00584576
0.00590313
0.00309085
0.00581617
0.00593893
0.00870563
0.00581687
0.00998755
0.0011349
0.00244297
0.00525203
0.00195216
0.00580319
0.00407339
0.00394242
0.00568547
0.00226817
0.00961314
0.0178805
0.00246798
0.00653234
0.000547778
0.00544665
0.00197901
0.00580142
0.0130397
0.0124498
0.00268599
0.00232312
0.00590002
0.00893441
0.00222151
0.00278959
0.00593176
0.0102229
0.00600934
0.00367898
0.00124473
0.00592495
0.00590551
0.00499225
0.00223165
0.00142937
0.00334926
0.00569871
0.00591624
0.00592996
0.00273986
0.00383587
0.00595207
0.00591992
0.00578893
0.00589806
0.00590534
0.00591722
0.00590399
0.00608173
0.0107485
0.0109488
0.0119058
0.00581985
0.00732716
0.00595337
0.00194687
0.00590737
0.00591997
0.00582586
0.00591274
0.00583467
0.00242427
0.000826963
0.000827105
0.00202982
0.00585675
0.00592923
0.0127575
0.0054876
0.00423316
0.00328331
0.00592977
0.00583844
0.0187036
0.00583652
0.000958713
0.00588449
0.00151058
0.00591298
0.00194952
0.0102637
0.00515647
0.00571868
0.00148375
0.00590497
0.00599444
0.00480163
0.0081156
0.00607245
0.00591236
0.00584737
0.00590741
0.0158939
0.00211697
0.00363812
0.00583565
0.0138583
0.00592992
0.00595402
0.00594804
0.00152538
0.0054577
0.0014969
0.00999597
0.017744
0.00220166
0.00889547
0.00583012
0.00563742
0.0104182
0.0059022
0.00602428
0.00323185
0.00581944
0.00378349
0.00589935
0.00496035
0.00554844
0.00588557
0.000502132
0.00591121
0.00172918
0.0059297
0.00237403
0.00586861
0.00212692
0.00168084
0.00201126
0.0087192
0.00593508
0.00591871
0.00589964
0.00586109
0.00586262
0.0058262
0.0112273
0.00586169
0.00930738
0.00460433
0.00530958
0.00587866
0.00290582
0.00580638
0.00307695
0.000767916
0.00380142
0.00587489
0.00756622
0.00542612
0.0163829
0.00580449
0.00592329
0.0170673
0.00260067
0.0198553
0.00597807
0.00528765
0.00583694
0.0113969
0.0060024
0.00653632
0.00205464
0.009188
0.00146112
0.00513077
0.00585565
0.0127034
0.00125116
0.00850366
0.00237957
0.00225768
0.00270724
0.00584631
0.00587864
0.0105207
0.00517677
0.00524147
0.00587358
0.0166139
0.00598358
0.00590024
0.00371952
0.000809043
0.0155342
0.0116088
0.00593625
0.00134367
0.00595077
0.0033093
0.00749254
0.00594306
0.00983576
0.00226361
0.00590704
0.0176939
0.0128291
0.00300001
0.00515221
0.00593361
0.00579415
0.00582716
0.00580184
0.00207421