/*--------------------------------*- C++ -*----------------------------------*\
| =========                 |                                                 |
| \\      /  F ield         | OpenFOAM: The Open Source CFD Toolbox           |
|  \\    /   O peration     | Version:  v2012                                 |
|   \\  /    A nd           | Website:  www.openfoam.com                      |
|    \\/     M anipulation  |                                                 |
\*---------------------------------------------------------------------------*/
FoamFile
{
    version     2.0;
    format      ascii;
    class       volScalarField;
    location    "300";
    object      omega;
}
// * * * * * * * * * * * * * * * * * * * * * * * * * * * * * * * * * * * * * //

dimensions      [0 0 -1 0 0 0 0];


internalField   nonuniform List<scalar> 
53008
(
0.0710173
0.0636211
3.51662
0.0246376
0.0780649
0.023619
0.0244693
0.022859
0.0344205
0.0235519
0.0223892
0.142403
0.0232516
2.61996
0.35935
0.156836
0.0260198
0.870078
0.0357167
0.0240717
0.025414
1.8666
2.10492
5.87743
0.0235445
0.0361821
0.867097
0.0232072
2.29485
0.0246368
0.0433099
0.0240675
1.94202
0.0493367
0.0228362
0.0228396
0.0254704
0.0528117
0.0293462
3.53396
2.14734
16.593
0.0224869
0.0235099
7.58149
1.83401
30.6588
0.0950762
0.0517085
5.49144
0.032646
3.19764
0.0264544
0.0337468
0.033822
0.285113
3.94287
0.025784
0.0236307
0.0248142
0.024275
0.0238763
0.0255093
0.0326798
0.0236367
14.7445
3.4464
0.0833825
0.0255684
0.024002
0.0243315
0.0245789
0.0282702
0.0245455
0.0659066
0.0306583
0.0228484
0.0238514
0.0360885
0.0246978
0.0235514
0.0234362
0.282234
0.0438813
0.0244666
0.0298343
0.102518
0.0749837
0.0375685
0.0243096
0.0225663
0.0242531
0.0248271
0.024472
0.0751604
0.949518
0.0239413
0.0225625
0.0232494
0.0239922
0.0242789
0.0248033
2.07193
0.02319
0.0243263
2.97867
2.27219
3.01051
0.0266219
0.142896
3.00033
3.3734
1.39804
0.0235101
0.0284257
0.0246866
0.260623
0.0332677
0.102652
0.918707
0.0225797
0.0258107
3.80088
0.0391245
0.0228056
3.07102
1.1296
0.183487
7.9171
0.035735
0.02248
0.0225755
1.36934
0.0498188
3.40372
0.0243058
0.0256133
0.0253934
3.32307
0.0224677
6.95626
3.46412
0.03534
0.0267928
0.0220798
0.0421702
0.038539
0.0631161
0.0267574
0.0245677
4.48592
0.023575
0.0702251
4.55312
1.82122
0.0284914
0.0880795
3.08597
0.0236207
0.0267546
0.0230525
0.0235161
0.0223645
0.0246234
0.022372
4.67543
0.19633
3.01527
0.0226066
0.0234141
0.0573908
3.03477
0.0250885
0.467004
0.0235448
0.0230052
0.0267489
0.0246695
0.197059
0.0304798
0.0521435
0.034442
0.0231654
0.0236213
1.61323
0.0235204
0.0223401
4.33621
3.74595
4.39303
0.0234516
4.70581
0.0477304
2.54714
3.2184
0.0244808
0.129796
0.216955
0.0244854
1.20714
0.0245328
6.51624
0.136083
0.0245361
0.187685
0.0362326
0.0234485
0.0256936
0.116979
2.21373
0.0592285
0.0804319
0.35904
0.0259241
2.66022
0.02558
2.65415
0.0776846
3.44736
3.41858
0.0953548
0.0254969
0.023931
3.7015
0.0932547
7.11113
0.0402994
0.423776
0.0393559
0.0258698
0.0232989
0.140624
0.0248611
1.10811
0.0244756
2.97172
0.0249345
0.025799
0.0632804
0.0230476
0.0448857
0.0363627
0.109921
0.386237
0.0239822
0.340661
0.0238633
0.0239779
0.0258827
0.0340495
1.63176
0.064577
0.0980244
0.023038
0.0259032
0.0228486
0.365614
0.135694
0.088369
4.60641
3.55715
0.0778364
0.0239723
0.0265029
0.299837
0.0267501
3.33749
3.38804
0.0283248
0.0357692
0.139514
0.0240628
0.0256096
0.0924566
0.0295996
0.206964
0.0286488
36.1357
0.0249654
0.0253041
0.0338022
0.292238
0.190258
3.00909
0.19553
0.0242675
0.0282647
3.55413
13.4926
3.15086
0.799174
0.313233
10.4143
0.137989
0.0246179
0.0246638
3.47528
0.0234742
0.0854776
0.694687
3.31769
0.0230556
0.0230425
0.0243768
6.79094
0.266945
0.0232233
0.034463
0.0361149
2.79193
0.111849
0.0245715
0.0230043
0.0228604
0.0633601
0.0245443
0.0296706
3.96844
0.836135
0.02465
0.0806078
0.0221996
2.62167
0.0224967
0.0235551
2.75735
5.94962
0.0240485
0.0838264
0.0260428
0.23537
0.709951
0.0233584
0.0346999
0.642582
0.0256495
8.54909
0.0417192
0.0239163
0.0259852
0.0429174
0.0388355
8.98055
0.511157
3.03668
0.0231332
0.048954
0.0225426
0.0232617
0.030899
0.0238689
0.0234053
1.99805
39.3802
0.0238704
0.64065
4.09185
5.78077
5.64364
0.0900452
1.7897
0.0253166
1.00503
0.023115
0.0297489
0.0230997
0.0474835
2.27924
2.60918
0.0369174
2.49997
0.0247664
0.0336101
0.0254707
0.0244446
0.0651391
0.023911
40.7065
0.0430195
0.0232938
0.0237639
0.0231373
0.0245403
0.522298
0.0232149
0.024506
0.0289338
1.14211
1.49295
0.970954
3.7155
7.62976
9.60256
0.0227974
4.3959
3.72362
2.86255
0.0239146
39.4481
0.0232219
0.0232005
0.0232098
1.40877
0.484833
0.0254148
0.0251391
0.0228513
0.212658
0.0819153
0.024543
0.07144
0.0241513
1.83847
3.77475
0.094909
0.0245018
0.287968
0.0259449
0.0247376
0.0242606
0.0237685
0.974864
0.0232168
0.0242914
0.0266691
0.0235465
0.0244855
1.8278
0.0319373
0.024519
1.94678
0.0332405
0.0237848
0.184983
0.0245445
0.0247748
2.62274
0.0341026
0.0610265
2.62855
0.0891722
0.0365757
0.102502
1.92765
7.26257
0.0246872
0.023894
0.0292428
2.60807
0.0236001
3.19116
1.83179
0.0227741
0.0269269
1.88833
3.55624
1.61929
3.72395
0.0251751
2.51757
0.0229783
0.0253427
0.0244566
0.0243024
0.0269262
2.50392
0.0967234
0.298597
0.260742
2.93935
0.0866317
0.088907
0.187418
3.05832
0.0242957
6.64211
0.0241322
9.34641
1.21572
3.21411
0.0228024
36.8247
0.0906256
0.0368387
0.0258429
0.0244878
3.42567
0.0243965
2.73139
1.86842
0.0251393
0.0225348
1.5551
0.0233961
2.01937
0.0238262
0.0245606
0.0254061
0.0257713
0.0508675
37.7911
0.0302178
0.0314274
0.0247391
2.57009
12.3644
0.0741075
0.0229924
0.0249243
0.091005
0.0278966
0.0244395
3.03251
15.7446
0.0226562
0.189616
0.0749998
0.0269555
0.0231078
0.0236235
1.54271
0.297584
0.0245145
0.0490191
0.274309
0.0238786
3.48801
0.0230849
0.0284821
0.0229517
0.029575
0.0228099
0.070484
2.30172
0.024054
2.58546
0.0238329
0.191254
0.0328143
0.0249212
0.0470137
0.0245519
0.0230103
0.0230657
0.0409551
5.37162
0.0236272
6.48831
39.2148
8.60854
0.0258832
0.0249
0.0242971
0.0234098
0.0251349
0.10246
0.647228
2.80115
0.0230782
2.26407
0.0234668
0.213419
0.022989
2.62681
0.0230922
3.69675
0.0229337
9.07636
0.032379
3.30499
0.0238437
0.0230572
0.0253426
0.0706171
0.0295858
3.23378
0.0222673
0.024585
0.025413
0.0253496
3.78656
0.0249835
0.0283456
3.08483
3.73646
0.02293
12.1162
0.253673
0.982322
13.4393
0.0249177
0.598061
3.49319
2.64486
0.0230289
1.42331
0.0223378
0.0228361
3.30269
1.20083
3.5384
3.59277
0.127871
0.0237554
0.0587465
1.45522
2.4846
9.96985
0.0240528
0.0241449
0.149793
0.0247078
0.0228569
0.024277
0.025679
0.0236292
8.03543
0.0226023
0.0713351
0.024043
0.196525
0.0258835
2.20394
0.659321
3.00477
0.440777
0.0228317
0.0257828
0.0235895
0.0368495
0.0285292
0.0241638
3.17339
0.602235
0.0236424
0.0348871
10.8756
0.0245486
0.147708
0.152989
4.08688
0.0235855
0.0680329
0.0230878
0.0245083
2.9813
0.0229824
0.0226231
0.024592
0.190095
0.0246336
0.0254061
3.1758
0.0244753
0.047426
0.0255747
0.024652
1.83237
0.0891136
1.2476
0.0247093
0.0268844
0.024654
0.0253425
0.0254973
1.09686
0.0290694
5.78052
8.09187
0.0223358
3.1575
2.97642
0.0248672
0.0232047
0.0463689
0.0246321
1.56403
0.0291582
0.0227065
0.0919367
2.83173
3.60623
0.0274043
0.0281452
0.0232209
0.0257943
2.57374
0.0228086
4.47104
0.0231183
3.1876
0.0741182
0.025472
0.0238082
0.066785
0.0243632
0.201998
0.0234989
3.22168
0.0245888
0.022877
3.75353
0.0279413
0.0323789
0.0231459
0.0245321
0.0328693
0.0242812
0.0327801
1.59493
0.0245628
2.19553
0.104948
0.0233461
0.0243802
4.11196
5.56642
0.0280417
2.98017
11.8453
0.0274126
0.0513801
0.0253884
0.0222768
0.0229651
2.94436
0.026471
0.0256786
2.45905
0.0368833
1.25665
9.92706
1.23789
0.0318483
0.0245273
0.106901
0.0273295
0.0872135
0.0975647
0.025612
12.0573
0.0244353
0.0811027
0.14422
0.0242821
0.165099
0.0255729
0.0240097
0.0267063
3.4662
0.0283608
0.0238159
0.0281576
3.18838
1.89593
0.134185
0.0233988
0.0316568
0.99035
0.030644
0.0261885
0.0281536
0.0285364
2.29281
0.74902
0.0249164
3.53737
0.551141
0.0741604
0.0375973
3.10474
0.0867346
2.80771
4.35132
0.0254832
0.0288456
12.3769
1.47327
0.0255605
3.24922
3.81195
0.0270151
2.42839
0.0282111
0.105043
0.0243892
0.0236661
0.0239115
2.59391
4.61948
1.72212
2.66503
0.0390523
5.37282
1.15645
0.0231017
0.477344
8.43033
0.553093
2.5518
0.0233433
2.32782
0.0239672
0.0233628
0.0244509
1.75629
0.0251551
0.0233059
0.0255338
0.0240509
0.0246244
0.0244331
0.0324321
5.35322
0.138722
0.0319177
0.128136
2.37135
0.0255998
0.0468153
0.0242859
0.0228189
1.69282
0.023543
0.0431391
0.0248217
0.0842939
0.032406
2.51638
0.0250715
2.79236
0.0245403
1.57252
0.0244778
2.99559
0.0259689
0.260025
0.15892
0.0738664
1.34778
0.0236186
0.0255124
0.154061
0.023136
1.8377
0.0243629
8.03215
0.131061
2.8325
1.98312
0.193059
0.0241564
0.0239682
0.0684265
0.181935
2.8376
15.143
0.0244323
0.0232368
1.91207
0.0232193
0.024418
0.0231606
0.0880731
0.0986995
2.21113
2.8314
0.0255415
8.55175
9.53557
0.0348294
2.4582
0.0317527
0.0279539
0.0241587
0.024649
1.68107
0.0283063
0.0234761
0.0275743
5.28109
0.0947957
0.0234182
0.0230387
1.25034
0.0224228
0.0228373
0.023441
7.6746
0.0230476
0.0365
0.023338
0.0222043
0.104384
0.0246955
5.95038
1.91596
2.71538
1.85572
2.4232
3.2695
0.0234253
0.0231104
0.0240305
0.0230503
0.0245501
0.0585672
1.9868
0.0243876
1.52968
0.144806
0.0261379
0.0388951
0.66452
0.023386
0.0228509
0.0243268
0.0271504
2.59892
1.58269
3.70703
0.138011
0.0243438
0.026539
0.0257931
0.0234767
1.48684
0.0229183
0.672397
0.25116
0.0248038
3.45735
0.0234204
0.0264526
0.0556116
0.0246961
0.0244965
12.1063
1.77886
0.0286983
0.176699
2.80979
0.0821241
0.0424246
0.105851
0.0221699
0.551588
0.0243764
0.0227664
0.0228049
0.08117
0.0243176
0.0229788
0.0228871
0.0224688
0.0320124
0.0257536
0.0243864
0.02449
0.0246869
0.0224402
0.0240428
0.0244806
0.0241292
0.0256663
3.20035
0.162359
0.0262673
0.0343857
0.025932
0.023211
2.2663
0.0249357
0.0228412
3.45436
0.0233606
4.95986
4.21734
0.151675
1.21372
0.0268725
1.56537
0.0244653
0.0233489
0.0237776
0.544022
0.024772
0.930337
2.57092
0.155029
8.13183
0.0264655
0.0243793
2.99587
0.100178
0.0233507
1.93444
0.0672476
2.269
0.0236217
0.0283212
2.7452
0.0227396
0.0778508
0.0559845
0.0486538
3.01683
0.0242664
0.0821864
0.0248437
0.0814905
0.0249298
6.01762
0.023507
0.0256843
0.023036
2.35632
0.226762
0.0243709
0.0230276
0.0275182
0.0227506
2.96042
0.0286332
0.0234725
0.0415189
0.0236948
0.0240852
0.0222926
0.0329404
0.0257064
1.30433
0.152429
0.048783
0.0243637
0.0292352
0.417637
2.42757
0.412697
2.12086
1.93023
0.0222489
0.0275063
0.0237418
3.00497
0.0369823
1.06551
0.0223857
0.0236276
2.83275
0.0223694
1.1233
0.489301
2.47111
0.385351
0.0235015
0.0315663
0.169753
3.62505
36.846
0.0236789
0.0254089
0.0259533
0.0231841
0.0261886
0.0234252
0.125851
0.0493006
12.5865
1.19482
0.151346
2.88775
0.0437911
1.57299
0.0236361
0.279674
4.67658
0.157825
1.42922
0.030786
0.0301316
4.05785
0.0220851
0.0233929
0.0251941
0.0282252
0.022334
0.285743
12.0704
2.31212
0.0368662
0.0226637
0.0252398
3.24206
0.0233751
0.0227301
0.0248216
0.0223819
0.955771
0.561729
9.10664
0.0227355
0.0326815
0.106857
0.0257113
0.0236433
0.0247532
0.0286268
2.03194
0.0264727
0.0233828
0.0226491
1.5641
0.0318628
0.026116
0.0308103
30.9002
0.418709
1.44524
3.16444
0.0753372
0.171623
0.176049
0.0578325
11.4494
0.0233962
0.0243531
0.0258164
0.0240817
0.0250783
4.93004
0.0228152
0.0286125
0.151788
0.0246744
2.29993
8.26985
0.028149
0.583745
0.0970506
0.104378
10.8899
0.241437
14.103
0.108438
0.0502017
0.0360756
0.0255735
2.85149
0.0653424
1.57225
0.0236219
0.0232784
1.7271
0.0290392
0.0257261
2.86394
1.34743
1.12764
0.0310956
0.177912
3.20934
12.4379
0.168388
0.0248007
9.73192
0.0256759
1.84578
0.0230295
2.59846
0.041272
2.07847
0.0257218
7.11355
0.214239
0.054312
0.0249761
0.128471
0.0257336
0.0253918
0.050248
0.0222738
0.0256407
0.424492
0.0249578
0.0236377
0.142617
0.0237279
0.024313
0.16758
0.0252439
0.0338478
0.0356378
0.119543
0.0339003
0.0390997
0.973062
0.0766648
4.4698
1.55599
0.0226746
0.0237987
0.0307198
1.99922
41.5969
0.0229815
3.11039
0.0338773
0.0304517
0.0243894
0.0258241
2.15533
0.0278199
2.6687
11.5909
1.84652
0.0246718
0.0257401
0.0236875
0.0234239
3.11138
0.0284218
0.0241536
0.0301094
0.0224888
12.1852
0.190412
0.0230563
0.0261514
0.0283801
6.84057
3.2036
1.4756
1.71837
0.0941055
0.0229134
0.0568482
0.0228819
0.0235951
1.76728
0.0731521
5.68855
0.0234183
0.0230607
0.0234046
0.0957212
0.0245187
2.87318
0.0253464
0.0588461
0.060151
0.0226797
0.26144
0.0248844
0.0818017
0.0248715
0.0234798
0.022712
0.0437333
1.9414
3.78058
0.0245664
0.0231048
2.7729
0.272566
0.147341
0.0234779
9.39988
0.0253432
3.45703
0.023005
0.492265
5.00114
1.82374
4.19663
0.0711804
0.0493766
0.0270246
0.0245834
0.0248443
0.103044
11.7818
0.137901
1.13335
0.0226897
6.18357
0.0242787
3.46347
0.0256936
0.0326077
2.51284
0.0254304
0.0252846
0.498296
1.42952
0.0230602
0.0246304
0.0245439
0.0241032
2.49743
3.256
0.024165
0.0728043
0.0642816
0.0235886
9.58605
0.0241011
0.0276223
2.74562
0.0581776
17.1076
0.0426541
0.0254231
0.0254003
2.07165
0.0697534
0.0247544
0.480244
0.0256912
0.0231407
0.0253042
1.80495
0.0235768
0.0509417
0.0227101
0.0245377
0.0223717
0.0250284
0.0317016
0.0248712
2.87124
0.241332
0.0317372
0.0246327
0.0225228
0.0255445
3.26504
0.0247625
2.77008
0.0227954
0.0255452
5.65215
5.21147
0.0257349
4.44788
0.0241481
0.0822184
1.4575
0.0413651
1.82731
0.087182
1.79086
0.0226159
0.0235495
40.1718
0.179879
0.0478937
3.46926
12.1428
2.28379
0.0244734
0.0383829
0.239302
0.395548
1.64189
0.0254253
0.0231728
0.221668
1.88622
0.0248739
0.0242608
3.20141
0.0241136
3.73604
0.275276
0.026214
0.0244933
0.0747196
0.290886
1.10308
0.0284265
0.204556
3.58573
2.84172
0.0231762
0.0224941
0.0254313
0.431968
30.2197
2.80924
2.10422
39.2192
0.0254438
0.0244121
0.022675
0.0254771
0.437116
3.06491
0.38286
0.0243142
0.0316792
0.0399005
0.0252067
0.158438
0.0275239
2.24594
0.0445981
1.38217
0.0229288
3.71594
2.86558
10.031
1.59373
0.0233199
0.0244344
2.63661
0.0264273
1.95882
0.0241309
2.89912
0.0248367
1.91583
0.0819646
0.0229843
0.0277533
0.0253076
0.0222469
0.0284888
0.0257805
0.0230291
0.0247627
0.0234709
0.0248318
0.0246752
0.023058
3.13941
0.102774
0.298321
1.49027
2.65344
0.0908394
0.0357597
3.89759
0.0243004
1.83105
0.0233492
0.0290831
2.68329
2.03287
0.0249378
0.0534274
0.0379186
2.45291
0.46503
0.421866
0.0240387
0.0254523
0.0254938
3.75918
0.0240413
0.629638
0.0227637
2.74098
0.0240345
0.0564274
0.0313557
0.0245849
0.0341513
0.153641
2.07956
1.94273
0.0234423
0.0226469
2.72526
0.354761
4.79856
0.0254598
0.0247114
0.028179
0.199915
0.0232447
0.0249531
0.0245524
0.0266769
2.39434
0.0424601
0.0247142
0.0470437
0.368301
0.0263606
0.0263019
0.234807
4.75121
0.024395
0.0382786
0.025726
0.0241273
0.201162
0.12848
0.265825
0.0228515
0.0323652
0.0245034
0.0519551
0.0263574
0.0254287
0.0318755
0.0243085
0.024631
0.636467
0.0320013
3.46494
0.0375263
0.0255079
0.0287069
0.201857
0.185695
1.9645
0.0237051
0.0371976
0.0736924
0.0551641
0.0271298
8.66521
13.4833
6.08538
0.0230189
14.2561
0.0253019
2.09859
2.1608
0.0238986
3.75517
0.906329
38.2673
1.39654
1.40098
0.0236858
0.0263422
0.0263067
1.93477
2.37843
0.0275837
0.0240004
0.0227274
0.0241187
0.0236062
9.15166
2.39155
0.0236013
0.0317719
7.09533
0.0246723
0.106244
0.0247156
0.51046
0.0620419
0.0250192
0.1459
0.0246098
0.0236126
3.58269
2.40576
2.60633
0.0238915
0.155531
0.0256539
0.0254868
0.0246358
0.0255897
0.0221829
0.0244092
0.0244143
2.00674
10.6887
0.287284
2.05906
1.67705
0.0240239
1.72419
0.0246375
0.978923
2.34015
1.98027
0.0653391
0.0233542
0.0246169
0.0244039
0.169068
0.0281512
0.022806
0.0804176
0.02274
0.023921
0.0496735
2.70758
0.0330042
0.0265808
2.16146
2.75579
0.0246113
0.0314337
0.0428495
0.0246839
1.9519
0.0728043
0.15704
0.0632506
0.024371
2.18529
0.0293232
0.214369
0.0230785
0.0246466
0.0226999
0.0232533
0.0233603
4.91385
3.44786
0.0248969
1.60436
1.98791
0.0234155
0.0253745
0.0656035
0.64494
0.0272574
0.0247557
0.0443609
0.0264948
0.0263109
0.0233644
0.10583
3.39211
3.76671
3.73959
0.0331279
0.0269175
0.181154
30.8682
0.0849212
0.0227017
4.29267
0.025425
0.0249913
3.44528
0.0235945
0.0248879
0.0232238
0.0857503
2.62771
0.340157
3.48097
0.0238577
0.411511
0.0241683
4.68041
0.0230713
1.81067
0.321863
0.0871039
28.5139
0.0264067
0.0236305
0.0879519
0.0576306
0.0302467
0.0246332
1.98452
0.0318677
0.062105
0.0252775
0.024453
0.0333371
0.0239395
0.237081
0.729046
0.025132
0.0236204
0.0277147
0.0261281
0.0238537
2.59897
0.0250289
0.0254082
2.67867
0.0255899
0.144548
0.0236771
0.024146
0.023614
0.975375
1.02616
0.061881
0.0262295
0.602492
3.57337
0.386669
0.0227146
2.82919
0.0282763
0.0239309
13.4957
0.0228046
0.0246993
0.0247161
0.022344
0.970428
0.0241081
0.0241891
0.025765
0.023219
0.246429
2.87252
0.0378301
0.0249038
0.0840314
0.0230384
3.25194
0.0236672
0.158247
2.2924
3.01497
0.666532
0.0275903
2.9111
4.44799
0.0236184
0.0243296
1.53869
0.19175
27.1205
0.0587068
0.126458
0.0277156
0.0289699
3.52269
3.75015
0.0292783
0.981769
11.317
0.0247333
0.023221
0.382445
0.160315
0.02786
0.0257634
0.0225146
0.116263
1.55149
2.68884
1.58483
1.76133
1.99779
0.168002
0.0230481
0.746673
3.51053
0.0230065
0.0237811
0.0675714
0.0246122
0.412083
0.0225033
0.0454956
0.0331409
0.0256097
0.0237208
1.23443
0.0370033
5.04706
0.0265917
9.52694
0.0281899
0.0228978
0.545144
0.0223315
0.0236375
1.13855
0.0267808
0.426779
0.025131
0.025201
0.0717111
3.58013
0.022901
0.782976
3.59571
0.366996
0.0243985
0.0257655
0.670176
0.0320245
2.97239
0.0240206
0.0230557
5.26465
0.0243089
0.0241405
0.0228324
1.65643
0.0281346
0.97785
0.0279827
0.023839
0.023315
0.0256815
1.50791
0.0423824
2.07541
3.44058
0.40715
0.0230486
0.0250506
0.0254129
0.0706227
0.0233503
1.99735
0.0244728
0.0815102
0.024533
0.0387769
0.0253974
0.281324
0.448713
0.0238757
0.194224
0.649313
0.0245467
0.0238666
0.400406
0.142953
0.0255055
2.62466
0.0226391
0.0228286
2.43947
0.0335003
0.023975
2.83317
0.0382851
2.20769
0.103599
0.258544
0.0507261
0.216641
0.0319722
0.0245761
0.294378
0.0233906
0.0247187
4.29589
0.0264281
0.0234591
0.148778
1.81485
0.292663
0.0233787
0.0279169
0.0245655
0.0249391
1.12141
0.0248248
1.48384
0.295971
1.30174
7.5542
0.128133
0.0483195
0.0407758
1.46676
0.0233852
0.646477
31.144
0.0258538
0.0225294
0.299801
0.15347
10.2738
0.0248366
0.0244772
0.207207
0.0265002
2.65594
0.0267412
0.291082
3.49035
0.0474736
0.0246292
0.0226418
0.975491
0.147993
0.0257451
0.0260068
0.0253398
0.0226248
1.49146
0.0271927
0.0348243
0.0232672
0.0875839
0.0245621
2.4427
0.909502
0.0805908
0.155629
0.0453099
0.0248513
0.0242986
0.0236178
5.09496
0.0234279
0.0245355
2.59852
0.0226619
5.20398
0.0221899
0.0251465
2.1692
0.0239712
2.03247
0.0247477
0.0424513
0.0276775
0.0236197
0.0226348
0.0230852
0.0226639
3.37345
1.63796
1.37172
1.73165
0.022805
1.61628
0.0226459
0.02633
0.024175
0.0885106
1.15778
0.0249047
0.0245398
0.977678
0.0234078
0.02444
1.89918
34.2646
0.0275931
0.0244078
14.6487
3.15
0.0241241
2.50507
0.0253568
0.0232268
0.0292317
2.65307
0.0253728
0.026942
33.2614
0.263327
0.0303181
0.0238718
2.72876
0.0587157
0.987165
1.4502
0.0226889
0.07101
0.0231936
0.151388
2.20075
0.0231807
8.08519
2.86804
0.138787
0.0246102
0.030156
3.08211
12.2789
0.0244804
0.939161
0.0223666
0.0233584
2.63295
0.0240644
0.0245527
0.0250511
0.0894648
3.32372
0.0255383
0.0341781
0.0243213
0.0240791
1.95775
0.0340324
0.0290499
2.69217
0.0889383
0.0316478
0.0360692
1.25687
0.937592
0.0245339
0.270677
0.0229445
0.121069
1.56874
0.0222292
0.0390922
0.0302215
0.242725
0.0243837
0.118952
6.36058
0.0229441
5.43373
0.0244518
0.0240657
0.0253884
0.0244709
4.48736
0.0243993
0.0245742
1.84368
11.9476
0.0235492
0.0376234
0.0272255
0.024911
0.0335581
4.64478
0.0249213
0.150312
0.0227067
0.0301417
0.0373709
0.0340739
1.27433
1.5221
0.0236541
0.278092
2.90776
0.026082
2.40805
0.873189
0.461696
0.0234037
0.0222442
0.0230835
0.0241913
0.0312314
0.0504815
2.13926
0.0244274
0.0227705
0.309956
1.46927
0.0269135
0.275949
0.186333
0.0301049
0.312747
0.0239685
0.377956
0.0344213
0.0242895
5.33781
0.401418
2.07909
37.9699
0.027247
0.0249385
3.27702
0.0240276
4.46319
0.0227459
0.0454269
0.0898625
10.5219
0.0254564
0.354849
0.232563
0.0829788
0.348011
0.0235271
1.80618
0.0971172
3.97899
0.0240979
0.023464
0.0236579
0.0221919
0.0230741
0.0253338
0.242053
0.0242353
0.0266423
15.9237
0.0592242
0.0575719
0.0601983
0.0254778
3.42948
0.0255396
0.0248828
0.0315106
3.14282
0.0321684
0.0246761
0.440228
4.50274
3.00137
0.0256428
0.325839
0.0514606
0.0254828
3.11818
0.126622
3.33528
0.0230152
0.0254536
0.389022
0.137462
0.0727268
0.0503965
2.61671
2.60512
0.023788
0.031777
0.0255216
0.160204
0.0333621
0.312196
0.024586
0.143699
0.025508
9.08168
0.0240081
0.045653
0.0318005
0.0829018
2.68134
0.0241025
4.93941
2.3207
1.86722
0.0333057
0.165145
0.0237815
0.333022
0.311477
0.0233329
0.0231807
1.30826
3.30364
5.70599
0.120104
4.46311
0.0243753
0.138158
0.382363
0.0244138
0.024286
0.0408251
0.028277
0.264954
0.023028
0.0257863
0.0242731
2.81857
2.83351
0.0237196
0.0245548
0.0243305
0.0270857
0.0530784
0.473425
0.0677541
0.025011
0.0253817
0.0245413
2.11837
0.0259425
0.0238465
0.215362
1.48388
0.0309671
0.0244685
0.0234476
0.0252164
38.7539
0.0240988
0.0579364
0.024257
0.0228202
0.0317976
0.218775
0.674481
0.320317
0.420586
0.0917197
0.0226042
0.0237041
0.121144
0.144132
0.0242392
0.1165
0.103723
0.0236766
0.022697
23.2489
0.0295836
0.0221652
0.0263868
3.33031
0.0231019
0.0811564
0.0234384
0.0227448
0.0358904
0.0250067
0.0230606
3.16252
0.0868621
0.0242894
0.0245343
0.172926
0.0275487
0.239413
0.242437
0.0253214
0.0220808
1.71842
29.4885
0.0253781
2.23218
0.301634
0.0348052
0.0339648
1.86026
1.01413
2.92391
0.0245334
0.345945
0.0242177
0.0281743
0.026265
0.189778
2.21664
0.475534
0.0484387
0.350458
1.80668
0.140616
0.026375
0.023631
2.00833
0.48868
0.0230094
0.0254485
2.18566
0.022766
0.0282302
0.376505
0.0235034
0.0267769
0.0243894
0.0622091
0.0868877
0.143308
0.0408027
0.469005
0.0280468
0.024654
0.0242408
0.0230641
0.0253955
24.3955
0.0259469
0.0858806
0.0244183
0.0278737
0.0277139
0.163465
0.146904
0.0230513
0.0271011
0.0234048
0.0328562
0.024619
0.0243786
0.0249924
0.0242462
2.00614
0.0235277
0.0240311
0.0234126
1.57582
0.0225858
0.0247398
3.84062
3.47452
0.0221674
0.0233968
0.0236145
0.0240658
0.36323
1.24356
0.0588509
0.0277067
0.0282176
0.023031
0.1161
0.0253326
0.0236931
0.0240913
0.0233536
0.137205
0.0237375
0.0489513
0.0255369
1.42632
0.0247849
29.8815
0.0234744
0.0248888
0.29426
0.0229024
0.0245898
0.0450095
0.153662
0.0248088
0.0226291
3.80013
0.0863794
0.170763
0.025777
1.2141
0.0244697
0.0250232
0.0313241
1.72072
0.0924353
0.0272464
0.402567
6.25059
0.0238988
0.0275275
1.97859
0.0585575
0.0226827
0.12422
0.0249995
0.17688
0.0603963
0.0266256
0.36261
0.473366
0.0265413
28.3292
0.0654294
0.0248529
0.0227822
0.0230422
0.0247685
0.0256497
0.161247
0.0419368
0.0242514
0.0408983
1.28906
0.0645616
0.146988
0.0263297
0.023319
0.154191
0.0348518
2.33575
0.0223814
0.0327093
3.31658
0.0227903
0.220009
28.1944
0.307712
5.62731
0.0231027
0.0253951
0.0227197
0.0245707
0.0359702
0.0256135
0.0237539
0.086467
0.0227491
0.027628
0.0307252
2.81229
0.0253779
0.0255725
0.0261674
0.0675508
0.0228053
6.47145
0.0502461
0.0310554
0.087123
0.822703
0.444823
0.0275981
0.0313029
8.22096
0.0246534
0.0574757
0.0246484
0.0239558
2.68314
0.0256905
2.27223
0.031841
0.0292876
0.0336763
0.0257621
0.0232573
0.0381349
0.0225704
0.0607261
0.0227529
0.22119
1.97449
0.0229544
0.0654315
0.0637746
0.0376568
0.0427587
3.61075
5.74275
0.0222307
0.0253715
0.0648545
6.72798
0.0231051
2.01307
0.150105
0.0340218
0.0230167
0.0258972
2.06507
3.49976
0.0243515
37.9253
3.12231
0.150165
2.84133
0.113945
0.533977
3.61036
2.35514
0.0313129
0.304567
0.0230286
0.0248226
0.0439734
1.97454
0.0240735
0.0331963
0.024555
0.0241904
0.0238595
0.0384087
0.0244592
0.157517
0.258621
0.0241767
1.89832
0.0246387
0.0244606
1.24943
0.0379319
0.0524409
1.38912
0.0317388
0.093042
0.0228265
0.0432286
0.0286709
1.25517
0.155509
0.0236196
0.0244869
0.0463113
0.0234262
0.0248915
0.288748
0.0234183
1.08013
0.18426
6.59784
0.0264007
0.0993481
0.0230377
2.8227
0.0894859
0.0357721
0.0498276
0.371321
1.62584
0.033995
1.87115
0.401026
0.0293869
0.0578863
0.0226166
2.30539
0.508239
0.0376774
0.0875075
0.0244662
0.275316
0.0583373
0.0332983
0.0238361
2.17942
0.0250369
0.0389557
0.165845
0.0242086
0.0229663
0.0339223
2.28717
0.173723
0.0263905
0.0269544
0.0248732
0.024512
0.0448216
0.0264707
0.0250998
0.0231129
0.0222226
0.024526
0.0229664
0.0255516
0.022791
0.0267902
0.245177
0.234396
3.17658
0.0240334
2.49682
0.0244694
0.0563169
0.0239914
0.0231059
0.0241057
0.0254059
0.0233655
0.0383539
13.3147
13.1356
0.0952902
0.0225581
0.0247381
0.513261
0.0351038
4.74214
0.0272239
0.0241491
0.0243198
1.26289
0.0233747
0.225766
0.0249792
0.133166
0.0248076
0.0997666
0.234988
0.0252747
0.0251596
0.135595
0.024251
0.0253804
0.296108
2.19699
0.026951
0.025407
0.0237543
0.0245899
1.67238
0.0706962
0.250827
0.0233411
2.09148
0.0248825
0.0239444
0.0240812
0.131615
0.0287537
0.134473
2.59971
2.3466
0.0826108
0.299898
0.0239492
0.0272921
0.351258
0.0257032
0.0252085
0.0291562
0.0226169
4.15154
0.0244594
0.0743829
0.0284007
0.0247422
1.5114
0.025651
0.0676511
0.024742
0.0493737
0.024566
0.0739963
0.116129
6.7877
0.276475
0.0238587
0.0244903
0.0257617
0.0223152
0.0244161
0.024556
0.410696
0.0242174
1.93184
2.36931
0.0325131
0.0247069
0.129368
0.0230429
0.0274608
0.28807
0.0259555
0.0257527
3.22352
0.029289
1.38202
0.0227328
0.0247185
1.77769
0.130672
1.14318
2.56244
0.0306144
0.0236522
0.356923
0.0248542
3.36632
0.0644182
2.21695
0.139341
1.92476
0.0242342
3.42996
5.40104
0.265122
0.0457837
0.0545958
5.54657
0.0222823
0.0241813
2.86582
0.113644
0.0340601
0.0231822
0.995857
0.0248312
0.02485
0.0489199
12.8696
0.475434
0.418792
0.0239948
0.151877
0.024404
0.0287913
1.81794
0.0247951
2.18535
0.0842376
0.0243442
1.32459
2.12337
0.0637027
0.0985175
0.0253944
0.0260449
0.0238692
0.0223284
0.0574138
0.0244135
0.0250722
0.143461
2.81642
0.0244763
0.032733
0.024223
0.0233939
0.0308203
2.44483
0.0294489
0.0254932
0.0265881
0.0243872
0.270689
11.2594
0.024119
0.0308414
0.0244791
0.0868955
0.352221
0.990836
0.0305977
0.0559781
0.0269256
0.0241098
1.64428
0.0238913
0.155131
0.0265224
1.61026
1.98544
0.0238837
0.0253538
0.0286761
0.788159
0.0420676
3.8857
0.0241106
0.0248616
0.0262864
0.0235759
0.138494
0.0531382
0.318434
1.77678
0.0934876
0.0435746
2.75197
0.132204
0.0252891
0.0237948
0.0254798
0.0257197
0.0237208
9.42548
1.25102
0.473347
0.329773
0.0254925
2.89758
0.0261302
0.0230209
0.0256461
0.02449
0.0722878
0.0243802
11.0877
0.0462382
3.79603
10.5651
0.0233385
0.0425361
0.0547648
3.4178
0.0243741
3.2657
0.0248954
33.6676
0.0240409
0.0244878
0.100064
3.26516
0.0233312
0.0240168
0.0242356
0.102457
2.37896
0.0263742
5.62507
0.0248289
0.0243737
2.35353
3.49385
6.17784
0.0768554
2.11559
0.0242165
0.0281879
0.132738
1.01248
0.156289
0.0226928
0.0234353
0.0249066
0.0220822
2.40867
2.96558
0.0275424
3.4781
0.0313904
0.303987
2.84139
0.0248216
1.93496
0.0247159
13.488
0.0241165
0.130095
0.0250769
0.127433
0.993442
0.0222689
0.434997
0.0236202
0.0244555
0.0453478
0.0232613
3.19092
0.04178
0.0252368
0.0251336
0.0919874
0.10433
8.58747
0.0456989
0.0247573
0.0253223
0.0387442
0.0245541
0.0231526
0.0564428
3.42178
0.0252127
0.0235731
0.0281439
1.8399
0.120428
0.0275166
0.0381587
0.023906
0.0226452
0.0459085
14.6933
0.0239217
3.6505
0.0252444
0.0230367
0.0304275
1.84105
0.0387034
0.161886
0.028611
1.893
1.41148
1.36273
0.0227957
0.0245807
0.0303363
0.156529
0.0235307
0.0224764
4.92296
0.124241
0.326253
0.047751
2.30443
7.41127
1.41355
0.0263229
9.22835
0.023049
0.0298837
0.0263717
0.0232026
8.31804
0.275194
0.239005
0.0475072
0.0322187
0.0235249
0.0254646
0.0250685
0.092384
0.0263564
0.255882
0.0273914
0.0261349
2.92566
0.0224625
0.0461638
1.87654
0.0241591
0.0247033
12.1289
4.34397
0.0235853
29.2412
2.60696
0.030284
0.0348973
1.57605
0.0247928
0.0240868
1.02628
0.035029
0.0790066
0.027187
3.64709
0.024189
0.023669
0.0248215
2.11826
0.0296655
0.0233342
2.40517
0.206109
0.0249465
0.0239523
1.60177
0.0234005
0.0792721
1.98556
0.0236383
3.67172
1.36621
0.0239313
10.6597
3.57088
0.0252729
0.0245938
0.279473
0.180762
0.0239192
0.164876
0.0242463
3.0218
0.039552
0.0232259
0.227995
0.027281
2.9153
0.0227148
0.0248926
3.31286
27.0416
3.46952
0.0676511
0.0739878
3.48509
0.028239
0.0262299
0.022688
0.0246459
4.55446
1.48561
0.0424045
0.0276047
0.0550107
2.39819
2.39246
0.0254828
0.155328
0.0290755
0.642305
0.0284396
0.0226802
0.0253202
0.163046
0.0239074
0.024646
0.0226741
0.0250586
0.0249465
0.0240683
0.0271596
0.0465
0.0281588
1.68357
0.0421611
0.120111
0.0235509
2.51348
0.0231592
0.0340159
0.214618
2.70832
0.0233326
2.8116
0.0305032
0.256408
0.283228
0.0252571
0.0241541
12.7132
0.238816
0.0330307
0.11404
0.0267797
0.0233424
1.32563
0.0241262
0.0236
0.0244548
9.56504
2.41279
0.0313061
0.0246122
0.0239011
0.0252248
0.0251309
0.233038
0.105664
0.0577213
0.0249064
0.0245814
0.028066
0.0245593
0.159703
0.0223498
1.115
0.239662
0.0244742
0.022086
0.0240826
0.0450775
0.0563788
3.03325
0.0259132
1.88978
0.0241061
12.5502
0.0381076
0.0250286
0.0267127
3.14765
3.41059
0.0896311
6.05821
0.0577044
0.158551
9.12444
2.11231
0.0241994
2.97178
0.0260659
0.0239368
0.0243066
0.0227416
0.0244051
0.133813
0.0377763
1.65482
0.0245572
0.0253462
0.0244164
2.87166
0.0247219
0.0325104
3.51641
1.96642
4.96512
0.0347702
0.0247916
0.0244513
5.53187
1.9347
0.31279
0.0288866
0.0262742
2.64074
0.0550227
3.49787
0.040373
0.0250008
3.38736
0.0298898
0.0243061
0.0232908
0.0282875
1.60659
0.0262017
0.139927
0.0255623
0.0252098
1.91214
1.23479
5.8749
2.20617
0.0309685
0.0255794
0.0849653
0.0514356
0.0243421
2.00071
0.0564452
2.53783
0.022728
0.36271
0.0252902
0.0246568
0.0255627
0.0230991
0.0251499
3.76798
0.396766
3.50295
0.0506774
0.257859
3.27807
0.0244644
3.22372
0.0223047
0.0242497
2.51444
0.0888811
0.0363457
0.0232687
0.0251392
1.03897
0.0668151
7.24282
2.6581
0.0232988
1.02771
1.97642
0.0255419
0.0221822
0.36635
0.023388
0.300246
0.0686718
0.024721
0.0242243
0.0240189
0.835114
0.372312
0.202071
0.0239279
0.323986
0.216501
0.144568
0.0237331
0.100838
0.024098
1.40024