/*--------------------------------*- C++ -*----------------------------------*\
| =========                 |                                                 |
| \\      /  F ield         | OpenFOAM: The Open Source CFD Toolbox           |
|  \\    /   O peration     | Version:  v2012                                 |
|   \\  /    A nd           | Website:  www.openfoam.com                      |
|    \\/     M anipulation  |                                                 |
\*---------------------------------------------------------------------------*/
FoamFile
{
    version     2.0;
    format      ascii;
    class       volScalarField;
    location    "300";
    object      p;
}
// * * * * * * * * * * * * * * * * * * * * * * * * * * * * * * * * * * * * * //

dimensions      [0 2 -2 0 0 0 0];


internalField   nonuniform List<scalar> 
53008
(
-0.000215908
-0.0181717
-0.0672226
-0.0177756
0.0014181
-0.00191991
-0.0112957
0.000661385
-0.000975798
-2.42276e-05
0.000514018
-0.0493928
0.00095959
-0.0742272
-0.00707709
0.0247813
-0.0133294
-0.023946
-0.0564441
-0.00366507
-0.000792845
-0.0887084
-0.0280363
-0.0813317
-6.21497e-05
-0.0242758
-0.0251291
0.000951661
-0.0399282
-0.0176159
-0.0572936
-0.00354958
-0.0849544
0.000591546
0.000761935
0.000768727
-0.00235203
0.00262052
0.0023071
-0.0679797
-0.022836
-0.0651708
1.90428e-05
0.000768639
-0.0709504
-0.0883471
-0.0656654
0.000629562
0.00295499
-0.0561713
-0.0289077
-0.0726565
-0.00494906
-0.00744822
0.00227429
-0.0735783
-0.0513988
0.00140922
0.000722959
0.000342453
-0.0104009
-0.00383206
-0.00510725
-0.0296261
0.000722077
-0.0659222
-0.0688453
-0.0730997
-0.0176082
-0.003373
-0.0119676
-0.0151253
0.00103013
-0.0154965
-0.0638329
-0.0326369
0.000666105
-0.00176288
-0.0236301
-0.0178315
-9.58543e-05
0.000903034
-0.0734944
-0.0580513
-0.014704
-0.0129845
-0.0661288
-0.0631894
-0.0126172
-0.0122255
0.000683117
-0.0100426
-0.0112082
-0.0147504
-0.0637443
0.005025
-0.00173237
0.000677963
0.000959472
-0.00339469
-0.0103035
0.000246453
-0.0263739
0.000943176
-0.0118588
-0.0561525
-0.0478552
-0.0804854
-0.0358038
0.00832409
-0.0696037
-0.0687809
0.00685388
0.000813263
-0.00347929
-0.0157123
0.00138829
-0.00756423
-0.0656702
0.00404578
0.000689179
-0.00222016
-0.0750983
-0.0346686
0.000840859
-0.0239126
-0.00630475
-0.0266693
-0.0669975
-0.0557271
0.000560411
0.00068888
0.00264425
-0.00821379
-0.0709953
-0.0121703
-0.000417386
0.0013838
-0.0684934
0.000545332
-0.0761342
-0.0692428
0.00211288
-0.0073474
2.92292e-05
-0.0571734
0.00094571
-0.0175829
-0.00523225
-0.0171739
-0.0659731
0.000849722
-0.0338535
-0.0911502
-0.0884451
-0.0210805
-0.00170106
-0.101078
-0.00192675
-0.0360319
0.000883544
0.000769362
0.000490958
-0.0184896
0.000497963
-0.0812006
-0.064299
-0.0155009
0.000705614
-0.000311965
-0.0223951
-0.0997911
-0.0290728
-0.00246716
-0.000134423
0.000888754
-0.00523834
-0.0155569
-0.0644003
-0.0329702
-0.0421386
-0.00128386
0.000837738
-0.00196591
0.0128522
0.000818098
0.000478257
-0.0663701
-0.0678919
-0.0657003
-0.000530631
-0.0756972
-0.00685692
-0.0472203
-0.0710973
-0.0148941
0.0112212
-0.0546656
-0.0149091
0.00743355
-0.0163396
-0.0705269
-0.0507927
-0.0150486
-0.0268339
0.00290593
-0.000508907
-0.00261827
0.0140732
-0.0242118
-0.02286
-0.0623287
-0.0120062
-0.0020171
-0.0537513
-0.000391042
-0.0745775
-0.0629029
-0.0702052
-0.0706912
-0.0661628
-0.000508436
-0.00172293
-0.0706059
-0.0561503
-0.0608927
-0.0358093
-0.00782626
-0.0359189
-0.0240207
0.000849394
0.0119313
-0.0244154
-0.00470708
-0.00300824
-0.0688126
-0.0247445
-0.00242611
-0.0126906
0.000913046
0.000829024
0.00300217
-0.0565761
-0.0148891
-0.0032784
-0.0100963
-0.00175239
-0.00618103
-0.0237467
-0.0310576
0.0188893
0.00366099
-0.0635287
0.000874396
-0.00142994
0.00066556
-0.0133949
-0.0500637
-0.0728361
-0.0734679
-0.0709145
-0.0633659
-0.00329149
-0.0047749
-0.00560595
-0.00776894
-0.0700892
-0.0697085
-0.0209444
0.00237958
-0.0567048
0.00107864
-0.000422506
-0.0659084
0.0025161
-0.0542289
-0.00336488
-0.0666703
-0.00356114
0.000679925
-0.0312814
-0.00583268
-0.0266352
-0.0563329
-0.0267677
-0.0103051
0.00107674
-0.0717019
-0.103623
-0.0718236
-0.019977
0.0164848
-0.0672914
-0.056173
-0.0182536
-0.0152856
-0.0673653
0.000896274
-0.00210361
-0.0192595
-0.0692645
0.000840525
0.000829634
-0.00498198
-0.0778441
-0.063926
0.000948218
-0.0249331
0.00222444
-0.0784513
0.0153977
-0.0151559
0.000888332
0.000871335
-0.012093
-0.0167483
0.00249102
-0.0662687
0.00707637
0.00119825
-0.0628345
4.38504e-05
-0.0252689
0.000641628
0.000157569
-0.0542386
-0.0835302
-0.0067015
0.0131964
-0.0232534
-0.00399407
0.00700809
0.000890275
-0.00140888
-0.0126556
-0.00082909
-0.0562232
-0.0564499
-0.00180504
-0.0234137
-0.0554075
-0.0339375
-0.0553157
0.0175719
-0.0565364
0.000941539
-0.0673693
0.000677815
0.000874567
0.000874313
-0.00382828
-0.000309221
-0.0223793
-0.0702311
-0.00183442
-0.0153992
-0.0671563
-0.0907463
-0.0633779
-0.0560199
-0.0467788
-0.0109953
0.00432918
0.00085048
0.00159866
0.00084027
-0.0237566
-0.0385005
-0.0571032
0.00263857
-0.0228761
-0.00640076
0.00232926
0.0013798
-0.0112728
-0.0631286
-0.00178968
-0.0669448
0.000767765
0.000860539
-0.00204433
0.000956392
-0.0164054
-0.0142019
0.000831955
-0.015081
0.00155334
0.0078207
0.00996387
-0.000719472
-0.0716114
-0.065363
-0.0684447
0.000780554
-0.0559218
-0.0706402
-0.029389
-0.0043717
-0.10037
0.000978811
0.000945475
0.000839521
0.00645848
-0.0136863
6.01508e-05
0.00135715
0.00086036
-0.0593965
-0.0241915
-0.0150813
-0.0513538
-0.00448393
-0.0799304
-0.0748787
-0.0738334
-0.015073
-0.0113501
-0.0171598
-0.00615248
-0.0101286
-0.00197171
0.000694823
0.000868325
-0.0119267
0.00134002
0.000174663
-0.0154721
-0.0851162
0.00149368
-0.0152102
-0.0905235
-0.00699381
0.000154731
-0.0712872
-0.0150067
-0.00619614
-0.0555094
-0.0249501
0.00377707
-0.0677627
0.0132498
0.00262676
-0.0299769
-0.0842202
-0.0817779
-0.0178574
0.000155884
0.0019518
-0.0554853
0.000555637
-0.0716996
-0.0858784
0.00082536
-0.00665619
-0.0897403
-0.0696302
0.0172364
-0.0859836
0.000505668
-0.062302
0.000887091
-0.0304007
-0.0111519
-0.0106792
-0.00864278
-0.0199588
0.003792
0.0077707
-0.0635678
-0.021322
-0.0726388
0.0133657
-0.0266185
-0.0824858
-0.012011
-0.0556557
-0.00433805
-0.0641656
0.00566356
-0.0715356
0.000831577
-0.0958473
0.00438298
-0.02259
-0.00912136
-0.015527
-0.0690048
-0.0125088
-0.0692509
-0.00337565
0.000504189
0.000670632
0.0166467
0.000545676
-0.0256398
-0.00192328
-0.0149155
-0.000156717
-0.00911024
-0.0415763
-0.0655073
0.000811418
-0.0161976
-0.00596532
-0.0235835
-0.0736954
-0.0501762
0.000867996
-0.0136173
-0.00288519
0.00125564
0.000287285
-0.0704117
-0.0647827
0.000740744
-0.0635685
-0.0234531
-0.00895122
0.000457161
0.00075919
0.0146673
0.00704757
-0.0152027
-0.0665927
-0.0109843
-0.00184718
-0.0709314
0.000465817
0.000216162
0.000872257
0.00274934
0.000758534
0.00954969
-0.0254467
-0.00678273
-0.0667709
-0.00184219
0.00446237
-0.00712247
-0.0133795
0.00066117
-0.0150066
0.000824361
0.000828408
-0.0539476
-0.0859892
0.000755521
-0.0662198
-0.0542632
-0.0791668
-0.0173646
-0.0238509
0.000316413
0.000842224
0.000688128
-0.0294715
-0.0167407
-0.0786413
0.000923804
-0.0328719
0.000825919
0.00464099
0.000863063
-0.0677586
0.000463412
-0.0668162
0.000771192
-0.0577039
-0.0510476
-0.0703701
-0.00184521
0.000913849
0.00139433
-0.0507386
-0.0127462
-0.0695215
0.000216478
-0.0152076
-0.0172239
-0.000259077
-0.072391
0.00130437
0.000176093
-0.0834238
-0.0668628
0.000863276
-0.0642474
-0.0635628
0.00558769
-0.0652611
-0.0243632
0.00227228
-0.0708506
-0.0591131
0.000509715
0.00456809
0.00046915
0.000769574
-0.0670122
-0.068319
-0.0707692
-0.0967765
0.0146248
-0.00204062
-0.038356
0.000996835
-0.0215229
-0.0662516
0.00105272
-0.00434612
-0.070762
-0.00592226
0.000760623
-0.0116615
-0.00937138
-0.00196447
-0.0735652
0.000700895
0.00983581
-0.00658481
-0.0639026
-0.00239202
-0.0857007
-0.0202293
-0.0631865
-0.0113957
0.000836911
-0.00061216
0.00079013
-0.0232552
-0.0429686
-0.00450314
-0.0123763
0.00219662
-0.000213883
-0.0554827
-0.0735456
-0.0166288
0.0162184
0.0240511
-0.0701639
0.000789318
-0.0124297
0.000941853
-0.0157725
-0.06304
0.000878101
0.000732536
-0.0107372
-0.0714217
0.00123527
-0.000675759
-0.00256607
-0.0153794
-0.0662601
-0.00509432
0.00112056
-0.0787976
-0.00037579
0.00626322
-0.00575957
-0.0129382
-0.0108382
-0.0307222
-0.000152506
-0.0462159
0.00218177
-0.0734763
-0.0662847
0.000444515
-0.0196736
-0.0669756
-0.0236761
0.000845104
-0.0235288
0.00125528
0.00232665
0.00191293
0.000757937
0.0138058
-0.0289785
-0.0681925
0.00170135
-0.0480535
0.000859849
-0.00402123
-0.0581615
0.000808748
-0.0788085
0.000938894
-0.0150288
-0.0694369
-0.00212902
-0.00184273
-0.0129754
-0.00275719
-0.0549623
0.000908988
-0.0693216
-0.0154083
0.000845849
-0.0706684
0.00201254
-0.0503836
0.000840682
-0.015345
-0.054731
0.000158484
-0.0064632
0.0154977
-0.0170916
-0.0325899
-0.0308585
0.000993397
-0.00451541
-0.090968
-0.0574535
-0.00316261
-0.0854025
-0.0672199
0.00171873
-0.00751505
-0.00465284
7.27578e-05
0.00089401
-0.112713
0.00126536
-0.0336151
-0.0241234
-0.012535
0.0159127
-0.0605606
0.0147809
-0.0272745
-0.0153398
-0.0565744
-0.00566008
0.0117409
-0.0737055
-0.00932401
-0.0642158
-0.0140367
-0.0148155
-0.0557507
-0.0117431
0.00719113
-0.0349165
-0.00675625
-0.0373201
-0.0667528
-0.0429462
-0.00192547
0.00199917
-0.0707169
-0.024485
-0.0571403
-0.000276259
-0.0499989
0.00213182
-0.0320142
-0.023387
0.0019355
0.00144904
-0.0302173
-0.0453993
-0.0241748
-0.0681451
-0.0109716
-0.0498236
-0.00194701
-0.0872173
-0.0621034
-0.067607
-0.0685207
-0.0162634
-0.046369
-0.0564673
0.0241231
-0.0132082
-0.0718621
-0.07059
-0.0134338
-0.0999436
0.00215826
-0.0303076
-0.00285339
0.000522081
-0.00428017
-0.050654
-0.0506938
-0.00781741
-0.0838832
0.00102872
-0.066359
0.0070978
0.00045233
-0.00258572
-0.0657341
-0.0116385
-0.0474942
0.000866535
-0.0245481
-0.00613462
0.000879271
-0.00305347
-0.00049444
0.00129588
0.000255374
-0.0173159
0.000556257
-0.0144036
-0.011142
-0.00173247
-0.0781114
-0.0662281
-0.0179821
-0.00249372
-0.0320363
-0.00574311
-0.066355
-0.0104109
0.000676059
-0.00693248
-0.000204763
0.00525766
0.000675527
-0.0466529
-0.00660819
-0.0466576
-0.0286917
-0.0797106
-0.0154683
0.015625
-0.0154728
-0.077799
-0.00400067
0.00202769
0.00910074
-0.0688719
0.00493505
-0.00195171
-0.0131831
0.0158221
0.000951921
-0.00673031
-0.00451425
-0.0647835
-0.0568564
-0.0767182
-0.0916931
-0.0547389
-0.00883649
-0.00523999
-0.0341291
-0.0552411
-0.07684
-0.0921769
0.000517825
0.000974454
-0.00270812
0.000546155
-0.0115015
0.000846038
0.0125847
-0.0631388
0.0106937
-0.0794818
-0.0344265
-0.0665561
-0.0650283
-0.0547977
-0.0606673
0.00309094
0.00144493
-0.00894695
-0.0150983
-0.00548701
-0.02029
0.00101047
-0.0256515
-0.0765662
0.01426
0.000868316
0.000496461
0.00773848
5.44519e-05
0.000671217
0.000885581
-0.0731441
0.000830947
0.00210425
0.000837367
6.13354e-05
-0.0372131
0.00126852
-0.0702498
-0.00111891
-0.0549505
-0.00600265
-0.0215348
-0.0693041
0.000859494
0.000851676
-0.00631939
0.000846719
-0.016732
0.00628955
-0.0196007
-0.0124054
0.015314
-0.0561504
-0.0189502
-0.0353617
-0.0151321
0.000993701
0.000830829
-0.00467437
-0.00937315
-0.0122981
0.0165062
-0.0720251
-0.0663898
-0.00468101
-0.0113679
-0.0344024
0.000799687
0.0116736
0.000775643
-0.0165132
-0.0630068
-0.00454588
-0.0227378
-0.00033826
-0.0111666
0.00603648
0.00125087
-0.00394621
-0.0920173
-0.00452976
-0.0458601
-0.0544635
-0.0776214
0.0114398
-0.0589582
-0.0644158
3.79402e-05
-0.00967635
-0.00218712
0.000801334
0.000784153
-0.0155073
-0.01206
0.000860714
0.00077228
1.3782e-05
-0.0174697
-0.000991406
-0.00272539
-0.00385265
-0.0199887
6.86777e-05
0.000546997
-0.00414723
-0.00396823
-0.0052445
-0.0717875
-0.0268185
-0.0197071
-0.0371429
-0.013859
0.000543248
0.011805
-0.0083012
0.000758156
-0.0972605
0.000511278
-0.0788225
-0.0527218
0.0255038
0.00657385
0.00127048
0.00594752
-0.00423976
0.000851839
-0.00197802
-0.00852347
0.000643985
0.0162992
-0.100471
-0.0726234
-0.0550261
0.00126697
-0.0121987
-0.00161345
0.00174447
0.000505842
0.0211111
0.0001069
-0.0774743
-0.00018564
0.00220588
-0.107016
0.000763543
0.00153893
0.00628386
7.21803e-05
-0.113367
-0.00539821
0.0115318
0.00116094
0.00161265
-0.00816752
-0.078881
0.000881371
-0.0333647
0.00052636
-0.0328717
-0.0309067
-0.012099
0.000881968
-0.0251595
0.000789985
-0.0821541
0.0023434
0.000801659
0.00507901
-0.00132805
-0.00717677
4.42015e-05
-0.00140493
-0.0149788
0.0122612
0.00934706
-0.00701573
-0.0118666
0.00116612
0.00651809
-0.0835753
-0.0141129
-0.0779974
0.0231389
6.59156e-05
-0.00542365
0.000643538
-0.0117782
-0.0415572
-0.00731789
0.000510498
-0.000990054
-0.00821454
0.00049551
-0.00138094
0.00631508
-0.0439171
-0.0141562
0.000888125
0.00202694
0.00233497
-0.0693214
-0.0560988
-0.00125941
-0.00157664
-0.0357664
0.000803503
-0.0195774
-0.000403084
0.00211048
0.0013122
-0.0648487
0.00715983
-0.0725573
-0.0747535
-0.0644719
0.00505347
-0.000990421
-0.00142947
-0.0697253
-0.0444519
0.0216086
-0.0143683
-0.0125751
-0.067515
3.82308e-05
0.000230051
0.00132654
-0.00308565
0.000457679
-0.0115732
-0.103866
-0.0759796
-0.0408643
0.000730064
0.00134406
-0.069284
0.000867226
0.000775502
-0.00361208
0.000508214
0.0142459
0.00584548
-0.0557799
0.000764968
-0.0540026
-0.0253463
-0.0146428
-0.00104495
0.0011819
-0.0361527
-0.0201409
0.00139802
0.000221693
0.000726662
0.00635802
-0.0500679
-0.00660549
-0.0138322
-0.066118
-0.0143242
0.00597397
-0.0758314
-0.0470815
0.0145478
0.0213293
0.00110078
-0.0558044
0.000526405
-0.0117783
-0.00604916
-0.00708887
0.0013041
-0.0561377
0.000680512
-0.035737
-0.0553951
-0.01959
-0.0739641
-0.0602089
-0.0200637
-0.0684162
0.00167211
-0.0379327
-0.0648013
-0.0619112
-0.101248
-0.000784117
-0.0426828
0.00262475
-0.0258871
-0.0758135
-0.0625614
-0.00556256
0.000536423
0.000920917
0.00137071
0.000810278
-0.0110815
-0.0752791
-0.0143706
-0.0030414
-0.011964
-0.072609
-0.0707591
-0.0636267
-0.00572995
-0.0111143
-0.0692989
-0.00057461
-0.0847256
0.00051908
-0.0134004
0.00416541
-0.0832151
-0.0341625
-0.0846902
0.00281635
-0.0588427
0.000259236
0.00895117
-0.0259309
0.00144381
-0.0433319
0.000223092
-0.0328085
-0.0146201
0.000612911
-0.000177457
-0.0500532
-0.00144908
-0.0118879
0.00255637
0.00134344
-0.0370708
0.000698633
-0.0359551
0.0037091
0.000629598
0.00322801
-0.0239721
-0.0901363
0.0163676
0.000741852
-0.00184293
0.00334038
-0.0850223
-0.0708716
0.000861037
-0.069694
-0.00184934
0.00325673
-0.0113136
-0.034965
-0.0312839
-0.0464292
-0.068496
-0.0651189
-0.0848926
-0.0194449
-0.0257741
-0.00126168
0.000143871
-0.0697907
-0.00324753
-0.00641385
-0.0303852
0.000631526
-0.0583248
-0.0269178
0.000927553
-0.023582
-0.0361672
-0.0841398
-0.069942
0.0010081
-0.0677833
-0.00227797
0.000775355
-0.0247086
0.000773975
-0.000361774
0.0234262
-0.0124638
-0.06424
0.000132237
0.000837233
0.000250489
-0.0002721
0.000600957
-0.0802825
0.00135009
0.0063065
0.00706213
0.000745179
-0.00431664
-0.0247773
-0.0248027
0.000661387
0.000119971
0.000758864
-0.0638257
-0.0794079
-0.0698039
-0.0149897
0.000832573
-0.0667687
-0.00993578
0.00187641
0.00015166
-0.0544297
0.00141366
-0.0698715
0.000831298
-0.00889553
-0.0846115
0.0212594
-0.0855291
-0.0130141
0.00140742
-0.00767571
-0.0153164
0.00127793
-0.0252837
-0.0554248
-0.0713321
0.0345634
0.000742389
-0.0647844
-0.00529531
-0.0682982
-0.000582163
-0.0424852
-0.0207786
-0.0160377
0.00139826
-0.0105753
0.0011022
0.000914834
-0.0104173
-0.0166478
0.000977886
-0.0892771
-0.0853736
-0.000800462
0.00105814
-0.0619626
-0.00166979
-0.0622978
0.000969261
0.00134029
-0.107295
-0.0326557
-0.0672055
-0.0041259
-0.0122569
5.2919e-05
-0.0274223
0.000788518
0.00117103
-0.00102265
-0.000447198
0.000839209
0.00135968
-0.00603188
0.000838709
-0.0409151
0.000784578
-0.0164928
0.000500693
0.000174627
-0.0171372
0.000655675
-0.0760566
-0.0260276
0.00332823
0.00103111
2.69076e-05
0.00151723
-0.0691117
0.00128571
-0.00739839
0.000119251
-0.025501
-0.0758794
-0.0565187
0.0011314
-0.0765392
-0.00651146
-0.0724794
0.00744516
-0.0546259
-0.0877702
-0.0411889
-0.00401748
0.000732703
0.000836331
-0.0697539
-0.0724658
-0.00027541
-0.0666771
-0.0667462
-0.0245131
0.00105192
-0.0203622
0.00309637
-0.00764403
-0.00241093
-0.0119361
0.000544815
-0.0308082
-0.0834454
-0.0245507
-0.00439457
-0.0160497
-0.00829628
-0.0705149
-0.0113676
-0.00605664
-0.00879437
-0.046533
-0.00502762
-0.0682835
-0.0366923
0.00292364
-0.0698008
-0.0762881
0.000561924
0.000589974
0.00113773
-0.0122129
-0.0689907
-0.0482495
0.00520714
-0.0600757
-0.00463674
-0.0138085
0.000734424
-0.000147921
-0.013609
-0.0576352
-0.00789325
-0.0118796
-0.0165826
0.00409567
-0.00133879
-0.0717349
-0.00940602
-0.0575165
-0.0396214
0.0205125
0.000781258
-0.0705828
-0.0740557
-0.0669488
0.00595907
0.000991926
-0.0141022
-0.0585275
-0.0387655
-0.0837035
-0.00851168
-0.0728353
-0.0229139
-0.0853589
-0.0613164
0.000891353
-0.0459017
-0.000237624
5.30583e-05
0.00196375
0.00136181
0.00091915
0.00126405
0.000821802
-0.0114725
-0.0198018
0.000522173
-0.0698778
-0.000583231
-0.0454369
0.00860045
-0.0711625
-0.0397044
-0.0402602
-0.0507313
-0.0104074
0.022081
0.000507025
0.00227988
-0.0478279
-0.0828031
-0.0252793
-0.058507
0.000867434
-0.0887519
-0.00024924
-0.015164
-0.00537826
0.00146124
-0.00856801
-0.0720589
-0.0073419
0.00630088
0.00081825
-0.0841666
-0.00526276
0.00501893
0.00300349
-0.0135691
-0.040519
-0.0714935
-0.0272947
-0.0855433
1.85661e-05
0.000719182
-0.0778811
-0.0140344
-0.0654289
0.00138346
-0.0207819
0.00112652
-0.0590947
0.000866051
0.000669778
-0.0149306
-0.0347347
-0.0221247
-0.00492157
-0.0209208
-0.0299263
-0.0110638
-0.022418
-0.0236193
0.00258046
-0.0580712
-0.00501238
-0.0016997
-0.000701824
-0.00839257
0.00617799
-0.00106675
-0.00966689
0.00075732
-0.00603084
-0.0156347
-0.0426994
-0.0378162
-0.000506197
-0.0266142
-0.0108214
-0.0106918
-0.0146941
-0.00617253
-0.0696004
0.000926357
-0.0048552
0.00116951
0.00260189
-0.0756946
-0.0197394
0.000692192
0.000931123
5.22766e-05
0.00125987
0.00134338
-0.0703964
-0.0546613
-0.0676092
0.000912423
-0.0609385
-0.000129379
-0.0698232
-0.0573036
-0.00327658
-0.0721841
-0.0690746
-0.0727763
0.00109482
0.000560126
0.000664623
-0.0227345
-0.0205184
-0.0851532
-0.0183946
0.001742
-0.00671603
0.000787789
-0.00396761
-0.000144642
-0.0648793
-0.01564
-0.000398693
-0.0234841
-0.0984464
-0.01966
0.003687
0.00122383
-0.00287224
-0.000434684
-0.00165447
-0.0372693
-0.014232
-0.000569084
-0.0706899
-0.0242489
-0.0525033
-0.0032679
-0.00904102
-0.000963088
-0.000726991
-0.0114871
-0.0138258
4.34261e-05
0.000328647
-0.00283069
-0.0174686
-0.0652705
-0.00261976
-0.0796083
0.0203514
-0.00618628
-0.00800721
-0.0103106
0.0122508
-0.0666116
-0.0171775
-0.000785762
1.44066e-05
0.000588918
0.000339211
0.00546824
-0.0484381
0.000834697
9.04269e-05
0.000747507
-0.000863915
0.00407069
-0.0309437
-0.0426867
-0.0129863
-0.0313928
-0.0220727
-0.00916739
-0.0155845
-0.0559848
-0.0198294
-0.0279192
0.00261303
-0.00735117
-0.000458066
-0.00482328
-0.0838919
-0.0120578
0.0011593
0.000629801
0.00121342
0.000755504
0.000948564
-0.000195195
-0.0794584
-0.0708874
-0.0249129
-0.000325467
-0.0843716
0.000895445
-0.000480373
-0.00066936
0.0049613
0.00168059
-0.0120109
-0.0212476
-0.0393969
-0.0201452
0.000987622
0.0047805
-0.0666629
-0.0674933
-0.0743012
-0.0281
-0.00936386
0.00147573
-0.0550516
0.0124129
0.000777752
-0.102181
-0.000393195
-0.00426429
-0.0697195
-0.000166767
-0.0246522
0.000166827
-0.0732106
-0.0599882
-0.0111767
-0.0706806
0.00107766
-0.0109597
-0.00490046
-0.0641986
0.000637227
-0.0806426
-0.072287
-0.0405851
-0.0701704
-0.0363385
-0.00060459
-0.00235864
0.00569888
0.00320505
-0.0059226
-0.0588975
0.00184397
0.00213885
-0.015391
-0.0101724
-0.000550903
-0.00130283
0.000881244
0.0172843
-0.00180678
-0.000428304
-0.00280529
0.00140106
0.00108452
-0.0553825
0.000310255
-0.0267739
-0.0760826
-0.0134698
-0.0730567
-0.00238493
-0.00871433
-0.00039081
0.0131556
-0.0109896
-0.000269044
-0.0355008
-0.0157753
-0.0694719
-0.00932929
0.000776319
-0.0649738
0.00191986
-0.00134931
-0.0625356
0.000754606
-0.0111107
-0.0208291
0.000449972
0.0149599
-0.00409195
-0.00733095
-0.0029487
0.000203991
-0.0621391
-0.0764775
0.00365984
0.00130301
0.0117749
0.000488113
-0.0689137
-0.000984611
-0.0267671
0.027286
-0.057156
-0.0193445
0.00178253
-0.0738602
-0.0736328
-0.000154237
-0.00597024
-0.003748
-0.00158589
-0.0534366
-0.0390137
0.0213296
-0.00486891
-0.0130048
-0.0523781
-0.070788
0.000959713
0.0122887
-0.0651476
0.000678903
0.000217703
0.00349189
0.0117322
0.00195331
-0.00476939
0.000631992
-0.0589685
-0.0689008
-0.0134996
0.00537699
-0.00187571
-0.00390858
-0.000920238
0.000912031
0.0024596
-0.0680142
0.000541461
-0.00176312
0.00176838
-0.00590606
-0.0176396
0.000623252
-0.0654987
-0.0287422
-0.00435854
0.000612802
0.00756361
0.00183124
-0.0686423
-0.0371552
-0.0542014
0.00112827
0.000777533
-0.0688406
0.000449786
-0.000647672
0.00713505
-0.0351349
-0.0133321
3.08589e-05
-0.00172866
-0.0462836
-0.0700489
0.000848719
0.00144854
-0.0691771
-0.00809836
-0.00323899
-0.00276938
-0.0189122
-0.0448061
-0.0571433
-0.00589278
0.000909847
-0.0798094
-0.00258761
-0.00868049
0.000821887
-0.0150274
-0.0193581
-0.0107605
-0.0191445
-0.00357154
0.000979687
-0.00598822
0.00402065
-0.0337362
-0.0792867
-0.0852283
0.00374792
0.000887237
0.000634258
-0.0168347
0.00600383
0.000257607
-0.0228377
-0.0104904
-0.0608085
0.00121213
0.0036938
-0.00170135
-0.0114311
-0.0140566
-0.00474068
0.0266829
-0.000853749
-0.0154114
-0.00464864
-0.0103317
-0.0735975
0.00152243
-0.0670101
0.000730291
0.000672999
-0.0892406
0.000608244
-0.000806456
-0.024166
-0.00223037
-0.0197111
0.014203
0.00179578
-0.0630229
-0.00568875
-0.00564867
-0.00930603
-0.00772978
0.000877628
-0.0209903
-0.0985185
-0.0384526
0.000160887
-0.0730683
-0.0811442
-0.00883055
-0.000179542
0.00100301
-0.0150817
-0.0254863
-0.00823352
-0.0235739
-0.00974298
-0.0728122
0.0166215
-0.0575682
-0.0124882
0.00128973
-0.0365444
0.00953928
-0.000211143
-0.00191814
-0.067029
-0.00138708
2.95923e-05
-0.0096017
-0.0710688
-0.0553498
-0.0238885
-0.0154698
-0.00476419
-0.0364908
-0.0709381
-0.0356756
-0.00719058
-0.0686175
0.00278096
-0.014655
0.000730587
0.00526408
0.0241031
-0.00182148
-0.00146576
0.00134526
0.000720623
0.0135948
-0.0249251
-0.00109613
0.000865302
-0.0452064
-0.0164579
-0.0241017
-0.00393824
-0.0237738
0.0102822
0.000317052
-0.0232152
-0.0022745
-0.000847309
-0.10427
0.000857842
-0.0162618
-0.0577767
0.000741205
-0.0567432
0.000230698
0.00137113
0.00667276
-0.00517406
-0.0205793
-0.0111361
-0.0547331
-0.00855226
-0.00061203
0.000729012
0.000920514
0.000733156
-0.0758577
0.0134613
0.00422802
0.0196095
0.000683879
0.0171567
0.000733566
-0.00274079
-0.000999581
0.0138307
0.00851654
-0.00111212
-0.0152945
0.00584601
0.000140504
-0.00950692
-0.00329378
-0.0646394
-0.00507031
-0.0113636
-0.0645487
-0.0521723
0.00108635
-0.070704
-0.00167364
0.000843778
0.00136269
-0.0548817
-0.000369846
-0.00836786
-0.0664118
-0.00942305
0.000843611
0.000345441
-0.101903
-0.0332642
-0.00541205
-0.00290123
0.000737893
-0.0466747
0.000552005
0.0243238
-0.0870695
0.000316133
-0.055411
-0.0293088
-0.073616
-0.0108481
0.000752583
-0.0520713
-0.0572559
-0.0155402
-0.00149716
0.000511649
0.000264456
-0.0591035
-0.00423383
-0.0165848
0.000225954
-0.0624235
-0.066946
-0.0341879
0.00277347
-0.00224303
0.00107659
-0.0029706
0.00287395
-0.000111786
-0.0663813
-0.00205482
-0.00575974
0.00404392
0.0142972
0.00731528
0.00122496
-0.00946927
0.000855427
-0.00205107
0.0138663
0.000285365
0.00241291
-0.00189605
-0.0648614
-0.00249915
-0.0367795
-0.0952682
0.000858723
-0.0648596
0.000157983
-0.00433394
-0.00441792
-0.00850097
-0.0675917
-0.0114483
-0.00947874
-0.0286698
-0.102005
-0.000237557
-0.0132866
-0.00772023
0.000692329
0.00431232
-0.0727226
0.000353264
-0.0445764
3.33049e-05
0.00185697
-0.0335306
0.00332071
0.0166858
0.00681557
-0.00211681
-0.0108178
-0.0707113
-0.00479758
-0.0648757
-0.022093
-0.00760076
0.000841336
0.000318915
0.000923369
-0.00436773
-0.00174819
0.00206108
-0.020687
-0.00963593
0.000682313
-0.0711004
-0.00918546
-0.0139794
-0.0109661
0.028322
-0.0298052
-0.0123301
-0.000741943
-0.0143058
0.00210366
-0.00408989
-0.0652887
-0.0113182
-0.0921263
-0.0579374
-0.00890511
0.000625307
-0.0721105
-0.00639435
-0.0229052
0.00078775
-0.0647206
-0.0256841
-0.0542127
-0.017518
-0.0138075
-0.00287267
5.42224e-06
-0.072416
0.000793019
-0.0119569
0.00736705
-0.0730279
-0.00826853
0.000139164
-0.00216001
0.00023791
0.000937674
-0.0144892
-0.0646011
-0.00408905
-0.0294058
-0.0542162
-0.0100839
-0.0097155
-0.0317528
-0.0326738
-0.0680423
-0.00125525
-0.0238577
0.00142929
-0.0705264
-0.042982
0.00128386
-0.0263122
-0.0737699
-0.0785112
-0.0207963
-0.0126147
0.00042291
-0.0166671
-0.0705269
-0.066504
-0.073134
0.000910453
0.00149729
-0.0116342
-0.00442596
-0.0610388
0.00142307
-0.0287743
-0.0296724
0.000975355
-0.0240466
-0.00122874
-0.0126473
0.00429758
-0.00278718
-0.0104998
0.00857395
-0.0337515
-0.0560096
-0.00600096
-0.0588532
0.00165486
-0.0170977
-0.0780123
-0.0058366
-0.0604563
-0.0381703
0.0167339
-0.0397967
-0.0660709
0.000969879
-0.0131979
-0.00339486
0.00031853
0.000327367
0.0194885
-0.0857216
-0.0764428
-0.00229348
-0.0840736
-0.00896605
0.00443843
-0.0031962
-0.00900296
0.000660552
0.00118588
0.00189764
-0.00420354
0.000539401
-0.000484196
-0.00423821
-0.0426169
-0.0771177
-0.00125609
-0.0166929
-0.00423498
0.00186307
-0.00780755
-0.00389181
0.00775022
-0.0254853
-0.0306296
-0.015224
-0.0938138
-0.00327509
-0.00359406
-0.00179346
-0.00373715
-0.0124321
-0.00831844
0.000877902
4.26303e-05
-0.0548359
-0.00571787
-0.0253416
-0.00423647
0.000761125
0.00235085
0.0250637
0.00522841
0.00366357
-0.0123236
0.00727101
0.000690074
-0.00132503
9.24726e-05
-0.0708242
-0.00938959
-0.0587623
-0.0640777
-0.00235033
0.000764395
-0.0500449
-0.0121195
0.000183362
-0.0394568
-0.0683732
0.000941312
0.00126498
0.000966089
0.000793948
0.00415659
0.000673185
0.000874881
-0.0776569
-0.0394872
0.00111587
-0.0151153
0.0149947
-0.0026349
-0.00468491
-0.00685608
-0.0155988
3.01458e-05
-0.00139679
-0.0683002
-0.0263896
-0.0242139
-0.0730653
-0.0350724
0.00172566
0.0150284
0.00741059
-0.0567717
0.000509846
-0.0137385
0.00109572
0.00058561
-0.0134581
-0.0631497
-0.0234228
-0.00816477
-0.00798608
-0.0115682
-0.0115038
0.00953259
0.00139286
-0.000698389
-0.0191188
-0.00396173
0.000910322
-0.0321771
-0.0886829
0.00068903
-0.00333055
-0.0120127
0.000969029
0.00151614
0.00112492
-0.0307694
-0.0264367
-0.0124559
-0.00635195
-0.0097662
-0.00291869
-0.0111164
-0.00854848
0.000877156
-0.00475825
-0.0632251
-0.00308058
-0.0446739
-0.00452103
-0.00274488
-0.00255796
0.0192587
-0.0380704
0.00051859
0.00170183
0.00016343
-0.0311454
-0.0149745
-0.00239724
-0.00422334
-0.00954565
-0.0788709
2.36722e-05
-0.00340243
0.000955543
0.0033756
0.000669266
-0.021587
-0.0986875
-0.0672315
0.000190893
0.000982633
-0.000308024
-0.00539146
-0.013349
0.00516111
0.00632548
-0.0399287
-0.000316396
0.000879524
-0.0436939
-0.00442452
0.000651061
-0.00798729
0.000851164
-0.0158757
-0.00144272
0.00141827
0.0013865
0.00873698
0.00114187
-0.0621067
0.000955905
0.000360253
-0.00948366
0.000772694
-0.00876204
-0.0581641
-0.0421655
-0.0233442
0.000704211
-0.0689807
-0.0614597
0.0166073
-0.0152229
0.00541418
0.00114827
-0.00403227
0.00325316
0.0338011
0.00228284
-0.0438243
-0.00823384
-0.0561508
0.000334957
0.00224185
-0.0210717
0.000299941
0.000756655
-0.066178
-0.0252396
-0.0261988
-0.0323474
-0.0361798
-0.0132819
-0.00323616
-0.034668
-0.0556658
-0.0671441
-0.0233513
0.000826146
0.00087177
-0.0112558
-0.0144153
-0.0258475
0.00635936
-0.00861818
0.00620509
0.0129035
-0.0613812
0.000313921
-0.00275616
0.000864759
-0.0359572
-0.0346746
-0.0273087
0.000518794
-0.0242292
-0.0708514
0.000812954
-0.00493702
-0.055883
-0.00422216
-0.0590906
0.000882728
0.00143398
0.000678019
-0.013406
-0.0408238
-0.00899996
0.000569821
-0.0259523
0.000794816
0.00082283
0.00246834
-0.102071
-0.00788933
-0.00184234
-0.00257905
-0.0641358
0.000682938
-0.0685471
-0.00507281
-0.0313893
-0.0474025
-0.0205683
-0.013053
0.000756993
0.00256346
-0.0665061
0.00110901
0.00673948
-0.0192562
-0.00501641
-0.0423792
-0.0211605
-0.0346143
0.00375669
0.000517746
-0.0480654
-0.0352623
0.000910273
-0.00600548
0.000657607
0.000934307
0.000803308
-0.00156313
-0.0180822
0.000898436
0.00350191
0.00343406
-0.00816307
-0.059766
-0.117472
-0.0901988
0.000292064
-0.00153459
-0.000586397
-0.0916288
0.000884078
-0.0827078
-0.0485409
0.00461526
0.000895914
-0.0244586
-0.0246696
-0.0693864
-0.00231694
-0.0658558
-0.069126
-0.0493263
-0.0769337
-0.0429612
-0.00228596
-0.0665436
-0.0111292
0.00321501
-0.0076055
0.000500056
-0.00796567
-0.0292563
-0.0819383
-0.00794502
-0.0308958
-0.0163097
-0.000712929
-0.00387918
-0.00828647
-0.00774082
-0.000385529
0.000755773
-0.00437368
-0.00330584
-0.0190004
-0.00787616
0.0120165
-0.0104945
0.00456411
0.00573863
-0.0441253
-0.0392289
0.000678185
-0.00506235
-0.0133474
0.00837242
-0.00113159
-0.00052111
-0.0105568
0.00251483
-0.000442862
-0.0224756
-0.0109272
-0.000371004
-0.00642108
-0.0627681
-0.0820761
-0.0209379
-0.0747182
0.000481903
-0.0552392
0.00104371
0.00171274
0.000430812
-0.00957935
0.0192238
-0.0486435
-0.0789489
-0.0681511
0.00241666
0.0011858
0.000708636
-0.0180546
-0.0187543
-0.0341138
0.0139612
-0.0102655
-0.00469369
0.00464944
-0.0392256
0.00024117
-0.0315801
0.000151788
-0.00203815
-0.0663608
0.00109463
3.31156e-05
0.00454704
-0.0254751
0.0220866
-0.0398063
0.00166264
-0.0246563
0.000593361
-0.0297257
-0.0340966
-0.0188339
0.000957193
0.00026751
0.000151384
5.74583e-05
-0.00861659
0.000806323
-0.00501382
-0.00786757
2.00341e-05
-0.0692327
-0.00729913
-0.0972914
-0.00264574
-0.001923
-0.000780602
0.000946662
-0.00822276
-0.00182263
0.000241289
-0.0210382
-0.0658028
-0.0551962
-0.0477527
0.000645405
0.000859179
-0.0207794
0.00288958
-0.0662094
-0.0438887
0.00107918
-0.0120486
0.0132846
0.000246319
-0.0533154
0.00128743
-0.0741923
-0.0224255
-0.0503521
-0.00695645
-0.0299551
-0.0285739
-0.0471675
-0.00409169
5.69261e-05
0.0032391
-0.088709