/*--------------------------------*- C++ -*----------------------------------*\
| =========                 |                                                 |
| \\      /  F ield         | OpenFOAM: The Open Source CFD Toolbox           |
|  \\    /   O peration     | Version:  v2012                                 |
|   \\  /    A nd           | Website:  www.openfoam.com                      |
|    \\/     M anipulation  |                                                 |
\*---------------------------------------------------------------------------*/
FoamFile
{
    version     2.0;
    format      ascii;
    class       surfaceScalarField;
    location    "300";
    object      phi;
}
// * * * * * * * * * * * * * * * * * * * * * * * * * * * * * * * * * * * * * //

dimensions      [0 3 -1 0 0 0 0];
oriented        oriented;


internalField   nonuniform List<scalar> 
78975
(
0.056684
-0.198432
0.141748
0.124415
-0.113879
-0.0105359
0.0126358
-0.00874217
-0.00389362
-0.0720944
-0.145634
0.217729
-0.0689706
-0.159658
0.228628
-0.165527
-0.143348
0.308874
0.176021
0.0634047
-0.239425
0.35863
-0.182209
-0.176421
-0.212503
0.172643
0.0398603
-0.121517
0.302915
-0.181397
0.22359
0.067499
-0.291089
-0.0796667
0.0300289
0.0496378
0.38691
-0.310813
-0.0760976
-0.00278143
0.00137611
0.00140532
0.0920587
-0.220894
0.128835
0.114928
-0.153973
0.0390451
0.224243
-0.329686
0.105442
0.208163
-0.223211
0.0150481
0.130519
-0.110695
-0.0198244
0.334239
-0.0919228
-0.242316
0.283572
-0.192259
-0.0913128
0.00313034
-0.000737392
-0.00239295
0.084141
-0.00340367
-0.0807374
0.000382127
0.000208507
-0.000590634
-0.298731
0.177214
0.185078
-0.0885016
-0.0965762
0.218499
-0.0103359
0.360249
-0.159777
-0.200471
0.0057421
-0.00218316
-0.00355894
0.164507
-0.080927
-0.0295208
0.110448
0.0836812
0.250557
0.0053878
-0.00332042
-0.00206737
0.3099
-0.241321
-0.0685795
0.107592
-0.335745
0.228153
0.305284
-0.197692
-0.176015
0.321564
-0.14555
0.262323
-0.254883
-0.0074408
-0.199025
-0.0622782
0.261303
0.0033969
0.00565869
-0.00905559
-0.0301202
0.0369335
-0.00681331
0.0028476
-0.00629267
0.00344507
-0.130847
-0.171247
-0.355693
0.16906
0.186633
0.00190888
-0.00194463
3.57434e-05
0.00137344
0.00175691
-0.00596015
0.00123828
0.00472187
0.166089
-0.235059
0.0150306
0.247293
-0.00287876
0.00998821
-0.179869
0.0848385
0.0950304
0.0171174
-0.0262253
0.00910791
0.350746
-0.203437
-0.147309
0.111335
0.0743223
-0.185657
0.277489
-0.207484
-0.0700047
0.0292137
-0.047566
0.0183523
-0.0120782
0.019684
-0.0076058
-0.307434
0.137157
0.170277
-0.320548
0.118159
0.202389
-0.337046
0.241734
0.0953113
0.082065
0.179025
-0.26109
0.164467
-0.293723
0.129256
-0.142443
0.235786
-0.093343
-0.120532
-0.0593367
-0.224999
-0.0955493
-0.00660577
0.00945337
-0.00740896
0.0166842
-0.00927525
0.0557269
0.0141736
-0.0699005
0.183586
0.0268961
-0.210482
0.125182
-0.249588
0.124406
0.310374
-0.0971959
-0.213179
0.286625
-0.197685
-0.088941
0.321362
-0.230719
-0.0906424
0.309376
-0.140886
-0.16849
0.0740222
0.00481084
-0.0788331
-0.122296
0.1653
-0.0430036
0.212215
0.146415
-0.194582
-0.0892641
0.283847
0.107903
0.0771752
-0.0952035
-0.107139
0.202343
-0.117311
-0.181421
-0.345921
0.24462
0.101301
0.056883
-0.0276693
0.02308
-0.104007
-0.341627
0.0944407
0.247186
0.134469
0.038127
-0.172596
0.0926179
-0.0423375
-0.0502804
-0.113834
0.0507647
0.0630697
0.10051
-0.175462
0.0749516
0.153508
0.100269
-0.253777
0.323059
-0.271329
-0.0517306
-0.180631
0.286934
-0.106304
0.171891
-0.265178
0.0932868
-0.229215
-0.112412
-0.056225
-0.0576094
0.155852
-0.200203
0.0443512
0.230077
0.0326982
-0.262775
0.280309
0.04275
0.14559
0.24132
0.257554
-0.132372
-0.188779
0.270844
-0.170159
-0.166886
-0.0164832
0.100624
0.251632
0.108616
0.0706754
0.239699
0.0151085
-0.0477579
0.0326494
0.0118665
0.0506024
-0.0624689
-0.0218265
0.00604125
0.0157852
0.0810958
-0.175455
0.0943592
0.151075
-0.229285
0.0782101
-0.0090915
-0.00447788
0.0135694
0.00802265
-0.0179438
0.00992116
0.0522821
-0.0542591
0.00197705
-0.253291
-0.0105414
0.263833
-0.120728
0.209234
-0.0885057
0.143786
-0.232849
0.0890626
-0.0992788
0.300372
-0.201093
0.17904
-0.0677052
0.0459467
0.0466711
-0.0615815
0.217433
0.373168
-0.280861
-0.0923069
0.0774793
-0.22417
0.14669
0.0334742
-0.0352574
0.00178316
0.119011
-0.12713
0.00811933
0.361151
-0.250506
-0.110646
0.0177734
0.00632216
-0.0240956
0.138514
-0.142174
0.00366034
-0.0746542
-0.0218012
0.0964554
0.00941644
-0.00791615
-0.00150028
0.0161491
0.11437
0.287624
-0.240679
-0.0469446
0.10184
0.0344065
0.0305754
-0.064982
0.0501607
0.0959267
-0.146087
-0.0152429
0.0078339
0.258803
-0.105294
0.289237
0.00379217
-0.293029
-0.310197
0.1253
0.184897
0.0168501
-0.00882744
0.264607
0.023017
0.00254153
-0.0026022
6.06727e-05
0.0188619
-0.00924419
-0.00961769
0.203447
0.0155324
-0.218979
-0.349699
0.252725
0.0969738
-0.189465
-0.110894
0.30036
0.0834861
-0.113007
-0.215287
0.0783842
0.136903
0.130258
-0.00584285
0.278491
0.0106068
-0.289098
0.267597
-0.18632
-0.0812779
-0.00975114
0.00247236
0.00727878
-0.306671
0.210582
0.0960897
-0.0629449
-0.0479784
0.110923
0.0164657
-0.00392823
-0.0125375
-0.000820424
0.00219386
0.111091
0.0737422
-0.184833
0.226785
-0.0852057
-0.141579
-0.0334431
0.0319295
0.00151361
-0.289933
0.124407
0.18827
-0.107175
-0.119101
0.323982
-0.204881
-0.262845
-0.0928472
-0.0537176
0.262315
-0.208597
0.232155
-0.247775
0.0156201
0.213868
-0.267586
0.000736482
-0.000354355
-0.0714053
0.0544345
0.0169707
0.0286565
-0.0215043
-0.00715226
0.0391894
-0.277356
0.238167
0.224862
-0.36154
0.136678
-0.0716437
0.134483
-0.0628398
-0.0208329
0.123185
0.0413138
-0.164499
0.0675993
-0.267448
0.199849
0.177071
-0.294381
0.322774
-0.0696829
-0.253091
0.247251
0.0312396
0.252511
-0.108724
-0.0561738
-0.0152315
-0.00222335
-0.120073
0.076036
-0.116724
0.0406875
-0.162555
-0.0499479
0.32417
-0.212104
-0.112066
0.192502
-0.335849
-0.145728
0.0647392
0.0809893
0.0741683
-0.327459
0.0972859
-0.310361
0.213075
-0.00219967
-0.00755147
0.00970797
-0.00631107
-0.00213445
0.0085269
-0.00639245
0.279362
-0.0689983
-0.210364
-0.00428779
0.00424882
3.89669e-05
-0.108332
0.163459
-0.0551271
0.0505593
-0.0386928
0.0293236
-0.0122061
-0.33017
0.100955
0.170456
-0.197907
0.0274509
0.000495025
0.0474867
-0.0479817
-0.0673626
-0.262808
-0.0449216
-0.0558661
0.100788
0.0871755
-0.256772
0.169596
0.00133573
0.000573149
0.0898117
-0.0545297
-0.035282
-0.300294
0.149579
0.150715
-0.0847313
0.101058
-0.0163264
-0.320548
0.161095
0.159452
0.0633934
0.215969
0.0844773
0.146003
-0.230481
0.15948
-0.208927
0.0494467
-0.0313232
0.00120295
-0.130915
0.0592717
-0.0964479
0.0519082
0.0445397
0.032589
-0.217286
0.184697
-0.145732
0.223211
0.00435173
-0.00627439
0.00192266
0.049856
-0.207841
0.157985
-0.000853048
-0.00192838
-0.105259
0.0475526
0.0577068
0.00763324
0.0112286
-0.0171312
0.00788703
-0.00176306
0.0509853
-0.0492222
-0.153931
0.203787
-0.0278276
0.257904
-0.0393734
0.0175012
0.0218723
-0.00636314
-0.0542339
0.0605971
-0.00241279
-0.00804885
0.0104616
-0.017896
-0.107803
0.125699
0.20768
-0.115621
0.102628
-0.120524
0.200521
-0.188473
-0.0120475
0.325032
-0.219088
-0.105944
0.213079
-0.0426229
0.0532812
0.143205
-0.196486
0.151153
-0.0126395
0.200973
-0.291302
0.090329
-0.0152679
0.0384926
-0.0232248
0.156947
0.0522485
-0.209195
-0.139693
0.140422
-0.0227649
-0.117657
-0.348855
0.273665
0.0751905
0.259908
-0.260588
0.000680379
-0.164553
-0.155995
-0.0351289
-0.0401068
0.0752357
-0.0566213
0.241979
-0.185358
0.135585
0.121969
-0.213206
0.0127767
0.20043
-0.30204
0.107458
0.103691
-0.289948
0.186257
0.0368211
0.1637
-0.111407
-0.0176562
0.129063
0.00239629
-0.0382039
0.0358076
0.296448
-0.237451
-0.0589965
0.0775327
-0.0638542
-0.0136785
-0.317768
0.198667
0.297972
-0.0401583
-0.257813
0.330383
-0.118169
-0.178648
0.211237
0.0367445
0.0530672
-0.00673334
0.0549223
-0.048189
0.00418196
-0.0129479
0.00876592
-0.0194059
0.012291
0.00711491
-0.0544947
-0.107777
0.243362
0.172453
0.178292
0.285311
-0.165345
-0.173161
-0.176538
0.0167189
-0.0119215
-0.00479745
-0.0103106
0.182818
-0.0717274
-0.238677
-0.00934621
0.248023
0.0840889
-0.0518561
-0.0322329
0.388154
-0.249321
-0.138833
0.249594
0.0396431
-0.0676815
0.0659185
0.26853
-0.0853418
-0.183188
-0.0523283
0.0528233
0.0871159
-0.207844
-0.00784376
0.00152789
0.00631587
-0.299782
0.294153
0.00562928
-0.315886
0.315886
0.0406623
-0.15207
0.114342
-0.0966806
0.0119493
0.042358
-0.0272495
0.0630121
0.0335314
-0.0965435
0.277986
-0.0989613
0.212269
-0.277832
0.0655625
-0.0137319
-0.00567404
0.00826614
-0.0118361
0.00356992
-0.011566
0.0245455
-0.0129795
0.208072
-0.227396
0.0193237
-0.0310959
-0.147001
0.178097
-0.000408661
0.0098251
0.047802
0.0362869
0.210383
0.021772
0.160593
0.0919181
0.00706362
0.00557218
-0.219522
-0.0731602
0.292682
0.158193
0.0685915
-0.0151862
0.223258
0.0112905
0.00542843
-0.101888
0.306074
-0.204186
-0.328481
0.226593
-0.212394
0.307527
-0.0951326
-0.00216967
0.00208191
8.77599e-05
0.0379886
0.0169779
-0.0549665
0.32909
-0.0774572
-0.0192081
0.118457
-0.0992489
0.266145
-0.062698
0.00452557
-0.019024
0.0144984
0.149326
-0.200904
0.0515785
0.206576
0.0800493
0.237616
0.0851581
0.107806
-0.274638
0.166832
0.0317178
0.108704
-0.109784
0.260292
-0.150508
0.0423409
-0.241366
-0.00939679
0.00726234
0.147633
-0.209215
-0.207295
0.306076
-0.0987806
-0.0488953
-0.309207
0.159751
0.149456
0.0796172
-0.0647229
-0.0148943
0.11704
-0.300836
0.183796
-0.3246
0.128157
0.196443
-0.00200006
0.00635179
0.00325302
0.00729303
-0.010546
-0.264572
0.291684
-0.0271119
0.138666
-0.191493
0.0528272
-0.133927
-0.0758179
0.209745
0.283937
-0.107331
-0.176607
0.22629
-0.0786566
-0.336949
0.237526
0.0994227
-0.061108
0.193971
-0.132863
0.152931
-0.213399
0.0604684
0.102703
-0.255715
0.153011
0.0082757
-0.0106447
0.00236898
0.113688
-0.0302018
0.244637
-0.272464
0.0491631
-0.18309
-0.11704
0.0865947
0.0304452
-0.020518
0.139529
0.00879301
-0.0106423
0.00184933
0.153326
-0.184422
-0.00541347
0.0406652
-0.0352517
0.28419
-0.246881
-0.0373091
0.110646
-0.00834557
0.221908
0.0651046
-0.287013
0.250156
-0.351103
0.100947
-0.230954
-0.0486674
0.279621
-0.135973
0.30044
0.324203
-0.0993404
0.0568039
0.0171366
-0.0739405
-0.00153083
-0.00631293
-0.244633
-0.0574071
0.207918
-0.0549872
-0.00417479
-0.00407393
0.00824872
-0.00116939
0.00101797
0.000151422
0.0107853
0.00357339
-0.0143587
0.0648338
-0.0711969
-0.0210021
0.0716045
-0.272173
0.0227663
0.249406
-0.0100361
-0.120166
0.130202
-0.089294
0.307714
-0.21842
0.0221485
-0.214438
0.19229
-0.31322
0.223926
0.0726718
0.0570801
-0.129752
0.00326707
0.00247502
0.00477122
-0.0173984
0.0126272
0.288433
-0.163255
-0.125178
0.0455274
-0.061437
0.0159095
0.268318
-0.0361448
-0.232173
0.180314
0.0971749
-0.0939196
-0.216277
0.0681711
0.180646
-0.248817
0.0947066
-0.0206843
0.0358903
0.208746
-0.00602053
0.00602053
-0.00271834
0.262626
0.262971
0.0620607
0.108529
0.182544
-0.291074
0.327451
-0.228571
-0.0988793
0.255261
-0.168085
0.108108
-0.199108
0.0910005
0.319318
-0.244385
-0.0749329
0.30291
-0.229325
-0.0735847
0.246468
-0.224319
0.0285203
0.0594849
-0.0880053
-0.000306704
0.0347249
-0.0344182
-0.138187
0.0939946
0.0441919
-0.0431983
0.0196672
0.0235311
-0.00984652
0.00471546
0.00513106
0.000208976
-0.00084785
0.000638874
-0.346948
0.23579
0.111158
0.00513729
-0.0172155
-0.0246896
-0.0185087
0.0388798
-0.0594186
0.0205388
0.308425
-0.152835
-0.155591
0.010029
-0.002094
-0.00793504
-0.317635
0.133958
0.183678
0.105651
0.223439
0.323505
-0.233586
-0.0899187
0.0507634
0.00151872
0.187474
-0.0793662
-0.300319
0.286311
0.0140083
-0.0809361
0.278152
-0.197216
-0.146612
0.254418
-0.014214
0.0554139
-0.0411999
-0.124876
0.0992287
0.0256477
-0.159374
-0.14092
0.0785442
-0.000880978
-0.0776632
0.277635
-0.178013
-0.0996218
0.00178603
0.00106352
-0.00284955
0.00113756
0.0323367
0.0281672
-0.0647339
0.0365667
0.24825
0.0546596
0.279154
-0.109638
-0.169516
-0.112673
-0.0809061
0.193579
-0.210014
0.309986
-0.0999714
0.0973554
-0.190076
0.298605
-0.0383902
-0.0997963
-0.343705
0.238975
0.10473
-0.154891
0.263974
-0.109083
0.103951
-0.287812
0.18386
-0.0931725
-0.231427
0.0252228
0.174202
-0.199425
-0.00294471
-0.00011387
0.00305858
-0.226302
0.297457
-0.0711551
0.327311
-0.23276
-0.0945503
0.00276892
-0.000230288
-0.00253863
0.108463
0.0705762
-0.140757
0.268914
-0.0342288
0.0566213
-0.0223925
-0.326272
0.166898
0.0583035
-0.00498774
0.0121603
-0.00717258
0.0993127
-0.118521
0.210947
0.0855005
-0.0248901
0.0063822
0.0185079
0.215477
-0.0768111
0.171387
0.117046
0.113663
-0.079145
-0.0345178
0.00271172
0.00267607
0.013276
-0.010023
0.106193
-0.201397
0.203391
-0.344148
0.231405
-0.0413117
-0.190093
-0.0141943
0.00920656
0.127264
0.141473
-0.268737
0.0146579
-0.026224
-0.00326653
0.000321815
0.224203
0.0500671
-0.27427
0.0308488
-0.271682
0.240833
0.00203153
0.0290317
0.00456721
-0.0335989
-0.112586
-0.033143
0.00316131
-0.007865
0.00470369
0.305357
-0.0237096
-0.281647
-0.0197394
-0.00372126
0.0234606
-0.351209
0.077003
0.274206
-0.198025
0.0864366
0.111589
0.244192
-0.296028
0.142711
0.153317
-0.140027
0.320875
-0.180848
0.067266
-0.037625
-0.0296409
0.289353
-0.0784051
-0.0830891
0.234164
0.0547225
-0.0167338
0.0237807
-0.00600727
-0.0644342
0.0577009
0.157785
0.0576925
0.0264034
-0.0172583
-0.00456816
0.103911
0.00588699
-0.00876575
-0.184707
0.290739
-0.106032
0.0135742
-0.0092091
-0.0043651
-0.112742
0.0590895
0.053652
-0.0207721
0.0291202
-0.00834816
0.205554
0.155597
0.00293352
0.00709552
0.224251
0.0651012
-0.193692
0.0895985
0.104093
0.142846
-0.229324
0.0864781
-0.17238
0.197603
-0.0115486
-0.00558261
0.140503
-0.253473
0.11297
0.0272532
-0.042521
-0.00819581
-0.074027
0.0822228
0.0430661
0.26229
0.329716
-0.107808
0.0368885
-0.0344923
0.317037
-0.189773
0.0772179
-0.0937011
0.0900662
0.194421
-0.284488
-0.209565
0.297505
-0.0879397
0.107163
0.111407
-0.21857
-0.0903926
0.233238
0.129193
-0.0531574
-0.00596015
0.0471433
-0.278097
-0.139292
0.192315
-0.0530238
0.216045
0.0939407
0.00149349
0.0781237
-0.0101241
0.000484976
0.00963915
0.0992853
-0.0839558
-0.0153295
-0.209633
0.288622
-0.0789886
0.243092
-0.190832
-0.0522599
0.209282
-0.0510885
0.316474
-0.104205
-0.292874
0.291459
0.00141568
-0.0130433
0.00395182
0.0117729
-0.010245
-0.304369
0.199272
0.105097
-0.0336144
0.0571102
-0.0234958
-0.0902793
-0.0277325
0.118012
-0.348739
0.251726
0.0970127
0.170531
0.113833
-0.284364
-0.320441
0.102033
0.218408
-0.0321488
0.039625
-0.0074762
0.165921
-0.23983
0.0739094
0.097986
0.0231113
0.0875343
-0.299947
0.235856
0.0640913
-0.00694141
-0.237692
-0.0211889
0.00945078
0.0117381
-0.184041
0.308488
-0.124446
0.164628
0.0362355
-0.200864
0.297815
-0.0893874
-0.208427
0.132645
0.135885
0.359907
-0.25279
-0.107117
0.131165
0.073379
-0.204544
0.0259706
0.00375279
-0.0297234
-0.158361
-0.106211
0.00442182
-0.0241612
-0.189639
0.279705
0.277977
-0.0537256
0.177834
-0.0693704
0.186532
0.0565605
0.190569
0.119331
-0.12231
-0.203963
0.324205
-0.22168
-0.102525
0.330551
-0.215767
-0.114784
-0.086267
-0.0163013
0.102568
-0.000534448
0.000351214
0.000183234
-0.217175
-0.103267
-0.00558788
0.00684427
-0.00125639
0.00578014
-0.00578014
-0.00152061
0.0105469
-0.00902633
0.0731507
-0.185824
-0.137943
-0.0666347
0.204578
-0.0675415
-0.225333
-0.221925
0.322096
-0.100171
-0.056387
-0.259499
0.0242941
0.0893687
0.169503
0.0384152
0.0218994
-0.0199142
-0.00198525
0.303242
-0.110542
-0.1927
0.00529408
-0.002027
-0.318288
0.14611
0.172178
0.0527865
0.22519
-0.285079
0.0754458
-0.0168708
-0.00801927
-0.298427
0.114386
-0.0123119
0.00700603
0.00530589
0.329141
-0.209475
-0.119666
0.00964394
-0.0112111
0.00156711
0.135668
-0.112791
-0.0228767
0.00492863
-0.278903
-0.330507
0.0955288
0.234978
0.184301
-0.282303
0.0980017
-0.0112684
0.0898126
0.210693
-0.0762242
-0.0127015
0.019228
-0.00652647
-0.325402
0.117307
0.208095
0.110372
-0.308056
0.227544
-0.148957
-0.0785866
0.234734
-0.127571
0.0141386
-0.0277059
0.0135674
-0.284853
0.203917
-0.0570942
0.221723
0.0175106
-0.0114693
-0.0052483
0.0952119
0.202603
-0.00716278
0.00634844
0.000814341
0.0372903
0.0174322
0.131933
-0.0752927
-0.0566405
0.00391058
-0.00532482
0.00141423
0.229146
-0.072199
0.284689
-0.24906
-0.0356284
-0.00889788
-0.00942308
-0.285538
0.0998903
0.185647
-0.0490778
0.0653483
-0.0162705
-0.197188
0.294474
0.202028
0.103256
0.00326831
-0.0110903
0.00782199
-0.0342818
-0.0161533
0.0504352
0.0004833
0.0285484
0.00248002
-0.00298506
0.000505044
0.198919
-0.0394382
0.287286
-0.104742
-0.128898
0.0752148
0.0536831
0.0440245
-0.10781
0.0637852
0.0259776
0.0412884
-0.00286351
0.0067741
0.193657
0.194496
0.0929278
-0.0402302
-0.020904
0.0611341
0.283383
-0.0673377
0.331111
-0.24574
-0.0853711
-0.167499
0.268681
-0.101182
0.141511
-0.231904
-0.0185445
-0.271389
0.0118318
-0.0011881
-0.0106437
0.220605
-0.181415
-0.0716891
0.202854
0.203097
0.0885864
0.0208201
-0.251792
0.0757775
-0.00337764
0.00679017
-0.00341253
-0.0344123
0.203915
-0.0430157
0.0466325
-0.00361679
-0.220852
0.00764549
0.0296075
-0.279648
0.25004
0.265785
-0.163082
0.304618
-0.23576
-0.0688578
-0.085789
-0.0873201
-0.0665432
0.153863
0.0952148
-0.273228
0.0191595
0.00949696
0.24083
0.0438583
0.300971
-0.136662
-0.164309
0.122772
-0.106623
-0.00890301
-0.00122112
0.0952486
-0.242218
0.146969
-0.189901
0.0428994
-0.0348359
0.149764
0.00928765
0.00175484
-0.0110425
0.233819
0.0707984
-0.0995682
-0.0327669
0.132335
0.211161
0.0514311
-0.262592
0.269828
-0.096003
-0.173825
-0.0467543
0.00373865
-0.113592
0.325519
-0.244532
-0.0809863
-0.164417
0.260066
-0.0956495
0.0229977
-0.0572264
0.295786
-0.217612
-0.0781739
0.129641
-0.0228559
0.0351828
-0.0123269
0.0499299
-0.236541
0.186611
-0.073249
0.0963603
-0.234324
0.091881
0.104534
-0.288713
0.184179
0.00267087
-0.00088484
0.00609829
0.118819
-0.124917
-0.0610264
-0.0517151
0.0996699
0.183713
-0.292341
0.288048
0.004293
0.184423
-0.251198
0.0667748
-0.104274
-0.0937512
0.283306
-0.295686
0.01238
0.0434971
-0.0644992
0.226093
-0.152108
-0.0739844
-0.00671278
0.0108947
-0.00781519
0.00423568
0.0035795
-0.341599
0.125385
0.216215
0.00227646
-0.00686688
-0.0359596
0.0428265
0.0679637
0.138003
-0.205967
0.125122
0.198383
0.138683
-0.0660113
0.25023
0.0455561
-0.171727
0.073653
0.0980737
0.0884702
0.142935
0.343808
-0.227637
-0.116171
0.204278
-0.0464937
0.057652
-0.0187722
0.0106891
-0.00192089
-0.0087682
0.250594
-0.168351
-0.0822431
-0.157445
0.0964257
0.0610192
-0.218583
0.293046
-0.0693392
-0.223707
0.00519798
-0.0205262
0.0153282
-0.0819457
-0.203351
0.285297
-0.0018418
0.00168448
0.000157321
0.0136815
0.270509
-0.0260679
0.0270838
-0.00101587
0.0834826
-0.0832554
-0.000227148
0.227615
0.0939492
-0.293212
0.207998
0.0852135
-0.122333
-0.188561
0.293952
-0.105391
-0.0128737
-0.0394546
-0.32291
0.103388
-0.010397
0.0186445
-0.00824749
0.182605
-0.292447
0.109842
0.0903912
0.191702
-0.282093
0.0293041
-0.0151655
0.0511674
-0.199999
0.148831
0.0263373
0.10933
-0.235169
0.32005
-0.0848808
0.339862
-0.2153
-0.124562
0.0985208
0.0271003
-0.125621
-0.267266
0.344654
-0.0773883
0.109309
0.0685246
-0.033719
0.0272116
0.00650739
0.0933125
0.174285
0.0435414
-0.0698778
0.0263364
0.10738
-0.0412467
-0.0661338
-0.360074
0.276521
0.0835533
0.174244
-0.262645
0.0884014
0.0153581
0.00110761
0.0038113
0.00643696
-0.0102483
-0.133126
0.211101
-0.0779747
-0.0127005
-0.00685814
0.0195586
0.00594663
-0.000433515
0.17938
0.0712136
-0.0862295
0.13639
-0.157049
0.231436
-0.0743872
-0.374203
0.24952
0.124683
0.319454
-0.240984
-0.0784702
0.00354415
-0.00309597
-0.000448182
0.255484
-0.151533
0.186437
-0.120116
-0.0663209
0.0604813
-0.0149539
0.172635
-0.0721245
0.0845904
-0.0355946
-0.0489958
0.00726939
-0.00968217
0.0636189
0.0209714
0.16523
-0.0891592
-0.0760705
0.107101
0.0388602
-0.0739891
0.0478651
0.144575
-0.19244
0.238795
-0.103387
-0.135408
-0.0379906
0.0661578
0.224312
-0.0828008
0.00622289
-0.00708886
0.000865971
-0.139685
0.286053
-0.146368
-0.143367
0.0298786
0.113488
-0.0915111
0.0362527
0.0552584
0.0964758
0.206664
-0.105286
-0.101378
0.0984015
0.0750545
-0.173456
0.102207
-0.297012
0.194805
-0.0859518
0.183072
-0.0971205
0.0107181
-0.00744984
0.0471605
-0.134481
-0.0987903
0.266923
-0.189624
-0.0772993
-0.0168419
0.00644495
0.0977341
-0.0205162
-0.00722937
-0.0446267
0.115294
0.208909
0.0900504
0.0556
-0.14565
0.1199
-0.129937
0.0887482
0.0765514
-0.122147
-0.0368244
0.158971
0.0977345
0.169188
0.0406256
0.205842
0.00303452
0.00225956
-0.0259242
0.0694213
0.0912025
0.00828319
0.0024059
0.263459
-0.14556
-0.117899
0.0901995
0.00908583
-0.116574
0.181263
-0.0646893
-0.0164991
0.00379859
-0.0251103
0.0917244
-0.0666141
-0.0451089
0.038242
0.0014019
5.96953e-05
-0.0014616
0.133433
-0.22056
0.0871265
0.0665219
0.0640012
-0.130523
0.00888053
-0.00060483
-0.0449676
0.0945425
-0.0495749
0.0728596
-0.192747
0.119887
0.00375295
0.0197225
-0.0234754
-0.00308777
0.0123754
-0.0443356
0.268579
0.00101332
0.000136657
-0.00114998
0.19362
-0.142452
0.0282355
0.267968
-0.16938
-0.0985877
-0.302079
0.0460289
0.256051
0.171301
0.137124
0.0156975
-0.0035372
0.0065373
-0.00490269
-0.00163461
-0.0340872
0.00737162
0.0267156
-0.00610539
0.00651832
-0.000412926
-0.0294513
-0.185836
0.0019801
-0.00756798
-0.110023
0.0651009
-0.127896
0.259661
-0.192062
-0.00457999
-0.00526654
0.101652
0.161807
0.00994345
0.00575408
0.141364
-0.340422
0.199057
0.00351186
-0.000477347
0.295944
-0.192253
-0.195584
-0.0856934
0.286667
0.0960855
-0.104281
-0.202409
0.300154
-0.0977455
0.230812
-0.272777
0.0419648
-0.047818
0.231404
0.368018
-0.221821
-0.146197
0.157228
-0.248226
0.0909984
0.24154
-0.060894
0.0795009
0.108564
-0.188065
-0.000843221
-0.00132645
-0.0493176
-0.00346061
0.0527782
0.181147
-0.153541
-0.0276055
0.0164036
-0.223656
0.207252
-0.00631905
0.0239091
-0.01759
-0.330822
0.227806
0.103015
0.0221406
-0.0953896
0.0591044
-0.247883
0.114965
-0.333226
0.218261
0.0307695
-0.017773
-0.0129965
-0.278138
0.0906306
0.187508
0.0476473
0.151084
-0.198731
0.250674
-0.344211
0.0935368
-0.0468311
0.103949
-0.0571179
0.177842
-0.0685327
0.0123129
-0.00236947
-0.0555992
0.178784
-0.0133618
0.0178874
0.0940762
0.0394704
-0.0249592
-0.0145112
0.195699
-0.14577
0.00768308
0.00982752
0.285947
0.00709919
0.184109
-0.283388
0.0684409
0.138223
0.0197504
0.0637322
-0.0140174
0.0484239
0.300879
-0.108377
0.192863
-0.120004
-0.0405753
0.19294
0.13451
-0.0612002
0.00483423
0.0563659
-0.0877877
0.262031
0.00375433
0.00981988
0.0609312
-0.0681606
0.00292154
-0.0159896
0.013068
-0.0021992
0.00196892
-0.0606346
0.0477609
-0.278205
0.247833
0.0303716
0.101368
-0.277692
0.176324
0.0556688
-0.118614
0.0445194
0.0182813
-0.0628006
-0.0116151
0.0145367
0.0141254
-0.0111919
0.295752
-0.0342708
-0.261481
-0.0789534
-0.238682
-0.0956151
0.0805168
0.0150982
0.181168
-0.270652
0.0894845
0.167953
0.0729113
-0.240864
0.0890008
0.0868429
0.151952
0.0606502
0.0168824
-0.0221603
-0.00056947
0.0227297
0.0124826
-0.0180695
0.00558689
0.164331
-0.0659292
-0.00297854
-0.00483665
-0.00129258
0.00751547
0.0035354
0.119237
0.021813
-0.0255342
0.0531447
0.168989
-0.222134
0.239212
-0.198586
-0.252606
-0.0255991
0.248754
-0.0881614
0.0118764
0.0188931
0.106723
0.0760959
0.101146
-0.303806
0.20266
0.164358
-0.168081
0.00372314
-0.00369515
-0.000592639
0.143443
-0.205821
0.0623777
0.161319
-0.354209
0.19289
-0.107941
-0.177597
0.119917
-0.0608275
-0.211234
0.272321
-0.0610861
0.100855
0.229528
-0.184602
0.0078655
0.00396631
-0.238747
-0.089734
0.200625
0.0600277
-0.260652
-0.242145
0.33493
-0.0927848
-0.173319
-0.135887
-0.0998529
0.0557771
0.0440758
-0.302667
0.0850555
0.00130364
0.00853837
-0.00984201
-0.0973587
0.00174367
0.0200727
-0.059019
0.0389463
-0.0245599
-0.0366402
0.00316544
0.000346421
-0.0209753
-0.012019
0.0329943
-0.140748
-0.213462
0.206698
0.101015
0.304076
-0.102376
-0.201699
0.204493
0.10158
0.245471
-0.150222
0.18368
-0.14737
-0.0363093
-0.0905729
0.0170811
0.0734919
0.253538
-0.113034
0.00388875
0.0329998
-0.043709
-0.152019
-0.0388581
0.190877
-0.0245017
0.131298
0.0654554
-0.196753
-0.0705866
-0.289487
0.280554
-0.190163
-0.190256
0.279585
-0.0893285
0.177437
-0.301055
0.123617
0.0197639
-0.0396739
0.01991
0.00732167
-0.0224098
-0.0169636
-0.0563853
0.00706764
-0.278044
0.336433
-0.191793
-0.144639
-0.0576923
-0.131899
0.189591
0.32347
-0.123159
-0.200311
0.0337401
-0.0340468
0.348842
-0.247853
-0.100989
0.192015
-0.0607179
-0.0173533
0.0546437
0.00615377
-0.267728
0.261575
-0.0126201
0.0189423
-0.144699
-0.216841
0.149751
0.186682
0.175684
-0.0457047
-0.129979
-0.216692
-0.0859751
0.294098
-0.197634
-0.0964639
0.00256154
0.0115639
-0.0493854
0.0479396
0.00144581
-0.0678395
0.134361
-0.0197853
0.0643047
-0.00298459
0.024884
0.222077
-0.135234
-0.09167
0.11427
-0.0225999
0.0505204
-0.0710881
0.0205677
-0.200965
0.282374
-0.0814098
-0.245066
0.0995062
-0.104867
-0.156555
0.261422
0.299632
-0.098489
-0.201142
-0.185595
-0.161353
-0.0977289
-0.0456379
0.0841607
0.172495
-0.256656
-0.30957
0.0631065
0.246464
0.361048
-0.254394
-0.106654
-0.322553
0.191705
0.1403
0.0408468
0.259454
-0.119679
-0.139775
0.0794065
0.124028
0.17007
-0.132299
0.240643
-0.108344
0.0714893
-0.282724
0.146194
0.221824
-0.0169297
-0.180704
0.199931
-0.296491
0.0965596
0.11628
0.116902
-0.233183
0.0085515
0.0751489
-0.0969501
0.057073
-0.173261
0.116187
-0.0239323
-0.0886317
0.112564
0.210995
-0.320627
0.109632
0.2676
-0.0864318
-0.00419067
-0.0179696
0.227409
-0.0505505
-0.176859
-0.223152
-0.112593
0.000247253
0.00223276
0.165773
0.0983271
-0.2641
-0.00125567
-0.000586126
0.00266126
0.00387604
0.118469
-0.149538
0.0310694
0.0715539
0.0483631
0.0420242
-0.233979
0.191955
0.000917938
-0.0396663
0.0387484
0.193353
-0.210282
-0.153795
-0.186627
-0.27794
0.0878641
-0.180508
-0.0645587
0.323193
-0.164297
-0.158895
0.121578
0.0569061
-0.178484
-8.2469e-05
0.00109579
-0.00594271
0.0463726
-0.0404299
0.00643234
0.0024372
-0.00886954
0.253905
-0.211881
0.154311
0.0992265
0.0102459
-0.0331018
0.0177068
0.0769516
-0.0946585
0.262051
-0.0962788
0.0961772
-0.078006
-0.0181712
-0.132917
0.189601
-0.00166315
-0.000810921
0.00247407
-0.194586
0.298912
-0.104326
0.0360892
0.15753
0.00172151
-0.00257751
0.000856
0.31281
-0.270091
-0.0427192
0.337798
-0.199047
-0.138751
0.13112
0.0445638
0.294331
-0.243357
-0.0509735
0.00323785
0.000306303
0.0934836
0.154549
-0.248032
0.102369
0.119707
0.274186
-0.201176
-0.07301
0.201561
0.136237
0.197121
0.0302883
0.0101275
-0.0116481
0.302282
-0.240584
-0.0616978
0.120085
0.0663512
0.287193
-0.185099
-0.102094
0.0175448
-0.0238638
0.0580152
-0.0827092
0.0246939
0.254718
-0.100407
-0.310587
0.225217
0.08537
-0.0325858
0.196944
0.0878117
0.21182
-0.003776
0.00695795
-0.00318195
-0.155421
0.19151
0.226705
0.0967647
0.192811
-0.145164
0.291655
-0.201713
-0.0899417
0.278585
-0.24395
-0.0346352
-0.158713
-0.145666
0.304379
-0.0936273
0.173128
0.215373
-0.140623
-0.07475
0.0573978
0.0407505
-0.0981483
0.237923
-0.0437706
-0.194152
-0.148741
0.0404092
0.143984
0.110734
0.228283
-0.0673907
-0.160892
0.230529
-0.0646087
-0.00136312
-0.00474227
0.222208
-0.243447
0.0212393
-0.00248934
0.000826193
0.0605316
0.0356456
0.28953
-0.289478
-5.27985e-05
0.173411
-0.125546
-0.0822482
-0.174204
0.256452
0.0275395
-0.00837996
0.128042
-0.112954
-0.0150889
0.130898
-0.0353084
-0.0955897
0.313282
-0.0896925
-0.206318
0.315653
-0.109334
0.0395026
-0.0292567
-0.0421143
0.255982
-0.157508
0.0239125
0.133595
0.145744
0.0847849
0.00853778
0.00377514
-0.235269
0.220172
0.0821101
-0.18706
-0.0644088
0.251469
0.0390704
-0.245996
0.206925
0.00749132
-0.0241292
0.0166379
0.00577711
-0.00577711
-0.211923
0.320999
-0.109076
-0.317981
0.224894
0.0930871
-0.194409
0.122059
0.0723499
0.272294
0.0470242
-0.0949456
-0.204504
0.358489
-0.153985
0.241865
-0.202794
-0.190694
0.144046
0.046648
0.0019723
0.00980061
-0.1094
0.0634708
0.0459297
-0.0498032
0.0438605
0.00412291
0.0143216
-0.0184445
0.0968777
0.00279349
-0.0996712
-0.13023
-0.0414966
-0.2976
0.0912813
0.269597
-0.0981861
-0.171411
0.00952848
-0.00777364
-0.0309762
0.0805862
-0.0496101
0.0162721
-0.0612397
0.187533
-0.155376
-0.0321564
0.166119
-0.127992
0.000181128
0.00122077
0.123767
-0.313232
0.14893
-0.252909
0.103978
-0.191249
0.287449
-0.0961994
-0.210212
0.0770857
0.215407
0.0742668
-0.289673
0.103338
0.175816
0.0134735
-0.00520741
0.000722249
-0.00471218
0.00398993
-0.00489998
0.132942
-0.212991
-0.101166
0.314158
0.283998
-0.0996968
0.0136123
-0.0163245
0.00271224
-0.247664
-0.0349187
0.282583
0.308921
-0.221109
-0.0829217
-0.21686
-0.200087
0.123706
0.057176
-0.180882
-0.103316
0.00656936
0.000962756
-0.00753211
0.276659
0.0361508
-0.0205984
0.119119
0.0291284
0.061011
-0.0901394
0.144738
0.0706352
-0.199988
-0.0976114
-0.288059
0.108365
0.179693
0.187821
-0.100157
-0.0876637
-0.0132067
0.00260009
0.0106067
0.30058
-0.250889
-0.0496909
0.267544
-0.118614
-0.144689
0.352651
-0.207961
0.00606122
-0.0286096
0.0225484
0.116388
-0.213423
0.244272
0.0310744
0.156458
-0.00613065
0.00113388
0.00499677
0.226521
-0.00431324
-0.0556137
0.0103907
0.0452229
0.00629414
-0.0164526
0.0101585
0.0878255
-0.0963798
0.00855432
-0.0614136
0.204857
-0.109832
0.138396
-0.0285635
0.060549
0.122546
-0.183095
0.00849265
0.000300365
0.267028
0.0153981
-0.282426
-0.0948855
0.23887
0.173734
0.107943
-0.281677
0.24523
0.0333555
0.283247
-0.107688
-0.175559
-0.00900218
0.000454496
0.32213
-0.207165
0.0881037
0.0997169
-0.0728928
0.0272856
0.0456073
-0.128211
-0.0882582
0.216469
-0.00425117
0.00497341
0.00740686
0.0027055
-0.0101124
0.178218
-0.0714955
-0.00912503
-0.0341099
0.0432349
-0.0935447
0.111252
-0.040668
-0.0591849
-0.00701647
-0.000146313
0.0178784
-0.0569539
0.0390756
-0.00421551
-0.00762054
0.0486012
-0.237036
0.188435
-0.127818
0.0464197
0.0813984
-0.231408
-0.00726859
0.149936
-0.185983
0.0360465
-0.0173362
0.00414544
0.0131908
0.0659374
0.0287692
-0.0646147
0.0733392
-0.00872445
-0.237155
-0.0649248
-0.092624
0.282952
-0.190328
0.00912003
0.0869655
0.0690993
-0.206134
0.137035
-0.294632
0.0224592
-0.0132133
0.0247152
0.0706784
-0.0953936
-0.0258102
-0.131697
-0.170661
0.148358
0.0223028
0.0400704
0.0182542
-0.0583245
0.0199793
-0.0162264
0.00373186
-0.0103376
-0.0603657
0.241198
-0.180832