/*--------------------------------*- C++ -*----------------------------------*\
| =========                 |                                                 |
| \\      /  F ield         | OpenFOAM: The Open Source CFD Toolbox           |
|  \\    /   O peration     | Version:  v2012                                 |
|   \\  /    A nd           | Website:  www.openfoam.com                      |
|    \\/     M anipulation  |                                                 |
\*---------------------------------------------------------------------------*/
FoamFile
{
    version     2.0;
    format      ascii;
    class       surfaceScalarField;
    location    "300";
    object      phi_0;
}
// * * * * * * * * * * * * * * * * * * * * * * * * * * * * * * * * * * * * * //

dimensions      [0 3 -1 0 0 0 0];
oriented        oriented;


internalField   nonuniform List<scalar> 
78975
(
0.056645
-0.198401
0.141756
0.124409
-0.113877
-0.0105322
0.0126358
-0.00874225
-0.00389352
-0.0720944
-0.145634
0.217729
-0.0689108
-0.159708
0.228619
-0.165527
-0.143348
0.308874
0.176021
0.0634047
-0.239425
0.35863
-0.182209
-0.176421
-0.212509
0.172645
0.039864
-0.121517
0.302915
-0.181397
0.22359
0.067499
-0.291089
-0.0796666
0.0300265
0.0496401
0.386909
-0.310812
-0.0760972
-0.00278675
0.00137858
0.00140817
0.0920142
-0.22083
0.128816
0.114977
-0.153975
0.0389977
0.224243
-0.329686
0.105442
0.208115
-0.223435
0.0153203
0.130519
-0.110695
-0.0198245
0.334239
-0.0919228
-0.242316
0.283573
-0.19226
-0.0913129
0.00313424
-0.000746713
-0.00238753
0.08413
-0.00337679
-0.0807532
0.000388759
0.000208651
-0.00059741
-0.298731
0.177214
0.185077
-0.0885006
-0.096576
0.218705
-0.0105907
0.360248
-0.159776
-0.200472
0.00578674
-0.0021908
-0.00359593
0.164507
-0.0809271
-0.0295208
0.110448
0.0836812
0.250558
0.00538827
-0.00332428
-0.00206399
0.309905
-0.24135
-0.0685544
0.107592
-0.335745
0.228153
0.305284
-0.197692
-0.176015
0.321564
-0.14555
0.262323
-0.254843
-0.00748034
-0.199028
-0.0622843
0.261313
0.00339681
0.00565792
-0.00905472
-0.0301988
0.0369701
-0.00677125
0.00284974
-0.00629426
0.00344452
-0.130847
-0.171247
-0.355693
0.16906
0.186633
0.00191258
-0.00194836
3.57757e-05
0.00138205
0.00175219
-0.00595992
0.00123821
0.00472171
0.166158
-0.235069
0.0150691
0.247254
-0.00287872
0.00998796
-0.179869
0.0848387
0.0950299
0.0171179
-0.0262252
0.00910724
0.350746
-0.203437
-0.147309
0.111338
0.0743205
-0.185658
0.277474
-0.207484
-0.0699895
0.0292122
-0.0475656
0.0183534
-0.0120777
0.0196633
-0.00758559
-0.307438
0.137156
0.170282
-0.320548
0.118159
0.202389
-0.337046
0.241734
0.0953113
0.082065
0.179025
-0.26109
0.164467
-0.293723
0.129256
-0.142443
0.235786
-0.0933431
-0.120532
-0.0593363
-0.224999
-0.0955493
-0.00660514
0.00945488
-0.00740811
0.0166838
-0.00927569
0.0557268
0.0141738
-0.0699006
0.183586
0.026896
-0.210482
0.125182
-0.249588
0.124406
0.310374
-0.0971959
-0.213179
0.286626
-0.197685
-0.088941
0.321352
-0.230721
-0.0906306
0.309376
-0.140886
-0.16849
0.0740222
0.00481085
-0.0788331
-0.122296
0.165299
-0.0430033
0.212215
0.146415
-0.194582
-0.0892641
0.283847
0.107902
0.0771744
-0.0952035
-0.107139
0.202343
-0.117311
-0.181421
-0.345921
0.24462
0.101301
0.0568827
-0.0276705
0.02308
-0.104007
-0.341627
0.0944407
0.247186
0.13447
0.0381259
-0.172596
0.0926174
-0.0423371
-0.0502803
-0.113834
0.0507646
0.0630696
0.100511
-0.17546
0.0749493
0.153508
0.100269
-0.253777
0.323059
-0.271329
-0.0517306
-0.180631
0.286934
-0.106304
0.171891
-0.265178
0.0932868
-0.229215
-0.112412
-0.0562249
-0.0576094
0.155911
-0.20028
0.0443687
0.230077
0.0326982
-0.262775
0.280309
0.04275
0.145589
0.24132
0.257554
-0.132372
-0.188779
0.270844
-0.170159
-0.166886
-0.0165102
0.10064
0.251632
0.108616
0.0706754
0.239699
0.0151027
-0.047756
0.0326533
0.0118586
0.0506083
-0.0624669
-0.0218378
0.00606645
0.0157713
0.0810959
-0.175455
0.0943592
0.151028
-0.229304
0.0782758
-0.0090915
-0.00447809
0.0135696
0.00802286
-0.0179432
0.00992037
0.0522819
-0.0542859
0.00200406
-0.253291
-0.0105415
0.263832
-0.120727
0.209234
-0.088507
0.143786
-0.232849
0.0890626
-0.0993867
0.300471
-0.201084
0.179041
-0.0677036
0.0459464
0.046671
-0.061616
0.217527
0.373168
-0.280861
-0.0923069
0.0774784
-0.224169
0.146691
0.0334742
-0.0352584
0.00178422
0.11901
-0.12713
0.00812008
0.361151
-0.250506
-0.110646
0.01779
0.00629869
-0.0240887
0.138586
-0.142163
0.00357669
-0.0746538
-0.0218119
0.0964657
0.00941674
-0.00791637
-0.00150036
0.0161492
0.11437
0.287624
-0.240679
-0.0469446
0.10184
0.0344792
0.0305412
-0.0650204
0.0501556
0.0959276
-0.146083
-0.0152422
0.00783411
0.258803
-0.105294
0.289237
0.00379217
-0.293029
-0.310196
0.125303
0.184893
0.0168495
-0.00882664
0.264607
0.023017
0.00254674
-0.00260748
6.0736e-05
0.0188613
-0.00924332
-0.00961802
0.203444
0.0155191
-0.218963
-0.349699
0.252725
0.0969738
-0.189465
-0.110894
0.30036
0.0834862
-0.113007
-0.215284
0.0783747
0.136909
0.130254
-0.00584508
0.278491
0.0106068
-0.289098
0.267597
-0.18632
-0.0812779
-0.00975064
0.00247233
0.00727831
-0.306671
0.210581
0.0960897
-0.0629476
-0.0479777
0.110925
0.0164645
-0.00392669
-0.0125378
-0.000813281
0.00219533
0.111091
0.0737419
-0.184833
0.226741
-0.0851548
-0.141587
-0.0334478
0.0319061
0.00154171
-0.289933
0.124407
0.18827
-0.107175
-0.119101
0.323982
-0.204881
-0.262845
-0.0928472
-0.0537176
0.262315
-0.208597
0.232155
-0.247775
0.0156201
0.213868
-0.267586
0.000741902
-0.000353143
-0.0714035
0.0544333
0.0169702
0.0286538
-0.0215241
-0.00712968
0.0391894
-0.277356
0.238167
0.224862
-0.36154
0.136678
-0.0716398
0.134481
-0.0628412
-0.0208178
0.123185
0.0413138
-0.164499
0.0676138
-0.267538
0.199924
0.177071
-0.294381
0.322774
-0.0696829
-0.253091
0.247251
0.0312396
0.252511
-0.108724
-0.0561725
-0.015231
-0.00222356
-0.120073
0.0760362
-0.116724
0.040688
-0.162557
-0.0499513
0.32417
-0.212104
-0.112066
0.192502
-0.335849
-0.145796
0.0647701
0.0810263
0.0741683
-0.327459
0.0972859
-0.310361
0.213075
-0.00219969
-0.00755095
0.00970701
-0.00631021
-0.00213457
0.00852674
-0.00639218
0.279362
-0.0689983
-0.210364
-0.00426598
0.00425075
1.52355e-05
-0.108333
0.163456
-0.0551226
0.0505561
-0.0386975
0.0293233
-0.0122054
-0.33017
0.100955
0.170353
-0.197856
0.0275034
0.000498942
0.0474837
-0.0479827
-0.0673626
-0.262808
-0.0449523
-0.0558968
0.100849
0.0871755
-0.256772
0.169596
0.0013382
0.000574387
0.0898118
-0.0545283
-0.0352835
-0.300294
0.149579
0.150715
-0.0847325
0.101068
-0.0163359
-0.320559
0.161116
0.159444
0.0633934
0.215969
0.0844767
0.146003
-0.23048
0.159398
-0.208904
0.0495057
-0.0313484
0.00114958
-0.130914
0.0592742
-0.0964476
0.051908
0.0445396
0.0322956
-0.217197
0.184902
-0.145732
0.223211
0.00436098
-0.00624894
0.00188796
0.0498562
-0.207842
0.157986
-0.000854842
-0.00193191
-0.105259
0.0475524
0.0577068
0.00763352
0.0112278
-0.0171305
0.00788718
-0.00176322
0.0509852
-0.049222
-0.153931
0.203788
-0.0278276
0.257904
-0.0393746
0.0175027
0.0218719
-0.00636228
-0.0542342
0.0605965
-0.00241267
-0.00804855
0.0104612
-0.0178965
-0.107802
0.125699
0.207634
-0.11562
0.102628
-0.120525
0.200521
-0.188473
-0.0120475
0.325032
-0.219088
-0.105944
0.213028
-0.0426747
0.0532811
0.143205
-0.196486
0.151131
-0.0125444
0.200973
-0.291302
0.090329
-0.0152692
0.0384939
-0.0232247
0.156947
0.0522485
-0.209195
-0.139693
0.140415
-0.0227629
-0.117652
-0.348855
0.273664
0.0751907
0.259883
-0.260592
0.000709046
-0.164551
-0.156009
-0.0351278
-0.0401074
0.0752351
-0.0562945
0.241863
-0.185569
0.135585
0.121969
-0.213098
0.0127876
0.20031
-0.30204
0.107458
0.103691
-0.289948
0.186257
0.0368211
0.1637
-0.111408
-0.0176557
0.129063
0.00235052
-0.0381949
0.0358444
0.296446
-0.237396
-0.0590505
0.0775322
-0.0638539
-0.0136784
-0.317768
0.198667
0.297972
-0.0401583
-0.257813
0.330383
-0.118169
-0.178859
0.211155
0.0367425
0.0530693
-0.00673364
0.0549225
-0.0481889
0.00418208
-0.0129483
0.00876624
-0.019405
0.0122909
0.00711409
-0.0544946
-0.107777
0.243362
0.172453
0.178292
0.285252
-0.165506
-0.173161
-0.176538
0.0167184
-0.0119206
-0.00479779
-0.0103097
0.182818
-0.0717272
-0.238682
-0.00935952
0.248042
0.0840883
-0.0518548
-0.0322335
0.388155
-0.249321
-0.138835
0.249594
0.0396431
-0.0676814
0.0659182
0.268533
-0.0853395
-0.183194
-0.0523259
0.0528248
0.0871176
-0.207845
-0.00784312
0.00152841
0.0063147
-0.299782
0.294153
0.00562928
-0.315886
0.315886
0.0406618
-0.152069
0.114101
-0.0966912
0.0119586
0.0423552
-0.0272525
0.0630138
0.0335408
-0.0965546
0.277986
-0.0989613
0.212258
-0.277822
0.0655646
-0.0137317
-0.00567333
0.00826096
-0.0118363
0.00357531
-0.0115655
0.0245453
-0.0129798
0.207974
-0.227542
0.019568
-0.0311764
-0.146933
0.178109
-0.000408662
0.0098254
0.0478004
0.0362878
0.210383
0.021772
0.160593
0.0919181
0.00706374
0.00557204
-0.219522
-0.0731601
0.292682
0.158193
0.0685482
-0.015332
0.223306
0.0112897
0.00542871
-0.101888
0.306074
-0.204186
-0.328481
0.226593
-0.212394
0.307527
-0.0951326
-0.0021753
0.00208765
8.76431e-05
0.0379879
0.0169764
-0.0549643
0.329089
-0.0774566
-0.0192084
0.118457
-0.0992482
0.266124
-0.0626804
0.00452519
-0.0190235
0.0144984
0.149257
-0.20091
0.0516523
0.206576
0.0800493
0.237616
0.0851581
0.107806
-0.274638
0.166832
0.0317161
0.108699
-0.109784
0.260292
-0.150508
0.0423475
-0.241376
-0.00939657
0.00726201
0.147674
-0.20929
-0.207295
0.306075
-0.0987796
-0.0488952
-0.309207
0.159751
0.149456
0.0796333
-0.0647289
-0.0149044
0.11704
-0.300836
0.183796
-0.324602
0.128157
0.196445
-0.00196848
0.00632946
0.00325326
0.0073056
-0.0105589
-0.264572
0.291684
-0.0271119
0.138616
-0.191493
0.0528766
-0.133927
-0.0758179
0.209744
0.283977
-0.107475
-0.176501
0.226378
-0.0787034
-0.336949
0.237526
0.0994226
-0.0611108
0.193976
-0.132865
0.152733
-0.213326
0.0605936
0.102703
-0.255715
0.153012
0.0082754
-0.0106443
0.00236894
0.113688
-0.0302018
0.244637
-0.272464
0.0491632
-0.18309
-0.11704
0.0865948
0.0304452
-0.0205187
0.139529
0.00879278
-0.0106421
0.00184934
0.15322
-0.184397
-0.00540724
0.0406607
-0.0352535
0.28419
-0.246881
-0.0373097
0.110646
-0.00834559
0.221908
0.0651046
-0.287012
0.250156
-0.351103
0.100947
-0.230964
-0.0486493
0.279613
-0.135973
0.30044
0.324203
-0.0993405
0.0567796
0.0171666
-0.0739462
-0.00153092
-0.0063122
-0.244633
-0.0574072
0.207904
-0.0551719
-0.00417456
-0.00407335
0.00824791
-0.00116267
0.00101118
0.000151493
0.0107682
0.0035602
-0.0143284
0.0648342
-0.0711965
-0.0209953
0.0716036
-0.272173
0.0227663
0.249406
-0.010074
-0.120026
0.1301
-0.089294
0.307714
-0.21842
0.0221607
-0.214453
0.192292
-0.31322
0.223926
0.0726693
0.0570811
-0.12975
0.0033078
0.00247894
0.00479345
-0.0173979
0.0126045
0.288408
-0.163246
-0.125162
0.045542
-0.0614809
0.0159388
0.268318
-0.0361448
-0.232173
0.180312
0.0971617
-0.0939221
-0.216274
0.0681711
0.180646
-0.248817
0.0947065
-0.0206843
0.0358903
0.208746
-0.00602071
0.00602071
-0.0027404
0.262623
0.262971
0.0620606
0.108529
0.182544
-0.291074
0.327451
-0.228571
-0.0988791
0.255261
-0.168085
0.107947
-0.199193
0.0912462
0.319319
-0.244386
-0.0749325
0.30291
-0.229325
-0.0735847
0.246481
-0.22432
0.028494
0.0595482
-0.0880422
-0.000258789
0.0347058
-0.034447
-0.138176
0.0941122
0.0440641
-0.0431992
0.0196686
0.0235306
-0.00984639
0.00471544
0.00513095
0.00020889
-0.000848957
0.000640067
-0.346948
0.23579
0.111158
0.00511943
-0.0171971
-0.024691
-0.0185082
0.0388922
-0.0594224
0.0205302
0.308425
-0.152835
-0.155591
0.0100301
-0.00209409
-0.00793596
-0.317635
0.133958
0.183678
0.10565
0.223439
0.323505
-0.233586
-0.0899187
0.0507971
0.00148473
0.187509
-0.079562
-0.300319
0.286311
0.0140083
-0.0809348
0.27815
-0.197215
-0.146612
0.254418
-0.0142117
0.0554116
-0.0411999
-0.124877
0.0992237
0.0256535
-0.159374
-0.14092
0.0785448
-0.00088147
-0.0776633
0.277635
-0.178013
-0.0996218
0.00178721
0.00106764
-0.00285485
0.00113655
0.0323376
0.0281675
-0.064734
0.0365665
0.24825
0.0546596
0.2791
-0.10941
-0.169691
-0.112673
-0.0809063
0.193579
-0.210014
0.309986
-0.0999714
0.0973554
-0.190076
0.298605
-0.0382551
-0.0999212
-0.343705
0.238975
0.104731
-0.154891
0.263974
-0.109083
0.10395
-0.287804
0.183854
-0.0931719
-0.23143
0.0252228
0.174202
-0.199425
-0.00295217
-0.000108059
0.00306023
-0.226292
0.297437
-0.0711449
0.327311
-0.23276
-0.0945503
0.00277429
-0.00024054
-0.00253375
0.108467
0.0705747
-0.14076
0.268917
-0.0342277
0.0566208
-0.0223932
-0.326272
0.166898
0.0583035
-0.00501463
0.012172
-0.00715733
0.0993121
-0.118521
0.2109
0.085546
-0.0248816
0.00637319
0.0185085
0.21549
-0.0768732
0.171374
0.117034
0.113669
-0.0791467
-0.0345226
0.00271544
0.00267283
0.0132888
-0.0100356
0.106193
-0.201397
0.203392
-0.344152
0.231407
-0.0413158
-0.190091
-0.0142005
0.0091859
0.127264
0.141473
-0.268737
0.0146583
-0.0262239
-0.00326779
0.000315619
0.224203
0.050067
-0.27427
0.0308488
-0.271682
0.240833
0.00202758
0.0290325
0.00456785
-0.0336004
-0.112616
-0.0331805
0.00316129
-0.00787419
0.0047129
0.305357
-0.0237096
-0.281647
-0.0197151
-0.00373657
0.0234517
-0.351209
0.077003
0.274206
-0.198025
0.0864366
0.111589
0.244192
-0.296028
0.142711
0.153317
-0.140027
0.320875
-0.180848
0.0673052
-0.0376518
-0.0296534
0.289372
-0.0784714
-0.0831588
0.234187
0.0547202
-0.0167323
0.0237734
-0.00598344
-0.0644344
0.0577007
0.157743
0.0577468
0.0264146
-0.0172499
-0.00458786
0.103911
0.00588679
-0.00876552
-0.184707
0.290739
-0.106032
0.0135738
-0.00920878
-0.00436499
-0.112707
0.0590805
0.0536266
-0.0207726
0.0291198
-0.00834721
0.205554
0.155597
0.00293301
0.00709705
0.224212
0.0651598
-0.19369
0.0895975
0.104093
0.142846
-0.229324
0.0864784
-0.17238
0.197603
-0.0115485
-0.00558198
0.140503
-0.253473
0.11297
0.0272526
-0.0425218
-0.00820544
-0.0740002
0.0822057
0.0430661
0.26229
0.329716
-0.107808
0.0368821
-0.0345315
0.317037
-0.189773
0.0772048
-0.0937151
0.0900663
0.194421
-0.284488
-0.209565
0.297505
-0.0879397
0.107162
0.111408
-0.21857
-0.0903929
0.233239
0.129194
-0.0531579
-0.00595992
0.0471306
-0.278094
-0.139292
0.192314
-0.0530227
0.216045
0.0939407
0.0014999
0.0781334
-0.0101245
0.000484986
0.00963952
0.0992854
-0.0839564
-0.015329
-0.209633
0.288622
-0.0789886
0.243093
-0.190833
-0.05226
0.209228
-0.0510347
0.316463
-0.104205
-0.292874
0.291459
0.00141568
-0.0130435
0.00395197
0.0117728
-0.0102444
-0.304369
0.199272
0.105097
-0.0336139
0.0571089
-0.023495
-0.0902746
-0.0277371
0.118012
-0.348739
0.251727
0.0970127
0.170531
0.113833
-0.284364
-0.320441
0.102033
0.218408
-0.0321264
0.0396571
-0.00753064
0.165906
-0.239873
0.0739678
0.097986
0.0231114
0.0875344
-0.299877
0.23598
0.0638968
-0.00694137
-0.237692
-0.0211879
0.00944998
0.011738
-0.184041
0.308488
-0.124446
0.164629
0.0362333
-0.200862
0.297815
-0.0893879
-0.208427
0.132644
0.135889
0.359907
-0.25279
-0.107117
0.131181
0.0734035
-0.204585
0.0260405
0.00370878
-0.0297493
-0.158361
-0.106211
0.00443839
-0.0241535
-0.189639
0.279705
0.278002
-0.0537898
0.177836
-0.0693692
0.186532
0.0565606
0.190593
0.119312
-0.12231
-0.203963
0.324205
-0.22168
-0.102525
0.330551
-0.215767
-0.114784
-0.0862671
-0.0163013
0.102568
-0.00052713
0.000343859
0.000183271
-0.217175
-0.103267
-0.00558732
0.00684349
-0.00125617
0.00578033
-0.00578033
-0.00152068
0.0105473
-0.00902665
0.0731508
-0.185824
-0.137943
-0.0666347
0.204578
-0.0675415
-0.225333
-0.221925
0.322095
-0.100171
-0.056387
-0.259499
0.0242988
0.0893705
0.169266
0.0386381
0.0218991
-0.0199134
-0.00198572
0.303242
-0.110542
-0.1927
0.00534288
-0.00203508
-0.318288
0.14611
0.172178
0.0528439
0.225158
-0.285079
0.0754458
-0.0168704
-0.00801122
-0.298427
0.114386
-0.012312
0.00700615
0.00530582
0.329141
-0.209475
-0.119666
0.00964353
-0.0112106
0.00156705
0.135668
-0.112791
-0.0228767
0.00492886
-0.278903
-0.330507
0.0955294
0.234978
0.184301
-0.282304
0.0980038
-0.011268
0.0898128
0.210693
-0.0762234
-0.0127013
0.0192282
-0.00652686
-0.325402
0.117307
0.208095
0.110372
-0.308056
0.227544
-0.148958
-0.0785866
0.234734
-0.127572
0.014138
-0.0277065
0.0135685
-0.284851
0.203916
-0.057092
0.221721
0.0175244
-0.011458
-0.00524823
0.0952122
0.202603
-0.00716264
0.00634829
0.000814345
0.0372897
0.0174305
0.131924
-0.0754133
-0.0565111
0.00391012
-0.00532422
0.0014141
0.229146
-0.072199
0.284779
-0.249101
-0.035678
-0.00889703
-0.00940708
-0.285538
0.0998903
0.185647
-0.0490679
0.0653979
-0.01633
-0.197188
0.294474
0.202028
0.103256
0.00326848
-0.0110903
0.00782178
-0.0342806
-0.0161535
0.0504341
0.000482887
0.0285497
0.00248386
-0.00299437
0.00051051
0.198911
-0.0395124
0.287286
-0.104742
-0.128899
0.075216
0.0536831
0.0440761
-0.107796
0.0637201
0.0260059
0.0412994
-0.00286329
0.00677341
0.193659
0.194496
0.0929278
-0.0402293
-0.0209045
0.0611338
0.283383
-0.0673377
0.331111
-0.245739
-0.0853711
-0.167499
0.268681
-0.101182
0.141511
-0.231904
-0.0185445
-0.271389
0.0118323
-0.00118813
-0.0106441
0.220605
-0.181415
-0.0717203
0.202902
0.203097
0.0885864
0.0208194
-0.251792
0.0757775
-0.00335891
0.00677607
-0.00341716
-0.0347339
0.204
-0.0430154
0.0466334
-0.00361802
-0.220795
0.00769721
0.0296076
-0.279648
0.25004
0.265786
-0.163083
0.304617
-0.23576
-0.0688578
-0.0857879
-0.0873202
-0.0665432
0.153863
0.0952148
-0.273228
0.0191838
0.00947007
0.240889
0.0438905
0.300971
-0.136663
-0.164309
0.122772
-0.106623
-0.00890336
-0.00122115
0.0952486
-0.242218
0.146969
-0.189919
0.0429864
-0.0347916
0.149769
0.00928794
0.00175491
-0.0110428
0.233819
0.0707983
-0.0995641
-0.0327637
0.132328
0.211161
0.0514309
-0.262592
0.269828
-0.096003
-0.173825
-0.0467554
0.00374001
-0.113592
0.325519
-0.244532
-0.0809863
-0.164417
0.260066
-0.0956495
0.0229982
-0.0572259
0.295785
-0.217612
-0.0781727
0.129641
-0.022855
0.0352106
-0.0123556
0.0499299
-0.236541
0.186611
-0.0732491
0.0963604
-0.234324
0.0918811
0.104534
-0.288712
0.184178
0.00267539
-0.000888178
0.00608798
0.118814
-0.124902
-0.0610121
-0.051695
0.0996699
0.183713
-0.292341
0.288048
0.00429301
0.184423
-0.251198
0.0667748
-0.104274
-0.0937513
0.283306
-0.295686
0.01238
0.0435026
-0.0644979
0.226095
-0.152113
-0.0739819
-0.00671305
0.0108951
-0.00781432
0.00423517
0.00357915
-0.341599
0.125385
0.216215
0.0022493
-0.00686652
-0.0359607
0.0428272
0.0679637
0.138003
-0.205967
0.125122
0.198383
0.138681
-0.0660122
0.25023
0.0455549
-0.171822
0.0736396
0.0981826
0.0884738
0.142933
0.343808
-0.227637
-0.116171
0.204304
-0.0465611
0.0576545
-0.0187623
0.0106891
-0.0019208
-0.00876829
0.250591
-0.168346
-0.0822446
-0.157445
0.0964258
0.0610192
-0.218583
0.293046
-0.0693392
-0.223707
0.00521355
-0.0205207
0.0153072
-0.0819459
-0.203351
0.285297
-0.0018487
0.00168936
0.000159344
0.0136819
0.270508
-0.0261065
0.0271304
-0.00102388
0.0834825
-0.0832555
-0.000227011
0.227615
0.0939492
-0.293212
0.207998
0.0852135
-0.122327
-0.188561
0.293952
-0.105391
-0.0128702
-0.0394558
-0.32291
0.103388
-0.0103966
0.0186446
-0.00824795
0.182605
-0.292447
0.109842
0.0903915
0.191702
-0.282093
0.029305
-0.015167
0.0511704
-0.200003
0.148832
0.0263373
0.109331
-0.235169
0.32005
-0.0848807
0.339862
-0.2153
-0.124562
0.0985209
0.0271003
-0.125621
-0.267266
0.344654
-0.0773883
0.109312
0.0685237
-0.0337153
0.0272555
0.00645982
0.0933126
0.174285
0.0435186
-0.0698896
0.0263709
0.107386
-0.0412511
-0.0661352
-0.360073
0.276519
0.0835533
0.174244
-0.262645
0.0884014
0.0153582
0.00110624
0.00381119
0.0064367
-0.0102479
-0.133124
0.2111
-0.077976
-0.012699
-0.00685779
0.0195568
0.00594562
-0.000433408
0.179376
0.0712149
-0.08623
0.136386
-0.157049
0.231436
-0.0743871
-0.374203
0.24952
0.124683
0.319454
-0.240984
-0.0784703
0.00355111
-0.00307621
-0.000474893
0.255479
-0.151529
0.186437
-0.120116
-0.0663209
0.0605212
-0.0149791
0.172633
-0.0721222
0.0845612
-0.0354996
-0.0490616
0.00726912
-0.00968179
0.0636852
0.0208761
0.165229
-0.0891588
-0.0760705
0.107101
0.0388607
-0.0739885
0.0478663
0.144575
-0.192441
0.238769
-0.103346
-0.135423
-0.0379903
0.0661579
0.224312
-0.082801
0.00622258
-0.00708854
0.000865956
-0.139685
0.286053
-0.146368
-0.14336
0.0298811
0.113479
-0.09151
0.0362509
0.055259
0.0964758
0.206574
-0.105273
-0.101301
0.0984015
0.0750544
-0.173456
0.102207
-0.297012
0.194805
-0.0859518
0.183072
-0.0971205
0.0107182
-0.00744969
0.0471605
-0.134481
-0.0987903
0.266923
-0.189627
-0.077296
-0.0168419
0.00644526
0.0977454
-0.0205406
-0.00722796
-0.0446268
0.115294
0.208909
0.0900505
0.0556001
-0.145651
0.119768
-0.129842
0.088748
0.0765515
-0.122147
-0.0368244
0.158971
0.0977312
0.169192
0.040636
0.205845
0.00307254
0.00227035
-0.025918
0.0694206
0.0912025
0.00828331
0.00240578
0.263406
-0.14549
-0.117916
0.0902001
0.00908529
-0.116579
0.181267
-0.0646886
-0.0164979
0.00379895
-0.0251103
0.0917241
-0.0666138
-0.0451094
0.0382429
0.00140536
5.89145e-05
-0.00146427
0.133433
-0.22056
0.0871264
0.0665219
0.0640012
-0.130523
0.00888022
-0.000604821
-0.0450555
0.0945307
-0.0494751
0.0728598
-0.192747
0.119887
0.00375282
0.0197228
-0.0234756
-0.00308788
0.0123758
-0.0443356
0.268579
0.00100674
0.00014024
-0.00114698
0.193624
-0.142454
0.0282396
0.267968
-0.16938
-0.0985878
-0.302079
0.0460289
0.256051
0.171301
0.137124
0.015694
-0.00352205
0.00649974
-0.0048656
-0.00163414
-0.0340889
0.00732131
0.0267676
-0.00611227
0.00652692
-0.000414645
-0.029442
-0.185842
0.00197978
-0.0075671
-0.110081
0.0651285
-0.127896
0.259739
-0.192125
-0.00457996
-0.00526643
0.101695
0.16171
0.00996041
0.00573359
0.141364
-0.340422
0.199057
0.00355414
-0.000481599
0.295944
-0.192253
-0.195584
-0.0856934
0.286667
0.0960574
-0.104263
-0.202408
0.300155
-0.0977472
0.230812
-0.272777
0.0419648
-0.0478179
0.231404
0.368018
-0.221821
-0.146197
0.157228
-0.248226
0.0909984
0.24154
-0.060894
0.079505
0.108562
-0.188067
-0.000844698
-0.0013306
-0.0493173
-0.00346032
0.0527776
0.181146
-0.153541
-0.027605
0.0163773
-0.223564
0.207187
-0.00632782
0.0238918
-0.017564
-0.330822
0.227806
0.103015
0.0221406
-0.0953897
0.0591044
-0.247883
0.114965
-0.333226
0.21826
0.0307801
-0.0177374
-0.0130427
-0.278138
0.0906306
0.187508
0.0476419
0.151107
-0.198748
0.250674
-0.344211
0.0935368
-0.0468323
0.10395
-0.0571177
0.177844
-0.0685319
0.0123159
-0.00235551
-0.0555992
0.178784
-0.0133618
0.017887
0.0940762
0.039506
-0.0249381
-0.0145679
0.195699
-0.14577
0.00771021
0.00981422
0.285947
0.00709919
0.184086
-0.283473
0.0684592
0.138115
0.0197503
0.0637322
-0.0139706
0.0484498
0.300879
-0.108377
0.192863
-0.120004
-0.0406619
0.19294
0.13451
-0.0612013
0.00488006
0.0563212
-0.0877876
0.262031
0.00375427
0.0098195
0.0609315
-0.0681595
0.00292133
-0.0159895
0.0130682
-0.00220584
0.0019653
-0.0606329
0.0477628
-0.278205
0.247833
0.0303716
0.101368
-0.277692
0.176324
0.0556683
-0.118616
0.0445206
0.0182785
-0.0627991
-0.0116153
0.0145366
0.0141258
-0.0111928
0.295752
-0.0342708
-0.261481
-0.0789535
-0.238682
-0.0955742
0.0804952
0.015079
0.181168
-0.270652
0.0894845
0.167953
0.0729113
-0.240865
0.0890008
0.0868787
0.151891
0.0606499
0.0168823
-0.0221068
-0.000593842
0.0227006
0.0124827
-0.0180695
0.00558678
0.164331
-0.0659291
-0.00297826
-0.00483606
-0.00129259
0.00751518
0.00353542
0.119237
0.0217852
-0.0255218
0.0531541
0.168977
-0.222131
0.239222
-0.198586
-0.252606
-0.0255991
0.248754
-0.0881614
0.0118269
0.0189532
0.106723
0.0760955
0.101146
-0.303805
0.20266
0.164358
-0.168081
0.00372315
-0.00368985
-0.000576129
0.143421
-0.205864
0.0624434
0.161319
-0.354209
0.19289
-0.107941
-0.177597
0.11986
-0.0607799
-0.211235
0.272321
-0.0610861
0.100855
0.229528
-0.184602
0.00786582
0.00396646
-0.238747
-0.089734
0.200639
0.0600364
-0.260675
-0.242145
0.33493
-0.0927847
-0.173319
-0.135887
-0.0998563
0.0557793
0.044077
-0.302666
0.085054
0.00130369
0.0085387
-0.00984239
-0.0973389
0.00176473
0.0200676
-0.0590178
0.0389502
-0.0245912
-0.0366101
0.00320178
0.000352357
-0.0209762
-0.0120178
0.032994
-0.140748
-0.213462
0.206698
0.101015
0.304076
-0.102376
-0.201699
0.204493
0.10158
0.245471
-0.150222
0.183699
-0.147383
-0.0363163
-0.0905612
0.0170574
0.0735038
0.253538
-0.113034
0.00384576
0.0330363
-0.0437095
-0.152019
-0.038858
0.190877
-0.0245023
0.131013
0.0658273
-0.196841
-0.0705865
-0.289486
0.280554
-0.190163
-0.190257
0.279585
-0.0893285
0.177437
-0.301055
0.123617
0.0197843
-0.0397011
0.0199168
0.00737954
-0.0224095
-0.0169651
-0.0563846
0.00706733
-0.278044
0.336433
-0.191793
-0.144639
-0.0576923
-0.131899
0.189591
0.32347
-0.123158
-0.200311
0.0337726
-0.0340314
0.348842
-0.247853
-0.100989
0.19209
-0.0610765
-0.0173516
0.0546413
0.00615377
-0.267728
0.261575
-0.0126286
0.0189272
-0.144699
-0.216841
0.149751
0.186682
0.1757
-0.0457081
-0.129992
-0.216692
-0.085974
0.294098
-0.197634
-0.096464
0.00256068
0.0115651
-0.0493959
0.0478994
0.00149648
-0.0678395
0.134361
-0.0197828
0.0643034
-0.00298371
0.0248828
0.222065
-0.135186
-0.0916701
0.11427
-0.0225999
0.0505201
-0.0710877
0.0205676
-0.200965
0.282374
-0.0814098
-0.244998
0.0995081
-0.104867
-0.156555
0.261422
0.299632
-0.0984892
-0.201142
-0.185595
-0.161353
-0.0977206
-0.0456397
0.0841606
0.172495
-0.256656
-0.30957
0.0631065
0.246464
0.361048
-0.254394
-0.106654
-0.322553
0.191706
0.1403
0.040846
0.259454
-0.119678
-0.139776
0.0794066
0.124028
0.17007
-0.132299
0.240643
-0.108344
0.0714893
-0.282724
0.146194
0.221824
-0.0169297
-0.180704
0.199931
-0.296491
0.0965595
0.11628
0.116903
-0.233183
0.00855075
0.0751478
-0.0969597
0.0570732
-0.173261
0.116187
-0.0239327
-0.0886315
0.112564
0.210995
-0.320627
0.109632
0.267599
-0.0864319
-0.00415976
-0.017947
0.227409
-0.0505504
-0.176859
-0.223152
-0.112593
0.000243264
0.0022406
0.165773
0.0983271
-0.2641
-0.00125908
-0.000589626
0.0026263
0.00387344
0.11852
-0.149551
0.0310311
0.0715436
0.0483169
0.0420282
-0.233988
0.19196
0.000959895
-0.0396817
0.0387218
0.193353
-0.210282
-0.153795
-0.186627
-0.27794
0.0878641
-0.180448
-0.0645505
0.323193
-0.164297
-0.158895
0.12149
0.056955
-0.178445
-8.66203e-05
0.00109336
-0.00594357
0.0463729
-0.0404294
0.00643234
0.00243728
-0.00886962
0.253912
-0.211884
0.154311
0.0992264
0.0102704
-0.0331254
0.0177167
0.0769346
-0.0946514
0.262051
-0.0962787
0.0960872
-0.0779343
-0.0181528
-0.132929
0.189574
-0.00166553
-0.000813511
0.00247904
-0.194586
0.298912
-0.104326
0.0360931
0.157531
0.00170086
-0.00254468
0.000843821
0.31281
-0.270091
-0.0427192
0.337825
-0.199078
-0.138747
0.131131
0.0445692
0.294343
-0.243345
-0.0509981
0.00321324
0.000337869
0.0934836
0.154549
-0.248032
0.102327
0.119738
0.274185
-0.201174
-0.0730109
0.201588
0.136236
0.197121
0.0302883
0.0101278
-0.0116485
0.302281
-0.240584
-0.0616977
0.120085
0.0663512
0.287193
-0.185099
-0.102094
0.0175175
-0.0238453
0.0580264
-0.0827172
0.0246908
0.254718
-0.100407
-0.310587
0.225217
0.08537
-0.0325858
0.196944
0.0878118
0.21182
-0.00377649
0.00695176
-0.00317526
-0.155422
0.191515
0.226705
0.0967646
0.192823
-0.145182
0.291655
-0.201713
-0.0899417
0.278585
-0.24395
-0.0346351
-0.158713
-0.145666
0.304379
-0.093626
0.173131
0.215373
-0.140624
-0.0747499
0.0574038
0.0407985
-0.0982023
0.237998
-0.0437902
-0.194208
-0.148737
0.0404036
0.143984
0.110734
0.228281
-0.0673876
-0.160893
0.230569
-0.0646636
-0.00136316
-0.00474911
0.222284
-0.243396
0.0211127
-0.00249466
0.000829132
0.0604763
0.0356109
0.28953
-0.289478
-5.2814e-05
0.173412
-0.125546
-0.0822482
-0.174204
0.256452
0.0275419
-0.00835814
0.128042
-0.112954
-0.0150886
0.13088
-0.0351668
-0.0957136
0.313282
-0.0896925
-0.206318
0.315653
-0.109334
0.039542
-0.0292717
-0.0421143
0.255982
-0.157453
0.0238842
0.133568
0.14573
0.084839
0.00855929
0.00375662
-0.235154
0.220171
0.08211
-0.187052
-0.0644008
0.251453
0.0391096
-0.246024
0.206915
0.00749212
-0.0241299
0.0166377
0.00577786
-0.00577786
-0.211923
0.320999
-0.109076
-0.317981
0.224894
0.0930871
-0.194409
0.122059
0.0723498
0.272295
0.0470237
-0.0949455
-0.204504
0.358489
-0.153985
0.241897
-0.202788
-0.190682
0.144051
0.0466302
0.00197289
0.00979992
-0.109336
0.0634728
0.0458636
-0.0498034
0.0438599
0.00412269
0.0143217
-0.0184444
0.0968778
0.00279347
-0.0996713
-0.130336
-0.0414864
-0.2976
0.0912813
0.269696
-0.0983304
-0.171365
0.00952883
-0.00777392
-0.0309736
0.0805867
-0.049613
0.0161809
-0.0612364
0.187532
-0.155376
-0.0321554
0.166119
-0.127993
0.0001819
0.00122346
0.123767
-0.313232
0.14893
-0.252909
0.103978
-0.191249
0.28745
-0.0962007
-0.210211
0.0770871
0.215407
0.0742668
-0.289673
0.103111
0.175989
0.0134717
-0.00521078
0.000756104
-0.00471598
0.00395988
-0.00490023
0.132943
-0.212991
-0.101166
0.314158
0.283999
-0.0996985
0.0136119
-0.0163245
0.00271268
-0.247664
-0.0349187
0.282583
0.308921
-0.221109
-0.0829216
-0.21686
-0.200087
0.123645
0.0572325
-0.180878
-0.103371
0.00657006
0.000962945
-0.007533
0.276659
0.0361508
-0.0205984
0.119119
0.0291188
0.0610185
-0.0901373
0.144738
0.0706352
-0.199988
-0.0976114
-0.288057
0.108365
0.179692
0.187821
-0.100157
-0.0876636
-0.0132109
0.00262019
0.0105907
0.300574
-0.250882
-0.0496923
0.267544
-0.118614
-0.144689
0.352651
-0.207961
0.00598936
-0.0285846
0.0225953
0.116388
-0.213423
0.244272
0.0310733
0.156458
-0.00613062
0.00113385
0.00499677
0.226411
-0.0041276
-0.0556485
0.0104143
0.0452343
0.00629424
-0.016453
0.0101588
0.0878266
-0.0963804
0.00855381
-0.0614883
0.204909
-0.109789
0.138385
-0.0285959
0.0605221
0.122557
-0.18308
0.00849244
0.000300342
0.267028
0.0153981
-0.282426
-0.0948855
0.23887
0.173734
0.107943
-0.281677
0.24523
0.0333555
0.283244
-0.107687
-0.175557
-0.0090021
0.000454435
0.32213
-0.207165
0.0881038
0.0997168
-0.0728918
0.0272836
0.0456082
-0.128211
-0.0882582
0.216469
-0.00421859
0.0049747
0.00740655
0.00270538
-0.0101119
0.178218
-0.0714952
-0.00912394
-0.0341092
0.0432331
-0.0935288
0.111246
-0.0406688
-0.0591875
-0.00701627
-0.000146364
0.0178765
-0.0569518
0.0390753
-0.00421161
-0.00762465
0.0486218
-0.236952
0.18833
-0.127819
0.04642
0.0813987
-0.231427
-0.00725508
0.149936
-0.185983
0.0360465
-0.0173362
0.00414522
0.0131909
0.0659374
0.0287691
-0.0646328
0.0734343
-0.00880145
-0.237155
-0.0649248
-0.0926241
0.282953
-0.190328
0.00911628
0.0869411
0.0690958
-0.206131
0.137036
-0.294632
0.0224592
-0.0132135
0.0247323
0.0706556
-0.0953879
-0.0257496
-0.131703
-0.17066
0.148359
0.0223014
0.0400709
0.0182534
-0.0583243
0.0199793
-0.0162265
0.00373363
-0.0103388
-0.0603406
0.241075