/*--------------------------------*- C++ -*----------------------------------*\
| =========                 |                                                 |
| \\      /  F ield         | OpenFOAM: The Open Source CFD Toolbox           |
|  \\    /   O peration     | Version:  v2012                                 |
|   \\  /    A nd           | Website:  www.openfoam.com                      |
|    \\/     M anipulation  |                                                 |
\*---------------------------------------------------------------------------*/
FoamFile
{
    version     2.0;
    format      ascii;
    class       volVectorField;
    location    "300";
    object      U_0;
}
// * * * * * * * * * * * * * * * * * * * * * * * * * * * * * * * * * * * * * //

dimensions      [0 1 -1 0 0 0 0];


internalField   nonuniform List<vector> 
53008
(
(1.04522 -0.0349162 -5.66387e-24)
(1.03847 -0.0555747 0)
(0.390132 -0.0142771 2.89089e-21)
(1.02549 -2.04772e-05 1.8836e-21)
(1.05653 0.000743851 6.96008e-23)
(1.00824 -0.00115834 -2.1894e-24)
(1.02159 -0.00852376 2.88217e-21)
(1.00556 -9.99452e-05 -8.89479e-23)
(1.02367 -0.02023 -6.12362e-23)
(1.00923 -0.00147149 1.00416e-23)
(1.00691 0.00021849 3.14026e-23)
(1.06559 -0.0636552 -3.59418e-21)
(1.01248 -0.000253156 6.28939e-23)
(0.0143874 -0.084493 0)
(0.888115 0.148755 4.27548e-22)
(0.956743 -0.0207486 3.26625e-21)
(1.01665 -0.000387919 0)
(0.981498 -0.0235764 5.05756e-21)
(1.07366 -0.0282096 -3.50294e-21)
(1.01333 -0.00503619 3.40491e-22)
(1.01656 -0.00887467 9.45487e-23)
(-0.0830017 -0.0392424 1.71811e-20)
(0.922606 -0.0842826 -1.10636e-21)
(-0.0115062 -0.0224031 -5.72789e-21)
(1.00912 -0.0014538 -6.44366e-24)
(1.04286 -0.0385532 3.15152e-21)
(1.0042 -0.0497186 -3.53174e-21)
(1.01259 -0.000154042 -6.27348e-23)
(-0.0199927 0.0830096 4.37704e-21)
(1.02522 2.5004e-05 3.33693e-21)
(1.07478 -0.0359175 0)
(1.01327 -0.00500327 7.74843e-22)
(-0.0903053 -0.08934 1.15456e-20)
(1.03556 0.00773304 5.48081e-23)
(1.00691 -0.000123665 1.05253e-22)
(1.00705 -0.000126433 0)
(1.00514 -0.000228215 -1.71596e-22)
(0.984623 -0.0231112 -4.04388e-23)
(1.01969 0.00255964 1.06675e-22)
(0.324065 -0.015111 5.70578e-21)
(0.392697 -0.0176597 4.06798e-21)
(0.22832 -0.00441738 0)
(1.01201 0.00105998 0)
(1.01078 -0.000900255 0)
(0.00961558 -0.0744953 -5.26045e-21)
(-0.0786182 -0.0392836 -1.27481e-20)
(0.269935 -0.00179249 9.45007e-21)
(1.06133 0.00417518 9.74035e-23)
(0.98448 -0.0192194 0)
(0.388655 0.00635615 0)
(1.04707 -0.0340137 -3.72466e-21)
(0.700109 -0.0575465 0)
(1.00611 -0.000289295 -7.52726e-22)
(1.0252 -0.0285176 -1.38882e-21)
(1.0255 -0.013649 2.59094e-22)
(1.09216 -0.0633447 -1.55951e-20)
(0.378505 -0.107279 1.96214e-21)
(1.01433 0.00254385 -1.12779e-22)
(1.01111 -0.00111969 6.43882e-23)
(1.0022 -1.7061e-05 2.2838e-23)
(1.01836 -0.0053672 0)
(1.01112 -0.00286984 1.61221e-22)
(1.0206 -0.0140033 1.63716e-23)
(1.0478 -0.0339185 0)
(1.01114 -0.00113679 0)
(0.335914 0.000223513 -3.37087e-21)
(0.526788 -0.0402515 0)
(1.08984 -0.048165 0)
(1.03233 -0.0172465 -1.27359e-21)
(1.01258 -0.00436968 6.1355e-22)
(1.01971 -0.00497366 0)
(1.0212 7.61443e-06 4.61868e-21)
(1.02279 -0.00490368 0)
(1.02188 -0.000613032 3.99647e-21)
(1.08116 -0.0457525 -3.75025e-21)
(1.05031 -0.0301272 -2.72886e-21)
(1.00556 -9.6118e-05 0)
(1.01094 -0.00318769 -1.52137e-22)
(1.04215 -0.0384763 4.44441e-22)
(1.02876 -0.00850242 0)
(1.00913 -0.00148184 -1.48943e-23)
(1.01086 -0.000651633 0)
(1.09157 -0.0630773 -1.28877e-23)
(1.07549 -0.0361508 0)
(1.02095 -0.00144845 1.24924e-21)
(1.0304 -0.0274226 6.14986e-22)
(1.08331 -0.0542365 2.14674e-20)
(1.08053 -0.0488289 6.89016e-21)
(1.02993 -0.0372049 0)
(1.01898 -0.0034643 0)
(1.00592 4.63531e-05 0)
(1.01784 -0.00513116 -9.29397e-22)
(1.02412 -0.0123889 2.54471e-21)
(1.02098 -0.00136524 0)
(1.08106 -0.0486407 0)
(0.959136 0.0782465 1.16897e-21)
(1.01176 -0.00377203 -1.37647e-22)
(1.00595 5.1269e-05 0)
(1.01247 -0.000235985 0)
(1.01246 -0.00428973 -8.66265e-22)
(1.01838 -0.00553636 -5.82969e-23)
(1.00211 -1.59033e-05 0)
(0.943422 -0.0879743 0)
(1.0125 -0.000169791 6.08535e-23)
(1.01962 -0.00503452 2.22929e-21)
(0.919047 -0.078094 -3.21385e-21)
(1.03339 -0.0762887 -3.94456e-21)
(0.30774 0.166032 1.65989e-20)
(1.05141 -0.01601 0)
(0.971221 0.0269269 8.97462e-22)
(0.464477 -0.0236009 -2.48396e-21)
(0.484302 -0.0369003 -1.23946e-20)
(0.408221 -0.115958 0)
(1.01084 -0.000872312 6.71858e-23)
(1.02299 -0.0190146 0)
(1.02704 -0.00985556 0)
(0.95998 0.0689154 0)
(1.0254 -0.0280395 1.438e-21)
(1.08288 -0.054358 -1.39871e-21)
(0.980334 0.0736426 -1.11906e-21)
(1.00596 3.75676e-05 3.76179e-25)
(1.01797 -0.0124898 2.48353e-22)
(0.884189 -0.0613498 0)
(1.05355 -0.0399882 -6.02074e-21)
(1.00906 -5.31865e-06 0)
(0.423951 -0.0694664 2.94299e-21)
(0.745092 -0.157955 -7.02404e-22)
(1.05814 -0.0575865 4.87057e-21)
(0.359425 -0.004317 0)
(1.07297 -0.0282442 3.29494e-21)
(1.00888 0.000376946 8.85682e-23)
(1.00599 4.51033e-05 9.57168e-23)
(0.453632 -0.0960294 0)
(1.02375 -0.0443618 0)
(0.51204 -0.0384475 0)
(1.01884 -0.00335975 -1.02989e-21)
(1.00056 -1.60699e-05 -6.34481e-23)
(1.01297 -0.00148855 -1.12705e-22)
(0.468726 -0.0352761 -4.26215e-21)
(1.00882 0.000383419 8.28371e-23)
(-7.95889e-05 -0.0981019 0)
(0.504682 -0.0394333 -7.5809e-21)
(1.02563 -0.0164724 0)
(1.00904 -0.000401978 0)
(1.00619 0.000226449 4.61596e-24)
(1.07463 -0.0351604 4.16534e-21)
(1.0266 -0.0213782 -1.71012e-22)
(1.03763 -0.0550915 -8.83338e-22)
(1.00478 -0.000200839 4.01231e-22)
(1.0262 -0.00494862 0)
(0.323329 -0.00915126 0)
(1.01131 -0.000929966 -1.01272e-22)
(1.05492 -0.0525348 4.02437e-21)
(0.492334 -0.0429195 0)
(-0.0778123 -0.0430029 7.35346e-21)
(1.03815 -0.0271814 -5.92405e-21)
(1.05165 -0.0443306 0)
(0.546055 0.105771 3.15574e-21)
(1.00831 -0.00121935 0)
(1.05176 -0.01653 4.3237e-21)
(1.00961 -0.000238758 0)
(1.01076 -0.000909644 -1.07728e-22)
(1.00667 0.000213521 -3.48317e-23)
(1.028 -0.0049843 0)
(1.00677 0.000219459 1.03778e-22)
(-0.0145831 -0.0281646 0)
(1.08074 -0.0642361 0)
(0.439431 -0.0554278 -1.79167e-21)
(1.00611 2.07579e-05 2.52561e-23)
(1.00742 -0.000926472 -2.06355e-24)
(1.04311 -0.0518572 5.62957e-22)
(0.558648 0.0984702 7.45272e-21)
(1.0415 -0.00297198 -7.39416e-21)
(0.964152 0.0920696 -4.1008e-22)
(1.00902 -0.00145939 0)
(1.00962 -0.000187069 -7.56179e-23)
(1.0057 -0.000220966 -1.1789e-21)
(1.02673 -0.00965992 -1.54329e-21)
(1.08097 -0.0640174 0)
(1.05051 -0.0296766 6.31435e-21)
(1.06112 -0.045838 8.42385e-21)
(1.02355 -0.0204599 -1.92522e-22)
(1.00945 -0.000382696 6.11597e-23)
(1.00823 -0.00111463 0)
(0.827123 0.0663839 2.90849e-21)
(1.01095 -0.00089505 5.78413e-23)
(1.00611 0.00017019 1.00684e-22)
(0.32538 -0.0100997 -6.82116e-21)
(0.314439 -0.0132204 0)
(0.342117 -0.00934039 3.13004e-21)
(1.0075 -0.000986646 -4.8082e-23)
(-0.0241104 -0.102234 0)
(1.02217 -0.0414105 0)
(1.00949 -0.0767654 0)
(0.717365 -0.0591774 0)
(1.02118 -0.00136796 0)
(0.941483 -0.0673302 1.75799e-21)
(1.06852 -0.0697554 0)
(1.02118 -0.00127687 0)
(0.608392 0.120076 8.8868e-22)
(1.02521 -0.00530496 9.69995e-22)
(0.012401 -0.0709053 -6.10537e-21)
(1.06714 -0.0628006 -2.11323e-21)
(1.02112 -0.000500667 1.47578e-23)
(1.05731 -0.0564195 0)
(1.0281 -0.00246734 3.3328e-22)
(1.00746 -0.000968065 0)
(1.01825 -0.0125881 -3.08522e-22)
(0.937647 -0.0325714 -1.05367e-21)
(0.413 -0.019602 -5.22719e-21)
(1.04383 -0.0524476 1.62258e-21)
(1.07965 -0.0507087 0)
(0.884858 -0.0533904 0)
(1.01786 -0.0125985 2.16971e-22)
(-0.0930052 -0.0691995 0)
(1.01657 -0.00860938 -7.36898e-23)
(0.0107149 -0.0866392 -9.00437e-21)
(1.08016 -0.0498108 0)
(0.503754 -0.039091 1.22884e-20)
(0.487654 -0.0377259 0)
(1.08331 -0.0528851 -7.75961e-22)
(1.01657 -0.00857057 0)
(1.01165 -0.00369448 2.97619e-22)
(0.901498 -0.0619003 0)
(1.07342 -0.0552433 -7.22703e-21)
(0.42659 0.00529703 -3.69758e-21)
(1.05479 -0.0405584 -4.00796e-21)
(0.883785 0.151518 4.57222e-22)
(1.05476 -0.0398071 4.14538e-21)
(1.03899 -0.0174974 -2.66675e-21)
(1.0101 -0.00051518 6.14378e-23)
(0.932439 -0.0675881 -3.96863e-22)
(1.03556 -0.00297078 -4.59157e-21)
(0.723255 -0.161061 9.63515e-22)
(1.01576 -0.00769304 0)
(1.0461 -0.0656103 0)
(1.03662 -0.00609391 -2.1498e-21)
(1.01818 -0.0127337 -2.82885e-22)
(1.03054 -0.055623 6.50888e-22)
(1.01174 -5.76995e-06 -5.93965e-23)
(1.03306 -0.00211801 0)
(1.02753 -0.00141623 -4.99914e-22)
(1.07343 -0.0583729 1.54508e-20)
(0.904672 -0.0448534 -2.52745e-21)
(1.01235 -0.00421571 1.12578e-23)
(1.02318 -0.140262 1.89112e-21)
(1.01106 -0.00327857 0)
(1.0121 -0.0013738 -9.42846e-22)
(1.03875 -0.017738 0)
(1.04934 -0.0356086 7.3983e-21)
(0.37336 -0.0734468 -1.20946e-21)
(0.970875 -0.0178247 6.69702e-22)
(1.0807 -0.0541632 0)
(1.00943 -0.000231874 -6.52086e-23)
(0.999867 -1.76455e-05 -1.97943e-22)
(1.00549 -8.80366e-05 0)
(0.891705 -0.0603201 2.56363e-21)
(1.06645 -0.0628341 4.94774e-21)
(1.08959 -0.0495521 6.91624e-21)
(0.437222 -0.0108409 0)
(0.514607 -0.0417106 4.0884e-21)
(1.08065 -0.0496585 -7.79131e-21)
(1.01225 -0.00413299 0)
(1.00602 -0.000281616 0)
(0.891218 0.0252486 -2.16625e-21)
(1.00886 -0.000368482 1.07857e-21)
(0.480284 -0.0360817 6.82933e-21)
(0.485339 -0.0370804 -4.22461e-23)
(1.03787 -0.0266757 2.9218e-21)
(1.0265 0.00756886 2.71597e-22)
(1.07293 -0.0623303 -7.83996e-21)
(1.01457 0.000191087 7.41311e-23)
(1.00097 -6.68781e-06 6.35795e-23)
(1.08307 -0.0524964 5.83127e-22)
(1.01396 -0.00865544 8.75011e-22)
(1.06848 -0.0691965 -4.8988e-21)
(1.02312 -0.0192262 0)
(0.303338 0.000979013 9.07345e-21)
(1.0077 -0.000436287 -5.35073e-22)
(1.00005 -1.29708e-06 1.1703e-24)
(1.04957 -0.0351816 -5.19902e-21)
(0.891622 0.00445268 4.16521e-22)
(1.05692 -0.0558217 -8.76982e-22)
(0.893365 -0.0777033 1.09586e-20)
(1.05572 -0.05507 -3.36774e-22)
(1.01817 -0.0052406 5.90609e-23)
(1.02009 -0.00759298 0)
(0.510616 -0.0418173 5.1738e-23)
(0.271158 -0.0431188 -7.20367e-21)
(0.669115 -0.0537983 3.84195e-21)
(1.02837 -0.107742 -2.78997e-21)
(0.927477 0.0100627 -1.28712e-21)
(0.352276 -0.00410013 9.03833e-21)
(1.07234 -0.0623557 -6.63399e-21)
(1.02771 -0.00502713 1.25703e-21)
(1.02649 -0.00976288 1.71872e-21)
(0.392803 -0.0143941 3.73114e-22)
(1.011 -0.000722837 1.19024e-22)
(1.0488 -0.0470853 0)
(1.03831 -0.123982 4.04568e-21)
(0.47698 -0.0349786 -8.83061e-21)
(1.00902 -0.000270561 -1.3344e-22)
(1.00884 -0.00026586 1.8232e-22)
(1.0165 -0.0079002 4.49851e-22)
(-0.00704655 -0.0823958 3.407e-22)
(1.08072 -0.0693818 2.14464e-21)
(1.01267 -0.000217695 0)
(1.04326 -0.0366605 -4.3562e-21)
(1.02534 -0.0182134 1.18295e-22)
(0.55943 -0.0452136 2.30997e-21)
(0.938479 -0.00919732 -1.18319e-21)
(1.02124 -8.83722e-05 -6.57718e-22)
(1.00967 -0.000178089 6.27194e-23)
(1.00957 -1.65354e-05 1.28557e-22)
(1.02953 -0.0551586 -1.19021e-21)
(1.0244 -0.00232059 -1.59309e-21)
(1.01935 0.00326222 1.17463e-22)
(0.35094 -0.0109155 -8.52041e-21)
(1.00137 0.0672769 -1.88712e-21)
(1.01364 -0.00254952 2.04764e-22)
(1.08013 -0.0505931 0)
(1.00865 0.000515951 7.23699e-24)
(0.948592 -0.0572641 0)
(1.00639 0.000115136 -4.90634e-23)
(1.01437 0.0030034 -1.44059e-23)
(-0.0920095 -0.0765612 0)
(0.254956 -0.0266616 -4.59968e-21)
(1.01374 -0.00358011 -1.78087e-22)
(0.968866 -0.00244299 0)
(1.03849 -0.0188165 0)
(0.912825 0.0996147 -2.95478e-22)
(1.01745 0.0618581 1.77708e-21)
(1.01055 -0.000539044 0)
(1.02318 -0.0208325 -1.17237e-22)
(0.821943 -0.119689 3.23561e-21)
(1.01668 -0.00974706 0)
(0.373291 0.00311675 -1.0668e-20)
(1.07393 -0.0349094 4.08002e-21)
(1.01155 -0.00363137 1.43078e-22)
(1.03856 -0.0184093 5.77452e-22)
(1.07303 -0.0365557 0)
(1.05284 -0.039731 7.01775e-21)
(0.362048 0.00254743 -3.14051e-21)
(0.91605 0.00508086 -6.14516e-22)
(0.852805 -0.0773096 6.20184e-21)
(1.01209 -1.2886e-05 1.68679e-22)
(1.08432 -0.0356661 -2.55955e-21)
(1.0067 0.000108709 -4.83933e-23)
(1.01014 -0.000438904 1.76168e-22)
(1.02726 -0.00376348 3.71338e-23)
(1.01101 -0.00275933 0)
(1.00732 -0.000886035 7.01606e-23)
(0.781335 -0.0906502 -2.5387e-21)
(0.2459 -0.00806285 -5.91605e-21)
(1.0111 -0.00332279 -2.15038e-22)
(0.82846 -0.113325 -1.26403e-21)
(0.30619 -0.0113784 7.89642e-21)
(-0.0097963 0.0417038 -1.01401e-22)
(0.282108 -0.12119 0)
(1.07334 -0.0547409 1.81313e-20)
(1.04448 -0.0757877 4.03908e-21)
(1.01508 -0.000676923 -2.12693e-22)
(0.745367 -0.132779 -9.90008e-22)
(1.00936 -0.000321542 0)
(1.0109 0.00602372 0)
(1.00917 -0.000318825 -6.40956e-23)
(1.04362 -0.0469789 0)
(-0.0242635 0.072726 0)
(0.258038 0.169755 5.28242e-21)
(1.02082 -0.0214291 0)
(0.703725 -0.00741989 -1.30829e-21)
(1.01963 -0.0111266 1.56959e-22)
(1.02461 -0.0142241 -5.25983e-22)
(1.01304 -0.00184203 1.51057e-22)
(1.0213 -0.00815752 1.17919e-21)
(1.08051 -0.0455064 -3.36874e-21)
(1.01147 -0.00356912 -2.91032e-22)
(0.211069 -0.00109321 1.0717e-20)
(1.03221 -0.00321854 -1.31253e-23)
(1.01015 -0.000502625 -1.28456e-22)
(1.01 -0.00252785 1.71403e-22)
(1.01087 -0.000179529 0)
(1.02542 -0.00551534 -1.95601e-21)
(0.864382 0.147187 -2.86912e-21)
(1.01359 0.00106072 0)
(1.02134 -0.00100639 -2.63893e-21)
(1.01137 0.0054022 2.16533e-24)
(0.551581 0.130416 0)
(0.339497 -0.10028 -4.29351e-22)
(0.641525 -0.10436 1.63855e-24)
(0.911996 -0.0620232 7.81989e-22)
(0.321118 -0.00438188 0)
(-0.00341677 -0.0188014 1.51304e-20)
(1.00726 -0.000106651 2.6474e-23)
(0.359711 -0.113055 4.96603e-21)
(0.912221 -0.0621323 6.18802e-21)
(0.848042 -0.0692413 -4.88585e-21)
(1.01164 -0.00308975 0)
(0.283163 0.00561607 1.44904e-20)
(1.01127 -0.000279698 -7.78344e-23)
(1.01256 -0.000219775 0)
(1.00968 -0.000425815 0)
(0.424233 -0.10919 3.98376e-23)
(0.875458 0.16274 3.40935e-21)
(1.00037 -6.88111e-06 -7.64394e-24)
(1.01435 -0.00334236 -2.51769e-22)
(1.00943 -4.16917e-06 -2.08002e-22)
(1.0742 -0.0679488 1.29955e-20)
(1.04822 -0.0584269 0)
(1.02115 -0.000413398 0)
(1.06933 -0.0510078 -7.49542e-22)
(1.01441 -0.00583803 -7.45612e-22)
(-0.00994659 -0.0899001 -1.89435e-20)
(0.896081 -0.0627855 3.86683e-21)
(1.0906 -0.0505809 -1.15671e-20)
(1.02134 -0.0010837 -7.93004e-22)
(0.92644 0.0247208 -3.56413e-21)
(1.03252 -0.0190556 1.46732e-21)
(1.01929 -0.0108342 1.24664e-21)
(1.01802 -0.00526506 1.83644e-21)
(1.01005 -0.00257357 -1.67318e-22)
(0.637302 -0.0896918 -1.86958e-22)
(1.00994 -0.00039623 1.82712e-22)
(1.01853 -0.00331819 4.89484e-22)
(1.01587 -0.00565413 2.03551e-22)
(1.01416 0.00283828 3.22749e-23)
(1.02379 -0.00494416 -1.75669e-21)
(-0.0787365 -0.067172 -1.58022e-20)
(1.02077 -0.0137837 7.01846e-23)
(1.0215 -0.000882206 -3.98649e-21)
(-0.0848657 -0.0337164 -1.16238e-20)
(1.02497 -0.027369 0)
(1.01464 0.00337679 0)
(1.08885 -0.0603605 9.80574e-21)
(1.02101 -0.000360646 2.3463e-21)
(1.01948 -0.0111114 -1.38995e-21)
(0.176249 0.162527 -2.43312e-21)
(1.04316 -0.0362837 0)
(0.971099 -0.0129011 -7.58408e-22)
(0.525259 -0.0895979 -1.38397e-21)
(0.964684 0.000446424 1.3784e-23)
(1.01921 -0.0215012 0)
(1.05423 -0.0568248 -2.39844e-21)
(-0.0842954 -0.0896258 0)
(0.326328 -0.0147706 -1.53529e-20)
(1.02867 -0.00825569 -1.75034e-22)
(1.01452 0.00354471 -1.13918e-23)
(1.01393 -0.0118938 0)
(0.200331 0.166114 4.64361e-21)
(1.00282 2.96124e-05 9.2261e-23)
(0.685416 -0.0551131 0)
(-0.0819167 -0.0644888 3.13998e-21)
(1.00879 4.58649e-06 0)
(1.00729 -0.000327458 8.94099e-22)
(-0.0813159 -0.0334269 4.80767e-23)
(0.818207 -0.0595151 8.52789e-22)
(0.811127 0.0645085 -1.01464e-21)
(0.195411 -0.048001 1.01091e-20)
(1.00017 5.86015e-06 -8.54973e-24)
(0.395546 0.162651 -2.99999e-21)
(1.00956 -0.000160447 1.22885e-22)
(1.04393 -0.0078287 7.72323e-22)
(1.02134 -0.00837391 -3.56982e-21)
(1.01892 -0.00577043 -1.98664e-21)
(1.00968 -0.000448874 0)
(0.732378 -0.0137083 0)
(0.965071 -0.00934674 3.36762e-22)
(0.964588 0.030834 0)
(1.07915 -0.0690826 1.20431e-22)
(0.441475 -0.0644404 -2.774e-21)
(1.08943 -0.0491281 0)
(0.967205 0.00646639 8.65973e-22)
(1.05802 -0.0568449 -5.07135e-21)
(0.334169 0.163805 -1.94954e-20)
(1.01869 -0.00341266 -1.05207e-21)
(0.378386 0.00510618 -3.62482e-21)
(1.01417 -0.00564706 9.78749e-23)
(0.43369 0.00137684 3.38178e-21)
(0.591731 0.164328 -7.41701e-22)
(0.728816 -0.0608325 3.43347e-21)
(1.00909 3.55861e-06 0)
(0.334619 -0.00940653 1.06176e-20)
(0.965831 -0.00422942 0)
(1.04114 -0.0392812 2.80065e-21)
(1.02513 -0.0170552 0)
(1.02397 -0.00506359 -1.77178e-21)
(0.48587 -0.0381432 0)
(1.02125 -0.00635707 6.03636e-22)
(1.0637 -0.0654354 6.58832e-21)
(0.882305 -0.122845 2.75821e-22)
(1.00039 2.01645e-05 0)
(1.00662 0.000112254 -1.16496e-23)
(0.354411 -0.0802747 1.12255e-22)
(1.00328 4.25656e-05 0)
(0.983626 -0.0896581 0)
(1.01068 -0.00301909 -3.88861e-22)
(1.02085 -0.000147115 -1.20608e-21)
(1.01652 -0.00780301 0)
(1.02496 -0.0167369 0)
(1.06056 -0.0453604 -2.07281e-22)
(0.184584 -0.00108053 -9.20313e-21)
(1.02648 -0.00271934 -2.19176e-23)
(1.03371 -0.0311593 1.58834e-21)
(1.01914 -0.0107996 0)
(0.963282 -0.0565594 0)
(0.406906 -0.00442134 0)
(1.06828 -0.0517808 0)
(1.00942 -0.00018271 5.24775e-23)
(1.0267 -0.0131356 -3.26152e-21)
(1.04914 -0.0526718 2.56171e-22)
(1.01908 -0.00716628 3.14798e-24)
(1.00112 1.97513e-05 -4.31257e-23)
(0.455892 -0.0218439 1.45992e-21)
(0.407971 0.00918057 8.4989e-21)
(1.00675 3.74672e-06 8.47321e-23)
(1.07981 -0.0641697 2.06704e-20)
(1.04644 -0.0571415 0)
(1.01078 -0.000466881 -7.26563e-23)
(1.00637 -0.000351684 -3.70395e-23)
(1.01119 -0.00105701 1.43157e-22)
(0.327534 -0.0691831 -7.40008e-23)
(0.984395 0.0408014 1.44538e-21)
(1.02151 -0.000968861 4.11815e-21)
(1.08358 -0.0357348 0)
(0.952293 -0.0412598 7.92591e-22)
(1.01121 -0.00339565 3.84596e-22)
(0.498265 -0.0386431 -4.135e-21)
(1.00622 -0.000318516 -1.50624e-23)
(1.01654 -0.015638 0)
(1.01149 0.000298061 0)
(1.01409 -0.00808829 0)
(1.00673 -0.000110804 7.22554e-23)
(1.00698 0.0268079 -5.95535e-22)
(0.406894 -0.0113041 -2.2719e-21)
(1.01386 -0.00366372 7.81452e-22)
(0.391437 0.163348 3.85875e-21)
(1.01075 -0.00306143 3.93912e-22)
(0.959633 2.6265e-05 0)
(1.02515 -0.0269159 0)
(1.02643 -0.0130446 2.05957e-21)
(1.03569 0.00543615 -6.45108e-23)
(1.02101 -0.000272744 -1.18456e-21)
(1.00859 -0.000237695 0)
(1.00891 -0.000290189 1.85429e-22)
(1.07156 -0.035358 9.58175e-21)
(-0.0115291 0.0144319 -5.59559e-21)
(1.01123 -0.00107052 0)
(0.275178 -0.00636283 0)
(0.190196 0.000386028 0)
(0.438646 -0.00741586 -9.60812e-21)
(1.03263 -0.0187338 0)
(1.03554 -0.00638836 0)
(1.0013 2.24072e-05 4.48548e-23)
(1.01049 -0.000695271 -3.10075e-23)
(1.00014 2.51475e-06 -1.93377e-22)
(1.05409 -0.0569997 -2.50861e-21)
(0.828476 -0.0913719 0)
(0.585542 -0.0526013 2.10113e-21)
(1.01192 -0.000105101 1.47608e-22)
(-0.0138514 0.0719526 -2.90777e-21)
(1.01072 -0.000802943 -3.33246e-24)
(0.960111 0.00494645 0)
(1.00931 -0.000193955 -7.26523e-23)
(0.533646 -0.0874352 0)
(1.00629 -0.000332319 -6.1901e-23)
(0.386275 -0.0122674 -6.89471e-21)
(1.00753 -0.000190232 1.70615e-22)
(0.39473 0.00275444 0)
(1.06827 -0.0253902 1.19369e-20)
(0.466969 -0.034615 0)
(1.01087 -0.00314406 -1.61439e-22)
(1.01193 0.000341324 0)
(1.01621 -0.00233005 -1.36209e-22)
(1.06878 -0.0507661 1.29332e-21)
(1.03016 -0.0269027 0)
(0.578266 -0.0411591 0)
(1.00543 0.000142184 2.89276e-23)
(1.02133 6.96224e-05 -2.60547e-21)
(1.03158 -0.0162426 -2.89387e-21)
(1.01648 -0.00775501 -1.01111e-23)
(0.807647 -0.058562 0)
(1.01428 -0.0031908 -1.14168e-22)
(1.01648 -0.0152398 -2.81342e-24)
(0.264474 0.162643 8.89869e-21)
(0.384289 -0.0125317 0)
(1.01147 0.000339331 -1.9106e-22)
(0.29941 -0.00193259 7.31181e-21)
(1.07901 -0.0694959 -4.82727e-21)
(0.633096 -0.0633376 7.94502e-22)
(0.253863 -0.00187543 0)
(1.03614 -0.00609398 0)
(0.97729 0.059161 1.04336e-22)
(0.496701 -0.0400035 -1.23348e-20)
(0.230506 0.167499 3.07421e-21)
(1.00588 -0.000245052 4.05231e-23)
(0.450714 -0.0989938 3.42807e-22)
(1.00602 0.000166324 -6.50866e-23)
(1.00707 -0.000122208 1.18472e-22)
(0.397575 -0.0165472 -2.83293e-21)
(1.08711 -0.0669209 -7.82588e-21)
(0.832044 -0.0601799 0)
(-0.0658484 -0.0405626 0)
(0.930372 -0.0298414 5.90588e-22)
(1.00989 -0.00244892 8.51117e-23)
(1.05813 -0.0488057 4.83028e-21)
(0.665548 0.151096 -6.36336e-23)
(0.735588 -0.0135614 0)
(0.267849 -0.00368217 0)
(1.01466 0.000111386 6.67491e-23)
(1.01431 -0.00578246 -1.03448e-22)
(1.08802 -0.0583314 2.52162e-20)
(1.01897 -0.0105586 3.76091e-22)
(1.00697 -0.000132386 0)
(1.01822 -0.00326532 0)
(1.02505 -0.016536 0)
(1.00836 -0.00124572 0)
(0.411871 -0.0054099 -1.07468e-21)
(1.00602 2.54204e-05 -2.21209e-22)
(1.00837 0.0302913 6.70395e-22)
(1.01365 -0.00359079 0)
(1.08027 -0.064441 -1.58547e-20)
(1.00422 -0.000229647 0)
(-0.112145 -0.0931425 1.13298e-20)
(0.840825 -0.0739318 5.57851e-22)
(0.980143 -0.0715944 9.75301e-21)
(1.03013 -0.144742 -7.57674e-22)
(1.01067 0.000144482 0)
(1.01661 -0.00972332 0)
(1.01117 -0.000996272 1.55957e-22)
(1.04185 -0.0393121 -3.24085e-21)
(1.05952 -0.0200168 0)
(1.01456 -0.005973 1.17292e-21)
(0.425766 -0.0506207 0)
(0.985447 0.0586538 -3.97354e-22)
(1.00978 -0.00182123 -3.50645e-23)
(1.07264 -0.0273558 -3.52014e-21)
(0.415981 -0.00543718 -1.4505e-21)
(1.02407 -0.00191607 3.46095e-21)
(0.935314 0.00472439 0)
(0.961426 -0.0171283 -3.0579e-21)
(0.421446 -0.0111318 1.60939e-21)
(1.01112 -0.000983279 -3.72706e-23)
(1.03013 -0.0579023 -2.52855e-21)
(1.01062 -0.000147674 -7.30026e-23)
(1.02446 -0.00528371 1.76694e-21)
(0.994 -0.0706497 -1.0626e-20)
(1.00952 -0.000166708 0)
(1.00773 0.000104462 5.34503e-23)
(1.0223 -0.0101889 -2.5931e-21)
(1.08908 -0.0606378 -1.00994e-20)
(1.01338 -0.00199496 -1.06999e-22)
(1.01652 -0.00873318 -5.32842e-24)
(0.479894 -0.00205565 0)
(1.0234 -0.00437468 3.19541e-21)
(1.08307 -0.0349227 0)
(1.02076 -0.0142701 6.96857e-22)
(1.01427 -0.00295631 2.44076e-22)
(-0.0077951 -0.0887895 1.39715e-20)
(1.00793 -0.0627092 -1.3259e-23)
(0.595066 0.165416 8.38515e-22)
(1.01884 -0.0105063 -6.07023e-22)
(1.01451 -0.0002671 -1.845e-21)
(1.02283 -0.010856 -1.66995e-21)
(1.04422 -0.00744869 -7.15279e-22)
(1.00046 -1.86685e-05 0)
(1.05959 -0.0750813 -4.41887e-21)
(1.0142 -0.00957961 0)
(0.429089 -0.00847361 1.14983e-20)
(0.266711 -0.00411157 0)
(1.0069 0.000274844 5.64997e-23)
(0.422503 -0.0605696 1.90917e-21)
(1.0167 -0.0685187 -1.06078e-20)
(1.03511 -0.00544249 -9.17901e-22)
(1.00971 -0.000414974 0)
(1.04318 -0.04634 -4.92033e-22)
(1.01337 -0.00188761 2.59801e-22)
(0.950509 0.0503279 3.85727e-22)
(1.01402 -0.0114409 -2.99861e-22)
(1.00679 -4.27688e-05 -5.40586e-23)
(0.963874 0.0107901 -6.27288e-23)
(0.873838 -0.068569 4.60243e-21)
(0.393982 -0.0134393 0)
(1.01806 -0.00883189 -2.98716e-22)
(1.06425 -0.0142047 4.35537e-21)
(1.0099 -0.000406318 0)
(1.00699 -0.000356663 3.03069e-22)
(0.316538 0.168603 9.14403e-21)
(1.01086 0.000330685 5.91829e-23)
(-0.0121456 -0.0665692 0)
(1.012 4.8737e-05 0)
(0.398786 0.0405941 0)
(1.0864 -0.046632 8.78374e-21)
(1.00521 -0.000224687 1.62661e-22)
(1.01052 -0.00290104 -1.00675e-22)
(1.03091 -0.0570461 1.97939e-21)
(1.01507 -0.00684594 -7.80777e-22)
(1.06942 -0.0686292 8.72675e-21)
(1.01113 -0.000753 -1.4368e-22)
(0.566301 -0.0401646 -3.86488e-21)
(1.02167 8.42388e-05 -2.82387e-21)
(1.01119 0.000300421 2.05874e-22)
(0.830739 -0.0599852 -7.74946e-21)
(1.01778 -0.00638408 -1.25526e-22)
(1.06761 -0.0254959 -5.96104e-21)
(1.00935 -0.000364882 -6.46298e-23)
(1.02168 -0.000752406 1.26132e-21)
(1.07169 -0.0241091 1.00162e-20)
(1.00149 2.86334e-05 1.08107e-23)
(1.0247 -0.0263074 1.27956e-21)
(0.312533 -0.0453042 -3.09365e-21)
(1.02612 -0.00511038 0)
(0.755296 -0.0499093 2.9699e-21)
(1.05467 -0.0567685 5.45635e-21)
(1.01285 -0.000429193 7.35061e-25)
(1.01624 -0.00781135 9.36696e-22)
(0.496688 -0.0475385 0)
(0.401711 0.00598064 0)
(1.02224 -0.0184242 0)
(0.522661 -0.055586 -1.16842e-20)
(0.230811 -0.00295149 2.4472e-21)
(1.01781 -0.00901979 -4.5746e-22)
(1.02271 -0.0450302 -2.81188e-22)
(1.01985 -0.013237 -2.99638e-22)
(1.0096 0.00063201 0)
(1.01 -7.21747e-05 1.31964e-22)
(0.0608513 -0.0430277 0)
(1.01552 -0.00511638 -1.11734e-22)
(1.04792 -0.00928829 -3.56059e-21)
(0.732308 -0.0134099 0)
(1.02981 -0.0362912 -3.39398e-22)
(0.511615 0.0334569 -1.76788e-21)
(0.413997 0.00433013 4.12429e-21)
(0.511612 0.045106 1.81902e-21)
(1.04522 -0.0331192 -3.82392e-21)
(1.02169 -0.000850498 5.157e-21)
(1.07354 -0.0577929 -5.26178e-23)
(1.02391 -0.0187444 0)
(0.963875 -0.0318985 0)
(1.0905 -0.0511413 -8.80459e-22)
(1.02484 -0.0162219 0)
(0.284685 -0.00122323 -8.88295e-21)
(1.01983 -0.00102546 0)
(1.03492 -0.063747 3.24154e-21)
(1.07175 -0.0632595 0)
(1.01837 -0.00337214 -5.40555e-22)
(0.948633 -0.105822 1.70469e-21)
(1.04897 -0.00603614 1.78267e-21)
(1.01267 -0.00145778 0)
(1.05296 -0.0152903 6.5624e-21)
(0.38827 -0.0148489 -2.96439e-21)
(1.0594 -0.0194565 -3.85903e-21)
(1.01057 -0.00293946 1.15715e-22)
(1.01982 -0.00689445 -2.77103e-22)
(0.553482 -0.0383816 -2.25215e-21)
(1.00433 -0.0928319 0)
(1.07333 -0.0618174 1.11028e-20)
(1.00731 -0.000875752 -1.95148e-23)
(1.06705 -0.0243998 8.88617e-21)
(0.735006 -0.144001 0)
(1.04968 -0.0302582 0)
(1.03883 -0.0195917 0)
(1.01984 -0.00713613 2.67914e-22)
(1.01248 0.00584811 -1.84269e-23)
(-0.0116698 0.0624747 0)
(1.06139 -0.0738639 3.94822e-21)
(1.03597 -0.00641487 -3.53175e-21)
(0.397673 -0.014103 -3.2972e-21)
(0.860431 0.146037 2.44841e-21)
(1.06789 -0.0520608 -4.3865e-21)
(1.02104 -0.0243385 -3.81159e-22)
(0.516507 -0.0528461 1.34606e-20)
(1.07936 -0.0523875 0)
(1.04013 -0.0689091 5.19969e-21)
(0.022937 -0.0495879 8.97007e-21)
(1.03086 -0.016752 3.49921e-21)
(1.06295 -0.0187744 0)
(0.361441 0.0033618 1.74778e-20)
(0.56624 0.00677358 3.06876e-21)
(1.02821 -0.0169489 0)
(0.673379 -0.0514033 -7.02197e-21)
(0.429365 -0.0127868 0)
(1.0151 -0.000159979 -1.00555e-21)
(0.00416635 0.0448394 2.94832e-20)
(1.0179 -0.00612128 4.1068e-22)
(1.05452 -0.0569025 -1.48645e-21)
(1.01526 -0.00706916 -6.58004e-22)
(1.0025 5.28387e-05 2.51223e-23)
(1.01156 -0.00306266 0)
(0.142483 0.158907 5.18399e-21)
(0.0367491 -0.107867 -1.18374e-22)
(0.345028 -0.0411827 1.64901e-21)
(0.145334 -0.0625261 -1.06779e-20)
(1.02678 -0.0208591 0)
(0.281621 -0.00717555 1.0717e-21)
(0.580597 0.127674 0)
(1.00629 -0.000337019 1.37313e-24)
(0.973713 0.0843749 -1.1745e-22)
(0.31999 -0.00436174 0)
(0.85842 0.140208 -3.01151e-21)
(0.134734 0.157803 0)
(1.01035 -0.00056002 3.15073e-23)
(0.0066509 0.0621714 -4.30034e-21)
(1.01208 -0.00147807 1.32654e-23)
(1.01052 -0.000556873 0)
(1.01567 -0.00754271 -2.56269e-22)
(0.92227 -0.123177 -1.43098e-23)
(1.01597 -0.00261297 0)
(1.00318 6.26749e-05 0)
(1.03194 -0.0169787 -5.64336e-22)
(1.00176 3.88379e-05 -8.01938e-23)
(1.02543 -0.00956873 1.7443e-21)
(1.02106 -0.00800855 0)
(1.02395 -0.0203017 1.51536e-22)
(-0.00909504 -0.0793467 -6.55915e-21)
(1.08326 -0.0589169 1.04755e-21)
(1.03571 -0.0326084 0)
(1.0432 -0.0602175 0)
(0.360695 0.157127 0)
(1.00931 -0.00051784 -3.91731e-22)
(1.08324 -0.0344836 0)
(1.01857 -0.00565316 5.62447e-22)
(1.00541 -6.97733e-05 0)
(0.302514 -0.0188741 1.21783e-21)
(1.00892 -0.00146019 -3.6456e-23)
(1.02343 0.00816615 3.72647e-22)
(1.00068 1.47304e-05 -1.0244e-23)
(1.06496 -0.054751 -4.67814e-21)
(1.0249 -0.0258985 -1.26196e-21)
(0.101639 0.153156 9.27627e-21)
(1.04104 -0.00311406 2.89563e-21)
(0.548697 -0.0430723 7.34656e-21)
(1.02187 -0.00071395 -4.36846e-21)
(0.321292 -0.0567179 0)
(1.02359 -0.00448619 -2.09083e-21)
(0.23886 0.162822 0)
(1.00627 -0.000289735 5.72053e-22)
(0.952301 0.0726831 0)
(0.941663 -0.100115 -1.47542e-21)
(1.08588 -0.0465744 -2.16531e-20)
(0.44787 -0.0989001 0)
(1.00815 -0.00104388 7.45873e-23)
(1.02804 -0.0167371 -1.85767e-21)
(0.932409 -0.00403991 0)
(1.0109 -0.000158486 0)
(0.540369 -0.113078 -1.98847e-22)
(1.01611 -0.00764894 -8.78179e-22)
(0.441402 0.00278436 -1.55618e-20)
(1.07321 -0.061362 1.35588e-20)
(0.541508 -0.0369399 -9.03056e-21)
(-0.0821328 -0.02857 2.07446e-20)
(1.06941 -0.0681095 -2.38745e-21)
(1.01577 -0.00380392 8.41865e-22)
(1.01241 -0.00331238 -9.87685e-22)
(1.05508 -0.0520275 -8.25859e-21)
(1.07018 -0.0670426 2.71247e-21)
(0.531788 -0.0350733 -9.62562e-21)
(0.436246 -0.0253705 -1.03532e-20)
(1.00107 1.49911e-05 -8.13671e-23)
(1.01131 -0.000304119 9.28068e-23)
(0.807578 -0.124002 1.99249e-22)
(1.0079 -0.000568025 0)
(1.02111 -0.00760623 -1.52684e-21)
(1.0095 -0.000372968 -1.27914e-22)
(0.962339 -0.0274331 -1.80511e-21)
(1.08031 -0.0544933 1.08195e-20)
(0.251389 0.109238 1.01312e-21)
(0.531456 -0.0365175 -1.31477e-21)
(1.04838 -0.00602981 0)
(0.266347 -0.00440216 0)
(0.298415 -0.0021503 1.0376e-20)
(1.07199 -0.0273392 0)
(0.423621 0.15894 0)
(1.00908 -0.0101982 3.62475e-22)
(1.01285 0.00527188 0)
(1.01586 -0.00376461 -1.85287e-21)
(1.02618 -0.00957881 -3.62129e-21)
(0.307745 -0.0244149 -1.15416e-21)
(1.03722 -0.0266801 1.00636e-21)
(1.01251 -0.000514175 0)
(1.04226 -0.0245459 4.22089e-21)
(0.00953794 -0.103599 0)
(0.970555 0.0281702 9.94963e-22)
(1.01068 -0.000669 -9.41732e-23)
(1.00588 -0.000248626 -3.52973e-23)
(0.607648 0.163809 8.81765e-22)
(1.01134 0.000911365 -1.04919e-23)
(1.0055 -8.50575e-05 -9.58927e-23)
(1.01085 -0.000670825 0)
(0.409106 -0.00633691 8.42066e-21)
(1.0088 -0.000272037 -1.86935e-22)
(1.01963 0.0143228 -2.83272e-22)
(1.01015 -0.0005913 -5.73334e-23)
(1.00864 0.000516926 -1.16174e-24)
(1.05765 -0.0573106 3.74654e-21)
(1.01346 -0.00213954 0)
(0.408996 -0.00605374 0)
(0.792156 -0.124387 -3.83163e-22)
(1.00384 -0.0776873 -5.90953e-21)
(0.557365 -0.109869 0)
(0.0145202 0.0542375 5.25744e-21)
(0.79732 -0.0654375 -7.9546e-23)
(1.01068 -0.000685559 -3.05303e-23)
(1.0094 -0.000313754 0)
(1.01343 -0.00358739 0)
(1.00905 -0.000263236 0)
(1.02428 -0.0020273 -1.70746e-21)
(1.02172 -0.00986434 1.16751e-21)
(0.912222 -0.103584 0)
(1.02102 -0.00623546 0)
(0.357036 -0.0866992 1.16156e-21)
(1.07222 -0.0630656 4.73228e-21)
(1.03449 -0.0198888 -3.10896e-21)
(1.05416 -0.0394477 0)
(0.824054 0.0331948 8.55972e-22)
(1.013 -0.000496498 -2.64289e-22)
(1.01104 0.000302759 0)
(1.01596 -0.00740299 3.93577e-22)
(1.01094 -0.000490847 0)
(0.662895 -0.0159536 6.09115e-23)
(0.329982 -0.0594779 2.05728e-21)
(0.90476 -0.0622554 6.89724e-21)
(1.08349 -0.0586777 0)
(1.0161 -0.00756236 -8.97405e-22)
(1.01378 -0.000493297 -2.00151e-21)
(1.04891 -0.00984293 -3.41352e-21)
(1.01068 -0.000844275 1.40678e-22)
(0.337872 -0.0937396 -7.0909e-22)
(1.00744 -0.000175222 5.48783e-23)
(0.837832 0.0575619 -1.35989e-21)
(1.07768 -0.0692974 -4.01492e-21)
(1.00918 -0.000561854 5.6666e-22)
(0.388377 -0.072875 -4.59414e-22)
(1.00743 -0.00093602 0)