/*--------------------------------*- C++ -*----------------------------------*\
| =========                 |                                                 |
| \\      /  F ield         | OpenFOAM: The Open Source CFD Toolbox           |
|  \\    /   O peration     | Version:  v2012                                 |
|   \\  /    A nd           | Website:  www.openfoam.com                      |
|    \\/     M anipulation  |                                                 |
\*---------------------------------------------------------------------------*/
FoamFile
{
    version     2.0;
    format      ascii;
    class       volVectorField;
    location    "300";
    object      ddt0(U);
}
// * * * * * * * * * * * * * * * * * * * * * * * * * * * * * * * * * * * * * //

dimensions      [0 1 -2 0 0 0 0];


internalField   nonuniform List<vector> 
27802
(
(-0.00011083 -2.40148e-05 5.98924e-21)
(-2.53504e-07 -2.32301e-06 0)
(-4.26309e-05 -0.000123363 2.73257e-21)
(0.000183208 0.000382069 2.83635e-21)
(-5.09011e-05 -9.17573e-05 0)
(0.00232868 -0.00204837 0)
(-5.15928e-05 -8.9825e-05 0)
(0.000115092 -0.000411581 6.1654e-21)
(-4.80536e-05 5.14135e-05 3.91121e-21)
(0.0058035 0.00366007 0)
(0.00509299 -0.00260293 -1.20151e-21)
(-0.000234786 -0.00101645 -4.60371e-21)
(-0.000216898 -6.17604e-05 3.3418e-21)
(0.000116196 -0.000668569 -2.23652e-21)
(0.00213456 -0.00335544 5.07287e-21)
(0.000323041 -0.000186546 6.26483e-21)
(-0.000747377 0.000964447 3.08002e-21)
(-4.99258e-05 5.24358e-05 -3.71833e-21)
(0.00492169 -0.00252524 0)
(-0.000682118 0.000552257 -1.12804e-21)
(-0.00296952 0.0010915 -2.12081e-21)
(0.00219613 -0.00338659 0)
(-2.46489e-05 9.89292e-06 -1.3938e-21)
(0.000798584 0.00155002 0)
(-0.000465124 0.000668546 -1.64216e-21)
(-0.000243282 -0.000172939 2.26054e-21)
(-3.03442e-05 -3.96698e-05 0)
(0.000224628 0.000541383 3.45387e-21)
(-1.34576e-05 3.4034e-06 1.36081e-23)
(0.00076752 -1.68881e-05 -6.6937e-21)
(0.000867131 0.00151564 4.38499e-21)
(-0.000159154 -0.00021484 1.33945e-21)
(-0.000109992 -2.31307e-05 -5.74143e-21)
(1.4723e-05 5.89485e-05 1.47397e-21)
(-9.476e-07 -0.000126401 5.42958e-21)
(0.00223385 5.41935e-05 1.77763e-21)
(-0.000483865 5.37297e-05 -1.30333e-21)
(-2.92215e-05 6.25794e-06 0)
(-2.12345e-05 8.32562e-05 0)
(-0.000500498 -2.96836e-05 0)
(-0.000259603 -0.000974584 1.98769e-21)
(-4.13964e-07 -0.000121353 -3.58314e-21)
(-0.000223134 0.000201969 0)
(-1.13588e-07 4.50751e-05 -2.14662e-21)
(-0.000208442 -0.000120236 -7.5844e-22)
(-0.00665455 9.49331e-05 1.70344e-22)
(-1.40828e-05 8.36153e-06 -1.17522e-22)
(0.000405773 -0.000165975 0)
(4.84097e-06 -0.000762389 2.76084e-21)
(-0.00880015 -0.0016757 4.44981e-21)
(0.00242722 -0.00162503 5.37973e-21)
(-0.000251575 -0.000172539 -2.28704e-21)
(0.00268956 -0.000669113 0)
(-0.00041086 -0.00147139 5.80234e-23)
(-3.5119e-05 3.13306e-05 -2.33109e-21)
(-1.23348e-05 -3.6382e-06 0)
(-0.000478643 0.00422381 -5.20824e-21)
(-2.50712e-05 -3.10223e-05 0)
(-0.000183542 -8.91507e-05 2.91213e-21)
(0.000223041 -0.000328141 0)
(0.0112067 -0.00041141 0)
(-9.16084e-06 -0.000131205 0)
(-0.00021275 -4.96059e-05 2.86188e-21)
(-1.15258e-05 -7.42258e-07 -4.38514e-21)
(-3.17163e-06 4.3169e-05 0)
(-9.7982e-05 5.29454e-05 -3.68029e-21)
(-0.00738072 0.000102347 3.55207e-24)
(-0.00067693 0.00430089 0)
(0.000234207 -0.000281706 -4.77643e-21)
(-9.12811e-05 2.81033e-05 -3.41807e-21)
(1.42015e-06 4.67276e-05 -1.35451e-23)
(-0.00178971 0.00436564 3.21207e-21)
(0.000466159 0.00225151 0)
(0.00241263 -0.00132608 0)
(6.95655e-06 -0.000130037 -4.84318e-21)
(8.23641e-05 0.000222926 -1.71998e-23)
(-0.00750846 0.000329221 3.51412e-24)
(0.000502682 5.94074e-05 6.51672e-24)
(0.00912721 0.000580573 -2.1294e-21)
(0.00215243 -0.000211456 0)
(-1.45398e-05 3.45458e-06 -1.31771e-23)
(-3.70649e-05 -3.95096e-05 -6.36296e-21)
(-0.000261583 -0.000368176 0)
(-0.000140606 1.57794e-05 5.90821e-21)
(-9.0117e-05 4.09522e-05 0)
(-0.000411522 4.76826e-05 2.7073e-21)
(-2.26161e-06 -1.89362e-05 2.45473e-21)
(-0.00663751 0.0024595 0)
(0.00427764 -0.000138735 3.11581e-21)
(-6.22446e-06 -0.000142315 4.55284e-21)
(-3.60287e-05 -3.48966e-05 1.51087e-22)
(0.0119866 0.00025067 3.02738e-21)
(-4.11543e-05 4.88663e-05 0)
(0.000559054 -1.34219e-05 -6.3404e-21)
(0.00102811 0.00259437 1.56184e-21)
(0.000135498 0.000698719 -2.82696e-21)
(-3.82726e-05 -3.93752e-05 4.32757e-21)
(0.000174724 0.000640473 -1.77694e-21)
(-9.60224e-07 6.37118e-06 -4.82062e-21)
(-0.00260176 0.00710878 3.05129e-21)
(-1.96032e-05 9.0254e-05 -8.03661e-21)
(-3.25033e-05 3.033e-06 0)
(-0.000176852 -0.00128699 1.17411e-21)
(0.0112898 -0.000290147 0)
(0.000239491 0.00242576 5.12793e-21)
(-0.000217791 -5.29514e-05 5.67689e-21)
(-2.63914e-05 -0.000133589 -2.88219e-21)
(-1.63803e-06 4.594e-05 4.89018e-21)
(-3.49089e-05 3.12358e-05 -2.01659e-21)
(-0.000203684 -0.000121526 1.51568e-21)
(0.000351591 -0.000153636 -4.57013e-21)
(-3.90331e-05 -3.39717e-05 5.06532e-22)
(1.30654e-05 6.05001e-05 2.641e-21)
(-3.91405e-06 6.9767e-06 -4.64404e-21)
(-2.48421e-05 -0.000140382 0)
(-1.08799e-05 -7.06683e-07 -4.52913e-21)
(-0.000215429 -5.8023e-05 -3.58321e-22)
(-0.000690935 -0.000632114 0)
(-0.00265429 0.0018469 -3.22635e-21)
(-0.000426106 0.000657205 5.80947e-21)
(0.000392048 0.000454286 0)
(0.000173271 -0.000346573 0)
(0.00437474 -0.000975255 -1.97277e-24)
(-0.000681552 -0.00066803 -5.24017e-21)
(-0.000213357 -0.00269405 5.07131e-21)
(-0.000431627 -0.000639023 -2.72604e-21)
(-0.000125062 2.95949e-05 -7.42075e-21)
(-0.000151537 0.000189053 -5.401e-21)
(-0.00122844 0.000758275 8.18496e-21)
(8.12554e-06 6.46365e-05 2.74045e-21)
(-0.00188806 0.000651148 -3.66419e-21)
(-0.000369058 -0.000237645 3.12498e-21)
(-0.000102668 1.01018e-05 9.7031e-21)
(0.000619726 -2.26036e-05 -7.67575e-21)
(0.00359177 0.000188946 5.26581e-21)
(-1.76488e-05 0.000229771 0)
(0.000103302 -0.00052575 0)
(0.000100145 -0.000676189 1.28753e-21)
(-1.77282e-05 1.07613e-05 -4.31694e-21)
(-9.99657e-05 6.29457e-06 -3.90248e-24)
(0.00011368 -0.000650759 0)
(0.00583227 0.0038932 -1.29834e-21)
(-6.16922e-05 -0.000242407 -2.1869e-21)
(-0.000270006 -0.000183626 -2.66548e-21)
(-2.93984e-05 9.71763e-06 0)
(-0.0119798 -0.000405185 -3.24558e-21)
(-0.000147261 -0.000178339 -3.92396e-21)
(-0.000104311 0.00066609 4.63925e-21)
(-2.70532e-05 9.51608e-05 0)
(-0.000522486 0.00711274 -5.37932e-21)
(-0.000279841 -0.000133858 0)
(0.00111252 -0.00155537 -2.26793e-21)
(-0.000227697 0.000185916 -9.82068e-21)
(0.00138002 -0.00178639 3.44098e-21)
(-1.0055e-06 -1.38342e-06 9.74217e-22)
(0.00917503 0.00028105 1.27875e-21)
(-1.8734e-05 0.000220243 0)
(0.000150156 0.000715905 7.15143e-21)
(-8.83194e-06 4.03203e-05 3.11564e-21)
(-1.15032e-05 -0.000105901 -1.205e-21)
(-1.10631e-05 -1.17768e-06 5.08741e-21)
(-9.59616e-05 5.18973e-05 0)
(0.00107141 -0.00126515 -4.53202e-21)
(-3.36302e-05 2.03932e-05 5.36337e-21)
(-2.69611e-06 -3.3492e-05 7.12495e-23)
(-8.72396e-07 -9.3309e-06 0)
(0.000516547 0.00255789 -1.00489e-20)
(-6.13241e-05 -4.6085e-05 2.35462e-21)
(-9.94124e-05 5.25589e-06 -4.29173e-21)
(-9.04541e-05 -7.33028e-05 -2.94079e-21)
(-0.000422162 6.35766e-05 -4.18464e-21)
(0.00608803 0.000238152 6.25467e-22)
(-0.00116904 0.00135155 8.11288e-21)
(-0.000167662 0.0119827 1.18995e-20)
(-4.60269e-05 -6.88127e-05 4.10527e-21)
(-0.00219853 -0.00180575 2.74518e-21)
(0.00358189 -0.000236233 1.36591e-21)
(0.00278822 2.14549e-05 4.98557e-21)
(-1.0637e-05 -1.02161e-06 4.42413e-21)
(-2.6671e-05 -0.000124473 0)
(-0.00108991 -0.000475617 -4.29477e-21)
(-0.00941513 0.000103876 -4.30369e-21)
(-0.00453837 -8.55155e-05 0)
(-0.00809557 0.00149808 0)
(-1.17118e-05 3.29354e-05 1.35354e-21)
(6.65403e-05 -0.000778299 3.63558e-21)
(-0.00182285 0.000991829 4.93936e-21)
(0.00011637 -0.00152119 0)
(0.00272341 0.00213328 4.81658e-21)
(-3.55937e-05 -0.000907788 3.14627e-21)
(-0.000198274 -0.00204276 8.3611e-21)
(-1.25014e-07 -9.26324e-06 0)
(-4.33111e-05 -0.000129942 3.92926e-21)
(-0.0039341 0.00356805 3.68687e-21)
(-1.62236e-05 8.6013e-05 3.70775e-21)
(7.08709e-07 0.000511825 -6.59767e-22)
(0.00733644 -0.000245364 8.77132e-22)
(0.00519013 -0.00366074 0)
(-0.00387022 0.00388932 6.19169e-21)
(-0.00950495 0.00613981 0)
(-0.000552134 -9.28766e-05 1.22122e-21)
(-1.09815e-05 -0.000109246 0)
(-0.000106099 -2.64696e-05 0)
(-0.000215404 -5.81418e-05 0)
(-6.19577e-05 -0.00195566 5.16912e-21)
(-0.000679827 -0.000213017 -4.66773e-21)
(-6.00553e-05 -5.10807e-05 -5.43723e-21)
(-5.04253e-05 5.37202e-05 -4.96291e-21)
(-0.000690976 -2.37914e-05 2.56528e-21)
(-4.31728e-05 4.87022e-06 4.27514e-21)
(-2.71712e-05 8.99307e-05 9.58029e-22)
(-0.00572636 0.00611601 -2.05565e-21)
(0.000169776 0.000391168 -2.95474e-21)
(-0.00231782 0.000580744 0)
(-8.73965e-06 3.87623e-05 -2.58796e-21)
(-3.19967e-05 -4.18281e-05 0)
(-0.00178252 0.00067522 -6.21886e-21)
(-4.29324e-05 -0.000152685 3.07713e-21)
(-3.34666e-05 -5.3697e-05 -2.67515e-21)
(-6.62968e-07 -1.72373e-05 0)
(0.00107263 0.00246747 1.46521e-21)
(-5.42451e-05 -8.55456e-05 7.38264e-21)
(-4.47121e-05 -0.000154049 -7.39803e-25)
(-0.00393252 0.00125291 2.62409e-21)
(-4.04619e-05 -0.000153651 0)
(-0.00302328 0.0033181 -2.34536e-21)
(-0.000121911 1.23879e-05 2.56933e-21)
(-0.00010249 0.000694949 -5.18555e-21)
(6.54938e-06 4.47998e-05 2.33766e-21)
(-4.54708e-05 -0.00015886 -6.78642e-21)
(-5.90007e-06 7.86606e-06 0)
(-0.000234173 -9.12895e-05 -5.6659e-21)
(-0.00220713 0.00344306 0)
(9.23086e-07 -0.00012255 4.22665e-21)
(-3.45452e-07 -7.76255e-06 0)
(0.00187852 -0.000327006 1.35684e-21)
(8.40535e-05 -0.0005255 -1.22619e-21)
(-0.000332383 -0.000470468 0)
(-0.000122861 3.02421e-05 4.34109e-21)
(-9.74639e-05 -0.00116372 0)
(-0.00517368 0.000315084 0)
(-0.00455829 -0.000181083 6.6103e-21)
(-0.00949894 -8.75335e-06 -6.10909e-24)
(-0.00254283 0.0040262 1.30455e-21)
(-0.00254789 0.000905463 0)
(-8.58399e-05 0.000136392 0)
(-3.10558e-05 -3.86172e-05 -6.48614e-21)
(0.000489081 -0.000175022 0)
(-1.07527e-05 3.57312e-05 -1.65841e-21)
(-1.32354e-05 -2.66945e-06 -2.23062e-21)
(-0.00140817 -0.00162304 -1.14668e-21)
(-1.67643e-05 -1.28445e-06 0)
(-0.000861132 0.000276127 0)
(-3.856e-05 -0.000156339 -5.96077e-21)
(-0.00672699 0.00225307 1.21928e-23)
(-0.00232203 0.00414651 0)
(-0.000169356 0.000215831 3.13089e-21)
(-0.000164769 0.000202298 5.1128e-21)
(-9.51012e-05 3.03196e-05 -4.11274e-21)
(1.02079e-05 -0.000128557 3.02458e-22)
(-1.74245e-05 -6.4427e-06 0)
(0.00642124 -0.000144199 1.47135e-21)
(-0.00229896 0.00211942 0)
(0.00260487 0.00198746 -3.92833e-21)
(-8.91852e-05 4.51436e-05 3.39166e-21)
(-6.43931e-05 -5.47469e-05 7.82364e-21)
(1.06752e-05 -0.000173169 7.06884e-22)
(5.78469e-05 -0.000763096 0)
(-0.00259888 0.00425671 0)
(-0.000166265 -0.000204272 -2.40991e-21)
(0.000572671 3.67115e-05 0)
(-0.000247945 -2.81539e-05 -8.3333e-21)
(-0.00269527 0.00111555 1.06788e-21)
(-3.13121e-05 1.74924e-05 5.88267e-21)
(-1.75454e-05 -3.27941e-06 3.34538e-21)
(2.3611e-07 -0.000125433 -2.91425e-21)
(-0.000351552 -0.000225069 0)
(-4.69369e-06 -4.03234e-05 2.63689e-21)
(-4.72885e-05 2.90151e-06 -2.79899e-21)
(-0.00278306 0.00411868 2.75328e-21)
(-1.11485e-05 -0.000168057 -5.17996e-21)
(-0.000231128 -4.59634e-05 2.27375e-21)
(-0.00103895 0.000119354 5.63618e-21)
(0.00229838 -0.00147762 0)
(-0.00130585 0.00103774 -1.83386e-21)
(3.2063e-05 0.000300167 -4.37605e-21)
(0.00286288 0.000503677 0)
(-3.42541e-05 2.74394e-05 -1.69735e-22)
(-0.000307922 0.000372226 -4.85868e-21)
(0.00153801 -0.00158874 3.94522e-21)
(-0.000745008 0.000561364 0)
(0.0128975 0.000118232 -7.0045e-22)
(0.00569339 -0.000232441 5.43628e-21)
(-0.000186772 -9.47864e-05 -8.08271e-22)
(8.98151e-06 4.53242e-05 2.15831e-21)
(-9.27537e-05 4.78874e-05 0)
(-1.1215e-05 -0.000164303 -6.75655e-21)
(0.00260478 9.66617e-05 0)
(-0.000363374 -7.8653e-05 -5.18832e-22)
(0.000165859 -0.000393211 0)
(0.00171704 -0.00040581 0)
(-0.00029649 -6.36855e-05 0)
(-0.00836063 -0.00167326 2.31896e-21)
(-0.00635806 -0.019029 5.79309e-21)
(0.00517026 0.00116118 -1.82031e-21)
(-7.48954e-06 -4.86836e-05 8.16192e-22)
(-0.00192008 1.91776e-05 1.60189e-23)
(-9.09523e-05 3.57655e-05 3.10592e-21)
(0.006121 0.000365024 4.01034e-21)
(-3.69981e-05 2.23699e-06 2.06927e-21)
(-0.00870912 -0.00189064 1.24784e-21)
(0.000636501 -0.000659051 -5.74667e-21)
(0.000213635 0.000359543 8.25051e-21)
(-2.64735e-05 -3.57253e-05 5.24809e-22)
(-0.00215348 0.000668722 0)
(-0.00133889 0.00122937 7.57146e-21)
(-0.000271501 -0.000583125 0)
(-1.70903e-05 2.86851e-06 3.80711e-21)
(0.000209359 0.000545192 -5.71445e-21)
(-0.00130198 0.000488222 4.00408e-21)
(-3.61759e-05 4.20135e-07 -2.49034e-21)
(1.99387e-05 -0.000128202 2.33214e-21)
(-0.00181609 0.00215569 0)
(-0.0085274 -0.00155096 2.56069e-21)
(0.00302946 0.000485465 -6.39282e-22)
(-4.20675e-05 4.99413e-05 0)
(-0.00023688 -0.000358674 2.69424e-21)
(0.000178021 -0.000517051 0)
(-0.00948913 0.00612112 -9.24622e-22)
(-1.75223e-05 -8.88645e-06 4.50841e-21)
(-0.00818864 0.00131928 -2.09034e-21)
(-3.36297e-05 1.13185e-05 -2.71289e-21)
(-1.09762e-05 -0.000105266 -1.07717e-20)
(-0.0019537 0.00223609 0)
(-0.000957186 -0.00063126 8.04259e-21)
(-0.000117397 1.35652e-05 1.43777e-21)
(-3.08475e-05 -5.6959e-05 2.45427e-21)
(-5.77812e-06 -0.000135384 3.74468e-21)
(0.000578577 -0.000669189 -2.88076e-24)
(7.69202e-05 0.000231384 7.13381e-21)
(-6.05443e-05 1.77941e-05 2.00224e-21)
(0.00102962 0.00100641 0)
(-6.20433e-05 -9.86428e-05 -3.74575e-21)
(-0.000643188 0.0008383 0)
(0.000444728 -8.62303e-05 1.20747e-20)
(0.00331772 0.000126303 0)
(-0.00010346 0.000164723 0)
(-6.3065e-05 4.66073e-05 0)
(-9.16685e-05 0.000126533 -2.22779e-21)
(-5.20124e-05 4.49563e-05 3.9367e-21)
(8.03595e-05 -0.000752263 0)
(4.09155e-05 -0.000767266 -2.82894e-21)
(-3.82876e-05 -3.18289e-05 0)
(-0.000143415 0.000189342 -4.79573e-21)
(-8.95665e-05 2.66629e-05 6.44814e-21)
(-4.14199e-05 3.83792e-06 -4.09453e-21)
(-8.70307e-05 -7.6997e-05 0)
(-7.87825e-05 2.71112e-05 -5.33371e-21)
(-0.00555395 0.0003422 -1.63737e-21)
(-2.47785e-05 7.90451e-06 8.62494e-21)
(-0.00315357 0.00319061 5.76618e-21)
(-0.00281897 0.00285051 7.32166e-23)
(0.00260904 -0.00168684 -3.21219e-21)
(-4.9147e-06 2.8233e-05 2.1308e-21)
(-6.24645e-05 1.33006e-05 1.33316e-21)
(-6.46091e-05 1.12069e-05 4.57704e-21)
(-0.00449589 -0.000195025 0)
(-3.46649e-05 2.51344e-05 2.5814e-21)
(-0.000966676 -0.00045997 0)
(1.39309e-05 4.57342e-05 -4.65851e-21)
(-0.00202941 0.00345217 0)
(-3.59837e-05 4.8317e-05 0)
(0.000657324 -1.54935e-05 3.44564e-21)
(-0.000136843 4.0537e-05 1.31189e-21)
(-4.13343e-05 -0.000142381 2.8092e-21)
(-7.21365e-05 5.80353e-06 -7.276e-21)
(-0.000527846 -7.61046e-05 -1.06009e-21)
(-2.78873e-05 -2.94158e-05 -4.1008e-21)
(0.00274055 0.00245715 -4.12454e-21)
(-6.19531e-05 -0.000112965 -1.37358e-21)
(-0.000139697 -0.000174358 4.59763e-21)
(-1.05109e-05 -0.000105996 1.03428e-20)
(-4.40116e-05 -0.00015582 -4.49475e-21)
(-4.54351e-07 -1.5748e-05 2.59276e-22)
(-6.7334e-05 8.12062e-06 0)
(-0.000653115 -2.10752e-05 5.3408e-21)
(0.000262887 -0.000625577 0)
(0.000996706 0.00124382 2.71629e-21)
(-0.00438402 0.00021493 1.75745e-21)
(0.000321642 -0.00101439 0)
(-5.55196e-05 -0.000111674 2.54266e-21)
(0.00380184 -0.00413013 2.51302e-21)
(-3.66184e-05 -0.000167854 6.6395e-21)
(-7.7524e-05 -2.90401e-05 3.27045e-21)
(-0.000315997 -0.000468483 4.02124e-21)
(-0.000146829 -6.09488e-06 -5.5999e-21)
(-1.00068e-05 -0.000111951 1.24394e-21)
(-0.00746098 0.00272798 4.27581e-21)
(0.00273769 -0.00159673 8.39095e-22)
(-0.0102717 0.000857001 0)
(0.000579393 0.000475129 6.7254e-21)
(-0.0035152 5.48032e-05 0)
(-1.9958e-05 -1.22099e-06 4.25925e-21)
(-2.32985e-06 -4.89184e-05 0)
(0.00193618 -0.00159472 7.22764e-21)
(0.000177263 0.00040047 -7.36708e-21)
(-3.96467e-06 -4.15193e-05 7.02939e-21)
(-4.71167e-05 -0.000149784 0)
(-0.0018499 0.000107878 3.15859e-21)
(-0.000153388 0.000162535 2.76031e-21)
(-4.41405e-05 2.96735e-06 5.02651e-21)
(-0.000222954 -5.55753e-05 8.38339e-21)
(-0.00759664 0.00665374 0)
(0.000723458 0.00238585 -2.96015e-21)
(-0.00432031 -0.00218771 -1.34149e-21)
(0.0127391 0.000157082 0)
(-1.69536e-05 -5.88262e-06 -2.99014e-21)
(0.000570451 -0.00128795 5.02106e-21)
(-3.26743e-05 5.45791e-06 0)
(0.00625128 0.00312798 -4.65746e-21)
(-3.09669e-05 0.000407729 3.76691e-21)
(0.000407268 -9.10478e-05 -3.97357e-23)
(1.75298e-07 -8.3223e-06 0)
(-5.32752e-05 -8.77578e-05 0)
(-0.000198909 -4.45632e-05 -4.28502e-21)
(-3.56468e-05 0.000188726 3.47422e-21)
(-0.000272281 -0.00013725 0)
(-5.75618e-05 -0.00011005 2.95614e-21)
(-3.74267e-05 -5.27978e-05 1.15595e-21)
(0.000129478 -0.000519854 2.13351e-21)
(-1.64999e-05 1.09361e-05 5.58879e-21)
(-9.50098e-05 9.80632e-06 1.71358e-24)
(-0.0037778 0.00109872 -4.5443e-21)
(0.0025361 -0.000624495 9.09064e-23)
(0.000479538 0.000475718 -4.67348e-21)
(0.000120513 0.000413928 0)
(0.000105064 -0.000454757 4.17892e-21)
(-0.000110458 -0.000619483 2.84341e-21)
(-0.0014481 -0.00151456 0)
(-7.67921e-05 -3.1202e-05 0)
(-0.000142 -0.00024794 -4.17842e-21)
(0.00599853 0.00023365 -6.02083e-22)
(-0.000163813 4.399e-05 4.87456e-21)
(-2.71379e-05 -2.6592e-05 -4.76e-21)
(-0.000226668 -5.60696e-05 -1.01321e-20)
(2.78859e-05 0.000294197 4.94358e-21)
(9.77586e-05 -0.000408891 2.30468e-21)
(-0.000100611 3.73104e-05 -1.25292e-22)
(-5.00305e-06 4.54479e-06 0)
(-1.71952e-05 -6.04132e-06 4.93424e-21)
(-0.004609 2.95215e-05 -5.37584e-21)
(-0.0088798 -0.00162049 -2.47505e-21)
(-0.00010402 3.70383e-05 0)
(-2.80325e-05 -3.17992e-05 1.35016e-21)
(-0.0044856 0.000113215 5.5499e-21)
(-1.07828e-05 -0.000113677 5.35858e-21)
(-0.00867963 0.00585302 0)
(-1.27631e-05 -0.000108628 6.15017e-22)
(-9.16905e-05 4.25019e-05 3.30409e-21)
(-0.0001014 0.000153726 2.891e-22)
(-0.00394151 -0.00389391 -1.68923e-21)
(-8.99569e-05 2.18579e-05 3.93417e-21)
(1.21562e-05 4.01756e-05 0)
(0.00552261 -0.00381673 1.92369e-21)
(-1.26466e-05 1.60514e-05 0)
(-0.000720233 0.000399187 -3.7696e-21)
(-0.00270088 0.00160888 2.07727e-21)
(0.000284811 -0.00063826 0)
(-2.47096e-05 1.26648e-05 0)
(0.00290739 0.000661689 -6.22458e-22)
(-0.00114926 0.000235988 -5.82161e-21)
(-0.000124605 -0.000625981 0)
(-0.00529761 0.000392381 0)
(-0.000136923 -0.00173441 2.71478e-21)
(-0.000138157 1.73937e-05 -3.12288e-21)
(-0.000283012 -9.46804e-05 8.72934e-21)
(-1.06072e-05 -6.20152e-07 0)
(0.00114359 -0.00546728 6.32707e-21)
(-6.33893e-06 -4.8922e-05 -6.44208e-21)
(-0.000530916 -0.000331205 -1.41462e-21)
(-7.80326e-05 -1.2225e-05 0)
(-3.34978e-05 0.000391894 -7.74342e-21)
(-0.0106925 -0.000258165 -1.17768e-21)
(-0.00340715 0.00430696 0)
(-2.71704e-05 -3.03018e-05 2.6067e-21)
(-2.67619e-05 -0.000122752 -3.31698e-21)
(0.000107597 -0.000415481 -3.56851e-21)
(-4.07002e-05 -0.000155255 -9.15717e-22)
(-7.01662e-05 5.16903e-06 3.22597e-21)
(-6.58856e-05 -3.30857e-05 0)
(-2.57016e-05 6.41852e-06 -9.46191e-21)
(-0.000949026 -0.000905147 -1.21814e-23)
(-0.000211074 0.000437594 1.20245e-22)
(-5.94069e-05 -0.00118072 1.87823e-22)
(-0.00228771 -0.00290355 -4.63915e-21)
(-1.56409e-05 6.78801e-06 4.84686e-21)
(-0.00054327 -1.36158e-05 4.53953e-21)
(-0.0098131 0.00117207 -2.94417e-21)
(-4.73174e-05 -0.000134705 0)
(-6.69079e-05 0.000126282 4.18727e-24)
(-5.53983e-06 2.5115e-05 -4.8199e-24)
(-1.89083e-06 -1.85658e-05 1.23627e-21)
(-0.00287507 0.00532925 0)
(-0.00219671 -0.00195799 0)
(-0.000254714 -5.33332e-05 -2.56495e-21)
(-0.00115573 0.000596604 -3.61221e-21)
(-0.0095383 0.00336494 8.26391e-22)
(-2.32407e-05 -4.12394e-05 0)
(-0.00459616 2.86445e-05 1.03497e-21)
(-2.74008e-05 3.03558e-05 0)
(-0.000839097 -0.00121071 0)
(-0.000217461 -6.22558e-05 3.55082e-21)
(-6.54934e-05 -3.04246e-05 -2.54953e-21)
(-4.40953e-06 -0.000133215 0)
(-4.53925e-05 -8.92409e-05 0)
(-0.000158337 0.000176576 -5.54821e-21)
(0.000694754 0.000285296 0)
(-0.00238405 0.000480249 -2.52649e-21)
(-9.47578e-06 -0.000151177 -8.28659e-21)
(-0.00424022 -0.000191177 0)
(-0.00910816 0.00524306 0)
(0.00259931 0.00233701 1.90993e-21)
(-2.57738e-05 9.40224e-06 0)
(-2.46794e-05 1.17868e-05 0)
(-0.0103852 -0.000513251 1.02117e-20)
(-0.000350091 -0.000158902 -2.86795e-21)
(3.60903e-07 -4.08024e-05 -8.26743e-21)
(-0.000240544 -0.000191572 2.67152e-21)
(-0.000214067 -5.64455e-05 2.82847e-21)
(-0.00190276 -0.000107089 0)
(0.000456854 7.88935e-05 2.29497e-21)
(0.00428439 -0.00111916 -5.66959e-21)
(-2.99462e-06 -0.000150797 8.31914e-21)
(-9.62341e-05 2.59009e-05 4.52451e-21)
(-1.3543e-05 -0.0016837 0)
(-2.22194e-05 -4.10666e-05 6.16928e-21)
(-1.58146e-05 1.61064e-05 4.06726e-21)
(-3.08113e-05 -0.000125437 -2.18799e-21)
(0.00365548 -0.000664388 -2.37087e-21)
(-3.70645e-05 -3.73289e-05 3.24761e-21)
(0.000141816 0.000433704 0)
(-6.40128e-05 -0.000114282 0)
(0.000105853 -0.000929393 5.36044e-21)
(-0.000428388 -0.000624687 -1.3639e-21)
(-0.00654621 0.000114651 -1.7874e-21)
(6.536e-06 6.36657e-05 -1.00318e-21)
(-2.59214e-05 9.44338e-06 0)
(-0.00996081 0.00102554 0)
(-0.000699034 -0.000179119 2.55734e-21)
(-1.66869e-05 7.87156e-06 0)
(-0.000250724 -0.00029279 0)
(-0.000146122 -5.4114e-06 -3.19755e-21)
(-7.09668e-05 -6.6999e-05 0)
(-5.51657e-05 5.35151e-05 -7.81396e-21)
(0.00197716 -0.000727611 0)
(-0.00070463 9.39432e-05 5.36536e-21)
(-0.00405409 -0.00341484 0)
(-0.0071506 0.00696764 0)
(0.00016524 -0.000879968 2.3654e-21)
(-6.28767e-05 5.02278e-05 2.51408e-21)
(-0.00154877 0.00419 -2.9225e-21)
(-0.000341461 -0.000152488 -5.34614e-21)
(-7.56863e-05 -4.7714e-05 0)
(0.000127442 -0.000631478 -7.32281e-21)
(0.00185953 0.000558284 2.62002e-21)
(-1.93449e-05 1.10065e-05 4.52975e-21)
(-1.22964e-05 -0.000180701 -2.18994e-21)
(-3.35375e-05 -4.388e-05 -1.64121e-21)
(-0.0090622 0.00330877 -3.67043e-21)
(-4.96039e-05 1.80944e-05 -2.50882e-21)
(-1.03947e-05 -7.25404e-07 0)
(-2.54481e-05 1.26904e-05 0)
(-8.87106e-05 4.73884e-05 -4.5085e-22)
(-0.000899228 -0.000421727 -3.51657e-23)
(-4.74678e-05 1.66414e-05 0)
(0.000548987 5.33813e-05 0)
(-0.00022957 0.000721043 6.21363e-21)
(-5.21419e-05 -0.000113674 -4.36534e-25)
(0.00104465 0.0013233 -1.14858e-23)
(-0.000734133 0.000114218 -4.57101e-21)
(0.00140135 0.00142983 -1.03697e-21)
(0.00623124 0.000333925 2.47697e-21)
(0.0126738 0.000205048 9.84466e-22)
(-8.93661e-05 1.85765e-05 -5.79459e-21)
(-1.81819e-05 1.79334e-05 -2.84764e-21)
(-1.46811e-05 5.54028e-06 2.42427e-21)
(-0.00204714 0.00161801 5.21868e-21)
(-2.73206e-05 1.27901e-05 0)
(0.00531249 0.00101666 4.43245e-21)
(0.0025258 -0.00162309 -2.63768e-21)
(-0.000364397 -0.000333886 0)
(-0.00461354 -8.2156e-06 -3.0769e-21)
(-0.0128949 4.92883e-05 4.09232e-21)
(-9.53648e-05 -3.32214e-05 0)
(-2.77185e-06 -7.01566e-06 -2.70947e-21)
(-0.0104235 0.00070493 6.54162e-21)
(0.00126564 -0.000283011 -3.43549e-21)
(-4.00236e-05 -9.16054e-06 3.45688e-21)
(-9.64175e-06 -1.5588e-06 -3.61439e-21)
(-0.0025001 0.00103574 3.99585e-21)
(0.00128255 -0.00204552 0)
(0.00549547 -0.0037414 0)
(-0.00327203 0.000496806 1.05577e-21)
(0.000571668 -0.00105583 0)
(-0.000146423 8.76722e-06 -3.84012e-21)
(0.000182258 -0.000914021 4.06791e-21)
(-0.000489192 -1.48576e-05 -2.48287e-21)
(-2.53493e-05 4.19706e-07 -3.64431e-21)
(-0.00239097 0.000342626 2.62358e-21)
(-0.00371529 0.00445962 -1.49162e-21)
(-0.000516875 -0.000253408 -2.24636e-24)
(-7.49807e-05 -0.00127855 0)
(-0.00513876 0.00127618 2.39429e-21)
(-3.57769e-05 -0.000123292 -1.40463e-21)
(-0.000225996 2.87546e-05 4.33003e-21)
(-3.4059e-05 -5.69192e-05 -2.09779e-21)
(4.22875e-05 -0.000507368 4.72078e-22)
(-4.2732e-05 -1.07993e-05 0)
(-0.000192316 0.000278036 -2.08648e-21)
(-1.41619e-05 -0.000259612 -2.59151e-21)
(-0.00030316 -0.000483657 -5.04513e-21)
(-0.00295367 -0.0002263 6.20615e-22)
(0.00116061 -0.000334442 2.97589e-21)
(0.00597028 -0.000382992 1.99951e-21)
(-0.000157662 3.81877e-05 1.25552e-21)
(0.00463726 -7.00947e-06 -2.13653e-21)
(-7.44028e-07 -7.37768e-06 4.1532e-21)
(-0.000128025 1.03808e-05 -3.27738e-21)
(-0.000220202 -5.54338e-05 7.51609e-22)
(-0.000148509 -0.000599701 -2.72585e-21)
(-2.35429e-05 9.74855e-06 3.61429e-21)
(-0.000493018 -0.000354278 -1.181e-21)
(-1.85032e-05 1.89604e-06 -4.90519e-21)
(-0.000739485 0.000368414 0)
(-0.000358078 -0.000323436 2.10962e-21)
(-4.79981e-05 -6.76629e-05 -2.66279e-22)
(-1.84762e-05 4.73381e-06 -5.1691e-21)
(-0.000272955 -9.08233e-05 2.88369e-21)
(-5.56227e-06 -0.000642164 -7.22945e-21)
(0.000427294 0.000407071 -3.20706e-21)
(-0.000602146 0.00128348 1.01234e-21)
(-0.000175047 -2.16902e-05 0)
(-0.0096582 0.00528028 2.02111e-21)
(-0.00307079 -0.00254071 0)
(0.00348782 -0.00440696 -2.17635e-23)
(-6.92725e-05 -7.21943e-05 7.43069e-22)
(-0.000253844 -0.000266497 -5.74364e-21)
(0.00131852 0.000726602 0)
(0.000308444 0.00169026 -1.5792e-21)
(-0.00017362 -1.89358e-05 0)
(-3.82157e-05 -4.14663e-05 -2.57589e-21)
(0.000136532 -0.000897645 0)
(-0.000314964 0.00265248 -6.96629e-21)
(-3.27353e-05 -5.30342e-05 0)
(0.000174384 -0.000914005 -2.1769e-21)
(-4.41338e-07 -4.1478e-05 -4.64474e-21)
(-0.000352363 -0.00126913 0)
(-0.00094885 -0.00112359 0)
(3.10518e-07 -5.12139e-05 2.80169e-21)
(-3.49062e-05 -5.72926e-05 5.60914e-21)
(-0.000720926 0.000244441 0)
(0.00145148 -0.00524426 0)
(-0.000168838 -1.21511e-05 2.47289e-21)
(-7.43742e-05 0.000380159 -3.62901e-21)
(0.0004966 5.70608e-05 -3.31408e-21)
(-5.37654e-07 -3.28497e-05 -4.67055e-21)
(-0.000136008 1.96456e-05 0)
(0.00470346 0.000151637 0)
(-5.2538e-05 -0.000121739 8.36058e-21)
(-0.000243376 -0.000614081 0)
(-4.74804e-05 -9.07656e-05 -1.55114e-21)
(6.80451e-06 8.82708e-05 0)
(-6.42951e-05 5.43729e-05 1.46715e-22)
(0.00477232 0.000382419 -8.22589e-24)
(0.000164309 0.000515022 9.95292e-22)
(-4.90995e-06 -0.000121995 -2.44454e-21)
(0.00935241 0.000387798 4.64573e-22)
(-4.99326e-05 -6.16286e-05 -2.03111e-21)
(0.00020668 0.000298988 -2.6741e-21)
(0.00133395 0.00167026 3.71964e-21)
(8.10234e-07 -0.000115599 9.57065e-21)
(-0.00925662 -0.00168472 -2.36682e-21)
(-0.000483436 6.69854e-05 7.59041e-22)
(-5.48807e-05 5.49813e-05 5.687e-21)
(-3.55452e-05 -0.00012492 -3.87317e-21)
(-1.7659e-05 1.85165e-05 2.63336e-21)
(-0.000228166 0.000153762 0)
(-0.00412334 -0.000505722 -3.80185e-21)
(-0.0089228 0.00577035 0)
(2.7658e-05 0.000114315 0)
(-0.00334993 0.000500255 -9.89122e-22)
(-0.00416949 0.000374541 0)
(-1.7649e-05 1.87775e-05 2.69266e-21)
(-0.00179144 0.00171553 3.26895e-22)
(-0.00033854 -0.000175368 -6.72409e-22)
(-4.64269e-07 -1.09013e-05 0)
(-3.45485e-05 1.85805e-05 -8.28994e-21)
(-9.65782e-05 4.38207e-06 0)
(-0.000171304 -1.50326e-05 -7.73833e-21)
(-0.00416122 -6.59622e-05 0)
(-3.97991e-05 -1.73742e-05 0)
(-1.92836e-06 -3.62584e-05 0)
(-0.000285822 -0.000475464 -2.06499e-21)
(-0.00383829 0.00632226 -5.60536e-22)
(-1.24714e-05 -0.000110933 -7.02124e-21)
(0.000354755 8.84829e-05 3.97373e-21)
(-0.00233222 0.00241683 -3.02382e-21)
(-0.000725296 -0.00285722 -3.97145e-21)
(9.19203e-06 8.79385e-05 0)
(-0.000141566 4.33132e-05 0)
(1.85563e-07 -3.98362e-06 0)
(-0.00014294 1.26508e-05 -6.85111e-21)
(-0.00103786 -0.00071378 -1.69069e-21)
(-2.91606e-05 -3.30889e-05 5.98573e-21)
(-0.000118863 -1.41914e-05 4.01861e-21)
(-4.18517e-07 -7.85092e-06 0)
(-0.000157424 0.000151225 -5.91738e-21)
(-0.000176499 -2.13519e-05 4.25241e-21)
(-0.00527746 0.00615624 4.11515e-21)
(-0.000486741 0.000692681 0)
(3.45897e-05 0.0073696 0)
(-0.000208911 -6.73395e-05 0)
(-0.000251541 -0.00027651 2.84342e-21)
(0.000190504 0.000627303 -7.77437e-22)
(-6.25901e-05 1.62543e-05 -1.39521e-21)
(-3.69919e-05 4.3571e-07 -1.23882e-21)
(-7.78726e-05 3.70427e-05 1.77446e-22)
(-0.000753694 -0.00039951 1.85913e-21)
(5.22972e-05 -0.000519632 2.41605e-21)
(-0.00575118 0.00103683 -4.43605e-21)
(0.00029993 0.00143865 -8.20946e-21)
(-0.00286329 0.000349245 -2.69544e-21)
(-4.04225e-05 -1.19181e-05 -3.14634e-21)
(-0.0103862 -0.000315902 -1.05044e-20)
(-5.89245e-05 5.39121e-05 -7.33119e-21)
(-7.74472e-06 -0.000120338 0)
(3.99146e-05 -0.00107628 -5.7694e-21)
(-3.19336e-05 -4.18313e-05 -3.81695e-21)
(0.000489572 1.57889e-05 -5.82269e-21)
(0.00114452 0.000435207 7.62946e-21)
(0.00248777 -6.41451e-05 -2.78443e-21)
(-0.000356598 7.19994e-05 0)
(0.0109657 0.000256016 0)
(-3.29579e-05 -9.11179e-05 -1.48668e-21)
(-0.000350758 -0.000172543 6.94334e-22)
(8.67984e-05 -0.000958747 -4.31804e-21)
(-0.000394872 3.94647e-05 -1.43772e-21)
(-0.0106824 0.000560306 -9.91201e-21)
(0.000191503 -0.000640103 -2.67329e-21)
(-4.09341e-05 8.15176e-06 -3.42372e-21)
(-0.00828933 -0.00208897 0)
(1.69913e-07 3.99079e-06 3.20115e-21)
(-0.00948915 0.00136475 2.77884e-21)
(-0.00656589 0.0001351 1.36633e-21)
(-9.32524e-05 -3.88662e-05 4.97145e-21)
(-1.2644e-05 5.28071e-05 -5.82121e-21)
(-0.00869915 -0.00193686 4.00145e-21)
(-3.59449e-05 1.2051e-05 5.90132e-21)
(-0.000112429 4.58062e-05 0)
(-0.0121997 0.0103936 -7.59633e-21)
(0.00569571 0.00261896 5.01164e-21)
(0.000442765 0.000177603 0)
(0.00310926 -0.000416957 -2.9194e-23)
(-3.48725e-05 -9.53856e-05 -2.56713e-23)
(-0.000180586 0.000292342 0)
(-0.000107432 -2.62675e-05 -3.13128e-21)
(-0.000114338 -0.000405237 -5.06989e-23)
(-3.45217e-05 -2.6026e-07 -1.18838e-21)
(-0.0106485 -0.000691723 3.97479e-21)
(-0.000502949 7.86651e-05 -1.00695e-22)
(-6.23082e-05 -0.000102248 3.26748e-21)
(-0.00425833 0.000294171 0)
(-0.00208038 0.000809139 0)
(0.00225816 -0.00188803 -1.91238e-21)
(0.000164142 0.000532183 1.0644e-21)
(-1.80397e-05 1.0793e-05 2.85936e-22)
(-1.07879e-05 1.05947e-05 -1.99665e-21)
(0.00161351 0.00650645 -2.87166e-21)
(-0.000233185 -4.75085e-05 -3.68789e-24)
(-0.000165186 -1.38964e-05 -6.19029e-21)
(0.00332186 -0.000302137 -5.18954e-22)
(-0.0106268 -0.000827058 0)
(-0.000457724 0.000163442 0)
(-2.36469e-09 -1.59823e-06 -3.90964e-21)
(-1.46241e-05 1.11133e-05 3.95997e-21)
(-0.00025129 -0.000269834 0)
(-4.88918e-05 1.54861e-05 4.65057e-21)
(-0.00334325 0.00483499 -4.62413e-21)
(0.000618265 -0.000586625 5.34024e-21)
(0.00010002 -0.00110547 0)
(-4.16061e-05 -0.000126599 8.52252e-22)
(-0.000201548 -0.00132744 -1.30263e-21)
(-8.07003e-05 1.96133e-05 3.01104e-21)
(-0.00697122 0.00329058 6.27362e-21)
(-0.000291535 -6.8578e-05 0)
(-0.00227343 0.0015474 -7.80069e-21)
(-0.000267307 -0.000259296 0)
(-0.00451275 0.000124356 -5.96774e-21)
(-1.06594e-05 -0.00013199 1.4419e-22)
(-0.000350174 5.89726e-05 -7.06986e-21)
(-0.00428708 -0.000104231 -2.98099e-21)
(-9.52887e-05 0.000154273 8.31295e-23)
(1.29801e-05 -0.000653167 5.02489e-21)
(0.00389117 0.00562789 2.45203e-21)
(-0.000120154 -9.49733e-06 0)
(0.00109644 -0.000553726 0)
(0.000513145 0.000467289 -1.75368e-21)