/*--------------------------------*- C++ -*----------------------------------*\
| =========                 |                                                 |
| \\      /  F ield         | OpenFOAM: The Open Source CFD Toolbox           |
|  \\    /   O peration     | Version:  v2012                                 |
|   \\  /    A nd           | Website:  www.openfoam.com                      |
|    \\/     M anipulation  |                                                 |
\*---------------------------------------------------------------------------*/
FoamFile
{
    version     2.0;
    format      ascii;
    class       volScalarField;
    location    "300";
    object      ddt0(omega);
}
// * * * * * * * * * * * * * * * * * * * * * * * * * * * * * * * * * * * * * //

dimensions      [0 0 -2 0 0 0 0];


internalField   nonuniform List<scalar> 
27802
(
2.99889e-06
-1.20127e-09
3.35443e-06
3.47367e-05
1.94295e-07
1.08608
8.92377e-08
0.000612348
4.03646e-07
-0.0599549
0.0180972
0.0148685
7.17494e-05
0.00183624
0.0376302
-0.00363883
-0.0349652
3.76307e-07
0.0191687
-0.0373609
-0.0219582
0.0408212
-3.73835e-07
-0.000373273
0.000497185
-5.40796e-05
-2.6046e-07
6.04528e-05
2.25301e-08
-0.0227847
-0.000338495
6.16359e-05
3.20351e-06
5.48412e-07
-8.21497e-09
-0.084717
-0.011394
-3.53142e-07
5.31275e-08
0.00234941
-0.0277648
-1.13999e-08
2.0342e-06
2.35159e-07
-2.78221e-05
0.0333152
1.76316e-07
-0.00346705
0.000765599
0.0435754
0.00156319
-6.75728e-05
-0.0283988
-0.00533593
-2.11256e-07
-8.26174e-09
0.0056676
-9.55663e-07
-3.24882e-05
-0.00118066
0.031071
6.3775e-06
8.8601e-06
-2.46148e-07
1.58454e-07
-1.32889e-07
0.0247203
0.00304114
0.000171818
1.77207e-06
2.8918e-07
-0.0561032
-0.0397763
-0.000628976
1.88757e-05
7.29098e-06
0.0271417
0.00598843
0.00536773
-0.0358304
8.93998e-08
-3.88328e-08
0.00518393
2.03245e-06
-1.82981e-06
-1.82574e-05
-1.33706e-08
0.000406496
-0.0152429
-2.30655e-07
-9.71453e-07
0.00883393
2.39056e-07
-0.0232655
-0.0517706
1.54682e-05
1.23194e-08
3.86242e-05
-3.68251e-08
-0.0920716
1.2746e-07
-4.44259e-07
0.00039929
0.0110338
-0.0402647
7.98768e-05
-7.53569e-07
2.21121e-07
-2.57088e-07
-3.18896e-05
-0.00351103
-9.93726e-07
5.36556e-07
-7.94097e-08
-7.64919e-07
-2.33595e-07
-1.35545e-05
-0.0849436
-0.000841252
0.00125274
-0.00528729
-0.000350641
-0.0162296
-0.105267
0.0802318
-0.0196149
-3.58665e-06
-7.97862e-06
-0.0577263
4.91245e-07
-0.000547554
-1.64661e-05
2.7218e-06
0.00395573
-0.219524
4.17982e-06
-0.00103354
0.00653184
-2.70024e-07
3.00597e-06
3.44712e-05
-0.128213
-2.17531e-05
-2.29584e-05
-3.40045e-07
0.0167207
-2.74995e-05
-1.80205e-05
1.16456e-07
-0.519792
-3.34107e-05
-6.4653
1.59154e-06
-0.00918687
-1.47824e-10
0.562274
3.54614e-06
1.34003e-05
3.22592e-08
8.60693e-08
-2.53192e-07
9.95009e-08
0.0463378
2.53108e-07
-3.28177e-08
-5.92064e-09
-0.0473488
9.975e-07
3.02917e-06
4.72646e-06
-0.00478515
-0.0035906
-0.0177379
5.92241
-5.55185e-08
0.04086
-0.107776
0.0142355
-2.5443e-07
-8.3939e-07
0.0177732
0.026218
0.0213249
-0.012393
-5.79673e-08
0.0447928
-0.0517574
0.00712286
-0.00243336
-0.000980473
0.0646089
-3.64098e-09
3.32996e-06
1.37853
9.46005e-08
-5.73879
0.138214
0.0325093
1.40741
0.0020949
0.0256574
4.43244e-08
3.82004e-06
4.19855e-07
0.0649144
-5.63978e-05
9.36928e-07
2.30869e-07
0.00748985
-6.03592e-07
8.25585e-08
0.00365073
3.46289e-05
0.0128645
6.29105e-08
-2.36268e-07
-0.00054654
2.20912e-06
-1.14165e-06
-1.13795e-08
-0.0507811
3.0049e-07
7.70198e-08
0.0153979
1.90455e-06
-0.00915032
-3.32778e-06
-2.09356e-05
3.97048e-07
1.66594e-06
-9.26781e-08
1.28972e-05
-0.00321363
2.62547e-09
-3.46397e-09
0.00693964
-0.00255798
-0.0506008
-3.63305e-06
-0.00167709
0.0407587
0.00293988
0.0279193
-0.0400662
-0.0340882
2.15198e-06
-4.5044e-07
-0.00714254
-5.81216e-08
-1.51407e-08
0.00988741
-2.98354e-08
-0.00104194
2.15824e-06
0.00320493
-0.0447023
8.56479e-06
-0.00137907
1.79671e-06
-6.01714e-07
-3.9506e-08
-0.0341388
-0.00340123
-0.00230719
1.06737e-06
1.18448e-06
-5.12762e-07
0.204553
-0.0458461
-8.84676e-05
0.00605628
5.41153e-06
0.0343334
2.13082e-07
-3.46008e-08
-3.59169e-09
-7.21718e-05
1.25437e-07
-6.67458e-07
-0.0409748
8.04721e-07
-0.000236429
-0.00821557
-0.0007577
-0.0453714
8.42654e-06
0.0117886
2.99506e-07
0.00259296
-0.0121993
-0.325095
-0.00311212
-0.0292085
5.62344e-05
3.77275e-07
4.96476e-07
7.24854e-07
-0.263469
0.00320497
-0.00053535
0.0198047
-5.06697e-05
0.0439377
2.58586
-0.0123662
1.51978e-07
-0.000548811
1.73279e-06
-0.0137826
-4.67527e-07
0.043921
-0.00604647
0.00180329
-1.02967e-06
0.0114855
-0.0592618
-5.42067e-06
-4.69685e-08
5.51954e-05
0.0151963
-4.81311e-07
-1.5985e-06
-4.62947e-05
0.0432202
0.0382714
1.70429e-07
-0.0048396
0.000364085
0.00532911
-6.11808e-08
-0.0100275
1.81972e-07
8.0942e-08
-0.000274707
0.00248514
-3.18779e-06
-1.16704e-06
-2.40549e-07
0.0406798
7.65264e-06
-9.39849e-07
-0.161181
9.85082e-07
-0.155105
-0.00115631
-0.120681
3.04389e-06
8.24814e-07
2.16571e-06
5.70967e-07
-0.0951198
0.0185503
5.57103e-08
-0.00231899
-1.9211e-06
-5.91726e-07
4.18292e-06
1.47478e-06
0.0209566
1.49265e-07
-0.0064379
1.20566
-0.00310086
1.19583e-07
-9.66721e-07
-1.00959e-06
0.00657955
2.80818e-07
-0.0283285
3.85e-07
0.00169322
0.000114976
0.00278791
5.80361e-07
2.55051e-06
-7.96643e-07
0.0104067
-9.82372e-07
-0.000604979
1.97348e-06
-0.000132312
4.51683e-08
1.99339e-07
-1.01298e-08
-1.00266e-06
0.00165424
-0.00245056
-0.000282428
0.00402131
0.0090009
2.21611e-07
0.122579
6.11216e-07
2.3752e-06
-0.0437831
-1.97848e-06
4.36949e-08
-0.00692308
3.44773
0.0138429
0.000127466
-0.048128
2.47509e-08
4.58444e-08
-0.000499986
-0.000455852
1.91852e-07
1.21326e-06
-0.000292418
4.46144e-06
-5.92248e-07
0.00064064
-0.00338176
-0.0466071
0.0506475
0.00835781
-5.30236e-08
0.0532476
-4.27954e-07
-0.0496617
1.29166e-05
-0.00527195
-7.90503e-09
3.77503e-07
-1.63569e-05
2.57878e-06
4.59188e-05
3.48238e-07
-1.14439e-06
-0.000861976
-2.44127e-07
2.89208e-06
-0.0123419
-0.000433068
0.000134181
0.00493659
0.000190131
-0.0278161
0.00151601
2.19535e-06
0.000269306
-0.0145594
3.92831e-07
-9.35124e-07
-0.0013215
7.76525e-06
-0.000764301
3.75309e-07
-9.2763e-08
-4.62683e-08
0.0119703
0.0426849
2.12925e-07
-1.41692e-07
-0.0160767
5.18466e-08
0.0308863
8.41348e-08
-1.77529e-06
2.28973e-06
1.26838
2.05992e-06
4.00501e-07
0.0203002
6.11093e-08
-0.000109164
-8.05338e-05
-0.00203286
-3.93201e-07
0.0288637
-0.00327967
-0.00926138
0.0203671
-0.00758946
-9.21055e-06
2.0932e-06
-2.35953e-07
0.0114775
1.71459e-07
-0.00532174
2.16536e-06
1.09693e-05
-0.185323
-0.0442015
-1.51486e-07
-9.30803e-07
-0.000386681
1.92538e-06
-6.64669e-07
1.32922e-06
1.31801e-07
0.000755954
-4.6421e-06
-0.000868827
-1.5174
1.57241e-07
-0.0154152
0.0135741
-8.64869e-06
1.34339e-06
7.89846e-08
-1.24863e-08
0.00597497
0.0456171
0.000484691
0.0129617
-0.0169944
-9.56652e-07
0.00212974
1.24258e-08
-0.00315073
4.60631e-06
1.29352e-06
1.32241e-05
-4.49631e-07
-9.75421e-06
0.00599271
0.0150333
-8.11054e-05
-0.00584365
-0.0255755
-0.00137628
-4.69868e-07
-3.74247e-07
-0.0407472
0.0005657
-1.74721e-08
1.4694e-05
-4.99745e-06
0.161638
0.000192058
-0.0145583
7.08648e-05
1.99579e-06
-0.0158558
-9.55799e-07
5.34295e-08
1.49507e-06
0.00596527
-1.30651e-08
0.00179296
2.03803e-06
0.0671299
-0.0413977
0.0388357
4.74099e-07
-4.55386e-07
0.013424
-0.000134364
2.08832e-07
6.84455e-05
-4.80598e-06
1.71994e-06
4.43272e-07
-0.0318789
-8.86164e-05
0.830185
0.0626519
0.0520619
7.07378e-07
-0.0518233
2.64756e-05
2.27311e-06
-0.00237658
0.0375453
5.29737e-08
5.43498e-08
-1.44116e-07
-0.0230966
-3.61524e-07
-2.65052e-07
-3.75671e-07
9.16759e-07
-0.0277502
-4.11583e-07
0.00769284
-4.89586e-05
-6.00524e-08
-0.000296989
-6.06542e-05
0.00718298
-0.0106316
-0.00289222
2.28359e-06
-5.65762e-09
9.51058e-08
0.00295044
1.56469e-07
-0.00804456
1.04934
-0.0135682
0.0172261
-0.0492951
4.67639e-06
-6.89984e-08
0.0114584
-0.000166439
2.13444e-07
-1.27128e-08
-0.0469915
-0.000102964
0.0222545
0.0110463
0.142163
-1.2985e-05
0.174632
0.0125973
1.79017e-07
0.0372817
-0.045722
-2.89091e-05
-0.00904769
-0.045665
1.01638e-07
0.000225217
-4.69279e-07
-0.000364465
2.77631e-07
1.09887e-06
-1.45901e-05
-0.0470201
-0.577246
-0.000113381
-0.0144242
1.01474e-08
-0.0320033
-3.87579e-09
8.47565e-07
0.00010376
-0.0225485
-4.11966e-07
-0.0465451
8.57938e-08
-0.000107653
-0.011391
3.57916e-08
-3.87073e-07
-1.0861e-05
-0.00734075
0.000153484
-0.21593
1.115e-06
-0.01804
0.109866
0.127159
1.61686e-06
-0.000705314
-0.345876
0.00402872
-8.68985e-06
-1.26935e-08
0.063482
-0.00171425
-1.11482e-06
-0.00661116
-3.15526e-08
-0.00911572
0.00902155
-8.40584e-09
-4.77871e-07
0.0045887
0.000279105
-9.6494e-06
1.14309e-05
0.00702103
-2.11489e-08
-2.20517e-06
-0.0281035
3.65158e-06
-6.6729e-06
-4.28344e-07
5.93141e-07
5.82843e-07
-0.0181854
4.71602e-05
4.67071e-08
0.0370029
2.30279e-07
2.67582e-05
0.00183247
-7.29787e-10
0.0404738
-2.44744e-05
3.6414e-07
3.61453e-06
5.11082e-08
0.0213737
-0.00848219
0.0291304
1.51983e-06
0.0116085
0.00511524
8.27615e-08
-0.0175386
0.00030811
-9.43643e-09
2.45565e-07
2.84715e-06
-9.44611e-06
0.134527
1.65637e-07
-5.7092e-09
-0.0145326
0.0194353
8.62757e-08
0.0122213
-0.00719454
0.0474472
6.58535e-07
1.75696e-06
-1.01577e-09
-1.73485e-05
0.000140546
-4.53386e-07
1.57744e-06
-5.74189e-09
3.01308e-06
2.04692e-06
0.00701136
0.0207071
2.28603
-7.73675e-06
0.000782242
4.10555e-05
-9.75294e-07
-4.96395e-07
1.40794e-06
-0.0702747
-0.00157768
0.0496603
0.0102563
0.0338602
2.075e-07
-0.0499312
5.14226e-07
5.16469e-08
0.00156802
-6.469e-07
-0.0246319
-0.151112
-0.165868
-0.00929578
0.0902291
-1.17358e-06
0.00041352
0.0384022
-1.4022e-05
0.00828218
-0.000307726
3.44412e-07
0.0459257
-1.53538e-08
0.012681
0.0284499
3.87474e-06
-2.12764e-08
0.0437363
2.25762e-07
-1.57013e-06
-6.57176
0.00903843
-0.00613382
0.00818424
-1.19932e-06
1.71262e-06
3.83044e-06
-0.00175458
-4.87223e-07
-0.00992934
-2.60426e-05
7.40022e-07
0.00486169
0.00936937
-0.000719554
4.53711e-05
-3.15474e-07
8.99095e-08
0.590532
-0.000188453
5.04738e-06
-0.000173259
0.00411736
-0.011274
-8.81287e-10
1.50197e-07
-0.000185036
-4.13409e-07
-0.0603105
-0.0138314
0.006767
2.78537e-06
-0.000185359
1.91184e-06
-0.0188849
0.00019787
0.00604169
-0.000121075
0.00156517
-8.86392e-07
-9.35603e-06
0.0317393
2.48789e-06
-0.00290758
0.00145733
1.87326e-06
-0.000150186
0.000124372
-0.0112103
-1.49714e-06
1.41906e-07
0.00144647
7.44591e-08
1.37548e-06
0.00334556
0.11375
-0.000340695
0.12876
-1.70941e-05
4.0933e-08
0.017948
1.45959
-5.19578e-08
0.00613323
-0.000195681
-0.0141605
3.65688e-08
3.6389e-06
-1.4363e-05
1.91315e-06
0.00546144
4.47877e-07
-0.00014801
0.0189994
0.0533047
-4.29222e-06
-7.12618e-05
-0.0135871
4.46373e-06
-6.19672e-07
6.72788e-07
-0.00127637
-0.396195
-8.68944e-07
1.03363e-07
0.00113344
-4.48919e-05
-0.00027719
0.000369591
0.0243974
-0.00845836
-0.405961
1.98782e-06
-0.0134049
0.0830922
3.671e-06
0.00969879
-1.22447e-06
-4.23356e-06
-0.0129119
-1.38255e-07
-0.0185443
-6.37413
-0.00419584
2.1426e-05
-0.0203774
-3.86483e-06
-0.0159833
5.63451e-08
-0.0238103
-0.000149769
-0.0165962
-1.17782e-05
1.22717e-07
-9.70427e-07
-1.71393e-07
-0.446587
0.00116202
2.47828e-05
0.000537733
-0.00404719
6.8291e-06
1.55993
-0.0278282
0.00455782
0.262766
7.49426e-05
0.000545335
-0.0244152
-1.22987e-07
-1.0484e-09
-8.99064e-05
-0.000341833
0.00586241
7.88086e-05
2.40116e-07
0.0324602
1.63022e-06
-2.39365e-06
3.30605e-07
-3.40355e-08
-2.56067e-08
1.38994e-07
-4.27935e-08
2.86715e-05
2.38196e-07
-4.93361e-05
-0.00584306
-1.31942e-05
-7.77298e-07
1.31302e-07
0.0738369
-1.79976e-06
-0.00256767
3.323e-08
0.00708652
0.000130721
0.00281621
-0.00103222
1.69238e-06
-2.586e-06
0.00241124
2.40136e-05
-1.61472e-08
-0.0585553
-3.00429e-09
0.00648015
5.72235e-08
-1.16485e-06
0.066379
1.4825
5.58191e-08
-2.11429
-0.0667195
-0.00681554
-0.000107494
5.25064e-08
-0.0276762
-7.89497e-07
0.0545082
1.92261e-06
0.00321498
-5.27513e-07
-1.82653e-08
2.23269e-06
-0.0262502
-0.0218523
0.0958495
0.0331491
0.00437295
0.0229211
2.6365e-08
2.07139e-06
0.00200389
-0.0577803
0.0374305
2.87632e-05
7.51783e-07
-4.05903e-07
0.00784803
-0.000347777
0.000636192
2.07575e-06
-0.371278
2.3087e-05
0.00637057
-1.09972e-07
4.28332e-05
0.00485953
1.99114e-08
1.44473e-07
-5.40749e-05
-9.79767e-06
2.1551e-06
2.94245e-06
-0.000657745
-0.0190209
1.24789e-07
-0.00093551
0.147831
0.0266389
0.00039674
-0.0313726
0.0155317
-2.43814e-05
2.19806e-06
-0.00846894
0.00451829
-3.77357e-07
-0.0161264
-0.0244729
-6.84801e-05
-0.632059
-0.000558323
0.125467
1.42451e-07
0.0361359
0.0113888
-1.23164e-05
2.21175e-05
-3.11388e-07
-1.91925e-06
0.0807974
1.6731e-06
-2.68048e-06
6.43815e-08
-0.0187526
-1.06287e-08
3.72756e-07
-1.71273e-06
1.42724e-06
-0.0383742
-2.91076e-06
-0.0695438
-7.86272e-09
-0.141501
-0.0007349
6.4276e-07
-0.00392554
1.91796e-07
-0.542367
-0.0333417
-0.000150841
0.00605298
0.00116537
3.72968e-07
9.35148e-06
5.2124e-07
-1.91014e-06
-0.00255101
-0.637524
0.0475869
-3.50547e-09
1.55912e-07
-5.77656e-06
-2.14741
2.21484e-07
4.35157e-08
-3.91012e-05
6.39422e-07
-0.000539113
0.000217476
5.80925e-07
1.08208e-07
-3.27903e-07
0.00387474
1.1709e-06
1.7841e-07
-0.00223713
0.00176202
1.26867e-07
-4.2331e-07
-0.0160843
1.63997e-07
2.74006e-07
1.83347
3.28149e-06
2.07182e-07
-8.93378e-09
-0.000174662
-4.79887e-08
-6.91058e-07
-1.22027e-06
2.16426e-07
-0.0293523
-0.00793753
-4.02659e-07
-0.0284263
-1.19487e-06
-0.00224824
0.0404393
2.2839e-06
-0.0265635
-0.00511879
7.38672e-06
2.94182e-07
2.05284e-07
-0.0165063
0.005812
-0.0231973
1.69244
-1.23136e-08
0.00654836
4.40415e-07
0.00374394
2.38036e-05
0.0107569
-3.94852e-10
-0.00952727
0.018172
0.0067637
4.20428e-08
0.0157495
0.659419
1.40117e-06
0.0120778
-9.18233e-08
5.34256e-08
3.0049e-06
1.24858e-06
-1.74275e-05
-0.0488105
0.00883699
5.49781e-08
2.38122e-07
0.244433
-6.00503e-07
-3.20953e-06
-4.80903e-07
2.29755e-07
0.040397
-3.9174e-07
7.20688e-07
1.46088e-05
-0.0237625
6.57228e-06
-7.96804e-07
0.0010489
-2.00433e-07
3.38916e-06
-0.025333
-5.12751e-07
-6.15447e-07
-0.0429752
-0.00315769
0.00482309
5.81827e-06
2.12503e-05
4.2061e-07
-0.000922222
-0.0625684
-5.27159e-06
0.00457519
0.00837744
0.00258888
0.000908886
-1.19641e-06
5.92319e-07
8.27412e-09
0.00795049
-0.0265381
4.05669e-06
0.00243336
-3.53401e-08
0.056475
2.51158e-07
-3.44782e-07
0.0467578
8.80315e-05
0.041891
-2.33592e-07
0.00707976
0.00846987
5.15322e-08
0.000721693
-5.65144e-09
0.00174611
7.51391e-08
3.92907e-06
-7.94989e-06
0.0120899
-5.7096e-07
-4.96719e-05
0.0531985
1.30677e-07
-0.00488655
-1.36515e-06
1.00084e-05
-0.241217
-8.64564e-06
-0.00910056
-7.35438e-06
-8.44537e-08
0.00203043
-6.37153e-06
5.40913e-08
-0.0456591
6.8578e-07
2.22265e-07
-0.0391368
9.22243e-07
1.72251e-07
1.12204e-05
0.140091
8.74091e-08
-3.09989e-08
9.98832e-08
3.80662e-07
2.68264e-07
-0.000300523
-0.00746507
0.0222806
-0.0192738
9.70453e-08
2.28228e-07
0.0330833
0.00741493
0.00323156
2.11377e-07
0.00234662
-0.0114701
0.00169761
-0.00159061
0.027316
-1.01184e-05
0.0892745
0.0918634
-0.000306008
-6.70791e-09
3.33577e-06
0.0015384
1.51449e-07
-0.0109547
-3.42243e-05
-0.0414409
0.196691
2.47975e-08
-0.00313696
8.46013e-08
7.16567
-0.0207964
0.0106804
-5.29913e-05
0.013976
2.85619e-07
1.31713e-06
0.0177143
-0.0158286
-0.00661222
1.70585e-06
1.21197e-07
-1.26649e-07
-2.08365e-05
-4.0438e-07
2.42594e-05
-2.67036e-07
5.69386e-07
0.0232065
-0.0344022
6.91434e-08
0.0128552
-5.40175e-08
-2.34684e-06
0.00125124
2.20289e-05
-1.40974e-07
1.93987e-06
-0.0709567
-1.81154e-07
-3.933e-06
2.23685e-07
-0.00479075
-0.00615984
-0.0159075
0.0607079
0.0367441
0.00406789
6.10725e-07
4.3332e-06
0.0032199
0.136709
0.0177611
-0.000370115
2.0352e-06
0.0260801
-0.000194185
-0.0337096
4.33281e-07
2.29142e-07
-9.7913e-07
0.307023
0.0084599
0.0370282
-0.130766
2.5414e-08
-1.84002e-05
0.0377792
-0.244875
-2.39478e-07
-0.00160159
0.155537
0.00035426
-0.00392208
-1.25611
-2.6319e-07
-0.121624
0.00872369
0.0155063
0.000430107
4.24498e-07
0.220188
-0.00293692
0.00482071
0.0346166
-2.94005e-08
0.000322625
6.81051e-05
1.9646e-07
-4.59291e-08
-0.00530993
3.35224e-05
2.39357e-06
4.25254e-08
-0.000341519
0.000331405
1.25409e-05
-5.52122e-05
0.229647
1.07806e-06
-4.74569e-07
-0.0607779
4.79991e-07
-7.2307e-07
-6.60653e-07
-3.95381e-07
2.22936e-08
0.0133517
0.00495133
0.00266769
3.4368e-05
-8.66554e-05
-0.0134567
-6.95445e-07
-0.000525728
-5.2749e-07
0.029385
-0.00415788
-1.67894e-07
-0.00144403
0.0101359
2.75681e-07
3.42346e-05
0.0146953
-0.0763897
-3.83074e-08
-0.0262508
-0.0672859
0.0093295
-1.00546e-06
2.37812e-08
-0.0113825
0.000557266
-0.00134901
0.0026266
0.000642804
0.00799197
2.1154e-07
4.3269e-06
0.0588618
9.94659e-09
1.36379e-07
-4.92647e-08
0.00226329
6.54996e-08
-0.825737
0.0151651
1.96689e-06
8.81343e-08
5.46417e-08
-0.000165171
0.0320629
-9.50601e-05
7.322e-08
-1.97614e-06
0.0319202
-3.81528e-05
-0.00472261
-0.238178
-0.011228
-0.00113879
0.0049087
0.012634
0.0101694
-0.000119578
-0.00624051
-0.000809881
-1.4055e-07
7.43433e-07
0.013943
2.46335e-06
-4.00542e-08
-0.00399662
0.00010159
1.36821e-06
0.00290757
-7.42208e-06
3.0808e-09
2.9399e-06
1.15291e-06
-0.000215631
-3.57863e-07
-2.02047e-08
-9.05438e-09
-2.48491
0.0032928
-0.75772
-0.00843561
-0.0267826
1.0235e-07
-0.00928603
-9.73031e-07
2.98545e-06
-1.6224e-07
-0.0252298
2.87271e-07
-7.43453e-07
-5.39393e-07
1.10999e-08
-6.51294e-07
-1.11747e-06
-0.0103425
-0.0113634
3.60007e-06
-1.4904e-07
-0.00902478
4.0091e-06
-0.00137289
2.41083e-07
-0.00936495
-8.82112e-09
3.65425e-08
0.0358275
5.67999e-06
1.41713e-07
0.0311302
0.0151042
0.0056824
6.02281e-07
0.00017036
-7.83219e-05
-0.0296675
-1.11579e-06
2.38124e-06
0.0118441
-0.0588247
-0.026065
3.22727e-08
8.78023e-07
-0.0279383
-0.00597212
0.032616
-3.10642e-07
0.0204009
-0.00118621
1.15187e-06
-9.09992e-07
-7.84306e-07
-0.0252901
2.80365e-05
-0.00503502
-0.0201437
1.6266e-06
5.2991e-07
-0.0460808
0.00902006
-0.000722523
2.42788e-07
0.0291883
-0.0517416
3.6926e-06
-4.02984e-07
-0.000580437
-1.1004
1.79598e-06
2.30454e-07
0.0163663
-3.15686e-07
-5.20596e-08
-9.77978e-07
0.100689
0.0314303
-3.15775e-07
-2.89772e-07
-0.0074566
9.38349e-07
1.84736e-06
0.0399371
-0.0164618
0.00140428
-0.0525209
-4.56979e-08
2.06843e-06
1.96377e-07
0.00623534
0.000255753
-0.106727
-0.00303167
1.74943e-06
7.58946e-08
-0.00500165
-9.88097e-08
2.76607e-06
0.0315159
-6.74437e-08
-9.7104e-07
-0.0346359
-0.0882751
1.66081e-06
0.0937047
-2.12227e-09
-2.73746e-08
2.47088e-06
-0.0332798
3.71204e-08
-2.70965e-07
-6.96452e-08
-6.19938e-05
-0.00283751
0.105481
0.00815298
-3.29115e-09
1.84795e-06
1.12523e-08
0.000678654
0.00499367
1.91886e-07
-0.159147
4.84087e-05
-1.83597e-06
-0.000256185
-1.94449e-07
-0.00313923
-0.00324997
2.01463e-07
-0.0156174
2.37417e-06
-2.58072e-06
5.26201e-06
1.61595e-06
5.63938e-07
-0.00111011
-2.30159e-10
0.0184536
5.777e-05
2.36146e-08
1.53232e-07
-0.000168687
1.80632e-07
-7.49788e-08
1.05873e-07
-1.19782e-08
-0.00027514
2.08294e-06
0.0288073
0.598804
2.00453e-07
-0.000105924
0.0145751
-0.000137094
0.0144073
0.0409306
-5.30669e-09
0.407929
-0.0519948
1.21413e-07
0.0364457
-2.74062e-07
-0.05527
-0.0206655
0.03178
1.57081
0.00194112
2.80576e-06
2.6635e-07
-0.00185187
2.72413e-07
0.00245859
-0.0351717
0.0219082
-1.65761e-06
1.05662e-06
-0.000247878
0.00791747
-1.70309e-06
-6.10764e-07
1.01872e-09
-0.00919969
-0.000131003
0.00984261
-0.000492202
1.77587e-07
-0.377565
-3.96654e-06
-0.000318964
0.0067941
0.0110034
3.69108e-07
-0.0102234
9.66398e-07
-0.00023939
0.0271051
-0.00463015
-0.0317548
-0.0144094
0.00372191
1.92989e-07
8.32361e-08
1.55977e-07
0.115945
0.00406052
0.000155126
7.01205e-08
2.35522e-06
-3.03662e-06
9.52041e-07
-3.47769
-3.84903e-08
0.0231899
-8.74497e-05
0.106456
0.0336029
-0.00188749
0.180677
-0.0128807
6.80093e-08
0.00778475
0.00843791
-3.06482e-05
0.0192479
0.000160204
-0.000355344
-0.022744
1.43916e-06
0.028263
1.79844e-07
0.210528
-0.0342706
-1.37875e-07
0.0870644
-5.32113e-08
-4.59095e-07
6.16468e-08
3.65179
1.19045e-07
-0.0404683
6.66557e-08
1.08218e-08
-2.79724e-06
0.000636282
8.84171e-07
4.92267
-6.7022e-09
3.61652
1.48798e-07
-1.04827e-08
0.750212
0.0395661
2.22357
3.77884e-08
3.56487e-07
-2.47431e-06
-0.0177681
-0.0394123
6.64656e-09
3.64033e-06
0.0706324
-1.30064e-05
0.0300232
-2.93547e-06
3.25665e-06
-6.647e-07
4.7772e-05
0.0468628
-0.00123961
-0.0584807
-1.37408e-07
1.41721e-06
-5.30575e-07
-1.27502e-07
-0.00557902
-0.0573351
2.54558e-07
1.1646e-06
-0.00775777
3.76965e-06
-0.00141918
0.154012
3.65634e-06
-2.06647e-06
-0.00966394
-0.0764085
3.99145e-06
-2.50558e-07
5.68402e-08
5.98626e-07
0.013929
0.0003859
8.16976e-08
0.0157087
-0.0255665
-0.035689
0.00115842
-1.52128e-07
0.0225573
6.937e-06
0.0192838
0.048255
-0.0237061
0.0108884
0.00738005
-0.0511109
0.00256653
5.21632e-07
-0.00432177
-0.0404014
-1.1441e-06
-0.00125417
3.03092e-07
-3.97681e-07
8.7566e-06
0.00747309
-4.56276e-05
2.65838e-06
6.78323e-07
3.21254
6.18651e-08
8.28399e-08
6.16277e-05
-0.00440267
1.07185
-0.0229923
-0.109244
-3.93213e-07
-1.50215e-05
-3.20213e-07
0.0127887
3.94384e-06
6.51078e-08
5.44624e-05
2.81389e-07
2.50655e-07
-4.12619e-05
-3.26602e-08
8.34774e-07
-0.0455938
9.24407e-07
-5.75177e-06
0.0112264
1.71704e-05
0.0203167
-0.000291479
-0.00786194
-2.55738e-07
-0.000424024
-0.000251132
-1.16042e-06
3.73391e-06
0.00774333
-4.3172e-07
0.00189211
0.0186028
0.000726723
-5.85756e-05
-1.0012e-06
-0.0111458
-2.73533e-06
-6.33292e-07
-0.128435
-0.0118148
-0.000191759
0.0129169
-0.0345544
6.65482e-07
4.8191e-05
1.31112e-06
3.8369e-07
-1.67027e-07
-0.0283944
-0.0102651
0.0720651
0.00302156
0.000525346
-6.93674e-05
-5.45092e-09
0.000179324
2.39978e-06
-9.32749e-05
-0.000660561
9.41532e-08
-3.80174e-10
-0.000374759
1.27436e-05
-0.00716348
-1.97088e-07
-2.91535e-06
-2.3825e-09
3.3308e-05
1.94861e-07
0.0636928
-0.00026189
-0.00262639
2.2249e-06
0.00289726
-0.0369527
-0.000171784
0.00845229
-0.019356
0.0533118
1.01899e-07
-0.000557373
1.21331e-05
-2.41727e-07
0.00025631
-0.125439
-0.0517095
-9.0284e-05
-0.000143451
1.01952e-07
-0.000217277
-1.84894e-06
0.00363557
0.000101072
-4.84985e-07
0.402076
0.0277629
-2.82401e-07
-0.0279626
-0.00297189
2.82107e-06
-0.0109444
-0.0055453
1.91766
3.85264e-06
6.36913e-07
0.0874497
5.32749e-09
-1.15922e-05
-0.0137928
-0.801053
-5.8919e-07
0.0217099
-1.00322e-07
7.61101e-07
-4.24728e-05
1.52526e-07
0.0190566
2.04412e-05
-2.89335e-06
-0.000444273
5.08948e-07
1.6361e-06
7.43658e-08
-4.84272e-06
-0.0302129
7.0087e-08
0.0193006
-0.103992
0.000211106
0.0299185
-0.000911352
-0.000108889
-0.000655972
-1.04201e-06
-2.24375e-07
-0.268202
0.00186254
-9.9907e-07
0.0457885
-8.75421e-09
0.0173474
-0.0235257
0.029651
-0.00996599
0.00311897
-4.71485e-07
-0.000109045
0.14077
-4.91258e-05
0.000606417
-0.0279996
-3.90706e-08
0.0159242
1.36781e-06
0.0898665
-0.0252894
-1.01617e-05
-2.8782e-07
-6.12962e-06
-0.000487121
0.00135266
8.4869e-08
1.12943e-05
0.0176879
2.95918e-07
-0.00658489
-0.000168278
-2.39855e-06
-0.00066083
-0.023537
-1.64986e-07
-3.3301e-08
-6.21167e-07
-0.000730613
7.03515e-08
-4.702e-06
-0.0172505
-0.435125
1.12156e-06
-0.0352357
0.243302
-0.113581
0.0477265
0.0141763
-0.000676737
-0.000238555
2.68198e-08
-2.89018e-07
-0.0259541
2.33648e-07
0.0119692
0.00198762
-7.86789e-06
-0.00126847
-0.00493225
2.09894e-06
2.59987
-3.65675e-09
-0.0179038
-6.31435e-05
6.37833e-07
0.0925473
8.74673e-09
6.70102e-08
-1.30797e-07
2.15875e-07
3.23979e-07
-0.00416304
-0.037247
2.38979e-05
-0.0259977
1.34303e-06
-4.20087e-07
-0.00144296
2.63699e-05
4.52134e-06
3.60156e-06
0.0278948
-0.0162673
4.33892e-05
-4.29377e-08
1.35032e-06
1.70003e-06
-2.03341e-07
-3.99968e-06
1.20733e-07
-0.495689
-1.1394e-06
-0.0834807
0.00891102
2.45479e-07
-0.00700608
-0.0451126
0.00037599
0.0081174
6.63786e-05
1.8691e-06
1.91804e-08
5.53313e-06
-1.92985e-07
0.175268
0.0350174
-1.73502e-09
-1.50282e-09
0.0259409
2.60335e-07
-0.0001802
-1.08346e-06
-1.30519e-07
0.0261217
2.36879e-07
5.85092e-06
5.77482e-07
-2.35287e-07
2.13796e-07
3.95881e-07
2.33884e-07
-2.55879e-07
0.0567949
8.60766e-06
1.04221e-06
1.30961e-06
0.000753822
0.126679
-4.44665e-07
-0.00973407
-0.00083349
0.000946199
-0.00111764
1.20139e-07
-0.0251802
0.0517773
-0.011594
8.4272e-08
0.0707625
2.76341e-07
-0.000112774
-0.0805047
9.73598e-07
0.380277
0.00627643
4.12401e-06
0.0328455
-0.0445133
-0.00772567
0.00527061
0.000692233
1.77567e-06
0.0135063
-2.78648e-08
2.53427e-06
0.000139509
8.36121e-07
-3.92777e-07
1.16368e-07
-0.000274711
3.86742e-07
-0.0692459
-3.82088e-05
-0.00200235
3.62076e-06
0.235323
0.0537283
-0.0210305
-2.21817
-5.96327e-08
-0.0367958
-5.10563e-07
7.19338e-05
2.00515e-06
-0.0144053
0.109634
6.05438e-09
-2.65916e-06
-1.75606e-06
-0.00033695
-1.43013e-07
-0.199804
10.1046
0.000140879
-0.0444152
0.0409949
1.55483e-06
1.10634e-06
2.19262e-06
-4.05943e-07
2.0857
6.69585e-06
-0.0248242
-8.72115e-08
-0.0585219
-0.445448
-0.00903835
-3.98013e-05
-0.033993
-0.0199322
-0.00689496
3.26569e-06
-4.05875e-07
0.000903271
4.31302e-08
3.09216e-07
-0.0291915
-4.77484e-07
8.9893e-07
-2.50382e-08
-3.45184e-09
1.44618e-06
-2.72069e-07
-3.07314e-07
-4.69291e-05
0.0645955
-7.49577e-05
-3.46604e-05
-8.48283e-06
0.0352857
0.0115665
0.00438566
0.00439874
-3.13639e-05
-1.24322e-05
1.71903e-06
-0.0236517
-1.20783e-06
3.83771e-07
0.443292
3.01289e-07
-2.24125e-07
0.000156644
3.96802e-07
-0.000591775
0.0144042
1.46036e-05
-7.61261e-09
-2.56113e-08
9.44054e-08
-0.00187012
7.91635e-07
-4.29326e-05
0.0212024
0.0296331
-9.54485e-07
0.00112583
-7.3049e-06
-8.40473e-06
1.35538e-06
-0.000774525
-4.28243e-10
0.000166962
-0.0415585
5.16053e-07
0.0151596
-0.0111256
0.00837634
-0.0218069
0.00115084
-0.0566887
-0.0236559
0.00588015
-0.0736607
-0.0184732
4.14527e-05
0.471844
-4.24282e-08
0.000334117
-0.0123075
0.972305
-4.64437e-06
4.73673e-06
4.97508e-07
0.0248003
-0.0431541
-4.16365e-08
1.84849e-06
5.38985e-05
6.96021e-08
3.94833e-06
4.70479e-06
-0.0282691
0.000220947
-2.51658e-07
-0.000233844
-1.75331
-3.38803e-07
-4.61999e-06
-0.0316778
-1.3896e-07
0.0145182
0.000675774
-0.000333669
0.00139978
0.0120426
0.00737564
-0.00352884
0.0464847
-0.0359723
0.000120624
-2.67001e-07
-7.7554e-08
-0.136368
0.0871504
-2.60637e-06
0.00668523
-1.71272e-06
-3.08291e-07
-1.3942e-06
-9.41987e-11
-8.53949e-07
2.17867e-07
0.000291278
-0.000113591
-0.00573584
0.062545
-1.09147e-05
0.00277459
0.0495682
-0.0615043
-8.46211e-07
1.63784
-9.17073e-06
0.0163456
-7.06498e-08
-0.579292
0.0435361
-0.00171654
0.00122857
-0.0162184
-0.446457
0.00025204
-0.00465992
-4.72397e-05
1.60483e-07
-0.00850226
0.139268
0.0141127
4.16707e-07
7.12202e-08
1.43115e-05
-0.0595778
-0.0118612
-2.09705e-06
0.00105667
0.0399295
-0.000812498
0.00570391
4.09294e-07
2.99873e-07
-7.84251e-07
-0.0295003
-0.000307669
0.0368833
-9.82328e-07
-1.00422e-06
-4.74007e-07
1.13174
-8.42366e-06
-1.66084e-07
0.0122975
-0.0133064
1.4286e-06
0.00275236
0.238756
2.3547e-06
0.0615147
-2.67953e-07
1.61695e-06
0.118749
1.0231e-06
0.000853194
8.50673e-08
5.07219e-08
0.0151115
2.28872e-07
-3.04989e-06
-0.257533
1.32041e-06
-0.0176396
-1.27619e-05
-0.0902121
-0.0204969
-0.00687753
-0.00226806
-0.00403236
-0.0186079
-0.0571409
0.000175035
2.25171e-07
-2.45856e-05
1.12935e-06
1.35373e-06
-0.0564
-6.75151e-07
-0.00440706
0.000264911
-3.70861e-07
-0.011416
-0.135816
-1.37925e-05
-0.00818728
2.33888e-06
-0.665592
0.064469
-2.08407e-07
3.39212e-07
-0.0186459
2.09713e-06
0.767566
0.0617078
4.95843e-07
-0.000149083
-3.83436e-07
0.0185404
-3.70716e-10
-0.00219711
-0.0204642
-9.66863e-07
-4.81587e-05
0.0324425
0.00826899
-1.44043e-07
0.0112322
-9.50616e-09
-0.017132
-0.00764178
-3.19635e-07
-0.0519599
1.71509e-06
-0.0174709
-3.90982e-06
-0.00445509
3.08928e-06
-0.00648258
-0.0181279
0.000134729
-1.27486
0.0240125
0.00346135
-0.0482295
-0.0300563
8.74378e-07
-2.55424e-05
2.95786e-06
-1.79046e-09
-6.25781e-08
2.88454e-07
-1.35788e-07
0.000299908
3.61265e-07
-0.000832905
2.97179e-07
-0.0141803
-1.94982e-07
2.31405e-07
8.77786e-07
8.01482e-07
-0.00332529
1.86716e-05
0.0484028
1.2777e-08
0.00266197
-0.0127166
-5.78432e-07
1.59202e-06
2.50816e-06
0.000535832
0.00266602
-1.78128e-05
-5.77777e-09
-0.01813
1.44602e-06
0.000564067
0.000130486
-0.0150658
0.00364916
2.44992e-06
9.85106e-07
-0.00250188
9.86814e-05
0.000479389
-0.0113355
-3.07264e-07
0.0550739
-3.5086e-07
0.00553572
-0.0124991
2.93201e-06
0.0102395
-2.91504e-07
2.1365e-06
2.23565e-07
-7.88542e-07
0.0189088
-0.783934
-0.0444893
-0.0125304
3.48567e-05
0.00016588
-3.11874e-05
-0.0127319
5.81818e-07
1.85551e-07
-0.0105621
0.00163923
-0.000582098
5.88873e-05
-0.000184526
-0.0179215
-0.0560909
-0.0218651
-7.15203e-09
3.379e-06
0.0327649
-0.640935
0.0151179
-0.0503022
-8.96301e-07
4.56938e-07
3.01096e-07
-0.000211542
-0.000861268
-0.0153391
4.10324e-08
1.09695e-07
-3.92259e-09
-0.808757
-5.85614e-07
6.62532
-1.22609e-09
-6.50616e-06
0.0501412
-9.80228e-10
0.00276157
-6.13601e-09
-8.19786e-06
1.53798e-06
-3.70313e-05
-0.00134962
-0.891063
0.00030091
1.61713e-07
1.93909e-07
0.000120836
-0.0331902
0.0172993
3.80242e-07
-0.000781998
-0.0481332
-13.5979
3.2036e-07
0.0284756
0.00132426
-0.000277342
-1.03927e-05
-0.00154546
-5.63864e-09
-0.000235387
1.13373e-06
-1.13103
0.0269921
7.85913e-07
2.75153e-07
4.83423e-05
-0.0235987
-0.00198784
2.09692e-06
-0.00715885
0.000537598
-0.0159398
-0.00774747
3.22229e-06
2.81088e-05
-0.0135001
-5.76183e-06
-4.45294e-08
-0.00209784
0.030518
-0.00260649
0.0243465
0.0658398
-0.00744826
0.012634
0.00627626
1.50689e-06
-0.00270211
-8.90133e-05
2.70212e-06
-3.67496e-05
6.81462e-06
0.0125216
-2.24689e-08
-6.52044e-07
-0.013301
0.000125308
3.37122e-06
0.587839
-0.0142959
-0.00643491
1.52661e-05
-0.000592826
-5.66586e-07
-2.8102e-09
0.0124774
-0.000368099
3.0244e-08
0.0280031
2.18161e-07
-1.80645e-06
-0.00618528
-1.71889e-08
0.000458711
5.04409e-07
-0.0034665
0.0130198
-1.96059e-08
2.51209e-05
0.0664637
5.84362e-07
-0.311263
3.28877e-07
0.0196552
1.56693e-06
0.00896761
-0.00187452
-0.0148108
1.32343e-07
-0.122765
0.0446671
2.00864e-07
1.25689e-06
4.19349e-07
1.16e-07
-0.0111612
-0.0127042
-0.000314016
-0.0580556
-0.000590944
2.7005e-06
-9.73248e-06
2.75902e-05
3.15788e-07
-6.48514e-07
4.90422e-05
0.0443286
0.0156775
2.31929e-05
-0.000246401
0.0849297
1.93814e-07
-1.62464e-06
2.96072e-07
0.0388629
-5.34271e-08
-0.0852465
-0.00496351
-0.000507234
3.1621e-06