/*--------------------------------*- C++ -*----------------------------------*\
| =========                 |                                                 |
| \\      /  F ield         | OpenFOAM: The Open Source CFD Toolbox           |
|  \\    /   O peration     | Version:  v2012                                 |
|   \\  /    A nd           | Website:  www.openfoam.com                      |
|    \\/     M anipulation  |                                                 |
\*---------------------------------------------------------------------------*/
FoamFile
{
    version     2.0;
    format      ascii;
    class       volScalarField;
    location    "300";
    object      ddt0(k);
}
// * * * * * * * * * * * * * * * * * * * * * * * * * * * * * * * * * * * * * //

dimensions      [0 2 -3 0 0 0 0];


internalField   nonuniform List<scalar> 
27802
(
1.03691e-08
-1.62942e-11
8.92019e-09
3.46396e-08
4.21514e-10
0.00164066
1.85715e-10
-3.13999e-07
6.09943e-09
-0.000111811
-0.0014711
2.51904e-06
-1.32231e-07
6.40643e-08
-0.000305525
-3.14315e-06
-4.8811e-05
4.10326e-09
-0.00145941
0.000253073
0.000640156
-0.000308132
-4.84128e-09
-2.76817e-07
1.28873e-05
1.44924e-07
-3.43852e-09
5.20502e-08
-1.27215e-09
-6.32953e-06
-2.6799e-07
9.56882e-09
1.29532e-08
7.28767e-09
-9.52274e-11
-3.75275e-05
1.34014e-05
-4.83879e-09
3.02573e-09
1.20205e-06
-1.94166e-06
-1.41453e-10
2.33655e-08
3.07129e-09
-1.31035e-08
0.000158795
2.14651e-09
-3.77417e-06
1.24313e-07
0.000187644
-0.000415277
-2.52725e-08
4.62037e-05
2.78331e-06
-2.56278e-09
-1.06118e-10
-6.38529e-07
-1.25171e-08
-8.65612e-09
-1.33433e-07
-0.000168644
2.60921e-09
-7.20237e-08
-3.19765e-09
2.21422e-09
-3.72177e-09
0.00207397
-5.87272e-07
-1.2847e-07
1.54846e-08
3.78297e-09
0.000282581
-0.000114151
7.01581e-08
1.67982e-09
8.54596e-09
0.0021225
-1.60468e-05
-1.64559e-05
-1.79445e-05
-1.17095e-09
-4.75191e-10
5.88459e-07
-2.21559e-08
-2.11301e-08
9.0093e-09
-1.76814e-10
0.00017684
-0.000154382
-2.12607e-09
-1.28597e-08
-0.000127128
3.36691e-09
-8.46073e-06
-8.69758e-05
1.63285e-08
1.80945e-10
2.91311e-08
-1.6935e-10
-0.00110591
3.26121e-09
-5.77483e-09
1.37421e-07
-0.000152611
-7.88265e-05
-1.6207e-07
-8.18621e-09
2.73707e-09
-2.70651e-09
-1.6803e-08
-4.23863e-06
-1.31172e-08
6.9174e-09
-1.19268e-09
-6.70013e-09
-3.1743e-09
-2.10705e-08
-7.97909e-06
-3.02648e-05
1.06183e-05
0.000214116
-1.46091e-07
-5.85682e-05
-1.17324e-05
0.00103962
-3.59641e-06
-2.53337e-08
3.03424e-08
-0.000170952
6.52328e-09
-1.32185e-07
-2.56474e-09
1.6885e-08
-1.36786e-05
-9.44846e-05
2.39952e-08
-2.09275e-07
4.8553e-07
-3.1753e-09
1.88793e-08
2.24846e-07
0.000140986
4.85423e-08
5.367e-08
-4.61156e-09
0.000185714
-1.25043e-08
1.76157e-09
8.38411e-09
0.00494248
-1.66983e-07
-0.00265443
2.28949e-08
1.46434e-05
-2.49208e-12
-0.00010147
2.35741e-08
1.37203e-08
7.23081e-10
1.15883e-09
-3.45958e-09
-1.5239e-09
0.000207125
3.35894e-09
-4.33725e-10
-7.79756e-11
-8.16421e-05
1.26399e-08
1.8826e-08
2.11339e-08
-9.62225e-07
-0.000195578
3.11953e-05
0.0150383
-4.81857e-10
-1.07178e-05
5.77867e-05
-0.00120339
-3.46747e-09
-8.8287e-09
1.33715e-05
0.000395103
0.000151051
0.00118665
-7.79355e-10
1.63228e-06
-0.000119173
1.14428e-06
-1.10593e-06
2.47431e-08
0.00024139
-5.00294e-11
1.06218e-08
-0.000208795
2.17604e-09
0.00100963
5.5171e-05
-0.0010239
9.39685e-05
0.00208987
5.07025e-06
5.95158e-10
1.61242e-08
-1.92891e-08
0.000249658
-1.32659e-08
1.14811e-08
3.23186e-09
2.02207e-06
-8.55563e-09
7.63938e-09
0.000989566
3.49846e-08
7.06079e-05
7.43906e-10
-3.10858e-09
-1.42752e-07
1.22283e-08
-1.50409e-08
-1.50452e-10
-0.000103466
5.70188e-09
1.20956e-09
4.62255e-06
1.17492e-08
-3.71825e-06
-2.82399e-08
-4.24248e-09
4.91935e-09
1.09659e-08
-1.18184e-09
-1.28011e-08
-9.76366e-07
2.75623e-11
-4.73277e-11
-0.000149347
-2.71241e-07
-7.45852e-06
-2.53588e-08
2.56912e-06
0.000192635
0.000168235
0.00037686
0.00026038
0.000738339
2.52331e-08
-5.98254e-09
-3.54657e-06
-4.70006e-10
-1.94407e-10
4.46222e-07
-4.11006e-10
3.34341e-06
1.01471e-08
0.000132033
0.000270252
2.85692e-08
-1.02263e-06
1.36658e-08
1.38612e-09
-5.42857e-10
-9.22458e-05
-1.60703e-05
-1.07872e-06
8.42543e-09
1.62583e-08
-2.84924e-09
1.86254e-06
0.000309028
6.65286e-08
-1.70049e-05
-2.40489e-09
0.000699463
2.82699e-09
-4.90363e-10
-5.19127e-11
-7.77202e-09
1.67551e-09
-8.71241e-09
0.000289143
3.48922e-09
4.61993e-08
7.28632e-06
1.42082e-07
-8.61535e-05
2.17895e-08
-0.00129072
3.99245e-09
1.62421e-06
2.58311e-05
-0.000122019
-7.71852e-05
-6.27919e-05
8.21864e-09
4.84427e-09
2.0098e-09
3.44724e-09
-0.000128555
1.04929e-06
-8.27988e-08
-0.000157548
-1.36403e-08
0.000211692
-0.192685
-0.000175073
2.0198e-09
-7.48663e-08
1.45266e-08
-0.000176221
-6.13113e-09
0.000159317
6.29659e-07
1.13648e-05
-1.34827e-08
7.29032e-05
-0.000179349
-7.60027e-08
-1.03087e-09
4.9821e-08
4.67029e-05
-6.20401e-09
-2.85731e-09
-2.0427e-07
0.000246993
3.40421e-05
2.03318e-09
-9.27844e-07
6.21535e-08
0.0021467
-8.26128e-10
0.00129702
2.4178e-09
1.07554e-09
-1.39408e-07
2.44951e-05
-2.7707e-08
-1.55812e-08
-2.20338e-09
4.58686e-07
9.78298e-09
-1.45498e-08
5.80081e-05
1.26032e-08
-4.72978e-05
-7.94203e-06
-2.68018e-05
2.80494e-08
1.02282e-08
2.51965e-08
7.51692e-09
-3.99005e-07
4.33623e-06
8.07522e-10
-9.94262e-07
-2.34029e-08
-7.88434e-09
1.93329e-08
1.80833e-08
0.00020443
1.88983e-09
-1.68348e-06
0.00131078
-0.000377557
1.51399e-09
-1.49421e-08
-1.55474e-08
0.000173581
3.6568e-09
-3.66672e-06
5.14053e-09
-6.88941e-07
-3.28277e-07
-1.48399e-05
7.61006e-09
1.22965e-08
-9.5433e-09
4.5221e-06
-1.28779e-08
-1.04729e-06
5.19163e-09
-1.04832e-08
5.95754e-10
2.13466e-09
-1.34293e-10
-1.47986e-08
4.60237e-06
2.8617e-07
-2.236e-07
0.000138448
-4.93281e-06
2.78806e-09
-0.000104891
4.61417e-09
2.52691e-08
-6.25942e-06
-2.48829e-08
5.75798e-10
0.000417541
0.00163204
8.24668e-05
9.24557e-08
-0.000148537
3.45219e-10
6.48834e-10
1.77961e-07
1.03866e-05
2.46743e-09
8.95107e-10
-8.2887e-08
2.77261e-08
-8.21253e-09
4.55438e-07
0.00181796
-0.000102793
0.00159574
-0.000140443
-7.06288e-10
0.000270552
-5.773e-09
-0.000146291
3.04138e-08
-1.04648e-05
-1.0453e-10
2.94728e-09
-2.6802e-08
2.46649e-08
-1.16898e-07
5.10926e-09
-1.50224e-08
-2.53129e-07
-3.15881e-09
2.19395e-08
6.78189e-06
-0.00146409
1.12082e-07
1.98564e-05
-2.14321e-07
-4.2745e-06
6.15074e-08
2.45522e-08
8.35119e-08
-0.000183728
9.26476e-09
-1.26998e-08
2.35559e-07
2.38654e-08
-2.90865e-07
7.88224e-09
-1.16899e-09
-6.41692e-10
0.00014209
0.000201522
7.28696e-09
-1.88104e-09
-0.00050481
6.83993e-10
0.00226066
1.13585e-09
-2.03518e-08
2.74668e-08
-0.000341608
1.76351e-08
5.34638e-09
-0.00139054
9.06309e-10
-5.21695e-08
-5.25969e-05
2.09046e-07
-5.19244e-09
6.47779e-05
-3.29589e-06
-1.94157e-06
0.000213219
-3.89338e-06
-2.01955e-08
-5.03583e-08
-3.31918e-09
-5.78966e-05
2.27904e-09
-5.98216e-07
2.37344e-08
3.09299e-08
0.000103924
0.000366716
-2.02226e-09
-9.81355e-09
-2.12578e-07
1.12193e-08
-8.628e-09
1.76508e-08
1.77217e-09
6.25454e-08
1.6283e-08
-2.07813e-06
-0.00167913
2.08127e-09
-5.06072e-06
0.000130215
-1.30234e-09
2.24068e-08
1.08073e-09
-1.64996e-10
-7.09277e-05
-1.0899e-05
1.49281e-07
4.88508e-05
0.00174575
-1.25036e-08
0.000150549
2.68495e-10
-3.20431e-07
-3.80172e-08
1.70594e-08
4.73896e-10
-5.34183e-09
2.87587e-08
3.19681e-06
6.42335e-05
-7.09243e-09
0.000170934
0.00161747
-9.98799e-07
-6.03648e-09
-4.93542e-09
0.000174267
4.34178e-07
-2.33149e-10
-1.2001e-09
-1.62493e-08
8.31817e-05
2.34579e-07
-7.08144e-05
8.72849e-09
1.51021e-08
-7.09105e-06
-1.20376e-08
8.37992e-10
4.89052e-09
-0.00162607
-1.18147e-10
1.58882e-05
5.49451e-09
5.56845e-06
-3.8681e-06
0.000160079
6.29789e-09
-5.95564e-09
9.97407e-05
-1.0996e-08
2.70058e-09
1.40591e-08
-2.58969e-08
2.03693e-08
5.92946e-09
6.47686e-05
-3.49611e-08
-0.000968276
0.00144057
1.84112e-06
8.99057e-09
0.000238186
-2.11707e-07
2.43321e-08
-2.47404e-07
9.72325e-05
6.85168e-10
8.1995e-10
-1.92682e-09
0.0015396
-1.43683e-09
-3.38057e-09
-4.98708e-09
6.93325e-09
-5.60099e-06
-2.56734e-09
-1.29309e-05
-2.33393e-08
-1.25544e-09
-2.5588e-07
-3.26259e-08
-0.000160466
-0.000177384
-0.000117763
1.93407e-08
-4.28305e-11
1.29266e-09
0.000217432
2.05366e-09
-0.00018153
0.000468019
-1.42249e-06
0.000140736
0.000133589
2.49154e-08
-1.24254e-09
6.46309e-05
3.21039e-08
2.86814e-09
-1.6599e-10
0.000455079
2.21672e-07
-0.001327
9.57802e-05
-3.98291e-06
-2.38293e-08
6.7553e-06
4.09091e-06
2.80709e-09
0.000325996
0.00041604
-1.11954e-08
-2.05578e-06
0.000746253
4.83883e-09
1.13403e-07
-6.03911e-09
-3.35944e-07
3.81455e-09
2.7292e-08
-1.32783e-08
-5.20064e-06
-0.00202458
7.86114e-08
-0.000116714
7.94033e-09
-0.000130012
-5.11674e-11
-3.91588e-09
1.81297e-07
-4.56012e-07
-5.46896e-09
-6.21691e-06
-1.3354e-09
-5.17357e-08
-2.10028e-06
5.51521e-10
-5.29338e-09
1.98199e-08
7.97261e-07
1.40823e-07
5.79989e-05
-3.36852e-08
0.00182251
0.0013892
0.00011526
1.98185e-08
4.53368e-07
-2.02778e-05
-0.000116767
-3.27954e-08
-1.56658e-10
4.35443e-06
-5.71424e-07
-1.47383e-08
-1.36964e-05
-4.12025e-10
2.52962e-06
8.65726e-07
-1.24534e-10
-6.44944e-09
-3.18076e-06
0.000104541
-3.09105e-08
2.98133e-08
-1.66718e-05
-2.78165e-10
-1.86555e-08
-0.00011704
1.27072e-08
-4.28038e-08
-4.76551e-09
7.58699e-09
6.62972e-09
-0.000187111
4.3491e-08
6.38399e-10
-2.50367e-06
2.9039e-09
2.55942e-08
-0.000137702
-5.82872e-12
0.000167479
-1.4328e-08
4.6356e-09
1.08163e-08
6.72553e-10
-1.71638e-05
0.000165857
0.00232927
7.2692e-09
9.81402e-05
0.000131895
1.00765e-09
0.000101936
2.13685e-07
-1.25189e-10
3.25626e-09
2.30235e-08
-3.13266e-08
8.55604e-05
2.25452e-09
-7.94787e-11
-2.59377e-06
0.000199068
1.14375e-09
-1.52923e-05
7.42813e-06
9.17127e-05
8.72885e-09
9.00145e-09
-1.46271e-11
-2.37497e-08
-6.85253e-08
-6.05574e-09
5.13726e-09
-7.56411e-11
2.63329e-08
-3.25088e-08
0.000847977
3.12245e-05
-0.000920273
-2.42875e-08
3.04423e-07
3.31373e-08
-1.55188e-08
-6.49112e-09
1.50725e-08
-8.90371e-06
-4.39761e-07
0.00110129
-0.000141408
0.00029838
2.68147e-09
0.000144186
6.86523e-09
6.98386e-10
-1.13834e-06
-8.52567e-09
-1.01444e-05
-0.00137701
-8.84042e-05
1.25017e-05
-0.000136061
-1.5228e-08
3.5999e-07
9.58802e-06
8.4994e-09
5.27888e-05
-1.92417e-10
4.66642e-09
0.000117949
3.09441e-10
0.000154164
0.000170995
2.50195e-08
-2.66336e-10
0.000146107
3.00158e-09
-1.38778e-08
-0.00608284
-8.31124e-05
-2.57782e-06
-0.00138046
-1.53883e-08
2.85654e-08
1.54228e-08
-4.95938e-07
-6.51363e-09
0.000169511
-1.38263e-08
1.08142e-08
0.000132758
8.12713e-05
1.69103e-07
4.07482e-08
-4.01659e-09
1.20496e-09
-9.06136e-05
3.12311e-08
-3.40573e-08
-1.43219e-06
0.000159451
-4.11551e-06
-1.17065e-11
2.12475e-09
4.9846e-08
-2.09261e-09
0.000503151
2.54294e-07
1.12635e-06
9.24901e-09
2.07656e-07
2.02358e-08
0.000545478
-3.76404e-08
0.00020853
-6.26859e-08
0.000146774
2.32678e-09
9.85209e-09
0.000146639
2.77082e-08
3.8212e-07
-0.00166112
4.34479e-09
1.25582e-07
1.02227e-07
0.000102184
-3.08131e-09
1.89834e-09
-0.000195517
9.68966e-10
7.4477e-09
-3.65361e-07
8.79567e-05
1.19287e-07
8.05479e-05
-1.49476e-07
5.48386e-10
0.000183729
-0.000909633
-6.8837e-10
0.000767911
-5.65996e-08
-0.000118557
5.03537e-10
1.26399e-08
-2.52989e-08
2.05888e-08
9.14018e-07
5.99706e-09
-7.68098e-08
3.643e-05
-0.000143555
2.27941e-09
3.49978e-08
4.06775e-06
2.62055e-08
-8.26272e-09
1.15459e-08
-1.96124e-07
-0.0012917
-5.96965e-09
1.42292e-09
2.33545e-07
-1.39396e-08
-0.00041859
1.11616e-07
1.74476e-06
-7.94808e-06
-0.00219707
1.30091e-08
0.000479815
-0.000137133
-1.31103e-08
5.71748e-05
-1.57538e-08
-3.07691e-08
-7.678e-06
-1.85367e-09
0.000861098
-0.0193826
-0.000190496
-6.79782e-08
2.0939e-05
-6.6402e-09
0.000487337
7.31911e-10
5.13051e-05
-8.3624e-08
1.44818e-05
-2.68654e-08
1.60866e-09
7.48425e-09
-2.27689e-09
0.000724316
-1.53727e-06
1.17401e-08
2.8071e-07
-1.38939e-06
-4.99132e-09
0.00632251
-1.12255e-05
-3.99186e-07
-7.57299e-05
-1.8148e-08
-1.74651e-07
1.01832e-05
-1.61309e-09
-1.3377e-11
-1.29631e-07
1.57075e-07
0.000226111
-1.43161e-07
3.17114e-09
3.44455e-06
1.47015e-08
-6.92479e-11
-4.8229e-11
-4.52325e-10
-3.38304e-10
1.50856e-10
-5.66472e-10
2.52175e-08
3.02226e-09
-3.23407e-09
0.000163288
5.66294e-07
-9.4167e-09
1.74258e-09
3.19744e-05
-2.21881e-08
-5.14921e-07
4.14377e-10
-6.46664e-07
1.21948e-07
-0.000191082
-1.78912e-07
1.78142e-08
-2.21492e-08
5.32733e-07
2.17442e-08
-2.14484e-10
-1.34989e-05
-3.95184e-11
-3.83191e-07
7.20553e-10
-1.05242e-08
0.000114076
-0.00616412
6.29838e-10
-3.70769e-05
-9.44654e-06
-1.29194e-06
-1.35396e-08
3.4033e-09
1.05163e-05
-2.73047e-09
7.73957e-05
2.42327e-08
6.45684e-07
-4.69705e-09
-2.40962e-10
1.24919e-08
4.47181e-05
0.000649231
-0.00296092
7.01311e-05
-1.43054e-05
0.0002066
2.88837e-10
2.25009e-08
-1.04743e-06
7.02018e-05
-0.000165845
1.3669e-09
1.72094e-08
-5.30101e-09
0.000153788
-3.37009e-09
0.0021296
2.20084e-08
-0.000418059
2.30169e-08
-1.29761e-06
-1.43274e-09
5.48915e-09
-2.05992e-07
1.45323e-10
2.03722e-09
2.48276e-07
1.01036e-08
2.3378e-08
2.46037e-08
-3.78338e-07
6.53219e-07
2.92726e-09
-3.15237e-07
0.000932235
0.000222386
-3.80862e-07
0.00113122
0.000153391
-6.54332e-09
2.10048e-08
-1.1588e-06
1.95039e-06
-4.06278e-09
0.000159746
-0.00010234
-4.86626e-08
-0.00026515
-1.05155e-07
4.02048e-05
1.87579e-09
-9.33596e-05
0.000492497
3.13284e-09
-3.21037e-09
-4.05214e-09
-2.33782e-08
1.78756e-05
2.6171e-08
-2.39738e-08
8.79461e-10
-1.92377e-06
-1.09645e-10
5.22158e-09
-1.88564e-08
8.11535e-10
0.000138334
-2.03185e-08
-0.0126967
2.9279e-09
-0.0272635
4.47044e-07
1.03355e-08
-7.44578e-07
2.51414e-09
0.000368822
-0.000164766
8.08244e-08
-0.000205081
-7.80541e-07
5.73563e-09
2.82465e-08
7.09375e-09
-4.42568e-09
-4.57559e-06
0.000908383
-0.000116343
-4.67905e-11
2.03588e-09
-2.97941e-08
-2.1393e-05
2.88078e-09
6.0509e-10
-8.41044e-09
2.11855e-10
2.53815e-06
2.38087e-06
7.76586e-09
1.39295e-09
-5.41317e-09
-2.60451e-08
1.85949e-09
2.35289e-09
-1.95555e-06
-7.13874e-08
1.68978e-09
-5.50273e-09
0.00183373
2.13777e-09
4.57255e-09
0.000243683
3.17686e-08
4.07945e-09
-1.18373e-10
-1.08673e-06
-6.35167e-10
-8.75905e-09
-1.56457e-08
2.87709e-09
-3.43208e-05
-0.000161966
-5.33024e-09
-0.000105
-1.51716e-08
-0.000179476
0.000179609
1.32175e-08
-2.04924e-05
1.06138e-05
3.03159e-08
4.06932e-09
2.72238e-09
-0.000112985
2.53763e-07
0.000688659
0.00057224
-1.63277e-10
-6.12978e-07
4.04773e-09
-3.88733e-08
3.25826e-08
-1.83792e-05
-5.51207e-12
-1.29832e-05
0.000276732
8.01425e-07
5.41115e-10
0.000181946
-4.00826e-05
9.93684e-09
1.06711e-06
-1.11228e-09
7.14027e-10
2.36615e-08
1.01855e-08
-8.7903e-09
-4.58558e-05
0.000158533
7.13116e-10
3.09138e-09
0.00131127
1.51206e-09
7.76604e-11
-5.77031e-09
3.05161e-09
8.19452e-05
-5.39424e-09
8.77052e-09
2.38195e-08
9.16196e-05
-1.67992e-08
-1.04721e-08
0.000148293
-2.69207e-09
9.3248e-09
-8.10666e-06
-1.94077e-08
-2.19431e-09
-8.17339e-05
2.44575e-06
8.86533e-07
1.61122e-09
-2.00202e-08
5.43412e-10
-8.65135e-07
-0.000133201
6.43743e-09
1.74029e-08
0.000109041
-0.000206259
1.2392e-06
-1.53857e-08
1.70888e-09
1.01522e-09
0.000136858
0.000428275
1.3175e-08
-1.5078e-06
-5.76839e-10
0.000311574
3.26569e-09
-4.59547e-09
0.000130409
1.4962e-07
5.94021e-06
-2.64514e-09
0.000426895
0.000553694
6.66568e-10
-2.71782e-06
-7.47831e-11
2.3044e-06
1.25013e-09
8.1321e-09
1.31279e-08
1.88054e-06
-7.11506e-09
-1.27745e-08
3.72388e-05
1.65121e-09
0.000191568
-1.2621e-08
-2.78721e-08
-5.55589e-06
3.08976e-10
-0.00027139
-1.44674e-08
-9.97437e-10
-4.32753e-06
-2.87425e-08
7.28664e-10
5.50064e-06
7.96839e-09
2.90457e-09
-1.40694e-05
1.15962e-08
2.21334e-09
2.96366e-08
0.00148859
1.24926e-09
-4.10684e-10
1.33599e-09
1.0384e-09
3.55558e-09
-2.35487e-08
-0.000384
-2.34063e-06
-3.09637e-06
1.16773e-09
3.02259e-09
-9.68458e-05
0.00106263
-0.000294107
2.80037e-09
-1.49918e-05
-9.46435e-07
-1.48478e-05
3.58543e-07
0.000396604
-2.69627e-07
-2.02047e-05
7.16717e-05
-4.27235e-08
-2.31998e-10
1.49667e-08
1.12654e-06
2.02869e-09
-1.64323e-06
-5.24724e-09
9.46987e-05
9.17797e-05
-7.9488e-09
-6.58481e-07
1.13175e-09
-0.0606898
-0.000355479
-9.52862e-07
-3.93823e-08
1.78658e-06
2.41276e-09
2.23269e-08
0.00226447
-0.000128719
-1.22008e-06
2.37713e-08
1.61805e-09
1.97905e-10
-5.2517e-08
-5.379e-09
-1.66446e-08
-3.50429e-09
1.54138e-08
-1.25387e-05
1.17429e-05
8.88957e-10
-0.000155769
-7.16206e-10
-5.32234e-09
-0.000164133
3.13529e-08
-1.90516e-09
1.8971e-08
-8.5667e-05
-2.32802e-09
-2.64731e-08
2.96344e-09
-0.000290836
4.72711e-07
-0.000374154
7.83574e-05
9.70124e-06
2.35266e-06
5.43187e-09
2.5503e-08
0.000609304
0.000957436
4.37102e-05
-7.92311e-08
1.31941e-08
8.13518e-05
-6.42381e-08
1.75278e-05
2.46578e-09
2.09137e-08
-1.12434e-08
0.00112478
0.000489406
0.000337837
-4.44232e-05
2.20915e-10
9.61063e-09
2.88704e-06
0.00188163
-3.25075e-09
-3.29899e-07
0.000769741
-1.70831e-07
-7.84465e-08
0.000127299
-3.62991e-09
-7.58014e-06
-0.000119324
-0.000195205
4.92717e-07
5.79494e-09
-0.000252683
1.58125e-08
-1.46599e-05
3.10922e-06
1.45642e-10
0.000608304
-3.72878e-08
2.59067e-09
-6.05325e-10
-0.000205488
2.68126e-07
1.30693e-08
5.68145e-10
-5.64069e-07
-2.15706e-06
2.34547e-08
-5.84184e-08
0.00472882
1.50207e-08
-6.34191e-09
-5.03062e-06
9.22465e-09
-9.6838e-09
-7.39546e-09
-5.23712e-09
1.9679e-10
0.00336457
1.32722e-05
4.93349e-07
-1.04183e-07
-2.99536e-07
-1.67847e-05
-8.57879e-09
9.00681e-09
-6.99508e-09
0.000282991
0.000255431
-2.14905e-09
-1.45629e-05
0.000152953
2.37528e-09
2.45589e-08
0.000281761
0.00956573
-5.07757e-10
-9.46474e-05
-7.5835e-05
0.00018051
-1.03776e-08
3.26633e-10
0.000152187
-5.30933e-08
-4.70422e-07
0.000148418
2.5112e-07
-0.00156446
2.78834e-09
1.05128e-08
6.20866e-05
1.36313e-10
1.82101e-09
-6.5335e-10
-1.1732e-06
7.86172e-10
-2.24038e-05
2.04546e-07
1.80651e-08
1.08877e-09
7.30025e-10
-9.71314e-08
0.000299105
-1.08526e-07
9.25119e-10
-2.13987e-08
8.58184e-05
-1.37007e-08
0.000413309
0.000285681
0.000165924
5.11816e-07
8.0237e-07
4.9842e-06
8.69316e-06
-8.58513e-08
0.00135595
-1.15079e-07
-2.02518e-09
-1.33683e-09
-6.17197e-07
1.73057e-08
-5.32355e-10
-6.207e-07
-5.8374e-08
1.80279e-08
3.25322e-07
1.11515e-08
3.91766e-11
2.60409e-08
2.11634e-08
-6.51039e-08
-3.73452e-09
-2.85672e-10
-6.92152e-11
-0.000297048
1.34048e-05
-0.00532773
0.000159974
0.000618558
1.31171e-09
-0.000388913
-1.48363e-08
2.3211e-08
-2.46723e-09
0.000678308
3.61305e-09
-2.08783e-09
-5.99501e-09
1.80133e-10
-8.38244e-09
-1.23502e-08
-1.24412e-06
0.000145418
-1.73994e-08
-1.9585e-09
0.00126689
2.47172e-08
-1.01221e-06
3.13084e-09
-1.61722e-05
-1.16321e-10
4.69963e-10
-0.000367428
-8.25959e-09
1.90143e-09
-0.000306664
-0.000376921
2.82569e-06
2.66983e-10
7.93753e-08
2.55722e-08
-1.59433e-06
-1.46087e-08
1.52073e-08
0.000135548
0.000366054
0.00026012
4.06487e-10
7.22386e-09
0.000107409
0.000162374
7.86694e-06
-3.55775e-09
0.000197138
-5.33915e-07
9.70965e-09
-9.43605e-09
-7.73645e-09
1.92447e-05
1.62905e-08
-0.000189811
0.000145874
1.86209e-08
6.90823e-09
0.000216097
0.000139103
-1.02062e-07
3.214e-09
-0.00113328
-1.41313e-05
1.532e-08
-2.98442e-09
1.71854e-07
-9.54378e-05
7.59462e-09
3.01621e-09
0.000366547
-4.18686e-09
-6.97582e-10
-1.02636e-08
4.94399e-06
-0.00105608
-4.10772e-09
-3.87707e-09
-2.36013e-05
1.11873e-08
1.62348e-08
-8.56232e-05
-0.00017261
0.000149241
-0.000114559
-6.0482e-10
2.41304e-08
1.2531e-08
-1.19182e-06
2.48656e-07
3.82385e-07
0.00147416
2.28806e-08
9.99105e-10
0.00186511
-1.15065e-09
-1.39509e-09
1.48219e-05
-8.82971e-10
-1.26715e-08
0.000169347
-2.33017e-06
1.15923e-08
-0.000180646
-2.83151e-11
-3.62713e-10
-1.66796e-08
8.15471e-05
4.7055e-10
-1.64986e-09
-8.75304e-10
-2.04426e-08
-1.67422e-06
2.31032e-05
1.32134e-06
-4.3733e-11
2.3887e-08
1.99004e-10
-1.43136e-07
0.000137859
2.54187e-09
-0.00171097
4.65294e-08
1.939e-08
-9.21776e-08
-6.32436e-10
-5.13843e-07
-6.01206e-08
2.6636e-09
-1.46949e-05
2.52111e-08
-2.54461e-08
2.79731e-09
1.81263e-08
7.46398e-09
-6.65772e-07
-3.02238e-12
0.000144772
8.34809e-08
2.92326e-10
2.83828e-09
1.99305e-06
9.42136e-10
-1.12644e-09
1.36074e-09
-1.56431e-10
1.36053e-07
-3.23448e-08
1.10535e-06
-0.000181015
2.6515e-09
-2.72138e-08
0.000196086
-7.01741e-09
0.00205065
-1.16054e-05
-1.07006e-10
0.0279952
-3.93268e-05
1.67832e-09
1.11999e-06
-3.59654e-09
-0.000130253
0.000539088
4.56156e-06
0.000563299
0.000147899
2.58568e-08
1.60599e-09
-1.46918e-05
2.01008e-09
1.28913e-06
-0.000115848
-0.00137107
1.79814e-08
1.40331e-08
-8.53029e-07
1.0163e-06
-1.89384e-08
-6.92405e-09
2.42846e-11
-2.71862e-06
-6.9748e-08
-0.0001545
-2.35089e-07
2.50156e-09
0.000147587
-2.70229e-08
-6.59081e-05
-3.78329e-07
0.0001575
4.46157e-09
5.83263e-05
1.25199e-08
1.66329e-07
7.45787e-05
0.00178779
4.19023e-07
-0.000127011
1.23599e-07
2.63997e-09
1.09993e-09
2.01182e-09
-3.99839e-05
0.00013743
1.38571e-07
9.32765e-10
2.18577e-08
-1.45245e-09
-1.0587e-09
-0.00089036
-5.09708e-10
0.00018417
1.90457e-07
-7.69511e-06
0.000367338
-3.81456e-07
0.000214975
-0.000132415
1.67518e-09
2.78233e-06
1.1083e-06
-1.02067e-08
0.000207047
1.19384e-09
-3.2738e-08
-3.08158e-06
7.77624e-09
0.000400183
2.38351e-09
-0.0015455
-0.000113224
-1.35207e-09
-1.84612e-05
-7.03261e-10
-5.86577e-09
8.05204e-10
0.000759414
5.46647e-09
-1.31743e-05
1.76687e-09
-3.86167e-11
-8.11976e-09
-1.80155e-06
4.72499e-09
0.000529238
-8.86048e-11
-0.000819999
2.04904e-09
-1.3572e-10
-0.000129357
-0.000246461
0.00105742
5.12301e-10
4.72923e-09
-1.14784e-09
-5.4394e-05
0.000140092
6.29782e-09
9.34906e-09
1.16145e-05
2.70368e-08
-0.000162279
-2.69518e-08
8.06699e-09
-9.11026e-09
4.45365e-08
0.000107018
-5.59036e-07
0.000397075
-1.78321e-09
5.76263e-09
-7.24714e-09
-1.12458e-09
-4.01434e-06
-1.41161e-06
2.5165e-09
1.20538e-08
-7.9682e-06
5.32366e-09
1.20318e-06
-0.000152976
1.54638e-08
-2.348e-08
0.00203355
0.000151629
2.56967e-08
-3.34161e-09
7.1236e-10
1.11809e-08
0.000149187
-3.25435e-07
1.07935e-09
2.34203e-06
-5.05159e-05
-0.000166025
8.47102e-07
-1.94715e-09
5.11821e-05
2.49437e-08
-1.85587e-05
1.67402e-06
-0.000113429
6.62357e-05
1.29591e-06
0.000258904
-1.16744e-06
6.88219e-09
7.76971e-05
1.37076e-05
-1.49478e-08
-5.87924e-07
3.99041e-09
-5.21717e-09
-1.39824e-09
1.40254e-06
-2.11361e-08
1.38525e-08
8.78412e-09
-0.00225294
8.07036e-10
6.36589e-10
5.61997e-08
6.93736e-07
-0.000287507
3.0427e-05
-2.46027e-05
-5.22751e-09
-8.38431e-09
-4.32799e-09
2.30102e-06
7.44879e-09
8.64891e-10
5.08034e-08
3.69397e-09
3.34409e-09
1.02445e-06
-5.75414e-10
1.09978e-08
0.000530868
3.32679e-09
-2.1925e-08
1.74586e-06
-2.74771e-09
5.04513e-05
5.38603e-09
0.000148422
-3.03531e-09
-1.79919e-08
-1.28115e-07
-1.52874e-08
2.38061e-08
-1.78405e-06
-5.78922e-09
7.81108e-07
-0.00145937
-2.27073e-07
-3.54278e-09
-1.09164e-08
-6.7961e-06
-2.67053e-08
-8.97054e-09
-5.33536e-05
4.75673e-05
5.91085e-07
0.00210237
2.36084e-05
8.96327e-09
4.49274e-08
1.72466e-08
5.05547e-09
-2.26258e-09
0.000180874
0.000263673
0.00144254
-0.000109719
8.87295e-08
-5.83538e-08
-2.49411e-10
1.15764e-08
4.77882e-09
-3.24358e-07
-0.000275875
1.13376e-09
-4.48941e-12
-6.82946e-08
3.16927e-08
0.00197782
-1.65704e-09
-2.66911e-08
-3.17668e-11
3.10803e-08
2.59124e-09
-0.000183953
-3.67781e-08
-8.32813e-05
2.42236e-08
5.31604e-07
-3.3869e-07
3.83077e-08
0.000136282
0.00184592
0.00013513
1.3887e-09
-2.05409e-07
-6.81789e-10
-3.20672e-09
-4.46349e-08
-9.20991e-05
-0.000145471
-3.41202e-08
7.41175e-08
1.43107e-09
0.00158204
-2.18471e-08
-4.05957e-07
2.22878e-08
-6.44914e-09
-0.00018055
0.000196488
-3.61611e-09
0.000161616
-1.31429e-06
1.0017e-08
-0.000155057
-8.04684e-06
-0.00182812
1.00065e-08
8.51253e-09
-0.000209051
6.8754e-11
-1.3478e-08
-0.00016423
5.20146e-05
-8.06671e-09
-0.00017806
-1.34637e-09
4.6571e-09
-1.85475e-08
1.36957e-09
0.000228475
1.25952e-07
-2.6913e-08
-2.65453e-07
6.22166e-09
1.82916e-08
9.85169e-10
1.44673e-08
-1.12797e-05
9.33505e-10
1.617e-06
-3.51461e-06
2.48172e-07
0.000374264
2.72179e-08
-4.88525e-09
-1.01217e-06
-1.19074e-08
-2.95966e-09
-3.22144e-05
3.38742e-07
-1.30764e-08
9.83045e-05
-1.20268e-10
-0.000241764
0.000283412
-1.15715e-05
0.000697853
0.000905569
-6.24086e-09
-2.53697e-08
0.00115382
-1.4229e-08
0.000172417
-1.59465e-07
-5.56064e-10
0.000420025
2.2473e-08
9.36891e-06
-1.74115e-05
-2.61653e-08
-3.73323e-09
-3.14075e-08
0.00186211
-1.36581e-06
1.11024e-09
-8.48423e-09
-7.00809e-06
3.77582e-09
2.86136e-05
5.95021e-07
-9.08241e-09
3.10469e-07
-5.14137e-05
-6.76222e-10
-4.41342e-10
9.91893e-12
1.30845e-07
9.42471e-10
1.22114e-08
-0.000288405
-0.0112702
9.00761e-09
-7.84826e-05
0.00026711
0.00521307
4.8094e-05
-0.000446504
1.23819e-06
-5.6863e-07
1.50621e-09
-3.76226e-09
-1.04385e-05
3.09607e-09
2.49458e-06
0.000152344
-3.01748e-08
1.1107e-07
-2.85817e-07
5.99451e-09
0.000462385
-4.76419e-11
-2.57583e-06
-4.96593e-08
8.61614e-09
-8.0245e-05
4.35183e-11
1.02593e-09
-2.01511e-09
2.84978e-09
1.11368e-08
-1.5653e-06
-3.67695e-05
2.36334e-09
0.000442758
6.23422e-09
-5.47768e-09
-2.39822e-07
2.59532e-08
1.95621e-08
8.75868e-09
2.3458e-06
-3.95665e-07
4.01703e-08
-6.36848e-10
2.93389e-08
1.02931e-08
-2.81427e-09
3.00187e-08
1.50534e-09
0.000529154
-1.51143e-08
0.000145296
0.00127009
3.15891e-09
-0.000166236
-6.26497e-06
3.57557e-07
0.00227732
5.94754e-08
1.57713e-08
2.64139e-10
3.97325e-09
-2.4429e-09
7.8231e-05
9.09776e-06
-2.26916e-11
-2.00213e-11
4.56693e-05
3.44269e-09
-1.0218e-07
-1.43176e-08
-1.75198e-09
0.00014172
3.16134e-09
2.82105e-08
6.90685e-09
-3.09508e-09
1.72915e-09
4.988e-09
2.27812e-09
-3.36906e-09
9.30564e-05
9.63082e-09
1.25888e-08
1.56529e-08
-9.26146e-08
0.00135968
-2.07208e-09
-0.000174261
4.71102e-07
-1.94984e-07
-1.78569e-06
1.59996e-09
0.00013355
0.000287578
1.90371e-06
9.05671e-10
6.91205e-06
2.49758e-09
4.58624e-08
-6.50024e-06
1.34634e-08
0.000123111
8.71973e-07
1.72956e-08
-0.000121954
0.000631011
-5.07605e-06
2.83187e-05
2.09755e-07
1.05206e-08
-0.000177858
-3.71428e-10
2.39643e-08
1.1359e-07
9.90076e-09
-5.22497e-09
1.58269e-09
-2.18397e-07
5.20402e-09
0.000141952
-1.45605e-08
-2.42831e-07
9.25834e-09
7.77735e-05
-0.000215767
-0.000112348
0.000840409
-7.8983e-10
7.27446e-06
-6.80408e-09
5.66629e-08
1.52458e-08
0.000773603
-0.000175308
8.67168e-11
-2.63003e-08
-1.655e-08
-7.17544e-07
-1.91581e-09
-0.000228336
-0.0950201
1.22389e-07
-0.000102189
5.60786e-06
-3.12934e-08
2.09733e-08
2.96077e-09
-3.373e-09
-0.000985287
4.03528e-09
0.000147561
-1.21614e-09
1.01479e-05
0.00012041
0.000202079
-1.24675e-08
-5.31775e-06
1.33624e-05
0.000120261
2.80068e-08
-5.44061e-09
1.82939e-07
1.33373e-09
9.74498e-09
-4.44192e-06
-6.26407e-09
3.14231e-09
-1.38117e-10
8.24264e-11
6.26064e-09
-2.90019e-09
1.17006e-09
-2.93267e-08
0.000277356
-8.85561e-09
-1.76247e-08
-2.6893e-08
-0.000115027
-1.93183e-05
2.31238e-05
0.000153538
1.44038e-09
-4.57628e-08
3.789e-09
0.00162656
-1.56925e-08
4.76774e-09
-1.45622e-05
4.01203e-09
-3.01114e-09
1.40814e-07
5.16852e-09
-8.3008e-07
0.0002353
-3.17052e-09
-1.01047e-10
-3.31943e-10
7.5656e-10
-9.07928e-07
1.03848e-08
1.23807e-09
3.48452e-06
2.70799e-05
-1.23158e-08
1.91952e-07
-2.98779e-08
1.31051e-08
2.232e-08
-2.25396e-07
-5.45033e-12
2.10542e-07
-4.18717e-05
9.22865e-09
-6.05407e-08
-6.9921e-06
0.00013064
0.000289035
-1.41152e-07
-4.86144e-05
-0.000129508
0.000593526
-2.0039e-05
-9.87766e-06
2.64661e-08
4.82939e-05
-6.39323e-10
-1.02018e-06
-1.20043e-06
-0.00360064
3.02005e-07
1.67287e-08
5.99676e-09
3.84843e-06
7.49218e-06
-5.50608e-10
2.40844e-08
2.27851e-09
8.50567e-10
2.69044e-08
1.90367e-08
-5.75097e-06
-6.61044e-08
-3.44443e-09
-2.22475e-07
0.0724785
-4.43333e-09
-9.26828e-09
-1.36407e-07
-1.77673e-09
0.000149419
-5.54255e-07
-5.46608e-07
5.48514e-07
0.000302069
8.23045e-07
0.000126386
0.000163504
3.72997e-05
0.00019449
-3.56479e-09
-1.59509e-09
-0.00289247
0.00159457
-1.54731e-08
0.000233898
-2.22331e-08
-3.84136e-09
-1.79763e-08
-1.57559e-12
1.36624e-09
2.87058e-09
7.84814e-07
-3.1819e-07
1.41652e-06
5.91978e-06
-1.10711e-07
5.16165e-08
9.80501e-05
0.000607762
-1.01171e-08
0.000367213
-3.1764e-08
0.000226926
-1.02115e-09
-0.00139213
9.21946e-06
-1.64102e-06
-1.13973e-06
-1.16132e-05
-0.00281704
9.39566e-07
-7.23161e-07
3.11605e-07
2.17175e-09
-6.36046e-07
0.00012322
-8.25001e-07
5.45652e-09
9.63936e-10
-3.95769e-09
-6.03005e-05
-3.00862e-06
-3.09861e-09
-3.72421e-07
6.26772e-05
1.30163e-07
2.64198e-05
1.59515e-08
3.99964e-09
-1.02394e-08
0.000304409
8.43594e-08
0.000351836
-3.15433e-09
-1.12973e-08
-6.35168e-09
0.00321747
-5.35802e-09
-1.1477e-09
4.12647e-07
-0.000139232
2.22617e-08
6.55499e-07
4.5047e-05
2.4512e-08
-6.07295e-06
-3.78948e-09
1.77007e-08
1.23015e-05
1.38701e-08
1.9416e-07
1.12624e-09
6.89132e-10
0.000152073
3.01587e-09
-9.52185e-09
-0.00011602
8.08207e-09
7.9899e-07
-2.00531e-08
-1.20994e-05
0.000103611
-0.000180842
2.72517e-07
-1.24281e-06
2.28183e-06
-2.57524e-05
-7.11314e-08
2.9651e-09
-9.14084e-09
1.52526e-08
8.49383e-09
-2.46339e-05
-9.51082e-09
2.49551e-05
8.42669e-08
-4.9761e-09
-8.15627e-06
-3.09322e-05
-2.28625e-09
6.92653e-05
1.49192e-08
-0.079969
2.63573e-05
1.12272e-09
2.46112e-09
-3.22265e-06
1.66858e-08
2.11418e-05
0.000325577
3.07999e-09
-3.82235e-08
2.16254e-08
0.000509732
-4.1868e-12
-0.000193765
1.48955e-05
-1.30402e-08
5.07381e-08
0.000371238
0.000170165
-1.92008e-09
-1.56583e-05
-1.26074e-10
5.89133e-06
-9.65697e-07
-4.93874e-09
1.92541e-05
1.21671e-08
-0.000164473
-3.97867e-10
-0.000120462
1.02283e-08
-3.30812e-07
4.2212e-07
2.39758e-08
0.00347218
-2.26173e-05
7.2434e-06
0.000727793
0.000714958
2.0498e-09
7.67778e-07
1.06313e-08
-2.37235e-11
-8.64562e-10
3.99438e-09
-1.90422e-09
3.53891e-06
4.56426e-09
-0.000435325
4.00242e-09
-9.36732e-05
-2.90839e-09
1.88917e-09
1.10062e-08
1.15094e-08
0.000155774
-3.41286e-09
0.000146856
1.92051e-10
0.000154219
-0.000144387
-8.56256e-09
1.16311e-08
2.29832e-08
-4.07321e-07
-0.00173473
-1.83392e-09
-7.68458e-11
-0.00018176
1.26708e-08
-3.02912e-08
1.16013e-07
-8.72231e-06
9.46938e-07
7.0347e-09
1.31734e-08
-8.07916e-07
-3.35437e-07
-6.02984e-08
-0.000110964
-4.0943e-09
3.66434e-06
-4.5171e-09
0.000158074
-0.000387945
1.67933e-08
0.000222493
-2.55936e-09
2.37084e-08
2.93134e-09
-9.42462e-09
-0.00140809
-0.00379981
-5.16315e-05
0.000771774
3.36168e-08
-1.83226e-08
-5.70806e-09
-9.72718e-06
7.47899e-09
2.45423e-09
-2.21994e-05
-0.000194313
-1.39339e-07
5.44605e-08
-2.10543e-07
0.000128721
4.71945e-05
-3.76861e-06
-9.49086e-11