/*--------------------------------*- C++ -*----------------------------------*\
| =========                 |                                                 |
| \\      /  F ield         | OpenFOAM: The Open Source CFD Toolbox           |
|  \\    /   O peration     | Version:  v2012                                 |
|   \\  /    A nd           | Website:  www.openfoam.com                      |
|    \\/     M anipulation  |                                                 |
\*---------------------------------------------------------------------------*/
FoamFile
{
    version     2.0;
    format      ascii;
    class       surfaceScalarField;
    location    "300";
    object      ddtCorrDdt0(phi);
}
// * * * * * * * * * * * * * * * * * * * * * * * * * * * * * * * * * * * * * //

dimensions      [0 3 -2 0 0 0 0];
oriented        oriented;


internalField   nonuniform List<scalar> 
41211
(
5.34243e-06
1.37351e-05
-1.90766e-05
1.4714e-06
-1.47123e-06
9.68551e-06
-2.17349e-05
1.20516e-05
-3.19884e-05
7.67884e-05
-4.47984e-05
-3.33286e-05
2.36567e-05
9.67249e-06
-0.000218268
0.000125629
9.2637e-05
-1.94286e-05
-1.38995e-05
2.35989e-05
1.25289e-05
-3.61246e-05
-2.25419e-05
4.90144e-06
1.76411e-05
-0.000514689
0.000408714
0.000105972
0.000347904
-0.000180903
-0.000167003
-2.28436e-05
-2.71496e-05
4.99809e-05
-1.05904e-05
-1.45022e-05
2.50922e-05
-4.40972e-05
8.21605e-06
3.58904e-05
-0.000141815
-4.12958e-05
0.000183112
1.48417e-05
-9.14487e-06
-5.71712e-06
-8.92506e-06
5.41103e-05
-4.51863e-05
-2.08519e-05
-1.68957e-06
0.000193139
0.000154761
1.00808e-05
-0.000149231
0.000179148
-2.99184e-05
2.87978e-05
-0.000170615
-9.33022e-06
9.49097e-06
-1.60165e-07
2.84628e-05
0.000117481
-0.000145943
3.34334e-05
-5.68211e-05
2.33903e-05
-3.25339e-05
2.35068e-05
9.02736e-06
-1.07126e-05
1.67008e-05
-5.98748e-06
2.19101e-05
5.35654e-05
-7.54748e-05
7.29175e-06
-3.27973e-06
-4.01191e-06
2.48606e-05
-7.28391e-06
-1.75624e-05
0.000134334
-0.000105868
-8.65338e-06
-1.44064e-05
2.30612e-05
1.80821e-05
-1.27389e-05
-9.45184e-08
1.4834e-05
-1.47354e-05
4.77159e-05
-4.82225e-05
5.07483e-07
-0.000102306
0.000102307
1.97638e-06
-1.76666e-05
9.29183e-06
-7.48544e-06
-1.80821e-06
-4.80074e-06
-1.72815e-05
2.20825e-05
1.82945e-07
-1.76996e-05
-4.86395e-05
2.57666e-05
4.29666e-05
4.7502e-06
4.54362e-05
-2.70908e-06
-4.27264e-05
-4.19884e-06
-9.89826e-06
1.40995e-05
3.18947e-05
-7.0854e-06
-2.48083e-05
0.000211096
-0.000225871
-5.41797e-06
1.1164e-06
4.30067e-06
-2.90977e-06
1.58689e-05
-1.30658e-05
3.87972e-05
-3.87966e-05
0.000498472
-0.000174794
-0.00032366
8.66082e-06
0.000125049
-0.00013374
-4.7262e-06
-2.78077e-05
-8.27328e-05
-1.05156e-05
9.32593e-05
4.74801e-05
8.21681e-06
-5.57149e-05
6.10502e-06
-1.21565e-05
6.05288e-06
-4.54702e-06
5.54719e-06
-1.00005e-06
-6.96918e-05
-0.000176363
0.000246073
-1.39077e-05
7.12197e-06
6.78617e-06
-7.54083e-06
2.49474e-05
-1.74059e-05
-1.19921e-05
-2.09306e-05
3.2925e-05
-0.000335009
0.000395766
1.35229e-05
-2.23255e-05
8.79982e-06
5.1149e-06
2.09636e-05
-2.60772e-05
-4.32112e-06
4.2429e-06
7.7494e-08
-5.29247e-06
1.3032e-05
-7.74477e-06
3.05184e-05
-1.94496e-05
-1.10676e-05
0.000424424
-0.000261328
-0.000163078
0.000180577
-0.000250261
-2.50015e-05
1.30076e-05
-4.21786e-06
-1.6796e-05
2.10115e-05
-1.40847e-05
9.88936e-06
-0.000205086
0.000146445
5.86438e-05
6.80657e-05
2.26846e-05
-9.07475e-05
0.000233946
-5.58191e-05
-0.000178126
2.03815e-05
-1.19602e-05
-8.41677e-06
-3.58828e-05
5.28215e-05
-1.69403e-05
0.000302051
0.00012237
-1.96463e-05
3.04771e-06
1.66023e-05
0.000303155
-0.000303236
0.000102952
-0.000102951
2.71483e-06
4.57727e-06
4.68567e-06
-1.88448e-05
1.41593e-05
3.36085e-05
-4.00948e-05
6.48776e-06
2.65357e-05
-1.73747e-05
-9.16002e-06
5.30648e-07
-1.84771e-05
1.79466e-05
5.62979e-05
-5.69352e-05
6.35149e-07
7.48722e-06
-2.80838e-06
-4.67877e-06
2.65078e-05
-0.000283217
0.000256704
0.000158771
-1.10417e-05
2.9421e-06
-2.68224e-05
2.38796e-05
1.80573e-05
-9.69989e-06
-8.35834e-06
-0.000326707
0.000368929
-2.14954e-05
1.46265e-05
6.8697e-06
2.48646e-05
-4.34501e-05
0.000107266
-6.3806e-05
-8.72013e-05
1.50024e-05
7.22002e-05
1.85229e-05
-1.38377e-05
2.28811e-05
-8.90962e-05
6.6216e-05
-1.36121e-06
1.16902e-06
1.95512e-07
0.000610509
-0.000380555
-0.000229969
1.96646e-05
-2.4465e-05
-9.78716e-06
6.14089e-06
3.64569e-06
4.24358e-05
-6.08075e-05
1.83395e-05
4.80539e-05
-0.000383067
-5.49739e-05
0.000123045
-2.24909e-05
2.76059e-05
3.11856e-05
2.52237e-06
-3.37079e-05
-1.5191e-05
-6.27174e-06
1.23776e-05
8.80668e-06
2.30894e-05
2.9556e-06
1.19106e-05
7.24302e-06
1.08141e-05
-1.69943e-05
1.69033e-05
9.62488e-07
-1.92763e-06
9.67501e-07
3.72385e-05
-6.05251e-06
1.84531e-07
-4.11145e-06
3.92643e-06
-2.94168e-05
2.91506e-05
2.65239e-07
3.88024e-05
8.80324e-06
-4.76274e-05
0.00012872
-2.34608e-05
-0.000105261
5.04165e-05
-1.6981e-05
9.60219e-07
2.22787e-05
1.17137e-05
-3.26416e-05
4.86164e-05
0.00011299
-0.000161606
4.366e-05
-4.90418e-06
-9.92696e-06
-3.56409e-05
4.5658e-05
-1.144e-05
-3.09097e-05
4.23476e-05
-5.6772e-06
2.16957e-05
-1.60183e-05
3.19858e-05
-4.66593e-05
1.46743e-05
5.62748e-05
-5.84454e-05
2.19703e-06
1.76607e-05
6.10717e-07
-1.8265e-05
1.12786e-05
0.000136581
-0.000147862
2.39083e-05
2.44122e-05
-4.83148e-05
1.98545e-05
-1.88063e-05
-1.0475e-06
2.03091e-05
-2.23651e-05
2.05379e-06
0.000111776
-1.48034e-05
-9.69688e-05
5.74534e-05
-2.08689e-05
-3.65833e-05
-3.65952e-05
3.42397e-05
2.35505e-06
-3.92823e-05
-4.81022e-06
-5.97552e-06
1.14617e-06
4.83356e-06
9.90652e-06
9.94704e-06
3.88791e-05
-3.066e-05
-0.000188122
-0.000326536
1.37826e-05
-2.63004e-05
1.25155e-05
-2.43831e-05
3.07905e-05
-6.4076e-06
7.97002e-06
1.31982e-06
-0.00045781
0.000152585
0.000305222
2.49818e-05
-2.235e-05
-2.63152e-06
-0.000116409
4.23929e-05
7.40159e-05
2.92918e-05
-4.86625e-06
-2.44245e-05
0.000172362
0.000438141
3.41684e-05
-2.69689e-05
-7.20017e-06
-3.13216e-05
-2.1778e-05
5.31011e-05
5.22684e-05
-6.83543e-06
6.06977e-05
3.76439e-05
-9.83483e-05
-8.36662e-07
3.7914e-07
4.57493e-07
-0.000290516
0.000387798
-9.72964e-05
1.98717e-05
3.75807e-05
-8.3086e-05
-4.11527e-06
1.60378e-05
-4.29188e-06
-1.17388e-05
-3.15139e-05
4.33961e-05
-1.18822e-05
-4.13671e-06
9.76809e-06
2.07507e-05
8.01563e-05
-3.6979e-05
-4.31778e-05
3.76956e-07
1.1664e-05
-1.20409e-05
-1.29827e-05
1.10835e-06
1.18746e-05
-3.14966e-06
3.99101e-06
-8.4135e-07
-7.40617e-05
-5.42909e-05
0.000128362
2.4312e-05
-1.86441e-05
-5.6686e-06
-1.15958e-05
2.15028e-05
1.25882e-06
-1.85885e-05
1.73283e-05
2.70102e-05
2.93346e-06
-2.99386e-05
0.000261782
-0.000142433
-0.000119348
5.64155e-05
-8.01874e-05
2.37724e-05
-6.94712e-05
-0.000188346
0.000259088
-1.54878e-05
2.64261e-05
-1.09358e-05
0.000188613
-0.000188605
-1.03806e-08
6.79211e-06
9.6163e-05
8.38969e-05
-0.00015527
7.13792e-05
-2.26596e-08
-4.08877e-06
-2.45444e-05
2.70664e-05
2.91095e-05
-6.2254e-05
3.33271e-05
-0.000461808
0.000204915
0.00025689
0.000162544
-0.000161395
-1.14865e-06
-0.000159934
-0.000237041
0.000396977
-6.95482e-06
1.29896e-05
-6.02807e-06
3.64675e-05
-2.81561e-05
-8.31126e-06
-4.52816e-05
-5.14236e-05
9.67061e-05
4.60086e-05
-1.43289e-05
-3.16896e-05
0.00027145
-0.000234464
-3.69854e-05
3.14861e-05
-3.30436e-05
1.55601e-06
1.11672e-06
-5.87743e-05
5.76595e-05
-5.84955e-06
5.85025e-06
2.28142e-05
-9.90843e-06
-1.2913e-05
0.000343033
-9.13803e-06
-0.000333865
-1.82388e-05
-4.64422e-06
2.28832e-05
3.42795e-05
-6.56005e-05
-0.00029052
-0.000378683
0.000281476
9.72127e-05
2.3082e-06
0.000340721
-0.00020407
-0.000441623
0.00064569
-1.04573e-05
3.92722e-05
-2.88147e-05
-3.94755e-05
7.9617e-06
-4.74246e-06
-1.32057e-05
1.79487e-05
-1.03555e-06
-2.83811e-05
7.59285e-05
-7.48086e-05
-7.83184e-05
3.19736e-05
4.63436e-05
9.11525e-06
1.51963e-05
-2.37942e-07
-1.8157e-05
1.83956e-05
2.15406e-05
-3.13381e-06
-1.84065e-05
-6.7714e-06
-5.24743e-06
1.20116e-05
2.46766e-05
4.61555e-06
0.000161741
0.00026446
-0.000426191
3.74843e-05
-6.94721e-05
9.43627e-05
-1.92836e-05
-7.50799e-05
6.25471e-06
9.7824e-06
-1.86737e-05
7.96067e-06
-0.000146553
0.000157831
1.95648e-05
-2.79556e-05
8.38993e-06
2.18834e-05
-1.20323e-05
-9.85213e-06
-5.09137e-06
-7.57688e-07
-0.00011751
3.2181e-05
-2.10188e-05
-1.11613e-05
2.14479e-05
1.43554e-05
-3.58032e-05
0.00023547
-0.000301331
6.58529e-05
-3.90978e-05
2.1389e-05
1.77072e-05
0.000148488
0.000189926
-0.000338386
2.27727e-05
-2.59232e-06
-2.01805e-05
-5.73027e-05
-5.91067e-05
2.11247e-05
-1.20393e-05
-9.08914e-06
-1.99235e-05
-1.91737e-05
-2.27294e-06
8.00812e-07
1.47455e-06
-1.40885e-05
3.1867e-05
-1.77787e-05
3.79557e-05
0.000199265
-0.000237249
-4.42565e-05
3.0668e-06
4.11897e-05
-5.09116e-06
6.2217e-05
-6.11375e-05
-1.08451e-06
-3.51495e-05
-1.44651e-06
2.63585e-05
-3.97537e-05
1.33955e-05
-2.40874e-05
1.84105e-05
3.77773e-05
-4.84855e-05
1.0688e-05
0.000173443
7.96865e-06
-0.000181413
-3.13581e-05
0.000160994
-0.000129635
-0.000319818
-0.00014199
0.000205341
-8.60433e-05
-0.000119292
-9.9603e-05
0.000144953
-4.53484e-05
1.91529e-05
-3.51903e-05
1.60392e-05
1.09044e-05
-1.80164e-05
7.1107e-06
-2.1833e-05
1.89154e-05
-1.12451e-05
-5.10336e-06
5.56418e-07
-0.000205256
0.000109699
9.5558e-05
-6.52864e-06
2.20009e-06
4.32877e-06
5.84799e-05
-2.43989e-05
-3.40692e-05
2.16075e-06
-2.27915e-05
2.06324e-05
0.00022419
-0.000197683
-6.31795e-05
0.000181773
-0.000118597
-3.91389e-05
5.13538e-05
-1.22181e-05
6.23446e-06
1.05962e-05
-1.68295e-05
3.88963e-06
1.69429e-05
-2.08271e-05
1.04607e-05
9.92308e-06
-6.42864e-07
-5.9965e-06
6.63954e-06
-2.64542e-05
-0.000176633
0.00020309
3.77401e-05
9.09785e-05
5.76486e-05
0.000213803
9.62984e-08
-2.05508e-05
2.04531e-05
1.824e-05
-2.37752e-05
5.53648e-06
-2.89598e-05
-3.32737e-07
4.05308e-05
-4.0642e-06
0.000142161
1.56419e-05
-2.42968e-05
-1.6222e-06
-1.72293e-05
1.88574e-05
2.21597e-05
1.33638e-05
-3.55216e-05
-0.000136283
3.66807e-05
4.6935e-07
-1.10083e-05
1.05389e-05
-5.94195e-06
-5.86545e-07
-1.28987e-06
4.84338e-05
-2.45235e-05
-9.9087e-06
1.34855e-05
-3.57372e-06
4.0749e-06
-1.13177e-05
7.24384e-06
-0.000194392
0.00010835
-4.42181e-06
2.67779e-05
-2.23551e-05
2.47556e-05
-2.32303e-05
-1.52124e-06
-1.47044e-05
-2.51277e-05
3.98609e-05
5.93061e-05
0.00017464
1.69361e-05
-6.22179e-05
4.35737e-05
1.46657e-05
-5.82403e-05
-5.39378e-05
0.00013784
1.64778e-05
-5.45032e-06
-1.10274e-05
4.10872e-05
-2.03873e-05
-2.0699e-05
-2.24062e-05
8.30864e-05
3.58187e-05
2.84073e-05
-6.42239e-05
-0.000485029
1.68472e-06
0.000483297
0.00022581
-9.67766e-05
-0.000129033
1.5008e-05
-2.25491e-05
7.53907e-06
1.35868e-05
-2.75913e-05
2.24985e-05
5.09401e-06
2.06336e-05
-2.50545e-05
0.000111775
-6.18661e-06
1.08319e-05
3.53136e-05
4.52394e-05
2.41417e-05
4.27199e-06
-2.84137e-05
0.000465118
-0.000191445
-0.000273658
0.000285922
0.000278463
-0.000564621
-0.000109126
0.00020775
-9.86263e-05
-1.48212e-05
4.91485e-06
-8.03251e-05
-7.68596e-05
0.000157186
1.54301e-05
-1.96504e-05
-7.64479e-05
0.00024008
-0.000163633
1.15132e-05
-4.36286e-06
-7.15141e-06
0.000358517
-0.000403756
4.52273e-05
2.34657e-05
-5.65196e-05
3.30519e-05
2.13565e-05
-8.28875e-06
-1.30651e-05
-8.61465e-06
-5.29272e-06
1.32363e-05
8.11269e-05
-2.64563e-05
8.27352e-05
6.59188e-05
-3.92449e-05
-2.66788e-05
-3.33069e-06
8.16145e-06
-4.82995e-06
6.42835e-05
-4.23735e-05
5.85334e-05
-2.09125e-05
-3.76193e-05
8.30523e-06
3.20673e-06
-1.49709e-05
-2.32604e-06
1.73011e-05
-0.000155541
-0.000100338
0.000255829
0.000254521
0.000210604
-0.000129167
8.48303e-06
0.000120691
-1.73075e-05
-4.18741e-06
3.79539e-05
-4.34561e-06
-3.62675e-05
3.64339e-05
-1.6889e-07
0.00032843
-0.000532501
6.48333e-06
-7.12604e-06
-0.000383089
0.000223156
-9.77742e-06
-2.18411e-06
1.19616e-05
-3.34376e-05
-6.03813e-06
8.36909e-05
-0.000239267
5.80191e-05
-2.89347e-05
2.36303e-06
2.04098e-05
9.86775e-06
-1.99725e-05
1.01043e-05
2.31688e-05
-2.02267e-05
-4.12643e-05
6.47275e-05
5.91295e-06
-4.17971e-05
-1.20295e-05
1.61563e-05
-4.12562e-06
8.90911e-05
-3.30244e-05
-5.60738e-05
3.34928e-05
-1.78002e-05
-1.56939e-05
-1.25577e-05
4.83822e-05
-4.27204e-06
-1.10159e-05
1.53525e-05
-2.13883e-05
-8.09158e-05
4.12618e-05
-3.02262e-05
-1.10345e-05
-1.80263e-05
-1.20851e-06
1.92349e-05
-1.35741e-05
3.2725e-05
2.20814e-05
-2.0157e-05
-1.92415e-06
3.58373e-05
4.6919e-06
-3.94924e-05
1.13369e-05
1.77282e-05
-1.5376e-05
-2.35217e-06
-8.39041e-06
1.46241e-05
1.89781e-05
1.01348e-06
-1.99912e-05
5.55436e-06
-1.23302e-05
1.57727e-05
-1.45132e-05
-2.01285e-06
-1.62638e-05
1.82753e-05
-0.000177004
0.000177648
1.12331e-05
-9.1562e-06
-2.07758e-06
-0.000137993
0.000286513
-0.000101295
-9.2068e-05
0.000193363
-0.000108721
0.000117397
1.07564e-05
-1.00409e-05
-7.16993e-07
-1.135e-05
1.68782e-05
-5.52715e-06
-1.91416e-05
7.79207e-06
0.000148713
-0.000180074
1.48818e-05
1.59592e-06
-4.70607e-05
5.78531e-05
-1.07099e-05
1.97195e-05
-1.21725e-05
0.000224517
-0.000186569
2.98715e-06
-4.80378e-06
1.81479e-06
2.21561e-05
-1.84564e-06
-1.96801e-05
2.85562e-05
-8.87576e-06
2.24247e-05
-2.02611e-05
-1.10164e-05
-4.66044e-06
1.56776e-05
-3.92201e-05
2.87615e-05
1.1369e-05
-2.05551e-06
-9.31341e-06
0.000305707
-0.00028445
-2.12572e-05
-5.63809e-07
-1.21339e-05
1.26977e-05
1.68355e-05
8.14575e-06
-3.86127e-05
5.17587e-06
3.35464e-05
-1.20985e-05
-4.24782e-07
-4.66583e-06
1.22681e-05
4.14548e-06
-1.64129e-05
2.17913e-05
-7.09007e-06
4.10551e-05
-3.75167e-05
-3.53586e-06
-0.00015959
5.22886e-05
0.000107303
-2.31526e-06
0.000160265
-0.000157957
-5.07879e-05
2.03632e-05
3.04247e-05
-1.04686e-05
2.94654e-05
-1.89965e-05
0.000362362
1.56856e-05
-0.000378087
-2.81186e-05
3.63052e-05
-8.18497e-06
1.5292e-06
-1.95825e-05
1.80534e-05
3.73644e-05
-1.10073e-05
2.92704e-05
-1.68152e-05
-1.2455e-05
-4.42301e-05
3.94137e-05
4.81679e-06
-0.000400583
0.000316191
8.43899e-05
-7.56293e-05
-0.000142639
0.000294727
9.34009e-05
-0.000388119
-9.85585e-05
3.78043e-05
6.07549e-05
-2.23154e-05
0.000139296
-0.00011699
-4.98494e-06
8.86833e-06
-3.88324e-06
2.59875e-06
-1.46788e-05
1.20814e-05
-0.000224308
0.000142032
8.22746e-05
4.11681e-06
1.72403e-05
-1.27025e-05
-2.11649e-06
1.51434e-05
-1.768e-05
2.53902e-06
0.000102951
-0.000183276
-4.2881e-05
3.17437e-05
1.11385e-05
1.12802e-05
-7.20683e-06
-2.20378e-05
-4.79508e-06
2.68331e-05
-1.31186e-05
0.000461285
-0.000448142
-0.000109268
-0.000314758
0.000303064
1.17418e-05
-0.000456133
-3.97915e-06
-1.96261e-06
3.49967e-05
4.51576e-05
-4.47792e-06
-5.30932e-06
0.000412444
-3.75221e-06
7.10273e-05
-4.02897e-05
-3.07376e-05
-1.67021e-05
1.24222e-05
-4.53891e-06
4.53966e-06
1.27528e-05
-1.45174e-05
3.21197e-05
-1.76024e-05
-4.31356e-05
1.02184e-05
3.29184e-05
1.40451e-05
2.01226e-05
1.67675e-05
-2.72358e-05
1.30917e-05
8.79129e-06
-3.49193e-05
3.3599e-05
1.32176e-06
-2.83018e-06
-3.14328e-06
2.15598e-05
-1.03504e-05
-1.12082e-05
0.000299776
-6.43091e-05
0.000112547
-0.000145813
3.32672e-05
-7.09692e-05
7.99954e-05
-9.02565e-06
1.60738e-05
-3.63053e-07
-1.57079e-05
3.6778e-05
-2.42476e-05
-4.5872e-05
2.84552e-05
1.74163e-05
-7.50094e-05
-0.000130247
1.87201e-05
-1.71908e-05
1.27822e-06
-2.44329e-05
2.31528e-05
0.000112319
0.000149462
2.22603e-05
7.17996e-06
-2.94407e-05
7.73351e-06
3.63606e-06
-2.98545e-05
7.8159e-06
-9.2099e-06
5.27837e-05
2.7731e-05
-3.25152e-05
4.7818e-06
1.69697e-05
6.74054e-06
-2.371e-05
-1.30968e-06
-7.06663e-06
3.08764e-06
-2.11768e-05
9.34072e-05
-7.22292e-05
0.000307036
-6.04757e-06
2.30172e-05
-2.54297e-06
-1.19459e-05
1.44889e-05
-0.00020542
0.000183095
-4.58327e-05
4.05579e-05
5.27505e-06
-0.000619733
0.000288273
0.000331448
-8.33718e-07
1.89274e-05
-1.83967e-05
1.95011e-05
2.176e-05
6.85825e-05
0.000187063
-0.000255662
1.83637e-05
-2.08678e-05
2.50613e-06
7.32077e-06
1.24055e-05
0.000435949
-0.000222955
-0.000212976
-3.12929e-06
6.68075e-06
-3.55433e-06
5.57123e-05
4.23978e-05
-9.81094e-05
6.55716e-05
-8.90342e-05
-1.59159e-06
-4.02462e-06
-4.14882e-06
8.17327e-06
-9.27265e-05
3.3647e-05
-4.83457e-05
-1.69819e-05
-2.88902e-05
0.000189938
-1.95785e-05
4.08838e-05
-2.1352e-05
1.55638e-05
1.09719e-05
3.62145e-05
-2.29049e-05
-1.33091e-05
-4.07447e-06
4.05161e-06
-0.000401072
0.000180003
0.000221063
-1.534e-05
2.6401e-06
4.19395e-05
-3.63827e-05
-5.56636e-06
-2.01237e-05
5.51477e-06
1.46093e-05
1.80796e-05
5.29479e-05
0.000333101
-7.41429e-05
-0.000258962
1.162e-05
-0.00017611
0.000164495
-1.36889e-05
1.11461e-05
4.0219e-06
-2.85661e-05
3.47385e-05
-7.00729e-06
2.29467e-05
-3.38137e-06
6.21477e-06
-1.72319e-05
-1.6899e-05
1.97415e-05
-2.84325e-06
1.68905e-06
9.54393e-06
0.000113654
-8.6546e-06
-0.000105001
-5.17811e-05
8.16773e-05
-2.98951e-05
-2.5164e-06
4.02888e-05
-5.56507e-06
9.7503e-05
-9.19297e-05
-1.25161e-06
6.56486e-06
-5.31267e-06
4.03454e-05
-1.19735e-05
-2.83826e-05
0.00010855
0.000271686
-0.000380239
-1.89865e-06
1.70429e-05
2.30376e-05
-3.07342e-05
7.69743e-06
7.6423e-06
3.11463e-06
1.75686e-06
5.73032e-06
-0.000192801
0.000377113
-0.000184315
0.000177885
1.07269e-05
-1.95012e-05
2.89652e-05
-9.46244e-06
2.01408e-05
3.83932e-05
-0.000383288
-0.000129469
0.000512766
1.2815e-05
-1.75512e-06
-1.10597e-05
0.000135739
-0.000156916
-3.96671e-06
1.27138e-05
-8.74764e-06
-1.81829e-05
6.03438e-05
-4.21041e-05
-2.34391e-05
1.28509e-05
-2.05774e-05
3.67772e-06
-1.97116e-05
1.05546e-05
9.16205e-06
-5.22697e-06
2.52042e-05
-1.99768e-05
-1.08945e-05
3.96664e-06
1.91418e-05
5.53659e-05
-7.46483e-05
1.8332e-05
-2.23702e-06
-1.60926e-05
3.8582e-05
0.000103882
-0.000142464
4.82082e-05
-0.000453057
0.000404852
7.12432e-05
2.97871e-06
-7.0029e-06
-5.19863e-06
8.17757e-06
0.000294621
-0.00040874
0.000114142
-1.69451e-05
3.33808e-05
-1.64299e-05
-1.71363e-05
1.14384e-05
5.69877e-06
-2.11016e-05
-9.31329e-06
3.04193e-05
-2.41283e-05
-1.80145e-06
2.59295e-05
8.5421e-05
-8.5421e-05
3.88458e-05
-5.50537e-05
1.62082e-05
0.000191916
-0.0001433
1.27415e-06
1.70585e-05
-1.52443e-05
1.91367e-05
3.24033e-05
-5.20099e-05
1.01786e-05
2.6367e-06
-2.4036e-06
7.05803e-06
-4.65355e-06
-1.47015e-05
1.57294e-05
-1.02705e-06
0.000204595
-0.000188428
-1.61761e-05
-1.34699e-05
-5.37495e-06
2.01912e-05
1.23888e-05
-1.29524e-05
3.66129e-05
-3.07031e-05
-5.90939e-06
3.25045e-05
-4.39361e-05
0.000220582
-0.00023663
1.60455e-05
1.68435e-05
8.17766e-07
3.41189e-06
-7.56034e-06
0.000403281
-6.70203e-05
-1.12988e-05
9.13008e-08
-5.34422e-06
5.25309e-06
4.19178e-06
-3.18638e-05
2.76668e-05
1.37057e-05
1.5564e-05
3.24792e-05
-1.4798e-05
-1.76808e-05
-1.58454e-05
1.80953e-05
-2.2494e-06
4.26882e-05
-7.8715e-05
3.60416e-05
-7.1758e-05
6.92996e-05
2.4587e-06
-0.000202919
0.000271496
0.000457551
-0.00047065
-2.68074e-05
3.72476e-05
-1.04428e-05
-2.19476e-05
3.92138e-06
-6.88389e-05
-0.000136244
-3.18114e-05
1.48687e-05
-2.06973e-05
2.10934e-05
-3.93813e-07
5.6776e-06
3.3203e-05
7.4438e-05
-4.39835e-05
8.73543e-06
-8.78978e-06
5.4652e-08
1.04912e-05
2.30051e-05
-3.34986e-05
-1.50635e-05
-4.20427e-06
1.92676e-05
-0.00050405
0.000120779
1.20911e-05
-2.1676e-07
-1.18754e-05
-4.25917e-06
1.84851e-07
-7.95937e-06
-1.37071e-06
1.95201e-05
-1.94247e-05
-5.77713e-05
1.07616e-05
4.56272e-07
1.27963e-05
-1.32532e-05
-1.84808e-05
1.68663e-05
-1.53984e-05
8.67411e-05
-7.13397e-05
-1.17928e-05
-1.87482e-05
3.05412e-05
-5.70491e-05
-0.000102539
-6.40147e-05
-7.74358e-06
7.81056e-05
-2.43664e-05
-5.37385e-05
-0.000215624
0.000139176
0.000459355
-0.000420433
-5.27578e-06
2.36384e-05
8.98263e-06
-8.84415e-06
-1.37075e-07
4.163e-06
-5.41415e-06
-0.000129248
8.33365e-05
4.5913e-05
1.06545e-05
1.5712e-06
-1.22252e-05
-0.000217948
0.000108821
-0.000193776
0.000118146
-1.71883e-07
-2.99764e-05
3.01483e-05
0.000159358
-2.05591e-05
-0.000138802
0.000457623
-0.000467619
9.99206e-06
1.92281e-05
-2.98806e-06
-1.62407e-05
1.62743e-06
-8.28157e-07
-7.9662e-07
-0.000290733
0.00038413
0.000108525
-9.2607e-05
-1.59186e-05
1.09925e-05
-1.52453e-05
4.25273e-06
2.52135e-06
9.54113e-07
-3.47532e-06
9.97109e-05
1.64578e-05
-0.000116168
-0.000197647
4.46394e-05
0.000153002
0.000158692
0.000277256
-0.000142902
8.71304e-05
5.57702e-05
-4.9995e-05
5.64635e-06
1.91763e-05
5.05107e-06
-2.4228e-05
-1.68919e-06
3.64728e-05
-3.47856e-05
2.15397e-05
-1.066e-05
1.04349e-05
2.2537e-07
7.7788e-06
8.86915e-05
-9.64711e-05
0.000195811
-0.000184188
-2.51769e-05
5.99147e-05
-3.4739e-05
-6.06127e-06
0.000220714
-0.000251139
3.03975e-05
-1.67377e-05
2.03597e-06
-6.34702e-06
1.7099e-05
-1.07456e-05
-2.39301e-05
1.40785e-05
9.85165e-06
2.03059e-05
-3.49539e-05
1.46471e-05
1.02379e-05
3.49852e-06
-1.37355e-05
-4.31256e-05
-1.13621e-06
4.42646e-05
2.38984e-05
-1.53987e-05
-8.49805e-06
2.80785e-05
9.28453e-06
0.0001087
-0.000114264
9.71116e-05
1.1413e-05
-0.000171361
-5.65394e-05
0.000227904
-8.46841e-06
3.0728e-05
0.000137025
-0.000110474
2.92924e-06
-2.39685e-06
-5.32546e-07
-1.33106e-05
2.22826e-05
-8.97227e-06
-2.72856e-05
-3.80192e-05
3.80795e-05
-5.92036e-08
7.24296e-06
-2.14782e-06
-5.09519e-06
3.17241e-05
1.02159e-05
-6.03163e-06
2.70058e-06
8.13452e-05
-2.56325e-05
-2.97671e-05
2.9596e-05
8.92575e-06
-2.44126e-05
5.03826e-06
-3.6755e-06
-1.36141e-06
3.12596e-05
3.02253e-06
-3.42846e-05
4.86831e-05
-2.12276e-05
-2.74592e-05
-7.51563e-05
6.00541e-05
1.51029e-05
-6.15715e-05
1.45544e-05
4.70099e-05
2.84995e-05
-1.13674e-05
-1.71309e-05
-0.00041831
0.000466514
-0.000201629
-0.000113117
3.20143e-05
0.000330332
1.80378e-05
1.44403e-05
2.95809e-05
-3.13004e-05
1.72055e-06
-1.44923e-05
0.00010358
-7.09855e-05
1.73362e-05
5.36505e-05
6.41361e-06
2.20858e-05
1.36339e-05
4.88883e-06
9.80548e-06
0.000145135
7.33972e-05
-0.000218546
-2.11579e-05
1.17069e-05
9.45003e-06
-3.50551e-05
3.33639e-05
1.49259e-05
-1.45278e-05
-3.97355e-07
-1.90772e-05
-3.28852e-05
5.19253e-05
-6.26365e-05
4.44764e-05
-7.04521e-07
-1.54951e-05
1.62012e-05
-1.49711e-05
-8.95891e-06
-5.93016e-05
2.25957e-05
3.67102e-05
-0.000235316
-0.000165761
-2.55582e-05
2.23492e-05
3.20841e-06
-1.90438e-05
6.23043e-05
-4.32593e-05
-5.7081e-06
-1.39337e-05
1.45015e-05
2.53458e-05
-9.78177e-06
0.000147888
-0.000140952
-2.57683e-05
8.26998e-06
1.74948e-05
4.27004e-05
2.32167e-05
-2.14451e-05
1.62185e-05
-1.15755e-06
-2.09392e-05
2.21023e-05
2.00142e-05
7.82215e-07
-2.07962e-05
8.93658e-05
-0.000186467
9.70961e-05
-9.15759e-05
3.41079e-05
5.74678e-05
4.45569e-05
-4.67651e-05
2.2085e-06
0.000332368
-2.92189e-05
-2.50314e-05
1.33765e-05
1.16559e-05
6.31216e-05
-5.93795e-05
3.74569e-05
4.06495e-05
4.13883e-05
-3.83205e-05
0.000487726
-0.000129192
-6.76246e-05
1.478e-05
5.28405e-05
-1.78137e-05
1.96906e-06
9.99384e-06
1.28145e-05
8.94452e-06
-6.4279e-06
-2.51611e-06
-6.4736e-06
9.92205e-06
-3.45407e-06
-8.20917e-05
-7.14043e-05
0.000153498
-0.000467156
-0.000152583
-6.10037e-06
-0.000120284
-2.26164e-05
-0.00014278
-9.6966e-06
0.000152472
7.18677e-06
1.75818e-06
-8.26285e-05
0.000129445
-4.6818e-05
-4.1689e-05
3.01099e-05
1.15829e-05
-2.97331e-06
4.63604e-06
-1.66245e-06
1.2404e-05
-1.20271e-05
9.89958e-06
1.16609e-05
-1.86395e-05
-6.91909e-06
0.00012321
-1.81877e-05
-0.000105024
-1.47485e-05
1.43883e-05
3.60611e-07
-1.00124e-05
9.30779e-06
-8.69366e-06
3.67732e-05
0.000234149
-0.000446029
0.000211865
-6.41891e-06
-1.64436e-05
1.04349e-05
6.00842e-06
-9.96098e-05
0.000137349
-0.000162778
0.000107096
5.56842e-05
-2.14735e-05
2.03176e-05
-2.9179e-05
9.49869e-06
6.90944e-07
7.80564e-07
6.38554e-06
-2.37603e-05
0.000104085
-0.00010237
-1.71378e-06
1.47408e-05
-3.83715e-06
-1.03855e-05
1.78357e-05
-7.44902e-06
-3.38685e-06
4.13697e-07
3.86385e-05
-6.8936e-06
-1.1277e-05
2.74332e-05
-1.61573e-05
0.000186716
-0.000414819
0.000228118
-3.09635e-05
-2.58605e-05
-0.000475552
0.000398808
7.67436e-05
-8.06683e-06
-1.6011e-05
2.40783e-05
5.24921e-07
2.9056e-05
6.5246e-05
-4.23649e-05
4.84888e-06
8.19464e-06
4.8697e-07
-8.68394e-06
-2.18259e-07
1.89661e-05
-1.87491e-05
-3.17545e-05
5.03773e-05
-1.8651e-05
3.27923e-05
-1.24872e-05
0.000291997
-7.12608e-05
-3.50748e-05
-3.59097e-05
0.000116766
-0.000108988
-3.75568e-06
0.000367616
-7.29987e-05
2.06466e-06
-1.66112e-05
1.45467e-05
3.79926e-05
-4.1889e-05
3.89527e-06
4.4278e-05
-2.13106e-05
-2.29701e-05
-6.38278e-06
-9.13002e-06
1.55131e-05
-2.18794e-05
2.1881e-05
9.71236e-05
-3.27151e-05
-6.43784e-05
-0.000115569
0.000115562
-9.25304e-06
1.1907e-05
-2.65155e-06
0.000224937
-0.00031349
8.85454e-05
-2.82558e-05
2.02732e-05
7.98328e-06
-8.30686e-06
5.05473e-06
-3.57562e-05
4.03211e-05
1.59764e-05
-0.000357578
6.68459e-05
3.5791e-05
-3.69577e-05
1.15815e-06
-1.53074e-06
1.07815e-05
-9.25152e-06
0.000333892
-0.000399518
6.56083e-05
-1.29846e-06
-6.05649e-08
-0.000111261
0.000382944
0.000222807
1.71596e-05
2.06794e-06
-1.68378e-05
6.70675e-06
1.01322e-05
-0.000350328
-5.34302e-05
-1.01427e-05
-2.39727e-06
1.25398e-05
2.59383e-05
-1.07e-05
-1.52364e-05
-0.00017811
0.00011025
0.000402627
9.80658e-06
1.59517e-05
-1.81052e-05
1.8598e-06
0.00017056
-5.80022e-05
-2.04482e-05
-7.80693e-06
-5.93692e-05
1.62461e-05
1.33401e-05
3.27665e-05
-3.3302e-05
5.37605e-07
8.36671e-06
-1.7648e-07
7.56892e-05
-0.000399923
0.00032427
-6.13251e-05
-6.30043e-06
8.9452e-06
2.45478e-05
-0.000176206
3.34254e-05
-7.04168e-05
8.36526e-05
-0.000214952
1.95385e-05
0.000195415
-3.07617e-05
-6.08143e-05
6.2464e-06
-1.20813e-06
-2.44974e-06
-2.6042e-06
5.05119e-06
0.000370085
-0.000324033
-4.60508e-05
2.07193e-05
4.03905e-06
9.82556e-07
-2.00248e-05
1.90421e-05
-0.000112542
-0.000136364
0.000248907
-0.000307618
0.000383324
-2.79239e-05
1.50583e-06
2.64189e-05
1.00803e-06
-1.0081e-06
-4.46201e-06
-9.57399e-07
2.71184e-05
-2.29303e-05
1.25465e-05
-0.000158331
0.000306658
-0.000148317
-6.26736e-05
6.14909e-06
4.60084e-05
-1.261e-05
2.22952e-05
-2.8403e-05
2.52199e-05
-1.48468e-05
-1.0375e-05
-0.000315868
0.000353711
-3.78392e-05
-7.43213e-06
3.15738e-05
-0.000111116
-1.81304e-05
3.12495e-05
-3.27647e-05
1.51577e-06
-3.53679e-05
-0.000127295
0.000162663
-3.4242e-06
1.69446e-05
-3.66783e-05
4.01011e-05
-3.42582e-06
0.000135108
-9.65257e-05
3.70099e-05
-1.75066e-05
2.18839e-05
2.67945e-05
-0.000136678
0.00050676
-1.87665e-05
8.38128e-06
-0.000116977
2.47104e-05
9.22668e-05
-8.34267e-05
1.24576e-05
1.97468e-05
-0.000102374
-1.5799e-05
-3.52798e-06
1.93265e-05
1.12722e-05
-6.17404e-07
-0.000137308
0.000191955
-5.46438e-05
-3.08856e-06
4.76453e-05
4.05484e-06
2.73373e-05
-3.13943e-05
1.77794e-05
2.33084e-05
9.05447e-06
7.63685e-05
-0.000142
-5.56491e-05
-9.96142e-05
1.54248e-05
8.41912e-05
6.30258e-06
-3.04303e-05
-6.82253e-06
2.32221e-05
-1.63988e-05
0.000142999
-0.000467207
0.000324205
0.000391142
-0.000388866
2.33637e-05
-1.96672e-05
-3.69572e-06
0.000369219
-0.000182498
-7.92763e-05
0.000114131
-3.48565e-05
6.47185e-05
-0.000236077
4.25826e-06
-1.11708e-05
-1.45982e-05
-6.04873e-05
3.5309e-05
1.32701e-05
1.19496e-05
-2.59094e-05
3.50817e-05
-9.17231e-06
1.8206e-05
-1.61411e-05
-3.15892e-05
6.68131e-06
2.49064e-05
-4.82353e-05
2.73236e-05
0.000214118
-6.36507e-05
-0.000150468
-7.58085e-06
-1.2129e-05
-5.10146e-08
-1.86366e-05
-2.31748e-07
1.88679e-05
9.3838e-06
-1.57663e-05
2.63837e-05
-1.85032e-05
-7.87995e-06
1.84662e-05
-2.10474e-06
-1.63669e-05
0.000394436
-3.2883e-06
1.35774e-06
1.52517e-05
-1.66093e-05
8.63524e-06
-9.84014e-06
1.20515e-06
4.68175e-07
-1.99699e-05
9.09984e-05
-5.09817e-05
-4.00172e-05
0.000149647
-2.45964e-05
-2.38027e-05
2.50792e-05
5.21613e-05
-2.61767e-05
-2.59756e-05
-4.04912e-05
-1.02985e-05
-0.000415443
6.15576e-05
0.000353722
-3.92949e-05
1.93716e-05
-0.000351763
3.59049e-05
0.000343772
1.91582e-05
-3.32469e-05
5.16581e-05
-3.15177e-05
-8.06645e-06
-1.92065e-05
2.0189e-05
-4.37875e-05
9.58438e-06
3.54649e-06
-1.31307e-05
-0.000170009
0.000154054
1.59559e-05
-0.00012959
0.000117193
-0.000230259
0.000113065
-8.8274e-06
2.38351e-05
0.000150485
0.000163077
-0.000313562
-9.61932e-06
2.86795e-05
-1.90612e-05
8.34526e-06
0.00020339
-0.000211746
5.58503e-07
8.17702e-06
8.8881e-05
-4.61964e-05
-0.000112858
1.9934e-05
9.29167e-05
-7.5594e-06
-2.10564e-05
1.29901e-05
1.05328e-05
-1.89751e-06
-2.20638e-05
2.92435e-05
6.84223e-06
-1.8756e-05
1.19118e-05
0.000170429
-0.0002563
8.58621e-05
0.000109892
0.000158766
-0.000268651
6.65738e-05
-2.24155e-05
-4.4158e-05
-4.05673e-05
-2.2107e-05
1.00744e-05
-2.83564e-05
1.87361e-05
-0.00017181
7.05218e-05
2.25684e-05
-5.63776e-05
3.38285e-05
-0.000305142
0.000112324
0.000192812
-2.63193e-05
2.1855e-06
2.41383e-05
1.62078e-05
2.00063e-05
-2.39955e-05
-1.00708e-06
1.01856e-05
-1.72318e-05
7.04472e-06
2.6236e-06
-1.82165e-06
-6.63806e-07
-1.72869e-07
-1.84696e-05
-1.33394e-05
-1.09935e-05
-2.0595e-05
0.000305786
-0.000315734
9.95983e-06
2.94408e-05
-6.91902e-06
-2.25223e-05
2.32542e-06
1.05081e-05
-1.28335e-05
0.000182937
2.7976e-05
-0.000210916
4.48496e-06
-2.12642e-05
1.67761e-05
-1.20048e-05
-8.22292e-06
2.02296e-05
-1.78225e-05
-1.42062e-06
-1.15621e-05
-5.19925e-06
9.49991e-06
-4.30097e-06
-1.65274e-05
2.73408e-05
-1.08134e-05
-1.58133e-05
1.52302e-05
5.8335e-07
2.03895e-06
-9.11347e-05
-2.69162e-05
1.73974e-05
9.52e-06
-1.04719e-05
2.42523e-05
9.99274e-05
-0.000182019
2.83932e-05
3.09325e-06
-1.51455e-05
1.61804e-05
-1.03193e-06
6.09325e-06
3.30536e-06
-9.39846e-06
0.000333103
-2.80937e-06
2.17878e-05
0.000205805
-6.06802e-05
1.00324e-05
-1.40008e-05
-1.87674e-05
-4.05266e-05
-8.92568e-05
6.49103e-05
2.43464e-05
-0.00010225
-4.23438e-05
0.000144592
-6.80209e-07
-1.686e-05
-1.86045e-05
2.13573e-05
-2.75241e-06
3.75107e-05
-2.44011e-05
-1.31086e-05
-6.13128e-05
4.53093e-05
1.60042e-05
-2.16723e-06
-1.49684e-05
-2.97439e-05
5.75415e-05
-2.77965e-05
-5.14937e-07
-9.56259e-07
1.13594e-05
2.2883e-05
-3.42441e-05
3.9275e-05
-4.49373e-05
5.66106e-06
1.94191e-05
6.52067e-06
4.23564e-05
1.89786e-05
-0.000134402
0.000367703
-0.000233328
3.96424e-06
8.74961e-06
-0.000222634
0.000232737
-1.00874e-05
-4.04337e-05
-6.50133e-05
0.000105447
2.96319e-05
-2.61862e-06
-1.6234e-05
-9.13717e-06
2.53698e-05
-2.14955e-05
4.21414e-06
2.68438e-05
4.30195e-06
-1.92689e-05
-0.000115583
-4.7195e-05
2.08806e-05
1.36796e-05
-3.45589e-05
1.17057e-05
-3.58218e-05
2.41128e-05
-2.539e-05
1.81543e-06
2.35723e-05
-7.64633e-06
2.44702e-06
-1.65645e-05
-1.13917e-05
6.14762e-06
8.23792e-07
-0.000150053
0.0002352
-0.000369632
0.000146189
-0.000126331
-1.98646e-05
1.95189e-05
2.63567e-06
0.000146807
0.000320782
-0.000467577
-8.31263e-06
1.22765e-05
-2.33668e-05
1.3022e-05