/*--------------------------------*- C++ -*----------------------------------*\
| =========                 |                                                 |
| \\      /  F ield         | OpenFOAM: The Open Source CFD Toolbox           |
|  \\    /   O peration     | Version:  v2012                                 |
|   \\  /    A nd           | Website:  www.openfoam.com                      |
|    \\/     M anipulation  |                                                 |
\*---------------------------------------------------------------------------*/
FoamFile
{
    version     2.0;
    format      ascii;
    class       volScalarField;
    location    "300";
    object      k;
}
// * * * * * * * * * * * * * * * * * * * * * * * * * * * * * * * * * * * * * //

dimensions      [0 2 -2 0 0 0 0];


internalField   nonuniform List<scalar> 
27802
(
0.000150751
0.00014994
0.000151229
0.000161882
0.000147354
0.00107883
0.000147346
0.000185881
0.000146471
0.000288688
0.0609021
0.000249199
0.000160937
0.000175019
0.0824583
0.00727549
0.0595144
0.00014654
0.0628268
0.0233622
0.0823801
0.083014
0.000145533
0.000190699
0.000221141
0.0001609
0.000147076
0.00016853
0.000147055
0.00363667
0.00019072
0.000174744
0.000150574
0.000144271
0.000149246
0.00664389
0.0116442
0.000145911
0.000147418
0.00611722
0.000238055
0.000149305
0.000158634
0.00014415
0.00015861
0.0248486
0.000148248
0.0119598
0.000485794
0.0416951
0.0792023
0.000161139
0.029383
0.00042647
0.000147177
0.000148961
0.000215247
0.00014784
0.000156811
0.0001877
0.0176733
0.000151176
0.000158586
0.000144763
0.000144253
0.000148596
0.0246205
0.000215167
0.000187796
0.00014822
0.000144095
0.0629234
0.0736503
0.000210905
0.000152637
0.000154051
0.0237225
0.0127542
0.0207055
0.00849534
0.000147798
0.000146815
0.00016507
0.000151467
0.000148648
0.000165909
0.000149595
0.0441085
0.0193124
0.000148317
0.000147676
0.0182584
0.000146257
0.00399606
0.0708649
0.000171129
0.000146797
0.00017011
0.000148082
0.00406106
0.000147455
0.000146173
0.00050589
0.0149639
0.0734493
0.000158926
0.000148176
0.00014422
0.00014703
0.000158301
0.00617381
0.000147711
0.000144304
0.000148077
0.000148219
0.000144722
0.000157682
0.000191296
0.0379903
0.000215881
0.0215716
0.00018666
0.0425924
0.000191474
0.0588159
0.000178054
0.000150174
0.000155823
0.0627759
0.000144433
0.000192778
0.000173517
0.00014919
0.0126102
0.0117161
0.000152959
0.000167359
0.000176453
0.000148025
0.000149108
0.000173334
0.000322969
0.000158805
0.000161862
0.000145917
0.0309811
0.000158148
0.000169233
0.000148077
0.00166582
0.000161811
0.00300722
0.000158605
0.0509825
0.000149713
0.00937805
0.000152557
0.000171614
0.000144511
0.000149017
0.000144727
0.000148561
0.0900913
0.00014609
0.000149587
0.000149762
0.0725809
0.000147122
0.000149029
0.000150028
0.000174257
0.0258246
0.0620158
0.0159261
0.000147096
0.000216014
0.0111542
0.0568436
0.000144697
0.000148146
0.000238863
0.0459659
0.0196301
0.0493918
0.000144604
0.000188602
0.0722945
0.000704254
0.00020918
0.000520324
0.0844546
0.000149942
0.000150743
0.000296656
0.000146928
0.00412587
0.00585623
0.0769142
0.000313454
0.0454352
0.000173188
0.000149066
0.000150258
0.000157719
0.0852923
0.000177884
0.000147134
0.000146591
0.00365404
0.000146991
0.000148033
0.0498422
0.000161895
0.0318993
0.000144404
0.000147037
0.000191795
0.000149602
0.00014769
0.000149903
0.0713361
0.000147323
0.000148297
0.000221581
0.000148959
0.000219855
0.000150105
0.000169709
0.000143909
0.0001489
0.000148073
0.000162466
0.000213185
0.000149278
0.000149952
0.0190501
0.000167588
0.000169192
0.00015012
0.000498292
0.0209305
0.0465045
0.0454911
0.0577099
0.0741435
0.000152134
0.000147277
0.0156251
0.000144572
0.000148985
0.000204991
0.000147337
0.000205434
0.000149823
0.0418076
0.0590826
0.000157205
0.000181752
0.000148449
0.000152706
0.000147203
0.0237488
0.0409438
0.000207749
0.000148253
0.000147321
0.000149448
0.00019723
0.0594603
0.000173934
0.012302
0.000158395
0.0710198
0.000146049
0.000147321
0.000149244
0.000172896
0.000148507
0.000147271
0.0580491
0.000149625
0.000167148
0.000250225
0.000210827
0.0670309
0.000155592
0.0503363
0.000146062
0.000189252
0.0470904
0.000253883
0.0168936
0.0254565
0.000157092
0.000143851
0.000148526
0.000149745
0.00698759
0.0034871
0.000186607
0.0235607
0.000164817
0.0432952
0.000694405
0.0457671
0.000148542
0.000193709
0.000148195
0.0468368
0.000146456
0.0408284
0.000201369
0.0356041
0.000147817
0.0343757
0.0709993
0.000183389
0.000146881
0.00016824
0.0301392
0.000146439
0.00015218
0.000199767
0.0433101
0.0200764
0.000146288
0.000164632
0.000168174
0.0428158
0.000147155
0.0473308
0.00014617
0.000149027
0.000200892
0.000247069
0.000150018
0.000147761
0.000148285
0.000200361
0.000154143
0.000147643
0.000267379
0.000147682
0.000239969
0.0175257
0.00712278
0.000153395
0.00014701
0.000152097
0.000146538
0.000188071
0.000186746
0.000146705
0.000181959
0.000148669
0.000146881
0.000150179
0.0001477
0.0245145
0.000145899
0.000219965
0.000368724
0.0779519
0.000144048
0.0001478
0.000147926
0.0503016
0.00014608
0.000208174
0.000143762
0.000213282
0.000180192
0.010228
0.000152111
0.000149924
0.000148497
0.000173152
0.000147771
0.000211783
0.000152871
0.000157908
0.000149075
0.000148342
0.000149902
0.000148078
0.0083191
0.000174277
0.00019037
0.0335679
0.000259706
0.000147692
0.000444952
0.000148604
0.000147785
0.000168517
0.000151544
0.000149059
0.0504045
0.0006622
0.0301114
0.000182773
0.0817293
0.000148304
0.000148539
0.000209086
0.0377643
0.000148513
0.000154327
0.00019268
0.000155261
0.000147172
0.0001599
0.0234544
0.0727697
0.0135972
0.0193792
0.000147226
0.08889
0.000146171
0.000279985
0.000160087
0.0203078
0.000149952
0.000147341
0.000155845
0.000151897
0.000161565
0.000147706
0.000147708
0.000167567
0.000148008
0.00014855
0.000217724
0.0360159
0.000180192
0.0347823
0.000186103
0.000172091
0.000204438
0.00014773
0.000159696
0.0259196
0.000153413
0.000147795
0.000160331
0.000155411
0.00016391
0.000150587
0.000148063
0.000147253
0.0248099
0.0418956
0.000150567
0.000146899
0.0789743
0.000149051
0.028353
0.00014901
0.000148655
0.00015325
0.00039391
0.000148297
0.000143714
0.0629209
0.000148157
0.000176153
0.0351083
0.000174605
0.00014789
0.0232079
0.000242212
0.000172296
0.0247018
0.000688176
0.000151338
0.000162381
0.000144695
0.000477927
0.000148545
0.000172783
0.000147697
0.000159368
0.0067719
0.0590394
0.000146947
0.000148119
0.000164392
0.000149484
0.00014846
0.000147241
0.000145919
0.000191051
0.000163943
0.000590415
0.00558637
0.000145515
0.000174912
0.0351479
0.000154659
0.000150973
0.000144063
0.000149622
0.0350881
0.000220264
0.000164351
0.032449
0.0494221
0.000147874
0.0292173
0.000145785
0.000299913
0.00016062
0.000147204
0.000152609
0.000147406
0.000155759
0.00376192
0.0281862
0.000154866
0.0259634
0.0556691
0.000209426
0.000147874
0.000147899
0.016597
0.000164955
0.00014973
0.000171535
0.000158394
0.0080894
0.000187235
0.0462664
0.000154723
0.000148489
0.000626085
0.000147908
0.000148151
0.000152047
0.0467176
0.000146782
0.037303
0.000152779
0.000273115
0.000176068
0.0213846
0.000144398
0.000147857
0.0324962
0.000177908
0.000148248
0.000175175
0.000151483
0.000147657
0.000146741
0.0308388
0.000175567
0.00031538
0.0185176
0.000278727
0.000147031
0.0614448
0.000164666
0.000147808
0.000173305
0.0226267
0.000147792
0.000148734
0.000146935
0.0514717
0.000147812
0.000144682
0.000145576
0.000148226
0.000209363
0.000147593
0.0165027
0.00017167
0.000147692
0.000191365
0.000176001
0.0374152
0.043551
0.0192849
0.000148198
0.000145402
0.000145696
0.0779638
0.000145947
0.042497
0.000377391
0.00016685
0.0224982
0.0164549
0.000149222
0.000148055
0.0269826
0.000196619
0.000146475
0.000149217
0.076111
0.00020961
0.066412
0.0323168
0.000266517
0.000152024
0.00025355
0.00312868
0.000147774
0.0777968
0.0595776
0.00017607
0.000582121
0.0642055
0.000152121
0.000172488
0.000147223
0.000166901
0.000146527
0.000159404
0.000159073
0.000168314
0.0202651
0.000196139
0.0381984
0.000153008
0.018824
0.000149766
0.000150949
0.000159431
0.000170738
0.000147918
0.000172113
0.000149838
0.000176117
0.000166051
0.000147081
0.000147972
0.000163425
0.000172445
0.000180154
0.00027834
0.000154
0.0528081
0.00985522
0.000378833
0.000147656
0.000162483
0.000256314
0.0395081
0.000153935
0.000146828
0.000273233
0.000197562
0.000147732
0.000275894
0.000149766
0.00033659
0.000268084
0.00014974
0.000147219
0.000195677
0.000260703
0.0001537
0.000159615
0.0136295
0.000149815
0.00015108
0.0206162
0.000150696
0.000183979
0.000147407
0.000145526
0.000147128
0.0241673
0.000165947
0.000149004
0.0173822
0.000147025
0.000160384
0.0403196
0.000149354
0.0396869
0.00016881
0.000146752
0.000150716
0.000145414
0.0139946
0.0385947
0.0297731
0.00014846
0.0328351
0.0374846
0.000145421
0.0748557
0.000164481
0.000149801
0.000146125
0.000148492
0.000153773
0.0090442
0.000146557
0.000149807
0.000167644
0.0265151
0.000149009
0.015997
0.0436757
0.0774431
0.000145517
0.00015242
0.00014985
0.0001517
0.000189278
0.000147313
0.000151079
0.000149835
0.000155257
0.000154278
0.0460641
0.000227831
0.000721822
0.00015784
0.000162606
0.000170163
0.000147752
0.000146302
0.000147694
0.000184588
0.000167119
0.0513572
0.0364532
0.0738745
0.000146514
0.0133153
0.000146887
0.000149024
0.000486512
0.000147389
0.00502894
0.0168805
0.00820304
0.0106144
0.0139949
0.000147849
0.000164596
0.000263983
0.000165467
0.024331
0.000173634
0.000146347
0.0404364
0.00014807
0.0373877
0.025263
0.000149139
0.000145155
0.0402997
0.000146214
0.000149452
0.0200315
0.000256786
0.00679703
0.0435985
0.000147845
0.000159472
0.000150395
0.000164008
0.000146279
0.0215776
0.000169231
0.000147696
0.0345902
0.038595
0.000213204
0.000166424
0.000147993
0.000148214
0.00193349
0.000166736
0.000153034
0.000214108
0.0246516
0.000179853
0.00014995
0.000148225
0.000174665
0.000147731
0.0641302
0.000199182
0.000789217
0.000151029
0.000496674
0.000147724
0.0538048
0.000164253
0.0745793
0.000162809
0.0340669
0.000150991
0.000163053
0.0193605
0.000152938
0.000172483
0.000617192
0.000151036
0.000197246
0.000181204
0.0699865
0.00015611
0.000145982
0.03667
0.00014896
0.000148546
0.000187025
0.00861335
0.000208016
0.00765056
0.000158479
0.000148967
0.0331429
0.000369103
0.000149421
0.0476182
0.000184383
0.041469
0.000146737
0.000150752
0.00017521
0.000147703
0.000163637
0.000146855
0.000160215
0.0263482
0.0833009
0.0001526
0.000162859
0.000413332
0.000149077
0.000147396
0.000147265
0.000183536
0.000411041
0.000149809
0.000148006
0.000164479
0.000169208
0.0791171
0.000160129
0.000178245
0.000263659
0.0427194
0.000149005
0.0523104
0.0177117
0.000161866
0.0365736
0.000147718
0.00015275
0.000579068
0.000146928
0.0724799
0.00169044
0.031504
0.000157186
0.0212551
0.000155739
0.068641
0.000147834
0.0342387
0.000177949
0.013838
0.000157822
0.000148054
0.000153515
0.000146975
0.0132514
0.000218109
0.000175757
0.000198117
0.000182286
0.000155494
0.000459558
0.000182329
0.000205977
0.000275635
0.000162205
0.000186761
0.0126209
0.000148059
0.000149679
0.000165027
0.000160311
0.0137095
0.000160607
0.000145931
0.000214963
0.000148064
0.000150736
0.000148585
0.000149544
0.000149674
0.000151778
0.00014959
0.000170726
0.000147077
0.000158565
0.0426932
0.000481179
0.000148682
0.00014808
0.00616699
0.000148518
0.000197482
0.000145831
0.000198092
0.000182991
0.0372459
0.000167609
0.000147739
0.000149287
0.000162831
0.000175798
0.00014981
0.000237033
0.000149899
0.000173209
0.000149015
0.000149375
0.022266
0.00328154
0.000145767
0.00030724
0.000216414
0.000174204
0.000156743
0.000147544
0.0161454
0.000151929
0.0802385
0.000151295
0.000163592
0.000148231
0.000149711
0.00014954
0.0331684
0.0824346
0.00219272
0.0215893
0.0122104
0.0349541
0.000145722
0.000147697
0.000203369
0.0232042
0.0161561
0.000170861
0.000149886
0.000145579
0.0265024
0.000176957
0.042815
0.00014773
0.0315862
0.000159853
0.000178598
0.000146892
0.000175662
0.000163981
0.000145405
0.000146651
0.000164922
0.000163119
0.000147732
0.000152106
0.000198259
0.000175199
0.000147307
0.000199585
0.00796393
0.0369526
0.000179246
0.0495134
0.0214756
0.000156796
0.000148025
0.000227067
0.000169473
0.000149651
0.0237226
0.0288187
0.000527096
0.000286923
0.000213022
0.000239544
0.000148126
0.0213148
0.048928
0.000168119
0.000158622
0.000145883
0.000148766
0.00021326
0.000152655
0.000149426
0.000148968
0.000172196
0.000148403
0.000146375
0.000148692
0.000151068
0.0190447
0.000152031
0.0163331
0.000150296
0.0118066
0.000186167
0.000147295
0.000180613
0.000146613
0.000287266
0.0240965
0.000197351
0.0337209
0.000211962
0.000145826
0.000157218
0.000144398
0.000158566
0.010025
0.0100864
0.0814539
0.000149812
0.000145565
0.000151707
0.000272362
0.00014824
0.000149026
0.00016862
0.000150077
0.000169528
0.000170017
0.000146506
0.000145471
0.000147748
0.000529317
0.000149965
0.000148121
0.000172754
0.000499296
0.000147775
0.000145903
0.050077
0.000148108
0.000146288
0.0003055
0.000157581
0.00014747
0.000149845
0.000188338
0.000149662
0.000148687
0.00014781
0.000148771
0.056454
0.0219297
0.000147847
0.0742669
0.000147891
0.0404374
0.0400362
0.000149279
0.0589342
0.00996302
0.000157511
0.000147157
0.000146082
0.0340537
0.000192033
0.0786276
0.00207644
0.0001498
0.000202575
0.00014856
0.000431448
0.000161359
0.0138753
0.000149951
0.000353917
0.0784511
0.000201983
0.000148582
0.0303505
0.000282357
0.000148475
0.000178142
0.000146818
0.000149043
0.000148595
0.000148055
0.000156092
0.025873
0.0230024
0.00014783
0.000148236
0.00517158
0.00015207
0.00015264
0.00014796
0.000148761
0.0750811
0.000147208
0.000147956
0.000157464
0.0778359
0.000155701
0.000147669
0.0382478
0.000146993
0.000151273
0.00018258
0.000151943
0.000151291
0.0646812
0.000169488
0.0320519
0.000158703
0.000156541
0.000149221
0.00016418
0.0207059
0.000167527
0.000486973
0.0345971
0.0331088
0.000185245
0.000147812
0.000149924
0.000147712
0.0293231
0.0603346
0.000150853
0.000207111
0.000145263
0.0802945
0.000148234
0.000147877
0.0411707
0.000168061
0.0146404
0.000146918
0.0427523
0.0499394
0.000147798
0.000222207
0.000149824
0.000169618
0.000144103
0.00015192
0.000164477
0.000170935
0.000147281
0.000162476
0.019885
0.000145515
0.0798686
0.000151662
0.000156522
0.0002426
0.000150848
0.0723855
0.000151809
0.000146849
0.000224058
0.000151375
0.000148908
0.000218131
0.000147107
0.000145753
0.0167798
0.000147179
0.000145606
0.000159642
0.0426433
0.000145105
0.000149834
0.000146063
0.000149226
0.000148721
0.000169398
0.0777149
0.000208845
0.000179492
0.000147086
0.000145873
0.0252748
0.0440852
0.0760279
0.000146156
0.00956908
0.000192193
0.00871782
0.000187796
0.044161
0.000162259
0.000245001
0.000228626
0.000185338
0.000145686
0.000150247
0.000172771
0.00014508
0.000171009
0.000157021
0.0235097
0.00790918
0.000158766
0.000164067
0.000148798
0.00652548
0.076665
0.000207211
0.000171988
0.000187123
0.000148606
0.000150738
0.0318491
0.0325693
0.000164061
0.000151616
0.000145887
0.000148643
0.000158169
0.000145507
0.00016357
0.000148
0.00014966
0.0173198
0.0216489
0.000148978
0.0352372
0.00014954
0.000151163
0.0199941
0.00016099
0.000147011
0.000148058
0.0196634
0.000146958
0.000150197
0.000146099
0.0743737
0.000193007
0.0774699
0.0823487
0.0179998
0.000178195
0.000147938
0.000149159
0.0508222
0.00518523
0.0265638
0.000197977
0.000148995
0.0230571
0.000182081
0.000238077
0.000150825
0.000162414
0.000148055
0.00250313
0.045268
0.0804527
0.000277201
0.000145362
0.000166003
0.0179231
0.0469564
0.00014801
0.000163537
0.000778297
0.000189991
0.00019511
0.000788229
0.000148042
0.000209514
0.0161439
0.0172146
0.000195507
0.000144131
0.0133366
0.000484339
0.0118229
0.000169697
0.000148619
0.0509973
0.000155637
0.000148206
0.000149547
0.0244952
0.000161861
0.00014943
0.000149076
0.000197312
0.000220229
0.00015745
0.000161171
0.0574138
0.000147311
0.000147355
0.000184388
0.000152884
0.000147685
0.000147717
0.000147908
0.000148732
0.00744191
0.034622
0.00016282
0.000311439
0.000161622
0.000287064
0.00014744
0.000502564
0.000147264
0.0731339
0.0169436
0.000145677
0.0278673
0.0181911
0.000148562
0.000172211
0.0812408
0.0192506
0.000149761
0.0207224
0.0156964
0.0528976
0.000148088
0.000149018
0.0197764
0.000359078
0.000188251
0.040928
0.000191261
0.0455768
0.000148204
0.000152075
0.0218253
0.000149079
0.00014572
0.000149558
0.00048267
0.000148062
0.00120484
0.000174274
0.000148079
0.000148069
0.000149032
0.000178915
0.0750744
0.00016103
0.000148538
0.000148875
0.0082473
0.000168123
0.049961
0.000322825
0.0369171
0.000173819
0.000172018
0.000173324
0.000256735
0.000179642
0.0447071
0.000164575
0.000147175
0.000154363
0.000220398
0.000159082
0.000149648
0.000199614
0.000183999
0.000147218
0.000240505
0.000163728
0.00014939
0.000152365
0.000150484
0.000181824
0.00014809
0.000147445
0.00014524
0.000280341
0.0190542
0.0213019
0.0409975
0.0554641
0.000145904
0.0778051
0.000147965
0.000148517
0.000148052
0.0789948
0.000146419
0.000151252
0.000148071
0.000149172
0.000147441
0.000147986
0.000206507
0.0179663
0.000153761
0.000146983
0.0471282
0.000154772
0.000210311
0.000146439
0.0251379
0.000149911
0.000148613
0.0828538
0.000158653
0.000148219
0.0814017
0.0708664
0.000201149
0.000149914
0.000159024
0.000172793
0.000234752
0.000147766
0.000149085
0.028172
0.0638783
0.0241445
0.000148664
0.00014808
0.0830261
0.0226136
0.000218887
0.000148086
0.0332709
0.000198078
0.000148038
0.000149189
0.000148061
0.0663828
0.000182524
0.0275965
0.0208522
0.000147712
0.000146532
0.0594925
0.051315
0.000192549
0.000145898
0.0735976
0.0130769
0.000150133
0.000148301
0.000209194
0.00029448
0.000150485
0.000148201
0.0331187
0.000147946
0.000146746
0.000148086
0.000245319
0.0761224
0.000147397
0.000147416
0.0315229
0.000147239
0.000148089
0.0002346
0.0303692
0.0322319
0.0743989
0.000149679
0.000147689
0.000151548
0.000205405
0.000184077
0.000210312
0.0415145
0.000151381
0.000148982
0.0574529
0.000148102
0.000155359
0.0123188
0.000146769
0.000147843
0.016149
0.000240357
0.00014871
0.0154766
0.000149773
0.000149825
0.000153825
0.0289539
0.000147684
0.000149647
0.000144138
0.000161145
0.000220971
0.000217925
0.00017037
0.000149809
0.000151171
0.000148675
0.00055248
0.0417086
0.000146137
0.000663836
0.000164941
0.000158594
0.000191393
0.000149677
0.00019837
0.000463167
0.000145665
0.000315031
0.000147825
0.000149579
0.000152493
0.000147711
0.000144231
0.00020873
0.000149955
0.0183614
0.000183309
0.000147638
0.000147538
0.000587649
0.000148698
0.000148067
0.00014393
0.000149898
0.000183854
0.000151486
0.000220115
0.000263919
0.000145681
0.000157327
0.0570094
0.000171156
0.0397804
0.0129087
0.000147494
0.0336615
0.0713773
0.000143994
0.0172743
0.000147989
0.0800042
0.0541177
0.000166388
0.00679455
0.030947
0.000152425
0.000149292
0.02831
0.000149026
0.000174057
0.0742158
0.065483
0.000163307
0.00014697
0.000210189
0.000173608
0.000148622
0.00014911
0.000149201
0.000166706
0.000176715
0.0364363
0.00019285
0.000146925
0.00880538
0.000150161
0.0340213
0.000215244
0.0209108
0.000146646
0.0459137
0.000147035
0.000173913
0.0203415
0.0433393
0.000209338
0.0452783
0.000197184
0.000143872
0.000149001
0.000146593
0.00914744
0.0362455
0.000180512
0.000149031
0.000148055
0.000150809
0.000155036
0.00027682
0.000149587
0.000332832
0.000177913
0.00021441
0.0462165
0.00017365
0.000452589
0.0366936
0.000147131
0.0207378
0.000167763
0.000177337
0.0356299
0.000158896
0.000161286
0.000172101
0.000148415
0.0462944
0.000148215
0.000885104
0.0250371
0.000147136
0.000254437
0.000149453
0.000147245
0.000147942
0.000292698
0.00014776
0.0746282
0.000146883
0.000147048
0.00017207
0.000213701
0.000149733
0.0003615
0.000149958
0.000315113
0.000143848
0.000149915
0.000249468
0.0822371
0.000541015
0.000149082
0.000143504
0.000150458
0.0391616
0.0183014
0.00014783
0.000152038
0.00018326
0.000158928
0.0144986
0.000149629
0.000152365
0.000148077
0.000165938
0.0405629
0.000197884
0.0635444
0.0001469
0.000149674
0.000147267
0.00014849
0.000174569
0.000181658
0.0001485
0.000151358
0.00643345
0.000151775
0.000436373
0.000467907
0.000150182
0.000148709
0.0489838
0.0142
0.000148955
0.000145864
0.000148169
0.000152444
0.0289265
0.00016314
0.000148996
0.00016514
0.0304326
0.0192638
0.000183064
0.000145234
0.0248045
0.000154732
0.000243779
0.000258807
0.0303057
0.0331093
0.000172766
0.061138
0.000213517
0.000146999
0.057681
0.0178081
0.000147885
0.000200188
0.000148654
0.000145439
0.000156478
0.000173316
0.000169449
0.000149383
0.000144707
0.00126715
0.000147906
0.000148212
0.000165705
0.000193249
0.000283436
0.0170526
0.0189512
0.000145553
0.000177854
0.000147986
0.000167061
0.000151905
0.000149038
0.000164865
0.000146568
0.000146207
0.000183771
0.000145639
0.000147051
0.076778
0.000151184
0.000151777
0.000167655
0.000155422
0.0250818
0.000406004
0.0177804
0.000147554
0.000189254
0.0001812
0.000148186
0.000149077
0.000167954
0.000147247
0.000183807
0.0589314
0.0001616
0.000158255
0.00014805
0.000272006
0.000149512
0.000147096
0.00625591
0.0593317
0.000209932
0.0394051
0.0366067
0.000144785
0.000165436
0.000147312
0.000143576
0.000144698
0.0165138
0.0210035
0.00978216
0.0396989
0.000164438
0.000179187
0.00014687
0.000172491
0.000152194
0.000165021
0.0741475
0.000148178
0.000149798
0.000157701
0.000158134
0.0466506
0.000148102
0.000149448
0.000149812
0.00016158
0.000145655
0.0159602
0.000157462
0.04251
0.000147772
0.000164109
0.000207544
0.000195541
0.0534075
0.0524063
0.0208287
0.000148503
0.000213034
0.000155149
0.000147093
0.000164087
0.00896555
0.0677931
0.000170671
0.000171351
0.000148187
0.0385051
0.00014867
0.000373477
0.000164157
0.000147895
0.0104991
0.0211086
0.000147478
0.0164047
0.0002184
0.000150921
0.0202721
0.00847321
0.000567545
0.000151911
0.000144838
0.0195914
0.000148569
0.000160684
0.0315324
0.000263273
0.000148054
0.0171598
0.000147578
0.000149141
0.000170905
0.000148196
0.0201921
0.000178372
0.000149566
0.000178688
0.000145683
0.000147522
0.000148988
0.000162773
0.000227768
0.00014886
0.000183465
0.000217375
0.000186739
0.0456717
0.000177824
0.000174955
0.000202458
0.000148021
0.000147028
0.0105811
0.000163887
0.000147659
0.0199326
0.00014991
0.000259914
0.053059
0.000245275
0.0528381
0.0503642
0.000147882
0.000175276
0.00656753
0.000178814
0.0220445
0.000224043
0.00014807
0.0332888
0.000150834
0.000244033
0.0568865
0.000156945
0.000147116
0.000151536
0.0405887
0.000216183
0.000148145
0.000159007
0.0191492
0.000146402
0.0434699
0.000209844
0.000151543
0.000345521
0.0334609
0.000148539
0.000149793
0.000150611
0.000489402
0.000148506
0.000163042
0.0777672
0.0274117
0.000148109
0.01999
0.00024816
0.0577266
0.0786019
0.0663489
0.000182108
0.000200078
0.000148685
0.000147478
0.000226368
0.000145806
0.000167682
0.0243447
0.000153946
0.000179623
0.000499649
0.000152218
0.000470967
0.000149955
0.000171785
0.000164379
0.000144931
0.00036402
0.000148569
0.000148142
0.000145279
0.000145718
0.000149491
0.000210317
0.0177142
0.000155367
0.073388
0.00015077
0.000145645
0.000511672
0.000179086
0.000150064
0.000152178
0.000180646
0.000234724
0.000172898
0.000148062
0.000156275
0.000149232
0.000144841
0.000175793
0.000148178
0.000272619
0.00014779
0.0138017
0.0437428
0.000146542
0.043523
0.000182473
0.000189731
0.039035
0.00016631
0.000148522
0.000149063
0.000153005
0.000147051
0.00719006
0.000239525
0.000149903
0.000149904
0.000294964
0.000148733
0.000182859
0.000147808
0.000146955
0.0194677
0.000146179
0.000156648
0.00014732
0.00014705
0.000148479
0.000146193
0.000148774
0.000147521
0.015605
0.000181717
0.000149248
0.000147732
0.000169003
0.00661361
0.000149391
0.0418677
0.000174169
0.000164065
0.000168762
0.000146419
0.0180423
0.077578
0.000210459
0.000147371
0.000181412
0.000148752
0.000195111
0.000213599
0.000146979
0.0112933
0.000163665
0.000150024
0.023534
0.058973
0.000174873
0.0364546
0.000160315
0.000149157
0.0342218
0.000149661
0.00014818
0.000183306
0.000148797
0.000145376
0.000147722
0.000185906
0.000143629
0.0152051
0.000155531
0.000225334
0.000152042
0.0121197
0.0169823
0.0319013
0.000305143
0.000149651
0.000212242
0.000147705
0.000158779
0.000148348
0.0534104
0.0141237
0.00014621
0.000149691
0.000150971
0.000171464
0.000147157
0.000370542
0.00453008
0.000177273
0.0163493
0.000173266
0.00015584
0.000150349
0.000152232
0.000148304
0.000969239
0.000153958
0.0243369
0.000148059
0.0684379
0.00030328
0.0843746
0.000158859
0.00018295
0.014501
0.0474762
0.000148262
0.000145898
0.000196044
0.000147162
0.000149466
0.000167749
0.000146489
0.000152638
0.000148546
0.000148678
0.000148587
0.000148314
0.000151838
0.000168608
0.0836926
0.000178116
0.000176215
0.000152131
0.0234938
0.0129316
0.0367191
0.0448321
0.000167252
0.00016444
0.000152457
0.0523823
0.000147746
0.000146286
0.00025458
0.000148659
0.000144818
0.000179015
0.000146222
0.000171664
0.0284076
0.000155542
0.000149838
0.000149387
0.000148666
0.000207224
0.000148803
0.000168593
0.000167553
0.0192737
0.000147752
0.000163587
0.000153895
0.00015861
0.000150835
0.000161453
0.000149909
0.000160944
0.0184162
0.000147295
0.000406299
0.000214394
0.0481509
0.052676
0.000170502
0.068316
0.0247203
0.0499542
0.000238186
0.0048928
0.000177298
0.00027992
0.000147155
0.000212175
0.000216015
0.000712536
0.00018804
0.000150074
0.000146975
0.000174787
0.000211188
0.000149546
0.000151288
0.000170194
0.000148753
0.000148788
0.000150195
0.000182866
0.000163542
0.000145798
0.000520526
0.0321125
0.000147974
0.000161227
0.000174968
0.000145707
0.031051
0.000168972
0.000163868
0.000522906
0.0852714
0.000163584
0.0495054
0.0422494
0.0220763
0.0766935
0.00014798
0.000145842
0.0163136
0.0104306
0.000151793
0.0231822
0.000148469
0.000147191
0.000148296
0.000149953
0.000151179
0.00014824
0.00017394
0.000163523
0.000206903
0.000181335
0.000157778
0.000560581
0.0428312
0.0648004
0.000161245
0.000275044
0.00015176
0.0692296
0.000145255
0.000705934
0.0208017
0.000174026
0.000215992
0.00580715
0.00108629
0.000163656
0.000163974
0.000161433
0.000148218
0.000230218
0.000601823
0.000179024
0.000144228
0.000147987
0.000158554
0.0159119
0.000225136
0.000155043
0.000197009
0.0755226
0.000160642
0.0347756
0.000163228
0.000143682
0.000147834
0.0829427
0.000188412
0.0842248
0.000151238
0.000148063
0.000147395
0.000945757
0.000156242
0.00014834
0.000197206
0.0374825
0.000151005
0.000206647
0.000276825
0.000151532
0.000223201
0.000145896
0.000147582
0.000182877
0.000146919
0.000169277
0.000149007
0.000149051
0.0295178
0.000148288
0.000160666
0.00714221
0.000148397
0.000180877
0.000153674
0.000171331
0.0369345
0.0413345
0.000334185
0.00020914
0.00020886
0.0697011
0.000185065
0.000145908
0.000169146
0.000146996
0.000148995
0.0670379
0.000147694
0.02286
0.000183855
0.000147157
0.0216419
0.00777243
0.000152792
0.0600856
0.000149102
0.0367385
0.084745
0.000148379
0.000149038
0.000172403
0.000148586
0.000259439
0.0834392
0.000149029
0.000157015
0.000158099
0.0485301
0.000149911
0.0311944
0.011193
0.000147678
0.000173399
0.0464462
0.0258708
0.000147066
0.0166717
0.000149792
0.020706
0.000164629
0.000148072
0.062782
0.000148718
0.0490796
0.000150514
0.0432756
0.000150534
0.000199876
0.000215419
0.000157562
0.000364283
0.0178506
0.00810958
0.0596861
0.0560888
0.000151232
0.000206488
0.000151008
0.000149817
0.000147054
0.000147006
0.000148069
0.00755079
0.000146127
0.0783043
0.000147049
0.0506752
0.000145886
0.000148219
0.000147054
0.000150928
0.0462989
0.000172241
0.0213979
0.000149097
0.0281832
0.0412656
0.000147901
0.000148376
0.000148206
0.00017007
0.0420406
0.000168893
0.000149831
0.0505261
0.000148102
0.000180605
0.000179805
0.0204904
0.000163645
0.000150921
0.000146829
0.000207172
0.000196918
0.000163434
0.0461249
0.000147867
0.000243671
0.000145628
0.019663
0.0774568
0.000149012
0.0416013
0.000147774
0.000147773
0.00014582
0.000148298
0.0634991
0.00354159
0.017187
0.0477201
0.000161682
0.000172183
0.000169924
0.0478181
0.000145671
0.000148542
0.0514476
0.0367176
0.000171672
0.000165467
0.000185755
0.000327444
0.0647384
0.000184369
0.000149818
0.000152244
0.0198903
0.000268187
0.000167275
0.0756921
0.000147775
0.000145823
0.000150945
0.000159883
0.000160652
0.023453
0.000146585
0.000147096
0.000145315
0.000436048
0.000146741
0.000662518
0.000149905
0.000166591
0.0143555
0.000149906
0.000198651
0.000149076
0.000151932
0.000152882
0.000174854
0.000198162
0.00122795
0.000190285
0.000143934
0.000145646
0.000181666
0.0694766
0.0357849
0.000155529
0.00021337
0.020654
0.000639651
0.000149148
0.0767169
0.000427632
0.000188637
0.000162438
0.0231473
0.000149867
0.000180971
0.000148868
0.000332056
0.0177163
0.000150007
0.000143683
0.000165469
0.0185528
0.0513451
0.000148073
0.0424383
0.000190129
0.0491635
0.000293595
0.000157378
0.000212051
0.000166468
0.000151305
0.000145826
0.000394214
0.00243056
0.000202979
0.0213506
0.0873516
0.0512363
0.0294371
0.0442947
0.000147397
0.0374747
0.000158841
0.000148016
0.00015781
0.000153775
0.038239
0.000149821
0.000148153
0.000214192
0.000183691
0.000148296
0.00240617
0.0473911
0.0195356
0.000158696
0.000186524
0.000147291
0.000149533
0.0795749
0.000212121
0.000146608
0.0195632
0.000145998
0.000148649
0.0084279
0.000149913
0.000182553
0.000144075
0.000228628
0.0292277
0.000145353
0.000158645
0.0849359
0.000148412
0.00869331
0.000148623
0.0204894
0.000147616
0.000176782
0.000163156
0.0467786
0.00014806
0.00023389
0.000282665
0.000146614
0.000148884
0.000146262
0.000146047
0.0174906
0.0461044
0.000189464
0.0148768
0.000188221
0.000148078
0.000174219
0.000155885
0.000146536
0.000147849
0.000169629
0.044068
0.0567627
0.00017294
0.000210738
0.00021008
0.000145666
0.000148459
0.000150294
0.000253281
0.00014414
0.0088632
0.0520471
0.000196022
0.000148236
0.047529
0.000149785
0.000266242
0.000207762
0.0001481
0.000148816
0.000155885
0.0392089
0.000147051
0.000282912
0.000146622
0.083856
0.000146119
0.00696236
0.000156324
0.000159101
0.0340568
0.000146751
0.000252409
0.000148509
0.000147263
0.0161823
0.000195882
0.0495617
0.000145535
0.000149385
0.000149186
0.00020908
0.000179096
0.000167238
0.000151157
0.000155195
0.000145926
0.0321778
0.000160752
0.0809122
0.00993582
0.0651537
0.00015716
0.000144961
0.000149821
0.00915904
0.058322
0.000147423
0.000147341
0.000192905
0.000179475
0.0413271