/*--------------------------------*- C++ -*----------------------------------*\
| =========                 |                                                 |
| \\      /  F ield         | OpenFOAM: The Open Source CFD Toolbox           |
|  \\    /   O peration     | Version:  v2012                                 |
|   \\  /    A nd           | Website:  www.openfoam.com                      |
|    \\/     M anipulation  |                                                 |
\*---------------------------------------------------------------------------*/
FoamFile
{
    version     2.0;
    format      ascii;
    class       volScalarField;
    location    "300";
    object      k_0;
}
// * * * * * * * * * * * * * * * * * * * * * * * * * * * * * * * * * * * * * //

dimensions      [0 2 -2 0 0 0 0];


internalField   nonuniform List<scalar> 
27802
(
0.00015075
0.00014994
0.000151229
0.000161882
0.000147354
0.00106486
0.000147346
0.000185883
0.000146471
0.000289477
0.060914
0.000249169
0.000160938
0.000175018
0.0824608
0.00727552
0.0595148
0.00014654
0.0628386
0.0233602
0.082375
0.0830165
0.000145533
0.000190701
0.000221067
0.000160898
0.000147076
0.00016853
0.000147055
0.00363672
0.000190722
0.000174744
0.000150574
0.000144271
0.000149246
0.00664419
0.0116441
0.000145911
0.000147418
0.00611721
0.00023807
0.000149305
0.000158634
0.00014415
0.00015861
0.0248474
0.000148248
0.0119598
0.000485793
0.0416936
0.0792057
0.000161139
0.0293826
0.000426445
0.000147177
0.000148961
0.000215252
0.00014784
0.000156811
0.000187701
0.0176746
0.000151176
0.000158587
0.000144763
0.000144253
0.000148596
0.0246037
0.000215172
0.000187797
0.00014822
0.000144095
0.0629211
0.0736512
0.000210905
0.000152637
0.000154051
0.0237053
0.0127544
0.0207056
0.00849549
0.000147798
0.000146815
0.000165066
0.000151468
0.000148648
0.000165909
0.000149595
0.0441071
0.0193137
0.000148317
0.000147676
0.0182595
0.000146257
0.00399613
0.0708657
0.000171128
0.000146797
0.00017011
0.000148082
0.00406166
0.000147455
0.000146173
0.000505885
0.0149651
0.07345
0.000158927
0.000148176
0.00014422
0.00014703
0.000158302
0.00617385
0.000147711
0.000144304
0.000148077
0.000148219
0.000144722
0.000157683
0.000191364
0.0379905
0.000215802
0.0215699
0.000186662
0.0425928
0.000191572
0.0588069
0.000178085
0.000150174
0.000155823
0.0627773
0.000144433
0.000192779
0.000173517
0.00014919
0.0126103
0.0117169
0.000152959
0.000167361
0.000176449
0.000148025
0.000149108
0.000173332
0.000321262
0.000158805
0.000161861
0.000145917
0.0309796
0.000158148
0.000169233
0.000148077
0.00162953
0.000161812
0.00301727
0.000158605
0.0509824
0.000149713
0.00937886
0.000152557
0.000171614
0.000144511
0.000149017
0.000144727
0.000148561
0.0900896
0.00014609
0.000149587
0.000149762
0.0725816
0.000147122
0.000149029
0.000150028
0.000174266
0.0258262
0.0620156
0.0158524
0.000147096
0.000216102
0.0111537
0.0568533
0.000144697
0.000148146
0.000238763
0.0459627
0.0196289
0.0493822
0.000144604
0.000188588
0.0722955
0.000704245
0.000209189
0.000520323
0.0844527
0.000149942
0.000150743
0.000297478
0.000146928
0.0041252
0.00585579
0.0769225
0.000313799
0.0454183
0.000173148
0.000149066
0.000150258
0.000157719
0.0852902
0.000177885
0.000147134
0.000146591
0.00365402
0.000146991
0.000148033
0.0498343
0.000161894
0.0318987
0.000144404
0.000147037
0.000191797
0.000149602
0.00014769
0.000149903
0.071337
0.000147323
0.000148297
0.00022154
0.000148959
0.000219883
0.000150105
0.000169709
0.000143909
0.0001489
0.000148073
0.000162466
0.000213193
0.000149278
0.000149952
0.0190513
0.000167591
0.000169258
0.00015012
0.00049827
0.0209289
0.0465031
0.045488
0.0577078
0.0741374
0.000152134
0.000147277
0.0156251
0.000144572
0.000148985
0.000204986
0.000147337
0.000205409
0.000149823
0.0418065
0.0590805
0.000157205
0.000181759
0.000148449
0.000152705
0.000147203
0.0237496
0.0409439
0.000207757
0.000148253
0.000147321
0.000149448
0.000197214
0.0594578
0.000173933
0.0123021
0.000158396
0.071014
0.000146049
0.000147321
0.000149244
0.000172896
0.000148507
0.000147271
0.0580468
0.000149625
0.000167148
0.000250194
0.000210826
0.0670316
0.000155591
0.0503468
0.000146062
0.00018924
0.0470902
0.000254893
0.0168942
0.025457
0.000157092
0.000143851
0.000148525
0.000149745
0.00698863
0.00348709
0.000186608
0.0235619
0.000164817
0.0432934
0.00185868
0.0457685
0.000148542
0.00019371
0.000148195
0.0468382
0.000146456
0.0408271
0.000201364
0.035604
0.000147817
0.0343751
0.071001
0.00018339
0.000146881
0.00016824
0.0301388
0.000146439
0.00015218
0.000199769
0.0433081
0.0200761
0.000146288
0.000164641
0.000168173
0.0427985
0.000147155
0.0473203
0.00014617
0.000149027
0.000200893
0.000246948
0.000150018
0.000147761
0.000148285
0.000200357
0.000154143
0.000147643
0.000266717
0.000147682
0.000240394
0.0175257
0.007123
0.000153395
0.00014701
0.000152097
0.000146538
0.000188074
0.000186712
0.000146705
0.000181967
0.000148669
0.000146881
0.000150179
0.000147699
0.0245129
0.000145899
0.000219977
0.000350763
0.0779549
0.000144048
0.0001478
0.000147926
0.0503001
0.00014608
0.000208196
0.000143762
0.000213288
0.000180195
0.0102282
0.00015211
0.000149924
0.000148497
0.000173116
0.000147771
0.000211791
0.000152871
0.000157908
0.000149075
0.000148342
0.000149902
0.000148079
0.00831906
0.000174275
0.000190372
0.0335667
0.000259744
0.000147692
0.000445756
0.000148604
0.000147785
0.000168566
0.000151545
0.000149059
0.0504011
0.000650327
0.0301107
0.000182772
0.0817306
0.000148304
0.000148539
0.000209085
0.0377643
0.000148513
0.000154327
0.000192681
0.000155261
0.000147173
0.000159896
0.0234397
0.0727706
0.0135843
0.0193803
0.000147226
0.0888878
0.000146171
0.000281081
0.000160086
0.0203078
0.000149952
0.000147341
0.000155845
0.000151897
0.000161566
0.000147706
0.000147708
0.000167569
0.000148008
0.00014855
0.000217664
0.0360283
0.000180192
0.0347821
0.000186105
0.000172127
0.000204437
0.00014773
0.000159695
0.0259211
0.000153413
0.000147795
0.000160329
0.000155411
0.000163913
0.000150586
0.000148063
0.000147253
0.0248087
0.041894
0.000150567
0.000146899
0.0789784
0.000149051
0.0283347
0.00014901
0.000148656
0.000153249
0.000397436
0.000148297
0.000143713
0.0629322
0.000148157
0.000176153
0.0351087
0.000174603
0.00014789
0.0232074
0.000242231
0.000172312
0.0247001
0.000688206
0.000151339
0.000162382
0.000144695
0.000478295
0.000148545
0.000172794
0.000147697
0.000159368
0.00677106
0.0590364
0.000146947
0.000148119
0.000164394
0.000149483
0.00014846
0.000147241
0.000145919
0.00019105
0.000163943
0.000590434
0.00559143
0.000145515
0.000174953
0.0351469
0.000154659
0.000150972
0.000144063
0.000149622
0.0350888
0.000220349
0.00016435
0.0324486
0.049408
0.000147874
0.029216
0.000145785
0.000299915
0.000160621
0.000147204
0.000152609
0.000147406
0.000155758
0.00376189
0.0281857
0.000154866
0.025962
0.055656
0.000209434
0.000147874
0.000147899
0.0165955
0.000164951
0.00014973
0.000171535
0.000158394
0.00808873
0.000187233
0.0462669
0.000154723
0.000148489
0.000626138
0.000147908
0.000148151
0.000152047
0.0467308
0.000146782
0.0373029
0.000152779
0.000273068
0.000176095
0.0213833
0.000144398
0.000147857
0.0324954
0.000177908
0.000148248
0.000175175
0.000151483
0.000147657
0.000146741
0.0308383
0.000175568
0.000322655
0.018506
0.000278709
0.00014703
0.0614428
0.000164668
0.000147808
0.000173307
0.0226259
0.000147792
0.000148734
0.000146935
0.0514592
0.000147812
0.000144682
0.000145576
0.000148226
0.000209402
0.000147593
0.0165028
0.00017167
0.000147692
0.000191367
0.000176002
0.0374165
0.0435524
0.0192859
0.000148198
0.000145402
0.000145696
0.0779621
0.000145947
0.0424984
0.000373195
0.000166863
0.0224971
0.0164538
0.000149221
0.000148055
0.0269821
0.000196618
0.000146475
0.000149217
0.0761072
0.000209608
0.0664227
0.032316
0.000266547
0.000152024
0.000253489
0.00312865
0.000147773
0.0777942
0.0595743
0.00017607
0.000582136
0.0641993
0.000152121
0.000172488
0.000147223
0.000166903
0.000146527
0.000159404
0.000159073
0.000168356
0.0202803
0.000196138
0.0381994
0.000153008
0.018825
0.000149766
0.000150949
0.00015943
0.000170737
0.000147918
0.000172168
0.000149838
0.000176117
0.000166067
0.000147081
0.000147972
0.000163425
0.000172438
0.000180153
0.000277888
0.000154001
0.0527934
0.00984397
0.000378409
0.000147656
0.000162479
0.000256431
0.039509
0.000153936
0.000146828
0.000273194
0.000197567
0.000147732
0.000276
0.000149766
0.000336573
0.000268077
0.00014974
0.000147219
0.000195702
0.000259506
0.0001537
0.000159614
0.0136296
0.000149815
0.000151081
0.0206171
0.000150696
0.00018398
0.000147407
0.000145526
0.000147128
0.0241688
0.000165946
0.000149004
0.0173822
0.000147025
0.000160384
0.0403207
0.000149354
0.0396856
0.00016881
0.000146752
0.000150716
0.000145414
0.0139947
0.0385934
0.0297543
0.00014846
0.0328343
0.0374835
0.000145421
0.0748548
0.000164479
0.000149801
0.000146125
0.000148492
0.000153774
0.0090435
0.000146557
0.000149807
0.000167661
0.0265136
0.000149009
0.0159971
0.0436756
0.0774424
0.000145517
0.00015242
0.00014985
0.000151701
0.000189279
0.000147313
0.000151079
0.000149835
0.000155257
0.000154279
0.0460573
0.000227569
0.000731069
0.00015784
0.000162604
0.000170163
0.000147752
0.000146303
0.000147694
0.000184661
0.000167123
0.0513478
0.0364543
0.0738721
0.000146514
0.0133141
0.000146887
0.000149024
0.00048652
0.000147389
0.00502902
0.0168901
0.00820375
0.0106143
0.013996
0.000147849
0.000164593
0.000263907
0.000165467
0.0243306
0.000173634
0.000146347
0.0404355
0.00014807
0.0373865
0.0252617
0.000149139
0.000145155
0.0402985
0.000146214
0.000149452
0.0201245
0.000257451
0.00679704
0.0436097
0.000147845
0.000159472
0.000150395
0.000164011
0.000146279
0.0215763
0.000169232
0.000147696
0.0345891
0.0385943
0.000213203
0.000166424
0.000147993
0.000148214
0.00193663
0.000166736
0.000153035
0.00021412
0.0246504
0.000179887
0.00014995
0.000148225
0.000174665
0.000147731
0.0641261
0.00019918
0.000789208
0.000151029
0.000496668
0.000147724
0.0538004
0.000164253
0.0745776
0.00016281
0.0340657
0.000150991
0.000163053
0.0193593
0.000152938
0.000172479
0.000630025
0.000151036
0.000197245
0.000181203
0.0699856
0.00015611
0.000145982
0.0366715
0.00014896
0.000148546
0.00018703
0.00861264
0.000208015
0.00764991
0.00015848
0.000148967
0.0331415
0.000378434
0.000149421
0.0476121
0.000184383
0.04147
0.000146737
0.000150752
0.00017521
0.000147703
0.00016363
0.000146855
0.000160216
0.0263479
0.083302
0.0001526
0.000162859
0.000413299
0.000149077
0.000147396
0.000147265
0.000183538
0.000421824
0.000149809
0.000148006
0.000164477
0.000169208
0.0791205
0.000160128
0.000178233
0.000263723
0.0427302
0.000149005
0.0523066
0.0177128
0.000161866
0.0365731
0.000147718
0.000152751
0.000579126
0.000146928
0.0724729
0.0018421
0.0315055
0.000157187
0.0212549
0.000155739
0.0686369
0.000147834
0.0342382
0.000177949
0.0138378
0.000157822
0.000148054
0.000153515
0.000146975
0.0132531
0.000218121
0.000175757
0.000198114
0.000182297
0.000155494
0.000418719
0.000182426
0.00020598
0.000276702
0.000162206
0.000186762
0.0126208
0.000148059
0.000149679
0.000165028
0.00016031
0.0137076
0.000160608
0.000145931
0.000214923
0.000148064
0.000150736
0.000148585
0.000149544
0.000149674
0.000151778
0.00014959
0.000170725
0.000147077
0.000158565
0.0426919
0.000481175
0.000148682
0.00014808
0.00616673
0.000148518
0.000197486
0.000145831
0.000198099
0.00018299
0.0372475
0.000167611
0.000147739
0.000149287
0.000162827
0.000175798
0.00014981
0.000237149
0.000149899
0.000173209
0.000149015
0.000149375
0.022265
0.00332779
0.000145767
0.000305477
0.000216435
0.000174215
0.000156743
0.000147544
0.0161453
0.000151929
0.0802378
0.000151295
0.000163587
0.000148231
0.000149711
0.000149539
0.033168
0.0824293
0.00222239
0.0215888
0.0122105
0.0349525
0.000145722
0.000147697
0.000203377
0.0232037
0.0161574
0.000170861
0.000149886
0.000145579
0.0265012
0.000176957
0.0427978
0.00014773
0.031587
0.000159853
0.000178604
0.000146892
0.000175662
0.000163981
0.000145405
0.000146651
0.00016492
0.000163119
0.000147732
0.000152106
0.000198262
0.000175192
0.000147307
0.000199588
0.00795588
0.0369508
0.000179249
0.049504
0.0214744
0.000156796
0.000148025
0.000227076
0.000169456
0.000149652
0.0237213
0.0288195
0.000527097
0.000289604
0.000213023
0.000239403
0.000148126
0.0213156
0.048924
0.000168119
0.000158622
0.000145883
0.000148766
0.000213141
0.000152654
0.000149426
0.000148968
0.000172216
0.000148403
0.000146375
0.000148692
0.000151068
0.0190436
0.000152031
0.0164276
0.000150296
0.0118994
0.000186165
0.000147295
0.000180621
0.000146613
0.000284902
0.0240978
0.00019735
0.0337226
0.000211968
0.000145826
0.000157218
0.000144398
0.000158566
0.010025
0.0100815
0.0814548
0.000149812
0.000145565
0.000151707
0.000270762
0.00014824
0.000149026
0.00016862
0.000150077
0.000169509
0.000169998
0.000146506
0.000145471
0.000147748
0.000529318
0.000149965
0.000148121
0.00017277
0.000499296
0.000147775
0.000145903
0.0500622
0.000148108
0.000146288
0.000304497
0.00015758
0.00014747
0.000149845
0.000188347
0.000149662
0.000148687
0.00014781
0.000148771
0.0564543
0.021931
0.000147847
0.0742678
0.000147891
0.0404388
0.0400348
0.000149279
0.0589343
0.00996294
0.000157511
0.000147157
0.000146082
0.0340546
0.000192031
0.0786221
0.00207629
0.0001498
0.000202579
0.00014856
0.000431449
0.000161358
0.0138755
0.000149951
0.000354038
0.0784488
0.000201976
0.000148582
0.030349
0.000282583
0.000148475
0.000178135
0.000146818
0.000149043
0.000148595
0.000148055
0.000156092
0.0258734
0.0230011
0.00014783
0.000148236
0.00516127
0.00015207
0.00015264
0.00014796
0.000148761
0.0750804
0.000147208
0.000147956
0.000157464
0.0778352
0.000155701
0.000147669
0.0382466
0.000146993
0.000151273
0.00018265
0.000151943
0.000151291
0.0646819
0.000169469
0.0320519
0.000158703
0.000156541
0.000149221
0.000164187
0.020707
0.000167527
0.000486973
0.0345963
0.0331105
0.000185235
0.000147812
0.000149924
0.000147712
0.0293219
0.0603304
0.000150853
0.000207122
0.000145263
0.080292
0.000148234
0.000147877
0.0411696
0.00016806
0.0146404
0.000146918
0.0427489
0.049935
0.000147798
0.000222229
0.000149824
0.000169598
0.000144103
0.00015192
0.000164476
0.000170918
0.000147281
0.000162476
0.0198847
0.000145515
0.079867
0.000151662
0.000156522
0.000242637
0.000150848
0.0723877
0.000151809
0.000146849
0.000224089
0.000151375
0.000148908
0.000218103
0.000147107
0.000145753
0.0167799
0.000147179
0.000145606
0.000159642
0.0426306
0.000145105
0.000149834
0.000146063
0.000149226
0.000148721
0.000169398
0.077718
0.00020887
0.000179518
0.000147086
0.000145873
0.0252756
0.0440766
0.0760302
0.000146156
0.0095692
0.000192201
0.00871794
0.000187792
0.0441577
0.000162261
0.000245141
0.000228222
0.000185338
0.000145686
0.000150247
0.000172762
0.00014508
0.000171019
0.000157021
0.023509
0.00790844
0.000158766
0.000164072
0.000148798
0.00693776
0.0766679
0.000207218
0.000171989
0.000187108
0.000148606
0.000150738
0.0318308
0.0325703
0.000164071
0.000151616
0.000145887
0.000148643
0.000158169
0.000145507
0.00016357
0.000148
0.00014966
0.0173199
0.0216488
0.000148978
0.0352385
0.00014954
0.000151163
0.0199954
0.00016099
0.000147011
0.000148058
0.0196641
0.000146958
0.000150198
0.000146099
0.0743761
0.000193003
0.0774729
0.0823481
0.0179997
0.000178174
0.000147938
0.000149159
0.0508173
0.00517465
0.0265634
0.000197978
0.000148995
0.0230564
0.000182082
0.000237871
0.000150825
0.000162414
0.000148055
0.00249663
0.0452641
0.08045
0.000277563
0.000145362
0.000166003
0.0179231
0.04694
0.00014801
0.000163539
0.000772298
0.000189993
0.000195111
0.000785681
0.000148042
0.000209566
0.0161448
0.0172162
0.000195503
0.000144131
0.0133386
0.000484338
0.0118231
0.000169676
0.000148619
0.0509924
0.000155637
0.000148206
0.000149547
0.0244968
0.000161859
0.00014943
0.000149076
0.000197317
0.000220247
0.00015745
0.000161172
0.0573913
0.000147311
0.000147355
0.000184428
0.000152884
0.000147685
0.000147717
0.000147909
0.000148732
0.00747802
0.0346219
0.000162816
0.00031144
0.000161624
0.000287199
0.00014744
0.000502564
0.000147264
0.0731316
0.0169414
0.000145677
0.0278674
0.0181898
0.000148562
0.000172211
0.0812385
0.0191671
0.000149761
0.0207232
0.015697
0.0528961
0.000148088
0.000149018
0.0197752
0.000359078
0.000188255
0.0409268
0.000191259
0.0455895
0.000148204
0.000152075
0.0218248
0.000149079
0.00014572
0.000149558
0.000482679
0.000148062
0.00120276
0.000174271
0.000148078
0.000148069
0.000149032
0.000178916
0.075072
0.000161031
0.000148538
0.000148876
0.0082466
0.000168123
0.0499577
0.000318491
0.0369158
0.000173814
0.000172012
0.000173287
0.000256613
0.000179642
0.0446961
0.000164576
0.000147175
0.000154363
0.000220406
0.000159082
0.000149648
0.000199618
0.000183999
0.000147218
0.000240503
0.000163728
0.00014939
0.000152365
0.000150484
0.000181825
0.00014809
0.000147445
0.00014524
0.000282177
0.019054
0.0213321
0.0409963
0.0554591
0.000145904
0.0778083
0.000147965
0.000148517
0.000148052
0.0789893
0.000146419
0.000151252
0.000148071
0.000149172
0.000147441
0.000147986
0.000206518
0.0179651
0.000153761
0.000146983
0.047118
0.000154772
0.000210319
0.000146439
0.0251381
0.000149911
0.000148613
0.0828568
0.000158653
0.000148219
0.0814042
0.0708694
0.000201127
0.000149914
0.000159023
0.000172792
0.000234765
0.000147766
0.000149085
0.0281709
0.0638754
0.0241424
0.000148664
0.00014808
0.0830253
0.0226122
0.000218817
0.000148086
0.0332693
0.000198083
0.000148038
0.000149189
0.000148061
0.0663827
0.000182524
0.027598
0.020851
0.000147712
0.000146532
0.0594908
0.0513139
0.00019255
0.000145898
0.0736068
0.013077
0.000150133
0.000148301
0.000209193
0.000294336
0.000150484
0.000148201
0.0331158
0.000147947
0.000146746
0.000148086
0.000245301
0.0761309
0.000147397
0.000147416
0.0315231
0.000147238
0.000148088
0.000235236
0.0303706
0.0322307
0.0743998
0.000149679
0.000147688
0.000151548
0.000205414
0.000184075
0.000210308
0.0415026
0.000151381
0.000148982
0.0574469
0.000148102
0.000155359
0.0123187
0.000146769
0.000147843
0.0161476
0.000240373
0.00014871
0.015478
0.000149773
0.000149825
0.000153826
0.0289532
0.000147684
0.000149647
0.000144138
0.000161146
0.000220985
0.000217735
0.000170355
0.000149809
0.000151171
0.000148675
0.000552481
0.0417075
0.000146137
0.000673572
0.000164941
0.000158594
0.000191393
0.000149677
0.000198374
0.000463167
0.000145665
0.000315149
0.000147825
0.000149579
0.000152493
0.000147711
0.000144231
0.000208736
0.000149955
0.0183602
0.000183309
0.000147638
0.000147537
0.000587633
0.000148698
0.000148067
0.00014393
0.000149898
0.000183854
0.000151486
0.000220108
0.000265793
0.000145681
0.000157327
0.0570078
0.000171156
0.0397638
0.0129088
0.000147495
0.0334251
0.0713776
0.000143994
0.0172743
0.000147989
0.0800053
0.0541133
0.000166351
0.00678123
0.0309458
0.000152425
0.000149292
0.0283101
0.000149026
0.000174046
0.0742168
0.065494
0.000163307
0.000146969
0.000210195
0.0001736
0.000148622
0.00014911
0.000149201
0.000166723
0.000176715
0.0364375
0.000192852
0.000146925
0.00880419
0.000150161
0.0340218
0.000215247
0.0209095
0.000146646
0.0459132
0.000147035
0.000173912
0.0203409
0.0433248
0.000209335
0.0452793
0.000197183
0.000143872
0.000149001
0.000146593
0.00914777
0.0362444
0.000180511
0.000149031
0.000148055
0.000150809
0.000155036
0.000282684
0.000149587
0.000331419
0.000177912
0.000214481
0.0462135
0.000173654
0.000450038
0.0366947
0.000147131
0.0207378
0.000167753
0.000177337
0.0356282
0.000158896
0.000161286
0.000172125
0.000148415
0.0462912
0.000148215
0.000898328
0.025038
0.000147136
0.000254784
0.000149453
0.000147245
0.000147942
0.000290057
0.00014776
0.0746283
0.000146883
0.000147048
0.00017207
0.000213715
0.000149733
0.000360789
0.000149958
0.000316731
0.000143848
0.000149915
0.000249932
0.0822391
0.000537999
0.000149082
0.000143504
0.000150458
0.0391621
0.0183003
0.00014783
0.000152038
0.00018318
0.000158928
0.0144999
0.000149629
0.000152365
0.000148077
0.000165938
0.040562
0.000197889
0.0635412
0.0001469
0.000149674
0.000147267
0.00014849
0.000174599
0.000181668
0.0001485
0.000151358
0.00643352
0.000151775
0.000436362
0.000469439
0.000150181
0.000148709
0.0489674
0.0141987
0.000148955
0.000145864
0.000148169
0.000152444
0.0289253
0.000163143
0.000148996
0.000165121
0.030433
0.0192651
0.000183057
0.000145234
0.0248041
0.000154732
0.000244027
0.000258792
0.0303066
0.0331089
0.000172761
0.0611359
0.000213526
0.000146999
0.0576803
0.017808
0.000147885
0.000200193
0.000148654
0.00014544
0.000156478
0.000173302
0.000169449
0.000149383
0.000144707
0.00128879
0.000147906
0.000148212
0.000165705
0.000193244
0.000285613
0.0170524
0.0189513
0.000145553
0.000177854
0.000147986
0.000167045
0.000151905
0.000149038
0.000164865
0.000146568
0.000146207
0.000183763
0.000145639
0.000147051
0.0767736
0.000151184
0.000151777
0.000167638
0.000155422
0.0250814
0.000406004
0.0177792
0.000147554
0.000189255
0.000181201
0.000148186
0.000149077
0.000167965
0.000147247
0.000183801
0.0589432
0.000161601
0.000158255
0.00014805
0.000272057
0.000149512
0.000147096
0.00625634
0.0593313
0.000209927
0.0393882
0.0366064
0.000144785
0.000165436
0.000147312
0.000143576
0.000144698
0.0165123
0.0210014
0.0097705
0.0396998
0.000164438
0.000179187
0.00014687
0.000172491
0.000152194
0.000165024
0.0741497
0.000148178
0.000149798
0.000157702
0.000158134
0.0466347
0.000148102
0.000149449
0.000149812
0.00016158
0.000145655
0.0159617
0.000157462
0.0425107
0.000147772
0.000164105
0.000207547
0.000195541
0.0534064
0.0523914
0.0208276
0.000148503
0.000213036
0.000155149
0.000147093
0.000164087
0.00896629
0.0677943
0.000170671
0.00017135
0.000148187
0.0384922
0.00014867
0.00037348
0.000164157
0.000147895
0.0105005
0.0211071
0.000147478
0.0164034
0.000218411
0.000150921
0.0202734
0.00847327
0.000580388
0.000151911
0.000144838
0.019593
0.000148569
0.000160684
0.0315337
0.00026276
0.000148054
0.0171613
0.000147578
0.000149141
0.000170905
0.000148196
0.0201903
0.000178371
0.000149566
0.00017869
0.000145683
0.000147521
0.000148988
0.000162773
0.000227861
0.00014886
0.000183452
0.000217389
0.000186737
0.0456687
0.000177824
0.000174955
0.000202466
0.000148021
0.000147028
0.0105813
0.000163884
0.000147659
0.0199318
0.00014991
0.000261524
0.0530568
0.000245469
0.0528325
0.0503569
0.000147882
0.000175276
0.00655819
0.000178814
0.0220431
0.000224044
0.00014807
0.0332855
0.000150834
0.000243957
0.0568866
0.000156945
0.000147116
0.000151537
0.0405736
0.000216194
0.000148145
0.000159007
0.0191493
0.000146402
0.0434697
0.000209839
0.000151543
0.000345519
0.0334613
0.000148539
0.000149793
0.000150611
0.000489401
0.000148506
0.000163042
0.077769
0.0275857
0.000148109
0.0199907
0.00024663
0.0576922
0.0786015
0.0663525
0.000182098
0.000200083
0.000148685
0.000147478
0.000226452
0.000145806
0.000167661
0.0243435
0.000153946
0.000179623
0.000499652
0.000152218
0.000475318
0.000149955
0.000171805
0.000164379
0.000144931
0.000364918
0.000148569
0.000148142
0.000145279
0.000145718
0.000149491
0.000210329
0.0177145
0.000155367
0.073383
0.00015077
0.000145645
0.000511674
0.000179086
0.000150064
0.000152178
0.000180632
0.000234727
0.000172898
0.000148062
0.000156274
0.000149232
0.000144841
0.000175793
0.000148178
0.000267585
0.00014779
0.0138005
0.0437326
0.000146542
0.0435243
0.00018253
0.000189728
0.0390166
0.000166309
0.000148522
0.000149063
0.000153005
0.000147051
0.00718943
0.0002394
0.000149903
0.000149904
0.00029485
0.000148733
0.000182859
0.000147808
0.000146955
0.0194665
0.000146179
0.000156648
0.00014732
0.00014705
0.000148479
0.000146193
0.000148774
0.000147521
0.0156042
0.000181717
0.000149248
0.000147731
0.000169004
0.00660247
0.000149391
0.0418691
0.000174165
0.000164066
0.000168776
0.000146419
0.0180412
0.0775756
0.000210446
0.000147371
0.000181358
0.000148752
0.00019511
0.000213648
0.000146979
0.0112923
0.000163658
0.000150024
0.023535
0.0589679
0.000174913
0.0364544
0.000160314
0.000149157
0.0342233
0.000149661
0.00014818
0.000183305
0.000148797
0.000145376
0.000147722
0.000185908
0.000143629
0.0152039
0.000155531
0.000225336
0.000152042
0.012119
0.0169841
0.0319022
0.000297388
0.000149651
0.000212197
0.000147705
0.000158778
0.000148348
0.0534041
0.0141251
0.00014621
0.000149691
0.000150971
0.000171469
0.000147157
0.000361322
0.00514165
0.000177272
0.0163502
0.000173226
0.000155841
0.000150349
0.000152232
0.000148304
0.000979288
0.000153958
0.0243357
0.000148059
0.0684378
0.000302257
0.084373
0.000158859
0.000182998
0.0145009
0.0474753
0.000148262
0.000145898
0.000196043
0.000147162
0.000149466
0.000167782
0.000146489
0.000152637
0.000148546
0.000148678
0.000148586
0.000148314
0.000151838
0.000168608
0.0836903
0.000178116
0.000176215
0.000152131
0.0234947
0.0129317
0.0367189
0.0448309
0.000167252
0.00016444
0.000152457
0.0523691
0.000147746
0.000146286
0.000254893
0.000148659
0.000144818
0.000179013
0.000146222
0.000171671
0.0284053
0.000155542
0.000149838
0.000149387
0.000148666
0.000207231
0.000148803
0.000168593
0.000167525
0.0192735
0.000147752
0.000163585
0.000153896
0.00015861
0.000150835
0.000161455
0.000149909
0.000160942
0.0184165
0.000147295
0.000406298
0.000214454
0.0481499
0.0526737
0.000170503
0.0683164
0.0247213
0.0499494
0.000238304
0.00489288
0.000177298
0.000279178
0.000147155
0.000212183
0.000216025
0.000745045
0.000188038
0.000150073
0.000146975
0.000174749
0.000211119
0.000149546
0.000151288
0.000170194
0.000148753
0.000148787
0.000150195
0.00018292
0.000163542
0.000145798
0.000520528
0.031463
0.000147974
0.000161227
0.000174967
0.000145707
0.0310497
0.000168977
0.000163872
0.000522901
0.085269
0.000163577
0.0495044
0.0422481
0.022076
0.0766919
0.00014798
0.000145842
0.0163364
0.0104176
0.000151793
0.0231804
0.00014847
0.000147191
0.000148296
0.000149953
0.000151179
0.00014824
0.000173935
0.000163526
0.000206891
0.00018129
0.000157779
0.000560581
0.0428304
0.0647955
0.000161245
0.000271971
0.000151761
0.0692278
0.000145255
0.000713744
0.0208016
0.00017404
0.000216001
0.00580725
0.00110951
0.000163648
0.000163979
0.00016143
0.000148218
0.000230223
0.000599549
0.000179012
0.000144228
0.000147987
0.000158554
0.0159124
0.000225159
0.000155043
0.000197012
0.0755221
0.000160641
0.0347754
0.000163228
0.000143682
0.000147834
0.0829405
0.000188411
0.084222
0.000151238
0.000148064
0.000147395
0.000928557
0.000156242
0.00014834
0.000197202
0.0374836
0.000151005
0.000206649
0.000276527
0.000151531
0.000223245
0.000145896
0.000147582
0.000182768
0.000146918
0.000169275
0.000149007
0.000149051
0.0295166
0.000148288
0.000160666
0.00714315
0.000148397
0.000180868
0.000153674
0.000171428
0.0369337
0.0413359
0.000334183
0.00020915
0.000208838
0.0697013
0.000185065
0.000145908
0.000169146
0.000146996
0.000148995
0.0670381
0.000147694
0.0228598
0.000183854
0.000147157
0.021642
0.00777268
0.000152792
0.060085
0.000149101
0.037269
0.0847448
0.000148379
0.000149038
0.000172431
0.000148586
0.000259593
0.0834365
0.000149029
0.000157016
0.000158098
0.048526
0.000149911
0.031196
0.0111929
0.000147678
0.000173399
0.0464432
0.0258694
0.000147066
0.0166719
0.000149792
0.020706
0.000164637
0.000148072
0.0627819
0.000148717
0.0490809
0.000150514
0.0432766
0.000150534
0.000199879
0.000215417
0.000157562
0.000330897
0.0178508
0.00810952
0.0596803
0.0560831
0.000151232
0.000206482
0.000151008
0.000149817
0.000147054
0.000147006
0.000148069
0.00755076
0.000146127
0.0783079
0.000147049
0.050676
0.000145886
0.000148219
0.000147054
0.000150927
0.0462977
0.000172241
0.0213967
0.000149097
0.028182
0.0412667
0.000147901
0.000148376
0.000148205
0.000170073
0.0420546
0.000168893
0.000149831
0.0505276
0.000148102
0.000180605
0.000179804
0.0204905
0.000163636
0.000150921
0.000146828
0.000207179
0.000196921
0.000163434
0.0461258
0.000147867
0.000243686
0.000145628
0.0196618
0.0774599
0.000149012
0.0415995
0.000147774
0.000147773
0.00014582
0.000148298
0.0635105
0.00356604
0.0171874
0.0477133
0.000161682
0.000172183
0.000169924
0.0478182
0.000145671
0.000148542
0.0514478
0.0367191
0.000171673
0.000165466
0.000185757
0.000326238
0.064738
0.000184399
0.000149818
0.000152244
0.0198913
0.000264837
0.000167261
0.0756918
0.000147775
0.000145823
0.000150945
0.000159882
0.000160652
0.0234545
0.000146585
0.000147096
0.000145315
0.000423122
0.000146741
0.000657648
0.000149905
0.000166591
0.0143565
0.000149906
0.000198652
0.000149076
0.000151932
0.000152882
0.000174854
0.000198163
0.000606181
0.000190282
0.000143934
0.000145646
0.000181666
0.0694766
0.0357833
0.000155529
0.00021337
0.0206564
0.000597681
0.000149148
0.0767145
0.000427627
0.000188639
0.000162437
0.023146
0.000149867
0.000180972
0.000148868
0.000326906
0.0177173
0.000150007
0.000143683
0.000165469
0.018554
0.0513442
0.000148073
0.042437
0.00019013
0.0491646
0.000293691
0.000157378
0.000212059
0.000166483
0.000151306
0.000145826
0.000394215
0.00244204
0.000202984
0.0213506
0.0873503
0.0512325
0.0294361
0.0442936
0.000147397
0.0374747
0.000158841
0.000148015
0.000157811
0.000153775
0.0382349
0.000149821
0.000148153
0.000214202
0.000183693
0.000148296
0.00239556
0.0473925
0.0195342
0.000158696
0.000186526
0.000147291
0.000149533
0.0795778
0.00021212
0.000146608
0.0195614
0.000145998
0.00014865
0.00842797
0.000149913
0.000182553
0.000144075
0.000228634
0.0292263
0.000145353
0.000158645
0.0849342
0.000148412
0.00869257
0.000148623
0.0204905
0.000147616
0.000176769
0.000163159
0.0467793
0.00014806
0.00023394
0.000282633
0.000146614
0.000148884
0.000146262
0.000146047
0.0174902
0.0461058
0.000189466
0.0148771
0.000188216
0.000148077
0.000174219
0.000155885
0.000146536
0.000147849
0.000169628
0.0440663
0.056775
0.00017294
0.000210741
0.000210024
0.000145666
0.000148459
0.000150294
0.000253178
0.00014414
0.00886261
0.0520417
0.000196026
0.000148235
0.0475253
0.000149785
0.000265745
0.000207763
0.0001481
0.000148816
0.000155885
0.0392069
0.000147051
0.000279182
0.000146622
0.0838536
0.000146119
0.00697536
0.000156324
0.000159101
0.0340396
0.000146751
0.000252406
0.000148509
0.000147263
0.0161818
0.000195884
0.0495614
0.000145535
0.000149385
0.000149186
0.000209079
0.000179032
0.000167201
0.000151157
0.000155196
0.000145926
0.0321764
0.000160754
0.0809141
0.00993662
0.0651488
0.00015716
0.000144961
0.000149821
0.00915875
0.058317
0.000147423