/*--------------------------------*- C++ -*----------------------------------*\
| =========                 |                                                 |
| \\      /  F ield         | OpenFOAM: The Open Source CFD Toolbox           |
|  \\    /   O peration     | Version:  v2012                                 |
|   \\  /    A nd           | Website:  www.openfoam.com                      |
|    \\/     M anipulation  |                                                 |
\*---------------------------------------------------------------------------*/
FoamFile
{
    version     2.0;
    format      ascii;
    class       volScalarField;
    location    "300";
    object      omega;
}
// * * * * * * * * * * * * * * * * * * * * * * * * * * * * * * * * * * * * * //

dimensions      [0 0 -1 0 0 0 0];


internalField   nonuniform List<scalar> 
27802
(
0.0262734
0.0256903
0.0266209
0.0321972
0.0252189
2.19239
0.0252205
0.112492
0.0250535
0.43411
6.4039
1.3667
0.0363351
0.154091
5.72967
6.81891
6.33124
0.0250568
6.36767
6.71478
10.562
5.81362
0.0248626
0.0900468
0.46581
0.0409018
0.0252181
0.0395173
0.0250749
19.0897
0.0901035
0.0652613
0.0261915
0.0246718
0.0255806
30.7937
8.49889
0.0249397
0.0249731
8.11635
1.20912
0.0255901
0.0307366
0.0246947
0.0353409
7.61978
0.0254112
6.26764
8.0806
3.40409
5.43639
0.0414631
6.27451
4.78102
0.0249812
0.0255353
0.211039
0.0253222
0.0322788
0.126656
6.74169
0.0265821
0.0336658
0.0248321
0.0247096
0.0253665
4.01514
0.211266
0.127243
0.0252926
0.0246845
4.40605
5.17949
0.175461
0.0277147
0.0268995
3.98761
9.47354
6.9122
33.1079
0.0251514
0.0251699
0.060387
0.0265818
0.0253506
0.0397228
0.0256358
3.62359
9.95533
0.0253461
0.0253009
7.58331
0.025027
23.2502
4.84788
0.0435857
0.0251655
0.0419898
0.025367
2.82185
0.0249708
0.024926
5.30251
8.23312
5.20546
0.0341056
0.0253244
0.0247017
0.0249697
0.0349248
7.31461
0.0253064
0.0246758
0.0253669
0.0253293
0.0248266
0.0312756
0.390466
3.8971
0.41677
7.34393
0.118382
4.35304
0.396935
26.6396
0.187526
0.025874
0.0284378
13.3002
0.0246935
0.111745
0.056382
0.0255645
7.1261
17.7973
0.0265676
0.0784763
0.171614
0.0253647
0.0255296
0.135169
0.512518
0.0372996
0.043566
0.0249443
3.56569
0.0351152
0.0416897
0.0250555
1.8566
0.0424763
4.35762
0.0307404
4.14791
0.0256549
21.2921
0.0263981
0.0442967
0.0247384
0.0255422
0.0248254
0.0253599
7.24933
0.0250483
0.0256342
0.0256625
5.05294
0.0251713
0.0255135
0.0259218
0.0924422
6.80261
5.71302
22.2222
0.0252005
0.246676
22.4963
5.94594
0.0248224
0.0253225
0.944822
3.62749
9.74722
4.39127
0.0247545
0.34676
8.31659
14.6409
0.170853
3.959
6.16905
0.0256908
0.0262891
0.482249
0.0249246
4.45099
30.8111
6.6937
0.537454
4.762
0.0989559
0.0255499
0.026024
0.031261
6.28841
0.0652004
0.0251759
0.0250552
17.1167
0.0250124
0.0250555
5.1289
0.032232
4.89536
0.0247279
0.0252106
0.10757
0.0257241
0.0252958
0.0256848
4.88714
0.0252124
0.025334
0.257592
0.0254935
0.241713
0.0257946
0.0423511
0.0246559
0.0254709
0.0253668
0.0373191
0.205688
0.0255857
0.0256925
11.7932
0.0810834
0.0894968
0.0258608
4.97209
9.06107
4.29474
3.59623
4.08752
10.1545
0.0263314
0.0252485
7.40237
0.0247516
0.0255387
0.192473
0.0252718
0.386822
0.0258304
3.63222
4.16261
0.0294233
0.119997
0.0253475
0.0277849
0.0252504
8.13254
3.77153
0.163235
0.0252935
0.0251889
0.025639
0.434119
4.19686
0.0629745
8.20932
0.0314573
10.1248
0.0250453
0.0252691
0.0255804
0.0552451
0.0254578
0.0250319
4.11243
0.0257238
0.0503796
0.722863
0.174911
7.402
0.027833
5.88004
0.0250382
0.182412
4.22687
0.613532
8.21675
7.31754
0.032711
0.0246526
0.0253548
0.0257801
29.4899
8.29741
0.117812
8.51422
0.048088
3.51204
21.0212
3.95587
0.0254638
0.119878
0.025289
4.03401
0.0249522
3.3615
0.205721
4.64343
0.0253175
4.68576
15.4536
0.0915534
0.025076
0.03918
5.00242
0.0249534
0.0273181
0.138728
3.51136
8.13828
0.0250259
0.0584792
0.0847805
4.71103
0.025242
4.38873
0.0250655
0.0255436
0.144105
1.09404
0.0257549
0.0253033
0.0253421
0.197853
0.0269645
0.0251121
0.641433
0.0252367
0.535799
5.32891
24.3805
0.0269414
0.0251097
0.0263344
0.0250705
0.343686
0.31542
0.0251513
0.120401
0.0253397
0.0250025
0.0259921
0.0252008
7.40031
0.0250294
0.242573
1.57316
5.26016
0.0247001
0.0251313
0.025153
4.26013
0.0250443
0.593593
0.024638
0.205587
0.100856
8.39082
0.0264684
0.0258701
0.0252379
0.0970548
0.0253147
0.183876
0.0279337
0.0347721
0.0255513
0.0253435
0.0256845
0.025174
9.99185
0.143617
0.0881513
5.09413
1.55655
0.0252482
0.779256
0.025396
0.0252294
0.0843753
0.0263807
0.0255489
3.7874
1.54745
4.18302
0.0638997
13.8565
0.0254286
0.0254633
0.166749
4.68263
0.025459
0.0294646
0.114414
0.0280859
0.0250234
0.0356188
4.44996
5.05161
3.58126
6.83397
0.0252532
6.95222
0.0249218
0.40999
0.0312537
5.6022
0.0256924
0.0252146
0.0296089
0.0261542
0.0419357
0.025248
0.0252997
0.0808914
0.0253595
0.0253744
0.239539
5.81601
0.0581507
4.59153
0.112803
0.125874
0.1872
0.0252218
0.0394675
6.83248
0.0271754
0.0253191
0.0363247
0.0277553
0.0567204
0.0258158
0.0253632
0.0252584
7.37532
3.41917
0.0258077
0.0251925
14.8031
0.0255478
4.39958
0.0255411
0.0253522
0.0268741
0.832371
0.0253147
0.0246337
6.78261
0.025393
0.0561355
4.10464
0.147626
0.025348
6.64601
0.671809
0.123112
7.13231
9.22443
0.0265415
0.0425323
0.0248235
0.877987
0.0254645
0.111742
0.0252114
0.0306755
22.559
4.19728
0.0252017
0.0253202
0.059064
0.0256745
0.0252301
0.0251725
0.0250331
0.118373
0.0355235
5.04895
9.04966
0.0249606
0.106794
3.70651
0.0299098
0.0258601
0.0247042
0.0256402
5.17536
0.268413
0.0445401
4.7679
4.56616
0.0253195
5.9053
0.0249641
2.41141
0.035827
0.025168
0.0276986
0.0252399
0.0284315
8.31291
5.3794
0.0301403
6.78921
4.7822
0.172354
0.0253441
0.0253491
7.44172
0.0524884
0.0256571
0.0540706
0.0336835
32.3912
0.0755302
4.17264
0.0299499
0.0253539
9.33081
0.0253237
0.0253932
0.027248
6.01869
0.0251649
4.63456
0.027854
1.48304
0.16485
9.26784
0.0246935
0.0253424
3.90953
0.0648173
0.0254119
0.0637878
0.0263762
0.0252239
0.0250757
6.05402
0.0566184
0.746178
4.20975
1.57346
0.0251068
4.29239
0.0523076
0.0252351
0.136698
6.94813
0.0253468
0.0254239
0.0251918
4.55953
0.0250759
0.0248215
0.0248629
0.0252891
0.597603
0.0250438
6.51484
0.0455695
0.0252535
0.0914959
0.0573225
4.10542
4.15374
6.97391
0.0252916
0.0249233
0.0249719
6.50659
0.0250341
4.06738
0.969483
0.068988
8.11611
8.84148
0.0255849
0.0253553
4.74055
0.108907
0.0251106
0.0255746
9.84203
0.170294
6.73905
4.98279
1.7734
0.0269677
1.38977
20.7468
0.0252033
5.78691
4.24771
0.0615382
5.39179
12.8315
0.0272892
0.0712436
0.0252328
0.0752531
0.0251145
0.0311799
0.038028
0.083437
12.1738
0.10667
4.62338
0.0269425
9.90607
0.025663
0.0263549
0.0348509
0.108881
0.0253499
0.106426
0.0253749
0.0562914
0.0639225
0.0251951
0.0253532
0.0379259
0.127025
0.0576355
0.848981
0.028206
4.76413
3.20957
0.738192
0.025224
0.0477121
0.569197
3.92101
0.0282004
0.0251703
1.4913
0.122395
0.0253013
1.6282
0.025663
3.045
1.84749
0.025659
0.0252324
0.285186
0.465246
0.0281096
0.0309779
8.63395
0.0256708
0.0263702
8.65731
0.0262786
0.0950377
0.0252373
0.0247842
0.0251103
7.30573
0.0365172
0.0255412
9.12112
0.0251833
0.0308325
3.92971
0.0255979
3.30625
0.0440871
0.0250727
0.0262909
0.0249321
9.98704
4.75926
4.42188
0.0250355
5.01569
4.68795
0.0249353
6.68429
0.0517058
0.0256685
0.0250534
0.0253645
0.0281682
23.7791
0.025125
0.0256696
0.0784089
4.97521
0.025541
7.28324
3.72197
5.2305
0.0247784
0.0266367
0.0256759
0.0267466
0.107586
0.0252556
0.026466
0.0256739
0.0281055
0.0285092
5.1253
0.504126
1.08434
0.0332656
0.0479346
0.0419896
0.0251293
0.0249487
0.0251963
0.258034
0.0766494
12.8921
4.12335
5.4093
0.0251165
9.57
0.0250892
0.0255441
4.01799
0.0252633
25.6825
4.96902
31.6103
11.7143
10.4648
0.0252979
0.0521463
1.36213
0.0392613
5.47208
0.140052
0.0250822
3.34231
0.0253634
3.60923
7.38284
0.0255545
0.0247919
3.33094
0.025069
0.0256238
20.4927
0.348945
11.5765
5.87236
0.0252953
0.031234
0.0260888
0.0565385
0.0249493
4.86952
0.0445994
0.0252426
4.94027
4.45522
0.187404
0.0371228
0.0253594
0.0254045
1.96199
0.0495199
0.0273734
0.191809
4.01644
0.128401
0.0256921
0.0254068
0.0627337
0.0250642
4.614
0.192444
13.0966
0.0264747
5.09095
0.025206
3.99207
0.0465149
6.06698
0.0487236
5.06054
0.0264563
0.0359559
10.6934
0.0267079
0.126414
1.05805
0.0264333
0.111201
0.0601502
6.05064
0.0319481
0.0250413
4.40836
0.0255342
0.0250681
0.168652
24.9145
0.162129
25.0943
0.0337077
0.0255347
3.58849
0.712563
0.0256075
5.15995
0.0814678
4.36631
0.025156
0.0263142
0.058945
0.0252029
0.0540575
0.025085
0.0397662
5.59311
5.7922
0.0276554
0.0486567
4.48357
0.0255345
0.0252659
0.0251955
0.127208
0.76239
0.0255821
0.0253779
0.0447536
0.0426693
5.44461
0.0406666
0.174123
1.60405
51.4952
0.0255045
3.89224
8.01864
0.036315
4.51061
0.0252976
0.0271795
8.20118
0.0251993
10.607
31.6263
5.27259
0.032794
7.04086
0.0289823
12.3751
0.0253537
5.29519
0.0572965
7.71484
0.033301
0.025386
0.0272495
0.0251965
5.42349
0.212767
0.0595485
0.185992
0.121143
0.0287738
1.99168
0.181907
0.16818
0.836229
0.0422631
0.122848
11.6739
0.0253634
0.0256493
0.0527214
0.0401143
3.3435
0.041936
0.0250227
0.241282
0.0252619
0.0263109
0.0253673
0.0256275
0.0256481
0.0263474
0.0256345
0.0428647
0.0251889
0.0367451
4.44227
3.82515
0.0252805
0.0253905
29.1649
0.0252992
0.121703
0.0249704
0.306347
0.0642614
4.31602
0.0808219
0.0252034
0.0255436
0.050835
0.0619593
0.02567
0.51275
0.0256841
0.0940441
0.0255428
0.0256011
45.835
2.77721
0.0249651
0.752064
0.288938
0.0933874
0.0302139
0.0249868
7.68293
0.0271169
5.48394
0.0259632
0.054653
0.0253357
0.025654
0.0256965
5.49773
10.479
2.48565
8.08337
7.62374
3.36272
0.0249589
0.025207
0.148259
9.0205
7.2332
0.0522392
0.025526
0.0248799
3.7341
0.0761043
4.48765
0.0252109
7.30324
0.0304028
0.125775
0.0251837
0.0611059
0.0562584
0.0249266
0.0251392
0.0523396
0.0359752
0.0252144
0.0262341
0.117159
0.154693
0.0249564
0.122591
3.14474
3.33736
0.0951092
12.1991
8.71012
0.029967
0.0252599
0.943121
0.0722037
0.0255297
8.33406
6.25612
4.10063
1.04938
0.185924
0.524658
0.0253983
9.93662
3.77704
0.0402811
0.0368716
0.0249445
0.0253607
0.272468
0.0265705
0.0255956
0.0255354
0.099563
0.0254412
0.0250832
0.0253669
0.026437
7.27352
0.0269658
5.08062
0.0253201
15.8605
0.15043
0.0251995
0.133132
0.0251316
1.04734
8.0046
0.111761
4.72963
0.180845
0.0248204
0.0294155
0.0246875
0.0316357
6.07736
5.50198
5.57302
0.0256703
0.0249598
0.0266474
0.683803
0.0254112
0.0255444
0.0418789
0.0253363
0.0735909
0.0977853
0.0250703
0.0249442
0.0252651
5.93873
0.0258781
0.0253959
0.0813505
6.01784
0.0253376
0.0248997
4.62279
0.0253931
0.0248625
0.780173
0.0295958
0.0252262
0.0256754
0.146823
0.025646
0.025281
0.0252948
0.0255016
5.99757
8.83483
0.0253414
5.37631
0.0253022
4.09294
3.32772
0.0255967
5.9687
8.54506
0.0295681
0.0249331
0.0250505
5.16329
0.404198
10.9097
1.89438
0.0256683
0.145512
0.0253841
3.35945
0.032085
8.1253
0.0256923
2.81486
6.22603
0.335271
0.0254709
3.58222
0.967178
0.0253509
0.174913
0.0251844
0.0255468
0.0253939
0.024989
0.0313175
7.3728
7.90956
0.0253533
0.0254109
2.70449
0.0265037
0.0277081
0.02535
0.0254999
5.03787
0.0252234
0.0252762
0.028945
7.20019
0.0291919
0.0253073
4.6314
0.0252037
0.02664
0.190245
0.0268876
0.0265789
7.17355
0.072809
4.34171
0.0371139
0.0299698
0.0255682
0.0515048
9.88488
0.0394319
8.81152
5.15354
4.8793
0.135682
0.0252918
0.0258575
0.0252533
5.82977
25.9875
0.0263484
0.347962
0.0249068
5.74708
0.0254107
0.0253471
3.38373
0.0842741
12.1303
0.0249544
9.15388
3.86485
0.0253479
0.234428
0.0256723
0.07335
0.0247052
0.0260344
0.0362428
0.108685
0.0252445
0.0373873
8.61857
0.0249507
6.90576
0.0267663
0.0319151
0.473061
0.0263726
4.75354
0.0268525
0.0251891
0.244536
0.0264729
0.0255252
0.238998
0.0251123
0.0249928
8.81376
0.0251271
0.0249657
0.0309675
12.848
0.0247794
0.0256735
0.0250558
0.02557
0.0254935
0.0574994
5.26172
0.206996
0.208444
0.0249394
0.0250157
8.00014
5.0558
5.0379
0.0250621
9.25686
0.411657
10.4642
0.165932
9.15274
0.0442093
0.411847
0.464192
0.0848345
0.0249511
0.0260184
0.0729302
0.0247733
0.109939
0.0301602
8.4187
35.0001
0.0320244
0.0558269
0.0255075
10.7051
5.24736
0.173095
0.0461729
0.333992
0.0253968
0.0257618
4.49734
5.35203
0.0557305
0.0261322
0.0250052
0.0254005
0.0330535
0.0248718
0.0405834
0.0253627
0.0254592
7.71592
6.97003
0.0255369
4.23101
0.0256264
0.0264818
9.95651
0.0317836
0.0252141
0.0252843
11.188
0.0251969
0.0258759
0.0250511
4.89785
0.421976
5.4111
5.71801
8.60504
0.124316
0.0252751
0.0255613
3.94332
2.86285
4.96366
0.140342
0.0255014
6.77
0.0733215
0.577309
0.0253931
0.0340021
0.0253138
2.25847
5.2049
6.11121
0.860921
0.0249227
0.0397437
8.64846
12.9894
0.0253635
0.0543403
1.1279
0.111849
0.126595
1.04319
0.0253551
0.254666
8.90003
7.2311
0.171704
0.0246703
15.272
4.11485
8.32077
0.0930631
0.0253972
3.94703
0.0294113
0.0254055
0.0256276
7.05523
0.0435782
0.0256542
0.0255514
0.117465
0.223468
0.0289128
0.0445972
29.2068
0.0251915
0.0252625
0.24979
0.0268872
0.0253112
0.0252642
0.0253494
0.0254247
9.61997
4.0557
0.0509653
1.95333
0.0431666
1.95967
0.025249
3.8272
0.0252406
5.42502
3.52249
0.0249369
4.98681
10.3379
0.0253836
0.0543891
6.62724
11.6874
0.0256618
7.98912
13.2244
4.2778
0.0253173
0.0255427
10.1962
2.63181
0.143994
4.47507
0.120155
5.9812
0.0254055
0.0261062
10.0803
0.0255526
0.0249859
0.0256292
3.96099
0.0253558
1.46555
0.149855
0.0252885
0.0253627
0.0255452
0.0594791
5.58096
0.0406357
0.0254633
0.0254128
26.9696
0.0416242
3.76339
0.575197
4.92025
0.142913
0.120509
0.110765
0.593275
0.0594746
4.34619
0.0604966
0.0252099
0.0258979
0.248422
0.0314028
0.0256434
0.137077
0.0817101
0.0251666
1.07724
0.0383503
0.0256036
0.0263479
0.0256838
0.0721038
0.025336
0.0252894
0.024797
0.709795
3.54097
6.49326
4.54948
4.12145
0.0249839
5.28658
0.0251536
0.0253743
0.0253623
10.3161
0.0250986
0.0266236
0.0253346
0.0255689
0.0252463
0.025305
0.163746
7.29168
0.0276336
0.025209
4.36862
0.0278351
0.172492
0.0251033
5.8526
0.0256858
0.0254763
5.82206
0.0319126
0.0254063
5.61545
7.91774
0.343784
0.0253212
0.037645
0.0566198
1.1661
0.0253076
0.0255288
4.20783
4.51503
6.72233
0.0254851
0.0252577
8.03161
9.12918
0.261438
0.0253375
3.42628
0.119503
0.0249935
0.025537
0.0253356
6.24938
0.0639954
6.16753
9.83856
0.0252322
0.0250666
4.17073
4.4021
0.124376
0.0250177
6.74659
13.6603
0.0259699
0.0253366
0.167215
0.537951
0.0261568
0.0254054
5.06022
0.0253564
0.0251638
0.0253156
0.389465
6.65929
0.0252742
0.0252778
5.22316
0.0249098
0.0252644
0.532191
5.78432
5.37428
8.51427
0.0256487
0.0252183
0.0261871
0.158966
0.0664913
0.256938
4.2826
0.0260327
0.0255375
26.3046
0.0253388
0.030584
18.4468
0.0251672
0.0253195
7.57771
0.508461
0.0254223
9.6191
0.0256642
0.0256719
0.0276727
6.48028
0.0253292
0.0255239
0.0247304
0.0398548
0.22863
0.298068
0.103673
0.0256699
0.0259092
0.025411
3.89044
4.42833
0.0250605
1.1336
0.0353114
0.0309143
0.109052
0.0255298
0.130993
3.68222
0.0249855
2.28288
0.0252321
0.0255846
0.0276008
0.0252308
0.0246614
0.164642
0.0256929
12.7367
0.0654169
0.0253215
0.0252849
5.77751
0.0254206
0.025363
0.0246965
0.0256839
0.110342
0.0264957
0.246551
0.512217
0.0249884
0.0339834
4.36219
0.0564394
4.73273
11.3908
0.0252978
25.5551
4.93915
0.0246953
8.84822
0.0253619
9.56144
4.00952
0.0718539
8.6012
5.51515
0.026378
0.0255945
4.99336
0.0255055
0.0841444
5.2834
6.60416
0.0348873
0.0251198
0.172199
0.137004
0.0253491
0.0255216
0.0255734
0.0739659
0.0555928
4.15014
0.110437
0.0249209
20.9271
0.0258722
4.20309
0.21072
9.7701
0.0250637
3.70813
0.0251185
0.143553
7.99009
4.41605
0.191247
4.17031
0.171625
0.0246774
0.02554
0.0251306
25.6442
4.80265
0.058648
0.025544
0.0252643
0.026288
0.0259528
1.32712
0.0256341
0.600913
0.0736675
0.283726
3.72616
0.0856197
3.8174
4.72271
0.0252056
7.13313
0.0678207
0.0623273
3.47733
0.0374856
0.045074
0.119491
0.0250368
3.66449
0.0254065
1.21438
7.43271
0.0252062
0.332148
0.0256125
0.0252288
0.0253717
0.873074
0.0250128
7.62152
0.0251581
0.0251132
0.0553292
0.201858
0.0257677
1.27011
0.0256933
1.04099
0.0246834
0.0256866
0.479565
5.68438
0.76758
0.0255522
0.0246023
0.0261394
4.60215
7.59264
0.0250223
0.0272032
0.268247
0.0366277
9.0682
0.0256115
0.0274365
0.0251532
0.0364643
3.34731
0.11877
4.50356
0.0251941
0.025739
0.0252347
0.0253721
0.106401
0.201801
0.0253724
0.0261035
10.8578
0.0259664
4.88363
0.886877
0.0259927
0.0253577
4.69808
10.1764
0.0254951
0.0249496
0.0253954
0.0256701
3.44703
0.049569
0.0255393
0.0607286
5.9254
10.0734
0.115886
0.0248933
6.28855
0.0277931
0.316158
1.6485
5.80852
8.25879
0.109873
4.2801
0.201505
0.0250981
5.04913
9.03736
0.0252994
0.129192
0.0254827
0.0248687
0.0318645
0.0960425
0.0440427
0.0256374
0.0247022
1.6014
0.0253658
0.0254023
0.0357774
0.435443
0.626789
9.61481
12.5839
0.0248684
0.0638879
0.0253587
0.0745948
0.0260256
0.0255451
0.0349735
0.0251207
0.0250678
0.126963
0.024945
0.0248936
9.89592
0.026592
0.0267795
0.071803
0.0286872
6.0793
3.05816
7.06468
0.0253012
0.10704
0.065796
0.0251937
0.0255285
0.0681113
0.0252432
0.121655
6.5997
0.0447653
0.0360552
0.0253112
1.76627
0.0255978
0.025022
31.3394
5.36966
0.173554
4.70744
8.40573
0.0247093
0.0358994
0.0251861
0.0246148
0.0247737
7.45563
8.31868
3.33081
3.89627
0.0521248
0.0579398
0.0250966
0.0601295
0.027253
0.0619583
4.88469
0.025398
0.025668
0.0335891
0.029791
4.55835
0.0253371
0.0255847
0.0256703
0.0317934
0.0249747
7.93781
0.0332266
3.79897
0.0252307
0.0573142
0.181426
0.104543
4.49669
4.7462
9.80342
0.0254572
0.186072
0.0305213
0.0252082
0.0455416
24.1158
8.56796
0.0550577
0.11548
0.0253992
4.24176
0.0253506
2.85669
0.0443438
0.0253455
15.5606
9.13523
0.0252882
6.83171
0.215335
0.0264196
11.4726
9.10515
1.28647
0.0270986
0.0247187
8.65881
0.0254735
0.0347218
5.48692
0.638495
0.025146
7.20878
0.0253081
0.0255452
0.0444015
0.0253178
9.0966
0.0889375
0.0255892
0.0833379
0.0248029
0.0251751
0.0255382
0.0349861
0.868213
0.0255176
0.27392
0.276086
0.0740803
3.62397
0.0788114
0.05578
0.310879
0.0253085
0.0252051
21.0072
0.0563812
0.0253001
9.29742
0.0256857
1.02477
3.87192
0.406217
4.07766
5.15474
0.0253443
0.0550995
2.83455
0.068381
4.78854
0.879804
0.0253631
5.05214
0.0258016
1.23601
5.81528
0.0318875
0.0252118
0.0264977
4.35383
0.202133
0.0253932
0.03791
6.46174
0.0250953
3.71704
0.172845
0.0267112
2.37641
5.36043
0.0253777
0.0256671
0.0261751
3.85643
0.0254577
0.0354208
15.91
19.811
0.0252619
8.32077
0.384011
25.7051
5.30725
7.8812
0.141973
0.128358
0.0251647
0.0252879
0.840724
0.0250022
0.0721145
4.89673
0.02835
0.0864605
3.98991
0.027284
2.04154
0.0256927
0.11633
0.0402767
0.0247241
0.655188
0.0253885
0.0253095
0.0248988
0.0249875
0.0254326
0.183737
8.4194
0.0308084
16.6754
0.0263284
0.0248831
4.19372
0.0565946
0.0259313
0.0273283
0.219071
0.997428
0.0559813
0.0253587
0.0287523
0.0255818
0.0248455
0.0598175
0.0253983
0.471003
0.0253089
10.4317
4.98018
0.0251188
3.95048
0.164666
0.113187
4.43537
0.0363665
0.0253773
0.0255509
0.0264222
0.0249656
33.4202
0.605255
0.0256847
0.0256849
1.2512
0.0254955
0.074699
0.0253127
0.0251916
9.93989
0.0250642
0.0290267
0.0252076
0.0252081
0.0253681
0.0250475
0.0254369
0.0252953
11.4386
0.062218
0.0252672
0.0252003
0.0929922
3.11283
0.0256336
4.23948
0.146195
0.0572857
0.0867882
0.0251074
11.5274
5.46975
0.442623
0.0251597
0.228436
0.0254302
0.102893
0.254335
0.0251159
20.8092
0.0543305
0.0259164
8.74013
4.3341
0.106374
4.54894
0.0411356
0.0255544
4.39497
0.025646
0.0253019
0.0652316
0.0251555
0.0248611
0.0253304
0.0769938
0.0246199
9.61956
0.0290481
0.886506
0.0272158
15.3479
7.2854
5.49274
0.72563
0.0256445
0.223714
0.0253194
0.0372969
0.0253204
4.16592
10.4755
0.0250823
0.0256185
0.0263346
0.0680305
0.0252392
2.96192
11.1645
0.0521951
10.9516
0.113544
0.0296175
0.0256376
0.0272761
0.0253385
1.26644
0.0268171
7.97813
0.0253585
4.7025
1.05447
7.56734
0.0377175
0.190801
8.41652
4.24425
0.0253142
0.0248948
0.162404
0.0252343
0.0254329
0.080202
0.0249602
0.0277456
0.0253826
0.0254097
0.0250669
0.0253456
0.0254937
0.0512402
6.08043
0.0653688
0.0624406
0.0270101
8.94188
8.91759
4.56873
4.32866
0.0404367
0.0405767
0.0274669
4.62175
0.0252994
0.0248581
0.484838
0.0254833
0.0248423
0.0554782
0.0250503
0.0681153
10.8463
0.0287638
0.0256743
0.0256003
0.0254092
0.164348
0.0251619
0.0424809
0.0721073
8.03229
0.0253139
0.055045
0.0283248
0.0311566
0.0257955
0.0441477
0.0256857
0.0413118
8.77496
0.0252036
3.31878
0.220981
4.35413
3.85449
0.0643953
4.66054
7.39467
5.24178
0.522245
21.4796
0.0532114
1.08271
0.0252425
0.186495
0.227231
2.60745
0.169389
0.0259304
0.0250945
0.148801
0.220743
0.0256276
0.025968
0.0505867
0.0254286
0.0254447
0.0260005
0.183342
0.0440875
0.0249424
4.39766
29.4554
0.0253577
0.0352223
0.153723
0.0249432
3.84955
0.0927578
0.0509274
3.97732
7.19545
0.0544038
4.21302
3.44903
9.12511
6.42881
0.0253614
0.024961
6.1998
3.41474
0.0268281
7.43006
0.0252889
0.0252176
0.0252661
0.0256926
0.0265119
0.0254158
0.0819258
0.0405868
0.228554
0.22707
0.0327309
3.86708
3.53191
4.73336
0.0353276
0.698982
0.0266476
5.32234
0.0249034
1.11911
10.124
0.0894972
0.201656
21.1979
1.48852
0.0506111
0.0558923
0.0418046
0.0254064
0.932412
1.07163
0.153431
0.0246812
0.0253764
0.0356787
11.2892
1.03303
0.0303275
0.125619
5.05089
0.0411149
4.56243
0.0348645
0.024646
0.025329
13.6597
0.102694
6.58745
0.0266128
0.0253178
0.0252698
1.30772
0.0321373
0.0253426
0.182645
4.64358
0.0258802
0.194028
0.882892
0.0260235
0.403464
0.0249496
0.0251831
0.260581
0.0251173
0.0571965
0.0255408
0.0255479
3.94215
0.0254239
0.0344703
32.6954
0.0250407
0.197895
0.0282627
0.102439
4.93181
4.12772
2.34364
0.178093
0.242967
4.79416
0.0852913
0.0250211
0.0450034
0.0251247
0.0255002
4.563
0.0252651
3.65976
0.0912407
0.0252204
6.74456
23.9788
0.0278448
5.28918
0.0255362
30.4795
6.0248
0.0251159
0.0255095
0.126971
0.0253937
0.535012
6.10344
0.0255086
0.0333469
0.0303425
3.83926
0.0256859
5.36076
10.7459
0.0253036
0.0537626
3.79111
3.92781
0.0252238
6.63636
0.025667
7.27487
0.0584665
0.0253364
4.29791
0.0254233
3.90707
0.0261784
3.83517
0.0261725
0.140854
0.224179
0.0342705
3.28914
8.76094
11.345
4.44016
4.21805
0.0265504
0.15608
0.0264364
0.0256711
0.0252257
0.0251795
0.0253679
8.16712
0.0250353
5.62252
0.0251838
4.08596
0.0249552
0.0253203
0.0251146
0.0259291
4.30096
0.0554328
9.40787
0.0255564
6.15316
4.31877
0.0251182
0.0253244
0.0253077
0.0590939
6.01212
0.0413479
0.0256731
3.97593
0.0252642
0.102898
0.0570483
11.4336
0.0533696
0.0263772
0.0251142
0.163919
0.111817
0.0500892
3.80846
0.0253465
0.381462
0.024861
9.38323
5.28889
0.0255109
3.54366
0.0252647
0.025233
0.0250062
0.0251956
6.25009
3.51414
10.1673
12.1388
0.0320148
0.0599027
0.0463554
4.18531
0.0247969
0.0254639
4.12501
4.39421
0.118816
0.0355767
0.0766169
0.63041
4.42816
0.284822
0.0256713
0.0273356
10.9367
0.431746
0.0704217
17.208
0.0253181
0.0248153
0.0259509
0.0397054
0.0413101
7.62785
0.0251358
0.0251942
0.024916
0.726868
0.0249976
7.8651
0.025685
0.0382232
10.2637
0.0256851
0.133617
0.0255532
0.0267026
0.02784
0.0569624
0.141714
6.21065
0.116612
0.0246852
0.0249843
0.0614425
6.79006
3.53781
0.0307868
0.188357
4.84653
4.47016
0.0255446
5.82554
3.62775
0.0830639
0.0345206
4.33029
0.0256791
0.0651173
0.0254639
0.561873
7.9533
0.0255633
0.0246486
0.0358626
10.6133
4.18474
0.0252645
4.46634
0.104433
4.06308
2.02714
0.0336315
0.185644
0.0717654
0.0264439
0.0249628
2.83621
3.79754
0.163593
6.44802
6.52796
3.84426
5.82788
4.35307
0.0251633
4.7803
0.0374548
0.0252632
0.0308354
0.0267731
5.09984
0.0256716
0.0253313
0.361119
0.110249
0.0253199
2.28243
4.01338
5.79792
0.0360119
0.0804299
0.0252386
0.0256259
5.41127
0.182399
0.0251391
9.66872
0.025036
0.0253391
10.4045
0.0256862
0.0906628
0.024654
0.456478
3.8686
0.024919
0.0370123
6.17402
0.0253263
18.0146
0.0254776
10.4857
0.0251838
0.106951
0.0524135
4.15582
0.0253849
0.431102
0.975409
0.0250554
0.0254663
0.0250598
0.0250522
8.65782
3.94228
0.0855529
12.4539
0.169137
0.0252804
0.0582975
0.0316269
0.0250533
0.0251121
0.0411632
3.59989
6.22319
0.0555331
0.174181
0.233037
0.0249876
0.0252782
0.0257069
0.583873
0.0247293
22.5899
4.05192
0.112351
0.0253102
3.73871
0.0256658
0.577494
0.35536
0.0252791
0.0254462
0.0312639
3.35702
0.0251265
0.98638
0.0249902
6.11921
0.0250517
4.83067
0.0295277
0.0379709
4.60379
0.0249938
1.45616
0.0254584
0.0251618
10.0449
0.107398
4.18423
0.0249315
0.0256281
0.0255696
0.166889
0.169714
0.0762634
0.0259867
0.0289266
0.0249833
3.6371
0.0409086
7.75911
26.1882
9.93511
0.0332977
0.0248567
0.0256717
22.4096
4.28531
0.0251634
0.0250377
0.111389
0.0942329
4.18727
0.0535502
0.0278311
0.0249368
6.38672
0.0261476
0.0256571
5.91826
0.0249403
0.0952777
0.0436818
1.13576
0.0246432
0.144295
7.54526
0.0290212
42.0479
11.1251
3.61412
0.0618942
6.35071
0.0250351
4.34744
0.0253193
7.4359
0.026386
0.205056
0.0251857
0.0255066
4.92918
7.89357
0.0253031
0.0762141
7.03551
0.0247459
5.14323
0.0606412
0.0571446
5.28137
0.025362
5.77328
4.04463
0.0265804
0.0248736
18.9354
0.140375
4.54367
0.0305774
0.500877
0.0259652
5.26613
0.117758
0.0251887
3.51246
0.0251853
0.0255129
0.0263502
0.0330915
8.26452
0.0259509
0.0318211
8.64131
0.0426546
0.0838371
0.026914
1.96052
0.0354794
4.3262
0.0254579
0.0255058
0.0255931
0.130203
0.0430412
0.0515682
0.0327296
4.15182
4.05881
0.0724972
0.0252435
0.0495402
7.37988
0.0255058
0.0256123
6.66424
0.375356
0.0253199
0.0396784
0.728258
0.0253342
0.0566294
0.0370614
0.0253581
0.0304682
0.0262231
0.0249363
0.025403
0.0306608
0.0947218
0.0383727
7.28206
0.0252226
0.0255856
4.2852
0.0259326
0.0908061
0.0256543
0.0253791
3.46891
0.0302177
0.0246616
0.180962
0.0249201
0.0254649
3.88077
0.0253675
4.40497
0.0249088
0.333009
0.427162
7.14121
0.056106
0.0250378
0.025087
5.23191
0.0256723
10.4359
0.0249182
0.0255835
4.69823
0.0255964
0.0328453
4.63044
0.0364308
0.444916
0.0249262
0.0253571
1.24648
4.57477
0.0249231
0.0253288
0.051099
23.7364
0.0287349
3.61546
8.21406
0.0251286
0.0770851
0.0303722
0.0253471
0.0252831
0.0253568
0.0253397
0.0798756
0.0251101
4.5697
0.0251131
2.69963
0.107371
0.110906
18.3982
0.12421
0.201464
1.3464
0.0335573
17.7967
0.0268218
0.02514
0.0254775
0.0251859
9.38439
0.0400219
3.6345
0.562071
0.0255994
0.0347779
0.0983089
0.0259038
0.0251205
0.0251902
24.4124
0.168087
0.0286976
0.0253386
0.0248699
0.0554185
0.0313776
0.0317759
0.025591
0.0253376
0.0255006
0.0248576
12.5165
0.042917
4.44744
10.0532
0.0264813
0.0256165
8.12479
3.9907
0.0437228
2.08691
0.0248595
0.0850137
0.0591202
0.0253247
0.0521598
0.520967
3.91303
7.7098
0.0249307
4.33485
0.0254083
0.0950377
0.0253879
1.31962
4.37814
15.6471
0.105214
14.7197
0.868248
0.0338021
0.0349163
0.0250331
0.871072
0.0254976
0.0256275
0.0258168
8.04855
0.180398
0.0259173
0.0550249
0.0278303
0.0247734
0.0254315
0.0265338
0.0254062
0.0253319
0.0250645
0.0251499
0.0253399
7.00541
4.29434
0.025373
4.72351
0.0654481
0.0345299
0.0923633
0.0254944
0.400008
4.19264
1.00141
1.77275
0.0712963
0.0309306
0.0249358
14.3176
7.83421
0.0256279
5.05292
0.0262507
0.128404
0.0254857
4.82463
0.470504
0.19705
4.83246
0.0254335
0.0251467
7.57953
0.118814
0.0252864
0.0253302
0.273667
0.0253156
0.61487
0.0248592
0.0285802
0.0257135
0.0253068
0.118221
5.67698
0.761635
0.025308
0.0251962
4.81219
0.031279
0.0250383
4.33315
0.0385389
0.0261198
0.0253153
0.0251244
8.17452
0.0255295
0.045347
0.0338542
0.603137
0.0824485
0.0789748
0.0638706
0.427753
0.0253589
0.0255451
8.07735
0.0249782
0.0552107
0.0253189
0.0255077
0.0255675
0.0259275
0.0566621
3.5417
3.52871
4.84058
0.0252916
0.0252297
9.36473
0.0252047
0.0835814
4.42746
0.039311
0.0252478
7.18394
5.60973
0.0254711
4.13842
6.01383
0.0438152
0.0255128
4.14881
8.76815
0.025404
6.91509
21.3615
4.46188
0.296533
0.442326
7.06652
4.60985
0.0251884
4.38015
1.55538
0.0785231
0.0250676
0.0255959
13.8143
0.963482
0.395491
0.0372422
8.9004
0.0542074
0.0329219
4.54084
0.0252742
0.0919689
0.0252796
0.125371
0.0262986
3.66448
3.71904
6.99846
12.9979
6.10891
0.0263201
0.0246998
0.0251435
0.0252922
0.0252122
0.135322
2.24935
0.02745
6.15182
0.0259646
0.507254
0.0256492
0.0256644
0.0248315
0.0406925
0.0256791
0.0260254
0.0435306
0.0764525
0.0257316
0.0260162
0.0271085
0.0248689
0.0585377
0.0660826
0.0253028
0.0318905
0.0254904
0.740528
0.0250785
0.0272005
0.025641
0.157052
0.0802601
0.0253146
0.0308462
0.0706752
0.0268611
0.0252153
0.0255591
0.0255761
6.99591
4.29174
0.0251116
0.10335
0.0580074
0.0253991
8.37115
0.0255523
5.75297
0.0251224
0.025478
0.0290822
0.109657
0.0437727
0.0253572
0.0253577
0.0305009
0.030764
4.81383
3.48049
3.57587
0.0259291
0.0251196
0.0253255
0.0265904
0.0273712
8.9106
0.025223
0.0255221
0.0305686
0.155563
0.0276121
6.32176
0.0253916
0.0254674
5.11836
8.15346
0.117624
0.0255076
0.0414833
10.7825
0.0249036
8.48721
0.0441701
0.0579891
9.82875
3.84274
0.0254546
0.106562
0.0254979
0.135708
0.0394056
0.0251054
0.0257037
0.0250418
0.0365587
5.10188
0.0253406
0.025338
0.0253589
0.054025
0.0252615
0.0246856
6.16354
7.26652
0.0249085
7.5949
0.0327295
0.133572
0.0249093
3.91813
0.0249783
0.0249397
0.433367
0.0255991
0.0637232
0.0254612
0.0258985
0.0291953
0.293957
7.21148
0.522772
0.0251066
0.0253611
0.0356936
0.0345781
0.0251914
0.27333
3.8679
10.102
0.0293413
0.0253921
0.0256262
0.0250479
1.89713
5.08824
4.1205
0.0399442
0.026427
1.2121
4.85727
0.731393
0.594962
5.0892
0.0613885
0.252583
0.0252586
0.0253176
0.0254689
0.0264023
0.0284192
0.392517
0.034628
7.38974
0.288548
0.0253165
0.0249457
0.0348926
5.41798
0.0251065
0.432029
0.461251
0.0252597
0.0253378
0.0253087
7.56594
0.0465453
0.0268089
0.0428325
0.0400053
0.026896
0.0311333
3.66575
3.71903
0.0246534
0.0258204
3.99185
0.0253067
0.0393698
0.0262884
0.0256932
0.0254704
6.09246
0.0255533
3.45729
0.0271458
6.66728
0.0253355
0.0254018
12.4031
8.98011
0.0248831
0.169453
8.78862
3.80116
7.24998
0.0252753
0.036435
0.0289233
8.28437
7.7587
0.0268682
0.0595762
3.63672
0.0759044
0.0403742
4.41606
3.98725
0.0254657
0.0256877
0.0258771
0.184248
0.240869
0.0249936
0.025373
0.455227
0.0251627
0.0348766
0.0250775
6.959
0.0869941
9.07251
3.34683
0.0571884
3.28316
0.0253439
8.33571
0.0249169
8.91728
0.0246824
0.0253686
0.0717658
0.0253206
3.60038
8.87293
0.0459527
0.250396
4.03139
0.0254673
0.0520343
0.0357158
6.5347
0.0283833
8.14564
0.171172
0.0253908
0.025888
0.0262915
0.0256859
7.59395
5.03226
0.0842857
0.0292354
8.81169
3.69284