/*--------------------------------*- C++ -*----------------------------------*\
| =========                 |                                                 |
| \\      /  F ield         | OpenFOAM: The Open Source CFD Toolbox           |
|  \\    /   O peration     | Version:  v2012                                 |
|   \\  /    A nd           | Website:  www.openfoam.com                      |
|    \\/     M anipulation  |                                                 |
\*---------------------------------------------------------------------------*/
FoamFile
{
    version     2.0;
    format      ascii;
    class       volScalarField;
    location    "300";
    object      p;
}
// * * * * * * * * * * * * * * * * * * * * * * * * * * * * * * * * * * * * * //

dimensions      [0 2 -2 0 0 0 0];


internalField   nonuniform List<scalar> 
27802
(
0.0337645
0.00810256
0.0770856
-0.05665
0.0126363
-0.316745
0.0121203
-0.195121
-0.0063871
-0.095283
-0.216398
0.341609
-0.0459077
0.358428
-0.232202
-0.421927
-0.412437
-0.00661681
-0.214134
-0.117034
-0.378872
-0.234137
-0.0166342
-0.0955359
-0.269837
0.0819372
0.00401927
-0.0685889
-0.00685591
-0.429053
-0.0947901
-0.141827
0.0324182
-0.0167708
0.0235158
-0.381448
-0.419422
-0.0136814
-0.0246244
-0.416524
0.332098
0.0234576
-0.0729731
-0.0148828
0.0648617
-0.174718
0.0261548
-0.42234
0.486268
-0.0577375
-0.201571
0.0785776
-0.239273
0.046499
-0.0224911
0.00598935
-0.126321
0.0260792
0.0575194
-0.204297
-0.0740662
0.0806032
-0.0161268
-0.0101648
-0.0148883
-0.00493513
-0.07687
-0.12814
-0.205465
0.00344472
-0.0149854
-0.118345
-0.162879
-0.0739307
0.0966126
-0.0425439
-0.0786695
-0.425699
-0.086947
-0.23548
-0.00659271
0.00195789
0.175249
-0.0036456
-0.0151116
-0.101405
0.00812798
-0.0886972
-0.334855
0.0419433
0.0203962
-0.080302
-0.00748902
-0.429759
-0.153235
-0.0794229
0.00187832
-0.0752643
0.0314927
-0.124247
-0.0249238
-0.0178487
0.184336
-0.0733018
-0.159105
-0.0155492
0.0368053
-0.0150607
-0.0222364
0.0687197
-0.422177
0.0207437
-0.016677
0.031276
0.0375425
-0.0100188
-0.0577674
0.0807088
-0.105652
-0.26292
-0.112476
-0.199458
-0.21765
0.0914922
-0.410923
0.208943
-0.0132412
-0.0617228
-0.421415
-0.017011
-0.152713
-0.132839
0.0138448
-0.427688
-0.13803
-0.0464794
0.28943
0.36543
0.0282912
0.0144595
0.348223
-0.0963121
0.164621
0.0783585
-0.0132603
-0.0597538
0.116958
-0.0859538
-0.0273297
-0.124121
0.0421737
-0.346843
-0.0729981
-0.244126
0.00654179
-0.0856128
-0.0455599
-0.0800534
-0.0151707
0.0203412
-0.0102581
-0.00409441
-0.319596
-0.00402026
0.0106694
0.00780013
-0.155776
0.00541088
0.0135902
0.0453214
-0.10344
-0.162829
-0.40387
-0.359282
0.00711267
-0.210418
-0.232308
-0.193958
-0.0101201
0.0362142
-0.184661
-0.0641816
-0.334221
-0.0749428
-0.0151347
0.430598
-0.409158
0.141855
-0.0949537
0.51933
-0.298976
0.0223518
0.0715952
-0.151761
-0.0233694
-0.347615
-0.0849697
-0.245438
-0.153207
-0.108989
-0.0537967
0.0201221
0.0319911
-0.0580661
-0.301828
-0.142391
0.00596051
-0.00732428
-0.420485
-0.0182268
-0.0269242
-0.136432
-0.057582
-0.39304
-0.0149677
0.00375192
-0.150566
0.057031
0.022054
0.0222551
-0.151774
0.0110651
0.0359859
-0.172244
0.0466301
-0.150308
-0.0258869
-0.0870063
-0.014714
0.0460509
0.0310209
-0.0793073
-0.142584
0.0234565
0.0221166
-0.301092
0.294391
0.197819
-0.0138285
0.272159
-0.14697
-0.33748
-0.0652034
-0.109122
-0.372435
-0.0465088
0.00740012
-0.422129
-0.0152636
0.00595468
-0.208942
0.00310443
-0.219818
0.0617721
-0.0903805
-0.114318
-0.0664032
-0.173745
0.0043956
0.0965368
0.00218157
-0.190338
-0.107049
-0.0943068
-0.000501968
0.0079809
0.059986
0.428962
-0.111479
-0.137866
-0.426508
-0.0707152
-0.367096
-0.00398905
0.00288951
0.0235503
-0.129933
0.0260756
-0.0198071
-0.109563
0.0628819
-0.0815097
-0.264899
-0.0730601
-0.41085
-0.0517677
-0.191699
-0.00455875
-0.200927
-0.245679
-0.297038
-0.0772529
-0.20757
0.059138
-0.014582
-0.00195762
0.0643491
-0.13735
-0.412339
-0.199966
-0.299824
-0.029129
-0.0591642
-0.336499
-0.151611
0.0258382
-0.165386
0.00248355
-0.170224
-0.0187256
-0.0569853
-0.241512
-0.423731
0.025735
-0.394537
-0.415916
-0.176228
-0.00582189
-0.0689402
-0.403999
-0.0182303
0.0911696
-0.140803
-0.0597543
-0.102035
-0.00776496
0.176059
0.268107
-0.110228
0.00209327
-0.0737855
-0.0032325
0.0198043
-0.142381
-0.196729
-0.0247385
0.0245913
0.0412527
-0.23901
-0.0432838
-0.0180073
-0.310939
0.0164459
-0.288722
-0.42622
-0.382764
-0.0521105
-0.00390662
-0.0464201
-0.00480265
0.423632
0.42595
0.000894928
-0.172591
-0.0193256
-0.0182338
0.0465964
0.00163628
-0.151808
-0.00429546
-0.152891
-0.336495
-0.202313
-0.0134557
-0.0194566
-0.0201832
-0.335916
-0.004397
-0.0975245
-0.0146419
-0.140622
-0.170177
-0.42758
-0.0457181
0.063307
-0.02555
-0.0531267
0.0236376
-0.09736
0.0905736
0.117674
0.0195767
0.0368092
0.0219986
-0.0216821
-0.421788
0.289874
-0.0903918
-0.357709
0.329902
0.0189759
-0.0686734
0.0434491
0.00944784
0.198405
-0.0348979
0.0207306
-0.0818282
-0.313119
-0.0764032
-0.0737432
-0.415602
0.0048477
0.0261445
-0.0718053
-0.422769
0.0257894
0.109055
-0.161864
-0.0599361
-0.0193686
-0.0174934
-0.115776
-0.155574
-0.0725505
-0.0778391
0.00268853
-0.313071
-0.0182789
-0.0940261
-0.0664728
-0.425572
0.0215109
0.0116714
-0.0453735
-0.0438004
0.0471098
0.0188557
0.0224678
0.283705
0.0287266
0.01036
-0.171519
-0.196146
-0.0716073
-0.416168
-0.196069
0.330623
-0.205315
0.00911689
0.152303
-0.160429
-0.0515739
0.0240866
-0.0203783
-0.0514503
0.238601
-0.0381402
0.0314523
0.00255237
-0.347451
-0.0580187
-0.0382752
0.00195433
-0.405639
0.0212256
-0.100084
0.0205923
-0.0147103
-0.0511424
-0.234549
0.00553575
-0.0144918
-0.241272
0.0273132
-0.118541
-0.106692
0.286372
0.0209196
-0.103133
-0.261086
0.326073
-0.148783
-0.1044
-0.00178307
0.00740461
-0.00992085
-0.062315
0.0255739
0.0675455
0.00674292
-0.0652875
-0.053706
-0.111221
0.00204102
0.0354691
0.240967
0.0565581
-0.0255566
0.00535876
-0.00409298
-0.186
-0.0826292
0.297308
-0.369477
-0.006411
-0.0812562
-0.0772509
0.111138
-0.041244
-0.0132566
0.00828852
-0.150724
-0.214069
-0.0497006
-0.405367
-0.0842942
0.0284762
-0.347122
-0.00937347
-6.14401e-05
-0.0459628
0.0048657
0.0967831
0.014484
-0.0616568
-0.413347
-0.39496
0.119802
-0.323794
-0.0993032
-0.0967488
0.0214952
0.021825
-0.0533342
0.0361067
0.0226068
-0.124461
0.00137041
-0.296203
-0.0682784
-0.217528
0.118471
0.00538543
0.0420217
0.0288674
0.0262862
0.0890871
-0.202424
0.00162939
-0.416737
0.0884928
0.460053
0.201582
-0.169057
-0.0167932
0.0206377
-0.0774788
-0.140538
0.0251014
-0.143814
-0.0338004
0.0120299
-0.00622958
-0.245395
-0.126119
-0.234099
-0.114982
0.447979
-0.00461015
-0.117235
0.0323222
0.0118343
0.339223
-0.106666
0.00498922
0.0494881
0.00307016
-0.0821014
-0.0244101
-0.0100205
-0.0169989
-0.00132282
-0.098828
-0.0235097
-0.426593
-0.0934442
0.019914
-0.091446
-0.127338
-0.123941
-0.171295
-0.0782043
0.0055087
-0.00892054
-0.00651972
-0.378098
-0.00408478
-0.152593
-0.305283
0.12144
-0.343287
-0.0650356
0.0249683
0.0325569
-0.0762894
-0.0742838
-0.0011832
0.00614696
-0.367215
-0.0687753
-0.240624
-0.381989
0.187591
-0.00244203
0.418735
-0.420882
-0.00356078
-0.344512
-0.109185
-0.139899
0.20877
-0.383056
0.0898258
-0.114955
0.0083089
0.291683
-0.000794033
-0.0726767
0.174612
0.209388
-0.389797
-0.0734346
-0.195743
-0.0500139
-0.350214
0.00735811
0.0139874
-0.0184614
0.312132
0.0236368
0.0776933
-0.00593493
-0.120392
0.118449
0.00674671
0.0277026
-0.0896759
0.362128
-0.0685058
-0.306601
-0.0263516
-0.0983762
-0.071463
-0.0672673
0.0127238
0.127311
-0.3034
-0.117671
-0.0245284
0.0022198
0.448931
-0.11938
0.0235189
0.423468
0.0219139
0.171685
0.0230399
0.0228505
0.0079157
-0.189034
-0.0627254
-0.0134133
-0.0677019
-0.424534
0.022033
-0.00168867
-0.357504
0.0690471
-0.179869
0.0144028
-0.0201121
-0.00561179
-0.14652
-0.0672948
0.0237568
-0.0861115
0.00581378
-0.0508152
-0.123062
0.0233144
-0.0574127
-0.109552
-0.00682391
0.0719426
-0.00819797
-0.417363
-0.317369
-0.0977728
-0.0261617
-0.379726
-0.36337
-0.00797111
-0.388408
0.0465748
0.00887538
-0.00378025
0.0112607
-0.0152402
-0.31776
-0.000473298
0.0228146
0.211125
-0.147008
0.0210968
-0.42418
-0.106872
-0.273182
-0.0201419
-0.047104
0.00824083
-0.00384782
-0.177331
0.00770832
0.0288329
0.00877905
-0.0597923
-0.0213674
-0.139676
-0.280524
-0.126659
0.0225803
0.133808
-0.0745448
-0.0186707
-0.0173726
-2.99546e-05
-0.0136905
0.296839
-0.377428
-0.119146
-0.346672
-0.000883719
-0.0524085
-0.00576114
0.0229049
0.421224
0.0105309
-0.426039
-0.18786
-0.319525
-0.418943
-0.0826726
0.0275644
0.0423345
0.463353
-0.0997401
-0.0755249
0.320563
-0.00225326
-0.0560557
0.0317681
-0.0782773
-0.170988
0.0253512
-0.0178207
-0.0562916
-0.00311467
-0.00650448
-0.390864
-0.0931338
-0.419948
-0.194555
0.0272238
-0.0729642
0.033143
0.228869
-0.0169063
-0.0540113
-0.110934
0.016992
-0.36221
-0.394482
-0.0717404
-0.0685523
0.0273945
0.02707
-0.102028
-0.0770027
-0.0310621
-0.0800509
-0.0543137
-0.139352
0.00760036
0.0265626
-0.140911
-0.023794
-0.114189
-0.240361
-0.000193526
0.0754534
0.103834
0.00313302
-0.085718
-0.0254994
-0.372238
0.117955
-0.353295
0.0791992
-0.0914581
-0.323498
-0.0498665
0.361341
-0.101813
0.0272447
-0.0721536
-0.0722208
-0.392186
0.125009
-0.00394483
-0.143549
0.0239388
-0.027122
-0.192809
-0.296569
-0.0690752
-0.30678
-0.00209637
0.01123
-0.0658005
-0.155013
0.0125166
-0.141385
-0.146819
-0.198043
0.00123047
0.0687975
-0.13648
0.00365924
0.190816
-0.00618258
0.109945
-0.405331
-0.253262
0.096609
0.123893
0.123183
0.0270375
0.0102129
0.00891586
-0.185033
-0.156514
-0.0327677
0.0104919
-0.0502547
-0.0976438
-0.19632
0.156995
0.0371683
0.352775
-0.420564
0.0467804
-0.0851469
-0.0828871
-0.0773065
-0.405259
0.0231166
-0.03057
-0.00827939
0.00182923
-0.372265
-0.373226
-0.158818
0.0626926
-0.0859064
-0.059243
-0.397562
0.00498954
-0.244984
-0.105211
-0.418166
0.0208997
0.0102854
-0.0524192
0.00374857
-0.26824
-0.082463
-0.135375
-0.235185
-0.179309
-0.058421
-0.343772
-0.100923
-0.136046
-0.297683
0.0122814
-0.202972
-0.409626
0.0311509
0.00651932
0.0240213
0.105845
-0.0608319
0.150339
-0.00495563
-0.202699
0.0017099
0.0767999
-0.00295434
0.0104631
0.0100798
-0.0430589
0.012085
-0.0768059
0.0065757
0.161405
-0.317157
0.519984
-0.026533
0.00996837
-0.0531782
-0.0185842
-0.117734
-0.00919954
-0.202012
-0.0718726
-0.138263
0.291094
0.00225888
-0.0135725
0.212045
-0.141203
0.0225025
-0.294097
0.00795799
-0.0744438
0.0234986
-0.00518096
-0.419146
-0.174037
-0.00902942
-0.270832
-0.257199
-0.0989333
-0.0568775
-0.0249834
-0.408761
0.0898102
-0.272411
-0.0425184
0.212992
0.0394288
0.0100168
0.0564328
-0.240742
-0.382823
-0.170345
-0.376653
-0.427178
-0.0603582
-0.00913864
0.00524588
-0.116736
-0.239706
-0.0733201
-0.121155
-0.0359249
-0.0156143
-0.0542718
-0.156098
-0.086015
0.00464181
-0.281377
-0.0499583
-0.131045
0.00269705
-0.139158
0.220515
-0.00868422
0.000427258
0.0206591
-0.0904077
0.00619114
-0.0446306
-0.0852466
0.371352
-0.0244013
-0.0849276
-0.0761728
-0.0608863
-0.16543
-0.385773
-0.335162
-0.0633564
0.00530391
0.444673
-0.0385975
-0.0321857
-0.289025
-0.190527
0.453866
-0.309753
-0.0742345
-0.29034
0.0097625
-0.263682
-0.0722758
-0.0858589
0.168066
-0.0127711
-0.0191822
-0.255022
-0.0488049
-0.0141858
0.023724
0.0160398
0.00479801
-0.00220928
-0.0133762
0.0201761
-0.0655906
0.000910861
-0.184972
-0.0110996
-0.375341
-0.194689
0.00954325
-0.147648
3.91707e-05
-0.301362
-0.17042
-0.072869
-0.138547
-0.0806817
-0.0207949
-0.0666083
-0.0169441
-0.0717739
-0.422296
-0.263847
-0.246638
0.0076964
-0.00717554
-0.0155083
-0.286569
0.0239185
0.0232232
-0.096591
-0.00892574
-0.0243673
0.273558
-0.00454571
-0.00763586
0.0221097
0.446788
0.067073
0.0124049
-0.0986639
0.481584
0.00313647
-0.0174508
-0.0886573
0.0121338
-0.021905
-0.302391
-0.0668676
-0.000737045
0.00952735
-0.210324
0.0131025
-0.0265718
0.0264814
0.0174841
-0.415861
-0.333995
0.0202266
-0.160967
0.0287071
-0.13973
-0.056912
0.0521729
-0.412924
-0.42048
-0.0660281
-0.0241465
-0.00383359
-0.196487
0.377662
-0.375247
-0.127508
0.00938457
-0.117565
0.0426179
0.516896
-0.0639558
-0.424806
0.00720597
0.372015
-0.363763
-0.21676
0.0258457
-0.0594695
-0.315197
0.00233809
0.050784
-0.000105147
0.0221321
0.0297959
-0.025658
0.0643627
-0.204397
-0.332433
0.00474901
0.0232708
-0.0754615
-0.044473
0.0959158
0.0282333
0.0180626
-0.268877
0.00893348
0.023931
-0.0530694
-0.391338
-0.0542921
0.0176666
-0.35261
0.00339523
0.0767996
-0.0886069
0.00246086
0.020665
-0.409782
-0.0262198
-0.0946585
0.168936
-0.0565172
0.0572498
0.0593
-0.17103
-0.0840083
0.494889
-0.152964
-0.143585
-0.193316
0.0262156
0.0665113
0.0198255
-0.358769
-0.422756
0.0371921
-0.251742
-0.00895372
-0.315929
0.0226127
0.0199251
-0.0553128
0.276977
-0.403577
-0.0223135
-0.342523
-0.0721543
0.00473338
-0.0835498
0.00794951
-0.0359049
-0.0135465
-0.0389008
-0.0842196
0.304576
0.00871714
-0.0783665
-0.103955
-0.00752619
-0.380584
0.00981608
0.0591151
-0.296865
0.0779976
-0.208288
0.00823
0.00010464
-0.0840543
-0.0147887
0.0111631
-0.174131
-0.00490311
-0.00601048
-0.394876
-0.00313645
-0.00706123
-0.0672961
-0.398179
-0.0180355
0.0205519
-0.00346083
0.0570725
0.0182936
-0.0990687
-0.194371
-0.202893
0.200264
-0.0238155
-0.00507009
-0.265584
-0.135748
-0.212487
-0.00342287
-0.426943
0.3565
-0.425569
-0.200597
-0.334939
0.0578773
-0.215872
-0.282392
-0.148516
-0.00957361
0.0301814
-0.118043
-0.0181231
0.286612
-0.0650102
-0.247517
-0.321017
-0.0703305
0.191647
0.0107971
-0.368549
-0.184071
-0.135782
-0.0950757
0.41627
0.0441828
-0.0396477
-0.105471
-0.186686
0.184647
-0.0442568
-0.00565093
0.0474716
-0.0137102
-0.0155249
-0.0656477
0.0261609
-0.0349366
-0.41658
-0.0887814
0.0234521
-0.119395
0.0128104
0.0144379
-0.313026
-0.0633412
0.00219302
0.0221512
-0.191582
0.00308024
-0.0154425
-0.00384085
-0.209833
0.371552
-0.180664
-0.275516
-0.402367
-0.123628
0.0239504
0.0268439
-0.0754819
-0.0763127
-0.150127
-0.170611
0.0462084
-0.104676
-0.138261
-0.286372
-0.00985575
-0.080335
0.0333341
-0.0754083
-0.144399
-0.34666
-0.278865
-0.00854527
-0.100458
-0.403196
-0.398777
0.0268863
0.227485
-0.0697165
-0.180753
-0.1671
-0.141568
0.0318884
-0.252782
-0.0779338
-0.0747372
-0.230463
-0.0158428
-0.113852
0.512237
-0.426551
0.177154
0.047252
-0.0753609
-0.0447884
0.0237453
0.0118349
-0.144489
0.0728252
0.0551094
0.0189848
-0.10521
-0.0816875
-0.0525525
0.203859
-0.402158
0.00851718
0.00817555
-0.0177196
-0.0492675
0.0173936
0.0214506
0.0227756
0.0498605
-0.371379
-0.0954135
0.215257
0.500847
0.0818118
0.344073
0.0152778
0.472363
0.00908543
-0.355284
-0.0610301
-0.011137
-0.426198
-0.312419
0.0436968
-0.127775
-0.366597
-0.382524
0.0150608
-0.370818
-0.371222
-0.338615
0.0344453
0.0115507
-0.287366
0.50818
-0.206719
-0.353936
-0.187553
-0.200481
0.0230911
-0.0395986
-0.200804
0.0115801
-0.00593139
0.0130577
0.402435
0.0326278
-0.142155
0.374031
0.0230068
0.0317548
0.0225329
-0.10683
-0.352927
0.057183
0.0260258
-0.015198
-0.269843
-0.0994441
-0.082669
-0.0777096
-0.313061
0.307019
0.352089
0.0101513
-0.306082
-0.095587
-0.072879
0.256328
0.00848332
-0.00751928
-0.159304
-0.0759237
0.0133637
-0.138662
-0.151212
0.00425419
0.454938
-0.0908832
0.0232361
-0.045446
-0.0386939
-0.13561
0.0357528
0.00358027
-0.0181696
-0.317294
-0.0601521
-0.280969
-0.311923
-0.0879453
-0.00856058
-0.193632
-0.0210455
0.029072
0.0308859
-0.371403
-0.00173913
0.0826144
0.0350714
0.0235205
0.0151561
0.0311004
-0.11793
-0.0615362
-0.0475706
0.00216247
-0.0732585
-0.058369
-0.0789662
-0.00157928
-0.095531
0.0213207
0.0257363
-0.227908
-0.0695462
0.0260731
-0.225107
-0.316092
-0.207819
-0.00919448
0.163784
-0.131395
0.307134
0.0244114
0.0464669
-0.0686084
-0.117206
-0.121335
0.025462
-0.00186034
-0.389109
-0.298639
-0.206404
0.0355844
-0.0607456
-0.0991378
-0.0258262
-0.00483208
0.0346236
-0.402914
-0.0801674
-0.157267
-0.277918
0.0146737
-0.00540538
-0.113301
-0.376778
-0.186635
-0.0050876
-0.244703
-0.395989
0.0602728
0.0383018
-0.0726889
-0.159615
0.0708887
0.0223983
-0.146768
0.0234343
0.000997778
0.0341292
-0.214437
-0.246614
0.00672139
0.0068614
-0.426063
-0.0239394
0.00259527
-0.285374
-0.175095
-0.349062
-0.408163
0.0209353
0.00969938
-0.0437341
-0.118488
-0.0653217
-0.254351
-0.0705851
-0.043223
0.0231557
-0.412749
0.0358892
0.0890012
-0.414596
0.00125818
0.0267525
-0.0521837
-0.297346
0.0413932
-0.0758304
0.0070178
0.0150658
-0.0480742
-0.248188
0.00451792
-0.0326186
-0.0118297
0.0286421
-0.0905249
-0.259446
0.284551
0.00746993
-0.0415681
0.0486167
0.448323
-0.362864
-0.00344775
-0.07737
-0.063014
-0.0744897
-0.160542
-0.0334173
-0.13672
0.517421
-0.00588252
0.380182
0.0088932
-0.0249796
0.0933618
0.0140868
-0.0165736
-0.0784758
0.00690602
-0.300098
-0.0748037
0.00435303
0.00180357
0.182191
0.0490016
0.0316541
-0.012234
0.0216904
-0.191093
-0.0208906
-0.157085
-0.230263
-0.00565969
0.130604
-0.338093
-0.122028
-0.109848
-0.404814
0.00373638
-0.388106
-0.153877
-0.0131454
-0.406549
0.0254007
-0.406138
-0.0871105
0.288115
-0.373121
-0.351676
-0.0460591
0.0582146
-0.0958812
0.0542436
-0.120087
-0.153521
-0.233106
-0.0814669
-0.00165128
-0.0801202
0.350881
-0.0135523
-0.00349308
0.0235405
0.293898
-0.108597
-0.120333
-0.147203
-0.0235083
-0.0800747
-0.0161091
-0.106777
-0.125826
-0.311134
-0.00696237
-0.105492
-0.0026753
0.319114
-0.379054
-0.0824198
-0.155677
-0.197457
-0.227111
-0.0131788
0.022011
-0.000169048
-0.228679
-0.359799
-0.0696191
0.0192215
0.00628062
0.015507
-0.00691311
-0.340975
0.0116103
-0.0670775
-0.158322
-0.257108
-0.0622441
-0.104857
-0.222367
-0.186021
-0.000427043
-0.0889813
0.0151711
-0.136634
-0.0673044
0.163673
0.20765
0.278624
-0.0262926
-0.0641659
0.0249509
-0.0765724
-0.179888
0.00769594
-0.0918241
0.0127666
0.00948423
0.00498155
-0.314233
-0.0256184
-0.402371
-0.00180442
-0.00490629
-0.127879
-0.122296
0.00910962
-0.330378
0.0203147
-0.329241
-0.0123474
0.0224707
-0.229348
-0.239908
-0.125425
0.0184213
-0.0143348
0.0733489
-0.215228
-0.0648793
-0.0259008
0.0761384
0.206161
0.0975263
-0.0736085
-0.02421
0.0715386
-0.0237043
-0.0663137
-0.0582082
-0.100037
-0.115737
0.0017739
0.0098273
0.00978813
0.0452818
-0.0713215
-0.0342387
0.0418319
-0.0424944
-0.426003
-0.0376233
0.0216923
-0.0639999
0.0616246
-0.0183078
-0.096368
-0.0533581
0.0219372
-0.0119847
0.027378
-0.00304524
-0.054767
0.107823
0.0224265
0.167446
-0.213053
-0.145359
-0.184671
-0.0100576
-0.394805
-0.0581731
-0.0704551
0.225555
-0.187776
-0.326577
0.0560294
-0.11535
-0.123802
-0.00568795
-0.398241
-0.0821941
0.028349
-0.100884
0.0215863
-0.0151041
0.0633362
-0.0730611
-0.106015
0.05299
-0.0180273
-0.170366
0.00498075
0.0271681
-0.0570783
0.352419
-0.264973
-0.0854577
-0.207338
-0.0162968
-0.139596
0.0266748
0.214031
-0.0384476
0.018673
-0.0575982
-0.000473495
-0.00326971
-0.1864
-0.00965267
-0.0235802
-0.363354
0.0803947
-0.00201894
0.0668349
-0.0587659
-0.395524
0.509631
-0.0588483
0.00793647
-0.175838
-0.114471
-0.0217755
0.0228356
0.00761558
0.00702047
-0.189985
-0.231888
0.137733
0.162307
0.0330104
0.32989
-0.0191021
-0.018761
-0.0901027
-0.403423
-0.0656897
-0.110465
-0.329609
-0.0182652
-0.0651732
0.00738003
-0.0143443
-0.0148266
-0.0537476
-0.121987
-0.0686297
-0.117041
0.0543341
-0.0905001
-0.00517797
-0.129985
0.0469238
0.237207
-0.210533
0.0263999
0.00656564
0.0573652
-0.0640937
-0.0865408
0.0361287
-0.0179854
0.0072791
-0.052302
-0.00670915
-0.0735337
0.0562853
-0.116857
0.010993
0.225359
-0.1557
-0.0753858
-0.381741
-0.097124
-0.176207
0.0261497
-0.0751229
0.11556
0.00628017
-0.0270142
-0.321327
-0.414429
-0.118487
0.321218
0.0269005
-0.0721095
-0.0164196
0.481217
-0.0453152
0.0233182
-0.0820063
-0.150241
0.00757189
-0.0523785
-0.0909706
0.0732665
-0.314625
-0.426464
-0.273597
0.0740753
-0.0183445
-0.114295
0.00548174
-0.0717589
-0.175039
-0.313973
-0.0235559
-0.0741722
0.00628255
0.0555248
-0.0921148
0.0328646
-0.13093
-0.161764
-0.0230182
-0.164893
-0.0204725
0.00101484
0.0228135
-0.0870122
-0.143169
0.0108424
0.407378
-0.241154
-0.0677967
-0.0628441
-0.160381
-0.126496
-0.237215
0.0322204
0.0045442
-0.167032
0.249048
0.0200122
-0.356258
0.0205419
-0.221693
-0.0983943
-0.203297
-0.0759408
-0.136325
0.0224593
-0.121656
-0.0704659
-0.146028
-0.0557851
0.479593
0.0317497
-0.144974
-0.0404078
0.40233
-0.412341
0.017749
0.00666827
-0.0236823
-0.0792473
-0.0806199
0.0250798
0.173951
-0.420431
-0.00211552
-0.105869
-0.0662548
0.0135197
0.503176
-0.214025
0.0459945
0.0207239
0.0150175
0.506787
0.0262322
-0.0887385
-0.408452
-0.389313
-0.00104491
-0.3749
-0.18158
-0.399169
-0.268297
-0.312739
-0.161264
-0.0994569
-0.0105863
0.00729944
-0.155477
-0.00566551
0.0739811
-0.0650055
-0.0104053
-0.169064
0.515555
0.0514929
-0.345229
0.0105271
0.277716
-0.0867377
-0.0185905
-0.0644489
0.0464126
0.0312866
-0.0100511
-0.00612246
-0.0337421
-0.119053
-0.386414
0.125367
-0.408449
0.0742463
-0.0160469
0.517715
-0.0792348
0.054212
0.0794857
0.139908
0.485556
-0.130542
0.0323232
-0.063271
0.0532525
-0.00937576
-0.136779
0.0258502
-0.181796
0.0255637
-0.0522573
-0.129144
-0.000685592
-0.139385
-0.13038
-0.18487
-0.0869652
-0.0575848
0.0345061
0.0238803
-0.0390114
-0.0226579
-0.304959
-0.276476
0.00770992
0.00748413
-0.233211
0.0177399
-0.136389
0.0260149
0.00368318
-0.344862
-0.00335876
-0.0648527
0.010628
0.00489556
0.0410621
-0.00466216
0.0493026
0.00821307
-0.353717
-0.0804106
-0.0316002
0.000596013
0.294452
-0.0743052
0.0595962
-0.172354
0.304063
0.251187
0.267248
-0.00150384
-0.270165
-0.312625
-0.226828
-0.00386563
0.10788
0.048987
-0.0755126
-0.236464
-0.00243454
-0.140831
0.196999
0.0579285
-0.278098
-0.0977284
-0.0814758
-0.41646
0.15105
0.0520139
-0.122502
0.010681
0.0212674
-0.0729043
-0.0294999
-0.0150119
0.00297174
-0.106363
-0.0144873
-0.05868
-0.0531482
0.455879
0.0776382
-0.14101
-0.0746031
-0.189081
-0.288604
0.0209998
-0.204129
0.015362
0.167464
0.00442804
-0.0775573
-0.0745635
-0.00267039
-0.0248878
-7.36193e-05
-0.105535
0.00306048
-0.265561
-0.340941
-0.0678464
-0.357462
0.0473373
-0.0440336
-0.0379347
0.0449332
0.0386529
-0.146835
-0.0406216
-0.276599
0.0322135
-0.140388
-0.290111
-0.378283
0.1709
-0.100911
-0.412953
-0.282617
0.0166911
-0.0177776
-0.222787
0.000887892
-0.0333411
0.23958
-0.0180292
0.0958253
0.0457463
0.0489774
-0.0269262
0.0417709
-0.0119194
-0.101096
-0.306966
-0.141891
-0.141455
-0.00653571
-0.273535
-0.42353
-0.41768
-0.353559
-0.0978492
-0.0859038
0.0514073
-0.0876977
0.0241505
-0.0220198
-0.273128
0.0210787
-0.00957426
-0.0679912
-0.00448465
-0.109973
-0.377332
-0.0594795
0.00917773
0.00620142
0.0480915
-0.107762
-0.0295758
-0.101885
0.098971
-0.398739
0.0225977
0.241496
-0.00887219
-0.0746665
-0.0404491
0.136177
0.00684136
0.0880442
-0.385681
0.0100242
0.382974
-0.173381
-0.377025
-0.098539
-0.100053
-0.143435
-0.182434
-0.143889
-0.293043
-0.425889
-0.078829
-0.323075
0.00193453
-0.099991
-0.163603
-0.351329
-0.199172
0.0291501
-0.00611895
0.210791
-0.201567
0.0113666
-0.042417
-0.117824
0.050062
0.0217354
0.0547299
-0.111191
-0.0237933
-0.0118983
0.457012
-0.393208
0.0259214
-0.0773661
0.377138
-0.0106891
-0.069366
0.285656
0.0723737
0.474879
-0.364239
0.208018
-0.286962
-0.0576695
-0.232031
-0.378349
0.0246083
-0.0102576
-0.259817
-0.0722618
0.0061673
-0.132171
-0.0187689
0.00859514
-0.0140209
0.00679255
0.023932
0.0120753
-0.117221
-0.0637073
-0.243066
0.120623
-0.00414926
0.431733
-0.0572409
-0.116323
-0.0763513
-0.306853
-0.0220293
-0.369169
-0.00920467
-0.104154
-0.218523
-0.100635
-0.0819459
-0.424939
-0.111831
0.0844554
0.204393
0.0574534
0.0255385
0.459297
-0.0682822
-0.0894237
-0.0160347
0.0038993
0.0836719
-0.375978
0.293683
0.109754
-0.138679
-0.272199
0.118898
-0.416521
-0.0817353
-0.013447
0.0242793
-0.408312
-0.172237
-0.345589
0.0822415
0.0341634
0.00845555
-0.166323
0.12646
0.0389118
-0.235072
-0.184826
-0.0414044
-0.199095
-0.304059
-0.0428259
-0.283766
-0.0124044
0.000995746
0.190435
-0.00149034
-0.0958504
0.0215724
0.0216967
-0.0674868
0.0118437
-0.0752496
-0.165955
-0.0266891
-0.0117501
0.0105402
0.100158
-0.264002
-0.153964
0.487495
-0.119518
-0.247889
-0.145284
-0.153009
-0.00487493
-0.112462
-0.000988668
0.050448
-0.143813
0.0215188
-0.0608779
-0.174471
0.00708468
-0.0872284
-0.376601
0.0988111
-0.39971
0.0470743
-0.393597
-0.272913
-0.0119311
0.0546511
0.340461
0.0353021
-0.291804
-0.31808
0.0540899
0.127958
-0.0713669
-0.0667641
0.00673876
-0.160493
-0.413447
0.019757
-0.127095
-0.0615094
-0.055708
0.00249888
-0.42532
0.00904689
-0.0828322
0.184493
0.0351277
-0.132113
0.0409325
-0.149932
0.0733054
-0.124186
0.0704151
-0.145623
-0.161546
0.128863
-0.28414
-0.0872625
-0.421947
-0.0969875
-0.0870363
0.0259287
-0.0655529
0.0366812
0.00710387
0.00148342
0.00530467
0.0307465
-0.419899
-0.00531454
-0.186381
0.00607492
-0.21427
-0.0116254
0.0335654
-0.00338174
-0.0403226
-0.309949
-0.128078
-0.172508
0.023702
-0.344025
-0.184593
-0.0232127
0.00236964
0.0222139
-0.103845
-0.200463
-0.0869367
0.00826843
-0.168637
0.000760795
-0.17605
-0.0702739
-0.422844
0.169709
0.0300336
-0.0012431
-0.106428
-0.0869557
0.0962238
-0.127086
0.0190624
-0.200473
-0.017632
-0.317142
-0.187299
0.0119179
-0.0790295
0.0220705
0.0125157
-0.00544693
-0.0246362
-0.213008
-0.231818
-0.382209
-0.377398
-0.0556904
-0.126364
-0.114151
-0.234948
-0.0205065
0.0252701
-0.234274
-0.1415
0.321735
-0.0580018
-0.106713
-0.0662815
-0.133765
0.423666
0.00859655
0.0693537
-0.279652
-0.160736
0.105403
-0.414371
0.0230483
-0.0208595
-0.040888
0.141311
0.114274
-0.155073
-0.000246261
0.00696381
-0.00862928
-0.0848964
-0.0170776
-0.263665
0.00729052
-0.0830715
-0.081235
0.00711454
-0.140765
0.00615682
-0.0265911
0.0577079
-0.132111
-0.171917
-0.312275
-0.186998
-0.0132636
-0.00581211
-0.073417
-0.404978
-0.0700433
0.0901654
-0.0726643
-0.1576
-0.337902
0.0561581
-0.355507
0.473736
-0.092914
-0.0853249
-0.0533258
0.00851981
-0.112926
0.047461
-0.104162
-0.0810654
-0.0366249
-0.0132848
-0.0642454
-0.337909
-0.280822
0.00445586
-0.310391
-0.160952
-0.19497
0.366229
0.101393
-0.0985581
0.266852
-0.012888
-0.0099662
0.514384
-0.34486
-0.167988
-0.412754
-0.293827
-0.0818695
-0.361972
-0.364512
0.00109048
-0.420248
0.169988
0.00986713
-0.0686282
-0.0418037
-0.141496
0.0217163
0.0375087
-0.271257
-0.189656
0.014972
-0.0932324
-0.169295
-0.0545077
0.0960669
-0.11445
0.0103367
0.00646647
-0.211699
-0.071536
-9.6682e-06
-0.133323
-0.00437925
-0.0173491
-0.42896
0.0200902
-0.175433
-0.0161286
-0.286602
-0.0627442
-0.0088226
0.166437
-0.296824
-0.00181799
-0.0637457
0.0214276
-0.293911
0.000103569
-0.125445
0.21634
-0.214674
0.0136625
-0.290166
-0.280042
-0.00786337
0.0474399
-0.00398598
-0.00358323
-0.073933
-0.150587
-0.0927666
-0.386531
-0.203165
0.0161929
-0.135897
0.131137
-0.00725878
-0.0225532
-0.072476
-0.0576246
-0.208927
-0.13024
-0.0757585
-0.22975
-0.00556619
-0.0199312
-0.0374545
-0.305451
-0.0119779
-0.0590729
-0.077212
-0.105351
0.0183719
-0.0661247
0.0109381
-0.302197
-0.247623
0.0114051
0.0513662
0.0836638
-0.0620534
-0.00102689
-0.30382
-0.0165735
-0.308586
-0.0039777
-0.233225
-0.0614312
0.16693
-0.110951
-0.0176396
0.32527
0.0255581
-0.00323046
-0.0803407
-0.0859543
-0.24985
-0.0097996
0.0594995
0.0129032
-0.0713123
-0.0245399
0.222072
-0.0419477
-0.0474254
-0.00885858
-0.0656614
0.0913038
-0.303205
-0.314981
-0.361246
0.101272
-0.0102594
0.00673061
-0.0673817
-0.0965403
0.000343357
-0.0204694
-0.149267
-0.167168
-0.0657516
-0.12346
0.0988529
-0.0240906
-0.224791
-0.0437833
0.00819697
-0.393288
-0.0094026
-0.17844
0.190636
0.467358
-0.0158572
-0.212525
-0.416434
0.110172
-0.422741
-0.228922
-0.0884556
-0.0714471
-0.268581
-0.0228324
-0.37724
0.0349291
-0.0953971
-0.0454702
0.0292293
-0.00412602
0.00766933
-0.424965
-0.134809
0.030717
-0.0914967
-0.087957
-0.0146363
-0.168692
-0.0897973
-0.10331
-0.170762
0.0400571
-0.365709
-0.10454
-0.0472183
-0.00944988
-0.0538355
0.33109
-0.414415
-0.0593147
-0.263218
0.0592485
-0.11944
0.329817
0.00618922
-0.0570212
-0.00325088
0.007868
-0.0360977
-0.0765051
-0.420725
0.0508084
0.0141335
-0.397204
0.0203943
-0.0728886
0.00472509
0.503365
-0.0739285
-0.367464
0.0225023
0.0103269
-0.0309939
-0.134494
-0.103604
0.0668789
-0.00125852
-0.0629439
-0.0762872
-0.155589
0.00224806
0.114067
-0.285681
0.0537932
0.00641297
-0.241352
-0.22359
0.016123
-0.00945198
-0.28888
0.0388206
0.247445
-0.0486069
0.0396768
0.11281
0.0750303
-0.0122314
0.0436523
-0.0717957
0.18717
-0.0957715
-0.421674
0.00749126
0.0081494
-0.0560001
-0.0398526
0.09872
0.0604361
0.0461994
-0.057451
-0.0651065
-0.0159055
-0.192959
-0.00924398
0.0249358
-0.0833458
0.0315069
-0.107623
-0.0108854
-0.0713325
0.295155
-0.341472
0.210262
-0.00513835
-0.00248459
-0.210349
0.0107252
-0.211276
-0.0236716
0.0566559
-0.109239
0.0082235
0.0976523
-0.266137
-0.0913103
-0.290635
-0.00986345
0.0251394
0.474024
-0.419421
-0.0130435
0.0144282
-0.102273
-0.394345
-0.0219986
0.390934
-0.112602
-0.00254246
-0.138589
0.113236
0.0421869
0.00859122
0.0243053
0.0353678
-0.122742
-0.00186283
-0.0883748
-0.00064202
0.488528
-0.0707744
0.335085
-0.0909368
-0.1325
-0.027438
-0.319131
-0.078609
-0.410205
0.0845632
-0.0106671
0.020934
-0.0245283
-0.302261
0.159908
-0.320548
-0.278867
0.0525548
-0.0879909
0.262967
-0.0417931
-0.0036156
-0.0299809
-0.402067
0.350743
-0.0559352
0.0401961
-0.00957674
-0.0796647
0.121472
-0.0766743
0.0578383
0.0357317
0.0100828
-0.0100767
-0.377239
-0.104182
-0.109801
-0.0535375
-0.0267185
0.0122937
-0.397373
-0.0642882
0.186158
-0.114619
-0.0146235
-0.0908853
0.252898
0.0239044
0.00914298
-0.121851
-0.0677889
-0.304428
-0.0130825
-0.365901
0.0398215
0.275507
0.00403851
0.369614
-0.39259
-0.41804
-0.131311
-0.406846
-0.288185
0.133176
-0.0869807
-0.00691934
0.478897
0.0505958
-0.0106985
0.000749687
-0.0560312
-0.139629
0.0437527
0.24141
0.0981223
-0.0151099
-0.0342969
-0.0399378
0.0243969
0.0381812
-0.00376832
0.000385333
0.0401042
-0.148716
-0.0552134
0.0449104
-0.0697026
0.207411
0.0825554
-0.178936
0.0498766
-0.176747
-0.0926661
-0.0850691
-0.0850896
0.284407
0.0617073
-0.0114607
-0.402226
-0.134482
0.0123177
-0.129698
0.035744
0.28153
0.0488964
-0.101526
-0.0774171
-0.102735
-0.105767
0.011972
-0.00538983
-0.423074
-0.138429
0.00204538
0.0375257
-0.0720724
0.0156484
-0.27282
-0.00927674