/*--------------------------------*- C++ -*----------------------------------*\
| =========                 |                                                 |
| \\      /  F ield         | OpenFOAM: The Open Source CFD Toolbox           |
|  \\    /   O peration     | Version:  v2012                                 |
|   \\  /    A nd           | Website:  www.openfoam.com                      |
|    \\/     M anipulation  |                                                 |
\*---------------------------------------------------------------------------*/
FoamFile
{
    version     2.0;
    format      ascii;
    class       surfaceScalarField;
    location    "300";
    object      phi;
}
// * * * * * * * * * * * * * * * * * * * * * * * * * * * * * * * * * * * * * //

dimensions      [0 3 -1 0 0 0 0];
oriented        oriented;


internalField   nonuniform List<scalar> 
41211
(
-0.0758766
-0.097957
0.173834
0.141174
0.275493
-0.164693
0.0958305
0.0688622
-0.212267
0.144363
0.0679043
0.0935229
-0.228588
0.135065
-0.0659353
-0.00872919
0.0746644
0.258979
-0.165457
-0.057311
0.113163
-0.0558525
0.108533
0.182923
-0.291456
-0.0534623
0.0828632
-0.0294009
0.0424431
-0.00981497
-0.0326282
-0.000591769
0.0235267
-0.0229349
0.0268022
0.0867561
-0.113558
0.00490493
-0.0339036
0.0289987
-0.0166334
0.00970886
0.0069245
-0.00587246
0.00637963
-0.000507175
-0.000295107
0.0011521
-0.000856989
0.315831
-0.207298
0.0361033
0.00633987
0.000469926
0.0411104
-0.0324422
-0.00866813
-0.00896721
-0.00766615
0.228286
-0.374176
0.14589
0.119229
-0.0374594
-0.0817692
0.0498595
0.0250512
-0.0749108
0.107507
-0.0402785
-0.0672281
0.392362
-0.237103
-0.155258
-0.142957
0.159693
-0.0167362
-0.523949
0.311205
0.212744
-0.00867855
0.00251305
0.00616549
0.0927732
0.0264554
-0.0668462
0.114256
-0.0474098
-0.167339
0.0914628
-0.385133
0.291447
0.0936867
-0.265994
-0.0711612
0.337156
0.0106835
-0.0106835
0.000382254
-0.0107713
-0.342515
0.218138
0.124376
0.323622
-0.214568
-0.109054
-2.27795e-05
-0.00717498
0.0263957
-0.0269875
0.147019
-0.413013
-0.208832
0.150103
0.0587297
0.480627
-0.300715
-0.179912
-0.100105
-0.0155089
0.115613
0.0035163
-0.00334584
0.166383
0.142107
-0.308489
-0.000669718
-0.00506262
0.00573234
0.00996555
-0.00996555
-0.0263696
0.0132888
0.0130808
-0.00531686
0.0176867
-0.0123698
0.0496557
0.0578508
0.00370347
0.00274354
-0.00644701
-0.0343548
0.00606
0.0282948
0.126213
0.123531
-0.249744
0.246582
-0.446897
0.200315
-0.0885877
0.0859528
0.00263486
0.173337
0.10771
-0.281046
0.0773856
-0.130154
0.0527686
-0.105545
0.044677
0.0608677
-0.00759924
0.00971285
-0.130428
0.0166329
0.113795
-0.00710345
-0.112811
0.119914
0.357702
-0.377347
0.0196452
0.410021
-0.144936
-0.265085
-0.289382
0.0955893
0.193793
-0.0539766
0.0323375
0.0216391
-0.0798685
-0.00871912
-0.0842217
-0.021323
0.132676
0.103933
-0.236609
0.167344
0.313283
0.00886965
0.00509624
-0.0139659
0.0203944
-0.0166039
-0.00379042
0.10042
-0.0526159
-0.0478044
0.0052288
0.108826
-0.114055
-0.227362
0.0761569
0.151205
-0.0355648
-0.0184119
0.011429
-0.00229785
-0.00913115
0.00427493
-0.00442466
-0.00758775
0.00758775
-0.282355
-0.241594
0.172663
0.186725
-0.359388
-0.0880826
0.0506568
0.0374257
-0.189914
0.0953728
0.094541
-0.137419
0.237241
-0.0998219
-0.143829
0.16252
-0.0186918
-0.179292
0.411352
-0.232061
-0.00300868
0.010334
-0.00732531
-0.0111791
0.000651658
-0.240973
0.154298
0.0866751
-0.276809
0.00818985
0.268619
-0.00450697
0.00520533
0.139601
-0.313054
0.173453
-0.00867855
-0.0181059
0.0115471
0.00655876
0.0575463
-0.146564
0.089018
-0.156414
0.329077
0.171364
-0.105421
-0.0659425
0.163378
0.112005
-0.275383
-0.0345419
0.0683902
-0.0338483
0.19096
0.132663
0.305778
-0.21117
-0.0946077
-0.0207923
0.0383208
-0.0175285
0.00130905
-0.00890829
0.0152904
0.005104
0.114285
-0.121389
0.157052
-0.251754
0.0947018
0.109306
0.261967
-0.135754
0.0144025
-0.114507
0.00067613
-0.00654859
-0.308352
0.0315435
-0.241419
-0.143715
0.141879
0.137632
-0.279511
-0.0720059
0.229058
0.0120708
0.356206
-0.368277
0.121483
-0.145184
0.023701
-0.0287833
-0.0201959
0.0489792
-0.00390749
-0.00120177
0.00510926
-0.0394655
0.089325
-0.000517586
0.00102933
0.113604
-0.0689267
-0.0023659
-0.00129238
0.00365828
-0.0401846
0.0114013
0.0216385
-0.0143384
-0.00730004
-0.0163706
0.049104
-0.0327333
0.11425
-0.199788
0.0855379
-0.222978
0.110793
0.112185
0.00347783
0.00424796
-0.0077258
-0.212749
0.377287
-0.164538
0.0299736
-0.0964344
0.0664609
-0.116259
0.00399088
0.112268
-0.185765
0.192573
-0.00680832
-0.00819192
0.00893053
-0.000738608
-0.00205019
0.000150336
0.00189985
-0.0908125
0.207126
-0.116314
0.0156586
0.0322416
-0.0479002
-0.0228787
0.0277837
0.199406
0.104626
-0.304032
-0.0783146
-0.10745
-0.000476585
-0.033427
0.0207204
-0.0741827
-0.0909379
0.0388952
0.0520427
0.0428694
-0.094097
0.0512276
-0.18665
-0.155864
0.0124443
-0.00546007
-0.00698419
-0.0980452
0.0274235
0.0706217
0.0565358
-0.144926
0.0883901
-0.27052
0.267041
0.00347903
-0.0754707
0.0409288
-0.111625
0.0669596
0.0446659
-0.0793595
0.0562678
0.0230918
-0.122762
-0.0860701
0.00170587
-0.0034369
0.00173103
0.247472
-0.455131
0.207659
-0.00322784
0.00455633
-0.00132848
-0.252048
0.161235
-0.0562327
0.113779
0.0532529
-0.253182
0.199929
-0.37982
0.0218757
0.357944
0.369772
-0.179189
-0.110193
0.0117731
-0.0167292
0.00495608
-0.200442
-0.15086
0.351302
0.254556
-0.43854
0.183984
-0.216124
-0.1981
0.414224
0.0121526
-0.0201208
0.0079682
-0.312358
0.112246
0.200112
0.137717
-0.216032
0.104866
0.0778933
-0.182759
-0.0881717
0.0271042
0.0610675
-0.00303192
0.00202961
0.0010023
0.000699641
-0.00121932
0.000519682
-0.0619494
0.0316831
0.0302663
0.346668
-0.19342
-0.153248
-0.0320227
0.085645
-0.0536223
-0.00122231
-0.00636544
0.0191526
-0.0432714
0.0241188
-0.0237569
0.379963
-0.127587
-0.124167
-0.031397
0.0625294
-0.0311324
0.0218881
-0.0117968
-0.0100913
0.0106627
-0.0105196
-0.00014304
0.0151852
0.0161624
-0.0313476
0.381048
-0.201455
-0.179593
0.00870429
-0.0270217
0.0183174
-0.00197975
0.00636451
-0.00438475
0.0308437
-0.0122986
-0.0185451
0.0396656
-0.0763603
0.0366947
-0.00290056
0.00189496
0.0010056
-0.0115331
0.00766095
0.00387214
0.230751
0.185916
-0.0732304
0.144509
-0.0712783
-0.0914188
0.0451669
0.0462519
-0.195863
0.339607
-0.143744
-0.066573
-0.0127865
-0.00322784
-0.0306717
0.0372548
-0.00658313
-0.050963
-0.0404558
0.0388335
0.0117619
-0.0505954
0.0308591
-0.0783685
0.0475094
0.00546464
-0.385284
0.0763534
0.0945836
-0.170937
-0.0218756
0.143358
-0.00657329
-0.0049598
0.115434
-0.0157352
-0.0996991
-0.253028
-0.0593299
-0.205948
0.287103
-0.0811546
0.00760631
-0.00137038
-0.00623592
0.166961
0.102231
-0.269193
-0.0021094
-0.26841
0.0201322
-0.0467606
0.0266285
-0.120015
-0.0922517
0.00866698
0.000357862
-0.00902484
0.301336
-0.248083
0.209189
0.183173
0.104683
-0.0747096
-0.174167
0.0430367
0.131131
-0.192925
-0.0859851
0.27891
-0.191403
0.422154
-0.00595327
-0.142938
0.281249
-0.138311
0.156804
-0.235275
0.078471
-0.0470059
0.0841562
-0.0371503
0.0728599
-0.165708
0.0928477
-0.0907227
0.0224676
0.068255
-0.179397
-0.0022394
0.181636
0.139752
-0.0832161
0.148245
0.170093
-0.318338
0.186432
-0.113572
0.121909
0.157075
-0.278984
0.0132766
-0.120705
0.107429
0.0757678
-0.076193
0.00042517
0.19959
-0.367674
0.168084
0.225263
-0.00823197
0.00918547
-0.000953503
-0.0192189
0.0348775
-0.0677628
0.0526431
0.0151197
0.209347
-0.0950969
-0.0185119
0.0299535
-0.0114416
0.00156747
0.000185408
-0.00175288
-0.00135929
0.00664673
-0.00528744
0.0140973
0.0077908
-0.0129579
0.0146538
-0.00169592
0.0437168
-0.0399578
-0.00375895
-0.230858
0.127828
0.10303
-0.386288
0.243688
0.1426
0.00421973
-0.00488945
0.127866
0.354426
-0.107844
0.0706429
-0.0881997
0.0175568
0.396826
-0.148032
-0.248794
-0.0536659
-0.0134399
0.0671058
0.185694
-0.0384712
-0.147223
-0.00802785
0.00501917
0.0153542
-0.0134294
-0.00192475
0.190816
-0.0873132
-0.103503
0.0764831
-0.0818637
0.00538053
-0.108888
-0.115868
0.224755
-0.102359
0.107588
0.2087
0.188925
-0.397625
3.98144e-05
0.00401518
-0.004055
0.00237755
-0.00628503
-0.0447511
0.0844166
0.127291
0.117245
-0.244536
-0.301505
0.194922
0.106582
-0.0654257
0.170545
-0.00943128
0.0181356
0.00239628
-0.102118
0.0352718
0.00206072
0.00719227
-0.00925299
-0.0848659
-0.0703454
0.155211
0.0348541
0.00886269
-0.208557
0.378283
-0.169726
0.301725
0.0951012
0.346609
-0.127714
0.0114548
-0.323358
0.0245351
0.298823
-0.0705246
0.235635
-0.165111
0.0117234
0.00293045
0.187563
-0.103318
-0.0842451
-0.1182
0.106147
0.012053
0.0448527
0.00826037
-0.053113
0.0592028
0.0412174
-0.00298458
0.00100483
-0.186769
0.213367
-0.0265977
-0.0281024
0.047255
-0.205384
-0.13394
0.339323
-0.0602843
0.0918483
-0.031564
0.00447593
-0.00277006
0.0337361
-0.0752304
0.0414943
-0.00760179
0.000132597
0.00746919
-0.0059571
0.00313402
0.00282308
-0.0274148
0.1048
0.32701
-0.178764
0.272853
-0.124278
-0.148575
0.119844
0.0677186
-0.00205019
-0.00173333
0.00490673
0.0562928
-0.00845609
-0.0882951
-0.0110842
0.0993793
-0.0254279
0.0148575
0.0105705
-0.0377797
-0.00597431
0.043754
0.000517865
0.00179865
-0.00231651
0.0343844
-0.357743
0.0523932
0.045086
-0.0974791
-0.0987711
0.231447
0.00090483
0.00039159
-0.00129642
-0.321695
0.0971094
0.224586
-0.0140821
0.0230107
-0.00892859
0.0938351
-0.0794863
-0.0143489
-0.00573289
0.00610412
-0.000371226
0.298555
-0.125219
-0.00190975
0.0105767
0.0145714
-0.0110936
-0.0413479
0.101948
-0.0606004
0.248647
-0.47632
0.227673
-0.0220285
-0.120928
0.00878841
3.25742e-05
-0.00882098
-0.238708
-0.0829876
-0.121931
0.120507
0.00142409
-0.0329014
0.0993804
-0.0664791
-0.0184284
-0.00699955
-0.00275269
0.000155616
0.00259707
0.305094
-0.165493
-0.0427585
-0.0453241
-0.00336379
0.0468969
-0.0435331
-0.00428441
0.0431179
-0.156649
0.365349
0.0323422
-0.017157
0.15998
0.195724
-0.355704
-0.354921
0.360386
-0.0861003
0.0531989
-0.061232
0.0298351
0.00924171
-0.188639
-0.294559
0.168669
0.12589
-0.126804
-0.11417
0.0306574
0.0631777
-0.186483
-0.0408791
0.122497
-0.265086
0.142589
0.0448619
0.0335255
-0.0783874
-0.12276
0.237045
-0.114285
0.0766525
-0.0429164
0.00114913
0.00454225
-0.00569138
0.00149336
0.00919018
-0.160597
-0.0108546
0.171452
0.297561
-0.165849
-0.131712
-0.0964657
-0.134392
-0.198574
0.35431
-0.155736
0.0160268
-0.025458
-0.00174217
-0.0252796
-0.200134
0.369922
-0.169788
0.0809436
-0.00446049
-0.138784
-0.0951484
0.233932
-0.123054
0.290015
-0.0398471
0.144713
-0.0853371
0.238328
-0.152991
-0.00174145
0.00206405
-0.361558
0.409713
-0.0481549
-0.0216675
-0.0690551
-0.0501775
0.0865264
-0.036349
-0.0121102
0.00679337
-0.222849
-0.145343
0.368192
0.124468
-0.265689
0.141222
0.299515
-0.175048
0.00474681
-0.0061061
-0.393528
0.188145
0.0531883
-0.0599871
0.00679879
0.168803
0.158206
0.0025099
0.0732579
0.0302429
0.0604543
-0.0906972
-0.00891585
0.000723931
0.0875271
-0.210043
0.122516
0.0441266
0.141568
0.183178
0.0421543
-0.225332
0.0816162
-0.050757
-0.151479
-0.148781
0.30026
0.0243213
-0.0747919
0.0504707
-0.124242
0.108496
0.0157464
-0.0130987
-0.0849464
0.0767394
-0.431661
-0.0297954
0.186599
0.415385
-0.190121
-0.158008
-0.0974674
0.255475
0.0083316
-0.00240774
0.0533327
-0.0181479
-0.0351848
-0.0429485
-0.0627059
0.105654
0.000515846
0.00863817
-0.00915402
-0.0231268
-0.00028701
0.0234138
0.321687
-0.181895
-0.139792
0.0777079
-0.0478486
-0.0298593
-0.126698
-0.0634856
0.190184
-0.0984708
0.257395
-0.158924
-0.0427
-0.0250627
-0.212059
0.124009
0.08805
0.334766
0.0599941
-0.39476
0.0172701
-0.01098
-0.00629013
0.0138658
-0.079801
-0.00591633
-0.00172168
0.00763801
-0.10336
0.112506
-0.00914593
0.00955301
-0.0231145
0.0135615
0.225223
-0.438502
0.21328
-0.377696
0.222237
0.155459
-0.098175
0.0127766
0.0853984
-0.00659195
0.000859059
-0.25439
0.288774
0.0641655
0.0605968
-0.124762
-0.0626528
0.115046
0.117332
-0.223063
0.105731
-0.250922
0.180397
0.111938
0.00501164
-0.11695
0.0386481
-0.0551092
0.0164611
-0.00483046
0.0377709
-0.0634796
0.0257087
-0.00693231
0.0893359
0.212389
0.0148138
-0.00304069
0.188308
0.11747
0.042889
0.0399742
-0.0568289
-0.1066
0.163429
0.00544721
-0.00429808
0.172521
0.244146
0.116041
0.0523108
-0.15917
0.106859
0.149745
-0.260786
0.111041
-0.0735655
-0.03806
0.104575
0.217112
0.0770619
-0.269987
0.00404011
0.0381024
-0.0421425
-0.035414
0.23482
-0.240132
0.142778
0.097354
-0.0914869
0.044481
0.0316517
-0.0597155
0.0280638
-0.0138051
0.122708
-0.108903
0.00512489
-0.00730879
0.0021839
0.0370515
0.0761119
0.00826191
-0.0306804
0.0224185
-0.0231855
0.0938284
-0.256208
0.157737
0.0770485
0.00889603
-0.0859445
-0.00126041
-0.0017715
-0.0910236
-0.106593
0.197617
-0.286807
0.135327
0.132697
-0.0207582
-0.193222
0.00645298
0.0554891
0.000651124
-0.0561402
-0.23494
0.00839679
0.226543
0.263788
0.349203
-0.259867
-0.00152922
0.00608627
-0.00455706
-0.0115121
-0.0201656
-0.214774
-0.260523
0.357909
-0.0973864
0.0324232
-0.0228702
0.287767
0.0932655
-0.381032
0.0578083
-0.0452572
-0.0125511
0.356642
-0.235034
0.097615
0.0734767
-0.234074
-0.0729307
0.00722164
0.0657091
-0.13882
0.236653
-0.0978329
0.347178
-0.178374
0.0430723
-0.00331428
-0.039758
-0.12991
-0.161236
0.291147
-0.126594
0.00554393
0.12105
-0.00358317
0.0023814
0.0254305
0.031133
0.293825
-0.324958
-0.00223093
-0.0176706
0.0625233
-0.0244642
0.0327262
0.00199295
0.000531071
-0.0307724
0.0302413
-0.0811408
-0.108773
-0.122279
0.0660224
0.0562566
0.367721
-0.391478
-0.0204747
0.0616779
-0.0412033
0.112792
-0.367182
-0.0720205
0.0491644
0.0228561
0.26066
-0.102167
-0.158493
-0.181894
0.125065
-0.00800876
0.00147306
0.00653571
0.0118522
0.00212113
-0.0139734
0.133961
-0.394484
-0.24155
0.113964
0.0147296
0.0407595
-0.0265921
-0.147575
-0.0718023
0.25498
0.127024
-0.25488
0.127856
0.00948975
-0.371047
-0.111252
0.0708313
0.040421
-0.0582022
-0.10035
0.158552
0.00404153
-0.0225534
0.030277
-0.0597215
0.0294445
0.225515
-0.416808
0.191293
-0.0855402
0.0461204
0.0394199
-0.00257102
-0.00629967
0.00887069
0.101174
-0.0370085
0.0992325
0.148977
-0.248209
0.20644
-0.429289
-0.404382
0.225091
0.064047
-0.0494756
-0.0145714
-0.0833832
0.0513604
0.075323
-0.118239
0.0429164
-0.00143962
0.010228
0.0175915
0.0179668
-0.0355583
-0.0452837
-0.174882
0.220165
0.00765995
-0.00918917
-0.187089
-0.130495
0.317584
0.00566071
-0.0375219
0.0318612
0.106234
-0.0794322
0.280149
-0.153125
-0.00650018
0.11866
-0.11216
0.297971
-0.201219
-0.0967527
-0.105646
0.000757773
-0.00588446
0.00762538
-0.00726752
-0.0780298
0.0981792
-0.0201494
0.00232374
0.00669197
-0.00901571
0.0125332
0.018764
-0.0312972
-0.052039
-0.24569
0.276823
0.101646
-0.347336
-0.00799122
0.0126162
-0.00462497
0.0202416
-0.0752374
0.0549958
-0.155597
-0.258861
0.414458
0.0145041
0.0979732
-0.112477
0.0978572
0.0261583
-0.124015
0.00974121
-0.00974121
0.0719376
-0.12261
0.0506723
-0.00325355
0.000887655
-0.115159
0.0371295
0.099438
-0.208326
-0.0271088
0.0276398
-0.212254
0.166971
-0.143608
-0.152201
0.29581
0.120176
0.00421404
-0.12439
0.0539738
-0.0424139
-0.0115599
0.344326
-0.1576
-0.00146706
-0.120214
-0.00402851
0.0117848
-0.017499
0.00571417
-0.0479122
0.0315416
0.00303896
-0.00343028
0.000391327
0.051644
-0.264393
0.00778452
0.286041
-0.00848734
0.116923
-0.00148922
0.16665
0.149665
-0.316315
-0.102216
0.106056
-0.00383986
-0.100892
-0.111168
-0.276278
0.246661
0.0296168
0.275387
-0.0892016
-0.186185
-0.00623736
0.00704432
-0.000806957
0.0980695
-0.116386
0.0183168
0.00420052
-0.0771312
-0.0197667
0.0584148
-0.019156
0.0160849
0.00307101
0.158868
0.138693
0.0131267
-0.00425702
0.0783003
-0.0580587
0.142049
-0.264083
0.122034
-0.033457
0.0329804
0.00187489
-0.00140748
-0.236624
0.428771
-0.192146
-0.227614
0.153409
0.0742053
0.370529
-0.196832
-0.173697
0.0327737
-0.0151822
-0.162342
-0.0933373
0.255679
0.406894
-0.0391733
0.305021
-0.0767353
-0.104632
0.231923
0.0631448
-0.00995651
-0.0946362
-0.219047
0.313683
0.0087394
-0.00667868
-0.13985
0.0377391
0.10211
0.277708
-0.120907
-0.156801
0.0554075
-0.0983559
0.104705
-0.00663558
0.00102318
0.00168456
-0.00270774
0.000864376
4.04539e-05
0.00703208
-0.00625163
0.130063
-0.268882
-0.148236
0.372001
-0.223766
-0.172268
0.397782
0.00245844
-0.00455584
0.00209741
-0.199531
-0.198399
0.39793
-0.00040834
0.000926204
-0.0587613
0.0726271
-0.0319587
0.065115
-0.0331563
0.0104968
-0.00138778
-0.00910899
-0.00746843
0.00752469
-5.62638e-05
-0.217018
0.0798798
0.137138
-0.119406
-0.135118
0.254524
0.00497063
-0.00669231
0.104684
-0.0747447
-0.0299389
-0.200541
0.381021
-0.18048
-0.394692
0.0110444
0.383648
-0.0422901
0.0158222
0.026468
-0.0216787
-0.0498203
0.071499
-0.00163851
0.0447108
-0.0114106
0.00565458
0.00575606
-0.0343076
0.0109804
-0.110937
-0.0585108
0.169448
0.00971772
0.0107723
-0.02049
0.00760631
0.431036
-0.429618
-0.00141842
0.000201196
-0.00404997
0.00384878
-0.0020183
0.0138706
0.00531438
-0.103867
0.0985528
0.00916124
-0.0176978
0.039099
-0.0214012
0.0234314
0.0967448
-0.000600091
-0.0677562
0.0683563
0.138216
-0.275166
0.13695
0.0507028
-0.00540286
-0.0452999
-0.164009
-0.159429
0.323438
0.196019
-0.137235
-0.0587839
-0.0218996
-0.0530426
0.0749422
-0.0630845
0.0203845
-0.0333488
0.0636258
0.0729169
0.0317667
0.00143259
0.00172146
-0.00315405
0.112274
-0.203297
-0.00938508
0.00770128
-0.202552
-0.209152
0.411705
0.0811424
-0.175672
0.0945297
0.119297
-0.00496576
-0.0270717
0.0320375
-0.316331
0.190467
0.125864
-0.0375977
-0.0344228
0.35707
-0.108423
-0.109887
-0.0167064
0.0352053
-0.067164
0.150118
0.19655
-0.27895
0.155826
0.123124
-0.0890454
-0.0467781
0.135824
-0.00154807
0.0265675
-0.0250194
-0.125549
0.0155929
0.109956
0.05289
-0.0774919
0.0246018
-0.168608
0.0614415
0.107166
0.033459
-0.0209257
0.0652285
-0.0274576
0.0529829
0.024725
-0.0240274
-0.25225
-0.0207928
0.0704026
-0.0496097
-0.0450769
0.0899387
-0.000443815
0.00402826
-0.00358445
-0.0330588
-0.135549
-0.33191
0.175496
-0.00737116
0.0851376
-0.103398
0.0182606
0.182071
0.0894117
-0.271483
-0.00878076
0.0184985
-0.223558
-0.178416
0.401973
0.0231428
0.0108973
-0.0340401
0.0420832
-0.0364225
-0.419643
0.219072
0.200571
0.298587
-0.160371
0.0553352
0.0147324
-0.0700677
0.0424255
-0.0629002
0.156144
-0.137023
-0.0191212
0.179629
-0.0815532
-0.0980757
0.0045563
0.00687269
0.191827
-0.187477
0.106337
-0.00999882
0.00983897
0.115814
-0.149087
0.0332738
-0.102556
0.0612077
0.234215
0.0637557
0.313069
-0.186934
-0.126135
-0.322626
0.200673
0.121954
-0.000860057
0.00171269
-0.000852636
-0.0894313
0.164928
-0.0754964
0.272616
0.116939
-0.389555
0.00462154
-0.000346604
0.253285
0.0741913
-0.327476
0.0392628
-0.18375
-0.00276947
0.00379265
-0.183623
-0.184051
-0.024364
0.0102819
0.134694
-0.00720519
-0.127488
0.0928902
0.182497
-0.149458
0.0762276
-0.175921
0.371434
-0.195513
-0.0102286
0.0111294
-0.000900765
-0.00330697
-0.00453982
0.00784679
0.020036
0.0377723
-0.306762
-0.00836277
-0.00304787
-0.00749735
-0.00157519
0.00907254
-0.389557
0.213636
-0.000425237
-0.00418624
0.00461148
0.114127
-0.062759
-0.0513677
-0.410183
0.0300938
0.38009
-0.353897
0.153455
-0.103316
-0.136816
0.113105
0.0430389
0.00947773
-0.00115179
-0.00832594
0.367884
-0.219712
-0.148173
-0.162493
-0.25715
-0.0312734
-0.0318111
-0.0584066
0.034671
0.0237356
0.347761
0.0107037
-0.00950985
-0.00119386
0.00686915
-0.0044916
-6.77576e-05
0.00446938
-0.00440162
0.126153
0.186917
0.209023
-0.121496
0.356458
-0.215284
-0.0696949
0.165068
-0.0433877
0.100494
-0.0571065
-0.186868
-0.19942
0.0809803
-0.14645
0.0654702
0.00650152
-0.416685
-0.123525
-0.0995382
0.0731619
-0.163501
0.0903389
-0.0491136
0.0344195
0.0146941
0.0635276
-0.0384764
0.0365211
0.0383018
-0.0748228
0.0134004
0.0864387
-0.0998392
0.0477662
-0.068559
0.0867887
0.0845749
-0.143192
-0.23637
-0.0169075
0.253277
-0.123168
-0.122059
0.245227
0.0371254
-0.0611511
0.0240257
0.0190336
0.0316692
-0.0483383
0.0306405
-0.0023414
0.00189758
-0.00116324
0.00136443
0.167343
-0.0102744
0.00228319
0.195256
0.0509888
-0.246245
0.189395
0.176494
-0.365889
0.0182308
-0.00650102
-0.0117298
-0.161832
0.334757
-0.172925
0.0100373
-0.0100373
0.0783823
-0.0458965
-0.0324858
0.0107598
-0.0107598
-0.00641262
0.00909943
-0.00268681
0.0030511
-0.00408499
0.00103389
0.196949
0.0534762
-0.250425
0.0388892
-0.0115357
-0.0059633
-0.120124
-0.0237051
0.00591196
-0.000941332
0.0368191
-0.00590067
-0.0309184
-0.0475749
-0.233597
0.281171
-0.0222329
0.0210737
0.00115923
-0.0829351
0.246313
0.00336316
-0.00966284
0.00342395
-0.129215
-0.0878034
0.144376
-0.309906
0.16553
0.0152163
0.00779441
0.156617
0.191922
-0.348539
-0.223498
0.15655
0.0669483
-0.0308206
-0.0311288
0.0801126
-0.0372236
-0.00174807
0.0055124
-0.00376432
0.0518053
-0.0201537
-0.0296368
0.226586
0.0826001
0.113419
-0.0909859
-0.0606047
0.00760147
0.0530032
-0.251968
0.0155988
-0.00378875
0.0127327
-0.00894395
0.140783
-0.00608965
0.124741
-0.247501
-0.0103895
0.00289216
-0.00826677
0.00635703
-0.0976513
0.0646396
0.0330117
-0.156395
0.0669634
-0.16112
-0.117831
0.281798
-0.0672852
-0.214513
-0.0298502
-0.0396154
0.0694656
-0.0930107
-0.0251898
-0.0118657
0.129355
-0.117489
-0.0375357
-0.0451216
0.0826573
0.00885505
-0.0126438
0.018523
0.0476535
-0.0661765
0.210774
0.205893
0.297042
-0.13066
-0.0994987
-0.00271692
-0.256978
-0.00621809
-0.0135175
0.0197356
-0.0320974
-0.0473889
0.0308437
-0.0845451
-0.0801476
0.011212
-0.302416
0.229665
0.0727507
0.0109687
-0.0185274
0.0075587
0.0207001
-0.108995
0.0029105
-0.000452067
-0.0293296
0.0733001
-0.0439706
-0.00243007
-0.00691949
0.00934956
-0.133383
0.00295575
0.141894
-0.125028
-0.0168664
0.00927594
-0.00695221
-0.124525
0.198002
-0.0244967
0.0229487
-0.0767835
0.0469333
0.151876
-0.0708955
-0.116055
0.06607
0.0499851
-0.111036
0.0972313
-0.00108896
0.000663724
0.106569
-0.0914675
-0.0151015
-0.381792
0.182261
0.00037471
0.000781974
-0.00115668
0.356365
-0.0837481
0.305342
-0.157626
-0.147716
-0.075772
0.0154877
0.0018065
0.00793471
-0.0728585
0.0511798
-0.00911859
0.00187263
0.00724595
-0.045382
0.143239
0.488099
-0.256394
-0.231704
-0.00417505
0.0112997
-0.00712462
-0.0997228
0.0487598
-0.199077
-0.19738
0.396457
-0.0418771
-0.00723653
0.0614196
-0.109097
0.0476771
-0.0015949
0.00302748
0.144192
0.156916
-0.041102
0.11103
-0.105716
-0.190707
-0.111709
0.0692453
-0.0304984
-0.0387469
-0.0952588
0.290515
0.0639222
0.0273779
-0.0913001
-0.00755704
0.00758961
0.0104759
-0.0122274
0.00175159
-0.118248
0.111748
0.041073
0.209974
-0.0795134
-0.130461
-0.353877
0.192045
-0.142513
0.280848
-0.138335
-0.0566546
0.0748984
-0.0182437
-0.0483323
-0.0513905
0.0299479
-0.178606
0.148658
-0.0843751
0.276481
-0.192105
-0.00962663
0.0849496
-0.102868
-0.032877
0.135745
0.0139037
0.00378299
0.0756424
0.00140613
-0.0661796
0.0390108
0.0271687
-0.0273167
0.00418992
-0.00124902
-0.0120617
0.0133107
0.0975719
0.08886
0.0167992
-0.00583045
0.00482565
-0.116497
0.129773
0.00647376
-0.00791338
0.259133
0.121168
-0.133034
0.0336998
-0.391122
0.222647
0.168475
0.0272338
-0.0449194
0.0176855
-0.0390288
-0.000733748
0.00173061
-0.000996864
0.0722678
-0.0996826
-0.00204078
-0.00252577
0.00456655
0.050964
-0.143766
0.0928015
0.0151797
-0.0436753
0.0284956
0.168936
-0.40556
-0.00622486
-1.24995e-05
-0.0302726
0.119767
-0.089494
-0.00960068
0.0921776
-0.0787772
-0.295739
0.211364
0.0887758
-0.195369
0.176952
0.131933
-0.308884
0.0822999
-0.0640442
-0.0182557
0.0370339
0.0411602
-0.0781941
-0.11465
0.0143281
0.100322
-0.0846098
0.0525125
0.024289
0.147494
-0.09653
0.0246199
-0.0747974
-0.0491306
0.0870119
-0.0378813
0.0598097
-0.0874725
0.0276628
0.0357925
0.0398294
-0.0756219
-0.0399486
-0.0823304
-0.0295953
-0.0546263
-0.00752742
0.01018
-0.00265255
-0.0994422
0.256517
0.35342
-0.105948
0.0313809
0.0469194
-0.0156451
0.0795673
-0.0396707
-0.0195577
0.0592283
-0.0833403
0.0768638
0.00647646
0.215098
-0.387781
0.172683
-0.0347373
-0.0536026
0.0883399
-0.146642
0.257474
-0.110832
0.136749
-0.146905
0.0101563
0.0936641
0.391211
-0.136655
-0.386863
0.0633719
0.323492
0.0886104
-0.207215
0.118605
0.20867
0.196239
-0.404909
-0.142908
0.0374865
0.202342
-0.335717
0.133374
-0.0718986
-0.0190393
0.00485556
-0.00816253
4.89907e-05
-0.00294955
0.228383
-0.216604
-0.0117792
-0.0563752
-0.240816
0.297191
-0.00800876
0.114857
-0.253641
0.00405569
0.0810819
-0.314656
0.127567
-0.0197809
0.0751161
-0.121955
0.020739
0.101216
0.000193617
-0.001468
0.00127438
0.0362817
0.144328
0.100338
-0.19981
0.0994718
-0.030662
0.0739833
-0.0433213
0.106702
-0.121325
0.0146233
-0.394275
0.238678
-0.0796032
0.0361565
0.0434467
0.486561
-0.211069
-0.0422446
-0.0379473
0.0801918
0.209699
0.137433
-0.347132
-0.0854961
-0.138002
-0.00178798
-0.0102737
0.0794764
-0.065746
-0.0137304
0.199022
-0.329517
0.034045
0.0446218
-0.0786668
-0.102706
0.0507238
0.051982
-0.0700718
-0.0180999
0.0572332
0.0664328
-0.123666
0.0376813
-0.25225
-0.0104924
-0.122704
0.000773679
-0.00712671
0.00705895
0.140765
-0.258833
0.118068
0.0413601
0.0236714
-0.0650315
-0.126455
0.246334
-0.119879
-0.0621796
-0.324684
-0.125749
0.168786
-0.00252139
0.0173736
0.0237368
0.0278026
0.0516739
0.0125372
-0.0100573
-0.00247989
-0.00818779
-0.000728064
-0.00629405
-0.00817622
0.0144703
0.340672
-0.14165
0.292873
-0.165408
-0.127466
-0.0743597
-0.0127077
0.0870674
0.00787746
-0.00513392
-0.0115129
-0.0979617
0.112466
-0.115788
-0.126528
0.242316
0.179795
0.134578
-0.314373
-0.00524209
0.0140971
0.0919097
0.00249784
-0.0944075
-0.0190535
-0.0225558
0.0416093
0.102167
0.0330156
0.0275641
-0.0605797
-0.144248
-0.0887789
0.05666
0.0321189
0.186008
0.184521
0.108088
-0.00138658
-0.0178275
0.0591876
0.204933
-0.353168
0.336393
-0.159987
-0.176406
0.0863341
-0.0549533
-0.0116745
0.153568
0.0952529
-0.0541115
0.203856
0.0465023
-0.100888
0.054386
-0.00241132
0.0229052
-0.0204939
-0.10335
0.29431
0.0933724
-0.0468701
-0.0446108
0.0596294
-0.0150187
-0.0141266
0.00783254
0.102641
-0.0723979
0.0528659
-0.0376862
0.00389049
0.00677217
0.156334
-0.0244221
-0.131912
-0.137715
0.24271
-0.104995
0.00264867
-0.0168766
0.0142279
-0.0361061
-0.0433755
0.0794816
0.189996
-0.160048
-0.00728529
0.00871533
-0.00143005
-0.00294673
0.00298654
0.0129271
-0.0118699
-0.00105728
0.0725824
-0.0367899
-0.098183
0.0455671
0.0342586
0.0423938
-0.292376
0.236001
0.00789925
-0.00843357
0.000534315
-0.000455725
-0.0127781
0.0132338
0.0808565
0.0679517
-0.148808
0.0241053
0.0567861
-0.0808914
-0.340801
0.154151
-0.223233
0.128084
0.0689673
-0.0982889
0.0293216
0.0894934
-0.214019
-0.094888
0.195226
0.326638
0.0329729
-0.0660423
0.0330694
0.336634
-0.111411
-0.255987
0.208412
0.0972782
0.128599
-0.225877
0.0776178
0.0841617
-0.16178
-0.00236385
-0.00510458
-0.190215
0.148464
0.0417513
0.0407668
0.0376155
-0.229837
0.445132
-0.215296
0.0373076
0.0229292
-0.0602368
-0.00900889
0.0789832
-0.0699743
-0.275847
0.133334
0.0666854
-0.0481625
0.185186
0.151207
0.0832159
-0.0545208
-0.0286951
0.00336251
-0.000856543
-0.00250596
-0.0431383
0.000606644
-0.000413027
0.0483448
-0.0858805
0.318259
-0.188814
-0.129445
0.128559
0.062257
0.135869
0.0742043
-0.15907
-0.00672099
0.00165837
0.0534001
0.0288998
-0.000634957
0.0111108
-0.416372
0.200248
0.396739
-0.22363
-0.173109
-0.0865715
0.192493
-0.105922
-0.0793669
0.0325065
0.0468604
0.21046
0.121399
-0.33186
0.214387
0.168082
-0.382469
-0.153623
0.0507547
0.378872
0.0267589
-0.405631
0.0316154
0.0388607
-0.0704761
0.00901453
-0.044755
0.0357405
0.0736829
-0.272257
-0.216322
-0.173235
-0.115355
0.260215
-0.14486
0.0131422
-0.000215049
-0.067763
0.118182
-0.0504194
0.0616315
-0.283955
0.222323
0.0538868
0.0385525
-0.0924393
0.000747596
0.00921795
0.390126
0.00782802
-0.397954
0.316377
-0.108235
-0.208142
0.018347
0.0176292
-0.0359762
-0.240168
0.301799
0.309927
-0.193908
-0.116019
0.0121337
-0.070895
-0.190252
0.170354
0.0198971
-0.399195
0.415438
-0.0162421
0.319957
-0.419607
0.0996499
0.0711428
-0.0931488
0.022006
0.405022
-0.140437
-0.264585
0.270538
0.231143
-0.260779
0.217676
0.128554
-0.34623
0.000538421
-0.000833528
-0.00693808
-0.282356
0.290141
0.0121723
0.00881184
-0.0209841
0.170692
-0.257926
0.0872333
0.000169744
-0.00163774
-0.0110752
0.180071
-0.0910288
-0.089042
0.000357179
0.00108088
-0.00143806
9.15858e-05
-0.0090234
-0.176923
-0.0133281
-0.317242
0.181498
0.135744
-0.364249
0.155691
0.00389927
-0.00217781
0.0314101
-0.0242854
-0.00712469
-0.0332876
0.00084536
-0.0389497
-0.0799065
0.399864
-0.00441157
-0.0699481
-0.207298
0.0805999
-0.00129732
0.00408292
-0.0027856
-0.065148
0.132128
-0.0669795
0.00104651
0.0096572
0.207107
0.20956
-0.0209003
-0.00602333
0.0269236
-0.00441131
-0.000251106
0.00466242
-0.0290374
-0.0438272
0.0728646
-0.187323
-0.190373
0.00857881
0.00386545
-0.0136898
0.0665798
-0.103041
0.2268
-0.123759
-0.0487538
-0.0174258
-0.408906
0.322666
0.0862407
0.228832
0.146671
-0.375503
-0.0934583
-0.0848224
0.178281
-0.293572
0.163381
0.130191
0.123073
-0.0495573
-0.073516
-0.00146598
-0.00449112
-0.00914354
-0.00137608
0.228429
-0.397647
0.169217
0.100889
0.209251
-0.31014
-0.0174079
0.0541764
-0.0367685
0.205471
-0.11686
0.119648
-0.0102212
-0.109427
-0.118031
0.273858
0.273972
0.0925038
-0.366476
-3.79149e-05
0.00450729
-0.169541
0.32532
-0.155779
-0.239302
0.145778
0.0935238
0.2377
-0.132103
-0.105596
0.00198982
-0.00617606
0.0136197
0.123967
-0.137586
-0.240154
-0.0811558
0.32131
0.00612809
-0.00855816
0.383097
-0.173908
0.127814
-0.0319832
0.0855428
-0.0549378
-0.030605
-0.118036
-0.0721795
-0.0886999
0.166318
-0.00183248
0.0772466
-0.0456312
-0.0035788
-0.00129195
0.00487075
0.0790255
-0.0549202
0.158679
-0.101446
-0.0227324
-0.130659
0.153392
0.106682
-0.0538071
-0.0528751
5.80619e-05
0.00330444
-0.0690749
0.149931
-0.00561594
-0.0043496
0.0269745
0.0370724
7.50028e-05
0.000299707
-0.0452676
-0.0498975
0.095165
0.034689
0.196454
-0.131247
0.063484
0.0958129
-0.00690375
0.00741959
0.01672
0.00491846
0.161163
-0.0699956
-0.0911671
-0.0761778
0.0367123
0.191926
-0.378021
0.186095
0.00459686
9.43343e-05
-0.0046912
0.0928408
0.233997
-0.326838
0.0395245
-0.321881
-0.0070166
0.0387692
-0.042133
-0.00880957
0.0107874
-0.00197785
-0.144074
-0.128241
0.272315
-0.0634203
0.0244095
0.0390108
-0.015625
0.0151693
0.397365
-0.0371588
0.0747671
-0.0376083
0.288462
0.0411405
0.22556
-0.370903
-0.0851129
0.225201
-0.140088
-0.158551
0.100349
-0.0336135