/*--------------------------------*- C++ -*----------------------------------*\
| =========                 |                                                 |
| \\      /  F ield         | OpenFOAM: The Open Source CFD Toolbox           |
|  \\    /   O peration     | Version:  v2012                                 |
|   \\  /    A nd           | Website:  www.openfoam.com                      |
|    \\/     M anipulation  |                                                 |
\*---------------------------------------------------------------------------*/
FoamFile
{
    version     2.0;
    format      ascii;
    class       surfaceScalarField;
    location    "300";
    object      phi_0;
}
// * * * * * * * * * * * * * * * * * * * * * * * * * * * * * * * * * * * * * //

dimensions      [0 3 -1 0 0 0 0];
oriented        oriented;


internalField   nonuniform List<scalar> 
41211
(
-0.0758766
-0.0979571
0.173834
0.141174
0.275493
-0.164693
0.0958307
0.0688621
-0.212267
0.144362
0.0679047
0.0935231
-0.228588
0.135065
-0.0659335
-0.0087302
0.0746637
0.25898
-0.165456
-0.0573111
0.113163
-0.0558522
0.108533
0.182923
-0.291456
-0.0534581
0.0828599
-0.0294018
0.0424403
-0.00981351
-0.0326268
-0.000591584
0.0235269
-0.0229353
0.0268023
0.0867563
-0.113559
0.00490528
-0.0339037
0.0289984
-0.0166322
0.00970919
0.00692303
-0.00587257
0.00637971
-0.000507147
-0.000295035
0.00115166
-0.000856625
0.315831
-0.207298
0.0361017
0.00633861
0.000469848
0.0411116
-0.0324437
-0.0086679
-0.00896744
-0.00766478
0.228286
-0.374176
0.14589
0.119228
-0.0374604
-0.081768
0.0498593
0.0250517
-0.074911
0.107507
-0.0402786
-0.0672281
0.392362
-0.237103
-0.155258
-0.142957
0.159693
-0.0167356
-0.523949
0.311205
0.212744
-0.00867874
0.00251311
0.00616563
0.0927721
0.0264562
-0.0668461
0.114256
-0.04741
-0.167339
0.0914629
-0.385133
0.291446
0.0936868
-0.265995
-0.0711608
0.337156
0.0106844
-0.0106844
0.000382238
-0.0107711
-0.342515
0.218138
0.124376
0.323622
-0.214568
-0.109054
-2.27806e-05
-0.00717483
0.0263961
-0.0269877
0.147018
-0.413013
-0.208833
0.150103
0.05873
0.480627
-0.300715
-0.179912
-0.100105
-0.0155088
0.115614
0.0035146
-0.00334401
0.166383
0.142107
-0.308489
-0.0006697
-0.00506274
0.00573244
0.00996524
-0.00996524
-0.0263736
0.0132902
0.0130834
-0.00531693
0.0176857
-0.0123688
0.0496558
0.057851
0.00370414
0.00274362
-0.00644775
-0.0343552
0.00605992
0.0282952
0.126213
0.123531
-0.249744
0.246582
-0.446897
0.200315
-0.0885871
0.0859542
0.00263287
0.173337
0.10771
-0.281046
0.0773857
-0.130154
0.0527687
-0.105545
0.0446772
0.0608674
-0.00759653
0.00970965
-0.130428
0.016633
0.113795
-0.00710349
-0.112811
0.119914
0.357702
-0.377347
0.0196452
0.410021
-0.144936
-0.265085
-0.289382
0.0955894
0.193793
-0.0539801
0.0323396
0.0216405
-0.07987
-0.0087171
-0.0842215
-0.0213231
0.132676
0.103933
-0.236609
0.167344
0.313283
0.0088713
0.00509506
-0.0139664
0.0203938
-0.0166041
-0.00378969
0.100418
-0.0526154
-0.0478029
0.00522864
0.108826
-0.114055
-0.227362
0.0761565
0.151205
-0.0355672
-0.0184129
0.0114292
-0.00229787
-0.00913128
0.00427249
-0.00442221
-0.00758858
0.00758858
-0.282355
-0.241594
0.172663
0.186726
-0.359388
-0.0880828
0.0506572
0.0374257
-0.189914
0.0953729
0.094541
-0.137419
0.237241
-0.099822
-0.143829
0.162521
-0.0186918
-0.179292
0.411352
-0.232061
-0.00300889
0.0103363
-0.00732738
-0.0111804
0.000651747
-0.240973
0.154298
0.0866749
-0.276809
0.00818993
0.268619
-0.00450434
0.00520235
0.139601
-0.313054
0.173453
-0.00867874
-0.0181055
0.0115463
0.00655927
0.057547
-0.146564
0.0890174
-0.156414
0.329077
0.171363
-0.10542
-0.065943
0.163378
0.112005
-0.275383
-0.0345468
0.0683932
-0.0338464
0.19096
0.132663
0.305778
-0.21117
-0.0946077
-0.0207926
0.0383212
-0.0175286
0.00130866
-0.00890519
0.0152908
0.00510301
0.114285
-0.121389
0.157052
-0.251754
0.0947021
0.109306
0.261967
-0.135754
0.0144024
-0.114507
0.000676114
-0.00654868
-0.308353
0.0315434
-0.241418
-0.143715
0.141879
0.137632
-0.279511
-0.0720062
0.229058
0.0120708
0.356206
-0.368277
0.121483
-0.145184
0.023701
-0.0287836
-0.020196
0.0489796
-0.00390852
-0.00120158
0.0051101
-0.0394659
0.0893251
-0.000517599
0.00102915
0.113604
-0.0689264
-0.00236629
-0.00129329
0.00365958
-0.040185
0.0114013
0.0216387
-0.0143385
-0.00730029
-0.0163705
0.0491042
-0.0327337
0.11425
-0.199788
0.0855381
-0.222978
0.110793
0.112185
0.0034774
0.00424841
-0.00772582
-0.212749
0.377287
-0.164538
0.0299735
-0.0964355
0.0664621
-0.116259
0.00399068
0.112269
-0.185765
0.192573
-0.00680831
-0.00819208
0.00893071
-0.000738623
-0.0020511
0.000150457
0.00190064
-0.090813
0.207127
-0.116314
0.0156589
0.0322413
-0.0479002
-0.0228784
0.0277837
0.199406
0.104626
-0.304032
-0.0783147
-0.10745
-0.000476899
-0.0334268
0.0207219
-0.07418
-0.090938
0.0388954
0.0520426
0.0428696
-0.0940972
0.0512276
-0.18665
-0.155864
0.012448
-0.0054613
-0.00698666
-0.0980454
0.0274237
0.0706217
0.0565367
-0.144926
0.0883895
-0.27052
0.267041
0.00347923
-0.0754721
0.0409253
-0.111626
0.0669598
0.0446659
-0.0793593
0.0562679
0.0230914
-0.122763
-0.08607
0.00170538
-0.00343719
0.00173181
0.247472
-0.455131
0.207659
-0.0032255
0.0045532
-0.0013277
-0.252048
0.161235
-0.056232
0.113779
0.0532528
-0.253182
0.199929
-0.37982
0.0218753
0.357944
0.369772
-0.179189
-0.110194
0.0117724
-0.0167289
0.00495643
-0.200442
-0.15086
0.351302
0.254556
-0.43854
0.183984
-0.216124
-0.1981
0.414224
0.0121532
-0.0201204
0.00796716
-0.312358
0.112246
0.200112
0.137718
-0.216032
0.104866
0.0778934
-0.182759
-0.0881719
0.0271042
0.0610677
-0.00303403
0.00203077
0.00100327
0.000699186
-0.00121868
0.000519491
-0.0619489
0.031685
0.030264
0.346668
-0.19342
-0.153248
-0.0320242
0.0856465
-0.0536223
-0.00122236
-0.00636621
0.0191519
-0.0432701
0.0241182
-0.0237569
0.379963
-0.127586
-0.124168
-0.0313972
0.0625299
-0.0311327
0.0218918
-0.0117985
-0.0100933
0.0106613
-0.0105183
-0.00014303
0.0151865
0.0161643
-0.0313508
0.381048
-0.201456
-0.179593
0.008704
-0.0270215
0.0183175
-0.00197939
0.00636492
-0.00438554
0.0308433
-0.0122985
-0.0185449
0.0396634
-0.0763584
0.036695
-0.00290081
0.00189523
0.00100558
-0.0115331
0.00766143
0.00387168
0.230751
0.185916
-0.0732306
0.144509
-0.0712782
-0.0914216
0.045167
0.0462546
-0.195863
0.339607
-0.143744
-0.0665734
-0.0127859
-0.0032255
-0.0306686
0.0372525
-0.00658392
-0.050963
-0.0404586
0.0388351
0.0117654
-0.0506006
0.0308592
-0.0783688
0.0475096
0.00546496
-0.385284
0.0763534
0.0945837
-0.170937
-0.0218756
0.143359
-0.0065739
-0.0049592
0.115435
-0.0157354
-0.0996995
-0.253028
-0.0593301
-0.205948
0.287103
-0.0811547
0.00760613
-0.00137036
-0.00623577
0.166961
0.102231
-0.269193
-0.0021096
-0.26841
0.0201309
-0.0467628
0.0266319
-0.120016
-0.0922511
0.00866622
0.000358018
-0.00902424
0.301336
-0.248083
0.209189
0.183173
0.104684
-0.0747108
-0.174168
0.043037
0.131131
-0.192925
-0.085985
0.27891
-0.191403
0.422154
-0.00595232
-0.142938
0.281249
-0.13831
0.156804
-0.235275
0.0784713
-0.0470078
0.0841586
-0.0371508
0.0728602
-0.165708
0.0928475
-0.0907239
0.0224661
0.0682578
-0.179397
-0.00223938
0.181637
0.139752
-0.0832157
0.148245
0.170093
-0.318338
0.186432
-0.113572
0.121909
0.157075
-0.278984
0.0132767
-0.120706
0.107429
0.0757675
-0.0761946
0.000427083
0.19959
-0.367674
0.168084
0.225263
-0.00823247
0.00918597
-0.000953495
-0.0192186
0.0348775
-0.067763
0.0526434
0.0151196
0.209347
-0.095097
-0.0185122
0.0299539
-0.0114417
0.00156606
0.000185344
-0.00175141
-0.00135904
0.00664543
-0.00528639
0.0140999
0.00779195
-0.0129596
0.0146545
-0.00169496
0.0437176
-0.039959
-0.00375859
-0.230858
0.127828
0.10303
-0.386288
0.243688
0.1426
0.00421987
-0.00488957
0.127866
0.354426
-0.107844
0.0706446
-0.0882006
0.017556
0.396826
-0.148032
-0.248794
-0.0536663
-0.0134398
0.0671061
0.185694
-0.038471
-0.147223
-0.00802965
0.00502077
0.0153547
-0.0134309
-0.00192379
0.190817
-0.0873136
-0.103503
0.0764831
-0.0818638
0.00538067
-0.108888
-0.115868
0.224756
-0.102359
0.107587
0.2087
0.188925
-0.397625
4.00286e-05
0.00401661
-0.00405664
0.00237724
-0.00628576
-0.0447515
0.0844149
0.127291
0.117246
-0.244537
-0.301505
0.194922
0.106582
-0.0654254
0.170545
-0.00943161
0.0181356
0.00239513
-0.102118
0.035272
0.00206073
0.00719241
-0.00925315
-0.0848661
-0.0703455
0.155212
0.0348552
0.00886244
-0.208557
0.378284
-0.169726
0.301725
0.0951012
0.346609
-0.127714
0.011455
-0.323358
0.024535
0.298823
-0.0705246
0.235636
-0.165111
0.0117249
0.00292957
0.187563
-0.103318
-0.0842449
-0.118201
0.106148
0.012053
0.0448528
0.00826056
-0.0531133
0.0592024
0.041216
-0.00298472
0.00100533
-0.18677
0.213367
-0.0265973
-0.028102
0.0472539
-0.205384
-0.133939
0.339323
-0.0602846
0.0918485
-0.0315639
0.0044761
-0.00277072
0.0337358
-0.0752306
0.0414947
-0.00759787
0.000132583
0.00746529
-0.00595892
0.0031348
0.00282412
-0.0274149
0.104801
0.32701
-0.178764
0.272853
-0.124278
-0.148575
0.119844
0.0677188
-0.0020511
-0.00173328
0.00490665
0.0562925
-0.00845646
-0.0882953
-0.0110842
0.0993795
-0.0254317
0.014859
0.0105727
-0.0377816
-0.00597374
0.0437554
0.000518745
0.00179696
-0.00231571
0.0343845
-0.357743
0.0523938
0.0450866
-0.0974804
-0.0987712
0.231447
0.000905445
0.000389651
-0.0012951
-0.321695
0.0971094
0.224586
-0.014085
0.023014
-0.00892896
0.0938349
-0.0794858
-0.0143491
-0.00573306
0.00610418
-0.000371122
0.298555
-0.125219
-0.00190985
0.0105761
0.0145716
-0.0110942
-0.0413484
0.101949
-0.0606002
0.248647
-0.47632
0.227673
-0.022029
-0.120928
0.00878793
3.27431e-05
-0.00882068
-0.238708
-0.0829876
-0.121931
0.120507
0.00142395
-0.0329001
0.0993813
-0.0664811
-0.0184304
-0.00700125
-0.00275165
0.000155547
0.00259611
0.305094
-0.165493
-0.0427588
-0.045324
-0.0033635
0.0468966
-0.0435331
-0.00428707
0.0431222
-0.156649
0.365349
0.0323453
-0.0171588
0.15998
0.195724
-0.355704
-0.354921
0.360386
-0.086101
0.0532009
-0.0612325
0.0298353
0.00924169
-0.188639
-0.294559
0.168669
0.12589
-0.126804
-0.11417
0.0306577
0.0631772
-0.186483
-0.0408788
0.122497
-0.265086
0.142589
0.0448612
0.0335258
-0.0783869
-0.122761
0.237045
-0.114284
0.0766526
-0.0429167
0.00114917
0.00454233
-0.0056915
0.00149354
0.00919083
-0.160598
-0.0108544
0.171452
0.297562
-0.165849
-0.131713
-0.0964656
-0.134392
-0.198575
0.354311
-0.155736
0.0160265
-0.0254581
-0.00174186
-0.0252797
-0.200134
0.369923
-0.169788
0.0809437
-0.00446061
-0.138784
-0.0951484
0.233933
-0.123054
0.290016
-0.0398472
0.144713
-0.085337
0.238328
-0.152991
-0.00174001
0.00206262
-0.361558
0.409713
-0.0481549
-0.0216664
-0.0690574
-0.0501768
0.0865272
-0.0363504
-0.0121094
0.00679242
-0.222849
-0.145343
0.368192
0.124468
-0.26569
0.141222
0.299515
-0.175048
0.00474561
-0.00610465
-0.393528
0.188145
0.0531887
-0.0599876
0.00679889
0.168803
0.158207
0.00250809
0.0732594
0.0302428
0.0604544
-0.0906972
-0.00891603
0.000723945
0.0875272
-0.210043
0.122516
0.0441265
0.141568
0.183178
0.0421543
-0.225332
0.0816165
-0.0507572
-0.151479
-0.148781
0.30026
0.0243188
-0.0747896
0.0504708
-0.124242
0.108496
0.0157463
-0.0130989
-0.0849465
0.0767397
-0.431661
-0.0297957
0.186599
0.415385
-0.190121
-0.158008
-0.0974674
0.255476
0.00833142
-0.00240768
0.0533323
-0.0181476
-0.0351847
-0.0429472
-0.0627064
0.105654
0.000515865
0.00863687
-0.00915274
-0.0231264
-0.000287175
0.0234135
0.321687
-0.181895
-0.139792
0.077705
-0.0478487
-0.0298563
-0.126698
-0.0634859
0.190184
-0.0984708
0.257395
-0.158924
-0.0427003
-0.0250626
-0.212059
0.124009
0.0880501
0.334766
0.0599937
-0.39476
0.0172733
-0.0109825
-0.00629081
0.0138664
-0.0797999
-0.0059187
-0.00172243
0.00764114
-0.103359
0.112505
-0.00914643
0.00955321
-0.0231156
0.0135624
0.225223
-0.438502
0.21328
-0.377696
0.222238
0.155458
-0.0981732
0.0127754
0.0853978
-0.00659198
0.000858921
-0.25439
0.288774
0.0641654
0.0605969
-0.124762
-0.0626537
0.115047
0.117332
-0.223063
0.105731
-0.250922
0.180397
0.111939
0.00501168
-0.11695
0.0386482
-0.0551129
0.0164647
-0.00482958
0.0377735
-0.063482
0.0257086
-0.00692863
0.0893359
0.212389
0.0148135
-0.00304105
0.188308
0.11747
0.0428856
0.0399743
-0.0568295
-0.106599
0.163429
0.00544735
-0.00429818
0.172521
0.244146
0.116041
0.052311
-0.15917
0.106859
0.149745
-0.260786
0.111041
-0.0735656
-0.0380602
0.104575
0.217112
0.0770618
-0.269987
0.00404039
0.0381021
-0.0421425
-0.035414
0.23482
-0.240132
0.142778
0.0973541
-0.0914893
0.0444815
0.0316507
-0.0597143
0.0280635
-0.0138045
0.122707
-0.108903
0.00512476
-0.00730879
0.00218402
0.0370512
0.0761121
0.00826228
-0.0306806
0.0224183
-0.0231849
0.0938295
-0.256208
0.157737
0.0770485
0.00889622
-0.0859447
-0.00126132
-0.00177271
-0.0910237
-0.106593
0.197617
-0.286807
0.135327
0.132697
-0.0207583
-0.193222
0.00645255
0.0554888
0.000651387
-0.0561402
-0.23494
0.00839674
0.226543
0.263788
0.349203
-0.259867
-0.00152905
0.00608552
-0.00455647
-0.0115146
-0.0201656
-0.214774
-0.260523
0.35791
-0.0973865
0.0324248
-0.0228716
0.287767
0.0932651
-0.381032
0.0578133
-0.0452596
-0.0125537
0.356642
-0.235034
0.0976152
0.0734765
-0.234074
-0.0729313
0.00722013
0.0657112
-0.13882
0.236653
-0.0978329
0.347178
-0.178375
0.0430688
-0.00331249
-0.0397563
-0.12991
-0.161236
0.291147
-0.126594
0.00554359
0.121051
-0.00358369
0.00238212
0.0254305
0.0311331
0.293825
-0.324958
-0.00223019
-0.0176709
0.0625237
-0.0244641
0.0327264
0.00199141
0.000531231
-0.0307727
0.0302415
-0.0811409
-0.108773
-0.122279
0.0660226
0.0562567
0.367721
-0.391478
-0.0204714
0.0616765
-0.0412051
0.112792
-0.367182
-0.0720208
0.0491647
0.0228562
0.260661
-0.102167
-0.158494
-0.181894
0.125065
-0.00801146
0.00147366
0.0065378
0.0118521
0.00212255
-0.0139747
0.133961
-0.394484
-0.24155
0.113964
0.0147293
0.0407596
-0.0265923
-0.147575
-0.0718023
0.25498
0.127024
-0.25488
0.127857
0.00948974
-0.371047
-0.111253
0.0708314
0.0404219
-0.0582018
-0.10035
0.158552
0.00404155
-0.0225537
0.0302769
-0.0597223
0.0294454
0.225515
-0.416808
0.191293
-0.0855406
0.0461205
0.0394201
-0.00257189
-0.00630187
0.00887376
0.101174
-0.0370087
0.0992323
0.148977
-0.248209
0.20644
-0.429289
-0.404382
0.225091
0.0640485
-0.0494786
-0.0145699
-0.0833846
0.0513603
0.0753231
-0.11824
0.0429164
-0.00143978
0.0102277
0.0175946
0.0179679
-0.0355625
-0.0452838
-0.174882
0.220165
0.00765885
-0.0091879
-0.187089
-0.130496
0.317585
0.00566089
-0.0375224
0.0318615
0.106235
-0.0794324
0.280149
-0.153125
-0.00650002
0.11866
-0.11216
0.297971
-0.201219
-0.0967525
-0.105646
0.000757748
-0.00588465
0.00762493
-0.00726691
-0.07803
0.0981792
-0.0201492
0.00232343
0.00669113
-0.00901456
0.0125328
0.0187676
-0.0313004
-0.0520396
-0.24569
0.276823
0.101646
-0.347336
-0.0079936
0.0126195
-0.0046259
0.0202417
-0.0752377
0.054996
-0.155597
-0.258862
0.414458
0.0145043
0.0979733
-0.112478
0.0978574
0.0261583
-0.124016
0.00974052
-0.00974052
0.0719373
-0.122609
0.0506722
-0.0032551
0.00088881
-0.115159
0.0371293
0.0994381
-0.208326
-0.027109
0.0276403
-0.212254
0.16697
-0.143608
-0.152201
0.29581
0.120176
0.00421392
-0.12439
0.0539721
-0.0424124
-0.0115597
0.344326
-0.1576
-0.00146722
-0.120214
-0.0040284
0.0117845
-0.0174987
0.00571422
-0.0479125
0.031542
0.00303717
-0.00342837
0.000391198
0.0516438
-0.264393
0.0077845
0.286041
-0.0084906
0.116924
-0.00148913
0.16665
0.149665
-0.316315
-0.102216
0.106056
-0.00384009
-0.100892
-0.111168
-0.276278
0.246661
0.029617
0.275387
-0.0892018
-0.186185
-0.0062377
0.00704495
-0.000807247
0.0980701
-0.116387
0.0183168
0.00420208
-0.0771334
-0.0197704
0.0584186
-0.0191557
0.0160846
0.0030711
0.158868
0.138693
0.0131272
-0.00425591
0.0783006
-0.0580588
0.14205
-0.264084
0.122034
-0.033457
0.0329801
0.00187429
-0.00140714
-0.236625
0.428771
-0.192146
-0.227614
0.153408
0.0742056
0.370529
-0.196832
-0.173697
0.0327778
-0.0151832
-0.162342
-0.0933373
0.255679
0.406894
-0.0391733
0.305021
-0.0767353
-0.104632
0.231923
0.0631453
-0.0099566
-0.0946362
-0.219047
0.313683
0.00873955
-0.00667882
-0.139849
0.0377384
0.102111
0.277708
-0.120906
-0.156801
0.0554079
-0.0983551
0.104706
-0.00663552
0.00102255
0.00168476
-0.0027073
0.000866117
3.93284e-05
0.00702837
-0.00624824
0.130063
-0.268882
-0.148236
0.372001
-0.223766
-0.172268
0.397783
0.00245948
-0.00455652
0.00209703
-0.199531
-0.198399
0.39793
-0.000406577
0.000925322
-0.0587597
0.0726261
-0.0319587
0.0651152
-0.0331565
0.0104955
-0.00138761
-0.00910787
-0.00747212
0.00752847
-5.63441e-05
-0.217018
0.0798798
0.137138
-0.119406
-0.135118
0.254524
0.00497297
-0.0066954
0.104683
-0.074744
-0.0299387
-0.200541
0.381021
-0.18048
-0.394692
0.0110444
0.383648
-0.0422909
0.015822
0.0264689
-0.0216771
-0.0498206
0.0714978
-0.00163979
0.0447086
-0.0114095
0.00565388
0.00575561
-0.0343072
0.0109804
-0.110937
-0.0585108
0.169448
0.00971774
0.010772
-0.0204897
0.00760613
0.431036
-0.429618
-0.00141842
0.000201153
-0.00405071
0.00384955
-0.00201989
0.013872
0.00531459
-0.103868
0.0985531
0.00916129
-0.0176996
0.039101
-0.0214014
0.0234315
0.0967448
-0.00060004
-0.0677564
0.0683564
0.138216
-0.275166
0.13695
0.0507026
-0.00540258
-0.0453
-0.164009
-0.159429
0.323438
0.19602
-0.137235
-0.0587842
-0.0218997
-0.0530425
0.0749422
-0.0630848
0.0203844
-0.0333499
0.0636268
0.0729161
0.0317666
0.00143397
0.00172191
-0.00315588
0.112274
-0.203298
-0.00938619
0.00770217
-0.202552
-0.209152
0.411705
0.0811425
-0.175672
0.0945298
0.119297
-0.00496546
-0.027072
0.0320375
-0.316331
0.190467
0.125864
-0.0375979
-0.0344229
0.35707
-0.108423
-0.109888
-0.0167062
0.0352056
-0.0671643
0.150118
0.19655
-0.27895
0.155826
0.123124
-0.0890457
-0.0467781
0.135824
-0.00154846
0.0265676
-0.0250192
-0.125548
0.0155924
0.109956
0.0528906
-0.077492
0.0246014
-0.168608
0.0614416
0.107166
0.0334623
-0.0209295
0.0652301
-0.0274566
0.0529826
0.0247224
-0.0240276
-0.25225
-0.0207931
0.0704028
-0.0496098
-0.0450768
0.0899379
-0.000443239
0.00402811
-0.00358487
-0.0330589
-0.135549
-0.33191
0.175496
-0.00737124
0.0851364
-0.103399
0.0182624
0.182071
0.0894116
-0.271483
-0.00878048
0.0184982
-0.223558
-0.178416
0.401973
0.023143
0.0108976
-0.0340405
0.0420837
-0.0364228
-0.419643
0.219072
0.200571
0.298587
-0.160371
0.0553357
0.0147323
-0.070068
0.0424274
-0.0628989
0.156144
-0.137023
-0.0191212
0.179629
-0.0815537
-0.0980753
0.00455635
0.0068728
0.191827
-0.187478
0.106337
-0.01
0.0098401
0.115814
-0.149087
0.0332736
-0.102556
0.0612075
0.234216
0.0637556
0.31307
-0.186934
-0.126135
-0.322626
0.200673
0.121954
-0.000860782
0.0017142
-0.000853422
-0.0894306
0.164927
-0.0754969
0.272616
0.116939
-0.389555
0.00461886
-0.000346369
0.253285
0.0741912
-0.327476
0.0392623
-0.183749
-0.00276977
0.00379231
-0.183624
-0.18405
-0.0243679
0.0102829
0.134694
-0.00720531
-0.127489
0.0928903
0.182497
-0.149458
0.0762275
-0.175921
0.371434
-0.195513
-0.0102286
0.0111293
-0.000900737
-0.00330631
-0.00453924
0.00784554
0.0200398
0.0377735
-0.306762
-0.0083618
-0.00304769
-0.0074962
-0.00157512
0.00907131
-0.389557
0.213636
-0.00042457
-0.00418728
0.00461185
0.114127
-0.0627592
-0.0513678
-0.410183
0.0300938
0.38009
-0.353897
0.153455
-0.103316
-0.136816
0.113105
0.043039
0.00947674
-0.00115164
-0.00832509
0.367885
-0.219712
-0.148173
-0.162493
-0.25715
-0.0312733
-0.0318114
-0.0584084
0.0346746
0.0237339
0.347761
0.0107038
-0.00950993
-0.00119391
0.00686994
-0.0044927
-6.64442e-05
0.00446852
-0.00440207
0.126153
0.186916
0.209023
-0.121496
0.356458
-0.215284
-0.069695
0.165068
-0.0433886
0.100495
-0.0571065
-0.186868
-0.19942
0.0809804
-0.146451
0.0654702
0.00650155
-0.416685
-0.123525
-0.0995382
0.073162
-0.163501
0.090339
-0.0491151
0.0344229
0.0146923
0.0635279
-0.0384762
0.0365249
0.0382985
-0.0748235
0.0134005
0.0864388
-0.0998393
0.0477662
-0.0685592
0.0867882
0.0845752
-0.143192
-0.23637
-0.0169075
0.253277
-0.123168
-0.122059
0.245227
0.0371256
-0.0611515
0.0240259
0.0190333
0.0316693
-0.0483407
0.0306411
-0.00234111
0.00189787
-0.00116416
0.00136532
0.167343
-0.0102774
0.00228378
0.195256
0.050989
-0.246245
0.189395
0.176494
-0.365889
0.0182304
-0.00650084
-0.0117296
-0.161832
0.334757
-0.172925
0.0100374
-0.0100374
0.0783815
-0.0458961
-0.0324854
0.0107607
-0.0107607
-0.00641254
0.00909933
-0.00268679
0.00304929
-0.00408246
0.00103317
0.196949
0.053476
-0.250425
0.0388893
-0.0115357
-0.00596301
-0.120124
-0.0237052
0.00591484
-0.00094187
0.0368188
-0.00590037
-0.0309184
-0.0475749
-0.233597
0.281172
-0.0222356
0.0210769
0.00115871
-0.082935
0.246313
0.00336406
-0.00966592
0.00342215
-0.129215
-0.0878034
0.144376
-0.309906
0.16553
0.0152191
0.00779485
0.156617
0.191922
-0.348539
-0.223498
0.15655
0.0669484
-0.0308211
-0.0311279
0.0801093
-0.0372237
-0.00174822
0.00551259
-0.00376436
0.051804
-0.0201532
-0.0296367
0.226586
0.0826006
0.113419
-0.090986
-0.060605
0.00760174
0.0530032
-0.251969
0.0155988
-0.00378937
0.0127359
-0.00894657
0.140784
-0.0060896
0.124741
-0.247501
-0.0103881
0.0028919
-0.00826621
0.00635635
-0.0976495
0.0646394
0.0330101
-0.156394
0.0669639
-0.16112
-0.117831
0.281798
-0.0672851
-0.214513
-0.0298532
-0.0396128
0.069466
-0.0930109
-0.0251898
-0.0118657
0.129355
-0.117489
-0.0375348
-0.0451205
0.0826553
0.00885754
-0.0126469
0.0185232
0.0476535
-0.0661767
0.210774
0.205893
0.297042
-0.13066
-0.099499
-0.00271674
-0.256978
-0.00621681
-0.01352
0.0197368
-0.0320969
-0.0473889
0.0308433
-0.084545
-0.0801478
0.0112122
-0.302416
0.229666
0.0727507
0.0109713
-0.0185303
0.007559
0.0207001
-0.108995
0.0029114
-0.000451918
-0.0293298
0.0733004
-0.0439706
-0.00242978
-0.00691847
0.00934824
-0.133383
0.00295562
0.141894
-0.125028
-0.0168664
0.00927485
-0.00695143
-0.124525
0.198002
-0.0244969
0.0229485
-0.0767824
0.0469292
0.151876
-0.0708955
-0.116054
0.0660698
0.0499844
-0.111036
0.0972312
-0.00108912
0.00066455
0.106569
-0.0914675
-0.0151016
-0.381792
0.182261
0.000375821
0.000780418
-0.00115624
0.356365
-0.0837485
0.305342
-0.157626
-0.147716
-0.0757721
0.0154875
0.00180643
0.00793409
-0.0728574
0.0511803
-0.00911778
0.00187251
0.00724527
-0.045382
0.143239
0.488099
-0.256395
-0.231704
-0.00417621
0.0113034
-0.00712724
-0.099726
0.048763
-0.199077
-0.19738
0.396457
-0.0418801
-0.00723505
0.0614202
-0.109098
0.0476774
-0.00159542
0.00302939
0.144191
0.156916
-0.0411019
0.111031
-0.105716
-0.190707
-0.11171
0.0692455
-0.0304987
-0.0387468
-0.095259
0.290515
0.0639225
0.0273779
-0.0913003
-0.00755665
0.00758939
0.0104741
-0.0122269
0.0017528
-0.118248
0.111748
0.041073
0.209975
-0.0795134
-0.130461
-0.353877
0.192045
-0.142513
0.280848
-0.138335
-0.0566548
0.0748984
-0.0182436
-0.0483356
-0.0513904
0.0299479
-0.178606
0.148658
-0.0843752
0.276481
-0.192105
-0.00962663
0.0849498
-0.102869
-0.0328766
0.135746
0.0139025
0.00378319
0.0756425
0.00140593
-0.06618
0.039011
0.027169
-0.0273164
0.00419001
-0.00124663
-0.0120621
0.0133088
0.0975723
0.0888599
0.016802
-0.00583073
0.00482288
-0.116497
0.129774
0.00647335
-0.00791313
0.259133
0.121168
-0.133034
0.0337002
-0.391122
0.222647
0.168475
0.0272352
-0.0449206
0.0176854
-0.0390282
-0.000734697
0.00173247
-0.000997778
0.0722679
-0.0996828
-0.00204199
-0.00252708
0.00456907
0.0509641
-0.143766
0.0928016
0.0151796
-0.043677
0.0284974
0.168936
-0.40556
-0.00622557
-1.21275e-05
-0.0302717
0.119766
-0.0894948
-0.00960061
0.0921778
-0.0787773
-0.295739
0.211364
0.088776
-0.195369
0.176952
0.131933
-0.308885
0.0822985
-0.0640421
-0.0182564
0.037033
0.0411589
-0.0781919
-0.114651
0.0143283
0.100322
-0.0846095
0.0525126
0.0242889
0.147494
-0.0965302
0.024621
-0.0747978
-0.0491307
0.0870123
-0.0378816
0.0598122
-0.0874734
0.0276613
0.0357927
0.0398293
-0.075622
-0.0399487
-0.0823306
-0.0295951
-0.0546263
-0.0075275
0.0101801
-0.00265261
-0.0994422
0.256517
0.35342
-0.105948
0.031381
0.0469195
-0.015645
0.0795675
-0.0396731
-0.0195551
0.0592282
-0.0833405
0.0768639
0.00647664
0.215098
-0.387782
0.172683
-0.0347388
-0.0536029
0.0883416
-0.146642
0.257474
-0.110832
0.136749
-0.146905
0.0101561
0.0936643
0.391211
-0.136655
-0.386863
0.0633718
0.323492
0.0886105
-0.207215
0.118605
0.20867
0.196239
-0.404909
-0.142908
0.0374872
0.202343
-0.335717
0.133374
-0.0718985
-0.0190395
0.00485475
-0.00816106
4.87618e-05
-0.00294957
0.228384
-0.216604
-0.0117791
-0.0563752
-0.240816
0.297191
-0.00801146
0.114857
-0.253641
0.00405403
0.0810824
-0.314656
0.127567
-0.0197808
0.0751164
-0.121954
0.0207385
0.101215
0.000194445
-0.00146765
0.00127321
0.0362817
0.144328
0.100338
-0.19981
0.0994718
-0.0306623
0.0739835
-0.0433212
0.106702
-0.121325
0.0146232
-0.394275
0.238678
-0.079603
0.036156
0.043447
0.486561
-0.211069
-0.0422446
-0.0379475
0.0801921
0.209699
0.137433
-0.347132
-0.0854963
-0.138002
-0.00178833
-0.0102738
0.0794776
-0.0657488
-0.0137288
0.199022
-0.329518
0.0340467
0.04462
-0.0786667
-0.102706
0.0507243
0.0519812
-0.070072
-0.0180999
0.0572334
0.0664328
-0.123666
0.0376815
-0.25225
-0.0104926
-0.122705
0.000773836
-0.00712578
0.00705934
0.140765
-0.258833
0.118069
0.04136
0.0236717
-0.0650317
-0.126455
0.246334
-0.119879
-0.0621795
-0.324684
-0.125749
0.168786
-0.00252144
0.0173736
0.023738
0.0278006
0.051677
0.012536
-0.0100563
-0.00247973
-0.00818795
-0.000728084
-0.00629524
-0.00817881
0.0144741
0.340672
-0.14165
0.292874
-0.165408
-0.127466
-0.0743613
-0.0127056
0.0870669
0.00787822
-0.0051346
-0.0115095
-0.0979618
0.112466
-0.115788
-0.126528
0.242316
0.179795
0.134578
-0.314373
-0.00524281
0.0141003
0.0919096
0.00249798
-0.0944076
-0.0190546
-0.0225591
0.0416137
0.102167
0.0330165
0.0275612
-0.0605777
-0.144248
-0.0887792
0.0566601
0.0321191
0.186008
0.184521
0.108089
-0.00138637
-0.0178278
0.0591878
0.204933
-0.353168
0.336393
-0.159987
-0.176406
0.0863344
-0.0549534
-0.0116746
0.153569
0.095253
-0.0541112
0.203856
0.0465024
-0.100887
0.0543847
-0.00241167
0.0229055
-0.0204938
-0.103351
0.29431
0.0933712
-0.0468689
-0.044611
0.0596308
-0.0150198
-0.0141301
0.00783482
0.102641
-0.0723979
0.0528677
-0.0376881
0.00388999
0.00677135
0.156334
-0.0244221
-0.131912
-0.137715
0.24271
-0.104995
0.00264847
-0.0168767
0.0142282
-0.0361062
-0.0433756
0.0794818
0.189996
-0.160048
-0.0072849
0.00871471
-0.00142981
-0.00294802
0.00298804
0.0129269
-0.0118696
-0.00105732
0.0725828
-0.0367901
-0.098181
0.0455655
0.0342581
0.0423944
-0.292376
0.236001
0.00789874
-0.00843311
0.00053437
-0.000455985
-0.0127803
0.0132363
0.080856
0.0679525
-0.148809
0.0241055
0.056786
-0.0808915
-0.340801
0.154151
-0.223233
0.128085
0.0689665
-0.0982886
0.029322
0.0894933
-0.214019
-0.094888
0.195226
0.326638
0.032973
-0.0660426
0.0330695
0.336634
-0.111411
-0.255987
0.208412
0.0972781
0.128599
-0.225877
0.0776179
0.0841618
-0.16178
-0.00236482
-0.0051073
-0.190216
0.148464
0.0417514
0.0407644
0.0376172
-0.229837
0.445132
-0.215296
0.0373058
0.0229331
-0.0602388
-0.00900864
0.0789831
-0.0699745
-0.275847
0.133334
0.0666857
-0.0481625
0.185186
0.151207
0.0832165
-0.0545218
-0.0286947
0.00336426
-0.00085689
-0.00250737
-0.0431381
0.000606252
-0.000411808
0.0483437
-0.0858785
0.318259
-0.188814
-0.129445
0.128559
0.0622573
0.135869
0.0742044
-0.15907
-0.00672111
0.00165837
0.0533969
0.0289016
-0.000635986
0.0111101
-0.416372
0.200248
0.396739
-0.22363
-0.173109
-0.0865717
0.192494
-0.105922
-0.0793664
0.0325066
0.0468599
0.21046
0.1214
-0.33186
0.214386
0.168083
-0.382469
-0.153623
0.0507544
0.378872
0.0267589
-0.405631
0.0316155
0.0388609
-0.0704763
0.00901424
-0.0447547
0.0357404
0.0736829
-0.272258
-0.216322
-0.173235
-0.115355
0.260215
-0.14486
0.0131419
-0.000215019
-0.0677628
0.118182
-0.0504196
0.0616315
-0.283955
0.222323
0.053887
0.0385525
-0.0924395
0.000747524
0.00921771
0.390126
0.00782802
-0.397954
0.316377
-0.108235
-0.208142
0.0183502
0.0176301
-0.0359803
-0.240168
0.301799
0.309927
-0.193908
-0.116019
0.0121342
-0.070894
-0.190252
0.170354
0.0198974
-0.399196
0.415438
-0.0162421
0.319957
-0.419607
0.0996499
0.0711426
-0.0931487
0.0220061
0.405022
-0.140437
-0.264585
0.270538
0.231143
-0.260779
0.217676
0.128554
-0.34623
0.000538217
-0.000833252
-0.00693882
-0.282356
0.290141
0.0121731
0.00881105
-0.0209841
0.170693
-0.257926
0.0872332
0.000168689
-0.00163634
-0.0110777
0.180071
-0.091029
-0.0890418
0.00035712
0.00108053
-0.00143766
9.1581e-05
-0.00902323
-0.176923
-0.0133284
-0.317242
0.181498
0.135744
-0.364249
0.155691
0.00390093
-0.00217902
0.0314098
-0.0242854
-0.0071244
-0.0332887
0.000845019
-0.0389472
-0.0799065
0.399864
-0.00441359
-0.0699478
-0.207298
0.0806002
-0.00129703
0.00408269
-0.00278565
-0.0651485
0.132128
-0.0669791
0.00104654
0.00965731
0.207107
0.20956
-0.0209005
-0.0060235
0.026924
-0.00441224
-0.000250765
0.004663
-0.0290372
-0.0438276
0.0728649
-0.187323
-0.190373
0.00858161
0.00386635
-0.013689
0.0665796
-0.103041
0.2268
-0.123759
-0.048754
-0.017426
-0.408906
0.322666
0.0862407
0.228832
0.14667
-0.375503
-0.0934581
-0.0848226
0.178281
-0.293572
0.163381
0.130191
0.123073
-0.0495573
-0.0735162
-0.00146626
-0.00449266
-0.00914243
-0.00137588
0.228429
-0.397647
0.169217
0.100889
0.209251
-0.31014
-0.0174073
0.0541769
-0.0367696
0.205471
-0.116861
0.119648
-0.0102211
-0.109427
-0.118031
0.273858
0.273972
0.092504
-0.366476
-3.86626e-05
0.00450718
-0.169541
0.32532
-0.155779
-0.239302
0.145778
0.0935237
0.237699
-0.132103
-0.105597
0.00198932
-0.0061766
0.0136198
0.123967
-0.137587
-0.240154
-0.0811558
0.32131
0.00612702
-0.0085568
0.383097
-0.173908
0.127814
-0.031983
0.0855433
-0.054938
-0.0306052
-0.118036
-0.0721796
-0.0887
0.166318
-0.00183306
0.0772469
-0.0456314
-0.00358016
-0.00129226
0.00487241
0.0790256
-0.05492
0.158679
-0.101446
-0.0227321
-0.13066
0.153392
0.106682
-0.0538073
-0.0528752
5.80292e-05
0.00330623
-0.0690755
0.149932
-0.00561573
-0.00434951
0.026973
0.0370755
7.6439e-05
0.000299382
-0.0452677
-0.0498974
0.0951651
0.0346891
0.196454
-0.131247
0.0634842
0.0958127
-0.00690283
0.00741869
0.0167199
0.00491889
0.161163
-0.0699956
-0.0911672
-0.076178
0.0367121
0.191926
-0.378021
0.186095
0.00459702
9.49081e-05
-0.00469193
0.0928408
0.233997
-0.326838
0.0395244
-0.321881
-0.00701648
0.0387692
-0.0421327
-0.00880923
0.010787
-0.00197773
-0.144074
-0.128241
0.272315
-0.0634208
0.0244103
0.0390105
-0.0156275
0.0151716
0.397365
-0.0371573
0.0747648
-0.0376076
0.288462
0.0411407
0.22556
-0.370903
-0.0851125
0.2252
-0.140088
-0.158551
0.10035
-0.0336135
0.028648
-0.0738082
-0.201358