/*--------------------------------*- C++ -*----------------------------------*\
| =========                 |                                                 |
| \\      /  F ield         | OpenFOAM: The Open Source CFD Toolbox           |
|  \\    /   O peration     | Version:  v2012                                 |
|   \\  /    A nd           | Website:  www.openfoam.com                      |
|    \\/     M anipulation  |                                                 |
\*---------------------------------------------------------------------------*/
FoamFile
{
    version     2.0;
    format      ascii;
    class       volVectorField;
    location    "300";
    object      U_0;
}
// * * * * * * * * * * * * * * * * * * * * * * * * * * * * * * * * * * * * * //

dimensions      [0 1 -1 0 0 0 0];


internalField   nonuniform List<vector> 
27802
(
(0.986055 0.0618652 7.87746e-21)
(1.00001 0.00011281 0)
(0.943836 0.0266622 8.90764e-21)
(1.07568 -0.0199312 -6.75382e-21)
(1.00404 0.0221876 0)
(1.30907 0.0827879 0)
(1.00444 0.0219998 0)
(1.19449 0.106262 -4.08605e-20)
(1.01877 0.0176984 -1.09098e-21)
(1.11803 -0.0773821 0)
(0.806093 -0.0556611 7.68326e-21)
(0.37985 0.468651 -7.52132e-20)
(1.05955 0.120356 -6.28516e-21)
(0.561146 -0.120811 -3.9301e-20)
(0.289221 -0.0494248 -3.41658e-20)
(-0.177148 0.0141523 -7.27629e-20)
(0.0027479 0.0198968 -3.78182e-20)
(1.01919 0.0182633 9.9386e-22)
(0.782199 -0.0588642 0)
(0.0274463 0.00770785 9.32954e-21)
(0.696782 0.05656 2.61115e-20)
(0.298399 -0.0492405 0)
(1.02717 0.00767919 1.05473e-21)
(1.11419 -0.0438199 0)
(1.2268 0.292234 1.3995e-20)
(0.925866 0.157374 7.07359e-21)
(1.00682 0.010915 0)
(1.08777 -0.0244349 -9.55508e-21)
(1.01351 0.000606095 -4.14323e-24)
(-0.269267 0.00238943 7.48414e-20)
(1.11334 -0.044536 -1.49352e-20)
(1.14885 0.105562 -6.73753e-21)
(0.987425 0.0607566 -7.55154e-21)
(1.02625 0.000170453 -1.3076e-21)
(0.99925 0.000274302 5.15471e-21)
(-0.246999 -0.00226346 -3.21697e-20)
(-0.279516 -0.0053474 3.25791e-20)
(1.02467 0.011779 0)
(1.03765 0.00621307 0)
(-0.200729 -0.01062 0)
(0.414186 0.460428 3.28829e-20)
(0.999333 0.000149065 -3.39483e-21)
(1.09062 0.021002 0)
(1.02337 0.00178121 1.60771e-21)
(0.948188 0.130292 -1.91091e-21)
(-0.0983475 0.00871292 -3.27898e-21)
(0.995727 0.00575901 -1.61821e-22)
(-0.154515 0.0202096 0)
(0.021795 -0.191561 7.34562e-20)
(0.468975 -0.0387445 -8.9379e-21)
(0.318784 -0.0538113 -2.9963e-20)
(0.928541 0.162246 -7.15648e-21)
(-0.179072 -0.00813439 0)
(0.504921 0.826821 9.40432e-21)
(1.03552 0.0103972 2.35194e-21)
(1.00062 0.000218856 0)
(1.14334 -0.0584654 2.12437e-20)
(0.994475 0.0135516 0)
(0.958196 0.112914 6.32477e-21)
(1.20155 0.117571 0)
(0.272048 0.00573709 0)
(0.94045 0.00731414 0)
(1.03097 0.120977 -1.92371e-21)
(1.01748 0.00300364 2.10137e-21)
(1.02348 0.00219524 0)
(1.02217 0.0413143 7.98812e-22)
(0.927368 -0.0787369 8.70203e-23)
(1.1451 -0.0586486 0)
(1.20188 0.121866 3.34981e-20)
(1.01412 0.0387551 -4.06695e-22)
(1.02345 0.00157533 1.1584e-23)
(0.339786 -0.0531328 -1.24081e-20)
(0.398705 -0.0613299 0)
(1.0927 -0.0629033 0)
(0.923228 -0.00402719 -1.99616e-20)
(1.06018 -0.00988355 3.81729e-23)
(0.935475 -0.0797638 3.97691e-23)
(-0.285267 0.00418756 5.77029e-23)
(0.137813 0.00623322 9.9684e-21)
(-0.16927 -0.00392469 0)
(1.01299 0.000589818 4.01201e-24)
(1.00877 0.0116983 -4.9808e-22)
(0.81266 0.188005 0)
(1.02207 0.069237 -8.64953e-22)
(1.03162 0.0360225 0)
(1.11685 0.0396049 -1.01569e-20)
(1.00009 0.000791045 8.19491e-22)
(0.241048 -0.0318418 0)
(-0.306282 0.0022484 -5.31e-20)
(0.980666 0.0031111 7.83513e-21)
(0.99826 0.0157888 1.25867e-22)
(0.172512 0.00509911 -1.28232e-20)
(1.01903 0.0152813 0)
(-0.194274 0.00249252 7.15621e-20)
(0.335045 -0.0553898 -6.87293e-21)
(1.09813 -0.0211462 8.76967e-21)
(1.00901 0.0121587 3.40945e-22)
(1.09425 -0.0221293 5.25973e-21)
(0.991252 0.000524112 -6.17504e-21)
(1.12571 -0.0797647 -1.22514e-20)
(1.03793 0.00561208 9.25388e-21)
(1.02957 0.01078 0)
(0.276167 0.771199 8.67895e-21)
(0.258285 0.00349128 0)
(0.408551 -0.0607192 -2.31129e-20)
(1.02993 0.12446 -2.87181e-21)
(0.985175 0.0145547 -4.28611e-21)
(1.02367 0.00200855 -3.67366e-21)
(1.03505 0.0100376 2.05718e-21)
(0.944224 0.127985 4.21104e-21)
(-0.189342 0.0107384 5.30542e-20)
(0.998041 0.0155313 4.24709e-22)
(1.02615 0.000393278 -2.29562e-21)
(0.991435 0.00228251 -5.91591e-21)
(0.984395 0.014446 0)
(1.0172 0.0025661 2.14445e-21)
(1.07411 0.0792902 7.70352e-22)
(0.804684 0.48863 0)
(0.128966 -0.0211056 1.21564e-20)
(1.2226 0.284555 -4.79687e-20)
(0.0337975 0.007081 0)
(1.19738 0.114393 0)
(-0.0911915 -0.016237 -1.65597e-22)
(0.788464 0.494887 -2.05819e-20)
(0.415212 0.205737 -4.37588e-20)
(0.706427 0.358925 -2.50397e-20)
(1.03107 0.0533684 3.85635e-21)
(1.07935 0.0174445 1.35468e-20)
(0.200962 0.0756843 -9.38577e-20)
(1.02657 0.000867648 -2.39081e-21)
(1.16483 -0.0135734 1.87689e-20)
(1.14361 0.0684636 -1.46294e-20)
(1.00516 0.0498069 5.344e-21)
(-0.248588 0.00868035 8.73139e-20)
(-0.0577628 -0.00382416 -2.24677e-20)
(1.06368 0.00238907 0)
(0.677458 -0.0898329 0)
(0.549199 -0.10844 2.22224e-20)
(0.993566 0.00787518 -4.98846e-21)
(1.00468 0.0488972 -9.91309e-24)
(0.579899 -0.116931 0)
(1.12147 -0.0786979 4.59144e-21)
(0.845494 0.0424585 -1.5243e-20)
(0.927343 0.173559 -7.79468e-21)
(1.02429 0.0120416 0)
(0.31763 -0.0198704 7.28972e-21)
(0.895587 0.0978502 -1.88315e-20)
(1.10419 -0.0102896 -1.53682e-20)
(1.04096 0.00655843 0)
(1.14377 -0.0783918 2.13616e-20)
(0.964888 0.174691 0)
(1.31546 0.146264 2.62425e-20)
(1.09048 0.0226275 2.79708e-20)
(-0.0809268 -0.0214831 -2.42763e-20)
(1.00005 6.13636e-05 2.66313e-22)
(0.109273 0.00501029 -5.81806e-21)
(1.06248 0.00290628 0)
(1.09871 -0.0221165 -2.22688e-20)
(1.02415 0.00297986 -2.30751e-21)
(0.999373 0.00386775 -9.90255e-22)
(1.01754 0.00283098 -2.44468e-21)
(1.02131 0.0409201 0)
(0.354637 -0.0247931 5.03437e-20)
(1.01284 0.00843724 -8.98839e-22)
(1.00008 0.00130223 3.13287e-23)
(1.00004 0.000407786 0)
(0.37669 -0.0575963 4.46797e-20)
(1.00972 0.0227422 5.98182e-22)
(1.00538 0.0480503 -2.40817e-21)
(0.97543 0.0474334 -5.26515e-21)
(1.09083 0.255714 1.56392e-20)
(-0.0711339 -0.00815766 -2.88501e-21)
(-0.0121816 0.0121732 -1.01285e-19)
(1.09276 0.557859 -7.24865e-20)
(1.0071 0.0177374 1.24457e-21)
(1.21243 -0.000911143 -1.85777e-20)
(-0.228391 -0.000936158 -9.04599e-21)
(0.817337 -0.0661857 -2.67769e-20)
(1.01727 0.00240852 -2.09309e-21)
(0.985752 0.0138092 0)
(1.07209 0.519438 3.13975e-20)
(0.435598 -0.0446117 1.07536e-20)
(-0.301684 -0.00279035 0)
(0.640588 -0.0667469 0)
(1.02413 0.00358154 -9.86304e-22)
(0.423404 -0.061423 7.76201e-20)
(0.135434 0.0316856 -6.09934e-20)
(0.158663 -0.945517 0)
(1.11357 -0.0633013 -1.63058e-20)
(0.045787 0.0609015 8.30205e-20)
(0.209534 -0.032497 -8.59589e-20)
(1 8.17171e-05 0)
(0.949591 0.0247334 1.16509e-20)
(1.16938 -0.0632018 -1.7358e-20)
(1.03592 0.00504793 -4.10956e-21)
(1.3109 0.15003 6.57142e-21)
(0.0777128 3.30614e-05 -4.00459e-21)
(0.640592 -0.0536237 0)
(1.17059 -0.0624601 -3.06449e-20)
(0.795678 -0.0774883 0)
(1.03123 0.303121 -3.82531e-21)
(0.999465 0.0037039 0)
(0.987976 0.0572888 0)
(1.07458 0.0774502 0)
(0.220832 -0.0316787 -5.41995e-20)
(1.15376 0.039062 2.329e-20)
(1.00919 0.0225218 -1.27003e-21)
(1.02015 0.0190274 1.48828e-21)
(-0.242504 -0.00618715 -7.30492e-20)
(1.03119 0.0158482 -3.38687e-21)
(1.04045 0.00683791 -1.17758e-21)
(0.802768 -0.0768615 8.62779e-21)
(1.07647 -0.0190765 7.23336e-21)
(-0.258639 0.000508012 0)
(1.02373 0.00289952 1.90037e-21)
(1.00714 0.0111437 0)
(1.16271 -0.0125524 3.14865e-20)
(0.964722 0.0225975 7.27614e-21)
(0.997143 0.0166051 -2.36945e-21)
(0.999992 0.000165293 0)
(0.337069 -0.0559455 -6.53231e-21)
(1.00531 0.022518 3.28232e-21)
(0.985433 0.0221574 1.27436e-22)
(1.18196 -0.0389185 -1.37735e-20)
(0.974985 0.0236774 0)
(1.16431 -0.0505015 1.10059e-20)
(1.04298 0.0425772 -2.70978e-21)
(1.10523 -0.0115088 1.7178e-20)
(1.0231 0.000902328 -1.79306e-21)
(0.975648 0.024289 -1.26097e-20)
(0.991638 0.00314144 0)
(1.09356 0.0910908 1.65231e-20)
(1.15742 -0.0505903 0)
(0.99931 -9.27817e-05 4.00766e-21)
(1 8.63664e-05 0)
(-0.286285 0.00445665 -2.69257e-20)
(0.668187 -0.0855158 -1.73337e-20)
(0.766802 0.251199 0)
(1.03167 0.0521523 -2.3202e-21)
(0.175354 0.67777 0)
(-0.0546402 0.00708903 0)
(-0.179906 -0.0101825 -7.50198e-20)
(0.434006 -0.0438381 3.0148e-23)
(0.297697 -0.0471088 -4.87998e-21)
(0.807858 0.0517217 0)
(1.06346 0.0147042 0)
(1.00539 0.0129827 -1.92943e-21)
(-0.128095 0.023879 0)
(1.02428 0.00341162 1.23588e-21)
(1.00066 0.000164274 -5.57369e-22)
(1.21095 0.0150714 7.96304e-21)
(1.00464 0.00428381 0)
(1.16727 0.354811 0)
(0.960114 0.0204915 -1.51344e-20)
(0.222401 -0.0285526 -1.62469e-22)
(0.308762 -0.049782 0)
(1.08414 0.0168942 -8.33943e-21)
(1.16309 0.209294 -3.01035e-20)
(1.01351 0.0415384 -7.27374e-22)
(0.923178 -0.00665993 1.23217e-21)
(1.00526 0.00373817 0)
(-0.128806 -0.00736236 -7.76411e-21)
(0.142435 -0.0241038 0)
(1.11286 -0.0621474 1.32337e-20)
(1.01776 0.0386482 -1.25176e-22)
(1.00818 0.0251909 2.49225e-21)
(0.962029 -0.00671926 1.78674e-21)
(0.419943 -0.0928931 0)
(0.31965 -0.0504347 0)
(1.1452 0.105819 1.16043e-20)
(-0.271993 0.00405252 0)
(1.08727 0.0575865 2.23341e-20)
(0.846868 0.0514109 -1.31078e-20)
(1.01231 0.00712446 -1.00671e-21)
(1.00486 0.00439913 3.96227e-22)
(0.999236 2.88483e-05 -2.76922e-21)
(1.14097 0.0708645 0)
(0.996553 0.00218248 2.78799e-21)
(1.03317 0.0160909 2.37352e-21)
(0.307875 -0.0475153 -1.02179e-20)
(0.959208 0.00559554 -1.33387e-20)
(1.08851 0.155253 -6.45193e-21)
(1.20024 0.376638 -4.68306e-20)
(1.09185 -0.0627759 0)
(0.0748286 0.0255124 2.25745e-20)
(1.06958 -0.00523898 9.75616e-21)
(0.872775 -0.0668091 0)
(1.01383 0.00952347 3.52981e-23)
(1.17765 0.251039 3.18711e-20)
(-0.10405 -0.0186736 -2.7838e-20)
(1.25269 0.270753 0)
(0.194464 0.00541813 3.022e-21)
(-0.15078 -0.0077478 -3.15503e-20)
(0.956154 0.116281 -1.93287e-21)
(1.02281 0.000831534 -1.64409e-21)
(1.01936 0.0413143 0)
(0.957712 0.00596392 -1.80847e-20)
(-0.0545243 0.00032904 0)
(-0.159692 -0.00830676 2.06089e-20)
(1.19821 0.110249 0)
(-0.270801 0.0048467 0)
(1.03529 0.183326 0)
(0.490159 -0.0427442 -4.81005e-21)
(0.925293 0.853102 3.91839e-20)
(0.0463061 -0.0247929 8.55703e-21)
(0.996784 0.00224035 8.51076e-22)
(1.17519 -0.00438454 -3.19001e-22)
(1.01495 0.0382875 3.87245e-22)
(0.0108281 -0.0231682 -1.90913e-20)
(1.03082 0.0119798 -1.75163e-21)
(0.468435 -0.0376543 -2.45987e-21)
(1.23341 0.101321 4.72465e-20)
(-0.165557 0.0147296 -1.01166e-19)
(0.99468 0.0140342 5.50042e-22)
(-0.244157 0.00107992 0)
(0.328043 0.105004 -8.49273e-20)
(1.18111 0.0716322 0)
(1.01247 0.000657364 -1.00621e-21)
(1.08803 -0.0234634 1.58278e-20)
(-0.256523 0.00295316 -5.03135e-20)
(1.03029 0.0122461 1.98875e-21)
(0.928996 -0.0117485 8.7077e-21)
(1.15494 -0.0361505 0)
(0.485128 -0.0431207 -5.42149e-21)
(0.0659034 0.00606609 4.08847e-21)
(1.01947 0.0156927 0)
(0.81389 0.178502 2.00739e-20)
(0.696795 -0.153624 0)
(0.825271 -0.0809727 3.44215e-21)
(1.00545 0.00404773 4.17473e-22)
(0.676275 -0.0686941 6.15423e-21)
(1.01176 0.0077005 3.9407e-22)
(0.999461 0.00397012 -8.60119e-21)
(1.15655 -0.037406 0)
(1.07411 0.537859 -6.67919e-20)
(1.04174 0.0424096 -1.38496e-21)
(0.995364 0.0159989 2.47867e-21)
(0.981382 0.00309696 6.29844e-21)
(1.23186 0.0971976 2.17443e-22)
(1.06092 -0.00934604 -1.41103e-20)
(1.03232 0.0223485 -1.53329e-21)
(1.28083 0.154845 0)
(1.00169 0.0270823 -2.46324e-21)
(1.24771 0.265598 0)
(-0.166236 0.0236142 -1.31217e-19)
(-0.350439 -0.000819193 0)
(1.06934 0.0147564 0)
(1.01811 0.0235884 0)
(1.06337 0.015845 4.37138e-21)
(1.01726 0.0179922 -7.69787e-22)
(0.434847 -0.103946 0)
(0.437514 -0.052968 -6.03759e-20)
(1.00949 0.0113756 0)
(1.16313 0.205655 2.82355e-20)
(1.03546 0.032913 -4.99506e-21)
(1.03105 0.0152852 3.2382e-21)
(0.974065 0.0483761 0)
(1.01493 0.0320337 -3.74309e-22)
(-0.0537408 0.0094668 2.36395e-20)
(1.01123 0.00213307 -1.60423e-21)
(1.16633 -0.0496789 -2.67577e-20)
(1.29753 0.266935 1.56623e-22)
(0.274539 -0.0508932 1.80619e-20)
(1.02123 0.00184292 -1.40637e-21)
(1.03392 0.0224005 -1.06501e-21)
(1.03483 0.0230185 -3.84291e-21)
(-0.155912 -0.0116524 0)
(1.01348 0.00916341 -5.05494e-22)
(0.988413 0.515987 0)
(1.02286 0.000570894 3.58727e-21)
(1.15562 -0.0507568 0)
(1.16592 0.169324 0)
(-0.263109 0.00713405 -3.90649e-20)
(1.06283 0.0296619 -2.41165e-21)
(0.958539 0.0209098 7.20048e-21)
(1.0407 0.0222314 7.84016e-21)
(1.03362 0.293581 2.00608e-21)
(0.996152 0.0145502 -3.87028e-21)
(1.116 -0.0641756 1.41869e-20)
(0.929238 0.0406558 -5.1812e-21)
(0.895316 0.09348 2.20641e-20)
(0.999548 0.00381494 8.24398e-21)
(0.984603 0.0224606 -6.62792e-21)
(0.999992 0.000184766 2.30934e-22)
(1.03652 0.0229089 0)
(-0.248624 -0.00803966 -1.45487e-19)
(0.637128 -0.24285 0)
(1.10912 -0.0453077 -8.98506e-21)
(-0.255388 -0.00400511 -2.11924e-20)
(0.37589 -0.494235 0)
(0.99957 0.0249026 1.83009e-21)
(1.09339 -0.0711566 -6.42183e-21)
(0.978467 0.0193508 1.16404e-20)
(1.00804 0.0322782 1.31142e-21)
(0.768247 0.242212 3.40428e-20)
(1.05226 0.0471336 7.73196e-21)
(0.999377 0.00353998 1.05435e-21)
(0.3441 -0.0449066 -1.38363e-20)
(1.30633 0.0870336 -8.69841e-21)
(0.201156 -0.0161656 0)
(1.09311 -0.0410065 -1.90647e-20)
(0.494502 0.10502 0)
(1.00181 0.000347154 8.61061e-22)
(0.996623 0.000995173 0)
(1.0906 -0.0616909 -1.87635e-20)
(-0.156589 0.0149921 9.01816e-20)
(0.996724 0.00265665 7.29151e-21)
(0.909368 0.0317943 0)
(1.17225 -0.0043331 -1.72804e-20)
(1.07754 0.0194839 -6.89808e-21)
(1.03255 0.0157448 -4.20073e-21)
(1.03123 0.130762 -5.55521e-21)
(0.990286 -0.0827742 0)
(0.370428 -0.0570209 1.34027e-20)
(1.00051 -0.0757949 3.7104e-21)
(0.202769 0.00608648 0)
(1.00505 0.00438393 -3.50347e-22)
(0.300406 -0.0288952 -5.60006e-20)
(1.03 0.010471 0)
(1.11665 -0.0775252 1.61722e-20)
(1.08485 -0.00366598 -1.01373e-20)
(-0.139796 0.0276566 -7.36576e-23)
(0.999997 0.000129071 0)
(1.00486 0.0226785 0)
(1.06226 0.0780148 7.64289e-21)
(1.06054 0.00609873 -6.52384e-21)
(0.960566 0.170946 0)
(0.999742 0.0255909 2.19496e-21)
(0.996865 0.016252 1.04768e-21)
(0.682012 -0.111739 2.81381e-20)
(0.993159 0.00787295 6.45815e-21)
(1.00809 0.0425636 1.15448e-22)
(1.1814 -0.0367103 2.42681e-20)
(0.988762 -0.064338 6.44173e-23)
(1.09104 -0.038787 1.30051e-20)
(-0.181785 0.0109711 0)
(1.1956 0.10253 -2.79725e-20)
(0.605306 0.12228 4.36394e-20)
(1.20799 0.0144987 0)
(1.00825 0.0314161 0)
(0.855901 0.0971379 -2.64881e-20)
(-0.0677614 -0.00679438 2.77656e-21)
(1.0689 0.0329552 -9.92172e-21)
(0.995872 0.0141922 -4.70011e-21)
(1.03369 0.133462 7.61808e-21)
(1.0692 -0.00441692 -1.10214e-20)
(0.749779 -0.0799218 2.55143e-20)
(1.05473 0.0236989 1.97235e-22)
(0.991239 0.00277456 0)
(1.00507 0.00419673 5.17961e-22)
(-0.289701 -0.00326435 6.26796e-20)
(0.467051 -0.0395634 5.13754e-21)
(1.05486 0.0243944 0)
(1.00741 0.00853022 9.98998e-23)
(0.641757 0.133904 -6.66212e-20)
(0.999285 0.00338631 4.59208e-21)
(0.935742 -0.0826904 0)
(0.999357 0.00376652 5.16548e-22)
(1.03131 0.03686 -2.0321e-21)
(1.06838 0.0154013 -6.1058e-22)
(1.23922 -0.0175712 1.35724e-20)
(1.01235 0.0397651 7.90464e-22)
(1.02258 0.00046836 0)
(0.816757 -0.0460219 -1.43177e-20)
(0.994724 0.00585402 0)
(1.13407 0.0093684 1.61389e-20)
(0.113105 -0.0177921 -7.84654e-21)
(0.636368 -0.255571 0)
(0.998041 0.012145 0)
(0.0730335 0.00766509 4.09542e-21)
(1.19857 0.369268 4.82129e-20)
(0.613159 0.13012 0)
(-0.0465579 0.00911779 0)
(0.340406 1.19787 -5.01292e-21)
(1.02022 0.0684909 1.0186e-22)
(1.00076 0.173271 2.01737e-21)
(1.01697 0.00215662 0)
(1.08728 -0.0660066 -1.38491e-20)
(0.996918 0.00275676 -6.68873e-21)
(0.894984 0.333509 -3.8515e-21)
(1.01029 0.0315709 0)
(1.08361 -0.00284441 2.04015e-20)
(0.263719 -0.00172949 2.11939e-21)
(0.340502 -0.0503278 0)
(1.00717 0.00817423 2.10374e-22)
(0.986425 0.0141066 -4.75448e-21)
(0.74499 -0.0878255 -3.95729e-20)
(0.965316 0.0215005 -2.1378e-21)
(1.04056 0.0215154 -3.53159e-21)
(1.0103 0.0249984 0)
(1.01097 0.00196952 1.74528e-21)
(1.1914 0.0317493 3.8278e-22)
(1.10049 0.00392212 -1.94974e-22)
(0.115631 0.660404 2.83574e-21)
(1.28846 0.30911 5.3739e-20)
(1.01334 0.00153744 -1.41769e-21)
(1.05892 0.298667 -1.21199e-20)
(0.229097 -0.0221593 9.10109e-21)
(0.906703 0.0307275 0)
(1.05782 0.0124762 7.90586e-23)
(1.02092 0.00185076 3.19132e-23)
(1.00007 0.000775017 4.2557e-22)
(0.944757 -0.0754451 0)
(1.21551 -0.00166656 0)
(1.05852 0.158259 4.45694e-21)
(-0.241918 0.0040734 4.53667e-20)
(0.689291 -0.0714532 -2.75358e-21)
(0.992684 0.0126432 0)
(-0.271753 -0.00435029 -1.2098e-20)
(1.01938 0.0107469 0)
(0.72286 0.724515 0)
(1.05994 0.117617 -6.30724e-21)
(1.01063 0.0245943 -5.11008e-22)
(0.923191 0.00174326 0)
(1.00249 0.0203577 0)
(1.07928 0.0188666 1.35593e-20)
(-0.174136 0.0100232 0)
(-0.278342 0.0010671 3.20129e-20)
(0.897707 0.00347688 -4.19458e-20)
(-0.272448 -0.00356163 0)
(0.641272 -0.0721501 0)
(1.11527 -0.0630321 -6.64766e-21)
(0.997692 0.0123366 0)
(0.997513 0.0119802 0)
(0.314199 -0.00621151 -1.792e-20)
(0.963614 0.214764 -3.57983e-21)
(0.999937 0.000266923 -7.55188e-21)
(1.13465 0.0917831 -1.18704e-20)
(1.01323 0.126422 1.49371e-22)
(-0.218767 -0.000293477 0)
(1.08788 -0.0472073 -5.89983e-21)
(-0.0712477 -0.0192688 3.47332e-20)
(0.899514 0.00178474 4.21506e-20)
(1.01264 0.0421017 9.78129e-22)
(0.420723 0.933385 0)
(0.992352 0.0124463 7.21783e-21)
(0.995362 0.00693435 4.29536e-21)
(0.931496 0.0187859 -7.98208e-21)
(0.910894 -0.0628299 1.36428e-20)
(1.00892 0.0114428 2.45839e-22)
(-0.163811 0.0141253 0)
(0.931591 0.0402149 0)
(0.249201 -0.248023 1.32354e-19)
(0.721651 0.35096 -1.16607e-20)
(-0.0985641 0.00694393 3.23853e-20)
(1.02624 0.000953471 8.52187e-22)
(0.998174 0.0124509 0)
(0.210784 -0.0187516 0)
(1.15227 0.0369007 -1.2779e-20)
(0.996305 0.00671347 0)
(1.15202 0.0864407 0)
(1.05109 0.0477737 4.28773e-21)
(1.00552 0.0290189 0)
(1.0195 0.0205523 1.98103e-21)
(-0.179255 -0.00812176 0)
(1.14005 0.0248981 -2.42572e-20)
(1.23745 -0.0153174 0)
(1.02304 -0.0830259 0)
(0.25054 -0.294394 5.81935e-20)
(1.01882 0.023672 -5.00779e-22)
(0.314854 -0.050479 1.13003e-20)
(0.968581 0.211626 -6.7231e-21)
(1.00589 0.0318096 0)
(0.590628 -0.132573 -1.20436e-19)
(0.0573196 0.0071272 -1.81798e-20)
(1.00319 0.00437384 9.47849e-22)
(0.973046 0.00618905 -4.52968e-21)
(1.00783 0.0115703 -1.99419e-22)
(0.64773 -0.070263 1.19318e-20)
(1.03824 0.0142556 2.60732e-21)
(1.01703 0.00197764 0)
(1.02774 0.0077026 0)
(1.01847 0.0379881 -4.2916e-24)
(0.99754 0.502931 -3.10592e-21)
(1.03693 0.0135264 0)
(-0.249324 0.00679913 0)
(1.11133 -0.00922559 -2.18032e-20)
(0.998809 0.0239345 -8.34687e-23)
(1.11018 -0.046255 3.65994e-23)
(1.14113 0.0227588 2.07054e-20)
(0.0705567 -0.0189496 4.2101e-21)
(-0.00805857 -0.0206052 -1.20173e-20)
(0.19732 0.00607052 -4.19991e-21)
(1.01222 0.0385412 -1.28583e-21)
(1.01742 0.00682909 1.16371e-21)
(1.01348 0.00128685 -7.04984e-22)
(0.106804 -0.000341324 -6.67373e-20)
(1.01158 0.00463789 0)
(0.0272124 -0.0219672 -1.9921e-20)
(1.2916 0.0848601 2.79138e-20)
(0.862404 0.245141 0)
(-0.296651 -0.00260993 3.53621e-20)
(0.204193 -0.00587072 -1.05524e-20)
(0.994845 0.0475902 0)
(0.990169 0.00156951 -3.56127e-21)
(0.183142 -0.0128925 -1.972e-20)
(1.09352 -0.0542516 9.31374e-21)
(1.01112 0.0109149 -1.5624e-22)
(1.00044 7.72459e-05 -9.32407e-22)
(0.791551 0.0429712 -5.05331e-20)
(1.08756 -0.0607987 0)
(0.77528 -0.0486123 0)
(-0.262153 -0.00150609 -1.32028e-20)
(0.529441 -0.626365 0)
(1.0209 0.0743349 3.09858e-22)
(0.30225 -0.343001 9.27576e-20)
(-0.170184 -0.00341761 7.0718e-20)
(1.00975 0.000546582 5.96347e-22)
(0.0867848 -0.0169188 -3.21176e-20)
(0.355514 -0.0529205 5.54691e-21)
(1.15092 0.0523139 1.80238e-23)
(0.197068 0.763161 0)
(0.90236 0.126954 -2.84323e-20)
(0.930422 0.0202195 -5.22869e-21)
(1.1148 0.187595 -1.75871e-20)
(1.00548 0.0151618 -6.98499e-22)
(0.678986 -0.0373889 6.40044e-21)
(1.01141 0.012444 0)
(1.09048 0.0129453 5.89463e-21)
(0.834659 0.013588 -1.96177e-20)
(0.757098 0.232877 -4.27084e-20)
(1.19721 0.276193 -7.279e-21)
(1.09262 -0.0540593 -8.01548e-21)
(-0.0821042 -0.0145082 -1.07708e-20)
(1.06721 0.0330669 -2.27912e-21)
(-0.315374 0.00245556 3.61456e-20)
(1.00003 0.000326337 1.26415e-21)
(1.00505 0.067476 -1.67751e-21)
(1.03255 0.12739 -5.06589e-22)
(0.630245 0.151066 -3.8438e-20)
(0.996426 0.0115482 3.43753e-21)
(0.88606 0.325246 -4.36756e-21)
(1.0117 0.000557073 1.29644e-21)
(1.13565 0.0107666 0)
(0.868115 0.237921 9.39342e-21)
(1.00748 0.0181238 -7.56863e-23)
(0.993777 0.00943483 -5.77788e-21)
(1.10437 0.0744193 -9.42841e-21)
(0.565351 0.00137953 -1.23296e-19)
(1.08808 -0.0399159 8.51103e-21)
(1.24793 0.308803 -9.56734e-21)
(1.04377 0.0794196 0)
(0.68361 -0.0737529 -7.29704e-21)
(1.02971 -0.0771235 0)
(1.09282 -0.0710039 -2.93681e-23)
(1.00483 0.0288344 3.94911e-22)
(0.873389 0.170205 -2.89169e-20)
(1.27627 0.151502 0)
(0.0978635 -0.0209612 6.2594e-21)
(1.04189 0.0799772 0)
(1.00885 0.0124268 -2.27129e-22)
(0.261566 -0.27839 0)
(1.13628 -0.0444189 2.81002e-20)
(0.996128 0.0161804 0)
(0.272733 -0.352492 -5.02426e-20)
(0.999942 0.00049694 -4.10232e-21)
(0.447418 0.717656 0)
(0.732364 0.682972 0)
(0.999915 0.000114532 2.58497e-21)
(1.00572 0.0150078 1.87294e-21)
(1.14481 0.339329 0)
(1.08777 -0.0657417 0)
(1.03093 0.084397 -1.56381e-21)
(1.0859 0.000451275 9.79739e-21)
(-0.277815 0.0040159 3.93243e-20)
(0.999965 0.000370916 -4.17736e-21)
(1.02018 0.0665196 0)
(-0.315491 -0.00277085 0)
(0.952129 0.031044 2.3753e-20)
(1.18443 0.073015 0)
(1.00265 0.020831 -9.23012e-22)
(1.03129 0.00107184 0)
(1.01999 0.024565 -3.18315e-23)
(-0.0436355 -0.00716085 -1.19486e-22)
(1.08631 -0.0202251 -2.70415e-21)
(0.998723 0.00166202 -2.34726e-21)
(0.128302 0.00527952 -2.14304e-21)
(1.00825 0.0183919 -4.97014e-22)
(1.06965 -0.0210901 6.07582e-21)
(0.0882271 -0.0217134 -1.50005e-20)
(0.999455 -8.88452e-05 9.0012e-21)
(0.447308 -0.03498 4.6754e-21)
(1.12454 0.0349606 -3.01602e-21)
(1.02013 0.0206585 -1.66199e-21)
(0.949282 0.0231075 -1.14845e-20)
(1.01634 0.00606489 -9.53596e-22)
(-0.311089 0.00151118 0)
(-0.212546 -0.00871856 3.94945e-20)
(0.921454 -0.0822791 0)
(1.03995 -0.00314082 0)
(-0.259131 -0.000935211 1.23767e-20)
(-0.23665 -0.00417348 0)
(1.01599 0.00578083 -9.64239e-22)
(0.0918199 0.00694725 -4.16109e-21)
(0.95286 0.209849 -1.12501e-21)
(1.00001 0.000467245 0)
(1.01272 0.00875479 1.39922e-21)
(1.00724 0.0416902 0)
(1.03283 0.0840766 4.37958e-21)
(-0.319356 -0.00119729 0)
(1.01057 0.0110935 0)
(0.999953 8.09557e-05 0)
(0.758268 0.222301 -1.86801e-20)
(1.00612 -0.0778959 2.38077e-21)
(0.999274 0.00362121 -6.00382e-21)
(-0.276386 0.00561788 -4.78178e-20)
(0.16255 -0.0274744 1.14117e-20)
(0.120815 -0.0361671 3.42629e-20)
(1.03134 0.00069363 0)
(1.06431 0.0299836 0)
(0.999989 0.000189001 0)
(1.02227 0.0711374 1.00299e-21)
(1.18419 0.0282952 1.04306e-20)
(1.00507 0.0126505 1.89277e-21)
(0.990644 0.0668276 4.63071e-21)
(1.00002 0.000347627 0)
(1.0774 0.0208833 1.40598e-20)
(1.03857 0.0850918 -3.5468e-21)
(0.842852 -0.0780124 -1.72168e-20)
(1.2358 0.292762 0)
(1.15279 -0.0765713 0)
(0.992117 0.126314 0)
(0.866369 0.168847 1.5457e-20)
(1.09353 -0.0228244 2.29427e-21)
(1.03313 0.022861 1.11458e-21)
(1.02926 0.0123089 9.66025e-22)
(1.01644 0.0318905 -4.12887e-24)
(0.934859 0.44815 -1.04904e-21)
(0.670719 -0.0426266 3.38634e-20)
(1.01324 0.158183 5.36194e-20)
(0.0811675 -0.0176969 3.26239e-20)
(0.0408582 -0.0159371 3.32506e-20)
(1.01099 0.0112348 1.3689e-22)
(0.29601 -0.00348461 1.83703e-20)
(1.01953 0.0221278 1.81125e-21)
(0.998933 0.00252628 0)
(0.0926666 -0.439022 -1.39938e-19)
(1.004 0.0147182 -1.62442e-21)
(-0.219774 0.00216157 6.96329e-20)
(1.10028 -0.0630258 -3.99871e-20)
(-0.233494 -0.000759123 5.07056e-20)
(-0.296693 -0.00257774 0)
(0.142904 0.00268184 0)
(0.992979 0.0173016 -1.68255e-21)
(0.956668 0.213694 1.16169e-21)
(0.25907 -0.226939 -1.06014e-19)
(1.11524 0.0410047 5.27215e-21)
(0.175275 -0.0110786 2.98986e-20)
(0.606544 -0.190469 -4.22899e-20)
(1.01258 0.0119359 3.65669e-22)
(0.478933 -0.0374263 0)
(0.990969 0.000159415 4.10574e-21)
(0.240455 -0.0249284 -8.58418e-21)
(-0.0894919 0.00887165 -2.48886e-20)
(0.994484 0.0463717 5.19899e-21)
(1.02812 0.00418212 4.94839e-21)
(0.465595 -0.036995 -7.6981e-21)
(1.01217 0.00903128 -8.16388e-22)
(1.02437 0.0495296 0)
(1.07452 0.566354 5.14818e-20)
(1.11354 -0.0760869 -1.73594e-20)
(-0.151769 -0.0167233 0)
(0.929889 -0.0653101 4.87291e-22)
(0.993206 0.0177828 -2.85366e-23)
(1.09068 0.0115194 0)
(0.986803 0.0584249 -4.25048e-21)
(0.760722 0.0924764 -4.94478e-22)
(1.02871 0.0123478 8.7983e-22)
(0.328826 -0.00998152 -7.15272e-21)
(1.12585 0.0333571 4.14111e-22)
(1.0012 0.0271021 2.27474e-21)
(-0.251496 -0.00354238 0)
(-0.218958 0.00145672 0)
(1.09048 -0.0636265 4.93287e-21)
(1.08759 -0.0205434 -2.9636e-21)
(0.994106 0.00897048 3.19082e-22)
(0.995081 0.00511993 -2.14586e-21)
(1.12009 -0.0819402 1.05141e-20)
(1.08415 0.154695 4.18737e-22)
(1.04876 0.0656443 7.38262e-21)
(1.09886 -0.0657259 1.5035e-21)
(0.341871 -0.0132537 0)
(1.11943 0.271031 0)
(1 7.91825e-05 -1.2435e-21)
(0.995417 0.005655 4.22845e-21)
(1.14928 0.0883771 0)
(1.03746 0.0142187 -4.93279e-21)
(0.411015 -0.0588726 1.76325e-20)
(1.23187 0.104634 -4.35372e-20)
(0.0819806 -0.756939 0)
(0.945677 0.0255342 2.68672e-21)
(0.307775 0.830518 -9.62684e-21)
(1.01358 0.0324097 4.12233e-22)
(0.384342 -0.0497158 -2.08277e-20)
(1.03197 0.179683 0)
(0.0679656 -0.00313538 9.99782e-20)
(0.88241 0.179367 0)
(-0.251927 -0.00583388 7.09793e-20)
(0.942027 0.00623198 4.77863e-22)
(1.10784 0.0395435 2.42961e-20)
(-0.294896 -0.0013981 3.13795e-20)
(1.06706 0.0145296 -1.72239e-22)
(0.566911 -0.0127121 8.64806e-20)
(1.12886 -0.0806383 -9.21315e-21)
(0.99231 0.0667218 0)
(1.09134 -0.054841 0)
(1.09164 -0.0397887 4.94802e-21)
(0.0382623 0.00532957 4.74877e-21)
(0.891407 0.0433769 -1.67318e-20)
(1.01135 0.00435478 7.73559e-22)
(0.017028 -0.0172474 -1.72267e-20)
(0.998577 0.00161636 0)
(1.04105 -0.00194834 0)
(1.171 0.249869 -3.46335e-20)
(-0.305166 -0.00356321 0)
(1.08794 -0.0602056 0)
(-0.312695 -0.00122085 0)
(1.01675 0.124954 0)
(1.00052 0.0037102 -2.01722e-21)
(0.283908 -0.0217707 0)
(1.1759 -0.0640889 3.65823e-20)
(1.00014 0.00215717 -1.45298e-22)
(0.829061 -0.077322 0)
(1.15883 0.00831961 1.51748e-20)
(-0.0692388 -0.0165994 5.61535e-21)
(1.00935 0.0116436 1.6454e-22)
(0.952282 0.0326796 -2.38028e-20)
(1.14786 0.052377 -4.04911e-23)
(1.01303 0.0319468 0)
(0.801938 0.147102 -2.49162e-20)
(1.01978 0.0217069 -1.29475e-21)
(0.898143 0.138411 1.09313e-20)
(-0.27745 0.00279833 2.0116e-21)
(0.250327 -0.0448094 -1.80142e-20)
(0.92337 0.004381 0)
(0.875509 0.179168 -1.5104e-20)
(0.432672 0.77683 -1.15114e-20)
(0.99292 0.0448281 0)
(1.00408 0.0142792 1.5373e-21)
(1.00711 0.0233282 1.96339e-21)
(1.17371 0.200471 3.40665e-20)
(1.17666 -0.0631066 -2.57539e-20)
(1.04912 0.0262862 6.75072e-21)
(1.00205 0.00808272 -1.64736e-21)
(1.06003 0.155989 -4.15895e-21)
(1.1147 0.00430377 0)
(0.327156 -0.0549585 2.72102e-20)
(0.850032 0.0993649 2.19287e-20)
(0.898393 0.405059 3.86308e-21)
(0.34519 -0.467169 0)
(0.375923 0.298816 0)
(0.974816 0.0254909 -1.18302e-22)
(0.361205 -0.0468445 1.08746e-20)
(0.156693 0.00516752 0)
(1.09179 0.0887801 0)
(-0.216422 0.00474055 -4.94807e-20)
(0.996404 0.0165724 3.67613e-23)
(1.04826 0.0646624 2.43995e-21)
(0.490019 0.920039 2.66696e-21)
(1.00708 0.00755486 4.22884e-22)
(0.841227 0.0626021 5.15579e-20)
(0.803973 0.804526 0)
(-0.0413646 -0.011438 2.82089e-21)
(0.952226 0.116089 2.18348e-21)
(0.123379 -0.00799097 0)
(1.0767 0.0503461 0)
(0.883098 0.116748 0)
(1.00308 0.00413234 -9.48279e-22)
(-0.165964 -0.0110227 0)
(1.12234 -0.0140118 2.245e-20)
(-0.285812 -0.00308068 0)
(0.994384 0.124437 3.03588e-21)
(1.00207 0.00796853 1.72348e-23)
(1.06979 0.0342975 0)
(1.00771 0.0125241 0)
(1.19202 -0.0123373 2.83933e-20)
(1.10118 -0.0680396 1.37278e-20)
(1.14741 0.0441956 0)
(1.22765 0.105755 3.71625e-20)
(1.1684 0.200534 -3.24301e-20)
(1.07567 0.0491861 4.29388e-21)
(1.31262 0.274053 -4.0912e-20)
(1.05929 0.357032 1.42265e-20)
(1.15115 -0.0466793 0)
(1.23459 0.335848 -1.56804e-22)
(0.996173 0.171442 2.19018e-21)
(1.19942 0.123512 -5.86835e-20)
(-0.314998 -0.000595091 0)
(0.991468 0.00360506 0)
(1.00007 5.3111e-05 6.66041e-22)
(0.976354 0.215361 2.40968e-21)
(0.902362 0.141027 -5.50905e-21)
(0.986002 -0.0666733 0)
(0.855467 0.118726 -3.64891e-21)
(1.01339 0.00745362 1.2036e-21)
(1.20629 -0.0081704 4.14073e-22)
(1.01547 0.0365452 0)
(0.94469 0.000157251 0)
(1.02041 0.0418448 0)
(1.00011 0.00141001 3.39089e-23)
(1.00003 0.000948579 0)
(1.06017 0.032936 -8.86904e-21)
(1.00007 0.00146885 2.47343e-21)
(1.09574 -0.0223604 -7.55324e-21)
(1.00789 0.0191952 -7.04712e-23)
(0.849672 0.0390634 4.17338e-20)
(-0.191388 -0.0106388 -8.56472e-20)
(0.060317 0.0405216 -1.84819e-19)
(1.0419 0.0234474 9.35283e-21)
(1.00194 0.00719744 -6.25581e-22)
(0.177732 5.43555e-05 0)
(1.03451 0.0322522 2.4635e-21)
(1.13473 -0.0444173 -2.03891e-20)
(1.01936 0.0111406 0)
(1.15574 0.341047 1.03276e-20)
(1.09133 -0.0418756 0)
(0.0320649 -0.0175396 -1.83282e-20)
(0.672626 -0.103415 0)
(1.01444 0.0325885 0)
(1.03088 0.0442346 2.81882e-21)
(0.783259 0.0925481 2.38798e-20)
(1.15194 0.06017 7.17643e-21)
(0.99996 0.000256418 1.93287e-21)
(1.25807 0.23616 6.80183e-20)
(1.00002 0.000183833 2.76894e-22)
(1.05843 0.27608 -4.19619e-22)
(0.998797 0.00194791 0)
(1.0231 0.049048 7.46543e-22)
(0.121207 0.141938 1.7413e-21)
(1.17563 -0.0631727 -1.849e-20)
(1.01889 0.0104157 -1.34424e-21)
(1.26588 0.0248586 -5.34787e-20)
(1.2481 0.0727621 0)
(1.08558 0.259362 0)
(1.07377 0.0692081 0)
(1.03813 0.00654356 0)
(-0.301432 -0.000312955 0)
(0.930612 -0.0102556 -8.17021e-21)
(0.162579 -0.0378354 -4.40972e-20)
(1.05912 0.0109503 6.32801e-21)
(0.778577 0.118219 -5.79285e-20)
(0.983113 0.0066147 2.7451e-21)
(1.00003 0.000798134 0)
(0.965364 0.0239762 0)
(-0.166989 -0.00970674 1.89986e-20)
(0.717058 0.0555369 2.6453e-20)
(1.18239 -0.0639472 -1.68503e-20)
(-0.310167 -0.00154682 0)
(-0.25715 0.00817965 -3.62116e-20)
(0.346687 -0.0253697 7.8946e-24)
(1.01886 0.0100197 1.39147e-21)
(1.01162 0.0318087 -1.28518e-21)
(1.13406 -0.0525242 0)
(-0.200787 -0.00560119 3.89366e-22)
(0.283284 0.00451744 -3.05558e-21)
(1.13185 0.089534 1.29918e-21)
(1.05172 0.0141731 -3.40294e-22)