/*--------------------------------*- C++ -*----------------------------------*\
| =========                 |                                                 |
| \\      /  F ield         | OpenFOAM: The Open Source CFD Toolbox           |
|  \\    /   O peration     | Version:  v2012                                 |
|   \\  /    A nd           | Website:  www.openfoam.com                      |
|    \\/     M anipulation  |                                                 |
\*---------------------------------------------------------------------------*/
FoamFile
{
    version     2.0;
    format      ascii;
    class       volScalarField;
    location    "200";
    object      ddt0(k);
}
// * * * * * * * * * * * * * * * * * * * * * * * * * * * * * * * * * * * * * //

dimensions      [0 2 -3 0 0 0 0];


internalField   nonuniform List<scalar> 
37190
(
3.03532e-09
0.000329967
-1.06475e-08
-2.67908e-08
-0.000297882
9.84192e-09
4.01551e-08
4.45629e-08
-3.38934e-08
-2.60148e-06
-1.04617e-08
-6.68921e-09
5.53157e-09
1.85987e-09
0.00226064
3.40611e-08
4.47183e-08
1.14347e-07
0.00123277
-0.000219624
1.45813e-08
1.59954e-09
0.000252148
3.46974e-08
3.55526e-08
3.71802e-08
2.68888e-08
-2.41117e-07
-7.6194e-07
-0.000183324
-0.00150572
-3.44419e-09
-5.78922e-07
-2.43608e-06
-3.99028e-07
-2.01786e-07
-4.53378e-09
3.57837e-08
2.3135e-08
-2.52686e-08
-2.51626e-06
0.00014106
3.36517e-08
1.61937e-07
7.00356e-09
5.8647e-07
-0.00010729
-1.62956e-06
-1.02457e-08
-0.000300559
2.5965e-09
-5.00517e-09
1.05831e-08
-7.02299e-09
-2.19732e-09
-6.26079e-09
-2.57436e-06
-5.24408e-09
-4.97299e-05
-3.1731e-09
-8.06414e-05
-2.07592e-07
7.43745e-09
0.000382811
4.56067e-08
3.50646e-08
1.05474e-08
3.13694e-07
-4.84173e-08
6.81941e-09
-2.64995e-09
-6.97717e-09
-9.22901e-09
8.51504e-09
-2.38695e-08
4.59063e-08
-0.000546722
-1.80145e-08
0.000232204
-3.94412e-08
-1.02637e-09
5.71829e-09
7.51072e-09
5.7648e-07
1.2273e-05
4.52045e-08
0.000513832
-0.00016075
0.00212659
-3.86105e-09
-0.000461619
-7.2187e-07
3.38177e-08
1.51902e-08
-2.87641e-08
3.49884e-08
0.000238688
-4.03272e-09
-2.48896e-08
0.000265881
3.28937e-08
1.01221e-06
-0.00013761
-4.78127e-05
8.11844e-09
5.27645e-08
-0.000320404
-6.76416e-10
1.02644e-08
-0.000181882
-0.00134163
0.00154654
2.86098e-08
-8.29919e-09
-3.73066e-08
1.08267e-08
-1.95421e-08
2.22234e-08
-2.70693e-08
-1.71397e-08
-3.32552e-08
0.000167572
7.18447e-09
-6.70901e-09
7.11001e-09
0.00236921
-8.38064e-09
5.29247e-09
-7.72492e-05
-2.20564e-08
4.65852e-09
0.000263606
1.68543e-08
3.59629e-08
-8.60053e-05
9.67334e-09
-5.06407e-08
3.39474e-07
5.30945e-07
2.58894e-08
9.2706e-09
-2.43327e-07
-3.20203e-08
3.61106e-08
-2.63577e-08
4.35145e-08
-0.000988119
5.05679e-09
3.55157e-07
-1.04935e-08
-6.66686e-09
-1.9045e-09
4.14404e-08
1.63358e-09
-5.4209e-05
2.61424e-09
0.000212403
-9.27438e-09
-0.000365831
-5.47744e-08
-6.62145e-08
-7.67109e-09
4.09022e-05
0.000751785
-1.6376e-09
-1.35531e-08
-0.0019372
3.31352e-07
0.0012625
-2.18594e-06
1.19042e-08
0.000871994
-7.58357e-09
-5.11067e-08
0.000208655
-9.20896e-07
3.74756e-08
4.1535e-08
-2.84995e-08
3.56436e-08
1.35787e-07
5.98211e-09
7.01157e-09
-1.4582e-08
-0.000758794
-2.59927e-09
-4.48753e-07
-1.09182e-08
0.000221413
1.07829e-06
-1.00507e-09
9.86157e-08
-1.14597e-08
2.90829e-08
-2.75587e-05
1.59672e-08
-9.95434e-09
3.36157e-08
0.000350739
0.000855965
1.05152e-07
-1.19926e-08
-5.03166e-09
-3.71448e-09
0.00056454
-3.14924e-08
3.81734e-08
4.94855e-09
-3.35147e-08
0.000435235
-2.40311e-09
0.00109739
-1.18347e-08
-5.59687e-08
0.000259701
0.000287041
3.416e-07
2.44383e-07
-2.43012e-06
2.29127e-09
-1.56994e-05
-6.60949e-09
-3.20935e-09
-5.51678e-08
-0.000603998
1.07195e-09
0.000273812
-2.954e-08
-7.09662e-08
-6.74505e-05
3.16809e-08
-2.34184e-08
-2.63229e-09
0.000395781
-2.83385e-08
2.67781e-08
-1.10586e-07
-3.29009e-05
5.55758e-09
-3.69958e-08
-3.12653e-08
-2.21997e-09
0.000531372
7.55202e-10
3.25398e-08
-0.0010895
-1.90081e-09
-0.00029852
-6.20401e-07
2.17307e-07
1.29024e-08
-2.77167e-07
-2.24551e-08
3.95636e-09
-6.7046e-08
6.14836e-09
8.55351e-08
-1.87021e-09
-4.89275e-08
-1.36083e-09
-0.000299035
2.41377e-09
-1.03048e-08
-0.00172907
-1.20907e-08
9.46894e-09
2.19545e-09
3.17169e-08
-0.000638421
-6.01924e-09
0.00137548
-0.000704537
-2.41696e-06
-2.87884e-09
-3.86989e-05
-7.5321e-09
1.74678e-08
-7.60975e-05
-1.89993e-08
1.04875e-08
-4.96655e-07
-8.48341e-09
4.09969e-08
-2.46901e-06
-1.0082e-08
-1.41535e-08
1.26309e-08
-8.34993e-09
3.14466e-08
6.01035e-09
1.8329e-08
-5.4401e-07
-4.10205e-08
1.76783e-08
-3.9656e-05
5.83835e-10
1.83811e-08
-0.000723979
-2.7656e-08
-6.6931e-09
0.000232293
0.000173778
2.09176e-08
-1.66442e-06
-1.19241e-08
-9.6526e-09
9.99129e-09
-2.31563e-09
-4.81213e-06
-4.86275e-08
-5.45767e-10
-0.000629221
-2.85208e-08
2.08974e-07
-4.37948e-05
-0.000101174
2.98771e-10
-7.77812e-05
-1.26361e-08
-9.68576e-09
7.97093e-10
4.39719e-09
-2.32163e-06
3.37086e-09
-0.000589922
-1.5491e-06
6.67119e-08
0.000372976
-8.02059e-10
0.000648078
-7.60743e-08
-3.23927e-08
3.986e-08
-0.00320122
-5.49493e-08
-9.65831e-05
2.09331e-05
-1.31919e-08
-5.06397e-08
0.000395231
5.07408e-08
-1.59503e-06
-3.73233e-08
-4.67491e-09
-0.000357267
2.86028e-07
-2.19325e-06
-2.29998e-10
-1.96422e-08
-1.05907e-08
-1.85671e-10
-0.00204977
2.01621e-08
-4.99774e-09
1.01153e-08
-0.000349456
7.71324e-09
0.00189816
-3.80085e-08
4.76869e-08
-7.92702e-08
0.000261711
-2.62698e-08
-0.00038363
-1.78765e-09
1.81744e-07
-2.04553e-08
3.08006e-09
-4.86183e-07
-5.18745e-08
5.10825e-08
2.27407e-08
-9.41714e-09
-9.80143e-06
3.91772e-09
-4.40991e-07
2.22131e-07
1.15222e-06
2.29778e-07
0.000266664
0.00115897
1.35218e-07
0.00416383
-6.85642e-08
2.5895e-08
0.00207224
3.22552e-08
-5.32797e-08
1.30774e-08
5.1312e-09
1.77177e-08
-1.34903e-06
-6.15567e-08
-3.73737e-08
3.96273e-08
7.11258e-09
0.000900077
3.57377e-09
-1.34857e-10
2.67043e-07
3.11965e-09
-0.000418
3.35433e-08
-3.22947e-08
4.04189e-08
-3.90825e-10
-8.12235e-10
-0.000310035
-4.96547e-08
2.7142e-09
4.77865e-08
5.85976e-05
-7.54231e-05
9.9875e-09
3.82792e-08
6.49562e-09
-2.12396e-08
8.08712e-09
-7.9068e-09
-4.79278e-09
-0.000455695
1.35012e-07
0.00231749
-2.08505e-08
-7.37394e-09
2.42346e-07
-0.00070316
-3.37612e-13
3.26037e-08
-7.75847e-09
-2.40983e-07
2.18811e-09
3.24644e-08
-3.99123e-08
-4.71161e-09
0.00120547
2.51236e-09
8.64714e-08
5.27861e-08
-1.2284e-08
4.42673e-08
-1.44351e-08
0.000420891
4.25488e-08
-3.54849e-09
0.000205332
0.00424378
3.5105e-09
-0.000816512
5.13944e-08
-1.66434e-08
-1.58905e-06
1.12072e-08
-0.000307697
-3.37891e-09
8.85507e-05
-1.13747e-08
-5.78997e-10
-6.13858e-08
-1.0853e-08
0.00036064
-2.78978e-08
-2.0903e-09
0.00390891
3.27504e-07
-1.08739e-09
-2.09161e-06
-0.00022812
1.78701e-08
-1.02013e-08
-2.09109e-08
-0.000739857
0.000157528
8.99862e-07
-0.00259402
-0.000585549
-2.80548e-08
-0.00067695
9.03913e-11
9.08422e-09
-1.19974e-08
-2.50494e-08
0.000977416
0.00295444
6.42392e-09
-1.88995e-08
-7.25753e-06
-4.09805e-09
-6.79486e-05
-6.41381e-08
2.35217e-08
6.88119e-09
-1.11129e-08
-2.24191e-06
2.66717e-07
-4.76451e-09
-1.78502e-09
9.6767e-09
7.32396e-07
4.1706e-05
3.78117e-08
-5.27496e-11
-2.84168e-08
0.00113232
-2.00953e-08
0.000126949
-0.00103967
4.90446e-06
-0.00199017
-4.91185e-09
0.000256948
-2.32253e-11
-0.000749171
2.37542e-10
-1.8266e-06
0.000184468
-2.54186e-08
-6.14117e-09
2.67202e-09
-0.000129167
-6.00956e-08
-1.91968e-08
-1.26954e-05
-0.00180217
3.03234e-08
-5.73356e-08
-4.21001e-08
4.33279e-08
3.5403e-08
-3.68125e-12
-1.84801e-08
1.81235e-09
-0.00139617
-1.41558e-08
6.20876e-09
-6.6296e-05
-4.28711e-09
7.65857e-09
-6.25466e-09
2.99286e-08
1.43865e-12
-7.95144e-11
-1.53903e-08
-8.52209e-09
0.000232411
1.45878e-09
2.88404e-08
-4.7143e-08
-5.15739e-09
5.90451e-09
-3.95575e-09
3.71492e-08
-8.07287e-10
-0.000287495
-4.51689e-07
-6.58357e-10
2.75354e-08
-4.24981e-07
0.00080237
-7.09524e-10
-8.93677e-09
-6.9696e-05
0.000633858
0.000316542
-0.000294376
5.15431e-08
-3.54604e-08
3.31238e-09
0.000197245
-9.55646e-05
3.18764e-08
4.05938e-08
3.48599e-05
1.84817e-07
4.78621e-09
2.41246e-07
-0.000295925
0.00220007
5.54222e-09
-4.10269e-08
-2.15289e-08
-3.50327e-08
2.45762e-08
-3.40987e-08
-0.00062553
0.000762153
-1.00051e-08
-0.00229705
0.00302195
-7.0473e-10
-1.74698e-08
6.17522e-10
-4.53769e-07
-1.12546e-08
7.68451e-09
-1.62273e-06
0.00184948
-1.14984e-08
1.10801e-05
5.13504e-10
4.88836e-08
3.23554e-08
8.98337e-09
-5.91782e-08
8.07562e-08
-8.26852e-09
-2.97157e-08
-3.69777e-09
0.00113698
-7.49314e-09
-1.53763e-08
5.48255e-07
3.05092e-10
-0.000552616
-3.09573e-05
1.64025e-09
0.000317942
-8.72788e-09
4.74561e-08
3.66106e-08
1.64605e-09
-2.93409e-08
-5.6382e-08
-1.54991e-08
2.21121e-08
-3.39124e-09
-3.14254e-07
0.00302997
-2.13377e-09
-3.49401e-08
0.00140125
-2.32318e-10
-8.5325e-09
3.5618e-07
-1.88113e-09
5.38557e-09
3.13869e-08
4.3866e-08
1.17386e-08
2.46776e-08
-0.000668403
-0.000174525
-1.62461e-06
-0.000107043
6.07693e-09
-1.71556e-06
-2.01621e-09
-3.93307e-08
-0.00220612
-1.8701e-07
-4.02631e-08
-2.81006e-09
-8.76363e-08
3.64192e-08
-0.00112779
-1.07353e-06
-9.93246e-10
-0.000262324
5.2713e-08
-3.48678e-05
-7.18508e-08
-3.76708e-08
-5.9153e-08
-5.14365e-08
-4.86649e-08
5.09668e-09
5.47798e-09
-5.7952e-07
-7.92171e-09
-4.80218e-07
-2.6406e-08
-4.10763e-09
2.49986e-08
-8.51311e-05
2.37696e-09
1.53318e-09
0.000259796
-1.94765e-08
1.84972e-08
2.28728e-07
-1.03543e-05
0.00021932
-1.1907e-08
-5.12106e-09
-9.3195e-05
-2.02869e-07
1.29011e-06
4.20857e-08
-1.14228e-08
6.32504e-08
-3.40239e-08
8.20449e-07
-2.16892e-08
-1.18446e-05
-1.32457e-09
0.000888025
2.14968e-10
-5.83709e-08
-2.07921e-06
-2.55524e-09
8.64386e-08
-3.7267e-09
-2.15217e-09
0.000796937
-3.55629e-08
-4.90788e-05
1.206e-08
-0.0034358
1.81611e-08
1.18311e-08
2.85364e-07
1.50243e-09
-0.000405258
1.733e-08
-5.24728e-09
6.11453e-09
1.15992e-12
-2.77488e-07
-4.4983e-09
0.00469447
-0.000407637
-4.65171e-05
0.00229369
-7.5598e-07
-1.90391e-08
-3.66679e-08
-5.85614e-05
0.00207954
-3.40143e-08
-8.9289e-06
-0.000141239
-4.53079e-07
-5.47864e-08
-8.98601e-09
0.000145653
1.64713e-08
1.18738e-07
-0.000117471
-3.14729e-08
-1.24667e-06
0.000162019
2.84566e-08
-4.54436e-08
-1.13777e-08
0.0011888
0.000325463
-9.08895e-09
9.61258e-07
0.000670433
1.51159e-09
-3.5553e-05
-2.03312e-07
-8.35207e-05
-3.06563e-08
2.31706e-07
1.17575e-07
9.856e-07
-6.00758e-08
-2.41008e-08
0.000115564
-4.19478e-07
-3.18352e-08
2.19201e-09
-8.2167e-08
-5.47686e-09
-9.13938e-09
2.06335e-08
-5.18388e-08
1.86697e-08
-1.86804e-08
-6.37219e-08
-3.26135e-07
-2.54545e-08
2.63353e-08
2.00749e-08
1.14569e-08
0.000691614
-0.000246925
-4.06858e-09
-5.36783e-08
-1.88917e-08
2.52017e-09
-0.00038555
-0.00124075
3.68148e-08
-2.49849e-08
2.35154e-08
-1.25929e-08
-1.08064e-08
-0.000268153
1.71693e-09
-6.49463e-08
-5.21298e-08
-1.42301e-09
1.41997e-08
7.30792e-09
-3.79502e-08
-1.93402e-09
-2.00001e-08
1.1893e-08
-6.18082e-09
1.06939e-12
-2.38032e-08
-0.000800557
-0.00148816
7.66685e-10
-3.78052e-10
1.58084e-09
9.88113e-09
8.37671e-09
0.00018459
-4.77077e-07
4.49542e-08
-9.84436e-09
8.08893e-08
-0.00185312
2.68202e-08
5.94362e-10
4.59021e-09
7.43645e-09
-8.00076e-08
-3.61483e-09
-1.27395e-08
2.10708e-08
-2.50921e-09
-0.000308738
7.69082e-05
-3.41129e-08
-3.55756e-08
-1.21535e-08
-9.24787e-06
-1.11303e-07
4.13764e-05
1.05042e-07
-0.000471172
-5.08507e-08
7.3059e-09
-5.69809e-08
-2.79843e-05
2.07756e-08
1.81562e-09
-3.55276e-05
6.26733e-09
5.09369e-09
4.21456e-08
-6.41144e-06
-1.2254e-07
-1.03622e-08
-2.43883e-08
-2.01799e-07
-2.72047e-08
-0.00260293
1.07297e-08
5.95978e-08
2.4547e-08
5.0159e-06
2.24004e-08
2.75675e-08
-0.000286082
-5.89054e-09
-0.000289489
0.000159871
7.85115e-09
-6.55883e-10
-0.00023612
-5.55627e-09
-9.3113e-11
-0.000306227
6.07958e-09
0.000314627
-2.09666e-09
-0.000157073
2.04279e-08
7.4071e-07
-0.000598176
-6.16909e-10
6.19404e-09
8.99145e-10
1.82482e-09
-1.23814e-08
-5.36945e-08
-3.44651e-08
2.3754e-09
-1.14317e-08
-0.000359539
2.75429e-09
-2.83219e-08
-6.61331e-08
1.19318e-08
-5.51499e-10
4.54018e-08
8.8865e-05
-1.23969e-08
2.14467e-09
-3.98766e-08
-2.13311e-09
5.38922e-09
8.35047e-05
-6.6591e-09
1.85981e-08
-3.13245e-08
2.69593e-09
-1.05902e-08
2.51628e-08
2.73081e-09
-1.70039e-08
-0.00136035
-1.08202e-08
1.19094e-07
6.58563e-09
1.00531e-09
0.000277728
6.36979e-09
-0.00128825
1.33124e-11
-3.8718e-08
-2.16087e-08
-1.90773e-10
-4.43231e-07
2.86317e-08
2.18646e-09
2.04602e-08
-1.00579e-06
-0.00053192
-7.43895e-09
3.77638e-08
-2.57273e-08
-3.37088e-05
-9.63782e-09
0.000787155
1.6461e-08
3.49771e-08
3.10246e-09
-6.10061e-09
1.97251e-08
-0.000258363
2.41538e-08
4.71718e-09
4.44307e-08
3.59085e-08
2.17592e-06
-1.54781e-06
2.07832e-09
-3.57007e-08
-3.28231e-08
-3.7703e-05
-1.7073e-08
0.000260329
0.00031405
3.19277e-09
2.46052e-08
4.76231e-08
-1.90093e-08
-0.00180437
4.09434e-08
-1.72658e-08
4.48256e-10
-2.03196e-08
0.000321802
-1.69438e-10
3.12766e-08
3.23154e-08
-6.83005e-08
-3.12149e-05
-0.000119619
3.04499e-08
-0.000278589
-5.80222e-08
2.70643e-10
-1.14348e-06
3.48976e-08
3.1848e-05
-3.87685e-10
8.05725e-06
3.49201e-08
2.33532e-09
0.000767063
-8.18103e-09
3.74375e-08
3.40268e-08
0.00078717
1.03723e-08
-8.16984e-07
3.60196e-08
-0.000484967
-2.92994e-07
1.84563e-08
5.33009e-08
-3.45095e-08
-0.00220003
-3.30222e-08
-3.86961e-08
4.64182e-08
-0.00103475
-1.87599e-09
2.92124e-07
-9.57985e-10
2.89345e-08
4.69664e-08
-1.05711e-08
2.51895e-08
-5.63101e-07
-0.00012402
-4.91413e-09
-3.25402e-09
2.8276e-09
-0.00117716
-3.99519e-11
2.95463e-08
-4.09149e-08
-1.62465e-06
-2.00827e-08
0.00123743
-4.16422e-08
-0.00129051
-2.68406e-10
-1.4262e-09
-5.77244e-08
-2.99499e-09
-2.63995e-05
5.64565e-09
2.55348e-08
-1.70109e-08
0.000282853
-0.00195723
2.11805e-09
-9.29907e-08
-1.66677e-08
-2.79658e-07
2.09451e-08
1.48787e-05
-1.32051e-08
-1.30425e-10
0.000227385
0.00018447
4.0237e-09
-5.44962e-10
2.87911e-09
-6.30905e-08
-2.15726e-09
2.34403e-08
1.74653e-09
3.88937e-08
-5.64331e-05
-1.78853e-08
8.31242e-09
2.36765e-08
3.9003e-08
-5.22823e-08
0.000464872
-0.000352804
-0.00349802
4.64049e-09
1.92514e-09
0.0013753
-8.29728e-08
-2.33923e-10
-3.04837e-08
-3.30937e-08
-1.607e-08
-1.01111e-08
-3.97326e-10
7.53308e-05
3.0008e-08
-7.71995e-09
3.63866e-08
0.000826351
-2.82052e-05
-1.63298e-06
0.000785214
-0.000694054
-3.59561e-08
-4.89436e-05
2.76267e-08
-7.04731e-05
3.87725e-08
-4.15626e-08
1.11575e-05
-2.15782e-05
-0.00293262
-4.73265e-09
-2.84747e-10
-2.74265e-05
-0.0013097
-6.36049e-11
-6.07716e-08
-1.18302e-08
-1.15698e-08
-4.40171e-08
3.31176e-06
0.00456323
2.04531e-08
-1.60776e-09
-5.95333e-09
-4.24535e-08
-0.000193292
5.60412e-09
-0.000124588
3.07799e-08
4.99357e-08
3.01623e-07
1.22301e-08
0.000175167
-0.00144728
-5.75266e-09
-1.84938e-08
-6.2073e-10
-4.64391e-09
-0.000174574
-3.19152e-08
-1.05511e-08
0.000315039
1.79294e-09
4.32986e-09
-8.76167e-09
-0.00013246
-1.08843e-08
-6.05507e-08
-0.00125048
-9.60764e-09
3.45883e-08
-0.000249969
4.73147e-09
-3.49944e-09
3.63135e-08
3.87035e-07
-0.000273303
-3.35825e-11
4.26554e-10
1.77903e-08
-8.36098e-08
-2.12727e-05
-8.076e-11
-0.000128505
-1.16285e-08
-5.59937e-08
7.03473e-06
-1.30394e-08
-2.52947e-08
2.73597e-08
-2.34782e-06
-4.64475e-08
-0.000788735
-5.59976e-09
-1.4193e-08
-3.51928e-09
8.84286e-09
4.50012e-08
-1.56185e-09
1.96422e-08
-7.1393e-07
1.15003e-06
2.53055e-08
-3.31076e-06
-3.55912e-10
9.6042e-07
-5.42454e-10
-0.000266715
-0.000281497
-9.13644e-09
4.97742e-09
-5.17806e-09
-2.01261e-08
3.2428e-09
-6.02077e-08
1.38145e-10
9.40271e-06
-3.79681e-05
0.00246407
-4.3308e-08
-6.72734e-05
-7.11144e-07
1.0997e-08
-0.000636049
4.1396e-07
1.10667e-08
-2.28359e-06
-4.34691e-08
-0.000265161
-4.56491e-08
4.30964e-08
-0.000593552
3.46151e-08
-2.94823e-08
-1.3849e-08
3.18489e-09
1.14717e-08
-0.00202974
-5.07274e-08
-1.80335e-08
1.01918e-09
1.43336e-08
-0.000201104
-7.19348e-10
-2.51652e-08
4.65505e-10
5.54257e-09
-7.7413e-08
6.63309e-09
1.151e-08
0.000603173
-2.2174e-08
8.81134e-09
0.00115282
-0.000101716
-0.0110863
-0.000335759
1.59004e-08
-4.90176e-05
-5.30467e-08
-1.49726e-08
-0.000222232
-1.34857e-06
-2.91626e-08
-4.44087e-09
2.39122e-08
-2.43892e-08
-0.000231937
0.00326468
2.87404e-08
-2.02601e-10
-1.33983e-08
3.83576e-08
-1.61145e-06
-3.12343e-08
-9.75838e-09
-1.99402e-09
-2.24696e-08
-1.06311e-08
-6.74133e-07
-6.59709e-09
9.40851e-06
2.98978e-07
5.60957e-09
-1.1273e-08
3.40492e-08
-3.73536e-08
1.28644e-08
1.70127e-08
-9.54089e-09
-0.000209093
1.05829e-06
-5.21824e-10
-3.92914e-09
-1.04584e-05
4.10194e-08
0.000437257
-6.25633e-09
-3.94145e-10
1.22609e-08
6.41981e-07
1.87282e-08
-8.03851e-08
-0.000155755
-1.60266e-10
6.56263e-08
0.00114803
-1.98745e-05
3.68299e-10
-7.10889e-09
1.98639e-08
-3.06715e-09
6.43144e-09
0.000930469
0.000661217
2.89411e-08
-5.4409e-05
-1.66566e-07
3.06192e-07
-1.16552e-07
-4.09656e-08
-2.94247e-08
-2.81473e-05
-6.15636e-08
4.98954e-08
-2.29443e-08
1.95135e-08
4.78778e-09
-3.24183e-05
3.00692e-09
3.49271e-09
-8.96726e-07
1.24211e-09
0.00077185
-8.72755e-09
-4.59741e-08
0.000417411
2.26225e-08
-2.5494e-09
-1.606e-06
-6.11087e-08
-1.84822e-07
5.86209e-10
-7.8042e-10
-3.01413e-08
-7.78015e-09
2.30631e-07
1.15531e-08
-8.55808e-09
8.51163e-10
5.86361e-09
7.29669e-09
1.3457e-09
6.44076e-09
1.48239e-06
-6.55413e-05
-9.0463e-09
-5.95263e-07
4.45525e-09
-6.17338e-08
-0.0024692
3.7706e-08
-3.82898e-08
-0.00126448
3.15628e-08
-2.69378e-08
3.81874e-09
-1.68258e-08
3.55802e-08
6.47803e-06
-3.77129e-05
-2.83102e-09
-1.34678e-08
-4.14969e-09
-5.09019e-07
0.000357994
-0.000139114
8.49367e-07
-3.24504e-08
3.60168e-08
-5.56903e-08
-0.000655094
-5.56573e-08
6.06962e-09
-1.15267e-08
-1.85007e-08
-0.000856112
-3.1664e-08
2.83621e-08
-1.02309e-08
6.98689e-09
-2.04113e-05
-5.08496e-05
-1.19833e-08
3.96637e-08
-6.6648e-08
4.7292e-09
0.000612555
-8.05568e-10
-1.27156e-08
-5.65681e-12
-0.000153238
0.00250238
5.75574e-10
7.53013e-07
2.51517e-09
-0.00019115
-4.3356e-08
-0.00058014
9.16742e-09
-0.000274683
-3.96143e-08
2.06387e-08
5.69786e-09
1.54567e-07
-5.92358e-05
-6.19511e-08
-1.35657e-06
7.93976e-09
-0.0007908
0.00179968
-0.000249736
2.58396e-07
-3.60026e-08
4.87583e-09
4.92486e-08
0.000188793
-2.34433e-08
-1.71356e-08
8.17241e-07
6.70324e-09
-3.03344e-09
-6.69029e-07
-1.54092e-08
5.28267e-09
4.99055e-08
1.64966e-08
-1.84279e-05
3.6252e-09
0.000968552
-5.10281e-08
0.000708491
-2.44914e-08
-5.61057e-07
-0.00135544
4.96047e-08
-7.98815e-05
1.96268e-09
2.8297e-08
-0.000626803
-4.27519e-10
8.70815e-09
-5.95649e-09
2.44486e-08
-3.07697e-08
3.66201e-08
-0.000718103
8.25216e-13
0.000315899
-1.46634e-08
7.51744e-09
1.84714e-08
-0.00016625
2.31035e-09
0.00097485
-5.83984e-09
-3.85268e-08
-5.42331e-08
1.04334e-08
2.14243e-09
-4.26171e-05
0.00116571
7.25944e-08
-3.76006e-09
-1.94088e-08
-0.00126941
-2.00218e-08
-9.31811e-08
5.60689e-10
-5.07296e-09
9.80811e-06
-5.04027e-08
8.49416e-09
0.000188092
0.00143675
-5.21051e-08
-9.89848e-09
0.00357827
-2.07314e-06
5.3724e-09
-1.43417e-09
4.312e-08
3.00591e-08
2.37299e-08
-1.98554e-07
-9.78741e-10
5.36419e-10
1.1815e-08
-3.14156e-08
-2.3446e-08
4.51044e-08
-1.1843e-12
0.000193618
0.000450007
-0.00197991
-7.60368e-08
0.000224672
-6.21935e-08
-1.58375e-06
-1.68525e-08
-1.22063e-08
-3.49174e-09
-5.16995e-05
-1.10046e-08
-1.70958e-06
-9.46317e-09
-2.86123e-08
3.95999e-08
-9.48541e-09
0.000718916
-5.39233e-08
-9.62668e-10
-1.26483e-09
2.9835e-09
-3.36861e-08
1.01029e-09
-3.56994e-08
-0.000355894
-1.3195e-08
0.000241975
1.55194e-08
5.23709e-09
-1.52351e-08
0.00136225
-3.61372e-09
-2.0824e-08
0.00082721
-3.24764e-08
1.00292e-06
-2.31325e-08
2.53634e-08
7.53444e-10
2.93534e-08
-4.93465e-07
1.98945e-06
2.37505e-08
2.66524e-08
-2.53651e-08
-2.66062e-09
1.67988e-08
-0.00352391
1.7718e-09
-0.00240488
-0.000112099
-5.89392e-08
1.08059e-08
8.07259e-09
-1.19912e-06
-4.12725e-07
-2.67213e-08
-5.19975e-08
1.05322e-06
-1.38783e-08
7.06405e-09
4.22606e-08
1.81184e-08
1.00553e-06
2.48861e-10
1.72713e-08
-7.66209e-08
4.49686e-08
-2.20534e-08
0.000264046
-0.000229006
-1.12005e-06
-1.15822e-09
8.43262e-09
1.09753e-09
-3.63286e-08
0.000182057
4.61067e-08
-2.47531e-09
0.000192453
6.80427e-09
1.77416e-07
-1.57694e-05
9.45545e-05
0.0011283
1.73634e-07
0.000734024
2.73999e-07
6.11269e-07
0.000323307
7.57028e-09
0.000262613
4.02551e-06
-1.13539e-09
-1.14351e-08
-0.000206241
7.52717e-09
-3.56708e-08
6.62566e-10
-3.43874e-09
-1.19181e-08
8.62631e-07
-1.92896e-06
2.49742e-08
-1.97371e-06
0.000331391
-3.67392e-09
0.000347342
-0.000302774
-9.85506e-08
2.42492e-09
-1.85565e-08
2.43903e-08
3.34834e-08
-1.51178e-08
-5.51226e-08
-3.194e-08
2.39095e-07
-1.16827e-06
-1.17493e-08
-1.73921e-05
2.38789e-08
-1.07193e-06
-2.31422e-08
-5.05784e-09
-1.38236e-12
5.87484e-07
-5.5283e-08
-2.22254e-08
-0.00235872
8.74784e-09
0.00218553
6.34996e-08
-2.86366e-08
-2.56807e-05
3.32555e-08
-3.18358e-08
-4.04962e-09
2.19008e-08
-7.4654e-09
-9.22554e-10
-3.1065e-08
-1.77997e-08
3.22743e-08
-1.93541e-05
-5.16878e-09
-1.23619e-08
3.89752e-08
-1.13551e-09
-5.61832e-10
5.07708e-08
4.47647e-08
0.000336728
1.35803e-08
7.30066e-09
-9.55263e-10
-6.61343e-08
-0.000960175
-6.2004e-07
0.00420834
-1.89498e-08
2.00771e-08
1.12529e-08
2.11961e-08
-2.22616e-10
-7.24927e-09
4.10706e-09
2.57015e-08
-0.000346917
-1.13988e-07
-7.31769e-08
-1.08328e-08
-0.0011131
0.000530879
-5.95061e-12
-5.78362e-09
-2.62567e-05
1.63473e-10
-2.9278e-09
-2.83801e-08
-5.71395e-08
-1.13376e-08
2.62932e-08
1.47299e-09
-1.45365e-08
-5.51908e-09
7.30473e-09
-4.72409e-08
-4.12847e-08
3.40375e-08
-8.19391e-09
-7.05289e-09
-7.53243e-10
3.58909e-07
5.37467e-10
-1.62167e-08
-0.000241429
2.36547e-08
2.59213e-10
2.91507e-09
-4.67878e-08
-1.31657e-08
-3.29365e-09
1.96049e-08
-1.23526e-08
-1.48852e-06
0.00431457
-2.15458e-09
2.73668e-09
0.000666445
0.000107157
5.24095e-07
-0.00246561
7.71057e-07
-3.51492e-08
1.84409e-09
-1.98381e-05
1.12916e-08
4.99393e-07
2.29932e-08
-0.00018527
-1.14087e-06
-6.37613e-08
-9.54446e-09
4.98463e-08
-0.000321781
-2.36168e-08
-1.18042e-06
3.79775e-07
2.79251e-08
8.43388e-09
8.961e-09
-1.34259e-05
0.00125182
0.000189834
-1.00813e-08
-2.50545e-09
-0.000250556
4.1739e-07
-5.10781e-08
-9.66888e-10
0.000954561
-1.38189e-09
1.47176e-08
4.60155e-08
8.63954e-05
1.53703e-07
-0.000181234
8.05254e-09
1.68087e-09
-2.22528e-09
-1.018e-08
2.94275e-08
-3.0036e-09
-1.72435e-05
1.19839e-08
-1.0485e-08
4.26957e-08
0.000963565
5.13098e-08
4.04203e-09
0.000310045
-0.00137376
-0.000312289
0.000924501
0.000419387
-1.38434e-06
2.35874e-09
7.90857e-08
-0.00566088
-0.000309577
-2.47701e-09
-5.89915e-09
8.83814e-09
-5.70183e-08
-3.12466e-10
1.11458e-10
7.47025e-09
1.02339e-06
1.14574e-08
-0.000288665
-0.00148514
5.52443e-09
1.39456e-08
2.72413e-07
-1.36664e-08
-2.99412e-09
3.52655e-05
-1.10215e-08
3.72785e-07
-3.44549e-08
6.48922e-07
-6.41084e-08
-9.02627e-08
-4.52482e-08
-9.85362e-10
-3.19255e-08
1.48224e-08
0.00245436
-3.83524e-09
-0.000108579
1.49961e-08
2.50425e-09
3.56292e-08
3.28645e-07
6.82832e-08
-0.00028749
-1.71918e-09
5.05422e-08
1.61703e-08
-1.03722e-07
-1.8964e-08
-6.88971e-08
-1.34607e-08
0.000907563
5.73035e-09
-5.96456e-09
-0.00056871
-0.000168051
-4.98148e-09
-0.000154545
0.000728167
0.000166154
-0.00129531
-0.00025838
0.000274324
3.2472e-09
5.24157e-08
-2.25457e-10
-1.33068e-08
0.000313659
-4.25074e-08
-3.46244e-08
-0.000271524
1.36438e-08
5.00762e-08
6.71242e-07
-0.000331376
-3.42849e-08
1.44029e-08
2.20638e-08
-8.00325e-09
4.02651e-08
-2.80395e-07
-2.56458e-10
1.08975e-06
4.54508e-08
2.85425e-08
-3.91619e-09
0.0020944
-2.20547e-06
-9.76599e-09
-1.12249e-08
1.47239e-08
4.21074e-07
-6.27804e-07
5.05792e-08
-2.66361e-08
-1.80661e-07
1.56942e-09
2.82356e-08
-6.5572e-08
3.31686e-07
-7.29085e-09
-3.23072e-08
-9.23273e-09
8.07451e-10
2.61319e-08
-3.60848e-09
-7.05899e-07
-4.60974e-07
4.24034e-08
2.75969e-08
-3.9942e-08
0.000247876
-0.000559341
3.33e-09
-4.12914e-08
1.65878e-09
-0.00149264
-4.90692e-08
4.85998e-08
-1.06952e-10
-2.59001e-07
0.000174647
1.81008e-08
-5.21918e-08
5.27077e-09
-0.000186214
-9.41539e-08
-1.21657e-08
9.17605e-06
2.01798e-09
5.17593e-09
-1.01623e-08
-0.000190916
-3.39672e-09
4.44874e-07
-0.00264887
9.5654e-09
-5.53678e-09
-4.22641e-06
-9.20916e-09
9.33686e-09
-2.10094e-08
0.00114321
3.76568e-08
-9.53598e-09
-3.30354e-07
-1.78831e-08
-7.15454e-09
-5.7857e-08
-2.94555e-08
-4.97206e-09
3.54953e-05
-6.10865e-08
-2.44529e-07
2.81636e-08
4.29434e-08
5.39823e-09
0.00161437
2.09807e-07
-3.56926e-09
-5.43878e-05
6.84679e-09
3.46095e-08
-4.09871e-08
7.51129e-08
4.18034e-09
-0.00120535
-1.17871e-06
-5.27949e-08
0.000266466
0.000794031
-1.13791e-08
-1.71193e-06
6.61766e-07
0.000354687
3.42692e-08
-4.94248e-09
7.35657e-09
-1.0295e-08
-2.04297e-09
3.71207e-07
2.01783e-07
2.6821e-10
4.63243e-09
3.0526e-09
-4.86815e-07
-1.21788e-07
2.29786e-07
-0.000303018
-0.000234652
-1.00279e-08
-0.00190012
-3.44158e-09
-6.03345e-10
-2.15952e-09
-6.93077e-05
5.24888e-08
4.26336e-08
-6.7835e-09
1.13652e-08
-7.14337e-09
-5.69029e-08
-0.000519259
3.67515e-09
-1.82114e-06
0.000184545
2.29761e-05
3.50793e-05
-1.35568e-05
-1.11356e-08
-6.56262e-07
-2.89396e-08
-0.000222064
2.15972e-09
-8.98704e-09
-1.82976e-08
-2.6836e-08
0.000160265
-3.72363e-08
-2.08335e-06
6.75089e-09
-1.35842e-07
5.08931e-08
-1.15596e-08
-4.7426e-08
3.52872e-09
8.7843e-09
-6.15562e-09
3.92366e-08
-9.8443e-05
6.19106e-09
-2.99459e-08
1.97596e-08
3.91276e-08
-4.44451e-08
4.42674e-10
3.57402e-08
-7.78428e-07
-0.000246015
0.00018698
0.000434149
8.16246e-05
9.34242e-09
1.32646e-08
-2.80297e-08
2.48203e-08
-0.000279441
5.41265e-09
-5.80941e-05
1.01956e-08
-4.50271e-11
-3.08412e-08
6.84311e-09
-0.0023341
-4.94953e-06
-0.00029252
-3.57428e-09
-5.15341e-10
-4.34511e-09
-3.22249e-09
0.000318744
4.55929e-08
-4.70378e-10
-8.32479e-08
-0.00110358
4.40793e-09
3.80757e-08
-1.17038e-09
-0.000336534
3.31452e-08
-5.88774e-08
0.000324643
-0.000243685
-7.21908e-07
0.00022675
-7.55784e-05
0.000320368
-2.94688e-08
-0.00010373
7.8516e-09
7.15573e-09
-1.70723e-07
0.000349718
-1.70891e-06
0.000221237
-8.26459e-09
-3.52696e-08
-1.08075e-08
-3.2396e-07
-0.00019706
-1.17249e-08
-0.000255368
2.96359e-08
0.000365431
-0.000662645
1.13556e-08
-8.52687e-07
2.03623e-08
2.18658e-08
-2.17946e-08
3.03362e-09
0.00464065
0.000335146
-4.39495e-10
-3.02961e-08
-5.57517e-05
3.83775e-08
-5.31325e-08
-0.000379764
5.34569e-07
1.45883e-09
-2.05775e-08
1.67964e-08
8.3073e-09
4.94001e-05
-4.85926e-09
-3.3013e-08
1.74014e-09
0.000319371
1.83186e-08
-6.81623e-10
0.00446663
-2.18227e-08
2.42211e-07
-1.14341e-06
-4.48939e-08
3.06775e-08
1.44569e-08
-0.00022705
3.20315e-09
-6.29129e-08
-7.11725e-05
-1.94923e-07
4.13694e-11
-1.19064e-06
-1.33183e-07
-4.46154e-05
-2.03713e-05
-6.13421e-08
0.000827838
6.27931e-10
4.55283e-08
-1.85919e-09
-1.60239e-09
1.17876e-08
-1.04766e-08
-9.24745e-07
8.48389e-10
-2.11773e-08
1.21803e-08
-3.52837e-06
2.1265e-05
-1.57859e-09
6.53508e-09
-0.000337114
-0.000192335
-4.02513e-08
-3.21816e-09
-2.17139e-08
-1.73379e-09
6.888e-09
-5.05579e-10
-0.000760853
-2.09678e-07
-3.84122e-09
5.3997e-05
9.54162e-06
-1.93272e-08
9.27019e-10
0.00428858
-2.27869e-08
3.47141e-09
0.000116255
-0.00024347
3.86209e-09
-1.32195e-08
1.72855e-05
0.000880756
-1.28177e-06
4.47849e-08
-1.00306e-06
-0.00240298
-1.49062e-08
-1.13629e-08
-1.0759e-07
4.82187e-09
-0.000944995
2.93524e-08
1.78945e-08
-0.000367517
-0.000119472
-2.44636e-09
1.38328e-09
0.00033186
0.000327516
1.6716e-08
4.79049e-08
1.51996e-08
3.84631e-09
-1.38252e-08
-2.1878e-08
0.000203412
4.38059e-08
-1.92789e-06
-5.03135e-05
-1.55221e-08
-9.46154e-10
1.39721e-09
1.69699e-09
-0.000528393
0.000942659
-1.80903e-08
2.93816e-07
-7.36415e-09
0.00033315
1.04851e-07
7.16754e-09
3.11991e-09
1.19075e-10
1.07003e-06
-0.00230692
4.24759e-09
4.79411e-09
-3.31029e-09
-1.53986e-08
-0.00025459
4.6589e-08
1.48626e-08
8.82442e-09
1.16223e-08
-0.000134053
-2.00247e-06
4.93159e-08
-2.18034e-09
1.37145e-10
0.000106205
3.14423e-08
3.51984e-08
0.000570807
-2.13237e-08
2.82366e-09
-2.36093e-08
-1.98216e-07
-4.37577e-09
7.64838e-10
-0.00109226
-7.56098e-07
-6.96896e-06
-3.98772e-07
-4.32054e-08
-0.000108502
1.54942e-08
2.55194e-08
2.94297e-09
-3.14339e-09
-1.31527e-08
-7.07901e-08
3.92332e-08
-0.000159241
2.39499e-09
-1.29976e-08
0.0247973
-2.65526e-08
-1.34756e-06
2.85705e-09
2.03158e-08
-0.000662228
8.69401e-07
-1.26127e-07
2.44199e-08
8.12649e-09
9.79496e-07
9.57157e-07
-3.3751e-08
-0.000306693
0.00430551
-0.00171628
-1.5636e-10
-8.21206e-09
-3.76e-09
-7.53855e-08
6.48924e-07
2.01746e-09
1.42992e-08
0.00012823
-0.000219232
-7.8475e-12
-0.000250234
2.6461e-08
-2.2537e-07
-2.29364e-08
-2.03014e-09
-3.78022e-09
1.47968e-07
1.37926e-08
6.065e-07
1.2628e-08
-2.52833e-09
-0.000190724
-0.00054925
4.06346e-09
-2.30422e-07
-2.88215e-09
7.67227e-09
-6.17994e-08
0.000368612
-3.01582e-08
7.16607e-09
4.79051e-08
0.00148004
8.97669e-05
-1.55281e-08
-0.00112961
-3.99189e-08
-1.39392e-05
4.73758e-08
3.77567e-10
6.13143e-09
3.58771e-09
-2.72578e-07
7.63399e-08
9.69753e-10
-1.64934e-08
-6.61897e-08
8.94386e-05
1.61595e-07
3.55942e-09
1.12275e-08
-5.32011e-08
1.34938e-08
0.000195743
-0.000195458
1.45698e-08
-0.000327971
8.778e-08
-1.72755e-08
-1.86937e-08
1.44298e-09
-1.53041e-08
8.19219e-09
2.24967e-08
2.406e-08
-2.08243e-08
1.34217e-09
-2.53856e-08
3.84598e-08
0.000280885
-2.78469e-08
-1.63124e-08
-0.000945663
9.98622e-07
1.43234e-06
-3.35868e-08
0.000210981
6.89456e-10
-3.87083e-05
-0.000601866
8.1671e-05
-1.50596e-08
-6.05653e-08
1.89562e-08
9.70878e-09
-6.87816e-05
-0.000295002
9.83991e-05
-1.1667e-08
-3.04793e-10
-5.43157e-08
2.82841e-08
-2.45973e-08
0.00300854
1.24295e-08
3.84882e-08
-8.74907e-09
-7.37677e-09
-4.95437e-08
-6.22443e-06
-1.50547e-08
-3.90234e-08
0.00021809
-1.52267e-08
2.10968e-08
-3.07915e-08
2.58833e-08
0.000266452
-1.30997e-08
1.0767e-08
1.32292e-09
3.67448e-09
5.039e-09
-2.83268e-09
6.68453e-05
0.00282518
0.000328456
-8.21648e-09
-2.50804e-06
0.000558046
2.78189e-08
7.22273e-07
7.86034e-10
3.97917e-09
-1.33423e-08
7.40327e-09
2.02225e-07
0.000415098
-0.000314022
-3.41311e-08
-2.04525e-08
2.45984e-08
-3.6493e-08
-1.59353e-09
0.00463747
-0.000183685
0.000313183
0.00159697
4.36928e-08
0.00041299
-3.41034e-07
9.89503e-09
-6.01611e-05
-6.82909e-09
2.30822e-08
3.89567e-09
-0.000792634
-5.30532e-10
6.87283e-07
3.64798e-08
-0.00227126
-1.44667e-08
2.01333e-08
5.73737e-05
4.83791e-08
2.69895e-08
0.000151083
1.80575e-08
4.13854e-09
-5.76922e-08