/*--------------------------------*- C++ -*----------------------------------*\
| =========                 |                                                 |
| \\      /  F ield         | OpenFOAM: The Open Source CFD Toolbox           |
|  \\    /   O peration     | Version:  v2012                                 |
|   \\  /    A nd           | Website:  www.openfoam.com                      |
|    \\/     M anipulation  |                                                 |
\*---------------------------------------------------------------------------*/
FoamFile
{
    version     2.0;
    format      ascii;
    class       volScalarField;
    location    "200";
    object      nut;
}
// * * * * * * * * * * * * * * * * * * * * * * * * * * * * * * * * * * * * * //

dimensions      [0 2 -1 0 0 0 0];


internalField   nonuniform List<scalar> 
37190
(
0.0058388
0.0146843
0.00589011
0.000138839
0.0103899
0.00584499
0.000702025
0.00115275
0.000160726
0.00109681
0.00584176
0.00583787
0.000703766
0.00584825
0.0107254
0.00336765
0.00107133
0.000433019
0.0125957
0.000181804
0.00109338
0.00583927
0.00880793
0.00237041
0.000899832
0.00315402
0.000521297
0.0012856
2.87321e-05
0.00981642
0.0133109
0.00583272
0.00134675
0.00106042
0.000949063
0.00120464
0.00584778
0.00238373
0.00234309
0.00444673
0.00116635
0.00761573
0.000950742
0.000745704
0.00583461
0.000413654
0.006425
0.000261231
0.00589058
0.011003
0.00163534
0.00342934
0.00185429
0.000200982
0.00583406
0.00297278
0.0011069
0.00584774
0.0103525
0.00583417
0.00978811
0.00111906
0.00582883
0.0150247
0.000911676
0.000787254
0.00584079
0.000378532
6.7333e-05
0.00582885
0.00583411
0.00234707
0.00123884
0.00584931
0.00328709
0.00256356
0.0154247
0.000534418
0.0111623
0.000973607
0.00583237
0.000459157
0.00584802
6.25782e-05
0.000198255
0.000985289
0.0138165
0.00974448
0.0120377
0.00583276
0.0155309
0.00135608
0.000827038
0.00585051
0.00584216
0.000808253
0.0104874
0.00583209
0.000145767
0.00855203
0.000866004
0.0001271
0.0154149
0.00923591
0.00583365
0.00200579
0.0150683
0.00583344
0.00584029
0.0125729
0.0126061
0.0119716
0.00216248
0.00586036
0.00337471
0.00583493
0.00055071
0.00228902
0.00455491
0.00147914
0.00401973
0.00945278
0.0058353
0.0024999
0.00583315
0.011897
0.00586015
0.00583261
0.000409057
8.05074e-05
0.00583268
0.0148442
0.00152929
0.000837432
0.0148932
0.00518803
0.000266803
0.000382696
0.000413435
0.00113814
0.0014491
0.00127679
0.000159615
0.00075707
0.00584141
0.00269138
0.0132663
0.00144948
0.000349211
0.00585563
0.00583487
0.000318066
0.00084413
0.00583149
0.00979594
0.00583862
0.0114422
0.00584123
0.0152517
0.000299807
0.000295644
0.00341158
0.00794764
0.0133521
0.000316269
0.00159509
0.00998131
0.000602608
0.0127873
0.00114087
0.00492616
0.0133906
0.00339751
0.000877346
0.00993567
0.00102112
0.00353976
0.000905363
0.000211176
0.00226355
0.000644699
0.00583369
0.00583362
0.00588681
0.0152577
0.00583399
0.00157579
0.000989256
0.00945977
0.000644187
0.00583358
0.000412849
0.00586472
0.0030542
0.00059761
0.00161979
0.00457101
0.000554237
0.0102061
0.0133442
0.000147144
0.0058731
0.00583452
0.00583435
0.0132365
0.000545774
0.000584933
0.00163968
0.00420249
0.0137985
0.00583925
0.0128156
0.00587256
0.000621171
0.0150333
0.0103227
0.000388214
0.000340579
0.00106228
0.00583258
0.0104353
0.00583694
0.00458466
9.92863e-05
0.0154409
0.00583958
0.0106204
0.00584179
0.000500904
0.00448921
0.000886913
0.00379193
0.00583366
0.0138714
0.000326604
0.000741818
6.72369e-05
0.00695511
0.00582814
0.00306201
0.000202223
0.00583403
0.0131288
0.00331082
0.00361467
0.000624649
0.00583208
0.0103286
0.00136928
0.000515312
0.00407501
0.00113104
0.00428957
0.000439698
0.000871737
0.00583457
0.000400817
0.00583384
0.000277136
0.0058318
0.0108744
0.00126316
0.00585454
0.0104905
0.00206039
0.00583926
0.0058906
0.000892059
0.0154265
0.00584877
0.00852155
0.0113552
0.00106021
0.000202036
0.00410858
0.0059
0.00585567
0.0100945
0.0014896
0.00142604
2.81247e-05
0.00246376
0.000277466
0.00113644
0.00200284
0.00128532
0.00514947
0.00254191
0.000647196
0.00583439
0.00456006
0.00105243
9.98648e-05
0.000575717
0.00405407
0.00584101
0.00433212
0.015319
0.000969557
0.00584827
0.0106262
0.000198406
0.000896211
0.00100781
0.00562449
0.00586014
0.00583996
0.00583387
0.000143166
0.000999449
0.00583572
0.0154602
0.000369945
0.000140007
0.00586539
0.00367648
0.000385448
0.000259833
0.000211029
0.00586062
0.00583997
0.000231906
0.00105186
0.00346391
0.0111498
0.00107792
0.000453593
0.00899127
0.00583056
0.00920027
0.000406294
0.000991191
0.00393014
0.00353038
0.00089983
0.0112268
0.000152078
9.93193e-05
0.00197026
0.0150088
0.00159525
0.00119297
0.00313032
0.0031918
0.0151245
0.00014079
0.00108651
0.00583585
0.00583639
0.00585371
0.00583382
0.00917043
0.00493029
0.00589862
0.000469912
0.000331656
0.00583654
0.0113556
0.000293202
0.00125544
0.000313721
0.0106674
0.000321714
0.0152703
0.000549042
0.000476106
0.00385853
0.0058292
0.00100985
0.000534791
0.00132771
0.000103295
0.000619992
0.000263154
0.00125881
0.00145765
0.00049883
0.000592247
0.000527071
0.010007
0.00596409
0.000295828
0.00844048
0.000427087
0.0006806
0.0116804
0.000550836
0.000484343
0.000734786
0.000219358
0.00485601
0.00115224
0.000830272
0.00320861
0.0008226
0.00583651
0.000404347
0.00066143
0.00583606
0.000340554
0.00582929
0.0154902
0.00112073
0.00391595
0.000911488
0.00583048
0.00582964
0.0104519
0.0020822
0.00582953
0.00267109
0.000267011
0.00348122
0.00444729
0.00424163
0.0058634
0.000944981
0.00583311
0.00584874
0.00583123
0.0147048
0.000285102
0.0105234
0.00583856
0.00584924
0.000338172
0.0153618
0.0058361
0.00125837
0.00584017
4.16389e-05
0.00583142
0.000994681
0.000174918
0.00195954
0.00868872
0.00592447
0.000249089
0.00196822
0.00402656
0.00156851
0.00588547
0.01498
0.000979055
0.00338
0.0133279
0.00745662
0.00583204
0.0105051
0.00203528
0.00091674
0.00111635
0.00583466
0.0111581
0.00583234
0.00679622
0.00586403
0.00583421
0.00108054
0.00585488
0.0149425
0.00116462
0.00585848
0.00217301
0.000381985
0.00583059
0.00109168
0.000340242
0.00254137
0.00587601
0.000918403
0.0151368
0.00960721
0.000573645
0.00359148
0.0111198
0.000328765
0.0150566
0.00167855
0.00584484
0.00586446
0.00242882
0.013349
0.00114578
0.00585942
0.00139214
0.000948551
0.00452056
0.00535075
0.000518601
0.00247304
0.000474696
0.00357896
0.00127205
0.000545586
0.000206944
0.0034044
0.00585956
0.00059329
0.00744221
0.000981497
0.00583466
0.00227722
0.0100465
0.000566816
0.00906387
0.00132829
0.000228046
0.0111463
0.00207806
0.0134565
0.00583476
0.0113741
0.00590233
0.000102612
0.0126595
0.00114277
0.00589777
0.00583059
0.00383545
0.00114971
0.000756038
0.000112437
0.000968407
0.00372744
0.000859766
0.000381016
0.0010297
8.92083e-05
0.00583601
0.000181024
0.00583679
0.00480137
0.00583732
0.00583434
0.00843144
0.00583233
0.00583368
0.00425096
0.00072721
0.00583616
0.00583611
9.39031e-05
0.000980738
0.0108321
0.0058314
0.00238474
0.000943672
0.000175384
0.00583865
0.00583113
0.0020914
0.000417243
0.0105764
0.00095978
0.00583911
0.00234065
0.00043315
0.0130809
0.00583061
0.00584688
0.00378051
0.0138575
0.00617974
0.010725
0.00206495
0.000588065
0.00583754
0.0104088
0.000278019
0.00179059
0.00101798
0.000228821
0.000481116
0.00538492
0.000362113
0.0101698
0.0103012
0.00355113
0.000877483
0.000913343
0.00277433
0.00216493
0.00430325
0.0147825
0.00908257
0.00587464
0.00944048
0.00830659
0.00583544
0.000106345
0.00583283
0.00100135
0.00103363
0.00583289
0.000263277
0.0110607
0.000976319
0.000139148
0.00583285
0.00150151
0.00193021
0.000498488
0.00119699
0.000664513
0.00583332
0.0010638
0.00583442
0.01331
0.000406308
0.00583538
8.97526e-05
0.00583405
0.0155081
0.00333253
0.0058305
0.0145201
0.00584908
0.00310975
0.00213263
0.00583045
0.000301227
0.000874301
0.00583525
0.000686043
0.00584228
0.00126769
0.00795816
0.00583187
0.00584492
0.0119782
0.00583585
0.00584972
0.000395128
0.000182646
0.000280798
0.000245691
0.0010738
0.00584985
0.000880813
0.00115698
0.009934
0.0010651
0.0102047
0.00582819
0.00107453
0.0017356
0.00118681
0.0102652
0.000832728
0.000163966
0.00583215
0.000956252
0.000860411
0.000845146
0.00132959
0.000297679
0.00729966
0.00218462
0.00370956
5.55532e-05
0.00133859
0.000843265
0.000294152
0.000263242
0.0012931
0.00582671
0.00110096
0.00583329
0.000976027
0.000174206
0.00584186
0.00027205
0.00863402
0.00583372
0.0058313
0.00883458
0.00309216
0.00569789
0.000519071
0.00161755
0.0109008
0.00107893
0.00582996
0.0101983
0.000850336
0.00016797
0.000917224
0.0010395
0.000666976
0.00131764
0.000613859
0.00355401
0.00151704
0.00336765
0.000514515
0.0016912
0.000521204
0.00117108
0.00584709
4.84992e-05
0.00584861
0.00432949
0.000438534
0.00343238
0.0049739
0.0058334
0.00387644
0.00561819
0.00583344
7.78451e-05
0.00584686
0.0154564
0.00536624
0.000409461
0.00583408
0.00583595
0.000890813
6.13452e-05
0.00737407
0.0153677
0.00469208
0.00114916
0.00121927
0.0041503
0.0019682
0.00496349
0.0106141
0.0056765
0.00120118
0.010106
0.00144551
0.000543998
0.0013969
0.0106903
0.00585523
0.000391003
0.0096332
0.000186247
0.000250007
0.0111104
0.00270818
0.00101371
0.00585908
0.00908706
0.0145745
0.00584641
4.78683e-05
0.0097429
0.00119244
0.00366854
0.00110222
0.00779233
0.00354384
0.000539154
5.69144e-05
0.000616949
0.000805687
0.00583869
0.0147486
0.000962274
0.000345055
0.00583368
0.000260424
0.00582955
7.47026e-05
0.000899723
0.00198528
0.00119533
0.0026788
0.00132912
0.00141435
0.000986737
0.00263556
0.000228943
0.000935421
0.0100358
0.000499087
0.00590287
0.00133317
0.00259413
0.00583253
0.0154996
0.0124687
0.000743835
0.00388084
0.000916044
0.00481547
0.00146046
0.0103704
0.00583135
0.000764322
0.000325948
0.00525456
0.00463517
0.00585772
0.00216138
0.000163145
0.00299031
0.00188132
0.00141824
0.00583595
0.0058384
0.0101001
0.0137479
0.00595382
0.00584645
0.00590662
0.00207032
0.00177412
0.0109409
0.00149815
0.000960502
0.00352013
0.000489716
0.00990002
0.00115574
0.00583376
0.00583744
0.00583465
0.000340692
0.0058345
0.00288465
0.000159164
0.00370215
0.0107084
0.00892287
0.00132286
0.00134939
0.000416106
0.000193678
0.00125698
0.000533334
0.000531561
0.0151228
0.00135326
0.00583262
0.000487885
0.00301381
0.000610416
0.00583912
0.000130975
0.00583529
0.00583728
0.000634336
0.000144515
0.00140824
0.000191508
0.00390285
0.00111317
0.000169147
0.00331616
0.00584131
0.000724077
0.00229356
0.000137984
0.00270736
0.00376941
0.012679
0.00289504
0.010002
0.00642249
0.00583515
0.00583575
0.000489231
0.00407804
0.00586702
0.0112964
0.00583674
0.0136284
0.00504327
0.0137764
0.000569711
0.000565294
0.0153882
0.00583407
0.00583407
0.00179243
0.00495182
0.00581085
0.000569306
0.00305256
0.00583277
0.000943985
0.00163182
0.00583265
0.00584159
0.00070773
0.00583351
0.00583578
0.00317244
0.0151105
0.00227901
0.00583262
0.000160115
0.005839
0.00501559
0.00964368
0.000119856
0.00119719
0.000173296
0.00583281
0.000964448
0.0022369
0.00592251
0.000173865
0.0136604
0.000165667
0.000425795
0.00044357
0.0058371
0.010007
0.00583627
0.00510528
0.00582958
0.00100586
0.00357878
0.00583195
0.000991679
0.000533562
0.00583269
0.00538582
0.00110544
0.0155236
0.00127538
0.00102967
0.00313597
0.000393622
0.00585162
0.0112327
0.00584256
0.0011716
0.00174134
0.000266203
0.00576898
0.0117833
0.00362289
0.00093519
0.000952845
0.00359715
7.68385e-05
0.000247318
0.00155097
0.00107407
0.0013047
0.000158649
0.00308966
0.010389
0.0109948
0.000276715
0.00277097
0.00135208
0.0038965
0.0113677
0.00147568
0.00279291
0.0056718
0.000937619
0.0102218
0.00583594
0.002512
0.00261035
0.000864536
0.003261
0.00606746
0.000689316
0.0104447
0.000875901
0.00583102
0.00117064
0.00254161
0.0153117
0.00583436
0.00048248
0.000954964
0.00149451
0.00939597
0.00589921
0.000429132
0.000727283
0.0111486
0.00583511
9.56879e-05
0.00219226
0.0151274
0.000430894
0.00585341
0.00193697
0.00033208
0.00260839
0.000288318
0.000208501
0.00158525
0.011925
0.00583428
0.000577841
0.00583351
0.000738188
0.0012571
7.36847e-05
0.00237805
0.00105764
0.00969595
0.00583141
0.00584067
0.00582912
0.0142618
0.00583611
0.000692615
0.000226482
0.00107856
0.000427395
0.00573412
0.00147642
0.0127293
0.00583465
0.00583493
0.000485419
0.00515784
0.00327666
0.00584779
0.000563239
0.00304161
0.000937378
0.0122746
0.00583332
0.00172324
0.000196461
0.00110785
0.0048372
0.000211893
0.00203576
0.00583474
0.00998496
0.00951017
0.000812266
0.00583556
0.000819052
0.000850151
0.00583427
0.00266219
0.000925258
0.000684675
0.00536801
0.00583606
0.00583293
0.0025452
0.000762554
0.000655341
0.0138801
0.0154637
0.0040891
0.000423216
0.00583805
0.0128479
0.00153883
0.00583482
0.003754
0.000214504
0.0027663
0.000159877
0.00583315
0.00017675
0.00200688
0.00137496
0.00226841
0.012711
0.00294478
0.00025307
0.0125483
0.015082
0.00309152
0.0052864
0.00345244
0.0078534
0.00159406
0.000204005
0.0105763
0.0028206
0.00109149
0.00583125
0.00583354
0.0100631
0.013644
0.00583575
0.00103599
0.00105093
0.00156458
0.00139447
0.000326229
0.00745749
9.51381e-05
0.00530786
0.00583289
0.00142621
0.000148311
0.00583482
0.0101416
0.00200864
0.000703445
0.000663248
0.00584535
0.0139205
0.012331
0.00582934
0.00347955
0.00583318
0.00583123
0.00732653
0.00333557
0.00585421
0.0137396
0.00583064
0.0004107
0.00329791
0.00547552
0.00147321
0.000607899
0.0131573
0.00330261
0.00347847
0.0107012
0.000294163
0.00583215
0.00429474
0.000136753
0.00976708
0.00583586
0.00583662
0.0056202
0.00163359
0.000128074
0.00583191
0.0119249
0.000988087
0.00166811
0.000142231
0.00152755
0.000858601
0.00333339
0.00110495
0.000961845
0.0147125
0.00582909
0.0022942
0.00583462
0.00423827
0.000958997
0.00586876
0.000501537
0.00137999
0.000556596
0.00474117
0.000166657
0.00583452
0.000636878
0.0058338
0.0147978
0.00986343
0.000954504
0.00583809
0.00583287
0.00512964
0.0058291
0.000964776
0.00583128
0.00879581
8.8133e-05
0.0110085
0.000222699
0.000309957
0.00134345
0.0058332
0.00443243
0.000362526
0.00583323
0.0010691
0.000547507
0.010037
0.00182121
0.000994101
0.01515
0.00258196
0.00458317
0.000958299
0.00583367
0.00583427
0.0107711
0.000932115
0.00583606
0.00583963
0.0044028
0.00930576
0.00583349
0.00389753
0.0058308
0.00582671
0.000784696
0.00583544
0.00584267
0.013173
0.00356339
0.0058329
0.0096122
0.00369325
0.00136914
0.0155215
0.000409898
0.00642045
6.75879e-05
0.000219314
0.00962443
0.00120118
0.00164551
0.00216387
0.00316745
0.00169944
0.00032297
0.00844317
0.0011265
0.00583333
0.00546572
0.0041103
8.1563e-05
6.66946e-05
0.005445
0.00583441
0.000226565
0.00585416
0.00102962
0.00342764
2.61833e-05
0.000559986
0.00590513
0.000930573
0.00249411
0.000512975
0.000438513
0.000465448
0.000160735
0.00885454
0.000568647
0.0058296
0.00185525
5.70179e-05
0.00106311
0.0146428
0.00543287
0.00583568
0.0058335
0.000392845
0.00585272
0.000389911
0.00956598
0.00583603
0.000466717
0.0120398
0.000254522
0.00583094
0.00583981
0.00169226
0.00583197
0.00418358
0.00898026
0.00160974
0.00116215
0.00533172
0.000318768
9.68878e-05
0.000140548
0.00204293
0.0043785
0.000608065
0.00010141
0.000286718
9.64261e-05
0.00265702
0.00586322
0.000391651
0.00582893
0.00584103
0.00109418
0.00582993
0.00893822
9.82386e-05
0.000984898
0.0146932
0.000540708
0.00585315
0.0010748
0.00103725
0.000897171
0.00583076
0.00583222
0.000195461
0.00337511
4.52635e-05
0.00584249
0.00583292
0.00315154
0.00583357
0.00583639
0.00582991
0.00590539
7.96259e-05
0.00709759
0.00583285
0.00104173
0.00129075
0.000600379
0.00996775
0.00167626
0.00189417
0.00268499
0.000270571
9.15187e-05
0.000575637
0.0058357
0.0024429
0.000179087
0.000171586
0.00583459
0.00010298
0.00582977
0.000955915
0.00673931
0.00964504
0.000131277
0.00408652
0.00229013
0.000883394
0.0154135
0.00107349
0.00583508
0.000225859
0.000181374
0.00427579
0.00377008
0.000716602
9.04506e-05
0.00583506
2.45211e-05
0.00509425
0.00472551
0.000798598
0.00094747
0.00585841
0.0110598
0.00583544
0.00490631
0.00583609
0.00432787
0.00803249
0.00583081
0.000955873
0.00583327
0.00019931
0.0014565
0.0155043
0.00583289
0.0147998
0.00182173
0.00433831
0.00583388
0.000299765
0.000645577
0.000608245
0.000193411
0.00583422
0.00344924
0.0118121
0.0154849
6.04778e-05
0.00105569
0.00582714
0.00155498
0.0105116
6.25857e-05
0.0037247
0.000437901
0.00585471
0.00495447
0.00134668
0.00156343
0.00584604
0.00145712
0.00585221
6.99392e-05
0.00583717
0.0128344
0.000136291
0.00928071
0.00416816
0.00103113
0.0117706
0.00124756
0.00412699
0.00583367
0.00318177
0.0154148
0.00583568
0.00583828
0.000336921
0.000856395
0.00341412
0.00236833
0.0152901
0.00583619
0.00892938
0.00114908
0.00583666
0.00166959
0.000111576
0.00583718
0.00868414
0.00104796
0.000194126
0.00167207
0.00409493
0.00160039
0.00045875
0.00879266
0.000449453
0.00582948
0.000149823
0.014089
0.00273449
0.000212772
0.000151528
0.00583139
3.73252e-05
0.000458004
0.00583472
0.0111185
0.0045372
0.00166437
8.80469e-05
0.00805245
0.0010972
0.00585582
0.00567296
0.00137577
0.00201404
0.000550171
0.000945185
0.00583517
0.00584039
0.0058452
0.00584275
0.00312879
0.000703716
0.00583609
0.0138299
0.0146667
0.00223793
0.000183304
0.0139578
0.00138038
0.00106536
0.00583803
0.00589681
0.00583041
0.00324731
0.00542875
0.00113583
0.000175626
0.000574488
0.000791911
0.000789829
0.0125757
0.00139163
0.0058336
0.00584775
0.00390341
0.000243881
0.00583149
0.00531691
0.00143561
0.00583663
0.0141233
0.00585607
0.00182453
9.63976e-05
0.00845765
0.00583423
0.000116206
0.000445121
0.000945594
0.000471033
7.31676e-05
0.00318308
0.00583379
0.00211131
0.00137637
0.00800665
0.00367722
0.00123301
0.00418756
0.00583415
0.00133879
0.00438856
0.00583068
0.00276435
0.00927758
0.000179123
0.00179927
0.00033315
0.00105644
0.000899178
0.00350098
0.00202967
0.000920068
0.00277988
0.00583479
0.000656649
0.000412169
0.000456309
0.00583355
0.00436155
0.0011501
0.00155238
0.00277756
0.00953783
0.00764037
0.00103314
0.00583708
0.00351568
0.00583258
0.00305905
0.0138941
0.00281779
0.00582931
0.0136904
0.00583915
0.000173304
0.00079579
0.00996133
0.00531264
0.000299798
0.0138146
0.000362963
0.000897748
0.0145819
0.00583441
0.0148158
0.000309533
0.00583229
0.000436876
0.0115663
0.00583367
0.00495792
0.00583665
0.00583044
0.00586252
0.000917064
0.00119483
0.000542573
0.00110982
0.0147972
0.00583039
0.00768903
0.0154744
0.00132442
0.00172423
0.00305123
0.000566241
0.00274827
0.000698565
0.00091639
0.000221362
0.000136008
4.19811e-05
0.00589833
0.012663
0.000564486
0.00103322
0.00288725
0.00583243
0.00583616
0.000609794
0.000279969
0.00583909
0.0104414
0.00583293
0.00175687
0.000224689
0.000601437
0.000109304
0.00244819
0.000215335
0.00583252
0.00173786
0.00583265
0.00583335
0.000188418
0.000907757
0.00186496
7.17474e-05
0.00459701
0.00553226
0.00237579
0.00583342
0.005833
0.00133834
0.00103174
0.0142229
0.00104977
0.00585527
0.00583219
0.00054223
0.000411949
0.000129672
0.00345578
0.000153403
0.00139622
0.00586095
0.000518835
0.00582962
0.0058385
0.00583364
0.00171549
0.0108469
0.000134542
0.000275071
0.00105781
0.000411495
0.0021221
0.00583604
0.00587177
9.58874e-05
0.00583343
0.00583239
0.0001672
0.000987218
0.000105827
0.00349144
0.00583316
0.0022631
0.0019197
0.00583294
0.00211572
0.000156243
0.00261408
0.00583294
0.00584036
0.00583541
0.000368821
0.000307746
7.81665e-05
0.0148588
0.00585697
0.0058388
0.00594969
0.00217179
0.000112599
0.00583251
0.00324132
9.48311e-05
0.000103205
0.00419624
0.00583427
0.00583924
0.000583143
0.0109252
5.79518e-05
0.00917604
0.000592708
0.00538344
0.000353912
0.00859031
0.00583339
0.000460312
0.00585728
0.00938067
0.00126715
0.00135256
0.005833
0.000146934
0.00956507
0.000343827
0.0011601
0.00039455
0.000532691
0.00133579
0.00185876
0.000177924
0.00406125
0.0138961
0.00108793
0.00582928
0.013329
0.000363723
0.000967422
0.000236226
0.00502565
0.00193208
0.00585547
0.0030935
0.0092316
0.000450544
0.000435222
0.000620241
0.000774838
0.00583394
0.00216246
0.00314171
0.00582914
0.000103617
0.000653112
0.00587472
0.000379366
0.0119174
0.00174408
0.000254337
0.00493417
0.00889704
0.0124662
0.0125484
0.0142196
0.0012044
0.0058332
0.000398789
0.000545119
0.00276129
0.00582912
0.000783023
0.00585896
0.00107491
0.00583071
0.00583776
0.00583258
4.56529e-05
0.00583334
0.0155318
0.00892021
0.00431694
0.00544231
0.000562247
0.00134538
0.00590392
0.000247836
0.00459072
0.000375477
0.000362112
0.000628939
0.000953655
0.000225984
0.000295912
0.00590149
0.00162057
0.000267768
0.0112812
0.00583112
0.000463054
0.000930484
0.00404658
0.00225972
0.000373219
7.16077e-05
0.0145096
0.00583389
0.00121828
0.00299005
0.000867346
0.000758109
0.000472319
0.00585477
0.00215478
0.00582766
0.00583897
0.0150832
0.00793224
0.00345973
0.00351273
0.0124051
0.0135406
0.0119569
0.0139438
0.0107942
0.00583242
0.00181398
0.00583124
0.00467231
0.0113472
0.000288442
0.000293289
0.00958682
0.00533491
0.00187735
0.000100363
0.00915669
0.0016261
0.0030216
0.0016815
0.00518296
0.00255507
0.00091424
0.0058359
4.32614e-05
0.00264889
0.000547478
0.00109989
0.00171694
0.00109895
0.00585255
0.00514374
0.00347156
0.000335054
0.00114181
0.00140235
0.00408855
0.00156108
0.00583281
0.000637452
0.000921656
0.000343781
0.000191765
0.000358644
0.00585241
0.00583955
0.00117674
0.000162871
0.00125874
0.000992541
0.00156882
0.00342252
0.00161123
0.0100437
0.0150736
0.0058288
0.00106095
0.0058292
0.0117192
0.00115507
0.00149605
0.000752809
0.000897654
0.0119187
0.000429189
0.000320934
0.00583509
0.00437456
0.00164289
0.00583381
6.22705e-05
0.00141558
0.000234605
0.000108308
0.000107011
0.000159165
0.000487403
0.00205186
0.000391517
0.00587118
0.000102013
0.00583309
0.0058389
0.00583701
0.000569853
0.00143103
0.005854
0.00127993
0.00091169
0.00220622
0.00111744
0.00327145
0.00584077
0.0106467
0.000182925
0.000255288
0.000683179
4.99557e-05
0.00583505
0.00458888
0.000491763
0.000686296
0.00385516
0.00584449
0.00230152
0.000307883
0.00040065
0.00325734
0.0126576
0.00105584
0.000640841
0.014981
0.0125246
0.00585851
0.00109548
9.42058e-05
0.0143538
0.00253056
0.000122721
0.00583615
0.000139786
0.00582935
4.33891e-05
0.000254786
0.00583117
0.0058349
0.00583827
0.00101656
0.00140181
6.23944e-05
0.011419
0.0108716
0.00585221
0.00574001
0.00189491
0.0058328
0.00582936
0.000228406
0.0019313
0.00100842
0.00452032
0.000734549
0.00201621
0.00163314
0.012998
0.00583737
0.00121536
0.0103825
0.000326974
0.0152056
0.00687785
0.000430536
0.00136494
0.00325968
0.000323616
0.00582926
0.00583477
0.00583809
0.00416977
0.0137825
0.00333893
0.00110647
0.00583589
0.00130478
0.00120701
0.000224722
0.00112261
0.00278916
0.00040797
0.00583807
0.00357442
0.0127463
0.00237797
0.00016768
0.00167966
0.000805606
9.82107e-05
0.00583346
0.00142912
0.00122711
0.00793931
0.0137209
0.0149233
0.0093466
0.000757877
0.00451252
0.00344381
0.000575866
0.00605329
0.000761476
7.8656e-05
0.00375337
0.00583068
5.29957e-05
0.0058357
0.00171388
0.00774846
0.0109701
0.00583048
0.00583552
0.00583304
0.00583044
0.0144632
0.00297521
0.0058358
0.000394678
0.0099309
0.00318725
0.00378175
0.00504379
0.00525158
0.00148819
0.000849215
0.0149747
0.000214655
0.00122042
0.013755
0.00308408
0.0106315
0.00365455
0.00444909
0.00588379
0.00583256
0.0015106
0.0149147
0.00121788
0.0149643
0.00585074
0.00584495
0.00583367
0.00130564
0.000585248
0.000215515
0.00769487
0.00219384
0.0150431
0.00985475
0.00583414
0.00107851
0.000520352
0.0017521
0.000621182
0.00583386
0.00717868
0.00932295
0.00583568
0.00330974
0.000124042
0.00136402
0.00202784
0.0146238
0.000656555
0.00583296
0.00338961
0.00221968
0.00583288
0.0132413
0.00126654
0.0058435
0.00583275
0.0148195
0.00585479
0.00583358
0.00799216
0.00583725
0.000257267
0.000190357
0.00060605
0.00272709
0.00185309
0.00409834
0.00582895
0.00131445
0.00628154
0.00106388
0.00583361
0.00123637
0.00140371
0.000232946
0.0152827
0.00119178
0.0030536
0.00584054
0.00305916
0.00583394
0.00566647
0.000504807
0.000141934
0.00101495
0.00582972
0.000138624
0.000541919
0.000751205
0.000239449
0.00583366
0.00582919
0.0143021
0.00908149
0.000492069
0.00583048
0.000607419
0.00583242
0.000272825
0.00437397
0.0149099
0.00109485
0.00583058
0.00628063
0.0131192
0.0058428
0.00583306
0.00800743
0.000165365
0.00583439
0.0145676
0.0155335
0.00583449
0.005837
2.57964e-05
0.0126636
0.00110159
0.0030983
0.00103634
0.00867745
0.00126598
0.00586099
0.00132015
0.00582665
0.0115408
0.00118525
0.000414273
0.0144636
0.00575913
0.00583405
0.00583377
0.00909831
0.0147666
0.00461673
0.00161588
0.00222171
0.00583245
0.00589361
6.32282e-05
0.00957503
0.000933038
0.00114721
0.000282262
0.00122599
0.00583534
0.00583374
0.00583087
0.0155241
0.012134
0.000148601
0.000372078
0.00107301
0.0150443
0.000302643
0.000320951
0.00583367
0.00583356
0.000559327
0.0101241
0.00583273
0.000238674
0.00583327
0.00583529
0.00726049
0.000289006
0.000386115
0.00586144
0.00584329
0.0122404
0.000237094
0.00128821
0.001398
0.000182901
0.0102863
0.00278484
0.000334296
0.00959084
0.000148293
0.00583372
0.000584144
0.0010488
0.00583106
0.00583637
0.0117571
0.00135187
0.0101485
0.00101114
0.001304
0.00671234
0.00111144
0.000735993
0.00583245
0.00040964
0.00465488
0.000355156
0.00342222
0.0124951
0.0058374
0.00357436
0.000461461
0.000951433
0.00101762
0.00583805
0.0046438
0.0154232
0.000547985
0.000854724
0.000543907
6.2751e-05
0.000450259
0.000583453
0.000298453
0.0108413
0.00902891
0.00915376
0.00583102
0.00585075
0.00583459
6.38742e-05
0.000586713
0.00583078
0.000375348
0.00964005
0.008824
0.00583619
0.0103012
0.00169589
0.00110658
0.000626422
0.00583394
0.00583056
0.000157875
0.000431185
0.000480727
0.000674454
0.00583398
0.0049924
0.0140991
0.00583304
0.00111976
0.00583405
0.00583366
0.000865716
0.00514614
0.000218552
0.00583252
0.00117441
0.00089122
0.0152147
9.66111e-05
0.0103183
0.000444663
0.0131369
0.00155743
0.00583356
0.00583261
0.00583772
0.000141144
0.000378115
0.00583977
0.000102383
0.000858088
0.00219114
0.000154777
0.00583162
0.00583403
0.00197367
0.00145965
0.0112129
0.0105926
0.000380259
0.00935833
0.000748997
0.00489175
0.000101667
0.00583692
0.00583559
0.000449373
0.00140125
0.00163054
0.00027144
0.00584466
0.00584172
0.000793669
0.0105101
0.00409735
0.00159947
0.011699
0.000602824
9.16956e-05
0.0044394
0.0101378
0.00583319
0.000566268
0.015483
0.00667688
0.0013912
0.000610492
0.00360461
0.00130129
0.00413194
0.0104192
0.00958389
0.00123768
0.00583689
0.00103478
0.00329397
0.0039842
0.00971368
0.00185376
0.000108707
0.00587235
0.00073428
0.000567436
0.000777044
0.00583555
0.000315809
0.00339496
0.00360101
0.0012397
0.00092573
0.000994747
0.0100707
0.00580037
0.00172188
0.00582993
0.00139819
0.0058291
0.00583773
0.0132524
0.0109847
0.0148949
9.60978e-05
0.0011031
0.00919372
0.000604476
0.000110617
0.0058336
0.00583274
0.00131721
0.000365867
0.000304177
0.0141435
0.00482287
0.00188376
0.00584294
0.000696061
0.00584664
0.000302351
0.00730923
0.00948671
0.011594
0.00440975
0.00104801
0.0134149
0.00132979
0.00584289
0.00567731
7.98286e-05
0.000536667
0.00583208
0.0118155
0.00583344
5.10463e-05
0.000316544
0.010129
0.00245172
0.000321613
0.0106874
0.000692972
0.00266583
0.0121758
0.0058506
0.00582916
0.00132987
0.00583078
0.0111418
0.0120001
0.00105736
0.00348193
0.00267277
0.00132962
0.000142128
0.00041589
0.000296645
0.00128194
0.0058288
0.00583386
0.00931947
0.000540564
0.00520963
0.00590439
0.00073507
0.000246515
0.00583204
0.0058423
0.00123844
0.00319018
0.00584231
0.00107154
0.000221249
0.00596286
0.00140126
0.000101754
0.0107156
0.0143417
0.00146513
0.000189368
0.000649492
0.000609103
0.00583068
0.00100278
0.0109545
0.00189549
0.0115196
0.000320159
0.00583352
0.00334179
0.000338771
0.00583615
0.00340681
0.0151454
0.000353729
0.00583719
0.00748223
0.00953318
0.0058356
0.00583177
0.0012
0.00312848
0.000517271
0.000550861
0.000686217
0.00110245
0.000802941
0.00525218
0.000199043
0.00583097
0.0058341
0.00963367
0.000141403
6.36744e-05
0.000174134
0.0154429
0.00584002
0.00105971
0.00312232
0.00583523
0.000999743
0.00111654
0.00147902
0.00583161
0.00583684
0.0153907
0.0016084
0.00136399
0.0104479
0.0127107
0.000201531
0.00339047
0.000318726
0.00582916
0.00204198
0.00218277
0.0100128
0.000533111
0.00113717
0.000938675
0.000700651
0.000346325
0.00113198
0.0155273
0.00120778
0.00583794
0.0127142
0.00111299
0.00145595
0.00583247
0.00583766
0.0105628
0.000457376
0.00583501
0.000601853
0.000771001
0.000111426
0.0109224
0.000804905
0.00583173
0.000320802
0.0102228
0.00803904
0.00134528
0.000536274
0.00195283
0.00305665
0.00583328
0.00764946
0.00585092
0.00583693
0.000457595
0.00077086
0.00232985
0.00583043
0.00582958
0.00905807
0.000458499
0.00586071
0.00583502
0.00116239
0.00122743
0.000149574
0.00585367
0.0115657
0.000969392
0.00595039
0.0115877
0.00582971
0.00145777
0.00583493
0.0148188
6.70141e-05
0.000869997
0.00349417
9.3456e-05
0.00589514
0.0144719
0.00516043
0.00583887
0.00153704
0.00167147
0.0128182
0.000224296
9.44744e-05
0.00583359
0.000265509
0.00133902
0.0104105
0.00157275
0.00583268
0.0109786
9.19557e-05
0.00157094
0.00584107
3.68574e-05
0.00105284
0.00322349
0.000885565
0.00583329
0.00158926
0.00014936
0.0139552
0.00808262
0.00047043
0.00587081
0.00346555
0.00266653
0.000770582
0.00312613
0.00168421
0.00187008
0.00118477
0.00103065
0.0150572
0.00301583
0.00636965
0.00141019
0.00924816
0.0020846
0.000333685
0.00342624
0.000210127
0.00585914
0.000205281
0.00586074
0.000185177
0.00854546
0.000175912
0.00583414
0.00150541
0.000473389
0.00584382
0.00613339
0.00583409
0.000277397
0.00281415
0.00916215
0.00585352
0.00583286
0.00140286
0.00583271
0.00586546
0.000451354
0.000228103
0.0153716
0.000529658
0.000190137
0.00583336
0.0123986
0.00227637
0.00505956
0.0125837
0.00583584
0.00295718
0.00253657
0.00583167
0.00633409
0.00552913
0.000399895
0.000596837
0.00430109
0.00108667
0.000318536
0.00428307
0.00305497
0.00583012
0.00133449
0.00237804
0.00583343
0.000806154
0.000396989
0.00054518
0.000574008
0.00583103
0.00584662
0.00132297
0.00132508
0.00864622
0.0091519
0.00583838
0.000940535
0.00583698
0.00583677
0.00223361
0.0151665
0.0137364
0.00472757
0.00182671
0.000551992
0.000279196
0.000980274
0.000469464
0.0137873
0.0154081
0.000200001
0.00109269
0.00154212
0.0058424
0.00027474
0.00584623
0.0058362
7.52759e-05
0.00141239
0.00104378
0.0155513
0.00584186