/*--------------------------------*- C++ -*----------------------------------*\
| =========                 |                                                 |
| \\      /  F ield         | OpenFOAM: The Open Source CFD Toolbox           |
|  \\    /   O peration     | Version:  v2012                                 |
|   \\  /    A nd           | Website:  www.openfoam.com                      |
|    \\/     M anipulation  |                                                 |
\*---------------------------------------------------------------------------*/
FoamFile
{
    version     2.0;
    format      ascii;
    class       surfaceScalarField;
    location    "200";
    object      phi_0;
}
// * * * * * * * * * * * * * * * * * * * * * * * * * * * * * * * * * * * * * //

dimensions      [0 3 -1 0 0 0 0];
oriented        oriented;


internalField   nonuniform List<scalar> 
55428
(
0.141728
0.0626503
-0.204378
-0.000696888
0.00202948
-0.00133259
0.273343
-0.169352
-0.103991
-0.00983547
-0.0476931
0.0575285
-0.00348106
0.00301663
0.000464426
0.118043
-0.236808
0.118764
-0.0402593
0.0903454
-0.0500861
-0.095972
-0.0382742
0.134246
-0.0673884
0.0126784
0.05471
0.0397709
0.014109
-0.0538798
-0.244674
0.0754685
0.169206
-0.11603
-0.207233
0.323263
0.0745376
-0.125447
0.0509091
0.349328
-0.360489
0.0111607
-0.0247574
0.00494919
0.0198082
0.191942
-0.0640469
-0.127895
-0.126245
0.0109776
0.115267
-0.0580818
0.0948944
-0.0368126
0.0170682
-0.0208994
0.00383123
0.0615978
-0.0455842
-0.0160135
-0.0930075
-0.045208
0.138215
-0.0546699
0.196398
0.00757731
0.021043
-0.0286203
-0.168659
0.139835
0.0288238
-0.0565593
0.117895
-0.0613354
0.0620592
0.129883
0.0544174
-0.10247
0.0480525
-0.0813942
-0.00885162
0.0902459
0.0291517
0.00385118
-0.0330029
0.000964223
0.00112558
-0.0020898
0.00793139
-0.0215453
0.013614
0.0777436
-0.25423
0.176487
0.0276509
0.0539844
-0.0816353
0.0636813
-0.0126873
-0.050994
0.0331401
0.0438642
-0.0770043
0.101745
-0.0704882
-0.0312571
-0.328961
0.245578
0.0833832
-0.110234
-0.058425
-0.163338
0.164202
-0.000864641
-0.0658436
-0.101073
0.166917
0.0610763
-0.0154393
-0.045637
-0.000122022
0.00244851
-0.00232648
0.110128
-0.047012
-0.0631165
-0.0106214
0.0599235
-0.0493021
0.136558
0.108187
-0.244745
-0.0464151
-0.0245257
0.0709407
0.00166064
-0.00245788
0.000797244
-0.0553326
0.0707719
-0.0154393
0.135244
0.1381
-0.00254112
-0.000939939
-0.15982
0.107286
0.0525342
-0.178209
0.0561774
0.122031
0.0695356
0.0489765
-0.118512
0.0208704
-0.0681845
0.0473141
-0.130553
-0.142233
0.272787
0.125756
0.0484106
-0.174167
0.0604581
-0.0206873
-0.234351
-0.0946097
0.00612344
-0.00607283
-5.06111e-05
-0.0999716
-0.184313
0.284285
0.00642553
-0.00030209
0.0861475
0.0155979
-0.344529
0.0359696
-0.00137943
0.00145645
-7.70196e-05
0.0755556
0.0436266
-0.119182
-0.0509134
0.112718
-0.0618046
-0.164934
-0.024454
0.189388
-0.0553948
0.0791311
-0.0237363
-0.0281644
-0.00935879
0.0375232
-0.283285
-0.0612443
0.178291
-0.308844
-0.116333
-0.0261374
0.142471
0.0815123
-0.138997
0.0574844
-0.120668
0.238061
-0.117394
0.071288
0.0932175
-0.164506
0.0593697
0.0918903
-0.15126
0.00351302
0.00729454
-0.0108076
0.0811755
-0.111999
0.0308236
-0.00189764
0.00292229
-0.00102464
0.0752681
-0.137734
0.0624659
-0.354027
0.355175
-0.00114847
0.105729
-0.0657164
-0.0400126
-0.229747
0.109079
0.0123649
0.0302448
-0.0426097
-0.0618853
0.0631816
-0.00129632
-0.125791
-0.000453906
-0.0105371
-0.00253963
0.0130768
-0.00126962
0.00223385
0.00086235
-0.0256197
0.282503
-0.20476
-0.00419758
0.00771059
0.0791983
-0.0306002
-0.048598
0.059215
-0.229983
0.139611
0.0903721
-0.19955
0.124691
0.0748588
0.0561587
-0.00272639
0.000828743
-0.12887
-0.14044
0.26931
0.0481268
-0.0579623
-0.0191118
0.00150488
0.0176069
-0.104331
0.0573193
0.0748762
-0.0351855
-0.0396907
0.00208056
-0.00774824
0.00566769
-0.0193797
0.00972315
0.00965657
-0.0629497
0.230465
-0.167515
0.0879486
0.0587574
-0.146706
0.00163603
-0.00407687
0.00244083
-0.197736
0.340193
-0.142456
0.102022
-0.266956
-0.0155955
0.0236034
-0.00800788
-0.0146289
0.0228583
-0.00822947
-0.0179797
-0.00251175
0.0204915
-0.177729
0.0757538
0.101975
-0.271548
0.230968
0.0405806
-0.224171
0.17749
0.0466808
-0.0966427
0.246609
-0.149967
0.00512636
0.0760491
-0.0438467
-0.119491
-0.16601
0.100167
-0.0517909
-0.0834805
0.135271
-0.106175
0.214956
-0.108781
0.00820215
0.00119201
-0.00939417
-0.111388
-0.126695
0.238082
-0.176006
-0.271061
0.18509
0.0859711
-0.0245129
0.0218143
0.00269856
-0.222632
-0.0489158
0.159908
-0.275654
0.115746
0.00728361
0.0450263
-0.0523099
0.0133507
0.0340224
-0.0473731
0.29786
-0.137951
-0.00128696
0.000433524
0.00085344
0.0349526
0.102841
-0.137793
-0.0421726
0.0951144
-0.0529418
0.00529423
-0.00321368
-0.230634
0.1896
0.0410339
-0.0329402
0.0849433
-0.0520032
0.020282
-0.0756767
-0.0750949
0.0286798
0.0734771
0.0511836
-0.124661
0.143485
-0.118988
-0.0244971
0.0313117
-0.112706
-0.0141537
-0.0532347
0.0757221
-0.135996
-0.0635538
-0.098463
0.157833
-0.0170133
0.0135817
0.0034316
0.15238
-0.0983146
-0.0540657
-0.07967
0.0441218
0.0355482
0.203514
-0.291521
0.0880066
-0.143059
-0.0533654
0.196424
-0.0859155
0.0164986
0.069417
0.0476875
0.0247699
-0.0724574
0.215421
0.114489
-0.32991
0.00439462
0.00203091
0.169364
-0.295975
0.126611
0.00229042
-0.000122192
-0.00216822
-0.0939479
-0.150726
0.00500104
-0.00336501
0.099758
-0.0626392
-0.0371188
-0.0488551
0.0888107
-0.0399556
0.152899
0.037949
-0.190848
-0.00852868
0.00698702
0.00154166
-0.00269294
0.0109286
-0.00823569
-0.00101573
-0.0848998
0.0854679
-0.137259
-0.0204873
0.0332782
-0.0127909
-0.03248
0.0821615
-0.0496816
0.000463372
0.0160431
-0.0165065
-0.075083
0.0332753
0.0418078
-0.0538568
-0.176777
0.0108739
-0.0135669
0.00757851
0.14532
-0.0599072
0.127471
-0.0675636
0.00944887
-0.00124672
-0.078329
0.0103167
0.0680123
-0.218631
0.13734
0.0812909
0.0670607
0.0449473
-0.112008
0.0611475
-0.0855913
0.0244438
-0.109427
-0.0333978
0.142825
-0.0685152
0.0578938
0.221614
-0.304641
0.0830275
0.24733
-0.0257164
-0.239123
0.136176
0.102947
0.0127887
-0.00865284
-0.00413583
-0.108948
0.266582
-0.157634
-0.107811
-0.123653
0.0666061
0.0570473
-0.0188377
0.0264151
0.0685096
-0.0689221
0.000412505
0.222967
0.081165
-0.304132
-0.0887987
0.0771184
0.0116804
-0.288638
0.180874
0.107764
0.131975
-0.187727
0.0557521
-0.0696521
0.0287495
0.0409027
0.133447
-0.0984942
0.188956
-0.110823
-0.0781325
0.110345
-0.0506377
-0.0597075
-0.0192081
0.00285911
0.016349
-0.0260057
0.013375
0.0126307
-0.0402149
0.0675841
-0.0273692
-0.256216
0.124461
0.131754
0.0908826
-0.233942
-0.383452
0.232235
0.151216
0.0126817
-0.00343945
-0.00924224
0.0362531
-0.0916768
0.0554236
0.0368115
-0.0770708
-0.168284
0.108429
0.0598547
-0.196031
0.0898565
-0.0121032
0.00156608
-0.166083
-0.00549788
0.171581
0.0132775
-0.0128141
-0.161266
-0.09495
-0.0204224
0.0944948
-0.0740724
-0.00136987
8.29064e-05
0.0195771
-0.00449149
-0.0150856
-0.0496953
-0.0299747
-0.0731709
0.0214045
0.0517664
0.0533535
0.0103278
0.344189
-0.171891
-0.172297
0.00728378
-0.00288916
-0.285503
0.169472
0.112272
-0.194305
-0.0548839
0.0476967
0.00718716
-0.0108456
0.00863265
0.00221297
0.105919
0.100631
-0.20655
-0.00294698
0.00350558
-0.000558604
-0.142877
0.184061
-0.0411831
-0.0227634
0.0952214
-0.072458
0.00158512
-0.00686751
0.00528239
-0.0385715
-0.0657598
-0.180462
0.00606172
0.174401
0.19139
-0.291361
0.00998108
0.000866753
-0.0108478
-0.101898
0.0809181
0.0209795
0.0490471
0.0335547
-0.0826017
0.0453463
-0.0566177
0.0112714
-0.00078403
-0.00669859
0.00748262
0.229923
0.0294075
-0.25933
0.229278
-0.117983
-0.111295
-0.0886313
0.0734739
0.0151574
-0.280148
0.1712
0.0101721
0.0025096
-0.088105
0.170157
-0.0820524
-0.10094
0.209666
-0.108726
-0.00431772
0.0388849
-0.0345672
0.156682
0.119521
-0.276203
-0.00332434
0.000783224
-0.0517513
0.0794022
-0.0364119
0.0829995
-0.0465876
-0.115232
0.230323
-0.115091
-0.098598
0.0584802
0.0401178
0.0101425
-0.190605
0.109308
-0.0502844
-0.059024
0.137677
-0.0803148
-0.0573622
-0.332458
0.18799
0.144468
-0.0667608
-0.0220379
-0.117549
-0.143309
0.260858
-0.093658
0.0607178
0.148446
0.13252
-0.280966
-0.00231344
-0.0010109
-0.0516949
0.124879
-0.0731844
-0.0644293
0.267944
-0.0132405
0.0211719
-0.0251108
-0.104401
0.129511
0.131502
-0.258186
0.126684
-0.200868
-0.150148
0.351016
0.0640468
-0.102618
-0.00353951
-0.00730611
-0.33071
0.0963582
0.00930743
-0.0377717
0.0284643
-0.00136008
-0.0145298
0.0158899
0.0281504
0.0252032
0.043249
0.0476438
-0.0908928
-0.00653163
0.00415731
0.00237431
0.155891
-0.266502
0.110611
0.141122
-0.249446
0.108324
-0.000699862
0.000102485
0.000597377
0.116464
-0.0509165
-0.0655479
0.0312509
0.112234
-0.00256597
0.0317177
-0.15076
0.0102309
0.140529
-0.0406825
0.0689284
-0.0282459
0.00703551
-0.143016
0.117905
-0.100227
0.149656
-0.0494295
-0.0455988
-0.129231
0.174829
-0.176897
-0.0769857
0.113797
-0.194095
-0.138363
0.153558
-0.180745
0.0271868
0.0483742
-0.0923866
0.0440123
-0.0405509
-0.014333
0.1063
-0.0499599
-0.0563397
-0.00211249
-0.00441914
-0.105395
-0.105164
0.210559
-0.233597
0.112346
0.121251
0.00924916
0.0850268
-0.123689
0.0386618
-0.233917
-0.0967927
-0.000435969
0.0418184
0.0173326
-0.0591511
0.0887023
0.0386128
-0.127315
-0.0694048
0.062494
0.00691081
0.133819
-0.229709
0.0958901
0.302821
-0.0979285
-0.204892
0.233524
0.149033
0.059367
-0.0514926
-0.00787433
-0.122967
0.0630603
-0.0687228
0.292693
-0.223971
0.00775076
-0.0111277
0.00337692
-0.0637271
-0.0381704
0.0566249
0.0182514
-0.00715048
0.00636645
-0.006615
-0.00297288
0.00958787
0.0808477
0.0248813
0.0411643
-0.0338807
-0.044412
0.0791989
-0.0347869
0.0801884
0.206361
0.0535867
0.019925
-0.0735118
0.0591504
-0.031
-0.0903986
0.201718
-0.111319
0.00716804
-0.0142347
0.00706666
0.0693658
-0.0154511
-0.0539148
0.0389852
-0.086707
0.0477218
-0.0147224
-0.00448571
-0.246145
-0.0283263
0.274471
-0.00391812
0.0183888
-0.0144707
-0.0301461
0.0854812
-0.0553351
-0.115279
0.0911511
0.024128
-0.0996781
0.199512
-0.0998334
0.0520221
-0.0370852
-0.0149369
0.067922
-0.0202346
-0.000748104
4.82425e-05
0.0378538
0.014768
-0.0526218
0.0378364
0.00157557
-0.039412
0.0907852
0.0599567
-0.150742
-0.0017126
0.000333171
-0.0552075
0.126725
-0.0715176
-0.0591688
-0.010236
-0.149939
-0.0742313
-0.0711838
0.19694
-0.00603157
0.00494372
0.00108785
0.021337
-0.0615518
-0.0222883
-0.0527947
-0.275805
0.207083
-0.139825
0.24524
-0.105415
-0.164532
0.281875
-0.117343
0.32005
-0.160106
-0.159945
-0.00782737
0.0226679
-0.0148406
-0.13605
-0.0585372
0.194587
-0.24389
0.0939059
0.149984
-0.104799
0.0577488
0.0470497
-0.0482253
0.0439076
-0.157065
-0.107727
0.264793
-0.00488185
0.0216266
-0.0167447
0.0170698
0.061918
-0.0789878
-0.155674
0.0597023
-0.0469261
0.102328
-0.055402
-0.00268186
0.00337314
-0.000691279
-0.0297581
0.0858393
-0.0560812
-0.00103053
0.058436
-0.107532
0.0490964
0.0896107
-0.0333849
-0.0562258
0.160359
0.04169
-0.202049
-0.216074
0.34146
-0.125386
-0.0333321
-0.0500159
0.083348
0.0647457
-0.0851681
-0.13954
0.0843327
-0.0521541
-0.0418276
0.100264
-0.0204378
0.0622563
0.118041
0.0343391
-0.0600013
0.0898469
-0.0298456
-0.0686322
0.0322203
0.0684778
3.17738e-05
-0.0307636
0.0819202
-0.0511566
-0.00327626
0.000594393
-0.0460559
0.020691
0.0253649
-0.0469209
0.0718807
-0.0249598
-0.0115748
0.0368573
-0.0252826
0.0321034
-0.081511
0.0494076
0.00853644
-0.0855222
0.0155253
-0.021485
0.00595963
0.0719198
0.0384255
-0.0785422
0.0557788
-0.036631
0.0856781
-0.00249926
0.056086
0.195711
-0.0421532
-0.0771656
0.0628102
0.0143554
0.134425
-0.0854913
-0.0489336
0.0793387
0.0813177
0.00836916
-0.0896869
0.162802
-0.280372
0.11757
-0.0501008
0.0127889
0.0373118
-0.00777605
0.0823137
-0.440975
0.319321
0.121654
-0.0230627
-0.0501082
-0.201595
-0.135264
0.336859
-0.00896069
0.00807005
0.00089064
0.156092
-0.0943393
-0.0617524
0.114338
0.100617
0.114837
-0.0335192
0.0136898
-0.259835
-0.140309
0.32415
-0.183841
0.0018796
0.00113703
0.159946
-0.0691607
0.140275
-0.341869
-0.145309
-0.0431238
0.188433
0.0348177
0.0189333
-0.053751
-0.00667204
5.70406e-05
-0.193229
0.14763
-0.202732
0.103054
0.387925
-0.200154
-0.187771
-0.0493244
0.102257
-0.0529326
-0.111834
-0.159226
0.329148
-0.22257
-0.106579
-0.201496
-0.113364
0.31486
-0.00703392
-0.00192677
0.0276361
-0.074557
-0.00852828
0.0240536
0.15032
-0.249044
0.0987243
0.0952312
-0.0746197
0.051557
-0.0114216
0.00276871
0.129689
0.24291
-0.372599
-0.0612239
0.135631
-0.0744067
0.131881
0.0889708
-0.220851
0.0484347
-0.0459
-0.00253475
0.207122
-0.362571
0.155449
0.0630657
0.093026
0.0564908
-0.0797799
0.023289
-0.129995
-0.00586259
0.135858
0.0302732
-0.0209658
-0.285977
0.0851093
-0.0686681
0.0279856
0.121462
0.0424613
-0.163923
-0.212729
0.177653
0.035076
0.102889
-0.162286
0.0593971
-0.121083
-0.11804
-0.00283271
0.00112011
0.0955984
0.0359302
-0.131529
-0.207866
0.132785
0.0750807
0.00435242
-0.00721794
0.00286552
-0.0377465
0.0261718
0.248438
-0.383917
0.135478
-0.00853144
0.0156995
0.142077
-0.148932
0.00685544
0.0538125
-0.106999
0.0531868
0.0756879
-0.0560314
-0.0196564
-0.256529
0.159886
0.00317161
-0.001292
-0.118311
0.265658
-0.147347
0.0161182
-0.0260929
0.00997471
-0.189703
-0.0989353
0.383156
-0.212344
-0.170812
0.15946
-0.108392
-0.0510673
-0.273832
0.1093
0.000351011
0.00110544
-0.09657
0.12149
-0.0249196
0.384158
-0.170535
-0.213623
-0.00823013
-0.0342774
0.0425075
0.0574371
0.021694
-0.275541
0.291241
-0.0156994
-0.0697099
0.0474215
-0.0138374
-0.0343879
-0.0546128
-0.121286
0.175899
0.110273
-0.216517
0.106244
-0.106154
0.0568293
-0.00856244
-0.00285912
0.00153953
-0.0206513
0.00249059
0.0550239
-0.0575145
-0.050616
0.0325531
0.0180629
-0.00594619
0.016097
-0.0101508
-0.0946348
0.0477087
-0.00701222
0.0109335
-0.00392127
-0.102939
-0.0568814
0.241316
-0.123273
-0.117077
0.26711
-0.150033
0.0557835
-0.183569
0.127786
-0.00344298
0.0143169
-0.0459588
0.0377287
-0.105044
-0.12485
0.229895
0.0817201
0.0347443
-0.00234818
0.183658
-0.0713865
0.00668955
-0.00510443
-0.0566152
0.0887185
0.0829863
-0.189244
0.106258
-0.0536539
-0.0511446
-0.0494375
-0.163291
-0.00848168
-0.0453081
0.0537898
-0.0838018
0.0668208
0.016981
0.0641194
-0.115499
-0.0923674
0.125507
0.0999021
-0.225409
0.026069
-0.073021
0.046952
-0.00799078
-0.0005379
-0.141773
0.0764965
0.0652767
-0.331395
0.27234
0.059055
0.16376
-0.107976
0.0165676
-0.037087
0.0205194
-0.0339686
-0.0780305
0.00188505
-0.00200707
0.0429041
0.00936728
-0.0522714
-0.0149339
0.0527877
0.0141253
-0.0273658
0.0194751
-0.14947
-0.00377662
0.00812903
0.011279
-0.342674
-0.0188469
0.0174868
0.0930039
-0.23425
0.141247
-0.0331432
-0.0232623
0.0564055
-0.017736
0.00394568
0.0137903
0.00252869
-0.0990987
-0.0879995
0.347396
0.000813608
-0.00590124
0.00508763
0.0817309
-0.143632
0.0619014
-0.0843612
0.0715279
0.0128333
-0.0511985
0.0373611
0.0350923
0.0181225
-0.0532148
-0.201235
0.100295
0.146676
-0.0870162
-0.0596593
-0.0779477
0.0478015
0.106576
-0.0573095
0.0241663
-0.278631
-0.0662278
0.344859
0.0733086
-0.0168178
0.301892
-0.210232
-0.0916597
0.0445625
-0.0365688
-0.00799368
0.229099
-0.114373
-0.114726
-0.299068
0.104973
-0.0112984
-0.0080813
0.034067
-0.288297
-0.256017
0.193068
0.0970775
0.0918783
0.124412
-0.061992
-0.0624204
-0.29459
0.0159588
-0.195356
-0.245619
0.0556878
-0.0178514
-0.0699094
-0.0542784
0.124188
0.00914513
-0.00889509
-0.000250045
0.188966
0.0850943
-0.27406
0.11363
0.0489365
-0.162567
-0.0645234
0.105978
-0.0414544
0.0653145
-0.0176707
-0.124635
0.265967
-0.141333
-0.339968
0.181526
0.158442
0.0338359
0.0903994
-0.124235
-0.02908
0.0878447
-0.0587648
0.00261893
-0.00173483
-0.000884094
0.082626
-0.0501733
-0.0324527
-0.181716
0.0156335
-0.0702907
-0.107438
-0.0445533
-0.0214744
0.0660277
-0.0117152
-0.0142905
-0.303868
-0.203587
0.259015
-0.0554277
0.00107203
-0.0074567
0.00638467
0.0120775
-0.0146171
-0.0158608
0.0319789
0.00302466
-0.00195932
-0.00106534
0.148375
-0.00629882
0.101196
-0.0649428
-0.146966
0.264088
-0.117122
0.00935851
-0.000213379
-0.044616
0.0619487
0.0761266
-0.134923
0.0587961
-0.068867
-0.0729062
-0.0153396
0.0501573
0.017063
0.0725477
-0.0987517
-0.110229
0.208981
-0.0494898
0.0708942
0.000711218
0.0172478
-0.0221297
-0.199149
0.10875
0.0412137
-0.105737
0.032282
0.056766
-0.0890479
-0.015639
0.150498
-0.134859
0.0921625
0.0720397
-0.10181
-0.0942212
0.0103278
-0.0030333
0.0383026
-0.0277082
-0.0105943
0.227108
-0.116835
-0.0273945
0.0195672
-0.00718759
0.0319469
-0.0247593
-0.405731
0.281922
0.123808
-0.0503521
0.0132503
0.0371018
-0.0794619
-0.169862
0.249323
0.0478811
-0.0812133
-0.143467
0.0658813
0.0775852
-0.140465
0.282245
-0.14178
-0.00732302
0.0587443
-0.0514213
0.0138581
-0.0213904
0.00753236
-0.135619
0.0811738
0.054445
-0.0560868
0.0095032
0.0465836
-0.21692
0.137458
-0.0792048
0.142618
-0.063413
-0.0652939
0.141421
-0.105093
0.051439
-0.030021
0.111752
0.0460384
0.0418087
-0.0878471
-0.305955
0.208922
0.0970337
-0.0302523
-0.199744
-0.183708
-0.0160578
0.0126148
0.0443255
-0.0909566
0.0466311
0.110503
0.116783
-0.227286
0.069646
-0.0574172
-0.0122288
0.0844728
-0.30166
0.217187
-0.00922791
0.00682615
0.00240176
-0.00592492
0.00404582
0.0018791
0.177457
0.17533
-0.352788
-0.00177036
0.00107348
0.285861
-0.0665298
-0.219331
-0.172409
0.0270996
-0.0986025
0.132438
-0.120899
0.298356
-0.0501565
0.0818961
-0.0317396
0.0853702
0.0613053
0.253447
-0.142944
-0.0961313
0.104668
-0.27484
0.0686958
0.206145
-0.0998858
0.0836548
0.0162311
-0.0392961
0.0321085
0.270943
-0.122497
-0.0677547
0.165667
-0.0979126
0.0213786
-0.00431041
-0.197443
0.395865
-0.198423
0.0632916
0.0818707
-0.0244336
-0.0534173
-0.00871312
0.0621304
-0.0747306
0.0464647
0.0282659
0.0425741
-0.0733599
0.0307858
0.145264
-0.0765696
-0.0686943
-0.113355
-0.116627
-0.112796
0.0717649
0.0410313
-0.0173049
0.060209
-0.0044493
0.00575935
-0.00131005
0.016519
0.0064057
-0.00557426
-0.000831433
-0.0517119
0.281635
-0.0723378
0.0261379
0.0461998
0.156599
-0.0929169
-0.0636825
-0.049291
0.125481
-0.0761897
-0.0111696
0.0252949
-0.0481191
0.067874
-0.0197549
-0.0598476
0.0734572
-0.0136096
0.252051
-0.0953692
0.0198029
0.0908474
0.00426699
-0.0164522
0.0515445
-0.0118032
-0.0490793
0.0608825
0.0716658
-0.0919592
0.0202934
0.00391347
-0.000127139
-0.00378633
-0.00461463
0.126076
-0.00600568
0.00376584
0.00223985
-0.0429204
0.0527928
-0.00987235
-0.130889
0.0815978
-0.0715067
0.13758
-0.0660735
0.0406179
0.0591401
0.0548969
0.0300464
-0.067527
0.12966
-0.0621326
-0.220479
-0.0602134
0.280692
-0.0385122
0.0843225
-0.0458102
-0.175038
-0.130917
0.0326101
0.0772023
-0.0603623
-0.01684
-0.213656
-0.0611847
0.0741105
-0.0315364
-9.87066e-05
-0.000543429
0.000642135
-0.290356
0.155053
0.135303
0.296587
-0.107622
0.0169497
-0.00518472
-0.011765
0.086275
0.0717506
-0.158026
0.241776
-0.168758
-0.0730184
-0.0745161
0.00588388
-0.00186273
-0.00203675
0.00389948
0.0092168
-0.00808646
-0.00113034
-0.0933402
-0.0501264
-0.0993005
-0.207814
0.307114
0.00623046
-0.00561205
-0.000618411
-0.0476541
-0.0363413
0.0839954
-0.0113212
-0.0505641
0.102991
-0.0985072
-0.0371116
-0.0438872
0.0899256
0.0398643
0.0912389
-0.131103
-0.04531
0.071379
0.170501
0.00245596
-0.00431869
-0.162965
0.0748599
-0.0353327
0.0536607
-0.105746
0.00275164
0.102995
-0.0589029
0.0504212
-0.14227
0.253212
-0.110942
0.00332845
0.028666
-0.0319945
0.103308
-0.221949
0.135837
0.0861116
0.0596418
-0.0436491
-0.0159926
-0.153221
0.137581
0.00235343
-0.00455703
0.0022036
-0.215349
0.00838
0.206969
0.0386985
0.0133237
0.0482169
-0.184267
0.0513725
-0.266721
-0.0529996
0.0595179
-0.00651824
0.312734
0.036594
-0.00661143
0.00241385
0.191231
0.0505446
-0.0762516
0.0471717
-0.161124
-0.137944
-0.21122
0.340909
-0.048098
-0.019696
0.0677939
-0.000694206
0.0398337
-0.0391395
-0.0310818
0.0421675
-0.0110857
0.00952457
-0.00653863
-0.00298594
-0.00218209
0.00453552
-0.0331699
-0.0413861
-0.0409921
0.0823782
-0.0949803
-0.0998683
0.194849
0.165912
-0.0276997
-0.138213
0.00814588
-0.00707385
-0.0076269
-0.189943
0.122188
-0.00438906
0.00204089
0.00592707
-0.00488742
-0.00103965
-0.0391729
-0.0686381
-0.039356
0.084034
-0.044678
0.0585868
0.058805
-0.117392
0.0157582
0.005081
-0.0208392
0.252811
-0.111689
0.030659
-0.0887409
0.0062354
-4.93869e-06
0.0134611
0.00653304
-0.0618656
0.0220979
-0.0063397
0.155702
-0.0420716
0.0591773
-0.124053
0.064876
-0.272447
0.122102
0.150345
0.0287577
-0.0121901
-0.00133485
-0.000891086
0.00222594
0.0554931
-0.25908
-0.0463591
0.0140067
0.0323524
-0.0114097
0.0211996
-0.00978987
-0.108614
0.0569194
-0.00184837
-0.114552
0.0440641
-0.000634682
0.000535976
0.189619
-0.00503588
-0.184583
-0.0579394
-0.0165767
-0.0291928
0.0415577
0.0666121
-0.0209123
-0.0456999
0.0629182
-0.232748
0.181683
0.0510648
-0.00133595
0.000967609
0.000368338
0.0753424
-0.0422023
0.0947969
-0.0586714
-0.0361255
-0.311
0.0932846
0.217715
0.0357173
-0.0845725
-0.309056
0.209755
-0.00998709
0.0553334
-0.0149959
0.103698
0.170161
-0.12588
-0.0442814
0.0891295
-0.158986
0.0698569
0.116984
-0.179081
0.0620972
0.140241
-0.0329213
-0.107319
-0.0703387
-0.0295472
-0.0646448
-0.0590438
-0.0980905
0.15543
-0.0573391
0.0750603
-0.0120599
-0.0630004
-0.0738816
0.133359
-0.0594771
-0.0345473
0.0282338
0.0063135
-0.0444462
0.0125735
0.0318727
0.234812
-0.140906
-0.0573446
-0.106204
0.163549
-0.0310659
0.14805
0.221375
0.122814
0.00249065
-0.0206436
0.00601476
0.100397
-0.05963
-0.0407673
-0.16678
0.172842
-0.073355
-0.0394412
0.127749
-0.219494
0.0917445
-0.147315
0.0712317
0.0760832
0.00195467
-0.00115846
-0.000796209
0.300515
-0.0488708
0.101508
-0.0526375
-0.0903885
0.0326266
0.0577619
0.219031
-0.107253
0.120372
-0.226495
0.106123
-0.233271
0.128226
0.151827
0.0140857
-0.0683634
0.0149461
0.146793
-0.177859
-0.0511711
0.120707
-0.0547167
0.113303
-0.0407261
0.283636
-0.0654987
-0.167249
0.011053
-0.0169992
-0.0164936
-0.00505171
0.399506
-0.192152
-0.207354
-0.161449
-0.0971476
0.258597
0.236951
-0.143947
-0.0297898
0.108379
-0.0785892
0.112196
-0.0632195
-0.0123237
-0.00541227
-0.0901248
0.0301236
0.138241
-0.0626858
0.128903
0.0469199
-0.175823
0.0867656
-0.0477804
0.00823748
-0.0287247
0.130894
-0.0574167
0.181366
0.138684
-0.303987
0.109427
0.19456
0.237504
-0.100946
-0.0596163
-0.0307722
-0.359711
0.159967
-0.0465294
-0.107347
0.153876
-0.0034367
0.0534713
-0.0500346
0.212959
-0.0496031
-0.163356
0.00234547
0.000826141
-0.00644455
-0.00129197
0.00773651
-0.0910246
0.163804
-0.0639566
-0.0998469
-0.0456995
-0.0480381
0.0937375
0.0625019
-0.0185058
-0.0439962
0.0320039
-0.1066
0.0745964
0.0292134
-0.0654839
0.0362706
-0.0382034
-0.0361827
0.0743861
-0.0152244
0.00736419
0.00786021
0.0891891
-0.146534
-0.170703
0.288914
-0.118211
0.00149309
-0.10724
-0.00560928
0.0036067
0.00200258
-0.0910576
-0.00507368
0.101162
-0.223251
0.122089
-0.0569702
0.0143909
0.0425792
0.10518
0.170892
-0.276072
-0.219757
-0.0842292
0.0710348
0.0193106
-0.0215879
-0.0344988
0.101721
-0.0697174
-0.0240556
-0.0645757
0.0181067
-0.184887
-0.0678695
-0.0466828
0.0630485
-0.0323451
-0.0182709
0.1502
-0.174655
0.0506946
0.0272254
-0.07792
-0.0356935
-0.0810916
0.116785
0.0501416
0.0123603
-0.106045
0.156988
-0.050943
-0.103646
-0.0975898
-0.0210401
0.00544456
-0.108937
0.157348
0.000659609
-0.000843984
0.00329249
-0.125172
-0.113443
0.238615
-0.100608
-0.194207
0.294814
-0.0104964
-0.0339498
0.174904
0.0380546
0.0830433
0.126372
-0.209416
0.00337424
-0.00102877
-0.0810596
-0.161643
0.242703
-0.00907072
0.0052941
0.234105
-0.115723
-0.118382
0.0143502
0.00925319
0.0585513
0.0477482
-0.0229503
-0.0505538
0.073504
0.00331563
0.258169
0.124987
-0.312484
0.15136
-0.166131
0.10432
0.0618106
-0.215572
0.140193
0.0753789
0.228068
-0.094249
0.0537866
-0.0931425
-0.23163
0.0867215
0.144909
-0.302568
0.0856483
0.0510341
-0.117632
0.066598
0.0603431
-0.0421748
-0.0181683
-0.181781
-0.120787
0.0750999
-0.217977
-0.0256267
-0.0693306
0.0949573
0.154659
-0.236407
0.081748
0.218713
-0.114645
0.196491
-0.0818464
-0.00212027
0.00078432
-0.157691
0.0194571
0.138234
0.309317
-0.239399
-0.0699172
-0.0316659
-0.048114
0.160154
-0.165652
-0.201121
0.102369
-0.00741469
0.000970144
-0.0139621
-0.03639
0.0393319
-0.132339
0.0768405
-0.057423
-0.0194175
0.253778
0.0555386
-0.121247
0.0627472
0.0585
-0.122268
0.0865745
0.341758
-0.0463137
-0.295444
-0.0593604
0.071167
-0.0118066
0.0183204
0.000626973
-0.0189474
-0.0345204
-0.0227032
0.0572236
0.0379314
0.056963
-0.0509103
0.108659
0.194547
0.107345
0.000426166
-0.254033
0.172973
0.0125145
0.032048
0.145422
-0.326605
0.181184
0.128035
-0.0527665
0.16954
-0.0982516
0.154352
-0.354484
0.200132
-0.0782346
0.0280614
0.0955824
-0.0411651
-0.327133
0.155242
0.274632
-0.104239
-0.170392
-0.061547
0.0497438
0.00682161
-0.00944323
0.00262162
0.13186
-0.0503477
0.155098
-0.0786014
-0.186177
0.113371
0.0728064
0.0445352
-0.0153219
-0.193635
0.289815
-0.0961797
0.0260241
-0.0213064
-0.00471779
-0.0536455
0.193256
-0.133005
0.0717814
-0.106806
-0.0614778
-0.0552961
-0.0209153
0.0762114
0.105874
-5.89933e-05
-0.0023192
0.00237819
-0.0581237
-0.094002
0.152126
0.0619503
-0.146699
0.0847491
-0.0603602
0.123872
-0.0635119
-0.121419
-0.0972115
-0.0629867
-0.050792
0.0641181
-0.0133261
0.124258
0.0214473
-0.145705
-0.0660769
0.126953
-0.0608757
0.0790984
0.0847052
-0.0098776
-0.0352551
0.0451327
0.0274936
-0.126205
0.0987111
0.00470997
0.0148671
0.00433103
-0.0048353
0.000504268
-0.0566603
0.0737301
0.0709391
0.101949
-0.172888
-0.10027
-0.0554041
-0.187444
0.0924634
0.0126959
0.00878462
-0.0214805
0.154934
-0.0767914
-0.0781428
0.127925
0.00278704
-0.130712
-0.109943
-0.105629
-0.0523412
0.00493381
-0.000602774
-0.387139
0.189696
-0.173238
0.0665833
0.106655
-0.0867213
0.157523
-0.0708019
-0.108035
0.0591644
-0.00215909
0.000813617
0.000847022
-0.117294
0.038182
0.0791118
-0.00146907
0.00237165
-0.000902585
0.050564
0.351839
-0.117329
-0.23451
-0.045824
0.0743572
-0.0285333
0.0988372
0.0580335
-0.156871
0.00270402
-0.00110625
-0.00159777
-0.37713
0.15017
0.226959
-0.0606792
0.0402414
0.0607587
0.119403
0.0048548
-0.00969726
-0.02485
-0.121147
-0.145354
0.100459
-0.0679362
-0.0325224
0.0760119
0.0243854
0.00746711
0.018557
0.206245
0.0403649
0.0463836
0.0504153
-0.159842
-0.00696023
-0.00826417
-0.0663404
0.021787
-0.250334
0.14028
0.110054
0.13041
0.0310697
0.0561837
-0.0236306
-0.0766377
0.0264812
0.0748804
-0.0137329
0.0776268
0.0600338
-0.137661
-0.0112806
-0.00573276
-0.125178
0.27354
-0.148363
-0.0881268
0.0211018
0.0670249
0.111492
-0.309229
0.119166
-0.0558914
-0.0632746
-0.127048
0.0887738
0.0424941
-0.0291434
-0.0729378
0.155924
0.0778059
-0.0294317
0.000793644
-0.295063
0.0445586
0.250505
-0.112729
-0.118602
0.231331
-0.351338
-0.0160226
0.0152199
0.000802687
-0.216202
-0.170937
0.068866
0.0555463
-0.0448545
-0.032685
0.0775394
-0.0718446
0.0159673
0.0558774
-0.0471527
-0.0482997
0.0954525
-0.0210524
-0.0250035
-0.0907961
0.137672
-0.0468755
-0.013544
-0.00709959
-0.38567
0.22458
0.16109
-0.244324
0.119147
0.0448188
-0.101874
0.0570552
0.0770281
0.157077
-0.0014206
-0.00151859
0.00293919
0.21771
0.150317
-0.368027
0.0978574
-0.0374309
-0.0604264
-0.10787
0.135363
0.0419155
-0.0229822
0.0218457
0.000822274
0.152548
-0.266351
0.113803
-0.0333751
0.0883632
-0.0549881
-0.0783365
0.0138125
0.064524
-0.0569631
-0.0416349
0.113674
-0.225448
0.111773
-0.0355122
-0.0214579
-0.00957604
-0.148115
0.269569
-0.185096
-0.00813571
0.00962842
-0.00149271
0.00131316
-0.0904281
-0.00750616
0.0979342
-0.175267
-0.230463
-0.0542499
-0.0301113
0.0758817
-0.35755
0.263236
0.0943135
-0.166029
0.0599848
0.12127
-0.0593198
-0.0462017
-0.0492008
0.0954025
0.00193943
0.00620644
0.0884725
-0.228298
-0.278229
0.125977
0.152252
0.157312
-0.0863731
0.0851352
-0.0515805
-0.0503698
-0.0571747
0.107545
-0.00212213
0.00902379
-0.00591179
-0.003112
0.0531671
-0.0242046
-0.0289625
0.0940619
-0.0497364
-0.124279
0.293643
0.0033989
-0.102351
0.068976
-0.300589
-0.0850814
0.0244864
0.165133
0.0304505
-0.0748626
-0.00428471
0.13221
0.028599
-0.0631195
-0.404701
0.149702
0.254999
-0.0554161
0.0199039
0.0744954
-0.134649
0.0601537
-0.10084
-0.0464748
-0.170346
0.071743
0.000828891
0.0111329
-0.0119618
-0.00156345
0.0413254
0.0294466
0.0116715
-0.00670672
-0.00496479
0.0111559
-0.00340514
-0.0811325
0.00108947
-0.00823995
0.147885
0.0238953
-0.17178
-0.00108229
0.00619644
-0.00511415
-0.0753831
0.146463
-0.0710797
-0.0641573
0.0850774
-0.0209202
-0.00603625
0.00743402
-0.00139777
-0.00270156
0.00128097
-0.0664281
0.0235754
0.0428526
-0.260151
-0.0349122
0.311464
-0.175585
-0.135879
0.00124752
0.0107295
0.0121289
-0.29296
-0.0623681
0.355328
-0.135178
0.0332421
0.101936
0.11067
-0.0596354
0.120614
-0.0493825
0.0859746
-0.125297
0.0393225
-0.063285
0.0289305
0.0343545
0.00702551
0.0282193
-0.0352448
0.0440133
0.00368338
-0.105191
-0.102931
0.208121
-0.298139
0.123101
-0.0451712
0.131146
0.00719697
0.0544008
0.247065
-0.0590751
-0.00537399
0.00661187
-0.00123788
0.0407615
0.0838078
-0.124569
-0.0417346
0.0957891
-0.0540545
-0.0591797
-0.028947
0.129907
0.111409
9.79151e-06
0.000487604
-0.000497396
0.00487376
0.0134466
-0.107797
-0.201259
-0.0687357
-0.0940002
0.162736
-0.234807
-0.169894
0.0658603
-0.267357
0.0123386
-0.00261547
-0.202186
0.0980483
0.104138
-0.112089
-0.161743
-0.00820396
0.290457
-0.0413059
-0.249151
0.043592
-0.140305
-0.0379036
-0.0014049
0.0031124
-0.0017075
-0.0672545
-0.0661481
0.133403
-0.088818
-0.00307353
0.0918915
-0.00138394
-0.0146387
0.166852
0.0882467
-0.00261276
0.00438013
-0.00176737
-0.0468126
-0.027918
-0.268414
0.139544
0.111158
-0.213126
0.101968
-0.030435
0.0578058
-0.0273708
0.000485597
-0.301003
0.00804229
0.310771
-0.116224
-0.154724
0.202941
0.0448191
-0.101528
0.0567087
-0.057389
0.0468926
0.344191
-0.189839
0.000296465
0.000857745
-0.00115421
-0.0424796
0.055334
-0.1506
0.095266
0.039477
0.01989
0.0908745
-0.158129
0.0794529
-0.047171
0.0270637
0.120821
0.0661486
-0.0328733
0.0632089
0.0427688
-0.00871705
0.0126069
-0.00388985
-0.313556
0.205759
0.0466377
-0.176538
0.129901
-0.191039
-0.168672
0.247507
-0.138316
-0.109191
0.0778812
0.193712
-0.110668
-0.0586406
-0.0417818
0.100422
-0.0179293
-0.0585848
0.0765141
-0.0357394
-0.0331827
0.236269
-0.131056
-0.105213
-0.0418174
0.0319398