/*--------------------------------*- C++ -*----------------------------------*\
| =========                 |                                                 |
| \\      /  F ield         | OpenFOAM: The Open Source CFD Toolbox           |
|  \\    /   O peration     | Version:  v2012                                 |
|   \\  /    A nd           | Website:  www.openfoam.com                      |
|    \\/     M anipulation  |                                                 |
\*---------------------------------------------------------------------------*/
FoamFile
{
    version     2.0;
    format      ascii;
    class       volScalarField;
    location    "200";
    object      ddt0(k);
}
// * * * * * * * * * * * * * * * * * * * * * * * * * * * * * * * * * * * * * //

dimensions      [0 2 -3 0 0 0 0];


internalField   nonuniform List<scalar> 
27915
(
4.45956e-08
3.27084e-07
2.20718e-05
-0.000322778
-9.46742e-08
6.66664e-08
-0.00152843
1.90223e-08
-1.06028e-07
3.15197e-07
-4.85369e-08
3.59748e-08
1.37958e-06
3.50154e-05
0.00278103
-4.94445e-08
-0.00355196
4.50942e-08
0.000622693
-3.28387e-08
6.35438e-05
5.05316e-08
-0.00368662
4.38714e-08
-2.38083e-09
2.86087e-08
-1.99673e-08
-2.44504e-06
-0.000313724
0.000402506
2.35689e-07
-1.12458e-09
-0.0032362
-3.28695e-08
0.000585181
-1.96334e-08
4.19399e-08
7.053e-08
-1.86079e-06
6.71498e-08
-3.00616e-09
6.03059e-08
-3.42286e-09
-1.35124e-06
3.31846e-06
-4.07024e-11
3.15278e-08
8.10239e-08
3.08335e-08
-4.06975e-08
9.40508e-08
-1.40097e-06
-4.2457e-07
7.05163e-08
1.34806e-05
-0.000219826
0.000894179
-5.09776e-09
5.167e-08
-0.000308799
-1.67572e-09
2.14227e-08
-4.27773e-07
0.000168223
-5.09579e-10
7.09272e-09
2.13611e-07
2.27472e-07
0.00145159
-2.60221e-08
6.63318e-08
0.000453741
3.04693e-10
2.57145e-08
8.66665e-09
5.44255e-08
-1.98799e-07
-2.01136e-08
2.66022e-05
3.68763e-08
6.32852e-08
6.76606e-08
2.95058e-08
-4.01652e-08
-0.000378882
-5.45417e-09
2.99017e-08
-2.49807e-08
-4.87083e-05
3.9661e-08
-1.58097e-08
5.4048e-05
-4.82785e-08
2.65916e-07
-1.64523e-08
1.06632e-07
0.000216541
-3.53811e-09
1.80887e-08
0.00164422
9.17233e-09
-8.12494e-11
0.000149157
6.45242e-08
1.02588e-09
-1.46705e-08
-1.05052e-08
4.02601e-08
-9.87627e-08
3.09386e-07
7.73854e-09
-2.12713e-08
0.000610007
0.000638122
-0.000721423
3.29836e-06
-0.00171026
3.60245e-08
-1.16569e-07
5.93752e-09
-2.56305e-07
-1.17687e-07
1.03202e-07
3.10414e-08
3.6775e-08
5.06095e-09
-2.34608e-08
-0.00202738
8.08171e-07
-3.32816e-08
7.04999e-08
-8.26088e-09
-6.19925e-09
-1.04954e-06
0.000475557
3.21583e-06
-3.12776e-09
2.68873e-08
-2.81405e-08
-5.23925e-09
-0.000410837
-0.000335011
-2.42519e-08
0.00300272
3.57236e-08
-4.32808e-09
-5.57053e-08
7.36041e-05
-2.57979e-07
-1.38633e-09
-8.32723e-09
-2.28808e-08
3.42945e-07
-0.00336057
-4.76624e-07
-2.93832e-08
-7.94917e-09
2.0555e-08
-1.07531e-08
-1.62376e-08
-1.81021e-06
-3.82776e-07
-2.08117e-07
3.25148e-08
-2.01049e-08
3.18414e-08
6.29293e-07
3.89463e-07
-6.73892e-09
3.14786e-07
0.000596131
2.28115e-08
-0.00378652
2.19763e-09
-9.43099e-11
-1.4654e-06
1.16247e-07
4.60259e-08
-5.19038e-08
2.20472e-05
1.81845e-08
2.32215e-07
4.29969e-09
-0.00257769
0.000582304
-1.1429e-07
-5.45409e-07
1.2947e-09
1.34946e-05
4.10306e-08
4.97609e-08
-1.79192e-06
1.26838e-09
2.39142e-09
5.18531e-10
0.000432866
3.83711e-08
2.4497e-08
2.16864e-06
-0.00127596
1.29029e-07
0.00105263
3.39325e-08
3.25277e-05
3.3275e-08
1.17493e-08
0.00119092
-1.68884e-08
-5.63494e-10
-1.81013e-06
0.000185226
4.62197e-08
0.00181171
-2.50352e-08
2.84861e-07
-2.05436e-08
-1.56589e-06
-0.00201601
-1.61386e-07
3.22853e-08
0.000360715
8.38484e-07
6.46733e-08
7.85765e-09
3.92792e-10
6.76383e-08
6.76031e-08
4.92387e-08
1.48763e-05
3.22605e-08
-0.00341625
-4.2507e-09
0.000127805
-3.09509e-08
1.98766e-08
3.50355e-08
-0.00191125
6.68733e-08
-1.24076e-05
-2.2734e-09
-7.18543e-09
0.00048337
0.0479203
-1.14339e-07
5.81566e-09
-2.75343e-08
2.95042e-06
-2.71958e-08
-5.26066e-07
3.71247e-07
-8.20254e-09
9.39787e-08
-3.27687e-07
5.27634e-09
4.75741e-08
-3.24696e-08
9.68225e-08
3.73201e-08
-1.13462e-07
0.000602407
0.000255261
-6.8066e-08
1.02631e-10
3.20565e-09
5.35391e-08
-4.0602e-07
1.03048e-08
7.89033e-09
-5.52785e-07
3.01984e-08
5.34288e-08
-7.5668e-09
0.00182531
3.57613e-08
-9.78841e-09
-0.000238229
-1.4966e-08
0.000190989
0.000394891
-0.000350844
7.99271e-07
-0.00234846
-4.55919e-08
-9.50601e-05
-3.24844e-08
-3.93818e-08
-2.572e-07
-1.67597e-08
0.000107999
0.000234917
6.70269e-07
4.71814e-08
3.49005e-08
2.04463e-07
-4.80131e-09
-1.50309e-09
5.19713e-08
0.000379972
4.89372e-08
-2.6251e-09
-2.2315e-06
-2.74846e-08
-1.98069e-08
-4.52259e-09
6.90412e-07
-0.000305062
-2.07537e-08
1.8886e-05
3.3722e-08
2.25402e-06
0.000289763
0.000471575
-2.6238e-05
-2.03927e-08
-0.000349371
-6.84572e-10
-1.83991e-09
-3.3967e-09
3.11606e-08
2.48642e-07
0.000279017
3.16602e-09
9.40331e-09
6.9435e-08
-2.81729e-06
-1.88886e-08
2.364e-09
-2.23736e-08
-3.27675e-08
-1.60128e-07
3.44824e-08
-2.72194e-05
-2.06052e-09
-7.33591e-05
-0.000334767
-1.08415e-07
-4.67295e-07
-2.01791e-06
1.87511e-07
-3.12721e-08
-1.97469e-08
3.03495e-07
5.14536e-08
1.4646e-07
0.000316855
0.000177789
5.34233e-08
5.77763e-08
1.20447e-06
-1.55431e-08
-2.5477e-07
0.000412833
-3.01845e-07
2.19845e-08
0.000624747
1.22222e-07
4.92096e-08
-6.41649e-09
0.000414975
1.6812e-06
0.000924975
-2.16512e-08
-9.43057e-09
-5.82532e-08
-1.89885e-08
-1.2698e-09
-0.0197796
8.45326e-07
6.8739e-08
5.33065e-08
5.8923e-08
8.45502e-07
-6.15782e-08
-2.82394e-08
-2.41198e-07
1.168e-08
3.07698e-08
4.14359e-08
-0.000141454
-2.84676e-08
0.00129744
3.53294e-08
3.08208e-06
-4.45267e-08
-1.63085e-08
-6.20967e-08
7.58401e-07
7.15406e-08
0.000142369
8.64852e-09
-4.36738e-06
2.2021e-08
3.68206e-08
2.82489e-08
-1.63187e-08
1.24636e-07
0.0224179
-0.00196295
3.68234e-08
-1.76222e-06
3.88883e-05
4.65519e-08
6.00587e-09
-6.10637e-10
-0.000289664
3.09924e-08
8.24807e-08
5.85733e-09
-1.1977e-07
-5.99322e-09
-9.07341e-09
7.53884e-08
-1.15578e-09
9.49593e-08
6.96959e-08
1.03689e-06
-7.32984e-09
3.23952e-07
-1.1629e-07
-2.13795e-09
-0.000377061
5.46781e-07
-2.31935e-07
-0.000337942
3.52011e-08
-2.11504e-06
-9.59232e-09
-2.5192e-08
-1.07493e-08
-1.28293e-08
-3.37875e-08
4.18374e-08
-4.44547e-08
1.30651e-06
0.000589546
-3.23283e-08
7.70923e-09
-0.00351019
-8.09803e-09
0.000140225
7.74569e-10
3.07855e-09
0.0004297
-1.16307e-06
-7.19936e-09
-5.69448e-07
9.60329e-08
0.000459687
6.89605e-08
-3.9277e-09
-2.38641e-08
-2.82435e-09
-7.2589e-09
0.000558807
-1.99332e-09
-7.1301e-08
-2.69959e-06
1.78589e-08
-6.10183e-08
0.00031659
0.000152098
-4.65469e-10
-3.36347e-06
2.9761e-08
0.00178654
2.73237e-08
-0.0017054
-0.000260101
4.01889e-08
-8.17739e-08
-9.84389e-07
4.82345e-08
0.000376876
3.21538e-09
-8.53632e-11
-1.42287e-06
7.10343e-07
-9.94249e-07
-1.51196e-08
-3.74615e-08
1.11202e-07
5.81571e-08
-4.87134e-05
0.000510004
2.94103e-08
2.60855e-09
-3.34634e-08
-7.12437e-08
-1.95076e-08
-3.61675e-08
2.13318e-08
4.83624e-09
-0.000149278
3.3071e-08
5.50184e-08
2.20345e-08
-1.67658e-10
4.62776e-09
-1.87875e-06
-3.58572e-08
7.28596e-08
2.0533e-08
-4.72136e-07
0.00225833
0.000741976
2.59684e-06
6.88666e-08
1.06341e-08
3.58216e-07
2.90157e-08
5.00403e-09
3.27026e-08
5.46783e-08
-1.78094e-09
0.00144173
0.000174071
-1.25365e-08
7.34583e-08
0.00113265
-3.38091e-09
9.03237e-08
1.59707e-09
-8.82075e-09
-0.00256758
7.63362e-08
-6.50902e-08
-5.2035e-07
2.86052e-08
2.95173e-08
-6.88657e-08
-3.56971e-08
4.75292e-08
-6.0351e-09
-1.83184e-09
1.52364e-08
-2.85265e-08
-6.17938e-10
-3.53867e-05
-3.99459e-07
7.07855e-08
-4.63976e-11
7.11137e-08
2.53775e-09
3.56323e-09
-6.23686e-09
-9.85659e-09
-3.77706e-08
-2.06318e-08
5.57474e-06
1.14616e-09
-0.0038103
0.000157834
-7.24815e-07
4.24091e-09
0.000669731
5.14194e-07
-2.57217e-08
9.67771e-09
-3.55967e-06
-3.34381e-08
-4.17864e-08
3.0097e-09
0.161818
6.7542e-08
-2.95827e-06
7.08705e-08
9.86029e-10
6.96838e-07
-0.000129611
2.91726e-08
-1.85538e-08
-9.80939e-11
-2.48916e-08
3.13345e-07
-6.96868e-08
-1.13321e-08
-0.000292376
0.00224013
1.21899e-06
1.94325e-08
-1.71068e-06
1.01994e-06
-8.64921e-09
1.1911e-08
-1.28456e-06
2.03198e-08
-2.8247e-08
4.4292e-07
0.000378678
3.5889e-08
2.01114e-08
4.88693e-08
-1.64245e-10
0.000310574
-0.000331023
3.49874e-07
-0.000851092
-0.000613265
0.000624905
9.33931e-09
-0.00438868
0.00111136
0.000264068
2.27541e-08
-2.00249e-06
6.69334e-08
5.71412e-08
-4.37926e-08
-2.10382e-08
-1.46319e-07
-3.08325e-10
2.59109e-08
6.78045e-08
6.40452e-08
-6.77983e-07
-0.00267146
-3.75217e-08
-3.69821e-08
8.46484e-10
-1.72385e-08
2.15218e-08
0.000820504
-0.000501184
2.70591e-06
2.92201e-09
7.55673e-06
-3.54015e-08
5.17898e-08
-2.15303e-07
8.10151e-09
-9.38765e-11
-2.88863e-07
-1.17123e-08
0.000353924
9.43353e-08
4.3811e-08
1.19334e-05
-3.18611e-07
8.08432e-08
-2.68975e-10
-1.05664e-09
3.8107e-09
2.13363e-05
1.82346e-07
1.16635e-07
0.00240823
7.0122e-08
0.000299933
1.56709e-08
0.0346014
-9.28614e-09
2.87285e-08
3.849e-08
2.87118e-08
2.46511e-07
-3.51905e-08
2.58121e-08
-1.68409e-08
4.04318e-08
6.99049e-05
2.99218e-08
6.3159e-10
1.57941e-06
-3.05918e-09
-7.86912e-09
-3.47947e-09
2.74365e-08
7.40576e-07
-7.87237e-09
3.22101e-08
2.52229e-08
-5.36177e-09
2.25994e-06
4.24987e-09
1.00775e-08
-7.36204e-07
-1.21516e-08
4.29348e-08
0.000625952
-3.6271e-09
4.30649e-08
0.00072696
0.00154463
-0.000130206
-5.70739e-09
6.86565e-08
2.988e-08
1.80388e-09
-7.10628e-08
1.1547e-07
-2.17332e-08
-3.39566e-09
3.94449e-08
-2.45664e-08
-2.49833e-05
-0.000448744
-2.80599e-07
-1.77766e-08
-0.000244423
-5.47546e-08
-4.36608e-10
-3.01115e-07
8.1976e-08
2.52837e-09
4.97722e-08
-1.09672e-08
-1.9065e-06
-3.43522e-08
-1.15387e-07
7.30934e-10
5.14375e-09
0.00125648
-7.01871e-08
0.000723306
-1.87633e-06
5.2984e-06
6.84726e-08
-3.74205e-08
1.14444e-08
-4.04664e-11
-6.00205e-09
-2.24236e-10
9.62897e-08
2.70491e-08
3.51143e-09
3.19189e-08
2.04404e-08
-4.22631e-08
-6.61623e-07
0.000144355
2.90551e-08
-3.85534e-09
-4.34059e-08
1.51794e-07
-4.93467e-10
4.38511e-08
5.52893e-08
1.78664e-09
-1.90346e-10
3.88771e-08
-3.67511e-06
-1.28223e-08
3.38997e-08
-0.00296167
1.65716e-08
-1.81081e-08
0.000631706
4.15083e-08
-3.60657e-05
1.66026e-09
7.83031e-08
3.28402e-07
2.86458e-07
-4.75735e-09
1.40295e-08
3.67355e-08
4.68524e-08
-1.09136e-08
5.01216e-06
0.000256369
7.8525e-08
0.000630923
-2.19322e-09
-4.51159e-05
4.30893e-08
1.7842e-08
-0.00304098
1.02623e-08
2.98056e-07
-1.20777e-08
4.32384e-09
-4.38225e-08
-2.99546e-09
1.35101e-08
-6.68198e-09
4.67972e-08
-2.54831e-07
0.00027127
1.00031e-07
5.21818e-08
2.30059e-08
5.47069e-08
0.000253812
4.01658e-09
7.95659e-09
2.8667e-07
-3.21449e-09
-1.47153e-08
0.000374688
-0.000430292
6.94347e-08
6.88845e-09
-8.57751e-09
4.54399e-08
0.000328725
-9.72313e-10
5.57675e-07
0.0012327
5.32938e-08
-1.18134e-07
1.54315e-08
-1.01035e-06
-1.03652e-09
-2.72281e-08
0.000140216
-3.92349e-08
-2.80308e-07
3.57084e-08
-0.000474775
6.11988e-09
-1.42548e-08
-1.75467e-08
-0.00360223
-2.0567e-08
3.05721e-08
0.000250103
-2.91965e-06
-0.000171792
4.42112e-09
-3.57241e-08
-0.000693843
0.00129518
0.000938413
-9.74055e-06
2.50044e-09
-6.48456e-09
-3.08282e-08
8.70161e-08
-3.65505e-07
0.00171399
-1.01039e-08
-5.07524e-08
2.07268e-08
-3.77628e-07
0.00333971
-3.47015e-08
-0.000249106
9.20536e-07
-0.000253191
-1.0392e-08
7.87394e-08
-5.38812e-08
-1.04711e-09
3.38571e-08
-5.55922e-08
2.43078e-08
2.24795e-07
2.04465e-08
-5.27579e-08
2.43658e-08
6.51977e-08
-4.98005e-08
-5.78339e-08
-0.000409496
8.59529e-07
0.000125377
-2.95405e-09
3.21894e-08
-1.80649e-06
-4.22481e-08
2.01298e-07
0.000771457
-0.000271448
0.0038384
-2.21508e-09
7.68259e-08
-1.30824e-07
-2.19049e-05
-3.46626e-08
5.12251e-08
8.48553e-10
4.02866e-08
-6.10288e-09
-5.43932e-08
-0.000437953
-3.13435e-08
4.65349e-08
-9.87539e-10
8.90877e-05
2.4819e-09
8.71685e-09
4.97638e-08
6.8329e-08
2.64834e-06
6.35396e-09
-1.22717e-09
2.50034e-08
-7.01534e-08
0.000256277
6.89045e-09
2.82406e-08
8.96704e-09
2.19573e-08
3.86413e-08
-0.00307538
4.86875e-08
3.40211e-08
-8.67911e-08
7.95538e-08
-6.46778e-09
-1.22587e-08
4.42206e-08
0.00169323
-4.39223e-08
-5.92845e-08
2.37769e-08
-8.33384e-10
-1.94904e-06
-5.05887e-07
2.0588e-07
-1.20465e-08
0.00077193
-4.93158e-08
-2.50849e-08
1.57235e-07
3.67443e-07
0.000115817
8.94071e-09
-1.44416e-07
6.77339e-08
6.32555e-08
2.71246e-08
-0.00179193
-5.83844e-09
-9.00323e-08
0.000894495
3.2501e-08
3.01427e-07
1.21179e-08
3.01414e-08
2.79536e-08
1.53051e-07
-0.00104225
2.11034e-07
2.69999e-08
1.97263e-08
3.97892e-05
6.31183e-09
-5.54257e-08
3.65647e-08
3.18367e-09
2.41646e-08
-1.29243e-08
2.78756e-08
4.58638e-07
1.58966e-07
1.58434e-08
8.94409e-08
0.00554513
9.76601e-05
0.000320877
-8.46761e-07
-7.88341e-05
3.3748e-08
-1.49136e-08
1.23244e-08
0.00319821
0.000817327
3.57473e-10
1.91581e-08
2.74061e-08
5.15373e-08
-0.000454896
-0.000544355
-3.66809e-08
4.59392e-09
-3.43137e-09
3.273e-09
1.1412e-08
-7.47869e-07
2.13591e-09
0.000107115
-5.47594e-09
-1.67091e-08
-7.85443e-09
-2.63605e-06
-6.66185e-08
0.00228993
-2.61863e-08
-1.3826e-08
3.93186e-08
2.56362e-06
0.00543861
0.000640342
-4.33476e-07
-2.75406e-09
4.96874e-08
3.15251e-07
-3.79461e-07
5.08166e-07
-2.56977e-08
1.33099e-08
5.13706e-08
-1.76335e-08
-0.000471136
-1.57361e-08
-1.81258e-06
5.5767e-08
4.27872e-09
-1.61385e-08
-1.68061e-08
-3.10871e-08
9.98553e-09
-7.6355e-07
-3.60163e-08
9.99494e-08
0.000525274
4.60018e-09
1.48966e-08
0.000199528
2.82697e-09
-9.29552e-08
-3.03142e-08
3.15352e-06
-8.22706e-10
3.26425e-08
-0.00424015
0.00232854
0.000477701
-2.95867e-09
-1.96734e-08
0.00105951
3.25281e-08
4.47996e-08
7.37745e-09
-7.02279e-05
-2.96793e-08
8.39244e-09
0.000574272
-3.42941e-06
1.6465e-07
-0.00370579
1.17037e-09
-3.35334e-08
0.000234619
-8.01734e-09
-1.39102e-08
1.39112e-08
1.30275e-06
4.91923e-08
-4.17401e-09
-1.55108e-07
-0.00209689
-2.83659e-09
-2.00413e-08
2.84058e-08
-1.35382e-10
-5.28074e-07
6.79836e-08
2.22911e-08
3.97811e-08
4.73229e-09
-1.04424e-09
4.83012e-07
3.36015e-08
2.6154e-07
-3.1089e-09
4.27677e-07
1.21364e-08
-4.10491e-08
2.38357e-09
2.0209e-07
5.36673e-08
0.00018802
-1.2439e-08
-2.52398e-09
0.00196911
3.62756e-08
-8.22981e-07
2.46374e-09
4.25761e-08
-1.14999e-06
-1.63403e-09
-1.62328e-08
-5.56047e-08
2.65839e-08
-0.000160803
2.71613e-06
4.87788e-08
-1.82859e-06
-3.49852e-06
-2.58028e-08
7.20754e-09
0.000122739
4.2089e-09
-1.45987e-07
2.23925e-08
0.000620842
-0.000388101
3.74643e-07
-0.000545242
-3.6119e-09
0.000123061
5.38593e-08
-2.32996e-08
8.24599e-08
-2.79963e-06
-1.36824e-08
2.20365e-08
3.85401e-08
7.42839e-08
-5.83557e-10
1.0228e-08
-6.31715e-05
7.22023e-09
0.000701422
5.90994e-07
0.0139594
-6.55581e-10
1.18466e-07
-1.84162e-06
-0.000126128
-1.63443e-08
5.68287e-07
2.60416e-08
8.61355e-08
1.54621e-09
-0.00435525
7.0472e-08
3.56362e-09
0.000372409
7.58381e-08
4.46659e-09
-0.0146765
-0.00359795
4.76387e-08
-8.38725e-10
-3.71419e-08
-1.735e-06
-0.000196147
-3.11969e-08
4.53715e-09
7.45884e-07
1.90617e-08
0.000266627
-9.56467e-10
0.00559765
1.48906e-08
-0.00230908
1.5702e-08
1.13043e-06
0.0025044
-0.000401462
-0.000445056
-0.000121556
5.69756e-09
-0.000957471
4.23926e-08
-3.41996e-06
6.85922e-08
9.90889e-10
-8.08632e-08
-0.000264481
1.03004e-06
-2.4392e-08
0.00138075
-1.04341e-08
1.1388e-06
-2.764e-09
4.22522e-08
0.000434942
7.59356e-08
-0.000381706
-9.46859e-09
-5.21614e-09
0.00136821
1.07149e-08
-2.87085e-08
2.19446e-08
6.55484e-08
8.26757e-09
-3.09817e-08
3.70572e-08
-1.6375e-08
8.65135e-10
2.60199e-08
-0.000476457
2.38757e-08
3.901e-06
4.87124e-06
-2.25993e-08
1.19391e-08
-3.42628e-08
1.78611e-07
-0.00036428
4.01369e-06
7.40763e-08
1.22076e-06
-3.16308e-08
-1.41177e-06
8.09159e-08
-9.03494e-09
-1.79691e-06
-1.39309e-06
-4.37496e-07
-8.40739e-10
-2.95669e-08
1.81234e-08
0.000237849
-2.34049e-09
-1.06542e-08
2.28359e-08
0.00325973
1.32094e-08
-1.95057e-06
2.27827e-08
-0.000137667
-1.85124e-08
-4.48411e-08
2.58827e-08
5.58732e-10
0.00432503
1.25484e-07
2.60095e-08
6.7343e-09
-1.34518e-06
-2.41368e-07
1.78815e-08
-9.39332e-06
-1.61652e-06
0.000213549
7.47406e-08
-0.00117374
-9.30276e-10
-1.83927e-08
-0.00340775
0.00129427
-0.000475588
-8.1137e-09
1.01024e-08
1.88655e-09
-1.80482e-08
-2.27093e-05
-1.30678e-09
-4.39564e-08
0.00010493
-1.90693e-06
1.04136e-05
-8.17248e-09
-0.000267538
-1.31141e-09
2.59202e-06
-5.40281e-09
2.5117e-08
2.19155e-08
-9.36342e-09
9.20024e-09
-1.585e-06
3.70368e-08
-0.00111314
-2.51646e-06
3.69954e-08
-1.4068e-06
2.36223e-05
2.05399e-08
2.46685e-08
6.0396e-09
-2.02722e-08
-8.58208e-09
-5.4772e-08
-2.89838e-09
1.18117e-08
5.36988e-08
2.44533e-08
0.000282373
4.09187e-08
-5.41325e-08
-1.03995e-05
0.00133793
-7.39413e-10
0.000110001
-9.55768e-09
4.93114e-09
-7.17783e-09
5.42778e-08
8.32086e-06
6.47776e-05
-7.29644e-07
1.14977e-09
6.9208e-08
-1.36545e-06
2.43207e-09
2.12351e-10
8.7052e-08
7.75781e-09
2.04732e-10
-4.2122e-08
4.15398e-06
-0.00205891
-1.59775e-08
-5.08995e-07
-5.82755e-06
-2.19606e-06
-2.99485e-08
0.000271036
-0.000762061
-6.18052e-08
4.3914e-08
-1.19293e-05
1.2866e-07
-9.84988e-09
-1.46394e-08
1.01961e-09
5.25699e-09
-6.38169e-08
3.80978e-08
1.23845e-07
-2.66098e-10
-4.8006e-08
-1.6824e-08
0.000153265
-1.81032e-09
3.07356e-07
9.87112e-06
-5.69907e-05
6.71419e-09
-1.39394e-08
7.84531e-08
2.11675e-08
1.15067e-08
-3.95126e-08
0.000187835
1.4752e-08
8.94734e-07
-4.50004e-08
1.69774e-09
4.07784e-06
6.23193e-09
0.00563027
2.6302e-09
-2.19376e-08
8.11678e-08
0.000273681
-9.81995e-09
-2.61449e-08
0.000525432
2.56882e-08
1.88768e-08
1.74115e-08
0.000434425
7.05341e-09
5.23317e-08
5.86585e-08
0.000696153
0.000460823
3.10702e-09
0.000443608
-2.47962e-10
5.58231e-08
-0.00278162
-2.44247e-07
-2.68572e-09
0.00158036
-6.57492e-09
-0.000277258
-5.8468e-06
0.000250235
2.13145e-07
2.97475e-09
-1.22306e-07
1.38648e-06
0.000107238
-2.20114e-08
2.02534e-08
-2.64576e-08
5.75295e-07
4.5496e-08
-1.94071e-08
5.19512e-08
-5.7175e-10
-1.38174e-08
-6.51273e-07
-0.000256636
1.22859e-06
1.98485e-08
0.000954407
-0.00199161
8.96465e-08
-5.48876e-09
-2.29198e-05
-2.51547e-08
2.32457e-09
2.89681e-08
-1.68231e-09
6.11622e-09
-2.39299e-08
2.48136e-09
0.000479554
-0.000261518
1.55973e-09
2.14076e-09
6.1858e-07
-2.0757e-08
0.00080014
-5.38256e-07
4.49448e-08
1.0283e-06
-1.18304e-05
2.80068e-08
-2.10249e-10
-0.000415653
-1.13922e-08
2.58459e-08
1.1801e-09
2.58155e-08
2.89871e-08
-7.78632e-09
0.000443355
-6.83253e-09
5.45794e-08
-5.64303e-05
-4.6868e-07
1.42698e-06
9.30979e-08
1.63249e-07
0.000347756
-6.24766e-08
2.70026e-08
0.000171332
3.3828e-07
2.31446e-09
-0.00097426
-0.000310572
4.68371e-09
2.77541e-08
0.00127371
7.02533e-08
-0.000280514
5.68437e-08
7.36272e-09
3.4686e-08
-1.63133e-07
6.86921e-08
2.85181e-08
-4.08158e-08
-0.000195438
1.50931e-06
-1.30671e-07
1.36775e-10
3.27606e-09
-0.00285154
-2.12899e-10
2.99065e-08
0.000183462
0.000171262
3.79241e-08
3.80069e-09
-0.000161642
-2.13493e-07
0.000585959
0.0003464
3.06942e-08
-2.32728e-08
1.73942e-07
1.87317e-09
4.74509e-09
4.55833e-09
3.23293e-07
-8.71057e-09
0.00279622
-0.00108438
2.51956e-08
0.000648868
1.49957e-06
-4.74519e-08
-4.33758e-08
0.0037918
7.36629e-08
-1.93283e-07
-1.47975e-06
-2.30143e-05
-2.54392e-06
2.55976e-08
7.50325e-08
3.22713e-08
3.85077e-09
-0.00166592
1.89265e-09
-4.6704e-09
-1.72987e-06
2.34606e-05
6.60467e-07
-6.04861e-08
1.43645e-05
5.63586e-08
-2.8563e-08
6.52532e-07
-5.8435e-09
0.000599142
2.8777e-09
1.33631e-07
-0.00145386
-8.28898e-07
6.87366e-08
-6.90695e-09
-0.000204213
-3.80001e-08
0.000313412
8.56642e-05
4.9015e-09
1.1736e-07
3.73462e-08
-1.80792e-06
2.64114e-09
-8.61986e-09
0.00151125
8.55451e-08
7.79403e-09
7.45882e-10
-2.66627e-09
-5.05995e-11
5.97419e-08
0.00287063
0.00393081
1.06979e-08
5.42964e-09
-1.43418e-08
-7.02763e-09
1.38692e-06
-7.24487e-06
-8.71873e-08
4.81094e-07
-5.9149e-07
6.18383e-08
1.34566e-05
2.67053e-09
1.62113e-06
-4.28485e-05
2.55955e-07
4.63867e-08
4.09899e-08
0.00267337
-0.000395392
-1.77845e-10
1.92375e-08
2.08907e-08
-8.51837e-09
0.000158446
3.25172e-08
7.64871e-08
2.41754e-09
-0.00049604
2.13711e-07
-3.4254e-08
-2.47073e-06
-4.29624e-08
3.97407e-08
-1.82463e-06
0.00415249
1.09317e-08
8.72074e-09
-5.76007e-09
-4.20105e-09
-4.20493e-09
-7.70969e-08
3.84108e-08
3.09405e-08
1.95423e-08
4.28346e-07
1.75335e-07
2.16544e-08
7.07268e-08
-3.28186e-08
-6.53086e-09
8.64978e-08
4.49419e-09
1.28707e-09
6.06652e-09
-1.60951e-08
2.96067e-08
7.32592e-08
2.44721e-08
-5.11854e-09
1.80508e-08
-0.000146396
-1.10126e-08
4.54007e-08
1.04448e-08
2.10861e-09
-9.93536e-08
6.85784e-09
1.75979e-06
4.22148e-09
2.06752e-08
1.60612e-07
-8.75919e-09
6.01567e-09
-0.000478936
-4.31832e-08
0.00024407
2.04077e-10
0.000253187
-0.000261029
-1.71557e-08
2.36372e-08
0.00100394
-2.19004e-08
0.0012314
-3.59722e-06
0.00381603
-6.77544e-08
3.91597e-08
0.00313479
-1.71439e-07
-2.818e-07
-5.57009e-07
3.52306e-09
-3.89388e-08
9.60181e-05
1.47967e-08
0.000247396
2.15049e-08
-2.02208e-08
-6.54634e-09
3.47871e-08
7.21217e-09
4.13582e-06
0.000612785
0.000596826
-5.00195e-08
1.83926e-05
-3.41269e-08
2.88821e-08
4.37914e-08
7.31615e-09
-9.50143e-07
-4.14192e-09
1.63428e-08
-5.73729e-08
-1.57873e-08
-7.9234e-09
8.1282e-05
4.70385e-08
0.000222815
-6.28881e-09
-1.19157e-08
1.11485e-08
-1.86524e-06
2.19363e-09
4.59285e-08
0.000167548
0.00058021
1.01604e-09
-3.90604e-08
-4.57284e-08
-8.05796e-09
1.9997e-07
0.000360951
-1.84284e-10
1.35335e-08
2.4476e-08
7.17341e-09
0.00123928
3.40104e-08
-3.96372e-08
2.89649e-09
-3.2622e-07
0.00115088
-2.30367e-08
-0.00227623
2.40098e-07
5.99832e-07
0.00106125
-0.000487437
0.00403193
-0.000468287
0.000483871
1.57788e-09
-2.2266e-09
-1.63316e-08
-2.5013e-08
0.00353441
0.000463724
1.41443e-08
-1.75258e-07
-3.10811e-09
1.84818e-08
-2.3267e-08
6.80111e-08
-0.000396328
2.20445e-10
-0.000342617
2.71379e-08
5.22147e-08
-0.000526246
3.64296e-08
-0.000903298
4.47113e-10
1.37326e-07
-3.98599e-08
2.93933e-07
1.83374e-09
7.03665e-09
1.26319e-09
1.10966e-09
0.00542345
0.000382463
-1.10007e-08
3.59018e-09
0.000352486
-7.74312e-08
6.92958e-08
0.000169523
0.00042877
1.65978e-08
-2.15007e-09
2.44976e-07
0.00361465
0.0002597
6.18185e-08
-2.57463e-08
0.000484942
2.34579e-08
0.000149706
6.42831e-08
9.49288e-06
5.0646e-08
-4.121e-07
2.42229e-08
2.44996e-08
1.86296e-07
1.64013e-06
3.29067e-07
6.56692e-08
2.71969e-08
0.000722684
-0.00179461
1.01034e-08
0.000623315
4.37655e-08
1.70638e-08
4.92463e-08
-0.000364993
3.26551e-08
0.00106875
-2.28632e-08
9.97608e-08
0.000170492
1.65331e-08
0.000392044
4.56004e-08
-1.77251e-06
-6.17567e-07
3.34517e-09
2.95491e-09
0.000397944
-1.93345e-08
-1.48368e-06
-0.00455382
-1.65163e-06
-6.45812e-09
-3.02888e-08
8.04409e-08
-4.90721e-08
4.56947e-08
7.25074e-10
-0.000113233
-6.35799e-08
-3.96256e-08
5.04255e-08
0.000214728
-1.9456e-08
-4.02923e-08
1.51878e-08
2.21835e-05
4.58421e-08
-7.13454e-05
5.98077e-08
-2.6919e-06
-3.5666e-08
-2.6307e-07
-5.92332e-07
5.18379e-08
3.55443e-08
6.24091e-08
0.000711062
1.69727e-08
-0.000392549
-2.37771e-07
5.15494e-08
-5.06648e-09
0.00239836
-1.10295e-08
7.10889e-08
6.09998e-08
6.06145e-08
-2.24532e-09
-7.58133e-10
-1.76241e-08
-7.28569e-08
-0.000384856
7.10668e-08
-5.89227e-06
-1.07245e-06
2.54533e-08
0.00208265
-9.77074e-08
-3.17438e-07
-8.33983e-05
-3.87903e-08
0.000151297
0.00134961
6.37104e-08
3.65881e-08
-4.37094e-09
-3.98943e-08
-3.70635e-08
1.55001e-07
1.38445e-08
3.76246e-07
-1.24821e-09
-3.22157e-08
6.54651e-08
1.74526e-08
-5.52115e-07
7.10786e-08
1.88598e-08
2.62411e-09
0.000269183
0.00039527
-0.000545096
3.15319e-09
7.26987e-08
0.000447436
-4.06629e-08
-0.000416401
5.30253e-08
1.58666e-07
-4.69663e-08
1.33484e-08
-4.34405e-08
-7.03604e-08
-3.23555e-07
0.00109865
7.22931e-10
-6.59882e-08
1.20556e-08
-7.37564e-08
-2.54019e-08
7.24556e-09
0.00308032
3.48394e-08
-6.89533e-07
3.3344e-07
0.00563471
-1.75219e-08
4.54885e-06
-4.34401e-07
5.07972e-08
5.08745e-08
-0.000448495
-1.73385e-06
9.34713e-05
-4.7234e-06
4.44362e-08
0.00134413
-1.73659e-08
4.9969e-08
0.0010494
2.35171e-09
8.61283e-08
5.03684e-09
-5.01099e-05
4.44207e-09
1.8395e-08
-4.79672e-08
1.39232e-06
2.9173e-08
4.17338e-08
3.34526e-07
7.859e-08
1.54481e-07
0.000496151
-1.45322e-06
-2.30312e-08
8.96594e-08
5.02434e-06
3.99893e-10
1.94e-07
8.17548e-09
-1.69382e-06
-5.30533e-08
6.95358e-08
7.81838e-09
8.18372e-08
1.66823e-07
4.48489e-08
4.03661e-09
-0.000191708
0.000248765
-1.71395e-08
1.65629e-09
0.000594443
5.36169e-08
-0.000242649
-8.56231e-06
0.000287737
-3.14414e-07
-1.50065e-06
-0.000818944
2.55287e-08
-5.47471e-07
8.94725e-09
-1.23354e-08
8.259e-08
-6.33508e-10
4.83229e-05
-0.00496544
-9.97804e-07
0.000252019
3.33549e-08
1.24214e-08
4.70417e-07
1.79178e-05
2.02353e-09
2.01738e-07
6.63602e-08
-0.000162167
5.83129e-09
-3.39631e-07
0.000938035
-1.65401e-06
3.17222e-07
-4.17207e-09
-1.06147e-08
6.5214e-09
-5.79181e-08
7.97715e-05
8.4921e-07
-1.15931e-06
2.09301e-05
-0.000433385
3.05747e-08
-6.06579e-09
3.33365e-07
0.000309956
0.00127719
-9.4054e-09
1.13398e-06
1.06353e-05
1.72528e-09
1.11933e-07
1.88237e-08
0.000250587
-4.75829e-09
-2.18572e-07
-9.70631e-05
9.16637e-05
2.05882e-08
0.00103613
1.01264e-09
7.27825e-08
-7.7202e-09
3.86194e-09
-1.52383e-07
1.41824e-08
0.000715915
0.000417354
2.71755e-07
0.000560744
-2.40281e-07
8.1438e-09
9.34813e-10
-3.86421e-08
6.51854e-10
0.0015452
-2.17935e-08
-6.0204e-08
-3.63464e-10
-1.67691e-05
-0.00371938
-4.24883e-09
6.92551e-08
3.42418e-08
-0.00292049
0.00367795
9.08731e-08
6.21522e-09
2.50669e-08
-9.43081e-10
-2.0025e-08
-0.000398183
-3.26886e-10
1.44875e-06
-0.000231694
-2.82202e-09
0.00522608
0.00015205
-6.60986e-08
-0.00042836
3.76913e-08
5.01401e-05
5.58075e-08
-0.000262253
6.43257e-08
0.000814862
2.23038e-10
4.39641e-07
2.43663e-08
1.97503e-07
-4.03925e-09
4.76816e-09
1.71509e-09
6.84692e-09
-0.000175235
-9.22907e-07
7.13738e-08
-0.000523997
0.000667824
9.09423e-09
-0.000216845
-2.4577e-08
0.00299896
0.00316892
1.59878e-06
-2.62452e-07
-0.000350287
-0.00147012
-0.000383495
3.84216e-08
-6.52705e-08
-7.40289e-05
0.000327042
0.000351693
3.70116e-07
-2.32798e-07
6.54422e-09
-1.08162e-09
-2.40426e-08
1.15134e-08
-2.57734e-08
0.0024398
-2.80245e-09
-5.10696e-08
3.32195e-08
-5.28383e-06
5.60272e-09
4.38253e-09
-1.36375e-08
4.07477e-07
1.76376e-08
3.33415e-08
4.35026e-08
1.12478e-09
4.97346e-08
-1.93069e-08
1.18939e-08
0.00137731
2.15882e-08
3.18771e-08
-4.2069e-10
-5.65368e-09
-1.14514e-08
-2.09885e-08
-1.52352e-06
8.93111e-07
-2.20213e-08
-2.38713e-08
2.94804e-08
2.22797e-08
-0.000103691
-8.77308e-09
3.05875e-08
0.00023553
1.52769e-08
3.0256e-06
1.14182e-07
3.06914e-08
6.08456e-07
7.83286e-08
-5.03625e-06
-1.88237e-06
-6.73565e-08
-1.77574e-07
-9.25966e-09
-1.57085e-09
-1.01127e-07
0.000272198
2.58406e-08
1.92328e-08
2.98565e-08
-3.12013e-08
9.21818e-09
-5.70021e-08
6.35297e-08
-0.000248739
-4.35368e-08
-7.50829e-09
-0.00019015
-4.80198e-08
0.00149967
5.04622e-08
3.04332e-07
4.954e-08
-5.58617e-07
5.33006e-08
3.12494e-06
0.00283152
-2.52945e-08
0.000332523
-4.89994e-07
1.99118e-09
0.000832084
3.47694e-09
-2.56776e-08
4.55008e-09
4.52029e-08
-4.24416e-09
0.00043952
-8.65933e-11
-3.8184e-08
-6.11972e-08
0.000570822
-1.99089e-09
-5.55106e-08
1.88184e-08
7.61436e-08
2.14359e-08
3.71881e-09
6.76948e-11
3.04549e-09
4.82327e-07
-3.53261e-09
-0.000406613
0.000488292
4.90413e-10
3.48291e-06
1.39123e-07
3.44966e-08
-0.000213238
0.000120763
0.00128396
0.00241797
-0.000393352
-0.000173801
2.13281e-08
-2.55355e-08
-6.18429e-08
-5.88007e-08
0.000119231
5.36823e-08
4.41064e-07
0.00493863
-1.54462e-08
0.000540869
3.58373e-07
-9.54594e-05
5.3459e-08
3.56625e-08
-1.37259e-08
2.27439e-08
-1.95867e-07
0.00362511
8.82941e-07
-5.54816e-06
4.09378e-08
1.92821e-09
-0.000200258
7.93844e-07
-1.1829e-06
-5.93871e-08
-8.81176e-09
0.000109092
0.00416867
2.08768e-08
1.51109e-08
-8.96647e-09
-7.07236e-10
3.24645e-09
-2.49865e-08
0.000129708
1.57677e-09
-9.23348e-09
0.000200792
0.000310762
-3.16389e-08
7.71584e-08
2.32151e-09
0.000254379
-1.77836e-09
2.05566e-08
0.000199746
0.000366002
-9.69489e-09
3.34464e-08
0.000552486
2.37708e-07
-7.09579e-08
3.15041e-07
-1.89751e-09
-0.00027139
-2.36124e-10
1.08817e-06
-0.0012619
-1.05341e-08
1.34327e-07
-2.46525e-08
3.21578e-08
-4.6536e-10
7.02618e-08
3.30485e-09
-1.67863e-06
5.35497e-08
-2.53034e-08
1.29401e-08
3.57666e-08
-4.15579e-06
0.000260741
-4.74098e-08
-5.68766e-09
-4.7278e-09
2.81744e-10
0.00280785
0.000460787
2.72362e-05
2.39736e-08
-7.3631e-08
2.48526e-08
-2.16511e-08
7.35485e-08
-0.000418548
-1.69768e-09
-1.01938e-07
-0.000253684
-0.000355094
2.72312e-07
-8.55763e-09
-5.59249e-09
-1.84473e-08
-2.34311e-08
-9.35722e-10
-3.81665e-08
-8.37371e-09
2.89902e-08
-5.58376e-08
-0.000340916
-3.59334e-07
4.645e-08
6.75521e-08
8.84463e-09
0.0055317
0.000497602
2.31454e-07
0.000716663
9.52593e-05
1.23981e-08
0.000603438
9.39414e-07
3.68117e-09
0.000204003
0.00128926
2.45057e-06
2.11923e-08
2.1972e-09
2.67839e-08
2.72428e-08
6.65222e-06
-1.85788e-07
-6.94204e-08
1.85596e-07
3.49138e-08
1.20818e-08
5.90773e-05
-0.000538123
-5.96567e-08
-1.57052e-06
-1.59333e-08
-1.6275e-06
6.47898e-08
-0.000225007
-1.90146e-06
0.000396428
-5.88521e-08
-1.42375e-08
-7.45936e-08
1.02728e-07
9.51704e-09
0.00424194
-9.5642e-05
8.49922e-08
0.00147079
1.94772e-05
3.75204e-05
0.00184252
1.92694e-06
-1.36883e-08
2.62383e-06
-3.78639e-06
-2.89616e-08
0.00454815
5.46923e-09
-2.77553e-09
-0.00107421
4.89443e-09
1.49692e-08
1.42794e-08
7.41903e-07
-4.23296e-08
-5.34191e-09
0.000274027
-3.92962e-10
0.000303835
-0.000157383
2.47253e-05
2.43511e-06
-1.17273e-08
5.53454e-08
-7.67852e-09
2.17798e-06
-2.2174e-07
-7.38265e-09
-7.05809e-06
7.73518e-08
-3.39946e-08
4.03424e-09
3.24317e-07
2.68078e-08
2.51921e-06
-3.31186e-07
-5.6117e-08
1.19141e-08
1.37302e-08
2.78718e-05
2.14554e-07
2.11324e-08
-0.000101027
-4.3792e-09
-1.60584e-08
2.97106e-08
-0.00065263
-1.61786e-09
9.32517e-08
1.94337e-08
0.000173574
1.99903e-08
1.08817e-05
-3.12813e-08
0.00218416
-2.32087e-07
0.000256918
5.78491e-08
4.57736e-08
-3.29643e-08
-5.90671e-08
3.72832e-08
3.61419e-08
0.000214709
2.96197e-07
2.8489e-08
6.34107e-08
1.59554e-05
-1.01657e-08
-6.07654e-08
-2.10822e-08
-3.56076e-05
0.000503888
1.58252e-08
-4.51336e-08
6.73693e-08
-0.000476338
3.81064e-10
0.00223063
-0.000434005
1.70429e-07
-3.55783e-05
0.000343553
-5.06286e-10
-9.40073e-10
9.21631e-09
9.73056e-05
5.19185e-08
-0.000830449
-4.02566e-09
-2.30035e-07
-2.19781e-09
-7.85169e-08