/*--------------------------------*- C++ -*----------------------------------*\
| =========                 |                                                 |
| \\      /  F ield         | OpenFOAM: The Open Source CFD Toolbox           |
|  \\    /   O peration     | Version:  v2012                                 |
|   \\  /    A nd           | Website:  www.openfoam.com                      |
|    \\/     M anipulation  |                                                 |
\*---------------------------------------------------------------------------*/
FoamFile
{
    version     2.0;
    format      ascii;
    class       surfaceScalarField;
    location    "200";
    object      ddtCorrDdt0(phi);
}
// * * * * * * * * * * * * * * * * * * * * * * * * * * * * * * * * * * * * * //

dimensions      [0 3 -2 0 0 0 0];
oriented        oriented;


internalField   nonuniform List<scalar> 
41582
(
1.55278e-05
-6.18874e-06
-9.34125e-06
-0.000241283
0.000143753
9.75249e-05
1.12824e-05
2.09693e-06
-1.33853e-05
0.000544943
-8.86721e-05
-0.000456222
0.000133923
-0.000131637
-2.27759e-06
-3.99407e-05
2.30806e-05
1.68605e-05
8.59843e-05
0.000383771
-0.000469793
-9.54079e-05
3.3781e-05
6.16282e-05
-8.89213e-05
-4.51233e-05
0.000134035
-1.6141e-06
-8.01569e-05
8.17703e-05
-1.87567e-05
2.62378e-05
-7.47171e-06
-2.11322e-06
7.26774e-06
-5.15035e-06
0.000265263
-0.000200246
-6.50249e-05
-0.00037202
0.0006293
-0.000257281
0.00106933
-0.000570925
-0.000498405
-2.29393e-05
5.87264e-07
2.23553e-05
0.00101504
-0.000289718
-0.000725319
-4.66352e-05
-1.34322e-05
6.00669e-05
1.16654e-05
3.93605e-05
-5.10527e-05
-2.34423e-05
5.54372e-06
1.7899e-05
0.000209017
-0.000581036
6.29028e-06
6.30171e-06
-1.25914e-05
0.000612585
0.000402449
7.51219e-06
8.01481e-06
-7.58957e-06
3.45676e-07
7.24325e-06
2.9793e-05
-1.7728e-05
-1.20642e-05
1.29263e-06
-2.85461e-05
2.72543e-05
-6.1782e-05
1.93351e-05
0.000405106
0.00013983
0.000170957
7.06349e-05
-0.000241604
1.1566e-05
-8.30935e-05
7.15294e-05
9.35104e-06
-3.66565e-06
-5.68508e-06
0.000886855
-0.000152855
-0.000733956
-9.50048e-06
-1.39387e-05
-4.74689e-05
5.91221e-05
-2.62407e-05
2.75318e-05
-1.81034e-05
2.67395e-05
-8.64366e-06
-4.76951e-05
3.9567e-05
8.12477e-06
-3.90189e-05
3.42296e-05
4.796e-06
-1.60213e-05
-3.10468e-05
4.70655e-05
-3.5644e-06
-5.13444e-07
4.07635e-06
-4.53748e-05
2.31585e-05
2.2217e-05
-4.13189e-06
2.30783e-05
-1.89463e-05
0.000114739
0.000314794
-0.000429563
-0.000704611
0.000461696
0.000242802
6.18605e-06
1.44506e-06
-7.63098e-06
-2.22798e-05
2.74423e-05
-5.16319e-06
-2.39262e-05
-3.21709e-05
5.60961e-05
1.39173e-05
-6.36658e-06
-7.55088e-06
-2.40665e-06
6.022e-06
-3.61403e-06
2.97868e-05
-5.37152e-05
-0.000298147
0.000412872
-0.00034975
0.00047086
-0.000121115
-2.14228e-05
5.21015e-05
-3.06757e-05
-8.14101e-05
-0.000214838
0.000296264
-0.00035869
0.000461052
0.000436503
-0.000210135
-0.000226361
-1.15191e-05
-5.34647e-06
1.16376e-05
0.000151418
-0.000369791
0.00021838
1.22146e-06
8.12984e-06
1.43494e-06
1.8479e-06
-3.28648e-06
-0.00022961
0.000244822
-1.5206e-05
-9.7003e-05
0.000241801
-0.000144765
1.48909e-05
-1.86885e-05
3.79464e-06
-5.6905e-05
8.0585e-07
5.61068e-05
3.04646e-06
1.50116e-05
-1.80579e-05
0.000302268
-0.000191938
-0.000110354
-0.000586827
0.000629858
-4.30165e-05
7.02378e-06
-7.88575e-06
8.57661e-07
4.50399e-05
-2.25058e-05
-2.2533e-05
-8.06409e-05
0.000251598
2.32773e-06
1.37326e-06
-3.70054e-06
-1.42674e-05
-1.04299e-05
2.46963e-05
2.29494e-05
3.12487e-06
-2.60778e-05
3.9172e-05
-9.07237e-06
-3.00934e-05
-0.000156554
-6.16641e-05
0.000218218
2.66669e-05
-2.65779e-06
-2.40141e-05
-4.80055e-05
-4.39352e-06
7.46633e-06
-3.06632e-06
-2.08505e-05
-2.4524e-05
-3.7444e-05
1.34791e-05
1.63143e-05
-6.93137e-06
4.5249e-06
0.000148463
2.33954e-06
-4.45703e-06
2.11841e-06
8.12881e-06
5.78762e-06
-4.02047e-06
1.10422e-05
7.3124e-05
-0.00104364
0.000970565
-2.6433e-05
-3.00258e-05
5.64608e-05
1.05055e-06
-3.31415e-05
3.20909e-05
-0.00102897
4.9005e-05
0.000980016
-1.35077e-06
-2.15882e-05
9.4918e-05
-8.33485e-05
-1.0942e-05
3.18263e-06
7.75521e-06
5.0123e-05
-2.03374e-05
-0.00063975
0.000622073
1.76936e-05
-3.95323e-05
3.08906e-06
3.64452e-05
-2.84043e-05
-3.91858e-06
3.23199e-05
-0.000230989
-0.000402284
0.000633278
-3.07517e-05
5.93241e-07
3.01587e-05
7.90296e-06
-1.71673e-06
-0.000339906
0.000193247
0.000146641
2.41898e-05
2.20992e-06
5.3472e-06
-7.55739e-06
-6.14035e-06
1.43524e-05
-8.21206e-06
-3.74324e-06
1.40346e-06
2.33547e-06
-7.46889e-06
1.32199e-05
-5.75107e-06
1.61672e-05
-1.96764e-05
3.5096e-06
-6.12411e-05
5.96275e-05
-9.71571e-06
1.80012e-08
9.6948e-06
-3.22718e-06
-1.27793e-05
1.60033e-05
0.000559286
-0.000486171
0.000622505
-0.000797578
0.000175149
-0.000481128
0.000640324
-0.000159207
-0.000318466
-0.000304354
0.000390344
-2.20289e-05
-3.29816e-06
2.53263e-05
-8.75424e-05
-4.54791e-05
0.00013302
2.61311e-06
-5.47558e-06
2.8602e-06
-0.000410017
0.000338432
7.15898e-05
-4.96537e-05
-9.7329e-05
0.000146985
2.06576e-05
1.84814e-05
-3.91535e-05
-6.83014e-05
2.16662e-05
9.277e-06
-2.44506e-05
1.51746e-05
4.04847e-06
-1.43616e-06
1.17514e-05
-1.4977e-05
-0.000111246
-0.000405101
0.00051633
7.42016e-05
-0.000197727
0.00012349
5.96803e-08
-2.40238e-05
2.39643e-05
1.53314e-05
3.67727e-05
2.18895e-06
-5.6573e-06
3.46872e-06
4.49346e-06
-2.15339e-06
-6.63132e-06
1.79118e-05
0.000736293
-0.000707261
1.91033e-05
5.02598e-06
-8.59135e-06
7.08318e-06
-2.13508e-05
7.96424e-06
-7.50038e-06
-4.64869e-07
1.33061e-07
-4.58953e-06
-0.00041143
0.000447187
-3.57372e-05
0.000390194
-0.000238777
-2.05101e-05
9.6018e-07
1.9551e-05
0.000571701
0.000497637
-8.85062e-06
1.38122e-06
-4.28459e-06
-7.23361e-06
1.8499e-05
-8.8048e-06
-9.69508e-06
0.000358415
4.2491e-05
-0.000400884
-8.57098e-05
-0.000324388
-2.92173e-06
3.14476e-06
-2.23914e-07
-1.33569e-06
9.58443e-07
3.76581e-07
9.93093e-06
1.67322e-05
0.000500984
-0.000154085
-0.000346945
0.000597139
-1.80217e-05
-0.000211591
-1.1809e-05
2.1739e-05
5.53217e-06
6.32968e-06
-1.18592e-05
2.03109e-05
1.5493e-05
-3.5801e-05
-8.38694e-06
1.44724e-06
6.94298e-06
3.14948e-05
3.81826e-07
-3.18748e-05
-3.852e-05
-4.95895e-07
0.000253624
-0.00030392
5.02813e-05
-0.000252827
9.62705e-05
6.68021e-06
-1.30458e-05
8.13386e-07
2.13521e-05
-2.21643e-05
3.57009e-05
1.77228e-05
-5.34247e-05
-2.49315e-06
-0.000231619
4.91141e-05
0.000182516
-7.33796e-06
1.28734e-05
-0.000102609
-0.000138678
0.000360591
-0.0004118
5.12125e-05
-2.26368e-05
4.295e-05
0.000680753
-6.81849e-05
-1.30739e-06
2.51621e-06
-1.20871e-06
1.4892e-05
-0.00050035
0.000407484
9.29436e-05
-7.62097e-05
3.58762e-05
4.03389e-05
7.34361e-06
-1.35331e-05
1.10294e-05
7.46433e-06
0.000109009
0.000179089
-0.00028804
-4.03869e-05
4.06476e-06
3.63259e-05
1.43479e-05
-1.13014e-05
-2.46648e-06
1.1592e-06
0.000315895
-0.000136473
-0.000179455
0.00085738
-0.000234819
-0.000137194
0.000212609
-0.000275854
6.32583e-05
4.8477e-06
-9.29001e-06
4.44185e-06
-7.64751e-07
9.67755e-06
-8.91551e-06
-5.8207e-06
-1.83544e-05
2.41729e-05
5.11304e-06
-1.19123e-05
6.79786e-06
0.000766909
-0.000575755
-0.000191188
-4.41518e-06
9.26285e-06
4.31426e-06
-4.77635e-06
4.61987e-07
5.94225e-06
-3.61457e-06
5.45328e-05
-0.00057591
0.000521347
-5.54053e-06
3.43175e-06
-3.81375e-05
8.02285e-05
-4.20936e-05
-1.75219e-06
2.54109e-06
0.000381212
9.99472e-06
-6.25342e-05
5.25516e-05
-0.00032127
-0.000412299
0.000733569
5.56927e-05
-8.84547e-05
3.27547e-05
-1.82175e-05
-0.00101076
6.48816e-07
-2.29294e-05
-5.26636e-05
-4.23948e-06
0.000487579
-0.000525621
3.80494e-05
1.54375e-05
-2.90198e-05
1.35828e-05
-1.81731e-05
-2.83772e-05
-5.87495e-05
0.000450409
-0.00039166
-0.000313103
0.000146944
0.000166693
-7.4871e-06
1.48284e-05
0.000390123
-0.000621079
-5.54952e-06
1.73031e-05
2.38683e-05
4.89454e-05
-7.28116e-05
2.18807e-07
-7.09871e-07
4.93106e-07
-0.000429932
-7.04585e-05
-0.00046628
0.000161926
-2.02302e-05
-0.000114604
0.000134828
5.89233e-05
-1.58149e-05
-4.31041e-05
-2.96482e-05
0.00039186
-0.000362189
-0.000823274
0.000294659
0.000528553
-6.58537e-05
-9.83143e-05
0.000164168
-2.0771e-05
1.21893e-05
8.58397e-06
2.50427e-05
-3.20515e-06
-2.18435e-05
-1.50962e-05
-3.2598e-05
-4.3041e-05
-1.36022e-05
5.6658e-05
-1.28849e-05
7.74138e-06
5.14139e-06
-0.000272246
0.00019085
-4.5447e-06
1.12259e-05
-0.000149281
-0.000549627
-3.97888e-07
5.31801e-07
-0.000204388
-0.000135529
1.44916e-05
-2.63016e-05
-2.48936e-05
-1.32092e-05
-1.84601e-06
1.50554e-05
-0.000123099
0.000438983
-1.94019e-05
-2.05361e-05
-0.000982179
-0.000112
0.00109418
1.3771e-05
3.52329e-06
-1.72959e-05
1.20142e-05
2.06118e-05
-3.26253e-05
-4.90767e-05
0.000409676
2.27337e-07
0.00017174
-0.000171977
-0.000137631
4.02932e-05
2.88132e-05
-2.64651e-05
-2.3474e-06
-4.65994e-06
-5.90649e-06
1.05677e-05
-9.40602e-05
0.000530439
-0.000436366
-1.50487e-05
0.000130218
0.000135032
0.000202495
0.000298466
2.54204e-05
-7.89546e-06
-1.75245e-05
2.27377e-05
-3.3232e-05
1.04997e-05
-0.000262325
0.000485213
-0.000222874
-3.55636e-05
4.81178e-06
4.66391e-05
-6.13188e-05
1.46767e-05
9.71284e-06
2.51983e-06
-1.22309e-05
3.05774e-05
-7.83641e-06
-1.53674e-05
5.10666e-05
-0.000125267
-0.000260465
0.000385747
0.000446343
0.000109135
-0.000555473
6.07062e-05
-0.000223188
0.000162482
-1.24606e-05
4.70394e-06
7.75734e-06
-2.21862e-06
3.59208e-06
-1.02346e-05
-5.41253e-06
1.56465e-05
-5.3974e-05
4.79216e-05
6.04639e-06
-0.000487631
0.000225346
-2.34339e-05
4.6212e-06
1.88157e-05
-1.60708e-07
-9.55475e-06
-3.45238e-05
0.000247128
-2.52425e-05
2.58915e-05
-1.37532e-05
8.12242e-06
5.63229e-06
1.29034e-05
-1.07143e-05
-1.591e-05
-0.000328186
0.00034407
3.12083e-05
-5.76392e-05
2.23612e-07
-1.64281e-05
1.62056e-05
0.000289024
3.34232e-05
-0.000322488
-3.51103e-06
3.50082e-05
0.000328767
-0.000511525
0.00078949
-0.000277967
0.000269602
-0.000208382
-6.12315e-05
-0.000280445
-0.000542837
-0.000643638
0.000532377
2.17955e-05
-2.12097e-05
0.000119491
-0.000521675
0.000402184
5.76496e-06
2.19962e-06
-2.17802e-06
2.59675e-05
-2.37898e-05
2.44793e-05
0.000148975
-0.000173441
-2.53149e-06
-1.34998e-05
1.60283e-05
-8.35252e-05
-0.000898646
0.000193998
-0.000133295
-0.000243497
-0.000126081
0.000369535
-7.33614e-06
3.38777e-05
-1.65277e-05
-1.73539e-05
-0.000118788
3.5694e-05
2.44962e-06
-3.80042e-05
3.55562e-05
-4.20244e-08
4.14668e-07
-3.72534e-07
1.00061e-05
-4.89407e-06
-2.16532e-05
0.00027826
-0.000256619
-0.000202751
0.000136895
2.75229e-06
3.3788e-05
-3.6541e-05
0.000761593
-0.0005941
-0.000167466
2.19811e-05
-4.31281e-06
-1.76697e-05
-2.42353e-05
5.48627e-06
1.49162e-05
-1.9048e-05
0.000182528
-0.000426041
0.000520953
-0.000115828
-3.67863e-06
3.8977e-06
-0.000163241
7.10702e-06
-2.9137e-05
0.00041758
-0.000112474
-0.000305097
7.9597e-05
-0.000176611
-0.000531931
0.000586429
0.000355968
-5.52951e-05
-0.00030069
-1.53116e-05
0.00024393
0.000146271
-1.05454e-06
1.01275e-06
-3.13321e-06
2.11432e-07
-1.24879e-06
8.51975e-07
8.36325e-05
-3.98311e-05
-4.3805e-05
4.8518e-05
-6.72657e-05
1.87355e-05
-0.000598646
-4.11011e-05
-1.82646e-06
-4.45254e-06
6.27958e-06
-5.65027e-06
2.26415e-06
3.25295e-05
1.1439e-06
-3.36726e-05
-0.000604959
0.000508266
9.66949e-05
-4.94576e-06
9.07512e-06
-4.13197e-06
-3.88793e-06
-2.1279e-05
2.51695e-05
-0.000175015
0.000112236
6.27759e-05
-0.000102338
7.10383e-05
3.12986e-05
0.00012082
-0.000141055
2.0992e-05
1.28851e-05
0.000171362
0.000127601
-0.000299021
-4.74565e-06
-2.75803e-06
-0.000409754
0.000529244
7.81125e-05
0.000191492
-0.000134401
0.000155697
-0.000173722
0.00058165
0.000179976
-7.17287e-05
-4.70617e-05
1.26149e-05
-2.9015e-06
-1.12056e-05
2.66424e-05
-4.4977e-05
6.88464e-05
-2.51663e-05
6.92326e-05
-4.40644e-05
6.17565e-05
-1.32379e-05
2.98858e-05
5.54536e-05
-8.53398e-05
-0.000197989
0.000172241
2.57369e-05
-7.45108e-06
-2.28981e-05
1.82819e-05
4.61234e-06
2.43282e-05
-3.84255e-05
1.40861e-05
-1.24328e-05
-1.75817e-05
-0.00017419
0.000198671
-0.000123542
-0.00028544
0.000408975
0.000217865
-0.000543665
0.000325861
5.06347e-05
-8.87761e-05
0.000243073
-0.000859855
0.000616808
-2.51188e-05
4.57593e-05
5.62099e-06
2.54248e-05
-3.10472e-05
-3.4992e-05
3.77445e-05
-0.000104463
-0.000471455
-0.000118593
-0.000112232
0.000230815
0.000290629
0.00014588
-2.33132e-05
1.48025e-05
8.51078e-06
2.33664e-05
-2.98869e-05
6.52553e-06
0.000213171
-0.000110978
-6.40371e-05
-2.80037e-05
2.80483e-05
-4.43375e-08
-0.00012165
0.000129378
-7.72602e-06
-1.44344e-05
3.87597e-05
-7.52415e-06
-7.89015e-06
1.5412e-05
5.2931e-05
-5.01514e-06
-5.36623e-06
2.85241e-05
0.000330021
-0.000672975
0.000343018
1.87517e-05
9.03856e-07
-1.96562e-05
-1.3179e-05
2.5008e-05
-1.1831e-05
0.000124788
-0.000164964
4.01452e-05
1.48077e-05
3.14929e-06
-1.79485e-05
-1.11711e-05
-2.23884e-05
3.3562e-05
-1.33144e-05
8.21579e-06
5.09703e-06
-0.000337889
1.72559e-05
0.000320636
-8.67817e-06
-0.000556124
6.60022e-06
0.00054956
4.08782e-06
-8.48e-06
-0.00053128
0.000437225
-0.000184456
7.34773e-05
1.27498e-06
-4.77304e-06
3.4994e-06
-1.58491e-05
-5.89865e-06
2.17468e-05
0.000197958
-0.000123742
1.46934e-05
-4.11203e-05
2.6421e-05
-0.000661606
0.000214728
0.000446863
-5.67503e-05
0.000166816
-0.000110065
0.000585711
-0.000501074
2.41112e-05
4.68139e-05
-7.0929e-05
6.44873e-06
-2.23e-05
7.22175e-05
-5.33113e-05
-1.89104e-05
-1.7002e-05
1.08617e-05
-6.04915e-05
-4.15263e-05
0.000102022
-1.37651e-05
-0.00010788
-0.000221087
0.000478774
-0.000257682
1.79877e-06
8.55439e-06
-1.03519e-05
0.000147203
-0.000467194
0.000319985
2.88323e-05
0.000327121
-7.10621e-05
1.06269e-05
6.04255e-05
-2.79875e-05
9.8453e-06
1.8142e-05
1.47656e-05
-1.78089e-05
3.04133e-06
0.000342276
0.000178691
-9.92038e-06
5.8539e-06
4.06299e-06
5.73169e-05
-4.73188e-05
2.12346e-05
7.57836e-06
0.000115494
3.66976e-05
-0.00015219
-7.26125e-05
-3.046e-06
7.56529e-05
1.49701e-05
-7.18681e-06
-7.7835e-06
3.4967e-05
-4.67982e-05
1.18295e-05
1.40712e-06
-2.94107e-05
5.26605e-05
3.48424e-05
-8.74958e-05
5.01967e-06
2.75129e-05
-0.000186932
0.000138314
4.8623e-05
-1.13907e-05
9.40352e-06
1.98689e-06
8.89818e-05
0.000213275
1.5099e-05
-2.26246e-05
-4.88038e-06
1.86522e-05
0.00042171
-0.000177779
0.000206366
-3.33872e-05
-0.000172979
-2.00801e-05
0.000144852
-0.000270123
6.17331e-05
-1.81239e-05
7.72474e-06
1.04021e-05
-1.69014e-05
5.09029e-05
-3.40013e-05
-8.10173e-05
8.40427e-06
-1.58482e-05
-7.46477e-06
-3.14129e-06
-6.06309e-07
-1.3122e-06
-1.53785e-05
1.66898e-05
-1.42051e-05
9.41189e-06
4.79836e-06
-2.3797e-05
-4.7273e-05
-0.000110145
-7.43126e-05
-0.000119115
-6.78122e-05
-0.00037609
-0.000257683
0.000633773
-1.11155e-05
-3.08506e-06
-2.00584e-05
1.11553e-05
8.90617e-06
-9.92581e-05
0.000785034
-0.000685768
1.99718e-05
-1.54272e-05
-4.54456e-06
0.000184178
5.76578e-05
4.18987e-06
-4.40684e-05
3.9879e-05
-2.31832e-05
1.52559e-05
7.92747e-06
-0.000218019
-0.000443571
0.000427895
-9.79339e-05
-0.000329963
-8.87412e-06
-2.51666e-06
0.000223446
2.91608e-05
-0.000252603
-2.55676e-05
7.82349e-05
0.000112821
0.000279045
4.51273e-05
-2.1809e-05
-2.33177e-05
3.89113e-05
-1.22059e-05
-2.6709e-05
-2.12082e-05
6.97883e-07
-4.82674e-07
-3.90478e-05
6.61583e-06
1.88056e-05
3.58176e-05
-0.000166034
0.000130235
-7.26616e-06
-3.12804e-05
3.8548e-05
-1.38005e-05
9.21077e-06
4.59061e-06
1.15652e-06
-1.71817e-05
-1.01549e-05
2.73374e-05
2.12915e-05
-2.54062e-06
0.000225633
-0.000349181
-0.000269484
-4.32298e-05
9.76025e-06
5.65163e-06
-1.54123e-05
-0.000312455
-0.000320441
0.000632908
-1.33813e-05
3.42974e-05
-2.09162e-05
0.000307035
-0.000322962
-3.63161e-05
2.2933e-05
-9.79791e-05
-0.00012992
0.000228078
-0.000437242
0.00015964
0.000277608
-1.76956e-05
1.57127e-05
1.98402e-06
0.000113039
2.08863e-05
-0.000348762
4.92681e-05
0.000299492
-2.48256e-06
-8.07129e-06
1.0552e-05
0.000178557
-0.000690084
4.57941e-06
-3.45176e-06
-1.12673e-06
-1.2243e-05
1.22451e-05
-9.24152e-05
-0.000301757
0.000394153
0.000151552
5.48123e-05
0.000265654
-9.43039e-05
-1.48124e-05
0.000105222
-7.30288e-05
-3.22005e-05
4.87644e-05
-0.000109255
4.03156e-06
3.51422e-05
-0.000136127
0.000263721
0.000366478
-0.000704185
0.000337713
1.20632e-05
1.7191e-06
-1.37799e-05
3.67039e-06
-1.39038e-05
-2.55589e-05
2.86953e-05
-3.13383e-06
-1.08052e-05
-2.99517e-06
7.01117e-05
3.5104e-05
-1.37268e-05
-1.88957e-07
1.3917e-05
1.77602e-05
9.56099e-06
-2.73204e-05
-1.54317e-09
4.03041e-05
-4.03002e-05
-8.93118e-05
-0.000391816
-9.395e-06
-7.62931e-06
1.70268e-05
2.07963e-05
-2.61631e-05
7.33201e-05
-4.92134e-05
1.47658e-05
-5.09561e-05
1.75507e-06
4.92082e-05
-0.000131467
-0.000340666
0.000472128
-4.253e-06
-6.85886e-06
-4.69001e-05
1.43672e-05
3.25422e-05
2.37847e-05
-1.77865e-07
-2.36058e-05
0.000321196
-1.07237e-05
-0.000310392
-0.0004867
0.00076586
-0.000279164
0.000409668
-0.000418621
8.94859e-06
0.0002553
0.000397115
-0.000652308
-4.41997e-05
1.26971e-05
3.14974e-05
-8.15206e-06
-1.52798e-05
-7.43139e-05
-0.000191633
0.00026595
1.82334e-05
-2.94039e-05
3.44602e-06
6.02345e-07
-1.14044e-05
-5.10807e-06
1.6513e-05
-3.46252e-05
-9.57392e-06
-2.34321e-05
5.8498e-06
1.75826e-05
-0.000193675
-0.000393139
-1.92284e-06
-0.000196103
-1.23153e-05
2.14602e-05
-9.1488e-06
-3.15678e-05
-0.000451531
-0.000104583
-8.74352e-06
-7.66379e-05
8.53798e-05
1.36609e-05
2.50588e-06
1.85921e-05
7.40311e-06
-2.59939e-05
2.87008e-05
-3.2189e-05
3.4866e-06
-0.000344181
4.54278e-05
-1.04667e-05
1.18248e-05
-1.20938e-05
2.69576e-07
-0.000378852
2.9102e-05
4.27797e-06
-4.45216e-06
1.73774e-07
2.16702e-05
-1.85427e-05
-3.12687e-06
-3.23269e-06
-9.22757e-06
-1.12068e-05
9.60932e-06
-1.49548e-05
4.47614e-06
8.4275e-06
2.73232e-05
-3.8847e-05
1.15224e-05
1.87677e-05
-3.96092e-06
2.40054e-05
-2.29618e-05
-1.04433e-06
7.00845e-06
1.72675e-06
-8.73551e-06
0.000176828
-0.000586581
0.000317521
3.64305e-06
2.75258e-06
-2.24307e-05
4.5125e-06
-3.47209e-06
-1.04056e-06
-1.96282e-06
2.93776e-05
-2.74144e-05
2.60903e-05
-7.49695e-06
-1.82755e-05
-2.84102e-06
2.11192e-05
-5.70533e-07
-7.65209e-07
1.37801e-05
2.51407e-06
-1.62954e-05
-1.1425e-05
7.17338e-06
1.50091e-05
-2.16919e-05
6.67966e-06
-0.000627705
-0.000160016
0.000787733
7.36332e-06
-5.1536e-06
-0.000780866
0.000681605
-0.000473031
-0.000180465
0.000653499
0.000147938
0.00061896
3.12885e-06
-1.13626e-05
8.23371e-06
-0.000678282
0.000302193
0.000815758
-0.000282542
-0.000533191
-1.30304e-06
-1.01329e-05
1.14339e-05
3.02131e-05
-3.19887e-05
1.77716e-06
-0.000184185
0.000475135
-0.00029097
-2.35666e-05
-1.99102e-06
-8.89241e-05
-1.34149e-05
3.23594e-05
1.392e-05
-4.6279e-05
0.000159731
-0.000159508
2.3568e-05
1.30086e-05
-3.65691e-05
-0.000569801
-3.51628e-05
3.84258e-05
-2.37353e-05
-6.74784e-06
3.77669e-05
-3.10179e-05
-0.00032672
0.000621444
-0.000221594
-1.2527e-05
0.000234111
1.29133e-05
-2.23068e-05
3.22858e-05
-3.12355e-05
7.12324e-06
-6.29913e-06
-8.24535e-07
2.12919e-05
1.34138e-06
-2.26345e-05
-0.000217809
7.45461e-05
0.000143267
-1.04054e-05
1.57601e-05
-5.35418e-06
-6.46754e-06
2.98354e-05
-0.00020716
0.000285269
-0.000467658
0.000857792
0.000245538
-0.000254577
9.0259e-06
-5.54237e-06
2.93266e-05
0.000412343
-0.00026516
0.000248643
-0.000575335
-1.83371e-06
1.2233e-05
-1.03932e-05
5.40108e-06
-3.3807e-05
-1.37665e-05
-0.000395786
0.000409561
5.99614e-06
-4.56358e-06
1.52466e-05
-2.40933e-05
8.84595e-06
0.000174661
-0.00024897
-0.000614833
0.000510364
5.84659e-05
1.49905e-05
-1.32732e-06
-4.77625e-06
1.43858e-05
-1.11599e-06
-1.10238e-06
0.000196425
-0.00017981
-0.000291274
0.000364563
6.77114e-06
-4.68429e-05
4.00671e-05
-0.000217819
0.000696583
0.000289766
2.69817e-05
-0.000316899
-0.000132003
2.78986e-05
0.000104101
-5.01487e-05
0.000425271
0.00039573
-0.000821028
0.00055059
-0.000301034
-0.000249571
8.7808e-05
9.22095e-05
-0.000179987
9.0178e-06
-4.62487e-05
3.72295e-05
-0.000606299
0.000529346
7.69895e-05
2.2622e-05
-3.23664e-05
3.84924e-05
-6.12504e-06
1.95529e-06
4.10995e-06
-6.06504e-06
-6.97776e-06
-1.50898e-05
2.20654e-05
-0.000254668
0.000210954
4.36982e-05
-1.97051e-05
2.71088e-05
4.25559e-05
-1.35978e-05
-2.8955e-05
1.68279e-05
-4.5814e-05
2.89823e-05
3.79029e-05
-3.38689e-05
0.000197529
6.04316e-05
-0.000257958
0.00010109
-0.000744733
-4.62432e-06
1.6761e-05
-1.21309e-05
3.11919e-06
3.18399e-06
-6.30353e-06
3.37782e-06
-5.37424e-06
1.99624e-06
-5.39271e-06
-5.55198e-06
-4.39279e-05
-1.65063e-05
6.04244e-05
7.33182e-06
0.00040233
0.000107816
0.000181878
-0.000235416
0.000490848
-1.81791e-05
-5.00438e-06
0.000146753
-0.000774471
2.05639e-05
-1.50154e-05
1.1951e-05
-1.6267e-05
4.31892e-06
-0.00019022
3.55048e-05
0.000154717
4.63764e-05
-4.46192e-05
2.07999e-07
6.91448e-06
-5.38695e-05
0.000174838
-0.000120966
-7.28329e-06
6.40884e-06
8.77408e-07
-0.000455296
0.000107442
0.000347914
2.88364e-05
1.10655e-05
-3.98979e-05
4.01e-05
-6.22199e-05
2.21182e-05
0.000550649
-0.000373821
-0.000291278
-2.40707e-05
0.000315292
3.39933e-05
-4.58966e-05
1.19103e-05
-9.73311e-06
-8.95752e-06
4.76157e-05
-2.33223e-06
-4.52823e-05
4.07815e-06
-8.764e-06
4.68803e-06
0.00017967
-0.000143365
-3.6308e-05
0.000525407
-0.000178446
-0.000346944
-7.62429e-05
4.42646e-05
3.19768e-05
0.00027693
-0.000744615
3.62276e-05
3.34071e-06
-3.26064e-05
-1.86718e-05
-1.12517e-05
2.99242e-05
0.000161085
-0.000101362
-5.97202e-05
-4.27792e-07
1.42076e-05
3.44003e-06
8.38218e-07
-2.83783e-05
1.35354e-05
1.48436e-05
1.2789e-05
-4.66043e-06
-2.14764e-05
-0.000210136
4.40171e-06
1.61674e-05
-4.47039e-06
1.65357e-05
2.96723e-05
-1.8197e-05
-1.14787e-05
-1.23936e-05
-5.3008e-06
0.000247981
-2.46703e-06
4.69825e-05
-3.61954e-05
-1.07879e-05
-6.7101e-06
-2.04717e-05
2.7182e-05
0.000109454
-0.000228037
3.25603e-05
-3.01099e-05
2.47291e-05
3.0939e-07
-1.45133e-05
1.67399e-05
-2.2259e-06
9.85506e-06
2.93241e-06
0.000535276
1.8937e-06
-3.68848e-05
-1.42991e-05
2.23058e-05
-8.00577e-06
1.22991e-05
3.0258e-05
2.89817e-06
2.4607e-07
0.000161906
0.000255678
6.81251e-06
-1.88892e-07
-6.61817e-06
-9.70508e-06
-9.67545e-06
1.93822e-05
-0.000230338
0.00030754
-7.72064e-05
-5.39633e-06
-1.88367e-06
-1.13611e-05
-1.70175e-05
8.1898e-05
-9.29149e-05
1.10117e-05
-3.68047e-06
8.70595e-06
-2.1219e-05
0.00076091
-0.000517848
0.000645405
-0.000638833
0.000909809
-0.000846378
-6.34256e-05
2.51795e-06
-4.85503e-06
2.33701e-06
3.30576e-07
3.75817e-05
1.14286e-05
2.28713e-05
1.23858e-05
-8.96349e-06
-3.42185e-06
1.18269e-05
-3.05516e-06
-8.77119e-06
-4.07651e-05
-3.54431e-05
2.37081e-05
-3.06863e-05
2.75638e-05
-3.48296e-05
7.6008e-06
-2.57059e-05
1.33341e-05
-2.56621e-05
1.23273e-05
-0.000382134
0.000273475
0.000108652
-3.65816e-05
0.000244018
-9.27274e-05
-0.000151292
-0.000171554
0.000114806
-4.4492e-05
7.43779e-05
5.21596e-06
-1.56235e-05
2.64901e-06
-0.000159099
0.000105233
3.46797e-05
-2.41119e-05
-1.05634e-05
2.05333e-05
1.11435e-05
-3.16793e-05
-2.52928e-05
1.12433e-05
1.4053e-05
-3.45143e-05
3.64082e-05
-0.000662989
0.000710561
-4.76221e-05
-1.27553e-05
4.9585e-06
7.79658e-06
-1.00514e-05
3.16832e-05
-2.16268e-05
-1.6979e-05
-1.15254e-05
2.85033e-05
-1.37003e-06
8.18273e-06
0.000222398
8.59494e-06
4.53371e-05
0.000401006
0.000362886
-0.00049436
5.26009e-05
8.49212e-05
-0.00013752
-2.4293e-05
-2.41745e-05
-1.35788e-05
-1.17842e-05
2.53642e-05
-6.99771e-06
1.67599e-05
-2.30374e-05
3.32545e-05
-1.02163e-05
-1.32483e-05
1.32483e-05
-4.39352e-06
-2.05156e-05
3.07656e-05
-1.02501e-05
4.38658e-05
2.51121e-06
6.97964e-05
-6.92051e-06
-6.28799e-05
5.17872e-06
-4.91104e-05
-1.16376e-05
-1.40701e-06
1.3042e-05
-3.92554e-05
0.000236785
0.000227893
8.17075e-05
-0.000309459
1.17001e-06
4.58117e-05
-1.68887e-05
4.29788e-06
1.25906e-05
-4.0162e-06
5.97169e-06
-2.39124e-05
9.61831e-05
-7.22719e-05
-3.80277e-05
5.09038e-05
1.83349e-05
-6.6287e-05
5.45287e-05
1.17638e-05
2.67387e-05
-1.7806e-05
-8.9327e-06
1.25102e-05
-1.06232e-05
-1.8871e-06
0.000454549
-0.000164125
-0.000290367
0.000272191
-0.000658812
0.000386627
-1.5367e-05
2.44482e-05
-9.08379e-06
3.33986e-05
-2.19692e-05
-0.000667848
0.000768934
9.10196e-06
-2.77733e-05
5.12666e-07
2.68107e-05
-2.73199e-05
-0.000842418
0.000758126
8.43581e-05
5.42804e-05
6.70168e-06
-6.09891e-05
-1.90256e-05
-3.35154e-05
5.25419e-05
1.1361e-05
1.02474e-06
-6.59659e-06
2.45022e-05
-1.79016e-05
6.19918e-05
-3.70005e-05
-2.49901e-05
6.44089e-05
0.000180504
-0.000244898
-3.31678e-05
1.013e-05
5.23126e-06
9.23367e-06
-1.447e-05
-2.6301e-05
2.61722e-05
1.29328e-07
-1.2261e-05
-5.86139e-06
-2.00547e-05
7.73509e-06
0.000139721
-8.71161e-05
0.000196118
-0.000108303
-2.52968e-05
1.87035e-05
9.52222e-06
7.23742e-05
9.74581e-07
-8.56435e-06
-0.000209505
-0.000172635
-5.80244e-06
1.46922e-06
-2.77706e-05
-0.0008207
-8.02017e-05
-1.52057e-05
5.951e-05
-1.05651e-05
-2.92418e-05
3.31728e-05
-3.92691e-06
-9.51447e-05
3.1009e-06
9.20404e-05
-1.18275e-05
6.3505e-07
-3.2524e-05
3.18901e-05
3.98494e-06
2.00724e-06
2.01852e-06
-1.08928e-05
-6.54877e-06
-6.33681e-06
0.000141843
0.000102173
-1.99714e-05
0.000213219
-3.73753e-05
-3.8873e-05
-1.50894e-05
5.87519e-05
-4.36635e-05
-4.20801e-05
1.74872e-06
4.03305e-05
1.04297e-05
-7.48057e-06
-2.94943e-06
0.000121075
-0.000249669
0.000128592
8.63307e-06
-7.70941e-06
-9.21991e-07
-1.8635e-05
-2.13397e-06
-0.000166744
0.000231145
-3.22732e-06
-1.18763e-05
1.51029e-05
-2.29779e-05
1.05443e-05
-0.000124419
-0.000103299
0.000227718
-2.72605e-06
-0.000408691
2.5946e-05
-2.05903e-05
-5.35964e-06
8.01702e-06
-7.02548e-06
-9.94373e-07
7.4448e-06
7.52569e-06
-1.25881e-05
6.68669e-05
-0.000233805
0.000109385
-2.08473e-06
1.40249e-06
6.84337e-07
-0.000187964
0.000154574
-0.000433273
-1.61067e-05
-5.01739e-05
0.000147671
-3.21802e-05
-9.88286e-06
1.51083e-05
-0.00034039
-8.37139e-06
7.83406e-06
-8.25332e-07
-9.41488e-06
-9.08964e-06
1.85012e-05
9.95689e-05
-8.47306e-06
-9.10873e-05
2.33293e-05
-1.31611e-05
-1.0168e-05
4.14739e-05
0.000238145
-0.000279615
-2.29108e-05
5.56636e-06
1.73464e-05
0.000413984
-0.000288051
-0.000125912
-1.73003e-05
-7.78471e-05
-2.91852e-05
-5.6028e-08
3.93851e-06
-2.66434e-06
-5.53852e-06
-9.2279e-05
2.7756e-06
2.95091e-05
1.09072e-07
-2.53529e-05
0.000635484
-0.000127998
-0.000507502
-0.000656405
0.000343959
-0.000296525
9.71398e-05
0.000199387
9.76299e-06
-1.53279e-05
5.56876e-06
3.53504e-06
-2.05519e-05
1.70167e-05
-0.000719697
0.000501875
0.000410927
-0.000499465
8.85534e-05
7.35033e-05
-0.000328651
0.000255143
-9.12751e-05
0.000123154
-3.18828e-05
-5.5449e-06
2.60757e-05
1.24317e-05
-2.94113e-05
-1.19198e-05
2.71666e-05
2.78958e-05
6.7085e-06
-3.46049e-05
2.62092e-05
0.000664093
-1.86854e-05
-2.26173e-05
3.07991e-06
1.95351e-05
-0.000268892
0.00022375
4.51396e-05
1.34255e-05
-1.45835e-05
1.15922e-06
0.000198863
5.47515e-05
-0.00075667
0.000750405
6.25671e-06
6.36228e-06
-3.24341e-06
0.00035013
-6.11321e-05
0.000229113
0.000146275
-0.000375398
-0.000661657
0.000443657
-1.18543e-06
5.20873e-05
-1.80953e-05
-1.23524e-05
1.84505e-06
1.05111e-05
-9.20134e-06
-1.96446e-05
2.88447e-05
7.12647e-05
-1.55754e-05
-4.47244e-06
-7.87724e-06
-4.48552e-05
1.09796e-05
3.38685e-05
-3.33627e-05
7.92148e-06
2.54448e-05
1.91985e-05
-6.17712e-06
-1.30219e-05
2.76185e-05
-7.82716e-06
-1.97907e-05
-3.58376e-05
3.79645e-06
1.65608e-05
-2.03577e-05
1.9487e-05
-2.08379e-05
-3.44108e-06
-7.14077e-06
1.05827e-05
-0.000409647
0.000424463
-1.48353e-05
0.000411643
-0.000353184
0.000143675
2.69446e-05
-2.22525e-05
-4.69274e-06
6.00673e-06
6.37868e-05
0.000319033
-0.000377786
5.8817e-06
-1.32985e-05
7.41729e-06
0.00037131
0.000480593
-9.18448e-05
-0.000388751
0.000146983
-0.000438253
0.000290458
1.82347e-05
4.84364e-06
-5.02572e-05
2.42183e-05
2.6029e-05
2.27261e-05
-2.12251e-05
-1.49044e-06
0.000324368
0.000232468
-0.000556834
-2.75391e-06
-7.01804e-06
9.7748e-06
-6.15412e-05
1.35996e-05
4.79396e-05
9.69462e-06
1.49715e-05
-2.46653e-05
0.000276109
1.02996e-05
-6.12784e-06
-4.1736e-06
-0.000265172
7.2365e-05
0.000192808
-0.000106495
-0.000228268
0.000334756
-3.56905e-06
-6.40032e-06
9.9733e-06
-5.09159e-05
-1.63784e-05
1.46502e-06
1.49167e-05
-0.000157899
-0.000195294
-2.11246e-05
-3.72556e-06
2.485e-05
-2.15596e-05
6.07598e-06
1.54853e-05
-1.11812e-05
8.69733e-06
2.85892e-05
-0.000270022
0.000418475
-0.000148475
5.12906e-06
2.88404e-06
-2.71633e-05
7.4579e-06
-3.04629e-05
9.94737e-06
2.05039e-05
7.11655e-06
8.75181e-05
0.000215968
-0.000303487
1.95571e-05
-2.64903e-05
6.93245e-06
1.28881e-05
-9.08176e-06
-3.80535e-06
-7.99602e-06
2.75523e-05
-1.28896e-05
9.02718e-06
3.86123e-06
-1.274e-05
-1.01717e-05
0.000489627
-0.000638906
1.47076e-05
-3.97867e-06
-1.07317e-05
2.65749e-05
2.26175e-06
-2.88404e-05
-9.93599e-05
0.000135773
-3.64101e-05
-5.24093e-05
2.02474e-05
4.53649e-06
-1.97697e-06
-1.0087e-05
-1.52054e-05
-0.00031494
-0.000138982
0.000453943
1.30128e-05
1.03167e-05
-9.82131e-06
6.38107e-06
-3.4473e-06
-1.672e-05
2.01664e-05
2.00961e-05
6.84814e-06
-2.46329e-05
-0.00029371
0.000195985
9.774e-05
-3.40248e-05
1.50009e-05
-1.51547e-05
0.000227756
0.000533153
1.79212e-05
-1.32787e-05
-4.64131e-06
1.95185e-05
-2.51709e-05
5.65155e-06
6.1816e-05
-9.17693e-05
2.9955e-05
0.000141208
-0.000170658
2.94481e-05
-0.00034885
7.48213e-05
0.000273989
-1.17802e-05
-9.77903e-06
0.00014996
-2.91472e-05
1.85123e-05
7.43449e-06
-5.39767e-05
5.22145e-05
1.76018e-06
1.80551e-05
-2.72016e-05
9.15029e-06
0.000470498
0.000180594
-0.000651095
-8.08865e-06
1.06734e-05
-2.58498e-06
4.83077e-05
0.000723393
-0.000495641
2.78724e-05
-1.75679e-05
-1.0305e-05
-6.79901e-05
2.3015e-05
-7.39535e-07
6.27885e-06
-5.54061e-06
-9.56249e-06
1.88395e-05
-4.01271e-05
1.03568e-05
2.97637e-05
8.34125e-05
-0.000107325
0.000123324
-0.000383092
0.00025974
-3.1185e-05
-2.17533e-06
8.99486e-06
-2.6722e-05
2.86368e-06
1.63352e-05
-0.000320031
-1.62886e-05
-1.14774e-05
2.7767e-05
-8.70801e-08
1.89732e-05
-1.8886e-05
2.07304e-05
2.00315e-06
2.78216e-06
7.11587e-06
-9.89734e-06
-1.10272e-05
-1.86458e-06
-1.7753e-05
1.93465e-05
-1.59514e-06
7.60303e-06
5.28555e-06
0.000578678
-1.61021e-05
-5.11265e-05
6.7219e-05
-9.03625e-06
-1.42139e-05
2.32527e-05
5.19665e-06
2.94854e-05
0.0011707
-0.000536429
-0.000634269
-0.000432558
0.000659588
-0.000227031
-0.000951167
0.000874797
-0.000318428
8.80876e-05
-0.000301283
0.000165149
2.10674e-05
6.02654e-07
2.0226e-06
2.89506e-06
-4.90746e-06
1.07378e-05
-2.4316e-05
-1.97343e-05
0.000774588
-0.000754839
0.000436274
4.43156e-05
-4.26346e-05