/*--------------------------------*- C++ -*----------------------------------*\
| =========                 |                                                 |
| \\      /  F ield         | OpenFOAM: The Open Source CFD Toolbox           |
|  \\    /   O peration     | Version:  v2012                                 |
|   \\  /    A nd           | Website:  www.openfoam.com                      |
|    \\/     M anipulation  |                                                 |
\*---------------------------------------------------------------------------*/
FoamFile
{
    version     2.0;
    format      ascii;
    class       volScalarField;
    location    "200";
    object      k;
}
// * * * * * * * * * * * * * * * * * * * * * * * * * * * * * * * * * * * * * //

dimensions      [0 2 -2 0 0 0 0];


internalField   nonuniform List<scalar> 
27915
(
0.000149225
0.00020193
0.0297241
0.0584894
0.00017466
0.000151724
0.0839304
0.000177559
0.00017702
0.000181012
0.000159841
0.000148975
0.000263464
0.043173
0.0653095
0.000153852
0.0291353
0.0001706
0.076498
0.000150632
0.0423372
0.0001477
0.030901
0.000149206
0.000147001
0.000147137
0.000147736
0.0002595
0.060619
0.0604506
0.000191412
0.000145985
0.0291111
0.000150677
0.0832167
0.000147733
0.000148038
0.000161822
0.000168159
0.000154881
0.00014753
0.000161006
0.000147989
0.000205216
0.000213208
0.00014906
0.000148541
0.000166698
0.00014838
0.000147583
0.000167664
0.000205075
0.000206014
0.000154823
0.000357409
0.0269807
0.0467646
0.000148865
0.000147677
0.0588523
0.000145999
0.000168935
0.000187898
0.00117738
0.000149906
0.000157455
0.000172418
0.000210868
0.0544296
0.000153377
0.000161339
0.0643373
0.000147691
0.000146903
0.000160371
0.000172061
0.000192115
0.000157698
0.0100709
0.000149098
0.00016087
0.000154994
0.000147093
0.000147526
0.0257249
0.000145556
0.000148361
0.00015331
9.03087e-05
0.000170848
0.000147886
8.45017e-05
0.000153655
0.000190996
0.000152732
0.000167942
0.0306279
0.000157156
0.00014761
0.0730323
0.000147252
0.000149156
0.0827707
0.000161402
0.000147897
0.000149886
0.000148044
0.000172069
0.000172826
0.0001804
0.000148778
0.000150624
0.000431946
0.0486002
0.00979186
0.000211907
0.0819019
0.000147559
0.000176852
0.00014448
0.000225252
0.000176536
0.000181873
0.00017112
0.000151186
0.000144719
0.000150673
0.0420275
0.000192383
0.00015364
0.000154707
0.000147771
0.000145541
0.0307075
0.0230648
0.0138162
0.000147474
0.000146949
0.00015539
0.000145549
0.0658946
0.0613203
0.00015358
0.064871
0.000171239
0.000150143
0.000149535
0.0435434
0.000222675
0.000148157
0.000147926
0.000157758
0.000209234
0.0311908
0.000189123
0.00015734
0.000149019
0.000148665
0.000152816
0.000153052
0.000168615
0.000192608
0.000191781
0.000148422
0.000148241
0.000153728
0.00700278
0.000206225
0.000148848
0.000199132
0.0751013
0.000148641
0.0310787
0.000147835
0.000149949
0.000210099
0.000172609
0.00014928
0.000149384
0.000417363
0.000148565
0.000173153
0.000147917
0.0138775
0.0473049
0.00017696
0.000188901
0.00014814
0.027703
0.000161962
0.000148452
0.000233926
0.000148169
0.000148078
0.000147766
0.0251224
0.000148976
0.000163776
0.0112342
0.0854763
0.000187647
0.000917419
0.000162285
0.000219811
0.000148498
0.000157601
0.0529604
0.000155848
0.000159393
0.000209412
0.0704776
0.00014912
0.0723231
0.000150624
0.000177837
0.000147784
0.000210968
0.0783526
0.000177944
0.000162094
0.0445549
0.000226993
0.000191198
0.000148631
0.000159329
0.000162202
0.000174743
0.000148587
0.000361129
0.000148288
0.0386918
0.000145593
0.0816905
0.000157124
0.000148683
0.000149424
0.00882745
0.000151895
3.37871e-05
0.000147087
0.000148141
0.0749396
0.00818823
0.000176625
0.000148454
0.000153397
0.000216661
0.000150664
0.000263254
0.000209527
0.00014794
0.000166907
0.000207996
0.00014727
0.000165684
0.000152155
0.000167188
0.000153612
0.000223575
0.0564442
0.0511988
0.000149671
0.000147651
0.0001459
0.000165217
0.000208832
0.000144312
0.000148729
0.000188822
0.000148451
0.000147673
0.000147815
0.0510591
0.00017012
0.000150587
0.0749109
0.000152734
0.0455586
0.0469591
0.071042
0.000226858
0.0405174
0.000154185
0.0296978
0.000155255
0.000154157
0.000190772
0.000150623
0.000150106
0.0481423
0.00020881
0.000165663
0.000148073
0.00019082
0.00015776
0.000145454
0.000148428
0.0600161
0.000191454
0.000148072
0.000227744
0.000147399
0.000159802
0.000147936
0.000207713
0.0590234
0.000147806
0.000406429
0.000147546
0.000202008
0.00158385
0.0215168
0.0630626
0.000150665
0.0605142
0.000145489
0.000147356
0.000145587
0.000175657
0.000194381
0.0393769
0.000146183
0.000149342
0.000152526
0.000224089
0.000153333
0.000147071
0.000183293
0.000172967
0.000177958
0.000148094
0.0714585
0.000155535
0.0334814
0.0682941
0.000177207
0.000189365
0.000226637
0.000190334
0.000152075
0.000156115
0.000178794
0.000175105
0.000194386
0.000292853
0.0487079
0.000147685
0.000173812
0.000168451
0.000156121
0.000190172
0.0565689
0.000213301
0.0001641
0.049035
0.000183099
0.000159734
0.000148049
0.0265909
0.00019248
0.048613
0.000147238
0.000148117
0.000225379
0.000182829
0.000149689
0.00365929
0.000168664
0.000162113
0.000165248
0.000160571
0.000224472
0.000153553
0.000161234
0.000180821
0.000150057
0.000149115
0.000149187
0.0472888
0.000153476
0.073384
0.000149126
0.000217095
0.000183706
0.000147811
0.000174602
0.000192829
0.00016023
0.000156191
0.000189413
0.0281644
0.000164539
0.000174947
0.000167843
0.000150043
0.000178346
0.0132651
0.00741122
0.000149123
0.000210938
0.0657552
0.000162117
0.00014849
0.000149903
0.0610382
0.000148964
0.000185615
0.000148486
0.000178943
0.000172881
0.000147512
0.000165443
0.000149724
0.000171406
0.000152397
0.000217605
0.000147539
0.000211957
0.000161664
0.000147066
0.06258
0.000205308
0.000180571
0.0707281
0.000167969
0.000185996
0.000172964
0.000147292
0.000148034
0.000150618
0.000155759
0.000162502
0.000183434
0.000215431
0.0515904
0.000155889
0.000148633
0.0279083
0.000147427
0.000820485
0.000149299
0.000148412
0.000219799
0.000200788
0.0001475
0.000193392
0.000170669
0.0463996
0.000161787
0.000147659
0.000153825
0.000157575
0.000147968
0.0866107
0.000148243
0.00015032
0.004995
0.000146825
0.000153726
0.0548132
0.0731433
0.000146913
0.000237894
0.000162057
0.029225
0.000161889
0.00352149
0.0615801
0.0001486
0.000173925
0.000198616
0.000147413
0.0458682
0.000147991
0.000149957
0.000204695
0.00021011
0.0692786
0.000150656
0.000170904
0.000178113
0.00017263
0.0699763
0.0502073
0.000149051
0.000145988
0.000151191
0.000150362
0.000169942
0.000152177
0.000146928
0.000158414
0.00073407
0.00015021
0.000160397
0.000164503
0.000149952
0.000157682
0.000210251
0.000156408
0.000154398
0.000147704
0.000206298
0.0588975
0.068296
0.000223838
0.000180338
0.000144325
0.000199132
0.000149132
0.000145222
0.000148251
0.000182081
0.00014801
0.0537773
0.0519238
0.000163575
0.000154608
0.0751052
0.000167769
0.000171482
0.000147052
0.000148119
0.011062
0.000165521
0.000152045
0.000206453
0.000149295
0.000148084
0.000149786
0.000152212
0.000147698
0.000147847
0.000148219
0.000149943
0.000153005
0.000149244
0.0354213
0.000205712
0.00017364
0.000149408
0.00015305
0.000147036
0.000175777
0.000146892
0.000145793
0.00015592
0.000147544
0.000262964
0.000147974
0.0367544
0.0434191
0.000234055
0.000148604
0.0527449
0.000227466
0.000147828
0.000148861
0.000239035
0.000151226
0.000173602
0.000149146
0.00185249
0.000152414
0.000228441
0.000160291
0.000148316
0.000226996
0.0669307
0.000150016
0.000147871
0.000149784
0.000147788
0.000194114
0.000156389
0.000148085
0.0657865
0.0703838
0.000301222
0.000147674
0.000211481
0.000225412
0.000145382
0.000147594
0.000214428
0.000168932
0.000149961
0.000198543
0.02938
0.000175656
0.000170883
0.000147675
0.000147581
0.0245797
0.0301717
0.000181831
0.000846295
0.0387567
0.0875733
0.000157798
0.0263647
0.0687277
0.0354476
0.000161248
0.000225417
0.000161832
0.000151514
0.000147753
0.000153847
0.000194658
0.000147106
0.000148633
0.00016055
0.000172738
0.000192395
0.0372649
0.000157817
0.0001474
0.000147806
0.000152995
0.000156796
0.0627686
0.0378362
0.000224577
0.000148351
0.000261963
0.000150644
0.000147753
0.000183492
0.00015802
0.000149825
0.0001848
0.000153171
0.0255175
0.000166801
0.00016592
0.0387768
0.000205647
0.000175004
0.00014991
0.000149649
0.00014658
0.000565753
0.00020953
0.000180029
0.0695068
0.000161905
0.0231155
0.000146706
0.000952043
0.000145844
0.000149251
0.000152375
0.000148385
0.00020283
0.000150604
0.000149002
0.000156193
0.000148624
0.000922047
0.00015146
0.000148158
0.000191552
0.000157983
0.000159266
0.000146224
0.000148368
0.000227867
0.00014803
0.00014822
0.000148503
0.000145681
0.000202933
0.000144248
0.000146907
0.000198065
0.000153306
0.000152342
0.0878134
0.000147438
0.000165976
0.0510685
0.071481
0.00148756
0.000147615
0.000173296
0.00016207
0.000148817
0.000150062
0.000172991
0.000153536
0.000148207
0.000147998
0.000149494
0.0850493
0.026392
0.000186129
0.000189938
0.000306335
0.000156195
0.000149905
0.000184783
0.000169226
0.000148491
0.000169888
0.000148011
0.000236956
0.000155561
0.000165645
0.000156946
0.000144246
0.0653091
0.00014999
0.0583555
0.00021089
0.00029233
0.000160536
0.000175937
0.000146836
0.000146896
0.000148118
0.000149954
0.000167014
0.000147492
0.000157906
0.000159562
0.00015707
0.000152182
0.000192106
0.0787186
0.00015128
0.000147308
0.000147681
0.000179684
0.000148277
0.00017515
0.000165845
0.000147008
0.000149667
0.000209455
0.000238384
0.000149893
0.000162256
0.0351913
0.000146705
0.000154102
0.0488485
0.00015889
0.0397429
0.000148879
0.000155945
0.000177934
0.000206318
0.000148146
0.000150099
0.000167334
0.00016765
0.000164024
0.000303556
0.0382129
0.000155851
0.0874458
0.000146919
0.0833293
0.000149209
0.000167371
0.0313788
0.000177639
0.000177614
0.000148054
0.000171049
0.000152264
0.000158243
0.000168191
0.000147526
0.000148653
0.000185944
0.0836601
0.000179483
0.000162499
0.000151236
0.000148179
0.0481663
0.000146746
0.000148589
0.00020741
0.00014724
0.000156315
0.0605686
0.0672066
0.000151594
0.000144141
0.000147495
0.000158614
0.0564729
0.00014757
0.00020439
0.00126204
0.000166099
0.000178922
0.000150054
0.000198755
0.000154579
0.0001613
0.0458993
0.000149621
0.000202932
0.000150814
0.0711392
0.000171284
0.000148043
0.000147782
0.0028967
0.000147883
0.000148424
0.0459951
0.000237853
0.0423363
0.000148862
0.000156597
0.000770812
0.0459573
0.0160742
0.000265583
0.000148516
0.00015673
0.000149904
0.000182282
0.00020618
0.0682482
0.000149415
0.000194512
0.000167213
0.000192565
0.051928
0.000147324
0.0738115
0.000207266
0.000118048
0.000148093
0.000175374
0.000153774
0.000149786
0.000161929
0.000153864
0.000161554
0.000173011
0.00014701
0.000162113
0.000161607
0.000161019
0.000153365
0.00014852
0.0417743
0.000208029
0.0854864
0.000146657
0.000159354
0.000209209
0.000155999
0.000209644
0.0619442
0.0327188
0.00663403
0.000148021
0.000171483
0.000166483
0.0465977
0.000153538
0.000161763
0.000150014
0.000210038
0.000145404
0.000192967
0.0737028
0.000153511
0.000162213
0.000150556
0.0839954
0.00014669
0.000146898
0.000147442
0.000152278
0.000202931
0.000144155
0.000147126
0.000147471
0.000161988
0.0312071
0.000147117
0.000146977
0.000147113
0.000148417
0.000150813
0.0398726
0.000147439
0.000147943
0.000177693
0.000166451
0.000147585
0.000153062
0.000169484
0.0442148
0.000149685
0.000148597
0.000151996
0.00014662
0.000226476
0.000188638
0.0364904
0.000150636
0.0519886
0.000148335
0.000147805
0.000176786
0.000200146
0.0695042
0.000146889
0.000177058
0.000151405
0.000160116
0.000146372
0.0817498
0.000147478
0.000177821
0.053745
0.00014742
0.000179147
0.000149889
0.000150999
0.00016172
0.00018046
0.0860251
0.000172597
0.000147152
0.000147022
0.0671564
0.000146317
0.000152995
0.00016652
0.000148793
0.000148375
0.000147808
0.000146989
0.000225935
0.000319963
0.000149937
0.000168941
0.0229952
0.0432952
0.0262282
0.000199189
0.0722633
0.00014804
0.000148012
0.000146852
0.0644866
0.063052
0.000148342
0.000148369
0.000149437
0.000180741
0.0704129
0.042868
0.000158166
0.000148684
0.000145498
0.000148959
0.000149964
0.00021265
0.000146726
0.0423205
0.0001463
0.000146383
0.000147512
0.000234858
0.000165567
0.00848476
0.000161271
0.000152589
0.000148822
0.000201593
0.0203639
0.048521
0.000192902
0.000148191
0.000147434
0.000194038
0.000206247
0.000185154
0.000159859
0.000146762
0.000160225
0.000146564
0.0365191
0.000169196
0.000211232
0.000179232
0.000145608
0.000146416
0.000146421
0.000153203
0.000147594
0.00031278
0.000163362
0.000176522
0.0451521
0.000146482
0.000168242
0.0250601
0.000148831
0.000161445
0.000153562
0.000270182
0.00014981
0.000148327
0.0385877
0.00716753
0.085871
0.000147185
0.000147143
0.0414307
0.000162487
0.000147674
0.000148416
9.50222e-05
0.000154369
0.000146379
0.0474679
0.000230731
0.000179311
0.0289243
0.000146401
0.000156882
0.0453098
0.000147687
0.000148023
0.000146763
0.00025949
0.000151241
0.000148045
0.000185624
0.013005
0.000182355
0.000169746
0.000147894
0.00014938
0.000189063
0.000172022
0.000151932
0.000149418
0.000146313
0.000149817
0.00019845
0.000162418
0.000196087
0.000156891
0.000206829
0.000144662
0.000156025
0.000146296
0.00018829
0.000147677
0.053861
0.000149459
0.000146257
0.040475
0.000147981
0.000200682
0.000158742
0.000159177
0.000200734
0.000147097
0.000146379
0.000153309
0.000147946
0.0373449
0.000222219
0.000148501
0.000209369
0.000238379
0.00016957
0.000150999
0.049109
0.000148585
0.000185348
0.000145667
0.0876204
0.0337006
0.000201104
0.0786788
0.00014739
0.0270417
0.000147695
0.000147341
0.000162301
0.000259831
0.000168684
0.000167517
0.000151132
0.000159756
0.00014773
0.000157271
0.00019105
0.000167061
0.0526701
0.000198574
0.00392223
0.000147077
0.000176961
0.000211476
0.0425547
0.000149743
0.000190898
0.000171436
0.000169137
0.000148117
0.00615829
0.000162206
0.000146592
0.0584205
0.000159383
0.000148826
7.8448e-05
0.0245132
0.000158433
0.000148085
0.000153378
0.000208829
0.0424258
0.000147161
0.000147029
0.000191096
0.000153039
0.0542146
0.000147699
0.017965
0.000153045
0.0420435
0.000144699
0.000191025
0.0580375
0.0721678
0.036782
0.0685447
0.000148452
0.0862343
0.0001477
0.000258808
0.000151631
0.000147877
0.000192932
0.0579382
0.000216462
0.000148245
0.0459691
0.000147921
0.00019141
0.000148207
0.000149481
0.0635648
0.000154171
0.0449484
0.000148083
0.000147893
0.0529635
0.000146863
0.000161197
0.000145565
0.000150981
0.000161436
0.000147217
0.000163699
0.000157665
0.000149271
0.000148403
0.0323773
0.000181582
0.000261487
0.000259428
0.000149657
0.00017129
0.000155738
0.000165788
0.0434707
0.000188865
0.000154387
0.000215407
0.000147209
0.000174958
0.000187592
0.000147809
0.000211545
0.000210291
0.000192926
0.000149856
0.000161448
0.000149767
0.0250319
0.000182635
0.000148071
0.000147798
0.05139
0.00016033
0.000210579
0.000161028
0.0779114
0.000154326
0.000163334
0.000166238
0.000147037
0.055861
0.000188137
0.000146353
0.000182182
0.000209858
0.000168691
0.000177041
0.000241676
0.000217205
0.0849985
0.00016674
0.0107224
0.000149696
0.000146573
0.00946752
0.0650641
0.0303664
0.000152647
0.000147249
0.000148342
0.000153518
0.042889
0.000149663
0.000173235
0.0303361
0.000210522
0.000221939
0.000145352
0.0593275
0.000149615
0.000303261
0.000168036
0.000164105
0.000145451
0.000150553
0.000147188
0.000257849
0.00016502
0.0862624
0.000249905
0.000148871
0.000205158
0.0273853
0.000147596
0.000163627
0.000174849
0.00016947
0.000147446
0.000156451
0.000147981
0.000144698
0.000147952
0.000161772
0.0302789
0.000171796
0.000156349
0.000203215
0.0373399
0.000149903
0.0801903
0.000148016
0.000148822
0.000149472
0.000170079
0.000263842
0.00012079
0.000200183
0.000147971
0.000165942
0.000217872
0.000148772
0.000148371
0.000176914
0.000147243
0.000148746
0.000156115
0.000299277
0.0414329
0.000149639
0.000239992
0.000174824
0.000214493
0.00015371
0.0499104
0.000683492
0.000153736
0.000169775
0.000245197
0.00018066
0.000147732
0.000168473
0.000146788
0.000147715
0.000151736
0.000149486
0.00018527
0.000149663
0.000157419
0.000147891
0.0764375
0.000147798
0.000228297
0.000280855
0.000133399
0.000144157
0.00014801
0.000185367
0.000160903
0.000171396
0.00015841
0.0569092
0.000147338
0.00018694
0.000148266
0.000146758
0.000234636
0.00016672
0.0229118
0.000147687
0.000147708
0.000173557
0.0343873
0.000148085
0.000173091
0.0772834
0.0001479
0.000147502
0.000160916
0.0844565
0.000148871
0.000148379
0.000187213
0.0521991
0.0257021
0.000147637
0.0282252
0.000149708
0.000174703
0.00482415
0.0114207
0.000147142
0.0630817
0.000145458
0.0353961
0.000287839
0.047051
0.000192135
0.000148308
0.000185016
0.000219295
0.0350489
0.000147874
0.000145611
0.000160081
0.000228704
0.000149064
0.000147632
0.000170098
0.000149472
0.000147874
0.000202305
0.0372149
0.000187038
0.000146736
0.0546179
0.00137757
0.000168751
0.000148176
0.0311281
0.000174093
0.000158062
0.000148051
0.000145555
0.000144188
0.000147799
0.000148312
0.0773206
0.0368476
0.000149239
0.000148805
0.000206683
0.000147798
0.000438447
0.000192513
0.000147486
0.000256841
0.000208799
0.000161938
0.000149707
0.0639883
0.000150905
0.000147602
0.000148016
0.00015658
0.000162003
0.000147066
0.0289174
0.000146143
0.000148179
0.0417848
0.000208423
0.000220916
0.000168718
0.000193388
0.0627964
0.000153803
0.000162963
0.0307283
0.000178074
0.000146688
0.0787871
0.0461595
0.000151611
0.000149396
0.0737862
0.00016682
0.0595672
0.000151688
0.000148815
0.000150312
0.00021283
0.000162301
0.000148683
0.000150574
0.0727804
0.000174253
0.000176321
0.000149363
0.000148919
0.0405554
0.000149662
0.00016186
0.0323498
0.0438601
0.000149005
0.000149104
0.0590104
0.000192357
0.0472464
0.0558642
0.000161668
0.000151757
0.00017728
0.000158277
0.000148661
0.000146058
0.000197428
0.000150353
0.0534034
0.078164
0.00016673
0.0516779
0.000214937
0.000178503
0.000159106
0.0509795
0.000161335
0.000209717
0.000237923
0.0259638
0.000243869
0.000156804
0.000156615
0.00016733
0.00014832
0.0407222
0.000151436
0.000152331
0.000217005
0.054544
0.000197948
0.000152652
0.000292131
0.000168914
0.000171301
0.000198702
0.000167165
0.0871873
0.000147583
0.000185186
0.0849929
0.000244989
0.00017411
0.000145066
0.000339235
0.000172714
0.0269457
0.0247935
0.000148632
0.000176894
0.000149093
0.000207894
0.000146674
0.000147796
0.0624838
0.000178711
0.000148597
0.000145975
0.000145548
0.000149474
0.000164798
0.0535772
0.0442414
0.000148718
0.00014843
0.000148157
0.000145103
0.000215925
0.0471808
0.000166185
0.000207837
0.000202346
0.000164953
0.000213831
0.000148818
0.000304514
0.000233023
0.000191599
0.000149089
0.000169524
0.000388694
0.0632225
0.000148106
0.000146895
0.000147613
0.000148035
0.0424716
0.000148994
0.000156703
0.00015467
0.0770198
0.000195768
0.000153597
0.000210388
0.000156188
0.000148056
0.000211742
0.0474689
0.000146944
0.000145713
0.000144971
0.00014554
0.000169197
0.000180414
0.000149622
0.00014928
0.000147261
0.000191874
0.000202987
0.000147276
0.000152305
0.000185078
0.000148151
0.0001694
0.000145992
0.000160755
0.000148479
0.000147785
0.000162947
0.000159849
0.000151352
0.000148023
0.000146855
0.0389295
0.000148055
0.00014864
0.000148952
0.000148257
0.000158931
0.000160359
0.000192736
0.00014854
0.000160484
0.000178385
0.000146168
0.000148463
0.0679466
0.000173626
0.0244777
0.000148748
0.035139
0.0376515
0.000147967
0.000149699
0.0648384
0.000147775
0.00421619
0.000244992
0.0607202
0.000208621
0.000147677
0.0653532
0.000180079
0.000205716
0.000189069
0.000148809
0.000147536
0.0317396
0.000148193
0.028808
0.000168644
0.000150227
0.000152478
0.000152135
0.000145893
0.000311789
0.0038088
0.0474997
0.00015627
0.0322462
0.000147284
0.000148717
0.000147458
0.000148642
0.000244862
0.000172967
0.000150017
0.000166175
0.00014798
0.00015084
0.0634367
0.000168452
0.0490165
0.00015269
0.000152475
0.000147678
0.000210749
0.000149207
0.000162043
0.0311539
0.0478329
0.000147872
0.000147568
0.000152175
0.000147642
0.000172433
0.0574111
0.000149709
0.000147291
0.000161742
0.00014637
0.00100692
0.000148815
0.000150616
0.000148781
0.000210695
0.0519553
0.000155129
0.0393276
0.000185785
0.000191893
0.00554663
0.0306161
0.0589583
0.0322529
0.00278711
0.000149248
0.000147023
0.000153053
0.000175462
0.0481771
0.024779
0.000158467
0.00017991
0.000145335
0.00014746
0.000147195
0.000171027
0.0373074
0.000149341
0.0420626
0.000148442
0.000148344
0.0421713
0.000147701
0.0858431
0.000146401
0.000189342
0.000154044
0.000174246
0.000147073
0.000150207
0.000148087
0.000148023
0.0158787
0.000269597
0.000148076
0.00014847
0.0574817
0.000167202
0.000163162
0.0302335
0.0606739
0.000157709
0.000150603
0.000210916
0.0621721
0.0295834
0.000164776
0.000147817
0.0854934
0.000146973
0.0646794
0.000152085
0.000250008
0.000147954
0.000187643
0.000146891
0.000148481
0.000172262
0.000221903
0.000196352
0.000152115
0.000146981
0.0524632
0.0380183
0.000146814
0.0516029
0.000151216
0.000148376
0.00014856
0.0611363
0.000148282
0.0658053
0.000147789
0.000183602
0.0469937
0.000146685
0.0225493
0.000149146
0.000208632
0.000202705
0.000148337
0.000149162
0.00530189
0.000150183
0.000205713
0.0342552
0.000206405
0.000147724
0.000147153
0.000178751
0.000152158
0.000151148
0.000149291
0.0416904
0.000152399
0.000158887
0.000153949
0.0282924
0.000154599
0.00014795
0.00014682
0.000237965
0.000149177
0.0293472
0.000160556
0.000238401
0.000149705
0.00018438
0.000234777
0.000147683
0.00014712
0.000164474
0.047421
0.000147725
0.076107
0.00019321
0.000156695
0.000167479
0.0675996
0.000148067
0.000161999
0.000155324
0.000155686
0.000148252
0.000149525
0.000166337
0.000178254
0.0618826
0.000152074
0.00025807
0.000214016
0.000147316
0.000548076
0.000177466
0.000210392
0.0443554
0.000159015
0.0498062
0.0428947
0.000150757
0.000147892
0.000145492
0.000153582
0.000177962
0.000199077
0.000148185
0.000178049
0.000147511
0.000175061
0.00015109
0.000147732
0.000188914
0.000172864
0.000147649
0.000146011
0.0486856
0.0588421
0.000605115
0.000146734
0.000160049
0.020369
0.000147913
0.0675226
0.000147704
0.000173012
0.000156429
0.000147709
0.000153657
0.000185855
0.000159251
0.0438644
0.000149097
0.000152084
0.000144187
0.000183991
0.000147814
0.000145984
0.0657032
0.000147904
0.000204561
0.000176842
0.0203616
0.00015617
0.000299388
0.00023707
0.000162439
0.000153913
0.0330824
0.000208839
0.0240168
0.000260143
0.000158834
0.0497953
0.000147661
0.000156439
0.00117913
0.000146587
0.000166544
0.000148727
0.000260711
0.000146505
0.000176133
0.000159739
0.000221076
0.000152186
0.000153828
0.000183634
0.000156071
0.000193185
0.0676784
0.000218037
0.000147879
0.000183634
0.065559
0.000147825
0.00019931
0.000148686
0.000206692
0.000166922
0.000153025
0.000172228
0.000178504
0.00019005
0.000161656
0.000148511
0.0407276
0.0277655
0.00016789
0.000147282
0.0870607
0.000148281
0.0575003
0.000248054
0.0453506
0.00023901
0.000217668
0.00620492
0.000163394
0.000203182
0.000148629
0.000152375
0.000178275
0.000146687
0.0487518
0.0219271
0.000209308
0.0479885
0.000162264
0.000144255
0.000229285
0.0167569
0.000147314
0.000172678
0.000172117
0.0689946
0.000148538
0.000213134
0.0577963
0.000236944
0.000208777
0.000145929
0.000149442
0.00014432
0.000153784
0.0729028
0.000370871
0.000235561
0.015214
0.0705618
0.000147921
0.000145005
0.000202115
0.0273278
0.0345361
0.000151964
0.000206759
0.000273654
0.000157453
0.000171852
0.000147196
0.0362497
0.000147497
0.000180908
0.000232054
0.000132731
0.000146902
0.0590318
0.000147043
0.000161484
0.000172725
0.000146008
0.00019437
0.000157738
0.0518523
0.0596664
0.000193769
0.0510152
0.00015927
0.000151608
0.000149041
0.000151298
0.000147758
0.0545012
0.00016969
0.000155364
0.000149667
0.0594325
0.0345746
0.000144875
0.000157591
0.000147123
0.0402743
0.060959
0.000176854
0.000148472
0.000148496
0.000148066
0.000154535
0.042756
0.000149713
0.000206235
0.0582566
0.000147654
0.0140183
0.0674959
0.000153744
0.0336371
0.000147143
0.020212
0.000164923
0.039799
0.000160861
0.0407262
0.000145892
0.000211471
0.000171569
0.000178307
0.000150111
0.000157336
0.000146645
0.000148528
0.038815
0.00022303
0.000152821
0.0703922
0.0374979
0.0001458
0.0405321
0.000151814
0.00414479
0.0647846
0.000218118
0.000191432
0.000359023
0.0853496
0.0599749
0.000180948
0.000153634
0.0467187
0.0283102
0.0306576
0.000193546
0.000181658
0.000148543
0.000149686
0.000149092
0.000144317
0.000147832
0.0672382
0.000145886
0.000153778
0.000148881
0.000186068
0.000148566
0.000146053
0.000147953
0.000178798
0.000150777
0.000149192
0.000148675
0.0001482
0.00016569
0.000151669
0.000145889
0.0573485
0.000147755
0.000147093
0.000165757
0.000150276
0.00015644
0.000147542
0.000252363
0.000197264
0.000147735
0.000161451
0.000148102
0.000147397
0.0372358
0.000160989
0.000147884
0.0245612
0.000144642
0.000222052
0.000186411
0.000147445
0.000165268
0.000156223
0.000287249
0.00020985
0.000150519
0.000185122
0.000152312
0.000148232
0.000184474
0.0531839
0.000148321
0.000149907
0.000146984
0.000155866
0.000143958
0.000156155
0.000174101
0.0414664
0.000156171
0.00014746
0.0606188
0.000152232
0.0302746
0.000147738
0.000193707
0.00016275
0.000193698
0.000147743
0.000298935
0.0561767
0.000153381
0.0289426
0.000193202
0.000148249
0.0681863
0.000148785
0.000147793
0.000147866
0.000159699
0.000152473
0.0298949
0.000149201
0.00015883
0.000152978
0.0702714
0.000148282
0.000156276
0.000146714
0.000173551
0.000145434
0.000149114
0.000145799
0.000148826
0.000216533
0.00014726
0.0380397
0.0725014
0.000147029
0.000619848
0.000178017
0.000171223
0.0468149
0.0774675
0.00513502
0.00017169
0.0433578
0.000193792
0.000168628
0.000149607
0.000153756
0.000156305
0.000334179
0.000148099
0.00017895
0.0114142
0.000149508
0.0695842
0.000192274
0.0325588
0.000148216
0.000156115
0.000148029
0.000145555
0.000185429
0.0502968
0.000197952
0.000226708
0.000172163
0.000148032
0.000216017
0.000184815
0.000209577
0.000153838
0.000145476
0.0448974
0.0565607
0.000149757
0.000149897
0.000148113
0.000147288
0.000148388
0.000153091
0.04864
0.000152623
0.000147633
0.0701235
0.0331527
0.000147393
0.000153941
0.000146414
0.0399784
0.000146824
0.00014717
0.0639575
0.0652342
0.000148078
0.000162379
0.0863023
0.000173525
0.000179741
0.000178079
0.000146579
0.0555195
0.000148283
0.000216646
0.0863895
0.000162087
0.000202307
0.000172181
0.000165456
0.000149917
0.000152299
0.000148257
0.000206627
0.000148244
0.000147606
0.00014869
0.000158715
0.000239511
0.026172
0.000151852
0.000145438
0.000144913
0.000149352
0.0659445
0.0240378
0.027491
0.000169697
0.000152256
0.000146924
0.000149441
0.000156578
0.0322635
0.000157833
0.000184785
0.0459976
0.000439048
0.000191806
0.00015647
0.00015079
0.000147487
0.000147861
0.000149718
0.000153661
0.000147584
0.00014695
0.000149405
0.0732008
0.000186941
0.000147328
0.000171008
0.000145533
0.0181393
0.0440712
0.000173295
0.0514467
0.0608403
0.00015497
0.0862162
0.000238537
0.000147549
0.0256197
0.0645327
0.000225325
0.000167788
0.000148283
0.000147511
0.000146676
7.46031e-05
0.000181563
0.000176833
0.000186883
0.000165421
0.000147183
0.0752365
0.0775343
0.000176828
0.000217667
0.0001478
0.000207543
0.000160895
0.0446947
0.0002208
0.0581862
0.00015386
0.000152315
0.000184297
0.000182166
0.000145616
0.0252
0.0757754
0.000178248
0.0584551
0.00281733
6.87812e-05
0.00733941
0.000236358
0.000152624
0.000203872
0.000240676
0.000157992
0.0528364
0.000150272
0.000151904
0.0852867
0.000147562
0.000144496
0.000144427
0.000183984
0.000150521
0.000147505
0.064022
0.000149423
0.0293652
0.0768025
0.000787451
0.00033875
0.000147858
0.000166194
0.000145445
0.000195813
0.000202265
0.000147707
0.000287039
0.00019965
0.000169967
0.000146047
0.000198078
0.000166273
0.00028798
0.000184572
0.000156466
0.000149761
0.000151654
0.063334
0.000172849
0.000168124
0.000103089
0.00015062
0.000147905
0.000146969
0.0846411
0.000147014
0.000180221
0.000145624
0.0286312
0.000150003
0.000465657
0.00017232
0.0695788
0.000259303
0.050195
0.000152821
0.000169808
0.000190175
0.000155468
0.000148945
0.000159181
0.0307993
0.000195702
0.000147532
0.00017249
0.0395789
0.000147684
0.000173043
0.000147692
0.0590202
0.0498382
0.000149833
0.000150597
0.000151299
0.0287069
0.000147788
0.0692022
0.0647007
0.000206517
0.0613176
0.0322369
0.000149776
0.000149583
0.000147134
0.0347561
0.000151467
0.0139422
0.000147357
0.000183116
0.000149963
0.000194304
0.000150899
0.000239812
0.000198996
0.00018674
0.000225038
0.0328336
0.0382508
0.000148482
0.000181574
0.0500425
0.000148999
0.000236254
0.000149949
0.000170535
0.000156316
0.000164858
0.000147474
0.0636139
0.000149712
0.0560426
0.000149246
0.0455313
0.000173511
0.000148383
0.000146667
0.000168401
0.000162101
0.000151811
0.000210907
0.00015329
0.000187595
0.000191915
0.000169426
0.00014752
0.000187741
0.000183184
0.0636922
0.000221443
0.0001472
0.0187353
0.000243376
0.000208282
0.000148373
0.0359015
0.000159738
0.000147953
0.0615292
0.0330965
0.000147964
0.000156244
0.000146734
0.000176301
0.000182364
0.000176362
0.0579692
0.0412577
0.000171853
0.000148382
0.000157923
0.00017703
0.000147472
0.000183529
0.000147447
0.000149349
0.000217918
0.000158967
0.000155226
0.000187061
0.000153727
0.000147384
0.000166707
0.000207534
0.000147489
0.000155809
0.000148716
0.000161648
0.000195599
0.0568262
0.0235753
0.000240711
0.000145452
0.0500521
0.000172452
0.000152541
0.000172148
0.000153696
0.000191149
0.000168473
0.0514748
0.000149873
0.000147992
0.000224454
0.0855158
0.0337786
0.000145471
0.000146234
0.000148488
0.000146538
0.0240383
0.000202114
0.00015006
0.000149422
0.023763
0.0487923
0.000262179
0.0762658
0.000146701
0.000170046
0.00016899
0.000168049
0.000200623
0.000147201
0.0322642
0.000190129
0.025263
0.000146966
0.0625061
0.000256394
0.000149665
0.000177159
0.0304248
0.000145823
0.000149351
0.0372535
0.0454888
0.0583102
0.000150145
0.000150392
0.000149314
0.0532391
0.0618926
0.000172917
0.048582
0.000148216
0.0325305
0.0674544
0.000148505
0.0515936
0.00014985
0.000194422
0.000202115
0.0734832
0.000146785
0.000154173
0.000170983
0.0762367
0.000152029
0.0641189
0.000167496
0.0861231
0.000172443
0.000153889
0.000147402
0.000179255
0.000148349
0.000145772
0.000147037
0.000219492
0.000159753
0.000149809
0.0294838
0.00015811
0.0476249
0.000147303