/*--------------------------------*- C++ -*----------------------------------*\
| =========                 |                                                 |
| \\      /  F ield         | OpenFOAM: The Open Source CFD Toolbox           |
|  \\    /   O peration     | Version:  v2012                                 |
|   \\  /    A nd           | Website:  www.openfoam.com                      |
|    \\/     M anipulation  |                                                 |
\*---------------------------------------------------------------------------*/
FoamFile
{
    version     2.0;
    format      ascii;
    class       volScalarField;
    location    "200";
    object      k_0;
}
// * * * * * * * * * * * * * * * * * * * * * * * * * * * * * * * * * * * * * //

dimensions      [0 2 -2 0 0 0 0];


internalField   nonuniform List<scalar> 
27915
(
0.000149225
0.000201928
0.0297239
0.058492
0.000174661
0.000151724
0.0839428
0.000177559
0.000177021
0.00018101
0.000159842
0.000148975
0.000263447
0.0431727
0.065287
0.000153852
0.0291639
0.000170599
0.076493
0.000150633
0.0423367
0.000147699
0.0309307
0.000149206
0.000147001
0.000147136
0.000147736
0.000259517
0.0606215
0.0604473
0.00019141
0.000145985
0.0291371
0.000150677
0.083212
0.000147733
0.000148037
0.000161822
0.000168173
0.00015488
0.00014753
0.000161005
0.000147989
0.000205227
0.000213181
0.00014906
0.000148541
0.000166697
0.00014838
0.000147583
0.000167663
0.000205086
0.000206017
0.000154822
0.000357299
0.0269824
0.0467572
0.000148866
0.000147677
0.0588547
0.000145999
0.000168934
0.000187902
0.00117601
0.000149906
0.000157455
0.000172416
0.000210866
0.0544178
0.000153377
0.000161338
0.0643336
0.000147691
0.000146902
0.000160371
0.00017206
0.000192117
0.000157698
0.0100707
0.000149097
0.000160869
0.000154993
0.000147093
0.000147527
0.025728
0.000145556
0.000148361
0.000153311
9.06854e-05
0.000170848
0.000147886
8.40648e-05
0.000153655
0.000190994
0.000152732
0.000167941
0.0306263
0.000157156
0.00014761
0.0730191
0.000147252
0.000149156
0.0827695
0.000161401
0.000147897
0.000149886
0.000148044
0.000172069
0.000172826
0.000180397
0.000148778
0.000150625
0.000426985
0.048595
0.00979759
0.00021188
0.0819158
0.000147559
0.000176853
0.00014448
0.000225254
0.000176537
0.000181872
0.00017112
0.000151185
0.000144719
0.000150673
0.0420438
0.000192377
0.00015364
0.000154707
0.000147771
0.000145541
0.0307075
0.023061
0.0138161
0.000147474
0.000146949
0.00015539
0.000145549
0.0658979
0.061323
0.00015358
0.0648468
0.000171239
0.000150143
0.000149536
0.0435427
0.000222677
0.000148157
0.000147927
0.000157758
0.000209232
0.0312178
0.000189127
0.00015734
0.000149019
0.000148665
0.000152816
0.000153052
0.000168629
0.000192611
0.000191783
0.000148421
0.000148241
0.000153728
0.00700278
0.000206222
0.000148848
0.00019913
0.0750966
0.000148641
0.0311091
0.000147835
0.000149949
0.000210111
0.000172608
0.00014928
0.000149384
0.000417184
0.000148565
0.000173151
0.000147917
0.0138979
0.0473002
0.000176961
0.000188905
0.00014814
0.0277029
0.000161961
0.000148452
0.00023394
0.000148169
0.000148078
0.000147766
0.0251189
0.000148976
0.000163776
0.0112342
0.0854867
0.000187646
0.000908844
0.000162284
0.000219546
0.000148498
0.000157601
0.0529505
0.000155848
0.000159393
0.000209427
0.0704761
0.000149119
0.0723085
0.000150624
0.000177835
0.000147784
0.000210981
0.078369
0.000177946
0.000162094
0.0445518
0.000226986
0.000191197
0.000148631
0.000159329
0.000162201
0.000174742
0.000148587
0.000361008
0.000148288
0.0387194
0.000145594
0.0816894
0.000157124
0.000148683
0.000149424
0.00884286
0.000151894
3.38706e-05
0.000147087
0.000148141
0.0749357
0.00777854
0.000176626
0.000148454
0.000153398
0.000216637
0.000150664
0.000263253
0.000209524
0.00014794
0.000166906
0.000207999
0.00014727
0.000165684
0.000152155
0.000167187
0.000153611
0.000223576
0.0564393
0.0511967
0.000149672
0.000147651
0.0001459
0.000165217
0.000208835
0.000144312
0.000148729
0.000188827
0.000148451
0.000147673
0.000147815
0.0510444
0.00017012
0.000150588
0.0749128
0.000152734
0.0455569
0.0469559
0.0710448
0.000226852
0.0405363
0.000154185
0.0296986
0.000155255
0.000154158
0.000190774
0.000150624
0.000149221
0.0481404
0.000208804
0.000165663
0.000148073
0.000190818
0.000157761
0.000145454
0.000148427
0.060013
0.000191454
0.000148072
0.000227762
0.000147399
0.000159802
0.000147936
0.000207707
0.0590258
0.000147806
0.000406276
0.000147546
0.00020199
0.00158149
0.021513
0.0630629
0.000150665
0.060517
0.000145489
0.000147356
0.000145587
0.000175657
0.000194379
0.0393748
0.000146183
0.000149342
0.000152525
0.000224112
0.000153333
0.000147071
0.000183293
0.000172967
0.00017796
0.000148094
0.0714587
0.000155535
0.033482
0.0682968
0.000177208
0.000189368
0.000226654
0.000190332
0.000152075
0.000156115
0.000178792
0.000175104
0.000194383
0.00029124
0.0487065
0.000147684
0.000173812
0.000168441
0.000156121
0.000190174
0.0565656
0.000213304
0.0001641
0.0490299
0.000183098
0.000159734
0.000148049
0.0265876
0.000192467
0.0486054
0.000147238
0.000148117
0.000225379
0.000182829
0.000149689
0.0037726
0.000168657
0.000162113
0.000165247
0.000160571
0.000224465
0.000153554
0.000161235
0.000180823
0.000150057
0.000149115
0.000149187
0.0472898
0.000153476
0.0733735
0.000149126
0.00021707
0.000183707
0.000147811
0.000174603
0.000192823
0.000160229
0.00015627
0.000189413
0.0281645
0.000164538
0.000174946
0.000167842
0.000150043
0.000178345
0.0131977
0.00742688
0.000149122
0.000210952
0.0657549
0.000162117
0.00014849
0.000149903
0.0610406
0.000148963
0.000185615
0.000148486
0.000178944
0.000172881
0.000147512
0.000165443
0.000149724
0.000171405
0.000152397
0.000217596
0.000147539
0.000211954
0.000161665
0.000147066
0.062583
0.000205303
0.000180573
0.0707308
0.000167968
0.000186021
0.000172964
0.000147292
0.000148034
0.000150618
0.00015576
0.000162502
0.000183435
0.00021542
0.0515856
0.00015589
0.000148633
0.0279369
0.000147427
0.000819341
0.000149299
0.000148412
0.000216885
0.000200798
0.0001475
0.000193397
0.000170669
0.0463957
0.000161787
0.000147659
0.000153825
0.000157575
0.000147968
0.0866062
0.000148243
0.00015032
0.00499502
0.000146824
0.000153727
0.0548106
0.0731421
0.000146913
0.00023792
0.000162057
0.0292106
0.000161889
0.00352617
0.0615822
0.0001486
0.000173926
0.000198624
0.000147412
0.0458651
0.000147991
0.000149957
0.000204707
0.000210105
0.0692786
0.000150657
0.000170904
0.000178112
0.00017263
0.0699767
0.0502032
0.000149051
0.000145988
0.000151191
0.000150362
0.000169942
0.000152177
0.000146928
0.000158414
0.000735255
0.00015021
0.000160396
0.000164503
0.000149952
0.000157682
0.000210266
0.000156409
0.000154398
0.000147703
0.000206302
0.0588792
0.06829
0.000223817
0.000180337
0.000144325
0.000199129
0.000149132
0.000145222
0.000148251
0.00018208
0.00014801
0.0537655
0.0519224
0.000163575
0.000154608
0.0750961
0.000167769
0.000171481
0.000147052
0.000148119
0.0110826
0.000165521
0.000152045
0.000206457
0.000149294
0.000148083
0.000149786
0.000152212
0.000147697
0.000147847
0.000148219
0.000149943
0.000153005
0.000149244
0.0354216
0.000205715
0.00017364
0.000149408
0.000153049
0.000147036
0.000175777
0.000146892
0.000145793
0.00015592
0.000147544
0.000262919
0.000147974
0.0367853
0.0434178
0.00023406
0.000148604
0.0527394
0.000227462
0.000147828
0.000148861
0.000239062
0.000151227
0.000173602
0.000149146
0.00149347
0.000152413
0.000228465
0.000160291
0.000148316
0.00022699
0.0669317
0.000150016
0.000147871
0.000149784
0.000147788
0.000194111
0.000156389
0.000148085
0.0657888
0.0703657
0.000301211
0.000147674
0.000211495
0.000225404
0.000145382
0.000147594
0.000214439
0.000168932
0.000149961
0.00019854
0.029377
0.000175655
0.000170883
0.000147675
0.000147581
0.0245772
0.0301744
0.000181828
0.00085345
0.0387616
0.0875683
0.000157798
0.0264001
0.0687187
0.0354454
0.000161248
0.000225433
0.000161832
0.000151514
0.000147753
0.000153847
0.00019466
0.000147106
0.000148633
0.000160549
0.000172737
0.000192401
0.0372864
0.000157817
0.0001474
0.000147806
0.000152995
0.000156796
0.062762
0.0378402
0.000224555
0.000148351
0.000261903
0.000150644
0.000147753
0.000183494
0.00015802
0.000149825
0.000184802
0.000153171
0.0255146
0.0001668
0.000165919
0.0387767
0.00020565
0.000175004
0.00014991
0.000149649
0.00014658
0.000565579
0.000209528
0.000180028
0.0694874
0.000161905
0.023113
0.000146706
0.000807189
0.000145844
0.000149251
0.000152375
0.000148384
0.000202828
0.000150605
0.000149002
0.000156194
0.000148624
0.000921479
0.00015146
0.000148158
0.00019154
0.000157983
0.000159266
0.000146224
0.000148368
0.000227861
0.00014803
0.00014822
0.000148503
0.000145681
0.000202914
0.000144248
0.000146907
0.000198071
0.000153306
0.000152341
0.0878083
0.000147438
0.000165976
0.0510626
0.0714686
0.0014887
0.000147615
0.000173296
0.00016207
0.000148817
0.000150062
0.00017299
0.000153536
0.000148207
0.000147997
0.000149494
0.0850495
0.0263956
0.000186131
0.000189938
0.000308255
0.000156196
0.000149905
0.000184785
0.000169226
0.000148491
0.000169888
0.000148011
0.000236973
0.000155561
0.000165646
0.000156946
0.000144246
0.0652989
0.000149991
0.0583497
0.000210906
0.00029229
0.000160536
0.000175938
0.000146836
0.000146896
0.000148118
0.000149954
0.000167013
0.000147492
0.000157906
0.000159561
0.000157069
0.000152183
0.000192112
0.0787174
0.00015128
0.000147308
0.000147682
0.000179682
0.000148277
0.00017515
0.000165845
0.000147008
0.000149667
0.000209454
0.000238414
0.000149893
0.000162255
0.0352151
0.000146705
0.000154102
0.0488433
0.000158889
0.0397432
0.000148879
0.000155944
0.000177931
0.000206316
0.000148146
0.000150099
0.000167333
0.000167649
0.000164024
0.000303515
0.0382108
0.00015585
0.0874407
0.000146919
0.0833296
0.000149209
0.00016737
0.0314032
0.000177639
0.000177611
0.000148054
0.000171049
0.000152264
0.000158243
0.000168191
0.000147526
0.000148652
0.000185946
0.0836579
0.000179482
0.000162499
0.000151236
0.000148178
0.0481643
0.000146745
0.000148589
0.000207408
0.00014724
0.000156315
0.0605656
0.0672101
0.000151593
0.000144141
0.000147495
0.000158614
0.0564703
0.00014757
0.000204386
0.001252
0.000166098
0.000178923
0.000150054
0.000198763
0.000154579
0.000161301
0.0458982
0.000149622
0.000202934
0.000150813
0.0711431
0.000171284
0.000148043
0.000147782
0.00291673
0.000147883
0.000148423
0.0459931
0.000237876
0.0423377
0.000148862
0.000156598
0.000776451
0.0459467
0.0160666
0.000265675
0.000148516
0.00015673
0.000149905
0.000182281
0.000206183
0.0682345
0.000149415
0.000194513
0.000167213
0.000192568
0.0519009
0.000147324
0.0738135
0.000207259
0.000119416
0.000148093
0.000175373
0.000153774
0.000149786
0.000161929
0.000153864
0.000161554
0.000173009
0.000147009
0.000162114
0.000161607
0.000161019
0.000153366
0.00014852
0.0417775
0.000208022
0.0854853
0.000146657
0.000159354
0.000209224
0.000156
0.000209642
0.061938
0.032721
0.00648322
0.000148021
0.000171483
0.000166484
0.0465979
0.000153539
0.000161763
0.000150014
0.000210038
0.000145404
0.000192968
0.0737064
0.000153511
0.000162213
0.000150556
0.0839947
0.00014669
0.000146898
0.000147441
0.000152277
0.00020291
0.000144155
0.000147126
0.000147471
0.000161988
0.0312051
0.000147117
0.000146977
0.000147113
0.000148417
0.000150813
0.0398974
0.000147439
0.000147942
0.000177693
0.00016645
0.000147585
0.000153062
0.000169483
0.044201
0.000149685
0.000148598
0.000151996
0.00014662
0.000226492
0.000188642
0.0364904
0.000150636
0.0519824
0.000148335
0.000147805
0.000176785
0.000200143
0.0695033
0.000146889
0.000177059
0.000151404
0.000160116
0.000146372
0.0817643
0.000147478
0.000177822
0.0537377
0.00014742
0.000179144
0.000149889
0.000150999
0.00016172
0.000180459
0.0860335
0.000172596
0.000147152
0.000147022
0.0671561
0.000146317
0.000152996
0.000166519
0.000148793
0.000148375
0.000147808
0.000146989
0.000225931
0.000319954
0.000149937
0.00016894
0.0229504
0.0432944
0.0262256
0.000199196
0.0722639
0.000148039
0.000148012
0.000146852
0.0644608
0.0630454
0.000148342
0.000148368
0.000149437
0.000180741
0.0704166
0.0428724
0.000158166
0.000148684
0.000145498
0.000148959
0.000149964
0.000212656
0.000146726
0.0423196
0.0001463
0.000146383
0.000147512
0.00023488
0.000165568
0.00846605
0.000161271
0.000152589
0.000148822
0.000201572
0.0203199
0.0485158
0.000192906
0.000148191
0.000147433
0.000194035
0.00020625
0.000185153
0.00015986
0.000146762
0.000160224
0.000146564
0.0365229
0.000169196
0.000211247
0.000179232
0.000145608
0.000146417
0.000146421
0.000153203
0.000147593
0.000312779
0.000163363
0.000176521
0.0451479
0.000146482
0.000168241
0.0250584
0.000148831
0.000161446
0.000153562
0.000270157
0.00014981
0.000148327
0.038622
0.00714851
0.0858671
0.000147185
0.000147143
0.041422
0.000162487
0.000147673
0.000148416
9.56043e-05
0.000154369
0.000146378
0.0474632
0.000230762
0.00017931
0.0289541
0.0001464
0.000156882
0.0453079
0.000147687
0.000148023
0.000146762
0.000259479
0.00015124
0.000148045
0.000185625
0.0130222
0.000182355
0.000169746
0.000147894
0.00014938
0.000189067
0.000172022
0.000151931
0.000149418
0.000146313
0.000149817
0.000198446
0.000162418
0.000196085
0.000156891
0.000206826
0.000144662
0.000156026
0.000146296
0.000188288
0.000147677
0.0538595
0.000149459
0.000146257
0.0404589
0.000147981
0.000200689
0.000158742
0.000159177
0.000200743
0.000147097
0.000146379
0.00015331
0.000147946
0.0373462
0.000222197
0.000148501
0.000209384
0.000238408
0.00016957
0.000150999
0.049108
0.000148585
0.000185349
0.000145667
0.0876153
0.0337037
0.000201101
0.0786832
0.00014739
0.0270407
0.000147695
0.000147341
0.0001623
0.00025985
0.000168684
0.000167517
0.000151132
0.000159756
0.00014773
0.000157271
0.000191914
0.000167061
0.0526644
0.00019857
0.0036835
0.000147077
0.00017696
0.000211491
0.0425557
0.000149743
0.000190893
0.000171435
0.000169136
0.000148117
0.00619338
0.000162206
0.000146592
0.0584174
0.000159382
0.000148826
0.000160149
0.0245422
0.000158432
0.000148085
0.000153378
0.000208843
0.0424274
0.000147162
0.000147029
0.00019109
0.000153039
0.0542125
0.000147699
0.0179197
0.000153045
0.0420621
0.000144699
0.000191016
0.0580172
0.072171
0.0367856
0.0685457
0.000148452
0.0862421
0.0001477
0.000258833
0.000151631
0.000147877
0.000192933
0.0579403
0.000216454
0.000148245
0.0459578
0.000147921
0.000191401
0.000148207
0.00014948
0.0635613
0.000154171
0.0449515
0.000148083
0.000147893
0.0529526
0.000146863
0.000161197
0.000145565
0.000150981
0.000161436
0.000147218
0.000163699
0.000157665
0.000149271
0.000148403
0.0323812
0.000181582
0.000261453
0.000259388
0.000149657
0.000171289
0.000155738
0.000165787
0.0434735
0.000188832
0.000154386
0.000215398
0.000147209
0.000174973
0.000187591
0.000147809
0.000211559
0.000210302
0.000192929
0.000149857
0.000161449
0.000149767
0.02503
0.000182635
0.000148071
0.000147798
0.0513635
0.00016033
0.000210595
0.000161028
0.0779125
0.000154326
0.000163334
0.000166238
0.000147037
0.0558261
0.000188136
0.000146352
0.000182182
0.000209869
0.000168692
0.000177041
0.000241751
0.000217218
0.0849968
0.00016674
0.0107318
0.000149696
0.000146573
0.00949526
0.0650537
0.0303703
0.000152647
0.000147249
0.000148342
0.000153518
0.0428892
0.000149663
0.000173235
0.0303353
0.000210537
0.00022197
0.000145352
0.0593296
0.000149615
0.000303241
0.000168036
0.000164105
0.000145451
0.000150553
0.000147188
0.00025786
0.00016502
0.0862714
0.000249923
0.000148871
0.000205169
0.0273851
0.000147596
0.000163627
0.000174849
0.00016947
0.000147446
0.000156451
0.000147981
0.000144698
0.000147951
0.000161771
0.0302766
0.000171795
0.000156349
0.000203301
0.0373289
0.000149903
0.0801893
0.000148016
0.000148822
0.000149472
0.000170079
0.00026377
0.000120247
0.000200189
0.000147971
0.000165942
0.000217883
0.000148772
0.000148371
0.000176913
0.000147243
0.000148746
0.000156115
0.000299243
0.0414495
0.00014964
0.000239997
0.000174875
0.000214511
0.00015371
0.0499082
0.000689654
0.000153736
0.000169775
0.000245291
0.000180659
0.000147732
0.000168473
0.000146788
0.000147715
0.000151737
0.000149486
0.000185269
0.000149663
0.000157419
0.000147891
0.0764363
0.000147798
0.000228295
0.000280786
0.000133862
0.000144157
0.00014801
0.000185367
0.000160903
0.000171396
0.00015841
0.0569077
0.000147338
0.00018693
0.000148266
0.000146758
0.000234602
0.00016672
0.0228663
0.000147687
0.000147708
0.000173557
0.0343851
0.000148085
0.000173092
0.0772792
0.0001479
0.000147502
0.000160915
0.084453
0.000148871
0.000148378
0.000187213
0.0521935
0.0256984
0.000147637
0.0282216
0.000149708
0.000174703
0.00485189
0.0114207
0.000147142
0.0630689
0.000145458
0.0353984
0.000287893
0.047049
0.000192134
0.000148308
0.000185017
0.000219284
0.035048
0.000147874
0.00014561
0.000160081
0.0002287
0.000149063
0.000147633
0.000170097
0.000149472
0.000147874
0.00020231
0.037217
0.000187028
0.000146736
0.0546101
0.00141828
0.000168751
0.000148176
0.0311283
0.000174093
0.000158062
0.000148051
0.000145555
0.000144188
0.000147799
0.000148312
0.0773168
0.0368497
0.000149239
0.000148805
0.000206677
0.000147799
0.00043197
0.000192517
0.000147485
0.000256831
0.000208886
0.000161938
0.000149707
0.0639916
0.000150905
0.000147601
0.000148016
0.00015658
0.000162003
0.000147066
0.0289139
0.000146143
0.000148179
0.0417852
0.000208427
0.000220904
0.000168718
0.000193387
0.0627936
0.000153804
0.000162963
0.0307269
0.000178071
0.000146688
0.078795
0.0461619
0.000151611
0.000149396
0.0737759
0.000166819
0.0595695
0.000151688
0.000148815
0.000150312
0.000212832
0.0001623
0.000148682
0.000150574
0.072782
0.000174241
0.000176322
0.000149363
0.000148919
0.0405784
0.000149662
0.00016186
0.0323483
0.0438587
0.000149005
0.000149104
0.0590117
0.000192359
0.0472417
0.0558614
0.000161668
0.000151758
0.000177278
0.000158277
0.000148661
0.000146058
0.000197426
0.000150353
0.0533807
0.0781728
0.00016673
0.0516726
0.000214925
0.000178503
0.000159107
0.0509488
0.000161335
0.000209718
0.000237935
0.0259643
0.000243889
0.000156803
0.000156614
0.00016733
0.00014832
0.0407356
0.000151436
0.000152331
0.000217019
0.0545438
0.000197942
0.000152652
0.000292012
0.000168912
0.000171301
0.000198697
0.000167165
0.0871824
0.000147583
0.000185185
0.0850047
0.000244999
0.000174109
0.000145066
0.000340876
0.000172714
0.0269431
0.0247928
0.000148632
0.000176893
0.000149092
0.000207909
0.000146674
0.000147796
0.0624716
0.00017871
0.000148597
0.000145975
0.000145548
0.000149474
0.000164798
0.0535539
0.0442095
0.000148718
0.00014843
0.000148157
0.000145103
0.000215914
0.0471809
0.000166185
0.000207833
0.000202351
0.000164953
0.00021373
0.000148818
0.000304501
0.00023336
0.000191597
0.000149088
0.000169524
0.00036819
0.0632257
0.000148106
0.000146894
0.000147613
0.000148035
0.0424703
0.000148993
0.000156703
0.00015467
0.0770238
0.000195766
0.000153598
0.000210423
0.000156189
0.000148056
0.000211757
0.0474352
0.000146944
0.000145712
0.000144971
0.000145541
0.000169198
0.000180415
0.000149622
0.000149279
0.000147261
0.000191871
0.000202985
0.000147276
0.000152304
0.000185079
0.000148151
0.000169399
0.000145991
0.000160755
0.000148479
0.000147785
0.000162947
0.000159849
0.000151352
0.000148023
0.000146855
0.0389307
0.000148055
0.00014864
0.000148952
0.000148257
0.000158932
0.000160359
0.000192722
0.00014854
0.000160483
0.000178384
0.000146168
0.000148463
0.0679504
0.000173627
0.0244757
0.000148748
0.035137
0.0376536
0.000147967
0.000149699
0.0648303
0.000147775
0.00420613
0.000245019
0.0606894
0.000208621
0.000147676
0.0653279
0.00018008
0.000205718
0.000189074
0.000148809
0.000147536
0.0317389
0.000148193
0.028806
0.000168644
0.000150227
0.000152478
0.000152134
0.000145893
0.000311755
0.0038037
0.0474948
0.00015627
0.032246
0.000147284
0.000148716
0.000147457
0.000148642
0.00024487
0.000172967
0.000150017
0.000166176
0.00014798
0.00015084
0.063436
0.000168452
0.0490146
0.00015269
0.000152475
0.000147678
0.000210764
0.000149207
0.000162043
0.0311526
0.0478282
0.000147872
0.000147568
0.000152175
0.000147642
0.000172431
0.0574082
0.000149709
0.00014729
0.000161741
0.00014637
0.00099688
0.000148815
0.000150617
0.000148781
0.000210698
0.0519459
0.000155129
0.0393447
0.000185783
0.000191888
0.00553791
0.0306201
0.0589257
0.0322567
0.00278311
0.000149248
0.000147023
0.000153053
0.000175462
0.0481484
0.0247753
0.000158467
0.000179911
0.000145335
0.00014746
0.000147195
0.000171027
0.0373106
0.000149341
0.0420653
0.000148441
0.000148344
0.0421754
0.0001477
0.0858504
0.000146401
0.000189341
0.000154044
0.000174244
0.000147073
0.000150207
0.000148087
0.000148023
0.0158348
0.000266493
0.000148076
0.00014847
0.0574788
0.000167203
0.000163161
0.0302321
0.0606704
0.000157709
0.000150603
0.000210916
0.0621429
0.0295813
0.000164776
0.000147817
0.0854895
0.000146973
0.0646782
0.000152085
0.000249933
0.000147954
0.000187646
0.000146891
0.00014848
0.00017226
0.00022189
0.000196349
0.000152114
0.00014698
0.0524574
0.0380327
0.000146814
0.0515979
0.000151216
0.000148375
0.000148559
0.0611393
0.000148281
0.0657966
0.000147789
0.000183602
0.0469923
0.000146684
0.0225461
0.000149146
0.000208646
0.00020271
0.000148337
0.000149162
0.00529886
0.000150183
0.000205725
0.0342919
0.000206418
0.000147724
0.000147153
0.00017875
0.000152158
0.000151147
0.000149291
0.0416913
0.000152399
0.000158887
0.000153948
0.0282907
0.000154599
0.00014795
0.00014682
0.000237786
0.000149176
0.0293478
0.000160555
0.000238424
0.000149706
0.000184382
0.000234782
0.000147682
0.00014712
0.000164473
0.0474151
0.000147725
0.0761102
0.000193212
0.000156695
0.000167479
0.0675802
0.000148067
0.000161998
0.000155323
0.000155685
0.000148252
0.000149525
0.000166337
0.000178255
0.0618857
0.000152073
0.000258119
0.000214024
0.000147315
0.000529563
0.000177467
0.000210395
0.0443559
0.000159015
0.0498049
0.0428837
0.000150756
0.000147892
0.000145492
0.000153583
0.000177962
0.000199075
0.000148185
0.000178046
0.000147511
0.000175061
0.000151089
0.000147732
0.000188918
0.000172863
0.000147648
0.000146011
0.0486834
0.0588389
0.000609566
0.000146734
0.000160049
0.0203654
0.000147914
0.067526
0.000147704
0.000173011
0.000156429
0.000147709
0.000153657
0.000185856
0.000159253
0.0438554
0.000149097
0.000152084
0.000144187
0.000183992
0.000147815
0.000145984
0.0656783
0.000147903
0.000204569
0.000176839
0.020316
0.00015617
0.000299351
0.000237074
0.000162439
0.000153912
0.033086
0.000208853
0.0240161
0.000260182
0.000158834
0.0497843
0.000147661
0.000156439
0.00117069
0.000146587
0.000166543
0.000148727
0.00026061
0.000146504
0.000176133
0.000159739
0.000221066
0.000152186
0.000153828
0.000183631
0.00015607
0.000193183
0.0676744
0.000218049
0.000147879
0.000183634
0.0655589
0.000147825
0.000199309
0.000148686
0.000206705
0.000166922
0.000153024
0.000172228
0.000178503
0.000190049
0.000161655
0.000148511
0.0407291
0.0277635
0.00016789
0.000147282
0.0870559
0.000148281
0.0575023
0.000248105
0.0453482
0.000239013
0.00021768
0.00621188
0.000163393
0.000203187
0.000148629
0.000152375
0.000178274
0.000146687
0.0487513
0.0219664
0.000209316
0.0479865
0.000162264
0.000144255
0.000229281
0.0167567
0.000147313
0.000172677
0.000172116
0.0689959
0.000148538
0.000213137
0.0577887
0.000236958
0.000208773
0.000145929
0.000149442
0.00014432
0.000153785
0.0729021
0.000370869
0.000235571
0.0152139
0.0705653
0.000147921
0.000145005
0.000202113
0.0273253
0.0345256
0.000151964
0.000206749
0.000273575
0.000157453
0.000171851
0.000147196
0.0362476
0.000147497
0.00018091
0.000232868
0.000131952
0.000146902
0.0590234
0.000147043
0.000161483
0.000172725
0.000146008
0.000194372
0.000157738
0.0518464
0.059663
0.000193767
0.0510107
0.000159272
0.000151608
0.000149041
0.000151299
0.000147758
0.0544886
0.00016969
0.000155364
0.000149667
0.0594326
0.0346045
0.000144875
0.00015759
0.000147123
0.0402979
0.0609293
0.000176853
0.000148472
0.000148496
0.000148066
0.000154535
0.0427592
0.000149713
0.000206223
0.0582584
0.000147654
0.013976
0.0674946
0.000153744
0.0336405
0.000147142
0.0202116
0.000164922
0.0398011
0.000160861
0.0407197
0.000145892
0.000211467
0.000171569
0.000178306
0.000150111
0.000157336
0.000146645
0.000148528
0.0388164
0.000223038
0.000152821
0.0703964
0.0374926
0.000145799
0.0405338
0.000151814
0.0041205
0.064759
0.000218105
0.000191434
0.000361937
0.0853615
0.059978
0.000180948
0.000153635
0.0467192
0.0283076
0.0306548
0.000193543
0.00018166
0.000148543
0.000149686
0.000149092
0.000144317
0.000147833
0.0672185
0.000145886
0.000153778
0.000148881
0.000186118
0.000148566
0.000146053
0.000147953
0.000178795
0.000150777
0.000149191
0.000148674
0.0001482
0.00016569
0.000151669
0.000145889
0.0573373
0.000147755
0.000147092
0.000165757
0.000150276
0.00015644
0.000147542
0.000252374
0.000197257
0.000147735
0.000161451
0.000148101
0.000147397
0.0372367
0.000160989
0.000147884
0.0245593
0.000144642
0.000222027
0.00018641
0.000147445
0.000165263
0.000156222
0.000287286
0.000209865
0.00015052
0.000185124
0.000152312
0.000148233
0.000184475
0.0531817
0.00014832
0.000149907
0.000146984
0.000155867
0.000143958
0.000156156
0.000174101
0.0414684
0.000156171
0.00014746
0.0606204
0.000152233
0.0302623
0.000147738
0.000193705
0.00016275
0.000193702
0.000147742
0.000298911
0.0561538
0.000153382
0.0289399
0.000193206
0.000148249
0.0681796
0.000148785
0.000147793
0.000147866
0.000159698
0.000152473
0.0298913
0.000149201
0.000158831
0.000152979
0.0702667
0.000148282
0.000156277
0.000146713
0.000173551
0.000145433
0.000149114
0.000145799
0.000148826
0.00021653
0.00014726
0.038043
0.0724974
0.000147029
0.000619788
0.000178016
0.000171222
0.0468166
0.0774665
0.00512451
0.000154168
0.043361
0.00019525
0.000168628
0.000149607
0.000153756
0.000156306
0.000333201
0.000148098
0.000178946
0.0113742
0.000149509
0.0695799
0.000192271
0.0325595
0.000148216
0.000156114
0.000148029
0.000145555
0.000185431
0.0502674
0.000197945
0.000226732
0.000172163
0.000148032
0.000219765
0.000184809
0.000209586
0.000153839
0.000145476
0.0448965
0.056527
0.000149757
0.000149897
0.000148113
0.000147288
0.000148388
0.000153091
0.0486389
0.000152623
0.000147633
0.0701218
0.0331502
0.000147393
0.00015394
0.000146414
0.0399764
0.000146824
0.000147169
0.0639559
0.0652312
0.000148078
0.000162379
0.0862978
0.000173523
0.000179742
0.000178076
0.000146579
0.0555217
0.000148283
0.000216637
0.0863997
0.000162087
0.000202306
0.000172182
0.000165456
0.000149917
0.000152298
0.000148257
0.000206641
0.000148243
0.000147607
0.00014869
0.000158715
0.000239544
0.0261699
0.000151852
0.000145438
0.000144913
0.000149352
0.0659218
0.0240341
0.0274907
0.000169696
0.000152257
0.000146924
0.000149442
0.000156577
0.0322669
0.000157833
0.000184785
0.0459996
0.000441983
0.000191804
0.00015647
0.00015079
0.000147487
0.000147861
0.000149718
0.000153662
0.000147584
0.00014695
0.000149405
0.0732035
0.000186944
0.000147328
0.000171008
0.000145533
0.0180945
0.0440672
0.000173293
0.0514408
0.0608395
0.00015497
0.0862113
0.000238528
0.000147549
0.0256181
0.0645223
0.000225305
0.000167787
0.000148283
0.000147511
0.000146676
7.45538e-05
0.000181564
0.000176834
0.000186881
0.000165421
0.000147183
0.075236
0.0775386
0.000176828
0.00021768
0.0001478
0.000207556
0.000160895
0.0446965
0.000220816
0.058183
0.00015386
0.000152316
0.000184298
0.000182165
0.000145616
0.0251658
0.0757762
0.000178247
0.0584432
0.00281729
6.84128e-05
0.00732435
0.000236342
0.000152625
0.000203851
0.000240706
0.000157992
0.0527996
0.000150272
0.000151904
0.0852954
0.000147562
0.000144496
0.000144426
0.000183978
0.000150522
0.000147505
0.0640198
0.000149423
0.0293628
0.0768038
0.000787245
0.000338736
0.000147858
0.000166194
0.000145445
0.000195796
0.000202266
0.000147707
0.000287095
0.000199649
0.000169967
0.000146047
0.000198075
0.000166272
0.000287958
0.000184574
0.000156466
0.000149761
0.000151654
0.0633338
0.000172848
0.000168124
0.000103917
0.00015062
0.000147905
0.000146969
0.0846464
0.000147014
0.00018022
0.000145624
0.0286298
0.000150003
0.00046557
0.00017232
0.0695612
0.000259301
0.0501929
0.00015282
0.000169807
0.000190175
0.000155468
0.000148944
0.000159181
0.0307975
0.0001957
0.000147532
0.000172489
0.0395788
0.000147684
0.000173044
0.000147693
0.0590208
0.049834
0.000149833
0.000150598
0.000151298
0.0287108
0.000147788
0.0691842
0.0647042
0.000206516
0.0613179
0.0322341
0.000149776
0.000149583
0.000147134
0.0347553
0.000151466
0.0139488
0.000147357
0.000183118
0.000149963
0.000194305
0.000150899
0.000239848
0.000199004
0.00018674
0.00022502
0.0328302
0.0382547
0.000148482
0.000181573
0.0500407
0.000148999
0.000236275
0.000149948
0.000170535
0.000156317
0.000164858
0.000147474
0.063613
0.000149712
0.0560336
0.000149246
0.045526
0.000173511
0.000148382
0.000146667
0.000168429
0.000162101
0.000151811
0.000210903
0.00015329
0.000187598
0.000191917
0.000169425
0.00014752
0.000186176
0.000183186
0.0636646
0.00022142
0.0001472
0.018702
0.000243416
0.000208284
0.000148373
0.0359001
0.000159738
0.000147953
0.061506
0.0330952
0.000147964
0.000156245
0.000146733
0.000176299
0.000182361
0.000176361
0.0579708
0.04126
0.000171852
0.000148382
0.000157923
0.00017703
0.000147472
0.000183528
0.000147447
0.00014935
0.000217915
0.000158967
0.000155225
0.000187061
0.000153728
0.000147384
0.000166706
0.000207526
0.000147489
0.000155809
0.000148716
0.000161648
0.000195582
0.0568281
0.0235715
0.000240745
0.000145453
0.0500482
0.000172451
0.000152541
0.000172146
0.000153697
0.000191152
0.000168474
0.0514696
0.000149873
0.000147992
0.000224431
0.0855242
0.0337762
0.000145472
0.000146234
0.000148487
0.000146538
0.0240121
0.000202112
0.00015006
0.000149422
0.023761
0.048782
0.00026214
0.076277
0.000146701
0.000170046
0.00016899
0.000168049
0.000200632
0.000147201
0.0322948
0.000190127
0.0252617
0.000146966
0.0625051
0.000256509
0.000149665
0.000177158
0.0304214
0.000145823
0.000149351
0.0372585
0.0454884
0.0582776
0.000150145
0.000150393
0.000149314
0.0532318
0.0618947
0.000172917
0.0485786
0.000148215
0.032529
0.0674506
0.000148505
0.0515873
0.00014985
0.000194423
0.000202121
0.0734843
0.000146785
0.000154172
0.000170983
0.0762291
0.00015203
0.0641192
0.000167496
0.0861179
0.000172442
0.000153889
0.000147402
0.000179252
0.000148349
0.000145772
0.000147037
0.000219455
0.000159753
0.000149809
0.0294873
0.00015811
0.0476256
0.000147303
0.000154907