/*--------------------------------*- C++ -*----------------------------------*\
| =========                 |                                                 |
| \\      /  F ield         | OpenFOAM: The Open Source CFD Toolbox           |
|  \\    /   O peration     | Version:  v2012                                 |
|   \\  /    A nd           | Website:  www.openfoam.com                      |
|    \\/     M anipulation  |                                                 |
\*---------------------------------------------------------------------------*/
FoamFile
{
    version     2.0;
    format      ascii;
    class       volScalarField;
    location    "200";
    object      nut;
}
// * * * * * * * * * * * * * * * * * * * * * * * * * * * * * * * * * * * * * //

dimensions      [0 2 -1 0 0 0 0];


internalField   nonuniform List<scalar> 
27915
(
0.00297436
0.000332672
0.0054652
0.0140584
0.00081829
0.00189434
0.0105767
0.000485538
0.000892377
0.00146839
0.00022407
0.00200387
0.000426871
0.0122172
0.0120416
0.0008585
0.00662569
0.000575453
0.00720387
0.00113604
0.0121181
0.00414679
0.007488
0.00280728
0.00582932
0.00584913
0.00583876
2.60771e-05
0.0143738
0.0117847
0.000222786
0.00585862
0.00672594
0.00123127
0.0075597
0.00583937
0.00394219
0.000803821
7.82006e-05
0.00150849
0.00583059
0.000699325
0.00583198
0.000549917
0.00114279
0.00583368
0.00272523
0.00161719
0.00371404
0.00409897
0.00165419
0.000602739
0.000839211
0.00153688
0.000195556
0.00468745
0.00911714
0.00592214
0.00403959
0.0139469
0.00585835
0.000183263
0.000588648
0.000274408
0.00583628
0.00182846
0.00188607
0.000449184
0.011672
0.000566858
0.000652843
0.0117314
0.00583033
0.00584266
0.000508238
0.000287259
0.000906131
0.000586598
0.000366914
0.00189353
0.000696361
0.00149417
0.00584745
0.00451391
0.00398505
0.00583387
0.003694
0.000674593
0.000155648
0.000552069
0.00584344
0.000283912
0.000847535
0.000243706
0.000714162
0.00156145
0.00532116
0.00198944
0.00584351
0.0122198
0.00583659
0.00583411
0.00612258
0.000704863
0.00583078
0.00421738
0.0058371
0.000203431
0.000149849
0.00138839
0.0058337
0.0011982
0.000271112
0.0127423
0.00120672
0.00117319
0.0103055
0.00584639
0.00088449
0.00583425
0.000573534
0.000888959
0.000163367
0.000623199
0.00179293
0.00583764
0.00110251
0.00941684
0.00157983
0.000974831
0.0014512
0.00583195
0.00583406
0.0052742
0.0041313
0.0018855
0.00583051
0.00584312
0.000439902
0.00583321
0.0149637
0.014352
0.00267
0.0120013
0.000199347
0.00593953
0.00181831
0.00866687
0.000579827
0.00589329
0.00587943
0.000542169
0.00116448
0.00721717
0.000557333
0.000532822
0.00514049
0.00429143
0.000663312
0.00270478
6.96024e-05
0.000542775
0.000927041
0.00363433
0.0027386
0.00191863
0.000986233
0.000405808
0.00480711
0.000315107
0.0121246
0.00415433
0.00709055
0.00583148
0.00583644
0.000713665
0.00134241
0.00286243
0.0018882
0.000208968
0.00435569
0.00189673
0.00583311
0.00240763
0.0125814
0.000863985
0.000606635
0.00583126
0.00492925
0.000479578
0.00266318
0.000845427
0.00583135
0.00583208
0.00583045
0.00548103
0.00206624
0.00114664
0.00165942
0.0114184
0.000171397
0.000436504
0.00115362
0.000770424
0.00283407
0.0016774
0.0112006
0.000803714
0.0025086
0.000661822
0.0144689
0.00320273
0.012567
0.00128264
0.00155515
0.00583422
0.000699104
0.00994198
0.000763441
0.00163029
0.00878434
0.000958308
0.000392572
0.0058334
0.000515526
0.000798727
0.000412672
0.00238585
0.000191887
0.00427007
0.0088037
0.00583293
0.00701687
0.000679429
0.00406069
0.00261189
0.00178507
0.0019031
5.46851e-05
0.00583027
0.00583369
0.0127314
0.000373007
0.000800763
0.00583298
0.000627626
0.00108819
0.00115763
0.000429532
0.000984338
0.00583239
0.00204196
0.000921934
0.00583604
0.000714904
0.000813403
0.00195646
0.00188013
0.000589288
0.0136888
0.0106997
0.00183238
0.00583022
0.00586087
0.000755302
0.000901456
0.00583565
0.00583359
0.000677659
0.00287681
0.00502629
0.00583194
0.00316711
0.000559819
0.0011662
0.0150261
0.00252072
0.00901479
0.0125114
0.0151259
0.000964515
0.00819119
0.000863416
0.00587679
0.00044553
0.000878463
0.000480438
0.0011983
0.000199257
0.0104052
0.00121799
0.000723744
0.0040598
0.000222911
0.00201809
0.00582915
0.00266059
0.0131082
0.000389615
0.00443781
0.000707033
0.00451156
0.000234624
0.00583196
0.00128686
0.0141475
0.00583392
0.0002138
0.00564688
0.00153585
0.000261385
0.00381247
0.0145761
0.00109924
0.0142681
0.00582938
0.00587995
0.00583241
0.000477985
0.000143001
0.00675619
0.00583227
0.00181079
0.00172855
0.000736177
0.000610831
0.0058328
0.000400116
0.000631784
0.000851768
0.00357412
0.0147926
0.000417249
0.0075098
0.0150041
0.000890239
0.000530327
0.000776371
0.000212145
0.000977802
0.000706663
0.0014872
0.000444367
0.000142532
0.00017334
0.011353
0.00397647
0.000127644
8.06912e-05
0.00250356
0.000474473
0.0137813
0.000938334
0.00110372
0.0127913
0.000175909
0.000657281
0.00478402
0.00623074
0.0020444
0.00960916
0.00505983
0.00583449
0.000627024
0.000476607
0.00583581
0.000267107
7.72552e-05
0.000371183
0.000719235
0.000602522
0.000995344
0.000894317
0.000239057
0.000637688
0.00130489
0.00364414
0.00291394
0.010204
0.000615522
0.0116178
0.00185495
0.00107676
0.000445821
0.00583314
0.000142437
0.00142183
0.000952852
0.00013359
0.000422166
0.00524276
0.00122587
0.000139568
0.000757506
0.00384554
0.0012365
0.000588446
0.00159702
0.00190104
0.000764787
0.0147493
0.00100853
0.00583303
0.00583629
0.0144258
0.00216307
0.000184468
0.00583305
0.000867813
0.000564017
0.00583178
0.00182039
0.0058359
0.00133689
0.0019029
0.000346625
0.00583149
0.000437693
0.000429216
0.00583039
0.0145753
0.000304734
0.000676154
0.0151036
0.000274259
3.66105e-05
0.000682387
0.00462239
0.0058375
0.00117781
0.000492489
0.00107293
0.000464467
0.000332749
0.0131194
0.000421423
0.00583341
0.0036903
0.00583179
0.000207011
0.00583491
0.00583239
0.000206898
0.000642877
0.00583143
0.000556189
0.00139093
0.00929392
0.000630582
0.00584095
0.00252048
0.00195538
0.00583244
0.00715793
0.00583335
0.00131408
0.000785966
0.00584382
0.000829243
0.0135929
0.0135148
0.00583035
0.000745542
0.00182717
0.00204665
0.00193307
0.000854016
0.0144887
0.00260992
0.000762711
0.000740076
0.00568377
0.0124312
0.00589344
0.00583644
0.000596265
0.000318153
0.0147108
0.00110679
0.000932162
0.00120776
0.000310937
0.0147959
0.0124795
0.0028746
0.00586218
0.00145424
0.00149467
0.000974885
0.000783906
0.00584545
0.00191995
0.000168867
0.00199291
0.000705926
0.00119693
0.00583645
0.00179401
0.00064652
0.00041167
0.00144074
0.00406685
0.000496929
0.0120919
0.00347417
0.0009992
0.000102601
0.00583649
0.00122411
0.00368373
0.00584733
0.00413948
9.4332e-05
0.0058319
0.00984904
0.0121804
0.000223407
0.00146756
0.0111352
0.000875957
0.000144259
0.0058323
0.00583447
0.00203401
0.00163664
0.000959729
0.000868043
0.00167969
0.0029551
0.00167255
0.000806997
0.00445195
0.0058319
0.00583303
0.00139098
0.00107225
0.00592708
0.00834607
0.000513637
0.000141333
0.00583488
0.00176374
0.00583287
0.000135485
0.00585872
0.00584609
0.00041006
0.00463637
0.000814493
0.00583089
0.00464842
0.0122093
0.000804607
0.00583298
0.0132318
0.00095399
0.00583658
0.00435423
0.000168335
0.00141592
0.000695313
0.00583444
0.000171318
0.00183646
0.0007405
0.000903014
0.00583323
0.000963956
0.0147539
0.00231489
0.00584235
0.0058359
0.00583783
0.00112934
0.000515783
0.00583466
0.0146061
0.0126069
0.000180689
0.00372839
0.000651031
0.000981836
0.0058384
0.0058426
0.000971979
0.000207369
0.00192523
0.0011278
0.00761078
0.000464835
0.00015245
0.0038713
0.00583012
0.00339279
0.00566739
6.21667e-05
0.000331934
0.0118852
0.00768701
0.00175534
0.0036555
0.00452281
0.0070825
0.00177494
0.000741058
0.000686318
0.00219228
0.0040299
0.000903466
0.000438788
0.00583228
0.00417411
0.000922492
0.00031236
0.00075563
0.00759242
0.000329127
0.00452804
0.00583049
0.000677321
0.00166835
0.00311891
0.0116968
0.000973196
0.00583228
0.000803795
0.00128582
0.00428348
0.000862753
0.00180642
0.00583606
0.000804601
0.000621929
0.00600846
0.00198267
0.000723173
0.00969235
0.00050206
0.000297443
0.00583628
0.00583556
0.00583036
0.000221073
0.00105193
0.000259819
0.012142
0.000797324
0.00289032
0.00588415
0.000131792
0.00584775
0.00182731
0.00148348
0.00378042
0.000370809
0.00116659
0.00291171
0.0023053
0.00220922
0.000337299
0.00246939
0.00583213
0.00210995
0.00200573
0.000528475
0.0058404
0.00363782
0.00094872
0.00490154
0.00405136
0.0041793
0.00584483
0.00149972
0.00582827
0.00588383
0.000762167
0.000586781
0.00143839
0.00819123
0.0058306
0.000703146
0.0129921
0.0106262
0.000487828
0.00583128
0.000304935
0.00193876
0.00583327
0.00170612
0.00130054
0.00105344
0.00583341
0.0040281
0.00227299
0.00921208
0.00372811
0.000777555
0.000418179
0.000179559
0.000520877
0.00583628
0.000851764
0.000114808
0.00583333
0.000279223
0.00514857
0.000821221
0.000461772
0.000125103
0.000661633
0.00582785
0.00419485
0.00161339
0.0128269
0.000611806
0.000321309
0.000943885
0.00014697
0.0058839
0.00583051
0.00583295
0.00583644
0.00204016
0.00584344
0.00186236
0.0014915
0.00182847
0.000796664
0.000772005
0.0139684
0.00254772
0.00583061
0.0041534
0.00124269
0.00583332
0.000440803
0.00148252
0.00583195
0.00583556
0.000994512
0.000776338
0.00198485
0.00184274
0.00764811
0.00588451
0.00246966
0.012776
0.00130628
0.00636296
0.00583345
0.00123685
0.00156033
0.00040234
0.00583295
0.00126844
0.000415482
0.000303674
0.000200395
0.000304786
0.00806147
0.001236
0.00821776
0.00582895
0.00862515
0.00290273
0.000398034
0.00703986
0.000457454
0.00152358
0.00544117
0.00105503
0.000863617
0.00213166
0.000194038
0.00583137
0.00256687
0.000823175
0.00462829
0.000227401
0.000948063
0.00255726
0.00319785
0.0106463
0.00587593
0.00583328
0.000422355
0.00583034
0.00225355
0.0113706
0.015064
0.00190808
0.00582753
0.00583187
0.00132967
0.0107212
0.00583023
0.000303051
0.000608687
0.001478
0.00090038
0.00143024
0.000782022
0.00597957
0.000267781
0.00912979
0.00204952
0.000474951
0.00197106
0.0152457
0.000976293
0.00563417
0.00583309
0.00074087
0.00584207
0.00299294
0.0124114
0.000753084
0.0105129
0.00583363
0.000645484
0.000441012
0.00859266
0.000905819
0.000365474
0.00583333
0.000760999
0.00191712
0.000149982
0.00052298
0.00999236
0.00169251
0.000979729
0.000279655
0.000482542
0.00982399
0.00481108
0.0150633
0.00130377
0.000112018
0.00583468
0.000314416
0.000645108
0.00583602
0.00119164
0.000625441
0.00178802
0.00167902
0.00583711
0.000169103
0.00180388
0.000428595
0.000955745
0.00252971
0.0121452
0.00134188
0.00956387
0.00584683
0.00135175
0.000637921
0.000417965
0.0010128
0.0140434
0.00682029
0.000373652
0.00583199
0.000377244
0.000143271
0.0122969
0.00062896
0.00102761
0.00210342
0.000978286
0.00584304
0.000961227
0.01523
0.000631619
0.000988296
0.00116103
0.00868831
0.00584607
0.00583364
0.00540172
0.00186498
0.00147754
0.00582728
0.00583198
0.00584254
0.000169965
0.00612469
0.00583456
0.00583968
0.00583491
0.0035338
0.00197506
0.0101038
0.00487917
0.00432008
0.000919963
0.0015626
0.00583131
0.00062886
0.000285632
0.00724352
0.00208711
0.00262143
0.00135592
0.00584555
0.00077823
0.000632607
0.00639318
0.00111802
0.0130623
0.00253508
0.00583829
0.00128
0.000288667
0.014845
0.00583327
0.000877064
0.0020178
0.00100346
0.00588483
0.00912453
0.00583112
0.000935108
0.0131132
0.00584317
0.0013098
0.00138247
0.00175046
0.00181821
0.00121947
0.0105457
0.00171618
0.00562622
0.00583702
0.0148155
0.00583738
0.000991864
0.000157497
0.00583337
0.00357441
0.00393827
0.00583909
0.000977109
0.00022234
0.00219732
0.000108665
0.00484847
0.0122117
0.00497352
0.000788371
0.0148645
0.00351306
0.00583799
0.0058846
0.0117772
0.0140764
0.00583354
0.00350028
0.00159784
0.000152519
0.0152281
0.0121877
0.000308412
0.0058334
0.00583124
0.0058338
0.00140411
0.000851767
0.00584644
0.0121009
0.00585592
0.00585162
0.00583156
0.000684329
0.000138206
0.00231151
0.000290936
0.000715463
0.00211978
0.0015356
0.00434871
0.0127297
0.000531501
0.00583295
0.00572579
0.000279972
0.000938624
4.16596e-05
0.000247856
0.00588387
0.000607504
0.00585179
0.0114124
0.000950761
0.000725924
0.000150731
0.00585301
0.00585048
0.00585108
0.00104323
0.00584174
0.000226727
0.000310741
0.00121182
0.0122726
0.00583031
0.000193841
0.00345631
0.00583345
0.000408134
0.000606797
0.000204571
0.00583609
0.0038182
0.0052318
0.00201019
0.00698546
0.00583034
0.00523698
0.00743753
0.0019876
0.00385104
0.00590709
9.03422e-05
0.00085648
0.00583713
0.01259
0.000182989
0.00122524
0.00385117
0.00586731
0.000594703
0.0101919
0.00584116
0.00583733
0.00588402
0.00082136
0.00178305
0.00583239
0.00100023
0.00233915
0.000426203
0.000862008
0.00451666
0.00583503
0.000642177
0.00129431
0.00155237
0.00263069
0.00583777
0.00583612
0.00127087
0.00197422
0.000340497
0.00197808
0.000399939
0.00584329
0.000454302
0.00583553
0.000200396
0.00475627
0.0125944
0.00230219
0.00584063
0.00733856
0.00427306
0.000743907
0.00189311
0.000646339
0.000738399
0.00583152
0.00585115
0.000885958
0.00449664
0.00885112
0.00100491
0.00263847
0.000667845
0.000735953
0.000871561
0.00594626
0.0090954
0.00583287
0.0010263
0.00586924
0.00805694
0.00686679
0.000291094
0.0147868
0.00583054
0.00488078
0.00424776
0.00458109
0.000380162
0.000795906
0.000879643
0.000279103
0.00180927
0.000871968
0.00583062
0.000687514
0.000192372
0.000186945
0.0132084
0.00120606
0.000228966
0.00583162
0.0012003
0.000698925
0.0121735
0.00218527
0.00136591
0.000550115
0.00136788
0.00583148
0.00187623
0.000650725
0.00583039
0.0129031
0.000892336
0.00583354
9.53711e-05
0.00327726
0.000733777
0.00459629
0.000983018
0.00066082
0.0121688
0.00521304
0.0058331
0.00161105
0.00119841
0.0125553
0.00583057
0.0040508
0.00124831
0.0109543
0.00584696
0.00212149
0.0100624
0.0151898
0.00764178
0.0148316
0.00583296
0.0110112
0.00429648
0.00079591
0.00204717
0.00583066
0.00091357
0.0137598
0.00112871
0.00280855
0.00945749
0.0058326
0.00205241
0.00583441
0.00265915
0.0132951
0.00146925
0.010706
0.00541308
0.00583189
0.0104617
0.00584687
0.000255265
0.00586731
0.00212156
0.000487819
0.00506916
0.00195132
0.000302153
0.00583484
0.00364256
0.00586934
0.00041431
0.000757299
2.54537e-05
0.00214935
0.00112706
0.0004326
0.000149062
0.00904904
3.80403e-05
0.00147742
0.00115036
0.00506201
4.93201e-05
0.000370113
0.00583208
0.00069697
0.000772798
0.000539246
0.00583623
0.000318527
0.00144708
0.00380347
0.000435046
0.00576736
0.00471411
0.00964815
0.000514187
0.000614569
0.000200403
0.0145003
0.00248775
0.000328868
0.000865443
0.00584748
0.00914594
0.000171971
0.00588393
0.000427741
0.000714135
8.39589e-05
0.000450291
0.000680197
0.000632111
0.00858368
0.000516956
0.00127916
0.00583568
0.00585283
0.00160622
0.0137583
0.00526504
0.000695198
0.00583678
0.00583319
0.000588098
0.0067767
0.00583573
0.000652488
0.0063389
0.000635886
0.000172661
0.00583857
0.0139963
0.00583562
0.000370003
0.000859305
0.0012209
0.0058663
0.00347696
0.0058358
0.000800803
0.000861086
0.010833
0.000742278
0.00207335
0.000610107
0.00509127
0.00584437
0.00114934
0.00012591
0.000981592
0.00583192
0.000467909
0.00583193
0.00584342
0.00355079
0.00174846
0.00563275
0.000182225
0.000510552
3.89022e-05
0.00710757
0.00583631
0.00845933
0.00583289
0.00583354
0.00165346
0.000383914
0.000420193
0.000151907
0.000828214
0.00583092
0.000143711
0.000650208
0.0058332
0.0058336
0.000310068
0.00583612
0.00583282
0.000428209
0.000314903
0.00977116
0.00158776
0.00063061
4.97801e-05
0.000604603
0.000941467
0.0109437
0.000297474
0.000712638
0.00133021
0.000718976
6.54991e-05
0.00583204
0.000908809
0.00583031
0.00380813
0.00102829
0.00265458
0.00030864
0.00583558
0.000337427
0.00583337
0.0143759
0.00584433
0.000941471
0.000374642
0.000389066
0.00582758
0.00583851
0.000187237
0.00159942
0.00110024
0.000337746
0.0131665
0.00560703
4.26219e-05
0.00310004
0.00583053
0.000167248
0.000198956
0.0049818
0.00369723
0.00583766
0.000411581
0.00708824
0.00509479
0.000649487
0.0134155
0.00452542
0.00537957
0.000502423
0.00802588
0.00583392
0.00287
0.000386578
0.0122253
0.00547358
0.00583202
0.00641656
0.00583571
0.000420424
0.000891859
0.00143655
0.00583026
0.0132814
0.00584356
0.00786168
0.000323869
0.0105364
0.000254706
0.00335349
5.98927e-05
0.00107686
0.00837404
0.00584114
0.00586665
0.000229561
0.000938258
0.00326891
0.00430661
0.000380298
0.00583508
0.00584369
0.000517879
0.00752023
4.14133e-05
0.00583947
0.0131352
0.000660554
0.000390741
0.00583355
0.00456925
0.00059261
0.00185816
0.00425358
0.00583075
0.00582807
0.0058387
0.00583285
0.012855
0.00843653
0.00583474
0.00583326
0.000237612
0.00401568
0.00024836
0.000567461
0.00471223
0.000745472
0.000103581
0.00182154
0.00583571
0.0147797
0.00104449
0.0056012
0.005831
0.00166861
0.00169363
0.00586438
0.00704276
0.00584133
0.00321108
0.0120799
0.000924035
0.0010513
0.000388476
0.000339678
0.0135867
0.000680963
0.0011513
0.00670118
0.00170165
0.00583031
0.0119359
0.00901814
0.00148686
0.00172223
0.00959854
0.000520764
0.0142297
0.0020508
0.00583378
0.00205428
0.00095337
0.000668565
0.00228201
0.00118859
0.0150087
5.80952e-05
0.000679308
0.00583506
0.00583365
0.0096927
0.00583556
0.00171681
0.0067933
0.00931634
0.00182318
0.00583431
0.0138742
0.000476203
0.0125891
0.0126027
0.00047803
0.000955615
0.00130377
0.00189675
0.00583321
0.00582875
0.000285513
0.00348046
0.0109397
0.0102965
0.000601107
0.0111215
0.00115828
0.000507831
0.000355507
0.00864974
0.000796122
0.000504777
0.000685144
0.000693832
0.00070735
0.00165585
0.0012025
0.000690098
0.00344114
0.00721157
0.00155257
0.000720022
0.000623858
0.00802641
0.00127677
0.000996093
0.000355012
8.09251e-05
0.000914669
0.00129614
0.000144205
0.007425
0.00584117
0.000314924
0.00939622
0.000758693
0.000419095
0.00583332
0.000243864
0.000733008
0.0067677
0.00326995
0.00583311
0.000137342
0.00197243
0.000624104
0.00583046
0.00583205
0.0133129
0.000336238
0.00583332
0.00583454
0.00583108
0.00583495
0.000656889
0.0109276
0.00801967
0.00448162
0.00583301
0.00299818
0.00583407
0.00113772
0.0122644
0.000137158
0.000229263
0.000500201
0.00148362
4.50524e-05
0.00583342
0.000318912
8.55697e-05
0.000253535
0.00310336
0.000562456
0.000384257
0.0146729
0.00583207
0.00584526
0.00584392
0.00583286
0.0120986
0.00216209
0.00118353
0.00221683
0.0151749
0.000344731
0.00062541
3.71813e-05
0.000445186
0.00359243
0.000672382
0.00835779
0.00588532
0.00586089
0.00583325
0.00583223
0.000989968
0.000519242
0.00310725
0.00269485
0.00591198
0.00128611
0.000415652
0.00591191
0.00203277
0.000977506
0.00583369
0.00135648
0.00582871
0.000474656
0.00583315
0.00583336
0.00120705
0.000893282
0.00251284
0.00583235
0.00584399
0.00942995
0.00536841
0.00213199
0.00422828
0.00583234
0.000374887
0.00208098
0.00201971
0.00583294
0.00154344
0.00121548
0.00584238
0.00583311
0.0151655
0.000653785
0.0030725
0.00583278
0.00749625
0.00155247
0.00583402
0.00233082
0.0140101
0.00583426
0.00132808
0.00069694
0.00965007
0.000211419
0.00393302
0.0121198
0.000599241
0.000500602
0.000708713
0.00590678
0.00416559
0.00692309
0.00369199
0.00529714
0.00019502
0.0039935
0.000712066
0.00150087
0.00586367
0.000298449
0.00121892
0.0126125
0.000471049
0.00568152
0.00492095
0.00217821
0.00514007
0.00583335
0.000616669
0.000586312
0.00137098
0.000135284
0.00583384
0.00104998
0.0142082
0.000116371
0.0122786
0.000685629
0.000722522
0.00375629
0.000625607
0.00583454
0.000475406
0.00648622
0.0126385
0.00583064
0.00441195
0.000811903
0.00583167
0.00167104
0.011759
0.00583572
0.00574301
0.000501592
0.00583764
0.000574865
0.0021666
0.00127466
0.00583328
0.000935957
0.00953358
0.000478385
0.00136872
0.00116838
0.00138896
0.00168218
0.00518123
0.00977621
0.00580924
0.00108087
0.00583478
0.005829
0.000650845
0.00100669
0.00744172
0.00484906
0.00600406
0.000614703
0.00584469
0.00548788
0.00510821
0.000407302
0.00813765
0.00583495
0.0121586
0.00414817
0.00278913
0.00838519
0.00421756
0.0113087
0.00586654
0.000209332
0.000868101
6.44732e-05
0.00583266
0.00209212
0.0058312
0.00583105
0.00366672
0.000241044
0.00515765
0.0058326
0.0128487
0.000155984
0.000674486
0.00612536
0.0128777
0.000667484
0.00112178
0.000248127
0.00888796
0.00807436
0.00155263
0.00583708
0.00758145
0.00583795
0.0139475
0.00169435
0.000305782
0.00336487
0.000610621
0.00584337
0.00290021
0.00161239
0.00102928
0.000280396
0.0015389
0.00583875
0.0131705
0.00772183
0.00583332
0.0131132
0.0018173
0.00316561
0.00243926
0.014378
0.00399778
0.0139917
0.00583835
0.000337806
0.00950734
0.00584008
0.0045752
0.00311982
0.000668959
0.000528994
0.00583286
0.00583451
0.000493153
0.00407547
0.000680226
0.0048063
0.000636286
0.00583159
0.00532115
0.000231963
0.000836507
0.00170066
0.00583489
0.0120873
0.00105042
0.000315916
0.00176903
0.0052319
0.00226082
0.00336665
0.00584456
0.000834952
0.00303003
0.00448162
0.000965133
0.00079288
0.00200164
0.000833909
0.000648243
0.00481219
0.00584599
0.000653883
0.00941106
0.00557096
0.0151096
0.000456986
0.0008525
0.000957083
0.0109738
0.00523884
0.000735742
0.00154973
0.00152447
0.00583404
0.0058352
0.000127716
0.000548183
0.0145019
0.00175951
0.000726427
0.000563466
0.00590399
0.000427693
0.000931335
0.000907852
0.00896412
0.000352875
0.0117467
0.00737818
0.0021729
0.00442852
0.00583157
0.0006334
0.000519609
0.00103464
0.00443694
0.00172037
0.00583016
0.00101303
0.00207883
0.0057691
0.000685744
0.000404503
0.00490516
0.00583373
0.0108364
0.0128086
0.000369899
0.00587485
0.000922919
0.00343262
0.00346291
0.0149024
0.00435985
0.000128282
0.000461002
0.00389845
0.000638051
0.000980417
0.000223175
0.0086828
0.00583402
0.00090306
0.00583709
0.000463666
0.00583595
0.00586518
0.0121293
0.0044932
0.000100936
0.00169812
0.00451574
0.00235364
0.000309061
0.000648082
0.000957548
0.00199961
0.00640701
0.000684834
0.00450857
0.000823458
0.000706694
0.00971427
0.00583328
0.00090741
0.000575889
0.00582998
0.00166474
0.00583335
0.000145138
0.00583035
0.000451964
0.000222278
0.00104248
0.00152022
0.0017962
0.00128854
0.00109271
0.000348492
0.0114382
0.000634248
0.00583495
0.000146895
0.0144999
0.00583066
0.00103384
0.00583348
0.000627378
0.000131883
0.00170421
0.000104514
9.82269e-05
0.000223064
0.000559668
0.00583268
0.00996737
0.00483005
0.000121547
0.00583531
0.00795226
0.00286671
0.0139251
2.77264e-05
0.0123804
0.000637209
0.000626758
0.00117161
0.00124586
0.000482313
0.00457579
0.00263898
0.000231538
0.00584691
0.0120718
0.00319042
0.000766924
0.0124117
0.0019381
0.00583789
0.000927249
0.00300338
0.00583595
0.00164401
0.0011851
0.0148927
0.00583301
0.000920293
0.0135472
0.000803478
0.000213894
0.00585512
0.00168621
0.00583168
0.000722324
0.014632
0.000242693
0.000796948
0.00290548
0.015201
0.00443455
0.00583372
0.000361411
0.00447021
0.00713468
0.000791801
0.00135142
0.000331465
0.00189455
0.00140633
0.005838
0.00791096
0.00583092
0.000628956
0.000197927
0.000150412
0.00590479
0.0135618
0.00583205
0.000747261
0.000584604
0.00582997
0.000447677
0.00070664
0.0125407
0.0127195
0.00117126
0.0123067
0.000230789
0.00595588
0.00583388
0.00154417
0.0058304
0.0115609
0.000931461
0.00067284
0.00583562
0.00784727
0.00848871
0.00583313
0.000880182
0.00584667
0.0101144
0.01042
0.00117944
0.00583301
0.00257748
0.00583198
0.00249423
0.00992324
0.00583575
0.00140107
0.0137896
0.00584147
0.00331548
0.0138199
0.000721186
0.00625907
0.00584523
0.00369136
0.000102326
0.0085356
0.00103256
0.0070739
0.00583363
0.000269557
0.00105388
6.71763e-05
0.0034232
0.000695288
0.00582994
0.00583318
0.0116744
0.000769352
0.00175661
0.0153118
0.00651629
0.0058632
0.00982966
0.00086702
0.00137528
0.0122329
0.00109155
0.000883561
0.000208109
0.0104739
0.0142372
0.000412104
0.000687512
0.00948285
0.00592859
0.00826105
0.00114436
0.000625324
0.00583313
0.00583578
0.00251622
0.00583686
0.00583616
0.0111714
0.00585467
0.000658443
0.00207372
3.37911e-05
0.00583311
0.0058331
0.00583305
0.00176324
0.00187479
0.00279248
0.00228524
0.00583226
0.00141637
0.000929553
0.00586647
0.0127729
0.00468961
0.00584674
0.000379811
0.00346547
0.000770645
0.00409899
0.000745462
0.00145462
0.00583837
0.000306087
0.00434313
0.00584096
0.00744653
0.000207588
0.00461007
0.0037214
0.00584634
0.001004
0.000193779
0.00584323
0.000112344
0.00116883
0.000374041
0.000655076
0.00149272
0.000874805
0.00132327
0.00583421
0.00047019
0.0123571
0.00436322
0.00135425
0.00584033
0.000421907
0.00583583
0.000611047
0.000419339
0.0120931
0.000437502
0.00583159
0.0141335
0.000858112
0.00654315
0.00464881
0.00028915
0.000531725
0.000514207
0.00457565
0.00031783
0.00981152
0.00286614
0.00632724
0.000517635
0.00583199
0.00363257
0.00583338
0.00583716
0.00538877
0.000622536
0.00133542
0.00723597
0.00583415
0.0003417
0.000952909
0.0065508
0.00583385
0.000512959
0.00590131
0.000401948
0.00586871
0.00583439
0.00583347
0.00583348
0.00112853
0.00583052
0.00798023
0.00382791
0.00583179
0.000206014
0.000145993
0.000195289
0.00455722
0.0144164
0.00160318
0.000191951
0.0101685
0.000133721
0.000216793
0.00163927
0.000653036
0.000486741
0.000238996
0.0030913
0.00180725
0.00272288
0.00223512
0.0112415
0.00113371
0.00568823
0.00326129
0.00160729
0.00583687
0.00586829
0.000785028
0.00809354
0.00142895
0.000167071
0.00021026
0.00583158
7.26366e-05
0.00216632
0.000741759
0.000721929
0.00584021
0.0123373
0.00920702
0.00234859
0.00131711
0.00583373
0.00583482
0.00583316
0.00289538
0.0122159
0.00118482
0.0038969
0.0144392
0.00938691
0.00427778
0.00145957
0.00583511
0.0090907
0.00582896
0.00583764
0.0145432
0.0137561
0.0058334
0.00167937
0.00765346
0.00196519
0.000519965
0.00147818
0.00584517
0.01357
0.00583405
0.000360064
0.0109212
0.000275743
0.000418819
0.000109473
0.000398881
0.00583631
0.00172378
0.00371299
0.000644755
0.0029951
0.00386335
0.00231708
0.000662259
0.000765067
0.00484646
0.000890231
0.00583214
0.00583356
0.00583493
0.0105706
0.0047046
0.00406707
0.000193681
0.000964545
0.00584452
0.00229942
0.00123828
0.00566246
0.00191909
0.000471121
0.0122152
0.000297597
0.000240389
0.000713951
0.00107824
0.0046997
0.00584039
0.00583587
0.00061868
0.00583175
0.00584223
0.00219068
0.0124964
0.000554723
0.00584712
0.000420511
0.00585717
0.0041078
0.0120412
0.002108
0.012654
0.0139065
0.00203243
0.00815963
0.000630309
0.00584051
0.00637647
0.0137353
0.00096649
0.000726239
0.00583205
0.00584345
0.00589107
7.97628e-05
0.000874982
0.000587892
0.000214909
0.000822427
0.00583622
0.0145121
0.0151913
0.000992557
0.0006108
0.00583304
0.000608667
0.000954079
0.0110809
0.000935465
0.0125267
0.000645016
0.00143542
0.000455379
0.000329096
0.00585942
0.00498682
0.0148135
0.000346816
0.012811
0.000876461
8.24752e-05
0.00201063
0.000630685
0.00255828
0.00144699
0.000782301
0.000349485
0.00883812
0.00593105
0.000801973
0.0111579
0.00584119
0.00584591
0.00584502
0.00212817
0.00120598
0.00583106
0.0145107
0.00583509
0.00521665
0.0148415
0.000208984
0.000257642
0.00583263
0.000531086
0.00584165
0.00182318
0.000468972
0.00583162
0.00025017
0.000397114
0.000884949
0.00583354
0.000318551
0.000843771
0.000398863
0.000750016
0.000505548
0.00228078
0.00149374
0.0142768
0.00165997
0.000228588
8.52466e-05
0.00113144
0.00583327
0.00584073
0.0131129
0.00583041
9.14024e-05
0.00586594
0.00550876
0.00209592
0.00022362
0.000632912
0.0131368
0.000798783
0.0107152
0.00139928
0.00119524
0.000396223
0.000605567
0.00209869
0.0013618
0.00868794
0.000323056
0.0058444
0.000496279
0.0068466
0.00584018
0.000786515
0.00583415
0.00188378
0.0102876
0.00138205
0.00127031
0.00200024
0.0044331
0.00582813
0.0131073
0.0148722
0.000418888
0.0144172
0.00785264
0.00583589
0.00583539
0.00588409
0.00662066
0.00224464
0.00168603
0.00583063
0.000850169
0.00210922
0.000950871
0.0059428
0.000761744
0.000702455
0.000365313
0.000980633
0.00857743
0.00808665
0.00296284
0.000323841
0.0119368
0.00583354
0.000663694
0.00280516
0.000431226
0.00057442
0.00174464
0.00583244
0.0145289
0.00583573
0.0130699
0.00583431
0.00892575
0.000792728
0.00309086
0.00582984
7.44716e-05
0.000306891
0.00092767
0.000334025
0.00291
0.000531467
0.000842666
0.000380664
0.00584546
0.00018816
6.36839e-05
0.00880309
0.00101284
0.00583012
0.00379585
0.000720966
0.000921596
0.00295219
0.00797675
0.000546492
0.00590023
0.0121437
0.00970731
0.00550676
0.00046654
0.00583874
0.0015623
0.00133363
0.000232465
0.0140084
0.00989114
0.000325495
0.00583271
0.00198873
0.000145927
0.00483827
0.000351797
0.00441122
0.00181326
0.00110119
0.00130365
0.00115935
0.000347603
0.000619341
0.00572567
0.0015513
0.00136151
0.00584423
0.00163738
0.0024416
0.00056444
0.00183911
0.00261853
0.0044299
0.000750303
0.0058405
0.012461
0.00129602
0.00070352
0.00156185
0.000635896
0.000871338
8.71601e-05
0.0130898
0.00353307
0.00533714
0.000981375
0.012267
0.00679857
0.00584149
0.00583034
0.0028852
0.00584576
0.00463764
0.000365908
0.00131624
0.00583519
0.00278579
0.00983141
0.000183829
0.0101985
0.00584356
0.00015586
0.00055957
0.000953612
0.000693878
0.00510246
0.00399059
0.00025637
0.00433308
0.00583031
0.0144686
0.000465211
0.0058356
0.00124108
0.00779578
0.00584996
0.00583458
0.00810566
0.0123369
0.00919021
0.00117113
0.00157352
0.00583452
0.0129824
0.0143779
0.00066797
0.00959918
0.0031279
0.00753525
0.0135263
0.00583219
0.0129726
0.00583612
0.000495207
0.000538535
0.0149234
0.00584521
0.00147108
0.000189414
0.0120003
0.000993383
0.00663304
0.00021266
0.00770985
0.000496629
0.00236212
0.0058423
0.00184399
0.00583258
0.00584932
0.00591023
3.76031e-05
0.000222641
0.00583596
0.00512199
0.000303226
0.0063013
0.00583643
0.000945921
0.000756953
0.00888322
0.00485187
0.000453928
0.00583262
0.00972925
0.000853784
0.00768638
0.00277978
0.000416453
0.00725915
0.00583174
0.00134247
0.0058342
0.00116895
0.000419025
0.00252555
0.00418961
0.00583317
0.000772586
0.00114446
0.000356042
0.000574383
0.00035652
0.00391323
0.00583547
0.00583267
0.000547784
0.00300674
0.00167943
0.000171988
0.00753056
0.00590226
0.00582927
0.00697225
0.00201922
0.00191007
0.000160476
0.00121384
0.000324441
0.00239168
0.00583304
0.00332105
0.000262957
0.0014623
0.00156681
0.00583138
6.74393e-05
2.99838e-05
0.00583248
0.00583127
0.000869401
0.000661705
0.00711904
0.00112364
0.000742765
0.00583218
0.00315835
0.000873333
0.0149525
0.00115659
0.000189527
0.00156396
0.00169966
0.00999206
0.00583954
0.000609204
0.00584519
0.0011383
0.000107566
0.00223439
0.000560497
0.00583273
5.74442e-05
0.00583422
0.000775964