/*--------------------------------*- C++ -*----------------------------------*\
| =========                 |                                                 |
| \\      /  F ield         | OpenFOAM: The Open Source CFD Toolbox           |
|  \\    /   O peration     | Version:  v2012                                 |
|   \\  /    A nd           | Website:  www.openfoam.com                      |
|    \\/     M anipulation  |                                                 |
\*---------------------------------------------------------------------------*/
FoamFile
{
    version     2.0;
    format      ascii;
    class       volScalarField;
    location    "200";
    object      omega_0;
}
// * * * * * * * * * * * * * * * * * * * * * * * * * * * * * * * * * * * * * //

dimensions      [0 0 -1 0 0 0 0];


internalField   nonuniform List<scalar> 
27915
(
0.0254063
0.202244
5.43898
4.16093
0.0527988
0.0262831
6.64514
0.0687339
0.0555675
0.0603404
0.0396427
0.0255026
0.617119
3.53285
5.19779
0.0282129
4.0323
0.0491542
10.619
0.0262439
3.49282
0.0252305
4.04555
0.0254025
0.0252175
0.0251553
0.0253027
1.70608
4.21787
5.10112
0.163096
0.024918
4.05589
0.0262609
10.1995
0.0252995
0.0252931
0.0350882
0.0842383
0.0279608
0.0253027
0.0351277
0.0253754
0.17284
0.186577
0.0255516
0.0253838
0.0373724
0.0252019
0.0251481
0.0385501
0.170787
0.148855
0.0279744
1.82733
5.75463
4.61081
0.0251371
0.0252285
4.22002
0.0249216
0.0646914
0.0938327
4.28916
0.0256852
0.0292164
0.0441662
0.238623
4.66317
0.028486
0.0354083
5.48387
0.0253316
0.0251431
0.0355181
0.0642982
0.0944299
0.0321653
18.6366
0.0255451
0.0349232
0.0280765
0.0251551
0.02514
6.45407
0.0249502
0.0252006
0.0283162
0.577688
0.0503442
0.025308
0.297788
0.0280524
0.159778
0.0277992
0.0388123
5.75573
0.0288521
0.0252605
5.45464
0.0252292
0.0255662
12.2877
0.035511
0.0253648
0.025398
0.0253626
0.0753428
0.0897707
0.058973
0.0255032
0.0262488
1.5853
3.81358
8.11544
0.180631
6.67071
0.0252394
0.0555247
0.0247641
0.309383
0.0551753
0.132476
0.0501005
0.0261772
0.0247907
0.0262658
4.2176
0.0921915
0.0279422
0.0279017
0.0253382
0.0249468
5.82251
5.58302
7.32722
0.0252935
0.0251491
0.0308421
0.0249518
4.40429
4.27287
0.0267274
5.23924
0.0720549
0.0252786
0.0256924
4.50256
0.293791
0.02514
0.02516
0.0323367
0.160145
4.07701
0.0986721
0.0318026
0.0251749
0.0251875
0.0278826
0.0265728
0.0874041
0.119989
0.0935325
0.0252061
0.0253071
0.0271169
7.10046
0.218443
0.0251377
0.183229
5.85918
0.0251881
4.03864
0.0253511
0.0256918
0.172912
0.0456989
0.0254126
0.0256379
1.9966
0.0251622
0.0452615
0.0253582
5.76509
3.75942
0.0559275
0.0923158
0.0254045
5.62037
0.0379672
0.0253657
0.271869
0.0254091
0.0253903
0.0253439
4.58358
0.0255008
0.0357087
6.76979
6.51957
0.164052
2.09358
0.0339944
0.285328
0.0253728
0.0293528
4.63577
0.0299099
0.030019
0.178907
4.87049
0.0253756
5.45199
0.0262358
0.0537048
0.0253305
0.177562
6.74802
0.0595736
0.032824
4.53898
0.236876
0.128832
0.0254793
0.0342673
0.0355305
0.0636456
0.0253989
1.88147
0.025178
3.94211
0.0249606
11.6427
0.0315702
0.0251888
0.0254941
4.94748
0.0263672
0.614844
0.0252282
0.0253941
5.88643
22.0367
0.0555253
0.0254508
0.0284359
0.199116
0.0262544
0.612875
0.161418
0.0253653
0.0371073
0.156627
0.0252346
0.0400433
0.0272666
0.0374198
0.0270699
0.303245
4.12362
4.78499
0.0257238
0.0253251
0.024894
0.0395354
0.160375
0.0247294
0.0254952
0.0917156
0.025364
0.0252316
0.0253458
16.1218
0.048752
0.0262303
4.98517
0.0264256
4.52525
3.75242
4.6968
0.235221
4.2143
0.0285125
5.05304
0.0306519
0.0284048
0.113336
0.0262423
0.750311
4.62665
0.157846
0.0400173
0.0253005
0.162051
0.0292226
0.0249529
0.0253596
4.57816
0.128791
0.025318
0.249718
0.0251422
0.0394882
0.0253664
0.153212
4.17251
0.0253356
1.90045
0.0252408
0.131522
6.05708
5.64403
4.32715
0.026264
4.24155
0.0249579
0.0250607
0.0249618
0.0635356
0.241793
5.82814
0.0250644
0.0256222
0.0266686
0.252719
0.0284218
0.0252145
0.0881291
0.0522869
0.0594116
0.0253044
4.83036
0.0311558
4.45806
4.55185
0.0561655
0.0997927
0.24455
0.158879
0.0272124
0.0302191
0.0555289
0.0625222
0.241291
1.49305
4.29046
0.0252322
0.100157
0.0856804
0.0279109
0.110277
4.10505
0.1793
0.0360697
3.83308
0.138377
0.0337281
0.0253177
4.26772
0.0941404
4.62397
0.0251247
0.0253864
0.309681
0.0857669
0.02565
13.7205
0.0872961
0.0394118
0.0395927
0.0346603
0.225532
0.028088
0.0416949
0.0671663
0.0259552
0.0253137
0.0254053
4.45124
0.0284463
5.71325
0.0255576
0.201634
0.0887223
0.0253398
0.0998667
0.0935835
0.0329619
1.16988
0.116649
5.37264
0.0363347
0.104916
0.0430238
0.0254415
0.0555749
22.6483
4.64288
0.0255567
0.180418
4.45902
0.0344284
0.0254568
0.0256847
4.23175
0.0254972
0.146895
0.0254561
0.05952
0.053215
0.0252946
0.0359074
0.0256557
0.0440188
0.0265967
0.325085
0.0253003
0.24659
0.0384812
0.0252241
4.2939
0.238239
0.0664272
4.68295
0.0545362
0.313505
0.0532371
0.02513
0.0253592
0.0262464
0.0311836
0.0348128
0.0871073
0.314521
3.93226
0.0313605
0.0254796
7.56372
0.0252799
3.96211
0.0255871
0.0254461
1.06327
0.135906
0.025294
0.119207
0.0429372
4.5592
0.0358755
0.0252799
0.0268363
0.0291417
0.0253698
10.0676
0.025413
0.0259894
6.35519
0.0251247
0.028204
4.0327
5.04885
0.025198
0.300827
0.0324743
14.2781
0.0323441
4.13344
4.25081
0.0254032
0.0513644
0.125129
0.0252096
3.68892
0.0251111
0.0256932
0.167568
0.268991
4.70909
0.0262651
0.045268
0.0553754
0.0654281
4.72919
4.02236
0.0253822
0.0249034
0.026318
0.0260082
0.0437375
0.0272994
0.0251355
0.0297516
4.34864
0.0257593
0.0344588
0.0362622
0.0256923
0.0293313
0.194456
0.0321352
0.0277398
0.0252162
0.195375
4.86866
19.6587
0.224037
0.157754
0.0247281
0.117416
0.0253136
0.0248357
0.0251626
0.171801
0.0253794
4.68496
4.26297
0.0474935
0.0278617
5.67482
0.0415269
0.0828312
0.0252134
0.0253868
5.43985
0.0359468
0.0270694
0.150722
0.0256064
0.0252854
0.0257695
0.0273165
0.0252275
0.0253514
0.0254102
0.025889
0.0274396
0.02518
4.24388
0.193493
0.0964451
0.0256061
0.026952
0.0252081
0.105745
0.0250723
0.0249386
0.0313733
0.0251068
0.323126
0.0253776
7.90685
3.55533
0.271541
0.0254765
3.98612
0.238446
0.0253279
0.0252036
1.42015
0.0263278
0.0533157
0.025563
10.7314
0.0265842
0.272574
0.0330303
0.025426
0.235503
4.53643
0.0256961
0.0253101
0.0256659
0.0253156
0.0987989
0.031332
0.0253803
4.44675
5.49348
1.66653
0.0252119
0.182111
0.22959
0.024901
0.0252618
0.187122
0.0650037
0.0257426
0.114802
3.86021
0.0635237
0.0790464
0.025226
0.0253136
7.24491
5.32296
0.211462
2.55373
3.26024
9.87153
0.0294466
7.213
15.1962
5.00529
0.0319613
0.238801
0.0359547
0.0261599
0.0251744
0.0280479
0.137152
0.0252227
0.025195
0.0332063
0.0653344
0.101737
4.21061
0.0345337
0.0251211
0.0253505
0.0280391
0.0289163
20.1256
3.23417
0.230784
0.0254362
0.324142
0.0262442
0.02525
0.0706896
0.0295591
0.0256723
0.0747988
0.028232
4.24704
0.037065
0.040219
4.00057
0.194653
0.0720415
0.025686
0.0256442
0.0251408
2.55863
0.161774
0.0978286
5.48304
0.0352873
7.99797
0.0249324
7.17505
0.0249401
0.0255932
0.0268141
0.0252089
0.196987
0.0262229
0.0253773
0.0280651
0.0254121
2.73277
0.0260451
0.0254037
0.0907759
0.0293567
0.0342465
0.0250367
0.0252079
0.24019
0.0253172
0.0251504
0.0251669
0.0249247
0.135307
0.0247497
0.024968
0.119308
0.028356
0.0267759
9.51617
0.025287
0.0403079
3.93037
5.71454
3.04909
0.0253143
0.0670687
0.0324279
0.0255117
0.0258794
0.0463518
0.0277837
0.0254066
0.0252893
0.0255685
8.80763
7.07919
0.077822
0.117855
1.69808
0.0310903
0.025685
0.074888
0.0811111
0.0254557
0.0585969
0.0253175
0.2879
0.0309877
0.06099
0.0309448
0.0247511
15.5693
0.0258544
4.22966
0.198299
0.909527
0.0332002
0.108854
0.0249555
0.0251943
0.0253933
0.0256928
0.037283
0.0252406
0.0294464
0.0312089
0.0290821
0.0272782
0.100645
5.51412
0.0259926
0.0252647
0.0251644
0.0583145
0.0254189
0.0627455
0.03686
0.0252074
0.0256475
0.161829
0.305262
0.0257026
0.0326094
4.17389
0.0249308
0.0270364
3.823
0.0307936
6.24646
0.0255217
0.0290319
0.0537644
0.21639
0.0253982
0.0259665
0.049047
0.0530415
0.0492004
0.99552
4.74048
0.028952
9.79306
0.025205
8.96378
0.025408
0.0487872
4.10762
0.0686456
0.053315
0.0253318
0.0446237
0.0273185
0.0294897
0.0624068
0.0252986
0.0254151
0.0768953
13.2432
0.095056
0.0351106
0.025961
0.0253105
4.52409
0.024974
0.0254726
0.222518
0.0252541
0.0280328
5.32657
4.4621
0.0262569
0.0247344
0.0252911
0.0306206
4.96401
0.0253112
0.230769
2.06853
0.0371798
0.0593418
0.0259455
0.126056
0.0258512
0.0405652
5.02749
0.0256325
0.180403
0.0260121
4.66696
0.0449578
0.0253329
0.0253351
3.91732
0.0253134
0.0253592
3.70493
0.300898
4.02693
0.0255179
0.0309954
1.7513
4.64327
17.7439
0.727056
0.0254599
0.0307318
0.0257251
0.141815
0.196469
5.72959
0.0256712
0.101573
0.0530266
0.119857
4.91039
0.0251117
4.89994
0.151282
1.05512
0.0253815
0.0725154
0.0286303
0.0256658
0.0336779
0.0287005
0.0321791
0.0453161
0.0251853
0.0468465
0.0322567
0.0374216
0.0278089
0.025344
3.4386
0.154486
8.92605
0.0250832
0.0310434
0.178734
0.0315189
0.162015
4.41149
4.79667
17.7742
0.0253809
0.0567176
0.0614969
3.78829
0.0285262
0.0341281
0.025729
0.163969
0.024885
0.0961902
4.83943
0.0284908
0.0345923
0.0262182
9.08849
0.0250921
0.0251812
0.0252095
0.0265376
0.137338
0.024738
0.0252274
0.0252409
0.0464954
5.09534
0.0252148
0.0251687
0.0252126
0.025227
0.0260087
3.93933
0.025203
0.0252843
0.0564328
0.0371746
0.0253091
0.0281378
0.0574465
4.6547
0.0256576
0.025362
0.0266308
0.0250823
0.243398
0.0942189
5.70803
0.0262567
3.97971
0.0253124
0.0253165
0.0525949
0.20398
4.68297
0.0251812
0.0572791
0.0261655
0.0324964
0.0248727
7.32983
0.0252916
0.0568742
4.09825
0.0252295
0.056356
0.025857
0.0261054
0.0322594
0.0599455
6.32887
0.0448214
0.025155
0.0251879
4.53372
0.0250654
0.0275451
0.0615528
0.0255072
0.0252165
0.025142
0.0251733
0.231246
1.43842
0.0256863
0.0792026
4.74216
3.54446
5.27352
0.12474
4.86117
0.0252764
0.0253533
0.0249553
5.2778
4.47991
0.0254292
0.0252218
0.025661
0.129572
4.62466
3.51626
0.035285
0.0254884
0.0249514
0.0255339
0.0258954
0.178161
0.0250967
3.49646
0.0249832
0.0250157
0.0252955
0.343223
0.0599309
3.66971
0.0403543
0.0276883
0.025459
0.131272
4.68177
3.8111
0.120259
0.0254058
0.0252029
0.163973
0.149172
0.29226
0.0391493
0.0249431
0.0343245
0.0250461
3.19949
0.042923
0.18287
0.121515
0.0248775
0.0250264
0.0250246
0.0275749
0.0252654
1.37902
0.0435115
0.0524977
3.67853
0.0251242
0.0631519
7.25111
0.0255134
0.0383308
0.0285272
1.32075
0.0256695
0.0251785
7.37542
3.56438
10.1591
0.0252446
0.0251143
4.5586
0.0326855
0.0252232
0.0251251
1.05218
0.0285605
0.0250772
3.76984
0.623768
0.0574748
7.51131
0.0249519
0.0313483
4.44558
0.0252838
0.025358
0.0249425
0.315935
0.0261797
0.0253832
0.0751749
5.5612
0.0852515
0.0442991
0.0252817
0.0256005
0.0957974
0.0452147
0.0265986
0.0254847
0.0250632
0.0256707
0.11451
0.0326388
0.163198
0.028692
0.221488
0.0247569
0.0315169
0.0250699
0.153782
0.0252362
4.27658
0.0255525
0.0250413
4.59571
0.0252882
0.129974
0.0298984
0.0331345
0.135448
0.0252244
0.0250171
0.0278121
0.0251042
4.21883
0.221156
0.0253765
0.177323
0.305163
0.0439658
0.0253939
5.39949
0.0254736
0.0744737
0.0248187
9.5493
4.90741
0.207877
5.20679
0.025279
5.54077
0.025237
0.0251378
0.0396765
0.326631
0.0425896
0.0539174
0.026153
0.0325777
0.0253369
0.0312172
0.994321
0.0591447
3.98747
0.114788
17.162
0.0252206
0.0531239
0.185264
3.49472
0.0256464
0.0874068
0.0515207
0.0408363
0.0253996
3.2851
0.0363058
0.0251427
4.52732
0.0322629
0.025512
0.825823
7.48112
0.0321465
0.0253178
0.0277443
0.175723
3.48548
0.0250922
0.025206
0.0878078
0.027283
4.31797
0.0253319
4.43384
0.0273119
3.83688
0.0247478
0.0878186
4.89822
4.75119
4.81317
4.62142
0.0254506
6.29152
0.0252256
0.325333
0.0262587
0.025362
0.0964016
4.21093
0.191785
0.0253059
4.65053
0.025361
0.0890487
0.0254022
0.0254919
4.78058
0.0276317
4.19847
0.0253376
0.0253594
4.68273
0.0251182
0.0415466
0.0248095
0.0260018
0.0371229
0.0251052
0.0336127
0.0344947
0.0255827
0.0252184
5.51619
0.0838711
0.325084
1.67544
0.0256288
0.0448159
0.0311427
0.0585957
4.45717
0.352046
0.0277468
0.187257
0.0250986
0.151763
0.112593
0.0253441
0.183596
0.173068
0.120173
0.0256769
0.0398744
0.0258123
6.58118
0.0862577
0.0253353
0.025085
4.89383
0.0355295
0.193349
0.0425448
5.28343
0.0271241
0.043402
0.0401355
0.0251453
5.20794
0.167651
0.0248733
0.0851028
0.17066
0.084797
0.0676296
0.324202
0.244299
9.1945
0.0437454
8.38345
0.0256518
0.0250431
5.89803
4.72985
5.76721
0.0277557
0.0252277
0.0254306
0.0285287
6.32939
0.0256459
0.0518249
4.78575
0.194765
0.541788
0.0248951
4.23905
0.0256383
0.8197
0.0420005
0.0357917
0.0247944
0.0256304
0.0252216
0.322208
0.0384842
6.47399
0.336695
0.0254704
0.170515
5.37904
0.0252544
0.0352054
0.106979
0.0431463
0.0252826
0.0315016
0.0253743
0.0247625
0.0252691
0.0323423
5.37564
0.0769368
0.031402
0.582923
4.48966
0.0256846
9.47922
0.0253761
0.0255114
0.0256924
0.0539935
0.627618
0.791236
0.127426
0.0253769
0.0594364
0.252522
0.0255044
0.0254338
0.0782662
0.0252296
0.0255016
0.0315542
0.950127
4.23977
0.0257582
0.380594
0.151013
0.214375
0.0279702
4.56049
2.30175
0.0285168
0.0422651
0.341079
0.194523
0.0253311
0.0422066
0.0251767
0.0252117
0.0268697
0.0255006
0.110505
0.0256467
0.0340327
0.0253527
5.31634
0.0252892
0.242494
0.749756
0.34239
0.0247371
0.0253506
0.144965
0.0319082
0.0449522
0.0351688
4.3222
0.0250146
0.314541
0.0252975
0.0251705
0.703134
0.0576203
4.59855
0.0252073
0.0253025
0.0608548
4.85143
0.0253357
0.0526512
5.76121
0.0251031
0.0250282
0.0362754
9.79558
0.0255181
0.0253488
0.109955
4.26909
4.69558
0.0253149
4.39874
0.0256538
0.0630736
5.409
7.94983
0.0252377
4.75023
0.024892
4.50191
0.889162
4.46546
0.160762
0.0253457
0.249395
0.203653
4.18533
0.0253159
0.02482
0.0398214
0.243756
0.0253465
0.0251202
0.0544897
0.0256161
0.0253049
0.168487
4.94885
0.318656
0.0251283
4.15792
2.08705
0.0519672
0.0254007
6.81299
0.0551883
0.0295112
0.025124
0.0249634
0.0247403
0.0253137
0.025427
5.79007
4.36726
0.0255776
0.0255098
0.276405
0.0251469
1.75553
0.114608
0.0252011
0.344582
0.463496
0.0324269
0.0256537
4.32986
0.0264069
0.0252533
0.0253844
0.0288084
0.0327153
0.0250779
4.10583
0.0250188
0.0253107
3.45817
0.159156
0.210147
0.0513115
0.146262
4.6215
0.028571
0.0347034
4.5854
0.0538949
0.0251595
6.25336
4.45108
0.0264607
0.02565
5.39147
0.0441653
4.18663
0.0262285
0.0255092
0.0258042
0.177148
0.0364551
0.0254274
0.0262074
4.84903
0.138114
0.0556146
0.0255974
0.0255275
3.96201
0.0256465
0.0326497
4.76189
4.70783
0.0255154
0.0255564
4.25342
0.122902
3.75235
4.43246
0.0373046
0.0269774
0.0533401
0.0296192
0.0254854
0.0250582
0.184353
0.0255682
4.88188
6.29784
0.0408767
4.16405
0.18557
0.068776
0.0357047
4.93818
0.0346026
0.221095
0.347292
36.7789
0.344801
0.0289452
0.0293939
0.0422974
0.0253467
4.32425
0.0263695
0.027472
0.241492
6.60566
0.112322
0.0273371
0.822625
0.0872713
0.0457417
0.115188
0.0643448
9.95969
0.0252661
0.10991
7.20814
0.322829
0.0623945
0.0248684
1.39307
0.0508763
3.98156
7.58303
0.0254808
0.110982
0.0255452
0.176762
0.0251566
0.025342
4.69401
0.08089
0.0254739
0.0250191
0.0249607
0.0256171
0.0392337
4.90322
4.78337
0.0251714
0.0254466
0.0252896
0.0248716
0.189794
3.84587
0.0617672
0.306742
0.170297
0.0355219
0.762239
0.0255112
0.954717
2.72403
0.160349
0.0253602
0.0476227
1.01362
4.30917
0.0253951
0.0251305
0.0252593
0.0253795
3.50959
0.025505
0.02951
0.0274656
5.07549
0.160841
0.0285597
0.716762
0.0316349
0.0252966
0.185787
4.883
0.0249679
0.0248618
0.0248526
0.0249545
0.0423103
0.0742095
0.0254638
0.0254459
0.0249089
0.0910375
0.192931
0.0249118
0.0265809
0.0725772
0.0253957
0.041262
0.0250469
0.0363133
0.0254544
0.0253344
0.0343945
0.0326276
0.025995
0.0253796
0.0251292
4.12795
0.0253336
0.0254168
0.0252257
0.0254197
0.0355076
0.0307598
0.0954181
0.0254657
0.0315465
0.0554601
0.0250185
0.0254518
4.4808
0.0533089
7.96743
0.025502
4.68758
20.2913
0.0253628
0.0255992
4.62873
0.0253289
3.17359
0.351555
5.30814
0.30754
0.0252205
5.39273
0.0687331
0.196964
0.0922026
0.0251929
0.0251349
4.58464
0.0253245
5.43839
0.0622118
0.0254633
0.0275887
0.0266793
0.0248808
1.04442
3.12432
3.76555
0.0315577
5.67611
0.025112
0.0254346
0.0251968
0.0254815
0.397106
0.0531713
0.0259283
0.0616247
0.0253659
0.0263655
4.46462
0.0746429
3.99103
0.0277666
0.0276163
0.0252092
0.198407
0.025573
0.0379924
4.80295
3.78429
0.0253612
0.0251399
0.0272691
0.0253173
0.0446802
4.88204
0.025654
0.0250156
0.0373667
0.0250735
1.74347
0.0254542
0.026228
0.0255055
0.167705
4.65219
0.0303315
28.7321
0.0727862
0.0906624
3.29649
5.90888
5.25491
5.55189
2.57813
0.025579
0.0252227
0.0280654
0.0519116
4.85022
5.11013
0.0263933
0.0679689
0.0248661
0.025029
0.0251186
0.0551185
4.58431
0.0255943
3.45853
0.0251607
0.0253422
4.43619
0.0252232
6.16684
0.0249553
0.157322
0.0283341
0.13508
0.0252155
0.0258021
0.0253956
0.0253853
4.32919
1.11292
0.0253338
0.0254552
4.47346
0.0644517
0.0373439
4.93563
4.71113
0.0316385
0.0262428
0.323752
5.27406
3.6638
0.0353404
0.0253238
9.71629
0.0251755
4.544
0.0265597
0.678735
0.0252681
0.0931317
0.0251381
0.0253702
0.0445314
0.215606
0.180438
0.0265693
0.0251733
3.98319
4.30129
0.0251682
3.93503
0.0261779
0.0253513
0.0253931
4.2524
0.0251613
4.70398
0.0253135
0.0989291
4.94291
0.0251169
4.9288
0.0253639
0.173419
0.171063
0.0254313
0.0255655
10.75
0.0254609
0.158588
7.12709
0.168815
0.0253317
0.0250855
0.0953689
0.0272347
0.0261434
0.0255859
3.44823
0.0271434
0.0360266
0.0273094
5.40757
0.0272332
0.0251935
0.0251207
0.285022
0.0253779
6.54893
0.0329475
0.297634
0.0256551
0.0735697
0.362193
0.0252401
0.025166
0.0387363
4.59318
0.0252729
5.03691
0.127343
0.0301466
0.0406154
5.23761
0.0253328
0.0356166
0.028225
0.0284708
0.0254115
0.0256248
0.0632827
0.066159
4.26757
0.0264939
0.318746
0.231095
0.0249519
1.28314
0.0564221
0.166937
4.49252
0.0361577
4.2391
4.60058
0.0259023
0.0252769
0.024949
0.0285946
0.0671266
0.117893
0.0253241
0.0536471
0.0253014
0.0513015
0.0260403
0.0252712
0.0912853
0.0594358
0.0250677
0.0250287
4.49263
4.59361
1.6389
0.0249766
0.0328512
5.93407
0.0251867
4.4816
0.0252406
0.0939715
0.0316268
0.0252141
0.0286151
0.0749543
0.0383514
4.59683
0.0255564
0.0270924
0.0247019
0.0882515
0.0253283
0.02489
5.41737
0.025279
0.413971
0.0515437
4.50831
0.0280328
0.96848
0.365815
0.0350201
0.0273015
5.16313
0.171863
5.32666
0.316194
0.0325897
4.67768
0.0253136
0.0299182
2.0423
0.0251437
0.0371791
0.025496
1.18188
0.0251279
0.0641888
0.0394532
0.212081
0.02673
0.0272051
0.0665531
0.0290899
0.144572
5.81744
0.249469
0.0253437
0.151467
4.52119
0.0253531
0.11845
0.0254884
0.165405
0.0652868
0.0269232
0.0977098
0.14485
0.158801
0.0366526
0.0254618
4.08586
5.74843
0.0712577
0.0252397
9.59823
0.0253287
4.12971
1.49726
3.66218
0.375119
0.245755
5.30077
0.0348051
0.175689
0.0251514
0.0262888
0.0926459
0.025088
4.03744
6.87366
0.166104
3.86538
0.032563
0.0247101
0.247273
5.57943
0.0252424
0.0450431
0.0454432
4.63271
0.025465
0.178955
4.26647
0.288337
0.316747
0.0249233
0.025679
0.0247476
0.0285987
4.98194
1.52849
0.279974
5.23629
4.64272
0.025284
0.0248563
0.196949
6.11354
4.42253
0.027161
0.149203
0.825162
0.0291258
0.0445854
0.0252134
4.58223
0.0252956
0.0700527
1.17382
0.883192
0.0248784
4.35304
0.0252129
0.0350098
0.0522492
0.0250443
0.135116
0.0317647
4.13404
4.69058
0.097887
4.11593
0.0384547
0.0254552
0.0255474
0.0263711
0.0253427
4.71425
0.0435422
0.0299283
0.0256472
7.57422
4.07278
0.0248366
0.0307867
0.0251635
3.98086
5.22492
0.0531217
0.0254537
0.0253733
0.0253887
0.0272087
4.30867
0.0256545
0.147195
4.22489
0.0252769
4.22666
4.68399
0.0284471
5.3741
0.0251731
5.47523
0.0609848
4.6629
0.0334385
5.75712
0.0250087
0.315468
0.0450553
0.167235
0.0255055
0.0313936
0.0251537
0.0254626
3.32409
0.223771
0.0268371
4.59778
5.75435
0.0248669
4.12323
0.0270163
3.00698
5.29652
0.199835
0.0928543
1.7278
6.85148
4.21293
0.0824798
0.0283583
4.48159
4.77509
3.71094
0.0968554
0.072389
0.0254654
0.0256497
0.0254416
0.0247251
0.0253304
5.22605
0.0249178
0.0286546
0.0254689
0.318311
0.0254695
0.0250386
0.0253646
0.0551357
0.0260254
0.0254232
0.0254208
0.0254104
0.0367811
0.0269123
0.0248682
4.48981
0.0250847
0.025158
0.0457474
0.0255549
0.0304858
0.02517
0.338542
0.109592
0.0253042
0.0398467
0.0251269
0.025235
5.00076
0.0424049
0.0252793
6.59984
0.0247406
0.221188
0.148323
0.0252335
0.0624626
0.0291965
0.767959
0.191201
0.0260558
0.0740802
0.0269038
0.0254075
0.0891792
4.30381
0.0251353
0.0258793
0.0251671
0.0315066
0.024668
0.0309172
0.0618148
3.42803
0.0316138
0.0252864
4.28918
0.0273045
4.34105
0.0252498
0.161517
0.03838
0.121218
0.0252474
0.940548
4.94217
0.0265962
4.57408
0.120559
0.0254199
18.771
0.0255058
0.0253194
0.0252913
0.0337621
0.0269847
4.13129
0.0255738
0.036001
0.0275704
10.7271
0.0254176
0.0313468
0.0248612
0.0613488
0.0247812
0.0255577
0.0249935
0.0255124
0.191877
0.0252567
4.76675
18.9408
0.0252116
3.00924
0.116063
0.0725046
10.2735
5.37282
3.20171
0.896927
4.26396
1.45117
0.0617827
0.0257416
0.0285759
0.0314916
1.39697
0.0252981
0.0552134
4.18944
0.025564
5.93518
0.0923613
5.72431
0.0253173
0.0285673
0.0253611
0.0248036
0.0751077
4.91185
0.112134
0.623127
0.0753738
0.0253846
2.97699
0.0688233
0.168317
0.0286277
0.0249094
3.63816
5.15269
0.0256121
0.0258639
0.025389
0.025243
0.0254387
0.0264642
3.98064
0.0270674
0.0251917
4.85597
3.5315
0.0251366
0.0275143
0.0250919
4.39772
0.0251888
0.0252105
4.39852
4.74172
0.0253845
0.0326502
9.64598
0.0457043
0.0719402
0.0540044
0.025077
4.09171
0.0254169
0.308657
6.8076
0.042111
0.188361
0.0983175
0.0448519
0.0256869
0.0265708
0.0253367
0.166087
0.025322
0.0251795
0.0254186
0.0326642
0.31304
5.40016
0.0269976
0.0249374
0.0248412
0.0255962
5.24817
5.10939
6.76
0.0670441
0.0271554
0.0251387
0.0255551
0.0293267
5.69788
0.0292974
0.0908956
3.76444
1.4777
0.16207
0.0305125
0.0263517
0.0250978
0.025317
0.0256548
0.0286076
0.0253069
0.025153
0.0255766
4.84655
0.0916479
0.0251967
0.0545815
0.024847
4.4149
3.65951
0.0453726
4.06497
4.37486
0.0276952
9.96167
0.378459
0.025263
4.01802
4.69904
0.233157
0.042854
0.0254255
0.0252439
0.024898
0.931524
0.0657561
0.0618224
0.141611
0.0390539
0.0252189
5.14621
5.10392
0.0545393
0.244071
0.0253384
0.18102
0.0334965
4.03345
0.215002
4.64466
0.0286486
0.0269124
0.0899786
0.0951342
0.0248517
5.05273
5.11485
0.0794316
4.56093
3.2138
0.834569
3.64981
0.37476
0.0264032
0.140888
0.307616
0.0350389
5.10729
0.0253366
0.0271052
6.28494
0.0252623
0.0247175
0.0247093
0.0665639
0.0261746
0.0252964
4.4128
0.0256077
5.62935
5.17441
3.76858
1.31503
0.0253502
0.0430076
0.0248979
0.107392
0.177623
0.0253286
1.14732
0.171912
0.0443913
0.0250357
0.179374
0.0401257
0.722011
0.0753407
0.0314828
0.0256234
0.0264659
4.43604
0.0451872
0.0593828
1.21038
0.0262413
0.0253554
0.0251628
5.91644
0.0252149
0.158561
0.0248254
5.19724
0.0257031
2.08228
0.0504775
5.2974
0.324819
4.68436
0.0270096
0.0423053
0.118393
0.0300579
0.0254953
0.0309476
3.54491
0.163477
0.0252434
0.0551291
5.78118
0.0252877
0.050023
0.0253152
31.3316
4.53149
0.0258289
0.0262048
0.0261385
6.47556
0.0252861
5.28055
4.35088
0.214013
4.2537
4.10496
0.0256647
0.0256337
0.0250054
5.25008
0.0261222
8.27028
0.025273
0.0697963
0.0257186
0.10124
0.0253919
0.314794
0.126203
0.109266
0.2295
3.82765
4.39286
0.0253711
0.0922379
4.19139
0.0255418
0.356023
0.0255823
0.0531192
0.0310797
0.035353
0.0252852
4.37258
0.0256543
4.28775
0.0255807
4.57504
0.0508687
0.0253517
0.0251579
0.0872302
0.0420938
0.0269857
0.270995
0.0265872
0.0933196
0.0942069
0.0527325
0.0252367
0.992411
0.223053
5.32173
0.218657
0.0252481
4.93479
0.337611
0.157426
0.0253499
4.50066
0.0347934
0.0250759
5.06734
3.40916
0.0253148
0.0315389
0.025131
0.050899
0.0635863
0.0879949
4.13866
4.17103
0.0639144
0.0254395
0.02929
0.113938
0.0250891
0.0971319
0.02513
0.0256287
0.197901
0.0308254
0.0285593
0.111674
0.0286564
0.0252045
0.03748
0.152429
0.0252367
0.028364
0.0254217
0.0364964
0.106346
21.7028
5.32182
0.320811
0.0249041
4.01583
0.0458032
0.0276539
0.0444768
0.0286126
0.092422
0.0829502
3.93223
0.0254472
0.0253177
0.228736
6.20888
4.96868
0.0249031
0.0250816
0.0253716
0.0250673
5.18279
0.194195
0.0259472
0.025607
8.53068
4.66757
1.42595
6.38331
0.0251047
0.0749672
0.0468949
0.0413571
0.135917
0.0250919
8.08523
0.146471
5.82998
0.0252073
4.3208
0.551817
0.0256468
0.0533015
3.90252
0.0249272
0.0255976
4.36677
3.68615
5.19332
0.025974
0.0259908
0.0255914
4.10049
4.30493
0.0514761
4.54142
0.0253164
4.31694
4.98629
0.0254631
3.97668
0.0256764
0.136802
0.164384
4.92374
0.025112
0.0276436
0.0733955
5.56523
0.0270497
8.29263
0.0602509
10.7027
0.0552614
0.0269212
0.0252301
0.0558436
0.0254346
0.0249211
0.0248784
0.868391
0.0395862
0.0256701
5.75589
0.0352744
7.55857
0.0252385
0.0290189
0.109509
4.25823
0.0251552
0.0308158
0.0254341
6.80938
0.0272841
4.54553
0.0262407
0.031805
4.61928
0.0254307
0.0608211
0.0252933
0.0522133
6.83292
0.0253874
0.0252203
0.0254528
0.0291539
0.0262499
0.0927884
0.0624325
0.181926
11.7387
0.0252281
0.0252007
0.0374329
4.11325
16.4813
0.536878
3.99508
0.0249416
0.0247976
3.94
0.0284623
0.0298251
0.0465185
0.0281921
0.145146
7.70404
0.0253967
0.0253376
0.618651
0.027047
0.12816
0.0252481
0.222635
1.2771
0.0253573
0.0252224
0.044944
0.161274
4.66114
0.0287381
0.0763015
0.0254643
5.32078
4.35432
4.83233
2.74752
1.01639
0.0352476
0.0529709
7.06083
0.0253203
0.167312
0.024967
0.0267916
0.462208
0.0260437
0.0679209
0.0252276
0.175201
0.0255664
0.322006
0.0426237
0.0264451
0.0938733
0.159226
0.0255613
0.0290458
0.145718
0.0252017
6.69929
0.0462367
0.0252494
0.247591
0.027985
1.55734
0.0340629
4.57606
0.1248
0.979731
0.0963733
0.076651
0.162352
4.6185
0.0254481
0.0274039
0.0253123
0.0911294
0.0270004
0.0254625
0.0297236
0.0247912
5.05127
4.93826
0.0380188
0.0268557
0.0254877
3.35326
0.0276866
0.0378714
0.143365
0.326285
0.0256095
0.0251217
6.26718
4.14608
0.0305779
5.05448
0.0253172
5.62796
0.0253616
5.91834
0.0255801
0.307462
0.0250036
1.69971
7.57938
0.0297418
0.0272502
5.4642
0.0256143
0.0255656
0.198814
0.167162
0.043553
0.0256935
0.084756
0.03017
4.68075
0.0248271
0.0254701
0.0254682
0.0250779
0.0256723
5.47109
4.09531
0.0253566
3.80653
0.0910053
0.0257507
0.024655
0.0253218
0.0253069
0.0639131
0.170797
4.09756
0.0255618
0.0252374
3.66891
4.91319
0.0321316
3.88741
4.0442
0.0415273
0.0253906
0.0253676
5.76044
0.157253
0.117024
0.0517833
3.99812
0.0256099
0.10042
0.0251369
0.0654819
8.2454
0.0253302
0.320985
4.33164
0.223695
0.0272381
0.0251355
0.212898
0.113789
0.0334322
4.46745
0.0681456
4.5636
8.07558
4.87004
10.5445
4.16068
5.14597
0.0714834
0.126571
12.1894
0.0253263
3.86685
6.32922
5.08706
3.07134
4.07322
0.0251136
4.33846
4.58213
0.0251221
0.0246854
0.0269466
4.85719
0.0254208
0.0368768
0.0255927
4.98117
0.597003
0.0286673
0.0677464
0.0414291
0.0251306
0.024865
0.0415014
0.0446783
0.975892
3.61
3.66444
0.0253461
5.54479
3.24553
3.41598
0.0434228
0.026558
0.0374248
4.77809
0.147248
4.64205
0.172931
0.0254248
0.0251244
3.94417
0.0253954
4.65963
0.0250938
0.207545
14.6942
0.726444
0.0254868
16.103
0.0251474
0.0260589
0.025497
0.0253378
0.09438
0.149988
0.0264734
0.238545
0.808421
3.03156
0.0252339
0.110955
0.167045
5.14727
0.0248911
0.0250314
7.14837
0.168812
0.455285
0.0279261
0.0248735
2.79215
0.0286934
0.0248473
0.0286956
0.329574
0.0251385
0.0256406
0.025366
0.0248217
0.0683628
0.370828
3.58209
0.0247539
17.5301
0.0256887
0.0267315
0.0256547
0.0410839
0.0303144
0.0295775
0.0331844
4.96213
0.0369461
0.075909
0.0987368
13.7941
0.0532606
14.8004
4.56884
0.212692
0.02506
0.258298
0.0249432
0.0255648
0.0922609
0.0257492
0.0253291
0.0343151
0.320586
0.364572
0.0698004
0.0256253
0.0253053
0.0315632
0.0348091
0.0253563
6.2958
4.67886
2.58023
0.0260015
5.61829
0.214434
0.0269038
0.0254376
0.0256481
0.0253691
4.26748
0.0253416
0.036918
7.2879
3.78991
0.0248131
0.152222
0.254198
0.0250799
0.0589572
0.0259355
0.0260767
0.216258
0.360606
0.815047
0.0263796
0.0438923
0.155814
0.0269604
4.59528
0.0250993
0.02567
0.116103
0.024882
0.08409
0.143647
0.0273687
4.2878
0.0247168
0.119536
0.14014
0.0310582
0.0261113
0.0255818
0.025353
0.93922
0.0250981
0.0269671
0.15471
0.0414886
0.0252706
0.0283753
12.2568
4.73433
0.0691316
0.024668
5.20991
7.16948
0.0246001
0.0274083
0.0320762
0.0250257
0.0255409
3.85112
0.0263954
4.35833
0.0596379
0.0253433
0.0253356
0.0251703
0.0252907
0.161137
0.0634613
0.0550352
0.215109
0.0254349
0.0249529
0.0590079
0.0869767
5.76647
0.0256094
0.0288497
0.239335
6.12086
0.0255789
0.222942
0.0611121
5.93955
0.0254692
0.802451
0.027321
0.380343
0.0481148
0.170527
0.0268691
0.110757
4.48802
0.0281143
5.68636
0.025296
0.0495756
0.0365279
0.206633
28.6625
0.0333339
4.60171
2.2938
0.0253444
3.97768
0.0253231
0.0668638
4.56363
5.71067
0.243132
5.0301
0.0309718
0.0253622
0.025183
0.0292289
0.313504
0.043041
4.50668
5.03269
0.0447122
0.735683
8.32298
0.0249553
0.383939
0.119077
0.0253142
0.0256756
0.0269206
0.0275321
0.0253394
0.0421337
0.0254021
0.0497652
0.025332
0.155982
0.0251973
4.37209
5.12876
0.0248943
0.0263088
0.0299283
0.0254408
0.11935
0.0894124
0.0423314
0.0252332
0.0254723
0.0915101
0.23307
0.0255888
0.0271132
0.0252922
0.212191
0.0256002
0.025544
0.120756
0.0269585
0.0260863
5.41504
1.12067
5.1641
0.02703
0.0249655
0.0259948
4.75272
0.0370181
0.025459
4.17076
3.73788
0.0251992
0.181732
0.510655
0.0248231
6.74349
0.0256193
0.0249879
0.0286952
4.09509
5.25902
0.0348074
0.0406369
0.0535778
0.026953
6.17653
0.0249292
0.0254196
8.11033
0.0363537
0.036283
0.0316835
0.0253469
3.51838
0.0251258
0.0746411
0.0253976
4.89295
0.0314128
4.04276
4.70564
3.67729
0.0254507
0.0255767
0.0544559
0.024693
0.0411133
6.22667
0.0741698
0.068634
4.6903
0.0287312
4.08706
4.50915
0.0251331
0.0256055
0.0256856
0.0248162
0.025116
0.0248782
6.45914
0.0248993
0.0275813
0.0255987
0.0316311
3.45492
0.0276005
0.315503
0.201163
0.0691238
4.41629
0.0266623
0.0251918
0.0429172
0.0254257
0.168522
0.248978
0.036823
0.313704
0.0309317
0.0254494
0.161418
4.31676
0.119455
0.110635
0.35617
0.0256357
4.59315
4.69748
0.0255281
1.44434
4.10216
0.0277401
0.0411728
0.604322
4.17597
0.0251713
0.0286969
0.165567
4.50455
6.86123
1.21022
10.1888
0.150282
4.2499
0.043933
0.025591
0.0254885
0.0248522
4.32698
8.16129
0.0252829
0.0699854
0.0254135
0.0294792
0.310603
0.0251175
3.3427
0.0246575
0.0253178
0.0261873
0.0253312
0.347804
0.0507575
0.0316746
0.108582