/*--------------------------------*- C++ -*----------------------------------*\
| =========                 |                                                 |
| \\      /  F ield         | OpenFOAM: The Open Source CFD Toolbox           |
|  \\    /   O peration     | Version:  v2012                                 |
|   \\  /    A nd           | Website:  www.openfoam.com                      |
|    \\/     M anipulation  |                                                 |
\*---------------------------------------------------------------------------*/
FoamFile
{
    version     2.0;
    format      ascii;
    class       volScalarField;
    location    "200";
    object      omega;
}
// * * * * * * * * * * * * * * * * * * * * * * * * * * * * * * * * * * * * * //

dimensions      [0 0 -1 0 0 0 0];


internalField   nonuniform List<scalar> 
27915
(
0.0254064
0.202255
5.43879
4.16045
0.052797
0.0262832
6.64567
0.0687342
0.0555662
0.0603438
0.0396425
0.0255026
0.617198
3.53379
5.19709
0.0282128
4.03208
0.0491537
10.619
0.0262438
3.49371
0.0252305
4.04542
0.0254025
0.0252175
0.0251553
0.0253026
1.70628
4.21731
5.10141
0.163107
0.024918
4.05565
0.0262609
10.1995
0.0252995
0.0252931
0.0350883
0.0842308
0.0279609
0.0253027
0.0351279
0.0253754
0.172818
0.186568
0.0255516
0.0253839
0.0373735
0.0252019
0.0251481
0.0385513
0.170765
0.14885
0.0279745
1.82765
5.75593
4.6108
0.0251371
0.0252286
4.21975
0.0249216
0.0646928
0.0938245
4.29062
0.0256852
0.0292166
0.0441681
0.238626
4.66327
0.0284859
0.0354085
5.4842
0.0253316
0.0251431
0.0355183
0.0642994
0.094427
0.0321653
18.6367
0.0255452
0.0349233
0.0280767
0.0251551
0.0251399
6.45537
0.0249502
0.0252006
0.0283161
0.580211
0.0503444
0.025308
0.297634
0.0280523
0.159788
0.0277991
0.0388136
5.75586
0.0288524
0.0252605
5.45375
0.0252292
0.0255662
12.2871
0.0355113
0.0253648
0.025398
0.0253626
0.0753443
0.0897734
0.0589763
0.0255032
0.0262487
1.59324
3.81408
8.11443
0.180624
6.67121
0.0252394
0.0555233
0.0247641
0.309366
0.0551739
0.132481
0.0501002
0.0261773
0.0247907
0.0262658
4.21823
0.092198
0.0279421
0.0279018
0.0253382
0.0249468
5.82221
5.58295
7.32757
0.0252935
0.0251491
0.0308421
0.0249518
4.40363
4.27258
0.0267274
5.23857
0.0720564
0.0252786
0.0256923
4.50259
0.293776
0.02514
0.02516
0.0323366
0.160143
4.07688
0.0986627
0.0318025
0.025175
0.0251875
0.0278826
0.0265729
0.0874044
0.119981
0.0935294
0.0252061
0.025307
0.027117
7.10054
0.218452
0.0251377
0.183238
5.8589
0.0251882
4.03853
0.0253511
0.0256918
0.172897
0.0457005
0.0254126
0.0256378
1.99726
0.0251622
0.0452637
0.0253582
5.76398
3.7599
0.0559262
0.0923066
0.0254045
5.62012
0.0379676
0.0253657
0.271881
0.0254091
0.0253903
0.0253439
4.58351
0.0255008
0.0357089
6.76998
6.52008
0.164061
2.10174
0.0339947
0.285312
0.0253728
0.029353
4.636
0.0299099
0.0300192
0.178885
4.87098
0.0253756
5.45116
0.0262357
0.0537079
0.0253305
0.177546
6.74853
0.0595714
0.0328246
4.539
0.236869
0.128833
0.0254793
0.0342673
0.0355306
0.0636471
0.025399
1.88199
0.025178
3.94297
0.0249606
11.642
0.0315702
0.0251888
0.0254941
4.94517
0.0263672
0.617848
0.0252282
0.0253941
5.88618
21.952
0.055524
0.0254508
0.0284358
0.199102
0.0262544
0.612885
0.161416
0.0253653
0.0371082
0.156622
0.0252346
0.0400431
0.0272665
0.0374208
0.02707
0.303234
4.1234
4.78508
0.0257237
0.0253251
0.024894
0.0395353
0.160368
0.0247294
0.0254952
0.0917065
0.0253641
0.0252317
0.0253458
16.1217
0.048752
0.0262303
4.98539
0.0264257
4.52541
3.7533
4.69671
0.235204
4.2148
0.0285124
5.0534
0.0306519
0.0284047
0.11333
0.0262422
0.753329
4.62675
0.157844
0.0400172
0.0253005
0.162061
0.0292228
0.0249529
0.0253596
4.57852
0.128791
0.025318
0.249712
0.0251422
0.039488
0.0253664
0.153212
4.17201
0.0253356
1.90098
0.0252409
0.131529
6.05948
5.64379
4.32645
0.026264
4.24123
0.0249579
0.0250607
0.0249618
0.0635358
0.241801
5.82827
0.0250644
0.0256222
0.0266686
0.252701
0.0284218
0.0252145
0.0881278
0.0522865
0.0594095
0.0253044
4.83069
0.0311558
4.45835
4.5517
0.0561642
0.0997837
0.244543
0.158889
0.0272123
0.0302191
0.0555322
0.0625222
0.241299
1.48316
4.29033
0.0252323
0.100158
0.0856706
0.027911
0.11027
4.10475
0.179292
0.0360699
3.83347
0.138384
0.0337283
0.0253177
4.2677
0.0941498
4.62402
0.0251247
0.0253864
0.309668
0.0857657
0.02565
13.6997
0.0873194
0.0394131
0.0395926
0.0346605
0.225522
0.0280879
0.0416949
0.0671623
0.0259552
0.0253137
0.0254053
4.45175
0.0284462
5.71282
0.0255576
0.201619
0.0887204
0.0253398
0.0998688
0.093589
0.032962
1.16918
0.11665
5.37206
0.036335
0.104919
0.0430235
0.0254416
0.0555765
22.5426
4.64064
0.0255568
0.180401
4.4582
0.0344285
0.0254568
0.0256847
4.23118
0.0254972
0.146902
0.0254561
0.0595186
0.0532143
0.0252946
0.0359084
0.0256557
0.0440202
0.0265968
0.325113
0.0253003
0.246596
0.0384811
0.0252241
4.29356
0.238257
0.0664234
4.68288
0.0545374
0.312892
0.0532361
0.02513
0.0253592
0.0262464
0.0311835
0.0348129
0.0871056
0.314543
3.93238
0.0313604
0.0254796
7.56261
0.0252799
3.96349
0.0255871
0.0254462
1.06235
0.135889
0.025294
0.119195
0.0429386
4.55933
0.0358757
0.0252799
0.0268364
0.029142
0.0253698
10.0674
0.025413
0.0259893
6.35524
0.0251248
0.0282038
4.03247
5.04942
0.025198
0.300852
0.0324749
14.2795
0.0323446
4.12345
4.25021
0.0254032
0.0513627
0.125115
0.0252097
3.68977
0.0251111
0.0256932
0.167546
0.269012
4.70937
0.0262651
0.0452677
0.055377
0.065429
4.72944
4.02319
0.0253822
0.0249034
0.026318
0.0260081
0.0437373
0.0272993
0.0251355
0.029752
4.34702
0.0257593
0.034459
0.0362625
0.0256923
0.0293316
0.194431
0.032135
0.0277399
0.0252162
0.195363
4.86831
19.6582
0.224017
0.157758
0.0247281
0.117417
0.0253136
0.0248357
0.0251626
0.171805
0.0253794
4.68504
4.26291
0.0474936
0.0278619
5.67426
0.0415265
0.0828368
0.0252134
0.0253868
5.43849
0.0359477
0.0270693
0.150714
0.0256064
0.0252854
0.0257694
0.0273164
0.0252275
0.0253514
0.0254102
0.025889
0.0274395
0.02518
4.24407
0.193481
0.0964481
0.0256061
0.0269521
0.0252081
0.105747
0.0250723
0.0249386
0.0313732
0.0251068
0.322857
0.0253776
7.90685
3.55623
0.271555
0.0254765
3.98623
0.238437
0.0253279
0.0252036
1.41999
0.0263277
0.0533148
0.025563
10.8131
0.0265843
0.272554
0.0330304
0.025426
0.235484
4.53647
0.0256961
0.0253101
0.0256659
0.0253156
0.0988009
0.0313317
0.0253803
4.44658
5.49282
1.66707
0.0252119
0.182093
0.229582
0.024901
0.0252618
0.187112
0.0650044
0.0257426
0.114804
3.86032
0.0635238
0.079051
0.025226
0.0253136
7.24467
5.32375
0.211471
2.54959
3.26092
9.87151
0.0294469
7.21235
15.1958
5.00495
0.0319618
0.238792
0.0359549
0.02616
0.0251744
0.0280479
0.137148
0.0252227
0.025195
0.0332064
0.0653356
0.101726
4.21086
0.0345335
0.0251211
0.0253505
0.028039
0.0289166
20.1252
3.23475
0.230762
0.0254362
0.323964
0.0262441
0.02525
0.0706868
0.0295594
0.0256723
0.0747949
0.028232
4.24693
0.037066
0.0402189
4.00077
0.194643
0.0720434
0.025686
0.0256442
0.0251408
2.55912
0.161771
0.0978334
5.48246
0.0352874
7.99754
0.0249324
7.22383
0.0249401
0.0255932
0.0268141
0.0252089
0.196993
0.0262228
0.0253774
0.0280653
0.0254122
2.73362
0.0260451
0.0254037
0.0907852
0.0293569
0.0342465
0.0250367
0.0252079
0.240184
0.0253172
0.0251504
0.0251669
0.0249247
0.135313
0.0247497
0.024968
0.119297
0.0283559
0.0267759
9.51626
0.025287
0.0403077
3.93074
5.71418
3.04935
0.0253143
0.0670702
0.0324284
0.0255117
0.0258793
0.0463534
0.0277837
0.0254066
0.0252894
0.0255685
8.80809
7.07917
0.0778181
0.117855
1.70604
0.0310901
0.025685
0.074884
0.0811115
0.0254557
0.0585977
0.0253175
0.287943
0.0309876
0.0609725
0.0309448
0.0247511
15.5689
0.0258543
4.22935
0.198274
0.909811
0.0332003
0.108857
0.0249555
0.0251943
0.0253933
0.0256928
0.0372841
0.0252406
0.0294467
0.0312091
0.0290823
0.0272781
0.100635
5.51496
0.0259927
0.0252647
0.0251644
0.0583164
0.0254189
0.0627449
0.0368609
0.0252074
0.0256475
0.161826
0.305285
0.0257026
0.03261
4.1739
0.0249308
0.0270365
3.82345
0.0307938
6.24597
0.0255217
0.0290321
0.0537678
0.216397
0.0253982
0.0259665
0.0490467
0.0530428
0.0492006
0.995965
4.74019
0.0289521
9.79308
0.025205
8.9642
0.025408
0.0487863
4.10748
0.0686449
0.0533181
0.0253318
0.0446241
0.0273184
0.02949
0.0624073
0.0252986
0.0254152
0.0768916
13.2425
0.0950597
0.0351106
0.0259611
0.0253106
4.52421
0.024974
0.0254726
0.222522
0.0252541
0.028033
5.32678
4.46141
0.0262569
0.0247344
0.0252911
0.0306208
4.9642
0.0253112
0.230786
2.07338
0.0371807
0.0593406
0.0259455
0.126042
0.0258512
0.0405649
5.02742
0.0256325
0.180396
0.0260121
4.6662
0.0449581
0.0253329
0.0253351
3.90986
0.0253134
0.0253593
3.70589
0.300921
4.0271
0.0255179
0.0309954
1.74783
4.64319
17.7454
0.72668
0.02546
0.0307318
0.025725
0.141821
0.196458
5.72937
0.0256712
0.101571
0.0530272
0.119849
4.9101
0.0251117
4.9001
0.151284
1.05383
0.0253815
0.0725172
0.0286301
0.0256658
0.0336781
0.0287004
0.0321796
0.0453184
0.0251853
0.0468454
0.0322572
0.0374214
0.0278088
0.025344
3.43956
0.154485
8.92646
0.0250832
0.0310436
0.178712
0.0315187
0.162011
4.41092
4.79728
17.7546
0.0253809
0.056719
0.0614864
3.78939
0.0285261
0.0341282
0.025729
0.163964
0.024885
0.0961887
4.83932
0.0284907
0.0345924
0.0262182
9.08887
0.0250921
0.0251812
0.0252096
0.0265377
0.137344
0.024738
0.0252274
0.0252409
0.0464948
5.0953
0.0252148
0.0251687
0.0252126
0.025227
0.0260087
3.94035
0.025203
0.0252844
0.056432
0.0371757
0.0253091
0.0281378
0.0574475
4.65455
0.0256576
0.025362
0.0266309
0.0250823
0.243391
0.0942098
5.7077
0.0262566
3.98004
0.0253124
0.0253165
0.0525969
0.203993
4.68199
0.0251812
0.0572772
0.0261655
0.0324965
0.0248728
7.33055
0.0252915
0.0568734
4.09853
0.0252295
0.0563593
0.025857
0.0261054
0.0322599
0.0599474
6.3293
0.0448236
0.025155
0.0251879
4.53284
0.0250655
0.027545
0.0615528
0.0255072
0.0252165
0.025142
0.0251733
0.231228
1.43907
0.0256863
0.0791923
4.74277
3.54538
5.27356
0.124728
4.86148
0.0252764
0.0253533
0.0249553
5.27723
4.47927
0.0254292
0.0252218
0.0256611
0.129576
4.62389
3.51733
0.0352849
0.0254884
0.0249514
0.0255339
0.0258954
0.17815
0.0250967
3.49732
0.0249832
0.0250157
0.0252955
0.343194
0.0599292
3.67067
0.040354
0.0276883
0.0254591
0.131279
4.68275
3.81164
0.12025
0.0254058
0.025203
0.163984
0.149165
0.292192
0.0391493
0.0249432
0.0343246
0.025046
3.19995
0.0429228
0.182851
0.121519
0.0248775
0.0250264
0.0250246
0.0275748
0.0252654
1.37954
0.0435083
0.0524994
3.6791
0.0251242
0.0631528
7.25052
0.0255134
0.0383299
0.0285271
1.32073
0.0256695
0.0251785
7.37562
3.56559
10.1589
0.0252446
0.0251143
4.55849
0.032686
0.0252233
0.0251251
1.0518
0.0285604
0.0250772
3.7703
0.623576
0.057477
7.51051
0.0249519
0.0313482
4.44569
0.0252838
0.025358
0.0249425
0.315927
0.0261798
0.0253832
0.075173
5.55973
0.0852507
0.0442985
0.0252817
0.0256005
0.0957876
0.0452158
0.0265986
0.0254848
0.0250632
0.0256707
0.114512
0.0326393
0.163205
0.0286922
0.221495
0.0247569
0.0315168
0.0250699
0.153791
0.0252363
4.27658
0.0255525
0.0250413
4.59555
0.0252882
0.129963
0.0298988
0.0331346
0.135432
0.0252244
0.0250171
0.027812
0.0251042
4.21923
0.221134
0.0253765
0.177302
0.305186
0.0439654
0.0253939
5.39933
0.0254736
0.0744719
0.0248187
9.54934
4.90776
0.207891
5.2068
0.025279
5.54045
0.025237
0.0251378
0.0396777
0.326459
0.0425893
0.0539173
0.026153
0.0325778
0.0253369
0.0312173
0.993126
0.0591453
3.98762
0.11479
17.1302
0.0252206
0.0531256
0.185243
3.49568
0.0256463
0.0874112
0.0515204
0.0408376
0.0253996
3.28227
0.036306
0.0251428
4.52764
0.032263
0.025512
0.822555
7.47976
0.0321467
0.0253178
0.0277442
0.175701
3.48644
0.0250921
0.025206
0.0878133
0.0272831
4.31806
0.0253319
4.43493
0.0273119
3.83809
0.0247478
0.0878268
4.89788
4.75107
4.81328
4.62152
0.0254506
6.29202
0.0252257
0.325172
0.0262588
0.025362
0.0964001
4.21068
0.191779
0.0253059
4.65041
0.025361
0.0890563
0.0254022
0.0254919
4.78106
0.0276318
4.19842
0.0253376
0.0253594
4.68287
0.0251182
0.0415465
0.0248095
0.0260019
0.0371229
0.0251052
0.0336131
0.0344946
0.0255827
0.0252184
5.51635
0.0838711
0.324885
1.6756
0.0256288
0.0448164
0.0311426
0.0586169
4.45736
0.352565
0.027747
0.187252
0.0250986
0.151708
0.112595
0.0253441
0.183577
0.173053
0.120164
0.0256769
0.0398735
0.0258123
6.58134
0.0862569
0.0253353
0.0250851
4.89355
0.0355297
0.193324
0.0425448
5.28395
0.0271242
0.0433957
0.0401353
0.0251453
5.20773
0.16766
0.0248733
0.0851022
0.170646
0.0847797
0.06763
0.324172
0.244272
9.19485
0.0437455
8.38241
0.0256518
0.0250431
5.8943
4.72909
5.76755
0.0277556
0.0252277
0.0254306
0.0285286
6.32889
0.0256459
0.0518228
4.78571
0.194739
0.541569
0.0248951
4.23881
0.0256383
0.819616
0.0420001
0.0357921
0.0247944
0.0256305
0.0252216
0.321988
0.0384841
6.47452
0.336673
0.0254704
0.170494
5.37887
0.0252544
0.0352058
0.106982
0.0431461
0.0252826
0.0315014
0.0253743
0.0247625
0.0252691
0.0323429
5.3755
0.0769387
0.0314018
0.581744
4.4895
0.0256846
9.4795
0.0253761
0.0255114
0.0256924
0.0539934
0.627908
0.795162
0.127417
0.0253769
0.0594423
0.252504
0.0255044
0.0254338
0.0782682
0.0252296
0.0255016
0.031554
0.950377
4.24033
0.0257582
0.380571
0.150942
0.21435
0.0279702
4.56063
2.29766
0.0285166
0.042266
0.341036
0.19452
0.0253311
0.0422064
0.0251767
0.0252117
0.0268696
0.0255006
0.110508
0.0256467
0.0340326
0.0253527
5.31707
0.0252892
0.24249
0.749662
0.34287
0.0247371
0.0253506
0.144972
0.0319087
0.0449528
0.0351686
4.32227
0.0250146
0.314727
0.0252974
0.0251705
0.703462
0.0576208
4.59911
0.0252073
0.0253025
0.0608547
4.85131
0.0253357
0.0526501
5.76073
0.0251031
0.0250282
0.0362756
9.79534
0.0255181
0.0253489
0.109956
4.26978
4.69567
0.0253149
4.39881
0.0256538
0.0630748
5.40909
7.95007
0.0252377
4.74965
0.024892
4.50236
0.888751
4.46558
0.160772
0.0253457
0.249392
0.203643
4.18542
0.0253159
0.02482
0.0398214
0.243754
0.0253465
0.0251202
0.0544901
0.0256161
0.0253048
0.168474
4.94864
0.318862
0.0251283
4.15814
2.08548
0.0519684
0.0254007
6.81253
0.0551871
0.0295115
0.025124
0.0249634
0.0247403
0.0253137
0.025427
5.78962
4.36762
0.0255776
0.0255098
0.276426
0.0251469
1.76537
0.114597
0.0252011
0.344534
0.463475
0.0324275
0.0256537
4.32947
0.0264069
0.0252533
0.0253844
0.0288086
0.0327159
0.0250779
4.10598
0.0250188
0.0253108
3.45905
0.15915
0.210136
0.0513129
0.146265
4.6219
0.0285708
0.0347036
4.58551
0.0538983
0.0251596
6.25352
4.45151
0.0264607
0.0256501
5.39043
0.0441655
4.18611
0.0262286
0.0255092
0.0258042
0.177143
0.0364553
0.0254275
0.0262073
4.84921
0.138154
0.0556128
0.0255974
0.0255276
3.9631
0.0256465
0.0326503
4.76201
4.70786
0.0255154
0.0255564
4.25325
0.122896
3.75296
4.4327
0.0373048
0.0269773
0.0533424
0.0296195
0.0254854
0.0250582
0.184364
0.0255683
4.8816
6.29803
0.0408765
4.1648
0.185565
0.0687747
0.0357039
4.9379
0.0346027
0.221086
0.347259
36.7782
0.344764
0.0289454
0.0293941
0.0422971
0.0253467
4.32457
0.0263695
0.027472
0.241463
6.60518
0.112326
0.027337
0.822876
0.0873068
0.0457413
0.115191
0.064345
9.95961
0.0252661
0.109915
7.20893
0.32291
0.0623947
0.0248684
1.39108
0.050873
3.98151
7.58223
0.0254808
0.110985
0.0255453
0.176739
0.0251566
0.025342
4.69349
0.0808917
0.0254739
0.0250191
0.0249607
0.0256171
0.0392337
4.90292
4.78321
0.0251715
0.0254466
0.0252896
0.0248716
0.189787
3.84697
0.0617662
0.306739
0.170285
0.0355228
0.762803
0.0255112
0.954855
2.7232
0.160359
0.0253602
0.047623
1.01155
4.3088
0.0253951
0.0251305
0.0252593
0.0253795
3.51044
0.025505
0.0295101
0.0274657
5.07548
0.160846
0.0285595
0.716463
0.0316348
0.0252966
0.185767
4.8828
0.0249679
0.0248618
0.0248526
0.0249545
0.0423104
0.0742075
0.0254639
0.0254459
0.0249089
0.091041
0.192934
0.0249118
0.0265809
0.0725768
0.0253957
0.0412633
0.0250469
0.0363135
0.0254544
0.0253344
0.0343948
0.0326277
0.025995
0.0253796
0.0251292
4.12828
0.0253336
0.0254169
0.0252258
0.0254197
0.0355058
0.0307601
0.0954277
0.0254657
0.0315469
0.0554621
0.0250185
0.0254518
4.48034
0.0533071
7.96671
0.025502
4.68755
20.2903
0.0253628
0.0255992
4.62798
0.0253289
3.17464
0.351525
5.30778
0.307576
0.0252206
5.39226
0.0687297
0.196955
0.0921934
0.0251929
0.0251348
4.58461
0.0253246
5.4384
0.0622128
0.0254633
0.0275886
0.0266793
0.0248808
1.0447
3.12474
3.76607
0.0315574
5.67562
0.025112
0.0254346
0.0251969
0.0254815
0.397071
0.0531703
0.0259283
0.0616219
0.0253658
0.0263655
4.46478
0.0746401
3.99204
0.0277665
0.0276163
0.0252092
0.198383
0.025573
0.0379927
4.80309
3.7847
0.0253612
0.0251399
0.027269
0.0253173
0.0446824
4.88229
0.025654
0.0250156
0.0373669
0.0250735
1.75158
0.0254542
0.026228
0.0255055
0.167697
4.65235
0.0303314
28.7331
0.072789
0.0906671
3.29729
5.90904
5.2546
5.552
2.57859
0.025579
0.0252227
0.0280653
0.0519117
4.84999
5.11007
0.0263933
0.0679655
0.0248661
0.025029
0.0251185
0.0551198
4.58455
0.0255943
3.45949
0.0251607
0.0253423
4.43632
0.0252232
6.16723
0.0249553
0.157331
0.028334
0.135104
0.0252155
0.0258021
0.0253956
0.0253853
4.33049
1.11845
0.0253338
0.0254552
4.47374
0.064442
0.037344
4.93579
4.71153
0.0316386
0.0262428
0.323825
5.27358
3.66387
0.0353413
0.0253237
9.71613
0.0251755
4.54426
0.0265597
0.679157
0.0252682
0.0931235
0.0251381
0.0253703
0.0445334
0.215589
0.180449
0.0265694
0.0251733
3.98338
4.30139
0.0251682
3.93519
0.0261779
0.0253514
0.0253932
4.25206
0.0251613
4.70316
0.0253134
0.0989314
4.94289
0.0251169
4.92859
0.0253639
0.173398
0.171051
0.0254313
0.0255655
10.751
0.0254609
0.158569
7.12713
0.168792
0.0253317
0.0250855
0.0953711
0.0272346
0.0261435
0.0255859
3.44912
0.0271433
0.0360265
0.0273095
5.40768
0.0272334
0.0251934
0.0251207
0.285004
0.025378
6.54836
0.0329476
0.297694
0.0256551
0.0735662
0.362174
0.0252402
0.025166
0.0387363
4.59327
0.025273
5.037
0.127338
0.0301467
0.0406152
5.23677
0.0253328
0.0356168
0.0282251
0.0284709
0.0254115
0.0256248
0.0632854
0.0661571
4.2672
0.0264939
0.318641
0.231074
0.0249519
1.28147
0.056421
0.166932
4.49268
0.0361575
4.24001
4.60048
0.0259023
0.0252769
0.024949
0.0285944
0.0671251
0.117893
0.0253241
0.0536507
0.0253014
0.0513011
0.0260403
0.0252713
0.0912763
0.0594361
0.0250677
0.0250287
4.49277
4.59395
1.63589
0.0249766
0.0328513
5.93396
0.0251867
4.48088
0.0252406
0.0939733
0.0316266
0.0252141
0.028615
0.0749534
0.0383511
4.59673
0.0255564
0.0270922
0.0247019
0.0882492
0.0253283
0.02489
5.41689
0.0252791
0.413925
0.0515469
4.50904
0.0280329
0.968703
0.365802
0.0350202
0.0273016
5.16347
0.171844
5.32693
0.315915
0.0325898
4.67769
0.0253136
0.0299183
2.0475
0.0251437
0.0371802
0.025496
1.17897
0.0251279
0.0641883
0.0394531
0.212067
0.0267301
0.0272052
0.0665566
0.02909
0.144575
5.8178
0.249445
0.0253437
0.151474
4.52133
0.0253531
0.118449
0.0254884
0.165384
0.0652854
0.0269233
0.0977082
0.144856
0.158811
0.0366528
0.0254618
4.08609
5.74848
0.0712567
0.0252397
9.59821
0.0253288
4.12925
1.4956
3.66309
0.37509
0.245732
5.29608
0.0348055
0.175677
0.0251514
0.0262889
0.0926494
0.025088
4.0385
6.87278
0.166093
3.86638
0.0325636
0.0247101
0.247274
5.57933
0.0252424
0.0450453
0.0454443
4.63278
0.025465
0.178949
4.26629
0.288381
0.31672
0.0249233
0.025679
0.0247476
0.0285985
4.98243
1.52815
0.279993
5.23631
4.64192
0.025284
0.0248563
0.196958
6.11332
4.42237
0.027161
0.149206
0.825591
0.0291261
0.0445869
0.0252134
4.58221
0.0252956
0.0700484
1.17242
0.882448
0.0248784
4.35279
0.0252129
0.03501
0.0522482
0.0250443
0.135112
0.0317648
4.13473
4.69095
0.0978891
4.11674
0.0384542
0.0254552
0.0255474
0.0263711
0.0253427
4.71428
0.0435419
0.0299281
0.0256472
7.57365
4.073
0.0248366
0.0307868
0.0251635
3.98189
5.22446
0.0531232
0.0254537
0.0253734
0.0253887
0.0272088
4.30867
0.0256545
0.147198
4.22466
0.0252769
4.22815
4.68434
0.0284469
5.37413
0.0251731
5.4755
0.0609919
4.66271
0.0334386
5.75725
0.0250087
0.315531
0.0450559
0.167249
0.0255055
0.0313936
0.0251537
0.0254626
3.32479
0.223765
0.0268372
4.59725
5.75449
0.0248669
4.12345
0.0270162
3.01377
5.29594
0.199824
0.0928506
1.72517
6.85219
4.21255
0.0824801
0.0283581
4.48195
4.7752
3.7111
0.0968585
0.072385
0.0254654
0.0256497
0.0254415
0.0247251
0.0253304
5.22521
0.0249178
0.0286544
0.025469
0.317224
0.0254695
0.0250386
0.0253646
0.0551396
0.0260255
0.0254232
0.0254208
0.0254104
0.036782
0.0269123
0.0248682
4.48984
0.0250847
0.0251581
0.0457471
0.0255549
0.0304858
0.02517
0.338532
0.109597
0.0253042
0.0398462
0.0251269
0.025235
5.00043
0.0424049
0.0252793
6.59999
0.0247406
0.221167
0.148331
0.0252335
0.0624907
0.0291967
0.767961
0.191176
0.0260558
0.0740779
0.0269037
0.0254075
0.0891763
4.3039
0.0251353
0.0258794
0.0251671
0.0315065
0.024668
0.030917
0.0618156
3.42893
0.0316136
0.0252864
4.28901
0.0273044
4.34092
0.0252498
0.161527
0.0383803
0.121207
0.0252474
0.940551
4.94183
0.0265963
4.57429
0.120548
0.0254199
18.7708
0.0255058
0.0253194
0.0252913
0.0337623
0.0269847
4.13143
0.0255738
0.0360008
0.0275703
10.7272
0.0254176
0.0313466
0.0248612
0.0613486
0.0247812
0.0255577
0.0249935
0.0255124
0.191871
0.0252567
4.76674
18.9402
0.0252116
3.00876
0.116067
0.0725061
10.2727
5.37356
3.20302
0.894449
4.26395
1.44923
0.0617836
0.0257416
0.0285757
0.0314914
1.39826
0.0252982
0.0552173
4.19195
0.025564
5.93562
0.0923641
5.72389
0.0253174
0.0285674
0.0253611
0.0248036
0.0751052
4.91158
0.112139
0.623392
0.0753755
0.0253846
2.97394
0.0688297
0.168305
0.0286275
0.0249094
3.63915
5.15238
0.0256121
0.025864
0.025389
0.025243
0.0254387
0.0264642
3.98169
0.0270674
0.0251916
4.85645
3.5318
0.0251365
0.0275144
0.0250919
4.39773
0.0251888
0.0252105
4.39777
4.7422
0.0253845
0.0326507
9.6459
0.0457065
0.0719383
0.0540076
0.025077
4.09133
0.0254169
0.308677
6.80835
0.0421112
0.188363
0.098315
0.044853
0.0256869
0.0265709
0.0253367
0.166066
0.025322
0.0251795
0.0254186
0.0326644
0.313059
5.40023
0.0269975
0.0249374
0.0248412
0.0255962
5.24747
5.10942
6.7594
0.0670449
0.0271553
0.0251387
0.0255551
0.0293268
5.6978
0.0292977
0.0908928
3.7656
1.47531
0.16208
0.0305125
0.0263517
0.0250978
0.025317
0.0256548
0.0286074
0.0253069
0.025153
0.0255765
4.84655
0.0916403
0.0251967
0.0545821
0.024847
4.41581
3.66004
0.0453747
4.06565
4.37496
0.0276953
9.96173
0.378444
0.025263
4.01786
4.69832
0.233137
0.0428537
0.0254255
0.0252439
0.024898
0.935312
0.0657537
0.0618206
0.141618
0.0390537
0.0252189
5.14679
5.10385
0.0545389
0.244047
0.0253384
0.180997
0.0334966
4.03349
0.214992
4.64499
0.0286484
0.0269124
0.0899763
0.0951372
0.0248517
5.05333
5.1153
0.0794335
4.56083
3.21444
0.833962
3.6503
0.374763
0.0264033
0.140894
0.307651
0.0350388
5.1071
0.0253365
0.0271052
6.28522
0.0252623
0.0247175
0.0247093
0.0665699
0.0261745
0.0252964
4.41205
0.0256077
5.62913
5.17484
3.76799
1.31481
0.0253502
0.0430079
0.0248979
0.107402
0.177618
0.0253286
1.14738
0.171914
0.0443908
0.0250357
0.179383
0.0401255
0.722003
0.0753358
0.0314826
0.0256234
0.0264659
4.43614
0.0451894
0.0593836
1.2093
0.0262413
0.0253554
0.0251628
5.91692
0.0252149
0.158565
0.0248254
5.1974
0.0257031
2.08236
0.0504812
5.2965
0.324623
4.68447
0.0270097
0.0423061
0.118392
0.0300578
0.0254954
0.0309479
3.54506
0.163487
0.0252434
0.0551286
5.78082
0.0252876
0.0500223
0.0253151
31.3308
4.53194
0.025829
0.0262047
0.0261386
6.47558
0.0252861
5.27966
4.35045
0.214015
4.25308
4.10523
0.0256647
0.0256337
0.0250054
5.24965
0.0261223
8.26926
0.025273
0.0697932
0.0257186
0.101238
0.0253919
0.31482
0.12619
0.109269
0.229482
3.82791
4.39279
0.0253711
0.0922408
4.19231
0.0255418
0.355968
0.0255823
0.0531199
0.0310795
0.0353539
0.0252852
4.37185
0.0256543
4.2879
0.0255807
4.57504
0.0508669
0.0253517
0.0251579
0.0872105
0.0420938
0.0269856
0.271012
0.0265873
0.0933117
0.0942033
0.0527332
0.0252367
0.99777
0.223042
5.32122
0.218635
0.0252481
4.93573
0.337569
0.157421
0.02535
4.50078
0.0347935
0.0250759
5.06676
3.40944
0.0253147
0.0315387
0.0251311
0.0509019
0.0635896
0.0879976
4.13818
4.17118
0.0639157
0.0254395
0.0292902
0.113939
0.0250891
0.0971343
0.02513
0.0256287
0.197893
0.0308256
0.0285594
0.111677
0.0286563
0.0252045
0.037481
0.15243
0.0252368
0.0283642
0.0254218
0.0364966
0.106355
21.7015
5.32185
0.320818
0.0249041
4.01669
0.0458045
0.0276538
0.0444788
0.0286124
0.0924176
0.0829383
3.93243
0.0254473
0.0253177
0.228713
6.20915
4.96848
0.0249031
0.0250816
0.0253716
0.0250673
5.18331
0.194203
0.0259472
0.025607
8.53008
4.66753
1.42621
6.38358
0.0251047
0.0749706
0.0468947
0.041357
0.1359
0.0250918
8.08508
0.146477
5.83026
0.0252073
4.32012
0.551134
0.0256468
0.0533033
3.90273
0.0249272
0.0255976
4.36667
3.6872
5.19295
0.025974
0.0259907
0.0255914
4.10088
4.30471
0.0514753
4.54175
0.0253164
4.31711
4.98691
0.0254631
3.97712
0.0256764
0.136798
0.164367
4.92404
0.025112
0.0276437
0.0733972
5.56444
0.0270495
8.29198
0.0602515
10.7025
0.055261
0.0269213
0.0252301
0.0558477
0.0254346
0.0249211
0.0248784
0.868516
0.0395863
0.0256701
5.75632
0.0352742
7.55795
0.0252385
0.0290188
0.109498
4.25858
0.0251552
0.0308157
0.0254341
6.8099
0.027284
4.54565
0.0262407
0.0318049
4.61985
0.0254307
0.0608243
0.0252933
0.0522145
6.83536
0.0253874
0.0252204
0.0254528
0.0291539
0.0262499
0.0927902
0.0624302
0.181936
11.7378
0.0252281
0.0252007
0.0374331
4.11494
16.4803
0.538668
3.99511
0.0249416
0.0247976
3.93981
0.0284626
0.0298255
0.0464754
0.0281922
0.145154
7.70458
0.0253967
0.0253376
0.618431
0.027047
0.128168
0.0252481
0.222625
1.27648
0.0253573
0.0252224
0.0449434
0.161254
4.66126
0.0287383
0.0762963
0.0254643
5.32095
4.3507
4.83255
2.74336
1.01354
0.0352485
0.0529743
7.06156
0.0253203
0.167291
0.024967
0.0267915
0.464135
0.0260438
0.0679185
0.0252276
0.175168
0.0255664
0.321837
0.0426253
0.0264451
0.093869
0.159208
0.0255613
0.0290461
0.145723
0.0252017
6.69785
0.0462367
0.0252494
0.247564
0.0279851
1.55736
0.0340631
4.57589
0.124785
0.979804
0.0963644
0.0766531
0.162362
4.61772
0.0254481
0.027404
0.0253123
0.0911338
0.0270003
0.0254625
0.0297239
0.0247912
5.05072
4.93796
0.0380199
0.0268556
0.0254877
3.35402
0.0276866
0.0378719
0.14337
0.326081
0.0256095
0.0251217
6.26726
4.14558
0.0305779
5.05466
0.0253172
5.62732
0.0253616
5.91849
0.0255801
0.307464
0.0250036
1.69417
7.57974
0.0297416
0.02725
5.46386
0.0256143
0.0255656
0.198804
0.167147
0.0435532
0.0256935
0.0847349
0.0301699
4.67991
0.0248271
0.0254701
0.0254682
0.0250779
0.0256723
5.47081
4.09497
0.0253566
3.80754
0.0910017
0.0257507
0.024655
0.0253218
0.0253069
0.0639111
0.170784
4.09715
0.0255618
0.0252374
3.66922
4.91281
0.0321322
3.88859
4.04392
0.0415272
0.0253906
0.0253676
5.76039
0.157262
0.117025
0.0517827
3.99835
0.02561
0.10042
0.0251369
0.0654798
8.24603
0.0253302
0.321012
4.33188
0.223687
0.027238
0.0251355
0.212887
0.113793
0.0334327
4.46772
0.0681517
4.56345
8.07563
4.86988
10.5446
4.16061
5.14578
0.0714844
0.12658
12.1926
0.0253263
3.86801
6.32958
5.08763
3.07706
4.07441
0.0251136
4.33945
4.58243
0.0251221
0.0246854
0.0269465
4.85779
0.0254208
0.036877
0.0255927
4.9818
0.594337
0.0286671
0.0677502
0.0414305
0.0251306
0.024865
0.0415029
0.0446785
0.975155
3.61107
3.66554
0.025346
5.54487
3.24614
3.41688
0.0434247
0.026558
0.0374249
4.77827
0.147257
4.64132
0.172909
0.0254248
0.0251244
3.94438
0.0253954
4.65971
0.0250938
0.207561
14.6939
0.726571
0.0254868
16.102
0.0251474
0.0260589
0.025497
0.0253378
0.0943837
0.149995
0.0264735
0.238536
0.808448
3.02832
0.0252339
0.11096
0.16703
5.14436
0.0248911
0.0250314
7.14908
0.168799
0.455281
0.0279262
0.0248735
2.7884
0.0286932
0.0248473
0.0286958
0.32964
0.0251385
0.0256406
0.025366
0.0248217
0.0683595
0.370801
3.58322
0.024754
17.5297
0.0256887
0.0267316
0.0256546
0.0410837
0.0303146
0.0295776
0.0331845
4.96226
0.0369462
0.0759109
0.0987334
13.7936
0.0532594
14.8001
4.56857
0.212664
0.02506
0.258276
0.0249432
0.0255649
0.0922637
0.0257491
0.0253292
0.0343152
0.320652
0.364517
0.0697971
0.0256253
0.0253053
0.031563
0.0348092
0.0253563
6.29577
4.67869
2.58491
0.0260014
5.61868
0.214408
0.0269039
0.0254376
0.0256481
0.0253691
4.26744
0.0253416
0.0369173
7.2889
3.79098
0.0248131
0.152224
0.254206
0.0250799
0.0589556
0.0259356
0.0260767
0.216209
0.361136
0.814971
0.0263796
0.0438927
0.155802
0.0269603
4.59532
0.0250993
0.0256699
0.116091
0.024882
0.0840899
0.143651
0.0273687
4.28785
0.0247168
0.11954
0.140143
0.0310585
0.0261113
0.0255818
0.0253531
0.937922
0.0250981
0.026967
0.154713
0.0414885
0.0252707
0.0283755
12.2565
4.73333
0.069138
0.024668
5.20964
7.17021
0.0246001
0.0274083
0.0320764
0.0250257
0.0255409
3.8522
0.0263954
4.35845
0.0596379
0.0253433
0.0253356
0.0251703
0.0252907
0.161146
0.0634634
0.0550344
0.215085
0.0254349
0.0249529
0.0590082
0.086983
5.76616
0.0256094
0.0288499
0.239354
6.12085
0.0255789
0.22292
0.0611127
5.93971
0.0254692
0.802453
0.027321
0.380361
0.048115
0.170507
0.026869
0.110762
4.48813
0.0281143
5.68655
0.025296
0.0495757
0.0365286
0.206643
28.6622
0.0333341
4.6028
2.29267
0.0253444
3.97795
0.0253231
0.0668615
4.56393
5.71082
0.243122
5.0296
0.030972
0.0253623
0.025183
0.029229
0.31355
0.0430425
4.50618
5.03355
0.0447124
0.735762
8.32152
0.0249553
0.383909
0.119007
0.0253143
0.0256756
0.0269204
0.0275322
0.0253394
0.0421337
0.0254021
0.0497658
0.025332
0.155962
0.0251974
4.37137
5.12818
0.0248943
0.0263089
0.0299282
0.0254408
0.119349
0.089415
0.042331
0.0252332
0.0254723
0.0915136
0.233089
0.0255887
0.0271133
0.0252922
0.212174
0.0256002
0.025544
0.120746
0.0269586
0.0260863
5.41405
1.1222
5.16449
0.0270301
0.0249655
0.0259948
4.7517
0.0370182
0.025459
4.17173
3.73873
0.0251993
0.181709
0.510584
0.0248231
6.74397
0.0256193
0.0249879
0.0286951
4.0958
5.25874
0.0348076
0.0406366
0.0535807
0.0269529
6.17642
0.0249292
0.0254196
8.11102
0.0363543
0.0362832
0.0316836
0.0253469
3.51943
0.0251259
0.0746397
0.0253976
4.89333
0.0314132
4.04255
4.7057
3.6785
0.0254507
0.0255767
0.0544545
0.0246931
0.0411148
6.22661
0.0741728
0.0686357
4.68946
0.0287311
4.08671
4.50913
0.0251331
0.0256055
0.0256856
0.0248162
0.025116
0.0248782
6.45961
0.0248993
0.0275814
0.0255987
0.0316311
3.45718
0.0276006
0.315494
0.201156
0.0691214
4.41554
0.0266623
0.0251918
0.0429168
0.0254257
0.16851
0.24898
0.0368231
0.313502
0.0309315
0.0254495
0.161427
4.31638
0.119454
0.110624
0.356123
0.0256356
4.59348
4.69795
0.0255281
1.44895
4.10174
0.0277402
0.0411734
0.604227
4.17563
0.0251713
0.0286968
0.165561
4.50441
6.86174
1.21722
10.2026
0.150284
4.24964
0.0439334
0.025591
0.0254885
0.0248522
4.32706
8.15979
0.025283
0.0699917
0.0254135
0.0294795
0.31066
0.0251175
3.3455
0.0246575
0.0253178
0.0261873
0.0253312
0.347785
0.0507571
0.0316744
0.108591
0.0252226