/*--------------------------------*- C++ -*----------------------------------*\
| =========                 |                                                 |
| \\      /  F ield         | OpenFOAM: The Open Source CFD Toolbox           |
|  \\    /   O peration     | Version:  v2012                                 |
|   \\  /    A nd           | Website:  www.openfoam.com                      |
|    \\/     M anipulation  |                                                 |
\*---------------------------------------------------------------------------*/
FoamFile
{
    version     2.0;
    format      ascii;
    class       volScalarField;
    location    "200";
    object      p;
}
// * * * * * * * * * * * * * * * * * * * * * * * * * * * * * * * * * * * * * //

dimensions      [0 2 -2 0 0 0 0];


internalField   nonuniform List<scalar> 
27915
(
-0.0307139
-0.239705
-0.428583
-0.198496
-0.115138
-0.044837
-0.254138
-0.153801
-0.106981
-0.08077
0.145953
0.0467949
-0.308297
-0.0591904
-0.128813
-0.0137774
-0.0561644
-0.12107
-0.369115
0.0352114
-0.0575434
0.0148974
-0.054938
-0.0300129
0.00158612
0.00408661
0.0233639
0.166724
-0.195202
-0.391229
-0.223988
-0.0162371
-0.0574316
0.0365514
-0.376408
0.0234646
0.0286549
-0.0881174
0.244312
-0.0593115
0.00515696
-0.0749756
0.0111156
-0.170102
-0.0658208
0.00670901
0.0426919
-0.0683553
-0.0260669
-0.00926847
-0.0692449
-0.167563
-0.0973783
-0.0598093
-0.330976
-0.121254
-0.0728064
-0.011179
0.0142526
-0.251034
-0.015914
-0.060685
-0.154462
-0.353948
0.0226945
-0.0596752
-0.0631952
-0.234365
-0.0841224
0.0844529
-0.0792074
-0.390431
0.00450647
0.00290962
-0.0454375
-0.125186
-0.102864
-0.0249321
-0.430239
0.0472011
-0.0754388
-0.0599212
0.00399988
-0.00958948
-0.128437
-0.00728826
-0.0254902
0.0827099
-0.10177
-0.122711
0.0286044
-0.0610395
-0.0144691
-0.221173
0.0852418
-0.0690125
-0.196068
-0.0551995
0.0199565
-0.170537
0.0103882
0.0067586
-0.408432
-0.078946
0.00506249
-0.0315962
0.0311889
-0.103362
-0.0716014
-0.0801119
0.0186992
0.0416242
-0.101806
-0.0851963
-0.327479
-0.0658126
-0.251494
0.0175762
-0.108781
-0.010205
-0.234031
-0.109704
-0.168434
-0.123254
-0.0355499
-0.0100355
0.0409402
-0.0598803
-0.0787083
-0.0235601
-0.0586584
0.0102991
-0.00758935
-0.428614
-0.0657024
-0.429034
0.00491284
0.00331126
0.118533
-0.00712714
-0.208828
-0.24815
-0.0421204
-0.129496
-0.096127
-0.0112634
0.00758637
-0.0676546
-0.230895
-0.00804236
-0.00614165
-0.0224936
-0.0840416
-0.0572565
-0.156152
-0.0191185
-0.0279321
-0.0296143
0.0923211
-0.0440031
0.241239
-0.177173
-0.103469
-0.0260006
0.00482904
-0.0531028
-0.42436
-0.237298
-0.0274062
-0.234306
-0.195352
-0.0292187
-0.060527
0.00422242
0.0227689
-0.115691
-0.0808196
-0.0306574
0.00764077
-0.337582
-0.0287654
-0.0637752
0.00405241
-0.22183
-0.0881449
-0.110453
-0.138275
0.00540326
-0.428186
-0.0528486
0.0297446
-0.101368
0.00556325
0.00482263
0.00472417
-0.0572699
0.0460134
-0.0859723
-0.430073
-0.254803
-0.201918
-0.122283
-0.0814253
-0.0615225
0.0419206
-0.0604158
-0.0788408
-0.0277196
-0.048175
-0.138744
-0.313339
-0.0303026
-0.167257
0.0387754
-0.0767785
0.0185265
-0.116892
-0.251438
-0.120477
-0.065782
-0.0696344
-0.0801916
-0.203298
0.0190715
-0.0339481
-0.0900208
-0.143795
0.0330346
-0.336498
-0.0256774
-0.0563302
-0.00675708
-0.412203
-0.0177274
-0.029235
-0.0292567
-0.220736
-0.0459219
-0.123813
0.00309978
0.0247892
-0.196092
-0.374168
-0.111154
0.0164701
0.0803427
-0.0662979
0.037998
-0.312603
-0.0832359
0.0141263
-0.0595623
-0.0938232
0.0101357
-0.102326
0.0569725
-0.0594655
-0.0525229
-0.235506
-0.121957
-0.406304
-0.000446774
0.00429858
-0.0170657
-0.101034
-0.0949492
-0.0130871
0.0187404
-0.13652
0.0413115
0.0157903
0.0105306
-0.403737
-0.119784
0.049529
-0.277974
-0.0432352
-0.068625
-0.067904
-0.265517
-0.0809672
-0.0585897
-0.0156334
-0.117463
0.116778
-0.02143
-0.179643
0.0444036
-0.126078
-0.408084
-0.0801354
-0.103195
0.0302637
-0.224009
-0.0554594
-0.00566979
0.030365
-0.354937
-0.203775
0.0344441
-0.117484
-0.00459699
0.141572
0.0109354
-0.0797188
-0.192817
0.0181251
-0.332573
0.0171308
-0.0701597
-0.353699
-0.0568243
-0.171344
0.0437814
-0.246719
-0.00548385
-0.00828126
-0.00656556
-0.144636
-0.211198
-0.197175
-0.00285092
0.059473
-0.0488135
-0.151305
0.0923446
0.00528937
-0.172205
-0.125229
-0.11925
0.0308053
-0.292926
0.117821
-0.118435
-0.263669
-0.108631
-0.158485
-0.116094
-0.218781
0.057167
-0.0288784
-0.0772791
-0.142986
-0.217518
-0.227021
-0.31544
0.015627
-0.0676081
0.193118
-0.0435578
-0.176903
-0.135086
-0.0899542
-0.0863899
-0.0892615
-0.175874
-0.066179
0.034011
-0.0571327
-0.0681253
-0.073702
-0.00444701
0.0273873
-0.236435
-0.169948
0.0168872
-0.330582
0.200119
-0.0358942
-0.101843
-0.0727739
-0.0770979
-0.00485931
0.0703669
-0.128889
0.0546195
-0.031746
-0.0294303
-0.0662557
0.0825345
-0.18572
0.0469501
-0.0658514
-0.172586
0.0157546
-0.0940158
-0.0793352
-0.0814097
-0.280928
-0.194098
-0.113046
-0.0847682
-0.090755
-0.109407
-0.0319448
-0.0877393
-0.370094
-0.212357
0.0446357
-0.123602
-0.174091
-0.0866768
0.0156596
0.0216679
-0.191759
0.0498992
-0.194222
0.0162581
-0.108537
-0.128956
0.00799245
-0.0654612
0.0166537
-0.0803161
-0.0476283
-0.27587
0.00751402
-0.238029
-0.033147
0.00311037
-0.244209
-0.256306
-0.126985
-0.267575
-0.0822842
0.149382
-0.127095
-0.00470172
0.0315579
0.0471079
0.096454
-0.0879025
-0.170788
-0.272936
-0.106282
0.0966399
0.0184527
-0.284274
0.00736557
-0.348993
0.0167171
0.00956385
-0.276421
-0.129592
0.00711683
-0.168477
-0.0795457
-0.0706134
-0.0826897
0.0216996
-0.0428158
-0.05625
0.0138533
-0.395616
0.0244815
-0.00445662
-0.419943
0.000865635
-0.00452091
-0.13664
-0.305779
0.00222353
-0.125532
-0.0598476
-0.400869
-0.0597605
-0.233684
-0.188745
0.0280721
-0.113152
-0.125262
0.0121536
-0.0664954
-0.00912893
0.0230145
-0.164499
-0.261402
-0.295219
0.0464844
-0.10066
-0.0881053
-0.129812
-0.290267
-0.0702962
-0.0273348
-0.0172589
-0.021559
-0.00577647
-0.0987867
0.0532696
0.00179634
-0.0583276
-0.322655
-0.0314169
-0.0705486
-0.0841254
0.0217789
-0.0594086
-0.161971
0.094348
-0.0575538
0.0076767
-0.204591
-0.101373
-0.392738
-0.0691059
-0.109177
-0.013334
-0.0870672
-0.0320829
-0.0099251
-0.02592
-0.118985
0.010361
-0.085122
-0.316782
0.0300514
-0.0586154
-0.184811
-0.101864
-0.0615838
0.00470647
0.027872
-0.215147
-0.0648597
0.0234892
-0.0988363
0.0544896
0.0149118
-0.00155492
0.0552122
0.0137422
0.0103278
0.0209726
0.0535782
-0.0239986
-0.011018
-0.117496
-0.204372
-0.0739001
0.00699622
-0.0511336
0.00474112
-0.108117
-0.00580367
-0.0116857
0.091434
-0.0155762
-0.0751515
0.00525
-0.287076
-0.0605263
-0.0999834
0.0111358
-0.104645
-0.0828908
0.0243113
-0.0297636
-0.312461
-0.0231769
-0.126932
0.0215113
-0.29511
-0.0484945
-0.151852
-0.0821059
0.0244503
-0.0792359
-0.279261
-0.0305557
0.0282683
0.00800778
0.0241573
-0.0885272
0.0317684
0.0273386
-0.262331
-0.166795
-0.347135
0.00709951
-0.122703
-0.0787857
-0.0104104
0.0194786
-0.0989367
-0.0568825
-0.0224539
-0.0864397
-0.0576518
-0.145635
-0.0599232
0.0131345
0.00407326
-0.344065
-0.13265
-0.018303
-0.210013
-0.0547784
-0.391264
-0.0602578
-0.260902
-0.401093
-0.329825
-0.0628062
-0.113348
-0.0826372
-0.0439705
-0.00945219
-0.0291197
-0.19698
0.00507515
-0.0292971
-0.0830517
-0.130228
-0.129331
-0.0576622
0.103317
-0.00961328
0.00458345
0.087624
-0.0613413
-0.386818
-0.0561298
-0.0684039
0.00966591
-0.0748782
0.0334807
0.0196109
-0.112862
-0.059644
0.00809439
-0.115664
0.0965448
-0.0542732
-0.0606096
-0.103099
-0.118088
-0.207413
-0.146386
0.0225809
0.0225461
0.000270671
-0.355777
-0.0859997
-0.17595
-0.165394
-0.0880496
-0.326357
-0.0209808
-0.275701
-0.0120368
0.0543454
-0.0403145
-0.0256128
-0.232278
0.0322336
-0.0265906
-0.047764
0.028752
-0.35325
-0.0428838
0.0109947
-0.0681671
-0.0556181
-0.0312485
-0.00540588
-0.0251244
-0.0820067
0.0332966
-0.0261196
-0.0285946
-0.00778798
-0.0704207
-0.0103365
-0.0207786
-0.115798
0.0988354
-0.040862
-0.384603
0.00491268
-0.104408
-0.0901423
-0.182647
-0.188808
0.00724407
-0.134409
-0.0586646
0.00882314
-0.00195711
-0.0819683
-0.0274793
0.0246946
0.028062
-0.0212992
-0.341459
-0.206085
-0.112986
-0.19551
-0.229857
0.029484
0.0229307
-0.116662
0.047787
0.0266093
-0.105127
0.0329207
-0.10722
0.0999915
0.10191
-0.0379303
-0.0103252
-0.402686
-0.00110319
-0.123583
-0.164659
-0.323919
-0.0835812
-0.104953
-0.0209128
0.0022172
0.0198134
0.0221438
-0.0605127
0.0163002
-0.0588084
-0.0723059
-0.0620248
0.0498587
-0.129206
-0.30518
-0.0422282
0.00448577
-0.00920759
-0.0877418
0.0246677
-0.144822
-0.0739324
0.00403041
0.00831656
-0.0880354
-0.129708
-0.0242099
-0.0588907
-0.0572856
-0.0213351
-0.0461563
-0.0871561
-0.0724655
-0.427492
0.00896351
-0.0631334
-0.0740694
-0.234747
0.0199753
0.0569944
-0.0907334
-0.0801719
0.0271304
-0.330439
-0.330908
-0.062721
-0.385481
0.00131325
-0.350023
-0.0300995
-0.0913989
-0.057731
-0.152478
-0.0757128
0.0350214
-0.0919077
0.0517211
-0.0549196
-0.0487337
0.00703939
0.0335879
-0.111568
-0.411334
-0.171
-0.0898701
-0.0416496
0.0271587
-0.402347
-0.018912
0.0193195
-0.236588
0.00388503
-0.0443687
-0.399857
-0.209813
-0.0437009
-0.0104975
0.00826987
-0.0717038
-0.397388
0.0043922
-0.252308
-0.126089
-0.0749478
-0.106946
0.0568007
-0.126794
-0.0110788
0.0322529
-0.420107
-0.0188773
-0.207676
-0.0347669
-0.208877
-0.0932586
0.0345572
0.0153635
-0.229607
0.0285973
0.0405009
-0.063874
-0.126373
-0.143014
0.0243813
-0.013072
-0.208027
-0.079649
-0.387893
-0.310155
0.0263565
-0.0362071
-0.021076
-0.162012
-0.207565
-0.183096
0.0242722
-0.0970563
-0.0725283
-0.179172
-0.0965232
-0.00919966
-0.272997
-0.0781868
-0.276824
0.0278393
-0.14954
0.0503972
0.0201062
-0.0807279
0.0486089
-0.0618852
-0.0684753
0.00581267
0.151038
-0.0628077
-0.0264164
-0.0130171
-0.00650816
-0.0545314
-0.0786406
-0.349518
-0.00371194
-0.0715191
-0.139885
0.0870589
-0.0850547
-0.132421
-0.131489
-0.347681
0.0109299
-0.12575
0.0254237
-0.0608733
0.0743815
-0.086291
-0.0271366
-0.0870001
-0.0123859
-0.097461
-0.260953
0.0774832
-0.0874627
0.0540281
-0.352665
-0.00278188
0.00370556
0.0124632
-0.0476858
-0.068291
-0.0103597
0.00507357
0.0159807
0.153591
-0.381617
0.00693986
0.00514428
0.00702708
-0.024588
-0.0347672
-0.0569782
0.0109942
0.0272307
-0.103922
-0.0687306
0.0073195
0.0947283
-0.101385
-0.0773229
-0.0185559
-0.00611008
-0.0366995
-0.00344725
-0.11465
-0.148186
-0.430239
0.0490434
-0.0924339
-0.00206404
0.02508
-0.0838594
-0.243931
-0.17481
0.00348859
-0.117697
-0.0425298
-0.0807819
-0.0213762
-0.285401
0.00630697
-0.105346
-0.0925042
0.0144501
-0.0782963
0.06526
-0.034271
-0.0608658
-0.0883096
-0.251429
-0.0687503
0.00354744
0.00624321
-0.17443
-0.00302741
-0.00924546
0.0312719
0.0105215
-0.024596
-0.0174265
0.00558849
-0.0774732
-0.289986
-0.0283681
0.0532014
-0.130812
-0.060177
-0.0797568
-0.11667
-0.288504
0.0150631
0.0311863
-0.0212191
-0.138847
-0.135167
0.0274136
-0.0239363
0.0560898
-0.155797
-0.21117
-0.0563381
0.105402
0.0249768
-0.00651554
0.0244741
0.0662157
-0.0987662
-0.00244002
-0.0598326
-0.00761009
-0.00994881
0.00761355
-0.212445
0.097136
-0.0774917
0.0308511
0.0848364
0.0452412
-0.0685529
-0.131597
-0.0830844
-0.17785
0.0207488
0.0113382
-0.229412
-0.0962062
0.143271
0.124809
-0.0209427
-0.0687678
-0.00805497
-0.0541305
-0.0994281
-0.126629
-0.146952
-0.00979019
-0.00882391
-0.00925418
-0.0239255
0.0196067
-0.296869
-0.0289338
-0.0873228
-0.0786318
-0.000315323
-0.0450008
-0.301375
0.0104309
-0.0293244
0.0799091
-0.307766
0.020048
-0.0262612
-0.2628
-0.0785256
-0.400594
0.00364094
-0.00468663
-0.0746748
-0.0569036
0.0119288
-0.0107067
-0.186763
-0.023158
-0.00230148
-0.0841612
-0.261074
-0.0863866
-0.264444
-0.0173743
-0.0145709
-0.403097
0.0221656
0.0307201
-0.0212514
-0.0626089
-0.0381215
0.0137274
-0.105634
-0.220515
-0.170802
-0.10574
0.0264597
0.0139072
-0.148902
-0.0846672
-0.0354227
-0.029959
-0.00341211
0.018251
-0.0849987
-0.0561046
-0.225899
-0.0550141
-0.238535
-0.0147026
0.090064
-0.00309866
-0.211222
0.0168389
-0.320116
-0.0230588
-0.00522653
-0.080924
0.0278972
-0.112254
-0.0567738
-0.061429
-0.127657
0.00432852
-0.00949621
-0.0105476
-0.0243158
-0.129447
-0.0673387
0.0302206
-0.135646
-0.128575
-0.104406
-0.0108459
-0.420444
0.0108887
-0.105565
-0.0191401
-0.390011
-0.153132
-0.246442
-0.257516
0.00469152
-0.101551
0.0166681
-0.00425233
-0.0392113
-0.0705726
-0.102279
-0.0763737
-0.0359345
-0.0799103
0.00529602
-0.042512
-0.272576
-0.0257681
-0.102493
-0.0843244
-0.320808
0.00436256
-0.0869902
-0.129908
-0.0582671
-0.0233901
-0.0822077
-0.125141
-0.0775194
0.00500979
-0.058243
-0.0860234
0.000468664
-0.357413
-0.0781592
0.0246515
-0.22614
-0.265737
-0.0605635
0.0349546
-0.021807
-0.136754
-0.0570394
-0.00935712
0.00497416
-0.0786378
-0.0384295
-0.33756
0.00531674
-0.113668
-0.0375473
-0.0567451
-0.0156162
-0.0718529
-0.0992346
-0.263852
-0.188719
-0.281335
0.0159135
-0.254722
0.0125592
-0.0703059
-0.0440671
0.00492222
-0.0986326
-0.25321
-0.0759158
0.00393254
-0.0763833
0.0146703
-0.0722171
0.0289803
-0.0307289
-0.355779
-0.0564403
-0.190351
0.0359563
0.0105324
-0.0768294
-0.00029461
0.0672313
-0.0188657
-0.0402245
-0.0494523
-0.00801318
-0.0536009
0.129409
0.0156321
-0.0251323
-0.188291
-0.170343
-0.0731924
0.122319
-0.0221374
-0.0905563
0.0997166
0.0373557
-0.0676462
0.0880063
-0.0574935
-0.0754767
-0.00908491
0.27476
-0.195976
0.0110571
-0.125667
-0.114081
-0.174868
0.0180771
-0.000300875
0.0509716
-0.385547
-0.173384
0.0356029
-0.0231981
-0.0986523
-0.0427962
-0.157835
0.126019
-0.287102
-0.046234
-0.0314317
-0.101613
-0.00252179
-0.135234
-0.20279
-0.0210954
-0.172736
-0.112806
0.174984
-0.151397
-0.159212
-0.192912
-0.356125
-0.102687
-0.323637
0.0226602
-0.0085839
-0.232418
-0.131134
-0.165424
0.0913125
0.0101705
0.0240595
0.0929448
-0.427836
0.0199427
-0.122565
-0.102214
-0.161176
-0.250637
-0.0107557
-0.2552
0.0197207
-0.303215
-0.103317
-0.0829308
-0.0186367
-0.0357528
0.00863055
-0.0721958
-0.0988866
-0.2574
-0.10426
0.0462171
-0.166935
-0.429917
0.0192883
-0.0817538
-0.0768129
-0.0984343
0.00767509
0.0401113
0.0105483
-0.0146735
0.0198002
-0.062078
-0.36867
-0.0915735
0.042509
0.00423996
-0.0746314
0.0220111
-0.355066
0.0175678
0.0243151
0.0277417
-0.115841
-0.312521
-0.092749
-0.110896
0.0054283
0.0432654
-0.201276
0.00935046
0.0274004
-0.15775
0.00957491
0.00636689
0.0821324
-0.327224
-0.0563311
0.0269461
-0.231833
0.264392
-0.161959
-0.0254573
-0.39866
-0.206437
0.0368505
-0.0857512
-0.16095
-0.0195014
0.0104352
-0.100846
0.00160136
0.00477009
0.0236765
-0.0300218
-0.197219
0.00882021
0.129032
0.0184852
-0.30624
0.025563
-0.0850428
-0.319967
-0.0932761
-0.0103643
0.0316462
-0.194255
-0.0668962
-0.0918028
0.0770349
-0.317504
-0.0216108
0.0624066
-0.00144272
0.00132859
-0.250654
-0.0202545
-0.115449
0.00413983
0.0218968
-0.138181
-0.369117
0.036057
-0.126192
-0.191995
-0.0238424
-0.0226709
-0.0487725
-0.401646
0.0183292
0.0300022
-0.193949
-0.0739753
-0.0619053
0.003369
-0.0674686
0.0089497
-0.143679
-0.253045
-0.429518
0.00335373
-0.118018
-0.01243
-0.138268
-0.320191
-0.400692
-0.224805
0.0419809
-0.0314613
-0.0753962
-0.104549
0.0283322
-0.0186313
0.127427
-0.0839181
-0.0307483
-0.0161398
-0.115085
0.0228385
0.028309
-0.190556
-0.242
0.0833427
0.00150775
-0.0937964
-0.228047
-0.103408
0.0245124
-0.427949
-0.13104
-0.0581833
-0.0249804
-0.00600204
-0.01025
0.0254895
0.0178531
-0.194819
-0.140033
0.0154593
0.00923488
-0.265208
-0.0164975
-0.0984744
-0.166981
0.00994657
-0.110266
-0.209068
-0.0609256
0.00867438
-0.237184
0.054486
0.0193335
0.00537072
-0.0614535
-0.0647524
-0.00638038
-0.0625142
-0.00665351
0.0277044
-0.0600987
-0.0961462
-0.0758863
-0.104556
-0.217566
-0.340303
0.035341
-0.0829837
-0.0949925
-0.0735754
0.00100886
-0.222825
-0.0676981
-0.031654
0.0558893
-0.168442
-0.102284
-0.189468
-0.0446404
0.0183635
-0.0324441
-0.0890292
-0.0859582
0.0258117
0.0292802
-0.280772
0.125798
-0.116944
0.0166672
0.0246708
-0.056734
0.00855245
-0.0659822
-0.404579
-0.417717
0.0462364
0.0217381
-0.27005
-0.187433
-0.0792389
-0.359582
-0.0551034
0.0602819
-0.0833995
-0.0574738
0.012113
-0.00256823
-0.238205
-0.0351961
-0.0944643
-0.227325
-0.103341
-0.0731229
-0.0740081
-0.151304
0.0414784
-0.100755
-0.0857777
-0.217338
-0.212161
-0.392301
-0.168065
-0.0620983
-0.0673443
-0.107613
0.0425899
-0.061665
-0.0303488
0.0916006
-0.189609
-0.422163
-0.0825982
-0.00563117
-0.324946
0.184007
-0.101048
-0.0833006
0.0124369
-0.393042
0.0191872
-0.195106
-0.282741
-0.0988369
-0.14128
-0.00968694
-0.196118
-0.12069
-0.0542922
-0.280736
0.0119323
-0.121817
0.0448126
-0.149753
0.000770826
0.011367
-0.114087
-0.166708
0.0187391
-0.00502262
-0.00616747
0.0070475
-0.100269
-0.0950019
-0.0944337
-0.0291727
0.0205083
0.00528266
-0.0096667
-0.074479
-0.061885
0.0731262
-0.263463
-0.193824
-0.0677854
-0.0426059
0.0100831
-0.324432
-0.317608
-0.223572
-0.0305163
-0.117301
-0.219289
-0.240329
0.0108606
0.00132427
0.0198431
0.0177124
-0.0613024
0.0495758
-0.067497
-0.05189
-0.259302
-0.22253
0.0769431
-0.0169609
0.0851941
0.0291522
-0.128739
-0.102889
-0.0211309
-0.0175257
-0.010006
-0.00673508
-0.0943882
-0.155867
-0.0344969
-0.0283372
-0.0225927
-0.0862261
-0.226788
-0.0228473
-0.0469876
-0.0997814
0.0253855
-0.0787334
-0.00284942
-0.040701
0.0213191
0.0161043
-0.0792203
-0.0800536
-0.0424049
0.0139715
0.00137496
-0.13153
0.0351209
0.0314757
-0.0303122
0.011972
0.0383694
-0.0498309
-0.0675913
0.0113205
-0.0659345
-0.0856247
-0.00697583
0.0207251
-0.234697
-0.125722
-0.30297
0.00631912
-0.381745
-0.422847
0.022755
-0.0285075
-0.136155
0.0186159
-0.0706038
-0.166873
-0.14391
-0.268188
0.0107016
-0.152466
-0.141081
-0.210777
-0.136005
-0.00896511
-0.0107844
-0.103723
0.0368512
-0.384311
-0.0572692
-0.0313027
0.0916603
-0.0385206
-0.0179571
-0.334489
-0.0698079
-0.083714
0.0543995
-0.276632
-0.00840904
0.0268531
0.00944352
0.016053
-0.235197
-0.128489
0.0579798
0.0652124
0.0223566
0.0589859
-0.302686
0.050245
-0.0651095
0.0929235
0.0863053
0.00557026
-0.165745
0.021448
-0.0553309
-0.408186
-0.0891739
0.00477345
-0.0104204
0.0462871
0.00862922
-0.070095
-0.394816
0.0084222
-0.0212297
-0.0577553
-0.00268985
-0.100476
0.0466505
0.0305355
0.00989975
-0.0913045
-0.077867
0.100275
-0.405058
-0.0885724
-0.0824698
-0.0695121
-0.186189
-0.134575
-0.19467
-0.0697751
0.0159367
0.00173472
0.0898183
-0.0989282
-0.0961993
-0.0666782
-0.00862487
-0.139429
-0.0133485
-0.0222853
-0.00496209
-0.122339
-0.165002
0.0141118
-0.0563489
-0.0282978
0.0290227
-0.0671286
0.0113175
-0.258416
-0.0170283
-0.21691
-0.0188603
0.121066
0.00518712
-0.02793
0.00577423
0.00561761
-0.111139
-0.0985829
0.0358005
0.0105043
-0.356042
0.0185983
-0.091828
-0.407148
-0.365613
-0.0471638
0.055806
-0.274241
-0.134256
-0.0548545
-0.0669035
0.0244511
-0.399426
0.00577627
-0.310165
-0.0434285
-0.295543
0.0192513
-0.154275
0.00242001
0.0432889
-0.0714855
-0.0706442
-0.235252
-0.0444225
0.00597638
-0.100121
-0.0625268
0.00280625
-0.103437
-0.0370763
0.0418204
0.0318477
-0.241604
-0.0264399
-0.137053
0.0246237
-0.186071
-0.418158
0.000576732
-0.0537915
-0.0311573
-0.133588
-0.193181
0.0179007
0.0210328
-0.381283
-0.0314537
-0.130642
-0.255442
-0.148985
0.00871471
-0.0103545
-0.166691
0.0424929
-0.037118
0.0161516
-0.0570695
-0.00916642
0.0692806
-0.0548114
-0.393546
-0.04608
-0.0139215
0.000348151
-0.0620566
-0.030907
-0.264406
-0.0824898
-0.10876
-0.0201067
-0.114102
-0.246
0.017822
0.00568894
-0.0983575
-0.0713724
0.0229136
-0.268799
-0.189215
-0.0580109
-0.0975664
-0.137047
0.0355993
-0.0875714
-0.0610046
-0.0623923
0.0283359
0.0227901
0.0780683
-0.144795
-0.238414
-0.0460452
-0.0785628
-0.1986
-0.0236105
-0.221729
-0.107055
-0.0924597
-0.065935
0.0717877
-0.066175
-0.0757478
-0.0390966
0.0254978
-0.00670926
0.0708963
-0.14857
-0.091228
0.0366972
-0.0703279
0.00415474
-0.0989963
-0.0406071
0.0231699
-0.134476
-0.134462
-0.0220528
-0.00440924
-0.399206
-0.362201
-0.203968
-0.018583
-0.0817946
-0.0551039
-0.0132641
-0.208006
0.0176794
-0.065731
0.0519349
0.00624127
0.0672229
-0.10058
0.16123
-0.0744783
0.00920431
0.0216884
-0.0137141
-0.170481
0.0229774
-0.0181718
-0.153267
0.0260282
-0.199176
-0.0704141
-0.112314
-0.0469419
-0.324355
-0.246603
-0.088872
-0.054483
-0.164097
-0.128975
-0.420021
-0.0774286
-0.0618926
-0.0772511
0.0137539
-0.0560348
-0.139808
0.000201528
-0.0671827
0.0247835
-0.208812
-0.000128355
-0.147183
0.147594
-0.071403
-0.0379971
-0.0537145
-0.0832366
-0.0642465
-0.214353
-0.389389
-0.195471
0.0230709
-0.17048
-0.294706
0.00507827
-0.0902053
0.018425
-0.138599
0.062108
-0.0511269
-0.0172012
-0.0891322
-0.221278
-0.0682465
0.0107677
-0.140569
-0.382517
0.0546227
0.00975653
-0.391797
0.0285975
-0.182769
0.0756769
-0.0652325
-0.227853
-0.192196
-0.303422
-0.0803388
-0.196349
-0.028656
-0.0426504
-0.16133
-0.00336865
-0.0634856
-0.253529
-0.106987
-0.0661389
-0.0570198
-0.0138601
-0.0872674
-0.425159
0.0112016
-0.0711562
-0.0857836
-0.278278
0.01379
-0.0911378
-0.107834
-0.105829
-0.267428
-0.0148546
0.0255762
-0.0102957
0.0457236
-0.301026
-0.341385
-0.102903
-0.425386
-0.207661
0.0271217
-0.0100127
-0.234409
-0.353798
-0.073001
0.0801793
-0.0767235
-0.30572
-0.0577749
-0.0800117
0.00943762
-0.383771
0.00591072
-0.139095
-0.192181
-0.268209
-0.0219859
-0.109601
0.00435853
-0.0852113
-0.125826
-0.002846
-0.193726
-0.0455992
-0.0751298
-0.369626
-0.0894696
-0.0720743
0.164728
-0.0104712
0.00909533
-0.0214028
0.00454917
-0.0818396
-0.099936
0.0124899
0.00942385
-0.421017
-0.0551318
-0.0103321
-0.0662358
0.00525243
-0.0544728
-0.128528
-0.0887172
0.0167221
0.0438896
0.0105134
-0.0454674
-0.191488
0.00957747
-0.0752651
-0.258714
0.0216426
-0.108017
-0.310101
0.0286634
-0.207968
0.006756
-0.428298
0.195543
-0.240337
-0.0839972
-0.192225
-0.00517231
-0.272587
-0.090381
-0.00623564
-0.034588
-0.0408486
0.000532374
0.0211743
-0.056291
-0.0977567
-0.0500221
-0.229394
-0.193599
-0.0179565
-0.144767
0.0601796
-0.124043
-0.13785
-0.0718815
-0.105841
-0.19857
-0.269143
-0.231304
-0.169482
0.026708
-0.0655853
-0.0790277
-0.0574325
-0.0874291
-0.141416
0.0157053
0.0146705
-0.0203877
-0.0135036
0.0237982
-0.137239
-0.0148913
0.0550517
0.0478603
0.167916
0.013701
-0.00383887
0.0181402
-0.0707756
-0.0314241
-0.0282123
0.0323654
0.0118599
-0.0751345
0.0627176
-0.0186576
-0.093047
-0.0226988
0.00456202
-0.0751688
-0.0351654
-0.0316141
-0.00185901
-0.10882
-0.079164
0.0228322
0.00350833
-0.0254371
0.0141409
-0.263625
0.120462
0.0259365
-0.386232
-0.0154101
-0.0661384
-0.200711
0.0150736
0.201305
-0.0657314
-0.319578
-0.15859
-0.00905621
-0.10635
-0.0299201
0.0286908
-0.169889
-0.340923
-0.0275881
0.0519318
0.0052566
0.109121
-0.013595
0.0146824
-0.14053
-0.0558901
0.0770089
0.00730414
-0.270439
0.0482108
-0.0737692
0.0198839
-0.226651
-0.0730269
-0.170831
0.0189953
-0.319366
-0.0995155
-0.0399325
-0.0770744
-0.175318
0.00882809
-0.426119
0.0108943
0.0240236
0.0273149
-0.0643658
-0.0318223
-0.0671438
0.00684195
0.0783009
-0.006964
-0.368522
0.0280743
0.035494
-0.0215291
-0.137936
-0.0187888
0.0212782
-0.00496536
0.0107993
-0.0785611
0.0042206
-0.208754
-0.430144
0.00401942
-0.341731
-0.134831
-0.0918978
-0.425997
-0.303227
-0.0766658
-0.225888
-0.188422
-0.19447
-0.0632059
0.0220336
0.0404528
0.0486187
-0.0687539
0.0265631
-0.0676111
-0.120589
-0.0228465
-0.38673
-0.0871369
-0.262947
0.0290318
-0.0615257
0.0303095
-0.0189508
-0.107757
-0.0982972
-0.0798354
-0.243033
-0.106531
0.00471014
-0.296815
-0.0682499
-0.109836
0.0420266
-0.0108722
-0.0610123
-0.12547
-0.0285015
0.0646516
0.0246612
0.00959315
0.0238737
-0.0394969
-0.0644066
-0.0330267
0.00145828
-0.313535
-0.057911
-0.00584289
-0.0551162
-0.00253322
-0.384198
0.00101842
0.0090153
-0.161382
-0.33758
0.0224088
-0.0579238
-0.396946
-0.0621612
-0.153088
-0.0752504
-0.00382769
-0.184238
0.0285246
-0.26952
-0.27148
0.0127889
-0.223059
-0.00933861
-0.0739999
0.0215149
-0.0476541
0.0401703
-0.139985
0.0275784
-0.00196778
0.0492809
-0.0568395
-0.133221
-0.0836492
0.0420256
-0.00727143
-0.0103382
0.0212845
-0.139918
-0.0609622
-0.275646
-0.0734018
0.00588074
0.00237336
-0.0216619
-0.0669723
-0.210995
-0.0564188
-0.171974
-0.0592899
-0.199978
-0.226033
-0.0332821
0.0571906
-0.0157319
0.0277131
0.0145601
0.0735494
0.00876666
0.003847
-0.0147271
-0.265957
-0.156193
0.010088
-0.12338
-0.0169253
-0.108575
-0.0794457
-0.062446
-0.0767077
-0.305277
-0.0544912
-0.384274
-0.253834
0.0182454
-0.0536245
-0.126274
-0.0693611
-0.108721
0.00873668
0.0169345
-0.0219504
-0.138723
-0.111807
-0.138695
-0.204388
-0.100507
0.00875952
-0.298928
-0.253816
-0.102325
-0.189137
0.0150695
-0.164003
-0.0847398
-0.155649
-0.0982258
-0.373018
0.0442875
-0.0291056
-0.172658
-0.182351
-0.0173384
-0.155088
-0.28871
-0.164847
-0.0973704
-0.187589
-0.267745
-0.0762722
-0.253586
-0.0433983
-0.0685675
-0.113062
0.117991
-0.125713
-0.00930456
0.0858516
-0.245518
0.0186277
-0.0154427
-0.0152553
-0.0678826
0.0262324
0.00627333
-0.15847
0.0212105
-0.355667
-0.283913
-0.348298
-0.338097
0.0143516
-0.0985858
-0.0116905
-0.0678027
-0.207664
0.00886151
-0.28541
-0.219078
-0.10365
-0.0040623
-0.232316
-0.102183
-0.312836
-0.121413
0.037464
-0.0274077
-0.0328111
-0.296566
-0.0698756
-0.0608386
-0.190834
0.0536221
0.0181763
0.00483732
-0.264844
0.0028253
-0.100076
-0.0187045
-0.404076
-0.0294164
-0.352215
-0.121872
-0.148724
-0.07193
-0.404898
-0.0454411
-0.0849414
-0.192932
0.0138229
0.0468012
-0.0712154
-0.0547917
-0.227043
0.0173571
-0.130384
-0.427797
0.0221537
-0.113832
0.0164302
-0.417067
-0.0710078
0.0634534
0.0275221
-0.0417579
-0.195218
0.0252002
-0.14651
-0.234048
-0.230199
-0.169442
-0.0777845
0.0232939
0.0226042
-0.0202548
-0.290266
-0.0436506
-0.326975
0.00473652
-0.113167
-0.026027
-0.0979996
-0.00860449
-0.131981
-0.124214
-0.193385
-0.0701067
-0.0678146
-0.0675376
0.0443094
-0.179384
-0.0669677
0.00672264
-0.220083
-0.0361422
-0.120126
0.0145368
-0.066444
0.00893322
-0.163804
0.00925595
-0.0938491
0.00773438
-0.0708584
-0.114292
0.0416607
0.000594884
0.254858
0.00895231
0.0399073
-0.263623
-0.0417124
-0.156642
-0.105328
-0.110635
0.0163659
-0.0952238
-0.0466062
-0.139627
-0.066627
0.00228657
-0.154868
-0.164173
-0.0926179
0.0398763
-0.409354
-0.0370468
-0.0103636
-0.116179
-0.0551749
0.031419
0.0603034
0.00154041
-0.073944
-0.0828645
-0.148092
-0.180187
-0.154904
-0.122176
0.01323
-0.0547004
-0.119243
-0.0165191
-0.184806
-0.00923991
0.00835432
-0.0792384
-0.0717708
-0.0585658
-0.195914
0.0699366
0.0114409
-0.0698983
-0.077137
0.0160119
-0.0601801
0.0500161
-0.070046
-0.0682633
-0.42039
-0.0632161
-0.136767
-0.0110797
-0.0720327
-0.0846355
0.092927
-0.0729383
0.0633876
-0.108192
0.157922
-0.100697
-0.0339516
0.0322843
-0.0682022
-0.247364
-0.356222
-0.0113939
-0.00185547
0.0442383
-0.00471369
-0.166894
-0.231485
0.0581543
0.0179763
-0.309894
-0.0805199
-0.316319
-0.229898
-0.00118702
-0.0523121
-0.115005
-0.0981875
-0.131275
-0.0100929
-0.288856
-0.218626
-0.40495
0.00251121
-0.163503
-0.199044
0.00911373
-0.0852575
-0.0622318
-0.0132488
0.00696378
-0.0677382
-0.0605166
-0.128123
0.0666509
-0.00918589
0.00780547
-0.087407
-0.259541
-0.123813
-0.0701451
0.0286553
-0.0940725
-0.348862
0.00592687
-0.0872895
0.00725536
-0.197573
-0.183953
-0.283579
-0.000577148
-0.0562899
-0.0843535
-0.184189
0.0201549
-0.4202
-0.0328606
-0.393772
-0.130479
-0.0453566
0.0141559
-0.068274
0.0129356
-0.0131736
-0.0217059
-0.0622496
0.163007
0.00726675
-0.152359
0.118636
-0.427235
0.0109372
-0.0261038
-0.12749
-0.137337
-0.0281165
0.103161
0.0134365
-0.253463
0.0445021
-0.40845
-0.0416725
0.121289
-0.128784
0.00647521
-0.0820169
0.0139093
-0.0889799
-0.375441
0.0429483
0.0101091
0.0238502
-0.0273034
0.0512856
-0.180491
-0.139951
-0.23092
-0.426466
0.00896154
0.00438005
-0.0696192
-0.104149
-0.421893
-0.103698
-0.0570708
-0.0233058
-0.00990088
-0.057169
-0.0540253
-0.0558794
0.191986
-0.055304
-0.216749
-0.407247
0.020336
0.0386456
-0.285278
-0.0450773
-0.0682777
0.00524798
-0.0586051
0.0694301
0.0140432
0.00397047
-0.1043
-0.132708
-0.406031
-0.0602455
-0.123258
0.00598017
-0.429566
-0.254474
-0.282822
-0.0610538
-0.231038
-0.0656641
-0.0708668
-0.26644
0.02748
-0.163428
-0.0102506
-0.00468983
-0.12044
-0.0429728
-0.147371
0.0060405
0.0735149
0.0240917
-0.0767862
-0.0767431
-0.0414584
-0.107652
-0.12946
0.0437003
-0.0569212
-0.215947
0.00135396
-0.255476
0.0487566
0.00988625
-0.196589
-0.0478395
-0.320875
-0.0826953
-0.260773
-0.126994
-0.32815
-0.12478
-0.154124
-0.2277
-0.138916
0.00680428
-0.0536926
0.0165139
-0.153716
0.019053
0.00600178
-0.056643
-0.0191176
-0.114231
-0.100642
-0.0625661
0.0256023
0.0190594
-0.0551416
0.0868385
-0.0175583
-0.212784
-0.0721677
-0.0350859
0.000267349
-0.189673
-0.176888
0.118503
-0.0770934
0.0141401
-0.183933
0.00932462
-0.204629
0.0164777
-0.124959
-0.0206249
-0.251127
-0.271221
0.00810594
-0.00854918
-0.159264
0.0209485
0.0107763
-0.0726804
-0.18667
-0.103849
0.0233609
0.16618
0.100098
-0.21014
-0.0131083
-0.0348736
0.00601817
-0.00199596
0.0233403
-0.0536535
-0.139579
0.0117459
-0.0650309
0.00162028
0.0279269
-0.0148183
-0.0256756
0.0218885
-0.14326
-0.111114
-0.181421
0.0205372
0.0153731
-0.062795
-0.0988727
-0.0637959
-0.0550787
-0.138034
0.0749484
0.0252053
0.0178232
-0.410521
-0.216793
-0.0890107
-0.100549
-0.0948578
-0.0351097
-0.0958301
0.00201756
-0.144987
-0.324832
0.0333281
-0.138434
-0.0858543
-0.217129
-0.00643282
-0.000397059
-0.0776719
-0.141021
-0.0539835
-0.339606
-0.00282742
-0.0800215
-0.287664
-0.105005
-0.363827
-0.187124
-0.234494
-0.0382587
-0.067465
-0.385165
0.0234302
-0.0564962
-0.407761
-0.303849
-0.10122
-0.367274
-0.000707443
-0.105864
-0.151878
-0.0169024
-0.0136618
0.0328071
-0.13917
0.00634319
-0.0622551
0.00689757
-0.338326
-0.0605255
0.0661832
-0.0828269
-0.0773328
-0.0159282
-0.0129857
-0.0758529
-0.106695
-0.187969
-0.0582914
-0.0593114
0.0226361
-0.190924
-0.0533946
-0.0547499
-0.0721589
-0.0342022
-0.0917069
-0.396316
-0.219847
-0.131118
-0.171997
0.0123
-0.0280914
-0.119871
0.0218962
-0.407254
-0.00141874
-0.247389
-0.402673
-0.318081
0.01577
-0.424088
-0.0172265
-0.0188926
-0.0222077
0.0362659
-0.166287
-0.201393
-0.0451201
-0.111637
-0.324038
-0.0600483
0.0144439
-0.0808044
-0.187227
-0.31968
-0.0216835
-0.00337251
-0.269536
-0.189934