/*--------------------------------*- C++ -*----------------------------------*\
| =========                 |                                                 |
| \\      /  F ield         | OpenFOAM: The Open Source CFD Toolbox           |
|  \\    /   O peration     | Version:  v2012                                 |
|   \\  /    A nd           | Website:  www.openfoam.com                      |
|    \\/     M anipulation  |                                                 |
\*---------------------------------------------------------------------------*/
FoamFile
{
    version     2.0;
    format      ascii;
    class       surfaceScalarField;
    location    "200";
    object      phi;
}
// * * * * * * * * * * * * * * * * * * * * * * * * * * * * * * * * * * * * * //

dimensions      [0 3 -1 0 0 0 0];
oriented        oriented;


internalField   nonuniform List<scalar> 
41582
(
-0.229919
0.178591
0.0513276
0.00519033
0.0670781
-0.0722685
0.00610927
-0.0038385
-0.00227078
0.00116581
0.00134711
-0.00251291
0.0110729
0.0840225
-0.0950954
0.111288
-0.219982
0.108694
0.0184569
0.00716284
-0.0256197
0.112669
-0.101308
-0.0113615
-0.104873
0.0992003
0.0056729
0.0366546
-0.102885
0.0662302
-0.00757417
-0.0622112
0.0697853
0.0175687
-0.148568
0.130999
0.0911701
-0.0862903
-0.00487973
0.0204982
-0.0168105
-0.00368775
-0.0270488
0.0247532
0.00229566
0.0197791
0.114333
-0.134113
0.0403202
-0.0386089
-0.00171128
0.0994444
0.0112934
-0.110738
0.0099462
0.0336166
-0.0435628
0.039223
0.103967
-0.14319
0.00271889
0.0177793
0.0817019
-0.202621
0.120919
0.0430822
-0.00276205
-0.169588
-0.0603315
0.470188
-0.24291
-0.227278
-0.135214
0.285987
-0.150773
0.270649
-0.123163
-0.147486
0.0423812
-0.0188497
0.00308209
-0.00191628
0.000439789
0.00160289
-0.00204268
0.0700528
-0.0842346
0.0141818
-0.373311
0.107826
0.265485
0.0398323
-0.0358281
-0.00400422
-0.0864011
0.125624
-0.020319
0.0302652
0.168925
0.101723
-0.11834
-0.0716105
0.18995
0.13504
-0.14007
0.00502988
0.0551019
-0.0111408
-0.0439611
-0.14686
0.145714
0.00114625
0.459878
-0.260425
-0.199453
0.139431
-0.141956
0.00252415
0.361994
-0.193214
-0.16878
0.0752647
-0.0911381
0.0158734
0.0491026
-0.0674849
0.0183823
-0.405932
0.0683433
0.337589
-0.110673
-0.0693788
0.180051
0.00282064
-0.125467
0.122646
-0.268102
0.20736
0.0607422
0.111467
-0.227508
0.116041
0.125064
-0.122244
0.085481
-0.0102163
-0.0715141
0.0827214
-0.0112073
0.163356
-0.113266
-0.0500902
-0.0653789
-0.00227951
0.0676584
0.000789746
-0.00126776
-0.022923
0.031413
-0.00848997
-0.522787
0.196892
-0.11519
-0.00153717
0.00124588
0.00029129
-0.116516
-0.256795
-0.0924769
0.00723506
0.0852419
0.0224384
-0.0893329
0.0668945
-0.0530087
0.0786829
-0.0256742
-0.296862
-0.00571937
0.302581
-0.17148
0.151504
0.0199764
-0.00768462
0.0981893
-0.0905047
-0.0611619
-0.0153515
0.0765134
0.024041
-0.0291625
0.00512149
-0.0158547
0.0917858
-0.0759311
-0.144164
0.129054
0.0151106
0.00037687
6.29193e-05
-0.416545
0.243786
0.172759
-0.144582
0.291008
-0.146426
-0.129356
0.112597
0.0167592
0.103464
-0.117779
0.0143145
-0.0848531
0.0130725
0.0717807
-0.116448
0.119009
-0.00256138
0.000163189
0.167428
-0.162902
-0.00452623
0.126868
0.0125632
0.0164963
-0.271135
0.135921
0.240623
-0.129156
-0.000587144
0.314899
-0.107937
-0.206962
-0.198559
-0.0695428
0.088365
-0.10422
0.00315653
-0.0593302
0.0561736
0.0157469
0.0916257
-0.107373
-0.22999
0.138488
0.0915021
0.00147527
0.0458449
-0.0473201
-0.133149
0.152928
0.0830228
-0.0129699
0.120771
-0.124753
0.00398142
0.134083
-0.00901863
0.00823496
-0.0517288
0.0434939
-0.0161717
-0.130519
0.14669
-0.122599
0.24466
-0.122061
0.0233794
-0.00401953
-0.0193599
-0.115532
0.306199
-0.190666
-0.43398
0.0280486
0.0198845
-0.00531241
-0.0145721
-0.0172961
-0.454237
0.245156
0.209081
0.102681
0.112742
-0.215424
0.176351
0.112877
-0.289228
-0.0805011
0.0941833
-0.0136822
-0.0668414
-0.0190898
0.0859312
-0.0562159
0.0928705
0.38416
-0.179322
-0.204838
0.182276
-0.0602836
-0.121993
0.053896
-0.0507395
-0.00791716
0.0121185
-0.00420135
-0.0104953
0.0614651
-0.0509698
-0.0166177
-0.00687636
0.0253332
-0.101487
0.214892
-0.113405
-0.115003
0.110038
0.00496527
-0.471331
0.233321
0.23801
0.0526031
-0.0716856
0.0190825
0.111528
-0.124075
0.0125479
0.0783396
0.000383499
-0.0787231
0.120942
-0.0214976
-0.165211
0.175007
-0.00979579
-0.192841
-0.27849
0.0640453
0.118231
0.0296098
-0.0344101
0.00480026
-0.0704999
-0.0088419
0.0793418
-0.123072
0.143943
-0.0208714
-0.161543
0.0482775
-0.354101
0.20907
0.145031
0.0323212
0.282578
0.00373514
0.00237414
-0.00694131
0.00605187
0.00238277
0.270248
0.18963
-0.282735
0.138152
-0.109068
0.0532603
0.0558077
-0.347965
0.240029
-0.00492672
0.00327823
0.00164849
-0.000328192
-0.00120898
-0.0860582
-0.0885066
0.174565
-0.024068
-0.00298086
-0.0883506
0.00784948
-0.237158
-0.285629
-0.129718
0.182839
-0.0531212
-0.0270562
0.0351646
-0.00810838
-0.025436
0.078039
0.498807
-0.293362
-0.205445
-0.452377
0.456644
-0.0042671
-0.119195
0.00274656
0.068656
-0.0681559
-0.00050004
0.00122339
-0.0588262
0.0812645
-0.0804924
-0.0387022
-0.0563366
0.209563
-0.153226
-0.2549
0.216787
0.0381128
0.115548
-0.121203
0.00565451
-0.0448422
0.166791
-0.121948
0.025758
0.029344
-0.0964295
0.0921739
0.00425558
-0.0873576
0.00250449
0.0902641
0.117096
0.208759
-0.198202
-0.010557
-0.182767
0.182281
0.000486502
0.00174845
-0.01024
0.082563
-0.072323
-0.232849
0.176512
-0.0748512
0.0800415
-0.0377708
0.0157682
0.0220026
-0.193072
-0.0618279
0.0157237
0.0273585
0.381238
-0.406204
0.0249662
0.119805
-0.0470096
0.0721699
-0.0251603
-0.094009
-0.00367314
0.0976822
0.0885537
0.0900377
-0.179685
0.0499673
0.0680098
0.00827625
-0.076286
-0.112559
0.233161
-0.120602
0.0869059
-0.0945905
0.427604
-0.0463661
0.0490423
-0.0648892
0.0158469
-0.0119952
0.00407803
-0.00347552
0.0807384
0.0148364
-0.0955748
-0.520861
0.355549
0.165312
-0.00584533
0.00294094
0.0029044
-0.106828
0.127092
-0.020264
-0.168187
0.16743
0.000757036
0.0715012
-0.0570528
-0.0144484
-0.19804
-0.322821
-0.42186
0.427372
-0.00551193
-0.162282
-0.254262
0.000964664
0.00836715
-0.00933182
0.135543
-0.117975
0.133268
-0.0146518
-0.118616
0.00361569
-0.0128389
0.0200017
3.63977e-05
-0.0751735
0.0751371
-0.0773453
0.0315228
0.0458225
-0.12172
-0.00261255
0.124332
-0.0499119
0.0513872
-0.198916
0.0882437
-0.0194974
-0.151983
-0.0275633
0.0225412
0.00502208
0.0789979
0.0543848
-0.133383
-0.053092
-0.127419
-0.0848591
0.0691385
0.0157206
-4.10641e-05
0.000848342
-0.000807278
0.214469
-0.125915
0.00438769
0.0189917
0.192298
-0.128253
-0.000454787
0.106828
-0.106373
-0.0887252
0.23984
-0.151115
-0.0674014
0.0203918
-0.0306475
0.0237712
0.123563
-0.0363414
-0.0872221
0.145738
-0.137445
-0.00829232
0.0325064
-0.0260654
-0.00644103
-0.0728692
0.0719108
0.000958483
0.094621
-0.0279531
-0.066668
0.261382
0.10798
-0.369361
-0.12991
0.125348
0.00456186
0.0130931
0.121947
0.100219
-0.0863963
-0.0138226
0.16703
-0.00764401
-0.159386
-0.0720898
0.00671088
0.209979
-0.119715
-0.0298244
-0.00334956
-0.137148
-0.210817
0.019734
0.000150554
-0.120458
0.0399653
0.104228
0.226598
-0.104971
-0.121627
0.0642045
-0.0151623
-0.0627605
0.174049
-0.075842
0.0277426
0.0480994
0.176656
-0.413991
0.237335
-0.325965
0.245121
0.0808446
-0.0174093
-0.0203615
-0.045521
0.0538961
-0.00837504
-0.00896681
-0.115109
-0.23128
-0.0278735
0.259154
0.00446057
0.0966988
-0.101159
0.0652901
-0.0572113
-0.00807887
0.105897
0.022663
0.0685071
0.0678179
0.00083808
-0.144854
0.31466
-0.169806
0.100657
-0.119229
0.0185726
-0.0646272
0.0811027
-0.0164755
0.162774
-0.278306
-0.134452
0.126701
0.00775113
-0.166669
0.0880308
0.0786385
0.119695
-0.0190387
-0.155619
-0.0271486
0.0661204
0.00563888
-0.0717593
-0.00476443
-0.00508732
0.00985175
0.00353698
-0.00479156
0.00125458
0.187667
-0.133984
-0.053682
0.468476
-0.22469
-0.162181
0.281545
-0.119364
0.122011
-0.139825
0.0178136
-0.079483
0.0148557
0.0723179
-0.3395
0.267182
0.189641
0.194519
0.0856307
-0.00489224
-0.0986668
-0.100249
0.268638
-0.166941
-0.101697
-0.211434
-0.142667
0.0179444
0.0248016
-0.042746
-0.0973624
0.113109
0.14279
-0.02703
-0.11576
0.00488052
-0.00264367
-0.00223685
-0.18118
0.136338
0.00545019
0.0152818
-0.0162955
0.00101372
0.00189826
-0.00265713
0.000758864
-0.0632998
-0.00956949
-0.00431777
0.0339276
-0.0236042
0.137938
-0.000737655
0.00182748
-0.00108982
-0.0284973
-0.0805707
0.136149
-0.150301
0.0141522
-0.00298789
-0.0589099
0.0618978
0.180979
-0.0578343
-0.123145
-0.035853
-0.0399891
0.00547127
-0.0019343
0.0494422
-0.068481
0.0190388
-0.0124411
-0.0417693
-0.117533
0.159302
-0.0756289
-0.00860571
0.138063
-0.152255
0.0141918
-0.332929
0.333401
-0.000472463
-0.177318
0.00913143
-0.000139413
0.00311712
-0.0029777
0.0854716
0.0091494
-0.266472
0.177772
0.0886999
0.0576421
-0.072899
0.0152569
-0.17534
0.226764
-0.0514243
0.0696662
-0.0772403
0.176815
0.185179
0.0707136
-0.0212714
0.00165364
0.00142845
0.183485
-0.27221
-0.00408001
-0.239361
0.137874
-0.0555685
0.0733698
-0.0178013
0.0169905
-0.0699992
0.00907311
-0.00810844
-0.00190391
0.00585311
-0.0039492
0.120696
-0.00106324
0.000735053
-0.408365
0.0754364
0.338962
0.159846
0.205588
-0.342736
-0.107979
0.102759
0.00521982
0.0860614
-0.0490121
-0.0370493
0.046341
-0.038106
0.392374
-0.00836837
-0.384006
0.0547637
-0.159778
0.0349263
-0.178887
0.14396
0.0195215
0.0548019
-0.0743234
0.114099
-0.10412
-0.0099788
0.393099
-0.17943
-0.213668
0.098347
-0.104539
0.0061919
0.102988
-0.113936
0.0109474
0.0404688
0.0830946
-0.162255
0.120486
-0.000428739
0.0019192
-0.00149046
0.0768585
-0.0235982
0.00193512
-0.00267278
0.000655045
0.00124322
0.00516467
-0.0769036
0.0180775
0.0719911
-0.0143489
-0.0817613
0.0061324
-0.0986516
-0.0680177
0.128161
-0.049163
-0.0930177
0.0925629
0.0952526
-0.0999911
0.0047385
0.0494993
0.036562
-0.069748
0.0159658
0.0537821
-0.00134684
0.00497206
-0.00362522
0.0660168
0.0601074
0.0111912
-0.0712986
0.00166445
0.0472938
-0.0489582
-0.115204
-0.0590397
0.0788739
-0.0818618
-0.00274824
0.00739859
-0.00465035
0.0683102
-0.0797085
0.0113983
0.104207
0.029061
-0.0042615
0.012531
-0.00826953
-0.0116269
0.0899664
0.110197
-0.136123
0.0259253
-0.125423
-0.141049
-0.000973301
0.00934045
-0.0207103
0.0868978
-0.0661875
-0.0304802
0.00755722
0.149058
0.100097
-0.249155
0.231325
0.0845305
-0.315856
-0.00556521
0.0942375
0.00410954
-0.21427
-0.146868
0.361138
0.040542
-0.0568058
0.0162638
0.0403921
-0.0387277
-0.0847514
0.117808
-0.0330564
-0.133182
-0.0066432
-0.106074
-0.0358818
-0.0548763
-0.00788844
0.0627648
-0.0120603
-0.10906
0.12112
-0.00255769
-0.0728265
0.0753842
0.048535
0.035801
-0.084336
-0.17487
0.136187
0.0386828
0.227338
-0.163157
-0.0641814
0.231689
-0.151847
-0.0798428
0.0272035
-0.0324657
0.00526225
0.0928256
0.00537872
0.0195158
-0.0248945
0.0355271
0.131901
0.0602188
0.00507135
0.104475
-0.0102374
0.182614
0.0912071
-0.273821
-0.0730547
0.0768976
-0.00384288
0.0162258
-0.0867257
-0.135414
0.132338
0.00307612
0.0616703
-0.0709191
0.00924878
0.0848291
-0.083906
-0.000923148
-0.00227878
0.00178248
0.164283
-0.0949643
-0.0693188
-0.0793865
0.00633187
-0.110646
0.126644
-0.0159982
-0.0947073
0.197389
-0.10305
0.009455
0.0935952
-0.0110601
0.0516021
-0.0528567
-0.010896
0.0637527
-0.158745
0.0293585
0.129387
0.0712325
-0.0649696
-0.00626291
-0.00843857
0.00653466
0.121433
-0.132307
0.0108744
0.193128
-0.350304
0.157176
-0.332603
0.0196719
0.312931
0.00356053
-0.00190688
0.0947823
0.0719025
-0.166685
0.0791944
-0.079158
0.119298
-0.350578
0.113101
-0.106326
-0.00677468
0.109334
0.00614495
-0.115479
-0.101083
0.321104
-0.220021
0.137452
-0.0959679
-0.0414841
-0.37985
0.165581
-0.00141197
0.101671
-0.100259
0.155085
-0.120159
-0.0644267
0.00168936
0.0627374
0.165277
0.189491
-0.354768
-0.0720686
0.0109068
-0.119813
0.0350615
0.390394
-0.213737
0.000307607
-0.00137085
0.0170786
0.0677071
-0.0847858
0.0918448
-0.0433098
-0.00264643
-1.06929e-05
-0.00927228
-0.0756699
0.0849421
0.00922322
-0.0431078
0.0338846
0.115257
-0.00592277
-0.0781248
0.227183
-0.0478072
0.224159
0.174268
-0.0443102
-0.129957
0.134558
-0.0455407
-0.0890175
0.147127
-0.0256945
0.0893984
0.0150765
0.00480191
-0.0692287
0.00673549
0.00261459
-0.00935008
0.0673445
0.0672138
0.196714
-0.372915
0.176201
-0.029634
0.0567823
-0.0271482
-0.163149
-0.162848
0.325997
0.0461827
0.0325002
-0.400953
0.274331
0.126622
0.233879
0.166634
-0.400513
0.0749542
-0.0132839
0.0821104
-0.0921297
0.0100193
-0.177886
0.343163
-0.0236
-0.0558583
0.0794582
-0.112673
0.111261
-0.0315606
0.00549522
-0.143387
0.121729
0.0216583
-0.117894
0.233553
-0.115659
-0.159707
0.0736486
0.137532
-0.153703
-0.307562
0.162708
-0.0161094
0.0187639
-0.00265446
0.342199
-0.18144
-0.160759
0.194853
-0.0937098
-0.101143
0.00267532
-0.182067
0.301931
-0.119865
-0.116376
0.104316
-0.00626126
0.00351302
-0.00179313
0.00175206
0.164736
-0.39164
0.226904
-0.0692879
0.0118047
0.0574832
-0.126927
0.133824
-0.00689658
-0.0437223
0.0616667
-0.133569
0.00664195
0.0700544
-0.0240251
-0.0460292
-0.00200223
-0.00210439
0.00410662
0.00844853
-0.151652
0.143203
-0.0823412
0.0934141
-0.0769302
0.0762853
0.00064496
0.106986
0.129928
-0.236914
0.00155113
0.0137306
-0.482728
0.351224
0.131504
0.257406
0.159261
-0.0657502
0.0806926
-0.0149424
0.0768543
-0.0597757
0.00110938
-0.00153812
0.116433
0.00866918
0.100735
-0.109404
0.00101357
-0.104064
0.0961197
0.00734454
0.00075607
0.00116313
-0.0164142
0.0199676
-0.00355339
-0.222801
0.103381
0.11942
-0.275005
0.112823
0.175431
-0.058117
-0.117314
0.0943704
0.100482
-0.106959
0.115629
0.0255866
0.092882
-0.118469
0.17802
-0.294701
0.116681
-0.127877
0.147133
-0.0192561
0.0473511
-0.0578464
-0.0394082
0.162189
-0.122781
-0.127627
0.0215533
0.0768404
0.0874428
0.0840636
-0.168137
0.141986
0.0261508
-0.0667669
0.0811748
-0.0144079
-0.0209852
0.0883297
0.138254
-0.16328
0.0250262
0.0929108
-0.18825
0.095339
-0.0767125
0.00713618
0.0695763
0.0214365
-0.026525
0.00508852
-0.0306411
0.0365499
-0.00590881
0.0595906
-0.0545848
-0.00500578
0.0616858
-0.0756573
0.0139715
0.283317
-0.210999
0.0500065
-0.0776926
0.0276861
0.167127
0.0602114
-0.455225
0.262384
-0.11827
0.235879
-0.117609
-0.0114257
0.0731115
0.210607
-0.37948
0.168873
0.00335104
0.02069
0.00311524
-0.00446208
0.0803445
-0.0861259
0.00578137
-0.0232897
0.0189181
-0.0135394
-0.121503
0.111639
0.00986385
0.00536056
-0.0722019
0.17664
-0.34369
0.16705
0.209763
0.0906475
-0.300411
0.0113478
0.114374
0.0230776
-0.128635
0.15822
-0.0295857
-0.0676418
-0.00387236
-0.148725
0.143008
0.00571697
-0.177765
-0.0202245
0.197989
0.0266111
0.161055
0.113617
0.104745
0.0921477
-0.403202
0.191768
0.21807
0.108148
-0.326218
-0.0227908
-0.152079
-0.0178215
0.142798
-0.124977
0.266812
0.151241
-0.418054
-0.00118543
0.00312055
-0.0711171
-0.00559536
-0.0770175
0.0579277
-0.402434
0.41917
-0.0167358
0.165133
-0.144711
-0.0204227
-0.170226
0.346866
-0.0851777
0.0794054
0.00577232
-0.343322
-0.109056
0.105559
-0.31616
0.210601
0.0691036
-0.0900888
0.106654
0.133212
-0.239867
0.0379636
-0.0588094
0.0208457
-0.28371
-0.170527
-0.0512236
0.0215896
0.0174964
-0.00479376
-0.0127026
0.00688229
0.0646189
0.219377
0.060209
-0.279586
0.010283
-0.00354756
0.0724425
-0.0625458
-0.00989679
0.29059
-0.138047
-0.152543
-0.0936845
-0.128636
0.22232
0.0598712
0.00127594
-0.0611472
0.030119
0.145312
0.128034
-0.0250457
0.30725
-0.385196
0.0779465
-0.0118362
-0.0336848
-0.19426
0.13145
0.0628102
-0.040795
0.0603165
-0.143394
0.00797991
0.330296
-0.148272
-0.182024
0.0529113
0.0189994
-0.00110413
9.09402e-05
0.00101319
-0.191192
0.151783
-0.157989
-0.072001
-0.366856
-0.0501582
0.417015
0.14185
-0.27417
0.13232
-0.0749323
0.0625639
0.0123684
0.000246855
-0.0949636
0.0947167
0.261181
-0.029856
-0.000364799
0.00101984
0.0303532
-0.0259655
0.0602075
-0.0699037
0.00969617
0.203241
-0.11033
0.0709359
0.000296643
0.0645606
-0.0116493
0.394233
-0.289055
-0.105178
-0.236125
0.113526
0.0115937
-0.0613601
0.0497664
-0.0879308
-0.00454618
-0.213218
0.0958608
0.117357
0.079223
-0.0292165
0.00950326
-0.0104766
-0.0127265
-0.0718347
0.0771953
0.201943
-0.0971985
0.242194
0.226282
0.00866735
-0.0070972
0.000531711
-0.00097374
0.0192541
0.0425236
-0.0617777
0.0582681
-0.0691641
-0.0134246
0.0203752
-0.00695057
0.0227744
-0.0190512
-0.00372313
-0.0166336
0.0103237
0.0438104
-0.0541342
-0.0526598
0.0396743
0.0129855
0.00594658
0.00243911
-0.00838569
0.118282
-0.140524
0.0222417
-0.0533941
0.0670123
-0.0136182
-0.0143337
-0.085261
-0.102292
0.187553
-0.0412004
-0.154544
0.195745
-0.101106
0.148
-0.0468938
0.0786614
-0.0928535
0.014192
-0.181411
-0.162278
-0.0897539
0.231644
-0.14189
-0.141361
0.119523
0.0218381
0.0840834
0.0120363
-0.0654521
0.0759904
-0.0105383
0.032496
-0.0368138
0.076711
-0.0834222
0.00671118
-0.102844
-0.135895
0.238738
-0.413559
0.179925
0.233635
-0.0157084
0.13648
0.111154
-0.150104
0.0389504
0.0084757
-0.0391168
-0.0190045
0.00557991
0.0648189
-0.00522826
-0.100347
0.334226
0.0599776
-0.022014
-0.015961
0.119928
-0.242345
0.147795
0.0945497
0.0141965
-0.09974
0.0855435
0.160776
-0.0187896
-0.457305
0.090449
-0.114217
0.0641023
0.0501144
0.122638
-0.0153887
-0.10725
0.0100693
0.000840993
-0.0109103
0.118404
0.0166513
-0.135056
-0.119061
0.115149
0.00391264
-0.00388648
0.00270105
0.0770352
-0.00872312
-0.0683121
0.107989
-0.0445122
-0.0634766
-0.25228
0.246561
-0.192498
0.410371
-0.217872
-0.14734
0.344057
-0.196717
0.0661348
-0.00780314
-0.0583317
0.0807251
-0.0693532
-0.0113719
-0.0709567
0.0894299
-0.0184731
0.00707899
0.0232742
-0.112788
-0.0272818
0.000595077
0.279873
-0.225434
-0.0544391
0.0355898
-0.0591991
0.0236093
0.290618
-0.185059
-0.140443
-0.00828262
0.169017
-0.151555
-0.0174623
-0.286349
0.0877902
-0.0796459
0.069406
0.108602
-0.124563
-0.109186
-0.113615
0.168645
-0.158097
-0.010548
0.129582
-0.121133
0.0709371
-0.0107296
0.101821
0.0988509
-0.200672
0.39169
-0.204028
-0.187662
-0.0806923
0.059982
0.146904
-0.00884122
-0.0220635
-0.107847
-0.153892
-0.134803
0.288695
-0.193187
-0.0931629
0.0091428
-0.240909
0.115486
-0.142208
-0.0920648
0.234273
-0.241066
0.151312
-0.448513
0.155151
-0.0699692
0.0144008
0.159711
-0.308255
0.148544
0.274355
-0.18273
-0.0916252
-0.00338714
0.0702656
-0.0668785
0.0357515
0.0868869
0.136173
0.0328436
-0.0243269
0.00263185
0.021695
0.461477
-0.191229
0.00763972
-0.0128837
0.00862222
-0.00661725
0.026133
-0.0067202
0.0607082
-0.053988
0.18607
0.174125
-0.360195
0.0872134
-0.00313002
0.110015
0.0238082
-0.431082
0.17027
0.260812
-0.184874
0.0579343
0.12694
-0.00277094
-0.0912381
-0.148369
0.047263
0.211829
0.130371
-0.222497
0.104158
0.0864408
0.110853
-0.197294
-0.0274201
0.0279497
-0.000529645
0.000332348
0.0615842
-0.0814775
0.0198933
0.0875306
-0.00270151
-0.0101585
-0.0595894
-0.100614
0.100861
0.377211
-0.0620719
-0.0521448
-0.0783767
0.058416
0.0199607
-0.313809
0.287134
0.0266749
-0.0653787
0.0871562
-0.0217775
-0.126592
-0.114317
-0.0581969
0.0704006
-0.0122037
0.117614
-0.0964732
-0.0211403
-0.00480424
-0.0585207
0.0633249
-0.0900433
0.135952
-0.0459087
0.365517
-0.205806
-0.0278582
-0.158263
0.003062
-0.00782644
-0.0842391
0.0174722
0.0636173
0.00102459
-0.0646418
-0.00902344
-0.00828013
0.309688
-0.190507
-0.119181
0.378803
-0.214068
-0.250709
-0.0329842
0.283694
0.27138
0.145287
-0.000825099
-0.125016
-0.115579
0.240595
0.0183158
0.14246
-0.0800677
0.127373
-0.0473054
0.145523
-0.0343689
0.00875808
0.099833
-0.108591
-0.0842284
0.0187764
-0.00309159
0.00542857
-0.00233698
0.19458
-0.0927595
0.235157
-0.406259
0.171102
0.126426
-0.167627
0.00800933
0.0801324
-0.0881417
0.148856
-0.00378547
-0.0962056
-0.112162
0.0119398
0.100222
-0.17211
-0.158815
0.330925
-0.270084
-0.133977
0.404061
0.0705373
-0.0623328
-0.0082045
0.0747487
-0.0618526
-0.012896
-0.0861525
-0.112115
0.198268
0.140069
-0.0300541
-0.00366243
0.0361584
0.242977
0.0368963
0.143265
0.00922307
-0.152488
0.0127143
-0.0105498
-0.00216451
-0.119333
0.137497
-0.0181645
0.00115667
-0.00311526
0.00195859
-0.140675
-0.290407
0.125452
-0.142739
0.017287
0.113461
-0.110859
-0.00260155
0.0735137
-0.0756776
0.00216386
-0.021837
-0.228872
-0.191549
0.0873466
0.104202
0.090814
0.00869426
-0.0995082
-0.0902089
0.0809366
0.0907074
-0.0103629
0.0682321
-0.00461489
0.00780605
-0.00185947
0.144645
-0.019193
-0.0197952
-0.00453165
0.154086
0.316102
-0.0268316
-0.000588442
0.0621018
0.0986999
-0.00788592
-0.0394905
0.0483815
0.0642879
0.0930354
0.0137926
-0.165382
-0.0498152
0.215197
-0.104837
0.113518
-0.00868107
0.10164
-0.115081
-0.0475542
0.162635
-0.0799438
-0.00798699
-0.354866
0.176979
-0.0210585
0.188088
-0.0215311
0.0831153
0.00976587
-0.0150783
-0.0869865
0.0160298
0.143845
-0.132028
-0.0118172
-0.127399
0.197567
-0.0701677
-0.19301
0.169948
0.0230615
0.00476323
-0.00586318
0.00109996
-0.285575
0.129276
0.156299
-0.00268152
0.264063
0.0812767
-0.00776299
0.392575
-0.153036
-0.239539
-0.143853
0.0286498
-0.000276615
-0.000737939
0.00101455
-0.00257027
-0.00235645
-0.0695147
0.181725
-0.11221
-0.222722
-0.194311
0.417033
-0.26044
0.159357
-0.130241
0.0109087
-0.00282892
0.0025523
0.423839
-0.241015
-0.182824
-0.00549919
0.0732063
-0.0496027
-0.110218
-0.00194399
0.019793
0.0933079
-0.0568372
-0.134712
0.000924734
-0.0778549
0.361414
-0.094602
-0.0213495
0.0781163
-0.0567668
0.00135114
0.00234341
-0.00369455
-0.112569
0.197916
-0.0853468
0.0102341
-0.0756307
0.0653966
0.179944
0.0405805
-0.220525
0.00744028
-0.00193989
-0.0055004
-0.112056
0.00721935
0.0981187
-0.263501
-0.12693
0.309544
0.0230428
0.0470116
-0.263716
0.105727
-0.183334
0.0846672
-0.0118339
-0.00431144
0.0161453
-0.0646381
-0.00464982
0.00264102
-0.00138002
-0.00126101
0.178312
0.17446
-0.352772
0.10127
0.0195875
-0.120858
0.0660742
-0.00780603
-0.0341003
0.0226022
0.0114982
0.0123121
0.0376031
-0.0499152
-0.00556408
0.0657309
-0.0601668
-0.29657
-0.0172386
-0.138176
0.048133
-0.0796461
-0.133572
0.00630337
0.0699442
-0.0762475
0.00591809
-0.0311693
0.0245521
-0.0203047
0.157808
-0.137504
-0.0892602
0.0770829
0.0121773
0.0689425
0.0312505
-0.100193
-0.0641989
-0.0322306
0.0336948
-0.030342
-0.00335279
-0.238604
0.13576
0.00244748
0.00243304
-0.0589463
0.0714146
-0.0124683
0.0655032
0.00945099
0.294294
0.0201954
0.0877934
0.140617
-0.0265205
-0.114096
-0.445689
0.31013
0.135559
0.0111309
-0.132851
0.0488024
0.0918141
-0.146987
0.134431
0.0125566
-0.0922572
-0.00542415
0.0976813
-0.337876
0.236035
0.101841
-0.0647636
0.057585
0.00717854
-0.028705
0.0947881
-0.116724
0.0219361
-0.151036
0.017888
-0.0389422
0.186505
-0.147563
-0.00055488
-0.0152412
0.0157961
0.0117673
-0.0321189
0.00528728
-0.117271
-0.156068
0.273339
-0.129253
0.0491854
-0.0288093
-0.0560497
0.0118925
0.0811766
-0.0930691
0.0125691
-0.0113891
0.00853352
0.00285563
-0.00085173
0.00138344
-0.0212159
0.174771
-0.367984
0.0138177
0.0885619
-0.10238
-0.0769925
0.0744715
0.002521
-0.0206787
0.00527217
0.0154065
-0.0118047
0.10937
-0.0975652
0.114343
-0.135022
0.0206787
0.11248
-0.227562
0.115082
0.00118406
-0.182619
0.315683
-0.133064
-0.0966768
0.0290075
0.0676693
-0.00265162
-0.00154344
0.00419507
-0.00515193
0.105453
-0.100302
-0.017964
-0.019572
0.143041
-0.123469
-0.0253379
-0.00678098
-0.143953
0.274559
-0.130606
0.158174
0.136695
-0.294869
0.236459
-0.129473
-0.039175
-0.012669
-0.0564833
0.0691523
0.160473
-0.383195
0.156986
-0.338397
0.112324
-0.23734
-0.00450053
-0.0602631
0.00220015
0.00739255
-0.0095927
0.10976
0.165064
-0.274823
-0.320574
0.171355
0.149219
0.269925
-0.160166
0.187654
-0.252457
0.0648024
0.165152
0.0147921
0.00265956
-0.032484
-0.279088
0.180676
0.098412
0.0863519
-0.204186
0.117834
-0.105898
0.028433
0.077465
-0.108035
-0.0174319
-0.168796
0.100159
-0.0985181
0.0331393
-0.000129774
0.0270192
-0.0268894
-0.208553
0.0959832
0.148005
-0.186947
-0.127939
0.162418
-0.0344793
0.160261
-0.277532
0.0185969
0.0722858
0.0154411
-0.0877269
-0.00230024
0.00345691
0.0984802
-0.00408397
-0.00879974
-0.178632
-0.0201959
0.198828
0.176032
0.0856349
-0.261667
0.0964346
-0.0977042
0.0012696
0.0738278
-0.00287271
-0.0709551
0.0032715
-0.0105501
0.00727859
0.303066
-0.144892
-0.0658404
0.106309
-0.188214
0.118699
0.00674607
-0.132838
0.126092
-0.253905
-0.00825949
0.262164
0.00440889
0.0240312
-0.0284401
-0.175908
-0.1757
0.351608
-0.0861049
-0.0142998
0.0102159
-0.115666
-0.121378
0.237044
-0.0935756
0.000557931
0.184982
-0.147051
-0.0379308
-0.0179804
-0.14723
-0.140113
0.127244
0.0128695
0.086944
-0.0789347
-0.00738932
-0.00942357
0.0168129
-0.101344
0.00908637
0.198457
0.0875303
-0.245531
-0.0923453
-0.00516707
0.328359
-0.208624
-0.119735
0.132961
-0.150045
0.0170844
-0.0715245
-0.00546806
-0.307817
-0.0641879
0.372005
0.278597
-0.0909431
-0.0644551
-0.163004
0.227459
-0.227637
-0.0929371
0.00968427
0.0775171
-0.0435749
-0.0339421
-0.0815366
0.198369
-0.116833
-0.0124947
-0.0658821
-0.0507999
0.0424739
0.008326
0.0191645
-0.0153886
-0.00377599
0.00608672
-0.00604507
-0.0642494
0.0608623
-0.0017407
0.00249677
-0.0304366
-0.147328
-0.258266
0.135478
0.122788
0.215804
0.0938843
0.0152053
-0.0297605
0.0145552
-0.00336186
-0.00802729
-0.151868
-0.162914
0.314782
-0.204314
-0.0481428
-0.155209
0.143726
0.0114824
-0.0738943
0.0801977
0.00487001
-0.0202021
0.0196472
-0.00490299
0.081614
-0.38186
0.275151
0.106709
-0.357012
0.15014
0.206872
0.174585
0.177916
-0.352502
0.0575707
0.127411
0.0573117
-0.045718
0.124858
-0.268811
0.00235407
-0.187243
-0.26127
-0.29208
0.238225
0.0538543
0.331803
-0.142312
0.0678443
-0.0640182
-0.00382609
0.0698495
-0.0746538
-0.0527443
0.0451416
0.00760274
-0.0893379
0.0679884
-0.0115177
-0.113235
0.0983363
0.0875394
-0.185876
0.0620614
-0.0747303
-0.0391104
-0.0116895
-0.00936703
-0.00299337
0.0123604
0.0878266
0.00434735
-0.0275721
0.245642
-0.122569
-0.15652
0.00236738
0.0753932
-0.0777606
0.0209968
0.0617246
0.051118
-0.0418948
0.0714994
-0.0739172
0.00241778
0.323817
-0.108014
-0.0174298
0.283388
-0.177177
-0.106212
-0.00401131
-0.0155204
0.108186
-0.118322
0.0101365
0.077028
-0.0671531
-0.00987491
0.0029946
-0.0768889
-0.210926
-0.244299
0.286585
-0.103923
-0.182663
0.186687
0.0998986
0.125055
-0.142876
-0.129403
-0.106722
0.0379713
0.0395457
0.102096
0.00355697
-0.105653
0.107463
-0.104498
-0.00296486
-0.00282766
-0.00862369
0.0114513
-0.206315
-0.140441
0.346756
-0.0907872
0.0108435
0.00144632
0.0393482
-0.347165
-0.0250248
0.0915469
-0.00636737
0.0662386
-0.180237
-0.265452
0.0917094
-0.0382932
0.048617
-0.0398254
-0.0129189
-0.0158498
0.0175443
-0.00169449
0.247821
0.144755
0.129545
0.118031
-0.247576
-0.00709803
-0.0282842
0.0353822
0.124324
-0.118859
-0.00546422
-0.106505
0.207741
-0.101236
0.409517
-0.355831
-0.0536863
-0.0678545
0.0611343
0.0355806
0.100568
0.318492
-0.118895
-0.199597
0.000719155
0.0136231
-0.0587264
0.0451033
-0.00745152
0.0875839
-0.0541351
-0.00200354
0.0561386
-0.282938
0.136383
0.146555
-0.0191875
0.00663861
-0.00187539
-0.234583
0.116689
-0.135307
-0.122959
0.0983829
0.00509303
0.0479568
-0.0530498
-0.215007
0.0968345
0.118173
0.15001
0.151611
-0.30162
-0.0564764
0.0858256
-0.0293492
-0.0511667
-0.0137225
0.0813657
-0.0955286
0.0141629
0.111015
-0.105689
-0.00532603
0.0868267
0.120086
-0.206913
0.202681
-0.356435
0.153753
0.0838422
-0.0115564
-0.12019
0.101575
0.0186145
-0.160613
0.0326743
0.235738
-0.157644
-0.078094
0.270801
0.0575582
-0.414304
0.0351764
0.379128
0.0760275
0.00319552
0.0134447
0.110879
0.0749216
0.00704017
-0.0819618
0.0191921
-0.149711
0.00688536
-0.330953
0.163026
0.167927
0.0809961
0.393743
-0.00136866
-0.000955272
0.0778969
-0.0769416
0.261748
-0.159387
-0.102361
-0.00141773
0.00453297
-0.114308
-0.084639
0.198947
-0.283038
0.129146
-0.0358036
0.0356738
-0.136145
0.0650075
-0.0802441
0.0152366
0.157264
-0.140131
-0.0171333
0.113095
0.0143834
-0.127478
0.0830351
0.169437
0.174909
-0.344345
-0.105393
-0.0180756
-0.241762
0.103971
0.137791
-0.00251135
0.000932528
0.00157882
0.0650965
-0.0586419
-0.00645454
0.161921
0.00550843
-0.076853
0.0651727
0.0116803
0.0101106
0.00888499
0.10213
-0.0139287
0.423446
-0.00106251
0.00241365
0.344711
-0.125334
-0.0847362
0.0282598
0.165912
0.100949
-0.266861
0.00297915
0.000478623
-0.000587596
0.000108974
0.0683286
-0.00510001
0.00767415
-0.00257414
0.224611
0.236866
-0.000967367
0.0024243
-0.00145693
0.0948077
-0.253465
0.0301138
0.087694
0.0469124
-0.055296
0.00838357
0.122472
-0.113587
0.0932055
-0.0242629
0.215587
-0.113346
0.130414
-0.0170687
0.260556
-0.413227
0.152671
0.123875
-0.132101
0.00822508
0.0742026
-0.00869942
-0.0776238
0.0803571
-0.00273327
-0.0076858
0.0105805
-0.00289474
0.0763731
-0.000345614
0.0192359
0.0346601
0.331181
-0.161744
0.108476
0.0801837
-0.0169365
-0.0632472
-0.0154383
0.0181413
-0.00270292
-0.199054
0.112901
-0.00386512
0.0734134
-0.0695483
-0.0148711
0.106497
-0.109824
0.101723
0.00810141
-0.298065
-0.123795
0.0145555
-0.0518128
-0.12806
0.110955
0.0171051
-0.337591
0.190251
0.00321779
-0.00354551
0.000327725
0.0121729
-0.125519
-0.181909
0.360221
0.0319126
-0.0706566
0.038744
0.00264719
-0.021204
0.130481
-0.109277
0.0104766
0.167296
-0.141861
0.0187893
-0.00771452
-0.0147802
0.0183196
-0.00353933
-0.140211
0.244467
-0.104256
0.135997
0.257101
0.0759474
-0.0847893
-0.154507
0.125356
0.0291503
0.0047206
-0.00390529
-0.000815309
-0.0304575
0.291013
-0.0394539
0.0525965
-0.0131426
-0.140204
-0.0143023
-0.0320722
0.0282203
0.00385194
0.221376
0.110278
-0.331654
-0.0716194
0.0773525
-0.00573318
-0.00205359
0.0234901
0.000629329
-0.00328095
0.000110605
0.00217371
-0.00228432
-0.00145432
0.000350185
0.312425
-0.00481915
0.014964
-0.0101449
0.0954379
-0.00780627
0.0547187
-0.148206
-0.0717767
0.442975
-0.197819
-0.0468899
-0.049787
0.000871971
-0.00145788
0.000585909
0.0596902
0.0110309
-0.0707211
0.0573128
0.151446
-0.00708113
0.182089
0.103387
-0.285475
0.013826
-0.0854454
-0.340072
0.197752
0.142319
0.0834857
0.152252
-0.00150649
0.00136708
0.142464
-0.163647
0.0211831
0.00152825
-0.000783944
-0.000744302
0.176258
-0.273979
0.0977214
-0.226387
-0.0155563
-0.012007
-0.288662
0.171151
0.11751
-0.0814339
0.0788762
0.283841
-0.117929
-0.0745887
-0.115626
0.190215
0.0157395
-0.122568
0.105354
0.131099
-0.236453
-0.131132
-0.00616809
-0.106392
0.0283542
0.078038
0.317651
0.0545074
-0.372158
0.0854108
-0.00264586
0.00275646