/*--------------------------------*- C++ -*----------------------------------*\
| =========                 |                                                 |
| \\      /  F ield         | OpenFOAM: The Open Source CFD Toolbox           |
|  \\    /   O peration     | Version:  v2012                                 |
|   \\  /    A nd           | Website:  www.openfoam.com                      |
|    \\/     M anipulation  |                                                 |
\*---------------------------------------------------------------------------*/
FoamFile
{
    version     2.0;
    format      ascii;
    class       surfaceScalarField;
    location    "200";
    object      phi_0;
}
// * * * * * * * * * * * * * * * * * * * * * * * * * * * * * * * * * * * * * //

dimensions      [0 3 -1 0 0 0 0];
oriented        oriented;


internalField   nonuniform List<scalar> 
41582
(
-0.229919
0.178591
0.0513276
0.00519228
0.067077
-0.0722692
0.00610919
-0.00383852
-0.00227067
0.0011614
0.00134782
-0.00250922
0.0110718
0.0840236
-0.0950954
0.111288
-0.219982
0.108694
0.0184562
0.00715972
-0.0256159
0.11267
-0.101308
-0.011362
-0.104872
0.0992006
0.00567181
0.0366546
-0.102884
0.0662295
-0.00757401
-0.0622114
0.0697854
0.0175687
-0.148568
0.131
0.0911679
-0.0862887
-0.00487921
0.0205013
-0.0168156
-0.00368568
-0.0270575
0.0247578
0.0022997
0.0197793
0.114333
-0.134113
0.040312
-0.0386066
-0.00170542
0.0994447
0.0112936
-0.110738
0.00994612
0.0336163
-0.0435624
0.0392232
0.103967
-0.14319
0.0027172
0.0177841
0.0817018
-0.202621
0.120919
0.0430773
-0.00276531
-0.169588
-0.0603315
0.470188
-0.24291
-0.227278
-0.135214
0.285987
-0.150773
0.270648
-0.123163
-0.147486
0.0423817
-0.0188499
0.0030788
-0.00191741
0.000438402
0.00160232
-0.00204072
0.0700527
-0.0842339
0.0141812
-0.373311
0.107826
0.265485
0.0398251
-0.0358269
-0.00399829
-0.086401
0.125624
-0.0203187
0.0302648
0.168925
0.101723
-0.118339
-0.0716107
0.18995
0.13504
-0.14007
0.00502981
0.0551022
-0.0111411
-0.0439611
-0.14686
0.145714
0.00114587
0.459879
-0.260425
-0.199453
0.139432
-0.141956
0.00252397
0.361994
-0.193214
-0.16878
0.0752638
-0.0911406
0.0158768
0.0491083
-0.0674887
0.0183804
-0.405932
0.0683433
0.337589
-0.110672
-0.0693791
0.180051
0.00282084
-0.125466
0.122645
-0.268102
0.20736
0.0607422
0.111467
-0.227508
0.116041
0.125064
-0.122243
0.0854834
-0.0102196
-0.0715113
0.0827176
-0.0112063
0.163356
-0.113266
-0.0500899
-0.0653783
-0.00227778
0.067656
0.000792634
-0.00127147
-0.0229265
0.0314147
-0.00848816
-0.522787
0.196892
-0.11519
-0.00153838
0.00124886
0.000289521
-0.116516
-0.256795
-0.092477
0.00723505
0.0852419
0.0224402
-0.0893348
0.0668946
-0.0530079
0.078681
-0.0256731
-0.296862
-0.00571922
0.302581
-0.17148
0.151504
0.0199759
-0.00768464
0.0981892
-0.0905046
-0.0611643
-0.0153499
0.0765143
0.0240458
-0.0291676
0.00512186
-0.0158548
0.0917859
-0.0759311
-0.144165
0.129054
0.0151108
0.000377517
6.08843e-05
-0.416545
0.243786
0.172759
-0.144582
0.291009
-0.146426
-0.129356
0.112597
0.0167595
0.103464
-0.117779
0.0143147
-0.0848519
0.013073
0.0717789
-0.116448
0.119009
-0.00256118
0.000163216
0.167428
-0.162902
-0.00452621
0.126868
0.0125634
0.0164966
-0.271135
0.135921
0.240623
-0.129156
-0.000588343
0.314899
-0.107937
-0.206962
-0.198559
-0.0695429
0.0883651
-0.10422
0.00315596
-0.0593217
0.0561658
0.0157471
0.0916259
-0.107373
-0.22999
0.138489
0.0915019
0.0014836
0.0458444
-0.0473281
-0.133148
0.152928
0.083022
-0.0129693
0.120771
-0.124753
0.00398136
0.134082
-0.00901846
0.00824012
-0.0517338
0.0434937
-0.0161714
-0.130519
0.14669
-0.122599
0.24466
-0.122062
0.0233813
-0.00401627
-0.019365
-0.115532
0.306199
-0.190667
-0.433981
0.0280486
0.0198873
-0.00531398
-0.0145733
-0.0172963
-0.454237
0.245156
0.209081
0.102681
0.112742
-0.215424
0.176351
0.112877
-0.289228
-0.0805011
0.0941832
-0.0136821
-0.0668415
-0.0190897
0.0859312
-0.0562154
0.09287
0.38416
-0.179322
-0.204838
0.182276
-0.0602835
-0.121993
0.0538915
-0.0507356
-0.00792218
0.012125
-0.00420278
-0.0104914
0.0614599
-0.0509686
-0.0166151
-0.00687389
0.0253301
-0.101487
0.214892
-0.113405
-0.115002
0.110038
0.00496419
-0.471331
0.233321
0.23801
0.0526064
-0.0716883
0.0190819
0.111528
-0.124075
0.0125467
0.0783394
0.000383348
-0.0787228
0.120943
-0.0214978
-0.165211
0.175007
-0.00979592
-0.192841
-0.27849
0.0640452
0.118231
0.0296107
-0.0344068
0.00479609
-0.0705005
-0.00884031
0.0793408
-0.123072
0.143944
-0.0208716
-0.161544
0.0482772
-0.354101
0.20907
0.145031
0.0323212
0.282578
0.00373519
0.00237399
-0.00694728
0.0060576
0.00238262
0.270248
0.189631
-0.282735
0.138152
-0.109068
0.0532604
0.0558077
-0.347965
0.240029
-0.00492339
0.00327462
0.00164877
-0.00033134
-0.00120704
-0.0860581
-0.0885066
0.174565
-0.0240726
-0.00298489
-0.0883505
0.00784947
-0.237158
-0.285629
-0.129718
0.182839
-0.0531212
-0.0270592
0.0351643
-0.00810515
-0.0254353
0.0780417
0.498808
-0.293362
-0.205445
-0.452377
0.456644
-0.00426711
-0.119195
0.00274643
0.0686519
-0.0681547
-0.000497248
0.00121857
-0.058826
0.0812663
-0.0804923
-0.0387024
-0.0563366
0.209563
-0.153226
-0.2549
0.216787
0.0381131
0.115548
-0.121203
0.00565446
-0.0448425
0.166791
-0.121948
0.0257583
0.029344
-0.0964316
0.0921764
0.00425518
-0.0873556
0.0025037
0.0902641
0.117096
0.208759
-0.198202
-0.0105568
-0.182768
0.182281
0.000486935
0.00174847
-0.0102381
0.0825625
-0.0723245
-0.232849
0.176512
-0.0748503
0.0800426
-0.0377737
0.0157715
0.0220022
-0.193072
-0.0618283
0.0157183
0.0273591
0.381238
-0.406204
0.0249662
0.119805
-0.0470055
0.0721666
-0.0251611
-0.0940084
-0.00367344
0.0976819
0.0885537
0.0900378
-0.179685
0.0499672
0.0680089
0.00827481
-0.0762837
-0.112559
0.233161
-0.120602
0.0869057
-0.0945904
0.427604
-0.0463661
0.0490397
-0.0648881
0.0158483
-0.0120021
0.00407994
-0.0034744
0.0807367
0.0148386
-0.0955753
-0.520861
0.355549
0.165312
-0.00584533
0.00294086
0.00290447
-0.106828
0.127092
-0.0202642
-0.168187
0.16743
0.000756982
0.071495
-0.0570482
-0.0144468
-0.19804
-0.322821
-0.421861
0.427372
-0.00551193
-0.162282
-0.254262
0.000964226
0.00837183
-0.00933606
0.135543
-0.117975
0.133268
-0.0146524
-0.118615
0.00361571
-0.0128389
0.0199986
3.6315e-05
-0.075173
0.0751367
-0.0773427
0.0315262
0.0458165
-0.12172
-0.00261183
0.124332
-0.0499118
0.0513954
-0.198916
0.0882439
-0.019497
-0.151983
-0.0275673
0.0225455
0.00502179
0.0789978
0.054385
-0.133383
-0.0530918
-0.127419
-0.0848586
0.0691348
0.0157238
-3.8534e-05
0.000847163
-0.000808629
0.214469
-0.125915
0.00438453
0.0189967
0.192298
-0.128253
-0.000454973
0.106828
-0.106373
-0.0887252
0.23984
-0.151115
-0.0673979
0.0203924
-0.0306438
0.0237699
0.123564
-0.0363405
-0.0872232
0.145737
-0.137445
-0.00829197
0.0325067
-0.0260686
-0.00643812
-0.0728626
0.0719084
0.000954223
0.0946215
-0.0279523
-0.0666693
0.261382
0.10798
-0.369361
-0.12991
0.125348
0.00456204
0.0130932
0.121947
0.100219
-0.0863962
-0.0138231
0.16703
-0.00764407
-0.159386
-0.0720876
0.00670934
0.209979
-0.119715
-0.0298232
-0.00334512
-0.137148
-0.210817
0.0197356
0.000151651
-0.120458
0.0399655
0.104228
0.226598
-0.104971
-0.121627
0.0642055
-0.0151658
-0.0627604
0.174049
-0.0758341
0.0277435
0.0480906
0.176656
-0.413991
0.237335
-0.325965
0.245121
0.0808449
-0.0174089
-0.0203648
-0.045523
0.0538949
-0.00837188
-0.00896569
-0.115109
-0.23128
-0.0278733
0.259154
0.00446061
0.0966988
-0.101159
0.0652909
-0.0572155
-0.00807534
0.105897
0.0226619
0.068506
0.0678163
0.000835677
-0.144854
0.31466
-0.169806
0.100657
-0.119229
0.0185725
-0.0646251
0.0810988
-0.0164737
0.162774
-0.278306
-0.134453
0.126702
0.00775101
-0.166669
0.0880307
0.0786386
0.119695
-0.0190386
-0.155619
-0.027149
0.0661214
0.005641
-0.0717624
-0.00476804
-0.00508819
0.00985623
0.00353649
-0.00478976
0.00125327
0.187667
-0.133985
-0.0536821
0.468476
-0.22469
-0.162181
0.281545
-0.119364
0.122012
-0.139825
0.0178136
-0.079479
0.0148539
0.0723181
-0.3395
0.267182
0.189641
0.194519
0.085631
-0.00489424
-0.0986666
-0.10025
0.268638
-0.166941
-0.101697
-0.211434
-0.142667
0.0179445
0.0248043
-0.0427488
-0.0973626
0.11311
0.14279
-0.0270299
-0.11576
0.00487819
-0.00264396
-0.00223423
-0.18118
0.136338
0.00544755
0.0152859
-0.0163019
0.00101596
0.00189608
-0.00265545
0.000759371
-0.0632975
-0.00956511
-0.00431257
0.0339233
-0.0236044
0.137938
-0.000738621
0.00183168
-0.00109306
-0.0284973
-0.0805707
0.136149
-0.150301
0.0141524
-0.00298809
-0.0589111
0.0618992
0.180979
-0.0578342
-0.123145
-0.0358523
-0.0399818
0.00546971
-0.00193322
0.0494442
-0.06848
0.0190358
-0.012441
-0.0417696
-0.117533
0.159302
-0.0756279
-0.008606
0.138063
-0.152254
0.0141915
-0.332929
0.333401
-0.00047246
-0.177318
0.00913147
-0.000139237
0.00311487
-0.00297563
0.0854732
0.00914829
-0.266472
0.177772
0.0887002
0.0576359
-0.0728942
0.0152583
-0.17534
0.226764
-0.0514242
0.0696664
-0.0772404
0.176815
0.185179
0.0707121
-0.0212679
0.00164943
0.00142938
0.183485
-0.27221
-0.0040787
-0.239361
0.137874
-0.0555718
0.0733707
-0.0177989
0.0169899
-0.0699977
0.00907744
-0.00811321
-0.00190679
0.00585354
-0.00394676
0.120696
-0.00106521
0.000733865
-0.408365
0.0754364
0.338962
0.159846
0.205588
-0.342736
-0.10798
0.10276
0.00522018
0.086061
-0.0490116
-0.0370494
0.0463458
-0.0381057
0.392374
-0.00836834
-0.384006
0.0547638
-0.159778
0.034926
-0.178887
0.143961
0.0195264
0.0547978
-0.0743242
0.114099
-0.10412
-0.00997876
0.393099
-0.17943
-0.213669
0.0983484
-0.10454
0.00619139
0.102989
-0.113936
0.0109472
0.0404679
0.0830958
-0.162255
0.120486
-0.000430137
0.00191818
-0.00148805
0.0768585
-0.0235982
0.00193842
-0.00267704
0.000654404
0.00124168
0.00516576
-0.0769049
0.0180789
0.0719864
-0.0143504
-0.0817607
0.00613278
-0.0986517
-0.0680176
0.128161
-0.0491632
-0.0930173
0.0925623
0.0952528
-0.0999916
0.00473886
0.0494989
0.0365622
-0.0697482
0.0159654
0.0537828
-0.00134524
0.00497066
-0.00362542
0.0660168
0.0601076
0.011191
-0.0712986
0.00166426
0.0472941
-0.0489583
-0.115204
-0.0590395
0.0788754
-0.0818634
-0.00274723
0.00740089
-0.00465365
0.0683084
-0.0797041
0.0113957
0.104206
0.0290617
-0.00426347
0.012538
-0.00827451
-0.0116267
0.0899661
0.110197
-0.136123
0.0259255
-0.125423
-0.141049
-0.00097246
0.00934429
-0.0207094
0.0868987
-0.0661893
-0.0304826
0.00755607
0.149058
0.100097
-0.249155
0.231325
0.0845308
-0.315856
-0.00556694
0.0942384
0.00411006
-0.21427
-0.146869
0.361138
0.0405436
-0.0568072
0.0162636
0.0403922
-0.038728
-0.0847513
0.117808
-0.0330565
-0.133182
-0.00664316
-0.106074
-0.035882
-0.054879
-0.00788301
0.062762
-0.0120605
-0.10906
0.12112
-0.00255759
-0.0728267
0.0753843
0.048534
0.0358023
-0.0843364
-0.17487
0.136187
0.0386829
0.227338
-0.163157
-0.0641817
0.23169
-0.151847
-0.0798429
0.0272062
-0.0324659
0.00525967
0.0928257
0.00538321
0.0195157
-0.0248989
0.0355271
0.131901
0.0602231
0.0050678
0.104476
-0.010238
0.182614
0.0912071
-0.273821
-0.0730546
0.0768976
-0.00384306
0.0162242
-0.0867247
-0.135414
0.132338
0.0030759
0.0616757
-0.0709208
0.00924512
0.0848296
-0.0839073
-0.000922254
-0.0022835
0.00178652
0.164283
-0.0949647
-0.0693183
-0.0793866
0.00633205
-0.110647
0.126645
-0.015998
-0.0947071
0.197389
-0.10305
0.00945534
0.0935944
-0.0110595
0.0516031
-0.052855
-0.0108998
0.0637548
-0.158745
0.0293584
0.129387
0.0712314
-0.0649659
-0.00626551
-0.00843879
0.006532
0.121433
-0.132307
0.010874
0.193128
-0.350304
0.157176
-0.332603
0.0196721
0.312931
0.00355775
-0.00190832
0.0947824
0.0719024
-0.166685
0.0791939
-0.0791576
0.119297
-0.350578
0.1131
-0.106326
-0.00677345
0.109335
0.00614498
-0.11548
-0.101083
0.321104
-0.220021
0.137452
-0.0959675
-0.0414842
-0.37985
0.165581
-0.0014124
0.101671
-0.100259
0.155085
-0.120159
-0.0644252
0.00168824
0.062737
0.165277
0.189491
-0.354768
-0.0720694
0.010905
-0.119813
0.0350617
0.390394
-0.213738
0.000304201
-0.00136941
0.017077
0.0677074
-0.0847844
0.091845
-0.043311
-0.00264425
-1.1203e-05
-0.00927214
-0.0756699
0.0849421
0.00922335
-0.0431082
0.0338849
0.115258
-0.00592284
-0.0781247
0.227183
-0.0478072
0.224159
0.174268
-0.04431
-0.129958
0.134558
-0.0455408
-0.0890176
0.147128
-0.0256942
0.0893993
0.0150771
0.00480287
-0.0692281
0.00673851
0.00261668
-0.0093552
0.0673445
0.0672138
0.196714
-0.372915
0.176201
-0.0296332
0.0567759
-0.0271427
-0.163149
-0.162848
0.325997
0.0461812
0.0324997
-0.400953
0.274332
0.126621
0.233879
0.166634
-0.400513
0.0749559
-0.0132802
0.0821069
-0.0921289
0.010022
-0.177886
0.343163
-0.0236018
-0.0558585
0.0794603
-0.112673
0.11126
-0.0315616
0.00549298
-0.143388
0.121729
0.0216585
-0.117894
0.233553
-0.115659
-0.159707
0.0736486
0.137532
-0.153703
-0.307562
0.162708
-0.0161097
0.0187652
-0.00265552
0.3422
-0.18144
-0.16076
0.194853
-0.0937099
-0.101143
0.00267535
-0.182066
0.301931
-0.119865
-0.116376
0.104316
-0.00626307
0.00351584
-0.00179095
0.00175241
0.164736
-0.39164
0.226904
-0.0692854
0.0118073
0.0574781
-0.126927
0.133823
-0.00689641
-0.0437248
0.0616693
-0.133569
0.00664176
0.0700552
-0.0240241
-0.0460311
-0.00199869
-0.00210568
0.00410436
0.00844867
-0.151652
0.143203
-0.0823422
0.093414
-0.0769274
0.0762849
0.000642528
0.106986
0.129928
-0.236914
0.0015497
0.0137362
-0.482728
0.351224
0.131504
0.257406
0.159261
-0.0657494
0.080695
-0.0149456
0.076853
-0.0597761
0.00110723
-0.00153737
0.116433
0.00866833
0.100736
-0.109404
0.00101317
-0.104063
0.0961197
0.00734426
0.000757183
0.001161
-0.0164172
0.0199733
-0.00355611
-0.222801
0.103381
0.11942
-0.275005
0.112824
0.175431
-0.0581172
-0.117314
0.0943705
0.100482
-0.10696
0.115628
0.0255868
0.092882
-0.118469
0.17802
-0.294701
0.116681
-0.127877
0.147133
-0.0192558
0.0473519
-0.0578432
-0.0394081
0.162189
-0.122781
-0.127627
0.0215536
0.0768398
0.0874432
0.0840634
-0.168137
0.141986
0.0261504
-0.0667658
0.0811775
-0.0144117
-0.0209852
0.0883297
0.138254
-0.16328
0.025026
0.0929106
-0.18825
0.0953392
-0.0767151
0.00713626
0.0695788
0.0214404
-0.0265312
0.00509079
-0.0306444
0.0365533
-0.00590888
0.0595885
-0.054588
-0.00500051
0.0616861
-0.0756574
0.0139712
0.283317
-0.210999
0.0500071
-0.077691
0.0276839
0.167127
0.0602116
-0.455225
0.262384
-0.11827
0.235879
-0.117609
-0.0114255
0.0731116
0.210607
-0.37948
0.168873
0.00335259
0.0206932
0.00311525
-0.00446049
0.0803446
-0.0861261
0.00578145
-0.0232894
0.0189218
-0.0135386
-0.121503
0.111639
0.00986316
0.00536045
-0.0722019
0.17664
-0.34369
0.16705
0.209763
0.0906478
-0.300411
0.0113506
0.114374
0.0230777
-0.128635
0.158221
-0.0295857
-0.0676387
-0.00387258
-0.148725
0.143008
0.00571697
-0.177765
-0.0202243
0.197989
0.0266111
0.161056
0.113617
0.104744
0.0921478
-0.403202
0.191768
0.21807
0.108149
-0.326218
-0.0227909
-0.152079
-0.0178217
0.142799
-0.124977
0.266812
0.151241
-0.418053
-0.00118686
0.00312528
-0.0711197
-0.00559538
-0.0770175
0.0579278
-0.402434
0.41917
-0.0167358
0.165133
-0.144711
-0.0204225
-0.170226
0.346866
-0.0851775
0.0794054
0.00577215
-0.343322
-0.109056
0.105559
-0.31616
0.210601
0.0691037
-0.0900889
0.106654
0.133213
-0.239867
0.0379687
-0.058808
0.0208394
-0.28371
-0.170526
-0.0512173
0.0215841
0.0175002
-0.00479231
-0.0127079
0.00688112
0.0646139
0.219377
0.0602091
-0.279586
0.0102885
-0.00355002
0.0724359
-0.0625435
-0.00989249
0.29059
-0.138046
-0.152543
-0.0936848
-0.128635
0.22232
0.0598727
0.0012721
-0.0611448
0.0301192
0.145312
0.128035
-0.0250456
0.307249
-0.385196
0.0779469
-0.011834
-0.033689
-0.19426
0.13145
0.0628105
-0.0407904
0.0603168
-0.143394
0.0079801
0.330296
-0.148272
-0.182024
0.052914
0.0189944
-0.00110235
9.10554e-05
0.0010113
-0.191192
0.151784
-0.15799
-0.0720007
-0.366856
-0.0501582
0.417015
0.14185
-0.27417
0.13232
-0.0749305
0.0625632
0.0123672
0.000246939
-0.0949637
0.0947168
0.261181
-0.0298563
-0.000363133
0.00101754
0.0303569
-0.0259724
0.0602055
-0.0699016
0.00969609
0.203241
-0.11033
0.0709326
0.0002988
0.0645586
-0.0116446
0.394233
-0.289055
-0.105178
-0.236125
0.113526
0.0115938
-0.0613569
0.0497631
-0.0879308
-0.00454614
-0.213218
0.095861
0.117357
0.0792216
-0.0292144
0.00950825
-0.0104807
-0.0127269
-0.0718349
0.0771953
0.201943
-0.0971986
0.242194
0.226282
0.00866575
-0.00709574
0.000534048
-0.000976671
0.0192541
0.042524
-0.061778
0.0582699
-0.0691697
-0.013427
0.020375
-0.00694802
0.0227755
-0.0190515
-0.00372398
-0.0166332
0.0103203
0.0438072
-0.0541275
-0.0526643
0.0396767
0.0129875
0.00594586
0.00243836
-0.00838422
0.118282
-0.140524
0.0222414
-0.0533892
0.0670081
-0.0136188
-0.0143339
-0.0852607
-0.102292
0.187553
-0.0412004
-0.154544
0.195745
-0.101106
0.148
-0.046894
0.0786635
-0.0928552
0.0141917
-0.181411
-0.162278
-0.0897543
0.231644
-0.141889
-0.141361
0.119524
0.0218379
0.0840831
0.0120366
-0.0654537
0.0759899
-0.0105362
0.0324952
-0.0368078
0.076711
-0.0834223
0.00671128
-0.102844
-0.135895
0.238739
-0.413559
0.179925
0.233635
-0.0157084
0.13648
0.111154
-0.150104
0.0389499
0.00847564
-0.03912
-0.0190054
0.00557845
0.0648207
-0.00523223
-0.100347
0.334226
0.0599764
-0.0220077
-0.0159611
0.119928
-0.242345
0.147795
0.0945496
0.0141981
-0.0997403
0.0855423
0.160776
-0.0187892
-0.457305
0.090449
-0.114216
0.0641009
0.0501154
0.122638
-0.0153887
-0.10725
0.010073
0.000840127
-0.0109132
0.118404
0.0166512
-0.135055
-0.119062
0.115149
0.00391246
-0.00389092
0.00270406
0.0770376
-0.00872292
-0.0683146
0.107989
-0.0445119
-0.0634767
-0.25228
0.246561
-0.192499
0.410371
-0.217872
-0.14734
0.344057
-0.196717
0.0661334
-0.00780198
-0.0583314
0.0807208
-0.0693517
-0.0113691
-0.0709561
0.0894295
-0.0184734
0.00707675
0.0232802
-0.112788
-0.0272818
0.000595339
0.279874
-0.225434
-0.0544393
0.035589
-0.0591987
0.0236097
0.290618
-0.185059
-0.140443
-0.00828262
0.169017
-0.151555
-0.0174624
-0.28635
0.0877903
-0.0796457
0.0694077
0.108602
-0.124563
-0.109186
-0.113615
0.168644
-0.158097
-0.0105479
0.129582
-0.121133
0.0709351
-0.0107296
0.101821
0.0988512
-0.200672
0.39169
-0.204028
-0.187663
-0.0806932
0.0599838
0.146904
-0.00884097
-0.0220637
-0.107847
-0.153892
-0.134803
0.288695
-0.193187
-0.0931629
0.00913848
-0.240909
0.115486
-0.142208
-0.092065
0.234273
-0.241066
0.151312
-0.448513
0.155151
-0.0699705
0.0143987
0.159711
-0.308255
0.148544
0.274355
-0.18273
-0.0916254
-0.00338526
0.0702631
-0.0668779
0.0357516
0.0868869
0.136174
0.0328437
-0.0243276
0.00263261
0.0216949
0.461477
-0.191229
0.00763989
-0.0128899
0.0086264
-0.00662245
0.0261382
-0.00672756
0.060715
-0.0539874
0.18607
0.174125
-0.360195
0.0872134
-0.00313032
0.110015
0.023808
-0.431082
0.17027
0.260812
-0.184875
0.0579343
0.12694
-0.0027706
-0.0912378
-0.148369
0.0472632
0.211828
0.130371
-0.222497
0.104158
0.0864407
0.110854
-0.197294
-0.027417
0.0279475
-0.000530518
0.000332647
0.0615823
-0.0814768
0.0198945
0.087532
-0.00270244
-0.0101581
-0.0595901
-0.100614
0.100861
0.377211
-0.0620706
-0.0521457
-0.078377
0.0584162
0.0199608
-0.313809
0.287134
0.0266751
-0.0653785
0.0871562
-0.0217776
-0.126592
-0.114317
-0.0581915
0.0703949
-0.0122033
0.117614
-0.0964733
-0.0211404
-0.00480416
-0.058521
0.0633251
-0.0900431
0.135952
-0.0459089
0.365517
-0.205806
-0.02786
-0.158263
0.00306163
-0.00782967
-0.084242
0.0174762
0.0636168
0.00102389
-0.0646407
-0.00902325
-0.00827994
0.309688
-0.190507
-0.119181
0.378803
-0.214068
-0.250709
-0.0329845
0.283694
0.27138
0.145287
-0.00082506
-0.125016
-0.115579
0.240595
0.0183155
0.14246
-0.0800683
0.127373
-0.0473049
0.145523
-0.0343685
0.00875817
0.099833
-0.108591
-0.0842281
0.0187745
-0.00309344
0.00542792
-0.00233448
0.19458
-0.0927599
0.235157
-0.406259
0.171102
0.126426
-0.167627
0.00800953
0.0801316
-0.0881412
0.148856
-0.00378588
-0.0962058
-0.112161
0.0119393
0.100222
-0.17211
-0.158815
0.330925
-0.270084
-0.133977
0.404061
0.0705336
-0.0623314
-0.00820216
0.0747465
-0.0618473
-0.0128992
-0.0861524
-0.112115
0.198268
0.140069
-0.0300539
-0.00365703
0.0361523
0.242977
0.0368966
0.143265
0.00922285
-0.152488
0.0127212
-0.010556
-0.0021652
-0.119333
0.137497
-0.0181641
0.00115682
-0.00311499
0.00195817
-0.140675
-0.290407
0.125452
-0.142739
0.0172872
0.11346
-0.110859
-0.00260135
0.0735132
-0.075679
0.00216585
-0.0218367
-0.228872
-0.191549
0.0873466
0.104202
0.0908142
0.00869405
-0.0995082
-0.0902088
0.0809366
0.0907076
-0.0103629
0.068231
-0.00461418
0.00780445
-0.00185859
0.144645
-0.0191931
-0.0197953
-0.00453224
0.154086
0.316102
-0.02683
-0.000587053
0.0621019
0.0986999
-0.00788569
-0.0394839
0.0483821
0.064288
0.0930349
0.0137927
-0.165382
-0.0498154
0.215197
-0.104836
0.113518
-0.00868181
0.10164
-0.115081
-0.047554
0.162635
-0.0799438
-0.007987
-0.354866
0.17698
-0.0210585
0.188088
-0.0215322
0.0831145
0.00976603
-0.01508
-0.0869862
0.0160301
0.143845
-0.132028
-0.0118169
-0.127399
0.197567
-0.0701681
-0.19301
0.169948
0.0230615
0.00476225
-0.00586117
0.00109892
-0.285575
0.129276
0.156299
-0.00268137
0.264063
0.0812781
-0.00776486
0.392575
-0.153036
-0.239539
-0.143853
0.0286498
-0.000275604
-0.000737107
0.00101271
-0.00257024
-0.00235315
-0.0695149
0.181725
-0.11221
-0.222722
-0.194311
0.417033
-0.26044
0.159357
-0.130241
0.0109081
-0.00282703
0.00255142
0.423839
-0.241015
-0.182824
-0.00549767
0.0732051
-0.0495992
-0.110218
-0.00194358
0.0197918
0.0933081
-0.0568371
-0.134712
0.000927497
-0.0778549
0.361414
-0.094602
-0.0213494
0.0781164
-0.0567669
0.00135034
0.00234348
-0.00369382
-0.11257
0.197916
-0.0853467
0.0102337
-0.0756326
0.0653989
0.179945
0.0405804
-0.220525
0.00743693
-0.00193756
-0.00549937
-0.112056
0.00721998
0.0981189
-0.263501
-0.12693
0.309544
0.0230428
0.0470123
-0.263716
0.105727
-0.183334
0.0846674
-0.011839
-0.00431042
0.0161495
-0.0646328
-0.00465262
0.0026434
-0.00138078
-0.00126262
0.178312
0.17446
-0.352772
0.10127
0.0195877
-0.120858
0.06608
-0.00781007
-0.0341037
0.0226062
0.0114975
0.0123115
0.0376058
-0.0499172
-0.00556333
0.0657299
-0.0601665
-0.29657
-0.0172389
-0.138176
0.0481332
-0.079646
-0.133572
0.00630314
0.0699441
-0.0762473
0.00591787
-0.0311747
0.0245522
-0.0203045
0.157808
-0.137504
-0.089258
0.0770811
0.012177
0.0689424
0.0312506
-0.100193
-0.0642005
-0.0322311
0.0337009
-0.0303481
-0.00335283
-0.238604
0.13576
0.00244465
0.00243354
-0.0589481
0.0714134
-0.0124653
0.0655085
0.00944739
0.294294
0.020195
0.0877935
0.140617
-0.0265205
-0.114096
-0.445689
0.31013
0.135559
0.0111304
-0.132851
0.0488024
0.0918142
-0.146987
0.134431
0.0125563
-0.0922569
-0.00542421
0.0976811
-0.337876
0.236035
0.101841
-0.0647638
0.0575851
0.0071787
-0.0287047
0.094788
-0.116724
0.0219363
-0.151037
0.0178881
-0.0389422
0.186505
-0.147563
-0.000551569
-0.0152447
0.0157963
0.011764
-0.0321161
0.00528613
-0.117271
-0.156068
0.273339
-0.129253
0.0491849
-0.0288119
-0.0560467
0.0118925
0.0811767
-0.0930692
0.0125661
-0.011393
0.00853425
0.00285877
-0.000852919
0.00138697
-0.0212182
0.17477
-0.367984
0.0138181
0.0885617
-0.10238
-0.0769927
0.0744717
0.00252101
-0.0206814
0.0052703
0.0154111
-0.0118047
0.10937
-0.0975653
0.114344
-0.135022
0.0206783
0.11248
-0.227562
0.115082
0.00118185
-0.182619
0.315683
-0.133064
-0.0966747
0.029007
0.0676677
-0.00265077
-0.00154159
0.00419236
-0.0051519
0.105454
-0.100302
-0.0179636
-0.0195718
0.143041
-0.12347
-0.0253367
-0.00677941
-0.143953
0.274559
-0.130606
0.158174
0.136695
-0.294869
0.236459
-0.129473
-0.0391752
-0.0126668
-0.0564867
0.0691535
0.160473
-0.383195
0.156986
-0.338397
0.112324
-0.23734
-0.0045007
-0.0602631
0.00219944
0.0073908
-0.00959024
0.109759
0.165064
-0.274824
-0.320574
0.171355
0.149219
0.269925
-0.160166
0.187654
-0.252457
0.0648024
0.165152
0.0147922
0.0026556
-0.0324788
-0.279089
0.180676
0.0984121
0.0863517
-0.204186
0.117834
-0.105897
0.0284319
0.0774653
-0.108034
-0.0174321
-0.168796
0.100159
-0.098518
0.0331395
-0.000127246
0.0270204
-0.0268931
-0.208553
0.0959831
0.148005
-0.186947
-0.127939
0.162419
-0.0344795
0.160261
-0.277532
0.0185971
0.0722881
0.0154395
-0.0877277
-0.00229997
0.00345679
0.0984803
-0.00408583
-0.00880404
-0.178632
-0.0201958
0.198828
0.176032
0.0856351
-0.261667
0.0964341
-0.0977035
0.00126935
0.0738267
-0.00287133
-0.0709553
0.00327431
-0.0105507
0.00727637
0.303066
-0.144892
-0.0658416
0.106309
-0.188214
0.118699
0.00674651
-0.132839
0.126092
-0.253905
-0.00825927
0.262164
0.00440508
0.0240298
-0.0284349
-0.175908
-0.1757
0.351608
-0.0861053
-0.0143057
0.0102199
-0.115667
-0.121378
0.237044
-0.093575
0.00055775
0.184982
-0.147051
-0.0379308
-0.0179804
-0.14723
-0.140113
0.127244
0.0128693
0.0869433
-0.0789338
-0.00739033
-0.00942046
0.0168108
-0.101343
0.00908638
0.198457
0.0875306
-0.245531
-0.0923455
-0.00516448
0.328359
-0.208624
-0.119735
0.132961
-0.150045
0.0170845
-0.0715247
-0.00546808
-0.307817
-0.0641879
0.372005
0.278598
-0.0909431
-0.064455
-0.163004
0.227459
-0.227637
-0.0929372
0.0096796
0.0775172
-0.0435745
-0.0339427
-0.0815365
0.198369
-0.116833
-0.0124947
-0.0658823
-0.0508094
0.0424782
0.00833115
0.0191681
-0.0153939
-0.00377417
0.00609442
-0.00605215
-0.0642468
0.0608616
-0.00173826
0.00249545
-0.0304367
-0.147328
-0.258266
0.135478
0.122788
0.215804
0.0938845
0.0152055
-0.0297668
0.0145613
-0.00336539
-0.00802763
-0.151867
-0.162914
0.314782
-0.204314
-0.0481427
-0.155209
0.143726
0.0114824
-0.0738943
0.0801974
0.00486669
-0.0202024
0.0196508
-0.0049031
0.0816141
-0.38186
0.275151
0.106709
-0.357012
0.15014
0.206872
0.174585
0.177916
-0.352502
0.0575707
0.127411
0.057309
-0.0457153
0.124858
-0.268811
0.00235249
-0.187243
-0.26127
-0.29208
0.238225
0.0538543
0.331803
-0.142312
0.0678485
-0.0640217
-0.00382687
0.0698498
-0.0746539
-0.0527421
0.0451441
0.00759801
-0.0893379
0.0679885
-0.0115176
-0.113235
0.0983363
0.0875395
-0.185876
0.0620647
-0.0747315
-0.0391139
-0.0116955
-0.00937256
-0.00299402
0.0123666
0.0878284
0.00434803
-0.0275723
0.245642
-0.122569
-0.15652
0.00236617
0.0753935
-0.0777597
0.020995
0.0617226
0.0511185
-0.0418951
0.0714994
-0.0739174
0.00241791
0.323817
-0.108014
-0.01743
0.283389
-0.177177
-0.106212
-0.00400884
-0.0155222
0.108186
-0.118322
0.0101358
0.0770266
-0.0671492
-0.00987739
0.00299441
-0.0768887
-0.210926
-0.244299
0.286585
-0.103923
-0.182663
0.186687
0.0998986
0.125055
-0.142876
-0.129403
-0.106722
0.0379709
0.0395463
0.102097
0.00355688
-0.105653
0.107462
-0.104497
-0.00296527
-0.00282817
-0.00862949
0.0114577
-0.206315
-0.140441
0.346756
-0.0907873
0.0108435
0.00144683
0.0393482
-0.347165
-0.025025
0.0915469
-0.00636406
0.0662367
-0.180237
-0.265452
0.0917095
-0.0382902
0.0486105
-0.0398288
-0.0129134
-0.0158501
0.0175459
-0.00169575
0.247821
0.144755
0.129545
0.118031
-0.247576
-0.00709502
-0.0282882
0.0353832
0.124323
-0.118859
-0.00546413
-0.106505
0.207741
-0.101236
0.409517
-0.355831
-0.0536863
-0.0678605
0.0611329
0.0355805
0.100568
0.318493
-0.118896
-0.199597
0.000719043
0.0136223
-0.0587261
0.0451037
-0.0074517
0.0875833
-0.0541259
-0.00200589
0.0561318
-0.282938
0.136383
0.146555
-0.0191876
0.00663663
-0.00187438
-0.234583
0.116689
-0.135307
-0.122959
0.0983831
0.00508689
0.047963
-0.0530499
-0.215007
0.0968346
0.118173
0.15001
0.151611
-0.301621
-0.0564769
0.0858247
-0.0293478
-0.0511674
-0.0137206
0.0813658
-0.0955294
0.0141636
0.111015
-0.105689
-0.0053253
0.0868264
0.120087
-0.206913
0.202681
-0.356435
0.153754
0.0838431
-0.011555
-0.120189
0.101575
0.0186139
-0.160614
0.0326745
0.235738
-0.157644
-0.078094
0.270801
0.0575584
-0.414304
0.0351762
0.379128
0.0760245
0.00319708
0.0134446
0.110879
0.0749227
0.00703849
-0.0819612
0.0191918
-0.149711
0.0068835
-0.330953
0.163026
0.167927
0.0809962
0.393743
-0.00136868
-0.000955046
0.0778962
-0.0769411
0.261749
-0.159388
-0.102361
-0.00141603
0.00453127
-0.114308
-0.0846389
0.198947
-0.283038
0.129146
-0.0358058
0.0356786
-0.136146
0.0650044
-0.0802419
0.0152375
0.157264
-0.140131
-0.017133
0.113095
0.0143837
-0.127478
0.0830344
0.169437
0.174909
-0.344345
-0.105393
-0.0180758
-0.241762
0.103971
0.137791
-0.00251456
0.000933775
0.00158078
0.0650961
-0.0586459
-0.00645021
0.161921
0.00550849
-0.0768525
0.065169
0.0116835
0.0101137
0.00888426
0.10213
-0.0139287
0.423446
-0.00106257
0.00241291
0.344711
-0.125334
-0.0847354
0.0282585
0.165912
0.100949
-0.266861
0.00298015
0.000479542
-0.000587824
0.000108282
0.068329
-0.00509953
0.00767143
-0.0025719
0.224611
0.236866
-0.000968613
0.00242881
-0.0014602
0.0948078
-0.253465
0.0301137
0.0876941
0.0469164
-0.0552938
0.00837741
0.122471
-0.113587
0.0932054
-0.024263
0.215587
-0.113346
0.130415
-0.0170686
0.260556
-0.413227
0.152671
0.123876
-0.132101
0.00822531
0.0742048
-0.00869628
-0.0776239
0.0803572
-0.00273327
-0.00768932
0.0105861
-0.00289683
0.0763718
-0.000347334
0.0192334
0.0346615
0.331181
-0.161745
0.108475
0.0801825
-0.0169392
-0.0632433
-0.0154439
0.0181442
-0.00270029
-0.199054
0.112901
-0.00386622
0.0734131
-0.0695469
-0.0148713
0.106497
-0.109823
0.101722
0.00810102
-0.298065
-0.123795
0.0145488
-0.0518074
-0.128061
0.110955
0.0171053
-0.337591
0.190251
0.0032157
-0.00354322
0.000327513
0.0121729
-0.125519
-0.181909
0.360221
0.0319167
-0.0706644
0.0387478
0.00265001
-0.0212043
0.130482
-0.109277
0.0104763
0.167296
-0.141862
0.0187895
-0.00771767
-0.0147848
0.0183219
-0.003537
-0.140211
0.244467
-0.104256
0.135997
0.257101
0.0759477
-0.084788
-0.154507
0.125357
0.0291505
0.00471839
-0.00390421
-0.000814183
-0.0304575
0.291013
-0.0394581
0.0526039
-0.0131459
-0.140205
-0.0143025
-0.0320682
0.0282202
0.00384796
0.221376
0.110278
-0.331654
-0.0716209
0.0773527
-0.00573181
-0.00205504
0.0234955
0.000628231
-0.00327901
0.000110818
0.00217652
-0.00228734
-0.00145204
0.000349686
0.312425
-0.00481598
0.0149609
-0.0101449
0.095438
-0.00779999
0.0547164
-0.148205
-0.0717769
0.442975
-0.197819
-0.046889
-0.0497856
0.000875352
-0.00145989
0.000584542
0.0596923
0.0110264
-0.0707187
0.0573127
0.151446
-0.00708332
0.182088
0.103387
-0.285476
0.0138248
-0.0854457
-0.340072
0.197753
0.142319
0.0834857
0.152252
-0.00150447
0.00136523
0.142465
-0.163647
0.0211829
0.00153146
-0.000786557
-0.000744908
0.176258
-0.273979
0.0977212
-0.226387
-0.0155595
-0.0120078
-0.288662
0.171151
0.117511
-0.081434
0.0788764
0.283841
-0.117929
-0.0745889
-0.115626
0.190215
0.0157397
-0.122568
0.105354
0.131099
-0.236453
-0.131131
-0.00616807
-0.106392
0.0283543
0.078038
0.317651
0.0545071
-0.372158
0.0854109
-0.00264807
0.00275889
0.0875341
-0.0956697