/*--------------------------------*- C++ -*----------------------------------*\
| =========                 |                                                 |
| \\      /  F ield         | OpenFOAM: The Open Source CFD Toolbox           |
|  \\    /   O peration     | Version:  v2012                                 |
|   \\  /    A nd           | Website:  www.openfoam.com                      |
|    \\/     M anipulation  |                                                 |
\*---------------------------------------------------------------------------*/
FoamFile
{
    version     2.0;
    format      ascii;
    class       volVectorField;
    location    "200";
    object      U;
}
// * * * * * * * * * * * * * * * * * * * * * * * * * * * * * * * * * * * * * //

dimensions      [0 1 -1 0 0 0 0];


internalField   nonuniform List<vector> 
27915
(
(1.04667 -0.0215409 9.43615e-21)
(1.23225 -0.0827986 -4.20504e-20)
(-0.118953 -0.0257808 0)
(0.0565662 0.0296503 -4.54299e-21)
(1.13119 -0.00449938 -4.96977e-21)
(1.06195 -0.0231626 -4.31206e-21)
(0.528116 0.044819 0)
(1.16225 -0.066817 1.74518e-20)
(1.12402 0.014411 0)
(1.09868 0.0406628 3.1997e-23)
(0.862104 -0.108318 0)
(0.975338 -0.0274488 1.41737e-21)
(1.27916 -0.167414 -2.8882e-20)
(0.426449 0.0428614 -1.01815e-20)
(0.533442 0.0785958 -1.22714e-20)
(1.03179 -0.084863 -2.74102e-21)
(0.851054 0.0649616 -5.34932e-22)
(1.13395 -0.0592039 1.20393e-21)
(0.78116 -0.0477249 0)
(0.985319 -0.0604663 -1.16822e-22)
(0.419541 0.0412524 9.25335e-21)
(1.00363 -0.0297421 -2.27551e-21)
(0.831173 0.0645626 -1.29276e-21)
(1.046 -0.0218898 -5.01656e-21)
(1.0058 -0.00141491 3.03697e-22)
(1.01179 -0.0246377 -1.80488e-21)
(0.9967 -0.0159548 -5.31081e-21)
(0.570517 -0.625962 -1.65385e-20)
(0.0746153 0.0324714 4.36878e-21)
(-0.0473951 0.000170315 4.0069e-20)
(1.21264 -0.161255 -4.92129e-20)
(1.02802 -0.0102046 -1.51444e-21)
(0.852089 0.0667029 -9.5428e-21)
(0.983931 -0.0611262 -5.94212e-23)
(0.67233 -0.0345221 1.47821e-20)
(0.996607 -0.0164494 -3.13887e-21)
(0.992249 -0.0251077 -3.47954e-21)
(1.10405 -0.0523865 0)
(0.721933 -0.195591 -2.47183e-20)
(1.07719 -0.0215997 8.92688e-21)
(1.00417 -0.00571473 -1.70757e-21)
(1.0904 -0.0843483 -1.69709e-20)
(1.00219 -0.00834129 1.624e-21)
(1.18224 0.0311041 5.06078e-20)
(1.08211 0.0582014 0)
(1.00052 -0.000211916 -1.12162e-21)
(0.979711 -0.020267 -3.95837e-21)
(1.0869 0.0253206 -1.5743e-20)
(1.04112 -0.0182096 0)
(1.02486 -0.0272644 0)
(1.08778 0.0261138 -1.62043e-20)
(1.17992 0.0314931 -5.58225e-20)
(1.11294 0.0674022 1.6131e-20)
(1.07746 -0.0239169 0)
(1.30921 -0.118274 0)
(0.0317027 0.010958 1.9375e-20)
(0.675381 0.0789946 0)
(1.01787 0.000254737 2.25351e-22)
(1.0042 -0.0295429 -2.09913e-21)
(-0.0238042 0.0222166 0)
(1.02769 -0.0103753 0)
(1.05856 -0.222569 -3.07678e-21)
(1.16655 0.00236201 3.97114e-20)
(1.32047 -0.153888 2.62017e-20)
(1 -0.00021065 0)
(1.07789 0.00448647 0)
(1.08199 0.0378123 1.10291e-20)
(1.23043 -0.0383705 2.4562e-20)
(0.544322 0.0741147 -1.30611e-20)
(0.934894 -0.0577878 0)
(1.09455 -0.0798023 -3.56312e-21)
(-0.00829805 -0.00116732 -3.4649e-20)
(1.00337 -0.00274174 0)
(1.01177 -0.0207446 0)
(1.05977 -0.116261 0)
(1.12869 -0.150616 -1.11232e-20)
(1.11954 0.0495598 3.08308e-20)
(1.04081 -0.110456 -5.25287e-21)
(-0.120653 0.0630686 0)
(0.974978 -0.029803 -5.75199e-21)
(1.09097 -0.0823583 1.76284e-20)
(1.07779 -0.0227636 0)
(1.01171 -0.0240135 1.00108e-21)
(1.02501 -0.0266384 -1.11277e-21)
(0.0106063 0.00997165 -3.90573e-20)
(1.01659 -0.00743929 0)
(1.04054 -0.0184654 0)
(0.93713 -0.0582959 1.60278e-20)
(1.12121 0.098462 1.20829e-20)
(1.13491 -0.0681486 -2.03364e-20)
(0.992808 -0.0156886 -4.45157e-21)
(1.07531 0.0587321 0)
(1.03264 -0.0824355 -2.17805e-21)
(1.21066 -0.156771 4.93194e-20)
(0.935059 -0.0471591 0)
(1.08755 0.0271176 1.9952e-20)
(1.03859 0.0679931 -2.92628e-20)
(1.07334 0.00958296 -7.13942e-21)
(0.999118 -0.0209742 2.87183e-21)
(0.494701 0.0693408 -1.40986e-20)
(1.00507 -0.0170565 -1.85941e-21)
(1.00045 -0.000149581 0)
(0.427612 -0.0774291 0)
(1.09403 -0.0818326 0)
(1.00277 -0.00242806 9.34306e-22)
(1.04707 0.00359221 8.96667e-21)
(0.991981 -0.00499559 7.5891e-22)
(1.09877 -0.216551 0)
(1.0571 -0.271729 1.9467e-20)
(1.09794 0.0401175 2.42718e-20)
(0.999714 -0.00561723 0)
(0.978994 -0.0575944 -6.06889e-21)
(1.1246 0.100705 0)
(0.305239 0.047676 -3.89044e-21)
(1.25508 -0.0661521 2.23195e-20)
(1.0824 0.0579073 0)
(0.573372 0.0458573 1.00437e-20)
(1.00103 -0.0235369 2.64186e-21)
(1.12557 0.011944 0)
(1.01768 -0.000563311 -8.82905e-22)
(1.2318 -0.0143646 6.36131e-20)
(1.12666 0.00914871 1.69271e-20)
(1.15157 -0.242372 2.64466e-20)
(1.13598 -0.0580466 2.81193e-21)
(1.05302 -0.0403262 -8.11241e-21)
(1.01749 -0.000615795 -8.90407e-22)
(0.979616 -0.0590132 1.25303e-20)
(0.697846 0.0637473 -2.31718e-21)
(1.09562 0.0541664 1.07845e-20)
(1.04148 -0.0773054 0)
(1.07631 -0.024276 4.25565e-21)
(1.00295 -0.00950075 -1.87985e-22)
(1.01691 -0.00742737 7.62381e-22)
(-0.104853 -0.0273 0)
(0.215848 0.0113555 6.91773e-21)
(-0.274621 -0.00653537 -9.38071e-20)
(1.00442 -0.00581919 0)
(1.0115 -0.0210877 0)
(0.898979 -0.0429479 0)
(1.01629 -0.00716241 0)
(0.0975226 0.0336078 -2.57935e-20)
(-0.00523647 0.0248439 0)
(1.05947 0.00965439 -6.81353e-22)
(0.555689 0.0783072 5.61034e-21)
(1.0925 -0.214966 2.79808e-21)
(1.01754 0.000235197 -1.84948e-21)
(1.01171 -0.0530427 6.15837e-22)
(0.708129 0.077398 8.35605e-21)
(1.22908 -0.0136921 -4.66854e-20)
(1.01477 -0.00032101 -2.00703e-21)
(1.01268 -0.000480044 0)
(1.03831 -0.111691 6.13446e-21)
(1.09866 0.0679506 -1.52016e-20)
(0.831227 0.066185 0)
(1.16832 0.00391457 0)
(1.03542 -0.11036 4.93378e-21)
(1.04265 0.0033305 7.10518e-21)
(1.04439 -0.0068697 0)
(0.928066 -0.0356753 1.48241e-22)
(1.06126 0.00430945 0)
(0.721869 -0.208292 0)
(1.18562 -0.00842888 -2.36894e-20)
(1.12036 0.0485009 -2.20296e-20)
(1.04119 -0.0172368 4.07219e-21)
(1.01338 -0.0394581 3.07751e-23)
(1.07058 -0.00961098 -6.61137e-21)
(-0.193949 -0.0139375 0)
(1.23174 -0.0570895 0)
(1.04196 0.00303414 3.9059e-21)
(1.22779 -0.0829992 -7.3183e-20)
(0.586484 0.0627573 -2.75294e-20)
(1.04403 -0.00732946 5.96316e-21)
(0.834739 0.0632426 -1.06767e-20)
(1.00307 -0.000469405 0)
(1 -8.62223e-05 0)
(1.13166 0.0688376 0)
(1.09897 0.0275876 1.50445e-20)
(1.04678 -0.0205393 9.68831e-21)
(1.01164 -0.051919 2.9015e-22)
(1.31564 -0.131873 2.017e-20)
(1.04347 -0.0058872 -4.2458e-21)
(1.08252 0.0384474 -5.8317e-21)
(1.00315 -0.000367954 0)
(1.15366 0.0465976 2.60518e-20)
(0.288268 0.0440442 0)
(1.12715 0.0112923 0)
(1.15337 0.0216745 0)
(1.00224 -0.00181554 1.67632e-23)
(-0.116781 -0.0252661 9.98572e-20)
(1.06616 -0.123233 -9.30038e-22)
(0.991083 -0.0346738 -6.81771e-21)
(1.116 0.0844677 0)
(1.00209 -0.00180353 -9.75768e-22)
(1.0024 -0.000339134 -2.95065e-23)
(1.00315 -0.00263691 4.64401e-22)
(0.28506 0.0137724 -8.31864e-21)
(0.976126 -0.0279078 -7.5541e-21)
(1.10365 -0.00663463 1.3073e-20)
(-0.241939 -0.00990054 -1.14379e-19)
(0.465847 0.0439817 0)
(1.18384 -0.225465 0)
(1.14337 0.100473 -1.39787e-20)
(1.09917 -0.00641325 0)
(1.07295 0.0588637 0)
(0.980569 -0.0203376 3.90466e-21)
(1.07869 0.00391597 0)
(0.563658 0.0744714 0)
(1.04446 -0.093204 0)
(1.06663 0.0228623 4.72888e-21)
(1.15466 0.0593591 -1.31308e-20)
(0.02522 0.0248949 -6.35701e-20)
(1.04621 -0.020001 -9.67229e-21)
(0.507159 0.0701996 4.3579e-20)
(0.981745 -0.0589618 -1.08868e-20)
(1.09501 0.0379745 1.19127e-20)
(0.999689 -0.012778 -2.33151e-21)
(1.13306 0.0697743 6.91802e-21)
(0.641324 0.0458184 9.74268e-21)
(1.13638 0.0019045 -1.11676e-20)
(1.08426 0.0153847 1.76274e-21)
(0.698611 0.0782588 5.87651e-21)
(1.09264 0.0759402 1.02325e-21)
(1.20415 -0.0598759 1.5758e-20)
(0.99957 -0.00640379 -5.0936e-21)
(1.04884 -0.116456 -8.15082e-21)
(1.10588 -0.0511755 1.10693e-20)
(1.15183 -0.0918811 0)
(0.988121 -0.0346926 0)
(1.31498 -0.122452 0)
(1.04068 -0.0168355 -1.91069e-21)
(0.734571 0.0536015 9.52138e-21)
(1.01589 -0.00717751 0)
(0.38809 -0.0649762 1.83677e-20)
(1.0339 -0.108607 -5.12835e-21)
(1.04415 -0.0061757 8.26977e-21)
(1.04569 -0.0277962 -1.34581e-21)
(1.18606 0.0464703 -4.18478e-20)
(1.06314 -0.0232232 0)
(1.14714 0.0970337 7.5555e-21)
(1.00604 -0.00635952 3.45372e-22)
(0.996634 -0.00824936 3.08694e-23)
(0.591394 0.0638733 0)
(0.92908 -0.807312 -4.72141e-20)
(1.12808 0.00844556 -3.14155e-20)
(1.00025 -0.00735602 -4.97822e-21)
(0.939355 -0.062434 1.65137e-20)
(1.08174 0.0597571 1.51171e-20)
(0.982322 -0.0600774 5.95312e-21)
(1.28251 -0.162203 8.5317e-20)
(1.09767 0.0681667 2.18128e-20)
(1.00143 -0.0100576 0)
(1.07835 0.0314804 -7.46267e-21)
(1.10894 0.0689318 -1.2393e-20)
(1.00513 -0.0166523 0)
(1.11763 -0.0471756 2.71544e-20)
(0.963016 -0.0668877 -5.02295e-21)
(1.07819 0.0321004 -2.36735e-21)
(1.06997 -0.0104192 3.62467e-21)
(1.23248 -0.0189017 2.9745e-21)
(0.227396 0.0482137 -1.20642e-20)
(-0.102962 -0.00678161 -3.87593e-20)
(1.01916 -0.0532127 -7.45716e-23)
(1.00349 -0.00258303 -7.51013e-22)
(1.02883 -0.0084211 0)
(1.11627 -0.0507955 1.23634e-20)
(1.11001 0.0699715 8.39168e-21)
(1.022 -0.00233833 -3.32632e-21)
(0.999687 -0.00591769 -2.50005e-21)
(1.15153 0.0219953 1.12915e-21)
(0.981154 -0.0195088 0)
(1.00283 -0.0285679 2.26359e-21)
(1.00274 -0.00922381 1.69593e-22)
(1.01109 -0.206391 -7.36675e-20)
(1.13236 -0.0666458 -1.31825e-20)
(0.971506 -0.0525309 0)
(0.0923579 0.0315462 2.23134e-20)
(1.06039 0.00386562 0)
(0.680476 0.0766183 -1.74851e-20)
(0.394996 0.0497161 -1.35562e-20)
(0.0657277 0.0308664 2.65247e-20)
(1.09358 0.0758937 2.18016e-21)
(0.721118 0.0644416 -5.54416e-22)
(1.03346 -0.0864486 1.31095e-21)
(0.0532173 0.0135463 1.21169e-20)
(0.90124 -0.0411665 -1.56054e-20)
(1.03914 -0.0829921 1.16774e-22)
(1.18741 -0.0172786 -3.08506e-20)
(0.976348 -0.0561327 -9.46376e-21)
(1.14805 0.0956931 8.22314e-21)
(-0.126045 -0.00731827 2.20055e-20)
(1.09462 0.0666524 -4.50822e-21)
(1.11832 -0.049129 -4.29013e-20)
(0.990951 -0.0234685 0)
(1.21117 -0.166815 9.66067e-21)
(1.07366 0.0116434 -4.5473e-21)
(1.01311 -0.00147289 0)
(0.990565 -0.0337568 0)
(-0.0759711 0.0124141 0)
(1.20494 -0.0568856 0)
(0.987987 -0.0142144 -7.46801e-21)
(1.13329 0.0814071 0)
(1.02034 -0.0275229 -1.70785e-22)
(0.867584 -0.109406 1.35517e-20)
(1.00237 -0.00862169 -2.99142e-21)
(1.09434 0.065813 -7.39238e-21)
(0.065861 0.0313074 3.74779e-20)
(0.999923 -0.0126888 0)
(1.3104 -0.128796 2.01596e-20)
(1.00133 -0.0230999 -1.66568e-21)
(1.08661 0.0586111 -1.80081e-20)
(1.31527 -0.155581 -5.56724e-20)
(0.270524 0.00987304 -8.17305e-21)
(0.150309 0.0419064 -1.69261e-20)
(0.976921 -0.0576263 -6.4863e-23)
(-0.0082562 0.0246386 -6.55613e-21)
(1.01289 -0.0013635 8.41959e-22)
(1.01531 -0.000363479 6.68065e-22)
(1.01558 -0.00690682 0)
(1.15405 -0.0703924 2.89285e-20)
(1.17761 -0.290672 2.17062e-20)
(0.977879 0.068533 -2.99519e-20)
(1.01027 -0.00108226 -5.2397e-22)
(0.963435 -0.00836694 8.63169e-22)
(1.06624 -0.0242302 8.5809e-21)
(1.1672 0.06469 -7.98718e-21)
(0.92751 -0.0461174 0)
(1.00694 -0.0122123 -6.94934e-22)
(1.17927 -0.0541171 0)
(1.139 -0.0364504 2.29746e-21)
(1.13523 0.00304452 -1.05966e-20)
(0.990417 -0.0233083 -6.77708e-21)
(0.0437961 0.0274218 5.4071e-20)
(0.899404 -0.046576 1.49615e-20)
(0.0688037 0.017423 1.53149e-20)
(0.038337 0.0281529 2.89519e-20)
(1.12555 0.0136677 0)
(1.17043 0.00291659 -1.45359e-20)
(1.13166 0.0804272 -5.35661e-21)
(1.20677 -0.168918 0)
(0.962975 -0.065369 5.88798e-21)
(1.04586 -0.0946877 -8.48795e-22)
(1.09552 0.0390127 6.92625e-21)
(1.15233 -0.0752737 0)
(1.18344 -0.287661 -2.53086e-20)
(1.09946 -0.542284 2.28916e-20)
(-0.149949 0.0127542 0)
(1.00302 -0.029074 0)
(1.04773 -0.292983 0)
(0.776262 -0.246644 -3.14309e-20)
(1.06155 0.0174684 5.39707e-21)
(1.18494 -0.0179886 2.25889e-20)
(0.194114 0.0454603 1.65825e-21)
(1.10425 0.0728041 0)
(1.10397 -0.00508839 -5.46796e-21)
(0.281856 0.0467167 4.20342e-21)
(1.15812 -0.241831 -4.48765e-20)
(1.08163 -0.087269 -1.68949e-20)
(0.988384 -0.0136472 9.10858e-21)
(0.295475 0.0151991 8.16429e-21)
(1.08618 0.0542751 -9.08089e-21)
(0.646401 0.0776328 -3.31124e-21)
(1.01976 -0.0256628 -1.14896e-21)
(0.994996 -0.00699027 -3.45553e-21)
(1.23319 -0.0168566 0)
(1.17736 -0.0523252 0)
(1 -0.00130517 -2.0918e-21)
(1.08552 -0.717317 0)
(0.764602 -0.249947 -3.96594e-20)
(1.04813 -0.140987 0)
(1.11689 -0.052819 1.17796e-20)
(1.08815 -0.0855078 -1.62881e-20)
(1.08948 0.0728104 0)
(1.02311 -0.0857692 7.76854e-22)
(0.937301 -0.166698 -7.45157e-21)
(1.14419 0.00412486 1.73836e-20)
(0.967117 -0.0404069 7.1892e-21)
(1.04712 -0.00970335 0)
(1.04546 -0.0233365 7.60726e-23)
(0.63647 0.0719021 1.34923e-21)
(0.936914 -0.0617489 -1.84265e-20)
(0.581349 0.0675351 -2.71912e-20)
(0.975068 -0.0310729 0)
(1.08138 0.0593198 -1.61137e-20)
(1.1795 -0.0491225 4.10589e-20)
(1.00102 -0.0119156 0)
(1.07723 -0.277855 6.56681e-21)
(1.09626 0.0547113 -1.16237e-20)
(1.09852 -0.0412083 1.6744e-20)
(1.27557 -0.0266393 0)
(1.19717 -0.0509296 0)
(0.0597548 0.0124554 0)
(1.10263 -0.000205306 -1.10069e-20)
(1.07246 -0.283357 8.06945e-21)
(1.12442 -0.0403349 0)
(1.04759 0.004108 -5.8783e-21)
(1.10558 0.0330466 0)
(0.982284 -0.627582 0)
(1.19122 0.0488058 2.16934e-20)
(0.977148 -0.0343226 -2.9977e-21)
(1.1398 0.0671695 7.2548e-22)
(0.181484 0.0447646 3.0219e-20)
(1.10387 -0.0224368 -1.19798e-21)
(1.00046 -0.00705989 -2.13939e-21)
(1.00002 -0.000288653 5.12174e-22)
(0.0851565 0.0334179 -3.95357e-20)
(0.97269 -0.0217393 0)
(1.17809 -0.221064 -1.66314e-20)
(1.00031 -0.00713526 4.14413e-21)
(1.12547 0.0186842 2.02109e-20)
(1.14153 -0.0501902 0)
(1.00421 -0.0097112 2.46078e-21)
(1.08407 0.0242813 0)
(1.00001 -0.00115371 0)
(1.09862 0.0254716 -3.59025e-22)
(1.06508 -0.0236909 9.65636e-21)
(1.25755 -0.126879 3.59581e-20)
(1.00415 -0.00888513 -1.59763e-21)
(1.23323 -0.0401755 1.35348e-20)
(1.04579 -0.138364 6.85495e-21)
(1.00618 -0.00671422 -7.43887e-22)
(0.00872943 0.0262496 5.6222e-21)
(1.24287 -0.114716 -2.25166e-20)
(1.14231 0.00434404 0)
(0.0630243 0.0313119 0)
(1.08794 -0.171642 -1.71168e-20)
(0.734107 -0.458402 1.59997e-20)
(1.14019 -0.0485703 0)
(1.02017 -0.0262483 1.25759e-21)
(0.991595 -0.00484135 4.97901e-22)
(0.973794 -0.0544833 -1.29349e-20)
(0.92078 -0.0788451 1.23925e-20)
(1.10501 -0.0213318 0)
(1.17811 -0.0469905 -3.77525e-20)
(1.255 -0.130945 -4.03866e-21)
(0.240104 0.0458149 8.80024e-21)
(0.920131 -0.081292 0)
(0.999733 -0.00645591 0)
(1.12484 0.00980805 4.75653e-20)
(1.00465 -0.00988684 -9.18344e-22)
(1.32851 -0.151532 3.08106e-20)
(1.00002 -0.00310989 -2.31706e-22)
(1.00157 -0.00520127 0)
(1.26857 -0.0250448 0)
(1.14579 0.0524326 -2.42733e-21)
(1.00435 -0.00883198 -1.11168e-22)
(1.17916 0.00500507 0)
(1.0978 0.0244459 3.23964e-22)
(0.672271 0.0773429 -1.54732e-21)
(1.09798 -0.0768827 0)
(0.997817 -0.0185646 0)
(1.06031 0.00972895 3.54238e-21)
(1.07442 0.00993678 -2.31915e-21)
(1.00151 -0.00983603 -1.94151e-21)
(0.427983 -0.0357457 0)
(0.997038 -0.00728809 3.91472e-21)
(1.02301 -0.0576961 0)
(-0.158583 -0.0119466 0)
(1.01349 -0.0206153 0)
(1.02264 -0.0877633 0)
(0.175951 0.0417879 0)
(0.0522034 0.0275778 4.38893e-20)
(1.00696 -0.00680328 0)
(1.1424 0.0834153 0)
(1.07832 0.0211082 -1.03516e-22)
(1.16879 -0.23882 6.80757e-21)
(1.0783 0.0203606 1.53698e-21)
(1.22991 0.030154 6.65428e-20)
(0.0969724 0.0347333 2.47423e-20)
(0.992572 -0.0381121 -3.1238e-21)
(1.12929 -0.00473227 -1.49325e-20)
(1.14136 0.0505964 -2.52111e-21)
(1.00535 -0.0250907 0)
(0.385055 0.046824 1.37442e-20)
(1.01602 -0.000313715 1.63867e-21)
(1 -6.8104e-05 3.96494e-21)
(1.17723 0.0341416 -1.48479e-20)
(1.24771 -0.113542 -5.00852e-20)
(0.0214056 0.0261281 -6.12968e-20)
(0.974339 -0.0560825 3.67988e-21)
(1.11778 0.00208745 0)
(1.10607 0.0319047 -9.78247e-22)
(1.13321 -0.150038 6.91352e-21)
(0.029896 0.0268097 -5.62644e-20)
(0.437371 0.0574886 2.00567e-20)
(1.04347 -0.0258999 -4.95854e-21)
(1.02915 -0.00881118 -1.87326e-21)
(1.0397 -0.0563476 2.70604e-21)
(1.02431 -0.0579472 9.48272e-22)
(1.11598 0.00167002 0)
(0.966906 -0.068558 -1.39475e-20)
(1.01307 -0.0219574 0)
(1.07658 0.0108663 0)
(1.30861 -0.0737329 2.46076e-20)
(1.04854 -0.0343591 7.70734e-23)
(1.08586 -0.0850356 1.66325e-20)
(1.10211 0.000684472 0)
(1.00001 -0.000129252 0)
(1.07754 0.00638746 0)
(1.17563 0.044124 0)
(0.9223 -0.0857437 -1.24054e-20)
(1.07513 -0.0264795 1.93563e-20)
(1.01011 -0.0324169 0)
(1.20841 -0.00309354 0)
(0.524736 0.076495 0)
(0.734 -0.194631 0)
(1.08225 0.0655702 -1.63633e-20)
(1.0742 -0.33547 4.78629e-21)
(1.02237 -0.00236941 2.15698e-21)
(1.10301 0.0606102 0)
(1.04748 -0.0092707 -7.41354e-21)
(1.0173 -0.000444943 0)
(1.04077 -0.0155335 -7.06228e-23)
(1.08288 -0.339752 0)
(1.00229 -0.00774043 0)
(0.563662 0.0770469 2.25273e-20)
(-0.130373 0.0145433 -3.31088e-20)
(0.97429 -0.194861 -9.49745e-22)
(1.07633 -0.0260572 -1.85371e-20)
(0.535085 0.0652732 -4.54107e-21)
(1.11848 -0.0152463 1.53502e-20)
(1.04893 -0.267198 -8.90695e-21)
(1.00695 -0.0112398 -6.81024e-22)
(0.99472 -0.00637101 -2.24085e-21)
(1.16495 0.0484035 -2.98368e-20)
(1.08352 0.0251876 0)
(0.99593 -0.0764963 0)
(1.11434 0.0682009 -1.45201e-20)
(0.967981 -0.0225647 4.03456e-21)
(1.00417 -0.0363524 0)
(1.02025 -0.0540474 1.23951e-22)
(0.964805 -0.0690671 4.8063e-21)
(1.00468 -0.0303398 2.31611e-21)
(1.00272 -0.00887758 3.228e-22)
(0.998647 -0.00868348 -6.66898e-21)
(0.968204 -0.039387 3.56223e-21)
(1.04209 -0.0711834 0)
(1.01748 0.000141185 5.24447e-22)
(0.081561 0.0196395 -1.53787e-20)
(1.20828 -0.00561346 4.90175e-21)
(1.05735 -0.279213 9.75856e-21)
(1.0002 -0.000102976 0)
(1.06869 -0.0256348 7.63218e-21)
(1.0071 -0.011644 -1.55375e-22)
(1.09089 -0.27466 0)
(1.01292 -0.00060143 0)
(1.02282 -0.0108722 -5.18776e-22)
(0.925767 -0.0855167 1.25291e-20)
(1.03027 -0.0224753 4.90081e-22)
(1.08285 0.0797703 0)
(1.00258 -0.00235332 -6.35079e-22)
(1.06578 0.00768343 -4.11845e-20)
(0.407912 0.0429735 -1.74202e-20)
(1.11465 0.085095 0)
(1.00105 -0.00509532 1.97922e-21)
(0.257861 0.0482616 -1.47918e-20)
(1.09557 0.0772337 -1.70508e-20)
(0.996226 -0.0131768 0)
(1.0446 -0.00304014 -5.16921e-21)
(1.29874 -0.0704012 -3.98365e-20)
(1.04118 -0.0557295 0)
(1.14056 -0.0344415 -5.20656e-21)
(0.999467 -0.00323093 -1.22822e-21)
(1.02087 -0.933661 -1.10664e-20)
(1.06573 -0.021819 -1.29181e-20)
(1.16755 0.0666756 1.94972e-20)
(1.09913 -0.0427961 -1.81862e-20)
(0.997216 -0.00663696 -4.01217e-21)
(1.09149 0.0752072 -4.05535e-21)
(0.0087454 0.0266317 0)
(1.04757 -0.0337647 0)
(0.993117 -0.0151466 0)
(1.00005 -0.00031809 -2.36567e-21)
(0.996237 -0.0145939 2.94212e-21)
(1.10506 0.0554272 0)
(0.984997 -0.112613 0)
(0.994933 -0.0073881 -3.87105e-21)
(0.0146903 0.0262353 0)
(0.566608 0.0752306 -1.25414e-20)
(1.31193 -0.170104 0)
(1.01061 -0.0320821 0)
(1.13874 0.0682357 0)
(1.09116 0.0742323 0)
(1.0202 -0.00772613 2.16113e-21)
(0.999443 -0.0206547 -2.84555e-21)
(1.1137 0.074157 1.04781e-20)
(1.0536 -0.226374 -3.62995e-21)
(1.03993 -0.0435222 4.97156e-21)
(1.1023 0.0599962 0)
(0.308925 0.0187529 0)
(1.15482 -0.0731184 1.87114e-21)
(1.04954 -0.259044 9.04407e-21)
(1.00521 -0.0301433 3.10215e-21)
(1.00372 -0.00265333 0)
(-0.283237 0.00456398 -9.5568e-20)
(0.0189703 0.0136746 -1.85333e-20)
(0.953144 -0.420789 5.92753e-22)
(1.22479 0.0460489 7.12233e-21)
(0.490451 0.0326851 8.4117e-21)
(0.468196 -0.0307481 0)
(1.0784 0.0057996 0)
(1.11472 0.0185832 -9.7199e-21)
(0.815854 -0.149834 3.43293e-21)
(-0.228238 0.00856844 0)
(1.08118 0.0159431 6.80142e-21)
(1.12856 0.0803963 0)
(1.09755 -0.0792098 5.03215e-21)
(1.06105 -0.0178099 9.96795e-21)
(1.02539 -0.0291411 2.27779e-21)
(1.04695 -0.0745413 0)
(1.20117 -0.0277231 -7.69888e-21)
(1.00658 -0.0109885 -6.09678e-22)
(1.04415 -0.00857165 4.29849e-21)
(1.09999 -0.0381487 -8.69454e-21)
(1.13427 -0.145305 0)
(1.14492 0.0371034 -1.44703e-21)
(0.766479 0.0662839 -8.46608e-21)
(0.910605 -0.108054 0)
(1.02471 -0.0252756 -2.879e-24)
(1.00305 -0.00199859 -1.15823e-22)
(0.932539 -0.0477081 0)
(1.07935 -0.00200005 2.67593e-21)
(0.835972 -0.246626 0)
(0.475729 0.0304694 -6.81247e-21)
(1.08168 0.0652706 1.78239e-20)
(1.00163 -0.00544993 0)
(1.08379 0.0791522 0)
(0.986958 -0.061973 0)
(0.999639 -0.0272085 0)
(1.12957 0.0271897 0)
(1.07785 0.00758805 2.75091e-21)
(1.00003 -0.000264177 2.44141e-21)
(1.13242 0.0281503 1.39133e-20)
(0.923638 -0.0336242 0)
(0.324333 0.0138476 -7.0844e-21)
(1.07939 0.0304401 -5.37314e-23)
(1.11848 -0.0434892 -2.34917e-22)
(0.0982984 0.0237301 1.50704e-20)
(1.21047 -0.00945012 0)
(1.1493 -0.136191 0)
(0.999986 -0.000200895 0)
(0.999867 -0.000846859 -2.62493e-22)
(1.00872 -0.00686716 0)
(1.302 -0.290539 -1.24995e-20)
(1.10065 0.0687189 1.64399e-20)
(1.17195 -0.157383 3.0672e-21)
(0.579279 0.0778598 -1.40342e-20)
(1.10399 -0.0546099 -4.86748e-21)
(-0.277866 0.00397782 0)
(1.03375 -0.00735942 0)
(1.07085 -0.772896 -3.1623e-20)
(1.02335 -0.0111862 1.16358e-21)
(0.968222 -0.0215006 0)
(1.05802 -0.0476888 1.32556e-20)
(1.04079 -0.0194798 7.93895e-21)
(1.2278 -0.0575008 0)
(0.98817 -0.0612765 -4.81888e-21)
(1.04273 -0.0264953 -9.51656e-21)
(1.06575 0.0141341 7.22213e-21)
(0.991833 -0.0385238 0)
(1.31634 -0.166338 0)
(1.0599 -0.00956481 0)
(1.00185 -0.00722468 -2.71116e-21)
(1.08628 0.0538793 0)
(1.07383 0.0125243 0)
(1.04606 -0.118122 7.67064e-21)
(1.0172 -0.0141978 0)
(1.04022 -0.0197339 -3.74216e-21)
(1.09443 0.077307 1.87801e-20)
(0.989004 -0.013871 -4.40777e-21)
(1.04088 -0.0141847 0)
(1.04331 -0.00862525 -2.06568e-21)
(1.01515 -0.00071627 -7.60147e-22)
(1.08667 0.0590735 1.59157e-20)
(1.01804 -0.00166525 -3.12336e-21)
(1.03385 -0.0101515 -5.14022e-21)
(1.13229 0.0538464 1.05421e-20)
(0.92121 -0.0339811 -1.34612e-20)
(1.0586 -0.0465098 -1.12492e-20)
(0.451911 -0.0221368 0)
(1.00455 -0.00618208 0)
(1.11951 -0.0454901 0)
(0.305691 0.0500837 4.51736e-21)
(0.613794 0.0699197 2.30679e-20)
(1.20657 0.0643817 0)
(1.00387 -0.00791058 0)
(1.13816 -0.144403 -1.62513e-20)
(1.07726 0.0217407 9.68899e-23)
(1.00088 -0.00307257 2.51192e-21)
(1.02077 -0.0565397 2.67105e-22)
(1.10009 0.0273667 0)
(1.04541 -0.0734332 0)
(0.996832 -0.00754653 -4.2646e-21)
(0.992798 -0.0247064 4.87954e-21)
(1.03855 -0.0391937 -4.35481e-21)
(0.610291 -0.00288985 0)
(-0.139079 0.00617422 8.22083e-21)
(1.12994 0.0337711 -8.03039e-21)
(1.19851 -0.0487594 0)
(1.09174 -0.559346 -1.63221e-20)
(0.987482 -0.110865 7.56698e-21)
(0.999992 -0.000173019 -5.14985e-22)
(1.13338 0.0272461 -1.60053e-20)
(0.931898 -0.291016 -2.26862e-21)
(0.996609 -0.00286402 7.40365e-21)
(1.10975 -0.161195 2.45461e-20)
(0.989401 -0.0132939 -5.85636e-22)
(1.12272 0.0855989 3.05033e-21)
(0.917525 -0.0732252 -1.29826e-20)
(0.888002 -0.23438 -7.77662e-21)
(1.05454 -0.0952499 -1.03318e-21)
(1.01796 -0.00150546 3.10843e-21)
(0.85499 -0.158611 6.25556e-20)
(1.0199 -0.0557907 0)
(0.24906 0.0505274 -8.34374e-21)
(1.17799 0.0438517 0)
(1.27694 -0.256815 0)
(1.10041 -0.0397439 -6.32017e-22)
(1.08622 -0.28012 -4.24812e-21)
(1.03387 -0.00921421 -4.45732e-21)
(1.0071 -0.00714669 1.30189e-22)
(0.999111 -0.00961118 -2.63226e-21)
(1 -0.000120305 0)
(1.07925 0.0311371 4.15638e-21)
(1.00183 -0.022075 -1.39073e-22)
(1.07701 0.00812248 1.05907e-20)
(1.09016 -0.00449289 0)
(1.07999 -0.00131232 4.98098e-21)
(0.970228 -0.070601 0)
(1.14492 0.0360116 -1.05652e-20)
(0.122161 0.0288488 -5.43649e-20)
(1.05903 -0.00908769 4.29695e-24)
(1.00516 -0.00684526 -1.00945e-21)
(1.02503 -0.0286519 -8.62099e-22)
(1.10553 0.03529 1.0733e-20)
(0.997006 -0.00691862 0)
(1.15349 -0.0784189 1.52516e-20)
(1.0923 0.0184254 0)
(1.00713 -0.0104789 0)
(1.00007 -0.000570592 -7.07557e-22)
(1.10274 0.0693093 -1.72918e-20)
(1.14683 0.0812676 1.40981e-20)
(1.04158 -0.0405971 -2.58324e-21)
(1.07736 0.0224357 -6.48682e-21)
(0.790063 0.0665057 9.41903e-21)
(1.03411 -0.00709971 1.37455e-21)
(1.06369 0.0073405 6.84125e-21)
(0.291155 0.0464608 -1.61588e-20)
(1.09035 -0.0114708 -1.17287e-20)
(-0.0673383 -0.0294744 0)
(1.00078 -0.0029078 -2.21718e-21)
(1.08073 -0.0412482 0)
(1.09243 0.039095 0)
(1.23013 -0.0508305 4.32522e-20)
(0.999042 -0.00937583 0)
(0.964653 -0.0384227 -8.77159e-21)
(1.09971 -0.137974 -2.22354e-20)
(1.08631 -0.166991 7.97621e-21)
(0.976212 -0.200406 6.34927e-21)
(1.2827 -0.253211 3.55431e-20)
(-0.21684 0.00848534 -2.35275e-20)
(1.0804 -0.0402526 -1.42715e-21)
(0.494184 -0.0265726 0)
(1.00607 -0.00147177 0)
(0.65146 -0.00791739 0)
(1.04619 -0.0230036 -3.10297e-21)
(1.10082 -0.135876 2.53847e-20)
(0.830551 0.0674846 9.31627e-21)
(1.16157 -0.0638621 -3.23356e-20)
(1.09398 0.0379852 -1.38797e-20)
(0.988021 -0.00755823 2.57849e-21)
(1.1097 0.0136219 0)
(0.968319 -0.0710865 2.05754e-20)
(1.07316 0.0141107 -9.89368e-21)
(1.047 -0.222967 0)
(1.00425 -0.00848911 0)
(0.987595 -0.035456 2.7526e-21)
(1.12849 0.0338156 -7.76342e-21)
(0.533014 -0.0979978 3.14217e-20)
(1.16748 -0.158203 0)
(1.10664 -0.0295468 0)
(1.05839 -0.00759845 -9.64346e-21)
(0.99342 -0.0312938 0)
(-0.135109 -0.00374009 -2.2099e-20)
(1.03189 -0.0121611 -2.30045e-21)
(0.999461 -0.00658407 7.51024e-21)
(1.23145 -0.0485631 -4.87647e-20)
(1.00534 -0.0061981 -6.61268e-22)
(1.06244 0.0175042 -6.08379e-24)
(-0.0330647 -0.00428249 -3.71178e-20)
(0.107339 0.0349179 1.07192e-20)
(1.06092 -0.026271 5.37271e-21)
(1.01806 -0.00121763 -4.24496e-21)
(1.00411 -0.00986624 0)
(1.08956 -0.0124339 1.44888e-20)
(-0.0710628 -0.00318318 0)
(1.00385 -0.00370497 5.44354e-23)
(1.24019 -0.110195 0)
(1.14461 0.099531 1.51529e-20)
(1.09329 0.0179684 0)
(1.12394 0.0194148 0)
(0.96499 -0.0373778 1.22393e-20)
(1.14298 0.0506122 2.00522e-20)
(1.01619 -1.89471e-05 -1.15294e-21)
(0.977485 -0.166688 2.93524e-21)
(-0.101345 -0.0142519 2.93213e-20)
(1.03642 -0.0427588 -3.84742e-21)
(1.2103 -0.014966 -3.92928e-20)
(1.05209 -0.0378769 8.15819e-21)
(0.147177 0.0383881 -1.90318e-20)
(1.1111 0.0132617 -4.65322e-21)
(0.988477 -0.00777714 0)
(1.00123 -0.0120738 1.99228e-21)
(1.23505 0.0309944 -4.04489e-22)
(0.992908 -0.014619 0)
(0.981918 -0.019781 0)
(0.414992 0.0478702 1.78574e-21)
(1.14333 0.0820878 -1.55399e-20)
(0.0548635 0.0249364 -1.62373e-20)
(0.998422 -0.00282752 0)
(1.02957 -0.106745 0)
(1.22717 0.04625 5.45597e-20)
(0.698237 0.08194 1.64591e-21)
(1.15977 -0.381652 -5.12345e-20)
(1.26439 -0.267634 -9.2142e-20)
(0.996849 -0.00289751 -4.6072e-21)
(1.0527 -0.094074 0)
(1.03863 -0.0438069 -2.07695e-21)
(1.14122 -0.264581 1.50965e-20)
(1.21069 -0.00713831 0)
(0.669998 0.0720912 7.14339e-21)
(0.995967 -0.05047 7.97179e-22)
(1.11363 0.0547702 0)
(1.07728 -0.174449 0)
(1.18734 -0.0101602 5.38106e-20)
(0.671802 0.0873429 0)
(1.02416 -0.0246914 -1.06489e-21)
(0.081773 0.030773 -2.3126e-20)
(1.09292 0.0649307 1.92568e-21)
(1.27118 -0.0209828 0)
(0.994659 -0.00676116 7.18498e-21)
(1.15237 -0.134047 3.36359e-20)
(0.968459 -0.0859188 -8.0574e-21)
(0.999954 -0.000835946 4.51914e-21)
(1.0985 -0.00792634 0)
(0.970045 -0.0879964 -2.59831e-22)
(1.08038 0.0174514 6.04061e-21)
(1.087 0.0359034 1.28591e-20)
(1.00842 -0.0174729 -1.0732e-21)
(0.850101 -0.15174 0)
(1.0813 0.0169268 -3.54665e-21)
(1.03953 -0.136551 0)
(1.03117 -0.0806227 3.21965e-21)
(1.02403 -0.0391808 -2.81454e-22)
(0.477507 0.0396722 0)
(1.09325 0.0656989 0)
(0.602528 -0.00453868 0)
(1.01737 -0.0194978 -4.02454e-22)
(1.08936 -0.00512523 0)
(1.1557 0.0577949 6.38144e-24)
(0.930097 -0.0900392 0)
(1.0995 0.068954 -1.61382e-20)
(0.266454 0.0542551 0)
(0.0317044 0.0158784 1.71492e-20)
(1.02788 -0.720925 3.54399e-20)
(1.00216 -0.0080524 0)
(1.13408 -0.11269 0)
(0.96884 -0.243902 0)
(0.470101 0.0512532 -5.71422e-21)
(0.945023 -0.0700952 -1.6586e-20)
(1.10334 -0.0254829 -2.10565e-20)
(1.04431 -0.0388734 -5.10955e-21)
(1.10149 0.0697539 1.82272e-20)
(1.02271 -0.00804036 1.77929e-23)
(1.11436 0.0524176 1.39091e-20)
(0.0969443 0.0323701 4.79697e-20)
(0.942042 -0.0664929 1.01665e-21)
(1.10456 -0.0242861 2.17904e-20)
(0.967219 -0.0482978 -1.71602e-20)
(0.639125 -0.00850366 0)
(1.01657 -0.0198422 -4.32196e-22)
(1.00825 -0.0126523 -1.74229e-21)
(1.00518 -0.0256589 1.85793e-21)
(1.06495 -0.0226496 3.47525e-21)
(1.08511 0.0580131 1.33755e-20)
(1.01787 -0.00112605 1.41336e-21)
(1.00642 -0.0105993 1.34123e-21)
(1.00202 -0.0215606 0)
(0.848045 -0.145613 -1.63725e-20)
(-0.264478 0.00190207 -2.65945e-20)
(1.00672 -0.0147575 -8.72811e-22)
(1.00947 -0.0191287 0)
(1.00681 -0.0151996 8.80247e-22)
(1.03999 -0.0219667 3.8273e-21)
(1.05209 -0.0370341 -7.14785e-21)
(0.714329 0.0528262 -1.01344e-20)
(1.00648 -0.0266326 0)
(0.993504 -0.0236663 0)
(1.1212 0.0192832 -2.21131e-20)
(1.08725 0.0241313 0)
(1.00397 -0.00823652 9.07768e-22)
(0.925413 -0.0361749 1.09217e-20)
(1.10601 -0.160313 -3.08294e-20)
(0.726445 0.0837633 -6.76328e-21)
(1.0361 -0.0439695 3.83295e-21)
(1.02373 -0.0401097 1.43425e-21)
(1.0545 -0.0491328 9.56519e-21)
(1.01695 -0.0189212 -3.85357e-22)
(1.12998 0.0814502 6.91831e-21)
(1.16167 0.0109672 -9.65934e-21)
(-0.0928625 -0.0289445 0)
(0.971929 -0.0542825 0)
(0.310925 0.0515133 1.56578e-22)
(1.01973 -0.0388563 4.19158e-23)
(0.995598 -0.0143489 0)
(1.10192 0.0324392 -1.00241e-21)
(1.2331 -0.114568 1.06699e-20)
(0.227678 0.0486438 1.203e-20)
(1.00834 -0.0123743 7.18026e-22)
(1.13334 0.00317894 -2.23386e-20)
(1.0597 -0.0260501 -9.63773e-21)
(1.098 -0.0289683 -5.44903e-23)
(1.03377 -0.00266296 1.26863e-21)
(0.621332 0.0323785 0)
(1.00446 -0.00796861 9.69419e-23)
(1.12249 0.0183779 0)
(0.337247 0.0556423 0)
(1.00321 -0.0222817 0)
(1.09652 0.0390058 5.72733e-22)
(0.957272 -0.0157549 -3.91085e-21)
(1.05168 -0.0404361 -1.40425e-21)
(1.07938 0.0189596 0)
(1.106 0.0363706 -1.20784e-21)
(0.402731 0.0455826 -1.99888e-20)
(1.08732 0.0351235 -8.53326e-21)
(1.01232 -0.025007 4.77856e-22)
(1.00803 -0.017347 1.69406e-21)
(0.194121 0.0457641 4.17083e-21)
(1.0147 -0.0138311 -5.79267e-22)
(1.02754 -0.0794641 7.44434e-22)
(0.961809 -0.244613 3.17223e-22)
(1.0008 -0.00400073 -2.56092e-21)
(1.0398 -0.0209978 4.07932e-23)
(1.03245 -0.0232061 5.04064e-21)
(1.00905 -0.0189521 -6.44503e-22)
(1.08982 0.0739157 2.28238e-21)
(1.1971 -0.441614 -2.35194e-20)
(1.04543 -0.0358696 0)
(0.927217 -0.284957 2.14268e-21)
(1.01068 0.100217 -2.61597e-21)
(0.41763 0.0428501 -1.38512e-21)
(0.165539 0.0137096 -8.15183e-21)
(1.1331 0.0552416 -1.18465e-20)
(0.0546432 0.0281814 5.46546e-20)
(1.00402 -0.035639 8.78078e-22)
(0.991741 -0.00665055 0)
(1.03421 -0.00887919 -5.21655e-21)
(0.587429 0.0808606 -2.92622e-21)
(0.277496 0.0551246 3.40036e-21)
(0.995772 -0.00330992 4.42969e-21)