/*--------------------------------*- C++ -*----------------------------------*\
| =========                 |                                                 |
| \\      /  F ield         | OpenFOAM: The Open Source CFD Toolbox           |
|  \\    /   O peration     | Version:  v2012                                 |
|   \\  /    A nd           | Website:  www.openfoam.com                      |
|    \\/     M anipulation  |                                                 |
\*---------------------------------------------------------------------------*/
FoamFile
{
    version     2.0;
    format      ascii;
    class       volVectorField;
    location    "200";
    object      U_0;
}
// * * * * * * * * * * * * * * * * * * * * * * * * * * * * * * * * * * * * * //

dimensions      [0 1 -1 0 0 0 0];


internalField   nonuniform List<vector> 
27915
(
(1.04667 -0.0215406 9.44179e-21)
(1.23225 -0.0828229 -4.2054e-20)
(-0.118953 -0.0257774 0)
(0.0564818 0.0296805 -4.54535e-21)
(1.13119 -0.00448996 -4.97119e-21)
(1.06195 -0.0231614 -4.314e-21)
(0.528057 0.044776 0)
(1.16225 -0.066822 1.74551e-20)
(1.12402 0.0144227 0)
(1.09867 0.0406603 3.2073e-23)
(0.862105 -0.10832 0)
(0.975338 -0.0274488 1.41694e-21)
(1.27913 -0.167417 -2.8882e-20)
(0.426557 0.0428078 -1.0192e-20)
(0.533562 0.0786858 -1.22708e-20)
(1.03179 -0.0848642 -2.74437e-21)
(0.850947 0.0648477 -5.3571e-22)
(1.13396 -0.0592048 1.2042e-21)
(0.781151 -0.0477258 0)
(0.985319 -0.0604655 -1.16823e-22)
(0.41965 0.0411999 9.26286e-21)
(1.00363 -0.0297418 -2.27316e-21)
(0.831063 0.0644517 -1.29474e-21)
(1.046 -0.0218896 -5.01957e-21)
(1.0058 -0.00141499 3.00927e-22)
(1.01179 -0.0246369 -1.79787e-21)
(0.9967 -0.0159558 -5.30751e-21)
(0.570523 -0.625971 -1.65345e-20)
(0.0745333 0.0325048 4.37108e-21)
(-0.0473504 0.000187199 4.00671e-20)
(1.21263 -0.161261 -4.92161e-20)
(1.02802 -0.0102046 -1.51597e-21)
(0.851991 0.0665874 -9.55545e-21)
(0.983931 -0.0611254 -5.94157e-23)
(0.672322 -0.0345194 1.47811e-20)
(0.996607 -0.0164505 -3.13693e-21)
(0.99225 -0.0251087 -3.47778e-21)
(1.10405 -0.052386 0)
(0.721935 -0.195595 -2.47167e-20)
(1.07719 -0.0215974 8.9302e-21)
(1.00417 -0.00571481 -1.7026e-21)
(1.0904 -0.0843499 -1.69758e-20)
(1.00219 -0.00834073 1.62188e-21)
(1.18227 0.0311465 5.06256e-20)
(1.08216 0.0581489 0)
(1.00052 -0.000211956 -1.11909e-21)
(0.979712 -0.020268 -3.95711e-21)
(1.0869 0.0253222 -1.57487e-20)
(1.04112 -0.0182094 0)
(1.02486 -0.0272643 0)
(1.08777 0.0261153 -1.62102e-20)
(1.17995 0.0315355 -5.5842e-20)
(1.1129 0.0673915 1.61348e-20)
(1.07746 -0.0239146 0)
(1.30917 -0.118298 0)
(0.0318142 0.0109684 1.93704e-20)
(0.675433 0.0789485 0)
(1.01787 0.000254746 2.25692e-22)
(1.0042 -0.0295426 -2.09683e-21)
(-0.0238861 0.0221943 0)
(1.02769 -0.0103754 0)
(1.05856 -0.222568 -3.07768e-21)
(1.16657 0.00237764 3.97228e-20)
(1.32043 -0.153895 2.62008e-20)
(1 -0.000211005 0)
(1.07789 0.00448928 0)
(1.08199 0.0378121 1.10335e-20)
(1.23045 -0.0384003 2.45666e-20)
(0.544423 0.0741128 -1.30576e-20)
(0.934894 -0.0577876 0)
(1.09456 -0.0798039 -3.56408e-21)
(-0.00825961 -0.0011497 -3.46474e-20)
(1.00337 -0.00274166 0)
(1.01177 -0.020744 0)
(1.05977 -0.116263 0)
(1.12869 -0.150619 -1.1125e-20)
(1.11952 0.0495674 3.08396e-20)
(1.04081 -0.110457 -5.25696e-21)
(-0.12066 0.0630688 0)
(0.974978 -0.0298029 -5.75024e-21)
(1.09097 -0.0823599 1.76335e-20)
(1.07779 -0.0227612 0)
(1.01171 -0.0240127 9.97173e-22)
(1.02501 -0.0266384 -1.11477e-21)
(0.0106992 0.00998397 -3.9052e-20)
(1.01659 -0.00743938 0)
(1.04054 -0.0184653 0)
(0.937131 -0.0582956 1.6025e-20)
(1.12105 0.0984473 1.20811e-20)
(1.13492 -0.0681506 -2.03408e-20)
(0.992808 -0.01569 -4.44943e-21)
(1.07542 0.0586217 0)
(1.03264 -0.0824366 -2.1809e-21)
(1.21065 -0.156777 4.93226e-20)
(0.935059 -0.0471586 0)
(1.08755 0.0271189 1.99592e-20)
(1.03864 0.0680892 -2.92781e-20)
(1.07334 0.00958491 -7.14203e-21)
(0.999119 -0.0209754 2.86967e-21)
(0.494778 0.0694361 -1.41034e-20)
(1.00508 -0.0170574 -1.85677e-21)
(1.00045 -0.000149616 0)
(0.427661 -0.0774156 0)
(1.09403 -0.0818342 0)
(1.00277 -0.0024279 9.31501e-22)
(1.04707 0.00359268 8.97123e-21)
(0.991981 -0.00499536 7.58596e-22)
(1.09877 -0.216551 0)
(1.05711 -0.271727 1.94713e-20)
(1.09794 0.0401151 2.42811e-20)
(0.999714 -0.00561733 0)
(0.978995 -0.0575935 -6.06664e-21)
(1.12449 0.100694 0)
(0.305399 0.0476852 -3.88933e-21)
(1.25501 -0.0662016 2.23187e-20)
(1.08245 0.0578587 0)
(0.573311 0.0458185 1.00483e-20)
(1.00103 -0.0235377 2.63957e-21)
(1.12557 0.0119557 0)
(1.01768 -0.000563223 -8.84317e-22)
(1.23185 -0.0143929 6.36287e-20)
(1.12666 0.00916023 1.69322e-20)
(1.15157 -0.242369 2.6449e-20)
(1.13599 -0.0580475 2.81256e-21)
(1.05302 -0.0403269 -8.1168e-21)
(1.01749 -0.000615721 -8.91865e-22)
(0.979617 -0.0590123 1.25256e-20)
(0.697798 0.0636523 -2.31992e-21)
(1.09561 0.0541473 1.07896e-20)
(1.04148 -0.0773067 0)
(1.07631 -0.0242738 4.25726e-21)
(1.00295 -0.00950058 -1.87717e-22)
(1.01691 -0.00742749 7.63982e-22)
(-0.104852 -0.0272972 0)
(0.216043 0.0113475 6.91937e-21)
(-0.274617 -0.00653307 -9.3812e-20)
(1.00442 -0.00581934 0)
(1.0115 -0.0210872 0)
(0.898979 -0.0429483 0)
(1.01629 -0.0071625 0)
(0.0974374 0.033627 -2.58084e-20)
(-0.00531635 0.0248209 0)
(1.05946 0.00965492 -6.81621e-22)
(0.555813 0.0783998 5.61031e-21)
(1.0925 -0.214966 2.7986e-21)
(1.01754 0.000235215 -1.85231e-21)
(1.01171 -0.0530421 6.14543e-22)
(0.708148 0.0773293 8.35743e-21)
(1.22913 -0.0137178 -4.6697e-20)
(1.01477 -0.000321031 -2.01116e-21)
(1.01268 -0.000480043 0)
(1.03831 -0.111693 6.13922e-21)
(1.09863 0.067909 -1.52073e-20)
(0.831125 0.0660727 0)
(1.16834 0.00393124 0)
(1.03542 -0.110361 4.93862e-21)
(1.04265 0.00333077 7.10919e-21)
(1.04439 -0.00686822 0)
(0.928067 -0.0356749 1.48218e-22)
(1.06126 0.00431089 0)
(0.721871 -0.208296 0)
(1.18565 -0.00842296 -2.36959e-20)
(1.12034 0.0485096 -2.20359e-20)
(1.04119 -0.0172365 4.07491e-21)
(1.01338 -0.0394571 3.0679e-23)
(1.07058 -0.00960833 -6.61398e-21)
(-0.193952 -0.0139376 0)
(1.23175 -0.0571186 0)
(1.04196 0.00303443 3.90816e-21)
(1.22779 -0.0830222 -7.31898e-20)
(0.586526 0.0628203 -2.75448e-20)
(1.04403 -0.00732798 5.96669e-21)
(0.834626 0.0631316 -1.06931e-20)
(1.00307 -0.000469392 0)
(1 -8.6382e-05 0)
(1.13161 0.0688624 0)
(1.09896 0.0275905 1.50497e-20)
(1.04678 -0.0205389 9.69408e-21)
(1.01164 -0.0519184 2.89553e-22)
(1.3156 -0.13189 2.01692e-20)
(1.04347 -0.00588574 -4.24831e-21)
(1.08252 0.038447 -5.83409e-21)
(1.00315 -0.000367952 0)
(1.15364 0.0466443 2.60649e-20)
(0.288433 0.0440544 0)
(1.12715 0.0113043 0)
(1.15337 0.0216998 0)
(1.00224 -0.00181538 1.67655e-23)
(-0.116782 -0.0252644 9.98645e-20)
(1.06616 -0.123235 -9.30371e-22)
(0.991083 -0.0346735 -6.81431e-21)
(1.11591 0.0844548 0)
(1.00209 -0.00180337 -9.73068e-22)
(1.0024 -0.000339122 -2.95093e-23)
(1.00315 -0.0026368 4.62906e-22)
(0.285203 0.0137537 -8.32783e-21)
(0.976126 -0.0279079 -7.55177e-21)
(1.10365 -0.00662923 1.30772e-20)
(-0.241941 -0.0099003 -1.14387e-19)
(0.465795 0.043937 0)
(1.18383 -0.225463 0)
(1.14332 0.100532 -1.39775e-20)
(1.09917 -0.00640832 0)
(1.07304 0.0587584 0)
(0.980569 -0.0203386 3.90337e-21)
(1.07869 0.00391897 0)
(0.563747 0.074455 0)
(1.04446 -0.0932054 0)
(1.06663 0.0228619 4.7304e-21)
(1.15463 0.0594144 -1.31343e-20)
(0.0252286 0.0248544 -6.35774e-20)
(1.04621 -0.0200006 -9.67814e-21)
(0.507242 0.0702966 4.35938e-20)
(0.981745 -0.0589609 -1.08825e-20)
(1.095 0.0379728 1.19174e-20)
(0.999689 -0.012778 -2.32973e-21)
(1.13301 0.0698017 6.91921e-21)
(0.641259 0.0457819 9.747e-21)
(1.13639 0.00191654 -1.11709e-20)
(1.08426 0.0153872 1.76336e-21)
(0.698642 0.0781968 5.87725e-21)
(1.09259 0.0758684 1.0236e-21)
(1.20416 -0.0598916 1.57604e-20)
(0.99957 -0.00640344 -5.08993e-21)
(1.04884 -0.116457 -8.15546e-21)
(1.10588 -0.0511749 1.10723e-20)
(1.15184 -0.0918862 0)
(0.988121 -0.0346923 0)
(1.31494 -0.122473 0)
(1.04068 -0.0168352 -1.91198e-21)
(0.734475 0.0535088 9.54241e-21)
(1.01589 -0.00717753 0)
(0.388136 -0.0649611 1.8368e-20)
(1.0339 -0.108608 -5.13352e-21)
(1.04415 -0.00617422 8.27463e-21)
(1.04569 -0.0277965 -1.34665e-21)
(1.18607 0.0465244 -4.18689e-20)
(1.06314 -0.0232219 0)
(1.147 0.0970911 7.5553e-21)
(1.00604 -0.00635989 3.43657e-22)
(0.996634 -0.00824837 3.08713e-23)
(0.591435 0.0639338 0)
(0.929148 -0.807255 -4.72535e-20)
(1.12808 0.00845739 -3.14248e-20)
(1.00025 -0.00735534 -4.9739e-21)
(0.939355 -0.0624338 1.65107e-20)
(1.08179 0.059694 1.51351e-20)
(0.982323 -0.0600766 5.95072e-21)
(1.28248 -0.162208 8.5317e-20)
(1.09764 0.0681225 2.18209e-20)
(1.00143 -0.010057 0)
(1.07835 0.0314807 -7.46534e-21)
(1.10889 0.0689114 -1.23958e-20)
(1.00513 -0.0166533 0)
(1.11764 -0.0471745 2.71614e-20)
(0.963017 -0.0668872 -5.02163e-21)
(1.07818 0.0321006 -2.3682e-21)
(1.06997 -0.0104166 3.62612e-21)
(1.23252 -0.0189315 2.97517e-21)
(0.227482 0.0482733 -1.20624e-20)
(-0.102927 -0.00676183 -3.8759e-20)
(1.01916 -0.0532125 -7.45796e-23)
(1.00349 -0.00258299 -7.48352e-22)
(1.02883 -0.00842068 0)
(1.11627 -0.0507948 1.23666e-20)
(1.10995 0.0699524 8.39371e-21)
(1.022 -0.0023378 -3.33053e-21)
(0.999688 -0.00591761 -2.49818e-21)
(1.15153 0.02202 1.12948e-21)
(0.981154 -0.01951 0)
(1.00283 -0.0285679 2.26134e-21)
(1.00274 -0.00922353 1.69351e-22)
(1.01117 -0.206389 -7.36697e-20)
(1.13237 -0.0666475 -1.31854e-20)
(0.971507 -0.05253 0)
(0.0923301 0.0314921 2.23206e-20)
(1.06039 0.00386706 0)
(0.680504 0.0765561 -1.74877e-20)
(0.395136 0.0496847 -1.35592e-20)
(0.065681 0.0308236 2.65358e-20)
(1.09353 0.075825 2.18093e-21)
(0.721054 0.0643434 -5.55105e-22)
(1.03346 -0.0864498 1.31279e-21)
(0.0533407 0.0135611 1.21142e-20)
(0.90124 -0.0411668 -1.56035e-20)
(1.03914 -0.0829934 1.16874e-22)
(1.18743 -0.0172778 -3.08585e-20)
(0.976348 -0.0561318 -9.46045e-21)
(1.14792 0.0957565 8.22331e-21)
(-0.12601 -0.00729959 2.20055e-20)
(1.0946 0.0666035 -4.51022e-21)
(1.11832 -0.0491282 -4.29123e-20)
(0.990952 -0.0234697 0)
(1.21116 -0.166819 9.66127e-21)
(1.07366 0.0116452 -4.54894e-21)
(1.01311 -0.00147288 0)
(0.990565 -0.0337566 0)
(-0.0759135 0.0124013 0)
(1.20496 -0.0569017 0)
(0.987987 -0.014216 -7.46512e-21)
(1.13321 0.0814399 0)
(1.02034 -0.0275223 -1.71347e-22)
(0.867585 -0.109408 1.35503e-20)
(1.00237 -0.0086212 -2.98735e-21)
(1.09432 0.0657658 -7.39575e-21)
(0.0657816 0.0313418 3.74968e-20)
(0.999923 -0.0126888 0)
(1.31036 -0.128814 2.01591e-20)
(1.00133 -0.0231008 -1.66423e-21)
(1.08663 0.058573 -1.80231e-20)
(1.31525 -0.155587 -5.56705e-20)
(0.270666 0.00985869 -8.1825e-21)
(0.150275 0.041965 -1.69324e-20)
(0.976921 -0.0576254 -6.48607e-23)
(-0.00834148 0.0246176 -6.55928e-21)
(1.01289 -0.00136349 8.44465e-22)
(1.01531 -0.000363488 6.694e-22)
(1.01558 -0.00690683 0)
(1.15406 -0.0703966 2.8934e-20)
(1.17761 -0.290665 2.17079e-20)
(0.977929 0.0686227 -2.99679e-20)
(1.01027 -0.0010822 -5.26759e-22)
(0.963435 -0.00836719 8.6298e-22)
(1.06624 -0.0242288 8.58446e-21)
(1.16718 0.0647681 -7.98954e-21)
(0.92751 -0.0461171 0)
(1.00694 -0.012213 -6.93014e-22)
(1.17928 -0.0541243 0)
(1.13901 -0.0364481 2.29802e-21)
(1.13523 0.00305663 -1.05997e-20)
(0.990417 -0.0233095 -6.77394e-21)
(0.04379 0.0273693 5.40821e-20)
(0.899404 -0.0465763 1.49597e-20)
(0.0689232 0.0174428 1.53116e-20)
(0.0382843 0.0281137 2.8964e-20)
(1.12555 0.0136797 0)
(1.17045 0.00293258 -1.45401e-20)
(1.13159 0.0804549 -5.35704e-21)
(1.20676 -0.168922 0)
(0.962975 -0.0653685 5.88643e-21)
(1.04586 -0.0946892 -8.49322e-22)
(1.09552 0.0390106 6.92901e-21)
(1.15233 -0.0752781 0)
(1.18344 -0.287653 -2.53104e-20)
(1.09947 -0.542279 2.28924e-20)
(-0.149925 0.0127265 0)
(1.00302 -0.0290738 0)
(1.04773 -0.292981 0)
(0.776264 -0.246648 -3.14281e-20)
(1.06155 0.0174681 5.39897e-21)
(1.18497 -0.0179874 2.25947e-20)
(0.194176 0.0455212 1.65817e-21)
(1.1042 0.0727693 0)
(1.10397 -0.00508277 -5.46969e-21)
(0.282014 0.0467357 4.20205e-21)
(1.15812 -0.241828 -4.48806e-20)
(1.08163 -0.0872706 -1.69002e-20)
(0.988384 -0.0136487 9.10496e-21)
(0.295614 0.0151778 8.17331e-21)
(1.0862 0.0542601 -9.08794e-21)
(0.64646 0.0775933 -3.31087e-21)
(1.01976 -0.0256622 -1.1531e-21)
(0.994996 -0.00698938 -3.45388e-21)
(1.23323 -0.0168865 0)
(1.17737 -0.0523317 0)
(1 -0.00130592 -2.09009e-21)
(1.08557 -0.717314 0)
(0.764605 -0.249951 -3.96561e-20)
(1.04813 -0.140988 0)
(1.11689 -0.0528186 1.17826e-20)
(1.08815 -0.0855094 -1.62929e-20)
(1.08946 0.0727338 0)
(1.02311 -0.0857701 7.80176e-22)
(0.937302 -0.166699 -7.45004e-21)
(1.1442 0.00413903 1.73886e-20)
(0.967118 -0.0404063 7.18733e-21)
(1.04712 -0.00970184 0)
(1.04546 -0.0233365 7.60813e-23)
(0.636498 0.071838 1.34965e-21)
(0.936915 -0.0617486 -1.84233e-20)
(0.581414 0.0676183 -2.72042e-20)
(0.975068 -0.0310726 0)
(1.08144 0.0592568 -1.61329e-20)
(1.17951 -0.049129 4.1067e-20)
(1.00102 -0.0119155 0)
(1.07723 -0.277853 6.568e-21)
(1.09626 0.0546916 -1.16292e-20)
(1.09852 -0.0412069 1.6749e-20)
(1.27561 -0.0267098 0)
(1.19719 -0.0509419 0)
(0.0598936 0.0124685 0)
(1.10263 -0.000199592 -1.10104e-20)
(1.07246 -0.283355 8.07083e-21)
(1.12442 -0.0403329 0)
(1.04759 0.00410848 -5.88128e-21)
(1.10557 0.0330498 0)
(0.982316 -0.627618 0)
(1.19125 0.0488698 2.17045e-20)
(0.977148 -0.0343222 -2.99676e-21)
(1.13975 0.0672076 7.25624e-22)
(0.181456 0.0448271 3.02303e-20)
(1.10387 -0.0224329 -1.19835e-21)
(1.00046 -0.0070593 -2.13742e-21)
(1.00002 -0.000288984 5.11866e-22)
(0.0850812 0.0334552 -3.95557e-20)
(0.972691 -0.0217397 0)
(1.17809 -0.221062 -1.66327e-20)
(1.00031 -0.00713467 4.14054e-21)
(1.12547 0.0186968 2.0217e-20)
(1.14154 -0.0501905 0)
(1.00421 -0.00971153 2.45611e-21)
(1.08407 0.0242828 0)
(1.00001 -0.00115437 0)
(1.09861 0.0254749 -3.59149e-22)
(1.06508 -0.0236895 9.66049e-21)
(1.25753 -0.126896 3.59591e-20)
(1.00415 -0.00888534 -1.59444e-21)
(1.23325 -0.0402074 1.3537e-20)
(1.04579 -0.138365 6.85884e-21)
(1.00618 -0.00671461 -7.40285e-22)
(0.00864623 0.0262283 5.62504e-21)
(1.24286 -0.114735 -2.25176e-20)
(1.14231 0.00435801 0)
(0.0629782 0.0312684 0)
(1.08794 -0.171643 -1.71205e-20)
(0.734113 -0.458406 1.59973e-20)
(1.1402 -0.0485703 0)
(1.02017 -0.0262477 1.26212e-21)
(0.991595 -0.00484123 4.97701e-22)
(0.973795 -0.0544824 -1.29307e-20)
(0.920781 -0.0788455 1.23907e-20)
(1.10501 -0.0213277 0)
(1.17812 -0.0469961 -3.77599e-20)
(1.25498 -0.13096 -4.03877e-21)
(0.240234 0.0458565 8.79762e-21)
(0.920132 -0.0812924 0)
(0.999733 -0.00645556 0)
(1.1247 0.00975368 4.75741e-20)
(1.00465 -0.00988729 -9.16505e-22)
(1.32847 -0.15154 3.08096e-20)
(1.00002 -0.00311092 -2.31511e-22)
(1.00157 -0.00520085 0)
(1.26862 -0.0251117 0)
(1.14577 0.0524716 -2.42796e-21)
(1.00435 -0.00883226 -1.10927e-22)
(1.17919 0.00502111 0)
(1.0978 0.0244492 3.24076e-22)
(0.672309 0.0772873 -1.54743e-21)
(1.09799 -0.0768841 0)
(0.997817 -0.0185658 0)
(1.06031 0.00972953 3.54378e-21)
(1.07441 0.0099388 -2.32e-21)
(1.00151 -0.00983546 -1.93944e-21)
(0.428005 -0.035727 0)
(0.997038 -0.00728699 3.91256e-21)
(1.02301 -0.0576963 0)
(-0.158585 -0.0119466 0)
(1.01349 -0.0206145 0)
(1.02264 -0.0877642 0)
(0.176011 0.0418455 0)
(0.0522085 0.0275319 4.38949e-20)
(1.00696 -0.00680361 0)
(1.14232 0.083467 0)
(1.07832 0.0211094 -1.03553e-22)
(1.16886 -0.238816 6.80772e-21)
(1.0783 0.020362 1.53752e-21)
(1.22993 0.0301648 6.65741e-20)
(0.0969031 0.0347743 2.47544e-20)
(0.992572 -0.0381115 -3.12209e-21)
(1.1293 -0.00472324 -1.49368e-20)
(1.14134 0.0506289 -2.52179e-21)
(1.00535 -0.0250909 0)
(0.385199 0.0467925 1.37473e-20)
(1.01602 -0.000313733 1.64159e-21)
(1 -6.82517e-05 3.96277e-21)
(1.17726 0.0341865 -1.48531e-20)
(1.24769 -0.113562 -5.00871e-20)
(0.0214025 0.0260779 -6.13095e-20)
(0.97434 -0.0560816 3.67873e-21)
(1.11778 0.00209582 0)
(1.10606 0.0319085 -9.7858e-22)
(1.13321 -0.15004 6.91452e-21)
(0.029887 0.0267585 -5.62775e-20)
(0.437495 0.0574614 2.00575e-20)
(1.04347 -0.0259002 -4.9618e-21)
(1.02915 -0.00881081 -1.87508e-21)
(1.0397 -0.0563487 2.70834e-21)
(1.02431 -0.0579475 9.50988e-22)
(1.11598 0.00167801 0)
(0.966907 -0.0685575 -1.39435e-20)
(1.01307 -0.0219566 0)
(1.07658 0.0108684 0)
(1.30856 -0.0737871 2.46071e-20)
(1.04854 -0.0343596 7.70789e-23)
(1.08586 -0.0850372 1.66375e-20)
(1.10211 0.000690057 0)
(1.00001 -0.000129406 0)
(1.07754 0.00639017 0)
(1.17564 0.0441812 0)
(0.922301 -0.0857442 -1.24034e-20)
(1.07513 -0.0264777 1.93636e-20)
(1.01011 -0.0324159 0)
(1.20845 -0.00309609 0)
(0.524853 0.0765371 0)
(0.73407 -0.194638 0)
(1.08227 0.0654863 -1.63781e-20)
(1.0742 -0.335466 4.78699e-21)
(1.02237 -0.00236886 2.15964e-21)
(1.10298 0.0605882 0)
(1.04748 -0.00926916 -7.41765e-21)
(1.0173 -0.000444891 0)
(1.04077 -0.015533 -7.0631e-23)
(1.08289 -0.339748 0)
(1.00229 -0.00773988 0)
(0.563757 0.0770397 2.25212e-20)
(-0.130347 0.0145132 -3.3113e-20)
(0.974291 -0.194862 -9.48889e-22)
(1.07633 -0.0260552 -1.85441e-20)
(0.535143 0.0653538 -4.54331e-21)
(1.11848 -0.0152404 1.53546e-20)
(1.04893 -0.267197 -8.90947e-21)
(1.00695 -0.0112403 -6.78721e-22)
(0.99472 -0.00637012 -2.23979e-21)
(1.16495 0.0484624 -2.9852e-20)
(1.08352 0.0251889 0)
(0.995931 -0.0764962 0)
(1.11429 0.068192 -1.45232e-20)
(0.967981 -0.0225647 4.03356e-21)
(1.00418 -0.0363515 0)
(1.02025 -0.0540473 1.26025e-22)
(0.964806 -0.0690667 4.80496e-21)
(1.00468 -0.0303394 2.3135e-21)
(1.00272 -0.00887724 3.2234e-22)
(0.998647 -0.00868245 -6.66458e-21)
(0.968205 -0.0393863 3.56125e-21)
(1.04209 -0.0711847 0)
(1.01748 0.000141221 5.25249e-22)
(0.0816829 0.0196624 -1.53751e-20)
(1.20832 -0.00561788 4.90313e-21)
(1.05735 -0.279211 9.76084e-21)
(1.0002 -0.000103012 0)
(1.06869 -0.0256333 7.63529e-21)
(1.0071 -0.0116446 -1.5485e-22)
(1.09089 -0.274658 0)
(1.01292 -0.000601423 0)
(1.02282 -0.0108726 -5.1947e-22)
(0.925768 -0.0855171 1.25271e-20)
(1.03027 -0.0224759 4.90633e-22)
(1.08281 0.0796662 0)
(1.00258 -0.00235314 -6.3327e-22)
(1.06564 0.00762801 -4.11921e-20)
(0.408035 0.0429263 -1.74335e-20)
(1.11455 0.0850774 0)
(1.00105 -0.00509513 1.97655e-21)
(0.257991 0.048304 -1.47875e-20)
(1.09552 0.077169 -1.70558e-20)
(0.996226 -0.0131772 0)
(1.0446 -0.00303882 -5.17218e-21)
(1.29871 -0.0704562 -3.98366e-20)
(1.04118 -0.0557306 0)
(1.14057 -0.0344387 -5.20783e-21)
(0.999468 -0.00323206 -1.22746e-21)
(1.02087 -0.933782 -1.10638e-20)
(1.06573 -0.0218174 -1.29236e-20)
(1.16753 0.0667573 1.9503e-20)
(1.09913 -0.0427947 -1.81917e-20)
(0.997217 -0.00663587 -4.00997e-21)
(1.09145 0.0751319 -4.05692e-21)
(0.00872086 0.0265845 0)
(1.04757 -0.0337653 0)
(0.993117 -0.0151479 0)
(1.00005 -0.000318227 -2.36128e-21)
(0.996237 -0.0145947 2.94046e-21)
(1.10504 0.0554146 0)
(0.984998 -0.112614 0)
(0.994933 -0.00738731 -3.86919e-21)
(0.0146357 0.0261976 0)
(0.566706 0.0753319 -1.25455e-20)
(1.31189 -0.170102 0)
(1.01061 -0.0320811 0)
(1.13869 0.068273 0)
(1.09113 0.0741585 0)
(1.0202 -0.00772647 2.16455e-21)
(0.999443 -0.0206559 -2.84341e-21)
(1.11364 0.0741431 1.04797e-20)
(1.0536 -0.226373 -3.63099e-21)
(1.03993 -0.0435231 4.97553e-21)
(1.10228 0.0599744 0)
(0.309065 0.0187275 0)
(1.15483 -0.0731229 1.87148e-21)
(1.04954 -0.259043 9.04644e-21)
(1.00521 -0.0301428 3.09843e-21)
(1.00372 -0.00265332 0)
(-0.283185 0.00455829 -9.55723e-20)
(0.0190485 0.0136918 -1.85312e-20)
(0.95315 -0.420789 5.93185e-22)
(1.22487 0.046111 7.1259e-21)
(0.490466 0.032622 8.43207e-21)
(0.468209 -0.0307324 0)
(1.0784 0.0058024 0)
(1.11459 0.0185412 -9.72281e-21)
(0.815924 -0.149829 3.43298e-21)
(-0.228196 0.00855533 0)
(1.08118 0.0159453 6.80385e-21)
(1.12848 0.0804166 0)
(1.09756 -0.0792113 5.03352e-21)
(1.06105 -0.0178082 9.97246e-21)
(1.02539 -0.0291411 2.28176e-21)
(1.04696 -0.0745426 0)
(1.2012 -0.0277326 -7.70063e-21)
(1.00658 -0.0109891 -6.07845e-22)
(1.04415 -0.00857022 4.30107e-21)
(1.09999 -0.0381468 -8.69714e-21)
(1.13427 -0.145308 0)
(1.14491 0.0371326 -1.44745e-21)
(0.766399 0.0661808 -8.47706e-21)
(0.910606 -0.108055 0)
(1.02471 -0.0252756 -2.88173e-24)
(1.00305 -0.0019985 -1.15446e-22)
(0.932539 -0.0477078 0)
(1.07935 -0.00199681 2.67691e-21)
(0.836046 -0.246634 0)
(0.475749 0.0304093 -6.82874e-21)
(1.0817 0.0651846 1.78398e-20)
(1.00163 -0.00544946 0)
(1.08376 0.0790492 0)
(0.986958 -0.0619723 0)
(0.99964 -0.027209 0)
(1.12957 0.0272056 0)
(1.07785 0.0075907 2.7519e-21)
(1.00003 -0.000264292 2.43688e-21)
(1.13242 0.0281681 1.39175e-20)
(0.923639 -0.0336239 0)
(0.324431 0.0138233 -7.09618e-21)
(1.07939 0.0304405 -5.37634e-23)
(1.11848 -0.0434877 -2.34979e-22)
(0.0984157 0.023758 1.50673e-20)
(1.21051 -0.00945797 0)
(1.14929 -0.136195 0)
(0.999986 -0.000201219 0)
(0.999867 -0.000847923 -2.62344e-22)
(1.00872 -0.00686715 0)
(1.30198 -0.290517 -1.24999e-20)
(1.10061 0.0686808 1.64454e-20)
(1.17195 -0.157386 3.0675e-21)
(0.579382 0.0779638 -1.40385e-20)
(1.10399 -0.0546097 -4.86881e-21)
(-0.277836 0.00397076 0)
(1.03375 -0.00735844 0)
(1.07085 -0.772902 -3.163e-20)
(1.02335 -0.0111867 1.16519e-21)
(0.968222 -0.0215007 0)
(1.05802 -0.0476895 1.3262e-20)
(1.04079 -0.0194798 7.94446e-21)
(1.22781 -0.0575278 0)
(0.98817 -0.0612757 -4.81654e-21)
(1.04273 -0.0264958 -9.52311e-21)
(1.06575 0.0141346 7.22476e-21)
(0.991833 -0.0385232 0)
(1.3163 -0.166338 0)
(1.0599 -0.00956272 0)
(1.00185 -0.00722403 -2.70754e-21)
(1.0863 0.0538657 0)
(1.07383 0.0125259 0)
(1.04607 -0.118124 7.675e-21)
(1.0172 -0.0141974 0)
(1.04022 -0.0197339 -3.74479e-21)
(1.09438 0.0772388 1.87855e-20)
(0.989004 -0.0138725 -4.406e-21)
(1.04088 -0.014184 0)
(1.04331 -0.00862387 -2.0669e-21)
(1.01515 -0.000716303 -7.61722e-22)
(1.08669 0.0590329 1.59288e-20)
(1.01804 -0.00166508 -3.12831e-21)
(1.03385 -0.0101509 -5.14438e-21)
(1.13226 0.0538689 1.05448e-20)
(0.92121 -0.0339808 -1.34594e-20)
(1.0586 -0.0465104 -1.12547e-20)
(0.451916 -0.0221234 0)
(1.00455 -0.00618228 0)
(1.11951 -0.0454889 0)
(0.305842 0.0501044 4.51584e-21)
(0.613869 0.0700081 2.30789e-20)
(1.20663 0.0644975 0)
(1.00387 -0.00791064 0)
(1.13816 -0.144406 -1.62537e-20)
(1.07726 0.0217418 9.69237e-23)
(1.00088 -0.00307269 2.50768e-21)
(1.02077 -0.0565397 2.69663e-22)
(1.10008 0.0273699 0)
(1.04541 -0.0734345 0)
(0.996832 -0.00754545 -4.26231e-21)
(0.992798 -0.0247074 4.87696e-21)
(1.03855 -0.0391946 -4.35848e-21)
(0.610242 -0.00291414 0)
(-0.139182 0.00617891 8.22472e-21)
(1.12993 0.0337883 -8.03274e-21)
(1.19852 -0.048772 0)
(1.09175 -0.559343 -1.6323e-20)
(0.987482 -0.110866 7.56266e-21)
(0.999992 -0.000173362 -5.14702e-22)
(1.13337 0.0272642 -1.601e-20)
(0.931902 -0.291017 -2.2679e-21)
(0.996609 -0.00286313 7.40015e-21)
(1.10975 -0.161197 2.45505e-20)
(0.989402 -0.0132953 -5.85397e-22)
(1.12263 0.0856033 3.05043e-21)
(0.917526 -0.0732258 -1.29807e-20)
(0.888005 -0.234382 -7.77551e-21)
(1.05454 -0.0952515 -1.03368e-21)
(1.01796 -0.0015053 3.11342e-21)
(0.855063 -0.158606 6.2557e-20)
(1.0199 -0.0557907 0)
(0.249144 0.05059 -8.34269e-21)
(1.17801 0.04391 0)
(1.27693 -0.2568 0)
(1.10041 -0.0397422 -6.32204e-22)
(1.08622 -0.280118 -4.24876e-21)
(1.03387 -0.00921345 -4.46093e-21)
(1.0071 -0.00714703 1.29219e-22)
(0.999111 -0.0096103 -2.63039e-21)
(1 -0.000120462 0)
(1.07925 0.0311374 4.15787e-21)
(1.00183 -0.022076 -1.38943e-22)
(1.077 0.00812504 1.05945e-20)
(1.09016 -0.00448873 0)
(1.07998 -0.00130906 4.98279e-21)
(0.970228 -0.0706005 0)
(1.14492 0.0360401 -1.05683e-20)
(0.12216 0.028793 -5.4371e-20)
(1.05903 -0.00908562 4.29888e-24)
(1.00516 -0.00684561 -1.0059e-21)
(1.02503 -0.0286519 -8.63663e-22)
(1.10552 0.0352924 1.07367e-20)
(0.997006 -0.00691751 0)
(1.15349 -0.0784236 1.52544e-20)
(1.09229 0.0184286 0)
(1.00713 -0.0104794 0)
(1.00007 -0.000570827 -7.06281e-22)
(1.1027 0.0692751 -1.7297e-20)
(1.14676 0.0813279 1.40998e-20)
(1.04158 -0.040598 -2.58515e-21)
(1.07735 0.0224366 -6.48908e-21)
(0.789973 0.0663991 9.43124e-21)
(1.03411 -0.00709869 1.37565e-21)
(1.06368 0.00734177 6.84392e-21)
(0.291315 0.0464759 -1.61539e-20)
(1.09035 -0.0114669 -1.17327e-20)
(-0.0673321 -0.0294671 0)
(1.00078 -0.002908 -2.2135e-21)
(1.08073 -0.0412474 0)
(1.09243 0.0390927 0)
(1.23014 -0.0508594 4.32584e-20)
(0.999042 -0.00937492 0)
(0.964654 -0.0384219 -8.76936e-21)
(1.09971 -0.137976 -2.22401e-20)
(1.08631 -0.166992 7.978e-21)
(0.976213 -0.200407 6.34558e-21)
(1.28269 -0.253196 3.55438e-20)
(-0.216796 0.00847057 -2.35295e-20)
(1.0804 -0.0402517 -1.42765e-21)
(0.494191 -0.0265597 0)
(1.00607 -0.00147184 0)
(0.651412 -0.00794121 0)
(1.04619 -0.0230036 -3.10489e-21)
(1.10082 -0.135878 2.53902e-20)
(0.830458 0.0673722 9.3286e-21)
(1.16157 -0.0638667 -3.23417e-20)
(1.09397 0.0379834 -1.38851e-20)
(0.988021 -0.00755934 2.57754e-21)
(1.1097 0.0136291 0)
(0.968319 -0.0710861 2.05694e-20)
(1.07316 0.0141122 -9.89723e-21)
(1.047 -0.222967 0)
(1.00425 -0.00848933 0)
(0.987596 -0.0354557 2.75138e-21)
(1.12848 0.033832 -7.76572e-21)
(0.533068 -0.0979861 3.14221e-20)
(1.16748 -0.158206 0)
(1.10664 -0.0295437 0)
(1.05839 -0.0075964 -9.6478e-21)
(0.993421 -0.0312939 0)
(-0.135066 -0.00372326 -2.20987e-20)
(1.03189 -0.012161 -2.30247e-21)
(0.999461 -0.00658358 7.50483e-21)
(1.23147 -0.0485929 -4.87717e-20)
(1.00534 -0.00619844 -6.58619e-22)
(1.06244 0.0175039 -6.09365e-24)
(-0.0330274 -0.00426185 -3.71167e-20)
(0.107255 0.0349354 1.07255e-20)
(1.06092 -0.0262701 5.37515e-21)
(1.01806 -0.00121745 -4.25166e-21)
(1.00411 -0.00986655 0)
(1.08956 -0.0124302 1.44938e-20)
(-0.0710213 -0.00316406 0)
(1.00385 -0.00370498 5.42405e-23)
(1.24018 -0.110214 0)
(1.14454 0.0995924 1.51517e-20)
(1.09329 0.0179718 0)
(1.12393 0.0194271 0)
(0.96499 -0.037377 1.22362e-20)
(1.14296 0.0506468 2.00575e-20)
(1.01619 -1.89187e-05 -1.15469e-21)
(0.977486 -0.16669 2.93362e-21)
(-0.101328 -0.0142352 2.93224e-20)
(1.03642 -0.0427596 -3.85112e-21)
(1.21033 -0.0149763 -3.9303e-20)
(1.05209 -0.0378775 8.1627e-21)
(0.147104 0.0384036 -1.90432e-20)
(1.1111 0.0132694 -4.65469e-21)
(0.988477 -0.00777819 0)
(1.00123 -0.0120737 1.99037e-21)
(1.23508 0.0310128 -4.04335e-22)
(0.992908 -0.0146202 0)
(0.981918 -0.0197822 0)
(0.41512 0.0478286 1.78652e-21)
(1.14325 0.0821414 -1.55416e-20)
(0.0549016 0.024972 -1.62377e-20)
(0.998422 -0.00282793 0)
(1.02957 -0.106747 0)
(1.22726 0.046315 5.45866e-20)
(0.698299 0.081899 1.64578e-21)
(1.15983 -0.381653 -5.12375e-20)
(1.26438 -0.267621 -9.21451e-20)
(0.996849 -0.00289678 -4.60501e-21)
(1.0527 -0.0940756 0)
(1.03863 -0.0438078 -2.07878e-21)
(1.14122 -0.264577 1.50979e-20)
(1.21074 -0.00714562 0)
(0.67008 0.0721836 7.1469e-21)
(0.995968 -0.050469 7.96676e-22)
(1.1136 0.0547686 0)
(1.07728 -0.17445 0)
(1.18736 -0.0101559 5.38252e-20)
(0.671928 0.0873729 0)
(1.02416 -0.0246913 -1.06677e-21)
(0.0817426 0.030721 -2.31333e-20)
(1.09291 0.0648823 1.92664e-21)
(1.27123 -0.021052 0)
(0.994659 -0.00676035 7.1816e-21)
(1.15237 -0.134052 3.36404e-20)
(0.968459 -0.0859188 -8.05494e-21)
(0.999954 -0.000836616 4.51613e-21)
(1.0985 -0.00792161 0)
(0.970045 -0.0879965 -2.59839e-22)
(1.08038 0.0174535 6.04274e-21)
(1.087 0.0359027 1.28642e-20)
(1.00842 -0.0174732 -1.07044e-21)
(0.850102 -0.151742 0)
(1.0813 0.0169291 -3.54791e-21)
(1.03953 -0.136553 0)
(1.03117 -0.0806238 3.22407e-21)
(1.02403 -0.0391807 -2.82213e-22)
(0.477562 0.039605 0)
(1.09323 0.0656492 0)
(0.602485 -0.0045582 0)
(1.01737 -0.0194971 -4.04289e-22)
(1.08936 -0.00512118 0)
(1.15568 0.05785 6.32665e-24)
(0.930097 -0.0900396 0)
(1.09947 0.068913 -1.61436e-20)
(0.266519 0.0543269 0)
(0.0317835 0.0158986 1.71473e-20)
(1.02787 -0.720949 3.54423e-20)
(1.00216 -0.00805182 0)
(1.13408 -0.112694 0)
(0.968842 -0.243902 0)
(0.470195 0.051196 -5.71837e-21)
(0.945023 -0.070095 -1.65827e-20)
(1.10334 -0.0254794 -2.10629e-20)
(1.04431 -0.0388743 -5.11303e-21)
(1.10145 0.0697162 1.82326e-20)
(1.02271 -0.00804056 1.78163e-23)
(1.11433 0.0524183 1.39134e-20)
(0.0968941 0.0323281 4.79901e-20)
(0.942043 -0.0664927 1.01646e-21)
(1.10456 -0.0242824 2.1797e-20)
(0.967219 -0.0482969 -1.71555e-20)
(0.639082 -0.0085226 0)
(1.01657 -0.0198414 -4.35032e-22)
(1.00825 -0.0126527 -1.7351e-21)
(1.00518 -0.0256589 1.8557e-21)
(1.06496 -0.0226481 3.47673e-21)
(1.08514 0.0579764 1.33882e-20)
(1.01787 -0.00112588 1.41559e-21)
(1.00642 -0.0106 1.3371e-21)
(1.00202 -0.0215616 0)
(0.848046 -0.145615 -1.63709e-20)
(-0.264411 0.00190446 -2.65942e-20)
(1.00672 -0.0147583 -8.709e-22)
(1.00947 -0.0191287 0)
(1.00681 -0.0152003 8.78304e-22)
(1.03999 -0.021967 3.83008e-21)
(1.05209 -0.0370346 -7.15182e-21)
(0.714248 0.0527341 -1.01568e-20)
(1.00648 -0.0266324 0)
(0.993505 -0.0236675 0)
(1.1212 0.0192942 -2.21199e-20)
(1.08725 0.0241331 0)
(1.00397 -0.00823664 9.05943e-22)
(0.925413 -0.0361746 1.09201e-20)
(1.10601 -0.160314 -3.0835e-20)
(0.726514 0.083724 -6.76191e-21)
(1.0361 -0.0439703 3.83662e-21)
(1.02373 -0.0401096 1.43802e-21)
(1.0545 -0.0491336 9.57034e-21)
(1.01695 -0.0189204 -3.87114e-22)
(1.1299 0.0814738 6.91889e-21)
(1.16168 0.0109879 -9.66217e-21)
(-0.0928582 -0.0289381 0)
(0.97193 -0.0542816 0)
(0.311072 0.0515372 1.56484e-22)
(1.01973 -0.0388557 4.2322e-23)
(0.995598 -0.0143497 0)
(1.10191 0.0324414 -1.00276e-21)
(1.23309 -0.114585 1.06706e-20)
(0.227657 0.0487101 1.20349e-20)
(1.00834 -0.0123746 7.14845e-22)
(1.13334 0.00319067 -2.2345e-20)
(1.0597 -0.0260492 -9.64223e-21)
(1.098 -0.0289655 -5.45137e-23)
(1.03377 -0.00266203 1.26961e-21)
(0.621242 0.0323177 0)
(1.00446 -0.00796887 9.6703e-23)
(1.12249 0.0183894 0)
(0.337386 0.0556678 0)
(1.00321 -0.0222825 0)
(1.09652 0.0390037 5.72957e-22)
(0.957272 -0.0157546 -3.91003e-21)
(1.05168 -0.0404368 -1.40504e-21)
(1.07938 0.0189612 0)
(1.10599 0.0363729 -1.20825e-21)
(0.402686 0.0455394 -1.99979e-20)
(1.08732 0.035123 -8.53664e-21)
(1.01232 -0.0250061 4.75852e-22)
(1.00803 -0.0173474 1.6898e-21)
(0.194093 0.0458268 4.17252e-21)
(1.0147 -0.0138304 -5.82007e-22)
(1.02754 -0.079465 7.46036e-22)
(0.961811 -0.244614 3.17072e-22)
(1.0008 -0.00400084 -2.55733e-21)
(1.0398 -0.0209981 4.0794e-23)
(1.03245 -0.0232067 5.0456e-21)
(1.00905 -0.0189522 -6.42804e-22)
(1.08978 0.0738377 2.28341e-21)
(1.19711 -0.441602 -2.35208e-20)
(1.04543 -0.0358704 0)
(0.927221 -0.284958 2.142e-21)
(1.01083 0.10031 -2.61597e-21)
(0.417745 0.0427996 -1.38631e-21)
(0.165746 0.013711 -8.1499e-21)
(1.13306 0.0552655 -1.18494e-20)
(0.0546315 0.0281281 5.46672e-20)
(1.00402 -0.0356381 8.77142e-22)
(0.991741 -0.00665057 0)
(1.03421 -0.00887835 -5.22071e-21)
(0.587557 0.0809582 -2.92634e-21)
(0.277558 0.0551989 3.40031e-21)
(0.995772 -0.00330876 4.42764e-21)
(1.0392 -0.0221896 5.52989e-21)