/*--------------------------------*- C++ -*----------------------------------*\
| =========                 |                                                 |
| \\      /  F ield         | OpenFOAM: The Open Source CFD Toolbox           |
|  \\    /   O peration     | Version:  v2012                                 |
|   \\  /    A nd           | Website:  www.openfoam.com                      |
|    \\/     M anipulation  |                                                 |
\*---------------------------------------------------------------------------*/
FoamFile
{
    version     2.0;
    format      ascii;
    class       volScalarField;
    location    "400";
    object      k_0;
}
// * * * * * * * * * * * * * * * * * * * * * * * * * * * * * * * * * * * * * //

dimensions      [0 2 -2 0 0 0 0];


internalField   nonuniform List<scalar> 
37190
(
0.000155827
0.000143615
0.000141986
0.000140174
0.000366341
0.000145443
0.000162094
0.000192156
0.000133343
0.0136988
0.00554443
0.0192051
0.000213899
0.000150365
0.0173875
0.00346567
0.000141998
0.00467127
0.000136825
0.000151667
0.000158748
0.0184998
0.000142978
0.040642
0.000350215
0.000151192
0.0443607
0.000154444
0.0147992
0.00014449
0.000681181
0.000151423
0.00015562
0.000193585
0.000157034
0.00559893
0.0449479
0.0180657
0.000136727
0.000154752
0.0187887
0.000130822
0.00368165
0.000151125
0.0321692
0.00116113
0.0330156
0.0214385
0.000131182
0.000160193
0.000143329
0.000127912
0.000146114
0.000161874
0.000148785
0.000195978
0.000127964
0.000151301
0.00275485
0.000583945
0.000191113
0.0221292
0.000159028
0.00015108
0.00957887
0.0263623
0.00266139
0.0213671
0.0259023
0.0275336
0.000136666
0.0001979
0.00015793
0.000142824
0.000144338
0.000191144
0.0277177
0.0323325
0.000155194
0.0325221
0.0332231
0.000140214
0.0328581
0.000143187
0.0113081
0.000169805
0.0127309
0.00501329
0.000162882
0.0114486
0.000136961
0.014193
0.000156075
0.000146306
0.000180153
0.00206685
0.000151912
0.0225538
0.0219217
0.000144176
0.0270726
0.000194999
0.000146409
0.000129915
0.012837
0.00014548
0.000149362
0.0147644
0.0206755
0.000147054
0.0134889
0.000147351
0.000140135
0.000147349
0.000196657
0.000140227
0.0344803
0.00945373
0.000158957
0.000152545
0.000210451
0.0296464
0.000145742
0.000143989
0.0132007
0.000159881
0.0171484
0.000145883
0.0118102
0.0268817
0.0446906
0.000148335
0.000146548
0.00138328
0.000148836
0.00700093
0.000147067
0.00448263
0.000247361
0.000375383
0.0304843
0.000211179
0.000343207
0.00190932
0.000152495
0.000139002
0.000152551
0.000154787
0.000138717
0.0266702
0.0001494
0.000141206
0.00012895
0.000166898
0.0237827
0.000142366
0.0261669
0.000146768
0.000172541
0.00807215
0.000151616
0.000157344
0.000152069
0.000155687
0.0261746
0.000152834
0.0137947
0.013626
0.000159163
0.0306816
0.0134765
0.000133255
0.00046329
0.000138101
0.0138592
0.00454207
0.00020288
0.000179262
0.000147825
0.0142258
0.000166938
0.000192801
0.0108875
0.0228498
0.000159885
0.00361139
0.000149019
0.0122286
0.0294682
0.000172739
0.00013835
0.000224802
0.00019212
0.000147639
0.00013814
0.0338274
0.0392716
0.0286333
0.0287088
0.00014913
0.000146055
0.000189588
0.000148654
0.000144594
0.0176233
0.00332493
0.000140096
0.000144131
0.0149103
0.000172364
0.000148616
0.000139688
0.0016913
0.00015023
0.0301986
0.000152239
0.000141434
0.00014888
0.00715985
0.000140193
0.000154664
0.000139681
0.0265844
0.00546389
0.0267848
0.0023301
0.000116005
0.0355122
0.000146893
0.0164288
0.0169864
0.000146587
0.000128874
0.000148601
0.000139681
0.000157493
0.0290304
0.000128734
0.000148084
0.000180883
0.000137801
0.0122098
0.000161633
0.000129502
0.0122599
0.00405975
0.00014179
0.000170571
0.00554279
0.000155368
0.000153772
0.000158057
0.000181986
0.000152856
0.000137574
0.000154746
0.000137742
0.000145587
0.000180743
0.000128555
0.00115474
0.0171065
0.000171642
0.000127853
0.00149722
0.000156204
0.00014246
0.000631138
0.000138367
0.000183559
0.00015815
0.000146906
0.00808997
0.0115565
0.000193234
0.014003
0.000180754
0.000149153
0.011761
0.000129974
0.000138583
0.000185924
0.000155709
0.000128741
0.0281842
0.000139658
0.000149957
0.000178433
0.000456729
0.000158182
0.000157489
0.000150381
0.00018801
0.0344434
0.000131363
0.0117508
0.000136519
0.000160356
0.0170658
0.000141049
0.000189501
0.0189805
0.00131159
0.0337896
0.000152396
0.000177656
0.0282653
0.000143078
0.0323466
0.0248197
0.0104923
0.0398081
0.0198438
0.0218401
0.000158731
0.00016096
0.000145237
0.000146355
0.0246825
0.000149145
0.0417285
0.0422412
0.000143413
0.000166119
0.0018469
0.00351341
0.000159869
0.0220503
0.0122629
0.000138478
0.00137436
0.0137108
0.0301586
0.0330818
0.000146111
0.000138676
0.000142422
0.000150832
0.000141145
0.000144052
0.00374021
0.000142507
0.0179727
0.000145952
0.0151476
0.000191132
0.0229738
0.000135844
0.00383989
0.021386
0.00438052
0.000190194
0.000153703
0.000127823
0.00323941
0.000416626
0.000137147
0.000135688
0.0448035
0.0406817
0.0441889
0.0166729
0.00461502
0.031479
0.0312519
0.0242418
0.00014802
0.0436496
0.00013129
0.00878732
0.000145941
0.00286529
0.000223071
0.0157693
0.000143367
0.000129553
0.0303685
0.00721037
0.0264119
0.000219347
0.000148347
0.0057807
0.000143047
0.00111616
0.00205706
0.00633459
0.000140261
0.00013497
0.000136358
0.000196379
0.000165867
0.0315426
0.000150897
0.000131045
0.0282331
0.00213261
0.00392213
0.0407097
0.00609487
0.000133896
0.0154941
0.0232069
0.000133688
0.0140773
0.0309243
0.000136431
0.00161083
0.00447171
0.0299239
0.000137235
0.000147825
0.000153489
0.000149356
0.012728
0.0001719
0.0304939
0.000173862
0.00015087
0.00276691
0.000145025
0.000134061
0.00292927
0.012928
0.000165399
0.000144803
0.000128409
0.000134892
0.000151994
0.0159502
0.0145825
0.000128427
0.000139335
0.000137509
0.00276537
0.0294538
0.000147015
0.000161453
0.000149026
0.000161764
0.0166164
0.000149283
0.000146556
0.0260591
0.000184941
0.018425
0.00415916
0.0138565
0.000190541
0.000157993
0.000154645
0.0120004
0.00540478
0.000177024
0.000153772
0.0242196
0.0274588
0.000137512
0.000144598
0.000136428
0.00818737
0.000130927
0.000184691
0.0279371
0.000147968
0.000185424
0.000136165
0.0122218
0.000180871
0.000141054
0.010065
0.000146395
0.000145492
0.000885654
0.000151109
0.000211275
0.00339914
0.000146989
0.000185362
0.000144813
0.000209717
0.0200772
0.000146222
0.000136673
0.000229449
0.000185505
0.000172498
0.0304604
0.000152508
0.0153067
0.000141042
0.000136025
0.0250786
0.000182796
0.000134923
0.000177054
0.00015427
0.000150277
0.0002242
0.000146253
0.00040594
0.00377463
0.00543484
0.0251881
0.0307005
0.00014672
0.000148774
0.000146484
0.000161341
0.000152964
0.000148606
0.0107249
0.000138353
0.000141048
0.000195401
0.015289
0.000199997
0.0084185
0.000147713
0.000144737
0.0267316
0.000153823
0.0208759
0.000171631
0.000162688
0.000144191
0.00379098
0.000170624
0.0233918
0.000158303
0.000147112
0.000134911
0.000186952
0.000153544
0.000146266
0.0127311
0.000139657
0.000217242
0.00116705
0.0219641
0.000272256
0.000153118
0.000265225
0.000168133
0.00753705
0.000259959
0.0214288
0.0190889
0.000145455
0.000138682
0.000134258
0.0208933
0.00341453
0.00250807
0.000127943
0.0059515
0.000144761
0.00015567
0.0207969
0.000159733
0.0226832
0.00245335
0.0150755
0.000139644
0.000148282
0.000165928
0.00104121
0.0207357
0.0417337
0.000144154
0.0353744
0.00357763
0.000392813
0.000154278
0.0168816
0.0132579
0.0409206
0.0143834
0.000135907
0.00019495
0.000159415
0.000138559
0.000154042
0.00015578
0.000146993
0.00503877
0.00278957
0.00234021
0.00376298
0.000155104
0.000177259
0.0185749
0.000134591
0.0130401
0.00013963
0.00279295
0.00503591
0.000244834
0.0182675
0.000155259
0.000142823
0.000145609
0.000154762
0.000148432
0.0297865
0.00017194
0.000180872
0.000138305
0.0256022
0.0041251
0.000144404
0.000134737
0.0193683
0.000156731
0.000151806
0.000154456
0.0118413
0.000142719
0.000424943
0.000135913
0.000122293
0.0151662
0.000168391
0.000137327
0.000153842
0.000138784
0.000159118
0.0110631
0.000158955
0.0236545
0.000147466
0.0347385
0.000139744
0.000216125
0.00530957
0.000139835
0.0227497
0.0255695
0.000180203
0.000147132
0.000141393
0.0251654
0.00584104
0.000172266
0.0172203
0.000141085
0.0161184
0.000146036
0.000134006
0.000168266
0.0275752
0.000129753
0.00018198
0.00831456
0.0235746
0.0332329
0.0349941
0.000142558
0.00420164
0.0434146
0.00015234
0.000153679
0.0418127
0.0211762
0.000173134
0.029336
0.000156207
0.000156442
0.000156709
0.0168017
0.000154076
0.000146899
0.000139137
0.000143048
0.00220063
0.00586057
0.000142835
0.000138779
0.000396416
0.0326773
0.000150495
0.000152099
0.0127781
0.000142472
0.000179796
0.000145829
0.000136449
0.000149749
0.0311441
0.00020177
0.000267565
0.000138866
0.000152426
0.000187016
0.0128835
0.00014346
0.000142814
0.00370569
0.000145425
0.000134082
0.000205381
0.000137087
0.000128485
0.000182066
0.000137
0.000171698
0.000129238
0.000143023
0.000178693
0.00018815
0.000142609
0.000186188
0.000129227
0.0253032
0.00018716
0.000135276
0.0293505
0.000145812
0.000141106
0.0216693
0.0338033
0.0229706
0.00017235
0.000136015
0.000149957
0.000131089
0.000204555
0.00451418
0.00429008
0.000171206
0.00466623
0.000139607
0.0431844
0.000153669
0.00014311
0.000203163
0.000177364
0.000252957
0.000148756
0.000162862
0.000130637
0.000135993
0.000214143
0.00303362
0.000180226
0.00612511
0.000154379
0.0318025
0.0211006
0.0165811
0.00444828
0.00367961
0.000143404
0.000161216
0.000136271
0.0036779
0.000143838
0.000186995
0.0243041
0.00768726
0.000141803
0.0289702
0.000169162
0.000139528
0.000151799
0.000196003
0.000134791
0.00053288
0.000133376
0.000153988
0.028478
0.000145678
0.000159079
0.000151993
0.000161957
0.000134541
0.000185023
0.000157989
0.000137372
0.0001557
0.000190247
0.000133869
0.000129458
0.000145911
0.000866437
0.000135835
0.0291909
0.000168107
0.000195622
0.000160953
0.00016914
0.000136118
0.000147566
0.000134647
0.000148385
0.000131192
0.000192911
0.000145904
0.000148906
0.000141382
0.00338445
0.000208741
0.000142791
0.000149622
0.000134477
0.00149797
0.000158383
0.0231277
0.000310117
0.032265
0.000191671
0.000141944
0.000147653
0.000152201
0.00795483
0.000148008
0.00015355
0.000195677
0.000174076
0.0428998
0.00015409
0.000176656
0.000172194
0.000158247
0.0189414
0.000158158
0.0157627
0.0106945
0.000152236
0.000172608
0.000129323
0.014975
0.000141981
0.0172368
0.0284994
0.00775623
0.000167306
0.000158291
0.00013582
0.000143314
0.0333799
0.00151568
0.0207107
0.000151492
0.000153011
0.000149311
0.0148437
0.00015296
0.000136886
0.0136645
0.000167516
0.00019965
0.000152551
0.000156616
0.000170484
0.000142492
0.000145623
0.0316395
0.000153316
0.0027994
0.00759615
0.0236002
0.000191403
0.000167283
0.000161571
0.00016071
0.0208965
0.0236194
0.0124949
0.000184205
0.000137393
0.0101704
0.000143592
0.000163424
0.000138506
0.0330642
0.00173069
0.00305939
0.0205777
0.000151339
0.0041456
0.00310027
0.0147787
0.000201081
0.000179876
0.0207449
0.000138426
0.0359943
0.00427543
0.00686844
0.000152267
0.000174345
0.000144542
0.0065313
0.000128624
0.00013925
0.0001472
0.000146454
0.000139245
0.000150183
0.000142978
0.000147555
0.000145689
0.000184666
0.00657031
0.000143538
0.000137361
0.0144475
0.00016703
0.000137651
0.000149816
0.000139581
0.00716028
0.0149744
0.00014942
0.000154123
0.000185268
0.000143272
0.000162658
0.000201595
0.000152062
0.00220025
0.00017715
0.011216
0.0227264
0.000144602
0.00013649
0.000142968
0.0175724
0.0183172
0.000137329
0.000148888
0.0115925
0.000135336
0.0300054
0.000163153
0.00716281
0.000177957
0.000135333
0.0293657
0.000136591
0.0212957
0.00455506
0.000185005
0.000165627
0.000164703
0.000188552
0.000152662
0.0155206
0.000132266
0.000163192
0.0153834
0.000170028
0.000191567
0.00862985
0.000179876
0.00013215
0.00013491
0.0321236
0.000162696
0.000132048
0.000159157
0.000159975
0.00323602
0.0440263
0.000148186
0.03091
0.000175763
0.0239405
0.000153335
0.00707598
0.000184262
0.00685868
0.00701317
0.000200732
0.000132159
0.000137333
0.000223663
0.000137189
0.000153721
0.000155757
0.00014817
0.000152983
0.000182853
0.000135207
0.000192435
0.0287832
0.000136039
4.80828e-05
0.000133686
0.000137966
0.00336894
0.00108704
0.0344905
0.0129957
0.000161277
0.000175008
0.000173322
0.000133566
0.0215988
0.015446
0.00014427
0.0260921
0.000138594
0.000145707
0.000153913
0.000137719
0.000211357
0.0052911
0.000142521
0.0174947
0.000134579
0.0248389
0.0239504
0.0252786
0.0423184
0.00239556
0.000157777
0.000153781
0.000180472
0.000148737
0.000143502
0.000187161
0.00014915
0.0286192
0.000134443
0.000145433
0.000143937
0.000140273
0.0182093
0.00014197
0.000166425
0.00539401
0.000146801
0.000179677
0.000135832
0.000130896
0.000149565
0.0436359
0.00143194
0.000142276
0.000147051
0.0217182
0.000142207
0.0346264
0.000209924
0.000144993
0.00234476
0.000161581
0.000141215
0.000139561
0.00013224
0.0134648
0.00018283
0.000157075
0.000172848
0.00017954
0.022785
0.000133939
0.00235345
0.000146257
0.000152312
0.000145838
0.000163044
0.000145461
0.00131735
0.00260903
0.00198998
0.000131136
0.000191741
0.000145812
0.0103568
0.000193047
0.000146506
0.000153497
0.000190708
0.000142352
0.00601795
0.00380866
0.000136002
0.000147858
0.000154571
0.000141576
0.000152788
0.000140246
0.000152496
0.000143361
0.000155103
0.000152449
0.000135888
0.000178573
0.000143428
0.00723502
0.000138455
0.000145509
0.00131028
0.000144984
0.000153368
0.000144109
0.000148497
0.000143985
0.000144104
0.000162865
0.000204452
0.00192567
0.000136194
0.00830613
0.0228223
0.00292771
0.000137741
0.0136943
0.000155466
0.0143882
0.00507226
0.000246045
0.000162702
0.0207393
0.00670447
0.00015639
0.000160054
0.00015401
0.0219398
0.000131602
0.000175914
0.0171868
0.00456406
0.000140802
0.000136002
0.000139461
0.000186829
0.0243426
0.0085044
0.0319669
0.0339055
0.000135986
0.0135701
0.00223617
0.00458969
0.000181645
0.000177409
0.000140539
0.000152192
0.0401247
0.0167126
0.000153418
0.000142297
0.00017803
0.000136328
0.0141155
0.000152822
0.000142457
0.000169875
0.000184118
0.000134014
0.000202827
0.000192953
0.0329805
0.000133882
0.0062673
0.000135607
0.0287251
0.0139966
0.000259302
0.000143722
0.00314547
0.000141538
0.000141931
0.000190446
0.0203593
0.000133066
0.000153431
0.00272067
0.000161917
0.000161375
0.000130517
0.000212091
0.0265347
0.0214102
0.000202463
0.0203861
0.00744593
0.000161684
0.0332084
0.000150634
0.000142498
0.0224075
0.0241737
0.00032446
0.000136994
0.000203177
0.0182579
0.0281713
0.000191862
0.000191235
0.00259747
0.000168536
0.00015527
0.000169146
0.0167524
0.00014193
0.000178447
0.0001498
0.0298511
0.0246911
0.00012814
0.000142208
0.000165637
0.00250652
0.000135985
0.000143855
0.000150132
0.0320528
0.0088053
0.000189292
0.0240872
0.000147661
0.000137162
0.000159643
0.000143052
0.00364527
0.0110082
0.000188987
0.00312357
0.000150197
0.000174207
0.00013692
0.000136629
0.000141421
0.000140568
0.000158808
0.0130543
0.000145474
0.000159805
0.00201044
0.000168911
0.0105745
0.0159829
0.000132229
0.000141756
0.00018809
0.000133652
0.0205299
0.000132485
0.000137528
0.000134333
0.000193045
0.00013353
0.000153899
0.0286924
0.000202085
0.0334647
0.000150331
0.000153709
0.000138206
0.000140246
0.000136488
0.0321925
0.00017037
0.000153152
0.000194417
0.000157477
0.000144578
0.00193888
0.000212912
0.000136485
0.000155186
0.0414654
0.000167239
0.000192926
0.000144867
0.0399146
0.000136558
0.000144558
0.000181842
0.00014211
0.013532
0.000190451
0.00012954
0.000135912
0.0265577
0.0128615
0.000140388
0.000140301
0.000151784
0.000134219
0.000128484
0.000136453
0.000160421
0.00155229
0.000323616
0.000142236
0.000132383
0.000148665
0.00148277
0.00300738
0.000142689
0.000162326
0.00901939
0.0290958
0.00015405
0.0181036
0.000133586
0.000168512
0.000187763
0.000191873
0.000151784
0.000142929
0.000127971
0.0100429
0.000185796
0.000153189
0.000151642
0.0115456
0.000151805
0.000146659
0.000132244
0.0021448
0.000146368
0.000200155
0.000209028
0.000135831
0.000143767
0.0247047
0.000179749
0.000136189
0.00656796
0.000143882
0.00936888
0.000135742
0.000185087
0.00251962
0.000148104
0.000221195
0.0223263
0.000146379
0.000146714
0.000142998
0.00016734
0.000166938
0.0119186
0.000136844
0.000189225
0.00015509
0.000190799
0.000147941
0.000202085
0.000133019
0.00201273
0.000152962
0.000143162
0.0264014
0.000166444
0.00014322
0.000133131
0.000152096
0.00237667
0.000169261
0.000149253
0.000141544
0.000143454
0.000164601
0.0124483
0.000163434
0.0254598
0.000145511
0.000178726
0.000135666
0.0260978
0.000130025
0.00389239
0.00015959
0.000148877
0.0195519
0.0302753
0.000144029
0.000211457
0.000137745
0.0159984
0.0276257
0.000134422
0.00958994
0.000137707
0.000152416
0.00172598
0.000195123
0.00364168
0.023771
0.000130811
0.000749137
0.000141201
0.000143529
0.0251151
0.0292453
0.000132347
0.000179349
0.000148256
0.000167462
0.000145111
0.000171455
0.000142125
0.000178803
0.000143205
0.000141695
0.000176371
0.000150994
0.000186811
0.000793694
0.00128119
0.000142962
0.00014062
0.000190332
0.000185679
0.0132696
0.000138162
0.032588
0.000147993
0.000135902
0.0136585
0.000140092
0.000720473
0.000131341
0.000156825
0.0203266
0.000135708
0.000141076
0.000142518
0.000149402
0.000148632
0.0275564
0.000150373
0.0134636
0.000156058
0.000156511
0.00806601
0.00712493
0.000140334
0.000150131
0.0108083
0.00568975
0.000152811
0.000151024
0.00674765
0.02491
0.000142297
0.000167596
0.000130765
0.000143425
0.000124595
0.0213475
0.000181431
0.0202664
0.000149163
0.000153642
0.00306784
0.000204332
0.000129161
0.0327824
0.000171661
0.000180091
0.0118259
0.000137259
0.000214876
0.000143022
0.00014852
0.000136647
0.000168468
0.000166995
0.000177171
0.000152612
0.000154072
0.000177845
0.0225336
0.000145562
0.0123168
0.00250823
0.0294373
0.000132973
0.00013576
0.0142366
0.000141136
0.00242632
0.000146423
0.000186262
0.00041306
0.000144781
0.00661423
0.000141574
0.027587
0.000179865
0.0002073
0.0232002
0.000146691
0.000147111
0.0132084
0.000145792
0.00581465
0.00018158
0.000217156
0.000195092
0.000147666
0.00026033
0.000153327
0.000159433
0.000169132
0.00680734
0.000137339
0.000137238
0.018721
0.00690447
0.000181718
0.0333897
0.000153034
0.000137281
0.0140848
0.000173677
0.0242157
0.00172471
0.029544
0.000153734
0.000164867
0.00014987
0.0381019
0.000152962
0.00241453
0.000135342
0.000138321
0.00014741
0.028596
0.00480102
0.00016147
0.000166614
0.000157741
0.000129157
0.000189474
0.000129744
0.0194636
0.00920011
0.0261152
0.000129607
0.000152227
0.0221551
0.000162989
0.0278963
0.000134769
0.000135379
0.000191562
0.020589
0.000152324
0.0183398
0.0407485
0.00015815
0.0296211
0.000203023
0.000168483
0.000143922
0.0219004
0.00289673
0.000134236
0.00017584
0.0189763
0.00013832
0.0254821
0.000182973
0.019715
0.0215852
0.000150889
0.000143287
0.000132801
0.000132696
0.0136176
0.000146798
0.000136974
0.0291939
0.000141355
0.000172049
0.000150662
0.000174299
0.000182521
0.000189592
0.000140758
0.000151536
0.000196537
0.000172713
0.000147747
0.00014468
0.000183739
0.0224943
0.000143341
0.000210334
0.023662
0.0246333
0.00314442
0.000138998
0.000157911
0.0120177
0.0136007
0.000151017
0.000143096
0.0123566
0.00100665
0.0283228
0.00015436
0.00605835
0.0229198
0.000141806
0.000675634
0.000197531
0.00014925
0.000143098
0.000134043
0.0115036
0.000141156
0.0146693
0.000184696
0.0230554
0.000217152
0.0154571
0.0132245
0.00204691
0.00681973
0.000143881
0.00708773
0.000258574
0.000146029
0.000170253
0.000170844
0.000202091
0.0394018
0.000140145
0.000146246
0.000141078
0.00187444
0.000138726
0.000135334
0.000154381
0.000154324
0.000161645
0.0228248
0.000180442
0.000130792
0.000150613
0.00015478
0.000188814
0.000154635
0.000202582
0.000153127
0.0234936
0.0341784
0.000138519
0.0213843
0.000210017
0.0279525
0.0237009
0.000153914
0.0128844
0.000143544
0.000230672
0.0251858
0.000141067
0.000140602
0.000144579
0.000140111
0.000155042
0.00016066
0.000142242
0.00132009
0.000148406
0.0332116
0.000155271
0.0152029
0.000135319
0.000140155
0.00453134
0.000141353
0.000143997
0.000142828
0.000186051
0.000151393
0.000148467
0.000155593
0.000141019
0.000184368
0.000134193
0.00122602
0.000143446
0.000165542
0.0307303
0.000148352
0.000198676
0.000188004
0.000141833
0.0145701
0.000136688
0.0236497
0.032602
0.00515656
0.000180035
0.000138848
0.000190458
0.000192072
0.000143882
0.000162254
0.000167625
0.000169411
0.000151478
0.000138814
0.00269551
0.00649614
0.000144373
0.0270792
0.0107726
0.000135424
0.000138899
0.000132216
0.000189313
0.00288055
0.000220941
0.000142289
0.000138844
0.0038495
0.000168117
0.0285049
0.00763472
0.000142666
0.000152001
0.000136001
0.0228096
0.031782
0.000136275
0.000162935
0.00254044
0.0202906
0.000161403
0.000152884
0.000133409
0.0001472
0.0390746
0.000112617
0.000143444
0.0354512
0.000138263
0.00575478
0.00982219
0.000172141
7.6873e-05
0.00256473
0.000145782
0.00825433
0.000166794
0.0141836
0.00545018
0.000135461
0.0208518
0.0354697
0.00157903
0.00737425
0.000153202
0.0265895
0.0316903
0.00016277
0.000135764
0.00288316
0.00393181
0.00456687
0.000185569
0.000148897
0.000129076
0.000142454
0.0263801
0.0245576
0.000206617
0.000156486
0.000148364
0.000142611
0.0139603
0.000138077
0.0194397
0.0100471
0.000178264
0.000142148
0.014008
0.000142233
0.000177454
0.0239987
0.00469552
0.000150363
0.00014692
0.000143624
0.000141326
0.00017401
0.00014207
0.000171084
0.000173122
0.000145114
0.000130795
0.000196372
0.000254319
0.000138059
0.000135881
0.000141163
0.000153371
0.000155174
0.000371205
0.0189735
0.0136957
0.0102472
0.000144887
0.000142219
0.000178808
0.000182393
0.000136021
0.000189871
0.0166584
0.013176
0.000213814
0.0165766
0.000179787
0.000162202
0.0352007
0.00013829
0.00189522
0.000204408
0.000132909
0.00385129
0.000150375
0.000187953
0.0222852
0.000213694
0.000161115
0.0106687
0.000142911
0.000141831
0.000130183
0.000158278
0.000142338
0.000146369
0.000141052
0.0259202
0.000158448
0.000142312
0.000161959
0.000151893
0.00267239
0.0243835
0.0310024
0.000142972
0.000135699
0.0209123
0.000191149
0.0106112
0.000143416
0.000153361
0.000143925
0.000146726
0.0119328
0.000156759
0.000138555
0.000143753
0.000195569
0.000138779
0.000168412
0.000136232
0.000136685
0.000153811
0.000193892
0.000178184
0.000157623
0.000136322
0.0146449
0.000198495
0.0142804
0.021628
0.000146323
0.000252788
0.000204687
0.000184465
0.0340164
0.000157056
0.00236469
0.000150352
0.000185438
0.0245494
0.000135462
0.000141449
0.0192751
0.000130114
0.0136077
0.0359324
0.000138856
0.000183259
0.000136089
0.0001429
0.0107438
0.000134663
0.000136092
0.000135842
0.000132211
0.000159392
0.00014534
0.0256806
0.000135875
0.0296087
0.0120118
0.000147706
0.000143776
0.000139087
0.000136332
0.000153186
0.0140792
0.000135913
0.000181519
0.000158693
0.0227734
0.0246392
0.000150357
0.000217498
0.000172229
0.000130612
0.000134506
0.00143773
0.000130628
0.00013348
0.0111266
0.0054631
0.0238077
0.000143988
0.0208938
0.00179635
0.000131083
0.000170583
0.00014414
0.000141858
0.000132841
0.000140127
0.0237294
0.000142061
0.000144274
0.00369147
0.00015181
0.00740603
0.000160853
0.000147395
0.0235107
0.000134465
0.0122042
0.000131931
0.000150667
0.0220276
0.000141313
0.000135414
0.000142215
0.00835111
0.00234381
0.000145203
0.000141279
0.000133196
0.000159501
0.00517782
0.000201823
0.000148864
0.0106049
0.0215623
0.000142936
0.031427
0.000130531
0.000170997
0.00441741
0.00013215
0.000157113
0.0144013
0.000162557
0.0140882
0.00017823
0.000168928
0.0109227
0.000154726
0.000746681
0.000140703
0.0149219
0.000143824
0.0300289
0.000149592
0.000156498
0.000162396
0.000137952
0.0161136
0.00158028
0.0130299
0.000212757
0.000133825
0.0116781
0.000129572
0.000140136
0.0324418
0.000133299
0.0262838
0.0106781
0.000130992
0.000154073
0.000172956
0.000203203
0.000135468
0.000188686
0.000167033
0.00148086
0.0248886
0.000143027
0.000144213
0.000139911
0.000131485
0.018711
0.000188193
0.0038934
0.000138656
0.00609855
0.0358366
0.000129417
0.000133274
0.0115929
0.00028294
0.0465573
0.000221098
0.0131843
0.000214464
0.000181347
0.000187129
0.00238139
0.046158
0.000149355
0.000194675
0.000140208
0.000154337
0.000211732
0.0276586
0.000149993
0.000203999
0.00204215
0.000138882
0.00014808
0.000149398
0.000153875
0.000140163
0.0208256
0.000196172
0.0157691
0.00013511
0.000275331
0.000164806
0.000229079
0.000192283
0.000184282
0.014081
0.000137101
0.000141778
0.000214306
0.00013375
0.0420277
0.000177969
0.000143226
0.000129934
0.0280884
0.000143723
0.000149183
0.000138656
0.000158256
0.000177425
0.000167637
0.000154344
0.000141397
0.000145388
0.000191544
0.000135707
0.000136717
0.000141269
0.000142794
0.000129895
0.0132291
0.000233419
0.0199742
0.000152851
0.000156641
0.000156656
0.0265499
0.0224017
0.000141965
0.026485
0.000143132
0.00013505
0.000186161
0.032386
0.00291546
0.0246044
0.000206968
0.000188593
0.000139986
0.00014324
0.00017775
0.0140795
0.000171833
0.000128274
0.000206191
0.0359317
0.00013827
0.000137022
0.00334994
0.000148281
0.0298203
0.000220812
0.0387973
0.000135888
0.000163319
0.000141736
0.0291914
0.000150101
0.000133899
0.000154347
0.0148241
0.024584
0.0277494
0.0168737
0.000150142
0.00013502
0.000141684
0.0343151
0.000138486
0.000149226
0.000162304
0.000136572
0.000902216
0.00014128
0.000133639
0.000133686
0.000167753
0.000145132
0.00127627
0.00014552
0.000141773
0.0276391
0.000144628
0.0002121
0.0140027
0.000187449
0.000149174
0.0313044
0.00396052
0.000143992
0.0012033
0.000132556
7.63927e-05
0.00019688
0.0159292
0.00019077
0.000183619
0.000197829
0.000138848
0.000131648
0.000149596
0.000133617
0.000168326
0.0128895
0.000167947
0.0238225
0.000129552
0.0434692
0.000402451
0.000147757
0.000195569
0.000136011
0.000193866
0.000151897
0.0231495
0.000129838
0.0149425
0.000133452
0.000139602
0.000164095
0.0139406
0.000311329
0.000148137
0.0218965
0.014396
0.000134939
0.00457773
0.000167064
0.000185839
0.000679413
0.000142477
0.0287544
0.000139634
0.000142783
0.0236955
0.000166868
0.000133242
0.000141944
0.00013697
0.000134129
0.000149272
0.0147743
0.000231974
0.000300867
0.000140239
0.000143971
0.000188954
0.0193024
0.00869019
0.0306583
0.00414094
0.000148788
0.000137259
0.000137583
0.000157611
0.000143021
0.000133865
0.0132875
0.0215723
0.0118167
0.000143659
0.000139321
0.0136628
0.000143027
0.000138945
0.000142826
0.000152594
0.000214599
0.00725892
0.000141113
0.000134079
0.000166894
0.000142407
0.0156217
0.000159967
0.0047944
0.000146663
0.000179009
0.000141456
0.000132489
0.000202641
0.000151395
0.000464211
0.000136628
0.00768542
0.000150024
0.0131669
0.000138799
0.0136703
0.000137272
0.000190682
0.000141814
0.00013892
0.000143756
0.000208447
0.00171659
0.000142519
0.000152954
0.000135434
0.0375975
0.000179481
0.00357987
0.000154669
0.000151355
0.000167952
0.00205715
0.000184644
0.0129528
0.00014285
0.000144718
0.0152128
0.00681645
0.000129448
0.000218103
0.000152917
0.000135186
0.0132776
0.000140507
0.00388631
0.000145937
0.0151409
0.000140518
0.0287117
0.0165139
0.000131189
0.000145538
0.000130895
0.000146619
0.00182219
0.0151955
0.00617067
0.00306193
0.00014052
0.000198876
0.000142747
0.0230422
0.000130388
0.00219553
0.000134789
0.000223868
0.000141526
0.000138606
0.000154918
0.0173283
0.00155351
0.0111133
0.000188728
0.000179636
0.00344286
0.000193192
0.0251845
0.000142501
0.000158143
0.000152063
0.00013622
0.000135256
0.000184112
0.00329979
0.0204094
0.000158443
0.000144532
0.0224512
0.000143356
0.000186965
0.000196025
0.0274071
0.000155372
0.000136437
0.000135662
0.00014661
0.000143787
0.0230069
0.000187572
0.000138088
0.000153422
0.000177743
0.000155013
0.0342594
0.0127053
0.0106748
0.000143176
0.00401106
0.0240605
0.000175027
0.00700629
0.000137507
0.000139551
0.00729259
0.0380585
0.000933522
0.000138455
0.000160746
0.000131974
0.0231961
0.0370386
0.000135574
0.000154924
0.000137745
0.000144403
0.000125887
0.0363979
0.000139145
0.000137426
0.000154116
0.000143423
0.000135324
0.000162052
0.000138453
0.000150902
0.000135574
0.0265001
0.000136383
0.000190314
0.000134649
0.000132046
0.000137608
0.000165839
0.00013951
0.000139459
0.000135298
0.000143505
0.015806
0.000150922
0.000169864
0.000151298
0.013057
0.000149304
0.0190581
0.000138666
0.00691312
0.000170479
0.0433018
0.0036009
0.00349094
0.0171146
0.00506201
0.000131983
0.0390923
0.000147589
0.000155964
0.00368589
0.000190903
0.000171003
0.0459191
0.000189813
0.000162923
0.000157629
0.00745411
0.000139579
0.00014343
0.000147461
0.000166342
0.000139455
0.00013198
0.00350086
0.00015017
0.00013974
0.000141227
0.012021
0.000149107
0.000160349
0.035596
0.0368321
0.00858737
0.000173341
0.0142737
0.000154948
0.0144491
0.000135167
0.000155389
0.000166462
0.000147651
0.00013516
0.00209149
0.0392758
0.00017656
0.000162731
0.000149336
0.000149101
0.00128341
0.000161212
0.0202391
0.000149582
0.000142086
0.000141743
0.000143652
0.000145874
0.000139871
0.000159613
0.000144069
0.000146505
0.000158366
0.000151178
0.000141927
0.000148356
0.00720764
0.025686
0.000159688
0.000190117
0.00688758
0.000186677
0.000165006
0.000293015
0.000168866
0.000139157
0.00014212
0.000204667
0.00013492
0.00013196
0.000162148
0.00022371
0.000131943
0.000137406
0.00015266
0.000151774
0.000141014
0.00015857
0.000158152
0.00865071
0.017129
0.00481558
0.000132025
0.00014042
0.010017
0.0434399
0.000185148
0.00147449
0.0376901
0.000159022
0.000148311
0.000143482
0.0098455
0.00245294
0.000139822
0.000169395
0.0015197
0.000131015
0.00983528
0.0292543
0.00015164
0.00021552
0.000159455
0.000185908
0.000142111
0.0418
0.000205269
0.000151392
0.000140757
0.000145583
0.000178182
0.000128172
0.000132007
0.000191164
0.00022253
0.0112071
0.0237152
0.0280667
0.000143543
0.0226144
0.0427166
0.00384782
0.0358975
9.48978e-05
0.0276785
0.0259066
0.000143816
0.000158543
0.000216172
0.00014225
0.0132965
0.000144606
0.024962
0.000140954
0.000170839
0.000193074
0.0312086
0.000142099
0.000186723
0.000153869
0.000178591
0.00014305
0.000142157
0.00347809
0.0210639
0.000154665
0.00708961
0.000135998
0.000168784
0.000143318
0.000167292
0.0268749
0.000467669
0.013339
0.0251015
0.00586217
0.000154963
0.0193364
0.000152056
0.000130146
0.0243702
0.000471568
0.00013488
0.000149744
0.00014603
0.000149391
0.000759321
0.000138173
0.0295043
0.000187043
0.000485729
0.00014796
0.000184874
0.00016822
0.0135996
0.000180139